{
	 "smiles": "OC(=O)C1=CSC(=N1)C1=CN(N=C1)C1=CC=CC=C1", 
	 "Tm": 476.15, 
	 "num_atms": 28, 
	 "gaussian": { 
		 "optdone": 1, 
		 "sigma_profile": "yes", 
		 "theory": "DFT", 
		 "functional": "B3LYP", 
		 "basiset": "6-31G**", 
		 "properties": { 
			 "R2extent": 9674.086, 
			 "electric_dipole_moment_norm": 7.32607133189, 
			 "electric_quadrupole_moment_norm": 34.6671499886, 
			 "total_energy": -1213.68582684, 
			 "HOMO_LUMO_gap": 0.1612, 
			 "cosmo_polarized_energy": -16.7, 
			 "cosmo_cavitation_energy": 35.73, 
			 "cosmo_dispersion_energy": -26.71, 
			 "cosmo_repulsion_energy": 1.97, 
			 "cosmo_total_nonelectrostatic_energy": 10.99, 
			 "SMD_solvation_energy": 5.94 
		},
		"coords": [
			{
				"x": -5.4651703222,
				"y": -3.0127347785,
				"z": -2.6336191479,
				"element": "O" 
			},
			{
				"x": -6.0400075086,
				"y": -2.1636700627,
				"z": -1.7583056264,
				"element": "C" 
			},
			{
				"x": -7.2384730909,
				"y": -2.034493035,
				"z": -1.6616546868,
				"element": "O" 
			},
			{
				"x": -5.0580687103,
				"y": -1.4087041071,
				"z": -0.9241789383,
				"element": "C" 
			},
			{
				"x": -5.3925090443,
				"y": -0.4931580765,
				"z": 0.0334510205,
				"element": "C" 
			},
			{
				"x": -3.9571786396,
				"y": 0.1405603573,
				"z": 0.7549277932,
				"element": "S" 
			},
			{
				"x": -2.9862043474,
				"y": -0.8935068796,
				"z": -0.305247735,
				"element": "C" 
			},
			{
				"x": -3.7122172566,
				"y": -1.6287820369,
				"z": -1.1094456872,
				"element": "N" 
			},
			{
				"x": -1.5388514895,
				"y": -0.9084124673,
				"z": -0.2698451601,
				"element": "C" 
			},
			{
				"x": -0.6709546672,
				"y": -0.1825693951,
				"z": 0.5330061796,
				"element": "C" 
			},
			{
				"x": 0.593664568,
				"y": -0.5480445045,
				"z": 0.1889922315,
				"element": "N" 
			},
			{
				"x": 0.5954841932,
				"y": -1.4815380714,
				"z": -0.8040296128,
				"element": "N" 
			},
			{
				"x": -0.6777746762,
				"y": -1.6995404219,
				"z": -1.0809386341,
				"element": "C" 
			},
			{
				"x": 1.8288436244,
				"y": -0.0839369032,
				"z": 0.7265358135,
				"element": "C" 
			},
			{
				"x": 3.0276317806,
				"y": -0.5981909744,
				"z": 0.2190417148,
				"element": "C" 
			},
			{
				"x": 4.2400511084,
				"y": -0.150220676,
				"z": 0.7384986089,
				"element": "C" 
			},
			{
				"x": 4.2709607625,
				"y": 0.8038304944,
				"z": 1.7573483099,
				"element": "C" 
			},
			{
				"x": 3.0709559354,
				"y": 1.3107473228,
				"z": 2.2570412201,
				"element": "C" 
			},
			{
				"x": 1.8491694296,
				"y": 0.8727096842,
				"z": 1.7478961503,
				"element": "C" 
			},
			{
				"x": -4.498483699,
				"y": -2.939442272,
				"z": -2.522053291,
				"element": "H" 
			},
			{
				"x": -6.3830456322,
				"y": -0.1808162791,
				"z": 0.3290982127,
				"element": "H" 
			},
			{
				"x": -0.8730694593,
				"y": 0.5464267702,
				"z": 1.3013125971,
				"element": "H" 
			},
			{
				"x": -0.9603981475,
				"y": -2.408844896,
				"z": -1.8455581042,
				"element": "H" 
			},
			{
				"x": 2.9901243279,
				"y": -1.3372696594,
				"z": -0.5707022991,
				"element": "H" 
			},
			{
				"x": 5.1667981421,
				"y": -0.5528342025,
				"z": 0.3407512718,
				"element": "H" 
			},
			{
				"x": 5.2191496871,
				"y": 1.1486673273,
				"z": 2.157739691,
				"element": "H" 
			},
			{
				"x": 3.0787275517,
				"y": 2.0531264183,
				"z": 3.0493612433,
				"element": "H" 
			},
			{
				"x": 0.9297455801,
				"y": 1.2808413244,
				"z": 2.1520768648,
				"element": "H" 
			}
		],
		 "valence_orbital": [ 
			{
				"type": "occ",
				"energy": -0.29385,
				"method": "rhf"
			},
			{
				"type": "occ",
				"energy": -0.2705,
				"method": "rhf"
			},
			{
				"type": "occ",
				"energy": -0.27013,
				"method": "rhf"
			},
			{
				"type": "occ",
				"energy": -0.25766,
				"method": "rhf"
			},
			{
				"type": "occ",
				"energy": -0.23126,
				"method": "rhf"
			},
			{
				"type": "unocc",
				"energy": -0.07006,
				"method": "rhf"
			},
			{
				"type": "unocc",
				"energy": -0.03968,
				"method": "rhf"
			},
			{
				"type": "unocc",
				"energy": -0.02679,
				"method": "rhf"
			},
			{
				"type": "unocc",
				"energy": -0.01893,
				"method": "rhf"
			},
			{
				"type": "unocc",
				"energy": -0.00574,
				"method": "rhf"
			}
		],
		"cosmo_sigma_profile": { 
			"-0.025": 0.0,
			"-0.024": 0.0,
			"-0.023": 0.0,
			"-0.022": 0.0,
			"-0.021": 0.0,
			"-0.02": 0.0,
			"-0.019": 0.0,
			"-0.018": 0.0,
			"-0.017": 0.0,
			"-0.016": 0.0,
			"-0.015": 0.0,
			"-0.014": 0.293388225784,
			"-0.013": 0.665027405099,
			"-0.012": 1.29579837404,
			"-0.011": 3.12955824046,
			"-0.01": 4.46379665781,
			"-0.009": 5.02721146374,
			"-0.008": 6.21182688048,
			"-0.007": 6.35878670507,
			"-0.006": 13.1609396563,
			"-0.005": 16.4850626792,
			"-0.004": 16.8468603684,
			"-0.003": 17.4917385904,
			"-0.002": 16.9912509921,
			"-0.001": 22.3670879347,
			"0.0": 30.0709616225,
			"0.001": 29.2648977114,
			"0.002": 21.0131903425,
			"0.003": 16.2109444137,
			"0.004": 16.7780529597,
			"0.005": 11.0105155337,
			"0.006": 4.40643967892,
			"0.007": 3.49377797716,
			"0.008": 4.23203062098,
			"0.009": 5.12135943546,
			"0.01": 6.64465168046,
			"0.011": 5.94629787779,
			"0.012": 4.6730041543,
			"0.013": 1.59154033557,
			"0.014": 0.0556987781235,
			"0.015": 0.0,
			"0.016": 0.0,
			"0.017": 0.0,
			"0.018": 0.0,
			"0.019": 0.0,
			"0.02": 0.0,
			"0.021": 0.0,
			"0.022": 0.0,
			"0.023": 0.0,
			"0.024": 0.0,
			"0.025": 0.0
		}
	}
}
