{
	 "smiles": "CC1=CC2=C(C=C1C)N(C=N2)C1OC(CO)C(O)C1O", 
	 "Tm": 471.15, 
	 "num_atms": 38, 
	 "gaussian": { 
		 "optdone": 1, 
		 "sigma_profile": "yes", 
		 "theory": "DFT", 
		 "functional": "B3LYP", 
		 "basiset": "6-31G**", 
		 "properties": { 
			 "R2extent": 8256.654, 
			 "electric_dipole_moment_norm": 4.30758695095, 
			 "electric_quadrupole_moment_norm": 27.317947079, 
			 "total_energy": -954.721743984, 
			 "HOMO_LUMO_gap": 0.20436, 
			 "cosmo_polarized_energy": -18.78, 
			 "cosmo_cavitation_energy": 39.77, 
			 "cosmo_dispersion_energy": -28.38, 
			 "cosmo_repulsion_energy": 2.16, 
			 "cosmo_total_nonelectrostatic_energy": 13.55, 
			 "SMD_solvation_energy": 4.36 
		},
		"coords": [
			{
				"x": -4.3806197635,
				"y": -4.2918052886,
				"z": 1.4552065499,
				"element": "C" 
			},
			{
				"x": -3.4474948849,
				"y": -3.2343019966,
				"z": 0.9103420947,
				"element": "C" 
			},
			{
				"x": -2.8205125764,
				"y": -3.4347786459,
				"z": -0.3183053236,
				"element": "C" 
			},
			{
				"x": -1.9559982805,
				"y": -2.4551667192,
				"z": -0.8206000489,
				"element": "C" 
			},
			{
				"x": -1.7355008517,
				"y": -1.2798360301,
				"z": -0.0712701813,
				"element": "C" 
			},
			{
				"x": -2.3559714607,
				"y": -1.053622032,
				"z": 1.1596055405,
				"element": "C" 
			},
			{
				"x": -3.2138644189,
				"y": -2.0382720162,
				"z": 1.6529656573,
				"element": "C" 
			},
			{
				"x": -3.897844051,
				"y": -1.8259735401,
				"z": 2.98369779,
				"element": "C" 
			},
			{
				"x": -0.8472431417,
				"y": -0.5302084258,
				"z": -0.8316381708,
				"element": "N" 
			},
			{
				"x": -0.5875067523,
				"y": -1.279860294,
				"z": -1.9636596154,
				"element": "C" 
			},
			{
				"x": -1.2216588884,
				"y": -2.4246211558,
				"z": -1.9994048181,
				"element": "N" 
			},
			{
				"x": -0.3185448388,
				"y": 0.7769516961,
				"z": -0.4726287162,
				"element": "C" 
			},
			{
				"x": 0.7961961873,
				"y": 1.0569412807,
				"z": -1.3156455075,
				"element": "O" 
			},
			{
				"x": 0.6289495578,
				"y": 2.3446461874,
				"z": -1.9114050298,
				"element": "C" 
			},
			{
				"x": 1.3345602867,
				"y": 2.392694441,
				"z": -3.2559291927,
				"element": "C" 
			},
			{
				"x": 1.0289656024,
				"y": 3.6855386612,
				"z": -3.7867256831,
				"element": "O" 
			},
			{
				"x": -0.8913107638,
				"y": 2.5350964798,
				"z": -1.9993323719,
				"element": "C" 
			},
			{
				"x": -1.301640664,
				"y": 3.8834752605,
				"z": -2.0842982579,
				"element": "O" 
			},
			{
				"x": -1.335304205,
				"y": 1.9294623473,
				"z": -0.6601196455,
				"element": "C" 
			},
			{
				"x": -1.1383739861,
				"y": 2.8627662591,
				"z": 0.3831845032,
				"element": "O" 
			},
			{
				"x": -5.3951700292,
				"y": -3.9032017667,
				"z": 1.6081329354,
				"element": "H" 
			},
			{
				"x": -4.0420506251,
				"y": -4.6754186945,
				"z": 2.4257030051,
				"element": "H" 
			},
			{
				"x": -4.4509496237,
				"y": -5.1405913096,
				"z": 0.7700124846,
				"element": "H" 
			},
			{
				"x": -2.9949595731,
				"y": -4.342602056,
				"z": -0.8884329696,
				"element": "H" 
			},
			{
				"x": -2.1877219157,
				"y": -0.1418803165,
				"z": 1.7261121594,
				"element": "H" 
			},
			{
				"x": -3.6177396435,
				"y": -0.8641923115,
				"z": 3.4216255179,
				"element": "H" 
			},
			{
				"x": -3.6356800729,
				"y": -2.6092556772,
				"z": 3.7056308535,
				"element": "H" 
			},
			{
				"x": -4.9905065917,
				"y": -1.8422255625,
				"z": 2.8874506258,
				"element": "H" 
			},
			{
				"x": 0.1035322202,
				"y": -0.9222165788,
				"z": -2.7122003276,
				"element": "H" 
			},
			{
				"x": -0.0022640654,
				"y": 0.7470109398,
				"z": 0.5772392458,
				"element": "H" 
			},
			{
				"x": 1.0381761772,
				"y": 3.1266846622,
				"z": -1.2565834705,
				"element": "H" 
			},
			{
				"x": 0.9504444241,
				"y": 1.5894462126,
				"z": -3.9014909122,
				"element": "H" 
			},
			{
				"x": 2.4167354204,
				"y": 2.2504423189,
				"z": -3.1338155786,
				"element": "H" 
			},
			{
				"x": 1.3819752153,
				"y": 3.7514805704,
				"z": -4.6816455782,
				"element": "H" 
			},
			{
				"x": -1.2902532925,
				"y": 1.9356915105,
				"z": -2.8322293461,
				"element": "H" 
			},
			{
				"x": -0.7431945178,
				"y": 4.2917004733,
				"z": -2.7651908617,
				"element": "H" 
			},
			{
				"x": -2.3662485043,
				"y": 1.5530514563,
				"z": -0.6771048967,
				"element": "H" 
			},
			{
				"x": -1.3324071088,
				"y": 3.7321496607,
				"z": -0.0040524593,
				"element": "H" 
			}
		],
		 "valence_orbital": [ 
			{
				"type": "occ",
				"energy": -0.27968,
				"method": "rhf"
			},
			{
				"type": "occ",
				"energy": -0.27664,
				"method": "rhf"
			},
			{
				"type": "occ",
				"energy": -0.25935,
				"method": "rhf"
			},
			{
				"type": "occ",
				"energy": -0.2121,
				"method": "rhf"
			},
			{
				"type": "occ",
				"energy": -0.20954,
				"method": "rhf"
			},
			{
				"type": "unocc",
				"energy": -0.00518,
				"method": "rhf"
			},
			{
				"type": "unocc",
				"energy": 0.02577,
				"method": "rhf"
			},
			{
				"type": "unocc",
				"energy": 0.03322,
				"method": "rhf"
			},
			{
				"type": "unocc",
				"energy": 0.06023,
				"method": "rhf"
			},
			{
				"type": "unocc",
				"energy": 0.07587,
				"method": "rhf"
			}
		],
		"cosmo_sigma_profile": { 
			"-0.025": 0.0,
			"-0.024": 0.0,
			"-0.023": 0.0,
			"-0.022": 0.0,
			"-0.021": 0.0,
			"-0.02": 0.0,
			"-0.019": 0.0,
			"-0.018": 0.00953743966171,
			"-0.017": 0.638636277322,
			"-0.016": 1.21131787206,
			"-0.015": 1.21822907687,
			"-0.014": 0.902339771487,
			"-0.013": 0.517161925641,
			"-0.012": 1.08197225375,
			"-0.011": 1.76519926432,
			"-0.01": 1.20764439502,
			"-0.009": 1.736233098,
			"-0.008": 3.22814917967,
			"-0.007": 5.31082938479,
			"-0.006": 12.2554813124,
			"-0.005": 24.5219204131,
			"-0.004": 28.7524637063,
			"-0.003": 28.1096611284,
			"-0.002": 25.7890252526,
			"-0.001": 22.9014830481,
			"0.0": 26.2154158017,
			"0.001": 21.9777576733,
			"0.002": 15.2320751633,
			"0.003": 13.0892530788,
			"0.004": 12.3292911904,
			"0.005": 16.3740612439,
			"0.006": 10.4298707285,
			"0.007": 4.39546149019,
			"0.008": 5.0908591544,
			"0.009": 5.38143910988,
			"0.01": 4.26469863138,
			"0.011": 4.85556686451,
			"0.012": 3.28579820072,
			"0.013": 2.71273205969,
			"0.014": 1.05993529535,
			"0.015": 1.51089428573,
			"0.016": 0.845921090877,
			"0.017": 1.03526925156,
			"0.018": 0.607021093388,
			"0.019": 0.0184235560163,
			"0.02": 0.0,
			"0.021": 0.0,
			"0.022": 0.0,
			"0.023": 0.0,
			"0.024": 0.0,
			"0.025": 0.0
		}
	}
}
