{
	 "smiles": "NC1=C(C=CC=C1)C(=O)NCC1=CC=CO1", 
	 "Tm": 350.15, 
	 "num_atms": 28, 
	 "gaussian": { 
		 "optdone": 1, 
		 "sigma_profile": "yes", 
		 "theory": "DFT", 
		 "functional": "B3LYP", 
		 "basiset": "6-31G**", 
		 "properties": { 
			 "R2extent": 4393.7293, 
			 "electric_dipole_moment_norm": 5.08301572691, 
			 "electric_quadrupole_moment_norm": 14.7700679938, 
			 "total_energy": -724.446160291, 
			 "HOMO_LUMO_gap": 0.17872, 
			 "cosmo_polarized_energy": -15.48, 
			 "cosmo_cavitation_energy": 31.97, 
			 "cosmo_dispersion_energy": -22.85, 
			 "cosmo_repulsion_energy": 1.78, 
			 "cosmo_total_nonelectrostatic_energy": 10.89, 
			 "SMD_solvation_energy": 6.54 
		},
		"coords": [
			{
				"x": 1.8758850857,
				"y": 1.4189629365,
				"z": 0.6981998737,
				"element": "N" 
			},
			{
				"x": 1.1130107264,
				"y": 1.5925385657,
				"z": -0.4417136853,
				"element": "C" 
			},
			{
				"x": 0.6493495915,
				"y": 0.5005786784,
				"z": -1.2216440184,
				"element": "C" 
			},
			{
				"x": 0.0034281799,
				"y": 0.749145593,
				"z": -2.4426646586,
				"element": "C" 
			},
			{
				"x": -0.2622923328,
				"y": 2.0407539797,
				"z": -2.8795849184,
				"element": "C" 
			},
			{
				"x": 0.1586797871,
				"y": 3.1169105527,
				"z": -2.0897684005,
				"element": "C" 
			},
			{
				"x": 0.84003715,
				"y": 2.8988143996,
				"z": -0.9001341175,
				"element": "C" 
			},
			{
				"x": 0.8941971774,
				"y": -0.9354871235,
				"z": -0.8751878421,
				"element": "C" 
			},
			{
				"x": 1.2791841937,
				"y": -1.7490947582,
				"z": -1.7052885693,
				"element": "O" 
			},
			{
				"x": 0.6997124683,
				"y": -1.3331926939,
				"z": 0.4490283504,
				"element": "N" 
			},
			{
				"x": -0.4024099892,
				"y": -0.8527131023,
				"z": 1.2952425715,
				"element": "C" 
			},
			{
				"x": -0.10506258,
				"y": -1.018615413,
				"z": 2.7478232074,
				"element": "C" 
			},
			{
				"x": -0.6747250988,
				"y": -1.7642592946,
				"z": 3.737166899,
				"element": "C" 
			},
			{
				"x": 0.0675934277,
				"y": -1.4953289606,
				"z": 4.9354131133,
				"element": "C" 
			},
			{
				"x": 1.0376740192,
				"y": -0.6091485035,
				"z": 4.5856548612,
				"element": "C" 
			},
			{
				"x": 0.9477199291,
				"y": -0.3034594934,
				"z": 3.2575887045,
				"element": "O" 
			},
			{
				"x": 1.8929891219,
				"y": 0.5093836838,
				"z": 1.135605529,
				"element": "H" 
			},
			{
				"x": 1.9246280737,
				"y": 2.1954077027,
				"z": 1.3392652954,
				"element": "H" 
			},
			{
				"x": -0.2927213032,
				"y": -0.1089219297,
				"z": -3.0380462694,
				"element": "H" 
			},
			{
				"x": -0.7801288519,
				"y": 2.210268119,
				"z": -3.8178634237,
				"element": "H" 
			},
			{
				"x": -0.0363756183,
				"y": 4.1370778871,
				"z": -2.4094569685,
				"element": "H" 
			},
			{
				"x": 1.1922106129,
				"y": 3.7426988439,
				"z": -0.3116358964,
				"element": "H" 
			},
			{
				"x": 0.887969911,
				"y": -2.3266751247,
				"z": 0.5410791766,
				"element": "H" 
			},
			{
				"x": -0.5788545547,
				"y": 0.198676569,
				"z": 1.0540875141,
				"element": "H" 
			},
			{
				"x": -1.335650659,
				"y": -1.3913934368,
				"z": 1.0806398956,
				"element": "H" 
			},
			{
				"x": -1.5219653325,
				"y": -2.4263458311,
				"z": 3.6272682782,
				"element": "H" 
			},
			{
				"x": -0.1006997387,
				"y": -1.9101953218,
				"z": 5.9186348183,
				"element": "H" 
			},
			{
				"x": 1.8328166033,
				"y": -0.121386524,
				"z": 5.12779068,
				"element": "H" 
			}
		],
		 "valence_orbital": [ 
			{
				"type": "occ",
				"energy": -0.26698,
				"method": "rhf"
			},
			{
				"type": "occ",
				"energy": -0.25639,
				"method": "rhf"
			},
			{
				"type": "occ",
				"energy": -0.23974,
				"method": "rhf"
			},
			{
				"type": "occ",
				"energy": -0.23159,
				"method": "rhf"
			},
			{
				"type": "occ",
				"energy": -0.20024,
				"method": "rhf"
			},
			{
				"type": "unocc",
				"energy": -0.02152,
				"method": "rhf"
			},
			{
				"type": "unocc",
				"energy": -0.00326,
				"method": "rhf"
			},
			{
				"type": "unocc",
				"energy": 0.01464,
				"method": "rhf"
			},
			{
				"type": "unocc",
				"energy": 0.04904,
				"method": "rhf"
			},
			{
				"type": "unocc",
				"energy": 0.06101,
				"method": "rhf"
			}
		],
		"cosmo_sigma_profile": { 
			"-0.025": 0.0,
			"-0.024": 0.0,
			"-0.023": 0.0,
			"-0.022": 0.0,
			"-0.021": 0.0,
			"-0.02": 0.0,
			"-0.019": 0.0,
			"-0.018": 0.0,
			"-0.017": 0.0,
			"-0.016": 0.0,
			"-0.015": 0.0,
			"-0.014": 0.0183076558202,
			"-0.013": 1.41060407932,
			"-0.012": 1.88025178769,
			"-0.011": 2.33627311107,
			"-0.01": 2.20566643428,
			"-0.009": 2.95261543479,
			"-0.008": 4.53797445572,
			"-0.007": 7.29374696479,
			"-0.006": 15.3948121301,
			"-0.005": 17.7720034364,
			"-0.004": 19.2498346359,
			"-0.003": 18.961303582,
			"-0.002": 18.737066535,
			"-0.001": 14.296567371,
			"0.0": 13.550794264,
			"0.001": 14.4332039803,
			"0.002": 15.3011008074,
			"0.003": 16.8667395631,
			"0.004": 16.0740626244,
			"0.005": 16.6418424978,
			"0.006": 11.8953164856,
			"0.007": 3.124054233,
			"0.008": 1.94124237689,
			"0.009": 2.38152845326,
			"0.01": 1.89307034997,
			"0.011": 2.95603441387,
			"0.012": 3.04748471452,
			"0.013": 5.30213713544,
			"0.014": 2.60628185781,
			"0.015": 0.119362639663,
			"0.016": 0.0,
			"0.017": 0.0,
			"0.018": 0.0,
			"0.019": 0.0,
			"0.02": 0.0,
			"0.021": 0.0,
			"0.022": 0.0,
			"0.023": 0.0,
			"0.024": 0.0,
			"0.025": 0.0
		}
	}
}
