{
	 "smiles": "FC(F)(F)C1=CC=NC=C1C(=O)NCC#N", 
	 "Tm": 431.15, 
	 "num_atms": 22, 
	 "gaussian": { 
		 "optdone": 1, 
		 "sigma_profile": "yes", 
		 "theory": "DFT", 
		 "functional": "B3LYP", 
		 "basiset": "6-31G**", 
		 "properties": { 
			 "R2extent": 3235.3365, 
			 "electric_dipole_moment_norm": 3.92460506421, 
			 "electric_quadrupole_moment_norm": 14.9047082333, 
			 "total_energy": -885.54758324, 
			 "HOMO_LUMO_gap": 0.2006, 
			 "cosmo_polarized_energy": -18.91, 
			 "cosmo_cavitation_energy": 29.38, 
			 "cosmo_dispersion_energy": -19.48, 
			 "cosmo_repulsion_energy": 1.47, 
			 "cosmo_total_nonelectrostatic_energy": 11.38, 
			 "SMD_solvation_energy": 6.48 
		},
		"coords": [
			{
				"x": 0.5057071513,
				"y": 3.1802625163,
				"z": -0.64955715,
				"element": "F" 
			},
			{
				"x": 0.4463797507,
				"y": 1.8364591052,
				"z": -0.6900128815,
				"element": "C" 
			},
			{
				"x": 0.4371775178,
				"y": 1.463036112,
				"z": -1.9813202352,
				"element": "F" 
			},
			{
				"x": 1.6055657287,
				"y": 1.3749679737,
				"z": -0.1476693532,
				"element": "F" 
			},
			{
				"x": -0.7523786467,
				"y": 1.305810562,
				"z": 0.0647992762,
				"element": "C" 
			},
			{
				"x": -1.4148452321,
				"y": 2.1382675722,
				"z": 0.9667727871,
				"element": "C" 
			},
			{
				"x": -2.5063624562,
				"y": 1.6312852621,
				"z": 1.6711381572,
				"element": "C" 
			},
			{
				"x": -2.9663097011,
				"y": 0.3847934105,
				"z": 1.5199078611,
				"element": "N" 
			},
			{
				"x": -2.3338598132,
				"y": -0.4007394924,
				"z": 0.6450804585,
				"element": "C" 
			},
			{
				"x": -1.2104135487,
				"y": -0.0110362874,
				"z": -0.0993580755,
				"element": "C" 
			},
			{
				"x": -0.6798973995,
				"y": -0.9964442841,
				"z": -1.1177798395,
				"element": "C" 
			},
			{
				"x": -1.343095922,
				"y": -1.2893357708,
				"z": -2.0977689416,
				"element": "O" 
			},
			{
				"x": 0.562362925,
				"y": -1.5483626258,
				"z": -0.8964084929,
				"element": "N" 
			},
			{
				"x": 1.2838401815,
				"y": -1.5937416313,
				"z": 0.3639999412,
				"element": "C" 
			},
			{
				"x": 0.985407107,
				"y": -2.8015917458,
				"z": 1.1600604276,
				"element": "C" 
			},
			{
				"x": 0.7465345011,
				"y": -3.759392359,
				"z": 1.7697580754,
				"element": "N" 
			},
			{
				"x": -1.0941231273,
				"y": 3.1635179131,
				"z": 1.106917001,
				"element": "H" 
			},
			{
				"x": -3.0380620195,
				"y": 2.2598829181,
				"z": 2.3820181518,
				"element": "H" 
			},
			{
				"x": -2.7337711154,
				"y": -1.4040950668,
				"z": 0.5172311417,
				"element": "H" 
			},
			{
				"x": 0.8078817561,
				"y": -2.2432531071,
				"z": -1.5923528177,
				"element": "H" 
			},
			{
				"x": 2.3610008601,
				"y": -1.5575772079,
				"z": 0.1708746765,
				"element": "H" 
			},
			{
				"x": 1.0448615027,
				"y": -0.7097137668,
				"z": 0.9563698318,
				"element": "H" 
			}
		],
		 "valence_orbital": [ 
			{
				"type": "occ",
				"energy": -0.32361,
				"method": "rhf"
			},
			{
				"type": "occ",
				"energy": -0.30476,
				"method": "rhf"
			},
			{
				"type": "occ",
				"energy": -0.29014,
				"method": "rhf"
			},
			{
				"type": "occ",
				"energy": -0.28457,
				"method": "rhf"
			},
			{
				"type": "occ",
				"energy": -0.27113,
				"method": "rhf"
			},
			{
				"type": "unocc",
				"energy": -0.07053,
				"method": "rhf"
			},
			{
				"type": "unocc",
				"energy": -0.04854,
				"method": "rhf"
			},
			{
				"type": "unocc",
				"energy": -0.0127,
				"method": "rhf"
			},
			{
				"type": "unocc",
				"energy": 0.01198,
				"method": "rhf"
			},
			{
				"type": "unocc",
				"energy": 0.02359,
				"method": "rhf"
			}
		],
		"cosmo_sigma_profile": { 
			"-0.025": 0.0,
			"-0.024": 0.0,
			"-0.023": 0.0,
			"-0.022": 0.0,
			"-0.021": 0.0,
			"-0.02": 0.0,
			"-0.019": 0.0,
			"-0.018": 0.0,
			"-0.017": 0.0,
			"-0.016": 0.847360492683,
			"-0.015": 1.38664463159,
			"-0.014": 1.31945570875,
			"-0.013": 1.0851457075,
			"-0.012": 1.28714369391,
			"-0.011": 2.48382025352,
			"-0.01": 5.46850262919,
			"-0.009": 5.167655174,
			"-0.008": 10.7683520396,
			"-0.007": 11.3974972298,
			"-0.006": 9.70224271414,
			"-0.005": 9.5947055809,
			"-0.004": 11.2042492025,
			"-0.003": 11.4396328657,
			"-0.002": 12.3889324347,
			"-0.001": 14.9955412341,
			"0.0": 14.446838758,
			"0.001": 17.5086983645,
			"0.002": 27.165832819,
			"0.003": 10.1481074995,
			"0.004": 5.14379809186,
			"0.005": 5.13545070684,
			"0.006": 5.96176005883,
			"0.007": 5.19344090667,
			"0.008": 5.71402752919,
			"0.009": 5.1159834377,
			"0.01": 6.18055620166,
			"0.011": 6.61530342469,
			"0.012": 7.98176069131,
			"0.013": 2.6753001361,
			"0.014": 1.0452807736,
			"0.015": 0.505433084508,
			"0.016": 0.0109277505889,
			"0.017": 0.0,
			"0.018": 0.0,
			"0.019": 0.0,
			"0.02": 0.0,
			"0.021": 0.0,
			"0.022": 0.0,
			"0.023": 0.0,
			"0.024": 0.0,
			"0.025": 0.0
		}
	}
}
