{
	 "smiles": "CC1=CC(N)=NN1C1=CC(Cl)=C(Cl)C=C1", 
	 "Tm": 398.15, 
	 "num_atms": 24, 
	 "gaussian": { 
		 "optdone": 1, 
		 "sigma_profile": "yes", 
		 "theory": "DFT", 
		 "functional": "B3LYP", 
		 "basiset": "6-31G**", 
		 "properties": { 
			 "R2extent": 7479.1628, 
			 "electric_dipole_moment_norm": 4.66265744292, 
			 "electric_quadrupole_moment_norm": 13.6167643653, 
			 "total_energy": -1471.1111717, 
			 "HOMO_LUMO_gap": 0.17311, 
			 "cosmo_polarized_energy": -12.09, 
			 "cosmo_cavitation_energy": 31.72, 
			 "cosmo_dispersion_energy": -23.51, 
			 "cosmo_repulsion_energy": 1.85, 
			 "cosmo_total_nonelectrostatic_energy": 10.06, 
			 "SMD_solvation_energy": 4.11 
		},
		"coords": [
			{
				"x": 0.5961974623,
				"y": 2.2049350493,
				"z": -0.7181113377,
				"element": "C" 
			},
			{
				"x": 0.2759887909,
				"y": 0.7749204013,
				"z": -1.0250537987,
				"element": "C" 
			},
			{
				"x": -0.7765021381,
				"y": 0.2734986832,
				"z": -1.7610426652,
				"element": "C" 
			},
			{
				"x": -0.6559385743,
				"y": -1.1400592158,
				"z": -1.6788452536,
				"element": "C" 
			},
			{
				"x": -1.5209759979,
				"y": -2.0915991022,
				"z": -2.2076199052,
				"element": "N" 
			},
			{
				"x": 0.3935867569,
				"y": -1.501661663,
				"z": -0.9532387238,
				"element": "N" 
			},
			{
				"x": 0.971824163,
				"y": -0.3171581101,
				"z": -0.5538702338,
				"element": "N" 
			},
			{
				"x": 2.0799741126,
				"y": -0.3821234355,
				"z": 0.3175039087,
				"element": "C" 
			},
			{
				"x": 2.1672730448,
				"y": -1.4600300134,
				"z": 1.2078788738,
				"element": "C" 
			},
			{
				"x": 3.2497454761,
				"y": -1.5662437639,
				"z": 2.0762950841,
				"element": "C" 
			},
			{
				"x": 3.3081061122,
				"y": -2.9294756506,
				"z": 3.1678204989,
				"element": "Cl" 
			},
			{
				"x": 4.257968766,
				"y": -0.5910057926,
				"z": 2.0752784101,
				"element": "C" 
			},
			{
				"x": 5.6278387209,
				"y": -0.6804016246,
				"z": 3.1549841161,
				"element": "Cl" 
			},
			{
				"x": 4.1702000988,
				"y": 0.4739279033,
				"z": 1.1782698432,
				"element": "C" 
			},
			{
				"x": 3.0999643835,
				"y": 0.5777838347,
				"z": 0.294735192,
				"element": "C" 
			},
			{
				"x": 1.4059923759,
				"y": 2.5993408216,
				"z": -1.3432952363,
				"element": "H" 
			},
			{
				"x": 0.8862095482,
				"y": 2.3437125083,
				"z": 0.3275983527,
				"element": "H" 
			},
			{
				"x": -0.2890102793,
				"y": 2.8161807005,
				"z": -0.9083783267,
				"element": "H" 
			},
			{
				"x": -1.5425430421,
				"y": 0.847645651,
				"z": -2.2615723996,
				"element": "H" 
			},
			{
				"x": -1.8856595147,
				"y": -1.8556755657,
				"z": -3.1209634813,
				"element": "H" 
			},
			{
				"x": -1.1223754289,
				"y": -3.0224132142,
				"z": -2.1948006287,
				"element": "H" 
			},
			{
				"x": 1.3898295062,
				"y": -2.2121875245,
				"z": 1.205546102,
				"element": "H" 
			},
			{
				"x": 4.9618523125,
				"y": 1.2146240668,
				"z": 1.1625787905,
				"element": "H" 
			},
			{
				"x": 3.0830533446,
				"y": 1.3867650564,
				"z": -0.4234971814,
				"element": "H" 
			}
		],
		 "valence_orbital": [ 
			{
				"type": "occ",
				"energy": -0.28932,
				"method": "rhf"
			},
			{
				"type": "occ",
				"energy": -0.26496,
				"method": "rhf"
			},
			{
				"type": "occ",
				"energy": -0.25573,
				"method": "rhf"
			},
			{
				"type": "occ",
				"energy": -0.23815,
				"method": "rhf"
			},
			{
				"type": "occ",
				"energy": -0.20386,
				"method": "rhf"
			},
			{
				"type": "unocc",
				"energy": -0.03075,
				"method": "rhf"
			},
			{
				"type": "unocc",
				"energy": -0.02401,
				"method": "rhf"
			},
			{
				"type": "unocc",
				"energy": 0.00428,
				"method": "rhf"
			},
			{
				"type": "unocc",
				"energy": 0.02996,
				"method": "rhf"
			},
			{
				"type": "unocc",
				"energy": 0.06383,
				"method": "rhf"
			}
		],
		"cosmo_sigma_profile": { 
			"-0.025": 0.0,
			"-0.024": 0.0,
			"-0.023": 0.0,
			"-0.022": 0.0,
			"-0.021": 0.0,
			"-0.02": 0.0,
			"-0.019": 0.0,
			"-0.018": 0.0,
			"-0.017": 0.0,
			"-0.016": 0.0,
			"-0.015": 0.0,
			"-0.014": 0.0,
			"-0.013": 0.603853772021,
			"-0.012": 2.25762908832,
			"-0.011": 2.12794225459,
			"-0.01": 2.63365913257,
			"-0.009": 2.66420787838,
			"-0.008": 5.87130104688,
			"-0.007": 7.64640642681,
			"-0.006": 10.8744016963,
			"-0.005": 12.6959622215,
			"-0.004": 13.5594462264,
			"-0.003": 15.2776493419,
			"-0.002": 15.2763996916,
			"-0.001": 19.3247330533,
			"0.0": 20.568345825,
			"0.001": 27.2994019526,
			"0.002": 21.5512262409,
			"0.003": 20.7729727513,
			"0.004": 23.0259327282,
			"0.005": 12.1313434705,
			"0.006": 5.54050792887,
			"0.007": 2.61276306439,
			"0.008": 2.73201491103,
			"0.009": 2.20278965983,
			"0.01": 2.30869678224,
			"0.011": 1.65563972628,
			"0.012": 1.57032406915,
			"0.013": 1.32216592629,
			"0.014": 1.26449920466,
			"0.015": 0.708718448345,
			"0.016": 0.0,
			"0.017": 0.0,
			"0.018": 0.0,
			"0.019": 0.0,
			"0.02": 0.0,
			"0.021": 0.0,
			"0.022": 0.0,
			"0.023": 0.0,
			"0.024": 0.0,
			"0.025": 0.0
		}
	}
}
