{
	 "smiles": "COC(=O)C1=CC(=CC=C1Br)[N+]([O-])=O", 
	 "Tm": 354.15, 
	 "num_atms": 20, 
	 "gaussian": { 
		 "optdone": 1, 
		 "sigma_profile": "yes", 
		 "theory": "DFT", 
		 "functional": "B3LYP", 
		 "basiset": "6-31G**", 
		 "properties": { 
			 "R2extent": 4235.8199, 
			 "electric_dipole_moment_norm": 4.66888368457, 
			 "electric_quadrupole_moment_norm": 11.8835481759, 
			 "total_energy": -3235.41560182, 
			 "HOMO_LUMO_gap": 0.17385, 
			 "cosmo_polarized_energy": -10.83, 
			 "cosmo_cavitation_energy": 28.23, 
			 "cosmo_dispersion_energy": -20.73, 
			 "cosmo_repulsion_energy": 1.62, 
			 "cosmo_total_nonelectrostatic_energy": 9.12, 
			 "SMD_solvation_energy": 7.76 
		},
		"coords": [
			{
				"x": 3.7116957447,
				"y": -1.1009268459,
				"z": 0.1743227617,
				"element": "C" 
			},
			{
				"x": 2.5011854052,
				"y": -0.3567175338,
				"z": 0.4078092161,
				"element": "O" 
			},
			{
				"x": 1.3709864901,
				"y": -0.9682519286,
				"z": 0.0313594815,
				"element": "C" 
			},
			{
				"x": 1.3334143168,
				"y": -2.0852378678,
				"z": -0.4442076062,
				"element": "O" 
			},
			{
				"x": 0.1264205544,
				"y": -0.1678390633,
				"z": 0.3044313813,
				"element": "C" 
			},
			{
				"x": -1.0353548029,
				"y": -0.9436261823,
				"z": 0.4265297938,
				"element": "C" 
			},
			{
				"x": -2.2557235058,
				"y": -0.3434414002,
				"z": 0.6944141967,
				"element": "C" 
			},
			{
				"x": -2.3772347843,
				"y": 1.0373717187,
				"z": 0.8334067212,
				"element": "C" 
			},
			{
				"x": -1.2383229951,
				"y": 1.8186600053,
				"z": 0.6917061631,
				"element": "C" 
			},
			{
				"x": 0.0061617058,
				"y": 1.2303347159,
				"z": 0.4309916688,
				"element": "C" 
			},
			{
				"x": 1.4519557311,
				"y": 2.4481213057,
				"z": 0.2076742975,
				"element": "Br" 
			},
			{
				"x": -3.4549318077,
				"y": -1.1860461003,
				"z": 0.831713968,
				"element": "N" 
			},
			{
				"x": -4.5213271127,
				"y": -0.6157862339,
				"z": 1.0590943208,
				"element": "O" 
			},
			{
				"x": -3.314742213,
				"y": -2.4009246503,
				"z": 0.7118354343,
				"element": "O" 
			},
			{
				"x": 4.5190367683,
				"y": -0.4540118979,
				"z": 0.5151159324,
				"element": "H" 
			},
			{
				"x": 3.8200096709,
				"y": -1.3300365423,
				"z": -0.8881356104,
				"element": "H" 
			},
			{
				"x": 3.6981904811,
				"y": -2.0353606391,
				"z": 0.7400452144,
				"element": "H" 
			},
			{
				"x": -0.9671606932,
				"y": -2.0172524245,
				"z": 0.3065570753,
				"element": "H" 
			},
			{
				"x": -3.3453558393,
				"y": 1.4761504824,
				"z": 1.0398758559,
				"element": "H" 
			},
			{
				"x": -1.3046031143,
				"y": 2.8965210822,
				"z": 0.7771597338,
				"element": "H" 
			}
		],
		 "valence_orbital": [ 
			{
				"type": "occ",
				"energy": -0.30308,
				"method": "rhf"
			},
			{
				"type": "occ",
				"energy": -0.30143,
				"method": "rhf"
			},
			{
				"type": "occ",
				"energy": -0.29654,
				"method": "rhf"
			},
			{
				"type": "occ",
				"energy": -0.28782,
				"method": "rhf"
			},
			{
				"type": "occ",
				"energy": -0.27477,
				"method": "rhf"
			},
			{
				"type": "unocc",
				"energy": -0.10092,
				"method": "rhf"
			},
			{
				"type": "unocc",
				"energy": -0.06885,
				"method": "rhf"
			},
			{
				"type": "unocc",
				"energy": -0.02374,
				"method": "rhf"
			},
			{
				"type": "unocc",
				"energy": -0.01522,
				"method": "rhf"
			},
			{
				"type": "unocc",
				"energy": 0.03211,
				"method": "rhf"
			}
		],
		"cosmo_sigma_profile": { 
			"-0.025": 0.0,
			"-0.024": 0.0,
			"-0.023": 0.0,
			"-0.022": 0.0,
			"-0.021": 0.0,
			"-0.02": 0.0,
			"-0.019": 0.0,
			"-0.018": 0.0,
			"-0.017": 0.0,
			"-0.016": 0.0,
			"-0.015": 0.0,
			"-0.014": 0.0,
			"-0.013": 0.0,
			"-0.012": 0.0,
			"-0.011": 0.0,
			"-0.01": 0.0154195480806,
			"-0.009": 2.03592394375,
			"-0.008": 4.13781759928,
			"-0.007": 7.26216303043,
			"-0.006": 10.8989012666,
			"-0.005": 15.6364384246,
			"-0.004": 21.0687329756,
			"-0.003": 20.0285585868,
			"-0.002": 22.7417610586,
			"-0.001": 22.9788738227,
			"0.0": 13.7300292403,
			"0.001": 10.205658658,
			"0.002": 11.0248623449,
			"0.003": 12.8548830833,
			"0.004": 8.77374212371,
			"0.005": 7.06768903009,
			"0.006": 6.33427847354,
			"0.007": 12.6080678665,
			"0.008": 6.93611445104,
			"0.009": 5.55926236488,
			"0.01": 3.39999156639,
			"0.011": 4.12531297282,
			"0.012": 0.675675316082,
			"0.013": 0.0,
			"0.014": 0.0,
			"0.015": 0.0,
			"0.016": 0.0,
			"0.017": 0.0,
			"0.018": 0.0,
			"0.019": 0.0,
			"0.02": 0.0,
			"0.021": 0.0,
			"0.022": 0.0,
			"0.023": 0.0,
			"0.024": 0.0,
			"0.025": 0.0
		}
	}
}
