{
	 "smiles": "COC1=C(OC)C=C(C=C1)C1=NNC(=C1)C(O)=O", 
	 "Tm": 499.15, 
	 "num_atms": 30, 
	 "gaussian": { 
		 "optdone": 1, 
		 "sigma_profile": "yes", 
		 "theory": "DFT", 
		 "functional": "B3LYP", 
		 "basiset": "6-31G**", 
		 "properties": { 
			 "R2extent": 7476.4141, 
			 "electric_dipole_moment_norm": 3.4949445389, 
			 "electric_quadrupole_moment_norm": 16.6304024651, 
			 "total_energy": -874.879348598, 
			 "HOMO_LUMO_gap": 0.15588, 
			 "cosmo_polarized_energy": -17.19, 
			 "cosmo_cavitation_energy": 35.37, 
			 "cosmo_dispersion_energy": -25.54, 
			 "cosmo_repulsion_energy": 1.98, 
			 "cosmo_total_nonelectrostatic_energy": 11.81, 
			 "SMD_solvation_energy": 7.94 
		},
		"coords": [
			{
				"x": 0.4817730161,
				"y": 4.6761926002,
				"z": 2.8005431131,
				"element": "C" 
			},
			{
				"x": 1.2371474019,
				"y": 3.4814984689,
				"z": 2.5863740913,
				"element": "O" 
			},
			{
				"x": 0.7525565778,
				"y": 2.6213676519,
				"z": 1.6333654229,
				"element": "C" 
			},
			{
				"x": 0.7494110926,
				"y": 2.9538330507,
				"z": 0.2591649505,
				"element": "C" 
			},
			{
				"x": 1.2166437682,
				"y": 4.1991145634,
				"z": -0.0579479087,
				"element": "O" 
			},
			{
				"x": 1.2782422225,
				"y": 4.5657194509,
				"z": -1.4264095384,
				"element": "C" 
			},
			{
				"x": 0.2969366055,
				"y": 2.0199791869,
				"z": -0.6734741282,
				"element": "C" 
			},
			{
				"x": -0.1436149712,
				"y": 0.7468810658,
				"z": -0.2690267429,
				"element": "C" 
			},
			{
				"x": -0.1212792041,
				"y": 0.42112628,
				"z": 1.0919143986,
				"element": "C" 
			},
			{
				"x": 0.3194423635,
				"y": 1.3572421951,
				"z": 2.0256093043,
				"element": "C" 
			},
			{
				"x": -0.6163481403,
				"y": -0.2290028692,
				"z": -1.264965003,
				"element": "C" 
			},
			{
				"x": -0.9799187603,
				"y": -1.4714187363,
				"z": -0.8880515994,
				"element": "N" 
			},
			{
				"x": -1.3523078834,
				"y": -2.085080202,
				"z": -2.0111652108,
				"element": "N" 
			},
			{
				"x": -1.2468990777,
				"y": -1.2933061697,
				"z": -3.1138724514,
				"element": "C" 
			},
			{
				"x": -0.7695332015,
				"y": -0.0723009468,
				"z": -2.6650833282,
				"element": "C" 
			},
			{
				"x": -1.621241668,
				"y": -1.83070905,
				"z": -4.4221978428,
				"element": "C" 
			},
			{
				"x": -1.4656991733,
				"y": -0.934615645,
				"z": -5.4209699372,
				"element": "O" 
			},
			{
				"x": -2.0298126144,
				"y": -2.9649894082,
				"z": -4.5944443338,
				"element": "O" 
			},
			{
				"x": 0.4676468201,
				"y": 5.3097451771,
				"z": 1.909165304,
				"element": "H" 
			},
			{
				"x": 0.9777499025,
				"y": 5.2054071715,
				"z": 3.6169469765,
				"element": "H" 
			},
			{
				"x": -0.5481653444,
				"y": 4.4393873194,
				"z": 3.0982976592,
				"element": "H" 
			},
			{
				"x": 1.6944748188,
				"y": 5.5740454222,
				"z": -1.4491826834,
				"element": "H" 
			},
			{
				"x": 1.9323985996,
				"y": 3.8927829754,
				"z": -1.995487146,
				"element": "H" 
			},
			{
				"x": 0.2833001131,
				"y": 4.5759988344,
				"z": -1.8906800062,
				"element": "H" 
			},
			{
				"x": 0.2970609628,
				"y": 2.2730131637,
				"z": -1.7263808007,
				"element": "H" 
			},
			{
				"x": -0.4555690746,
				"y": -0.5594646791,
				"z": 1.4100918583,
				"element": "H" 
			},
			{
				"x": 0.3438827937,
				"y": 1.1221348544,
				"z": 3.0849887612,
				"element": "H" 
			},
			{
				"x": -1.6721472062,
				"y": -3.0432428306,
				"z": -2.0022029295,
				"element": "H" 
			},
			{
				"x": -0.5723098758,
				"y": 0.7942963987,
				"z": -3.2759270549,
				"element": "H" 
			},
			{
				"x": -1.7390208638,
				"y": -1.3886352937,
				"z": -6.2354931948,
				"element": "H" 
			}
		],
		 "valence_orbital": [ 
			{
				"type": "occ",
				"energy": -0.28178,
				"method": "rhf"
			},
			{
				"type": "occ",
				"energy": -0.26751,
				"method": "rhf"
			},
			{
				"type": "occ",
				"energy": -0.26472,
				"method": "rhf"
			},
			{
				"type": "occ",
				"energy": -0.23394,
				"method": "rhf"
			},
			{
				"type": "occ",
				"energy": -0.20484,
				"method": "rhf"
			},
			{
				"type": "unocc",
				"energy": -0.04896,
				"method": "rhf"
			},
			{
				"type": "unocc",
				"energy": -0.01941,
				"method": "rhf"
			},
			{
				"type": "unocc",
				"energy": 0.01122,
				"method": "rhf"
			},
			{
				"type": "unocc",
				"energy": 0.0689,
				"method": "rhf"
			},
			{
				"type": "unocc",
				"energy": 0.07381,
				"method": "rhf"
			}
		],
		"cosmo_sigma_profile": { 
			"-0.025": 0.0,
			"-0.024": 0.0,
			"-0.023": 0.0,
			"-0.022": 0.0,
			"-0.021": 0.0,
			"-0.02": 0.0,
			"-0.019": 0.450460768271,
			"-0.018": 0.945480702781,
			"-0.017": 1.27883962108,
			"-0.016": 2.361145738,
			"-0.015": 1.53507203863,
			"-0.014": 0.912311166284,
			"-0.013": 0.550314843808,
			"-0.012": 2.54659584125,
			"-0.011": 2.03069413354,
			"-0.01": 0.746702807307,
			"-0.009": 2.53974129269,
			"-0.008": 3.82660254226,
			"-0.007": 4.15099721691,
			"-0.006": 10.1261758159,
			"-0.005": 18.4618492397,
			"-0.004": 20.2231899428,
			"-0.003": 26.0452992977,
			"-0.002": 21.3590374447,
			"-0.001": 15.4067633374,
			"0.0": 13.834151218,
			"0.001": 17.739859617,
			"0.002": 18.8374245326,
			"0.003": 21.7037457869,
			"0.004": 17.8470284612,
			"0.005": 14.4799786206,
			"0.006": 7.08532337826,
			"0.007": 6.52342984201,
			"0.008": 5.8276665921,
			"0.009": 4.88777925661,
			"0.01": 5.99908191037,
			"0.011": 8.05585483892,
			"0.012": 3.48233073404,
			"0.013": 0.374895859434,
			"0.014": 0.0,
			"0.015": 0.0,
			"0.016": 0.0,
			"0.017": 0.0,
			"0.018": 0.0,
			"0.019": 0.0,
			"0.02": 0.0,
			"0.021": 0.0,
			"0.022": 0.0,
			"0.023": 0.0,
			"0.024": 0.0,
			"0.025": 0.0
		}
	}
}
