{
	 "smiles": "ClCC(=O)NC1=NC=C(Cl)C=C1", 
	 "Tm": 416.15, 
	 "num_atms": 18, 
	 "gaussian": { 
		 "optdone": 1, 
		 "sigma_profile": "yes", 
		 "theory": "DFT", 
		 "functional": "B3LYP", 
		 "basiset": "6-31G**", 
		 "properties": { 
			 "R2extent": 4383.1833, 
			 "electric_dipole_moment_norm": 3.66122472951, 
			 "electric_quadrupole_moment_norm": 18.5188555829, 
			 "total_energy": -1375.47611988, 
			 "HOMO_LUMO_gap": 0.19142, 
			 "cosmo_polarized_energy": -15.25, 
			 "cosmo_cavitation_energy": 26.51, 
			 "cosmo_dispersion_energy": -20.01, 
			 "cosmo_repulsion_energy": 1.61, 
			 "cosmo_total_nonelectrostatic_energy": 8.1, 
			 "SMD_solvation_energy": 3.45 
		},
		"coords": [
			{
				"x": -3.9513942092,
				"y": 0.4698834869,
				"z": -2.9973426086,
				"element": "Cl" 
			},
			{
				"x": -2.6995776813,
				"y": 0.3865779683,
				"z": -1.7258601092,
				"element": "C" 
			},
			{
				"x": -1.3498506149,
				"y": -0.0841724042,
				"z": -2.2696358785,
				"element": "C" 
			},
			{
				"x": -1.1635813438,
				"y": -0.3670067037,
				"z": -3.4357953592,
				"element": "O" 
			},
			{
				"x": -0.2979606907,
				"y": -0.1860745217,
				"z": -1.3674771553,
				"element": "N" 
			},
			{
				"x": -0.0928561938,
				"y": 0.0325216709,
				"z": 0.0006064737,
				"element": "C" 
			},
			{
				"x": 1.174342447,
				"y": -0.2339536852,
				"z": 0.3606154122,
				"element": "N" 
			},
			{
				"x": 1.5378631687,
				"y": -0.0769922743,
				"z": 1.6311566125,
				"element": "C" 
			},
			{
				"x": 0.6523759534,
				"y": 0.3568870465,
				"z": 2.6183658156,
				"element": "C" 
			},
			{
				"x": 1.1924721914,
				"y": 0.5432028519,
				"z": 4.2710938369,
				"element": "Cl" 
			},
			{
				"x": -0.662716837,
				"y": 0.6356137083,
				"z": 2.2564041198,
				"element": "C" 
			},
			{
				"x": -1.0506390933,
				"y": 0.4739263537,
				"z": 0.929715278,
				"element": "C" 
			},
			{
				"x": -2.6039281544,
				"y": 1.3841452866,
				"z": -1.2911128835,
				"element": "H" 
			},
			{
				"x": -3.0565870814,
				"y": -0.3010132741,
				"z": -0.9557582273,
				"element": "H" 
			},
			{
				"x": 0.5511618843,
				"y": -0.5045811202,
				"z": -1.82380625,
				"element": "H" 
			},
			{
				"x": 2.5720243114,
				"y": -0.3038205378,
				"z": 1.8781125343,
				"element": "H" 
			},
			{
				"x": -1.3775561252,
				"y": 0.9747726706,
				"z": 2.9982595436,
				"element": "H" 
			},
			{
				"x": -2.0717919313,
				"y": 0.6914834774,
				"z": 0.6546588451,
				"element": "H" 
			}
		],
		 "valence_orbital": [ 
			{
				"type": "occ",
				"energy": -0.30934,
				"method": "rhf"
			},
			{
				"type": "occ",
				"energy": -0.30741,
				"method": "rhf"
			},
			{
				"type": "occ",
				"energy": -0.29578,
				"method": "rhf"
			},
			{
				"type": "occ",
				"energy": -0.28012,
				"method": "rhf"
			},
			{
				"type": "occ",
				"energy": -0.24643,
				"method": "rhf"
			},
			{
				"type": "unocc",
				"energy": -0.05501,
				"method": "rhf"
			},
			{
				"type": "unocc",
				"energy": -0.04433,
				"method": "rhf"
			},
			{
				"type": "unocc",
				"energy": 0.00713,
				"method": "rhf"
			},
			{
				"type": "unocc",
				"energy": 0.01303,
				"method": "rhf"
			},
			{
				"type": "unocc",
				"energy": 0.01981,
				"method": "rhf"
			}
		],
		"cosmo_sigma_profile": { 
			"-0.025": 0.0,
			"-0.024": 0.0,
			"-0.023": 0.0,
			"-0.022": 0.0,
			"-0.021": 0.0,
			"-0.02": 0.0,
			"-0.019": 0.0,
			"-0.018": 0.0,
			"-0.017": 0.0,
			"-0.016": 0.0,
			"-0.015": 0.0,
			"-0.014": 0.0545722168245,
			"-0.013": 0.970397001793,
			"-0.012": 0.502770006015,
			"-0.011": 2.59811139925,
			"-0.01": 8.73326984155,
			"-0.009": 7.46261512715,
			"-0.008": 7.93459252851,
			"-0.007": 7.14469199886,
			"-0.006": 8.29740575123,
			"-0.005": 7.23895529606,
			"-0.004": 7.31711491492,
			"-0.003": 7.5533860383,
			"-0.002": 11.0044765854,
			"-0.001": 17.7298190641,
			"0.0": 22.7498486357,
			"0.001": 17.2886366755,
			"0.002": 11.7733791752,
			"0.003": 13.0501141382,
			"0.004": 16.0181371823,
			"0.005": 10.1384598724,
			"0.006": 6.59016229247,
			"0.007": 4.10692773978,
			"0.008": 3.20495913759,
			"0.009": 1.86519595817,
			"0.01": 3.05274285836,
			"0.011": 5.17312678014,
			"0.012": 5.33674132563,
			"0.013": 2.36283894711,
			"0.014": 0.202023918307,
			"0.015": 0.0,
			"0.016": 0.0,
			"0.017": 0.0,
			"0.018": 0.0,
			"0.019": 0.0,
			"0.02": 0.0,
			"0.021": 0.0,
			"0.022": 0.0,
			"0.023": 0.0,
			"0.024": 0.0,
			"0.025": 0.0
		}
	}
}
