{
	 "smiles": "CC(C)(OC1=CC=C(F)C=C1)C(O)=O", 
	 "Tm": 342.15, 
	 "num_atms": 25, 
	 "gaussian": { 
		 "optdone": 1, 
		 "sigma_profile": "yes", 
		 "theory": "DFT", 
		 "functional": "B3LYP", 
		 "basiset": "6-31G**", 
		 "properties": { 
			 "R2extent": 4029.7177, 
			 "electric_dipole_moment_norm": 2.9337261273, 
			 "electric_quadrupole_moment_norm": 16.0256693099, 
			 "total_energy": -713.201167221, 
			 "HOMO_LUMO_gap": 0.22012, 
			 "cosmo_polarized_energy": -12.94, 
			 "cosmo_cavitation_energy": 29.24, 
			 "cosmo_dispersion_energy": -20.44, 
			 "cosmo_repulsion_energy": 1.59, 
			 "cosmo_total_nonelectrostatic_energy": 10.39, 
			 "SMD_solvation_energy": 6.92 
		},
		"coords": [
			{
				"x": -0.3551937922,
				"y": 0.9920817571,
				"z": 2.5543310498,
				"element": "C" 
			},
			{
				"x": -1.4748430195,
				"y": 1.5148816801,
				"z": 1.6387252103,
				"element": "C" 
			},
			{
				"x": -0.9876648504,
				"y": 2.6949797033,
				"z": 0.7812236964,
				"element": "C" 
			},
			{
				"x": -2.0358900439,
				"y": 0.4644063386,
				"z": 0.8299979715,
				"element": "O" 
			},
			{
				"x": -1.2377142441,
				"y": -0.1907882987,
				"z": -0.0851847355,
				"element": "C" 
			},
			{
				"x": -1.1826348738,
				"y": 0.2528609743,
				"z": -1.4121676068,
				"element": "C" 
			},
			{
				"x": -0.4516739994,
				"y": -0.458270485,
				"z": -2.3639021376,
				"element": "C" 
			},
			{
				"x": 0.2120508492,
				"y": -1.6158862787,
				"z": -1.9736339094,
				"element": "C" 
			},
			{
				"x": 0.9206895215,
				"y": -2.3075014313,
				"z": -2.891935279,
				"element": "F" 
			},
			{
				"x": 0.156543904,
				"y": -2.087965384,
				"z": -0.6671230425,
				"element": "C" 
			},
			{
				"x": -0.5767559732,
				"y": -1.3705812715,
				"z": 0.2781093294,
				"element": "C" 
			},
			{
				"x": -2.6633567508,
				"y": 1.971852696,
				"z": 2.5014929619,
				"element": "C" 
			},
			{
				"x": -2.2890893267,
				"y": 2.978411506,
				"z": 3.3350620697,
				"element": "O" 
			},
			{
				"x": -3.7845141638,
				"y": 1.5298078139,
				"z": 2.4765070636,
				"element": "O" 
			},
			{
				"x": -0.71614903,
				"y": 0.1596676912,
				"z": 3.1652915337,
				"element": "H" 
			},
			{
				"x": 0.4892117844,
				"y": 0.6434001001,
				"z": 1.9540366532,
				"element": "H" 
			},
			{
				"x": -0.0067526253,
				"y": 1.7862901562,
				"z": 3.217634835,
				"element": "H" 
			},
			{
				"x": -1.7948042676,
				"y": 3.0639620685,
				"z": 0.1418135886,
				"element": "H" 
			},
			{
				"x": -0.6475107756,
				"y": 3.5122456147,
				"z": 1.4203674202,
				"element": "H" 
			},
			{
				"x": -0.1559655029,
				"y": 2.3796683711,
				"z": 0.1457639456,
				"element": "H" 
			},
			{
				"x": -1.7311568283,
				"y": 1.1445348478,
				"z": -1.6948065034,
				"element": "H" 
			},
			{
				"x": -0.3991905083,
				"y": -0.1327951788,
				"z": -3.3972346543,
				"element": "H" 
			},
			{
				"x": 0.6728788785,
				"y": -3.0054963233,
				"z": -0.4063425672,
				"element": "H" 
			},
			{
				"x": -0.6583977451,
				"y": -1.7300204127,
				"z": 1.2979060522,
				"element": "H" 
			},
			{
				"x": -3.0845166167,
				"y": 3.2114537452,
				"z": 3.8424670547,
				"element": "H" 
			}
		],
		 "valence_orbital": [ 
			{
				"type": "occ",
				"energy": -0.32329,
				"method": "rhf"
			},
			{
				"type": "occ",
				"energy": -0.27748,
				"method": "rhf"
			},
			{
				"type": "occ",
				"energy": -0.2753,
				"method": "rhf"
			},
			{
				"type": "occ",
				"energy": -0.26328,
				"method": "rhf"
			},
			{
				"type": "occ",
				"energy": -0.23498,
				"method": "rhf"
			},
			{
				"type": "unocc",
				"energy": -0.01486,
				"method": "rhf"
			},
			{
				"type": "unocc",
				"energy": 0.00195,
				"method": "rhf"
			},
			{
				"type": "unocc",
				"energy": 0.00542,
				"method": "rhf"
			},
			{
				"type": "unocc",
				"energy": 0.06741,
				"method": "rhf"
			},
			{
				"type": "unocc",
				"energy": 0.08161,
				"method": "rhf"
			}
		],
		"cosmo_sigma_profile": { 
			"-0.025": 0.0,
			"-0.024": 0.0,
			"-0.023": 0.0,
			"-0.022": 0.0,
			"-0.021": 0.0,
			"-0.02": 0.0,
			"-0.019": 0.0957583348324,
			"-0.018": 0.885675635411,
			"-0.017": 0.939382654765,
			"-0.016": 0.913577923081,
			"-0.015": 0.923213618941,
			"-0.014": 0.425317077059,
			"-0.013": 0.422767386998,
			"-0.012": 1.11376101122,
			"-0.011": 0.821127163785,
			"-0.01": 0.565104081977,
			"-0.009": 0.398451074754,
			"-0.008": 1.00794772632,
			"-0.007": 5.6124633625,
			"-0.006": 8.62263663619,
			"-0.005": 14.3258248077,
			"-0.004": 20.0168060513,
			"-0.003": 19.7772539075,
			"-0.002": 18.4491113988,
			"-0.001": 19.8419297152,
			"0.0": 17.2168089129,
			"0.001": 16.4529778725,
			"0.002": 13.7425673293,
			"0.003": 17.2924452192,
			"0.004": 16.6014644,
			"0.005": 9.03690867521,
			"0.006": 2.70802861344,
			"0.007": 2.24948381546,
			"0.008": 2.91738084324,
			"0.009": 2.21462284278,
			"0.01": 2.73818369917,
			"0.011": 4.83573206857,
			"0.012": 3.29111772953,
			"0.013": 1.69815095478,
			"0.014": 1.44253738971,
			"0.015": 1.09517226162,
			"0.016": 0.596675281904,
			"0.017": 8.79332100695e-06,
			"0.018": 0.0,
			"0.019": 0.0,
			"0.02": 0.0,
			"0.021": 0.0,
			"0.022": 0.0,
			"0.023": 0.0,
			"0.024": 0.0,
			"0.025": 0.0
		}
	}
}
