{
	 "smiles": "CC1=CC=C(O1)C(=O)C=CC1=CC=C(O1)C1=CC=C(C=C1)[N+]([O-])=O", 
	 "Tm": 451.15, 
	 "num_atms": 37, 
	 "gaussian": { 
		 "optdone": 1, 
		 "sigma_profile": "yes", 
		 "theory": "DFT", 
		 "functional": "B3LYP", 
		 "basiset": "6-31G**", 
		 "properties": { 
			 "R2extent": 15109.4105, 
			 "electric_dipole_moment_norm": 9.0222093087, 
			 "electric_quadrupole_moment_norm": 12.4187142917, 
			 "total_energy": -1124.4828749, 
			 "HOMO_LUMO_gap": 0.11861, 
			 "cosmo_polarized_energy": -18.53, 
			 "cosmo_cavitation_energy": 44.89, 
			 "cosmo_dispersion_energy": -31.61, 
			 "cosmo_repulsion_energy": 2.37, 
			 "cosmo_total_nonelectrostatic_energy": 15.65, 
			 "SMD_solvation_energy": 11.37 
		},
		"coords": [
			{
				"x": -2.8652140022,
				"y": 6.0161428588,
				"z": 0.873647815,
				"element": "C" 
			},
			{
				"x": -1.5602754821,
				"y": 5.708087858,
				"z": 1.5183694776,
				"element": "C" 
			},
			{
				"x": -0.711953305,
				"y": 6.4269962512,
				"z": 2.3179732611,
				"element": "C" 
			},
			{
				"x": 0.3884191668,
				"y": 5.5758879988,
				"z": 2.6169636815,
				"element": "C" 
			},
			{
				"x": 0.1509704025,
				"y": 4.3836681206,
				"z": 1.9830231154,
				"element": "C" 
			},
			{
				"x": -1.0473394738,
				"y": 4.4624796672,
				"z": 1.3064236259,
				"element": "O" 
			},
			{
				"x": 0.9845433342,
				"y": 3.1700713039,
				"z": 1.9740641035,
				"element": "C" 
			},
			{
				"x": 2.0415379434,
				"y": 3.1952452158,
				"z": 2.6103220419,
				"element": "O" 
			},
			{
				"x": 0.6202887938,
				"y": 1.9366368941,
				"z": 1.2475903279,
				"element": "C" 
			},
			{
				"x": -0.4783273749,
				"y": 1.6946994748,
				"z": 0.4967357889,
				"element": "C" 
			},
			{
				"x": -0.7499384766,
				"y": 0.4567749591,
				"z": -0.1768639094,
				"element": "C" 
			},
			{
				"x": -1.8083989686,
				"y": 0.0608316534,
				"z": -0.9677487615,
				"element": "C" 
			},
			{
				"x": -1.5488114867,
				"y": -1.2730054837,
				"z": -1.3664401581,
				"element": "C" 
			},
			{
				"x": -0.3433237221,
				"y": -1.6288873398,
				"z": -0.7997750352,
				"element": "C" 
			},
			{
				"x": 0.1429154297,
				"y": -0.5759140689,
				"z": -0.0757107867,
				"element": "O" 
			},
			{
				"x": 0.4520980881,
				"y": -2.8429842468,
				"z": -0.8316354064,
				"element": "C" 
			},
			{
				"x": 0.0079941122,
				"y": -3.9674211806,
				"z": -1.5579976379,
				"element": "C" 
			},
			{
				"x": 0.7604013226,
				"y": -5.1317869452,
				"z": -1.5948556777,
				"element": "C" 
			},
			{
				"x": 1.9698504532,
				"y": -5.1763694417,
				"z": -0.8995496504,
				"element": "C" 
			},
			{
				"x": 2.4373102661,
				"y": -4.082432878,
				"z": -0.1719359316,
				"element": "C" 
			},
			{
				"x": 1.6780622512,
				"y": -2.9203083057,
				"z": -0.1400746578,
				"element": "C" 
			},
			{
				"x": 2.7681320732,
				"y": -6.4060036764,
				"z": -0.9361894995,
				"element": "N" 
			},
			{
				"x": 3.8306441416,
				"y": -6.4169942086,
				"z": -0.313697457,
				"element": "O" 
			},
			{
				"x": 2.3274187686,
				"y": -7.3541958422,
				"z": -1.5877788668,
				"element": "O" 
			},
			{
				"x": -3.6512431238,
				"y": 5.3336206638,
				"z": 1.2167518969,
				"element": "H" 
			},
			{
				"x": -2.8028343476,
				"y": 5.9269080118,
				"z": -0.2170138598,
				"element": "H" 
			},
			{
				"x": -3.1678329356,
				"y": 7.0368062051,
				"z": 1.1169308922,
				"element": "H" 
			},
			{
				"x": -0.8642749657,
				"y": 7.4443731744,
				"z": 2.6488418945,
				"element": "H" 
			},
			{
				"x": 1.2575491266,
				"y": 5.7905019989,
				"z": 3.2201425433,
				"element": "H" 
			},
			{
				"x": 1.370831106,
				"y": 1.1608403169,
				"z": 1.3707609575,
				"element": "H" 
			},
			{
				"x": -1.2357016145,
				"y": 2.4583871601,
				"z": 0.3645062404,
				"element": "H" 
			},
			{
				"x": -2.6656298719,
				"y": 0.6665701166,
				"z": -1.2246639575,
				"element": "H" 
			},
			{
				"x": -2.1713627894,
				"y": -1.8946681865,
				"z": -1.9928414929,
				"element": "H" 
			},
			{
				"x": -0.9328128112,
				"y": -3.9281418269,
				"z": -2.0967423306,
				"element": "H" 
			},
			{
				"x": 0.4334138971,
				"y": -6.0033240119,
				"z": -2.1476797017,
				"element": "H" 
			},
			{
				"x": 3.3809059817,
				"y": -4.1578969759,
				"z": 0.3537016172,
				"element": "H" 
			},
			{
				"x": 2.0283880934,
				"y": -2.0620952844,
				"z": 0.421045498,
				"element": "H" 
			}
		],
		 "valence_orbital": [ 
			{
				"type": "occ",
				"energy": -0.28456,
				"method": "rhf"
			},
			{
				"type": "occ",
				"energy": -0.28157,
				"method": "rhf"
			},
			{
				"type": "occ",
				"energy": -0.25129,
				"method": "rhf"
			},
			{
				"type": "occ",
				"energy": -0.23347,
				"method": "rhf"
			},
			{
				"type": "occ",
				"energy": -0.22005,
				"method": "rhf"
			},
			{
				"type": "unocc",
				"energy": -0.10144,
				"method": "rhf"
			},
			{
				"type": "unocc",
				"energy": -0.07522,
				"method": "rhf"
			},
			{
				"type": "unocc",
				"energy": -0.03212,
				"method": "rhf"
			},
			{
				"type": "unocc",
				"energy": -0.02946,
				"method": "rhf"
			},
			{
				"type": "unocc",
				"energy": -0.00638,
				"method": "rhf"
			}
		],
		"cosmo_sigma_profile": { 
			"-0.025": 0.0,
			"-0.024": 0.0,
			"-0.023": 0.0,
			"-0.022": 0.0,
			"-0.021": 0.0,
			"-0.02": 0.0,
			"-0.019": 0.0,
			"-0.018": 0.0,
			"-0.017": 0.0,
			"-0.016": 0.0,
			"-0.015": 0.0,
			"-0.014": 0.0,
			"-0.013": 0.0,
			"-0.012": 0.0,
			"-0.011": 0.0,
			"-0.01": 0.481882263653,
			"-0.009": 3.179039539,
			"-0.008": 8.47102028673,
			"-0.007": 13.2572919014,
			"-0.006": 19.0173087675,
			"-0.005": 20.1634460288,
			"-0.004": 21.2912105387,
			"-0.003": 21.7585378131,
			"-0.002": 24.8563793443,
			"-0.001": 34.1881011982,
			"0.0": 41.2201429055,
			"0.001": 45.5523645071,
			"0.002": 29.6317887402,
			"0.003": 18.5765264331,
			"0.004": 8.88716426619,
			"0.005": 4.5027137548,
			"0.006": 4.95074072485,
			"0.007": 8.83240977006,
			"0.008": 10.1267357365,
			"0.009": 6.33769958972,
			"0.01": 4.84351452422,
			"0.011": 2.66820443021,
			"0.012": 2.81544103388,
			"0.013": 4.96881236049,
			"0.014": 1.41788422932,
			"0.015": 0.00527006847157,
			"0.016": 0.0,
			"0.017": 0.0,
			"0.018": 0.0,
			"0.019": 0.0,
			"0.02": 0.0,
			"0.021": 0.0,
			"0.022": 0.0,
			"0.023": 0.0,
			"0.024": 0.0,
			"0.025": 0.0
		}
	}
}
