{
	 "smiles": "CC1=C2C(=O)N(C3=CC=CC=C3)C3=CC=CC=C3C2=NC(N)=N1", 
	 "Tm": 506.15, 
	 "num_atms": 37, 
	 "gaussian": { 
		 "optdone": 1, 
		 "sigma_profile": "yes", 
		 "theory": "DFT", 
		 "functional": "B3LYP", 
		 "basiset": "6-31G**", 
		 "properties": { 
			 "R2extent": 7316.3798, 
			 "electric_dipole_moment_norm": 2.55338082158, 
			 "electric_quadrupole_moment_norm": 18.8028852398, 
			 "total_energy": -988.64492987, 
			 "HOMO_LUMO_gap": 0.16564, 
			 "cosmo_polarized_energy": -15.62, 
			 "cosmo_cavitation_energy": 40.72, 
			 "cosmo_dispersion_energy": -29.17, 
			 "cosmo_repulsion_energy": 2.2, 
			 "cosmo_total_nonelectrostatic_energy": 13.74, 
			 "SMD_solvation_energy": 4.75 
		},
		"coords": [
			{
				"x": -3.2407856613,
				"y": -2.2573837662,
				"z": -1.6556297206,
				"element": "C" 
			},
			{
				"x": -2.8102999963,
				"y": -0.8353639364,
				"z": -1.4252071579,
				"element": "C" 
			},
			{
				"x": -1.6139695992,
				"y": -0.4747111466,
				"z": -0.7399555574,
				"element": "C" 
			},
			{
				"x": -0.6910112548,
				"y": -1.4803827505,
				"z": -0.199015293,
				"element": "C" 
			},
			{
				"x": -0.8524340326,
				"y": -2.6944810617,
				"z": -0.287482681,
				"element": "O" 
			},
			{
				"x": 0.4507642842,
				"y": -0.9808791128,
				"z": 0.4620370222,
				"element": "N" 
			},
			{
				"x": 1.358316078,
				"y": -1.9713970728,
				"z": 0.992298727,
				"element": "C" 
			},
			{
				"x": 1.1870388239,
				"y": -2.4419635134,
				"z": 2.2951078177,
				"element": "C" 
			},
			{
				"x": 2.0706610535,
				"y": -3.3918736792,
				"z": 2.808556331,
				"element": "C" 
			},
			{
				"x": 3.1208502735,
				"y": -3.869489608,
				"z": 2.0218750122,
				"element": "C" 
			},
			{
				"x": 3.2861761943,
				"y": -3.3969579592,
				"z": 0.7183043659,
				"element": "C" 
			},
			{
				"x": 2.4049368774,
				"y": -2.4470611871,
				"z": 0.2007872423,
				"element": "C" 
			},
			{
				"x": 0.7327038949,
				"y": 0.3824408314,
				"z": 0.6205126113,
				"element": "C" 
			},
			{
				"x": 1.8924727228,
				"y": 0.8126013036,
				"z": 1.2938916701,
				"element": "C" 
			},
			{
				"x": 2.1525640354,
				"y": 2.1688144103,
				"z": 1.4392372614,
				"element": "C" 
			},
			{
				"x": 1.273887095,
				"y": 3.1308609576,
				"z": 0.9228532883,
				"element": "C" 
			},
			{
				"x": 0.1308184161,
				"y": 2.7150450433,
				"z": 0.2590247934,
				"element": "C" 
			},
			{
				"x": -0.157278729,
				"y": 1.3485905906,
				"z": 0.098134755,
				"element": "C" 
			},
			{
				"x": -1.3592067501,
				"y": 0.9061493879,
				"z": -0.5990919434,
				"element": "C" 
			},
			{
				"x": -2.1887812346,
				"y": 1.8430107682,
				"z": -1.0853573551,
				"element": "N" 
			},
			{
				"x": -3.2762253463,
				"y": 1.3904649275,
				"z": -1.7179528625,
				"element": "C" 
			},
			{
				"x": -4.1184806864,
				"y": 2.3157027373,
				"z": -2.2463932303,
				"element": "N" 
			},
			{
				"x": -3.6284794398,
				"y": 0.0964040831,
				"z": -1.9063683079,
				"element": "N" 
			},
			{
				"x": -2.4842964148,
				"y": -2.8074904024,
				"z": -2.2213098967,
				"element": "H" 
			},
			{
				"x": -3.3416723494,
				"y": -2.7943736909,
				"z": -0.708972932,
				"element": "H" 
			},
			{
				"x": -4.1894141995,
				"y": -2.2519850499,
				"z": -2.1944392362,
				"element": "H" 
			},
			{
				"x": 0.3633153525,
				"y": -2.0660709215,
				"z": 2.8936160999,
				"element": "H" 
			},
			{
				"x": 1.9362697783,
				"y": -3.7601792671,
				"z": 3.8212831323,
				"element": "H" 
			},
			{
				"x": 3.8070462292,
				"y": -4.609759803,
				"z": 2.4227087048,
				"element": "H" 
			},
			{
				"x": 4.0991123919,
				"y": -3.7692219644,
				"z": 0.1019652218,
				"element": "H" 
			},
			{
				"x": 2.5185455175,
				"y": -2.0750106448,
				"z": -0.812472505,
				"element": "H" 
			},
			{
				"x": 2.5810632724,
				"y": 0.0817822583,
				"z": 1.6980480464,
				"element": "H" 
			},
			{
				"x": 3.0527865037,
				"y": 2.4793964307,
				"z": 1.9620495005,
				"element": "H" 
			},
			{
				"x": 1.4862940888,
				"y": 4.1886638518,
				"z": 1.0411501283,
				"element": "H" 
			},
			{
				"x": -0.5743394072,
				"y": 3.4260228173,
				"z": -0.1558281012,
				"element": "H" 
			},
			{
				"x": -3.9758196591,
				"y": 3.2851266612,
				"z": -2.0174479945,
				"element": "H" 
			},
			{
				"x": -5.0057281226,
				"y": 2.0034594776,
				"z": -2.6042169573,
				"element": "H" 
			}
		],
		 "valence_orbital": [ 
			{
				"type": "occ",
				"energy": -0.25101,
				"method": "rhf"
			},
			{
				"type": "occ",
				"energy": -0.24981,
				"method": "rhf"
			},
			{
				"type": "occ",
				"energy": -0.24145,
				"method": "rhf"
			},
			{
				"type": "occ",
				"energy": -0.22843,
				"method": "rhf"
			},
			{
				"type": "occ",
				"energy": -0.21672,
				"method": "rhf"
			},
			{
				"type": "unocc",
				"energy": -0.05108,
				"method": "rhf"
			},
			{
				"type": "unocc",
				"energy": -0.02957,
				"method": "rhf"
			},
			{
				"type": "unocc",
				"energy": -0.01047,
				"method": "rhf"
			},
			{
				"type": "unocc",
				"energy": -0.00753,
				"method": "rhf"
			},
			{
				"type": "unocc",
				"energy": 0.00061,
				"method": "rhf"
			}
		],
		"cosmo_sigma_profile": { 
			"-0.025": 0.0,
			"-0.024": 0.0,
			"-0.023": 0.0,
			"-0.022": 0.0,
			"-0.021": 0.0,
			"-0.02": 0.0,
			"-0.019": 0.0,
			"-0.018": 0.0,
			"-0.017": 0.0,
			"-0.016": 0.0,
			"-0.015": 0.137968512801,
			"-0.014": 1.60597535503,
			"-0.013": 2.01954503142,
			"-0.012": 1.63523693775,
			"-0.011": 2.32884434297,
			"-0.01": 1.76308626631,
			"-0.009": 1.84035881725,
			"-0.008": 1.7501125659,
			"-0.007": 5.01820728845,
			"-0.006": 15.7357202216,
			"-0.005": 19.1883034702,
			"-0.004": 25.2232659911,
			"-0.003": 23.0910452561,
			"-0.002": 25.799307579,
			"-0.001": 28.0056027266,
			"0.0": 30.7456152478,
			"0.001": 23.9376002997,
			"0.002": 23.2694921629,
			"0.003": 22.360302128,
			"0.004": 21.7842351115,
			"0.005": 12.9874304622,
			"0.006": 6.17637505908,
			"0.007": 7.06201736876,
			"0.008": 4.39061446118,
			"0.009": 3.98137794601,
			"0.01": 3.18425976193,
			"0.011": 2.7346414532,
			"0.012": 3.31650978616,
			"0.013": 3.67368537872,
			"0.014": 1.88070230676,
			"0.015": 0.00646612762458,
			"0.016": 0.0,
			"0.017": 0.0,
			"0.018": 0.0,
			"0.019": 0.0,
			"0.02": 0.0,
			"0.021": 0.0,
			"0.022": 0.0,
			"0.023": 0.0,
			"0.024": 0.0,
			"0.025": 0.0
		}
	}
}
