{
	 "smiles": "C(CC1CCCCC1)C1CCCCC1", 
	 "Tm": 284.65, 
	 "num_atms": 40, 
	 "gaussian": { 
		 "optdone": 1, 
		 "sigma_profile": "yes", 
		 "theory": "DFT", 
		 "functional": "B3LYP", 
		 "basiset": "6-31G**", 
		 "properties": { 
			 "R2extent": 4765.512, 
			 "electric_dipole_moment_norm": 0.0468949890713, 
			 "electric_quadrupole_moment_norm": 0.329668985499, 
			 "total_energy": -549.194879912, 
			 "HOMO_LUMO_gap": 0.35151, 
			 "cosmo_polarized_energy": -0.77, 
			 "cosmo_cavitation_energy": 35.94, 
			 "cosmo_dispersion_energy": -25.86, 
			 "cosmo_repulsion_energy": 2.06, 
			 "cosmo_total_nonelectrostatic_energy": 12.13, 
			 "SMD_solvation_energy": 3.97 
		},
		"coords": [
			{
				"x": -0.3592862623,
				"y": -0.5892539625,
				"z": -1.673433641,
				"element": "C" 
			},
			{
				"x": -1.8760295099,
				"y": -0.8362348009,
				"z": -1.6272861506,
				"element": "C" 
			},
			{
				"x": -2.4658383367,
				"y": -1.257074007,
				"z": -0.2616431373,
				"element": "C" 
			},
			{
				"x": -2.2234808207,
				"y": -0.2095636372,
				"z": 0.8688833059,
				"element": "C" 
			},
			{
				"x": -1.1512547585,
				"y": -0.6587835432,
				"z": 1.8727024759,
				"element": "C" 
			},
			{
				"x": -1.5580860164,
				"y": -1.9678744659,
				"z": 2.5862332019,
				"element": "C" 
			},
			{
				"x": -2.3532375344,
				"y": -2.9186939575,
				"z": 1.6555626722,
				"element": "C" 
			},
			{
				"x": -2.0139667473,
				"y": -2.6694514721,
				"z": 0.1796606596,
				"element": "C" 
			},
			{
				"x": 0.1819376935,
				"y": -0.2572725707,
				"z": -3.0835609455,
				"element": "C" 
			},
			{
				"x": 1.7267384401,
				"y": -0.2986151925,
				"z": -3.1328334744,
				"element": "C" 
			},
			{
				"x": 2.3854018878,
				"y": 0.8994543138,
				"z": -2.4280967671,
				"element": "C" 
			},
			{
				"x": 1.8706991642,
				"y": 2.2319240645,
				"z": -2.9943208233,
				"element": "C" 
			},
			{
				"x": 0.3368172166,
				"y": 2.3075302259,
				"z": -2.9423603563,
				"element": "C" 
			},
			{
				"x": -0.3096162461,
				"y": 1.0993423768,
				"z": -3.6412965514,
				"element": "C" 
			},
			{
				"x": -0.0960510133,
				"y": 0.2098242215,
				"z": -0.9701619576,
				"element": "H" 
			},
			{
				"x": 0.1664701887,
				"y": -1.48549436,
				"z": -1.3195530035,
				"element": "H" 
			},
			{
				"x": -2.1295499106,
				"y": -1.6091107437,
				"z": -2.3678470758,
				"element": "H" 
			},
			{
				"x": -2.3996265584,
				"y": 0.0727012416,
				"z": -1.9507128946,
				"element": "H" 
			},
			{
				"x": -3.5525636758,
				"y": -1.3166448899,
				"z": -0.4143421247,
				"element": "H" 
			},
			{
				"x": -3.1603565034,
				"y": -0.0410765994,
				"z": 1.4154953927,
				"element": "H" 
			},
			{
				"x": -1.9541995756,
				"y": 0.7605064617,
				"z": 0.4337135718,
				"element": "H" 
			},
			{
				"x": -0.9661880042,
				"y": 0.1300448927,
				"z": 2.6111444592,
				"element": "H" 
			},
			{
				"x": -0.202022309,
				"y": -0.8066076131,
				"z": 1.3437165552,
				"element": "H" 
			},
			{
				"x": -0.6568476593,
				"y": -2.4713981421,
				"z": 2.9561256315,
				"element": "H" 
			},
			{
				"x": -2.1625109262,
				"y": -1.7355057585,
				"z": 3.4713815163,
				"element": "H" 
			},
			{
				"x": -3.4311016638,
				"y": -2.7619648036,
				"z": 1.7963126456,
				"element": "H" 
			},
			{
				"x": -2.1610633578,
				"y": -3.9629761066,
				"z": 1.9264608019,
				"element": "H" 
			},
			{
				"x": -2.4926794999,
				"y": -3.4205872185,
				"z": -0.4602701234,
				"element": "H" 
			},
			{
				"x": -0.9327793059,
				"y": -2.7927440407,
				"z": 0.0362152556,
				"element": "H" 
			},
			{
				"x": -0.1891372215,
				"y": -1.0453493436,
				"z": -3.7553249992,
				"element": "H" 
			},
			{
				"x": 2.0430060162,
				"y": -0.3005654847,
				"z": -4.1856353798,
				"element": "H" 
			},
			{
				"x": 2.0891988365,
				"y": -1.2396241242,
				"z": -2.6996573595,
				"element": "H" 
			},
			{
				"x": 3.475582576,
				"y": 0.8388341309,
				"z": -2.5330736478,
				"element": "H" 
			},
			{
				"x": 2.1790363306,
				"y": 0.8581533474,
				"z": -1.3501289165,
				"element": "H" 
			},
			{
				"x": 2.1986129178,
				"y": 2.3275820881,
				"z": -4.0397112532,
				"element": "H" 
			},
			{
				"x": 2.3139778859,
				"y": 3.075361066,
				"z": -2.4509363054,
				"element": "H" 
			},
			{
				"x": -0.0129759008,
				"y": 3.2361779263,
				"z": -3.4097258962,
				"element": "H" 
			},
			{
				"x": 0.0108520652,
				"y": 2.3525333189,
				"z": -1.8942627762,
				"element": "H" 
			},
			{
				"x": -0.0597638647,
				"y": 1.1408331997,
				"z": -4.7109022044,
				"element": "H" 
			},
			{
				"x": -1.4018180365,
				"y": 1.1686639623,
				"z": -3.5834303806,
				"element": "H" 
			}
		],
		 "valence_orbital": [ 
			{
				"type": "occ",
				"energy": -0.29183,
				"method": "rhf"
			},
			{
				"type": "occ",
				"energy": -0.28854,
				"method": "rhf"
			},
			{
				"type": "occ",
				"energy": -0.28695,
				"method": "rhf"
			},
			{
				"type": "occ",
				"energy": -0.28329,
				"method": "rhf"
			},
			{
				"type": "occ",
				"energy": -0.27958,
				"method": "rhf"
			},
			{
				"type": "unocc",
				"energy": 0.07193,
				"method": "rhf"
			},
			{
				"type": "unocc",
				"energy": 0.08672,
				"method": "rhf"
			},
			{
				"type": "unocc",
				"energy": 0.09404,
				"method": "rhf"
			},
			{
				"type": "unocc",
				"energy": 0.10198,
				"method": "rhf"
			},
			{
				"type": "unocc",
				"energy": 0.11754,
				"method": "rhf"
			}
		],
		"cosmo_sigma_profile": { 
			"-0.025": 0.0,
			"-0.024": 0.0,
			"-0.023": 0.0,
			"-0.022": 0.0,
			"-0.021": 0.0,
			"-0.02": 0.0,
			"-0.019": 0.0,
			"-0.018": 0.0,
			"-0.017": 0.0,
			"-0.016": 0.0,
			"-0.015": 0.0,
			"-0.014": 0.0,
			"-0.013": 0.0,
			"-0.012": 0.0,
			"-0.011": 0.0,
			"-0.01": 0.0,
			"-0.009": 0.0,
			"-0.008": 0.0,
			"-0.007": 0.0,
			"-0.006": 0.0,
			"-0.005": 0.0,
			"-0.004": 0.0,
			"-0.003": 0.583333670354,
			"-0.002": 29.870394127,
			"-0.001": 66.7810738598,
			"0.0": 79.6419697294,
			"0.001": 63.4532956071,
			"0.002": 32.8849732156,
			"0.003": 0.219032142778,
			"0.004": 0.0,
			"0.005": 0.0,
			"0.006": 0.0,
			"0.007": 0.0,
			"0.008": 0.0,
			"0.009": 0.0,
			"0.01": 0.0,
			"0.011": 0.0,
			"0.012": 0.0,
			"0.013": 0.0,
			"0.014": 0.0,
			"0.015": 0.0,
			"0.016": 0.0,
			"0.017": 0.0,
			"0.018": 0.0,
			"0.019": 0.0,
			"0.02": 0.0,
			"0.021": 0.0,
			"0.022": 0.0,
			"0.023": 0.0,
			"0.024": 0.0,
			"0.025": 0.0
		}
	}
}
