{
	 "smiles": "CCOC(=O)CC(C=C1C2CCC(C)(C1=O)C2(C)C)(C=C1/C2CCC(C)(C1=O)C2(C)C)C(=O)OCC", 
	 "Tm": 378.15, 
	 "num_atms": 78, 
	 "gaussian": { 
		 "optdone": 1, 
		 "sigma_profile": "yes", 
		 "theory": "DFT", 
		 "functional": "B3LYP", 
		 "basiset": "6-31G**", 
		 "properties": { 
			 "R2extent": 17526.341, 
			 "electric_dipole_moment_norm": 7.82339772605, 
			 "electric_quadrupole_moment_norm": 24.4261338595, 
			 "total_energy": -1619.84824686, 
			 "HOMO_LUMO_gap": 0.15765, 
			 "cosmo_polarized_energy": -24.3, 
			 "cosmo_cavitation_energy": 73.14, 
			 "cosmo_dispersion_energy": -43.11, 
			 "cosmo_repulsion_energy": 3.26, 
			 "cosmo_total_nonelectrostatic_energy": 33.29, 
			 "SMD_solvation_energy": 14.03 
		},
		"coords": [
			{
				"x": -1.8555477676,
				"y": 4.8404886943,
				"z": -3.9028231837,
				"element": "C" 
			},
			{
				"x": -2.4669669173,
				"y": 3.9281633749,
				"z": -2.8568149676,
				"element": "C" 
			},
			{
				"x": -1.7020605479,
				"y": 2.6997286623,
				"z": -2.8464009902,
				"element": "O" 
			},
			{
				"x": -2.1254369741,
				"y": 1.7593665551,
				"z": -1.9700360924,
				"element": "C" 
			},
			{
				"x": -3.1099265603,
				"y": 1.8834724059,
				"z": -1.275190521,
				"element": "O" 
			},
			{
				"x": -1.2074227098,
				"y": 0.5511348229,
				"z": -1.9689517806,
				"element": "C" 
			},
			{
				"x": -0.191744537,
				"y": 0.5653108994,
				"z": -0.766197185,
				"element": "C" 
			},
			{
				"x": 0.7541900557,
				"y": -0.6352802105,
				"z": -0.8651993685,
				"element": "C" 
			},
			{
				"x": 0.4737928704,
				"y": -1.9489101072,
				"z": -0.8923041588,
				"element": "C" 
			},
			{
				"x": 1.5044756754,
				"y": -3.0650000692,
				"z": -0.9783242746,
				"element": "C" 
			},
			{
				"x": 1.3689264303,
				"y": -3.671094808,
				"z": -2.4035848623,
				"element": "C" 
			},
			{
				"x": -0.0111957743,
				"y": -4.3921541706,
				"z": -2.3368189187,
				"element": "C" 
			},
			{
				"x": -0.49108985,
				"y": -4.172925535,
				"z": -0.8609736624,
				"element": "C" 
			},
			{
				"x": -1.6215032821,
				"y": -5.0804403968,
				"z": -0.4096755063,
				"element": "C" 
			},
			{
				"x": -0.8413783889,
				"y": -2.6771975921,
				"z": -0.8254655734,
				"element": "C" 
			},
			{
				"x": -1.966848118,
				"y": -2.211242336,
				"z": -0.7732705651,
				"element": "O" 
			},
			{
				"x": 0.868239149,
				"y": -4.1712350146,
				"z": -0.0702576621,
				"element": "C" 
			},
			{
				"x": 1.6208140208,
				"y": -5.5111070498,
				"z": -0.0956279394,
				"element": "C" 
			},
			{
				"x": 0.7178534353,
				"y": -3.742377077,
				"z": 1.4001672691,
				"element": "C" 
			},
			{
				"x": -0.9335929627,
				"y": 0.5210917599,
				"z": 0.5645046955,
				"element": "C" 
			},
			{
				"x": -0.4521135537,
				"y": 0.8099363456,
				"z": 1.7801296625,
				"element": "C" 
			},
			{
				"x": 0.8866644059,
				"y": 1.2985508494,
				"z": 2.2979426518,
				"element": "C" 
			},
			{
				"x": 1.5179625961,
				"y": 0.1000726618,
				"z": 3.0646847671,
				"element": "C" 
			},
			{
				"x": 0.6120595985,
				"y": -0.0230229257,
				"z": 4.327545267,
				"element": "C" 
			},
			{
				"x": -0.4154289803,
				"y": 1.1493264204,
				"z": 4.1808788918,
				"element": "C" 
			},
			{
				"x": -1.1817341026,
				"y": 1.496969304,
				"z": 5.4443029621,
				"element": "C" 
			},
			{
				"x": -1.3060017989,
				"y": 0.6879057444,
				"z": 3.0149044933,
				"element": "C" 
			},
			{
				"x": -2.4511815895,
				"y": 0.2848976913,
				"z": 3.0873163224,
				"element": "O" 
			},
			{
				"x": 0.444713824,
				"y": 2.2536989335,
				"z": 3.4627059845,
				"element": "C" 
			},
			{
				"x": -0.3797549341,
				"y": 3.4591323802,
				"z": 2.9778534231,
				"element": "C" 
			},
			{
				"x": 1.6156095249,
				"y": 2.7900378987,
				"z": 4.3019037642,
				"element": "C" 
			},
			{
				"x": 0.5921834365,
				"y": 1.8853112553,
				"z": -0.9412111216,
				"element": "C" 
			},
			{
				"x": 0.3091717138,
				"y": 2.9396596401,
				"z": -0.4161683172,
				"element": "O" 
			},
			{
				"x": 1.5866777719,
				"y": 1.7538453936,
				"z": -1.8447855455,
				"element": "O" 
			},
			{
				"x": 2.2762856268,
				"y": 2.9747479306,
				"z": -2.2080303596,
				"element": "C" 
			},
			{
				"x": 3.3423940495,
				"y": 2.6119591224,
				"z": -3.2235023173,
				"element": "C" 
			},
			{
				"x": -1.883693728,
				"y": 4.3769006209,
				"z": -4.8933555927,
				"element": "H" 
			},
			{
				"x": -2.4141809663,
				"y": 5.7806592023,
				"z": -3.9472807074,
				"element": "H" 
			},
			{
				"x": -0.81460096,
				"y": 5.0733548111,
				"z": -3.6592419504,
				"element": "H" 
			},
			{
				"x": -2.4314210744,
				"y": 4.3670656586,
				"z": -1.855254886,
				"element": "H" 
			},
			{
				"x": -3.5119540799,
				"y": 3.6907227451,
				"z": -3.078371186,
				"element": "H" 
			},
			{
				"x": -0.6439972718,
				"y": 0.5100980674,
				"z": -2.9028188742,
				"element": "H" 
			},
			{
				"x": -1.8244894935,
				"y": -0.3411521619,
				"z": -1.8609335646,
				"element": "H" 
			},
			{
				"x": 1.8083801759,
				"y": -0.3708566399,
				"z": -0.9036286626,
				"element": "H" 
			},
			{
				"x": 2.5195566945,
				"y": -2.7569555547,
				"z": -0.711574915,
				"element": "H" 
			},
			{
				"x": 2.1822920053,
				"y": -4.3711982647,
				"z": -2.6149650494,
				"element": "H" 
			},
			{
				"x": 1.4020482134,
				"y": -2.8938512304,
				"z": -3.1716742379,
				"element": "H" 
			},
			{
				"x": 0.0760905941,
				"y": -5.4640334785,
				"z": -2.538988485,
				"element": "H" 
			},
			{
				"x": -0.7356895224,
				"y": -3.9935744017,
				"z": -3.0537055215,
				"element": "H" 
			},
			{
				"x": -1.892180895,
				"y": -4.8940450541,
				"z": 0.6340116939,
				"element": "H" 
			},
			{
				"x": -2.5172336244,
				"y": -4.8973406203,
				"z": -1.0105106627,
				"element": "H" 
			},
			{
				"x": -1.3475567584,
				"y": -6.1353834232,
				"z": -0.5128534537,
				"element": "H" 
			},
			{
				"x": 1.0891308467,
				"y": -6.2586425227,
				"z": 0.502627179,
				"element": "H" 
			},
			{
				"x": 1.7520531191,
				"y": -5.9254587603,
				"z": -1.0971280501,
				"element": "H" 
			},
			{
				"x": 2.6171012075,
				"y": -5.3906897083,
				"z": 0.3452406631,
				"element": "H" 
			},
			{
				"x": 0.1680965955,
				"y": -2.8048707329,
				"z": 1.521093203,
				"element": "H" 
			},
			{
				"x": 0.1895430378,
				"y": -4.5104981036,
				"z": 1.9745727619,
				"element": "H" 
			},
			{
				"x": 1.7035828336,
				"y": -3.6108856747,
				"z": 1.8609901398,
				"element": "H" 
			},
			{
				"x": -1.9633804349,
				"y": 0.177169277,
				"z": 0.5173622163,
				"element": "H" 
			},
			{
				"x": 1.5423229875,
				"y": 1.7538085397,
				"z": 1.5547142371,
				"element": "H" 
			},
			{
				"x": 2.557580647,
				"y": 0.3113034315,
				"z": 3.3326533145,
				"element": "H" 
			},
			{
				"x": 1.518566081,
				"y": -0.8088588976,
				"z": 2.4574807575,
				"element": "H" 
			},
			{
				"x": 0.1034048023,
				"y": -0.9900194975,
				"z": 4.3923169847,
				"element": "H" 
			},
			{
				"x": 1.1832271452,
				"y": 0.0969348323,
				"z": 5.2536416888,
				"element": "H" 
			},
			{
				"x": -1.8521178998,
				"y": 2.3468178197,
				"z": 5.2831137941,
				"element": "H" 
			},
			{
				"x": -0.5038103313,
				"y": 1.7440862033,
				"z": 6.268149088,
				"element": "H" 
			},
			{
				"x": -1.8044534831,
				"y": 0.6513931026,
				"z": 5.7520351695,
				"element": "H" 
			},
			{
				"x": -1.2365244269,
				"y": 3.1718113337,
				"z": 2.3639489516,
				"element": "H" 
			},
			{
				"x": -0.7515964717,
				"y": 4.0382758112,
				"z": 3.8301629749,
				"element": "H" 
			},
			{
				"x": 0.2415293996,
				"y": 4.1224242952,
				"z": 2.3677304677,
				"element": "H" 
			},
			{
				"x": 1.2411645093,
				"y": 3.3984880252,
				"z": 5.1322153392,
				"element": "H" 
			},
			{
				"x": 2.2503010452,
				"y": 2.0100749725,
				"z": 4.7279397389,
				"element": "H" 
			},
			{
				"x": 2.252416163,
				"y": 3.4367640182,
				"z": 3.6872275949,
				"element": "H" 
			},
			{
				"x": 1.5408220896,
				"y": 3.6765142483,
				"z": -2.6125283497,
				"element": "H" 
			},
			{
				"x": 2.7002554958,
				"y": 3.4226817134,
				"z": -1.3042028924,
				"element": "H" 
			},
			{
				"x": 4.0632648528,
				"y": 1.905642607,
				"z": -2.8013995466,
				"element": "H" 
			},
			{
				"x": 2.8968073048,
				"y": 2.1599924002,
				"z": -4.1141545342,
				"element": "H" 
			},
			{
				"x": 3.8837587397,
				"y": 3.5127095369,
				"z": -3.5289821175,
				"element": "H" 
			}
		],
		 "valence_orbital": [ 
			{
				"type": "occ",
				"energy": -0.27108,
				"method": "rhf"
			},
			{
				"type": "occ",
				"energy": -0.25691,
				"method": "rhf"
			},
			{
				"type": "occ",
				"energy": -0.24531,
				"method": "rhf"
			},
			{
				"type": "occ",
				"energy": -0.23432,
				"method": "rhf"
			},
			{
				"type": "occ",
				"energy": -0.2203,
				"method": "rhf"
			},
			{
				"type": "unocc",
				"energy": -0.06265,
				"method": "rhf"
			},
			{
				"type": "unocc",
				"energy": -0.03319,
				"method": "rhf"
			},
			{
				"type": "unocc",
				"energy": -0.00011,
				"method": "rhf"
			},
			{
				"type": "unocc",
				"energy": 0.01789,
				"method": "rhf"
			},
			{
				"type": "unocc",
				"energy": 0.06313,
				"method": "rhf"
			}
		],
		"cosmo_sigma_profile": { 
			"-0.025": 0.0,
			"-0.024": 0.0,
			"-0.023": 0.0,
			"-0.022": 0.0,
			"-0.021": 0.0,
			"-0.02": 0.0,
			"-0.019": 0.0,
			"-0.018": 0.0,
			"-0.017": 0.0,
			"-0.016": 0.0,
			"-0.015": 0.0,
			"-0.014": 0.0,
			"-0.013": 0.0,
			"-0.012": 0.0,
			"-0.011": 0.0,
			"-0.01": 0.0,
			"-0.009": 0.0,
			"-0.008": 0.0,
			"-0.007": 0.166252723648,
			"-0.006": 4.20997755188,
			"-0.005": 17.6198452973,
			"-0.004": 46.4108718147,
			"-0.003": 76.5399396413,
			"-0.002": 92.3980929222,
			"-0.001": 83.5940316666,
			"0.0": 75.4538263612,
			"0.001": 53.1120936209,
			"0.002": 19.6644434122,
			"0.003": 12.7334570515,
			"0.004": 12.2135719386,
			"0.005": 10.4277945252,
			"0.006": 10.7880335419,
			"0.007": 7.89019256888,
			"0.008": 7.82069954881,
			"0.009": 7.82008235856,
			"0.01": 6.68901493467,
			"0.011": 9.38339078109,
			"0.012": 9.68804890306,
			"0.013": 2.15163809148,
			"0.014": 0.0131796973368,
			"0.015": 0.0,
			"0.016": 0.0,
			"0.017": 0.0,
			"0.018": 0.0,
			"0.019": 0.0,
			"0.02": 0.0,
			"0.021": 0.0,
			"0.022": 0.0,
			"0.023": 0.0,
			"0.024": 0.0,
			"0.025": 0.0
		}
	}
}
