{
	 "smiles": "CS(=O)(=O)C1=CC(C(O)=O)=C(N)C=C1", 
	 "Tm": 513.15, 
	 "num_atms": 23, 
	 "gaussian": { 
		 "optdone": 1, 
		 "sigma_profile": "yes", 
		 "theory": "DFT", 
		 "functional": "B3LYP", 
		 "basiset": "6-31G**", 
		 "properties": { 
			 "R2extent": 3734.6663, 
			 "electric_dipole_moment_norm": 7.37854463021, 
			 "electric_quadrupole_moment_norm": 29.562010422, 
			 "total_energy": -1064.06071867, 
			 "HOMO_LUMO_gap": 0.19947, 
			 "cosmo_polarized_energy": -28.26, 
			 "cosmo_cavitation_energy": 28.79, 
			 "cosmo_dispersion_energy": -21.47, 
			 "cosmo_repulsion_energy": 1.64, 
			 "cosmo_total_nonelectrostatic_energy": 8.97, 
			 "SMD_solvation_energy": 6.06 
		},
		"coords": [
			{
				"x": 1.9181617933,
				"y": -1.8900450917,
				"z": -1.6177401448,
				"element": "C" 
			},
			{
				"x": 0.1551743978,
				"y": -1.9638500595,
				"z": -1.2208203509,
				"element": "S" 
			},
			{
				"x": -0.5914873501,
				"y": -1.6784169308,
				"z": -2.4566414853,
				"element": "O" 
			},
			{
				"x": -0.0738836671,
				"y": -3.1977733244,
				"z": -0.4567854069,
				"element": "O" 
			},
			{
				"x": -0.0921404192,
				"y": -0.5659060726,
				"z": -0.1132353339,
				"element": "C" 
			},
			{
				"x": 0.2383481973,
				"y": -0.6790243087,
				"z": 1.2335101095,
				"element": "C" 
			},
			{
				"x": 0.0588101775,
				"y": 0.4055880422,
				"z": 2.0984316475,
				"element": "C" 
			},
			{
				"x": 0.5682778526,
				"y": 0.2238060259,
				"z": 3.5087518024,
				"element": "C" 
			},
			{
				"x": 0.7740054086,
				"y": 1.3414471537,
				"z": 4.2348672626,
				"element": "O" 
			},
			{
				"x": 0.8227746123,
				"y": -0.8685788782,
				"z": 3.9622637947,
				"element": "O" 
			},
			{
				"x": -0.5303703083,
				"y": 1.5905333193,
				"z": 1.6008434943,
				"element": "C" 
			},
			{
				"x": -0.7501849853,
				"y": 2.6899324421,
				"z": 2.4727796301,
				"element": "N" 
			},
			{
				"x": -0.8593619278,
				"y": 1.684533834,
				"z": 0.2414086849,
				"element": "C" 
			},
			{
				"x": -0.632294161,
				"y": 0.6176638799,
				"z": -0.6211155599,
				"element": "C" 
			},
			{
				"x": 2.1363808403,
				"y": -0.9426755296,
				"z": -2.1125549762,
				"element": "H" 
			},
			{
				"x": 2.1122020947,
				"y": -2.7256758374,
				"z": -2.2934210307,
				"element": "H" 
			},
			{
				"x": 2.4988872461,
				"y": -2.0018329244,
				"z": -0.7011410148,
				"element": "H" 
			},
			{
				"x": 0.6417478026,
				"y": -1.5992286498,
				"z": 1.6429146278,
				"element": "H" 
			},
			{
				"x": 0.5568181352,
				"y": 2.1345667433,
				"z": 3.6996286704,
				"element": "H" 
			},
			{
				"x": -1.0696002177,
				"y": 3.5181155143,
				"z": 1.9822055608,
				"element": "H" 
			},
			{
				"x": -1.4026106501,
				"y": 2.476528905,
				"z": 3.2231565258,
				"element": "H" 
			},
			{
				"x": -1.3172621722,
				"y": 2.5961231734,
				"z": -0.1338522434,
				"element": "H" 
			},
			{
				"x": -0.9014926995,
				"y": 0.677568574,
				"z": -1.6702542642,
				"element": "H" 
			}
		],
		 "valence_orbital": [ 
			{
				"type": "occ",
				"energy": -0.29908,
				"method": "rhf"
			},
			{
				"type": "occ",
				"energy": -0.29284,
				"method": "rhf"
			},
			{
				"type": "occ",
				"energy": -0.28798,
				"method": "rhf"
			},
			{
				"type": "occ",
				"energy": -0.27531,
				"method": "rhf"
			},
			{
				"type": "occ",
				"energy": -0.26524,
				"method": "rhf"
			},
			{
				"type": "unocc",
				"energy": -0.06577,
				"method": "rhf"
			},
			{
				"type": "unocc",
				"energy": -0.04621,
				"method": "rhf"
			},
			{
				"type": "unocc",
				"energy": 0.02966,
				"method": "rhf"
			},
			{
				"type": "unocc",
				"energy": 0.04416,
				"method": "rhf"
			},
			{
				"type": "unocc",
				"energy": 0.0605,
				"method": "rhf"
			}
		],
		"cosmo_sigma_profile": { 
			"-0.025": 0.0,
			"-0.024": 0.0,
			"-0.023": 0.0,
			"-0.022": 0.0,
			"-0.021": 0.0,
			"-0.02": 0.0,
			"-0.019": 0.0,
			"-0.018": 0.0,
			"-0.017": 0.0,
			"-0.016": 0.0,
			"-0.015": 0.412233769338,
			"-0.014": 3.07902028124,
			"-0.013": 4.07523392276,
			"-0.012": 3.63220487704,
			"-0.011": 3.35672202197,
			"-0.01": 3.30120633117,
			"-0.009": 5.56880049289,
			"-0.008": 12.9561648465,
			"-0.007": 12.1463788536,
			"-0.006": 12.2234050916,
			"-0.005": 12.1752708335,
			"-0.004": 12.968728001,
			"-0.003": 10.3138943092,
			"-0.002": 9.97026735313,
			"-0.001": 9.97699601316,
			"0.0": 14.5880435671,
			"0.001": 15.0431463221,
			"0.002": 8.04732878268,
			"0.003": 6.55627211018,
			"0.004": 4.30260509953,
			"0.005": 4.96840951795,
			"0.006": 4.25123599577,
			"0.007": 3.63979277853,
			"0.008": 5.35352710453,
			"0.009": 6.95171151426,
			"0.01": 8.67134558242,
			"0.011": 14.6775185246,
			"0.012": 13.3313794524,
			"0.013": 2.81901093292,
			"0.014": 0.177775049845,
			"0.015": 0.0,
			"0.016": 0.0,
			"0.017": 0.0,
			"0.018": 0.0,
			"0.019": 0.0,
			"0.02": 0.0,
			"0.021": 0.0,
			"0.022": 0.0,
			"0.023": 0.0,
			"0.024": 0.0,
			"0.025": 0.0
		}
	}
}
