{
	 "smiles": "NC(=O)COC1=C(C=CC=C1)C(O)=O", 
	 "Tm": 473.15, 
	 "num_atms": 23, 
	 "gaussian": { 
		 "optdone": 1, 
		 "sigma_profile": "yes", 
		 "theory": "DFT", 
		 "functional": "B3LYP", 
		 "basiset": "6-31G**", 
		 "properties": { 
			 "R2extent": 3479.015, 
			 "electric_dipole_moment_norm": 1.50514815218, 
			 "electric_quadrupole_moment_norm": 21.6272062255, 
			 "total_energy": -704.050216692, 
			 "HOMO_LUMO_gap": 0.18557, 
			 "cosmo_polarized_energy": -17.56, 
			 "cosmo_cavitation_energy": 27.7, 
			 "cosmo_dispersion_energy": -20.45, 
			 "cosmo_repulsion_energy": 1.61, 
			 "cosmo_total_nonelectrostatic_energy": 8.86, 
			 "SMD_solvation_energy": 6.98 
		},
		"coords": [
			{
				"x": -1.3655743639,
				"y": 3.5902178568,
				"z": -0.8713801583,
				"element": "N" 
			},
			{
				"x": -0.1781307164,
				"y": 3.3113379505,
				"z": -1.4607450426,
				"element": "C" 
			},
			{
				"x": 0.4755264639,
				"y": 4.0902546267,
				"z": -2.1390960294,
				"element": "O" 
			},
			{
				"x": 0.3456080149,
				"y": 1.891234512,
				"z": -1.2283858978,
				"element": "C" 
			},
			{
				"x": -0.5778065001,
				"y": 1.1774192859,
				"z": -0.4170419717,
				"element": "O" 
			},
			{
				"x": -0.3500006322,
				"y": -0.1095083118,
				"z": -0.0624134792,
				"element": "C" 
			},
			{
				"x": -1.3199174752,
				"y": -0.7505721951,
				"z": 0.7485026051,
				"element": "C" 
			},
			{
				"x": -1.1013793549,
				"y": -2.0852187907,
				"z": 1.1264105283,
				"element": "C" 
			},
			{
				"x": 0.0321339605,
				"y": -2.7825522858,
				"z": 0.727067528,
				"element": "C" 
			},
			{
				"x": 0.9782790932,
				"y": -2.1379863223,
				"z": -0.0710519888,
				"element": "C" 
			},
			{
				"x": 0.7933607838,
				"y": -0.8140957902,
				"z": -0.4645752802,
				"element": "C" 
			},
			{
				"x": -2.5803916668,
				"y": -0.1437853044,
				"z": 1.256777612,
				"element": "C" 
			},
			{
				"x": -2.8178460994,
				"y": 1.1501673434,
				"z": 0.9047472562,
				"element": "O" 
			},
			{
				"x": -3.3796759461,
				"y": -0.7424825001,
				"z": 1.9524183758,
				"element": "O" 
			},
			{
				"x": -1.8502551192,
				"y": 2.8922895868,
				"z": -0.3231187387,
				"element": "H" 
			},
			{
				"x": -1.7507186077,
				"y": 4.5133056796,
				"z": -0.9964469275,
				"element": "H" 
			},
			{
				"x": 1.3284646688,
				"y": 1.9648107397,
				"z": -0.7469884865,
				"element": "H" 
			},
			{
				"x": 0.4744526722,
				"y": 1.4110231873,
				"z": -2.2061124939,
				"element": "H" 
			},
			{
				"x": -1.8575855826,
				"y": -2.5533152681,
				"z": 1.7465937796,
				"element": "H" 
			},
			{
				"x": 0.1769906185,
				"y": -3.8132916955,
				"z": 1.0329006952,
				"element": "H" 
			},
			{
				"x": 1.8716049443,
				"y": -2.6647274056,
				"z": -0.3943764681,
				"element": "H" 
			},
			{
				"x": 1.5390787428,
				"y": -0.3312132395,
				"z": -1.0840661065,
				"element": "H" 
			},
			{
				"x": -3.6702178983,
				"y": 1.3534883406,
				"z": 1.3270806891,
				"element": "H" 
			}
		],
		 "valence_orbital": [ 
			{
				"type": "occ",
				"energy": -0.28495,
				"method": "rhf"
			},
			{
				"type": "occ",
				"energy": -0.27014,
				"method": "rhf"
			},
			{
				"type": "occ",
				"energy": -0.26731,
				"method": "rhf"
			},
			{
				"type": "occ",
				"energy": -0.25263,
				"method": "rhf"
			},
			{
				"type": "occ",
				"energy": -0.24118,
				"method": "rhf"
			},
			{
				"type": "unocc",
				"energy": -0.05561,
				"method": "rhf"
			},
			{
				"type": "unocc",
				"energy": -0.00699,
				"method": "rhf"
			},
			{
				"type": "unocc",
				"energy": 0.02834,
				"method": "rhf"
			},
			{
				"type": "unocc",
				"energy": 0.04867,
				"method": "rhf"
			},
			{
				"type": "unocc",
				"energy": 0.0689,
				"method": "rhf"
			}
		],
		"cosmo_sigma_profile": { 
			"-0.025": 0.0,
			"-0.024": 0.0,
			"-0.023": 0.0,
			"-0.022": 0.0,
			"-0.021": 0.0,
			"-0.02": 0.0,
			"-0.019": 0.0,
			"-0.018": 0.474617750721,
			"-0.017": 0.9717453759,
			"-0.016": 0.612808840058,
			"-0.015": 1.36865802161,
			"-0.014": 1.32385618074,
			"-0.013": 1.51220451174,
			"-0.012": 1.71612032553,
			"-0.011": 2.28801245826,
			"-0.01": 1.82538099627,
			"-0.009": 1.80801331576,
			"-0.008": 6.52865477929,
			"-0.007": 12.8527367125,
			"-0.006": 12.6455987863,
			"-0.005": 13.2532136469,
			"-0.004": 11.258240316,
			"-0.003": 10.3013374059,
			"-0.002": 11.6105790556,
			"-0.001": 11.507694679,
			"0.0": 13.80441716,
			"0.001": 15.8869281133,
			"0.002": 16.2755792291,
			"0.003": 16.5146814594,
			"0.004": 12.7668301417,
			"0.005": 5.00549506031,
			"0.006": 4.36677288268,
			"0.007": 2.52871424208,
			"0.008": 2.01278374751,
			"0.009": 2.9575042843,
			"0.01": 3.40088625311,
			"0.011": 4.89117233576,
			"0.012": 5.76567353969,
			"0.013": 4.40421106303,
			"0.014": 5.2984095862,
			"0.015": 1.16948346766,
			"0.016": 0.0,
			"0.017": 0.0,
			"0.018": 0.0,
			"0.019": 0.0,
			"0.02": 0.0,
			"0.021": 0.0,
			"0.022": 0.0,
			"0.023": 0.0,
			"0.024": 0.0,
			"0.025": 0.0
		}
	}
}
