{
	 "smiles": "NC(=S)CN1CCOCC1", 
	 "Tm": 452.15, 
	 "num_atms": 22, 
	 "gaussian": { 
		 "optdone": 1, 
		 "sigma_profile": "yes", 
		 "theory": "DFT", 
		 "functional": "B3LYP", 
		 "basiset": "6-31G**", 
		 "properties": { 
			 "R2extent": 2463.4804, 
			 "electric_dipole_moment_norm": 3.81665547568, 
			 "electric_quadrupole_moment_norm": 15.0466504857, 
			 "total_energy": -818.752927842, 
			 "HOMO_LUMO_gap": 0.16524, 
			 "cosmo_polarized_energy": -18.03, 
			 "cosmo_cavitation_energy": 25.24, 
			 "cosmo_dispersion_energy": -19.04, 
			 "cosmo_repulsion_energy": 1.52, 
			 "cosmo_total_nonelectrostatic_energy": 7.72, 
			 "SMD_solvation_energy": 1.47 
		},
		"coords": [
			{
				"x": 0.9764342029,
				"y": 1.2900472762,
				"z": 1.4068763275,
				"element": "N" 
			},
			{
				"x": 1.5544104939,
				"y": 0.0919000446,
				"z": 1.1888093199,
				"element": "C" 
			},
			{
				"x": 2.1143343682,
				"y": -0.8687649982,
				"z": 2.4268175727,
				"element": "S" 
			},
			{
				"x": 1.5850869524,
				"y": -0.3429080275,
				"z": -0.28445316,
				"element": "C" 
			},
			{
				"x": 0.4920066866,
				"y": -1.2049431974,
				"z": -0.6941241949,
				"element": "N" 
			},
			{
				"x": -0.8385844183,
				"y": -0.5961176863,
				"z": -0.6996967921,
				"element": "C" 
			},
			{
				"x": -1.904905266,
				"y": -1.6941525227,
				"z": -0.8745421249,
				"element": "C" 
			},
			{
				"x": -1.4480504338,
				"y": -2.7124104179,
				"z": -1.7406195514,
				"element": "O" 
			},
			{
				"x": -0.3404317832,
				"y": -3.430353066,
				"z": -1.1930679519,
				"element": "C" 
			},
			{
				"x": 0.4905774034,
				"y": -2.5806494303,
				"z": -0.2114878315,
				"element": "C" 
			},
			{
				"x": 0.8910145427,
				"y": 1.6342889837,
				"z": 2.3530925594,
				"element": "H" 
			},
			{
				"x": 0.686796361,
				"y": 1.8868982557,
				"z": 0.645827439,
				"element": "H" 
			},
			{
				"x": 2.5275332739,
				"y": -0.8678735869,
				"z": -0.4572432006,
				"element": "H" 
			},
			{
				"x": 1.5719263103,
				"y": 0.5492600673,
				"z": -0.929689165,
				"element": "H" 
			},
			{
				"x": -1.0697206499,
				"y": -0.0400545328,
				"z": 0.2273104978,
				"element": "H" 
			},
			{
				"x": -0.8866703327,
				"y": 0.1194615948,
				"z": -1.5331222087,
				"element": "H" 
			},
			{
				"x": -2.1866469701,
				"y": -2.108609467,
				"z": 0.1066506202,
				"element": "H" 
			},
			{
				"x": -2.8094989536,
				"y": -1.2743455713,
				"z": -1.3234372745,
				"element": "H" 
			},
			{
				"x": -0.6919989694,
				"y": -4.3424608969,
				"z": -0.6847362463,
				"element": "H" 
			},
			{
				"x": 0.2720446798,
				"y": -3.7288411399,
				"z": -2.0497014818,
				"element": "H" 
			},
			{
				"x": 1.5192243258,
				"y": -2.9516284179,
				"z": -0.1852896025,
				"element": "H" 
			},
			{
				"x": 0.1080181759,
				"y": -2.6757432632,
				"z": 0.8178264494,
				"element": "H" 
			}
		],
		 "valence_orbital": [ 
			{
				"type": "occ",
				"energy": -0.30837,
				"method": "rhf"
			},
			{
				"type": "occ",
				"energy": -0.24823,
				"method": "rhf"
			},
			{
				"type": "occ",
				"energy": -0.23499,
				"method": "rhf"
			},
			{
				"type": "occ",
				"energy": -0.22349,
				"method": "rhf"
			},
			{
				"type": "occ",
				"energy": -0.20096,
				"method": "rhf"
			},
			{
				"type": "unocc",
				"energy": -0.03572,
				"method": "rhf"
			},
			{
				"type": "unocc",
				"energy": 0.05389,
				"method": "rhf"
			},
			{
				"type": "unocc",
				"energy": 0.08317,
				"method": "rhf"
			},
			{
				"type": "unocc",
				"energy": 0.09065,
				"method": "rhf"
			},
			{
				"type": "unocc",
				"energy": 0.11297,
				"method": "rhf"
			}
		],
		"cosmo_sigma_profile": { 
			"-0.025": 0.0,
			"-0.024": 0.0,
			"-0.023": 0.0,
			"-0.022": 0.0,
			"-0.021": 0.0,
			"-0.02": 0.0,
			"-0.019": 0.0,
			"-0.018": 0.0,
			"-0.017": 0.0,
			"-0.016": 0.162413305848,
			"-0.015": 2.25879879626,
			"-0.014": 2.51922231416,
			"-0.013": 2.57613607389,
			"-0.012": 2.90626212504,
			"-0.011": 2.44933209978,
			"-0.01": 2.88559441573,
			"-0.009": 1.75134682065,
			"-0.008": 1.83177166542,
			"-0.007": 1.91639015349,
			"-0.006": 3.83215216971,
			"-0.005": 9.84684459982,
			"-0.004": 20.007887854,
			"-0.003": 29.0656441866,
			"-0.002": 18.2732369992,
			"-0.001": 12.0411973438,
			"0.0": 9.11465045779,
			"0.001": 5.78732339305,
			"0.002": 5.53360170302,
			"0.003": 5.0003607643,
			"0.004": 5.67161568828,
			"0.005": 5.74315810409,
			"0.006": 5.66746684852,
			"0.007": 5.84953518956,
			"0.008": 7.9345105124,
			"0.009": 8.05763122383,
			"0.01": 5.37101154434,
			"0.011": 5.64421138564,
			"0.012": 5.17430705012,
			"0.013": 2.98554153303,
			"0.014": 1.13029353364,
			"0.015": 0.0,
			"0.016": 0.0,
			"0.017": 0.0,
			"0.018": 0.0,
			"0.019": 0.0,
			"0.02": 0.0,
			"0.021": 0.0,
			"0.022": 0.0,
			"0.023": 0.0,
			"0.024": 0.0,
			"0.025": 0.0
		}
	}
}
