{
	 "smiles": "NC1=C(NC(=O)C2=NC3=C(C=CC=C3)C=C2)C=CC=C1", 
	 "Tm": 425.15, 
	 "num_atms": 33, 
	 "gaussian": { 
		 "optdone": 1, 
		 "sigma_profile": "yes", 
		 "theory": "DFT", 
		 "functional": "B3LYP", 
		 "basiset": "6-31G**", 
		 "properties": { 
			 "R2extent": 7708.472, 
			 "electric_dipole_moment_norm": 5.30542713926, 
			 "electric_quadrupole_moment_norm": 14.6728840042, 
			 "total_energy": -857.050570407, 
			 "HOMO_LUMO_gap": 0.11776, 
			 "cosmo_polarized_energy": -16.26, 
			 "cosmo_cavitation_energy": 37.45, 
			 "cosmo_dispersion_energy": -27.35, 
			 "cosmo_repulsion_energy": 2.05, 
			 "cosmo_total_nonelectrostatic_energy": 12.15, 
			 "SMD_solvation_energy": 5.53 
		},
		"coords": [
			{
				"x": 1.4864950205,
				"y": -1.4846131696,
				"z": -2.3125439072,
				"element": "N" 
			},
			{
				"x": 1.3783039269,
				"y": -2.6326145162,
				"z": -1.5271775258,
				"element": "C" 
			},
			{
				"x": 0.6528333268,
				"y": -2.6377041895,
				"z": -0.311429249,
				"element": "C" 
			},
			{
				"x": -0.0898572232,
				"y": -1.4802300806,
				"z": 0.0185096798,
				"element": "N" 
			},
			{
				"x": -0.4570069296,
				"y": -1.0343383201,
				"z": 1.2541669645,
				"element": "C" 
			},
			{
				"x": -0.17190357,
				"y": -1.5561870494,
				"z": 2.3282158089,
				"element": "O" 
			},
			{
				"x": -1.2877214566,
				"y": 0.2319999839,
				"z": 1.1950258981,
				"element": "C" 
			},
			{
				"x": -1.5678141555,
				"y": 0.7368404753,
				"z": 0.0049931387,
				"element": "N" 
			},
			{
				"x": -2.3148162634,
				"y": 1.8749337035,
				"z": -0.0605943279,
				"element": "C" 
			},
			{
				"x": -2.7951948575,
				"y": 2.5338279179,
				"z": 1.1173878827,
				"element": "C" 
			},
			{
				"x": -3.5669874289,
				"y": 3.716863081,
				"z": 0.9797055577,
				"element": "C" 
			},
			{
				"x": -3.8507740716,
				"y": 4.2242736182,
				"z": -0.2685731306,
				"element": "C" 
			},
			{
				"x": -3.3755126725,
				"y": 3.5708078371,
				"z": -1.4335438798,
				"element": "C" 
			},
			{
				"x": -2.6241104096,
				"y": 2.4217726829,
				"z": -1.3342099074,
				"element": "C" 
			},
			{
				"x": -2.4670263372,
				"y": 1.9567313202,
				"z": 2.3718412361,
				"element": "C" 
			},
			{
				"x": -1.7163450812,
				"y": 0.8078068132,
				"z": 2.4174428731,
				"element": "C" 
			},
			{
				"x": 0.6574904237,
				"y": -3.7757143878,
				"z": 0.5041094443,
				"element": "C" 
			},
			{
				"x": 1.3396186761,
				"y": -4.9246295714,
				"z": 0.1100005419,
				"element": "C" 
			},
			{
				"x": 2.0160386163,
				"y": -4.9438396236,
				"z": -1.1114430782,
				"element": "C" 
			},
			{
				"x": 2.0388931553,
				"y": -3.8084293247,
				"z": -1.9157690284,
				"element": "C" 
			},
			{
				"x": 1.53882212,
				"y": -1.6156120298,
				"z": -3.3107207442,
				"element": "H" 
			},
			{
				"x": 0.9912534714,
				"y": -0.6551727305,
				"z": -2.029414613,
				"element": "H" 
			},
			{
				"x": -0.4980897993,
				"y": -0.9311683732,
				"z": -0.731841682,
				"element": "H" 
			},
			{
				"x": -3.929645607,
				"y": 4.2143663282,
				"z": 1.8753962384,
				"element": "H" 
			},
			{
				"x": -4.4420356921,
				"y": 5.1298380758,
				"z": -0.3660913271,
				"element": "H" 
			},
			{
				"x": -3.6091605898,
				"y": 3.9838578227,
				"z": -2.4103912833,
				"element": "H" 
			},
			{
				"x": -2.2516762813,
				"y": 1.9050683242,
				"z": -2.2128891105,
				"element": "H" 
			},
			{
				"x": -2.8163293777,
				"y": 2.4327373676,
				"z": 3.2846560382,
				"element": "H" 
			},
			{
				"x": -1.4353181221,
				"y": 0.3205479091,
				"z": 3.3431539143,
				"element": "H" 
			},
			{
				"x": 0.1237679925,
				"y": -3.7389878154,
				"z": 1.4448249911,
				"element": "H" 
			},
			{
				"x": 1.3335029761,
				"y": -5.8004990645,
				"z": 0.7510382757,
				"element": "H" 
			},
			{
				"x": 2.542153096,
				"y": -5.8378262109,
				"z": -1.4337458854,
				"element": "H" 
			},
			{
				"x": 2.5962531245,
				"y": -3.8084068039,
				"z": -2.8491898036,
				"element": "H" 
			}
		],
		 "valence_orbital": [ 
			{
				"type": "occ",
				"energy": -0.26104,
				"method": "rhf"
			},
			{
				"type": "occ",
				"energy": -0.24745,
				"method": "rhf"
			},
			{
				"type": "occ",
				"energy": -0.24539,
				"method": "rhf"
			},
			{
				"type": "occ",
				"energy": -0.22182,
				"method": "rhf"
			},
			{
				"type": "occ",
				"energy": -0.19104,
				"method": "rhf"
			},
			{
				"type": "unocc",
				"energy": -0.07328,
				"method": "rhf"
			},
			{
				"type": "unocc",
				"energy": -0.03832,
				"method": "rhf"
			},
			{
				"type": "unocc",
				"energy": 0.00235,
				"method": "rhf"
			},
			{
				"type": "unocc",
				"energy": 0.01155,
				"method": "rhf"
			},
			{
				"type": "unocc",
				"energy": 0.02316,
				"method": "rhf"
			}
		],
		"cosmo_sigma_profile": { 
			"-0.025": 0.0,
			"-0.024": 0.0,
			"-0.023": 0.0,
			"-0.022": 0.0,
			"-0.021": 0.0,
			"-0.02": 0.0,
			"-0.019": 0.0,
			"-0.018": 0.0,
			"-0.017": 0.0,
			"-0.016": 0.0,
			"-0.015": 0.0,
			"-0.014": 0.0201933849423,
			"-0.013": 0.783359201477,
			"-0.012": 2.52964692088,
			"-0.011": 2.60244314674,
			"-0.01": 3.67736197199,
			"-0.009": 3.56391082392,
			"-0.008": 3.44494283587,
			"-0.007": 8.93023796697,
			"-0.006": 15.7198648112,
			"-0.005": 18.8706386817,
			"-0.004": 18.9497514078,
			"-0.003": 18.0115173851,
			"-0.002": 17.8907693122,
			"-0.001": 18.6820824864,
			"0.0": 24.0090659659,
			"0.001": 26.8805793162,
			"0.002": 26.1357535204,
			"0.003": 22.1675950536,
			"0.004": 17.5188600632,
			"0.005": 12.504983799,
			"0.006": 13.1622667061,
			"0.007": 7.62934517452,
			"0.008": 1.54863285342,
			"0.009": 3.07300982669,
			"0.01": 2.50012388783,
			"0.011": 2.34932797428,
			"0.012": 3.44088112706,
			"0.013": 4.22801674914,
			"0.014": 0.147382724605,
			"0.015": 0.0,
			"0.016": 0.0,
			"0.017": 0.0,
			"0.018": 0.0,
			"0.019": 0.0,
			"0.02": 0.0,
			"0.021": 0.0,
			"0.022": 0.0,
			"0.023": 0.0,
			"0.024": 0.0,
			"0.025": 0.0
		}
	}
}
