{
	 "smiles": "CCOC(=O)C1=NN(C(C)=C1C(=O)C1=NOC(=C1S(=O)(=O)C1=CC=CC=C1)C1=CC=CC=C1)C1=CC=C(C)C=C1", 
	 "Tm": 442.15, 
	 "num_atms": 65, 
	 "gaussian": { 
		 "optdone": 1, 
		 "sigma_profile": "yes", 
		 "theory": "DFT", 
		 "functional": "B3LYP", 
		 "basiset": "6-31G**", 
		 "properties": { 
			 "R2extent": 23405.7177, 
			 "electric_dipole_moment_norm": 4.58153141864, 
			 "electric_quadrupole_moment_norm": 48.7450157302, 
			 "total_energy": -2171.91875524, 
			 "HOMO_LUMO_gap": 0.17724, 
			 "cosmo_polarized_energy": -24.36, 
			 "cosmo_cavitation_energy": 70.29, 
			 "cosmo_dispersion_energy": -44.44, 
			 "cosmo_repulsion_energy": 3.28, 
			 "cosmo_total_nonelectrostatic_energy": 29.13, 
			 "SMD_solvation_energy": 11.58 
		},
		"coords": [
			{
				"x": 3.0153464573,
				"y": 2.0034757099,
				"z": -2.7317153637,
				"element": "C" 
			},
			{
				"x": 2.7751034275,
				"y": 1.5916629153,
				"z": -1.2878024907,
				"element": "C" 
			},
			{
				"x": 1.3600948732,
				"y": 1.6090164186,
				"z": -0.9742692202,
				"element": "O" 
			},
			{
				"x": 0.6683733404,
				"y": 0.4764446729,
				"z": -1.1875459292,
				"element": "C" 
			},
			{
				"x": 1.1214152498,
				"y": -0.5389093536,
				"z": -1.6757750823,
				"element": "O" 
			},
			{
				"x": -0.7451022704,
				"y": 0.6426346826,
				"z": -0.744995581,
				"element": "C" 
			},
			{
				"x": -1.6963964137,
				"y": 0.1229365534,
				"z": -1.5119570849,
				"element": "N" 
			},
			{
				"x": -2.8630911964,
				"y": 0.4643395874,
				"z": -0.9048110848,
				"element": "N" 
			},
			{
				"x": -2.6772569655,
				"y": 1.2133803985,
				"z": 0.2213639278,
				"element": "C" 
			},
			{
				"x": -3.7780201889,
				"y": 1.7180189644,
				"z": 1.0952655212,
				"element": "C" 
			},
			{
				"x": -1.2936536366,
				"y": 1.3427081146,
				"z": 0.3703652983,
				"element": "C" 
			},
			{
				"x": -0.6642614281,
				"y": 1.9525345565,
				"z": 1.5504563232,
				"element": "C" 
			},
			{
				"x": -1.1755942026,
				"y": 2.8591604109,
				"z": 2.1869081762,
				"element": "O" 
			},
			{
				"x": 0.6553388992,
				"y": 1.4003444822,
				"z": 2.0766343666,
				"element": "C" 
			},
			{
				"x": 1.7381699876,
				"y": 2.1266882559,
				"z": 1.9486655501,
				"element": "N" 
			},
			{
				"x": 2.7417010081,
				"y": 1.4347038776,
				"z": 2.6333471726,
				"element": "O" 
			},
			{
				"x": 2.2490651695,
				"y": 0.3078392058,
				"z": 3.1866064673,
				"element": "C" 
			},
			{
				"x": 0.9086333503,
				"y": 0.222550117,
				"z": 2.8586098611,
				"element": "C" 
			},
			{
				"x": -0.287338559,
				"y": -1.0406121119,
				"z": 3.2633349816,
				"element": "S" 
			},
			{
				"x": -0.2212574769,
				"y": -1.3186241214,
				"z": 4.7071703273,
				"element": "O" 
			},
			{
				"x": -1.5514905515,
				"y": -0.5977886522,
				"z": 2.6554725426,
				"element": "O" 
			},
			{
				"x": 0.2908591006,
				"y": -2.5033997168,
				"z": 2.3930947319,
				"element": "C" 
			},
			{
				"x": 0.80736794,
				"y": -3.5696902929,
				"z": 3.1314289231,
				"element": "C" 
			},
			{
				"x": 1.2487818265,
				"y": -4.706210707,
				"z": 2.4519570689,
				"element": "C" 
			},
			{
				"x": 1.1785650218,
				"y": -4.76182205,
				"z": 1.058406882,
				"element": "C" 
			},
			{
				"x": 0.6558771638,
				"y": -3.6872481061,
				"z": 0.3333893141,
				"element": "C" 
			},
			{
				"x": 0.1986853267,
				"y": -2.5518100579,
				"z": 0.9993911526,
				"element": "C" 
			},
			{
				"x": 3.2276051335,
				"y": -0.5024202743,
				"z": 3.9204327144,
				"element": "C" 
			},
			{
				"x": 2.8783428991,
				"y": -1.2273376609,
				"z": 5.0722198277,
				"element": "C" 
			},
			{
				"x": 3.8519279607,
				"y": -1.9573445363,
				"z": 5.753014237,
				"element": "C" 
			},
			{
				"x": 5.1722348905,
				"y": -1.9727889827,
				"z": 5.3007540056,
				"element": "C" 
			},
			{
				"x": 5.5252475944,
				"y": -1.245777983,
				"z": 4.1609324691,
				"element": "C" 
			},
			{
				"x": 4.5630622586,
				"y": -0.5104662209,
				"z": 3.4756201837,
				"element": "C" 
			},
			{
				"x": -4.087446898,
				"y": 0.039000153,
				"z": -1.5079116997,
				"element": "C" 
			},
			{
				"x": -4.2520503243,
				"y": 0.1944427413,
				"z": -2.8869909995,
				"element": "C" 
			},
			{
				"x": -5.4308533574,
				"y": -0.234570442,
				"z": -3.4889254943,
				"element": "C" 
			},
			{
				"x": -6.4648656324,
				"y": -0.8151094402,
				"z": -2.7389182882,
				"element": "C" 
			},
			{
				"x": -7.7538057382,
				"y": -1.2431404917,
				"z": -3.3989547385,
				"element": "C" 
			},
			{
				"x": -6.2704677648,
				"y": -0.9719241227,
				"z": -1.3613753913,
				"element": "C" 
			},
			{
				"x": -5.0902130311,
				"y": -0.5590444524,
				"z": -0.7429584468,
				"element": "C" 
			},
			{
				"x": 2.5792536023,
				"y": 1.2734950719,
				"z": -3.4184852006,
				"element": "H" 
			},
			{
				"x": 2.5787098049,
				"y": 2.9856896966,
				"z": -2.9340840085,
				"element": "H" 
			},
			{
				"x": 4.0915841401,
				"y": 2.0590606799,
				"z": -2.9267155457,
				"element": "H" 
			},
			{
				"x": 3.1642428112,
				"y": 0.5892985293,
				"z": -1.0931815415,
				"element": "H" 
			},
			{
				"x": 3.2105791681,
				"y": 2.2994207245,
				"z": -0.580160288,
				"element": "H" 
			},
			{
				"x": -3.4745574072,
				"y": 2.6644706922,
				"z": 1.5409442541,
				"element": "H" 
			},
			{
				"x": -3.9673988666,
				"y": 1.0144157276,
				"z": 1.9143521322,
				"element": "H" 
			},
			{
				"x": -4.7040484309,
				"y": 1.8532029885,
				"z": 0.5323198433,
				"element": "H" 
			},
			{
				"x": 0.8490932385,
				"y": -3.5054504311,
				"z": 4.2122600286,
				"element": "H" 
			},
			{
				"x": 1.6487253405,
				"y": -5.5455086457,
				"z": 3.0128014829,
				"element": "H" 
			},
			{
				"x": 1.5308855569,
				"y": -5.6459183566,
				"z": 0.5349800652,
				"element": "H" 
			},
			{
				"x": 0.602758471,
				"y": -3.7221124901,
				"z": -0.7498150959,
				"element": "H" 
			},
			{
				"x": -0.2211494223,
				"y": -1.7274894825,
				"z": 0.4362252334,
				"element": "H" 
			},
			{
				"x": 1.8580726928,
				"y": -1.2012843104,
				"z": 5.4353024999,
				"element": "H" 
			},
			{
				"x": 3.5763527557,
				"y": -2.5080646492,
				"z": 6.6474693403,
				"element": "H" 
			},
			{
				"x": 5.9251123059,
				"y": -2.5438799339,
				"z": 5.8362146233,
				"element": "H" 
			},
			{
				"x": 6.5512261159,
				"y": -1.2513907274,
				"z": 3.8054849258,
				"element": "H" 
			},
			{
				"x": 4.8351988062,
				"y": 0.056101427,
				"z": 2.5918352667,
				"element": "H" 
			},
			{
				"x": -3.4520548685,
				"y": 0.635930873,
				"z": -3.4701412872,
				"element": "H" 
			},
			{
				"x": -5.5515227361,
				"y": -0.1137928506,
				"z": -4.5623255587,
				"element": "H" 
			},
			{
				"x": -8.4329142573,
				"y": -0.391247276,
				"z": -3.5286839181,
				"element": "H" 
			},
			{
				"x": -7.5732987107,
				"y": -1.6665157266,
				"z": -4.3918479566,
				"element": "H" 
			},
			{
				"x": -8.2801197121,
				"y": -1.9924885355,
				"z": -2.8010446229,
				"element": "H" 
			},
			{
				"x": -7.0458130875,
				"y": -1.4396173343,
				"z": -0.7605751438,
				"element": "H" 
			},
			{
				"x": -4.940850554,
				"y": -0.7257677017,
				"z": 0.317935341,
				"element": "H" 
			}
		],
		 "valence_orbital": [ 
			{
				"type": "occ",
				"energy": -0.26419,
				"method": "rhf"
			},
			{
				"type": "occ",
				"energy": -0.26054,
				"method": "rhf"
			},
			{
				"type": "occ",
				"energy": -0.25072,
				"method": "rhf"
			},
			{
				"type": "occ",
				"energy": -0.24774,
				"method": "rhf"
			},
			{
				"type": "occ",
				"energy": -0.24006,
				"method": "rhf"
			},
			{
				"type": "unocc",
				"energy": -0.06282,
				"method": "rhf"
			},
			{
				"type": "unocc",
				"energy": -0.05219,
				"method": "rhf"
			},
			{
				"type": "unocc",
				"energy": -0.03937,
				"method": "rhf"
			},
			{
				"type": "unocc",
				"energy": -0.03288,
				"method": "rhf"
			},
			{
				"type": "unocc",
				"energy": -0.02055,
				"method": "rhf"
			}
		],
		"cosmo_sigma_profile": { 
			"-0.025": 0.0,
			"-0.024": 0.0,
			"-0.023": 0.0,
			"-0.022": 0.0,
			"-0.021": 0.0,
			"-0.02": 0.0,
			"-0.019": 0.0,
			"-0.018": 0.0,
			"-0.017": 0.0,
			"-0.016": 0.0,
			"-0.015": 0.0,
			"-0.014": 0.0,
			"-0.013": 0.284316034525,
			"-0.012": 0.598939833875,
			"-0.011": 0.551461600578,
			"-0.01": 0.238571857565,
			"-0.009": 0.450022066781,
			"-0.008": 0.923102051162,
			"-0.007": 12.8766551896,
			"-0.006": 28.0944731065,
			"-0.005": 40.920880019,
			"-0.004": 49.4020158006,
			"-0.003": 49.9289680503,
			"-0.002": 53.2948995689,
			"-0.001": 48.5686027388,
			"0.0": 45.8297534143,
			"0.001": 39.2985685212,
			"0.002": 41.5371946703,
			"0.003": 42.1839877862,
			"0.004": 29.7221174136,
			"0.005": 12.4427222453,
			"0.006": 11.9988166605,
			"0.007": 10.2449994134,
			"0.008": 9.68609785077,
			"0.009": 9.46039938025,
			"0.01": 11.3134500966,
			"0.011": 9.73329454061,
			"0.012": 2.88363459907,
			"0.013": 0.809981243924,
			"0.014": 0.111325771614,
			"0.015": 0.0,
			"0.016": 0.0,
			"0.017": 0.0,
			"0.018": 0.0,
			"0.019": 0.0,
			"0.02": 0.0,
			"0.021": 0.0,
			"0.022": 0.0,
			"0.023": 0.0,
			"0.024": 0.0,
			"0.025": 0.0
		}
	}
}
