{
	 "smiles": "ClC1=CC2=C(C=C1)S(=O)(=O)CCC2=O", 
	 "Tm": 433.15, 
	 "num_atms": 21, 
	 "gaussian": { 
		 "optdone": 1, 
		 "sigma_profile": "yes", 
		 "theory": "DFT", 
		 "functional": "B3LYP", 
		 "basiset": "6-31G**", 
		 "properties": { 
			 "R2extent": 3554.6807, 
			 "electric_dipole_moment_norm": 1.93827275944, 
			 "electric_quadrupole_moment_norm": 19.9651963932, 
			 "total_energy": -1431.16048405, 
			 "HOMO_LUMO_gap": 0.18152, 
			 "cosmo_polarized_energy": -15.94, 
			 "cosmo_cavitation_energy": 27.95, 
			 "cosmo_dispersion_energy": -21.35, 
			 "cosmo_repulsion_energy": 1.61, 
			 "cosmo_total_nonelectrostatic_energy": 8.21, 
			 "SMD_solvation_energy": 4.0 
		},
		"coords": [
			{
				"x": -2.1729356755,
				"y": -2.778919616,
				"z": 2.4179011726,
				"element": "Cl" 
			},
			{
				"x": -1.4792795212,
				"y": -1.4206619269,
				"z": 1.5590359096,
				"element": "C" 
			},
			{
				"x": -0.3113269947,
				"y": -1.5982297795,
				"z": 0.8264375363,
				"element": "C" 
			},
			{
				"x": 0.2474655405,
				"y": -0.5183827924,
				"z": 0.1288181941,
				"element": "C" 
			},
			{
				"x": -0.3907906196,
				"y": 0.7329991035,
				"z": 0.1995420253,
				"element": "C" 
			},
			{
				"x": -1.5528085688,
				"y": 0.9076400772,
				"z": 0.9505444893,
				"element": "C" 
			},
			{
				"x": -2.1069332021,
				"y": -0.173204486,
				"z": 1.6316199675,
				"element": "C" 
			},
			{
				"x": 0.2269088305,
				"y": 2.1561685405,
				"z": -0.713402825,
				"element": "S" 
			},
			{
				"x": 0.0001560619,
				"y": 3.3561524212,
				"z": 0.1038152429,
				"element": "O" 
			},
			{
				"x": -0.2789159559,
				"y": 2.0926640088,
				"z": -2.0943150001,
				"element": "O" 
			},
			{
				"x": 1.9897633128,
				"y": 1.7581950895,
				"z": -0.7566939063,
				"element": "C" 
			},
			{
				"x": 2.1880960011,
				"y": 0.374288751,
				"z": -1.3792796662,
				"element": "C" 
			},
			{
				"x": 1.5257675604,
				"y": -0.7731485478,
				"z": -0.6241823378,
				"element": "C" 
			},
			{
				"x": 2.0186388382,
				"y": -1.8871977919,
				"z": -0.6441943721,
				"element": "O" 
			},
			{
				"x": 0.1881227381,
				"y": -2.5588711465,
				"z": 0.7773003094,
				"element": "H" 
			},
			{
				"x": -2.0078786605,
				"y": 1.8906138167,
				"z": 1.012097108,
				"element": "H" 
			},
			{
				"x": -3.0097376208,
				"y": -0.0520409603,
				"z": 2.2196515423,
				"element": "H" 
			},
			{
				"x": 2.3603147083,
				"y": 1.8269712695,
				"z": 0.2697694714,
				"element": "H" 
			},
			{
				"x": 2.4545159094,
				"y": 2.5469291998,
				"z": -1.3545851533,
				"element": "H" 
			},
			{
				"x": 3.2512897445,
				"y": 0.1359897825,
				"z": -1.4667749477,
				"element": "H" 
			},
			{
				"x": 1.7715675733,
				"y": 0.379344987,
				"z": -2.3949047603,
				"element": "H" 
			}
		],
		 "valence_orbital": [ 
			{
				"type": "occ",
				"energy": -0.31259,
				"method": "rhf"
			},
			{
				"type": "occ",
				"energy": -0.30288,
				"method": "rhf"
			},
			{
				"type": "occ",
				"energy": -0.29537,
				"method": "rhf"
			},
			{
				"type": "occ",
				"energy": -0.27928,
				"method": "rhf"
			},
			{
				"type": "occ",
				"energy": -0.27565,
				"method": "rhf"
			},
			{
				"type": "unocc",
				"energy": -0.09413,
				"method": "rhf"
			},
			{
				"type": "unocc",
				"energy": -0.05413,
				"method": "rhf"
			},
			{
				"type": "unocc",
				"energy": 0.00448,
				"method": "rhf"
			},
			{
				"type": "unocc",
				"energy": 0.00912,
				"method": "rhf"
			},
			{
				"type": "unocc",
				"energy": 0.05182,
				"method": "rhf"
			}
		],
		"cosmo_sigma_profile": { 
			"-0.025": 0.0,
			"-0.024": 0.0,
			"-0.023": 0.0,
			"-0.022": 0.0,
			"-0.021": 0.0,
			"-0.02": 0.0,
			"-0.019": 0.0,
			"-0.018": 0.0,
			"-0.017": 0.0,
			"-0.016": 0.0,
			"-0.015": 0.0,
			"-0.014": 0.0,
			"-0.013": 0.0,
			"-0.012": 0.0,
			"-0.011": 0.268675446448,
			"-0.01": 3.65034673877,
			"-0.009": 7.88619676717,
			"-0.008": 10.8911686588,
			"-0.007": 13.5385096413,
			"-0.006": 15.0777310424,
			"-0.005": 10.5067602065,
			"-0.004": 9.55465204299,
			"-0.003": 10.5973995418,
			"-0.002": 13.1745838107,
			"-0.001": 23.2086174525,
			"0.0": 18.3713597869,
			"0.001": 10.009401576,
			"0.002": 9.55076505545,
			"0.003": 10.8434036296,
			"0.004": 11.0909636227,
			"0.005": 3.23027925998,
			"0.006": 2.91420617818,
			"0.007": 3.33969621404,
			"0.008": 5.0636238112,
			"0.009": 6.13563247864,
			"0.01": 11.4724236527,
			"0.011": 12.7056343857,
			"0.012": 3.32534229825,
			"0.013": 0.0,
			"0.014": 0.0,
			"0.015": 0.0,
			"0.016": 0.0,
			"0.017": 0.0,
			"0.018": 0.0,
			"0.019": 0.0,
			"0.02": 0.0,
			"0.021": 0.0,
			"0.022": 0.0,
			"0.023": 0.0,
			"0.024": 0.0,
			"0.025": 0.0
		}
	}
}
