{
	 "smiles": "N#CC1=CC=C(OC2=CN=CC=C2)C=C1", 
	 "Tm": 324.15, 
	 "num_atms": 23, 
	 "gaussian": { 
		 "optdone": 1, 
		 "sigma_profile": "yes", 
		 "theory": "DFT", 
		 "functional": "B3LYP", 
		 "basiset": "6-31G**", 
		 "properties": { 
			 "R2extent": 4702.0306, 
			 "electric_dipole_moment_norm": 5.27908564526, 
			 "electric_quadrupole_moment_norm": 25.9213804195, 
			 "total_energy": -646.789587852, 
			 "HOMO_LUMO_gap": 0.19311, 
			 "cosmo_polarized_energy": -12.97, 
			 "cosmo_cavitation_energy": 29.45, 
			 "cosmo_dispersion_energy": -20.74, 
			 "cosmo_repulsion_energy": 1.61, 
			 "cosmo_total_nonelectrostatic_energy": 10.33, 
			 "SMD_solvation_energy": 5.27 
		},
		"coords": [
			{
				"x": 4.6619038799,
				"y": -0.8996007602,
				"z": -3.9407933704,
				"element": "N" 
			},
			{
				"x": 3.6651209838,
				"y": -0.6622394581,
				"z": -3.389180907,
				"element": "C" 
			},
			{
				"x": 2.4382931072,
				"y": -0.369031481,
				"z": -2.7108999201,
				"element": "C" 
			},
			{
				"x": 2.1685304167,
				"y": 0.9378704216,
				"z": -2.2640500651,
				"element": "C" 
			},
			{
				"x": 0.9811602838,
				"y": 1.2193299609,
				"z": -1.604095588,
				"element": "C" 
			},
			{
				"x": 0.0473043996,
				"y": 0.1989054316,
				"z": -1.3843115206,
				"element": "C" 
			},
			{
				"x": -1.1165361552,
				"y": 0.5817410493,
				"z": -0.7635213439,
				"element": "O" 
			},
			{
				"x": -1.94900913,
				"y": -0.3557862927,
				"z": -0.1778321126,
				"element": "C" 
			},
			{
				"x": -1.5150380006,
				"y": -1.1652246948,
				"z": 0.8774875113,
				"element": "C" 
			},
			{
				"x": -2.3224702923,
				"y": -2.0199940938,
				"z": 1.5103070483,
				"element": "N" 
			},
			{
				"x": -3.6002736223,
				"y": -2.0842392533,
				"z": 1.1128179627,
				"element": "C" 
			},
			{
				"x": -4.1233418813,
				"y": -1.3066933498,
				"z": 0.0782996766,
				"element": "C" 
			},
			{
				"x": -3.2778941583,
				"y": -0.4207638174,
				"z": -0.5878001525,
				"element": "C" 
			},
			{
				"x": 0.2981950162,
				"y": -1.104053799,
				"z": -1.8294926428,
				"element": "C" 
			},
			{
				"x": 1.4919798048,
				"y": -1.382418112,
				"z": -2.4874527189,
				"element": "C" 
			},
			{
				"x": 2.8961394544,
				"y": 1.7239976822,
				"z": -2.434948813,
				"element": "H" 
			},
			{
				"x": 0.7562445864,
				"y": 2.2196240681,
				"z": -1.2507355305,
				"element": "H" 
			},
			{
				"x": -0.4818993675,
				"y": -1.1121901205,
				"z": 1.2152888892,
				"element": "H" 
			},
			{
				"x": -4.2348581072,
				"y": -2.7856173699,
				"z": 1.6502139036,
				"element": "H" 
			},
			{
				"x": -5.1685290028,
				"y": -1.3939475478,
				"z": -0.2009559489,
				"element": "H" 
			},
			{
				"x": -3.6245143545,
				"y": 0.2129439469,
				"z": -1.3976450253,
				"element": "H" 
			},
			{
				"x": -0.430103799,
				"y": -1.8899367024,
				"z": -1.6679525164,
				"element": "H" 
			},
			{
				"x": 1.6934959381,
				"y": -2.3895757079,
				"z": -2.8365468157,
				"element": "H" 
			}
		],
		 "valence_orbital": [ 
			{
				"type": "occ",
				"energy": -0.30195,
				"method": "rhf"
			},
			{
				"type": "occ",
				"energy": -0.28279,
				"method": "rhf"
			},
			{
				"type": "occ",
				"energy": -0.27599,
				"method": "rhf"
			},
			{
				"type": "occ",
				"energy": -0.27085,
				"method": "rhf"
			},
			{
				"type": "occ",
				"energy": -0.24284,
				"method": "rhf"
			},
			{
				"type": "unocc",
				"energy": -0.04973,
				"method": "rhf"
			},
			{
				"type": "unocc",
				"energy": -0.04197,
				"method": "rhf"
			},
			{
				"type": "unocc",
				"energy": -0.02963,
				"method": "rhf"
			},
			{
				"type": "unocc",
				"energy": -0.02344,
				"method": "rhf"
			},
			{
				"type": "unocc",
				"energy": 0.03758,
				"method": "rhf"
			}
		],
		"cosmo_sigma_profile": { 
			"-0.025": 0.0,
			"-0.024": 0.0,
			"-0.023": 0.0,
			"-0.022": 0.0,
			"-0.021": 0.0,
			"-0.02": 0.0,
			"-0.019": 0.0,
			"-0.018": 0.0,
			"-0.017": 0.0,
			"-0.016": 0.0,
			"-0.015": 0.0,
			"-0.014": 0.0,
			"-0.013": 0.0,
			"-0.012": 0.0,
			"-0.011": 0.0,
			"-0.01": 0.0,
			"-0.009": 0.413087516434,
			"-0.008": 7.93928533519,
			"-0.007": 14.7384893555,
			"-0.006": 18.0935998211,
			"-0.005": 14.9181019758,
			"-0.004": 12.9796644555,
			"-0.003": 14.1846772617,
			"-0.002": 14.3734682858,
			"-0.001": 16.5095788999,
			"0.0": 21.6172712158,
			"0.001": 25.2055151524,
			"0.002": 23.4780906049,
			"0.003": 7.4492261173,
			"0.004": 5.66798843153,
			"0.005": 4.60406183063,
			"0.006": 4.84452684419,
			"0.007": 5.38469122791,
			"0.008": 4.76079517952,
			"0.009": 4.69057321205,
			"0.01": 4.20488497033,
			"0.011": 4.17574701965,
			"0.012": 3.44107316111,
			"0.013": 2.70653732986,
			"0.014": 0.837786195032,
			"0.015": 1.171038911,
			"0.016": 0.546673602286,
			"0.017": 0.0289464174473,
			"0.018": 0.0,
			"0.019": 0.0,
			"0.02": 0.0,
			"0.021": 0.0,
			"0.022": 0.0,
			"0.023": 0.0,
			"0.024": 0.0,
			"0.025": 0.0
		}
	}
}
