{
	 "smiles": "COC1=C(Br)SC=C1C(O)=O", 
	 "Tm": 429.15, 
	 "num_atms": 16, 
	 "gaussian": { 
		 "optdone": 1, 
		 "sigma_profile": "yes", 
		 "theory": "DFT", 
		 "functional": "B3LYP", 
		 "basiset": "6-31G**", 
		 "properties": { 
			 "R2extent": 4620.0049, 
			 "electric_dipole_moment_norm": 4.34989080093, 
			 "electric_quadrupole_moment_norm": 15.764618545, 
			 "total_energy": -3426.88496834, 
			 "HOMO_LUMO_gap": 0.19327, 
			 "cosmo_polarized_energy": -11.64, 
			 "cosmo_cavitation_energy": 24.48, 
			 "cosmo_dispersion_energy": -18.79, 
			 "cosmo_repulsion_energy": 1.46, 
			 "cosmo_total_nonelectrostatic_energy": 7.15, 
			 "SMD_solvation_energy": 5.0 
		},
		"coords": [
			{
				"x": -0.2233609582,
				"y": 0.7921394386,
				"z": -0.2100321677,
				"element": "C" 
			},
			{
				"x": 0.0015720546,
				"y": -0.6117561692,
				"z": 0.0494240546,
				"element": "O" 
			},
			{
				"x": 0.8659188946,
				"y": -1.2385144037,
				"z": -0.8184945525,
				"element": "C" 
			},
			{
				"x": 0.5743908282,
				"y": -1.6104030979,
				"z": -2.1048667986,
				"element": "C" 
			},
			{
				"x": -1.0487627264,
				"y": -1.3576334833,
				"z": -3.0205484194,
				"element": "Br" 
			},
			{
				"x": 1.9176427048,
				"y": -2.4268416625,
				"z": -2.8549016298,
				"element": "S" 
			},
			{
				"x": 2.865998066,
				"y": -2.2709252538,
				"z": -1.422183495,
				"element": "C" 
			},
			{
				"x": 2.1948311849,
				"y": -1.6240684281,
				"z": -0.4184535144,
				"element": "C" 
			},
			{
				"x": 2.82624505,
				"y": -1.3994327046,
				"z": 0.9193943896,
				"element": "C" 
			},
			{
				"x": 2.0229779221,
				"y": -0.8814161105,
				"z": 1.8706787738,
				"element": "O" 
			},
			{
				"x": 3.9849803199,
				"y": -1.6662582384,
				"z": 1.1422499402,
				"element": "O" 
			},
			{
				"x": -0.9132693172,
				"y": 1.1311192803,
				"z": 0.5635099841,
				"element": "H" 
			},
			{
				"x": 0.716671456,
				"y": 1.3500523852,
				"z": -0.1435578464,
				"element": "H" 
			},
			{
				"x": -0.674291688,
				"y": 0.9322484085,
				"z": -1.1949826364,
				"element": "H" 
			},
			{
				"x": 3.8745554633,
				"y": -2.6562007638,
				"z": -1.3697912684,
				"element": "H" 
			},
			{
				"x": 1.1194007455,
				"y": -0.773609197,
				"z": 1.5117551864,
				"element": "H" 
			}
		],
		 "valence_orbital": [ 
			{
				"type": "occ",
				"energy": -0.3105,
				"method": "rhf"
			},
			{
				"type": "occ",
				"energy": -0.3099,
				"method": "rhf"
			},
			{
				"type": "occ",
				"energy": -0.27545,
				"method": "rhf"
			},
			{
				"type": "occ",
				"energy": -0.27288,
				"method": "rhf"
			},
			{
				"type": "occ",
				"energy": -0.24904,
				"method": "rhf"
			},
			{
				"type": "unocc",
				"energy": -0.05577,
				"method": "rhf"
			},
			{
				"type": "unocc",
				"energy": -0.02157,
				"method": "rhf"
			},
			{
				"type": "unocc",
				"energy": -0.01011,
				"method": "rhf"
			},
			{
				"type": "unocc",
				"energy": -0.00161,
				"method": "rhf"
			},
			{
				"type": "unocc",
				"energy": 0.06097,
				"method": "rhf"
			}
		],
		"cosmo_sigma_profile": { 
			"-0.025": 0.0,
			"-0.024": 0.0,
			"-0.023": 0.0,
			"-0.022": 0.0,
			"-0.021": 0.0,
			"-0.02": 0.0,
			"-0.019": 0.0,
			"-0.018": 0.0,
			"-0.017": 0.0,
			"-0.016": 0.0,
			"-0.015": 0.0,
			"-0.014": 0.0,
			"-0.013": 0.0,
			"-0.012": 0.0,
			"-0.011": 0.098659957976,
			"-0.01": 2.29558646692,
			"-0.009": 3.47442566254,
			"-0.008": 3.98847226252,
			"-0.007": 6.58016222603,
			"-0.006": 10.6753994263,
			"-0.005": 12.8887175801,
			"-0.004": 15.0637844283,
			"-0.003": 13.4609586683,
			"-0.002": 13.5082882096,
			"-0.001": 16.299297381,
			"0.0": 22.123115589,
			"0.001": 19.6720447336,
			"0.002": 13.7110157173,
			"0.003": 10.8752461486,
			"0.004": 4.37592465162,
			"0.005": 3.21528327073,
			"0.006": 3.23710517042,
			"0.007": 2.77119488224,
			"0.008": 2.79602797393,
			"0.009": 4.35048881183,
			"0.01": 3.8048511052,
			"0.011": 5.9637700998,
			"0.012": 5.0157816226,
			"0.013": 1.82550196223,
			"0.014": 0.125292746416,
			"0.015": 0.0,
			"0.016": 0.0,
			"0.017": 0.0,
			"0.018": 0.0,
			"0.019": 0.0,
			"0.02": 0.0,
			"0.021": 0.0,
			"0.022": 0.0,
			"0.023": 0.0,
			"0.024": 0.0,
			"0.025": 0.0
		}
	}
}
