{
	 "smiles": "COC1=CC=C(C#N)C(OC(F)(F)F)=C1", 
	 "Tm": 305.15, 
	 "num_atms": 21, 
	 "gaussian": { 
		 "optdone": 1, 
		 "sigma_profile": "yes", 
		 "theory": "DFT", 
		 "functional": "B3LYP", 
		 "basiset": "6-31G**", 
		 "properties": { 
			 "R2extent": 3597.1011, 
			 "electric_dipole_moment_norm": 6.73447195703, 
			 "electric_quadrupole_moment_norm": 17.1978307699, 
			 "total_energy": -851.263712522, 
			 "HOMO_LUMO_gap": 0.19769, 
			 "cosmo_polarized_energy": -11.2, 
			 "cosmo_cavitation_energy": 28.43, 
			 "cosmo_dispersion_energy": -19.72, 
			 "cosmo_repulsion_energy": 1.49, 
			 "cosmo_total_nonelectrostatic_energy": 10.2, 
			 "SMD_solvation_energy": 8.63 
		},
		"coords": [
			{
				"x": -1.3982351376,
				"y": -0.9388972071,
				"z": 3.4410337807,
				"element": "C" 
			},
			{
				"x": -1.507979682,
				"y": -0.3875144639,
				"z": 2.1329532578,
				"element": "O" 
			},
			{
				"x": -0.3893590622,
				"y": -0.2779832974,
				"z": 1.3775666328,
				"element": "C" 
			},
			{
				"x": 0.8918465792,
				"y": -0.6710556619,
				"z": 1.7882473351,
				"element": "C" 
			},
			{
				"x": 1.9619978683,
				"y": -0.5052802373,
				"z": 0.9154993862,
				"element": "C" 
			},
			{
				"x": 1.7873219613,
				"y": 0.0445473974,
				"z": -0.3616169865,
				"element": "C" 
			},
			{
				"x": 2.9021281028,
				"y": 0.2050065751,
				"z": -1.2408124121,
				"element": "C" 
			},
			{
				"x": 3.8310179549,
				"y": 0.3217195947,
				"z": -1.9315956132,
				"element": "N" 
			},
			{
				"x": 0.4868543241,
				"y": 0.4327694996,
				"z": -0.7520325533,
				"element": "C" 
			},
			{
				"x": 0.4109534881,
				"y": 0.9645416678,
				"z": -2.027670391,
				"element": "O" 
			},
			{
				"x": -0.7710514741,
				"y": 1.3874917486,
				"z": -2.5571758582,
				"element": "C" 
			},
			{
				"x": -1.3266201419,
				"y": 2.3786049955,
				"z": -1.8363427321,
				"element": "F" 
			},
			{
				"x": -1.6752805094,
				"y": 0.3947126501,
				"z": -2.6425120758,
				"element": "F" 
			},
			{
				"x": -0.5140133714,
				"y": 1.8388939792,
				"z": -3.7791326765,
				"element": "F" 
			},
			{
				"x": -0.5922971248,
				"y": 0.2762569034,
				"z": 0.1019046719,
				"element": "C" 
			},
			{
				"x": -1.0291219099,
				"y": -1.9710011898,
				"z": 3.4109203508,
				"element": "H" 
			},
			{
				"x": -2.4076136638,
				"y": -0.9282488741,
				"z": 3.8528387023,
				"element": "H" 
			},
			{
				"x": -0.7402792068,
				"y": -0.3343185403,
				"z": 4.0766231794,
				"element": "H" 
			},
			{
				"x": 1.062038775,
				"y": -1.099095767,
				"z": 2.767526008,
				"element": "H" 
			},
			{
				"x": 2.9590253599,
				"y": -0.8049180095,
				"z": 1.2197044603,
				"element": "H" 
			},
			{
				"x": -1.5957331295,
				"y": 0.5661682369,
				"z": -0.1755264666,
				"element": "H" 
			}
		],
		 "valence_orbital": [ 
			{
				"type": "occ",
				"energy": -0.35511,
				"method": "rhf"
			},
			{
				"type": "occ",
				"energy": -0.32858,
				"method": "rhf"
			},
			{
				"type": "occ",
				"energy": -0.32286,
				"method": "rhf"
			},
			{
				"type": "occ",
				"energy": -0.27269,
				"method": "rhf"
			},
			{
				"type": "occ",
				"energy": -0.24551,
				"method": "rhf"
			},
			{
				"type": "unocc",
				"energy": -0.04782,
				"method": "rhf"
			},
			{
				"type": "unocc",
				"energy": -0.02754,
				"method": "rhf"
			},
			{
				"type": "unocc",
				"energy": 0.03503,
				"method": "rhf"
			},
			{
				"type": "unocc",
				"energy": 0.06824,
				"method": "rhf"
			},
			{
				"type": "unocc",
				"energy": 0.07846,
				"method": "rhf"
			}
		],
		"cosmo_sigma_profile": { 
			"-0.025": 0.0,
			"-0.024": 0.0,
			"-0.023": 0.0,
			"-0.022": 0.0,
			"-0.021": 0.0,
			"-0.02": 0.0,
			"-0.019": 0.0,
			"-0.018": 0.0,
			"-0.017": 0.0,
			"-0.016": 0.0,
			"-0.015": 0.0,
			"-0.014": 0.0,
			"-0.013": 0.0,
			"-0.012": 0.0,
			"-0.011": 0.0,
			"-0.01": 0.0,
			"-0.009": 0.738718226544,
			"-0.008": 4.752946136,
			"-0.007": 8.76818520082,
			"-0.006": 13.7619745954,
			"-0.005": 11.6771026592,
			"-0.004": 13.2223642202,
			"-0.003": 12.0416474116,
			"-0.002": 17.3631164453,
			"-0.001": 19.3334412561,
			"0.0": 25.5611432541,
			"0.001": 38.6163644064,
			"0.002": 21.5368698308,
			"0.003": 4.6178463601,
			"0.004": 5.58662243563,
			"0.005": 4.27389904615,
			"0.006": 4.65737332107,
			"0.007": 3.83843822567,
			"0.008": 4.98108255588,
			"0.009": 4.17145753179,
			"0.01": 3.21317119815,
			"0.011": 2.82341257854,
			"0.012": 2.54807178954,
			"0.013": 1.50535480628,
			"0.014": 0.0785594068011,
			"0.015": 0.0,
			"0.016": 0.0,
			"0.017": 0.0,
			"0.018": 0.0,
			"0.019": 0.0,
			"0.02": 0.0,
			"0.021": 0.0,
			"0.022": 0.0,
			"0.023": 0.0,
			"0.024": 0.0,
			"0.025": 0.0
		}
	}
}
