{
	 "smiles": "OC(=O)CCCC(=O)C1=CC=C(Cl)C=C1", 
	 "Tm": 414.15, 
	 "num_atms": 26, 
	 "gaussian": { 
		 "optdone": 1, 
		 "sigma_profile": "yes", 
		 "theory": "DFT", 
		 "functional": "B3LYP", 
		 "basiset": "6-31G**", 
		 "properties": { 
			 "R2extent": 5728.8058, 
			 "electric_dipole_moment_norm": 3.45579109467, 
			 "electric_quadrupole_moment_norm": 13.8135110504, 
			 "total_energy": -1111.68661063, 
			 "HOMO_LUMO_gap": 0.19272, 
			 "cosmo_polarized_energy": -15.07, 
			 "cosmo_cavitation_energy": 32.17, 
			 "cosmo_dispersion_energy": -22.8, 
			 "cosmo_repulsion_energy": 1.8, 
			 "cosmo_total_nonelectrostatic_energy": 11.17, 
			 "SMD_solvation_energy": 6.34 
		},
		"coords": [
			{
				"x": 2.4796221622,
				"y": -0.8071339233,
				"z": 0.2772779143,
				"element": "O" 
			},
			{
				"x": 2.787995881,
				"y": -0.2533442157,
				"z": -0.9274095496,
				"element": "C" 
			},
			{
				"x": 3.4530009121,
				"y": 0.7514723126,
				"z": -1.0268383227,
				"element": "O" 
			},
			{
				"x": 2.2125344207,
				"y": -1.0549224896,
				"z": -2.0752272518,
				"element": "C" 
			},
			{
				"x": 0.7146170227,
				"y": -0.7912140708,
				"z": -2.3515946706,
				"element": "C" 
			},
			{
				"x": -0.2408621339,
				"y": -1.2101332457,
				"z": -1.2257393754,
				"element": "C" 
			},
			{
				"x": -0.4626121787,
				"y": -0.1314612354,
				"z": -0.1675292991,
				"element": "C" 
			},
			{
				"x": -0.0217019414,
				"y": 0.998506092,
				"z": -0.317339636,
				"element": "O" 
			},
			{
				"x": -1.2725547362,
				"y": -0.4686943606,
				"z": 1.0492703117,
				"element": "C" 
			},
			{
				"x": -1.4851896877,
				"y": 0.5441628646,
				"z": 1.9981035669,
				"element": "C" 
			},
			{
				"x": -2.2299176802,
				"y": 0.3050027596,
				"z": 3.1471586781,
				"element": "C" 
			},
			{
				"x": -2.7725898937,
				"y": -0.9664860459,
				"z": 3.34920932,
				"element": "C" 
			},
			{
				"x": -3.714376392,
				"y": -1.2806514541,
				"z": 4.7950700694,
				"element": "Cl" 
			},
			{
				"x": -2.5801940309,
				"y": -1.9913715611,
				"z": 2.4227174279,
				"element": "C" 
			},
			{
				"x": -1.8294803967,
				"y": -1.7359312447,
				"z": 1.2765534667,
				"element": "C" 
			},
			{
				"x": 2.8382652105,
				"y": -0.201205484,
				"z": 0.947602819,
				"element": "H" 
			},
			{
				"x": 2.3631254681,
				"y": -2.1202927229,
				"z": -1.8662304824,
				"element": "H" 
			},
			{
				"x": 2.7923021995,
				"y": -0.7919024371,
				"z": -2.9629367395,
				"element": "H" 
			},
			{
				"x": 0.4555519392,
				"y": -1.3471551343,
				"z": -3.2587278194,
				"element": "H" 
			},
			{
				"x": 0.5681881452,
				"y": 0.2710239389,
				"z": -2.5667382135,
				"element": "H" 
			},
			{
				"x": 0.1069355749,
				"y": -2.1283734486,
				"z": -0.7380087717,
				"element": "H" 
			},
			{
				"x": -1.2287483514,
				"y": -1.448703743,
				"z": -1.6445256303,
				"element": "H" 
			},
			{
				"x": -1.0532148213,
				"y": 1.5212947424,
				"z": 1.8099025144,
				"element": "H" 
			},
			{
				"x": -2.3931112769,
				"y": 1.0875694354,
				"z": 3.8798150244,
				"element": "H" 
			},
			{
				"x": -3.0108791,
				"y": -2.9706868228,
				"z": 2.5985143323,
				"element": "H" 
			},
			{
				"x": -1.685206315,
				"y": -2.5389685059,
				"z": 0.5618503169,
				"element": "H" 
			}
		],
		 "valence_orbital": [ 
			{
				"type": "occ",
				"energy": -0.31272,
				"method": "rhf"
			},
			{
				"type": "occ",
				"energy": -0.27672,
				"method": "rhf"
			},
			{
				"type": "occ",
				"energy": -0.26763,
				"method": "rhf"
			},
			{
				"type": "occ",
				"energy": -0.25926,
				"method": "rhf"
			},
			{
				"type": "occ",
				"energy": -0.2591,
				"method": "rhf"
			},
			{
				"type": "unocc",
				"energy": -0.06638,
				"method": "rhf"
			},
			{
				"type": "unocc",
				"energy": -0.0256,
				"method": "rhf"
			},
			{
				"type": "unocc",
				"energy": 0.01156,
				"method": "rhf"
			},
			{
				"type": "unocc",
				"energy": 0.02069,
				"method": "rhf"
			},
			{
				"type": "unocc",
				"energy": 0.02646,
				"method": "rhf"
			}
		],
		"cosmo_sigma_profile": { 
			"-0.025": 0.0,
			"-0.024": 0.0,
			"-0.023": 0.0,
			"-0.022": 0.0,
			"-0.021": 0.0,
			"-0.02": 0.0,
			"-0.019": 0.0,
			"-0.018": 0.19548630786,
			"-0.017": 1.1997629516,
			"-0.016": 0.602737937359,
			"-0.015": 0.786625743127,
			"-0.014": 0.787014034474,
			"-0.013": 0.262734731709,
			"-0.012": 0.788325163054,
			"-0.011": 0.889906624661,
			"-0.01": 0.741788430432,
			"-0.009": 0.734285866257,
			"-0.008": 2.70809917804,
			"-0.007": 8.24594619559,
			"-0.006": 14.5575943439,
			"-0.005": 17.5785495464,
			"-0.004": 18.3023030788,
			"-0.003": 20.6433089025,
			"-0.002": 19.9010018344,
			"-0.001": 16.757187553,
			"0.0": 16.0239354939,
			"0.001": 20.5653770853,
			"0.002": 24.5791229273,
			"0.003": 16.1956028433,
			"0.004": 13.4295070443,
			"0.005": 6.25628121996,
			"0.006": 2.99339067463,
			"0.007": 3.50702751551,
			"0.008": 4.6570589056,
			"0.009": 4.6909462109,
			"0.01": 3.64937994476,
			"0.011": 6.3869860488,
			"0.012": 7.22738234381,
			"0.013": 1.44047974443,
			"0.014": 0.0259946244304,
			"0.015": 0.0,
			"0.016": 0.0,
			"0.017": 0.0,
			"0.018": 0.0,
			"0.019": 0.0,
			"0.02": 0.0,
			"0.021": 0.0,
			"0.022": 0.0,
			"0.023": 0.0,
			"0.024": 0.0,
			"0.025": 0.0
		}
	}
}
