{
	 "smiles": "CC1=C(C=CC=C1)N1C(S)=NC2=C(C=CC=C2)C1=O", 
	 "Tm": 369.65, 
	 "num_atms": 31, 
	 "gaussian": { 
		 "optdone": 1, 
		 "sigma_profile": "yes", 
		 "theory": "DFT", 
		 "functional": "B3LYP", 
		 "basiset": "6-31G**", 
		 "properties": { 
			 "R2extent": 5308.0898, 
			 "electric_dipole_moment_norm": 1.3137956386, 
			 "electric_quadrupole_moment_norm": 12.6799021345, 
			 "total_energy": -1161.77153534, 
			 "HOMO_LUMO_gap": 0.17976, 
			 "cosmo_polarized_energy": -11.77, 
			 "cosmo_cavitation_energy": 36.33, 
			 "cosmo_dispersion_energy": -25.9, 
			 "cosmo_repulsion_energy": 1.93, 
			 "cosmo_total_nonelectrostatic_energy": 12.37, 
			 "SMD_solvation_energy": 5.07 
		},
		"coords": [
			{
				"x": -0.0714188615,
				"y": -0.9757717944,
				"z": 2.5544316823,
				"element": "C" 
			},
			{
				"x": 0.9921155255,
				"y": 0.063756341,
				"z": 2.3107233297,
				"element": "C" 
			},
			{
				"x": 1.1718065093,
				"y": 0.6508028397,
				"z": 1.0463709215,
				"element": "C" 
			},
			{
				"x": 2.1814190885,
				"y": 1.5850542586,
				"z": 0.8090371615,
				"element": "C" 
			},
			{
				"x": 3.0287689122,
				"y": 1.972554918,
				"z": 1.8455539665,
				"element": "C" 
			},
			{
				"x": 2.8620732919,
				"y": 1.4115904049,
				"z": 3.1112608047,
				"element": "C" 
			},
			{
				"x": 1.8571913899,
				"y": 0.4693206068,
				"z": 3.3337103207,
				"element": "C" 
			},
			{
				"x": 0.3069761837,
				"y": 0.2785509049,
				"z": -0.0532872093,
				"element": "N" 
			},
			{
				"x": -0.7565890928,
				"y": 1.0813775915,
				"z": -0.4385391031,
				"element": "C" 
			},
			{
				"x": -1.0170536679,
				"y": 2.54522321,
				"z": 0.5545340106,
				"element": "S" 
			},
			{
				"x": -1.5529884446,
				"y": 0.8419654198,
				"z": -1.4265208014,
				"element": "N" 
			},
			{
				"x": -1.3369193983,
				"y": -0.3077918794,
				"z": -2.1693086396,
				"element": "C" 
			},
			{
				"x": -0.2960906566,
				"y": -1.2126937874,
				"z": -1.8658833293,
				"element": "C" 
			},
			{
				"x": -0.110716125,
				"y": -2.3710051506,
				"z": -2.6383235962,
				"element": "C" 
			},
			{
				"x": -0.9523501289,
				"y": -2.6298310369,
				"z": -3.7089129354,
				"element": "C" 
			},
			{
				"x": -1.9909303823,
				"y": -1.7312503075,
				"z": -4.0156861812,
				"element": "C" 
			},
			{
				"x": -2.1852711349,
				"y": -0.5856415302,
				"z": -3.2594545869,
				"element": "C" 
			},
			{
				"x": 0.5935329083,
				"y": -0.9393539296,
				"z": -0.7352033414,
				"element": "C" 
			},
			{
				"x": 1.5111879002,
				"y": -1.6544556196,
				"z": -0.3622887295,
				"element": "O" 
			},
			{
				"x": -1.0587727487,
				"y": -0.6287845352,
				"z": 2.2320191046,
				"element": "H" 
			},
			{
				"x": -0.1315987357,
				"y": -1.2274154596,
				"z": 3.6160315099,
				"element": "H" 
			},
			{
				"x": 0.1558670598,
				"y": -1.8911505614,
				"z": 1.9977585725,
				"element": "H" 
			},
			{
				"x": 2.2942825526,
				"y": 2.00084023,
				"z": -0.1871532911,
				"element": "H" 
			},
			{
				"x": 3.8120488919,
				"y": 2.7012943361,
				"z": 1.6623325251,
				"element": "H" 
			},
			{
				"x": 3.5160401907,
				"y": 1.7042219292,
				"z": 3.927580092,
				"element": "H" 
			},
			{
				"x": 1.7385310953,
				"y": 0.0328403418,
				"z": 4.3216825421,
				"element": "H" 
			},
			{
				"x": -2.119431231,
				"y": 2.8762436547,
				"z": -0.1452424179,
				"element": "H" 
			},
			{
				"x": 0.6996895088,
				"y": -3.0413698162,
				"z": -2.3719873239,
				"element": "H" 
			},
			{
				"x": -0.8125058928,
				"y": -3.5229548845,
				"z": -4.3099811777,
				"element": "H" 
			},
			{
				"x": -2.6490951588,
				"y": -1.9375676088,
				"z": -4.8550794055,
				"element": "H" 
			},
			{
				"x": -2.981699349,
				"y": 0.1167009141,
				"z": -3.4817744743,
				"element": "H" 
			}
		],
		 "valence_orbital": [ 
			{
				"type": "occ",
				"energy": -0.26532,
				"method": "rhf"
			},
			{
				"type": "occ",
				"energy": -0.26068,
				"method": "rhf"
			},
			{
				"type": "occ",
				"energy": -0.25567,
				"method": "rhf"
			},
			{
				"type": "occ",
				"energy": -0.24989,
				"method": "rhf"
			},
			{
				"type": "occ",
				"energy": -0.2231,
				"method": "rhf"
			},
			{
				"type": "unocc",
				"energy": -0.04334,
				"method": "rhf"
			},
			{
				"type": "unocc",
				"energy": -0.03398,
				"method": "rhf"
			},
			{
				"type": "unocc",
				"energy": -0.02007,
				"method": "rhf"
			},
			{
				"type": "unocc",
				"energy": -0.00784,
				"method": "rhf"
			},
			{
				"type": "unocc",
				"energy": 0.01623,
				"method": "rhf"
			}
		],
		"cosmo_sigma_profile": { 
			"-0.025": 0.0,
			"-0.024": 0.0,
			"-0.023": 0.0,
			"-0.022": 0.0,
			"-0.021": 0.0,
			"-0.02": 0.0,
			"-0.019": 0.0,
			"-0.018": 0.0,
			"-0.017": 0.0,
			"-0.016": 0.0,
			"-0.015": 0.0,
			"-0.014": 0.0,
			"-0.013": 0.0,
			"-0.012": 0.230047397751,
			"-0.011": 1.3778839653,
			"-0.01": 1.13551008643,
			"-0.009": 1.42815479218,
			"-0.008": 1.13327494912,
			"-0.007": 5.91518016462,
			"-0.006": 17.3673154411,
			"-0.005": 23.1143519909,
			"-0.004": 25.6461863855,
			"-0.003": 20.6696579956,
			"-0.002": 21.9335690245,
			"-0.001": 19.9394149836,
			"0.0": 21.0310692754,
			"0.001": 21.7216362293,
			"0.002": 23.6767619599,
			"0.003": 28.8343687794,
			"0.004": 21.4868501857,
			"0.005": 9.47408415157,
			"0.006": 6.72429011553,
			"0.007": 2.055025066,
			"0.008": 2.980528564,
			"0.009": 2.80390419438,
			"0.01": 2.8127219146,
			"0.011": 3.50982755619,
			"0.012": 4.29183359743,
			"0.013": 2.34229379514,
			"0.014": 0.0,
			"0.015": 0.0,
			"0.016": 0.0,
			"0.017": 0.0,
			"0.018": 0.0,
			"0.019": 0.0,
			"0.02": 0.0,
			"0.021": 0.0,
			"0.022": 0.0,
			"0.023": 0.0,
			"0.024": 0.0,
			"0.025": 0.0
		}
	}
}
