{
	 "smiles": "CC(C=CC=C(/C)C=CC1=C(C)CCCC1(C)C)=CC=CC=C(/C)C=CC=C(/C)C=CC1=C(C)C(=O)CCC1(C)C", 
	 "Tm": 452.15, 
	 "num_atms": 95, 
	 "gaussian": { 
		 "optdone": 1, 
		 "sigma_profile": "yes", 
		 "theory": "DFT", 
		 "functional": "B3LYP", 
		 "basiset": "6-31G**", 
		 "properties": { 
			 "R2extent": 66521.6754, 
			 "electric_dipole_moment_norm": 4.64219073499, 
			 "electric_quadrupole_moment_norm": 47.8752392529, 
			 "total_energy": -1631.93468065, 
			 "HOMO_LUMO_gap": 0.0865, 
			 "cosmo_polarized_energy": -15.9, 
			 "cosmo_cavitation_energy": 91.99, 
			 "cosmo_dispersion_energy": -60.56, 
			 "cosmo_repulsion_energy": 4.52, 
			 "cosmo_total_nonelectrostatic_energy": 35.95, 
			 "SMD_solvation_energy": 15.57 
		},
		"coords": [
			{
				"x": 6.3226214154,
				"y": 3.7492683406,
				"z": 1.9052356727,
				"element": "C" 
			},
			{
				"x": 4.9758841096,
				"y": 3.1689788005,
				"z": 1.5388184389,
				"element": "C" 
			},
			{
				"x": 4.1096758932,
				"y": 2.699389468,
				"z": 2.5997276003,
				"element": "C" 
			},
			{
				"x": 4.3930066228,
				"y": 2.7710341888,
				"z": 3.9314837045,
				"element": "C" 
			},
			{
				"x": 3.5881103265,
				"y": 2.3331726368,
				"z": 5.0510784126,
				"element": "C" 
			},
			{
				"x": 2.6348420662,
				"y": 1.3559799824,
				"z": 5.1401861914,
				"element": "C" 
			},
			{
				"x": 2.2847400169,
				"y": 0.4307736559,
				"z": 4.000940808,
				"element": "C" 
			},
			{
				"x": 1.9543906575,
				"y": 1.1912831887,
				"z": 6.4189519256,
				"element": "C" 
			},
			{
				"x": 0.9608154979,
				"y": 0.31725379,
				"z": 6.7014502,
				"element": "C" 
			},
			{
				"x": 0.2829865411,
				"y": 0.1477114511,
				"z": 8.0014678608,
				"element": "C" 
			},
			{
				"x": -0.2117249398,
				"y": 1.1859089425,
				"z": 8.7227604466,
				"element": "C" 
			},
			{
				"x": -0.1605508863,
				"y": 2.6312791563,
				"z": 8.2839721436,
				"element": "C" 
			},
			{
				"x": -0.8892733616,
				"y": 0.9992489464,
				"z": 10.0678982841,
				"element": "C" 
			},
			{
				"x": -1.3343044208,
				"y": -0.4355067683,
				"z": 10.3527503943,
				"element": "C" 
			},
			{
				"x": -0.226871634,
				"y": -1.4072972579,
				"z": 9.9549189454,
				"element": "C" 
			},
			{
				"x": 0.1339294772,
				"y": -1.3262260169,
				"z": 8.4537840724,
				"element": "C" 
			},
			{
				"x": 1.4633606625,
				"y": -2.0894307638,
				"z": 8.2551929581,
				"element": "C" 
			},
			{
				"x": -0.9640008992,
				"y": -2.0218659028,
				"z": 7.6116331105,
				"element": "C" 
			},
			{
				"x": 4.6214283796,
				"y": 3.1058949883,
				"z": 0.2136668365,
				"element": "C" 
			},
			{
				"x": 3.4072258084,
				"y": 2.5990486114,
				"z": -0.3588859993,
				"element": "C" 
			},
			{
				"x": 3.1917121534,
				"y": 2.5744696471,
				"z": -1.7092183039,
				"element": "C" 
			},
			{
				"x": 2.0480938772,
				"y": 2.1089925426,
				"z": -2.4501639659,
				"element": "C" 
			},
			{
				"x": 0.755622493,
				"y": 1.8896874484,
				"z": -2.0468022817,
				"element": "C" 
			},
			{
				"x": 0.2508801117,
				"y": 2.238150192,
				"z": -0.6654285826,
				"element": "C" 
			},
			{
				"x": -0.2316529898,
				"y": 1.3420011446,
				"z": -2.9662378659,
				"element": "C" 
			},
			{
				"x": 0.0251776796,
				"y": 0.5466898944,
				"z": -4.0440007952,
				"element": "C" 
			},
			{
				"x": -0.9109045674,
				"y": 0.0062617811,
				"z": -5.0027870492,
				"element": "C" 
			},
			{
				"x": -2.1468472343,
				"y": 0.4564654751,
				"z": -5.3755941343,
				"element": "C" 
			},
			{
				"x": -2.7374581793,
				"y": 1.7632075753,
				"z": -4.8997217799,
				"element": "C" 
			},
			{
				"x": -2.9672287776,
				"y": -0.2925367693,
				"z": -6.329581901,
				"element": "C" 
			},
			{
				"x": -2.9270680936,
				"y": -1.6279841171,
				"z": -6.5477738316,
				"element": "C" 
			},
			{
				"x": -3.6913375997,
				"y": -2.3944410099,
				"z": -7.5395607544,
				"element": "C" 
			},
			{
				"x": -5.0176647106,
				"y": -2.172728382,
				"z": -7.799363693,
				"element": "C" 
			},
			{
				"x": -5.8668482325,
				"y": -1.1281346439,
				"z": -7.1153014383,
				"element": "C" 
			},
			{
				"x": -5.7732067741,
				"y": -3.0195337981,
				"z": -8.7647224343,
				"element": "C" 
			},
			{
				"x": -6.9602858708,
				"y": -2.8136986738,
				"z": -8.9937235561,
				"element": "O" 
			},
			{
				"x": -5.0550738511,
				"y": -4.1818317508,
				"z": -9.4256956791,
				"element": "C" 
			},
			{
				"x": -3.5565646675,
				"y": -3.9327270569,
				"z": -9.5475507644,
				"element": "C" 
			},
			{
				"x": -2.8973975373,
				"y": -3.5409212975,
				"z": -8.2080044231,
				"element": "C" 
			},
			{
				"x": -2.8526042277,
				"y": -4.7547456272,
				"z": -7.2468731833,
				"element": "C" 
			},
			{
				"x": -1.4483377037,
				"y": -3.1057580492,
				"z": -8.5259840892,
				"element": "C" 
			},
			{
				"x": 6.9349037221,
				"y": 3.0249098517,
				"z": 2.455684652,
				"element": "H" 
			},
			{
				"x": 6.2169334565,
				"y": 4.6305571548,
				"z": 2.5500431693,
				"element": "H" 
			},
			{
				"x": 6.877434563,
				"y": 4.0519163979,
				"z": 1.0140440252,
				"element": "H" 
			},
			{
				"x": 3.1502228833,
				"y": 2.2929169595,
				"z": 2.3008320327,
				"element": "H" 
			},
			{
				"x": 5.3179528688,
				"y": 3.2670012301,
				"z": 4.2212994502,
				"element": "H" 
			},
			{
				"x": 3.8078804541,
				"y": 2.8600029403,
				"z": 5.9800857889,
				"element": "H" 
			},
			{
				"x": 2.0835479898,
				"y": -0.5798965104,
				"z": 4.369245405,
				"element": "H" 
			},
			{
				"x": 3.0996884922,
				"y": 0.367651381,
				"z": 3.2773679551,
				"element": "H" 
			},
			{
				"x": 1.3846729446,
				"y": 0.7613773192,
				"z": 3.4665417804,
				"element": "H" 
			},
			{
				"x": 2.298682591,
				"y": 1.8505127129,
				"z": 7.2138160637,
				"element": "H" 
			},
			{
				"x": 0.6560444569,
				"y": -0.3793272823,
				"z": 5.921647977,
				"element": "H" 
			},
			{
				"x": 0.1041002145,
				"y": 2.7485838495,
				"z": 7.2331497248,
				"element": "H" 
			},
			{
				"x": -1.1344027401,
				"y": 3.1082428073,
				"z": 8.451891355,
				"element": "H" 
			},
			{
				"x": 0.5657610681,
				"y": 3.2035920261,
				"z": 8.8781370069,
				"element": "H" 
			},
			{
				"x": -1.7461385233,
				"y": 1.6826886781,
				"z": 10.1341280852,
				"element": "H" 
			},
			{
				"x": -0.1938404031,
				"y": 1.3351926642,
				"z": 10.854515875,
				"element": "H" 
			},
			{
				"x": -2.2497320741,
				"y": -0.655947996,
				"z": 9.7903201928,
				"element": "H" 
			},
			{
				"x": -1.5869071483,
				"y": -0.5511327779,
				"z": 11.4131975839,
				"element": "H" 
			},
			{
				"x": -0.5053941237,
				"y": -2.4404590721,
				"z": 10.1984647346,
				"element": "H" 
			},
			{
				"x": 0.6708461472,
				"y": -1.179377324,
				"z": 10.5460902295,
				"element": "H" 
			},
			{
				"x": 2.2833768547,
				"y": -1.595660204,
				"z": 8.7869729758,
				"element": "H" 
			},
			{
				"x": 1.7470650816,
				"y": -2.1604277802,
				"z": 7.2013058548,
				"element": "H" 
			},
			{
				"x": 1.3719562917,
				"y": -3.1098013248,
				"z": 8.6454551327,
				"element": "H" 
			},
			{
				"x": -1.9411179983,
				"y": -1.5506087518,
				"z": 7.7512265792,
				"element": "H" 
			},
			{
				"x": -0.7346150408,
				"y": -1.9905935542,
				"z": 6.5416742237,
				"element": "H" 
			},
			{
				"x": -1.0499575676,
				"y": -3.0774048051,
				"z": 7.8954817793,
				"element": "H" 
			},
			{
				"x": 5.346353701,
				"y": 3.4850753568,
				"z": -0.5064497888,
				"element": "H" 
			},
			{
				"x": 2.6524812188,
				"y": 2.1963694469,
				"z": 0.3063398614,
				"element": "H" 
			},
			{
				"x": 4.0147871843,
				"y": 2.9288511248,
				"z": -2.3314338244,
				"element": "H" 
			},
			{
				"x": 2.2447339198,
				"y": 1.9544462831,
				"z": -3.5092762109,
				"element": "H" 
			},
			{
				"x": -0.8278023461,
				"y": 2.4239573042,
				"z": -0.6827310398,
				"element": "H" 
			},
			{
				"x": 0.7472139989,
				"y": 3.1266735684,
				"z": -0.2637517354,
				"element": "H" 
			},
			{
				"x": 0.417675712,
				"y": 1.4185120318,
				"z": 0.0463029386,
				"element": "H" 
			},
			{
				"x": -1.2683484966,
				"y": 1.5459016604,
				"z": -2.7099372868,
				"element": "H" 
			},
			{
				"x": 1.0546985082,
				"y": 0.2202609352,
				"z": -4.1859445316,
				"element": "H" 
			},
			{
				"x": -0.5407092142,
				"y": -0.8674321175,
				"z": -5.5365357379,
				"element": "H" 
			},
			{
				"x": -1.9618824689,
				"y": 2.4853394999,
				"z": -4.6305826868,
				"element": "H" 
			},
			{
				"x": -3.3699525928,
				"y": 2.2038965298,
				"z": -5.6780596896,
				"element": "H" 
			},
			{
				"x": -3.3782205258,
				"y": 1.6230148708,
				"z": -4.0190523458,
				"element": "H" 
			},
			{
				"x": -3.6711828417,
				"y": 0.304996322,
				"z": -6.9041177825,
				"element": "H" 
			},
			{
				"x": -2.2143138229,
				"y": -2.2077333158,
				"z": -5.9623642403,
				"element": "H" 
			},
			{
				"x": -5.5061615245,
				"y": -0.9067257372,
				"z": -6.1086592583,
				"element": "H" 
			},
			{
				"x": -6.9002005605,
				"y": -1.4772807844,
				"z": -7.0733852776,
				"element": "H" 
			},
			{
				"x": -5.8835355158,
				"y": -0.1864781059,
				"z": -7.6785310181,
				"element": "H" 
			},
			{
				"x": -5.2543616699,
				"y": -5.0748093494,
				"z": -8.8171682106,
				"element": "H" 
			},
			{
				"x": -5.5260125265,
				"y": -4.3610182183,
				"z": -10.3965834354,
				"element": "H" 
			},
			{
				"x": -3.3889409934,
				"y": -3.1194966591,
				"z": -10.2656012827,
				"element": "H" 
			},
			{
				"x": -3.0496646909,
				"y": -4.8167116608,
				"z": -9.9535882938,
				"element": "H" 
			},
			{
				"x": -3.8533349403,
				"y": -5.1316543518,
				"z": -7.0180488701,
				"element": "H" 
			},
			{
				"x": -2.2722273652,
				"y": -5.5703781122,
				"z": -7.693191885,
				"element": "H" 
			},
			{
				"x": -2.375992511,
				"y": -4.4933461146,
				"z": -6.2966266529,
				"element": "H" 
			},
			{
				"x": -1.4323686201,
				"y": -2.1943182997,
				"z": -9.1319910775,
				"element": "H" 
			},
			{
				"x": -0.8566220161,
				"y": -2.9202131477,
				"z": -7.6256648005,
				"element": "H" 
			},
			{
				"x": -0.9440700914,
				"y": -3.8967915122,
				"z": -9.0923269702,
				"element": "H" 
			}
		],
		 "valence_orbital": [ 
			{
				"type": "occ",
				"energy": -0.23669,
				"method": "rhf"
			},
			{
				"type": "occ",
				"energy": -0.2294,
				"method": "rhf"
			},
			{
				"type": "occ",
				"energy": -0.21811,
				"method": "rhf"
			},
			{
				"type": "occ",
				"energy": -0.1976,
				"method": "rhf"
			},
			{
				"type": "occ",
				"energy": -0.17256,
				"method": "rhf"
			},
			{
				"type": "unocc",
				"energy": -0.08606,
				"method": "rhf"
			},
			{
				"type": "unocc",
				"energy": -0.0604,
				"method": "rhf"
			},
			{
				"type": "unocc",
				"energy": -0.03818,
				"method": "rhf"
			},
			{
				"type": "unocc",
				"energy": -0.01245,
				"method": "rhf"
			},
			{
				"type": "unocc",
				"energy": 0.01361,
				"method": "rhf"
			}
		],
		"cosmo_sigma_profile": { 
			"-0.025": 0.0,
			"-0.024": 0.0,
			"-0.023": 0.0,
			"-0.022": 0.0,
			"-0.021": 0.0,
			"-0.02": 0.0,
			"-0.019": 0.0,
			"-0.018": 0.0,
			"-0.017": 0.0,
			"-0.016": 0.0,
			"-0.015": 0.0,
			"-0.014": 0.0,
			"-0.013": 0.0,
			"-0.012": 0.0,
			"-0.011": 0.0,
			"-0.01": 0.0,
			"-0.009": 0.0,
			"-0.008": 0.0,
			"-0.007": 0.142673099653,
			"-0.006": 4.05582065334,
			"-0.005": 26.4813291607,
			"-0.004": 56.9460497456,
			"-0.003": 78.1418508192,
			"-0.002": 95.4833495493,
			"-0.001": 91.7644906722,
			"0.0": 94.7363773578,
			"0.001": 85.5825411288,
			"0.002": 49.8117000901,
			"0.003": 31.9054682675,
			"0.004": 34.4375943739,
			"0.005": 35.5870388106,
			"0.006": 15.0852882995,
			"0.007": 2.20831648625,
			"0.008": 1.4549894397,
			"0.009": 1.21563616854,
			"0.01": 1.93528499456,
			"0.011": 2.11862320776,
			"0.012": 2.94317089184,
			"0.013": 4.12324785273,
			"0.014": 2.30884976043,
			"0.015": 0.279276465044,
			"0.016": 0.0,
			"0.017": 0.0,
			"0.018": 0.0,
			"0.019": 0.0,
			"0.02": 0.0,
			"0.021": 0.0,
			"0.022": 0.0,
			"0.023": 0.0,
			"0.024": 0.0,
			"0.025": 0.0
		}
	}
}
