{
	 "smiles": "CCCCCCCCCCCCC1CCC1=O", 
	 "Tm": 302.65, 
	 "num_atms": 47, 
	 "gaussian": { 
		 "optdone": 1, 
		 "sigma_profile": "yes", 
		 "theory": "DFT", 
		 "functional": "B3LYP", 
		 "basiset": "6-31G**", 
		 "properties": { 
			 "R2extent": 6857.3239, 
			 "electric_dipole_moment_norm": 2.70540298107, 
			 "electric_quadrupole_moment_norm": 11.517953441, 
			 "total_energy": -703.017379317, 
			 "HOMO_LUMO_gap": 0.21771, 
			 "cosmo_polarized_energy": -6.44, 
			 "cosmo_cavitation_energy": 45.92, 
			 "cosmo_dispersion_energy": -29.45, 
			 "cosmo_repulsion_energy": 2.36, 
			 "cosmo_total_nonelectrostatic_energy": 18.83, 
			 "SMD_solvation_energy": 6.48 
		},
		"coords": [
			{
				"x": 1.5235874306,
				"y": 3.4178055089,
				"z": 0.2867083939,
				"element": "C" 
			},
			{
				"x": 0.3709385853,
				"y": 4.3101022046,
				"z": -0.1913928999,
				"element": "C" 
			},
			{
				"x": -0.9742243596,
				"y": 3.5822191069,
				"z": -0.3517633818,
				"element": "C" 
			},
			{
				"x": -1.0107032134,
				"y": 2.5334135539,
				"z": -1.4729752037,
				"element": "C" 
			},
			{
				"x": -2.3833776139,
				"y": 1.8604169052,
				"z": -1.6129382816,
				"element": "C" 
			},
			{
				"x": -2.487157722,
				"y": 0.8149708571,
				"z": -2.7370469615,
				"element": "C" 
			},
			{
				"x": -1.5872188163,
				"y": -0.43358296,
				"z": -2.6386196617,
				"element": "C" 
			},
			{
				"x": -1.8250275179,
				"y": -1.3515349513,
				"z": -1.4190929926,
				"element": "C" 
			},
			{
				"x": -0.9987480646,
				"y": -1.0044826716,
				"z": -0.1709715947,
				"element": "C" 
			},
			{
				"x": -1.245575128,
				"y": -1.9538896305,
				"z": 1.0105279601,
				"element": "C" 
			},
			{
				"x": -0.5174086938,
				"y": -1.5467779433,
				"z": 2.3025498133,
				"element": "C" 
			},
			{
				"x": 1.0122113924,
				"y": -1.6859748379,
				"z": 2.2409813952,
				"element": "C" 
			},
			{
				"x": 1.7065741218,
				"y": -1.1441124123,
				"z": 3.4915579473,
				"element": "C" 
			},
			{
				"x": 3.2681666246,
				"y": -1.1436969924,
				"z": 3.5853813412,
				"element": "C" 
			},
			{
				"x": 3.2587374856,
				"y": 0.3429832492,
				"z": 4.0536065177,
				"element": "C" 
			},
			{
				"x": 1.7758836603,
				"y": 0.3859078205,
				"z": 3.6585846935,
				"element": "C" 
			},
			{
				"x": 1.0006606266,
				"y": 1.281555771,
				"z": 3.4253906392,
				"element": "O" 
			},
			{
				"x": 1.2846728131,
				"y": 2.9390505397,
				"z": 1.2430782144,
				"element": "H" 
			},
			{
				"x": 2.4388819539,
				"y": 4.0036134139,
				"z": 0.4258749776,
				"element": "H" 
			},
			{
				"x": 1.7516331633,
				"y": 2.6261927887,
				"z": -0.4353483311,
				"element": "H" 
			},
			{
				"x": 0.2394887805,
				"y": 5.1310000636,
				"z": 0.5252503357,
				"element": "H" 
			},
			{
				"x": 0.6423429959,
				"y": 4.782526307,
				"z": -1.1460436867,
				"element": "H" 
			},
			{
				"x": -1.2353261999,
				"y": 3.1008407076,
				"z": 0.6016383239,
				"element": "H" 
			},
			{
				"x": -1.7603023452,
				"y": 4.3265337797,
				"z": -0.540677797,
				"element": "H" 
			},
			{
				"x": -0.7428308322,
				"y": 3.0108733518,
				"z": -2.4272333225,
				"element": "H" 
			},
			{
				"x": -0.2433093464,
				"y": 1.7725273143,
				"z": -1.2886782864,
				"element": "H" 
			},
			{
				"x": -3.1369837751,
				"y": 2.637868856,
				"z": -1.8008527934,
				"element": "H" 
			},
			{
				"x": -2.6662449561,
				"y": 1.4061044888,
				"z": -0.6542741454,
				"element": "H" 
			},
			{
				"x": -3.5313789261,
				"y": 0.4784205896,
				"z": -2.7996493882,
				"element": "H" 
			},
			{
				"x": -2.2753995907,
				"y": 1.3113476694,
				"z": -3.6945847045,
				"element": "H" 
			},
			{
				"x": -0.5292986452,
				"y": -0.1403282738,
				"z": -2.6705269277,
				"element": "H" 
			},
			{
				"x": -1.7554520978,
				"y": -1.0179036149,
				"z": -3.552188662,
				"element": "H" 
			},
			{
				"x": -1.5885353366,
				"y": -2.3858872878,
				"z": -1.7035892316,
				"element": "H" 
			},
			{
				"x": -2.8948252249,
				"y": -1.3516398567,
				"z": -1.1643599544,
				"element": "H" 
			},
			{
				"x": 0.0645895997,
				"y": -1.0166278781,
				"z": -0.4454688716,
				"element": "H" 
			},
			{
				"x": -1.2136270234,
				"y": 0.0198358773,
				"z": 0.1547675792,
				"element": "H" 
			},
			{
				"x": -0.959968027,
				"y": -2.9780877809,
				"z": 0.728884537,
				"element": "H" 
			},
			{
				"x": -2.3242438601,
				"y": -1.9870558324,
				"z": 1.2150337834,
				"element": "H" 
			},
			{
				"x": -0.766554505,
				"y": -0.5071966321,
				"z": 2.5471936379,
				"element": "H" 
			},
			{
				"x": -0.8902237236,
				"y": -2.1587007769,
				"z": 3.1353990794,
				"element": "H" 
			},
			{
				"x": 1.4057370597,
				"y": -1.1522506044,
				"z": 1.3668442452,
				"element": "H" 
			},
			{
				"x": 1.2853238609,
				"y": -2.7419592456,
				"z": 2.1066581997,
				"element": "H" 
			},
			{
				"x": 1.264858828,
				"y": -1.5890617052,
				"z": 4.3950238269,
				"element": "H" 
			},
			{
				"x": 3.7081979158,
				"y": -1.865393054,
				"z": 4.2763307651,
				"element": "H" 
			},
			{
				"x": 3.7348700466,
				"y": -1.2644214147,
				"z": 2.6036430472,
				"element": "H" 
			},
			{
				"x": 3.9120374529,
				"y": 1.0561807609,
				"z": 3.5428487248,
				"element": "H" 
			},
			{
				"x": 3.3921511472,
				"y": 0.4618748712,
				"z": 5.1349191014,
				"element": "H" 
			}
		],
		 "valence_orbital": [ 
			{
				"type": "occ",
				"energy": -0.30424,
				"method": "rhf"
			},
			{
				"type": "occ",
				"energy": -0.29861,
				"method": "rhf"
			},
			{
				"type": "occ",
				"energy": -0.296,
				"method": "rhf"
			},
			{
				"type": "occ",
				"energy": -0.2904,
				"method": "rhf"
			},
			{
				"type": "occ",
				"energy": -0.2395,
				"method": "rhf"
			},
			{
				"type": "unocc",
				"energy": -0.02179,
				"method": "rhf"
			},
			{
				"type": "unocc",
				"energy": 0.0825,
				"method": "rhf"
			},
			{
				"type": "unocc",
				"energy": 0.09345,
				"method": "rhf"
			},
			{
				"type": "unocc",
				"energy": 0.09904,
				"method": "rhf"
			},
			{
				"type": "unocc",
				"energy": 0.10165,
				"method": "rhf"
			}
		],
		"cosmo_sigma_profile": { 
			"-0.025": 0.0,
			"-0.024": 0.0,
			"-0.023": 0.0,
			"-0.022": 0.0,
			"-0.021": 0.0,
			"-0.02": 0.0,
			"-0.019": 0.0,
			"-0.018": 0.0,
			"-0.017": 0.0,
			"-0.016": 0.0,
			"-0.015": 0.0,
			"-0.014": 0.0,
			"-0.013": 0.0,
			"-0.012": 0.0,
			"-0.011": 0.0,
			"-0.01": 0.0,
			"-0.009": 0.0,
			"-0.008": 0.0,
			"-0.007": 0.0682764966025,
			"-0.006": 3.50636701834,
			"-0.005": 8.96464856175,
			"-0.004": 12.5326068891,
			"-0.003": 17.784948879,
			"-0.002": 40.7560748019,
			"-0.001": 70.6360602566,
			"0.0": 77.4322574487,
			"0.001": 60.5444525658,
			"0.002": 29.6903117697,
			"0.003": 6.23703358805,
			"0.004": 4.26767302812,
			"0.005": 2.90835356083,
			"0.006": 2.84914223343,
			"0.007": 2.17197027696,
			"0.008": 2.96935732418,
			"0.009": 1.79488799474,
			"0.01": 2.30758445915,
			"0.011": 3.06530707329,
			"0.012": 1.9651364313,
			"0.013": 0.171033668548,
			"0.014": 0.0,
			"0.015": 0.0,
			"0.016": 0.0,
			"0.017": 0.0,
			"0.018": 0.0,
			"0.019": 0.0,
			"0.02": 0.0,
			"0.021": 0.0,
			"0.022": 0.0,
			"0.023": 0.0,
			"0.024": 0.0,
			"0.025": 0.0
		}
	}
}
