{
	 "smiles": "CC1=NC(Cl)=C(CO)C(Cl)=C1", 
	 "Tm": 355.15, 
	 "num_atms": 18, 
	 "gaussian": { 
		 "optdone": 1, 
		 "sigma_profile": "yes", 
		 "theory": "DFT", 
		 "functional": "B3LYP", 
		 "basiset": "6-31G**", 
		 "properties": { 
			 "R2extent": 3007.0165, 
			 "electric_dipole_moment_norm": 3.38666470292, 
			 "electric_quadrupole_moment_norm": 10.0560108249, 
			 "total_energy": -1321.31561619, 
			 "HOMO_LUMO_gap": 0.21385, 
			 "cosmo_polarized_energy": -9.35, 
			 "cosmo_cavitation_energy": 25.21, 
			 "cosmo_dispersion_energy": -18.96, 
			 "cosmo_repulsion_energy": 1.54, 
			 "cosmo_total_nonelectrostatic_energy": 7.79, 
			 "SMD_solvation_energy": 2.55 
		},
		"coords": [
			{
				"x": -2.8792362391,
				"y": 0.6576305815,
				"z": -0.8200301778,
				"element": "C" 
			},
			{
				"x": -1.6581696441,
				"y": -0.0759799842,
				"z": -0.3324158463,
				"element": "C" 
			},
			{
				"x": -1.5783439647,
				"y": -1.3817090608,
				"z": -0.6402601532,
				"element": "N" 
			},
			{
				"x": -0.5304555776,
				"y": -2.0682820885,
				"z": -0.2321462803,
				"element": "C" 
			},
			{
				"x": -0.5394172066,
				"y": -3.7717740033,
				"z": -0.7027494343,
				"element": "Cl" 
			},
			{
				"x": 0.5536628874,
				"y": -1.5634065377,
				"z": 0.5138992858,
				"element": "C" 
			},
			{
				"x": 1.7390491141,
				"y": -2.3898362708,
				"z": 0.9813979016,
				"element": "C" 
			},
			{
				"x": 1.7077849026,
				"y": -2.6675637171,
				"z": 2.373088609,
				"element": "O" 
			},
			{
				"x": 0.4330963816,
				"y": -0.2025257089,
				"z": 0.8154436496,
				"element": "C" 
			},
			{
				"x": 1.6906042807,
				"y": 0.598144751,
				"z": 1.7552172725,
				"element": "Cl" 
			},
			{
				"x": -0.6568899582,
				"y": 0.5589011856,
				"z": 0.4044351782,
				"element": "C" 
			},
			{
				"x": -2.8580512914,
				"y": 1.7124479476,
				"z": -0.5365989657,
				"element": "H" 
			},
			{
				"x": -2.9522177767,
				"y": 0.58556184,
				"z": -1.9097208851,
				"element": "H" 
			},
			{
				"x": -3.783616851,
				"y": 0.1995284469,
				"z": -0.4071276313,
				"element": "H" 
			},
			{
				"x": 1.7288529274,
				"y": -3.3555779907,
				"z": 0.478341181,
				"element": "H" 
			},
			{
				"x": 2.6642397751,
				"y": -1.8712369353,
				"z": 0.6936294027,
				"element": "H" 
			},
			{
				"x": 1.8943911036,
				"y": -1.8434924667,
				"z": 2.842323345,
				"element": "H" 
			},
			{
				"x": -0.7220828629,
				"y": 1.6112700114,
				"z": 0.6533735487,
				"element": "H" 
			}
		],
		 "valence_orbital": [ 
			{
				"type": "occ",
				"energy": -0.31611,
				"method": "rhf"
			},
			{
				"type": "occ",
				"energy": -0.2931,
				"method": "rhf"
			},
			{
				"type": "occ",
				"energy": -0.2866,
				"method": "rhf"
			},
			{
				"type": "occ",
				"energy": -0.27299,
				"method": "rhf"
			},
			{
				"type": "occ",
				"energy": -0.2632,
				"method": "rhf"
			},
			{
				"type": "unocc",
				"energy": -0.04935,
				"method": "rhf"
			},
			{
				"type": "unocc",
				"energy": -0.03491,
				"method": "rhf"
			},
			{
				"type": "unocc",
				"energy": -0.00309,
				"method": "rhf"
			},
			{
				"type": "unocc",
				"energy": 0.04332,
				"method": "rhf"
			},
			{
				"type": "unocc",
				"energy": 0.08202,
				"method": "rhf"
			}
		],
		"cosmo_sigma_profile": { 
			"-0.025": 0.0,
			"-0.024": 0.0,
			"-0.023": 0.0,
			"-0.022": 0.0,
			"-0.021": 0.0,
			"-0.02": 0.0,
			"-0.019": 0.0,
			"-0.018": 0.0,
			"-0.017": 0.0,
			"-0.016": 0.0,
			"-0.015": 0.0,
			"-0.014": 0.0,
			"-0.013": 0.239965273203,
			"-0.012": 1.01800866303,
			"-0.011": 0.589134401678,
			"-0.01": 0.579538044266,
			"-0.009": 1.63750776101,
			"-0.008": 3.47344572052,
			"-0.007": 3.76620162042,
			"-0.006": 5.43430108667,
			"-0.005": 12.1153420102,
			"-0.004": 14.6609413807,
			"-0.003": 16.3932177704,
			"-0.002": 20.7510853604,
			"-0.001": 28.8651696698,
			"0.0": 18.3266828796,
			"0.001": 13.6467848197,
			"0.002": 12.3364621663,
			"0.003": 14.0706394149,
			"0.004": 9.17266922808,
			"0.005": 5.38528525251,
			"0.006": 3.54510972533,
			"0.007": 2.9615275112,
			"0.008": 2.40788951778,
			"0.009": 2.17676279515,
			"0.01": 2.29909657629,
			"0.011": 2.67239060886,
			"0.012": 2.25468376173,
			"0.013": 3.00491137966,
			"0.014": 1.47358570095,
			"0.015": 0.00999697555402,
			"0.016": 0.0,
			"0.017": 0.0,
			"0.018": 0.0,
			"0.019": 0.0,
			"0.02": 0.0,
			"0.021": 0.0,
			"0.022": 0.0,
			"0.023": 0.0,
			"0.024": 0.0,
			"0.025": 0.0
		}
	}
}
