{
	 "smiles": "OC(=O)C1=CC=C(C=C1)N1N=C(SC1=N/C(=O)C1=CC=CC=C1)C(=O)C1=CC=CS1", 
	 "Tm": 492.15, 
	 "num_atms": 43, 
	 "gaussian": { 
		 "optdone": 1, 
		 "sigma_profile": "yes", 
		 "theory": "DFT", 
		 "functional": "B3LYP", 
		 "basiset": "6-31G**", 
		 "properties": { 
			 "R2extent": 19109.2824, 
			 "electric_dipole_moment_norm": 3.76821812134, 
			 "electric_quadrupole_moment_norm": 55.4605407736, 
			 "total_energy": -2069.57405398, 
			 "HOMO_LUMO_gap": 0.13993, 
			 "cosmo_polarized_energy": -25.6, 
			 "cosmo_cavitation_energy": 53.48, 
			 "cosmo_dispersion_energy": -38.41, 
			 "cosmo_repulsion_energy": 2.75, 
			 "cosmo_total_nonelectrostatic_energy": 17.82, 
			 "SMD_solvation_energy": 10.21 
		},
		"coords": [
			{
				"x": 1.2349198063,
				"y": -6.7388271171,
				"z": 0.3046379965,
				"element": "O" 
			},
			{
				"x": 0.8615409608,
				"y": -5.8215623682,
				"z": 1.2366012967,
				"element": "C" 
			},
			{
				"x": 0.5410592796,
				"y": -6.1806495844,
				"z": 2.3446789449,
				"element": "O" 
			},
			{
				"x": 0.8716518408,
				"y": -4.383280288,
				"z": 0.8121108378,
				"element": "C" 
			},
			{
				"x": 0.8044256207,
				"y": -3.9765805893,
				"z": -0.5275030646,
				"element": "C" 
			},
			{
				"x": 0.8029771681,
				"y": -2.6254140845,
				"z": -0.8598754876,
				"element": "C" 
			},
			{
				"x": 0.867662554,
				"y": -1.6646063708,
				"z": 0.1551550294,
				"element": "C" 
			},
			{
				"x": 0.9136286584,
				"y": -2.0535924234,
				"z": 1.4996677665,
				"element": "C" 
			},
			{
				"x": 0.9087475242,
				"y": -3.4070980692,
				"z": 1.8163649536,
				"element": "C" 
			},
			{
				"x": 0.8428766745,
				"y": -0.2834309127,
				"z": -0.2130701438,
				"element": "N" 
			},
			{
				"x": 0.1065284852,
				"y": 0.0561542846,
				"z": -1.3083795507,
				"element": "N" 
			},
			{
				"x": 0.2075338936,
				"y": 1.3216722607,
				"z": -1.5615949343,
				"element": "C" 
			},
			{
				"x": 1.2452730731,
				"y": 2.2537424286,
				"z": -0.4802638058,
				"element": "S" 
			},
			{
				"x": 1.5630920584,
				"y": 0.7383368712,
				"z": 0.3942908465,
				"element": "C" 
			},
			{
				"x": 2.3355289124,
				"y": 0.5371345231,
				"z": 1.4122571361,
				"element": "N" 
			},
			{
				"x": 3.0142230411,
				"y": 1.6452872457,
				"z": 1.9174310588,
				"element": "C" 
			},
			{
				"x": 2.8726364733,
				"y": 2.7842686039,
				"z": 1.4614404829,
				"element": "O" 
			},
			{
				"x": 3.930493203,
				"y": 1.3657284694,
				"z": 3.0567564475,
				"element": "C" 
			},
			{
				"x": 4.6045797591,
				"y": 2.4426977589,
				"z": 3.6525774511,
				"element": "C" 
			},
			{
				"x": 5.4702780893,
				"y": 2.2218387638,
				"z": 4.7199259579,
				"element": "C" 
			},
			{
				"x": 5.672454592,
				"y": 0.9238389407,
				"z": 5.1990794255,
				"element": "C" 
			},
			{
				"x": 5.0068807953,
				"y": -0.1525073984,
				"z": 4.6073479475,
				"element": "C" 
			},
			{
				"x": 4.1375244937,
				"y": 0.0651156989,
				"z": 3.5396682582,
				"element": "C" 
			},
			{
				"x": -0.4658283284,
				"y": 2.0398062138,
				"z": -2.6864756777,
				"element": "C" 
			},
			{
				"x": -0.1652891689,
				"y": 3.2201738085,
				"z": -2.8542382678,
				"element": "O" 
			},
			{
				"x": -1.4388185339,
				"y": 1.3618568394,
				"z": -3.5422633195,
				"element": "C" 
			},
			{
				"x": -1.992030056,
				"y": 0.0948505649,
				"z": -3.4954810237,
				"element": "C" 
			},
			{
				"x": -2.9300401041,
				"y": -0.1349671007,
				"z": -4.5328543319,
				"element": "C" 
			},
			{
				"x": -3.0813238706,
				"y": 0.9571997606,
				"z": -5.3540939715,
				"element": "C" 
			},
			{
				"x": -2.092379245,
				"y": 2.2847831415,
				"z": -4.8796069211,
				"element": "S" 
			},
			{
				"x": 1.6269211632,
				"y": -6.2995682513,
				"z": -0.4625558143,
				"element": "H" 
			},
			{
				"x": 0.7198919694,
				"y": -4.7054693952,
				"z": -1.3295261922,
				"element": "H" 
			},
			{
				"x": 0.7459764516,
				"y": -2.3093327193,
				"z": -1.8942951283,
				"element": "H" 
			},
			{
				"x": 0.9561921635,
				"y": -1.3045664771,
				"z": 2.2780134032,
				"element": "H" 
			},
			{
				"x": 0.9252562787,
				"y": -3.7312753169,
				"z": 2.8510613416,
				"element": "H" 
			},
			{
				"x": 4.4328489475,
				"y": 3.4402370742,
				"z": 3.2626373882,
				"element": "H" 
			},
			{
				"x": 5.9884929555,
				"y": 3.0582872862,
				"z": 5.1796543196,
				"element": "H" 
			},
			{
				"x": 6.3487888425,
				"y": 0.7519355395,
				"z": 6.0317610615,
				"element": "H" 
			},
			{
				"x": 5.1666193475,
				"y": -1.1608693173,
				"z": 4.9780032829,
				"element": "H" 
			},
			{
				"x": 3.6196143976,
				"y": -0.7620171186,
				"z": 3.0679334345,
				"element": "H" 
			},
			{
				"x": -1.7277343761,
				"y": -0.629016481,
				"z": -2.7368537866,
				"element": "H" 
			},
			{
				"x": -3.4712568804,
				"y": -1.0644503505,
				"z": -4.665330751,
				"element": "H" 
			},
			{
				"x": -3.7286189104,
				"y": 1.0492356559,
				"z": -6.2161938964,
				"element": "H" 
			}
		],
		 "valence_orbital": [ 
			{
				"type": "occ",
				"energy": -0.26181,
				"method": "rhf"
			},
			{
				"type": "occ",
				"energy": -0.25992,
				"method": "rhf"
			},
			{
				"type": "occ",
				"energy": -0.25955,
				"method": "rhf"
			},
			{
				"type": "occ",
				"energy": -0.25635,
				"method": "rhf"
			},
			{
				"type": "occ",
				"energy": -0.24259,
				"method": "rhf"
			},
			{
				"type": "unocc",
				"energy": -0.10266,
				"method": "rhf"
			},
			{
				"type": "unocc",
				"energy": -0.07791,
				"method": "rhf"
			},
			{
				"type": "unocc",
				"energy": -0.05447,
				"method": "rhf"
			},
			{
				"type": "unocc",
				"energy": -0.03797,
				"method": "rhf"
			},
			{
				"type": "unocc",
				"energy": -0.03351,
				"method": "rhf"
			}
		],
		"cosmo_sigma_profile": { 
			"-0.025": 0.0,
			"-0.024": 0.0,
			"-0.023": 0.0,
			"-0.022": 0.0,
			"-0.021": 0.0,
			"-0.02": 0.0,
			"-0.019": 0.499238524912,
			"-0.018": 0.778206647356,
			"-0.017": 1.05107612499,
			"-0.016": 1.07481045891,
			"-0.015": 0.971222753937,
			"-0.014": 0.98606146804,
			"-0.013": 1.16832969248,
			"-0.012": 1.21467945203,
			"-0.011": 1.26140592008,
			"-0.01": 2.24300228106,
			"-0.009": 4.32680945209,
			"-0.008": 5.47662806446,
			"-0.007": 11.9805733275,
			"-0.006": 20.685990731,
			"-0.005": 28.1121156526,
			"-0.004": 30.6815371931,
			"-0.003": 26.4407009924,
			"-0.002": 27.776899636,
			"-0.001": 28.9904712607,
			"0.0": 32.2286513953,
			"0.001": 46.4540553629,
			"0.002": 47.1084829824,
			"0.003": 29.3166533136,
			"0.004": 20.1117590876,
			"0.005": 10.399860874,
			"0.006": 8.11551135069,
			"0.007": 5.93308590644,
			"0.008": 6.79440160779,
			"0.009": 7.34292234426,
			"0.01": 10.5079119161,
			"0.011": 10.4504533142,
			"0.012": 5.31405950694,
			"0.013": 1.08862571915,
			"0.014": 0.0,
			"0.015": 0.0,
			"0.016": 0.0,
			"0.017": 0.0,
			"0.018": 0.0,
			"0.019": 0.0,
			"0.02": 0.0,
			"0.021": 0.0,
			"0.022": 0.0,
			"0.023": 0.0,
			"0.024": 0.0,
			"0.025": 0.0
		}
	}
}
