{
	 "smiles": "CC(C)N1N=CC2=C1N=CC(N)=C2", 
	 "Tm": 359.15, 
	 "num_atms": 25, 
	 "gaussian": { 
		 "optdone": 1, 
		 "sigma_profile": "yes", 
		 "theory": "DFT", 
		 "functional": "B3LYP", 
		 "basiset": "6-31G**", 
		 "properties": { 
			 "R2extent": 2995.0136, 
			 "electric_dipole_moment_norm": 2.81312154732, 
			 "electric_quadrupole_moment_norm": 11.2407900278, 
			 "total_energy": -569.191257222, 
			 "HOMO_LUMO_gap": 0.1613, 
			 "cosmo_polarized_energy": -11.9, 
			 "cosmo_cavitation_energy": 27.97, 
			 "cosmo_dispersion_energy": -20.39, 
			 "cosmo_repulsion_energy": 1.62, 
			 "cosmo_total_nonelectrostatic_energy": 9.2, 
			 "SMD_solvation_energy": 3.21 
		},
		"coords": [
			{
				"x": -0.5265951959,
				"y": -3.0221822371,
				"z": 1.7721246317,
				"element": "C" 
			},
			{
				"x": 0.7005629456,
				"y": -3.2389395611,
				"z": 0.8771826462,
				"element": "C" 
			},
			{
				"x": 2.0115138526,
				"y": -3.2665263165,
				"z": 1.6737592612,
				"element": "C" 
			},
			{
				"x": 0.7558580311,
				"y": -2.2338282422,
				"z": -0.1927383197,
				"element": "N" 
			},
			{
				"x": 0.666569057,
				"y": -2.6198743989,
				"z": -1.4902846718,
				"element": "N" 
			},
			{
				"x": 0.7408541719,
				"y": -1.523152443,
				"z": -2.2328174562,
				"element": "C" 
			},
			{
				"x": 0.8829593949,
				"y": -0.3625336579,
				"z": -1.4212255622,
				"element": "C" 
			},
			{
				"x": 0.8885607933,
				"y": -0.8703448525,
				"z": -0.0976723734,
				"element": "C" 
			},
			{
				"x": 1.0053334253,
				"y": -0.1431588253,
				"z": 1.0214618292,
				"element": "N" 
			},
			{
				"x": 1.1205792865,
				"y": 1.1646344092,
				"z": 0.8262672668,
				"element": "C" 
			},
			{
				"x": 1.1322609157,
				"y": 1.8079234249,
				"z": -0.4455364111,
				"element": "C" 
			},
			{
				"x": 1.2010880658,
				"y": 3.2068234518,
				"z": -0.5010787335,
				"element": "N" 
			},
			{
				"x": 1.0122593466,
				"y": 1.0246531182,
				"z": -1.5917700362,
				"element": "C" 
			},
			{
				"x": -0.5915448122,
				"y": -3.823889533,
				"z": 2.5147884496,
				"element": "H" 
			},
			{
				"x": -0.4573222671,
				"y": -2.066891551,
				"z": 2.2988205317,
				"element": "H" 
			},
			{
				"x": -1.4452645891,
				"y": -3.0290345893,
				"z": 1.1782366233,
				"element": "H" 
			},
			{
				"x": 0.588850938,
				"y": -4.180540755,
				"z": 0.332519389,
				"element": "H" 
			},
			{
				"x": 1.9792021032,
				"y": -4.071151854,
				"z": 2.4153910543,
				"element": "H" 
			},
			{
				"x": 2.1659268806,
				"y": -2.3193099036,
				"z": 2.1969654532,
				"element": "H" 
			},
			{
				"x": 2.8638057613,
				"y": -3.4442885051,
				"z": 1.0113324901,
				"element": "H" 
			},
			{
				"x": 0.6894902155,
				"y": -1.6004279427,
				"z": -3.3106758764,
				"element": "H" 
			},
			{
				"x": 1.2105094692,
				"y": 1.7794846199,
				"z": 1.7221103233,
				"element": "H" 
			},
			{
				"x": 1.5524472828,
				"y": 3.5736954089,
				"z": -1.3756612649,
				"element": "H" 
			},
			{
				"x": 1.6728921143,
				"y": 3.6340196057,
				"z": 0.2852219086,
				"element": "H" 
			},
			{
				"x": 1.015402813,
				"y": 1.4796411298,
				"z": -2.579221153,
				"element": "H" 
			}
		],
		 "valence_orbital": [ 
			{
				"type": "occ",
				"energy": -0.28659,
				"method": "rhf"
			},
			{
				"type": "occ",
				"energy": -0.2794,
				"method": "rhf"
			},
			{
				"type": "occ",
				"energy": -0.26021,
				"method": "rhf"
			},
			{
				"type": "occ",
				"energy": -0.23081,
				"method": "rhf"
			},
			{
				"type": "occ",
				"energy": -0.19902,
				"method": "rhf"
			},
			{
				"type": "unocc",
				"energy": -0.03772,
				"method": "rhf"
			},
			{
				"type": "unocc",
				"energy": 0.02764,
				"method": "rhf"
			},
			{
				"type": "unocc",
				"energy": 0.05734,
				"method": "rhf"
			},
			{
				"type": "unocc",
				"energy": 0.07733,
				"method": "rhf"
			},
			{
				"type": "unocc",
				"energy": 0.10029,
				"method": "rhf"
			}
		],
		"cosmo_sigma_profile": { 
			"-0.025": 0.0,
			"-0.024": 0.0,
			"-0.023": 0.0,
			"-0.022": 0.0,
			"-0.021": 0.0,
			"-0.02": 0.0,
			"-0.019": 0.0,
			"-0.018": 0.0,
			"-0.017": 0.0,
			"-0.016": 0.0,
			"-0.015": 0.0,
			"-0.014": 0.0,
			"-0.013": 0.591199481791,
			"-0.012": 3.15800174507,
			"-0.011": 2.88643862817,
			"-0.01": 3.85125741818,
			"-0.009": 3.06745176681,
			"-0.008": 3.26545096775,
			"-0.007": 6.41193989791,
			"-0.006": 6.24859714874,
			"-0.005": 7.61185799177,
			"-0.004": 13.9584574361,
			"-0.003": 16.3116408169,
			"-0.002": 16.2137331085,
			"-0.001": 18.2426007478,
			"0.0": 19.9412864745,
			"0.001": 19.4717047105,
			"0.002": 17.9495731691,
			"0.003": 15.4573112217,
			"0.004": 12.1315280149,
			"0.005": 5.58949957236,
			"0.006": 5.59074683725,
			"0.007": 4.34018124022,
			"0.008": 4.05130560143,
			"0.009": 3.62277706386,
			"0.01": 2.06853098454,
			"0.011": 2.31458247274,
			"0.012": 2.05689304566,
			"0.013": 1.9037065193,
			"0.014": 1.87496885885,
			"0.015": 0.924616347508,
			"0.016": 0.0773538130593,
			"0.017": 0.0,
			"0.018": 0.0,
			"0.019": 0.0,
			"0.02": 0.0,
			"0.021": 0.0,
			"0.022": 0.0,
			"0.023": 0.0,
			"0.024": 0.0,
			"0.025": 0.0
		}
	}
}
