{
	 "smiles": "CC1=CC=C(C=C1)C(=O)CCC(O)=O", 
	 "Tm": 402.15, 
	 "num_atms": 26, 
	 "gaussian": { 
		 "optdone": 1, 
		 "sigma_profile": "yes", 
		 "theory": "DFT", 
		 "functional": "B3LYP", 
		 "basiset": "6-31G**", 
		 "properties": { 
			 "R2extent": 4408.8974, 
			 "electric_dipole_moment_norm": 8.15326602412, 
			 "electric_quadrupole_moment_norm": 19.0534960055, 
			 "total_energy": -652.103640681, 
			 "HOMO_LUMO_gap": 0.16896, 
			 "cosmo_polarized_energy": -15.73, 
			 "cosmo_cavitation_energy": 29.86, 
			 "cosmo_dispersion_energy": -21.82, 
			 "cosmo_repulsion_energy": 1.71, 
			 "cosmo_total_nonelectrostatic_energy": 9.76, 
			 "SMD_solvation_energy": 6.46 
		},
		"coords": [
			{
				"x": 5.3675591196,
				"y": 0.6718389476,
				"z": 0.165394462,
				"element": "C" 
			},
			{
				"x": 3.8717299908,
				"y": 0.6663969857,
				"z": -0.0287334589,
				"element": "C" 
			},
			{
				"x": 3.3001866646,
				"y": 1.1844972068,
				"z": -1.2033931856,
				"element": "C" 
			},
			{
				"x": 1.9264031082,
				"y": 1.1661350482,
				"z": -1.3986562857,
				"element": "C" 
			},
			{
				"x": 1.0717777217,
				"y": 0.6226358544,
				"z": -0.4224933755,
				"element": "C" 
			},
			{
				"x": 1.6372846309,
				"y": 0.1064187845,
				"z": 0.7542334551,
				"element": "C" 
			},
			{
				"x": 3.0166558782,
				"y": 0.1328641866,
				"z": 0.9448728798,
				"element": "C" 
			},
			{
				"x": -0.3926452037,
				"y": 0.6386114019,
				"z": -0.6778861378,
				"element": "C" 
			},
			{
				"x": -0.8323504612,
				"y": 1.13779604,
				"z": -1.7160592411,
				"element": "O" 
			},
			{
				"x": -1.3375789753,
				"y": 0.0285657573,
				"z": 0.3500069926,
				"element": "C" 
			},
			{
				"x": -2.7918107293,
				"y": -0.1501473928,
				"z": -0.127113037,
				"element": "C" 
			},
			{
				"x": -3.6385332834,
				"y": 1.1270801697,
				"z": -0.1286356117,
				"element": "C" 
			},
			{
				"x": -3.2777321062,
				"y": 2.0694967035,
				"z": -1.0164087002,
				"element": "O" 
			},
			{
				"x": -4.5798072146,
				"y": 1.2838439798,
				"z": 0.6147908363,
				"element": "O" 
			},
			{
				"x": 5.8430502385,
				"y": -0.1064731711,
				"z": -0.4440600991,
				"element": "H" 
			},
			{
				"x": 5.8045173586,
				"y": 1.628628684,
				"z": -0.137855436,
				"element": "H" 
			},
			{
				"x": 5.6389987756,
				"y": 0.487118916,
				"z": 1.2080209306,
				"element": "H" 
			},
			{
				"x": 3.9454696307,
				"y": 1.6091571654,
				"z": -1.9681593332,
				"element": "H" 
			},
			{
				"x": 1.4849839569,
				"y": 1.5711905628,
				"z": -2.3027820178,
				"element": "H" 
			},
			{
				"x": 1.0082520522,
				"y": -0.3109032784,
				"z": 1.53347524,
				"element": "H" 
			},
			{
				"x": 3.4371026511,
				"y": -0.2659872957,
				"z": 1.8640126308,
				"element": "H" 
			},
			{
				"x": -0.9372079102,
				"y": -0.9502157426,
				"z": 0.6381835487,
				"element": "H" 
			},
			{
				"x": -1.3007765971,
				"y": 0.6400206539,
				"z": 1.2620932586,
				"element": "H" 
			},
			{
				"x": -2.7887079664,
				"y": -0.5814498091,
				"z": -1.1350314827,
				"element": "H" 
			},
			{
				"x": -3.2992568037,
				"y": -0.8491105143,
				"z": 0.5393260553,
				"element": "H" 
			},
			{
				"x": -2.4707645264,
				"y": 1.7735901558,
				"z": -1.4935428875,
				"element": "H" 
			}
		],
		 "valence_orbital": [ 
			{
				"type": "occ",
				"energy": -0.29022,
				"method": "rhf"
			},
			{
				"type": "occ",
				"energy": -0.28065,
				"method": "rhf"
			},
			{
				"type": "occ",
				"energy": -0.27513,
				"method": "rhf"
			},
			{
				"type": "occ",
				"energy": -0.26783,
				"method": "rhf"
			},
			{
				"type": "occ",
				"energy": -0.24813,
				"method": "rhf"
			},
			{
				"type": "unocc",
				"energy": -0.07917,
				"method": "rhf"
			},
			{
				"type": "unocc",
				"energy": -0.02449,
				"method": "rhf"
			},
			{
				"type": "unocc",
				"energy": 0.01816,
				"method": "rhf"
			},
			{
				"type": "unocc",
				"energy": 0.02586,
				"method": "rhf"
			},
			{
				"type": "unocc",
				"energy": 0.07817,
				"method": "rhf"
			}
		],
		"cosmo_sigma_profile": { 
			"-0.025": 0.0,
			"-0.024": 0.0,
			"-0.023": 0.0,
			"-0.022": 0.0,
			"-0.021": 0.0,
			"-0.02": 0.0,
			"-0.019": 0.0,
			"-0.018": 0.0,
			"-0.017": 0.0,
			"-0.016": 0.0,
			"-0.015": 0.0,
			"-0.014": 0.0,
			"-0.013": 0.0,
			"-0.012": 0.0,
			"-0.011": 0.0,
			"-0.01": 0.0,
			"-0.009": 0.0,
			"-0.008": 2.53115746743,
			"-0.007": 11.2619318303,
			"-0.006": 17.5763488381,
			"-0.005": 23.7474527692,
			"-0.004": 22.3115576327,
			"-0.003": 19.9965081705,
			"-0.002": 16.425496039,
			"-0.001": 17.3355630779,
			"0.0": 15.1310932483,
			"0.001": 11.7048464264,
			"0.002": 12.7226359283,
			"0.003": 13.1302066448,
			"0.004": 12.183150123,
			"0.005": 2.69351260282,
			"0.006": 4.09303990035,
			"0.007": 3.89230041511,
			"0.008": 3.9925344715,
			"0.009": 3.62936140705,
			"0.01": 4.76267381622,
			"0.011": 4.87583509244,
			"0.012": 6.81284604443,
			"0.013": 4.91315489163,
			"0.014": 1.24034058961,
			"0.015": 0.0,
			"0.016": 0.0,
			"0.017": 0.0,
			"0.018": 0.0,
			"0.019": 0.0,
			"0.02": 0.0,
			"0.021": 0.0,
			"0.022": 0.0,
			"0.023": 0.0,
			"0.024": 0.0,
			"0.025": 0.0
		}
	}
}
