{
	 "smiles": "CC1=CC=C(OC2=NC=C(N)C=C2)C=C1", 
	 "Tm": 364.15, 
	 "num_atms": 27, 
	 "gaussian": { 
		 "optdone": 1, 
		 "sigma_profile": "yes", 
		 "theory": "DFT", 
		 "functional": "B3LYP", 
		 "basiset": "6-31G**", 
		 "properties": { 
			 "R2extent": 4600.5759, 
			 "electric_dipole_moment_norm": 3.96763685082, 
			 "electric_quadrupole_moment_norm": 20.8397804547, 
			 "total_energy": -649.231367967, 
			 "HOMO_LUMO_gap": 0.17755, 
			 "cosmo_polarized_energy": -14.66, 
			 "cosmo_cavitation_energy": 31.32, 
			 "cosmo_dispersion_energy": -22.84, 
			 "cosmo_repulsion_energy": 1.8, 
			 "cosmo_total_nonelectrostatic_energy": 10.28, 
			 "SMD_solvation_energy": 4.02 
		},
		"coords": [
			{
				"x": -2.6008282338,
				"y": -0.7705002314,
				"z": 4.0198177841,
				"element": "C" 
			},
			{
				"x": -1.4894684004,
				"y": -0.4764045121,
				"z": 3.0391131077,
				"element": "C" 
			},
			{
				"x": -0.4243723474,
				"y": -1.3699669075,
				"z": 2.8631745503,
				"element": "C" 
			},
			{
				"x": 0.6168891195,
				"y": -1.0941764391,
				"z": 1.9784468407,
				"element": "C" 
			},
			{
				"x": 0.6103021764,
				"y": 0.0980303075,
				"z": 1.2526450822,
				"element": "C" 
			},
			{
				"x": 1.7044253061,
				"y": 0.3545157544,
				"z": 0.450325225,
				"element": "O" 
			},
			{
				"x": 1.5367590433,
				"y": 0.8869987975,
				"z": -0.81074201,
				"element": "C" 
			},
			{
				"x": 2.5179119751,
				"y": 1.6875756434,
				"z": -1.1999471214,
				"element": "N" 
			},
			{
				"x": 2.471271993,
				"y": 2.1886345002,
				"z": -2.4370699577,
				"element": "C" 
			},
			{
				"x": 1.4411272824,
				"y": 1.9278174355,
				"z": -3.3535329913,
				"element": "C" 
			},
			{
				"x": 1.4733736737,
				"y": 2.4397194171,
				"z": -4.6539334924,
				"element": "N" 
			},
			{
				"x": 0.4147267554,
				"y": 1.0738746683,
				"z": -2.9170617259,
				"element": "C" 
			},
			{
				"x": 0.4582271475,
				"y": 0.5406062206,
				"z": -1.6357440874,
				"element": "C" 
			},
			{
				"x": -0.4363788913,
				"y": 1.0101474942,
				"z": 1.4144684007,
				"element": "C" 
			},
			{
				"x": -1.4742155607,
				"y": 0.7122579461,
				"z": 2.2969757239,
				"element": "C" 
			},
			{
				"x": -2.3538671807,
				"y": -0.4065679105,
				"z": 5.0253229537,
				"element": "H" 
			},
			{
				"x": -3.5366818001,
				"y": -0.2879733178,
				"z": 3.7217450885,
				"element": "H" 
			},
			{
				"x": -2.7880652889,
				"y": -1.845663071,
				"z": 4.1025514156,
				"element": "H" 
			},
			{
				"x": -0.4102609024,
				"y": -2.3021087198,
				"z": 3.4228372983,
				"element": "H" 
			},
			{
				"x": 1.4401031756,
				"y": -1.7874676222,
				"z": 1.8403263919,
				"element": "H" 
			},
			{
				"x": 3.298747189,
				"y": 2.8381973219,
				"z": -2.7236530666,
				"element": "H" 
			},
			{
				"x": 2.0482285489,
				"y": 3.2641032113,
				"z": -4.7674269637,
				"element": "H" 
			},
			{
				"x": 0.567412496,
				"y": 2.5616360289,
				"z": -5.086051879,
				"element": "H" 
			},
			{
				"x": -0.4041304294,
				"y": 0.8189945634,
				"z": -3.5854067893,
				"element": "H" 
			},
			{
				"x": -0.3187929431,
				"y": -0.1276215687,
				"z": -1.283144424,
				"element": "H" 
			},
			{
				"x": -0.4345294728,
				"y": 1.9419016756,
				"z": 0.8585421651,
				"element": "H" 
			},
			{
				"x": -2.2857144312,
				"y": 1.4262393143,
				"z": 2.4161224808,
				"element": "H" 
			}
		],
		 "valence_orbital": [ 
			{
				"type": "occ",
				"energy": -0.2761,
				"method": "rhf"
			},
			{
				"type": "occ",
				"energy": -0.25719,
				"method": "rhf"
			},
			{
				"type": "occ",
				"energy": -0.24883,
				"method": "rhf"
			},
			{
				"type": "occ",
				"energy": -0.22775,
				"method": "rhf"
			},
			{
				"type": "occ",
				"energy": -0.19787,
				"method": "rhf"
			},
			{
				"type": "unocc",
				"energy": -0.02032,
				"method": "rhf"
			},
			{
				"type": "unocc",
				"energy": 0.00068,
				"method": "rhf"
			},
			{
				"type": "unocc",
				"energy": 0.004,
				"method": "rhf"
			},
			{
				"type": "unocc",
				"energy": 0.02041,
				"method": "rhf"
			},
			{
				"type": "unocc",
				"energy": 0.0745,
				"method": "rhf"
			}
		],
		"cosmo_sigma_profile": { 
			"-0.025": 0.0,
			"-0.024": 0.0,
			"-0.023": 0.0,
			"-0.022": 0.0,
			"-0.021": 0.0,
			"-0.02": 0.0,
			"-0.019": 0.0,
			"-0.018": 0.0,
			"-0.017": 0.0,
			"-0.016": 0.0,
			"-0.015": 0.0,
			"-0.014": 0.0,
			"-0.013": 1.05352019206,
			"-0.012": 3.06382533634,
			"-0.011": 2.54811169155,
			"-0.01": 3.52976849886,
			"-0.009": 3.8705436559,
			"-0.008": 2.94198811174,
			"-0.007": 5.38053437248,
			"-0.006": 10.6032596463,
			"-0.005": 14.2446249759,
			"-0.004": 19.6828228774,
			"-0.003": 17.9160435612,
			"-0.002": 16.4937381845,
			"-0.001": 16.5234156984,
			"0.0": 20.4686936816,
			"0.001": 16.6691579886,
			"0.002": 17.1105181839,
			"0.003": 19.4807753623,
			"0.004": 15.4054503686,
			"0.005": 13.5737816177,
			"0.006": 5.59667582471,
			"0.007": 2.54953532477,
			"0.008": 3.5572741151,
			"0.009": 3.12129124853,
			"0.01": 2.66576286623,
			"0.011": 2.08034817661,
			"0.012": 2.57920857488,
			"0.013": 2.37606083824,
			"0.014": 1.61983575907,
			"0.015": 1.42119133803,
			"0.016": 0.982522112535,
			"0.017": 0.291029066004,
			"0.018": 0.0,
			"0.019": 0.0,
			"0.02": 0.0,
			"0.021": 0.0,
			"0.022": 0.0,
			"0.023": 0.0,
			"0.024": 0.0,
			"0.025": 0.0
		}
	}
}
