{
	 "smiles": "COC1=C(C)C=C(C(C)=C1)S(Cl)(=O)=O", 
	 "Tm": 372.15, 
	 "num_atms": 25, 
	 "gaussian": { 
		 "optdone": 1, 
		 "sigma_profile": "yes", 
		 "theory": "DFT", 
		 "functional": "B3LYP", 
		 "basiset": "6-31G**", 
		 "properties": { 
			 "R2extent": 5200.3639, 
			 "electric_dipole_moment_norm": 7.13175508413, 
			 "electric_quadrupole_moment_norm": 17.8099236686, 
			 "total_energy": -1433.57549334, 
			 "HOMO_LUMO_gap": 0.16561, 
			 "cosmo_polarized_energy": -10.64, 
			 "cosmo_cavitation_energy": 31.29, 
			 "cosmo_dispersion_energy": -23.15, 
			 "cosmo_repulsion_energy": 1.78, 
			 "cosmo_total_nonelectrostatic_energy": 9.92, 
			 "SMD_solvation_energy": 5.02 
		},
		"coords": [
			{
				"x": -2.79821539,
				"y": 0.4784686215,
				"z": -1.4521035975,
				"element": "C" 
			},
			{
				"x": -1.3899207399,
				"y": 0.2864651885,
				"z": -1.5264471781,
				"element": "O" 
			},
			{
				"x": -0.6918454801,
				"y": 0.0619541234,
				"z": -0.3851113413,
				"element": "C" 
			},
			{
				"x": 0.6982039847,
				"y": -0.1216780667,
				"z": -0.5591498557,
				"element": "C" 
			},
			{
				"x": 1.3086536381,
				"y": -0.061013395,
				"z": -1.9345724011,
				"element": "C" 
			},
			{
				"x": 1.4582271937,
				"y": -0.3558344373,
				"z": 0.577727232,
				"element": "C" 
			},
			{
				"x": 0.8686757227,
				"y": -0.3968923314,
				"z": 1.8500855337,
				"element": "C" 
			},
			{
				"x": -0.5142514619,
				"y": -0.2267291406,
				"z": 2.0395638523,
				"element": "C" 
			},
			{
				"x": -1.2042333892,
				"y": -0.2841209518,
				"z": 3.3809274346,
				"element": "C" 
			},
			{
				"x": -1.2735979528,
				"y": 0.0067114798,
				"z": 0.8869470478,
				"element": "C" 
			},
			{
				"x": 1.9825576882,
				"y": -0.6757432237,
				"z": 3.2101467502,
				"element": "S" 
			},
			{
				"x": 1.5879805042,
				"y": -2.7367540014,
				"z": 3.6994449883,
				"element": "Cl" 
			},
			{
				"x": 1.5754557011,
				"y": 0.0863071177,
				"z": 4.3857527052,
				"element": "O" 
			},
			{
				"x": 3.3583245983,
				"y": -0.646574732,
				"z": 2.7270335045,
				"element": "O" 
			},
			{
				"x": -3.1307487004,
				"y": 0.6389982669,
				"z": -2.478112867,
				"element": "H" 
			},
			{
				"x": -3.3019193415,
				"y": -0.4045692412,
				"z": -1.0412536227,
				"element": "H" 
			},
			{
				"x": -3.0514854255,
				"y": 1.3569842332,
				"z": -0.8467889893,
				"element": "H" 
			},
			{
				"x": 1.1276765479,
				"y": 0.9114980038,
				"z": -2.4047439758,
				"element": "H" 
			},
			{
				"x": 0.8680913897,
				"y": -0.8151640627,
				"z": -2.5953507344,
				"element": "H" 
			},
			{
				"x": 2.3872317829,
				"y": -0.2281074435,
				"z": -1.8887424106,
				"element": "H" 
			},
			{
				"x": 2.5287708699,
				"y": -0.5019158412,
				"z": 0.4891260504,
				"element": "H" 
			},
			{
				"x": -2.2870154145,
				"y": -0.2241214861,
				"z": 3.2495064917,
				"element": "H" 
			},
			{
				"x": -0.9744606435,
				"y": -1.212411478,
				"z": 3.912426479,
				"element": "H" 
			},
			{
				"x": -0.8814208245,
				"y": 0.535898812,
				"z": 4.0273055995,
				"element": "H" 
			},
			{
				"x": -2.3418348576,
				"y": 0.1446439859,
				"z": 1.0026833042,
				"element": "H" 
			}
		],
		 "valence_orbital": [ 
			{
				"type": "occ",
				"energy": -0.32342,
				"method": "rhf"
			},
			{
				"type": "occ",
				"energy": -0.31776,
				"method": "rhf"
			},
			{
				"type": "occ",
				"energy": -0.30351,
				"method": "rhf"
			},
			{
				"type": "occ",
				"energy": -0.26928,
				"method": "rhf"
			},
			{
				"type": "occ",
				"energy": -0.24589,
				"method": "rhf"
			},
			{
				"type": "unocc",
				"energy": -0.08028,
				"method": "rhf"
			},
			{
				"type": "unocc",
				"energy": -0.0299,
				"method": "rhf"
			},
			{
				"type": "unocc",
				"energy": -0.02178,
				"method": "rhf"
			},
			{
				"type": "unocc",
				"energy": 0.06265,
				"method": "rhf"
			},
			{
				"type": "unocc",
				"energy": 0.07767,
				"method": "rhf"
			}
		],
		"cosmo_sigma_profile": { 
			"-0.025": 0.0,
			"-0.024": 0.0,
			"-0.023": 0.0,
			"-0.022": 0.0,
			"-0.021": 0.0,
			"-0.02": 0.0,
			"-0.019": 0.0,
			"-0.018": 0.0,
			"-0.017": 0.0,
			"-0.016": 0.0,
			"-0.015": 0.0,
			"-0.014": 0.0,
			"-0.013": 0.0,
			"-0.012": 0.0,
			"-0.011": 0.0,
			"-0.01": 0.0,
			"-0.009": 0.0,
			"-0.008": 0.860927686974,
			"-0.007": 6.71596884268,
			"-0.006": 13.7554186285,
			"-0.005": 14.2489728139,
			"-0.004": 19.2955285263,
			"-0.003": 20.2929273105,
			"-0.002": 19.822982608,
			"-0.001": 27.7397172218,
			"0.0": 24.0182801855,
			"0.001": 19.8999020965,
			"0.002": 21.0948909284,
			"0.003": 13.8441501833,
			"0.004": 13.9567429242,
			"0.005": 8.18924046129,
			"0.006": 4.96146878033,
			"0.007": 6.01373934214,
			"0.008": 8.71143585977,
			"0.009": 6.90732001413,
			"0.01": 0.732834798856,
			"0.011": 0.0,
			"0.012": 0.0,
			"0.013": 0.0,
			"0.014": 0.0,
			"0.015": 0.0,
			"0.016": 0.0,
			"0.017": 0.0,
			"0.018": 0.0,
			"0.019": 0.0,
			"0.02": 0.0,
			"0.021": 0.0,
			"0.022": 0.0,
			"0.023": 0.0,
			"0.024": 0.0,
			"0.025": 0.0
		}
	}
}
