{
	 "smiles": "OC(=O)C1=CC=C(CSC2=CC=CC=C2)C=C1", 
	 "Tm": 453.15, 
	 "num_atms": 29, 
	 "gaussian": { 
		 "optdone": 1, 
		 "sigma_profile": "yes", 
		 "theory": "DFT", 
		 "functional": "B3LYP", 
		 "basiset": "6-31G**", 
		 "properties": { 
			 "R2extent": 5545.185, 
			 "electric_dipole_moment_norm": 5.07156066512, 
			 "electric_quadrupole_moment_norm": 23.4101611018, 
			 "total_energy": -1089.36759056, 
			 "HOMO_LUMO_gap": 0.17827, 
			 "cosmo_polarized_energy": -17.31, 
			 "cosmo_cavitation_energy": 35.49, 
			 "cosmo_dispersion_energy": -24.59, 
			 "cosmo_repulsion_energy": 1.88, 
			 "cosmo_total_nonelectrostatic_energy": 12.78, 
			 "SMD_solvation_energy": 6.45 
		},
		"coords": [
			{
				"x": 1.0990143876,
				"y": -3.5408234373,
				"z": 2.528929247,
				"element": "O" 
			},
			{
				"x": 0.2495995003,
				"y": -2.6211641198,
				"z": 3.0635398672,
				"element": "C" 
			},
			{
				"x": -0.2635945818,
				"y": -2.828896861,
				"z": 4.1380349151,
				"element": "O" 
			},
			{
				"x": 0.0022879137,
				"y": -1.382541425,
				"z": 2.2576590272,
				"element": "C" 
			},
			{
				"x": -1.1413363962,
				"y": -0.6266289904,
				"z": 2.5563518067,
				"element": "C" 
			},
			{
				"x": -1.4214858574,
				"y": 0.5340867175,
				"z": 1.8471047284,
				"element": "C" 
			},
			{
				"x": -0.5587518088,
				"y": 0.986633854,
				"z": 0.8355092943,
				"element": "C" 
			},
			{
				"x": -0.8634486814,
				"y": 2.2431629351,
				"z": 0.0668740325,
				"element": "C" 
			},
			{
				"x": -2.1205781008,
				"y": 2.0332018992,
				"z": -1.2883717709,
				"element": "S" 
			},
			{
				"x": -1.2239075883,
				"y": 0.9975960864,
				"z": -2.4484944209,
				"element": "C" 
			},
			{
				"x": -1.4837832875,
				"y": -0.3779919058,
				"z": -2.5074718593,
				"element": "C" 
			},
			{
				"x": -0.8179563034,
				"y": -1.1770023766,
				"z": -3.439363166,
				"element": "C" 
			},
			{
				"x": 0.1144343955,
				"y": -0.6107200163,
				"z": -4.3101628534,
				"element": "C" 
			},
			{
				"x": 0.3765544395,
				"y": 0.7605467283,
				"z": -4.254435463,
				"element": "C" 
			},
			{
				"x": -0.2947423501,
				"y": 1.5647264167,
				"z": -3.3328995167,
				"element": "C" 
			},
			{
				"x": 0.5927126879,
				"y": 0.2405510272,
				"z": 0.554234213,
				"element": "C" 
			},
			{
				"x": 0.8714375083,
				"y": -0.9315766571,
				"z": 1.2558794426,
				"element": "C" 
			},
			{
				"x": 1.2964662565,
				"y": -3.3159584645,
				"z": 1.6093510932,
				"element": "H" 
			},
			{
				"x": -1.7940864516,
				"y": -0.9710924205,
				"z": 3.3511805577,
				"element": "H" 
			},
			{
				"x": -2.3189839003,
				"y": 1.1022025114,
				"z": 2.0766909271,
				"element": "H" 
			},
			{
				"x": -1.3152515533,
				"y": 3.0009065075,
				"z": 0.7137817534,
				"element": "H" 
			},
			{
				"x": 0.0417593069,
				"y": 2.6709281956,
				"z": -0.3706811928,
				"element": "H" 
			},
			{
				"x": -2.2073658155,
				"y": -0.8128828094,
				"z": -1.8258653056,
				"element": "H" 
			},
			{
				"x": -1.0279128115,
				"y": -2.2419397948,
				"z": -3.4828050489,
				"element": "H" 
			},
			{
				"x": 0.6312887753,
				"y": -1.2337959636,
				"z": -5.0343766558,
				"element": "H" 
			},
			{
				"x": 1.0947035622,
				"y": 1.2064261655,
				"z": -4.9367341237,
				"element": "H" 
			},
			{
				"x": -0.1101258774,
				"y": 2.6343430498,
				"z": -3.3014406421,
				"element": "H" 
			},
			{
				"x": 1.2802077173,
				"y": 0.5838965455,
				"z": -0.2132788929,
				"element": "H" 
			},
			{
				"x": 1.7958449142,
				"y": -1.4617933978,
				"z": 1.0382600067,
				"element": "H" 
			}
		],
		 "valence_orbital": [ 
			{
				"type": "occ",
				"energy": -0.27288,
				"method": "rhf"
			},
			{
				"type": "occ",
				"energy": -0.26604,
				"method": "rhf"
			},
			{
				"type": "occ",
				"energy": -0.26264,
				"method": "rhf"
			},
			{
				"type": "occ",
				"energy": -0.25817,
				"method": "rhf"
			},
			{
				"type": "occ",
				"energy": -0.23411,
				"method": "rhf"
			},
			{
				"type": "unocc",
				"energy": -0.05584,
				"method": "rhf"
			},
			{
				"type": "unocc",
				"energy": -0.02779,
				"method": "rhf"
			},
			{
				"type": "unocc",
				"energy": -0.02058,
				"method": "rhf"
			},
			{
				"type": "unocc",
				"energy": -0.01473,
				"method": "rhf"
			},
			{
				"type": "unocc",
				"energy": 0.0342,
				"method": "rhf"
			}
		],
		"cosmo_sigma_profile": { 
			"-0.025": 0.0,
			"-0.024": 0.0,
			"-0.023": 0.0,
			"-0.022": 0.0,
			"-0.021": 0.0,
			"-0.02": 0.0,
			"-0.019": 0.191812492868,
			"-0.018": 0.685350709732,
			"-0.017": 0.904773004516,
			"-0.016": 1.13641693514,
			"-0.015": 1.19610905348,
			"-0.014": 0.309806273324,
			"-0.013": 0.930067052732,
			"-0.012": 1.50862995153,
			"-0.011": 1.5963847364,
			"-0.01": 1.08434929106,
			"-0.009": 0.752624203214,
			"-0.008": 1.96620919149,
			"-0.007": 6.15587711639,
			"-0.006": 21.0808290292,
			"-0.005": 21.9247285578,
			"-0.004": 23.3388109373,
			"-0.003": 19.0775834492,
			"-0.002": 16.5431644919,
			"-0.001": 14.5799147243,
			"0.0": 15.0035205724,
			"0.001": 18.9291937009,
			"0.002": 19.8134479027,
			"0.003": 25.9407983651,
			"0.004": 20.9009980797,
			"0.005": 12.6115371926,
			"0.006": 5.86544992853,
			"0.007": 4.33587142496,
			"0.008": 5.14728992496,
			"0.009": 4.69601302032,
			"0.01": 5.01173371073,
			"0.011": 5.41159624977,
			"0.012": 5.23154440958,
			"0.013": 1.76307855503,
			"0.014": 0.0434432512313,
			"0.015": 0.0,
			"0.016": 0.0,
			"0.017": 0.0,
			"0.018": 0.0,
			"0.019": 0.0,
			"0.02": 0.0,
			"0.021": 0.0,
			"0.022": 0.0,
			"0.023": 0.0,
			"0.024": 0.0,
			"0.025": 0.0
		}
	}
}
