{
	 "smiles": "CC(C)(C)OC(N)=O", 
	 "Tm": 381.15, 
	 "num_atms": 19, 
	 "gaussian": { 
		 "optdone": 1, 
		 "sigma_profile": "yes", 
		 "theory": "DFT", 
		 "functional": "B3LYP", 
		 "basiset": "6-31G**", 
		 "properties": { 
			 "R2extent": 1233.4344, 
			 "electric_dipole_moment_norm": 2.33543942118, 
			 "electric_quadrupole_moment_norm": 10.4422885897, 
			 "total_energy": -402.40074939, 
			 "HOMO_LUMO_gap": 0.32186, 
			 "cosmo_polarized_energy": -9.59, 
			 "cosmo_cavitation_energy": 21.41, 
			 "cosmo_dispersion_energy": -15.61, 
			 "cosmo_repulsion_energy": 1.33, 
			 "cosmo_total_nonelectrostatic_energy": 7.12, 
			 "SMD_solvation_energy": 5.21 
		},
		"coords": [
			{
				"x": -0.3157129867,
				"y": 2.3244540441,
				"z": 0.6585990129,
				"element": "C" 
			},
			{
				"x": -0.093531186,
				"y": 1.1770939177,
				"z": -0.3330232754,
				"element": "C" 
			},
			{
				"x": -1.4152719879,
				"y": 0.7565885546,
				"z": -0.981511254,
				"element": "C" 
			},
			{
				"x": 0.9482613273,
				"y": 1.5280059652,
				"z": -1.4010673472,
				"element": "C" 
			},
			{
				"x": 0.3110095596,
				"y": -0.0395679821,
				"z": 0.3855793099,
				"element": "O" 
			},
			{
				"x": 1.4615496444,
				"y": -0.0704395237,
				"z": 1.1033610634,
				"element": "C" 
			},
			{
				"x": 1.6072718674,
				"y": -1.3045973507,
				"z": 1.6690251409,
				"element": "N" 
			},
			{
				"x": 2.2597018557,
				"y": 0.840679891,
				"z": 1.2414500655,
				"element": "O" 
			},
			{
				"x": -0.7241424819,
				"y": 3.1929647993,
				"z": 0.1315288618,
				"element": "H" 
			},
			{
				"x": -1.0338682273,
				"y": 2.0263004216,
				"z": 1.4291977937,
				"element": "H" 
			},
			{
				"x": 0.6202585216,
				"y": 2.610437917,
				"z": 1.1388355281,
				"element": "H" 
			},
			{
				"x": -1.2621822229,
				"y": -0.0912142681,
				"z": -1.6557577767,
				"element": "H" 
			},
			{
				"x": -2.1434681934,
				"y": 0.4638270128,
				"z": -0.2193833929,
				"element": "H" 
			},
			{
				"x": -1.8324240302,
				"y": 1.5873266794,
				"z": -1.5584583666,
				"element": "H" 
			},
			{
				"x": 0.5880292917,
				"y": 2.3670120614,
				"z": -2.0054210954,
				"element": "H" 
			},
			{
				"x": 1.8977251013,
				"y": 1.8047556991,
				"z": -0.9423458868,
				"element": "H" 
			},
			{
				"x": 1.1108898333,
				"y": 0.6747472755,
				"z": -2.0673715061,
				"element": "H" 
			},
			{
				"x": 0.9223160977,
				"y": -2.0269663464,
				"z": 1.5268835664,
				"element": "H" 
			},
			{
				"x": 2.4217882163,
				"y": -1.4730087675,
				"z": 2.2332795583,
				"element": "H" 
			}
		],
		 "valence_orbital": [ 
			{
				"type": "occ",
				"energy": -0.34462,
				"method": "rhf"
			},
			{
				"type": "occ",
				"energy": -0.32822,
				"method": "rhf"
			},
			{
				"type": "occ",
				"energy": -0.28375,
				"method": "rhf"
			},
			{
				"type": "occ",
				"energy": -0.26491,
				"method": "rhf"
			},
			{
				"type": "occ",
				"energy": -0.25838,
				"method": "rhf"
			},
			{
				"type": "unocc",
				"energy": 0.06348,
				"method": "rhf"
			},
			{
				"type": "unocc",
				"energy": 0.08047,
				"method": "rhf"
			},
			{
				"type": "unocc",
				"energy": 0.09564,
				"method": "rhf"
			},
			{
				"type": "unocc",
				"energy": 0.11039,
				"method": "rhf"
			},
			{
				"type": "unocc",
				"energy": 0.14034,
				"method": "rhf"
			}
		],
		"cosmo_sigma_profile": { 
			"-0.025": 0.0,
			"-0.024": 0.0,
			"-0.023": 0.0,
			"-0.022": 0.0,
			"-0.021": 0.0,
			"-0.02": 0.0,
			"-0.019": 0.0,
			"-0.018": 0.0,
			"-0.017": 0.0,
			"-0.016": 0.0,
			"-0.015": 0.102074801532,
			"-0.014": 1.76527688855,
			"-0.013": 2.32282977692,
			"-0.012": 2.20568515136,
			"-0.011": 1.29146201526,
			"-0.01": 1.60413481616,
			"-0.009": 2.78153997428,
			"-0.008": 1.44964454558,
			"-0.007": 1.54399881289,
			"-0.006": 1.54445019642,
			"-0.005": 0.991916431422,
			"-0.004": 10.4369498942,
			"-0.003": 17.3675787964,
			"-0.002": 14.3091529324,
			"-0.001": 16.4865604907,
			"0.0": 22.5734088613,
			"0.001": 21.4420830312,
			"0.002": 7.60799713021,
			"0.003": 6.93189779391,
			"0.004": 5.44832795624,
			"0.005": 3.93279417178,
			"0.006": 3.85092693892,
			"0.007": 3.34210042499,
			"0.008": 2.52377964086,
			"0.009": 0.898299073326,
			"0.01": 2.02877163892,
			"0.011": 1.39078370625,
			"0.012": 1.67410445759,
			"0.013": 3.03979625148,
			"0.014": 2.95820893011,
			"0.015": 0.191376524811,
			"0.016": 0.0,
			"0.017": 0.0,
			"0.018": 0.0,
			"0.019": 0.0,
			"0.02": 0.0,
			"0.021": 0.0,
			"0.022": 0.0,
			"0.023": 0.0,
			"0.024": 0.0,
			"0.025": 0.0
		}
	}
}
