{
	 "smiles": "CCOC(=O)CC1=CC=C(C=C1)[N+]([O-])=O", 
	 "Tm": 337.15, 
	 "num_atms": 26, 
	 "gaussian": { 
		 "optdone": 1, 
		 "sigma_profile": "yes", 
		 "theory": "DFT", 
		 "functional": "B3LYP", 
		 "basiset": "6-31G**", 
		 "properties": { 
			 "R2extent": 5717.7815, 
			 "electric_dipole_moment_norm": 6.12223721935, 
			 "electric_quadrupole_moment_norm": 23.8583589907, 
			 "total_energy": -743.260245882, 
			 "HOMO_LUMO_gap": 0.18428, 
			 "cosmo_polarized_energy": -12.14, 
			 "cosmo_cavitation_energy": 31.48, 
			 "cosmo_dispersion_energy": -22.64, 
			 "cosmo_repulsion_energy": 1.81, 
			 "cosmo_total_nonelectrostatic_energy": 10.64, 
			 "SMD_solvation_energy": 8.66 
		},
		"coords": [
			{
				"x": -4.1330983933,
				"y": 0.2143927514,
				"z": -0.9811734416,
				"element": "C" 
			},
			{
				"x": -3.1696638006,
				"y": -0.7548482872,
				"z": -0.3244606093,
				"element": "C" 
			},
			{
				"x": -2.2644658283,
				"y": 0.022814175,
				"z": 0.500769496,
				"element": "O" 
			},
			{
				"x": -1.3313344723,
				"y": -0.6778557301,
				"z": 1.1693108803,
				"element": "C" 
			},
			{
				"x": -1.2181806522,
				"y": -1.8843014626,
				"z": 1.115075588,
				"element": "O" 
			},
			{
				"x": -0.4479492253,
				"y": 0.2364411263,
				"z": 2.0113300368,
				"element": "C" 
			},
			{
				"x": 1.0205265216,
				"y": 0.1485753566,
				"z": 1.6388705687,
				"element": "C" 
			},
			{
				"x": 1.7025824481,
				"y": -1.078145219,
				"z": 1.6808122868,
				"element": "C" 
			},
			{
				"x": 3.0527505033,
				"y": -1.1501742928,
				"z": 1.3543848972,
				"element": "C" 
			},
			{
				"x": 3.7194056059,
				"y": 0.0182342609,
				"z": 0.9873762981,
				"element": "C" 
			},
			{
				"x": 3.0712674431,
				"y": 1.2493254143,
				"z": 0.9344373949,
				"element": "C" 
			},
			{
				"x": 1.7186147196,
				"y": 1.3037244412,
				"z": 1.2611594742,
				"element": "C" 
			},
			{
				"x": 5.1481337586,
				"y": -0.0503213286,
				"z": 0.6456607535,
				"element": "N" 
			},
			{
				"x": 5.6975411952,
				"y": -1.1500789576,
				"z": 0.7038528141,
				"element": "O" 
			},
			{
				"x": 5.7092118998,
				"y": 0.9965926339,
				"z": 0.3218403782,
				"element": "O" 
			},
			{
				"x": -3.5984912187,
				"y": 0.9355605811,
				"z": -1.6058795717,
				"element": "H" 
			},
			{
				"x": -4.8351707038,
				"y": -0.3356785472,
				"z": -1.6152490205,
				"element": "H" 
			},
			{
				"x": -4.7070317467,
				"y": 0.7658060448,
				"z": -0.2309804932,
				"element": "H" 
			},
			{
				"x": -2.5798356866,
				"y": -1.3137103205,
				"z": -1.0572843861,
				"element": "H" 
			},
			{
				"x": -3.6827865208,
				"y": -1.4832627999,
				"z": 0.3108291026,
				"element": "H" 
			},
			{
				"x": -0.5804142823,
				"y": -0.0838262666,
				"z": 3.0523959555,
				"element": "H" 
			},
			{
				"x": -0.8044117274,
				"y": 1.2645060446,
				"z": 1.930065368,
				"element": "H" 
			},
			{
				"x": 1.1610250918,
				"y": -1.9775590086,
				"z": 1.9516026477,
				"element": "H" 
			},
			{
				"x": 3.5953017567,
				"y": -2.0868731711,
				"z": 1.3797046541,
				"element": "H" 
			},
			{
				"x": 3.625142768,
				"y": 2.1324171641,
				"z": 0.6418359502,
				"element": "H" 
			},
			{
				"x": 1.1999305466,
				"y": 2.2573453976,
				"z": 1.2235129775,
				"element": "H" 
			}
		],
		 "valence_orbital": [ 
			{
				"type": "occ",
				"energy": -0.30405,
				"method": "rhf"
			},
			{
				"type": "occ",
				"energy": -0.28896,
				"method": "rhf"
			},
			{
				"type": "occ",
				"energy": -0.28738,
				"method": "rhf"
			},
			{
				"type": "occ",
				"energy": -0.27521,
				"method": "rhf"
			},
			{
				"type": "occ",
				"energy": -0.27064,
				"method": "rhf"
			},
			{
				"type": "unocc",
				"energy": -0.08636,
				"method": "rhf"
			},
			{
				"type": "unocc",
				"energy": -0.02589,
				"method": "rhf"
			},
			{
				"type": "unocc",
				"energy": -0.00914,
				"method": "rhf"
			},
			{
				"type": "unocc",
				"energy": 0.00993,
				"method": "rhf"
			},
			{
				"type": "unocc",
				"energy": 0.08199,
				"method": "rhf"
			}
		],
		"cosmo_sigma_profile": { 
			"-0.025": 0.0,
			"-0.024": 0.0,
			"-0.023": 0.0,
			"-0.022": 0.0,
			"-0.021": 0.0,
			"-0.02": 0.0,
			"-0.019": 0.0,
			"-0.018": 0.0,
			"-0.017": 0.0,
			"-0.016": 0.0,
			"-0.015": 0.0,
			"-0.014": 0.0,
			"-0.013": 0.0,
			"-0.012": 0.0,
			"-0.011": 0.0,
			"-0.01": 0.0,
			"-0.009": 0.0,
			"-0.008": 2.89438626799,
			"-0.007": 9.46440394435,
			"-0.006": 12.5867363594,
			"-0.005": 17.7015441429,
			"-0.004": 24.5759419642,
			"-0.003": 24.6762443711,
			"-0.002": 21.8044793545,
			"-0.001": 19.8549189477,
			"0.0": 20.5256847277,
			"0.001": 17.8708353807,
			"0.002": 15.1625087709,
			"0.003": 7.24529348135,
			"0.004": 5.34040200157,
			"0.005": 7.24249795662,
			"0.006": 5.54454725572,
			"0.007": 10.1026174621,
			"0.008": 10.3564782864,
			"0.009": 6.23136913745,
			"0.01": 5.23424332297,
			"0.011": 3.34233945679,
			"0.012": 2.39620198196,
			"0.013": 0.0552239195913,
			"0.014": 0.0,
			"0.015": 0.0,
			"0.016": 0.0,
			"0.017": 0.0,
			"0.018": 0.0,
			"0.019": 0.0,
			"0.02": 0.0,
			"0.021": 0.0,
			"0.022": 0.0,
			"0.023": 0.0,
			"0.024": 0.0,
			"0.025": 0.0
		}
	}
}
