{
	 "smiles": "NC(=O)C1=CN=C(C=C1)N1CCC(CC1)C(O)=O", 
	 "Tm": 558.15, 
	 "num_atms": 33, 
	 "gaussian": { 
		 "optdone": 1, 
		 "sigma_profile": "yes", 
		 "theory": "DFT", 
		 "functional": "B3LYP", 
		 "basiset": "6-31G**", 
		 "properties": { 
			 "R2extent": 7749.058, 
			 "electric_dipole_moment_norm": 2.5943022376, 
			 "electric_quadrupole_moment_norm": 34.8745189127, 
			 "total_energy": -856.280310272, 
			 "HOMO_LUMO_gap": 0.18125, 
			 "cosmo_polarized_energy": -21.86, 
			 "cosmo_cavitation_energy": 35.77, 
			 "cosmo_dispersion_energy": -26.25, 
			 "cosmo_repulsion_energy": 2.03, 
			 "cosmo_total_nonelectrostatic_energy": 11.55, 
			 "SMD_solvation_energy": 5.84 
		},
		"coords": [
			{
				"x": -0.2299769461,
				"y": 2.6728471079,
				"z": -3.8442314697,
				"element": "N" 
			},
			{
				"x": -0.5816320075,
				"y": 1.3400963277,
				"z": -3.8132016285,
				"element": "C" 
			},
			{
				"x": -0.8133062326,
				"y": 0.7174160546,
				"z": -4.8449472307,
				"element": "O" 
			},
			{
				"x": -0.6954835557,
				"y": 0.7080572228,
				"z": -2.4682525356,
				"element": "C" 
			},
			{
				"x": -0.7190684937,
				"y": 1.4015300524,
				"z": -1.2544758839,
				"element": "C" 
			},
			{
				"x": -0.835969745,
				"y": 0.8302794745,
				"z": -0.0568330661,
				"element": "N" 
			},
			{
				"x": -0.9358231063,
				"y": -0.51521248,
				"z": 0.0105714997,
				"element": "C" 
			},
			{
				"x": -0.9217258493,
				"y": -1.3156765502,
				"z": -1.1647589318,
				"element": "C" 
			},
			{
				"x": -0.8124873166,
				"y": -0.6906103825,
				"z": -2.3901712414,
				"element": "C" 
			},
			{
				"x": -1.0557431336,
				"y": -1.0647892899,
				"z": 1.2620400234,
				"element": "N" 
			},
			{
				"x": -1.2512754685,
				"y": -2.5051034633,
				"z": 1.4416361458,
				"element": "C" 
			},
			{
				"x": -1.7805973009,
				"y": -2.8101716698,
				"z": 2.8459333749,
				"element": "C" 
			},
			{
				"x": -0.8643044379,
				"y": -2.2885897614,
				"z": 3.9856725845,
				"element": "C" 
			},
			{
				"x": -0.0857986187,
				"y": -1.025440627,
				"z": 3.5186083889,
				"element": "C" 
			},
			{
				"x": -0.8714101975,
				"y": -0.2438073132,
				"z": 2.4635985528,
				"element": "C" 
			},
			{
				"x": 0.0987469808,
				"y": -3.3374887777,
				"z": 4.5068899253,
				"element": "C" 
			},
			{
				"x": 0.7972948813,
				"y": -3.9382198507,
				"z": 3.506037952,
				"element": "O" 
			},
			{
				"x": 0.2688808776,
				"y": -3.6226721499,
				"z": 5.6710968691,
				"element": "O" 
			},
			{
				"x": -0.0352856316,
				"y": 3.0365894937,
				"z": -4.7660812531,
				"element": "H" 
			},
			{
				"x": 0.2893004472,
				"y": 3.0791745251,
				"z": -3.0816352876,
				"element": "H" 
			},
			{
				"x": -0.6721701859,
				"y": 2.4903651125,
				"z": -1.2371651168,
				"element": "H" 
			},
			{
				"x": -0.9760742451,
				"y": -2.3954006813,
				"z": -1.1108192645,
				"element": "H" 
			},
			{
				"x": -0.8051514479,
				"y": -1.2602901947,
				"z": -3.3138683718,
				"element": "H" 
			},
			{
				"x": -0.3184183611,
				"y": -3.0591349822,
				"z": 1.2637762179,
				"element": "H" 
			},
			{
				"x": -1.9858298938,
				"y": -2.8609697377,
				"z": 0.7108994637,
				"element": "H" 
			},
			{
				"x": -1.9393523589,
				"y": -3.8889779113,
				"z": 2.9349137303,
				"element": "H" 
			},
			{
				"x": -2.7638512791,
				"y": -2.3405337001,
				"z": 2.9551267198,
				"element": "H" 
			},
			{
				"x": -1.4868321893,
				"y": -2.0273047735,
				"z": 4.8451750041,
				"element": "H" 
			},
			{
				"x": 0.1296480974,
				"y": -0.3813546545,
				"z": 4.3766549592,
				"element": "H" 
			},
			{
				"x": 0.8757589719,
				"y": -1.3199701657,
				"z": 3.0845259422,
				"element": "H" 
			},
			{
				"x": -1.8418069662,
				"y": 0.0805911287,
				"z": 2.8690299242,
				"element": "H" 
			},
			{
				"x": -0.3387472183,
				"y": 0.6599370046,
				"z": 2.1691551886,
				"element": "H" 
			},
			{
				"x": 1.3935919307,
				"y": -4.5738643879,
				"z": 3.9365988151,
				"element": "H" 
			}
		],
		 "valence_orbital": [ 
			{
				"type": "occ",
				"energy": -0.27798,
				"method": "rhf"
			},
			{
				"type": "occ",
				"energy": -0.26719,
				"method": "rhf"
			},
			{
				"type": "occ",
				"energy": -0.25868,
				"method": "rhf"
			},
			{
				"type": "occ",
				"energy": -0.24092,
				"method": "rhf"
			},
			{
				"type": "occ",
				"energy": -0.20502,
				"method": "rhf"
			},
			{
				"type": "unocc",
				"energy": -0.02377,
				"method": "rhf"
			},
			{
				"type": "unocc",
				"energy": -0.01778,
				"method": "rhf"
			},
			{
				"type": "unocc",
				"energy": -0.00025,
				"method": "rhf"
			},
			{
				"type": "unocc",
				"energy": 0.05626,
				"method": "rhf"
			},
			{
				"type": "unocc",
				"energy": 0.06694,
				"method": "rhf"
			}
		],
		"cosmo_sigma_profile": { 
			"-0.025": 0.0,
			"-0.024": 0.0,
			"-0.023": 0.0,
			"-0.022": 0.0,
			"-0.021": 0.0,
			"-0.02": 0.0,
			"-0.019": 0.0319976594911,
			"-0.018": 0.718647051117,
			"-0.017": 0.960767932848,
			"-0.016": 0.671402976465,
			"-0.015": 1.31308574232,
			"-0.014": 1.01748729914,
			"-0.013": 2.72832348876,
			"-0.012": 3.38025315621,
			"-0.011": 3.61153296116,
			"-0.01": 3.08734409112,
			"-0.009": 3.21290302523,
			"-0.008": 3.16646745085,
			"-0.007": 4.30269004767,
			"-0.006": 6.55556901961,
			"-0.005": 19.5064366674,
			"-0.004": 29.1555678897,
			"-0.003": 27.1615525774,
			"-0.002": 23.0398616393,
			"-0.001": 16.0891233149,
			"0.0": 11.9457490977,
			"0.001": 14.9823575451,
			"0.002": 17.6865838389,
			"0.003": 16.1190762733,
			"0.004": 11.3444260718,
			"0.005": 9.13620206207,
			"0.006": 6.34809514705,
			"0.007": 5.75624330185,
			"0.008": 5.0152696933,
			"0.009": 4.09079092893,
			"0.01": 4.50603870295,
			"0.011": 6.41042906526,
			"0.012": 7.22404924905,
			"0.013": 5.07881407499,
			"0.014": 5.39227497754,
			"0.015": 0.865257632415,
			"0.016": 0.0,
			"0.017": 0.0,
			"0.018": 0.0,
			"0.019": 0.0,
			"0.02": 0.0,
			"0.021": 0.0,
			"0.022": 0.0,
			"0.023": 0.0,
			"0.024": 0.0,
			"0.025": 0.0
		}
	}
}
