{
	 "smiles": "NC1=NN(C=C1C#N)C1=C(F)C=C(C=C1)C#N", 
	 "Tm": 532.15, 
	 "num_atms": 23, 
	 "gaussian": { 
		 "optdone": 1, 
		 "sigma_profile": "yes", 
		 "theory": "DFT", 
		 "functional": "B3LYP", 
		 "basiset": "6-31G**", 
		 "properties": { 
			 "R2extent": 5257.973, 
			 "electric_dipole_moment_norm": 2.73241930164, 
			 "electric_quadrupole_moment_norm": 35.6539377252, 
			 "total_energy": -796.324064208, 
			 "HOMO_LUMO_gap": 0.15339, 
			 "cosmo_polarized_energy": -18.34, 
			 "cosmo_cavitation_energy": 31.34, 
			 "cosmo_dispersion_energy": -21.81, 
			 "cosmo_repulsion_energy": 1.66, 
			 "cosmo_total_nonelectrostatic_energy": 11.18, 
			 "SMD_solvation_energy": 8.15 
		},
		"coords": [
			{
				"x": -3.6717481469,
				"y": -0.314613867,
				"z": -3.1849711218,
				"element": "N" 
			},
			{
				"x": -2.8054063767,
				"y": 0.0885953056,
				"z": -2.203148985,
				"element": "C" 
			},
			{
				"x": -1.8517953579,
				"y": -0.6987193184,
				"z": -1.7311529613,
				"element": "N" 
			},
			{
				"x": -1.1636391162,
				"y": 0.0756515553,
				"z": -0.8194010202,
				"element": "N" 
			},
			{
				"x": -1.685263224,
				"y": 1.3285919186,
				"z": -0.7200953753,
				"element": "C" 
			},
			{
				"x": -2.7540003726,
				"y": 1.3909988469,
				"z": -1.5952807955,
				"element": "C" 
			},
			{
				"x": -3.6263225967,
				"y": 2.475121365,
				"z": -1.8486993877,
				"element": "C" 
			},
			{
				"x": -4.3764114538,
				"y": 3.3338403659,
				"z": -2.0879536727,
				"element": "N" 
			},
			{
				"x": -0.0547185742,
				"y": -0.4932772938,
				"z": -0.1650008705,
				"element": "C" 
			},
			{
				"x": 0.6211458373,
				"y": 0.1478628703,
				"z": 0.885980695,
				"element": "C" 
			},
			{
				"x": 0.2129739066,
				"y": 1.364686112,
				"z": 1.3128266739,
				"element": "F" 
			},
			{
				"x": 1.7089945797,
				"y": -0.4240255906,
				"z": 1.5200087622,
				"element": "C" 
			},
			{
				"x": 2.1575527268,
				"y": -1.6895717758,
				"z": 1.1129018776,
				"element": "C" 
			},
			{
				"x": 1.4929512021,
				"y": -2.352334132,
				"z": 0.0673913648,
				"element": "C" 
			},
			{
				"x": 0.4056642346,
				"y": -1.7602437989,
				"z": -0.5591347516,
				"element": "C" 
			},
			{
				"x": 3.2820027331,
				"y": -2.2945057592,
				"z": 1.7614433758,
				"element": "C" 
			},
			{
				"x": 4.1949959579,
				"y": -2.7889430642,
				"z": 2.2861115176,
				"element": "N" 
			},
			{
				"x": -4.5491962617,
				"y": 0.1813225878,
				"z": -3.2417839945,
				"element": "H" 
			},
			{
				"x": -3.7374803898,
				"y": -1.3123444832,
				"z": -3.3254861494,
				"element": "H" 
			},
			{
				"x": -1.2811626772,
				"y": 2.0757616803,
				"z": -0.0605960198,
				"element": "H" 
			},
			{
				"x": 2.1913264005,
				"y": 0.1176923917,
				"z": 2.3249861934,
				"element": "H" 
			},
			{
				"x": 1.8344814883,
				"y": -3.3302889669,
				"z": -0.2521134339,
				"element": "H" 
			},
			{
				"x": -0.1157445192,
				"y": -2.2593569494,
				"z": -1.3648319212,
				"element": "H" 
			}
		],
		 "valence_orbital": [ 
			{
				"type": "occ",
				"energy": -0.31937,
				"method": "rhf"
			},
			{
				"type": "occ",
				"energy": -0.29441,
				"method": "rhf"
			},
			{
				"type": "occ",
				"energy": -0.28746,
				"method": "rhf"
			},
			{
				"type": "occ",
				"energy": -0.27115,
				"method": "rhf"
			},
			{
				"type": "occ",
				"energy": -0.23323,
				"method": "rhf"
			},
			{
				"type": "unocc",
				"energy": -0.07984,
				"method": "rhf"
			},
			{
				"type": "unocc",
				"energy": -0.03953,
				"method": "rhf"
			},
			{
				"type": "unocc",
				"energy": -0.02225,
				"method": "rhf"
			},
			{
				"type": "unocc",
				"energy": 0.01248,
				"method": "rhf"
			},
			{
				"type": "unocc",
				"energy": 0.01637,
				"method": "rhf"
			}
		],
		"cosmo_sigma_profile": { 
			"-0.025": 0.0,
			"-0.024": 0.0,
			"-0.023": 0.0,
			"-0.022": 0.0,
			"-0.021": 0.0,
			"-0.02": 0.0,
			"-0.019": 0.0,
			"-0.018": 0.0,
			"-0.017": 0.0,
			"-0.016": 0.0,
			"-0.015": 0.0588679564427,
			"-0.014": 1.87141449858,
			"-0.013": 2.02656461244,
			"-0.012": 2.46060221601,
			"-0.011": 2.72004831528,
			"-0.01": 5.40081054325,
			"-0.009": 6.26297988599,
			"-0.008": 6.82989266864,
			"-0.007": 9.60090790536,
			"-0.006": 9.48371228628,
			"-0.005": 10.8057869199,
			"-0.004": 10.8092449426,
			"-0.003": 14.416441953,
			"-0.002": 20.6927802624,
			"-0.001": 26.8191927001,
			"0.0": 23.3354278742,
			"0.001": 14.520084674,
			"0.002": 10.959394525,
			"0.003": 10.0947411908,
			"0.004": 6.1506455301,
			"0.005": 6.47403351236,
			"0.006": 8.47086959933,
			"0.007": 7.11391974214,
			"0.008": 8.57221159307,
			"0.009": 9.30780077112,
			"0.01": 6.69436439573,
			"0.011": 6.58713563873,
			"0.012": 4.55442035437,
			"0.013": 2.53706282535,
			"0.014": 0.0847416104196,
			"0.015": 0.0,
			"0.016": 0.0,
			"0.017": 0.0,
			"0.018": 0.0,
			"0.019": 0.0,
			"0.02": 0.0,
			"0.021": 0.0,
			"0.022": 0.0,
			"0.023": 0.0,
			"0.024": 0.0,
			"0.025": 0.0
		}
	}
}
