{
	 "smiles": "COC1=CC(F)=C(Br)C(F)=C1", 
	 "Tm": 301.15, 
	 "num_atms": 16, 
	 "gaussian": { 
		 "optdone": 1, 
		 "sigma_profile": "yes", 
		 "theory": "DFT", 
		 "functional": "B3LYP", 
		 "basiset": "6-31G**", 
		 "properties": { 
			 "R2extent": 4388.0374, 
			 "electric_dipole_moment_norm": 3.6918378621, 
			 "electric_quadrupole_moment_norm": 3.25682268323, 
			 "total_energy": -3116.03351174, 
			 "HOMO_LUMO_gap": 0.21739, 
			 "cosmo_polarized_energy": -5.67, 
			 "cosmo_cavitation_energy": 23.62, 
			 "cosmo_dispersion_energy": -17.72, 
			 "cosmo_repulsion_energy": 1.38, 
			 "cosmo_total_nonelectrostatic_energy": 7.28, 
			 "SMD_solvation_energy": 4.81 
		},
		"coords": [
			{
				"x": -0.1343734212,
				"y": -0.6450067423,
				"z": 2.3003682918,
				"element": "C" 
			},
			{
				"x": 0.1728484824,
				"y": 0.4469439733,
				"z": 1.4430487561,
				"element": "O" 
			},
			{
				"x": 0.0602363938,
				"y": 0.2668505214,
				"z": 0.1023473559,
				"element": "C" 
			},
			{
				"x": 0.3773777973,
				"y": 1.3819269683,
				"z": -0.6878571913,
				"element": "C" 
			},
			{
				"x": 0.2879604697,
				"y": 1.2804302091,
				"z": -2.0650876301,
				"element": "C" 
			},
			{
				"x": 0.5926860512,
				"y": 2.3503375733,
				"z": -2.8123953373,
				"element": "F" 
			},
			{
				"x": -0.1093200743,
				"y": 0.1001007356,
				"z": -2.7029177814,
				"element": "C" 
			},
			{
				"x": -0.2228528072,
				"y": -0.0109712992,
				"z": -4.5859834675,
				"element": "Br" 
			},
			{
				"x": -0.416808769,
				"y": -0.9872156424,
				"z": -1.8902354819,
				"element": "C" 
			},
			{
				"x": -0.8024690193,
				"y": -2.1400384662,
				"z": -2.4565375689,
				"element": "F" 
			},
			{
				"x": -0.3411054794,
				"y": -0.9308708959,
				"z": -0.5013262777,
				"element": "C" 
			},
			{
				"x": 0.5279636046,
				"y": -1.4997704394,
				"z": 2.1157118257,
				"element": "H" 
			},
			{
				"x": 0.022746099,
				"y": -0.280235795,
				"z": 3.3159042562,
				"element": "H" 
			},
			{
				"x": -1.177917747,
				"y": -0.9637353979,
				"z": 2.1870940387,
				"element": "H" 
			},
			{
				"x": 0.6884172961,
				"y": 2.3109416833,
				"z": -0.2263959793,
				"element": "H" 
			},
			{
				"x": -0.5961888768,
				"y": -1.8180869859,
				"z": 0.0621621909,
				"element": "H" 
			}
		],
		 "valence_orbital": [ 
			{
				"type": "occ",
				"energy": -0.34665,
				"method": "rhf"
			},
			{
				"type": "occ",
				"energy": -0.29834,
				"method": "rhf"
			},
			{
				"type": "occ",
				"energy": -0.29061,
				"method": "rhf"
			},
			{
				"type": "occ",
				"energy": -0.25826,
				"method": "rhf"
			},
			{
				"type": "occ",
				"energy": -0.2301,
				"method": "rhf"
			},
			{
				"type": "unocc",
				"energy": -0.01271,
				"method": "rhf"
			},
			{
				"type": "unocc",
				"energy": -0.00869,
				"method": "rhf"
			},
			{
				"type": "unocc",
				"energy": -0.00305,
				"method": "rhf"
			},
			{
				"type": "unocc",
				"energy": 0.08751,
				"method": "rhf"
			},
			{
				"type": "unocc",
				"energy": 0.09439,
				"method": "rhf"
			}
		],
		"cosmo_sigma_profile": { 
			"-0.025": 0.0,
			"-0.024": 0.0,
			"-0.023": 0.0,
			"-0.022": 0.0,
			"-0.021": 0.0,
			"-0.02": 0.0,
			"-0.019": 0.0,
			"-0.018": 0.0,
			"-0.017": 0.0,
			"-0.016": 0.0,
			"-0.015": 0.0,
			"-0.014": 0.0,
			"-0.013": 0.0,
			"-0.012": 0.0,
			"-0.011": 0.0,
			"-0.01": 0.0,
			"-0.009": 0.377287358425,
			"-0.008": 3.54519718112,
			"-0.007": 4.13897608924,
			"-0.006": 10.9835314647,
			"-0.005": 11.4309426863,
			"-0.004": 11.5762615393,
			"-0.003": 10.8471765034,
			"-0.002": 7.98428229674,
			"-0.001": 12.9981767712,
			"0.0": 23.0914138677,
			"0.001": 21.3495669915,
			"0.002": 15.9314440608,
			"0.003": 24.2614716871,
			"0.004": 23.1732002741,
			"0.005": 5.67307926934,
			"0.006": 1.39971367019,
			"0.007": 1.43614002576,
			"0.008": 1.14347587908,
			"0.009": 1.55518043266,
			"0.01": 0.152263750257,
			"0.011": 0.0,
			"0.012": 0.0,
			"0.013": 0.0,
			"0.014": 0.0,
			"0.015": 0.0,
			"0.016": 0.0,
			"0.017": 0.0,
			"0.018": 0.0,
			"0.019": 0.0,
			"0.02": 0.0,
			"0.021": 0.0,
			"0.022": 0.0,
			"0.023": 0.0,
			"0.024": 0.0,
			"0.025": 0.0
		}
	}
}
