{
	 "smiles": "NC1=CC(Br)=CN=C1", 
	 "Tm": 340.15, 
	 "num_atms": 13, 
	 "gaussian": { 
		 "optdone": 1, 
		 "sigma_profile": "yes", 
		 "theory": "DFT", 
		 "functional": "B3LYP", 
		 "basiset": "6-31G**", 
		 "properties": { 
			 "R2extent": 2315.8549, 
			 "electric_dipole_moment_norm": 3.73674375493, 
			 "electric_quadrupole_moment_norm": 5.86988205333, 
			 "total_energy": -2874.44606031, 
			 "HOMO_LUMO_gap": 0.1941, 
			 "cosmo_polarized_energy": -10.71, 
			 "cosmo_cavitation_energy": 19.55, 
			 "cosmo_dispersion_energy": -15.18, 
			 "cosmo_repulsion_energy": 1.26, 
			 "cosmo_total_nonelectrostatic_energy": 5.63, 
			 "SMD_solvation_energy": 0.92 
		},
		"coords": [
			{
				"x": -1.0073234477,
				"y": 2.0937447721,
				"z": -0.7182194759,
				"element": "N" 
			},
			{
				"x": -0.4397958052,
				"y": 0.9415718971,
				"z": -0.191433517,
				"element": "C" 
			},
			{
				"x": -0.5987717648,
				"y": 0.5931347104,
				"z": 1.1589464577,
				"element": "C" 
			},
			{
				"x": 0.0468312358,
				"y": -0.5448705233,
				"z": 1.6251559594,
				"element": "C" 
			},
			{
				"x": -0.1424199715,
				"y": -1.0609362507,
				"z": 3.4544882829,
				"element": "Br" 
			},
			{
				"x": 0.8310086461,
				"y": -1.317838605,
				"z": 0.7686663332,
				"element": "C" 
			},
			{
				"x": 0.9813488016,
				"y": -0.987608494,
				"z": -0.5182428925,
				"element": "N" 
			},
			{
				"x": 0.3694828098,
				"y": 0.1000173491,
				"z": -0.9811741284,
				"element": "C" 
			},
			{
				"x": -1.820157838,
				"y": 2.4507037939,
				"z": -0.2362398991,
				"element": "H" 
			},
			{
				"x": -1.1124784481,
				"y": 2.1113500638,
				"z": -1.7229410086,
				"element": "H" 
			},
			{
				"x": -1.2065967116,
				"y": 1.198059114,
				"z": 1.8238289456,
				"element": "H" 
			},
			{
				"x": 1.3386852257,
				"y": -2.2089715456,
				"z": 1.1248648201,
				"element": "H" 
			},
			{
				"x": 0.519787268,
				"y": 0.3332437182,
				"z": -2.0352998774,
				"element": "H" 
			}
		],
		 "valence_orbital": [ 
			{
				"type": "occ",
				"energy": -0.32465,
				"method": "rhf"
			},
			{
				"type": "occ",
				"energy": -0.29218,
				"method": "rhf"
			},
			{
				"type": "occ",
				"energy": -0.2597,
				"method": "rhf"
			},
			{
				"type": "occ",
				"energy": -0.25772,
				"method": "rhf"
			},
			{
				"type": "occ",
				"energy": -0.22246,
				"method": "rhf"
			},
			{
				"type": "unocc",
				"energy": -0.02836,
				"method": "rhf"
			},
			{
				"type": "unocc",
				"energy": -0.00463,
				"method": "rhf"
			},
			{
				"type": "unocc",
				"energy": 0.00609,
				"method": "rhf"
			},
			{
				"type": "unocc",
				"energy": 0.0661,
				"method": "rhf"
			},
			{
				"type": "unocc",
				"energy": 0.11698,
				"method": "rhf"
			}
		],
		"cosmo_sigma_profile": { 
			"-0.025": 0.0,
			"-0.024": 0.0,
			"-0.023": 0.0,
			"-0.022": 0.0,
			"-0.021": 0.0,
			"-0.02": 0.0,
			"-0.019": 0.0,
			"-0.018": 0.0,
			"-0.017": 0.0,
			"-0.016": 0.0,
			"-0.015": 0.0,
			"-0.014": 0.503255217418,
			"-0.013": 3.08197753181,
			"-0.012": 2.82702982617,
			"-0.011": 2.83048723421,
			"-0.01": 3.69103574304,
			"-0.009": 3.84012663218,
			"-0.008": 3.56298139589,
			"-0.007": 4.58472296086,
			"-0.006": 5.61271681386,
			"-0.005": 5.04319472037,
			"-0.004": 6.57783044696,
			"-0.003": 6.5649087969,
			"-0.002": 6.06190003163,
			"-0.001": 7.99180174809,
			"0.0": 8.05927508795,
			"0.001": 15.0889504265,
			"0.002": 20.8838387891,
			"0.003": 13.5302055035,
			"0.004": 14.3348730696,
			"0.005": 7.49742168638,
			"0.006": 2.52850709541,
			"0.007": 2.66426640957,
			"0.008": 1.59301942878,
			"0.009": 1.42869291116,
			"0.01": 2.375505914,
			"0.011": 1.59767719616,
			"0.012": 1.40502649045,
			"0.013": 1.42622977684,
			"0.014": 0.81429428476,
			"0.015": 1.00562961985,
			"0.016": 0.584208804222,
			"0.017": 0.0645795123129,
			"0.018": 0.0,
			"0.019": 0.0,
			"0.02": 0.0,
			"0.021": 0.0,
			"0.022": 0.0,
			"0.023": 0.0,
			"0.024": 0.0,
			"0.025": 0.0
		}
	}
}
