{
	 "smiles": "CCOC(=O)C(=CNC1=CC=C(C)C=C1)C#N", 
	 "Tm": 408.15, 
	 "num_atms": 31, 
	 "gaussian": { 
		 "optdone": 1, 
		 "sigma_profile": "yes", 
		 "theory": "DFT", 
		 "functional": "B3LYP", 
		 "basiset": "6-31G**", 
		 "properties": { 
			 "R2extent": 7362.1357, 
			 "electric_dipole_moment_norm": 5.27763729333, 
			 "electric_quadrupole_moment_norm": 30.2594457011, 
			 "total_energy": -763.782557524, 
			 "HOMO_LUMO_gap": 0.1573, 
			 "cosmo_polarized_energy": -15.49, 
			 "cosmo_cavitation_energy": 36.82, 
			 "cosmo_dispersion_energy": -25.83, 
			 "cosmo_repulsion_energy": 2.03, 
			 "cosmo_total_nonelectrostatic_energy": 13.02, 
			 "SMD_solvation_energy": 8.77 
		},
		"coords": [
			{
				"x": -5.0121454781,
				"y": -4.5682408968,
				"z": 0.83668576,
				"element": "C" 
			},
			{
				"x": -3.704140512,
				"y": -3.8340882766,
				"z": 1.059672776,
				"element": "C" 
			},
			{
				"x": -3.7644981201,
				"y": -2.607518744,
				"z": 0.2940564991,
				"element": "O" 
			},
			{
				"x": -2.6883504855,
				"y": -1.810175937,
				"z": 0.3576707043,
				"element": "C" 
			},
			{
				"x": -1.6891184036,
				"y": -2.0825590172,
				"z": 1.0260593452,
				"element": "O" 
			},
			{
				"x": -2.8250540568,
				"y": -0.5922382402,
				"z": -0.4465535816,
				"element": "C" 
			},
			{
				"x": -1.8091094376,
				"y": 0.3473211589,
				"z": -0.4843420325,
				"element": "C" 
			},
			{
				"x": -0.6479896638,
				"y": 0.2441909585,
				"z": 0.1772139746,
				"element": "N" 
			},
			{
				"x": 0.4103801298,
				"y": 1.1742066525,
				"z": 0.2023649864,
				"element": "C" 
			},
			{
				"x": 0.2865592091,
				"y": 2.4874369391,
				"z": -0.2691990355,
				"element": "C" 
			},
			{
				"x": 1.3818157881,
				"y": 3.3473215957,
				"z": -0.2209987401,
				"element": "C" 
			},
			{
				"x": 2.6157723249,
				"y": 2.9436382375,
				"z": 0.3047615487,
				"element": "C" 
			},
			{
				"x": 3.7835130739,
				"y": 3.8976188754,
				"z": 0.38464634,
				"element": "C" 
			},
			{
				"x": 2.7179774576,
				"y": 1.6299110625,
				"z": 0.7820641905,
				"element": "C" 
			},
			{
				"x": 1.6379192147,
				"y": 0.7544063611,
				"z": 0.7337061305,
				"element": "C" 
			},
			{
				"x": -4.0021571203,
				"y": -0.3540758745,
				"z": -1.2115496263,
				"element": "C" 
			},
			{
				"x": -4.9550632444,
				"y": -0.1351312277,
				"z": -1.8452982305,
				"element": "N" 
			},
			{
				"x": -5.8602994094,
				"y": -3.9654076155,
				"z": 1.1725763606,
				"element": "H" 
			},
			{
				"x": -5.1537104531,
				"y": -4.8003132428,
				"z": -0.2224166586,
				"element": "H" 
			},
			{
				"x": -5.0092991248,
				"y": -5.5066909316,
				"z": 1.3998307775,
				"element": "H" 
			},
			{
				"x": -2.8403857111,
				"y": -4.4163649727,
				"z": 0.7236640363,
				"element": "H" 
			},
			{
				"x": -3.5446844762,
				"y": -3.5836073211,
				"z": 2.1131689512,
				"element": "H" 
			},
			{
				"x": -1.947022152,
				"y": 1.230547533,
				"z": -1.0985189823,
				"element": "H" 
			},
			{
				"x": -0.5559353838,
				"y": -0.6246871828,
				"z": 0.7105182076,
				"element": "H" 
			},
			{
				"x": -0.6563694598,
				"y": 2.8545073671,
				"z": -0.6604073629,
				"element": "H" 
			},
			{
				"x": 1.2671933063,
				"y": 4.3616478722,
				"z": -0.5944753344,
				"element": "H" 
			},
			{
				"x": 3.7186198013,
				"y": 4.674609224,
				"z": -0.3826530402,
				"element": "H" 
			},
			{
				"x": 4.7364237892,
				"y": 3.3750573229,
				"z": 0.2563024302,
				"element": "H" 
			},
			{
				"x": 3.8194715274,
				"y": 4.4029113282,
				"z": 1.3580782464,
				"element": "H" 
			},
			{
				"x": 3.6612691436,
				"y": 1.2811638921,
				"z": 1.1944598225,
				"element": "H" 
			},
			{
				"x": 1.7445179263,
				"y": -0.2641969003,
				"z": 1.0972115373,
				"element": "H" 
			}
		],
		 "valence_orbital": [ 
			{
				"type": "occ",
				"energy": -0.30567,
				"method": "rhf"
			},
			{
				"type": "occ",
				"energy": -0.28332,
				"method": "rhf"
			},
			{
				"type": "occ",
				"energy": -0.26817,
				"method": "rhf"
			},
			{
				"type": "occ",
				"energy": -0.26646,
				"method": "rhf"
			},
			{
				"type": "occ",
				"energy": -0.21476,
				"method": "rhf"
			},
			{
				"type": "unocc",
				"energy": -0.05746,
				"method": "rhf"
			},
			{
				"type": "unocc",
				"energy": -0.01785,
				"method": "rhf"
			},
			{
				"type": "unocc",
				"energy": 0.00643,
				"method": "rhf"
			},
			{
				"type": "unocc",
				"energy": 0.03188,
				"method": "rhf"
			},
			{
				"type": "unocc",
				"energy": 0.04471,
				"method": "rhf"
			}
		],
		"cosmo_sigma_profile": { 
			"-0.025": 0.0,
			"-0.024": 0.0,
			"-0.023": 0.0,
			"-0.022": 0.0,
			"-0.021": 0.0,
			"-0.02": 0.0,
			"-0.019": 0.0,
			"-0.018": 0.0,
			"-0.017": 0.0,
			"-0.016": 0.0,
			"-0.015": 0.0,
			"-0.014": 0.0,
			"-0.013": 0.0,
			"-0.012": 0.538396263753,
			"-0.011": 2.5184656454,
			"-0.01": 2.85196457986,
			"-0.009": 3.655235746,
			"-0.008": 3.32609559218,
			"-0.007": 4.64376345749,
			"-0.006": 7.93350649044,
			"-0.005": 17.6822186104,
			"-0.004": 29.3829793105,
			"-0.003": 27.2624772088,
			"-0.002": 28.372932288,
			"-0.001": 29.771557297,
			"0.0": 29.543987006,
			"0.001": 16.1339817788,
			"0.002": 12.8983602857,
			"0.003": 11.4348228763,
			"0.004": 12.0446299166,
			"0.005": 13.7605754842,
			"0.006": 4.40957226817,
			"0.007": 5.48825370952,
			"0.008": 6.02711669654,
			"0.009": 5.44311648861,
			"0.01": 5.11291740591,
			"0.011": 5.21956125575,
			"0.012": 4.32734987288,
			"0.013": 2.55550548953,
			"0.014": 1.54392965305,
			"0.015": 0.0798693625619,
			"0.016": 0.0,
			"0.017": 0.0,
			"0.018": 0.0,
			"0.019": 0.0,
			"0.02": 0.0,
			"0.021": 0.0,
			"0.022": 0.0,
			"0.023": 0.0,
			"0.024": 0.0,
			"0.025": 0.0
		}
	}
}
