{
	 "smiles": "CCOC1=CC=C(NC(=O)CO)C=C1", 
	 "Tm": 424.15, 
	 "num_atms": 27, 
	 "gaussian": { 
		 "optdone": 1, 
		 "sigma_profile": "yes", 
		 "theory": "DFT", 
		 "functional": "B3LYP", 
		 "basiset": "6-31G**", 
		 "properties": { 
			 "R2extent": 4613.346, 
			 "electric_dipole_moment_norm": 5.85599096738, 
			 "electric_quadrupole_moment_norm": 17.5064090687, 
			 "total_energy": -669.321782156, 
			 "HOMO_LUMO_gap": 0.21133, 
			 "cosmo_polarized_energy": -14.0, 
			 "cosmo_cavitation_energy": 31.0, 
			 "cosmo_dispersion_energy": -22.52, 
			 "cosmo_repulsion_energy": 1.82, 
			 "cosmo_total_nonelectrostatic_energy": 10.31, 
			 "SMD_solvation_energy": 6.46 
		},
		"coords": [
			{
				"x": 1.9840988305,
				"y": 1.8090692627,
				"z": -4.3115717078,
				"element": "C" 
			},
			{
				"x": 0.8110481974,
				"y": 1.474948114,
				"z": -3.4073720466,
				"element": "C" 
			},
			{
				"x": 1.308575442,
				"y": 1.3929221265,
				"z": -2.069810455,
				"element": "O" 
			},
			{
				"x": 0.4447691115,
				"y": 1.0934387587,
				"z": -1.063124187,
				"element": "C" 
			},
			{
				"x": 1.0078353552,
				"y": 1.0245966677,
				"z": 0.2221894175,
				"element": "C" 
			},
			{
				"x": 0.2140197603,
				"y": 0.7164994284,
				"z": 1.3179501632,
				"element": "C" 
			},
			{
				"x": -1.1601868777,
				"y": 0.4830190931,
				"z": 1.1587275477,
				"element": "C" 
			},
			{
				"x": -1.9783022681,
				"y": 0.193844546,
				"z": 2.2965686788,
				"element": "N" 
			},
			{
				"x": -2.4826764218,
				"y": -1.023240082,
				"z": 2.6538959625,
				"element": "C" 
			},
			{
				"x": -3.1559117201,
				"y": -1.1774718856,
				"z": 3.6703539286,
				"element": "O" 
			},
			{
				"x": -2.1843733786,
				"y": -2.2308065923,
				"z": 1.7591993438,
				"element": "C" 
			},
			{
				"x": -2.7401440652,
				"y": -3.3824389655,
				"z": 2.3287347467,
				"element": "O" 
			},
			{
				"x": -1.7189948352,
				"y": 0.5685915677,
				"z": -0.1174736142,
				"element": "C" 
			},
			{
				"x": -0.926927794,
				"y": 0.8608120331,
				"z": -1.2301515471,
				"element": "C" 
			},
			{
				"x": 2.4331435013,
				"y": 2.7636840554,
				"z": -4.0239503986,
				"element": "H" 
			},
			{
				"x": 2.752253942,
				"y": 1.0334395729,
				"z": -4.2489039165,
				"element": "H" 
			},
			{
				"x": 1.6478371044,
				"y": 1.8820781936,
				"z": -5.3502448607,
				"element": "H" 
			},
			{
				"x": 0.0347154531,
				"y": 2.2504562956,
				"z": -3.4686984416,
				"element": "H" 
			},
			{
				"x": 0.3547071331,
				"y": 0.5171124979,
				"z": -3.6937509494,
				"element": "H" 
			},
			{
				"x": 2.071369124,
				"y": 1.2086525901,
				"z": 0.3312640503,
				"element": "H" 
			},
			{
				"x": 0.6535113066,
				"y": 0.6515136453,
				"z": 2.3089283432,
				"element": "H" 
			},
			{
				"x": -2.1706609814,
				"y": 0.9311019343,
				"z": 2.9645029061,
				"element": "H" 
			},
			{
				"x": -2.5910250604,
				"y": -2.0471922489,
				"z": 0.7529428597,
				"element": "H" 
			},
			{
				"x": -1.0936226664,
				"y": -2.3262098091,
				"z": 1.6413144771,
				"element": "H" 
			},
			{
				"x": -3.1878056211,
				"y": -3.0619820088,
				"z": 3.1345185137,
				"element": "H" 
			},
			{
				"x": -2.786246256,
				"y": 0.4121915091,
				"z": -0.2418469478,
				"element": "H" 
			},
			{
				"x": -1.3879063154,
				"y": 0.9148697003,
				"z": -2.2086918665,
				"element": "H" 
			}
		],
		 "valence_orbital": [ 
			{
				"type": "occ",
				"energy": -0.27418,
				"method": "rhf"
			},
			{
				"type": "occ",
				"energy": -0.26876,
				"method": "rhf"
			},
			{
				"type": "occ",
				"energy": -0.26809,
				"method": "rhf"
			},
			{
				"type": "occ",
				"energy": -0.25252,
				"method": "rhf"
			},
			{
				"type": "occ",
				"energy": -0.23091,
				"method": "rhf"
			},
			{
				"type": "unocc",
				"energy": -0.01958,
				"method": "rhf"
			},
			{
				"type": "unocc",
				"energy": -0.0109,
				"method": "rhf"
			},
			{
				"type": "unocc",
				"energy": 0.02423,
				"method": "rhf"
			},
			{
				"type": "unocc",
				"energy": 0.08041,
				"method": "rhf"
			},
			{
				"type": "unocc",
				"energy": 0.0891,
				"method": "rhf"
			}
		],
		"cosmo_sigma_profile": { 
			"-0.025": 0.0,
			"-0.024": 0.0,
			"-0.023": 0.0,
			"-0.022": 0.0,
			"-0.021": 0.0,
			"-0.02": 0.0,
			"-0.019": 0.0,
			"-0.018": 0.0,
			"-0.017": 0.0,
			"-0.016": 0.0,
			"-0.015": 0.200848957161,
			"-0.014": 1.01920746274,
			"-0.013": 1.2898053404,
			"-0.012": 0.899547167152,
			"-0.011": 0.518949868268,
			"-0.01": 1.39396280189,
			"-0.009": 1.0782920781,
			"-0.008": 1.57449330553,
			"-0.007": 3.96139243223,
			"-0.006": 12.9509749042,
			"-0.005": 20.4506158314,
			"-0.004": 24.3601618789,
			"-0.003": 22.8537259603,
			"-0.002": 20.7487653033,
			"-0.001": 18.9284253894,
			"0.0": 18.3909020067,
			"0.001": 13.2142215505,
			"0.002": 12.1432117199,
			"0.003": 13.6011512625,
			"0.004": 13.5990714525,
			"0.005": 6.55642409661,
			"0.006": 2.92148402159,
			"0.007": 4.03298756913,
			"0.008": 4.47723283065,
			"0.009": 4.02189138553,
			"0.01": 3.35570197368,
			"0.011": 3.54942582445,
			"0.012": 4.50141068238,
			"0.013": 4.45159741015,
			"0.014": 3.10159225638,
			"0.015": 0.504585266407,
			"0.016": 0.0,
			"0.017": 0.0,
			"0.018": 0.0,
			"0.019": 0.0,
			"0.02": 0.0,
			"0.021": 0.0,
			"0.022": 0.0,
			"0.023": 0.0,
			"0.024": 0.0,
			"0.025": 0.0
		}
	}
}
