{
	 "smiles": "CN(C)C(=O)COC(=O)C1=CC=CC=C1OC(C)=O", 
	 "Tm": 348.65, 
	 "num_atms": 34, 
	 "gaussian": { 
		 "optdone": 1, 
		 "sigma_profile": "yes", 
		 "theory": "DFT", 
		 "functional": "B3LYP", 
		 "basiset": "6-31G**", 
		 "properties": { 
			 "R2extent": 6134.4759, 
			 "electric_dipole_moment_norm": 4.56708227428, 
			 "electric_quadrupole_moment_norm": 10.9843711459, 
			 "total_energy": -935.317574501, 
			 "HOMO_LUMO_gap": 0.18257, 
			 "cosmo_polarized_energy": -16.56, 
			 "cosmo_cavitation_energy": 38.48, 
			 "cosmo_dispersion_energy": -26.44, 
			 "cosmo_repulsion_energy": 2.08, 
			 "cosmo_total_nonelectrostatic_energy": 14.11, 
			 "SMD_solvation_energy": 9.14 
		},
		"coords": [
			{
				"x": 1.8402182505,
				"y": -1.9709258347,
				"z": 1.1362127052,
				"element": "C" 
			},
			{
				"x": 0.8367653424,
				"y": -3.0231418825,
				"z": 1.1890175993,
				"element": "N" 
			},
			{
				"x": 1.0612319878,
				"y": -4.0645078436,
				"z": 2.1827922251,
				"element": "C" 
			},
			{
				"x": -0.3005092307,
				"y": -3.0763516474,
				"z": 0.4276455642,
				"element": "C" 
			},
			{
				"x": -1.0935033249,
				"y": -4.0122536496,
				"z": 0.4734126115,
				"element": "O" 
			},
			{
				"x": -0.5777200074,
				"y": -1.9182479477,
				"z": -0.536912644,
				"element": "C" 
			},
			{
				"x": -0.7513346817,
				"y": -0.6858954771,
				"z": 0.1917808428,
				"element": "O" 
			},
			{
				"x": -0.1228748317,
				"y": 0.4228367844,
				"z": -0.27836549,
				"element": "C" 
			},
			{
				"x": 0.6460571834,
				"y": 0.3929825615,
				"z": -1.2216945868,
				"element": "O" 
			},
			{
				"x": -0.4768097851,
				"y": 1.6276661101,
				"z": 0.5224997122,
				"element": "C" 
			},
			{
				"x": -1.4056863247,
				"y": 1.536246058,
				"z": 1.5740669624,
				"element": "C" 
			},
			{
				"x": -1.7284241647,
				"y": 2.6446540588,
				"z": 2.3499473499,
				"element": "C" 
			},
			{
				"x": -1.1208511045,
				"y": 3.8744763435,
				"z": 2.0886329335,
				"element": "C" 
			},
			{
				"x": -0.2011988657,
				"y": 3.9899300438,
				"z": 1.0485168548,
				"element": "C" 
			},
			{
				"x": 0.1174676778,
				"y": 2.8806308234,
				"z": 0.2693117434,
				"element": "C" 
			},
			{
				"x": 1.0928305,
				"y": 3.0488859479,
				"z": -0.6983467975,
				"element": "O" 
			},
			{
				"x": 0.6982940427,
				"y": 3.0670369068,
				"z": -2.0237434455,
				"element": "C" 
			},
			{
				"x": 1.9082760621,
				"y": 3.0199242968,
				"z": -2.9140468549,
				"element": "C" 
			},
			{
				"x": -0.453740952,
				"y": 3.1172697011,
				"z": -2.3654814791,
				"element": "O" 
			},
			{
				"x": 2.8373299591,
				"y": -2.425091811,
				"z": 1.1613650126,
				"element": "H" 
			},
			{
				"x": 1.767249227,
				"y": -1.386651484,
				"z": 0.2203994518,
				"element": "H" 
			},
			{
				"x": 1.7572048637,
				"y": -1.2896751473,
				"z": 1.9938310988,
				"element": "H" 
			},
			{
				"x": 1.1279758363,
				"y": -3.628248163,
				"z": 3.1874719614,
				"element": "H" 
			},
			{
				"x": 0.2289149351,
				"y": -4.764883401,
				"z": 2.1413987941,
				"element": "H" 
			},
			{
				"x": 1.9973637296,
				"y": -4.5975309247,
				"z": 1.9756161406,
				"element": "H" 
			},
			{
				"x": -1.5230713693,
				"y": -2.1511839042,
				"z": -1.0280671132,
				"element": "H" 
			},
			{
				"x": 0.20540487,
				"y": -1.7915291193,
				"z": -1.2881026257,
				"element": "H" 
			},
			{
				"x": -1.8694768555,
				"y": 0.5779785133,
				"z": 1.7721001404,
				"element": "H" 
			},
			{
				"x": -2.4494517342,
				"y": 2.5490855592,
				"z": 3.155468963,
				"element": "H" 
			},
			{
				"x": -1.3649644127,
				"y": 4.7454415093,
				"z": 2.6895536867,
				"element": "H" 
			},
			{
				"x": 0.2830474625,
				"y": 4.9339801923,
				"z": 0.8234166743,
				"element": "H" 
			},
			{
				"x": 2.306270479,
				"y": 2.0010436726,
				"z": -2.8859254465,
				"element": "H" 
			},
			{
				"x": 2.6866089105,
				"y": 3.6965846956,
				"z": -2.553261304,
				"element": "H" 
			},
			{
				"x": 1.6206063254,
				"y": 3.2732644587,
				"z": -3.9340112407,
				"element": "H" 
			}
		],
		 "valence_orbital": [ 
			{
				"type": "occ",
				"energy": -0.27758,
				"method": "rhf"
			},
			{
				"type": "occ",
				"energy": -0.27206,
				"method": "rhf"
			},
			{
				"type": "occ",
				"energy": -0.25814,
				"method": "rhf"
			},
			{
				"type": "occ",
				"energy": -0.2503,
				"method": "rhf"
			},
			{
				"type": "occ",
				"energy": -0.24186,
				"method": "rhf"
			},
			{
				"type": "unocc",
				"energy": -0.05929,
				"method": "rhf"
			},
			{
				"type": "unocc",
				"energy": -0.01671,
				"method": "rhf"
			},
			{
				"type": "unocc",
				"energy": 0.01196,
				"method": "rhf"
			},
			{
				"type": "unocc",
				"energy": 0.01264,
				"method": "rhf"
			},
			{
				"type": "unocc",
				"energy": 0.04534,
				"method": "rhf"
			}
		],
		"cosmo_sigma_profile": { 
			"-0.025": 0.0,
			"-0.024": 0.0,
			"-0.023": 0.0,
			"-0.022": 0.0,
			"-0.021": 0.0,
			"-0.02": 0.0,
			"-0.019": 0.0,
			"-0.018": 0.0,
			"-0.017": 0.0,
			"-0.016": 0.0,
			"-0.015": 0.0,
			"-0.014": 0.0,
			"-0.013": 0.0,
			"-0.012": 0.0,
			"-0.011": 0.0,
			"-0.01": 0.0,
			"-0.009": 0.0,
			"-0.008": 1.45489262635,
			"-0.007": 9.71408659465,
			"-0.006": 17.7448172658,
			"-0.005": 27.9841780001,
			"-0.004": 29.7193398061,
			"-0.003": 32.2702458486,
			"-0.002": 31.5891141064,
			"-0.001": 19.7780405872,
			"0.0": 17.5733420073,
			"0.001": 20.7729931669,
			"0.002": 19.1067979505,
			"0.003": 16.8675366288,
			"0.004": 6.83195236035,
			"0.005": 6.8221077258,
			"0.006": 6.13365788955,
			"0.007": 7.62927204372,
			"0.008": 6.17433853483,
			"0.009": 4.36250725378,
			"0.01": 4.80811313476,
			"0.011": 6.44055276536,
			"0.012": 3.91315773629,
			"0.013": 4.33576314755,
			"0.014": 3.51044756106,
			"0.015": 0.26710280839,
			"0.016": 0.0,
			"0.017": 0.0,
			"0.018": 0.0,
			"0.019": 0.0,
			"0.02": 0.0,
			"0.021": 0.0,
			"0.022": 0.0,
			"0.023": 0.0,
			"0.024": 0.0,
			"0.025": 0.0
		}
	}
}
