{
	 "smiles": "CC(C)C1CCC(C)CC1OC(=O)C(=CC1=CC=CC=C1)C(=O)C1=CC=CC=C1", 
	 "Tm": 338.15, 
	 "num_atms": 59, 
	 "gaussian": { 
		 "optdone": 1, 
		 "sigma_profile": "yes", 
		 "theory": "DFT", 
		 "functional": "B3LYP", 
		 "basiset": "6-31G**", 
		 "properties": { 
			 "R2extent": 13030.1526, 
			 "electric_dipole_moment_norm": 1.88983724961, 
			 "electric_quadrupole_moment_norm": 19.5917982156, 
			 "total_energy": -1234.53845231, 
			 "HOMO_LUMO_gap": 0.15734, 
			 "cosmo_polarized_energy": -11.88, 
			 "cosmo_cavitation_energy": 58.95, 
			 "cosmo_dispersion_energy": -37.21, 
			 "cosmo_repulsion_energy": 2.83, 
			 "cosmo_total_nonelectrostatic_energy": 24.56, 
			 "SMD_solvation_energy": 10.02 
		},
		"coords": [
			{
				"x": -2.388607725,
				"y": -3.3589992021,
				"z": 1.7365495088,
				"element": "C" 
			},
			{
				"x": -2.7432652132,
				"y": -2.5585182602,
				"z": 0.4720003289,
				"element": "C" 
			},
			{
				"x": -3.7894450057,
				"y": -3.311097312,
				"z": -0.3653203004,
				"element": "C" 
			},
			{
				"x": -1.5152245228,
				"y": -2.1404565679,
				"z": -0.3836990073,
				"element": "C" 
			},
			{
				"x": -0.7280272183,
				"y": -3.3170870261,
				"z": -1.0017322064,
				"element": "C" 
			},
			{
				"x": 0.5884512239,
				"y": -2.8244427504,
				"z": -1.6189364814,
				"element": "C" 
			},
			{
				"x": 1.5643227333,
				"y": -2.2600166429,
				"z": -0.5500841093,
				"element": "C" 
			},
			{
				"x": 2.6346205881,
				"y": -3.283843004,
				"z": -0.1474745479,
				"element": "C" 
			},
			{
				"x": 0.7946595664,
				"y": -1.773104561,
				"z": 0.6996453674,
				"element": "C" 
			},
			{
				"x": -0.575801358,
				"y": -1.1752579796,
				"z": 0.3889080389,
				"element": "C" 
			},
			{
				"x": -0.3987402509,
				"y": 0.0158146026,
				"z": -0.4542026914,
				"element": "O" 
			},
			{
				"x": -0.3724113908,
				"y": 1.2191111256,
				"z": 0.1503382138,
				"element": "C" 
			},
			{
				"x": -0.4561781904,
				"y": 1.3785965457,
				"z": 1.3558589937,
				"element": "O" 
			},
			{
				"x": -0.2384400246,
				"y": 2.2962853085,
				"z": -0.8811496098,
				"element": "C" 
			},
			{
				"x": -1.0846505742,
				"y": 3.3440369272,
				"z": -1.0408336347,
				"element": "C" 
			},
			{
				"x": -2.2642380276,
				"y": 3.8249513556,
				"z": -0.3190585216,
				"element": "C" 
			},
			{
				"x": -2.6012026076,
				"y": 3.5010578549,
				"z": 1.0114888461,
				"element": "C" 
			},
			{
				"x": -3.7558286477,
				"y": 4.0227154729,
				"z": 1.5903894691,
				"element": "C" 
			},
			{
				"x": -4.5969564045,
				"y": 4.8721436006,
				"z": 0.8674181469,
				"element": "C" 
			},
			{
				"x": -4.2692080347,
				"y": 5.2148862527,
				"z": -0.446218595,
				"element": "C" 
			},
			{
				"x": -3.1110847856,
				"y": 4.706277181,
				"z": -1.0255468316,
				"element": "C" 
			},
			{
				"x": 0.8443611787,
				"y": 2.154295233,
				"z": -1.9257138035,
				"element": "C" 
			},
			{
				"x": 0.6606052084,
				"y": 2.5465707975,
				"z": -3.0716576012,
				"element": "O" 
			},
			{
				"x": 2.1773238321,
				"y": 1.5921547974,
				"z": -1.5329298564,
				"element": "C" 
			},
			{
				"x": 3.0098509509,
				"y": 1.0982576806,
				"z": -2.5500472834,
				"element": "C" 
			},
			{
				"x": 4.2792687108,
				"y": 0.613863586,
				"z": -2.2483629663,
				"element": "C" 
			},
			{
				"x": 4.7415224856,
				"y": 0.6380496177,
				"z": -0.9283434859,
				"element": "C" 
			},
			{
				"x": 3.9291279299,
				"y": 1.1481572949,
				"z": 0.0859195715,
				"element": "C" 
			},
			{
				"x": 2.6497423733,
				"y": 1.6202896925,
				"z": -0.2116495069,
				"element": "C" 
			},
			{
				"x": -1.9486299094,
				"y": -4.3319463256,
				"z": 1.4916564418,
				"element": "H" 
			},
			{
				"x": -1.6834084029,
				"y": -2.8246443069,
				"z": 2.381767657,
				"element": "H" 
			},
			{
				"x": -3.2891612222,
				"y": -3.5510639595,
				"z": 2.3295820586,
				"element": "H" 
			},
			{
				"x": -3.2095543262,
				"y": -1.6189014786,
				"z": 0.8038837848,
				"element": "H" 
			},
			{
				"x": -4.7029642271,
				"y": -3.4779583394,
				"z": 0.2154289566,
				"element": "H" 
			},
			{
				"x": -4.0630709916,
				"y": -2.7475851363,
				"z": -1.2642548438,
				"element": "H" 
			},
			{
				"x": -3.4221336601,
				"y": -4.2926362203,
				"z": -0.6844203422,
				"element": "H" 
			},
			{
				"x": -1.9117302169,
				"y": -1.5510396332,
				"z": -1.2201161839,
				"element": "H" 
			},
			{
				"x": -1.3407496826,
				"y": -3.8066968508,
				"z": -1.7656986398,
				"element": "H" 
			},
			{
				"x": -0.5149118802,
				"y": -4.0823181978,
				"z": -0.2441073646,
				"element": "H" 
			},
			{
				"x": 1.0733395401,
				"y": -3.6348188153,
				"z": -2.1760466625,
				"element": "H" 
			},
			{
				"x": 0.3557609813,
				"y": -2.0413537095,
				"z": -2.3508364724,
				"element": "H" 
			},
			{
				"x": 2.0774679754,
				"y": -1.3961836847,
				"z": -0.9847761273,
				"element": "H" 
			},
			{
				"x": 3.2945825266,
				"y": -2.8856160957,
				"z": 0.6316526015,
				"element": "H" 
			},
			{
				"x": 2.1784837155,
				"y": -4.2024449898,
				"z": 0.2427099758,
				"element": "H" 
			},
			{
				"x": 3.2585589732,
				"y": -3.5602485338,
				"z": -1.004290836,
				"element": "H" 
			},
			{
				"x": 0.6223961853,
				"y": -2.6195808072,
				"z": 1.3780394357,
				"element": "H" 
			},
			{
				"x": 1.3938285268,
				"y": -1.0480983785,
				"z": 1.2602356198,
				"element": "H" 
			},
			{
				"x": -1.0446688681,
				"y": -0.8287666919,
				"z": 1.3122033018,
				"element": "H" 
			},
			{
				"x": -0.8634569931,
				"y": 3.9237244951,
				"z": -1.9365097111,
				"element": "H" 
			},
			{
				"x": -1.9436056763,
				"y": 2.8648413568,
				"z": 1.5889621762,
				"element": "H" 
			},
			{
				"x": -3.996555569,
				"y": 3.7690587477,
				"z": 2.6188781029,
				"element": "H" 
			},
			{
				"x": -5.4950681029,
				"y": 5.2735475176,
				"z": 1.3282463394,
				"element": "H" 
			},
			{
				"x": -4.9103411492,
				"y": 5.8824607031,
				"z": -1.0144029112,
				"element": "H" 
			},
			{
				"x": -2.8550867319,
				"y": 4.9787347443,
				"z": -2.0460704518,
				"element": "H" 
			},
			{
				"x": 2.6393524895,
				"y": 1.1089446323,
				"z": -3.5696018721,
				"element": "H" 
			},
			{
				"x": 4.912680124,
				"y": 0.2228977939,
				"z": -3.0393783709,
				"element": "H" 
			},
			{
				"x": 5.7347199201,
				"y": 0.2659236542,
				"z": -0.6933222047,
				"element": "H" 
			},
			{
				"x": 4.2920076802,
				"y": 1.1841424133,
				"z": 1.1089127064,
				"element": "H" 
			},
			{
				"x": 2.0321721718,
				"y": 2.0255344756,
				"z": 0.5832183912,
				"element": "H" 
			}
		],
		 "valence_orbital": [ 
			{
				"type": "occ",
				"energy": -0.25968,
				"method": "rhf"
			},
			{
				"type": "occ",
				"energy": -0.25918,
				"method": "rhf"
			},
			{
				"type": "occ",
				"energy": -0.25461,
				"method": "rhf"
			},
			{
				"type": "occ",
				"energy": -0.24846,
				"method": "rhf"
			},
			{
				"type": "occ",
				"energy": -0.23126,
				"method": "rhf"
			},
			{
				"type": "unocc",
				"energy": -0.07392,
				"method": "rhf"
			},
			{
				"type": "unocc",
				"energy": -0.0388,
				"method": "rhf"
			},
			{
				"type": "unocc",
				"energy": -0.0115,
				"method": "rhf"
			},
			{
				"type": "unocc",
				"energy": -0.00444,
				"method": "rhf"
			},
			{
				"type": "unocc",
				"energy": 0.00967,
				"method": "rhf"
			}
		],
		"cosmo_sigma_profile": { 
			"-0.025": 0.0,
			"-0.024": 0.0,
			"-0.023": 0.0,
			"-0.022": 0.0,
			"-0.021": 0.0,
			"-0.02": 0.0,
			"-0.019": 0.0,
			"-0.018": 0.0,
			"-0.017": 0.0,
			"-0.016": 0.0,
			"-0.015": 0.0,
			"-0.014": 0.0,
			"-0.013": 0.0,
			"-0.012": 0.0,
			"-0.011": 0.0,
			"-0.01": 0.0,
			"-0.009": 0.0,
			"-0.008": 0.453247886806,
			"-0.007": 4.71859406838,
			"-0.006": 16.4787231041,
			"-0.005": 21.346214643,
			"-0.004": 23.315228925,
			"-0.003": 36.6405844849,
			"-0.002": 57.5020889379,
			"-0.001": 56.7647459718,
			"0.0": 55.5405567211,
			"0.001": 57.3083260886,
			"0.002": 46.5559386491,
			"0.003": 26.9987483823,
			"0.004": 24.6138781466,
			"0.005": 9.0862841585,
			"0.006": 4.27284839005,
			"0.007": 2.80140734329,
			"0.008": 2.65783802169,
			"0.009": 3.66401268234,
			"0.01": 3.53115295395,
			"0.011": 5.908937517,
			"0.012": 3.54109660984,
			"0.013": 0.198262003613,
			"0.014": 0.0,
			"0.015": 0.0,
			"0.016": 0.0,
			"0.017": 0.0,
			"0.018": 0.0,
			"0.019": 0.0,
			"0.02": 0.0,
			"0.021": 0.0,
			"0.022": 0.0,
			"0.023": 0.0,
			"0.024": 0.0,
			"0.025": 0.0
		}
	}
}
