{
	 "smiles": "OC(=O)CC1C2=C(OC3=C1C=CC=C3)C=CC=C2", 
	 "Tm": 427.15, 
	 "num_atms": 30, 
	 "gaussian": { 
		 "optdone": 1, 
		 "sigma_profile": "yes", 
		 "theory": "DFT", 
		 "functional": "B3LYP", 
		 "basiset": "6-31G**", 
		 "properties": { 
			 "R2extent": 4758.487, 
			 "electric_dipole_moment_norm": 2.01681164465, 
			 "electric_quadrupole_moment_norm": 14.295844512, 
			 "total_energy": -804.520139399, 
			 "HOMO_LUMO_gap": 0.1941, 
			 "cosmo_polarized_energy": -12.38, 
			 "cosmo_cavitation_energy": 33.66, 
			 "cosmo_dispersion_energy": -23.93, 
			 "cosmo_repulsion_energy": 1.83, 
			 "cosmo_total_nonelectrostatic_energy": 11.57, 
			 "SMD_solvation_energy": 6.7 
		},
		"coords": [
			{
				"x": 2.6093454648,
				"y": 1.0998433237,
				"z": 1.8453661714,
				"element": "O" 
			},
			{
				"x": 1.9395570642,
				"y": 0.0136954246,
				"z": 2.3203501074,
				"element": "C" 
			},
			{
				"x": 2.0637123701,
				"y": -0.3699835818,
				"z": 3.4606073082,
				"element": "O" 
			},
			{
				"x": 1.0907099898,
				"y": -0.6403305416,
				"z": 1.2520918893,
				"element": "C" 
			},
			{
				"x": 0.152006551,
				"y": 0.3276212124,
				"z": 0.4672165034,
				"element": "C" 
			},
			{
				"x": -0.5154099138,
				"y": -0.4271675968,
				"z": -0.66568548,
				"element": "C" 
			},
			{
				"x": -1.797950972,
				"y": -0.9562956163,
				"z": -0.4835321115,
				"element": "C" 
			},
			{
				"x": -2.5209179974,
				"y": -0.7315179257,
				"z": 0.6677590022,
				"element": "O" 
			},
			{
				"x": -2.1666672516,
				"y": 0.3448983638,
				"z": 1.4547816032,
				"element": "C" 
			},
			{
				"x": -0.9018530641,
				"y": 0.9394891241,
				"z": 1.3707114198,
				"element": "C" 
			},
			{
				"x": -0.651707791,
				"y": 2.0615053152,
				"z": 2.1708132916,
				"element": "C" 
			},
			{
				"x": -1.6163905374,
				"y": 2.5528055783,
				"z": 3.0491597073,
				"element": "C" 
			},
			{
				"x": -2.860270644,
				"y": 1.9213521216,
				"z": 3.136287798,
				"element": "C" 
			},
			{
				"x": -3.1423409242,
				"y": 0.8198252821,
				"z": 2.332920659,
				"element": "C" 
			},
			{
				"x": -2.4135016422,
				"y": -1.7348666752,
				"z": -1.4661736094,
				"element": "C" 
			},
			{
				"x": -1.7430143962,
				"y": -1.9832032527,
				"z": -2.6606053459,
				"element": "C" 
			},
			{
				"x": -0.4706012424,
				"y": -1.4450706154,
				"z": -2.8773534604,
				"element": "C" 
			},
			{
				"x": 0.1301489737,
				"y": -0.6750773372,
				"z": -1.8829636766,
				"element": "C" 
			},
			{
				"x": 3.1383738997,
				"y": 1.4310893549,
				"z": 2.5906868377,
				"element": "H" 
			},
			{
				"x": 1.7752994381,
				"y": -1.1121486068,
				"z": 0.5361990573,
				"element": "H" 
			},
			{
				"x": 0.512371774,
				"y": -1.4315298319,
				"z": 1.733366689,
				"element": "H" 
			},
			{
				"x": 0.7797620903,
				"y": 1.1231600062,
				"z": 0.0514778206,
				"element": "H" 
			},
			{
				"x": 0.3195447467,
				"y": 2.5433518533,
				"z": 2.1035388401,
				"element": "H" 
			},
			{
				"x": -1.3989408505,
				"y": 3.42083146,
				"z": 3.6637457355,
				"element": "H" 
			},
			{
				"x": -3.6169050845,
				"y": 2.2942890673,
				"z": 3.8201480489,
				"element": "H" 
			},
			{
				"x": -4.1068635834,
				"y": 0.323795017,
				"z": 2.3607235588,
				"element": "H" 
			},
			{
				"x": -3.4094215544,
				"y": -2.1222284217,
				"z": -1.2784927292,
				"element": "H" 
			},
			{
				"x": -2.2192221595,
				"y": -2.5869844179,
				"z": -3.4273754411,
				"element": "H" 
			},
			{
				"x": 0.0487993876,
				"y": -1.6264146458,
				"z": -3.8131866924,
				"element": "H" 
			},
			{
				"x": 1.1226478585,
				"y": -0.2599334377,
				"z": -2.0437835022,
				"element": "H" 
			}
		],
		 "valence_orbital": [ 
			{
				"type": "occ",
				"energy": -0.27728,
				"method": "rhf"
			},
			{
				"type": "occ",
				"energy": -0.25761,
				"method": "rhf"
			},
			{
				"type": "occ",
				"energy": -0.25043,
				"method": "rhf"
			},
			{
				"type": "occ",
				"energy": -0.24852,
				"method": "rhf"
			},
			{
				"type": "occ",
				"energy": -0.21424,
				"method": "rhf"
			},
			{
				"type": "unocc",
				"energy": -0.02014,
				"method": "rhf"
			},
			{
				"type": "unocc",
				"energy": -0.00718,
				"method": "rhf"
			},
			{
				"type": "unocc",
				"energy": -0.00037,
				"method": "rhf"
			},
			{
				"type": "unocc",
				"energy": 0.0111,
				"method": "rhf"
			},
			{
				"type": "unocc",
				"energy": 0.01736,
				"method": "rhf"
			}
		],
		"cosmo_sigma_profile": { 
			"-0.025": 0.0,
			"-0.024": 0.0,
			"-0.023": 0.0,
			"-0.022": 0.0,
			"-0.021": 0.0,
			"-0.02": 0.0,
			"-0.019": 0.0,
			"-0.018": 0.629050573872,
			"-0.017": 0.815435607368,
			"-0.016": 0.974697489631,
			"-0.015": 0.735574606086,
			"-0.014": 0.888805671602,
			"-0.013": 0.824742331058,
			"-0.012": 0.464430542598,
			"-0.011": 0.456123665461,
			"-0.01": 0.923711507577,
			"-0.009": 0.64666313487,
			"-0.008": 0.440925797976,
			"-0.007": 3.12981288806,
			"-0.006": 17.2496137921,
			"-0.005": 21.3635092509,
			"-0.004": 24.1579512134,
			"-0.003": 20.8329219758,
			"-0.002": 17.580998067,
			"-0.001": 15.5319866576,
			"0.0": 15.7160436883,
			"0.001": 17.3770566676,
			"0.002": 19.0943865186,
			"0.003": 20.5079984507,
			"0.004": 20.1762339925,
			"0.005": 19.8280977484,
			"0.006": 7.32344597069,
			"0.007": 3.0551690297,
			"0.008": 3.52676932633,
			"0.009": 3.10341260223,
			"0.01": 2.04173301569,
			"0.011": 4.27101066485,
			"0.012": 4.17543708118,
			"0.013": 0.720370799329,
			"0.014": 0.0,
			"0.015": 0.0,
			"0.016": 0.0,
			"0.017": 0.0,
			"0.018": 0.0,
			"0.019": 0.0,
			"0.02": 0.0,
			"0.021": 0.0,
			"0.022": 0.0,
			"0.023": 0.0,
			"0.024": 0.0,
			"0.025": 0.0
		}
	}
}
