{
	 "smiles": "C1NCC2=CC=CC3=C2C1=CC=C3", 
	 "Tm": 372.15, 
	 "num_atms": 24, 
	 "gaussian": { 
		 "optdone": 1, 
		 "sigma_profile": "yes", 
		 "theory": "DFT", 
		 "functional": "B3LYP", 
		 "basiset": "6-31G**", 
		 "properties": { 
			 "R2extent": 2125.3856, 
			 "electric_dipole_moment_norm": 1.32934442866, 
			 "electric_quadrupole_moment_norm": 10.8608082973, 
			 "total_energy": -518.665122356, 
			 "HOMO_LUMO_gap": 0.17285, 
			 "cosmo_polarized_energy": -7.82, 
			 "cosmo_cavitation_energy": 25.84, 
			 "cosmo_dispersion_energy": -19.77, 
			 "cosmo_repulsion_energy": 1.52, 
			 "cosmo_total_nonelectrostatic_energy": 7.59, 
			 "SMD_solvation_energy": 1.16 
		},
		"coords": [
			{
				"x": -0.3882296933,
				"y": -0.0357762873,
				"z": -2.579839334,
				"element": "C" 
			},
			{
				"x": -0.2340450957,
				"y": 1.4169565244,
				"z": -2.504194617,
				"element": "N" 
			},
			{
				"x": 1.0142373512,
				"y": 1.7881868093,
				"z": -1.837941658,
				"element": "C" 
			},
			{
				"x": 1.0371844368,
				"y": 1.2394148663,
				"z": -0.4276561558,
				"element": "C" 
			},
			{
				"x": 1.7375133053,
				"y": 1.858473887,
				"z": 0.5862076509,
				"element": "C" 
			},
			{
				"x": 1.7687898416,
				"y": 1.3088371235,
				"z": 1.890173769,
				"element": "C" 
			},
			{
				"x": 1.0925173814,
				"y": 0.1439438803,
				"z": 2.1726057705,
				"element": "C" 
			},
			{
				"x": 0.3550338298,
				"y": -0.5264084617,
				"z": 1.1602276321,
				"element": "C" 
			},
			{
				"x": 0.3297352507,
				"y": 0.0297483645,
				"z": -0.1592333596,
				"element": "C" 
			},
			{
				"x": -0.4021936638,
				"y": -0.6329916105,
				"z": -1.1892361883,
				"element": "C" 
			},
			{
				"x": -1.0759670196,
				"y": -1.8014931503,
				"z": -0.9024723138,
				"element": "C" 
			},
			{
				"x": -1.048838982,
				"y": -2.3566336444,
				"z": 0.3992440413,
				"element": "C" 
			},
			{
				"x": -0.3509214044,
				"y": -1.7338820422,
				"z": 1.4087947772,
				"element": "C" 
			},
			{
				"x": 0.4220603817,
				"y": -0.5194464463,
				"z": -3.1646314426,
				"element": "H" 
			},
			{
				"x": -1.3282750429,
				"y": -0.2654335097,
				"z": -3.0930929101,
				"element": "H" 
			},
			{
				"x": -0.2473602335,
				"y": 1.8085039262,
				"z": -3.4416544121,
				"element": "H" 
			},
			{
				"x": 1.0909223793,
				"y": 2.8806078439,
				"z": -1.8136641208,
				"element": "H" 
			},
			{
				"x": 1.9107250804,
				"y": 1.416363418,
				"z": -2.3769572042,
				"element": "H" 
			},
			{
				"x": 2.2700254885,
				"y": 2.7850642664,
				"z": 0.3848156455,
				"element": "H" 
			},
			{
				"x": 2.3268043663,
				"y": 1.8186295618,
				"z": 2.6704904379,
				"element": "H" 
			},
			{
				"x": 1.1124641943,
				"y": -0.2786132366,
				"z": 3.1739208028,
				"element": "H" 
			},
			{
				"x": -1.6411602991,
				"y": -2.3028641281,
				"z": -1.6846999167,
				"element": "H" 
			},
			{
				"x": -1.5903272693,
				"y": -3.2772640389,
				"z": 0.597719294,
				"element": "H" 
			},
			{
				"x": -0.3309945836,
				"y": -2.1565239157,
				"z": 2.4100738117,
				"element": "H" 
			}
		],
		 "valence_orbital": [ 
			{
				"type": "occ",
				"energy": -0.31467,
				"method": "rhf"
			},
			{
				"type": "occ",
				"energy": -0.27017,
				"method": "rhf"
			},
			{
				"type": "occ",
				"energy": -0.23838,
				"method": "rhf"
			},
			{
				"type": "occ",
				"energy": -0.2221,
				"method": "rhf"
			},
			{
				"type": "occ",
				"energy": -0.20415,
				"method": "rhf"
			},
			{
				"type": "unocc",
				"energy": -0.0313,
				"method": "rhf"
			},
			{
				"type": "unocc",
				"energy": -0.00412,
				"method": "rhf"
			},
			{
				"type": "unocc",
				"energy": 0.03486,
				"method": "rhf"
			},
			{
				"type": "unocc",
				"energy": 0.08646,
				"method": "rhf"
			},
			{
				"type": "unocc",
				"energy": 0.10005,
				"method": "rhf"
			}
		],
		"cosmo_sigma_profile": { 
			"-0.025": 0.0,
			"-0.024": 0.0,
			"-0.023": 0.0,
			"-0.022": 0.0,
			"-0.021": 0.0,
			"-0.02": 0.0,
			"-0.019": 0.0,
			"-0.018": 0.0,
			"-0.017": 0.0,
			"-0.016": 0.0,
			"-0.015": 0.0,
			"-0.014": 0.0,
			"-0.013": 0.0,
			"-0.012": 0.0,
			"-0.011": 0.39770891975,
			"-0.01": 1.3861452578,
			"-0.009": 1.40406833597,
			"-0.008": 1.1726221302,
			"-0.007": 1.24744370052,
			"-0.006": 5.09835381018,
			"-0.005": 18.9771023565,
			"-0.004": 21.4850880702,
			"-0.003": 22.6172078849,
			"-0.002": 21.3401372932,
			"-0.001": 16.0604904152,
			"0.0": 8.0638798418,
			"0.001": 10.3297083611,
			"0.002": 9.614347157,
			"0.003": 11.170463285,
			"0.004": 15.706523559,
			"0.005": 21.1966961079,
			"0.006": 9.26626675472,
			"0.007": 1.18342438151,
			"0.008": 1.24002441665,
			"0.009": 0.704011627361,
			"0.01": 1.04800048699,
			"0.011": 0.776729534297,
			"0.012": 0.557735549056,
			"0.013": 0.263103390211,
			"0.014": 0.912086569068,
			"0.015": 0.464686192556,
			"0.016": 0.703186746289,
			"0.017": 0.509464430172,
			"0.018": 0.264897825922,
			"0.019": 0.0,
			"0.02": 0.0,
			"0.021": 0.0,
			"0.022": 0.0,
			"0.023": 0.0,
			"0.024": 0.0,
			"0.025": 0.0
		}
	}
}
