{
	 "smiles": "ClC(Cl)(Cl)C(=O)C1=CC(Br)=C(N1)S(Cl)(=O)=O", 
	 "Tm": 418.15, 
	 "num_atms": 18, 
	 "gaussian": { 
		 "optdone": 1, 
		 "sigma_profile": "yes", 
		 "theory": "DFT", 
		 "functional": "B3LYP", 
		 "basiset": "6-31G**", 
		 "properties": { 
			 "R2extent": 8423.3825, 
			 "electric_dipole_moment_norm": 1.77233208231, 
			 "electric_quadrupole_moment_norm": 12.6652425658, 
			 "total_energy": -5320.50557446, 
			 "HOMO_LUMO_gap": 0.15683, 
			 "cosmo_polarized_energy": -10.77, 
			 "cosmo_cavitation_energy": 34.82, 
			 "cosmo_dispersion_energy": -25.14, 
			 "cosmo_repulsion_energy": 1.94, 
			 "cosmo_total_nonelectrostatic_energy": 11.62, 
			 "SMD_solvation_energy": 3.01 
		},
		"coords": [
			{
				"x": 3.9236678803,
				"y": -3.5414174301,
				"z": -0.0123303502,
				"element": "Cl" 
			},
			{
				"x": 2.5166617198,
				"y": -2.5209499766,
				"z": -0.3456742235,
				"element": "C" 
			},
			{
				"x": 2.28807834,
				"y": -2.3606340908,
				"z": -2.132218638,
				"element": "Cl" 
			},
			{
				"x": 1.0389460774,
				"y": -3.2612368537,
				"z": 0.3906516911,
				"element": "Cl" 
			},
			{
				"x": 2.7186892449,
				"y": -1.0841151375,
				"z": 0.2669207098,
				"element": "C" 
			},
			{
				"x": 3.7427925682,
				"y": -0.8289727958,
				"z": 0.8588447511,
				"element": "O" 
			},
			{
				"x": 1.6659767551,
				"y": -0.0676983378,
				"z": 0.1094552288,
				"element": "C" 
			},
			{
				"x": 1.7475828904,
				"y": 1.2324995265,
				"z": 0.6124696976,
				"element": "C" 
			},
			{
				"x": 0.5557782148,
				"y": 1.8928378207,
				"z": 0.2762822116,
				"element": "C" 
			},
			{
				"x": 0.1278260705,
				"y": 3.6707547424,
				"z": 0.6754410918,
				"element": "Br" 
			},
			{
				"x": -0.2313203537,
				"y": 0.9740374341,
				"z": -0.4187283102,
				"element": "C" 
			},
			{
				"x": 0.4581217963,
				"y": -0.1995572038,
				"z": -0.5262838883,
				"element": "N" 
			},
			{
				"x": -1.8182000901,
				"y": 1.0810947657,
				"z": -1.1684357296,
				"element": "S" 
			},
			{
				"x": -1.4021975908,
				"y": 2.1147721765,
				"z": -2.966066331,
				"element": "Cl" 
			},
			{
				"x": -2.6892521713,
				"y": 1.9421590225,
				"z": -0.3885575434,
				"element": "O" 
			},
			{
				"x": -2.1724006455,
				"y": -0.2837614684,
				"z": -1.5483578989,
				"element": "O" 
			},
			{
				"x": 2.5851195644,
				"y": 1.6368628436,
				"z": 1.1596638162,
				"element": "H" 
			},
			{
				"x": 0.0744297294,
				"y": -1.0307750376,
				"z": -0.958876285,
				"element": "H" 
			}
		],
		 "valence_orbital": [ 
			{
				"type": "occ",
				"energy": -0.33175,
				"method": "rhf"
			},
			{
				"type": "occ",
				"energy": -0.31525,
				"method": "rhf"
			},
			{
				"type": "occ",
				"energy": -0.3106,
				"method": "rhf"
			},
			{
				"type": "occ",
				"energy": -0.29462,
				"method": "rhf"
			},
			{
				"type": "occ",
				"energy": -0.27617,
				"method": "rhf"
			},
			{
				"type": "unocc",
				"energy": -0.11934,
				"method": "rhf"
			},
			{
				"type": "unocc",
				"energy": -0.09279,
				"method": "rhf"
			},
			{
				"type": "unocc",
				"energy": -0.0688,
				"method": "rhf"
			},
			{
				"type": "unocc",
				"energy": -0.03904,
				"method": "rhf"
			},
			{
				"type": "unocc",
				"energy": -0.02376,
				"method": "rhf"
			}
		],
		"cosmo_sigma_profile": { 
			"-0.025": 0.0,
			"-0.024": 0.0,
			"-0.023": 0.0,
			"-0.022": 0.0,
			"-0.021": 0.0,
			"-0.02": 0.0,
			"-0.019": 0.0,
			"-0.018": 0.0,
			"-0.017": 0.0,
			"-0.016": 0.0,
			"-0.015": 0.0,
			"-0.014": 0.0,
			"-0.013": 0.16665418541,
			"-0.012": 0.955341192279,
			"-0.011": 1.43939321594,
			"-0.01": 2.44194182702,
			"-0.009": 3.2458399959,
			"-0.008": 3.96288095483,
			"-0.007": 4.01761637205,
			"-0.006": 7.6679476115,
			"-0.005": 12.6074273767,
			"-0.004": 15.4486843786,
			"-0.003": 23.6284554039,
			"-0.002": 26.8938884182,
			"-0.001": 26.7621832499,
			"0.0": 27.2650802395,
			"0.001": 31.4497856139,
			"0.002": 44.6910867184,
			"0.003": 16.0060515693,
			"0.004": 6.30704174795,
			"0.005": 5.66242141234,
			"0.006": 6.97122332917,
			"0.007": 12.5950641732,
			"0.008": 9.59273019754,
			"0.009": 3.46210636493,
			"0.01": 0.196860570579,
			"0.011": 0.0,
			"0.012": 0.0,
			"0.013": 0.0,
			"0.014": 0.0,
			"0.015": 0.0,
			"0.016": 0.0,
			"0.017": 0.0,
			"0.018": 0.0,
			"0.019": 0.0,
			"0.02": 0.0,
			"0.021": 0.0,
			"0.022": 0.0,
			"0.023": 0.0,
			"0.024": 0.0,
			"0.025": 0.0
		}
	}
}
