{
	 "smiles": "C[C@]12CCC3C(C1CCC2=O)C1(C[C@H]2CC(O)(CC[C@]32C)C#C)OCCO1", 
	 "Tm": 581.15, 
	 "num_atms": 59, 
	 "gaussian": { 
		 "optdone": 1, 
		 "sigma_profile": "yes", 
		 "theory": "DFT", 
		 "functional": "B3LYP", 
		 "basiset": "6-31G**", 
		 "properties": { 
			 "R2extent": 10020.7337, 
			 "electric_dipole_moment_norm": 3.44389647057, 
			 "electric_quadrupole_moment_norm": 33.3970256932, 
			 "total_energy": -1196.53813937, 
			 "HOMO_LUMO_gap": 0.21965, 
			 "cosmo_polarized_energy": -19.26, 
			 "cosmo_cavitation_energy": 50.87, 
			 "cosmo_dispersion_energy": -34.16, 
			 "cosmo_repulsion_energy": 2.48, 
			 "cosmo_total_nonelectrostatic_energy": 19.19, 
			 "SMD_solvation_energy": 9.14 
		},
		"coords": [
			{
				"x": -1.3868364392,
				"y": 0.464532486,
				"z": 3.6180206387,
				"element": "C" 
			},
			{
				"x": -0.7218388004,
				"y": -0.7666007443,
				"z": 2.9830233098,
				"element": "C" 
			},
			{
				"x": 0.8458310398,
				"y": -0.639061567,
				"z": 2.9434168306,
				"element": "C" 
			},
			{
				"x": 1.4334974354,
				"y": -0.2680105793,
				"z": 1.5588733985,
				"element": "C" 
			},
			{
				"x": 0.4363141858,
				"y": 0.6115934442,
				"z": 0.7832065288,
				"element": "C" 
			},
			{
				"x": -0.8032348281,
				"y": -0.2641742789,
				"z": 0.4037083702,
				"element": "C" 
			},
			{
				"x": -1.2764896329,
				"y": -1.180262637,
				"z": 1.5888716967,
				"element": "C" 
			},
			{
				"x": -1.0040525662,
				"y": -2.7111200107,
				"z": 1.5454524636,
				"element": "C" 
			},
			{
				"x": -1.3580467819,
				"y": -3.1859947543,
				"z": 2.9607473089,
				"element": "C" 
			},
			{
				"x": -1.0356977532,
				"y": -1.9958876946,
				"z": 3.8599882875,
				"element": "C" 
			},
			{
				"x": -1.0268629384,
				"y": -2.0043291222,
				"z": 5.0732548563,
				"element": "O" 
			},
			{
				"x": -0.6473013078,
				"y": -0.9861174926,
				"z": -0.9537718652,
				"element": "C" 
			},
			{
				"x": -0.2200409986,
				"y": -0.0163354831,
				"z": -2.0674110956,
				"element": "C" 
			},
			{
				"x": 1.1049328536,
				"y": 0.6602073355,
				"z": -1.7035135684,
				"element": "C" 
			},
			{
				"x": 1.694758304,
				"y": 1.4631704173,
				"z": -2.8753205339,
				"element": "C" 
			},
			{
				"x": 3.0651663694,
				"y": 2.1030695483,
				"z": -2.5420019256,
				"element": "C" 
			},
			{
				"x": 3.5084426116,
				"y": 2.9322854292,
				"z": -3.6234277076,
				"element": "O" 
			},
			{
				"x": 2.9486593201,
				"y": 2.9253968645,
				"z": -1.2355914864,
				"element": "C" 
			},
			{
				"x": 2.3594022158,
				"y": 2.1022525964,
				"z": -0.079599623,
				"element": "C" 
			},
			{
				"x": 0.9669976343,
				"y": 1.5001283992,
				"z": -0.4020421419,
				"element": "C" 
			},
			{
				"x": -0.0438112545,
				"y": 2.6657541405,
				"z": -0.5690342703,
				"element": "C" 
			},
			{
				"x": 4.0911513609,
				"y": 1.0562027269,
				"z": -2.3928419626,
				"element": "C" 
			},
			{
				"x": 4.9150629319,
				"y": 0.186187536,
				"z": -2.2447818522,
				"element": "C" 
			},
			{
				"x": 0.3113791807,
				"y": -2.0508971139,
				"z": -0.895811586,
				"element": "O" 
			},
			{
				"x": -0.1495077528,
				"y": -3.1229960281,
				"z": -1.7162971785,
				"element": "C" 
			},
			{
				"x": -1.5851226575,
				"y": -2.7148730489,
				"z": -2.1225364444,
				"element": "C" 
			},
			{
				"x": -1.8848274311,
				"y": -1.615033227,
				"z": -1.2707735696,
				"element": "O" 
			},
			{
				"x": -1.0951697057,
				"y": 0.5288351797,
				"z": 4.6705495887,
				"element": "H" 
			},
			{
				"x": -2.4788789189,
				"y": 0.379406812,
				"z": 3.5814542482,
				"element": "H" 
			},
			{
				"x": -1.1076515477,
				"y": 1.3992933255,
				"z": 3.1252479925,
				"element": "H" 
			},
			{
				"x": 1.1289376577,
				"y": 0.1203051629,
				"z": 3.6805069619,
				"element": "H" 
			},
			{
				"x": 1.3150376051,
				"y": -1.5673496623,
				"z": 3.2894748982,
				"element": "H" 
			},
			{
				"x": 1.6663573378,
				"y": -1.1675725673,
				"z": 0.981266645,
				"element": "H" 
			},
			{
				"x": 2.3809984549,
				"y": 0.2486414964,
				"z": 1.7297071743,
				"element": "H" 
			},
			{
				"x": 0.0732213586,
				"y": 1.3461236475,
				"z": 1.5113080013,
				"element": "H" 
			},
			{
				"x": -1.63337255,
				"y": 0.4251572596,
				"z": 0.2127548588,
				"element": "H" 
			},
			{
				"x": -2.3690252008,
				"y": -1.0815931851,
				"z": 1.6385910317,
				"element": "H" 
			},
			{
				"x": -1.6006511367,
				"y": -3.2022013129,
				"z": 0.7759219681,
				"element": "H" 
			},
			{
				"x": 0.0456653805,
				"y": -2.9166854441,
				"z": 1.328323778,
				"element": "H" 
			},
			{
				"x": -0.8395221377,
				"y": -4.0890852077,
				"z": 3.2955093475,
				"element": "H" 
			},
			{
				"x": -2.4346158505,
				"y": -3.3817460716,
				"z": 3.062842788,
				"element": "H" 
			},
			{
				"x": -0.1066333744,
				"y": -0.580866863,
				"z": -3.0005223822,
				"element": "H" 
			},
			{
				"x": -1.0168352746,
				"y": 0.7163659905,
				"z": -2.236222682,
				"element": "H" 
			},
			{
				"x": 1.8160902582,
				"y": -0.1475803001,
				"z": -1.488132594,
				"element": "H" 
			},
			{
				"x": 1.8141463284,
				"y": 0.8207623385,
				"z": -3.7542476594,
				"element": "H" 
			},
			{
				"x": 1.0139246929,
				"y": 2.2739726222,
				"z": -3.1690887791,
				"element": "H" 
			},
			{
				"x": 2.8517813916,
				"y": 3.6356102231,
				"z": -3.7231215175,
				"element": "H" 
			},
			{
				"x": 2.3200090898,
				"y": 3.7993546265,
				"z": -1.4509445485,
				"element": "H" 
			},
			{
				"x": 3.9394862977,
				"y": 3.3068560179,
				"z": -0.9705154458,
				"element": "H" 
			},
			{
				"x": 2.3000509983,
				"y": 2.7233974572,
				"z": 0.8234617574,
				"element": "H" 
			},
			{
				"x": 3.0664814066,
				"y": 1.2963550161,
				"z": 0.1386890079,
				"element": "H" 
			},
			{
				"x": 0.1605912354,
				"y": 3.2873170487,
				"z": -1.4440039389,
				"element": "H" 
			},
			{
				"x": -1.074947211,
				"y": 2.3162048142,
				"z": -0.6627580339,
				"element": "H" 
			},
			{
				"x": -0.0033849984,
				"y": 3.3200976527,
				"z": 0.3088543684,
				"element": "H" 
			},
			{
				"x": 5.6505689886,
				"y": -0.5753341136,
				"z": -2.1256254386,
				"element": "H" 
			},
			{
				"x": 0.5043102517,
				"y": -3.2542088327,
				"z": -2.5870443552,
				"element": "H" 
			},
			{
				"x": -0.1290008473,
				"y": -4.0443214524,
				"z": -1.1237944151,
				"element": "H" 
			},
			{
				"x": -1.6400904753,
				"y": -2.4255238656,
				"z": -3.1806463462,
				"element": "H" 
			},
			{
				"x": -2.3255038057,
				"y": -3.4981749552,
				"z": -1.939503158,
				"element": "H" 
			}
		],
		 "valence_orbital": [ 
			{
				"type": "occ",
				"energy": -0.27221,
				"method": "rhf"
			},
			{
				"type": "occ",
				"energy": -0.27087,
				"method": "rhf"
			},
			{
				"type": "occ",
				"energy": -0.25932,
				"method": "rhf"
			},
			{
				"type": "occ",
				"energy": -0.25052,
				"method": "rhf"
			},
			{
				"type": "occ",
				"energy": -0.22572,
				"method": "rhf"
			},
			{
				"type": "unocc",
				"energy": -0.00607,
				"method": "rhf"
			},
			{
				"type": "unocc",
				"energy": 0.03688,
				"method": "rhf"
			},
			{
				"type": "unocc",
				"energy": 0.0551,
				"method": "rhf"
			},
			{
				"type": "unocc",
				"energy": 0.05859,
				"method": "rhf"
			},
			{
				"type": "unocc",
				"energy": 0.06621,
				"method": "rhf"
			}
		],
		"cosmo_sigma_profile": { 
			"-0.025": 0.0,
			"-0.024": 0.0,
			"-0.023": 0.0,
			"-0.022": 0.0,
			"-0.021": 0.0,
			"-0.02": 0.0,
			"-0.019": 0.0,
			"-0.018": 0.0,
			"-0.017": 0.0,
			"-0.016": 0.131598774466,
			"-0.015": 0.647118499634,
			"-0.014": 1.29742934566,
			"-0.013": 0.541630703577,
			"-0.012": 1.5778570851,
			"-0.011": 2.40966403289,
			"-0.01": 2.22372845776,
			"-0.009": 1.42381604556,
			"-0.008": 3.10612130254,
			"-0.007": 3.26412049644,
			"-0.006": 4.38097049871,
			"-0.005": 21.9552262776,
			"-0.004": 33.2083880364,
			"-0.003": 43.7230997145,
			"-0.002": 51.9217256683,
			"-0.001": 48.4296570269,
			"0.0": 37.9660766919,
			"0.001": 28.7744951213,
			"0.002": 16.0883997172,
			"0.003": 11.4076244855,
			"0.004": 12.2222227862,
			"0.005": 10.2121523713,
			"0.006": 10.6951545714,
			"0.007": 8.45512808283,
			"0.008": 6.17015428446,
			"0.009": 5.10058222703,
			"0.01": 5.10767488567,
			"0.011": 5.38525940826,
			"0.012": 7.13741281269,
			"0.013": 5.88291344444,
			"0.014": 2.3149429128,
			"0.015": 0.0,
			"0.016": 0.0,
			"0.017": 0.0,
			"0.018": 0.0,
			"0.019": 0.0,
			"0.02": 0.0,
			"0.021": 0.0,
			"0.022": 0.0,
			"0.023": 0.0,
			"0.024": 0.0,
			"0.025": 0.0
		}
	}
}
