{
	 "smiles": "O=C1C=C(NCCCCC2=CC=CC=C2)C(=O)C2=CC=CC=C12", 
	 "Tm": 410.15, 
	 "num_atms": 42, 
	 "gaussian": { 
		 "optdone": 1, 
		 "sigma_profile": "yes", 
		 "theory": "DFT", 
		 "functional": "B3LYP", 
		 "basiset": "6-31G**", 
		 "properties": { 
			 "R2extent": 10434.172, 
			 "electric_dipole_moment_norm": 2.5119752447, 
			 "electric_quadrupole_moment_norm": 25.1856349227, 
			 "total_energy": -978.79801663, 
			 "HOMO_LUMO_gap": 0.11911, 
			 "cosmo_polarized_energy": -14.87, 
			 "cosmo_cavitation_energy": 45.63, 
			 "cosmo_dispersion_energy": -31.3, 
			 "cosmo_repulsion_energy": 2.39, 
			 "cosmo_total_nonelectrostatic_energy": 16.72, 
			 "SMD_solvation_energy": 7.42 
		},
		"coords": [
			{
				"x": 3.6457705831,
				"y": -1.7572835859,
				"z": -1.7932773725,
				"element": "O" 
			},
			{
				"x": 3.1111980333,
				"y": -1.2523036022,
				"z": -0.8030761374,
				"element": "C" 
			},
			{
				"x": 2.7287525103,
				"y": 0.1460861358,
				"z": -0.761346022,
				"element": "C" 
			},
			{
				"x": 2.1380710351,
				"y": 0.7195724636,
				"z": 0.3343210166,
				"element": "C" 
			},
			{
				"x": 1.7618851379,
				"y": 2.008446025,
				"z": 0.4884995349,
				"element": "N" 
			},
			{
				"x": 1.9230783846,
				"y": 3.0965434806,
				"z": -0.461079406,
				"element": "C" 
			},
			{
				"x": 0.6221230738,
				"y": 3.5019755015,
				"z": -1.1747067629,
				"element": "C" 
			},
			{
				"x": 0.0478455451,
				"y": 2.4218328609,
				"z": -2.09765102,
				"element": "C" 
			},
			{
				"x": -1.2741378671,
				"y": 2.8303409906,
				"z": -2.7845513434,
				"element": "C" 
			},
			{
				"x": -2.4335418748,
				"y": 3.0273539894,
				"z": -1.8281878275,
				"element": "C" 
			},
			{
				"x": -3.056789807,
				"y": 1.9223561043,
				"z": -1.2285467659,
				"element": "C" 
			},
			{
				"x": -4.1130974763,
				"y": 2.0911215731,
				"z": -0.3338794421,
				"element": "C" 
			},
			{
				"x": -4.5698245974,
				"y": 3.3739010608,
				"z": -0.0212513085,
				"element": "C" 
			},
			{
				"x": -3.9625088133,
				"y": 4.4821319073,
				"z": -0.612076348,
				"element": "C" 
			},
			{
				"x": -2.9044117037,
				"y": 4.307300099,
				"z": -1.5071703139,
				"element": "C" 
			},
			{
				"x": 1.8409999754,
				"y": -0.1088994426,
				"z": 1.5655874571,
				"element": "C" 
			},
			{
				"x": 1.3024828895,
				"y": 0.4266979057,
				"z": 2.5306432284,
				"element": "O" 
			},
			{
				"x": 2.2174049172,
				"y": -1.5380519384,
				"z": 1.5485124688,
				"element": "C" 
			},
			{
				"x": 1.9602335851,
				"y": -2.3344254487,
				"z": 2.67181911,
				"element": "C" 
			},
			{
				"x": 2.315154498,
				"y": -3.6812352779,
				"z": 2.6620435564,
				"element": "C" 
			},
			{
				"x": 2.9266286812,
				"y": -4.2346163228,
				"z": 1.5314882804,
				"element": "C" 
			},
			{
				"x": 3.1836050933,
				"y": -3.4440482362,
				"z": 0.4107993119,
				"element": "C" 
			},
			{
				"x": 2.8318246731,
				"y": -2.093795919,
				"z": 0.4115116324,
				"element": "C" 
			},
			{
				"x": 2.9386014664,
				"y": 0.7126046036,
				"z": -1.6614909317,
				"element": "H" 
			},
			{
				"x": 1.3273394982,
				"y": 2.1966192779,
				"z": 1.385768975,
				"element": "H" 
			},
			{
				"x": 2.6870410298,
				"y": 2.8105601144,
				"z": -1.190247401,
				"element": "H" 
			},
			{
				"x": 2.3197372127,
				"y": 3.9623230469,
				"z": 0.0834795323,
				"element": "H" 
			},
			{
				"x": 0.8304323775,
				"y": 4.411920347,
				"z": -1.7546204764,
				"element": "H" 
			},
			{
				"x": -0.124097951,
				"y": 3.7819112014,
				"z": -0.4208777048,
				"element": "H" 
			},
			{
				"x": -0.1142076526,
				"y": 1.5004987812,
				"z": -1.5258323831,
				"element": "H" 
			},
			{
				"x": 0.7841562561,
				"y": 2.178384103,
				"z": -2.874989271,
				"element": "H" 
			},
			{
				"x": -1.5351821936,
				"y": 2.0538817573,
				"z": -3.5141937584,
				"element": "H" 
			},
			{
				"x": -1.1128228864,
				"y": 3.7515881478,
				"z": -3.3581220098,
				"element": "H" 
			},
			{
				"x": -2.7136856718,
				"y": 0.91906291,
				"z": -1.4712610345,
				"element": "H" 
			},
			{
				"x": -4.5835606191,
				"y": 1.2212271769,
				"z": 0.1160930195,
				"element": "H" 
			},
			{
				"x": -5.3943892527,
				"y": 3.5066246626,
				"z": 0.6732385984,
				"element": "H" 
			},
			{
				"x": -4.3128989066,
				"y": 5.4841637247,
				"z": -0.3801215298,
				"element": "H" 
			},
			{
				"x": -2.4408614213,
				"y": 5.1762905327,
				"z": -1.9683981518,
				"element": "H" 
			},
			{
				"x": 1.4854247467,
				"y": -1.879373097,
				"z": 3.5347071744,
				"element": "H" 
			},
			{
				"x": 2.117286328,
				"y": -4.3005550298,
				"z": 3.5318579229,
				"element": "H" 
			},
			{
				"x": 3.202688371,
				"y": -5.2852732587,
				"z": 1.5260074901,
				"element": "H" 
			},
			{
				"x": 3.6556527921,
				"y": -3.8477593254,
				"z": -0.4786235872,
				"element": "H" 
			}
		],
		 "valence_orbital": [ 
			{
				"type": "occ",
				"energy": -0.26121,
				"method": "rhf"
			},
			{
				"type": "occ",
				"energy": -0.24924,
				"method": "rhf"
			},
			{
				"type": "occ",
				"energy": -0.24138,
				"method": "rhf"
			},
			{
				"type": "occ",
				"energy": -0.24046,
				"method": "rhf"
			},
			{
				"type": "occ",
				"energy": -0.21716,
				"method": "rhf"
			},
			{
				"type": "unocc",
				"energy": -0.09805,
				"method": "rhf"
			},
			{
				"type": "unocc",
				"energy": -0.03115,
				"method": "rhf"
			},
			{
				"type": "unocc",
				"energy": -0.00332,
				"method": "rhf"
			},
			{
				"type": "unocc",
				"energy": -0.00185,
				"method": "rhf"
			},
			{
				"type": "unocc",
				"energy": 0.00027,
				"method": "rhf"
			}
		],
		"cosmo_sigma_profile": { 
			"-0.025": 0.0,
			"-0.024": 0.0,
			"-0.023": 0.0,
			"-0.022": 0.0,
			"-0.021": 0.0,
			"-0.02": 0.0,
			"-0.019": 0.0,
			"-0.018": 0.0,
			"-0.017": 0.0,
			"-0.016": 0.0,
			"-0.015": 0.0,
			"-0.014": 0.0,
			"-0.013": 0.0406328580803,
			"-0.012": 0.795038772676,
			"-0.011": 0.771606413591,
			"-0.01": 0.749255896585,
			"-0.009": 0.590047861113,
			"-0.008": 1.85817669571,
			"-0.007": 5.51639092041,
			"-0.006": 12.6792161772,
			"-0.005": 25.3977247929,
			"-0.004": 29.0982796579,
			"-0.003": 42.7891854211,
			"-0.002": 36.1043004317,
			"-0.001": 30.7204256588,
			"0.0": 30.7788913843,
			"0.001": 28.9922205801,
			"0.002": 27.4564332668,
			"0.003": 22.15359067,
			"0.004": 13.3319750401,
			"0.005": 10.9147793963,
			"0.006": 11.3627378351,
			"0.007": 5.98411323685,
			"0.008": 3.26878209642,
			"0.009": 3.77495908659,
			"0.01": 4.76822411113,
			"0.011": 2.62782936604,
			"0.012": 2.81764120146,
			"0.013": 4.85804885906,
			"0.014": 2.02055173065,
			"0.015": 0.497982960324,
			"0.016": 0.0,
			"0.017": 0.0,
			"0.018": 0.0,
			"0.019": 0.0,
			"0.02": 0.0,
			"0.021": 0.0,
			"0.022": 0.0,
			"0.023": 0.0,
			"0.024": 0.0,
			"0.025": 0.0
		}
	}
}
