{
	 "smiles": "CCCCOC1=CC=C(CC(=O)NO)C=C1", 
	 "Tm": 426.15, 
	 "num_atms": 33, 
	 "gaussian": { 
		 "optdone": 1, 
		 "sigma_profile": "yes", 
		 "theory": "DFT", 
		 "functional": "B3LYP", 
		 "basiset": "6-31G**", 
		 "properties": { 
			 "R2extent": 6320.5228, 
			 "electric_dipole_moment_norm": 4.73486941003, 
			 "electric_quadrupole_moment_norm": 15.3950403124, 
			 "total_energy": -747.903561936, 
			 "HOMO_LUMO_gap": 0.21005, 
			 "cosmo_polarized_energy": -12.89, 
			 "cosmo_cavitation_energy": 36.26, 
			 "cosmo_dispersion_energy": -25.64, 
			 "cosmo_repulsion_energy": 2.05, 
			 "cosmo_total_nonelectrostatic_energy": 12.67, 
			 "SMD_solvation_energy": 7.64 
		},
		"coords": [
			{
				"x": -1.2189835159,
				"y": 3.9458699527,
				"z": -1.5275553215,
				"element": "C" 
			},
			{
				"x": 0.0359267772,
				"y": 4.5619440804,
				"z": -0.8975465603,
				"element": "C" 
			},
			{
				"x": 1.3502809131,
				"y": 3.8095980957,
				"z": -1.1702878294,
				"element": "C" 
			},
			{
				"x": 1.5234483162,
				"y": 2.4774418119,
				"z": -0.4487390016,
				"element": "C" 
			},
			{
				"x": 0.6542698288,
				"y": 1.5051860606,
				"z": -1.0347179438,
				"element": "O" 
			},
			{
				"x": 0.6729962416,
				"y": 0.2315860263,
				"z": -0.5513569703,
				"element": "C" 
			},
			{
				"x": -0.1854709573,
				"y": -0.6774808627,
				"z": -1.1899918342,
				"element": "C" 
			},
			{
				"x": -0.2370712913,
				"y": -2.0011711141,
				"z": -0.7732815683,
				"element": "C" 
			},
			{
				"x": 0.5602493486,
				"y": -2.4645602543,
				"z": 0.2878094467,
				"element": "C" 
			},
			{
				"x": 0.4861043201,
				"y": -3.9024374264,
				"z": 0.7529393668,
				"element": "C" 
			},
			{
				"x": -0.5624881284,
				"y": -4.2185724782,
				"z": 1.8162383747,
				"element": "C" 
			},
			{
				"x": -0.6003409343,
				"y": -5.2866448527,
				"z": 2.4303304996,
				"element": "O" 
			},
			{
				"x": -1.5367594428,
				"y": -3.289494804,
				"z": 2.0156914995,
				"element": "N" 
			},
			{
				"x": -2.3884803424,
				"y": -3.5301813597,
				"z": 3.1011403379,
				"element": "O" 
			},
			{
				"x": 1.4089176489,
				"y": -1.5459341712,
				"z": 0.913968027,
				"element": "C" 
			},
			{
				"x": 1.4746517197,
				"y": -0.209773326,
				"z": 0.5090530243,
				"element": "C" 
			},
			{
				"x": -2.096509203,
				"y": 4.5710456461,
				"z": -1.3313027286,
				"element": "H" 
			},
			{
				"x": -1.4169225355,
				"y": 2.9450131357,
				"z": -1.1378190531,
				"element": "H" 
			},
			{
				"x": -1.1085238623,
				"y": 3.8588153661,
				"z": -2.6144242494,
				"element": "H" 
			},
			{
				"x": 0.1527341295,
				"y": 5.5875558397,
				"z": -1.2701286243,
				"element": "H" 
			},
			{
				"x": -0.1024052961,
				"y": 4.652566705,
				"z": 0.1889905134,
				"element": "H" 
			},
			{
				"x": 1.4751733308,
				"y": 3.6403512578,
				"z": -2.2473462649,
				"element": "H" 
			},
			{
				"x": 2.1901836537,
				"y": 4.4429545234,
				"z": -0.8563784353,
				"element": "H" 
			},
			{
				"x": 1.2940993679,
				"y": 2.5857168503,
				"z": 0.6219287589,
				"element": "H" 
			},
			{
				"x": 2.5637795751,
				"y": 2.1334745962,
				"z": -0.5368836714,
				"element": "H" 
			},
			{
				"x": -0.7962344053,
				"y": -0.3221648243,
				"z": -2.0134649569,
				"element": "H" 
			},
			{
				"x": -0.9051388076,
				"y": -2.6916611752,
				"z": -1.2818901053,
				"element": "H" 
			},
			{
				"x": 0.2799616779,
				"y": -4.5731458271,
				"z": -0.089765144,
				"element": "H" 
			},
			{
				"x": 1.4415103352,
				"y": -4.2311466539,
				"z": 1.1739192541,
				"element": "H" 
			},
			{
				"x": -1.3655422254,
				"y": -2.302527004,
				"z": 1.8793780099,
				"element": "H" 
			},
			{
				"x": -2.0806994544,
				"y": -4.4257952441,
				"z": 3.3672753182,
				"element": "H" 
			},
			{
				"x": 2.0412451245,
				"y": -1.8755882057,
				"z": 1.7350431999,
				"element": "H" 
			},
			{
				"x": 2.1494380931,
				"y": 0.4667596358,
				"z": 1.0191746315,
				"element": "H" 
			}
		],
		 "valence_orbital": [ 
			{
				"type": "occ",
				"energy": -0.31581,
				"method": "rhf"
			},
			{
				"type": "occ",
				"energy": -0.27081,
				"method": "rhf"
			},
			{
				"type": "occ",
				"energy": -0.26354,
				"method": "rhf"
			},
			{
				"type": "occ",
				"energy": -0.23045,
				"method": "rhf"
			},
			{
				"type": "occ",
				"energy": -0.22572,
				"method": "rhf"
			},
			{
				"type": "unocc",
				"energy": -0.01567,
				"method": "rhf"
			},
			{
				"type": "unocc",
				"energy": -0.00314,
				"method": "rhf"
			},
			{
				"type": "unocc",
				"energy": 0.0184,
				"method": "rhf"
			},
			{
				"type": "unocc",
				"energy": 0.08051,
				"method": "rhf"
			},
			{
				"type": "unocc",
				"energy": 0.08174,
				"method": "rhf"
			}
		],
		"cosmo_sigma_profile": { 
			"-0.025": 0.0,
			"-0.024": 0.0,
			"-0.023": 0.0,
			"-0.022": 0.0,
			"-0.021": 0.0,
			"-0.02": 0.0,
			"-0.019": 0.0,
			"-0.018": 0.0,
			"-0.017": 0.0,
			"-0.016": 0.0,
			"-0.015": 0.15282312926,
			"-0.014": 0.609762339931,
			"-0.013": 0.37185825616,
			"-0.012": 1.32105984413,
			"-0.011": 0.673463834117,
			"-0.01": 1.36000368176,
			"-0.009": 1.73952734137,
			"-0.008": 1.69505596732,
			"-0.007": 3.65489177738,
			"-0.006": 15.6192138508,
			"-0.005": 17.8619119582,
			"-0.004": 22.6643138813,
			"-0.003": 24.4317013438,
			"-0.002": 26.2419007807,
			"-0.001": 26.3818625454,
			"0.0": 26.6172466551,
			"0.001": 23.5089084209,
			"0.002": 17.4286793239,
			"0.003": 14.1103110433,
			"0.004": 13.8059123179,
			"0.005": 9.64423056873,
			"0.006": 5.46205657802,
			"0.007": 4.21335658373,
			"0.008": 4.06497717263,
			"0.009": 3.76243085105,
			"0.01": 4.29672135344,
			"0.011": 4.65011419679,
			"0.012": 3.42189464451,
			"0.013": 3.2046330519,
			"0.014": 1.42992500697,
			"0.015": 0.0600006235212,
			"0.016": 0.0,
			"0.017": 0.0,
			"0.018": 0.0,
			"0.019": 0.0,
			"0.02": 0.0,
			"0.021": 0.0,
			"0.022": 0.0,
			"0.023": 0.0,
			"0.024": 0.0,
			"0.025": 0.0
		}
	}
}
