{
	 "smiles": "CC1=C(C#N)C(C)=NO1", 
	 "Tm": 320.15, 
	 "num_atms": 15, 
	 "gaussian": { 
		 "optdone": 1, 
		 "sigma_profile": "yes", 
		 "theory": "DFT", 
		 "functional": "B3LYP", 
		 "basiset": "6-31G**", 
		 "properties": { 
			 "R2extent": 1387.6079, 
			 "electric_dipole_moment_norm": 1.54346740166, 
			 "electric_quadrupole_moment_norm": 16.0510270161, 
			 "total_energy": -416.925416093, 
			 "HOMO_LUMO_gap": 0.22932, 
			 "cosmo_polarized_energy": -10.14, 
			 "cosmo_cavitation_energy": 20.64, 
			 "cosmo_dispersion_energy": -14.47, 
			 "cosmo_repulsion_energy": 1.21, 
			 "cosmo_total_nonelectrostatic_energy": 7.38, 
			 "SMD_solvation_energy": 5.27 
		},
		"coords": [
			{
				"x": 2.1314877983,
				"y": 0.6493788569,
				"z": -2.6601502505,
				"element": "C" 
			},
			{
				"x": 0.9457886269,
				"y": 0.1679797502,
				"z": -1.9039122955,
				"element": "C" 
			},
			{
				"x": 0.7500157903,
				"y": -0.1690506188,
				"z": -0.5860442784,
				"element": "C" 
			},
			{
				"x": 1.7006646904,
				"y": -0.1405177233,
				"z": 0.4639757621,
				"element": "C" 
			},
			{
				"x": 2.4770432782,
				"y": -0.1194282273,
				"z": 1.3312592354,
				"element": "N" 
			},
			{
				"x": -0.6346570371,
				"y": -0.5554668759,
				"z": -0.5165602369,
				"element": "C" 
			},
			{
				"x": -1.4018163504,
				"y": -1.0195127018,
				"z": 0.678998119,
				"element": "C" 
			},
			{
				"x": -1.206399878,
				"y": -0.455478058,
				"z": -1.6903110217,
				"element": "N" 
			},
			{
				"x": -0.203732975,
				"y": 0.0032949713,
				"z": -2.5697671285,
				"element": "O" 
			},
			{
				"x": 2.3785683816,
				"y": -0.0440753026,
				"z": -3.470407706,
				"element": "H" 
			},
			{
				"x": 1.9304696124,
				"y": 1.6274179131,
				"z": -3.1090223438,
				"element": "H" 
			},
			{
				"x": 2.9912154668,
				"y": 0.735768131,
				"z": -1.9934090607,
				"element": "H" 
			},
			{
				"x": -1.3954794247,
				"y": -0.2554428559,
				"z": 1.4627779495,
				"element": "H" 
			},
			{
				"x": -2.4347065473,
				"y": -1.2324704811,
				"z": 0.3987021587,
				"element": "H" 
			},
			{
				"x": -0.9526614325,
				"y": -1.9251967778,
				"z": 1.0987710973,
				"element": "H" 
			}
		],
		 "valence_orbital": [ 
			{
				"type": "occ",
				"energy": -0.3688,
				"method": "rhf"
			},
			{
				"type": "occ",
				"energy": -0.34885,
				"method": "rhf"
			},
			{
				"type": "occ",
				"energy": -0.31779,
				"method": "rhf"
			},
			{
				"type": "occ",
				"energy": -0.30353,
				"method": "rhf"
			},
			{
				"type": "occ",
				"energy": -0.27127,
				"method": "rhf"
			},
			{
				"type": "unocc",
				"energy": -0.04195,
				"method": "rhf"
			},
			{
				"type": "unocc",
				"energy": -0.0054,
				"method": "rhf"
			},
			{
				"type": "unocc",
				"energy": 0.01376,
				"method": "rhf"
			},
			{
				"type": "unocc",
				"energy": 0.08223,
				"method": "rhf"
			},
			{
				"type": "unocc",
				"energy": 0.09568,
				"method": "rhf"
			}
		],
		"cosmo_sigma_profile": { 
			"-0.025": 0.0,
			"-0.024": 0.0,
			"-0.023": 0.0,
			"-0.022": 0.0,
			"-0.021": 0.0,
			"-0.02": 0.0,
			"-0.019": 0.0,
			"-0.018": 0.0,
			"-0.017": 0.0,
			"-0.016": 0.0,
			"-0.015": 0.0,
			"-0.014": 0.0,
			"-0.013": 0.0,
			"-0.012": 0.0,
			"-0.011": 0.0,
			"-0.01": 0.0,
			"-0.009": 0.0,
			"-0.008": 0.896972369381,
			"-0.007": 7.27451554527,
			"-0.006": 14.3619147712,
			"-0.005": 16.6209500825,
			"-0.004": 17.4179768455,
			"-0.003": 19.326131034,
			"-0.002": 17.8491159505,
			"-0.001": 9.36169187485,
			"0.0": 4.09229022538,
			"0.001": 4.59788795046,
			"0.002": 3.8951595959,
			"0.003": 4.02210292262,
			"0.004": 4.57138284841,
			"0.005": 4.36521191189,
			"0.006": 6.12018920142,
			"0.007": 6.46347470052,
			"0.008": 5.47447886638,
			"0.009": 4.98758250752,
			"0.01": 3.92403011474,
			"0.011": 4.48956344187,
			"0.012": 3.69246358442,
			"0.013": 1.95770536296,
			"0.014": 0.160153585382,
			"0.015": 0.0,
			"0.016": 0.0,
			"0.017": 0.0,
			"0.018": 0.0,
			"0.019": 0.0,
			"0.02": 0.0,
			"0.021": 0.0,
			"0.022": 0.0,
			"0.023": 0.0,
			"0.024": 0.0,
			"0.025": 0.0
		}
	}
}
