{
	 "smiles": "ClCC1=COC(=N1)C1=CC=C(Br)C=C1", 
	 "Tm": 386.15, 
	 "num_atms": 21, 
	 "gaussian": { 
		 "optdone": 1, 
		 "sigma_profile": "yes", 
		 "theory": "DFT", 
		 "functional": "B3LYP", 
		 "basiset": "6-31G**", 
		 "properties": { 
			 "R2extent": 8219.6659, 
			 "electric_dipole_moment_norm": 2.88583301838, 
			 "electric_quadrupole_moment_norm": 13.1713878798, 
			 "total_energy": -3546.84987612, 
			 "HOMO_LUMO_gap": 0.17421, 
			 "cosmo_polarized_energy": -9.67, 
			 "cosmo_cavitation_energy": 30.55, 
			 "cosmo_dispersion_energy": -22.94, 
			 "cosmo_repulsion_energy": 1.82, 
			 "cosmo_total_nonelectrostatic_energy": 9.43, 
			 "SMD_solvation_energy": 2.94 
		},
		"coords": [
			{
				"x": 3.8248121099,
				"y": -1.7980668043,
				"z": 1.3352911845,
				"element": "Cl" 
			},
			{
				"x": 3.4418300875,
				"y": -0.0463599622,
				"z": 0.954308658,
				"element": "C" 
			},
			{
				"x": 2.01845698,
				"y": 0.2919601698,
				"z": 1.1996230755,
				"element": "C" 
			},
			{
				"x": 1.45859068,
				"y": 0.9078742151,
				"z": 2.2770897082,
				"element": "C" 
			},
			{
				"x": 0.1158199475,
				"y": 1.0114285158,
				"z": 2.0541474895,
				"element": "O" 
			},
			{
				"x": -0.0791672425,
				"y": 0.4396204292,
				"z": 0.8262236195,
				"element": "C" 
			},
			{
				"x": 1.0197154412,
				"y": 0.000872638,
				"z": 0.2818096227,
				"element": "N" 
			},
			{
				"x": -1.434340165,
				"y": 0.3942589243,
				"z": 0.2884591718,
				"element": "C" 
			},
			{
				"x": -2.5206340551,
				"y": 0.9317383215,
				"z": 0.995639597,
				"element": "C" 
			},
			{
				"x": -3.8056783328,
				"y": 0.8769210292,
				"z": 0.4619830117,
				"element": "C" 
			},
			{
				"x": -4.0023279045,
				"y": 0.2817051577,
				"z": -0.7838083872,
				"element": "C" 
			},
			{
				"x": -5.7620339139,
				"y": 0.2048790593,
				"z": -1.5186501382,
				"element": "Br" 
			},
			{
				"x": -2.934718845,
				"y": -0.2593097865,
				"z": -1.5024356131,
				"element": "C" 
			},
			{
				"x": -1.6537002764,
				"y": -0.2017380187,
				"z": -0.9641096034,
				"element": "C" 
			},
			{
				"x": 4.1106791764,
				"y": 0.5481271849,
				"z": 1.57605826,
				"element": "H" 
			},
			{
				"x": 3.6949607318,
				"y": 0.0864555445,
				"z": -0.0970243756,
				"element": "H" 
			},
			{
				"x": 1.8320713911,
				"y": 1.3015892586,
				"z": 3.2086033395,
				"element": "H" 
			},
			{
				"x": -2.3592829752,
				"y": 1.3927722059,
				"z": 1.963977282,
				"element": "H" 
			},
			{
				"x": -4.6458742561,
				"y": 1.2915118048,
				"z": 1.0068379763,
				"element": "H" 
			},
			{
				"x": -3.1057776037,
				"y": -0.7194275974,
				"z": -2.4687553126,
				"element": "H" 
			},
			{
				"x": -0.8103009752,
				"y": -0.6175122896,
				"z": -1.504668566,
				"element": "H" 
			}
		],
		 "valence_orbital": [ 
			{
				"type": "occ",
				"energy": -0.29533,
				"method": "rhf"
			},
			{
				"type": "occ",
				"energy": -0.29325,
				"method": "rhf"
			},
			{
				"type": "occ",
				"energy": -0.27621,
				"method": "rhf"
			},
			{
				"type": "occ",
				"energy": -0.2738,
				"method": "rhf"
			},
			{
				"type": "occ",
				"energy": -0.2317,
				"method": "rhf"
			},
			{
				"type": "unocc",
				"energy": -0.05749,
				"method": "rhf"
			},
			{
				"type": "unocc",
				"energy": -0.02387,
				"method": "rhf"
			},
			{
				"type": "unocc",
				"energy": -0.01559,
				"method": "rhf"
			},
			{
				"type": "unocc",
				"energy": 0.00146,
				"method": "rhf"
			},
			{
				"type": "unocc",
				"energy": 0.03855,
				"method": "rhf"
			}
		],
		"cosmo_sigma_profile": { 
			"-0.025": 0.0,
			"-0.024": 0.0,
			"-0.023": 0.0,
			"-0.022": 0.0,
			"-0.021": 0.0,
			"-0.02": 0.0,
			"-0.019": 0.0,
			"-0.018": 0.0,
			"-0.017": 0.0,
			"-0.016": 0.0,
			"-0.015": 0.0,
			"-0.014": 0.0,
			"-0.013": 0.0,
			"-0.012": 0.0,
			"-0.011": 1.06287190931,
			"-0.01": 1.78203631333,
			"-0.009": 3.69568354243,
			"-0.008": 7.13550435468,
			"-0.007": 10.2370514052,
			"-0.006": 12.0185067006,
			"-0.005": 12.0705274194,
			"-0.004": 10.7630732544,
			"-0.003": 11.4118981733,
			"-0.002": 14.2999188795,
			"-0.001": 18.0935880284,
			"0.0": 22.5220997215,
			"0.001": 24.965819883,
			"0.002": 27.8686977016,
			"0.003": 19.6085865082,
			"0.004": 19.6861344418,
			"0.005": 10.6855387453,
			"0.006": 11.5930926966,
			"0.007": 6.65315284401,
			"0.008": 1.16918999865,
			"0.009": 1.30423424243,
			"0.01": 0.79640664004,
			"0.011": 0.798014140225,
			"0.012": 0.917352699305,
			"0.013": 0.564117196726,
			"0.014": 0.0734913159776,
			"0.015": 0.0,
			"0.016": 0.0,
			"0.017": 0.0,
			"0.018": 0.0,
			"0.019": 0.0,
			"0.02": 0.0,
			"0.021": 0.0,
			"0.022": 0.0,
			"0.023": 0.0,
			"0.024": 0.0,
			"0.025": 0.0
		}
	}
}
