{
	 "smiles": "NC1=NC(=CS1)C1=CC(=CC=C1)N1C=NN=N1", 
	 "Tm": 458.15, 
	 "num_atms": 25, 
	 "gaussian": { 
		 "optdone": 1, 
		 "sigma_profile": "yes", 
		 "theory": "DFT", 
		 "functional": "B3LYP", 
		 "basiset": "6-31G**", 
		 "properties": { 
			 "R2extent": 6042.0432, 
			 "electric_dipole_moment_norm": 7.64091870196, 
			 "electric_quadrupole_moment_norm": 25.4306302446, 
			 "total_energy": -1112.52279152, 
			 "HOMO_LUMO_gap": 0.16382, 
			 "cosmo_polarized_energy": -20.26, 
			 "cosmo_cavitation_energy": 32.39, 
			 "cosmo_dispersion_energy": -24.35, 
			 "cosmo_repulsion_energy": 1.81, 
			 "cosmo_total_nonelectrostatic_energy": 9.85, 
			 "SMD_solvation_energy": 2.82 
		},
		"coords": [
			{
				"x": 0.5422961767,
				"y": -0.7381639473,
				"z": 4.7845301382,
				"element": "N" 
			},
			{
				"x": 0.3948966526,
				"y": 0.323605173,
				"z": 3.9260824729,
				"element": "C" 
			},
			{
				"x": 0.4717960474,
				"y": 0.2314276914,
				"z": 2.6320020842,
				"element": "N" 
			},
			{
				"x": 0.206567531,
				"y": 1.4498032086,
				"z": 2.0210979485,
				"element": "C" 
			},
			{
				"x": -0.0681667736,
				"y": 2.4821713837,
				"z": 2.8761037004,
				"element": "C" 
			},
			{
				"x": -0.0199392309,
				"y": 1.935365976,
				"z": 4.5304698901,
				"element": "S" 
			},
			{
				"x": 0.2530202688,
				"y": 1.5230628814,
				"z": 0.5483674642,
				"element": "C" 
			},
			{
				"x": 0.5783300653,
				"y": 0.3694873062,
				"z": -0.1798547677,
				"element": "C" 
			},
			{
				"x": 0.622913387,
				"y": 0.4119506509,
				"z": -1.5725716678,
				"element": "C" 
			},
			{
				"x": 0.367852777,
				"y": 1.5930198518,
				"z": -2.2727019355,
				"element": "C" 
			},
			{
				"x": 0.059181556,
				"y": 2.7417778758,
				"z": -1.5450036089,
				"element": "C" 
			},
			{
				"x": -0.0053659465,
				"y": 2.71183469,
				"z": -0.1543434386,
				"element": "C" 
			},
			{
				"x": 0.932217249,
				"y": -0.7744370681,
				"z": -2.298467728,
				"element": "N" 
			},
			{
				"x": 0.7492151999,
				"y": -2.0765572617,
				"z": -1.97802553,
				"element": "C" 
			},
			{
				"x": 1.1796029874,
				"y": -2.8293825589,
				"z": -2.9672452946,
				"element": "N" 
			},
			{
				"x": 1.6350924818,
				"y": -1.9627691261,
				"z": -3.9156907305,
				"element": "N" 
			},
			{
				"x": 1.4952427611,
				"y": -0.7365039156,
				"z": -3.5359901118,
				"element": "N" 
			},
			{
				"x": 0.9599836789,
				"y": -1.551113583,
				"z": 4.3514917856,
				"element": "H" 
			},
			{
				"x": 0.8835950002,
				"y": -0.5406335587,
				"z": 5.7138609353,
				"element": "H" 
			},
			{
				"x": -0.2864165903,
				"y": 3.5157420368,
				"z": 2.6550195934,
				"element": "H" 
			},
			{
				"x": 0.8074195898,
				"y": -0.5380404782,
				"z": 0.3652613516,
				"element": "H" 
			},
			{
				"x": 0.4143488568,
				"y": 1.5995948245,
				"z": -3.3547639975,
				"element": "H" 
			},
			{
				"x": -0.1413743506,
				"y": 3.66880542,
				"z": -2.0731181763,
				"element": "H" 
			},
			{
				"x": -0.2565934462,
				"y": 3.6196811922,
				"z": 0.3841834864,
				"element": "H" 
			},
			{
				"x": 0.2991840712,
				"y": -2.4208286645,
				"z": -1.0604938637,
				"element": "H" 
			}
		],
		 "valence_orbital": [ 
			{
				"type": "occ",
				"energy": -0.28965,
				"method": "rhf"
			},
			{
				"type": "occ",
				"energy": -0.28223,
				"method": "rhf"
			},
			{
				"type": "occ",
				"energy": -0.2663,
				"method": "rhf"
			},
			{
				"type": "occ",
				"energy": -0.25789,
				"method": "rhf"
			},
			{
				"type": "occ",
				"energy": -0.21731,
				"method": "rhf"
			},
			{
				"type": "unocc",
				"energy": -0.05349,
				"method": "rhf"
			},
			{
				"type": "unocc",
				"energy": -0.03714,
				"method": "rhf"
			},
			{
				"type": "unocc",
				"energy": -0.00938,
				"method": "rhf"
			},
			{
				"type": "unocc",
				"energy": -0.00281,
				"method": "rhf"
			},
			{
				"type": "unocc",
				"energy": 0.01302,
				"method": "rhf"
			}
		],
		"cosmo_sigma_profile": { 
			"-0.025": 0.0,
			"-0.024": 0.0,
			"-0.023": 0.0,
			"-0.022": 0.0,
			"-0.021": 0.0,
			"-0.02": 0.0,
			"-0.019": 0.0,
			"-0.018": 0.0,
			"-0.017": 0.0,
			"-0.016": 0.0,
			"-0.015": 0.635148192246,
			"-0.014": 2.26927839825,
			"-0.013": 3.4560265038,
			"-0.012": 4.48810593201,
			"-0.011": 4.61519396038,
			"-0.01": 5.21775583087,
			"-0.009": 6.21464294581,
			"-0.008": 6.32984057586,
			"-0.007": 8.5020121515,
			"-0.006": 9.99356733253,
			"-0.005": 12.6687877424,
			"-0.004": 14.2799532986,
			"-0.003": 11.2688083679,
			"-0.002": 13.1427990536,
			"-0.001": 8.62393523488,
			"0.0": 15.1000548866,
			"0.001": 17.5158296603,
			"0.002": 26.2286461966,
			"0.003": 27.2326162379,
			"0.004": 14.9584269812,
			"0.005": 6.45708574235,
			"0.006": 6.29386143281,
			"0.007": 6.06100085882,
			"0.008": 7.03383268682,
			"0.009": 7.54614767359,
			"0.01": 6.45303559372,
			"0.011": 4.01200226462,
			"0.012": 3.08584825076,
			"0.013": 2.22401991806,
			"0.014": 1.63329656694,
			"0.015": 0.396732591158,
			"0.016": 0.0,
			"0.017": 0.0,
			"0.018": 0.0,
			"0.019": 0.0,
			"0.02": 0.0,
			"0.021": 0.0,
			"0.022": 0.0,
			"0.023": 0.0,
			"0.024": 0.0,
			"0.025": 0.0
		}
	}
}
