{
	 "smiles": "NNC(=O)C1=CC=C(Cl)C=C1", 
	 "Tm": 437.15, 
	 "num_atms": 18, 
	 "gaussian": { 
		 "optdone": 1, 
		 "sigma_profile": "yes", 
		 "theory": "DFT", 
		 "functional": "B3LYP", 
		 "basiset": "6-31G**", 
		 "properties": { 
			 "R2extent": 3837.2489, 
			 "electric_dipole_moment_norm": 1.72642414545, 
			 "electric_quadrupole_moment_norm": 8.41366519003, 
			 "total_energy": -915.867075905, 
			 "HOMO_LUMO_gap": 0.20429, 
			 "cosmo_polarized_energy": -12.02, 
			 "cosmo_cavitation_energy": 24.45, 
			 "cosmo_dispersion_energy": -18.29, 
			 "cosmo_repulsion_energy": 1.48, 
			 "cosmo_total_nonelectrostatic_energy": 7.64, 
			 "SMD_solvation_energy": 4.98 
		},
		"coords": [
			{
				"x": -1.2273193709,
				"y": -0.3803102132,
				"z": -3.3926971214,
				"element": "N" 
			},
			{
				"x": -1.1538658389,
				"y": -1.046312765,
				"z": -2.1476414717,
				"element": "N" 
			},
			{
				"x": -1.2784990329,
				"y": -0.3237820393,
				"z": -0.9824120321,
				"element": "C" 
			},
			{
				"x": -1.5862983625,
				"y": 0.8647427959,
				"z": -0.9953947102,
				"element": "O" 
			},
			{
				"x": -1.0106866049,
				"y": -1.07230296,
				"z": 0.288239545,
				"element": "C" 
			},
			{
				"x": -0.7068069264,
				"y": -0.3199984976,
				"z": 1.4302742632,
				"element": "C" 
			},
			{
				"x": -0.4456584402,
				"y": -0.9447777341,
				"z": 2.6460323185,
				"element": "C" 
			},
			{
				"x": -0.5024906668,
				"y": -2.33790444,
				"z": 2.7181475577,
				"element": "C" 
			},
			{
				"x": -0.1763363066,
				"y": -3.1360384112,
				"z": 4.246758113,
				"element": "Cl" 
			},
			{
				"x": -0.8231116416,
				"y": -3.1081107452,
				"z": 1.6000565604,
				"element": "C" 
			},
			{
				"x": -1.0776776488,
				"y": -2.4690294838,
				"z": 0.3877375672,
				"element": "C" 
			},
			{
				"x": -2.2112803315,
				"y": -0.3458994696,
				"z": -3.6576936401,
				"element": "H" 
			},
			{
				"x": -0.9642668422,
				"y": 0.5907333952,
				"z": -3.2131834613,
				"element": "H" 
			},
			{
				"x": -0.538382785,
				"y": -1.8475617206,
				"z": -2.1563007664,
				"element": "H" 
			},
			{
				"x": -0.6825857844,
				"y": 0.7610354166,
				"z": 1.3447717855,
				"element": "H" 
			},
			{
				"x": -0.2032298425,
				"y": -0.3646537367,
				"z": 3.529401877,
				"element": "H" 
			},
			{
				"x": -0.8819868409,
				"y": -4.1875966027,
				"z": 1.6820206513,
				"element": "H" 
			},
			{
				"x": -1.362116733,
				"y": -3.0686327889,
				"z": -0.4716170356,
				"element": "H" 
			}
		],
		 "valence_orbital": [ 
			{
				"type": "occ",
				"energy": -0.29592,
				"method": "rhf"
			},
			{
				"type": "occ",
				"energy": -0.27636,
				"method": "rhf"
			},
			{
				"type": "occ",
				"energy": -0.26899,
				"method": "rhf"
			},
			{
				"type": "occ",
				"energy": -0.25835,
				"method": "rhf"
			},
			{
				"type": "occ",
				"energy": -0.2547,
				"method": "rhf"
			},
			{
				"type": "unocc",
				"energy": -0.05041,
				"method": "rhf"
			},
			{
				"type": "unocc",
				"energy": -0.02566,
				"method": "rhf"
			},
			{
				"type": "unocc",
				"energy": 0.02172,
				"method": "rhf"
			},
			{
				"type": "unocc",
				"energy": 0.04318,
				"method": "rhf"
			},
			{
				"type": "unocc",
				"energy": 0.08742,
				"method": "rhf"
			}
		],
		"cosmo_sigma_profile": { 
			"-0.025": 0.0,
			"-0.024": 0.0,
			"-0.023": 0.0,
			"-0.022": 0.0,
			"-0.021": 0.0,
			"-0.02": 0.0,
			"-0.019": 0.0,
			"-0.018": 0.0,
			"-0.017": 0.0,
			"-0.016": 0.0,
			"-0.015": 0.148812473352,
			"-0.014": 0.84888082387,
			"-0.013": 1.1490995897,
			"-0.012": 1.78075614544,
			"-0.011": 2.54981463458,
			"-0.01": 3.56068329578,
			"-0.009": 3.69582153567,
			"-0.008": 5.99443997641,
			"-0.007": 7.90235117583,
			"-0.006": 8.39171212308,
			"-0.005": 9.46944295497,
			"-0.004": 7.9205066648,
			"-0.003": 9.41144627103,
			"-0.002": 9.7161400034,
			"-0.001": 13.2938094234,
			"0.0": 13.3197415186,
			"0.001": 19.6192024154,
			"0.002": 21.7398587874,
			"0.003": 15.2816098445,
			"0.004": 12.8506365163,
			"0.005": 4.76331548571,
			"0.006": 2.39149901937,
			"0.007": 2.24400120591,
			"0.008": 1.94511843832,
			"0.009": 2.25245420537,
			"0.01": 1.92663588351,
			"0.011": 2.38744734272,
			"0.012": 3.07686173279,
			"0.013": 5.20328765337,
			"0.014": 0.943998012028,
			"0.015": 0.806094694316,
			"0.016": 0.513802462951,
			"0.017": 0.276137148218,
			"0.018": 0.0,
			"0.019": 0.0,
			"0.02": 0.0,
			"0.021": 0.0,
			"0.022": 0.0,
			"0.023": 0.0,
			"0.024": 0.0,
			"0.025": 0.0
		}
	}
}
