{
	 "smiles": "CSC(SC)=NS(=O)(=O)C1=CC=C(C)C=C1", 
	 "Tm": 383.15, 
	 "num_atms": 29, 
	 "gaussian": { 
		 "optdone": 1, 
		 "sigma_profile": "yes", 
		 "theory": "DFT", 
		 "functional": "B3LYP", 
		 "basiset": "6-31G**", 
		 "properties": { 
			 "R2extent": 7812.9692, 
			 "electric_dipole_moment_norm": 4.09666829875, 
			 "electric_quadrupole_moment_norm": 13.532630916, 
			 "total_energy": -1788.58538493, 
			 "HOMO_LUMO_gap": 0.20121, 
			 "cosmo_polarized_energy": -12.84, 
			 "cosmo_cavitation_energy": 37.09, 
			 "cosmo_dispersion_energy": -27.0, 
			 "cosmo_repulsion_energy": 2.0, 
			 "cosmo_total_nonelectrostatic_energy": 12.09, 
			 "SMD_solvation_energy": 5.72 
		},
		"coords": [
			{
				"x": -4.2765950179,
				"y": -1.2933679601,
				"z": -1.4235453508,
				"element": "C" 
			},
			{
				"x": -3.8085404524,
				"y": -0.3968082271,
				"z": -2.9506287832,
				"element": "S" 
			},
			{
				"x": -2.0977148372,
				"y": -0.7641511472,
				"z": -3.2713966,
				"element": "C" 
			},
			{
				"x": -1.8443919591,
				"y": -0.5875322048,
				"z": -5.0265247582,
				"element": "S" 
			},
			{
				"x": -0.0238625023,
				"y": -0.5201578758,
				"z": -5.1171883309,
				"element": "C" 
			},
			{
				"x": -1.0881146068,
				"y": -1.0843247408,
				"z": -2.5436271473,
				"element": "N" 
			},
			{
				"x": -1.0479341462,
				"y": -1.1613124414,
				"z": -0.8551429443,
				"element": "S" 
			},
			{
				"x": -1.7244728276,
				"y": -0.000792283,
				"z": -0.2544534495,
				"element": "O" 
			},
			{
				"x": -1.4230441012,
				"y": -2.5223698055,
				"z": -0.4472384466,
				"element": "O" 
			},
			{
				"x": 0.710849113,
				"y": -0.9646452939,
				"z": -0.6018849267,
				"element": "C" 
			},
			{
				"x": 1.2195721297,
				"y": 0.2954140965,
				"z": -0.2889431725,
				"element": "C" 
			},
			{
				"x": 2.5906759534,
				"y": 0.4376312928,
				"z": -0.0810552517,
				"element": "C" 
			},
			{
				"x": 3.4567591364,
				"y": -0.6604841289,
				"z": -0.1767546103,
				"element": "C" 
			},
			{
				"x": 4.9357549412,
				"y": -0.5039760178,
				"z": 0.0830109116,
				"element": "C" 
			},
			{
				"x": 2.9135161544,
				"y": -1.9163800853,
				"z": -0.4882656489,
				"element": "C" 
			},
			{
				"x": 1.5464905878,
				"y": -2.0785642035,
				"z": -0.6980579752,
				"element": "C" 
			},
			{
				"x": -3.9837804283,
				"y": -0.7260648723,
				"z": -0.5422724344,
				"element": "H" 
			},
			{
				"x": -5.3633810646,
				"y": -1.3838237745,
				"z": -1.4856006455,
				"element": "H" 
			},
			{
				"x": -3.8247652223,
				"y": -2.2847825646,
				"z": -1.400534887,
				"element": "H" 
			},
			{
				"x": 0.4078828517,
				"y": -1.455334717,
				"z": -4.7615489238,
				"element": "H" 
			},
			{
				"x": 0.357908206,
				"y": 0.3120118873,
				"z": -4.5244656592,
				"element": "H" 
			},
			{
				"x": 0.2134735791,
				"y": -0.3697656882,
				"z": -6.1726036004,
				"element": "H" 
			},
			{
				"x": 0.5469427957,
				"y": 1.141582397,
				"z": -0.2014063808,
				"element": "H" 
			},
			{
				"x": 2.9936355788,
				"y": 1.4168842292,
				"z": 0.1635616658,
				"element": "H" 
			},
			{
				"x": 5.1710970786,
				"y": -0.7037274619,
				"z": 1.1357894503,
				"element": "H" 
			},
			{
				"x": 5.276815733,
				"y": 0.5109544311,
				"z": -0.140103739,
				"element": "H" 
			},
			{
				"x": 5.5243423868,
				"y": -1.20258414,
				"z": -0.5189521878,
				"element": "H" 
			},
			{
				"x": 3.5702092217,
				"y": -2.7792685852,
				"z": -0.5622105262,
				"element": "H" 
			},
			{
				"x": 1.1262717188,
				"y": -3.0528601154,
				"z": -0.9224556475,
				"element": "H" 
			}
		],
		 "valence_orbital": [ 
			{
				"type": "occ",
				"energy": -0.2784,
				"method": "rhf"
			},
			{
				"type": "occ",
				"energy": -0.26703,
				"method": "rhf"
			},
			{
				"type": "occ",
				"energy": -0.25775,
				"method": "rhf"
			},
			{
				"type": "occ",
				"energy": -0.25189,
				"method": "rhf"
			},
			{
				"type": "occ",
				"energy": -0.24934,
				"method": "rhf"
			},
			{
				"type": "unocc",
				"energy": -0.04813,
				"method": "rhf"
			},
			{
				"type": "unocc",
				"energy": -0.02796,
				"method": "rhf"
			},
			{
				"type": "unocc",
				"energy": -0.01691,
				"method": "rhf"
			},
			{
				"type": "unocc",
				"energy": 0.00754,
				"method": "rhf"
			},
			{
				"type": "unocc",
				"energy": 0.03634,
				"method": "rhf"
			}
		],
		"cosmo_sigma_profile": { 
			"-0.025": 0.0,
			"-0.024": 0.0,
			"-0.023": 0.0,
			"-0.022": 0.0,
			"-0.021": 0.0,
			"-0.02": 0.0,
			"-0.019": 0.0,
			"-0.018": 0.0,
			"-0.017": 0.0,
			"-0.016": 0.0,
			"-0.015": 0.0,
			"-0.014": 0.0,
			"-0.013": 0.0,
			"-0.012": 0.0,
			"-0.011": 0.0,
			"-0.01": 0.0,
			"-0.009": 0.16199038384,
			"-0.008": 3.56920014253,
			"-0.007": 7.65463816751,
			"-0.006": 15.5375087756,
			"-0.005": 22.7328317699,
			"-0.004": 24.5201190422,
			"-0.003": 26.7389093803,
			"-0.002": 26.1047399218,
			"-0.001": 22.2007791137,
			"0.0": 21.4112496057,
			"0.001": 19.7394149783,
			"0.002": 21.4206258761,
			"0.003": 26.5913989298,
			"0.004": 16.6373319864,
			"0.005": 10.8699034212,
			"0.006": 8.8304287712,
			"0.007": 3.51178167197,
			"0.008": 3.65931259158,
			"0.009": 4.22526115671,
			"0.01": 7.27351994094,
			"0.011": 5.26386394493,
			"0.012": 0.479994113771,
			"0.013": 0.0,
			"0.014": 0.0,
			"0.015": 0.0,
			"0.016": 0.0,
			"0.017": 0.0,
			"0.018": 0.0,
			"0.019": 0.0,
			"0.02": 0.0,
			"0.021": 0.0,
			"0.022": 0.0,
			"0.023": 0.0,
			"0.024": 0.0,
			"0.025": 0.0
		}
	}
}
