{
	 "smiles": "COC1=CC=C(C=C1)C1(CCOCC1)C(O)=O", 
	 "Tm": 441.15, 
	 "num_atms": 33, 
	 "gaussian": { 
		 "optdone": 1, 
		 "sigma_profile": "yes", 
		 "theory": "DFT", 
		 "functional": "B3LYP", 
		 "basiset": "6-31G**", 
		 "properties": { 
			 "R2extent": 5082.7635, 
			 "electric_dipole_moment_norm": 3.2870919762, 
			 "electric_quadrupole_moment_norm": 10.5982737179, 
			 "total_energy": -805.915163424, 
			 "HOMO_LUMO_gap": 0.20934, 
			 "cosmo_polarized_energy": -13.49, 
			 "cosmo_cavitation_energy": 34.21, 
			 "cosmo_dispersion_energy": -24.92, 
			 "cosmo_repulsion_energy": 1.92, 
			 "cosmo_total_nonelectrostatic_energy": 11.21, 
			 "SMD_solvation_energy": 7.26 
		},
		"coords": [
			{
				"x": -2.4000318438,
				"y": -0.6106762055,
				"z": -5.5853849591,
				"element": "C" 
			},
			{
				"x": -1.4185209703,
				"y": 0.2483169557,
				"z": -5.0276747903,
				"element": "O" 
			},
			{
				"x": -1.0611210121,
				"y": 0.0596048117,
				"z": -3.7246474137,
				"element": "C" 
			},
			{
				"x": -0.0922433445,
				"y": 0.9365731101,
				"z": -3.2205983147,
				"element": "C" 
			},
			{
				"x": 0.341111219,
				"y": 0.8246773735,
				"z": -1.9046720605,
				"element": "C" 
			},
			{
				"x": -0.1655400956,
				"y": -0.1659935215,
				"z": -1.0475334558,
				"element": "C" 
			},
			{
				"x": -1.1429925465,
				"y": -1.0253076325,
				"z": -1.5659371551,
				"element": "C" 
			},
			{
				"x": -1.5910724246,
				"y": -0.9262370111,
				"z": -2.8844376146,
				"element": "C" 
			},
			{
				"x": 0.3052966547,
				"y": -0.310638923,
				"z": 0.4160912896,
				"element": "C" 
			},
			{
				"x": 1.5091373215,
				"y": 0.5987051839,
				"z": 0.7554677241,
				"element": "C" 
			},
			{
				"x": 2.0624919484,
				"y": 0.3095304908,
				"z": 2.1540643983,
				"element": "C" 
			},
			{
				"x": 2.4401355366,
				"y": -1.052336851,
				"z": 2.3085995907,
				"element": "O" 
			},
			{
				"x": 1.3330454118,
				"y": -1.919571746,
				"z": 2.1171834519,
				"element": "C" 
			},
			{
				"x": 0.7270705528,
				"y": -1.7751428109,
				"z": 0.7183903759,
				"element": "C" 
			},
			{
				"x": -0.8871482083,
				"y": 0.1362924543,
				"z": 1.2809063552,
				"element": "C" 
			},
			{
				"x": -1.7802672855,
				"y": -0.8604780424,
				"z": 1.5129498619,
				"element": "O" 
			},
			{
				"x": -1.0676883051,
				"y": 1.2590456388,
				"z": 1.6997652887,
				"element": "O" 
			},
			{
				"x": -2.0759519775,
				"y": -1.6594304191,
				"z": -5.5725857283,
				"element": "H" 
			},
			{
				"x": -2.5300916096,
				"y": -0.2888381108,
				"z": -6.6197991435,
				"element": "H" 
			},
			{
				"x": -3.3595602629,
				"y": -0.5264313665,
				"z": -5.0588290964,
				"element": "H" 
			},
			{
				"x": 0.3076705644,
				"y": 1.7015782918,
				"z": -3.8781521397,
				"element": "H" 
			},
			{
				"x": 1.0877929008,
				"y": 1.5258978191,
				"z": -1.5511746797,
				"element": "H" 
			},
			{
				"x": -1.5830649884,
				"y": -1.7866977356,
				"z": -0.930604807,
				"element": "H" 
			},
			{
				"x": -2.3476943093,
				"y": -1.6163605844,
				"z": -3.2387540891,
				"element": "H" 
			},
			{
				"x": 1.2188657549,
				"y": 1.6511034079,
				"z": 0.6951530126,
				"element": "H" 
			},
			{
				"x": 2.3017150048,
				"y": 0.4142181215,
				"z": 0.0224905769,
				"element": "H" 
			},
			{
				"x": 2.9655990235,
				"y": 0.8999100325,
				"z": 2.3341302393,
				"element": "H" 
			},
			{
				"x": 1.3201624905,
				"y": 0.5885856491,
				"z": 2.9194144187,
				"element": "H" 
			},
			{
				"x": 0.5628706451,
				"y": -1.7301823043,
				"z": 2.8850676792,
				"element": "H" 
			},
			{
				"x": 1.7083068142,
				"y": -2.9363951856,
				"z": 2.2673153363,
				"element": "H" 
			},
			{
				"x": -0.1186990234,
				"y": -2.4590369599,
				"z": 0.616354518,
				"element": "H" 
			},
			{
				"x": 1.4778483786,
				"y": -2.0628779285,
				"z": -0.0258009372,
				"element": "H" 
			},
			{
				"x": -2.508432014,
				"y": -0.4502060021,
				"z": 2.0099422676,
				"element": "H" 
			}
		],
		 "valence_orbital": [ 
			{
				"type": "occ",
				"energy": -0.29907,
				"method": "rhf"
			},
			{
				"type": "occ",
				"energy": -0.27575,
				"method": "rhf"
			},
			{
				"type": "occ",
				"energy": -0.2526,
				"method": "rhf"
			},
			{
				"type": "occ",
				"energy": -0.24655,
				"method": "rhf"
			},
			{
				"type": "occ",
				"energy": -0.21773,
				"method": "rhf"
			},
			{
				"type": "unocc",
				"energy": -0.00839,
				"method": "rhf"
			},
			{
				"type": "unocc",
				"energy": -0.00459,
				"method": "rhf"
			},
			{
				"type": "unocc",
				"energy": 0.02732,
				"method": "rhf"
			},
			{
				"type": "unocc",
				"energy": 0.07151,
				"method": "rhf"
			},
			{
				"type": "unocc",
				"energy": 0.09251,
				"method": "rhf"
			}
		],
		"cosmo_sigma_profile": { 
			"-0.025": 0.0,
			"-0.024": 0.0,
			"-0.023": 0.0,
			"-0.022": 0.0,
			"-0.021": 0.0,
			"-0.02": 0.0,
			"-0.019": 0.0245543929918,
			"-0.018": 0.58896891314,
			"-0.017": 1.22936979939,
			"-0.016": 0.570747819799,
			"-0.015": 0.505262989403,
			"-0.014": 0.743468014189,
			"-0.013": 0.591998368887,
			"-0.012": 0.902397180189,
			"-0.011": 1.22556386377,
			"-0.01": 0.565407125367,
			"-0.009": 0.55964958234,
			"-0.008": 0.290604019433,
			"-0.007": 1.2772688293,
			"-0.006": 8.20448462664,
			"-0.005": 22.5051569086,
			"-0.004": 28.7604491753,
			"-0.003": 33.0576539592,
			"-0.002": 28.5366261399,
			"-0.001": 17.4157945703,
			"0.0": 12.8522380466,
			"0.001": 12.741934809,
			"0.002": 11.807170247,
			"0.003": 15.185600906,
			"0.004": 16.9154726681,
			"0.005": 14.0422554292,
			"0.006": 6.86689891695,
			"0.007": 4.93981818609,
			"0.008": 4.857004483,
			"0.009": 3.89450187317,
			"0.01": 4.05320796324,
			"0.011": 5.24004135394,
			"0.012": 4.45484406653,
			"0.013": 2.38950740504,
			"0.014": 0.701230495089,
			"0.015": 0.0,
			"0.016": 0.0,
			"0.017": 0.0,
			"0.018": 0.0,
			"0.019": 0.0,
			"0.02": 0.0,
			"0.021": 0.0,
			"0.022": 0.0,
			"0.023": 0.0,
			"0.024": 0.0,
			"0.025": 0.0
		}
	}
}
