{
	 "smiles": "CN1C=C(N=C1C)S(Cl)(=O)=O", 
	 "Tm": 365.65, 
	 "num_atms": 18, 
	 "gaussian": { 
		 "optdone": 1, 
		 "sigma_profile": "yes", 
		 "theory": "DFT", 
		 "functional": "B3LYP", 
		 "basiset": "6-31G**", 
		 "properties": { 
			 "R2extent": 3692.6877, 
			 "electric_dipole_moment_norm": 8.67035955137, 
			 "electric_quadrupole_moment_norm": 11.2763998226, 
			 "total_energy": -1313.0042546, 
			 "HOMO_LUMO_gap": 0.18941, 
			 "cosmo_polarized_energy": -17.55, 
			 "cosmo_cavitation_energy": 25.82, 
			 "cosmo_dispersion_energy": -19.39, 
			 "cosmo_repulsion_energy": 1.53, 
			 "cosmo_total_nonelectrostatic_energy": 7.97, 
			 "SMD_solvation_energy": 2.17 
		},
		"coords": [
			{
				"x": 0.8155827503,
				"y": 2.1284494273,
				"z": -0.6523347554,
				"element": "C" 
			},
			{
				"x": -0.2105807419,
				"y": 1.1736930787,
				"z": -0.2529358333,
				"element": "N" 
			},
			{
				"x": -0.2581851803,
				"y": 0.4846435446,
				"z": 0.9350282742,
				"element": "C" 
			},
			{
				"x": -1.3973274918,
				"y": -0.2796160972,
				"z": 0.8423381812,
				"element": "C" 
			},
			{
				"x": -2.0432668908,
				"y": -0.0899842915,
				"z": -0.3399762258,
				"element": "N" 
			},
			{
				"x": -1.3100876263,
				"y": 0.7942126382,
				"z": -0.9917550227,
				"element": "C" 
			},
			{
				"x": -1.6117471193,
				"y": 1.3286186141,
				"z": -2.3523733145,
				"element": "C" 
			},
			{
				"x": -1.9382827312,
				"y": -1.3791671648,
				"z": 2.1338954159,
				"element": "S" 
			},
			{
				"x": -3.6981584762,
				"y": -2.1761405751,
				"z": 1.298308334,
				"element": "Cl" 
			},
			{
				"x": -0.9847114656,
				"y": -2.476169301,
				"z": 2.2657577825,
				"element": "O" 
			},
			{
				"x": -2.3280601661,
				"y": -0.5969666634,
				"z": 3.3027998089,
				"element": "O" 
			},
			{
				"x": 1.5516101568,
				"y": 2.2138040557,
				"z": 0.1474166447,
				"element": "H" 
			},
			{
				"x": 0.3758900895,
				"y": 3.1134340525,
				"z": -0.8320245786,
				"element": "H" 
			},
			{
				"x": 1.3216161343,
				"y": 1.7917905232,
				"z": -1.5613957671,
				"element": "H" 
			},
			{
				"x": 0.4883297859,
				"y": 0.594057223,
				"z": 1.7057101061,
				"element": "H" 
			},
			{
				"x": -1.7520800353,
				"y": 2.4158188128,
				"z": -2.3433503294,
				"element": "H" 
			},
			{
				"x": -2.5330879272,
				"y": 0.8645769062,
				"z": -2.7052718123,
				"element": "H" 
			},
			{
				"x": -0.8127530649,
				"y": 1.1016452166,
				"z": -3.0678369084,
				"element": "H" 
			}
		],
		 "valence_orbital": [ 
			{
				"type": "occ",
				"energy": -0.32322,
				"method": "rhf"
			},
			{
				"type": "occ",
				"energy": -0.30262,
				"method": "rhf"
			},
			{
				"type": "occ",
				"energy": -0.29911,
				"method": "rhf"
			},
			{
				"type": "occ",
				"energy": -0.29673,
				"method": "rhf"
			},
			{
				"type": "occ",
				"energy": -0.25304,
				"method": "rhf"
			},
			{
				"type": "unocc",
				"energy": -0.06363,
				"method": "rhf"
			},
			{
				"type": "unocc",
				"energy": -0.01178,
				"method": "rhf"
			},
			{
				"type": "unocc",
				"energy": 0.01627,
				"method": "rhf"
			},
			{
				"type": "unocc",
				"energy": 0.04947,
				"method": "rhf"
			},
			{
				"type": "unocc",
				"energy": 0.0567,
				"method": "rhf"
			}
		],
		"cosmo_sigma_profile": { 
			"-0.025": 0.0,
			"-0.024": 0.0,
			"-0.023": 0.0,
			"-0.022": 0.0,
			"-0.021": 0.0,
			"-0.02": 0.0,
			"-0.019": 0.0,
			"-0.018": 0.0,
			"-0.017": 0.0,
			"-0.016": 0.0,
			"-0.015": 0.0,
			"-0.014": 0.0,
			"-0.013": 0.0,
			"-0.012": 0.0247014324908,
			"-0.011": 3.14331696692,
			"-0.01": 2.93897503631,
			"-0.009": 2.78842082621,
			"-0.008": 4.03069279337,
			"-0.007": 11.3384783328,
			"-0.006": 13.4249738493,
			"-0.005": 13.7354311808,
			"-0.004": 16.2965982882,
			"-0.003": 11.3646747053,
			"-0.002": 14.4596461706,
			"-0.001": 12.3726160658,
			"0.0": 9.82202107117,
			"0.001": 10.8507145573,
			"0.002": 12.6068498983,
			"0.003": 15.3284628667,
			"0.004": 7.16152873207,
			"0.005": 5.4324194527,
			"0.006": 5.59412777043,
			"0.007": 4.7762271505,
			"0.008": 12.3701973859,
			"0.009": 11.9352904928,
			"0.01": 2.32644384321,
			"0.011": 1.46795092974,
			"0.012": 0.996613622012,
			"0.013": 1.35711567783,
			"0.014": 0.576761138629,
			"0.015": 0.0122514456614,
			"0.016": 0.0,
			"0.017": 0.0,
			"0.018": 0.0,
			"0.019": 0.0,
			"0.02": 0.0,
			"0.021": 0.0,
			"0.022": 0.0,
			"0.023": 0.0,
			"0.024": 0.0,
			"0.025": 0.0
		}
	}
}
