{
	 "smiles": "IC1=CC=CC=C1C=O", 
	 "Tm": 310.15, 
	 "num_atms": 14, 
	 "gaussian": { 
		 "optdone": 1, 
		 "sigma_profile": "no", 
		 "theory": "DFT", 
		 "functional": "B3LYP", 
		 "basiset": "6-31G**", 
		 "properties": { 
			 "R2extent": 2015.7344, 
			 "electric_dipole_moment_norm": 3.12294582886, 
			 "electric_quadrupole_moment_norm": 4.11607874196, 
			 "total_energy": -356.353391092, 
			 "HOMO_LUMO_gap": 0.17832, 
			 "cosmo_polarized_energy": -86742.78, 
			 "cosmo_cavitation_energy": 21.49, 
			 "cosmo_dispersion_energy": -17.27, 
			 "cosmo_repulsion_energy": 1.36, 
			 "cosmo_total_nonelectrostatic_energy": 5.58, 
			 "SMD_solvation_energy": 3.98 
		},
		"coords": [
			{
				"x": 0.0673638024,
				"y": -2.3952303067,
				"z": -4.2647559316,
				"element": "I" 
			},
			{
				"x": 0.3817691961,
				"y": -1.0182320121,
				"z": -2.6657177366,
				"element": "C" 
			},
			{
				"x": 1.5572842864,
				"y": -0.2657655802,
				"z": -2.7093452052,
				"element": "C" 
			},
			{
				"x": 1.8267533745,
				"y": 0.654419417,
				"z": -1.6948866499,
				"element": "C" 
			},
			{
				"x": 0.9289337998,
				"y": 0.826766841,
				"z": -0.6379743581,
				"element": "C" 
			},
			{
				"x": -0.2371035535,
				"y": 0.0737747619,
				"z": -0.6037799531,
				"element": "C" 
			},
			{
				"x": -0.533416753,
				"y": -0.8601652731,
				"z": -1.6125581972,
				"element": "C" 
			},
			{
				"x": -1.8089074423,
				"y": -1.6187484278,
				"z": -1.4860998532,
				"element": "C" 
			},
			{
				"x": -2.5873408705,
				"y": -1.4653970739,
				"z": -0.5641984181,
				"element": "O" 
			},
			{
				"x": 2.2577285127,
				"y": -0.3948746363,
				"z": -3.5265936775,
				"element": "H" 
			},
			{
				"x": 2.7434069272,
				"y": 1.2356798211,
				"z": -1.736474663,
				"element": "H" 
			},
			{
				"x": 1.140833492,
				"y": 1.5430522417,
				"z": 0.1497012453,
				"element": "H" 
			},
			{
				"x": -0.9606784899,
				"y": 0.1770628205,
				"z": 0.199149966,
				"element": "H" 
			},
			{
				"x": -2.017526282,
				"y": -2.3462425932,
				"z": -2.2925665679,
				"element": "H" 
			}
		],
		 "valence_orbital": [ 
			{
				"type": "occ",
				"energy": -0.30967,
				"method": "rhf"
			},
			{
				"type": "occ",
				"energy": -0.28671,
				"method": "rhf"
			},
			{
				"type": "occ",
				"energy": -0.27574,
				"method": "rhf"
			},
			{
				"type": "occ",
				"energy": -0.25755,
				"method": "rhf"
			},
			{
				"type": "occ",
				"energy": -0.25394,
				"method": "rhf"
			},
			{
				"type": "unocc",
				"energy": -0.07562,
				"method": "rhf"
			},
			{
				"type": "unocc",
				"energy": -0.05029,
				"method": "rhf"
			},
			{
				"type": "unocc",
				"energy": -0.02915,
				"method": "rhf"
			},
			{
				"type": "unocc",
				"energy": 0.02471,
				"method": "rhf"
			},
			{
				"type": "unocc",
				"energy": 0.03794,
				"method": "rhf"
			}
		],
		"cosmo_sigma_profile": { 
			"0.0": 0.0,
			"0.0": 0.0,
			"0.0": 0.0,
			"0.0": 0.0,
			"0.0": 0.0,
			"0.0": 0.0,
			"0.0": 0.0,
			"0.0": 0.0,
			"0.0": 0.0,
			"0.0": 0.0,
			"0.0": 0.0,
			"0.0": 0.0,
			"0.0": 0.0,
			"0.0": 0.0,
			"0.0": 0.0,
			"0.0": 0.0,
			"0.0": 0.0,
			"0.0": 0.0,
			"0.0": 0.0,
			"0.0": 0.0,
			"0.0": 0.0,
			"0.0": 0.0,
			"0.0": 0.0,
			"0.0": 0.0,
			"0.0": 0.0,
			"0.0": 0.0,
			"0.0": 0.0,
			"0.0": 0.0,
			"0.0": 0.0,
			"0.0": 0.0,
			"0.0": 0.0,
			"0.0": 0.0,
			"0.0": 0.0,
			"0.0": 0.0,
			"0.0": 0.0,
			"0.0": 0.0,
			"0.0": 0.0,
			"0.0": 0.0,
			"0.0": 0.0,
			"0.0": 0.0,
			"0.0": 0.0,
			"0.0": 0.0,
			"0.0": 0.0,
			"0.0": 0.0,
			"0.0": 0.0,
			"0.0": 0.0,
			"0.0": 0.0,
			"0.0": 0.0,
			"0.0": 0.0,
			"0.0": 0.0,
			"0.0": 0.0
		}
	}
}
