{
	 "smiles": "S=C(N1C=CN=C1)N1C=CN=C1", 
	 "Tm": 372.65, 
	 "num_atms": 18, 
	 "gaussian": { 
		 "optdone": 1, 
		 "sigma_profile": "yes", 
		 "theory": "DFT", 
		 "functional": "B3LYP", 
		 "basiset": "6-31G**", 
		 "properties": { 
			 "R2extent": 2855.1535, 
			 "electric_dipole_moment_norm": 1.7000823333, 
			 "electric_quadrupole_moment_norm": 9.25165104995, 
			 "total_energy": -887.509675263, 
			 "HOMO_LUMO_gap": 0.14329, 
			 "cosmo_polarized_energy": -12.16, 
			 "cosmo_cavitation_energy": 24.55, 
			 "cosmo_dispersion_energy": -18.23, 
			 "cosmo_repulsion_energy": 1.36, 
			 "cosmo_total_nonelectrostatic_energy": 7.69, 
			 "SMD_solvation_energy": 1.87 
		},
		"coords": [
			{
				"x": -1.9808322861,
				"y": -1.4512712775,
				"z": 1.6953786899,
				"element": "S" 
			},
			{
				"x": -0.531176324,
				"y": -1.284335806,
				"z": 0.9332370074,
				"element": "C" 
			},
			{
				"x": 0.2730818454,
				"y": -0.1469592014,
				"z": 1.0524716121,
				"element": "N" 
			},
			{
				"x": -0.1609020314,
				"y": 1.1296775654,
				"z": 1.4155361855,
				"element": "C" 
			},
			{
				"x": 0.9688306689,
				"y": 1.8766299852,
				"z": 1.5521536643,
				"element": "C" 
			},
			{
				"x": 2.1061606706,
				"y": 1.1103676325,
				"z": 1.3230480672,
				"element": "N" 
			},
			{
				"x": 1.6742196608,
				"y": -0.0797884459,
				"z": 1.0293277084,
				"element": "C" 
			},
			{
				"x": 0.0135084647,
				"y": -2.2701269035,
				"z": 0.1041597407,
				"element": "N" 
			},
			{
				"x": 0.8112073477,
				"y": -2.1103599373,
				"z": -1.0410813507,
				"element": "C" 
			},
			{
				"x": 0.9909723665,
				"y": -3.3670063555,
				"z": -1.5339385314,
				"element": "C" 
			},
			{
				"x": 0.3510414832,
				"y": -4.3116316194,
				"z": -0.7424390315,
				"element": "N" 
			},
			{
				"x": -0.2331811749,
				"y": -3.6383386601,
				"z": 0.2055124632,
				"element": "C" 
			},
			{
				"x": -1.2097890137,
				"y": 1.3497771379,
				"z": 1.5210509284,
				"element": "H" 
			},
			{
				"x": 1.0435639087,
				"y": 2.9257363633,
				"z": 1.8001521293,
				"element": "H" 
			},
			{
				"x": 2.2799188831,
				"y": -0.9505685369,
				"z": 0.829017036,
				"element": "H" 
			},
			{
				"x": 1.1106224802,
				"y": -1.1387495424,
				"z": -1.3964842883,
				"element": "H" 
			},
			{
				"x": 1.5395042834,
				"y": -3.6565632697,
				"z": -2.4191821352,
				"element": "H" 
			},
			{
				"x": -0.8292512331,
				"y": -4.0342891286,
				"z": 1.0138801046,
				"element": "H" 
			}
		],
		 "valence_orbital": [ 
			{
				"type": "occ",
				"energy": -0.29347,
				"method": "rhf"
			},
			{
				"type": "occ",
				"energy": -0.27999,
				"method": "rhf"
			},
			{
				"type": "occ",
				"energy": -0.26395,
				"method": "rhf"
			},
			{
				"type": "occ",
				"energy": -0.25996,
				"method": "rhf"
			},
			{
				"type": "occ",
				"energy": -0.24747,
				"method": "rhf"
			},
			{
				"type": "unocc",
				"energy": -0.10418,
				"method": "rhf"
			},
			{
				"type": "unocc",
				"energy": -0.0138,
				"method": "rhf"
			},
			{
				"type": "unocc",
				"energy": 0.0236,
				"method": "rhf"
			},
			{
				"type": "unocc",
				"energy": 0.03746,
				"method": "rhf"
			},
			{
				"type": "unocc",
				"energy": 0.04596,
				"method": "rhf"
			}
		],
		"cosmo_sigma_profile": { 
			"-0.025": 0.0,
			"-0.024": 0.0,
			"-0.023": 0.0,
			"-0.022": 0.0,
			"-0.021": 0.0,
			"-0.02": 0.0,
			"-0.019": 0.0,
			"-0.018": 0.0,
			"-0.017": 0.0,
			"-0.016": 0.0,
			"-0.015": 0.0,
			"-0.014": 0.0,
			"-0.013": 0.0,
			"-0.012": 0.0,
			"-0.011": 0.205508187569,
			"-0.01": 3.01600681287,
			"-0.009": 6.08840727817,
			"-0.008": 9.9765318929,
			"-0.007": 10.8866796917,
			"-0.006": 10.5058544567,
			"-0.005": 13.0663609137,
			"-0.004": 10.5140016108,
			"-0.003": 8.94645019179,
			"-0.002": 11.8365625659,
			"-0.001": 9.6523882695,
			"0.0": 12.24032355,
			"0.001": 14.8322049687,
			"0.002": 15.5409069056,
			"0.003": 18.1106820263,
			"0.004": 9.0711220156,
			"0.005": 6.54428756636,
			"0.006": 5.51419516729,
			"0.007": 6.62466590518,
			"0.008": 2.48865281687,
			"0.009": 1.28621325887,
			"0.01": 2.48583762045,
			"0.011": 2.58949968942,
			"0.012": 2.00207803548,
			"0.013": 2.20551622258,
			"0.014": 2.15530265102,
			"0.015": 2.09065512798,
			"0.016": 1.42431917988,
			"0.017": 0.0395312918167,
			"0.018": 0.0,
			"0.019": 0.0,
			"0.02": 0.0,
			"0.021": 0.0,
			"0.022": 0.0,
			"0.023": 0.0,
			"0.024": 0.0,
			"0.025": 0.0
		}
	}
}
