{
	 "smiles": "COC1=CC=C2N=C(S)NC2=N1", 
	 "Tm": 512.65, 
	 "num_atms": 19, 
	 "gaussian": { 
		 "optdone": 1, 
		 "sigma_profile": "yes", 
		 "theory": "DFT", 
		 "functional": "B3LYP", 
		 "basiset": "6-31G**", 
		 "properties": { 
			 "R2extent": 3630.2987, 
			 "electric_dipole_moment_norm": 3.54440443657, 
			 "electric_quadrupole_moment_norm": 13.3120669736, 
			 "total_energy": -908.626694171, 
			 "HOMO_LUMO_gap": 0.18117, 
			 "cosmo_polarized_energy": -15.54, 
			 "cosmo_cavitation_energy": 25.42, 
			 "cosmo_dispersion_energy": -19.83, 
			 "cosmo_repulsion_energy": 1.54, 
			 "cosmo_total_nonelectrostatic_energy": 7.13, 
			 "SMD_solvation_energy": 1.3 
		},
		"coords": [
			{
				"x": 1.3639881955,
				"y": -2.4705652536,
				"z": 1.4906404455,
				"element": "C" 
			},
			{
				"x": 1.1215280571,
				"y": -2.3765601328,
				"z": 0.0874400123,
				"element": "O" 
			},
			{
				"x": 1.0142907567,
				"y": -1.1344384572,
				"z": -0.4390927773,
				"element": "C" 
			},
			{
				"x": 0.7736049145,
				"y": -1.0689941449,
				"z": -1.8343671215,
				"element": "C" 
			},
			{
				"x": 0.6503925004,
				"y": 0.1657989362,
				"z": -2.4541145012,
				"element": "C" 
			},
			{
				"x": 0.7739156078,
				"y": 1.3038017844,
				"z": -1.6459515667,
				"element": "C" 
			},
			{
				"x": 0.7076953426,
				"y": 2.6620137833,
				"z": -1.9245306758,
				"element": "N" 
			},
			{
				"x": 0.8982720135,
				"y": 3.2439218234,
				"z": -0.7700753709,
				"element": "C" 
			},
			{
				"x": 0.90442149,
				"y": 5.0046522195,
				"z": -0.5958497961,
				"element": "S" 
			},
			{
				"x": 1.0900115764,
				"y": 2.3570392059,
				"z": 0.2757728122,
				"element": "N" 
			},
			{
				"x": 1.0124340256,
				"y": 1.0898687508,
				"z": -0.2750852213,
				"element": "C" 
			},
			{
				"x": 1.1372409752,
				"y": -0.074776283,
				"z": 0.3595638337,
				"element": "N" 
			},
			{
				"x": 0.5555196643,
				"y": -2.0071120626,
				"z": 2.0647879748,
				"element": "H" 
			},
			{
				"x": 1.4155203067,
				"y": -3.5385820215,
				"z": 1.7067512499,
				"element": "H" 
			},
			{
				"x": 2.3053386561,
				"y": -1.9835475235,
				"z": 1.7640079964,
				"element": "H" 
			},
			{
				"x": 0.6910962756,
				"y": -1.9970420409,
				"z": -2.3874003828,
				"element": "H" 
			},
			{
				"x": 0.4660314703,
				"y": 0.2500255013,
				"z": -3.5201774024,
				"element": "H" 
			},
			{
				"x": 1.1325535352,
				"y": 5.021257343,
				"z": 0.732587463,
				"element": "H" 
			},
			{
				"x": 1.2543446365,
				"y": 2.5665385723,
				"z": 1.2480930282,
				"element": "H" 
			}
		],
		 "valence_orbital": [ 
			{
				"type": "occ",
				"energy": -0.30998,
				"method": "rhf"
			},
			{
				"type": "occ",
				"energy": -0.27868,
				"method": "rhf"
			},
			{
				"type": "occ",
				"energy": -0.26285,
				"method": "rhf"
			},
			{
				"type": "occ",
				"energy": -0.25389,
				"method": "rhf"
			},
			{
				"type": "occ",
				"energy": -0.20562,
				"method": "rhf"
			},
			{
				"type": "unocc",
				"energy": -0.02445,
				"method": "rhf"
			},
			{
				"type": "unocc",
				"energy": 0.0005,
				"method": "rhf"
			},
			{
				"type": "unocc",
				"energy": 0.01643,
				"method": "rhf"
			},
			{
				"type": "unocc",
				"energy": 0.04723,
				"method": "rhf"
			},
			{
				"type": "unocc",
				"energy": 0.05664,
				"method": "rhf"
			}
		],
		"cosmo_sigma_profile": { 
			"-0.025": 0.0,
			"-0.024": 0.0,
			"-0.023": 0.0,
			"-0.022": 0.0,
			"-0.021": 0.0,
			"-0.02": 0.0,
			"-0.019": 0.0,
			"-0.018": 0.190503185501,
			"-0.017": 2.26653840756,
			"-0.016": 2.26264518014,
			"-0.015": 1.57314975619,
			"-0.014": 1.5948107746,
			"-0.013": 1.69449225454,
			"-0.012": 2.26668254455,
			"-0.011": 2.61286885095,
			"-0.01": 1.71942974411,
			"-0.009": 1.73049925026,
			"-0.008": 1.53970792765,
			"-0.007": 3.9419420358,
			"-0.006": 6.2518443247,
			"-0.005": 10.5511910474,
			"-0.004": 11.5624086289,
			"-0.003": 14.5226105688,
			"-0.002": 9.73557756977,
			"-0.001": 8.5285191553,
			"0.0": 14.9151947243,
			"0.001": 18.052814601,
			"0.002": 18.5332372661,
			"0.003": 16.3819401267,
			"0.004": 13.5469925664,
			"0.005": 9.38561836156,
			"0.006": 6.82263507725,
			"0.007": 6.10890994975,
			"0.008": 3.97697635394,
			"0.009": 3.11886459831,
			"0.01": 4.14344868432,
			"0.011": 1.82989955301,
			"0.012": 0.769353440611,
			"0.013": 1.0992141087,
			"0.014": 1.10842385993,
			"0.015": 0.959191913424,
			"0.016": 0.851235873362,
			"0.017": 0.0970398915939,
			"0.018": 0.0,
			"0.019": 0.0,
			"0.02": 0.0,
			"0.021": 0.0,
			"0.022": 0.0,
			"0.023": 0.0,
			"0.024": 0.0,
			"0.025": 0.0
		}
	}
}
