{
	 "smiles": "OC1=CC=C(C(O)=C1[N+]([O-])=O)[N+]([O-])=O", 
	 "Tm": 421.15, 
	 "num_atms": 18, 
	 "gaussian": { 
		 "optdone": 1, 
		 "sigma_profile": "yes", 
		 "theory": "DFT", 
		 "functional": "B3LYP", 
		 "basiset": "6-31G**", 
		 "properties": { 
			 "R2extent": 3528.071, 
			 "electric_dipole_moment_norm": 3.7752391368, 
			 "electric_quadrupole_moment_norm": 19.3006430642, 
			 "total_energy": -791.688488533, 
			 "HOMO_LUMO_gap": 0.13507, 
			 "cosmo_polarized_energy": -14.21, 
			 "cosmo_cavitation_energy": 23.63, 
			 "cosmo_dispersion_energy": -18.33, 
			 "cosmo_repulsion_energy": 1.41, 
			 "cosmo_total_nonelectrostatic_energy": 6.71, 
			 "SMD_solvation_energy": 9.0 
		},
		"coords": [
			{
				"x": -0.2551882336,
				"y": -1.9005945477,
				"z": 2.8074845898,
				"element": "O" 
			},
			{
				"x": -0.475888354,
				"y": -1.9330997074,
				"z": 1.4999469227,
				"element": "C" 
			},
			{
				"x": -0.3878621422,
				"y": -3.1722819892,
				"z": 0.8537268638,
				"element": "C" 
			},
			{
				"x": -0.6092204808,
				"y": -3.2578507024,
				"z": -0.5056981537,
				"element": "C" 
			},
			{
				"x": -0.9123291017,
				"y": -2.1349230054,
				"z": -1.2837803479,
				"element": "C" 
			},
			{
				"x": -1.0229926467,
				"y": -0.8577794178,
				"z": -0.6963252335,
				"element": "C" 
			},
			{
				"x": -1.3370070205,
				"y": 0.2018258277,
				"z": -1.4165226928,
				"element": "O" 
			},
			{
				"x": -0.7999709303,
				"y": -0.7722908123,
				"z": 0.7258067222,
				"element": "C" 
			},
			{
				"x": -0.9071979814,
				"y": 0.4899748339,
				"z": 1.3770439129,
				"element": "N" 
			},
			{
				"x": -0.7040359812,
				"y": 0.5731433457,
				"z": 2.605366947,
				"element": "O" 
			},
			{
				"x": -1.2034949952,
				"y": 1.5103203226,
				"z": 0.7217262628,
				"element": "O" 
			},
			{
				"x": -1.10836945,
				"y": -2.355109194,
				"z": -2.7196140805,
				"element": "N" 
			},
			{
				"x": -1.2230073505,
				"y": -3.5285132988,
				"z": -3.0874342061,
				"element": "O" 
			},
			{
				"x": -1.1340526516,
				"y": -1.3842985966,
				"z": -3.4683761157,
				"element": "O" 
			},
			{
				"x": -0.3583764886,
				"y": -0.9614472507,
				"z": 3.099424388,
				"element": "H" 
			},
			{
				"x": -0.1440166223,
				"y": -4.0432406687,
				"z": 1.4492888872,
				"element": "H" 
			},
			{
				"x": -0.5537607516,
				"y": -4.2102870077,
				"z": -1.0183444247,
				"element": "H" 
			},
			{
				"x": -1.374528818,
				"y": 0.9735518688,
				"z": -0.7949202416,
				"element": "H" 
			}
		],
		 "valence_orbital": [ 
			{
				"type": "occ",
				"energy": -0.31103,
				"method": "rhf"
			},
			{
				"type": "occ",
				"energy": -0.30997,
				"method": "rhf"
			},
			{
				"type": "occ",
				"energy": -0.3064,
				"method": "rhf"
			},
			{
				"type": "occ",
				"energy": -0.29063,
				"method": "rhf"
			},
			{
				"type": "occ",
				"energy": -0.26732,
				"method": "rhf"
			},
			{
				"type": "unocc",
				"energy": -0.13225,
				"method": "rhf"
			},
			{
				"type": "unocc",
				"energy": -0.09019,
				"method": "rhf"
			},
			{
				"type": "unocc",
				"energy": -0.03298,
				"method": "rhf"
			},
			{
				"type": "unocc",
				"energy": -0.00725,
				"method": "rhf"
			},
			{
				"type": "unocc",
				"energy": 0.04892,
				"method": "rhf"
			}
		],
		"cosmo_sigma_profile": { 
			"-0.025": 0.0,
			"-0.024": 0.0,
			"-0.023": 0.0,
			"-0.022": 0.0,
			"-0.021": 0.0,
			"-0.02": 0.0,
			"-0.019": 0.0,
			"-0.018": 0.0,
			"-0.017": 0.0,
			"-0.016": 0.0,
			"-0.015": 0.0,
			"-0.014": 0.0,
			"-0.013": 0.0,
			"-0.012": 0.169855319823,
			"-0.011": 1.12941543309,
			"-0.01": 4.60053600549,
			"-0.009": 7.41121748094,
			"-0.008": 8.43104793984,
			"-0.007": 9.62918584123,
			"-0.006": 9.57452849752,
			"-0.005": 12.2197967661,
			"-0.004": 12.312743152,
			"-0.003": 10.9963419167,
			"-0.002": 10.2292763151,
			"-0.001": 12.071946817,
			"0.0": 9.88558096028,
			"0.001": 6.93511997313,
			"0.002": 6.121412198,
			"0.003": 5.92454923315,
			"0.004": 6.98738981498,
			"0.005": 7.09090176655,
			"0.006": 8.60154119805,
			"0.007": 10.6498713877,
			"0.008": 14.7821348373,
			"0.009": 7.91534211387,
			"0.01": 4.56436043836,
			"0.011": 1.94322972321,
			"0.012": 0.826487612239,
			"0.013": 0.00845852918578,
			"0.014": 0.0,
			"0.015": 0.0,
			"0.016": 0.0,
			"0.017": 0.0,
			"0.018": 0.0,
			"0.019": 0.0,
			"0.02": 0.0,
			"0.021": 0.0,
			"0.022": 0.0,
			"0.023": 0.0,
			"0.024": 0.0,
			"0.025": 0.0
		}
	}
}
