{
	 "smiles": "[O-][N+](=O)C1=CC(=CC=C1)C1=NN=C(CCl)O1", 
	 "Tm": 389.15, 
	 "num_atms": 22, 
	 "gaussian": { 
		 "optdone": 1, 
		 "sigma_profile": "yes", 
		 "theory": "DFT", 
		 "functional": "B3LYP", 
		 "basiset": "6-31G**", 
		 "properties": { 
			 "R2extent": 5768.4492, 
			 "electric_dipole_moment_norm": 5.69487354557, 
			 "electric_quadrupole_moment_norm": 21.5694830434, 
			 "total_energy": -1196.56324732, 
			 "HOMO_LUMO_gap": 0.16866, 
			 "cosmo_polarized_energy": -15.69, 
			 "cosmo_cavitation_energy": 30.71, 
			 "cosmo_dispersion_energy": -22.43, 
			 "cosmo_repulsion_energy": 1.75, 
			 "cosmo_total_nonelectrostatic_energy": 10.03, 
			 "SMD_solvation_energy": 5.63 
		},
		"coords": [
			{
				"x": -2.3795453962,
				"y": 4.9459920978,
				"z": -1.4418403252,
				"element": "O" 
			},
			{
				"x": -1.3985978411,
				"y": 4.3008163635,
				"z": -1.0759919827,
				"element": "N" 
			},
			{
				"x": -0.2748448393,
				"y": 4.7641790109,
				"z": -0.8988926506,
				"element": "O" 
			},
			{
				"x": -1.5889361574,
				"y": 2.8572911585,
				"z": -0.8306234291,
				"element": "C" 
			},
			{
				"x": -0.4990924548,
				"y": 2.1025692707,
				"z": -0.4184908661,
				"element": "C" 
			},
			{
				"x": -0.687002651,
				"y": 0.7329559404,
				"z": -0.1858079521,
				"element": "C" 
			},
			{
				"x": -1.953959861,
				"y": 0.1569827534,
				"z": -0.3717867735,
				"element": "C" 
			},
			{
				"x": -3.0283755963,
				"y": 0.9432027322,
				"z": -0.7869140448,
				"element": "C" 
			},
			{
				"x": -2.8558567203,
				"y": 2.3058899648,
				"z": -1.0210360127,
				"element": "C" 
			},
			{
				"x": 0.4515307669,
				"y": -0.0700029938,
				"z": 0.2465011436,
				"element": "C" 
			},
			{
				"x": 1.6833223637,
				"y": 0.3082406176,
				"z": 0.4330962389,
				"element": "N" 
			},
			{
				"x": 2.3871513056,
				"y": -0.8197312013,
				"z": 0.8338235671,
				"element": "N" 
			},
			{
				"x": 1.5317500494,
				"y": -1.793944294,
				"z": 0.8653867798,
				"element": "C" 
			},
			{
				"x": 1.7780166372,
				"y": -3.2023211571,
				"z": 1.2446368729,
				"element": "C" 
			},
			{
				"x": 1.6172021849,
				"y": -4.3324206507,
				"z": -0.1721026848,
				"element": "Cl" 
			},
			{
				"x": 0.2774197462,
				"y": -1.3983899759,
				"z": 0.5080417931,
				"element": "O" 
			},
			{
				"x": 0.4703354223,
				"y": 2.5645992777,
				"z": -0.2813862648,
				"element": "H" 
			},
			{
				"x": -2.0913364926,
				"y": -0.9038726292,
				"z": -0.1929601103,
				"element": "H" 
			},
			{
				"x": -4.0044027177,
				"y": 0.491331495,
				"z": -0.9295106674,
				"element": "H" 
			},
			{
				"x": -3.6698864109,
				"y": 2.9423993432,
				"z": -1.3439145946,
				"element": "H" 
			},
			{
				"x": 1.0645476593,
				"y": -3.5463615483,
				"z": 1.9943483607,
				"element": "H" 
			},
			{
				"x": 2.795361003,
				"y": -3.2879055755,
				"z": 1.6222236027,
				"element": "H" 
			}
		],
		 "valence_orbital": [ 
			{
				"type": "occ",
				"energy": -0.31675,
				"method": "rhf"
			},
			{
				"type": "occ",
				"energy": -0.30136,
				"method": "rhf"
			},
			{
				"type": "occ",
				"energy": -0.29866,
				"method": "rhf"
			},
			{
				"type": "occ",
				"energy": -0.29847,
				"method": "rhf"
			},
			{
				"type": "occ",
				"energy": -0.26971,
				"method": "rhf"
			},
			{
				"type": "unocc",
				"energy": -0.10105,
				"method": "rhf"
			},
			{
				"type": "unocc",
				"energy": -0.07908,
				"method": "rhf"
			},
			{
				"type": "unocc",
				"energy": -0.04036,
				"method": "rhf"
			},
			{
				"type": "unocc",
				"energy": -0.01794,
				"method": "rhf"
			},
			{
				"type": "unocc",
				"energy": 0.02825,
				"method": "rhf"
			}
		],
		"cosmo_sigma_profile": { 
			"-0.025": 0.0,
			"-0.024": 0.0,
			"-0.023": 0.0,
			"-0.022": 0.0,
			"-0.021": 0.0,
			"-0.02": 0.0,
			"-0.019": 0.0,
			"-0.018": 0.0,
			"-0.017": 0.0,
			"-0.016": 0.0,
			"-0.015": 0.0,
			"-0.014": 0.0,
			"-0.013": 0.0,
			"-0.012": 0.0,
			"-0.011": 0.317513019782,
			"-0.01": 4.24800204705,
			"-0.009": 4.44085043473,
			"-0.008": 9.35457942309,
			"-0.007": 12.8784805872,
			"-0.006": 12.2544772303,
			"-0.005": 12.7743231372,
			"-0.004": 14.8019419801,
			"-0.003": 16.2834349767,
			"-0.002": 18.4190803647,
			"-0.001": 23.8700778327,
			"0.0": 18.2906314059,
			"0.001": 13.992452372,
			"0.002": 9.29978661569,
			"0.003": 9.13214455894,
			"0.004": 10.5417045968,
			"0.005": 14.2541252649,
			"0.006": 7.96357337806,
			"0.007": 11.6630943151,
			"0.008": 7.05797565034,
			"0.009": 6.57630177533,
			"0.01": 4.41874621504,
			"0.011": 2.53889876995,
			"0.012": 2.69076666179,
			"0.013": 1.73751061083,
			"0.014": 0.605332357648,
			"0.015": 0.0,
			"0.016": 0.0,
			"0.017": 0.0,
			"0.018": 0.0,
			"0.019": 0.0,
			"0.02": 0.0,
			"0.021": 0.0,
			"0.022": 0.0,
			"0.023": 0.0,
			"0.024": 0.0,
			"0.025": 0.0
		}
	}
}
