{
	 "smiles": "CSC(N(CC=C)CC=C)=C(C#N)C(N)=O", 
	 "Tm": 383.15, 
	 "num_atms": 31, 
	 "gaussian": { 
		 "optdone": 1, 
		 "sigma_profile": "yes", 
		 "theory": "DFT", 
		 "functional": "B3LYP", 
		 "basiset": "6-31G**", 
		 "properties": { 
			 "R2extent": 3865.4698, 
			 "electric_dipole_moment_norm": 3.3379367834, 
			 "electric_quadrupole_moment_norm": 15.7975259813, 
			 "total_energy": -1065.79363491, 
			 "HOMO_LUMO_gap": 0.16592, 
			 "cosmo_polarized_energy": -17.92, 
			 "cosmo_cavitation_energy": 35.8, 
			 "cosmo_dispersion_energy": -23.67, 
			 "cosmo_repulsion_energy": 1.82, 
			 "cosmo_total_nonelectrostatic_energy": 13.95, 
			 "SMD_solvation_energy": 8.92 
		},
		"coords": [
			{
				"x": -1.5180773528,
				"y": 2.1055859128,
				"z": 1.3334634212,
				"element": "C" 
			},
			{
				"x": 0.2103580564,
				"y": 1.9936102106,
				"z": 0.7352028672,
				"element": "S" 
			},
			{
				"x": 0.2768759464,
				"y": 0.3345323822,
				"z": 0.0526534516,
				"element": "C" 
			},
			{
				"x": 0.308923964,
				"y": -0.7215815501,
				"z": 0.9260953416,
				"element": "N" 
			},
			{
				"x": -0.0581574538,
				"y": -2.0977267868,
				"z": 0.5144165012,
				"element": "C" 
			},
			{
				"x": -1.3838584056,
				"y": -2.1830742776,
				"z": -0.1960576872,
				"element": "C" 
			},
			{
				"x": -1.6017668753,
				"y": -2.9264036998,
				"z": -1.2796477178,
				"element": "C" 
			},
			{
				"x": 0.9853910151,
				"y": -0.6372271844,
				"z": 2.2277329421,
				"element": "C" 
			},
			{
				"x": 0.1252218979,
				"y": -0.876698073,
				"z": 3.4433285818,
				"element": "C" 
			},
			{
				"x": -1.1967118743,
				"y": -1.0396259992,
				"z": 3.4836153752,
				"element": "C" 
			},
			{
				"x": 0.3693056374,
				"y": 0.198890194,
				"z": -1.32584167,
				"element": "C" 
			},
			{
				"x": 1.039977526,
				"y": -0.9124814528,
				"z": -1.901847432,
				"element": "C" 
			},
			{
				"x": 1.6317944796,
				"y": -1.7799916092,
				"z": -2.4147671082,
				"element": "N" 
			},
			{
				"x": -0.2509906112,
				"y": 1.1858359381,
				"z": -2.2791530277,
				"element": "C" 
			},
			{
				"x": 0.3020471766,
				"y": 1.2062108248,
				"z": -3.5287418573,
				"element": "N" 
			},
			{
				"x": -1.2021549965,
				"y": 1.898676965,
				"z": -1.9781767978,
				"element": "O" 
			},
			{
				"x": -1.6084197515,
				"y": 3.09225789,
				"z": 1.7938016696,
				"element": "H" 
			},
			{
				"x": -1.7367023628,
				"y": 1.3403974264,
				"z": 2.0779125893,
				"element": "H" 
			},
			{
				"x": -2.1787512792,
				"y": 2.0390169955,
				"z": 0.4684222058,
				"element": "H" 
			},
			{
				"x": 0.7307622744,
				"y": -2.5610228385,
				"z": -0.088561627,
				"element": "H" 
			},
			{
				"x": -0.1275107607,
				"y": -2.6611285462,
				"z": 1.4507624714,
				"element": "H" 
			},
			{
				"x": -2.2048409133,
				"y": -1.6328456611,
				"z": 0.2619778078,
				"element": "H" 
			},
			{
				"x": -0.7974196359,
				"y": -3.4638408384,
				"z": -1.7743089327,
				"element": "H" 
			},
			{
				"x": -2.5922350372,
				"y": -3.0103764719,
				"z": -1.7161725885,
				"element": "H" 
			},
			{
				"x": 1.8072221375,
				"y": -1.3705375347,
				"z": 2.2284538094,
				"element": "H" 
			},
			{
				"x": 1.4496574591,
				"y": 0.3482318023,
				"z": 2.3082977593,
				"element": "H" 
			},
			{
				"x": 0.6951755974,
				"y": -0.914639651,
				"z": 4.3717943111,
				"element": "H" 
			},
			{
				"x": -1.7141860539,
				"y": -1.2031414378,
				"z": 4.4233796316,
				"element": "H" 
			},
			{
				"x": -1.8072831876,
				"y": -1.0171594873,
				"z": 2.5863040322,
				"element": "H" 
			},
			{
				"x": 1.0316725796,
				"y": 0.5693326885,
				"z": -3.8075014674,
				"element": "H" 
			},
			{
				"x": -0.1657191959,
				"y": 1.7577238699,
				"z": -4.2306368561,
				"element": "H" 
			}
		],
		 "valence_orbital": [ 
			{
				"type": "occ",
				"energy": -0.26654,
				"method": "rhf"
			},
			{
				"type": "occ",
				"energy": -0.26322,
				"method": "rhf"
			},
			{
				"type": "occ",
				"energy": -0.25282,
				"method": "rhf"
			},
			{
				"type": "occ",
				"energy": -0.22993,
				"method": "rhf"
			},
			{
				"type": "occ",
				"energy": -0.22193,
				"method": "rhf"
			},
			{
				"type": "unocc",
				"energy": -0.05601,
				"method": "rhf"
			},
			{
				"type": "unocc",
				"energy": -0.00265,
				"method": "rhf"
			},
			{
				"type": "unocc",
				"energy": 0.00668,
				"method": "rhf"
			},
			{
				"type": "unocc",
				"energy": 0.02152,
				"method": "rhf"
			},
			{
				"type": "unocc",
				"energy": 0.04281,
				"method": "rhf"
			}
		],
		"cosmo_sigma_profile": { 
			"-0.025": 0.0,
			"-0.024": 0.0,
			"-0.023": 0.0,
			"-0.022": 0.0,
			"-0.021": 0.0,
			"-0.02": 0.0,
			"-0.019": 0.0,
			"-0.018": 0.0,
			"-0.017": 0.0,
			"-0.016": 0.0,
			"-0.015": 0.0,
			"-0.014": 0.935042007874,
			"-0.013": 1.51193666682,
			"-0.012": 1.74131861034,
			"-0.011": 2.5769847245,
			"-0.01": 1.99930363656,
			"-0.009": 1.47259379345,
			"-0.008": 2.03859404894,
			"-0.007": 4.83510115302,
			"-0.006": 16.5476037516,
			"-0.005": 23.3059133554,
			"-0.004": 26.3049349844,
			"-0.003": 26.0099967508,
			"-0.002": 21.6297250993,
			"-0.001": 21.6266986558,
			"0.0": 19.1401101418,
			"0.001": 17.3668165775,
			"0.002": 14.4769316079,
			"0.003": 13.8034079244,
			"0.004": 14.4655450448,
			"0.005": 11.7482966635,
			"0.006": 6.19618157542,
			"0.007": 4.9954075882,
			"0.008": 3.45599322327,
			"0.009": 4.26201953822,
			"0.01": 4.0922113789,
			"0.011": 4.61258543755,
			"0.012": 4.50654274141,
			"0.013": 5.34941311795,
			"0.014": 4.05808576402,
			"0.015": 0.697702868195,
			"0.016": 0.0,
			"0.017": 0.0,
			"0.018": 0.0,
			"0.019": 0.0,
			"0.02": 0.0,
			"0.021": 0.0,
			"0.022": 0.0,
			"0.023": 0.0,
			"0.024": 0.0,
			"0.025": 0.0
		}
	}
}
