{
	 "smiles": "CC(=O)CC(=O)C1=CC=CC=C1", 
	 "Tm": 330.65, 
	 "num_atms": 22, 
	 "gaussian": { 
		 "optdone": 1, 
		 "sigma_profile": "yes", 
		 "theory": "DFT", 
		 "functional": "B3LYP", 
		 "basiset": "6-31G**", 
		 "properties": { 
			 "R2extent": 2877.8022, 
			 "electric_dipole_moment_norm": 1.0608203288, 
			 "electric_quadrupole_moment_norm": 12.6852081094, 
			 "total_energy": -537.539527071, 
			 "HOMO_LUMO_gap": 0.18299, 
			 "cosmo_polarized_energy": -9.79, 
			 "cosmo_cavitation_energy": 26.2, 
			 "cosmo_dispersion_energy": -18.71, 
			 "cosmo_repulsion_energy": 1.49, 
			 "cosmo_total_nonelectrostatic_energy": 8.98, 
			 "SMD_solvation_energy": 5.73 
		},
		"coords": [
			{
				"x": 2.3032090383,
				"y": 0.3185770654,
				"z": -2.6665248467,
				"element": "C" 
			},
			{
				"x": 1.6533910646,
				"y": 0.4785867324,
				"z": -1.3099104158,
				"element": "C" 
			},
			{
				"x": 0.85906561,
				"y": 1.3636348045,
				"z": -1.0566805184,
				"element": "O" 
			},
			{
				"x": 2.041729928,
				"y": -0.5647422543,
				"z": -0.2515817602,
				"element": "C" 
			},
			{
				"x": 1.2673524307,
				"y": -1.8748531793,
				"z": -0.4690748502,
				"element": "C" 
			},
			{
				"x": 1.7629049792,
				"y": -2.7554968804,
				"z": -1.1570878266,
				"element": "O" 
			},
			{
				"x": -0.0789588201,
				"y": -2.0350653946,
				"z": 0.1554599839,
				"element": "C" 
			},
			{
				"x": -0.6600804647,
				"y": -3.3146431699,
				"z": 0.141668964,
				"element": "C" 
			},
			{
				"x": -1.9131821758,
				"y": -3.5232139537,
				"z": 0.7073600965,
				"element": "C" 
			},
			{
				"x": -2.6075647872,
				"y": -2.4518935171,
				"z": 1.2793733078,
				"element": "C" 
			},
			{
				"x": -2.0451525819,
				"y": -1.1741228569,
				"z": 1.2813552814,
				"element": "C" 
			},
			{
				"x": -0.7820560868,
				"y": -0.9626105761,
				"z": 0.7283681561,
				"element": "C" 
			},
			{
				"x": 3.362417136,
				"y": 0.5956014617,
				"z": -2.5963529782,
				"element": "H" 
			},
			{
				"x": 1.8115891602,
				"y": 0.961708996,
				"z": -3.397565816,
				"element": "H" 
			},
			{
				"x": 2.270974543,
				"y": -0.7290979291,
				"z": -2.9833972109,
				"element": "H" 
			},
			{
				"x": 1.8525175992,
				"y": -0.1422597032,
				"z": 0.736248787,
				"element": "H" 
			},
			{
				"x": 3.0995582387,
				"y": -0.8195021282,
				"z": -0.3541344527,
				"element": "H" 
			},
			{
				"x": -0.1057947302,
				"y": -4.1267210224,
				"z": -0.3168614631,
				"element": "H" 
			},
			{
				"x": -2.3528263141,
				"y": -4.5163223633,
				"z": 0.7025323298,
				"element": "H" 
			},
			{
				"x": -3.5876395998,
				"y": -2.613653853,
				"z": 1.7193336031,
				"element": "H" 
			},
			{
				"x": -2.590337616,
				"y": -0.339835937,
				"z": 1.7125367873,
				"element": "H" 
			},
			{
				"x": -0.3665165512,
				"y": 0.0394256585,
				"z": 0.7075348418,
				"element": "H" 
			}
		],
		 "valence_orbital": [ 
			{
				"type": "occ",
				"energy": -0.34842,
				"method": "rhf"
			},
			{
				"type": "occ",
				"energy": -0.26552,
				"method": "rhf"
			},
			{
				"type": "occ",
				"energy": -0.26255,
				"method": "rhf"
			},
			{
				"type": "occ",
				"energy": -0.25982,
				"method": "rhf"
			},
			{
				"type": "occ",
				"energy": -0.25007,
				"method": "rhf"
			},
			{
				"type": "unocc",
				"energy": -0.06708,
				"method": "rhf"
			},
			{
				"type": "unocc",
				"energy": -0.01924,
				"method": "rhf"
			},
			{
				"type": "unocc",
				"energy": -0.01079,
				"method": "rhf"
			},
			{
				"type": "unocc",
				"energy": 0.03708,
				"method": "rhf"
			},
			{
				"type": "unocc",
				"energy": 0.09078,
				"method": "rhf"
			}
		],
		"cosmo_sigma_profile": { 
			"-0.025": 0.0,
			"-0.024": 0.0,
			"-0.023": 0.0,
			"-0.022": 0.0,
			"-0.021": 0.0,
			"-0.02": 0.0,
			"-0.019": 0.0,
			"-0.018": 0.0,
			"-0.017": 0.0,
			"-0.016": 0.0,
			"-0.015": 0.0,
			"-0.014": 0.0,
			"-0.013": 0.0,
			"-0.012": 0.0,
			"-0.011": 0.0,
			"-0.01": 0.0,
			"-0.009": 0.0,
			"-0.008": 0.420414275074,
			"-0.007": 7.01405597554,
			"-0.006": 14.5290429177,
			"-0.005": 20.0091552791,
			"-0.004": 21.834004759,
			"-0.003": 18.8665870424,
			"-0.002": 16.4392084972,
			"-0.001": 13.2779973073,
			"0.0": 12.3501180647,
			"0.001": 9.6475029198,
			"0.002": 13.3669088479,
			"0.003": 14.2483868584,
			"0.004": 14.7274009691,
			"0.005": 3.26553605869,
			"0.006": 3.31712152225,
			"0.007": 2.86275918209,
			"0.008": 2.80054039644,
			"0.009": 3.36906784598,
			"0.01": 4.97065504268,
			"0.011": 6.82566660203,
			"0.012": 4.25942312298,
			"0.013": 0.475134930735,
			"0.014": 0.0,
			"0.015": 0.0,
			"0.016": 0.0,
			"0.017": 0.0,
			"0.018": 0.0,
			"0.019": 0.0,
			"0.02": 0.0,
			"0.021": 0.0,
			"0.022": 0.0,
			"0.023": 0.0,
			"0.024": 0.0,
			"0.025": 0.0
		}
	}
}
