{
	 "smiles": "CC1=CC(=NO1)C(=O)NCCC1=CC=C(C=C1)S(=O)(=O)NC(=O)NN1CCCCCC1", 
	 "Tm": 462.15, 
	 "num_atms": 58, 
	 "gaussian": { 
		 "optdone": 1, 
		 "sigma_profile": "yes", 
		 "theory": "DFT", 
		 "functional": "B3LYP", 
		 "basiset": "6-31G**", 
		 "properties": { 
			 "R2extent": 12731.6478, 
			 "electric_dipole_moment_norm": 6.46005159267, 
			 "electric_quadrupole_moment_norm": 18.6262362674, 
			 "total_energy": -1826.34658125, 
			 "HOMO_LUMO_gap": 0.19219, 
			 "cosmo_polarized_energy": -26.89, 
			 "cosmo_cavitation_energy": 58.71, 
			 "cosmo_dispersion_energy": -36.92, 
			 "cosmo_repulsion_energy": 2.67, 
			 "cosmo_total_nonelectrostatic_energy": 24.47, 
			 "SMD_solvation_energy": 9.6 
		},
		"coords": [
			{
				"x": 2.882374052,
				"y": 0.3164164495,
				"z": -3.1307134792,
				"element": "C" 
			},
			{
				"x": 2.0840894719,
				"y": 1.4214618283,
				"z": -2.5317682939,
				"element": "C" 
			},
			{
				"x": 2.4002145505,
				"y": 2.5636402376,
				"z": -1.8628712496,
				"element": "C" 
			},
			{
				"x": 1.1401861104,
				"y": 3.1518405386,
				"z": -1.5569449071,
				"element": "C" 
			},
			{
				"x": 0.1380043767,
				"y": 2.4274690608,
				"z": -2.0118223504,
				"element": "N" 
			},
			{
				"x": 0.7307793491,
				"y": 1.3296360709,
				"z": -2.6313967759,
				"element": "O" 
			},
			{
				"x": 1.0246789445,
				"y": 4.4514638566,
				"z": -0.8142734674,
				"element": "C" 
			},
			{
				"x": 2.0617228507,
				"y": 5.0581335716,
				"z": -0.5548256732,
				"element": "O" 
			},
			{
				"x": -0.1891513324,
				"y": 4.9576703855,
				"z": -0.4407660394,
				"element": "N" 
			},
			{
				"x": -1.5434115335,
				"y": 4.4222942322,
				"z": -0.5011396427,
				"element": "C" 
			},
			{
				"x": -2.0710719454,
				"y": 3.9322294295,
				"z": 0.8737775603,
				"element": "C" 
			},
			{
				"x": -1.452364323,
				"y": 2.6250247129,
				"z": 1.3092607588,
				"element": "C" 
			},
			{
				"x": -0.1608631071,
				"y": 2.5808171019,
				"z": 1.8565280107,
				"element": "C" 
			},
			{
				"x": 0.4620118077,
				"y": 1.3639780746,
				"z": 2.122439589,
				"element": "C" 
			},
			{
				"x": -0.2237053488,
				"y": 0.177239396,
				"z": 1.8531820887,
				"element": "C" 
			},
			{
				"x": -1.5344389762,
				"y": 0.1920130546,
				"z": 1.3805988753,
				"element": "C" 
			},
			{
				"x": -2.1369094885,
				"y": 1.4181654407,
				"z": 1.1082122015,
				"element": "C" 
			},
			{
				"x": 0.6397471451,
				"y": -1.3727381645,
				"z": 2.0770962218,
				"element": "S" 
			},
			{
				"x": 1.6965137036,
				"y": -1.1468920624,
				"z": 3.0660534277,
				"element": "O" 
			},
			{
				"x": -0.3162427841,
				"y": -2.4659443904,
				"z": 2.2183617988,
				"element": "O" 
			},
			{
				"x": 1.5339956064,
				"y": -1.5301927264,
				"z": 0.6167890116,
				"element": "N" 
			},
			{
				"x": 1.4771057888,
				"y": -2.3620713324,
				"z": -0.5160807046,
				"element": "C" 
			},
			{
				"x": 2.528073226,
				"y": -2.6101273873,
				"z": -1.1010017934,
				"element": "O" 
			},
			{
				"x": 0.2877214329,
				"y": -2.8691749374,
				"z": -0.9567742726,
				"element": "N" 
			},
			{
				"x": -0.9775309245,
				"y": -2.326988613,
				"z": -0.6949253536,
				"element": "N" 
			},
			{
				"x": -1.4308261263,
				"y": -1.4438445948,
				"z": -1.7884394057,
				"element": "C" 
			},
			{
				"x": -1.8664255453,
				"y": -2.1083652999,
				"z": -3.106490035,
				"element": "C" 
			},
			{
				"x": -3.0524810289,
				"y": -3.0975990013,
				"z": -2.9840801254,
				"element": "C" 
			},
			{
				"x": -3.9941589003,
				"y": -2.8031452437,
				"z": -1.8048582244,
				"element": "C" 
			},
			{
				"x": -3.384960062,
				"y": -3.060531698,
				"z": -0.3900747635,
				"element": "C" 
			},
			{
				"x": -1.897782207,
				"y": -3.4277122942,
				"z": -0.3310835797,
				"element": "C" 
			},
			{
				"x": 2.546731357,
				"y": 0.1070190678,
				"z": -4.1512107009,
				"element": "H" 
			},
			{
				"x": 3.9365208032,
				"y": 0.59910999,
				"z": -3.1624962412,
				"element": "H" 
			},
			{
				"x": 2.7932696869,
				"y": -0.608120899,
				"z": -2.5479252866,
				"element": "H" 
			},
			{
				"x": 3.3699981572,
				"y": 2.9600192965,
				"z": -1.6111955853,
				"element": "H" 
			},
			{
				"x": -0.069344372,
				"y": 5.8373244619,
				"z": 0.0479087542,
				"element": "H" 
			},
			{
				"x": -1.5702507011,
				"y": 3.6117115317,
				"z": -1.2283955947,
				"element": "H" 
			},
			{
				"x": -2.2023434791,
				"y": 5.2202704189,
				"z": -0.8638838664,
				"element": "H" 
			},
			{
				"x": -1.8915077079,
				"y": 4.7152550154,
				"z": 1.6210261982,
				"element": "H" 
			},
			{
				"x": -3.1578664777,
				"y": 3.8176489277,
				"z": 0.7912448072,
				"element": "H" 
			},
			{
				"x": 0.3710507305,
				"y": 3.5049505951,
				"z": 2.060852302,
				"element": "H" 
			},
			{
				"x": 1.4643846401,
				"y": 1.3299004462,
				"z": 2.5343737293,
				"element": "H" 
			},
			{
				"x": -2.0545561791,
				"y": -0.7425998838,
				"z": 1.2183735263,
				"element": "H" 
			},
			{
				"x": -3.1519559624,
				"y": 1.4381451222,
				"z": 0.7200806583,
				"element": "H" 
			},
			{
				"x": 2.5083733767,
				"y": -1.326166145,
				"z": 0.8190178943,
				"element": "H" 
			},
			{
				"x": 0.4137276439,
				"y": -3.4061103297,
				"z": -1.8133909159,
				"element": "H" 
			},
			{
				"x": -0.623417635,
				"y": -0.7328632072,
				"z": -1.9800617693,
				"element": "H" 
			},
			{
				"x": -2.2605797435,
				"y": -0.8519425016,
				"z": -1.3902559022,
				"element": "H" 
			},
			{
				"x": -1.012248078,
				"y": -2.6048323155,
				"z": -3.5856090995,
				"element": "H" 
			},
			{
				"x": -2.1417307964,
				"y": -1.288789752,
				"z": -3.7821598321,
				"element": "H" 
			},
			{
				"x": -2.6797749276,
				"y": -4.1247999223,
				"z": -2.8988505016,
				"element": "H" 
			},
			{
				"x": -3.6321694053,
				"y": -3.075028905,
				"z": -3.914131467,
				"element": "H" 
			},
			{
				"x": -4.3372800678,
				"y": -1.7638772107,
				"z": -1.8774505921,
				"element": "H" 
			},
			{
				"x": -4.8949882392,
				"y": -3.4160663814,
				"z": -1.9193474216,
				"element": "H" 
			},
			{
				"x": -3.5739738882,
				"y": -2.2004523847,
				"z": 0.2625081971,
				"element": "H" 
			},
			{
				"x": -3.9116596432,
				"y": -3.8993920217,
				"z": 0.0782496696,
				"element": "H" 
			},
			{
				"x": -1.6344252584,
				"y": -3.7298007799,
				"z": 0.6849085274,
				"element": "H" 
			},
			{
				"x": -1.7183786166,
				"y": -4.2986779301,
				"z": -0.981448895,
				"element": "H" 
			}
		],
		 "valence_orbital": [ 
			{
				"type": "occ",
				"energy": -0.2655,
				"method": "rhf"
			},
			{
				"type": "occ",
				"energy": -0.2644,
				"method": "rhf"
			},
			{
				"type": "occ",
				"energy": -0.26015,
				"method": "rhf"
			},
			{
				"type": "occ",
				"energy": -0.25327,
				"method": "rhf"
			},
			{
				"type": "occ",
				"energy": -0.23811,
				"method": "rhf"
			},
			{
				"type": "unocc",
				"energy": -0.04592,
				"method": "rhf"
			},
			{
				"type": "unocc",
				"energy": -0.04224,
				"method": "rhf"
			},
			{
				"type": "unocc",
				"energy": -0.02183,
				"method": "rhf"
			},
			{
				"type": "unocc",
				"energy": 0.01449,
				"method": "rhf"
			},
			{
				"type": "unocc",
				"energy": 0.02219,
				"method": "rhf"
			}
		],
		"cosmo_sigma_profile": { 
			"-0.025": 0.0,
			"-0.024": 0.0,
			"-0.023": 0.0,
			"-0.022": 0.0,
			"-0.021": 0.0,
			"-0.02": 0.0,
			"-0.019": 0.0,
			"-0.018": 0.0,
			"-0.017": 0.0,
			"-0.016": 0.0,
			"-0.015": 0.193830245956,
			"-0.014": 0.839821024588,
			"-0.013": 2.09595014612,
			"-0.012": 2.40415433333,
			"-0.011": 2.16050895687,
			"-0.01": 3.51803486937,
			"-0.009": 4.74151627198,
			"-0.008": 4.39667896784,
			"-0.007": 8.52397658256,
			"-0.006": 23.0055256376,
			"-0.005": 27.2260854436,
			"-0.004": 27.024602303,
			"-0.003": 39.649330813,
			"-0.002": 50.6410784999,
			"-0.001": 46.3733205042,
			"0.0": 41.120690695,
			"0.001": 37.5380896243,
			"0.002": 26.3579964393,
			"0.003": 22.4196948919,
			"0.004": 12.6934077639,
			"0.005": 11.2368017951,
			"0.006": 10.2752309468,
			"0.007": 8.21155146035,
			"0.008": 6.63961437945,
			"0.009": 8.28267612791,
			"0.01": 10.8722755943,
			"0.011": 7.7039797174,
			"0.012": 4.57823486082,
			"0.013": 9.97078638099,
			"0.014": 1.86066624643,
			"0.015": 0.0,
			"0.016": 0.0,
			"0.017": 0.0,
			"0.018": 0.0,
			"0.019": 0.0,
			"0.02": 0.0,
			"0.021": 0.0,
			"0.022": 0.0,
			"0.023": 0.0,
			"0.024": 0.0,
			"0.025": 0.0
		}
	}
}
