{
	 "smiles": "CC1=C(N=C(NC(=O)CCl)S1)C1=CC=C(Cl)C=C1", 
	 "Tm": 450.15, 
	 "num_atms": 28, 
	 "gaussian": { 
		 "optdone": 1, 
		 "sigma_profile": "yes", 
		 "theory": "DFT", 
		 "functional": "B3LYP", 
		 "basiset": "6-31G**", 
		 "properties": { 
			 "R2extent": 8589.2224, 
			 "electric_dipole_moment_norm": 3.71729474887, 
			 "electric_quadrupole_moment_norm": 15.3915869425, 
			 "total_energy": -1966.61682497, 
			 "HOMO_LUMO_gap": 0.16981, 
			 "cosmo_polarized_energy": -13.53, 
			 "cosmo_cavitation_energy": 38.08, 
			 "cosmo_dispersion_energy": -27.22, 
			 "cosmo_repulsion_energy": 2.1, 
			 "cosmo_total_nonelectrostatic_energy": 12.96, 
			 "SMD_solvation_energy": 5.57 
		},
		"coords": [
			{
				"x": -0.1618730526,
				"y": 0.3281653998,
				"z": -2.6919160924,
				"element": "C" 
			},
			{
				"x": 0.745609582,
				"y": 0.3120441939,
				"z": -1.4976972451,
				"element": "C" 
			},
			{
				"x": 0.7657051221,
				"y": -0.5116287738,
				"z": -0.3951881518,
				"element": "C" 
			},
			{
				"x": 1.8356038707,
				"y": -0.3271344172,
				"z": 0.4715687606,
				"element": "N" 
			},
			{
				"x": 2.6004930646,
				"y": 0.6442188268,
				"z": 0.0860632562,
				"element": "C" 
			},
			{
				"x": 3.7350713455,
				"y": 1.0957413202,
				"z": 0.7492206725,
				"element": "N" 
			},
			{
				"x": 4.0978599196,
				"y": 0.986488806,
				"z": 2.0896542156,
				"element": "C" 
			},
			{
				"x": 5.2137507753,
				"y": 1.3257874801,
				"z": 2.4378311904,
				"element": "O" 
			},
			{
				"x": 3.06793295,
				"y": 0.4701682593,
				"z": 3.0821580964,
				"element": "C" 
			},
			{
				"x": 1.792883982,
				"y": 1.7259910065,
				"z": 3.3800303382,
				"element": "Cl" 
			},
			{
				"x": 2.0949584595,
				"y": 1.4295158129,
				"z": -1.406534029,
				"element": "S" 
			},
			{
				"x": -0.1919760166,
				"y": -1.5930741134,
				"z": -0.0830159505,
				"element": "C" 
			},
			{
				"x": -1.561842502,
				"y": -1.4858273636,
				"z": -0.3719587529,
				"element": "C" 
			},
			{
				"x": -2.4452124654,
				"y": -2.5224633132,
				"z": -0.0731224411,
				"element": "C" 
			},
			{
				"x": -1.9576040071,
				"y": -3.6791720054,
				"z": 0.531722196,
				"element": "C" 
			},
			{
				"x": -3.0633577506,
				"y": -4.990615893,
				"z": 0.9114147459,
				"element": "Cl" 
			},
			{
				"x": -0.6047743938,
				"y": -3.8058264343,
				"z": 0.8502041073,
				"element": "C" 
			},
			{
				"x": 0.2660374161,
				"y": -2.7641021329,
				"z": 0.5452679193,
				"element": "C" 
			},
			{
				"x": -0.6619498006,
				"y": -0.6372361138,
				"z": -2.7989867446,
				"element": "H" 
			},
			{
				"x": 0.3998568479,
				"y": 0.5193609963,
				"z": -3.6116701855,
				"element": "H" 
			},
			{
				"x": -0.935537181,
				"y": 1.1020064978,
				"z": -2.615131674,
				"element": "H" 
			},
			{
				"x": 4.4537297095,
				"y": 1.5475800684,
				"z": 0.1968564092,
				"element": "H" 
			},
			{
				"x": 3.5820179649,
				"y": 0.297478478,
				"z": 4.0250093893,
				"element": "H" 
			},
			{
				"x": 2.5548386601,
				"y": -0.4178287579,
				"z": 2.71908494,
				"element": "H" 
			},
			{
				"x": -1.9550369596,
				"y": -0.5717703775,
				"z": -0.8032658231,
				"element": "H" 
			},
			{
				"x": -3.5027476843,
				"y": -2.4275591206,
				"z": -0.2930836712,
				"element": "H" 
			},
			{
				"x": -0.2415472394,
				"y": -4.708765586,
				"z": 1.3284692202,
				"element": "H" 
			},
			{
				"x": 1.3185093831,
				"y": -2.8516427432,
				"z": 0.7919153039,
				"element": "H" 
			}
		],
		 "valence_orbital": [ 
			{
				"type": "occ",
				"energy": -0.29385,
				"method": "rhf"
			},
			{
				"type": "occ",
				"energy": -0.27557,
				"method": "rhf"
			},
			{
				"type": "occ",
				"energy": -0.2693,
				"method": "rhf"
			},
			{
				"type": "occ",
				"energy": -0.25953,
				"method": "rhf"
			},
			{
				"type": "occ",
				"energy": -0.22357,
				"method": "rhf"
			},
			{
				"type": "unocc",
				"energy": -0.05376,
				"method": "rhf"
			},
			{
				"type": "unocc",
				"energy": -0.03839,
				"method": "rhf"
			},
			{
				"type": "unocc",
				"energy": -0.02125,
				"method": "rhf"
			},
			{
				"type": "unocc",
				"energy": -0.01176,
				"method": "rhf"
			},
			{
				"type": "unocc",
				"energy": -0.00354,
				"method": "rhf"
			}
		],
		"cosmo_sigma_profile": { 
			"-0.025": 0.0,
			"-0.024": 0.0,
			"-0.023": 0.0,
			"-0.022": 0.0,
			"-0.021": 0.0,
			"-0.02": 0.0,
			"-0.019": 0.0,
			"-0.018": 0.0,
			"-0.017": 0.293093070552,
			"-0.016": 1.19331464559,
			"-0.015": 1.32699905319,
			"-0.014": 1.01853653929,
			"-0.013": 0.891675156251,
			"-0.012": 1.39058040415,
			"-0.011": 0.737958823277,
			"-0.01": 0.72999912114,
			"-0.009": 1.69133723661,
			"-0.008": 3.04166414339,
			"-0.007": 6.97555897905,
			"-0.006": 15.2071721544,
			"-0.005": 19.6560802156,
			"-0.004": 19.2672228264,
			"-0.003": 16.8980925205,
			"-0.002": 20.7293993367,
			"-0.001": 21.2896640777,
			"0.0": 23.7080713671,
			"0.001": 28.8705681369,
			"0.002": 31.3187497358,
			"0.003": 29.6328655526,
			"0.004": 25.6502615402,
			"0.005": 20.0099239266,
			"0.006": 5.20482523348,
			"0.007": 1.48152709104,
			"0.008": 1.46925748845,
			"0.009": 1.66758962949,
			"0.01": 2.05442924649,
			"0.011": 4.78639933611,
			"0.012": 3.40519433562,
			"0.013": 0.209528418354,
			"0.014": 0.0,
			"0.015": 0.0,
			"0.016": 0.0,
			"0.017": 0.0,
			"0.018": 0.0,
			"0.019": 0.0,
			"0.02": 0.0,
			"0.021": 0.0,
			"0.022": 0.0,
			"0.023": 0.0,
			"0.024": 0.0,
			"0.025": 0.0
		}
	}
}
