{
	 "smiles": "CC(=O)C1=CC=C(C=C1)N1C(C)=CNC1=O", 
	 "Tm": 477.15, 
	 "num_atms": 28, 
	 "gaussian": { 
		 "optdone": 1, 
		 "sigma_profile": "yes", 
		 "theory": "DFT", 
		 "functional": "B3LYP", 
		 "basiset": "6-31G**", 
		 "properties": { 
			 "R2extent": 4943.0702, 
			 "electric_dipole_moment_norm": 4.5984148671, 
			 "electric_quadrupole_moment_norm": 18.307870679, 
			 "total_energy": -724.480038433, 
			 "HOMO_LUMO_gap": 0.14374, 
			 "cosmo_polarized_energy": -17.84, 
			 "cosmo_cavitation_energy": 32.05, 
			 "cosmo_dispersion_energy": -23.15, 
			 "cosmo_repulsion_energy": 1.79, 
			 "cosmo_total_nonelectrostatic_energy": 10.69, 
			 "SMD_solvation_energy": 7.23 
		},
		"coords": [
			{
				"x": 5.4745518412,
				"y": -0.2640961743,
				"z": -0.3056690832,
				"element": "C" 
			},
			{
				"x": 4.1932940309,
				"y": -1.080608938,
				"z": -0.2650298675,
				"element": "C" 
			},
			{
				"x": 4.2364079115,
				"y": -2.299460903,
				"z": -0.1771579486,
				"element": "O" 
			},
			{
				"x": 2.8795293625,
				"y": -0.3666923263,
				"z": -0.3352558951,
				"element": "C" 
			},
			{
				"x": 1.7049407406,
				"y": -1.1340999323,
				"z": -0.330432392,
				"element": "C" 
			},
			{
				"x": 0.4573851456,
				"y": -0.5289153355,
				"z": -0.4012575131,
				"element": "C" 
			},
			{
				"x": 0.3557643071,
				"y": 0.8704752848,
				"z": -0.4528225222,
				"element": "C" 
			},
			{
				"x": 1.5226061701,
				"y": 1.6482576099,
				"z": -0.4699205608,
				"element": "C" 
			},
			{
				"x": 2.7674806522,
				"y": 1.029839206,
				"z": -0.4167479003,
				"element": "C" 
			},
			{
				"x": -0.9104773676,
				"y": 1.5031268367,
				"z": -0.5099231488,
				"element": "N" 
			},
			{
				"x": -2.0759113691,
				"y": 1.1776495115,
				"z": 0.2273576576,
				"element": "C" 
			},
			{
				"x": -2.1332469143,
				"y": 0.1640742357,
				"z": 1.3224671011,
				"element": "C" 
			},
			{
				"x": -3.0486676435,
				"y": 2.0205063495,
				"z": -0.1870246763,
				"element": "C" 
			},
			{
				"x": -2.5158026767,
				"y": 2.8551669907,
				"z": -1.1677424763,
				"element": "N" 
			},
			{
				"x": -1.1792072328,
				"y": 2.581970602,
				"z": -1.3842447382,
				"element": "C" 
			},
			{
				"x": -0.4111910419,
				"y": 3.1378863669,
				"z": -2.1553576124,
				"element": "O" 
			},
			{
				"x": 5.5168568149,
				"y": 0.4443360249,
				"z": 0.529130413,
				"element": "H" 
			},
			{
				"x": 6.3238023051,
				"y": -0.9451464621,
				"z": -0.2450987897,
				"element": "H" 
			},
			{
				"x": 5.5404069192,
				"y": 0.3186418503,
				"z": -1.2310748299,
				"element": "H" 
			},
			{
				"x": 1.7989406874,
				"y": -2.2139749199,
				"z": -0.2879223758,
				"element": "H" 
			},
			{
				"x": -0.4378463742,
				"y": -1.1380120614,
				"z": -0.4436507718,
				"element": "H" 
			},
			{
				"x": 1.4432204062,
				"y": 2.7250606457,
				"z": -0.5432844215,
				"element": "H" 
			},
			{
				"x": 3.6569263572,
				"y": 1.6512645365,
				"z": -0.4312319697,
				"element": "H" 
			},
			{
				"x": -2.1150514729,
				"y": -0.8692864365,
				"z": 0.9600076272,
				"element": "H" 
			},
			{
				"x": -1.2965829527,
				"y": 0.2786528187,
				"z": 2.0199703168,
				"element": "H" 
			},
			{
				"x": -3.0617669619,
				"y": 0.3000567203,
				"z": 1.8830059111,
				"element": "H" 
			},
			{
				"x": -4.0662382608,
				"y": 2.1111087706,
				"z": 0.1578502595,
				"element": "H" 
			},
			{
				"x": -2.9861233832,
				"y": 3.5975191287,
				"z": -1.6581397934,
				"element": "H" 
			}
		],
		 "valence_orbital": [ 
			{
				"type": "occ",
				"energy": -0.26792,
				"method": "rhf"
			},
			{
				"type": "occ",
				"energy": -0.25727,
				"method": "rhf"
			},
			{
				"type": "occ",
				"energy": -0.25026,
				"method": "rhf"
			},
			{
				"type": "occ",
				"energy": -0.2447,
				"method": "rhf"
			},
			{
				"type": "occ",
				"energy": -0.19847,
				"method": "rhf"
			},
			{
				"type": "unocc",
				"energy": -0.05473,
				"method": "rhf"
			},
			{
				"type": "unocc",
				"energy": -0.00982,
				"method": "rhf"
			},
			{
				"type": "unocc",
				"energy": 0.02419,
				"method": "rhf"
			},
			{
				"type": "unocc",
				"energy": 0.04376,
				"method": "rhf"
			},
			{
				"type": "unocc",
				"energy": 0.0712,
				"method": "rhf"
			}
		],
		"cosmo_sigma_profile": { 
			"-0.025": 0.0,
			"-0.024": 0.0,
			"-0.023": 0.0,
			"-0.022": 0.0,
			"-0.021": 0.0,
			"-0.02": 0.0,
			"-0.019": 0.0,
			"-0.018": 0.0,
			"-0.017": 0.0,
			"-0.016": 1.06820386196,
			"-0.015": 1.45747578999,
			"-0.014": 1.15224291102,
			"-0.013": 0.908313702154,
			"-0.012": 0.894114552793,
			"-0.011": 0.932807497397,
			"-0.01": 1.17938114431,
			"-0.009": 1.97478283809,
			"-0.008": 3.65379830896,
			"-0.007": 6.69736018235,
			"-0.006": 15.7434039979,
			"-0.005": 20.0071905499,
			"-0.004": 18.3292483247,
			"-0.003": 16.8691271768,
			"-0.002": 18.9333682332,
			"-0.001": 24.0125237386,
			"0.0": 19.0869041888,
			"0.001": 16.3273975587,
			"0.002": 15.6311613238,
			"0.003": 18.3694777412,
			"0.004": 10.155301498,
			"0.005": 4.24865756125,
			"0.006": 3.08261875375,
			"0.007": 3.20049030172,
			"0.008": 3.6746372401,
			"0.009": 2.62324376848,
			"0.01": 2.79458339019,
			"0.011": 4.76490647662,
			"0.012": 5.46673095148,
			"0.013": 4.55686716136,
			"0.014": 6.30642817281,
			"0.015": 1.33670410754,
			"0.016": 0.0,
			"0.017": 0.0,
			"0.018": 0.0,
			"0.019": 0.0,
			"0.02": 0.0,
			"0.021": 0.0,
			"0.022": 0.0,
			"0.023": 0.0,
			"0.024": 0.0,
			"0.025": 0.0
		}
	}
}
