{
	 "smiles": "COC1=CC(=CC(OC)=C1OC)C(=O)OC1=CC=C(C=O)C=C1", 
	 "Tm": 387.15, 
	 "num_atms": 39, 
	 "gaussian": { 
		 "optdone": 1, 
		 "sigma_profile": "yes", 
		 "theory": "DFT", 
		 "functional": "B3LYP", 
		 "basiset": "6-31G**", 
		 "properties": { 
			 "R2extent": 12237.1802, 
			 "electric_dipole_moment_norm": 5.24231503346, 
			 "electric_quadrupole_moment_norm": 36.3246211604, 
			 "total_energy": -1108.74880552, 
			 "HOMO_LUMO_gap": 0.16513, 
			 "cosmo_polarized_energy": -15.42, 
			 "cosmo_cavitation_energy": 44.86, 
			 "cosmo_dispersion_energy": -31.27, 
			 "cosmo_repulsion_energy": 2.38, 
			 "cosmo_total_nonelectrostatic_energy": 15.97, 
			 "SMD_solvation_energy": 12.05 
		},
		"coords": [
			{
				"x": 1.9830878672,
				"y": 3.1204243907,
				"z": -2.3613447354,
				"element": "C" 
			},
			{
				"x": 0.8398771078,
				"y": 2.7547668035,
				"z": -1.5796672738,
				"element": "O" 
			},
			{
				"x": 1.0760706981,
				"y": 1.9091769077,
				"z": -0.5267841705,
				"element": "C" 
			},
			{
				"x": 0.5104989978,
				"y": 0.6324892972,
				"z": -0.5599783023,
				"element": "C" 
			},
			{
				"x": 0.672606845,
				"y": -0.223344409,
				"z": 0.5319875664,
				"element": "C" 
			},
			{
				"x": 1.41562933,
				"y": 0.1800921365,
				"z": 1.6531045748,
				"element": "C" 
			},
			{
				"x": 1.9888632088,
				"y": 1.4488832007,
				"z": 1.6854279563,
				"element": "C" 
			},
			{
				"x": 2.7290439129,
				"y": 1.9397979359,
				"z": 2.7188563154,
				"element": "O" 
			},
			{
				"x": 2.9556531478,
				"y": 1.0923609853,
				"z": 3.8380394964,
				"element": "C" 
			},
			{
				"x": 1.812846021,
				"y": 2.3303968324,
				"z": 0.5922325996,
				"element": "C" 
			},
			{
				"x": 2.3896010471,
				"y": 3.5709534827,
				"z": 0.587998059,
				"element": "O" 
			},
			{
				"x": 1.7888457766,
				"y": 4.5357007386,
				"z": 1.4625293996,
				"element": "C" 
			},
			{
				"x": 0.0905183856,
				"y": -1.587510508,
				"z": 0.5741346296,
				"element": "C" 
			},
			{
				"x": 0.199675699,
				"y": -2.3619833305,
				"z": 1.4990223232,
				"element": "O" 
			},
			{
				"x": -0.5912859529,
				"y": -1.8771147364,
				"z": -0.5854588193,
				"element": "O" 
			},
			{
				"x": -1.2472427167,
				"y": -3.0843185942,
				"z": -0.7699381088,
				"element": "C" 
			},
			{
				"x": -1.999835395,
				"y": -3.7137723162,
				"z": 0.2305472388,
				"element": "C" 
			},
			{
				"x": -2.6833350672,
				"y": -4.8814654952,
				"z": -0.0838116512,
				"element": "C" 
			},
			{
				"x": -2.6276407719,
				"y": -5.4221658783,
				"z": -1.3779455452,
				"element": "C" 
			},
			{
				"x": -3.360459129,
				"y": -6.6637688757,
				"z": -1.7021594374,
				"element": "C" 
			},
			{
				"x": -4.0414332041,
				"y": -7.2933433511,
				"z": -0.9142115303,
				"element": "O" 
			},
			{
				"x": -1.8743810179,
				"y": -4.7728619458,
				"z": -2.3649511145,
				"element": "C" 
			},
			{
				"x": -1.1828447211,
				"y": -3.6041695377,
				"z": -2.0650853944,
				"element": "C" 
			},
			{
				"x": 2.44822331,
				"y": 2.2322575495,
				"z": -2.8080379244,
				"element": "H" 
			},
			{
				"x": 2.7205016147,
				"y": 3.6601774403,
				"z": -1.7616230221,
				"element": "H" 
			},
			{
				"x": 1.6087769504,
				"y": 3.767424542,
				"z": -3.1571608669,
				"element": "H" 
			},
			{
				"x": -0.061845327,
				"y": 0.3364965268,
				"z": -1.429495909,
				"element": "H" 
			},
			{
				"x": 1.5241008748,
				"y": -0.5182929315,
				"z": 2.4723943428,
				"element": "H" 
			},
			{
				"x": 2.0161007835,
				"y": 0.8162076872,
				"z": 4.3324969953,
				"element": "H" 
			},
			{
				"x": 3.4908673848,
				"y": 0.1801052559,
				"z": 3.5479836237,
				"element": "H" 
			},
			{
				"x": 3.5722672654,
				"y": 1.6688386761,
				"z": 4.5287682448,
				"element": "H" 
			},
			{
				"x": 0.7384541465,
				"y": 4.6990481889,
				"z": 1.1947861988,
				"element": "H" 
			},
			{
				"x": 1.8636943689,
				"y": 4.2208361292,
				"z": 2.507177751,
				"element": "H" 
			},
			{
				"x": 2.3480182415,
				"y": 5.4619881925,
				"z": 1.3188298531,
				"element": "H" 
			},
			{
				"x": -2.0348369799,
				"y": -3.2996978891,
				"z": 1.2287072277,
				"element": "H" 
			},
			{
				"x": -3.2759404497,
				"y": -5.3967200627,
				"z": 0.6653931211,
				"element": "H" 
			},
			{
				"x": -3.2481102732,
				"y": -7.0033077496,
				"z": -2.7566772562,
				"element": "H" 
			},
			{
				"x": -1.8309665319,
				"y": -5.186520136,
				"z": -3.3696704439,
				"element": "H" 
			},
			{
				"x": -0.5948654476,
				"y": -3.0823651525,
				"z": -2.8124160117,
				"element": "H" 
			}
		],
		 "valence_orbital": [ 
			{
				"type": "occ",
				"energy": -0.26676,
				"method": "rhf"
			},
			{
				"type": "occ",
				"energy": -0.25245,
				"method": "rhf"
			},
			{
				"type": "occ",
				"energy": -0.25186,
				"method": "rhf"
			},
			{
				"type": "occ",
				"energy": -0.2395,
				"method": "rhf"
			},
			{
				"type": "occ",
				"energy": -0.23124,
				"method": "rhf"
			},
			{
				"type": "unocc",
				"energy": -0.06611,
				"method": "rhf"
			},
			{
				"type": "unocc",
				"energy": -0.04779,
				"method": "rhf"
			},
			{
				"type": "unocc",
				"energy": -0.01582,
				"method": "rhf"
			},
			{
				"type": "unocc",
				"energy": 0.00046,
				"method": "rhf"
			},
			{
				"type": "unocc",
				"energy": 0.03801,
				"method": "rhf"
			}
		],
		"cosmo_sigma_profile": { 
			"-0.025": 0.0,
			"-0.024": 0.0,
			"-0.023": 0.0,
			"-0.022": 0.0,
			"-0.021": 0.0,
			"-0.02": 0.0,
			"-0.019": 0.0,
			"-0.018": 0.0,
			"-0.017": 0.0,
			"-0.016": 0.0,
			"-0.015": 0.0,
			"-0.014": 0.0,
			"-0.013": 0.0,
			"-0.012": 0.0,
			"-0.011": 0.0,
			"-0.01": 0.0,
			"-0.009": 0.0147000459293,
			"-0.008": 2.46259041804,
			"-0.007": 8.90398524158,
			"-0.006": 21.4361248572,
			"-0.005": 29.3551613526,
			"-0.004": 30.1492370099,
			"-0.003": 34.9299667701,
			"-0.002": 31.7610497352,
			"-0.001": 22.874787997,
			"0.0": 25.5658076909,
			"0.001": 32.1130554879,
			"0.002": 35.1453113039,
			"0.003": 18.4131694507,
			"0.004": 9.23749889031,
			"0.005": 7.92929695898,
			"0.006": 7.02241646306,
			"0.007": 5.6189710012,
			"0.008": 5.71244144457,
			"0.009": 7.87196289181,
			"0.01": 7.94771053326,
			"0.011": 9.69058937079,
			"0.012": 3.41772327308,
			"0.013": 0.948589808106,
			"0.014": 0.0,
			"0.015": 0.0,
			"0.016": 0.0,
			"0.017": 0.0,
			"0.018": 0.0,
			"0.019": 0.0,
			"0.02": 0.0,
			"0.021": 0.0,
			"0.022": 0.0,
			"0.023": 0.0,
			"0.024": 0.0,
			"0.0": 0.0
		}
	}
}
