{
	 "smiles": "CC1=CC(NN)=NC2=C1C=CC(C)=C2C", 
	 "Tm": 465.15, 
	 "num_atms": 30, 
	 "gaussian": { 
		 "optdone": 1, 
		 "sigma_profile": "yes", 
		 "theory": "DFT", 
		 "functional": "B3LYP", 
		 "basiset": "6-31G**", 
		 "properties": { 
			 "R2extent": 3852.8354, 
			 "electric_dipole_moment_norm": 1.55951821406, 
			 "electric_quadrupole_moment_norm": 8.46947907135, 
			 "total_energy": -630.578241183, 
			 "HOMO_LUMO_gap": 0.16529, 
			 "cosmo_polarized_energy": -10.02, 
			 "cosmo_cavitation_energy": 32.18, 
			 "cosmo_dispersion_energy": -23.37, 
			 "cosmo_repulsion_energy": 1.81, 
			 "cosmo_total_nonelectrostatic_energy": 10.61, 
			 "SMD_solvation_energy": 5.06 
		},
		"coords": [
			{
				"x": -2.2329648003,
				"y": -1.4301874734,
				"z": 0.4895702721,
				"element": "C" 
			},
			{
				"x": -1.1288015724,
				"y": -0.879726153,
				"z": -0.3767184742,
				"element": "C" 
			},
			{
				"x": -1.0192021016,
				"y": -1.2511868652,
				"z": -1.6899446626,
				"element": "C" 
			},
			{
				"x": 0.0385884174,
				"y": -0.714872391,
				"z": -2.4888318132,
				"element": "C" 
			},
			{
				"x": 0.1078253122,
				"y": -1.0852022427,
				"z": -3.8234082326,
				"element": "N" 
			},
			{
				"x": 1.2590135215,
				"y": -0.7983338481,
				"z": -4.590043151,
				"element": "N" 
			},
			{
				"x": 0.9389985538,
				"y": 0.1299452251,
				"z": -2.0322061831,
				"element": "N" 
			},
			{
				"x": 0.8564253451,
				"y": 0.531833886,
				"z": -0.7248962373,
				"element": "C" 
			},
			{
				"x": -0.1661429999,
				"y": 0.0488873782,
				"z": 0.1529443151,
				"element": "C" 
			},
			{
				"x": -0.1885564494,
				"y": 0.498244757,
				"z": 1.4918593233,
				"element": "C" 
			},
			{
				"x": 0.7612651536,
				"y": 1.3881820251,
				"z": 1.9453341208,
				"element": "C" 
			},
			{
				"x": 1.7775200972,
				"y": 1.8763871127,
				"z": 1.0924009734,
				"element": "C" 
			},
			{
				"x": 2.7958309244,
				"y": 2.8513202041,
				"z": 1.6357764777,
				"element": "C" 
			},
			{
				"x": 1.8313530078,
				"y": 1.4571165609,
				"z": -0.2373512681,
				"element": "C" 
			},
			{
				"x": 2.9080561082,
				"y": 1.972025666,
				"z": -1.1609579293,
				"element": "C" 
			},
			{
				"x": -2.8683019035,
				"y": -2.1173570416,
				"z": -0.0745066127,
				"element": "H" 
			},
			{
				"x": -2.8675524068,
				"y": -0.6279916963,
				"z": 0.8829371998,
				"element": "H" 
			},
			{
				"x": -1.8297094386,
				"y": -1.9722593214,
				"z": 1.352447207,
				"element": "H" 
			},
			{
				"x": -1.7307337075,
				"y": -1.9431388129,
				"z": -2.13349795,
				"element": "H" 
			},
			{
				"x": -0.295362789,
				"y": -1.9818948871,
				"z": -4.0569295941,
				"element": "H" 
			},
			{
				"x": 1.1708746689,
				"y": 0.1656347096,
				"z": -4.9088219318,
				"element": "H" 
			},
			{
				"x": 2.0588479105,
				"y": -0.790701432,
				"z": -3.9534526491,
				"element": "H" 
			},
			{
				"x": -0.9575713738,
				"y": 0.1412143745,
				"z": 2.1692347556,
				"element": "H" 
			},
			{
				"x": 0.7341676136,
				"y": 1.726362562,
				"z": 2.9779461565,
				"element": "H" 
			},
			{
				"x": 3.8173101118,
				"y": 2.4626728792,
				"z": 1.5445615612,
				"element": "H" 
			},
			{
				"x": 2.6130355319,
				"y": 3.0657367144,
				"z": 2.6920496747,
				"element": "H" 
			},
			{
				"x": 2.7745711474,
				"y": 3.8038442154,
				"z": 1.0923973733,
				"element": "H" 
			},
			{
				"x": 2.7756986547,
				"y": 1.5658329037,
				"z": -2.1625431915,
				"element": "H" 
			},
			{
				"x": 2.8894198369,
				"y": 3.0670472412,
				"z": -1.2233352967,
				"element": "H" 
			},
			{
				"x": 3.9076976259,
				"y": 1.6951637496,
				"z": -0.8026142331,
				"element": "H" 
			}
		],
		 "valence_orbital": [ 
			{
				"type": "occ",
				"energy": -0.27636,
				"method": "rhf"
			},
			{
				"type": "occ",
				"energy": -0.26257,
				"method": "rhf"
			},
			{
				"type": "occ",
				"energy": -0.24798,
				"method": "rhf"
			},
			{
				"type": "occ",
				"energy": -0.21726,
				"method": "rhf"
			},
			{
				"type": "occ",
				"energy": -0.1999,
				"method": "rhf"
			},
			{
				"type": "unocc",
				"energy": -0.03461,
				"method": "rhf"
			},
			{
				"type": "unocc",
				"energy": 0.00326,
				"method": "rhf"
			},
			{
				"type": "unocc",
				"energy": 0.03533,
				"method": "rhf"
			},
			{
				"type": "unocc",
				"energy": 0.08948,
				"method": "rhf"
			},
			{
				"type": "unocc",
				"energy": 0.09438,
				"method": "rhf"
			}
		],
		"cosmo_sigma_profile": { 
			"-0.025": 0.0,
			"-0.024": 0.0,
			"-0.023": 0.0,
			"-0.022": 0.0,
			"-0.021": 0.0,
			"-0.02": 0.0,
			"-0.019": 0.0,
			"-0.018": 0.0,
			"-0.017": 0.0,
			"-0.016": 0.0,
			"-0.015": 0.0,
			"-0.014": 0.0399333841944,
			"-0.013": 0.87322355983,
			"-0.012": 1.50810751348,
			"-0.011": 1.36471728431,
			"-0.01": 2.51576426262,
			"-0.009": 3.02188411526,
			"-0.008": 3.07223441782,
			"-0.007": 3.853492288,
			"-0.006": 4.54860524234,
			"-0.005": 10.5080523136,
			"-0.004": 21.762882752,
			"-0.003": 24.4629506191,
			"-0.002": 20.9651166104,
			"-0.001": 21.0305177362,
			"0.0": 25.6872131245,
			"0.001": 20.6919283552,
			"0.002": 13.7583744991,
			"0.003": 17.1923939573,
			"0.004": 16.9396115698,
			"0.005": 14.0888688508,
			"0.006": 10.0001187919,
			"0.007": 4.39588575958,
			"0.008": 2.97146133076,
			"0.009": 1.85035570654,
			"0.01": 1.96641376771,
			"0.011": 0.599511130688,
			"0.012": 0.450276128213,
			"0.013": 0.686381172029,
			"0.014": 0.630002864397,
			"0.015": 0.820883120918,
			"0.016": 0.524092008663,
			"0.017": 0.506117554673,
			"0.018": 0.110583290061,
			"0.019": 0.0,
			"0.02": 0.0,
			"0.021": 0.0,
			"0.022": 0.0,
			"0.023": 0.0,
			"0.024": 0.0,
			"0.025": 0.0
		}
	}
}
