{
	 "smiles": "CC1=CC=CC=C1NC(=O)C1=CN=CC(Cl)=N1", 
	 "Tm": 371.15, 
	 "num_atms": 27, 
	 "gaussian": { 
		 "optdone": 1, 
		 "sigma_profile": "yes", 
		 "theory": "DFT", 
		 "functional": "B3LYP", 
		 "basiset": "6-31G**", 
		 "properties": { 
			 "R2extent": 6177.9713, 
			 "electric_dipole_moment_norm": 1.81647272482, 
			 "electric_quadrupole_moment_norm": 10.9681427325, 
			 "total_energy": -1162.98725909, 
			 "HOMO_LUMO_gap": 0.14846, 
			 "cosmo_polarized_energy": -11.04, 
			 "cosmo_cavitation_energy": 33.79, 
			 "cosmo_dispersion_energy": -24.53, 
			 "cosmo_repulsion_energy": 1.9, 
			 "cosmo_total_nonelectrostatic_energy": 11.16, 
			 "SMD_solvation_energy": 3.71 
		},
		"coords": [
			{
				"x": -0.3304785096,
				"y": -2.7763852497,
				"z": 0.060308516,
				"element": "C" 
			},
			{
				"x": -0.6613351713,
				"y": -1.9043297585,
				"z": -1.1229460428,
				"element": "C" 
			},
			{
				"x": -1.156961972,
				"y": -2.4727242628,
				"z": -2.3048162457,
				"element": "C" 
			},
			{
				"x": -1.4209920676,
				"y": -1.7090093992,
				"z": -3.4404250976,
				"element": "C" 
			},
			{
				"x": -1.1880786296,
				"y": -0.3336333723,
				"z": -3.4185809361,
				"element": "C" 
			},
			{
				"x": -0.7141702968,
				"y": 0.2605672702,
				"z": -2.2523164431,
				"element": "C" 
			},
			{
				"x": -0.4620487085,
				"y": -0.5095681144,
				"z": -1.1102003803,
				"element": "C" 
			},
			{
				"x": 0.0588411055,
				"y": 0.162475827,
				"z": 0.0338802946,
				"element": "N" 
			},
			{
				"x": -0.5005137021,
				"y": 0.1803025458,
				"z": 1.2778406046,
				"element": "C" 
			},
			{
				"x": -1.4810738235,
				"y": -0.4614391467,
				"z": 1.6377359361,
				"element": "O" 
			},
			{
				"x": 0.21260134,
				"y": 1.0949769959,
				"z": 2.2465782112,
				"element": "C" 
			},
			{
				"x": -0.2175080967,
				"y": 1.1747375122,
				"z": 3.5732797191,
				"element": "C" 
			},
			{
				"x": 0.3859727288,
				"y": 1.9796074275,
				"z": 4.4576997026,
				"element": "N" 
			},
			{
				"x": 1.4127882351,
				"y": 2.7057573891,
				"z": 4.0182951036,
				"element": "C" 
			},
			{
				"x": 1.8322518875,
				"y": 2.6203512509,
				"z": 2.6818680422,
				"element": "C" 
			},
			{
				"x": 3.1826919257,
				"y": 3.5947519006,
				"z": 2.1376508822,
				"element": "Cl" 
			},
			{
				"x": 1.2475707597,
				"y": 1.8289570636,
				"z": 1.8038580213,
				"element": "N" 
			},
			{
				"x": -1.0642065729,
				"y": -2.644312995,
				"z": 0.8608558502,
				"element": "H" 
			},
			{
				"x": 0.6479198849,
				"y": -2.5166200975,
				"z": 0.4795819626,
				"element": "H" 
			},
			{
				"x": -0.3075969573,
				"y": -3.8295581849,
				"z": -0.2315492236,
				"element": "H" 
			},
			{
				"x": -1.3201887557,
				"y": -3.5469523525,
				"z": -2.3322214721,
				"element": "H" 
			},
			{
				"x": -1.7967961728,
				"y": -2.1875039811,
				"z": -4.3400152866,
				"element": "H" 
			},
			{
				"x": -1.3820362545,
				"y": 0.2747756852,
				"z": -4.2967311283,
				"element": "H" 
			},
			{
				"x": -0.5472421104,
				"y": 1.3336563587,
				"z": -2.2113028009,
				"element": "H" 
			},
			{
				"x": 0.7907044152,
				"y": 0.8493401775,
				"z": -0.1112983696,
				"element": "H" 
			},
			{
				"x": -1.0582742428,
				"y": 0.5769947221,
				"z": 3.9083645384,
				"element": "H" 
			},
			{
				"x": 1.9148597618,
				"y": 3.3646847882,
				"z": 4.7209060417,
				"element": "H" 
			}
		],
		 "valence_orbital": [ 
			{
				"type": "occ",
				"energy": -0.2909,
				"method": "rhf"
			},
			{
				"type": "occ",
				"energy": -0.28173,
				"method": "rhf"
			},
			{
				"type": "occ",
				"energy": -0.26265,
				"method": "rhf"
			},
			{
				"type": "occ",
				"energy": -0.24697,
				"method": "rhf"
			},
			{
				"type": "occ",
				"energy": -0.23429,
				"method": "rhf"
			},
			{
				"type": "unocc",
				"energy": -0.08583,
				"method": "rhf"
			},
			{
				"type": "unocc",
				"energy": -0.05994,
				"method": "rhf"
			},
			{
				"type": "unocc",
				"energy": -0.00676,
				"method": "rhf"
			},
			{
				"type": "unocc",
				"energy": -0.00151,
				"method": "rhf"
			},
			{
				"type": "unocc",
				"energy": 0.01585,
				"method": "rhf"
			}
		],
		"cosmo_sigma_profile": { 
			"-0.025": 0.0,
			"-0.024": 0.0,
			"-0.023": 0.0,
			"-0.022": 0.0,
			"-0.021": 0.0,
			"-0.02": 0.0,
			"-0.019": 0.0,
			"-0.018": 0.0,
			"-0.017": 0.0,
			"-0.016": 0.0,
			"-0.015": 0.0,
			"-0.014": 0.0,
			"-0.013": 0.0480383168814,
			"-0.012": 0.444472539297,
			"-0.011": 1.06092696861,
			"-0.01": 1.32242496565,
			"-0.009": 3.11044597275,
			"-0.008": 4.06360462974,
			"-0.007": 4.24658729445,
			"-0.006": 10.3645132135,
			"-0.005": 14.3820763393,
			"-0.004": 25.23677339,
			"-0.003": 27.4474853413,
			"-0.002": 22.4272699399,
			"-0.001": 21.8261328419,
			"0.0": 22.0095717795,
			"0.001": 19.0521428235,
			"0.002": 18.4645761624,
			"0.003": 19.8016569047,
			"0.004": 16.1289151395,
			"0.005": 14.8493779933,
			"0.006": 7.69892833517,
			"0.007": 2.48028181941,
			"0.008": 2.62854852284,
			"0.009": 2.37058683893,
			"0.01": 2.83543430031,
			"0.011": 3.31527616326,
			"0.012": 3.52728530771,
			"0.013": 2.66909521897,
			"0.014": 0.13543235631,
			"0.015": 0.0,
			"0.016": 0.0,
			"0.017": 0.0,
			"0.018": 0.0,
			"0.019": 0.0,
			"0.02": 0.0,
			"0.021": 0.0,
			"0.022": 0.0,
			"0.023": 0.0,
			"0.024": 0.0,
			"0.025": 0.0
		}
	}
}
