{
	 "smiles": "C[Si](C)(C)OS(=O)(=O)O[Si](C)(C)C", 
	 "Tm": 321.65, 
	 "num_atms": 31, 
	 "gaussian": { 
		 "optdone": 1, 
		 "sigma_profile": "yes", 
		 "theory": "DFT", 
		 "functional": "B3LYP", 
		 "basiset": "6-31G**", 
		 "properties": { 
			 "R2extent": 4282.9618, 
			 "electric_dipole_moment_norm": 3.91055051623, 
			 "electric_quadrupole_moment_norm": 13.4370214583, 
			 "total_energy": -1517.6712505, 
			 "HOMO_LUMO_gap": 0.32424, 
			 "cosmo_polarized_energy": -10.33, 
			 "cosmo_cavitation_energy": 37.81, 
			 "cosmo_dispersion_energy": -21.67, 
			 "cosmo_repulsion_energy": 1.92, 
			 "cosmo_total_nonelectrostatic_energy": 18.05, 
			 "SMD_solvation_energy": 8.22 
		},
		"coords": [
			{
				"x": -0.3859532778,
				"y": 2.9426968727,
				"z": 1.1945083578,
				"element": "C" 
			},
			{
				"x": -1.5436764923,
				"y": 1.4879741332,
				"z": 0.9420902882,
				"element": "Si" 
			},
			{
				"x": -2.6806046318,
				"y": 1.7256063915,
				"z": -0.5305859376,
				"element": "C" 
			},
			{
				"x": -2.4743026987,
				"y": 1.0355034971,
				"z": 2.504410597,
				"element": "C" 
			},
			{
				"x": -0.4140493297,
				"y": 0.2090535046,
				"z": 0.5832610844,
				"element": "O" 
			},
			{
				"x": -0.7629168087,
				"y": -1.271905369,
				"z": 0.0902746315,
				"element": "S" 
			},
			{
				"x": -2.1712751992,
				"y": -1.5440753416,
				"z": 0.338490064,
				"element": "O" 
			},
			{
				"x": 0.2727251107,
				"y": -2.1558025244,
				"z": 0.6053821231,
				"element": "O" 
			},
			{
				"x": -0.5807991582,
				"y": -1.1064522007,
				"z": -1.4901304257,
				"element": "O" 
			},
			{
				"x": 0.8286166698,
				"y": -1.5155149238,
				"z": -2.4316780867,
				"element": "Si" 
			},
			{
				"x": 0.9998265939,
				"y": -3.3813900023,
				"z": -2.4625335743,
				"element": "C" 
			},
			{
				"x": 0.3682689516,
				"y": -0.8115558435,
				"z": -4.108874577,
				"element": "C" 
			},
			{
				"x": 2.3260178925,
				"y": -0.666667986,
				"z": -1.6866095428,
				"element": "C" 
			},
			{
				"x": 0.3291001926,
				"y": 2.7424028021,
				"z": 1.9985778672,
				"element": "H" 
			},
			{
				"x": -0.9497560573,
				"y": 3.8432586067,
				"z": 1.4631564128,
				"element": "H" 
			},
			{
				"x": 0.1817223526,
				"y": 3.1612913981,
				"z": 0.2845624847,
				"element": "H" 
			},
			{
				"x": -3.3669457074,
				"y": 2.5614706097,
				"z": -0.3528003001,
				"element": "H" 
			},
			{
				"x": -2.1140222821,
				"y": 1.9433479896,
				"z": -1.4414685843,
				"element": "H" 
			},
			{
				"x": -3.2773508855,
				"y": 0.8266132926,
				"z": -0.7081296707,
				"element": "H" 
			},
			{
				"x": -1.7866083835,
				"y": 0.8702137763,
				"z": 3.3401122365,
				"element": "H" 
			},
			{
				"x": -3.1650549341,
				"y": 1.8369615439,
				"z": 2.7905906473,
				"element": "H" 
			},
			{
				"x": -3.0535760216,
				"y": 0.1203885196,
				"z": 2.3538483965,
				"element": "H" 
			},
			{
				"x": 1.1591382928,
				"y": -3.7685888001,
				"z": -1.4524040225,
				"element": "H" 
			},
			{
				"x": 0.1007215371,
				"y": -3.8539382174,
				"z": -2.871130569,
				"element": "H" 
			},
			{
				"x": 1.8504719229,
				"y": -3.6826418261,
				"z": -3.0846557205,
				"element": "H" 
			},
			{
				"x": 1.1562460164,
				"y": -1.0148709968,
				"z": -4.8429110355,
				"element": "H" 
			},
			{
				"x": -0.5599583102,
				"y": -1.2559584706,
				"z": -4.4814845777,
				"element": "H" 
			},
			{
				"x": 0.2274300016,
				"y": 0.2727903482,
				"z": -4.0596411039,
				"element": "H" 
			},
			{
				"x": 3.2179519211,
				"y": -0.8641900042,
				"z": -2.2922460924,
				"element": "H" 
			},
			{
				"x": 2.1866648676,
				"y": 0.4178858858,
				"z": -1.6368314091,
				"element": "H" 
			},
			{
				"x": 2.5144478549,
				"y": -1.0322066652,
				"z": -0.6733499613,
				"element": "H" 
			}
		],
		 "valence_orbital": [ 
			{
				"type": "occ",
				"energy": -0.3096,
				"method": "rhf"
			},
			{
				"type": "occ",
				"energy": -0.30645,
				"method": "rhf"
			},
			{
				"type": "occ",
				"energy": -0.30235,
				"method": "rhf"
			},
			{
				"type": "occ",
				"energy": -0.29421,
				"method": "rhf"
			},
			{
				"type": "occ",
				"energy": -0.29291,
				"method": "rhf"
			},
			{
				"type": "unocc",
				"energy": 0.03133,
				"method": "rhf"
			},
			{
				"type": "unocc",
				"energy": 0.05688,
				"method": "rhf"
			},
			{
				"type": "unocc",
				"energy": 0.05971,
				"method": "rhf"
			},
			{
				"type": "unocc",
				"energy": 0.07361,
				"method": "rhf"
			},
			{
				"type": "unocc",
				"energy": 0.08337,
				"method": "rhf"
			}
		],
		"cosmo_sigma_profile": { 
			"-0.025": 0.0,
			"-0.024": 0.0,
			"-0.023": 0.0,
			"-0.022": 0.0,
			"-0.021": 0.0,
			"-0.02": 0.0,
			"-0.019": 0.0,
			"-0.018": 0.0,
			"-0.017": 0.0,
			"-0.016": 0.0,
			"-0.015": 0.0,
			"-0.014": 0.0,
			"-0.013": 0.0,
			"-0.012": 0.0,
			"-0.011": 0.0,
			"-0.01": 0.0,
			"-0.009": 0.0,
			"-0.008": 0.0,
			"-0.007": 0.0,
			"-0.006": 0.456402111102,
			"-0.005": 18.7233035034,
			"-0.004": 31.9577117426,
			"-0.003": 28.3304768507,
			"-0.002": 34.3309339076,
			"-0.001": 34.4754187241,
			"0.0": 44.2590930346,
			"0.001": 23.977025801,
			"0.002": 18.2954478343,
			"0.003": 9.43902259174,
			"0.004": 6.13681940793,
			"0.005": 5.03999563331,
			"0.006": 5.03641182218,
			"0.007": 6.72508823365,
			"0.008": 6.69249611314,
			"0.009": 5.59421419834,
			"0.01": 8.1373310368,
			"0.011": 1.39976714449,
			"0.012": 0.0,
			"0.013": 0.0,
			"0.014": 0.0,
			"0.015": 0.0,
			"0.016": 0.0,
			"0.017": 0.0,
			"0.018": 0.0,
			"0.019": 0.0,
			"0.02": 0.0,
			"0.021": 0.0,
			"0.022": 0.0,
			"0.023": 0.0,
			"0.024": 0.0,
			"0.025": 0.0
		}
	}
}
