{
	 "smiles": "CCC(C(C)C)C(C)C", 
	 "Tm": 151.15, 
	 "num_atms": 29, 
	 "gaussian": { 
		 "optdone": 1, 
		 "sigma_profile": "yes", 
		 "theory": "DFT", 
		 "functional": "B3LYP", 
		 "basiset": "6-31G**", 
		 "properties": { 
			 "R2extent": 1887.4283, 
			 "electric_dipole_moment_norm": 0.0968323809477, 
			 "electric_quadrupole_moment_norm": 0.553364960943, 
			 "total_energy": -355.032310229, 
			 "HOMO_LUMO_gap": 0.36455, 
			 "cosmo_polarized_energy": -0.8, 
			 "cosmo_cavitation_energy": 27.03, 
			 "cosmo_dispersion_energy": -19.24, 
			 "cosmo_repulsion_energy": 1.54, 
			 "cosmo_total_nonelectrostatic_energy": 9.33, 
			 "SMD_solvation_energy": 4.77 
		},
		"coords": [
			{
				"x": 0.4781159395,
				"y": -0.3329962561,
				"z": 2.1345292546,
				"element": "C" 
			},
			{
				"x": 1.7377811993,
				"y": -0.6007749044,
				"z": 1.2998647982,
				"element": "C" 
			},
			{
				"x": 1.6690907923,
				"y": -0.2345809717,
				"z": -0.2067425542,
				"element": "C" 
			},
			{
				"x": 0.6236193724,
				"y": -1.0746217147,
				"z": -0.9993583029,
				"element": "C" 
			},
			{
				"x": 0.7002977996,
				"y": -2.5757630088,
				"z": -0.6626073441,
				"element": "C" 
			},
			{
				"x": 0.7723851659,
				"y": -0.9126960067,
				"z": -2.5234475286,
				"element": "C" 
			},
			{
				"x": 1.5687545356,
				"y": 1.3242336373,
				"z": -0.3866235416,
				"element": "C" 
			},
			{
				"x": 0.1478643904,
				"y": 1.8836924554,
				"z": -0.5865915164,
				"element": "C" 
			},
			{
				"x": 2.51662557,
				"y": 1.8613741263,
				"z": -1.4750960769,
				"element": "C" 
			},
			{
				"x": 0.6264774545,
				"y": -0.6627256968,
				"z": 3.1684768641,
				"element": "H" 
			},
			{
				"x": -0.3952714103,
				"y": -0.8661008913,
				"z": 1.743742905,
				"element": "H" 
			},
			{
				"x": 0.228746792,
				"y": 0.7321436297,
				"z": 2.1671221426,
				"element": "H" 
			},
			{
				"x": 2.0126457081,
				"y": -1.6563210774,
				"z": 1.4015670589,
				"element": "H" 
			},
			{
				"x": 2.5734601522,
				"y": -0.0396249131,
				"z": 1.7385812239,
				"element": "H" 
			},
			{
				"x": 2.6505444012,
				"y": -0.5273907777,
				"z": -0.6114935658,
				"element": "H" 
			},
			{
				"x": -0.3822816863,
				"y": -0.7298265922,
				"z": -0.7244137931,
				"element": "H" 
			},
			{
				"x": 0.0122656993,
				"y": -3.1431143868,
				"z": -1.2988307232,
				"element": "H" 
			},
			{
				"x": 0.4353885689,
				"y": -2.7907832462,
				"z": 0.3759011098,
				"element": "H" 
			},
			{
				"x": 1.7093785577,
				"y": -2.9690142929,
				"z": -0.8392735344,
				"element": "H" 
			},
			{
				"x": 0.6253104631,
				"y": 0.1160484696,
				"z": -2.8587311157,
				"element": "H" 
			},
			{
				"x": 0.0394296269,
				"y": -1.5350466589,
				"z": -3.0488969862,
				"element": "H" 
			},
			{
				"x": 1.7695736757,
				"y": -1.2301601707,
				"z": -2.85270485,
				"element": "H" 
			},
			{
				"x": 1.9328806761,
				"y": 1.7528284526,
				"z": 0.5579806613,
				"element": "H" 
			},
			{
				"x": 0.1708549666,
				"y": 2.9787817231,
				"z": -0.5530569419,
				"element": "H" 
			},
			{
				"x": -0.5446485723,
				"y": 1.5461797148,
				"z": 0.1894940508,
				"element": "H" 
			},
			{
				"x": -0.2776641304,
				"y": 1.600627931,
				"z": -1.5544253312,
				"element": "H" 
			},
			{
				"x": 2.2409069664,
				"y": 1.5131957596,
				"z": -2.4751737746,
				"element": "H" 
			},
			{
				"x": 3.5493866351,
				"y": 1.5463254284,
				"z": -1.2891102465,
				"element": "H" 
			},
			{
				"x": 2.5028806904,
				"y": 2.9573102389,
				"z": -1.4941823419,
				"element": "H" 
			}
		],
		 "valence_orbital": [ 
			{
				"type": "occ",
				"energy": -0.32874,
				"method": "rhf"
			},
			{
				"type": "occ",
				"energy": -0.31936,
				"method": "rhf"
			},
			{
				"type": "occ",
				"energy": -0.29869,
				"method": "rhf"
			},
			{
				"type": "occ",
				"energy": -0.29178,
				"method": "rhf"
			},
			{
				"type": "occ",
				"energy": -0.28865,
				"method": "rhf"
			},
			{
				"type": "unocc",
				"energy": 0.0759,
				"method": "rhf"
			},
			{
				"type": "unocc",
				"energy": 0.10813,
				"method": "rhf"
			},
			{
				"type": "unocc",
				"energy": 0.11128,
				"method": "rhf"
			},
			{
				"type": "unocc",
				"energy": 0.11299,
				"method": "rhf"
			},
			{
				"type": "unocc",
				"energy": 0.13053,
				"method": "rhf"
			}
		],
		"cosmo_sigma_profile": { 
			"-0.025": 0.0,
			"-0.024": 0.0,
			"-0.023": 0.0,
			"-0.022": 0.0,
			"-0.021": 0.0,
			"-0.02": 0.0,
			"-0.019": 0.0,
			"-0.018": 0.0,
			"-0.017": 0.0,
			"-0.016": 0.0,
			"-0.015": 0.0,
			"-0.014": 0.0,
			"-0.013": 0.0,
			"-0.012": 0.0,
			"-0.011": 0.0,
			"-0.01": 0.0,
			"-0.009": 0.0,
			"-0.008": 0.0,
			"-0.007": 0.0,
			"-0.006": 0.0,
			"-0.005": 0.0,
			"-0.004": 0.0196922459875,
			"-0.003": 3.98894870826,
			"-0.002": 28.2389819659,
			"-0.001": 47.379997814,
			"0.0": 49.9875460828,
			"0.001": 41.6876873814,
			"0.002": 31.8584908429,
			"0.003": 3.3192489548,
			"0.004": 0.0,
			"0.005": 0.0,
			"0.006": 0.0,
			"0.007": 0.0,
			"0.008": 0.0,
			"0.009": 0.0,
			"0.01": 0.0,
			"0.011": 0.0,
			"0.012": 0.0,
			"0.013": 0.0,
			"0.014": 0.0,
			"0.015": 0.0,
			"0.016": 0.0,
			"0.017": 0.0,
			"0.018": 0.0,
			"0.019": 0.0,
			"0.02": 0.0,
			"0.021": 0.0,
			"0.022": 0.0,
			"0.023": 0.0,
			"0.024": 0.0,
			"0.025": 0.0
		}
	}
}
