{
	 "smiles": "CC1=NC(NN)=NC(O)=C1", 
	 "Tm": 487.15, 
	 "num_atms": 18, 
	 "gaussian": { 
		 "optdone": 1, 
		 "sigma_profile": "yes", 
		 "theory": "DFT", 
		 "functional": "B3LYP", 
		 "basiset": "6-31G**", 
		 "properties": { 
			 "R2extent": 2181.2441, 
			 "electric_dipole_moment_norm": 2.8509038935, 
			 "electric_quadrupole_moment_norm": 6.61454720068, 
			 "total_energy": -489.570001091, 
			 "HOMO_LUMO_gap": 0.203, 
			 "cosmo_polarized_energy": -15.15, 
			 "cosmo_cavitation_energy": 22.32, 
			 "cosmo_dispersion_energy": -16.88, 
			 "cosmo_repulsion_energy": 1.41, 
			 "cosmo_total_nonelectrostatic_energy": 6.84, 
			 "SMD_solvation_energy": 2.32 
		},
		"coords": [
			{
				"x": -0.3306495369,
				"y": -3.2072413706,
				"z": -1.7381797368,
				"element": "C" 
			},
			{
				"x": -0.3515488386,
				"y": -2.3019325077,
				"z": -0.5345799447,
				"element": "C" 
			},
			{
				"x": -1.4873822795,
				"y": -1.6284344177,
				"z": -0.3150311044,
				"element": "N" 
			},
			{
				"x": -1.4949621544,
				"y": -0.8264337486,
				"z": 0.7670481438,
				"element": "C" 
			},
			{
				"x": -2.6646667434,
				"y": -0.1612750863,
				"z": 1.0048060732,
				"element": "N" 
			},
			{
				"x": -2.7971725335,
				"y": 0.8588165518,
				"z": 1.9599100751,
				"element": "N" 
			},
			{
				"x": -0.4887023257,
				"y": -0.6155217037,
				"z": 1.6345217653,
				"element": "N" 
			},
			{
				"x": 0.6233574137,
				"y": -1.2950714802,
				"z": 1.3871716212,
				"element": "C" 
			},
			{
				"x": 1.6260126079,
				"y": -1.069869123,
				"z": 2.2673562899,
				"element": "O" 
			},
			{
				"x": 0.759206107,
				"y": -2.1745097843,
				"z": 0.3034101756,
				"element": "C" 
			},
			{
				"x": -0.5490548867,
				"y": -2.6317739058,
				"z": -2.6432839756,
				"element": "H" 
			},
			{
				"x": -1.1126323806,
				"y": -3.968024023,
				"z": -1.6477146283,
				"element": "H" 
			},
			{
				"x": 0.6344531575,
				"y": -3.7052394123,
				"z": -1.8588741616,
				"element": "H" 
			},
			{
				"x": -3.3522090007,
				"y": -0.173441082,
				"z": 0.2667518717,
				"element": "H" 
			},
			{
				"x": -2.7767438401,
				"y": 0.4249558418,
				"z": 2.8818739974,
				"element": "H" 
			},
			{
				"x": -1.9614274797,
				"y": 1.4431775316,
				"z": 1.9199798303,
				"element": "H" 
			},
			{
				"x": 2.3925003211,
				"y": -1.5997883443,
				"z": 2.0104283238,
				"element": "H" 
			},
			{
				"x": 1.6765223926,
				"y": -2.7231939358,
				"z": 0.1174053841,
				"element": "H" 
			}
		],
		 "valence_orbital": [ 
			{
				"type": "occ",
				"energy": -0.29729,
				"method": "rhf"
			},
			{
				"type": "occ",
				"energy": -0.27458,
				"method": "rhf"
			},
			{
				"type": "occ",
				"energy": -0.26807,
				"method": "rhf"
			},
			{
				"type": "occ",
				"energy": -0.24692,
				"method": "rhf"
			},
			{
				"type": "occ",
				"energy": -0.21708,
				"method": "rhf"
			},
			{
				"type": "unocc",
				"energy": -0.01408,
				"method": "rhf"
			},
			{
				"type": "unocc",
				"energy": 0.01121,
				"method": "rhf"
			},
			{
				"type": "unocc",
				"energy": 0.06398,
				"method": "rhf"
			},
			{
				"type": "unocc",
				"energy": 0.0992,
				"method": "rhf"
			},
			{
				"type": "unocc",
				"energy": 0.10906,
				"method": "rhf"
			}
		],
		"cosmo_sigma_profile": { 
			"-0.025": 0.0,
			"-0.024": 0.0,
			"-0.023": 0.0,
			"-0.022": 0.0,
			"-0.021": 0.0,
			"-0.02": 0.0,
			"-0.019": 0.248628275138,
			"-0.018": 1.26590500455,
			"-0.017": 1.03367059156,
			"-0.016": 0.816986453539,
			"-0.015": 1.32243960542,
			"-0.014": 1.12372660156,
			"-0.013": 1.57602007377,
			"-0.012": 1.57485581901,
			"-0.011": 2.74507563283,
			"-0.01": 4.54197391261,
			"-0.009": 3.81248018123,
			"-0.008": 3.43105269414,
			"-0.007": 4.85849426551,
			"-0.006": 5.04527105634,
			"-0.005": 7.79889233561,
			"-0.004": 10.1008827852,
			"-0.003": 7.99636686922,
			"-0.002": 10.1671064094,
			"-0.001": 13.4172041926,
			"0.0": 14.6237471038,
			"0.001": 12.7118607123,
			"0.002": 9.99775446859,
			"0.003": 8.53032371087,
			"0.004": 5.81124393229,
			"0.005": 5.80806450847,
			"0.006": 4.66462818621,
			"0.007": 4.10095266651,
			"0.008": 3.75243346171,
			"0.009": 4.02187562949,
			"0.01": 3.68115695439,
			"0.011": 4.07936672746,
			"0.012": 3.97025847913,
			"0.013": 3.15180499533,
			"0.014": 2.20149569134,
			"0.015": 1.03894885039,
			"0.016": 0.797127608465,
			"0.017": 0.31213546605,
			"0.018": 0.0,
			"0.019": 0.0,
			"0.02": 0.0,
			"0.021": 0.0,
			"0.022": 0.0,
			"0.023": 0.0,
			"0.024": 0.0,
			"0.025": 0.0
		}
	}
}
