{
	 "smiles": "CCCCCCCCCCCCCCCCCCCCCCCCCCCCCCCCCC", 
	 "Tm": 345.75, 
	 "num_atms": 104, 
	 "gaussian": { 
		 "optdone": 1, 
		 "sigma_profile": "yes", 
		 "theory": "DFT", 
		 "functional": "B3LYP", 
		 "basiset": "6-31G**", 
		 "properties": { 
			 "R2extent": 27880.4983, 
			 "electric_dipole_moment_norm": 0.0736465885157, 
			 "electric_quadrupole_moment_norm": 0.810432946023, 
			 "total_energy": -1337.91869553, 
			 "HOMO_LUMO_gap": 0.34818, 
			 "cosmo_polarized_energy": -2.03, 
			 "cosmo_cavitation_energy": 96.99, 
			 "cosmo_dispersion_energy": -53.71, 
			 "cosmo_repulsion_energy": 4.3, 
			 "cosmo_total_nonelectrostatic_energy": 47.58, 
			 "SMD_solvation_energy": 11.49 
		},
		"coords": [
			{
				"x": 0.7645744441,
				"y": -4.7212543637,
				"z": 0.0613001736,
				"element": "C" 
			},
			{
				"x": 0.6837343117,
				"y": -3.3677903054,
				"z": -0.651767383,
				"element": "C" 
			},
			{
				"x": 1.209768094,
				"y": -3.4069513951,
				"z": -2.0926034851,
				"element": "C" 
			},
			{
				"x": 1.121832589,
				"y": -2.0507666242,
				"z": -2.8060418959,
				"element": "C" 
			},
			{
				"x": 1.7344214738,
				"y": -2.0225739307,
				"z": -4.2173150411,
				"element": "C" 
			},
			{
				"x": 1.0804967419,
				"y": -2.9556999477,
				"z": -5.2542376849,
				"element": "C" 
			},
			{
				"x": -0.412427251,
				"y": -2.7074581988,
				"z": -5.5343822556,
				"element": "C" 
			},
			{
				"x": -0.7266958756,
				"y": -1.3213059915,
				"z": -6.11704419,
				"element": "C" 
			},
			{
				"x": -2.1812315072,
				"y": -1.1475868784,
				"z": -6.5906870983,
				"element": "C" 
			},
			{
				"x": -3.2657883494,
				"y": -1.2762765615,
				"z": -5.5062328841,
				"element": "C" 
			},
			{
				"x": -3.2002095649,
				"y": -0.212534257,
				"z": -4.4010370101,
				"element": "C" 
			},
			{
				"x": -4.3530619861,
				"y": -0.3282523831,
				"z": -3.3931442542,
				"element": "C" 
			},
			{
				"x": -4.3753633219,
				"y": 0.7568289949,
				"z": -2.302608563,
				"element": "C" 
			},
			{
				"x": -3.2062415802,
				"y": 0.6890324545,
				"z": -1.3084598195,
				"element": "C" 
			},
			{
				"x": -3.2214816447,
				"y": 1.7894841988,
				"z": -0.2315702707,
				"element": "C" 
			},
			{
				"x": -4.4240509765,
				"y": 1.7761422,
				"z": 0.7315514735,
				"element": "C" 
			},
			{
				"x": -4.5932945226,
				"y": 0.502281355,
				"z": 1.5781876865,
				"element": "C" 
			},
			{
				"x": -3.4443547261,
				"y": 0.2251997309,
				"z": 2.5582946286,
				"element": "C" 
			},
			{
				"x": -3.6944953838,
				"y": -1.0065303756,
				"z": 3.4406631919,
				"element": "C" 
			},
			{
				"x": -2.6140351639,
				"y": -1.2721022365,
				"z": 4.5022152947,
				"element": "C" 
			},
			{
				"x": -1.2358014363,
				"y": -1.6519290903,
				"z": 3.9415806638,
				"element": "C" 
			},
			{
				"x": -0.2136716004,
				"y": -1.9798676332,
				"z": 5.0397291384,
				"element": "C" 
			},
			{
				"x": 1.1633268015,
				"y": -2.4336783667,
				"z": 4.5273598914,
				"element": "C" 
			},
			{
				"x": 1.9629922675,
				"y": -1.355298576,
				"z": 3.7817942752,
				"element": "C" 
			},
			{
				"x": 3.3600586852,
				"y": -1.8324934029,
				"z": 3.3585702623,
				"element": "C" 
			},
			{
				"x": 4.2257197487,
				"y": -0.7664300903,
				"z": 2.6660175281,
				"element": "C" 
			},
			{
				"x": 3.714342621,
				"y": -0.3356478031,
				"z": 1.2807522072,
				"element": "C" 
			},
			{
				"x": 4.6294065727,
				"y": 0.6448077545,
				"z": 0.5134054279,
				"element": "C" 
			},
			{
				"x": 4.3706262203,
				"y": 2.1454755745,
				"z": 0.7434568748,
				"element": "C" 
			},
			{
				"x": 4.6526608409,
				"y": 2.6701367452,
				"z": 2.1592532623,
				"element": "C" 
			},
			{
				"x": 4.6025207735,
				"y": 4.2043340023,
				"z": 2.2815833329,
				"element": "C" 
			},
			{
				"x": 3.2432052611,
				"y": 4.8612205275,
				"z": 1.9823695208,
				"element": "C" 
			},
			{
				"x": 2.1123922784,
				"y": 4.4627589683,
				"z": 2.9409135424,
				"element": "C" 
			},
			{
				"x": 0.8031442627,
				"y": 5.2086967672,
				"z": 2.6620977604,
				"element": "C" 
			},
			{
				"x": 0.3850917738,
				"y": -4.6575258112,
				"z": 1.0867251435,
				"element": "H" 
			},
			{
				"x": 1.7984974538,
				"y": -5.0817952066,
				"z": 0.1115234047,
				"element": "H" 
			},
			{
				"x": 0.1761426202,
				"y": -5.4825514328,
				"z": -0.4637885861,
				"element": "H" 
			},
			{
				"x": -0.357915842,
				"y": -3.0182656248,
				"z": -0.6567464433,
				"element": "H" 
			},
			{
				"x": 1.2505184194,
				"y": -2.6191630058,
				"z": -0.0812314382,
				"element": "H" 
			},
			{
				"x": 0.6492714608,
				"y": -4.1652756449,
				"z": -2.6557977663,
				"element": "H" 
			},
			{
				"x": 2.2560384077,
				"y": -3.7464797218,
				"z": -2.086948994,
				"element": "H" 
			},
			{
				"x": 1.6348307997,
				"y": -1.2968783361,
				"z": -2.1931394301,
				"element": "H" 
			},
			{
				"x": 0.0708483617,
				"y": -1.7328560715,
				"z": -2.8472279408,
				"element": "H" 
			},
			{
				"x": 1.708182965,
				"y": -0.9908853944,
				"z": -4.5903024939,
				"element": "H" 
			},
			{
				"x": 2.7989029098,
				"y": -2.2845300574,
				"z": -4.1434552963,
				"element": "H" 
			},
			{
				"x": 1.6355458338,
				"y": -2.8612197548,
				"z": -6.1977746899,
				"element": "H" 
			},
			{
				"x": 1.2096448162,
				"y": -3.998247533,
				"z": -4.9369264219,
				"element": "H" 
			},
			{
				"x": -0.762025491,
				"y": -3.4735722926,
				"z": -6.2405684721,
				"element": "H" 
			},
			{
				"x": -0.9906102688,
				"y": -2.8658112165,
				"z": -4.6151729323,
				"element": "H" 
			},
			{
				"x": -0.4822466285,
				"y": -0.5428594542,
				"z": -5.383690849,
				"element": "H" 
			},
			{
				"x": -0.0626987443,
				"y": -1.1413163625,
				"z": -6.9741157778,
				"element": "H" 
			},
			{
				"x": -2.2792723957,
				"y": -0.163900291,
				"z": -7.0702938448,
				"element": "H" 
			},
			{
				"x": -2.3839330911,
				"y": -1.8882516409,
				"z": -7.3766034396,
				"element": "H" 
			},
			{
				"x": -3.2216927657,
				"y": -2.2746439406,
				"z": -5.0505476553,
				"element": "H" 
			},
			{
				"x": -4.2484867699,
				"y": -1.2167572523,
				"z": -5.9939539324,
				"element": "H" 
			},
			{
				"x": -2.2403661465,
				"y": -0.2860551655,
				"z": -3.8753482315,
				"element": "H" 
			},
			{
				"x": -3.2203309481,
				"y": 0.7874697247,
				"z": -4.8591498709,
				"element": "H" 
			},
			{
				"x": -4.3194629203,
				"y": -1.3189003419,
				"z": -2.9166401864,
				"element": "H" 
			},
			{
				"x": -5.3031287296,
				"y": -0.2925624594,
				"z": -3.9436841427,
				"element": "H" 
			},
			{
				"x": -5.3224519254,
				"y": 0.6744196799,
				"z": -1.7549046324,
				"element": "H" 
			},
			{
				"x": -4.3872121544,
				"y": 1.748444476,
				"z": -2.7785769477,
				"element": "H" 
			},
			{
				"x": -3.1969147945,
				"y": -0.3013548253,
				"z": -0.832244445,
				"element": "H" 
			},
			{
				"x": -2.2577983017,
				"y": 0.7649421077,
				"z": -1.8545245661,
				"element": "H" 
			},
			{
				"x": -3.1917632609,
				"y": 2.7682760305,
				"z": -0.7299466729,
				"element": "H" 
			},
			{
				"x": -2.2921740106,
				"y": 1.7248106002,
				"z": 0.3484108521,
				"element": "H" 
			},
			{
				"x": -4.3311978231,
				"y": 2.6373397513,
				"z": 1.4075286868,
				"element": "H" 
			},
			{
				"x": -5.3473114973,
				"y": 1.9449642746,
				"z": 0.1631579107,
				"element": "H" 
			},
			{
				"x": -5.5285662416,
				"y": 0.5888637508,
				"z": 2.1481384026,
				"element": "H" 
			},
			{
				"x": -4.7268433589,
				"y": -0.368635871,
				"z": 0.9219391886,
				"element": "H" 
			},
			{
				"x": -3.2982797779,
				"y": 1.1060390065,
				"z": 3.2010992298,
				"element": "H" 
			},
			{
				"x": -2.5078857909,
				"y": 0.0962977988,
				"z": 2.0023025265,
				"element": "H" 
			},
			{
				"x": -4.6616894714,
				"y": -0.8846571361,
				"z": 3.9474026731,
				"element": "H" 
			},
			{
				"x": -3.7998179212,
				"y": -1.8949254652,
				"z": 2.8011097671,
				"element": "H" 
			},
			{
				"x": -2.5115326928,
				"y": -0.3843403494,
				"z": 5.1431101011,
				"element": "H" 
			},
			{
				"x": -2.9598611102,
				"y": -2.0802691605,
				"z": 5.1612986974,
				"element": "H" 
			},
			{
				"x": -0.855217833,
				"y": -0.8365180495,
				"z": 3.3150706734,
				"element": "H" 
			},
			{
				"x": -1.3435582059,
				"y": -2.5225704171,
				"z": 3.2775410384,
				"element": "H" 
			},
			{
				"x": -0.6285356601,
				"y": -2.7700640202,
				"z": 5.6804823658,
				"element": "H" 
			},
			{
				"x": -0.0861008538,
				"y": -1.1018040795,
				"z": 5.6894411892,
				"element": "H" 
			},
			{
				"x": 1.7585871152,
				"y": -2.7839466138,
				"z": 5.3818160336,
				"element": "H" 
			},
			{
				"x": 1.0354396161,
				"y": -3.3073970227,
				"z": 3.8716568369,
				"element": "H" 
			},
			{
				"x": 1.4026303947,
				"y": -1.0252880677,
				"z": 2.898934068,
				"element": "H" 
			},
			{
				"x": 2.064580683,
				"y": -0.4705637726,
				"z": 4.4278525902,
				"element": "H" 
			},
			{
				"x": 3.2590800791,
				"y": -2.7036329,
				"z": 2.6947577325,
				"element": "H" 
			},
			{
				"x": 3.8919971686,
				"y": -2.1932832912,
				"z": 4.2496195011,
				"element": "H" 
			},
			{
				"x": 5.2429593458,
				"y": -1.164113595,
				"z": 2.5475812192,
				"element": "H" 
			},
			{
				"x": 4.3191866338,
				"y": 0.1042780916,
				"z": 3.3266675808,
				"element": "H" 
			},
			{
				"x": 3.5914912925,
				"y": -1.2455956283,
				"z": 0.6768521913,
				"element": "H" 
			},
			{
				"x": 2.7109658475,
				"y": 0.1030037865,
				"z": 1.3646860359,
				"element": "H" 
			},
			{
				"x": 5.6803512732,
				"y": 0.4156165818,
				"z": 0.7413830788,
				"element": "H" 
			},
			{
				"x": 4.5115243021,
				"y": 0.4572763076,
				"z": -0.5614279125,
				"element": "H" 
			},
			{
				"x": 3.3302862783,
				"y": 2.3653105133,
				"z": 0.4675038763,
				"element": "H" 
			},
			{
				"x": 4.9934688012,
				"y": 2.7104000408,
				"z": 0.0350861623,
				"element": "H" 
			},
			{
				"x": 3.9493665414,
				"y": 2.2226894842,
				"z": 2.8715116459,
				"element": "H" 
			},
			{
				"x": 5.6507923457,
				"y": 2.3327047114,
				"z": 2.4705892498,
				"element": "H" 
			},
			{
				"x": 5.3556765244,
				"y": 4.6339931443,
				"z": 1.6066820359,
				"element": "H" 
			},
			{
				"x": 4.9117823581,
				"y": 4.4857692252,
				"z": 3.2976870826,
				"element": "H" 
			},
			{
				"x": 2.9378278715,
				"y": 4.6384590751,
				"z": 0.9510588366,
				"element": "H" 
			},
			{
				"x": 3.3706073467,
				"y": 5.9517444821,
				"z": 2.0245235407,
				"element": "H" 
			},
			{
				"x": 1.9311385834,
				"y": 3.3822449559,
				"z": 2.8770438879,
				"element": "H" 
			},
			{
				"x": 2.4314001377,
				"y": 4.6559521869,
				"z": 3.9746697787,
				"element": "H" 
			},
			{
				"x": 0.936531016,
				"y": 6.2924693645,
				"z": 2.7577712667,
				"element": "H" 
			},
			{
				"x": 0.4431330483,
				"y": 5.0106456068,
				"z": 1.645861749,
				"element": "H" 
			},
			{
				"x": 0.013043903,
				"y": 4.908168657,
				"z": 3.3581918796,
				"element": "H" 
			}
		],
		 "valence_orbital": [ 
			{
				"type": "occ",
				"energy": -0.29658,
				"method": "rhf"
			},
			{
				"type": "occ",
				"energy": -0.29522,
				"method": "rhf"
			},
			{
				"type": "occ",
				"energy": -0.29466,
				"method": "rhf"
			},
			{
				"type": "occ",
				"energy": -0.29361,
				"method": "rhf"
			},
			{
				"type": "occ",
				"energy": -0.2903,
				"method": "rhf"
			},
			{
				"type": "unocc",
				"energy": 0.05788,
				"method": "rhf"
			},
			{
				"type": "unocc",
				"energy": 0.06756,
				"method": "rhf"
			},
			{
				"type": "unocc",
				"energy": 0.07882,
				"method": "rhf"
			},
			{
				"type": "unocc",
				"energy": 0.08074,
				"method": "rhf"
			},
			{
				"type": "unocc",
				"energy": 0.09069,
				"method": "rhf"
			}
		],
		"cosmo_sigma_profile": { 
			"-0.025": 0.0,
			"-0.024": 0.0,
			"-0.023": 0.0,
			"-0.022": 0.0,
			"-0.021": 0.0,
			"-0.02": 0.0,
			"-0.019": 0.0,
			"-0.018": 0.0,
			"-0.017": 0.0,
			"-0.016": 0.0,
			"-0.015": 0.0,
			"-0.014": 0.0,
			"-0.013": 0.0,
			"-0.012": 0.0,
			"-0.011": 0.0,
			"-0.01": 0.0,
			"-0.009": 0.0,
			"-0.008": 0.0,
			"-0.007": 0.0,
			"-0.006": 0.0,
			"-0.005": 0.0,
			"-0.004": 0.0,
			"-0.003": 1.88670236313,
			"-0.002": 68.7999345865,
			"-0.001": 197.955301376,
			"0.0": 211.545988694,
			"0.001": 178.464365623,
			"0.002": 77.0259583522,
			"0.003": 2.0437398795,
			"0.004": 0.0,
			"0.005": 0.0,
			"0.006": 0.0,
			"0.007": 0.0,
			"0.008": 0.0,
			"0.009": 0.0,
			"0.01": 0.0,
			"0.011": 0.0,
			"0.012": 0.0,
			"0.013": 0.0,
			"0.014": 0.0,
			"0.015": 0.0,
			"0.016": 0.0,
			"0.017": 0.0,
			"0.018": 0.0,
			"0.019": 0.0,
			"0.02": 0.0,
			"0.021": 0.0,
			"0.022": 0.0,
			"0.023": 0.0,
			"0.024": 0.0,
			"0.025": 0.0
		}
	}
}
