{
	 "smiles": "OC(=O)C1CCC(CC1)C(O)=O", 
	 "Tm": 585.15, 
	 "num_atms": 24, 
	 "gaussian": { 
		 "optdone": 1, 
		 "sigma_profile": "yes", 
		 "theory": "DFT", 
		 "functional": "B3LYP", 
		 "basiset": "6-31G**", 
		 "properties": { 
			 "R2extent": 3459.9622, 
			 "electric_dipole_moment_norm": 2.96749114573, 
			 "electric_quadrupole_moment_norm": 28.8475346406, 
			 "total_energy": -613.008400953, 
			 "HOMO_LUMO_gap": 0.27051, 
			 "cosmo_polarized_energy": -25.47, 
			 "cosmo_cavitation_energy": 26.66, 
			 "cosmo_dispersion_energy": -19.18, 
			 "cosmo_repulsion_energy": 1.54, 
			 "cosmo_total_nonelectrostatic_energy": 9.02, 
			 "SMD_solvation_energy": 6.08 
		},
		"coords": [
			{
				"x": -3.1239769967,
				"y": -2.2510148015,
				"z": 1.518973939,
				"element": "O" 
			},
			{
				"x": -1.8910155159,
				"y": -2.7972785227,
				"z": 1.3251417867,
				"element": "C" 
			},
			{
				"x": -1.7852742844,
				"y": -3.9803913258,
				"z": 1.118910664,
				"element": "O" 
			},
			{
				"x": -0.7228313937,
				"y": -1.8120507666,
				"z": 1.341985063,
				"element": "C" 
			},
			{
				"x": -0.7082164723,
				"y": -0.9926296441,
				"z": 0.0275823729,
				"element": "C" 
			},
			{
				"x": 0.4791654969,
				"y": -0.0220929159,
				"z": -0.0202489099,
				"element": "C" 
			},
			{
				"x": 1.8259953822,
				"y": -0.7574963868,
				"z": 0.1912485,
				"element": "C" 
			},
			{
				"x": 1.8029339316,
				"y": -1.5676385305,
				"z": 1.4952333878,
				"element": "C" 
			},
			{
				"x": 0.6153878994,
				"y": -2.5369880947,
				"z": 1.5443741734,
				"element": "C" 
			},
			{
				"x": 2.9736538152,
				"y": 0.2516817219,
				"z": 0.1848802669,
				"element": "C" 
			},
			{
				"x": 3.3096455402,
				"y": 0.7526225839,
				"z": -1.0367166031,
				"element": "O" 
			},
			{
				"x": 3.5481866754,
				"y": 0.6405476921,
				"z": 1.1708697782,
				"element": "O" 
			},
			{
				"x": -3.0456886481,
				"y": -1.3046516293,
				"z": 1.7048735621,
				"element": "H" 
			},
			{
				"x": -0.8766687858,
				"y": -1.1106787262,
				"z": 2.1775076285,
				"element": "H" 
			},
			{
				"x": -0.650740224,
				"y": -1.6917371309,
				"z": -0.817072287,
				"element": "H" 
			},
			{
				"x": -1.6452147554,
				"y": -0.4357544675,
				"z": -0.0932338602,
				"element": "H" 
			},
			{
				"x": 0.3705409476,
				"y": 0.7367496366,
				"z": 0.7657898934,
				"element": "H" 
			},
			{
				"x": 0.4769932779,
				"y": 0.5171200467,
				"z": -0.9751848494,
				"element": "H" 
			},
			{
				"x": 1.9714637407,
				"y": -1.4489993018,
				"z": -0.6539372085,
				"element": "H" 
			},
			{
				"x": 1.7647853737,
				"y": -0.8650730038,
				"z": 2.3357561682,
				"element": "H" 
			},
			{
				"x": 2.7426408476,
				"y": -2.1185198539,
				"z": 1.6044614123,
				"element": "H" 
			},
			{
				"x": 0.7104366403,
				"y": -3.3059546253,
				"z": 0.7690004309,
				"element": "H" 
			},
			{
				"x": 0.6053121026,
				"y": -3.0711230392,
				"z": 2.4999025299,
				"element": "H" 
			},
			{
				"x": 2.7886854053,
				"y": 0.3230510854,
				"z": -1.729797839,
				"element": "H" 
			}
		],
		 "valence_orbital": [ 
			{
				"type": "occ",
				"energy": -0.33011,
				"method": "rhf"
			},
			{
				"type": "occ",
				"energy": -0.32002,
				"method": "rhf"
			},
			{
				"type": "occ",
				"energy": -0.3189,
				"method": "rhf"
			},
			{
				"type": "occ",
				"energy": -0.27735,
				"method": "rhf"
			},
			{
				"type": "occ",
				"energy": -0.27154,
				"method": "rhf"
			},
			{
				"type": "unocc",
				"energy": -0.00103,
				"method": "rhf"
			},
			{
				"type": "unocc",
				"energy": 0.00601,
				"method": "rhf"
			},
			{
				"type": "unocc",
				"energy": 0.03788,
				"method": "rhf"
			},
			{
				"type": "unocc",
				"energy": 0.04054,
				"method": "rhf"
			},
			{
				"type": "unocc",
				"energy": 0.08819,
				"method": "rhf"
			}
		],
		"cosmo_sigma_profile": { 
			"-0.025": 0.0,
			"-0.024": 0.0,
			"-0.023": 0.0,
			"-0.022": 0.0,
			"-0.021": 0.0,
			"-0.02": 0.0,
			"-0.019": 0.437028629957,
			"-0.018": 1.97222275876,
			"-0.017": 1.65829599361,
			"-0.016": 2.23801901741,
			"-0.015": 2.19025240272,
			"-0.014": 1.60207127839,
			"-0.013": 2.20006089394,
			"-0.012": 2.57165841211,
			"-0.011": 3.16786275355,
			"-0.01": 2.26061050337,
			"-0.009": 1.64929929192,
			"-0.008": 2.9008289799,
			"-0.007": 4.74747922495,
			"-0.006": 5.44244256265,
			"-0.005": 8.94267383401,
			"-0.004": 22.1282676379,
			"-0.003": 23.8547165837,
			"-0.002": 17.2629106347,
			"-0.001": 13.5626745468,
			"0.0": 7.7919064856,
			"0.001": 4.72098182681,
			"0.002": 3.86848678231,
			"0.003": 3.86806791229,
			"0.004": 3.91157438871,
			"0.005": 5.33434827632,
			"0.006": 4.83738225605,
			"0.007": 3.62931456721,
			"0.008": 5.72286311604,
			"0.009": 6.25420343916,
			"0.01": 8.6171808929,
			"0.011": 11.5527474164,
			"0.012": 11.3322901263,
			"0.013": 4.46133641666,
			"0.014": 0.244362315916,
			"0.015": 0.0,
			"0.016": 0.0,
			"0.017": 0.0,
			"0.018": 0.0,
			"0.019": 0.0,
			"0.02": 0.0,
			"0.021": 0.0,
			"0.022": 0.0,
			"0.023": 0.0,
			"0.024": 0.0,
			"0.025": 0.0
		}
	}
}
