{
	 "smiles": "OC(=O)C1=C(NC(=O)C2=CC=CS2)C=C(Cl)C=C1", 
	 "Tm": 541.15, 
	 "num_atms": 26, 
	 "gaussian": { 
		 "optdone": 1, 
		 "sigma_profile": "yes", 
		 "theory": "DFT", 
		 "functional": "B3LYP", 
		 "basiset": "6-31G**", 
		 "properties": { 
			 "R2extent": 6723.2813, 
			 "electric_dipole_moment_norm": 4.32069935196, 
			 "electric_quadrupole_moment_norm": 7.59344742986, 
			 "total_energy": -1600.90749142, 
			 "HOMO_LUMO_gap": 0.17032, 
			 "cosmo_polarized_energy": -19.08, 
			 "cosmo_cavitation_energy": 34.57, 
			 "cosmo_dispersion_energy": -24.68, 
			 "cosmo_repulsion_energy": 1.87, 
			 "cosmo_total_nonelectrostatic_energy": 11.76, 
			 "SMD_solvation_energy": 7.16 
		},
		"coords": [
			{
				"x": -2.4111686511,
				"y": 2.1371644256,
				"z": 0.3833423852,
				"element": "O" 
			},
			{
				"x": -1.1643843711,
				"y": 1.7053830445,
				"z": 0.060587226,
				"element": "C" 
			},
			{
				"x": -0.3636857844,
				"y": 1.3904416105,
				"z": 0.9167774457,
				"element": "O" 
			},
			{
				"x": -0.9247677724,
				"y": 1.7203645281,
				"z": -1.4100394515,
				"element": "C" 
			},
			{
				"x": 0.2328284702,
				"y": 1.1515801467,
				"z": -1.9986291705,
				"element": "C" 
			},
			{
				"x": 1.2168750369,
				"y": 0.4205436338,
				"z": -1.2998928181,
				"element": "N" 
			},
			{
				"x": 1.1223942069,
				"y": -0.5859741156,
				"z": -0.3426281484,
				"element": "C" 
			},
			{
				"x": 2.0890069696,
				"y": -0.8349429151,
				"z": 0.3641953584,
				"element": "O" 
			},
			{
				"x": -0.1082529094,
				"y": -1.404264944,
				"z": -0.2907570326,
				"element": "C" 
			},
			{
				"x": -1.0778183041,
				"y": -1.6587278731,
				"z": -1.2360263523,
				"element": "C" 
			},
			{
				"x": -2.0472143741,
				"y": -2.6024243525,
				"z": -0.7962547927,
				"element": "C" 
			},
			{
				"x": -1.7971316208,
				"y": -3.0532828511,
				"z": 0.4749652214,
				"element": "C" 
			},
			{
				"x": -0.3711736469,
				"y": -2.3521046625,
				"z": 1.1483331992,
				"element": "S" 
			},
			{
				"x": 0.4649606815,
				"y": 1.3432710227,
				"z": -3.3692390991,
				"element": "C" 
			},
			{
				"x": -0.4333128734,
				"y": 2.0678343093,
				"z": -4.1451327144,
				"element": "C" 
			},
			{
				"x": -0.1037594912,
				"y": 2.2907955772,
				"z": -5.8512647438,
				"element": "Cl" 
			},
			{
				"x": -1.6004174604,
				"y": 2.5951315859,
				"z": -3.5931262131,
				"element": "C" 
			},
			{
				"x": -1.8295001627,
				"y": 2.409790043,
				"z": -2.235210176,
				"element": "C" 
			},
			{
				"x": -2.4462398428,
				"y": 2.1193974762,
				"z": 1.3539683128,
				"element": "H" 
			},
			{
				"x": 2.1674820052,
				"y": 0.7627847752,
				"z": -1.3720934283,
				"element": "H" 
			},
			{
				"x": -1.0886307896,
				"y": -1.2039229294,
				"z": -2.2186121091,
				"element": "H" 
			},
			{
				"x": -2.886568054,
				"y": -2.9322544392,
				"z": -1.3975858381,
				"element": "H" 
			},
			{
				"x": -2.3736894489,
				"y": -3.7641857495,
				"z": 1.0514359194,
				"element": "H" 
			},
			{
				"x": 1.3446876222,
				"y": 0.899746668,
				"z": -3.8217270101,
				"element": "H" 
			},
			{
				"x": -2.3030486437,
				"y": 3.1436349818,
				"z": -4.2092809076,
				"element": "H" 
			},
			{
				"x": -2.7189707912,
				"y": 2.8321210037,
				"z": -1.7843050622,
				"element": "H" 
			}
		],
		 "valence_orbital": [ 
			{
				"type": "occ",
				"energy": -0.27163,
				"method": "rhf"
			},
			{
				"type": "occ",
				"energy": -0.26351,
				"method": "rhf"
			},
			{
				"type": "occ",
				"energy": -0.25792,
				"method": "rhf"
			},
			{
				"type": "occ",
				"energy": -0.24531,
				"method": "rhf"
			},
			{
				"type": "occ",
				"energy": -0.2393,
				"method": "rhf"
			},
			{
				"type": "unocc",
				"energy": -0.06898,
				"method": "rhf"
			},
			{
				"type": "unocc",
				"energy": -0.04687,
				"method": "rhf"
			},
			{
				"type": "unocc",
				"energy": -0.02963,
				"method": "rhf"
			},
			{
				"type": "unocc",
				"energy": 0.01405,
				"method": "rhf"
			},
			{
				"type": "unocc",
				"energy": 0.03123,
				"method": "rhf"
			}
		],
		"cosmo_sigma_profile": { 
			"-0.025": 0.0,
			"-0.024": 0.0,
			"-0.023": 0.0,
			"-0.022": 0.0,
			"-0.021": 0.0,
			"-0.02": 0.0,
			"-0.019": 0.0762529932244,
			"-0.018": 0.840919672726,
			"-0.017": 0.854656973018,
			"-0.016": 1.00365102589,
			"-0.015": 1.14602849414,
			"-0.014": 2.05788196335,
			"-0.013": 1.19678821232,
			"-0.012": 1.84023281337,
			"-0.011": 2.17697938675,
			"-0.01": 1.87293580141,
			"-0.009": 3.9644173343,
			"-0.008": 7.46415857687,
			"-0.007": 11.2619341935,
			"-0.006": 11.0420509378,
			"-0.005": 11.140897902,
			"-0.004": 12.5769459895,
			"-0.003": 13.3952826352,
			"-0.002": 16.5468385194,
			"-0.001": 19.1393614535,
			"0.0": 27.6622662811,
			"0.001": 25.6250347408,
			"0.002": 21.5293495373,
			"0.003": 23.8055582236,
			"0.004": 19.7684537119,
			"0.005": 7.18245578569,
			"0.006": 5.25208630549,
			"0.007": 3.98858870157,
			"0.008": 3.8150668346,
			"0.009": 3.15721831332,
			"0.01": 4.46123672985,
			"0.011": 6.1293995778,
			"0.012": 5.20336313338,
			"0.013": 4.59164385751,
			"0.014": 0.206630478576,
			"0.015": 0.0,
			"0.016": 0.0,
			"0.017": 0.0,
			"0.018": 0.0,
			"0.019": 0.0,
			"0.02": 0.0,
			"0.021": 0.0,
			"0.022": 0.0,
			"0.023": 0.0,
			"0.024": 0.0,
			"0.025": 0.0
		}
	}
}
