{
	 "smiles": "CC1=NOC2=C1C(=CC(=N2)C1=C(Cl)C=CC=C1)C(O)=O", 
	 "Tm": 522.15, 
	 "num_atms": 29, 
	 "gaussian": { 
		 "optdone": 1, 
		 "sigma_profile": "yes", 
		 "theory": "DFT", 
		 "functional": "B3LYP", 
		 "basiset": "6-31G**", 
		 "properties": { 
			 "R2extent": 7014.3764, 
			 "electric_dipole_moment_norm": 2.45194534197, 
			 "electric_quadrupole_moment_norm": 28.6841591541, 
			 "total_energy": -1334.25737417, 
			 "HOMO_LUMO_gap": 0.15444, 
			 "cosmo_polarized_energy": -14.72, 
			 "cosmo_cavitation_energy": 36.0, 
			 "cosmo_dispersion_energy": -26.24, 
			 "cosmo_repulsion_energy": 1.98, 
			 "cosmo_total_nonelectrostatic_energy": 11.74, 
			 "SMD_solvation_energy": 5.64 
		},
		"coords": [
			{
				"x": 3.4962205773,
				"y": -4.0278840593,
				"z": -0.9665068511,
				"element": "C" 
			},
			{
				"x": 2.8587197783,
				"y": -3.0255476834,
				"z": -0.0551786557,
				"element": "C" 
			},
			{
				"x": 3.454621682,
				"y": -2.7867937576,
				"z": 1.0892200745,
				"element": "N" 
			},
			{
				"x": 2.7081249651,
				"y": -1.8282443946,
				"z": 1.7900974462,
				"element": "O" 
			},
			{
				"x": 1.6426905348,
				"y": -1.4970774042,
				"z": 1.0308912448,
				"element": "C" 
			},
			{
				"x": 1.6612979935,
				"y": -2.2215207718,
				"z": -0.1767537268,
				"element": "C" 
			},
			{
				"x": 0.5986465905,
				"y": -1.9407508358,
				"z": -1.0651487676,
				"element": "C" 
			},
			{
				"x": -0.3505918035,
				"y": -1.0072938215,
				"z": -0.6526241772,
				"element": "C" 
			},
			{
				"x": -0.2570200919,
				"y": -0.3704926857,
				"z": 0.604955501,
				"element": "C" 
			},
			{
				"x": 0.7606060763,
				"y": -0.6074460582,
				"z": 1.4484111778,
				"element": "N" 
			},
			{
				"x": -1.2262397292,
				"y": 0.6717033453,
				"z": 1.0431252479,
				"element": "C" 
			},
			{
				"x": -2.6220565581,
				"y": 0.6046045835,
				"z": 0.8824235199,
				"element": "C" 
			},
			{
				"x": -3.4144081769,
				"y": -0.8183720371,
				"z": 0.2080954173,
				"element": "Cl" 
			},
			{
				"x": -3.4544241648,
				"y": 1.6409118157,
				"z": 1.3084508017,
				"element": "C" 
			},
			{
				"x": -2.9059855029,
				"y": 2.7704795988,
				"z": 1.9113005728,
				"element": "C" 
			},
			{
				"x": -1.5261369563,
				"y": 2.8541557253,
				"z": 2.1038780469,
				"element": "C" 
			},
			{
				"x": -0.7066163961,
				"y": 1.8144586886,
				"z": 1.6795446293,
				"element": "C" 
			},
			{
				"x": 0.3837918449,
				"y": -2.5292694898,
				"z": -2.4230157034,
				"element": "C" 
			},
			{
				"x": 1.2757374731,
				"y": -3.4914360846,
				"z": -2.7438428301,
				"element": "O" 
			},
			{
				"x": -0.5039511804,
				"y": -2.1916616269,
				"z": -3.177218266,
				"element": "O" 
			},
			{
				"x": 3.7531225214,
				"y": -3.5775602599,
				"z": -1.9281870391,
				"element": "H" 
			},
			{
				"x": 2.8192925892,
				"y": -4.8610582975,
				"z": -1.1687284635,
				"element": "H" 
			},
			{
				"x": 4.403197745,
				"y": -4.4054713545,
				"z": -0.4904252025,
				"element": "H" 
			},
			{
				"x": -1.1576423244,
				"y": -0.7699940856,
				"z": -1.3318065472,
				"element": "H" 
			},
			{
				"x": -4.5262657027,
				"y": 1.547358411,
				"z": 1.1748212921,
				"element": "H" 
			},
			{
				"x": -3.5590565218,
				"y": 3.5745849859,
				"z": 2.2366223708,
				"element": "H" 
			},
			{
				"x": -1.0899530655,
				"y": 3.7252411002,
				"z": 2.5826086373,
				"element": "H" 
			},
			{
				"x": 0.3659906245,
				"y": 1.8619047304,
				"z": 1.8319702592,
				"element": "H" 
			},
			{
				"x": 1.0344871786,
				"y": -3.7944282767,
				"z": -3.6355800095,
				"element": "H" 
			}
		],
		 "valence_orbital": [ 
			{
				"type": "occ",
				"energy": -0.28984,
				"method": "rhf"
			},
			{
				"type": "occ",
				"energy": -0.28753,
				"method": "rhf"
			},
			{
				"type": "occ",
				"energy": -0.27283,
				"method": "rhf"
			},
			{
				"type": "occ",
				"energy": -0.25794,
				"method": "rhf"
			},
			{
				"type": "occ",
				"energy": -0.24721,
				"method": "rhf"
			},
			{
				"type": "unocc",
				"energy": -0.09277,
				"method": "rhf"
			},
			{
				"type": "unocc",
				"energy": -0.04417,
				"method": "rhf"
			},
			{
				"type": "unocc",
				"energy": -0.01924,
				"method": "rhf"
			},
			{
				"type": "unocc",
				"energy": -0.00475,
				"method": "rhf"
			},
			{
				"type": "unocc",
				"energy": 0.02016,
				"method": "rhf"
			}
		],
		"cosmo_sigma_profile": { 
			"-0.025": 0.0,
			"-0.024": 0.0,
			"-0.023": 0.0,
			"-0.022": 0.0,
			"-0.021": 0.0,
			"-0.02": 0.00564743293921,
			"-0.019": 0.687596683657,
			"-0.018": 0.767566987877,
			"-0.017": 1.04148398203,
			"-0.016": 1.08151547425,
			"-0.015": 0.811732507977,
			"-0.014": 0.301934913317,
			"-0.013": 0.379850547968,
			"-0.012": 1.09145155616,
			"-0.011": 0.863641696213,
			"-0.01": 0.300963638233,
			"-0.009": 0.539988828922,
			"-0.008": 1.93510878956,
			"-0.007": 5.89930537292,
			"-0.006": 9.82269234937,
			"-0.005": 16.7088856518,
			"-0.004": 20.9349264235,
			"-0.003": 25.4609179143,
			"-0.002": 28.5375546678,
			"-0.001": 27.2292064494,
			"0.0": 21.2738194542,
			"0.001": 23.3948962761,
			"0.002": 21.0588541261,
			"0.003": 22.7082698667,
			"0.004": 13.710539728,
			"0.005": 6.00550393551,
			"0.006": 6.12374221646,
			"0.007": 9.11123851377,
			"0.008": 6.02901469003,
			"0.009": 4.19018445096,
			"0.01": 5.66686748647,
			"0.011": 5.66186279846,
			"0.012": 1.88380356843,
			"0.013": 0.791912191154,
			"0.014": 0.118122665468,
			"0.015": 0.0,
			"0.016": 0.0,
			"0.017": 0.0,
			"0.018": 0.0,
			"0.019": 0.0,
			"0.02": 0.0,
			"0.021": 0.0,
			"0.022": 0.0,
			"0.023": 0.0,
			"0.024": 0.0,
			"0.025": 0.0
		}
	}
}
