{
	 "smiles": "CC1=CC(=NO1)N1C(C)=CC(C(=O)CCl)=C1C", 
	 "Tm": 384.15, 
	 "num_atms": 30, 
	 "gaussian": { 
		 "optdone": 1, 
		 "sigma_profile": "yes", 
		 "theory": "DFT", 
		 "functional": "B3LYP", 
		 "basiset": "6-31G**", 
		 "properties": { 
			 "R2extent": 6159.8862, 
			 "electric_dipole_moment_norm": 6.18146112986, 
			 "electric_quadrupole_moment_norm": 18.4169405717, 
			 "total_energy": -1185.20877607, 
			 "HOMO_LUMO_gap": 0.16699, 
			 "cosmo_polarized_energy": -14.43, 
			 "cosmo_cavitation_energy": 35.93, 
			 "cosmo_dispersion_energy": -25.22, 
			 "cosmo_repulsion_energy": 1.99, 
			 "cosmo_total_nonelectrostatic_energy": 12.7, 
			 "SMD_solvation_energy": 6.59 
		},
		"coords": [
			{
				"x": 0.5110464086,
				"y": -3.4178573432,
				"z": -4.2419752816,
				"element": "C" 
			},
			{
				"x": 0.2936433621,
				"y": -2.1932757196,
				"z": -3.4238703935,
				"element": "C" 
			},
			{
				"x": 0.365227128,
				"y": -1.9226829492,
				"z": -2.0898588988,
				"element": "C" 
			},
			{
				"x": 0.0413084005,
				"y": -0.5373751675,
				"z": -2.0122228718,
				"element": "C" 
			},
			{
				"x": -0.2119303006,
				"y": -0.0143572875,
				"z": -3.1931593447,
				"element": "N" 
			},
			{
				"x": -0.0414286321,
				"y": -1.0644099704,
				"z": -4.0908285265,
				"element": "O" 
			},
			{
				"x": -0.0070841562,
				"y": 0.2685717127,
				"z": -0.857764276,
				"element": "N" 
			},
			{
				"x": -0.8539916784,
				"y": 0.037670837,
				"z": 0.2408591224,
				"element": "C" 
			},
			{
				"x": -1.8388778076,
				"y": -1.085581646,
				"z": 0.2781747681,
				"element": "C" 
			},
			{
				"x": -0.6033052143,
				"y": 1.025333279,
				"z": 1.1492265784,
				"element": "C" 
			},
			{
				"x": 0.4181628486,
				"y": 1.8872998132,
				"z": 0.6166165093,
				"element": "C" 
			},
			{
				"x": 0.9837930079,
				"y": 3.0778242636,
				"z": 1.2507565429,
				"element": "C" 
			},
			{
				"x": 1.8331928157,
				"y": 3.8020889254,
				"z": 0.741442438,
				"element": "O" 
			},
			{
				"x": 0.4479010795,
				"y": 3.4789950193,
				"z": 2.6328308207,
				"element": "C" 
			},
			{
				"x": 0.9856821024,
				"y": 2.3312964732,
				"z": 3.9373404135,
				"element": "Cl" 
			},
			{
				"x": 0.7671493222,
				"y": 1.3933283141,
				"z": -0.6403522163,
				"element": "C" 
			},
			{
				"x": 1.775671358,
				"y": 1.8742311445,
				"z": -1.6314025914,
				"element": "C" 
			},
			{
				"x": 1.3053006061,
				"y": -3.2574818808,
				"z": -4.9781536762,
				"element": "H" 
			},
			{
				"x": 0.7930815722,
				"y": -4.2543794703,
				"z": -3.6000420825,
				"element": "H" 
			},
			{
				"x": -0.398328804,
				"y": -3.6874490493,
				"z": -4.7890232588,
				"element": "H" 
			},
			{
				"x": 0.6290698826,
				"y": -2.5893093474,
				"z": -1.2843960362,
				"element": "H" 
			},
			{
				"x": -2.4539319736,
				"y": -0.989251188,
				"z": 1.1757605305,
				"element": "H" 
			},
			{
				"x": -2.5075829359,
				"y": -1.0755357306,
				"z": -0.5904947122,
				"element": "H" 
			},
			{
				"x": -1.3608819595,
				"y": -2.0718489528,
				"z": 0.3101954769,
				"element": "H" 
			},
			{
				"x": -1.0901831867,
				"y": 1.1182813583,
				"z": 2.1091101048,
				"element": "H" 
			},
			{
				"x": -0.6432802722,
				"y": 3.4971005972,
				"z": 2.6614562024,
				"element": "H" 
			},
			{
				"x": 0.8547153953,
				"y": 4.4571797115,
				"z": 2.8819717734,
				"element": "H" 
			},
			{
				"x": 2.496550663,
				"y": 1.08506589,
				"z": -1.8772190046,
				"element": "H" 
			},
			{
				"x": 1.2987794945,
				"y": 2.1783006554,
				"z": -2.5683059064,
				"element": "H" 
			},
			{
				"x": 2.3054314739,
				"y": 2.723827708,
				"z": -1.2044722036,
				"element": "H" 
			}
		],
		 "valence_orbital": [ 
			{
				"type": "occ",
				"energy": -0.2956,
				"method": "rhf"
			},
			{
				"type": "occ",
				"energy": -0.2757,
				"method": "rhf"
			},
			{
				"type": "occ",
				"energy": -0.25164,
				"method": "rhf"
			},
			{
				"type": "occ",
				"energy": -0.24293,
				"method": "rhf"
			},
			{
				"type": "occ",
				"energy": -0.21472,
				"method": "rhf"
			},
			{
				"type": "unocc",
				"energy": -0.04773,
				"method": "rhf"
			},
			{
				"type": "unocc",
				"energy": -0.02986,
				"method": "rhf"
			},
			{
				"type": "unocc",
				"energy": 0.0158,
				"method": "rhf"
			},
			{
				"type": "unocc",
				"energy": 0.03799,
				"method": "rhf"
			},
			{
				"type": "unocc",
				"energy": 0.04945,
				"method": "rhf"
			}
		],
		"cosmo_sigma_profile": { 
			"-0.025": 0.0,
			"-0.024": 0.0,
			"-0.023": 0.0,
			"-0.022": 0.0,
			"-0.021": 0.0,
			"-0.02": 0.0,
			"-0.019": 0.0,
			"-0.018": 0.0,
			"-0.017": 0.0,
			"-0.016": 0.0,
			"-0.015": 0.0,
			"-0.014": 0.0,
			"-0.013": 0.0,
			"-0.012": 0.0,
			"-0.011": 0.0,
			"-0.01": 0.0,
			"-0.009": 1.55134871636,
			"-0.008": 5.51389279831,
			"-0.007": 9.62107228716,
			"-0.006": 15.7597108214,
			"-0.005": 20.4128998574,
			"-0.004": 23.401350628,
			"-0.003": 22.6678927164,
			"-0.002": 24.560835833,
			"-0.001": 26.8923206154,
			"0.0": 20.853952158,
			"0.001": 16.5459948328,
			"0.002": 16.84044392,
			"0.003": 13.8828736248,
			"0.004": 13.0398527738,
			"0.005": 15.4989721949,
			"0.006": 14.2568397368,
			"0.007": 6.87834851415,
			"0.008": 4.46419524155,
			"0.009": 3.04868948945,
			"0.01": 3.18621578395,
			"0.011": 3.84955902922,
			"0.012": 3.52958022651,
			"0.013": 1.70277456158,
			"0.014": 0.0,
			"0.015": 0.0,
			"0.016": 0.0,
			"0.017": 0.0,
			"0.018": 0.0,
			"0.019": 0.0,
			"0.02": 0.0,
			"0.021": 0.0,
			"0.022": 0.0,
			"0.023": 0.0,
			"0.024": 0.0,
			"0.025": 0.0
		}
	}
}
