{
	 "smiles": "OC(=O)C1=C(CSC2=CC=CC=C2)C=CC=C1", 
	 "Tm": 384.15, 
	 "num_atms": 29, 
	 "gaussian": { 
		 "optdone": 1, 
		 "sigma_profile": "yes", 
		 "theory": "DFT", 
		 "functional": "B3LYP", 
		 "basiset": "6-31G**", 
		 "properties": { 
			 "R2extent": 6252.1464, 
			 "electric_dipole_moment_norm": 2.65552861969, 
			 "electric_quadrupole_moment_norm": 12.206867787, 
			 "total_energy": -1089.37193352, 
			 "HOMO_LUMO_gap": 0.16515, 
			 "cosmo_polarized_energy": -12.49, 
			 "cosmo_cavitation_energy": 35.01, 
			 "cosmo_dispersion_energy": -25.08, 
			 "cosmo_repulsion_energy": 1.89, 
			 "cosmo_total_nonelectrostatic_energy": 11.82, 
			 "SMD_solvation_energy": 6.55 
		},
		"coords": [
			{
				"x": 1.4770382784,
				"y": 2.4041945932,
				"z": 1.0545576333,
				"element": "O" 
			},
			{
				"x": 0.2671704842,
				"y": 2.3239404294,
				"z": 1.6654473696,
				"element": "C" 
			},
			{
				"x": -0.4142404298,
				"y": 3.3187313913,
				"z": 1.8200125115,
				"element": "O" 
			},
			{
				"x": -0.1233259871,
				"y": 0.9652619373,
				"z": 2.1535683479,
				"element": "C" 
			},
			{
				"x": 0.4819282887,
				"y": -0.2660072403,
				"z": 1.7994781027,
				"element": "C" 
			},
			{
				"x": 1.6095893498,
				"y": -0.4257274852,
				"z": 0.8095151687,
				"element": "C" 
			},
			{
				"x": 0.9107327019,
				"y": -0.4801599141,
				"z": -0.9166906223,
				"element": "S" 
			},
			{
				"x": 2.4183246984,
				"y": -0.4395119744,
				"z": -1.8894511334,
				"element": "C" 
			},
			{
				"x": 3.2381203475,
				"y": 0.6986049495,
				"z": -1.900753313,
				"element": "C" 
			},
			{
				"x": 4.3881604423,
				"y": 0.725448051,
				"z": -2.6888570479,
				"element": "C" 
			},
			{
				"x": 4.7174570799,
				"y": -0.3712053932,
				"z": -3.4900865492,
				"element": "C" 
			},
			{
				"x": 3.8959500502,
				"y": -1.4991824965,
				"z": -3.4932466018,
				"element": "C" 
			},
			{
				"x": 2.7544781721,
				"y": -1.5392675587,
				"z": -2.6894210158,
				"element": "C" 
			},
			{
				"x": -0.0381043614,
				"y": -1.438737084,
				"z": 2.3676179595,
				"element": "C" 
			},
			{
				"x": -1.104819708,
				"y": -1.4180286857,
				"z": 3.2629842868,
				"element": "C" 
			},
			{
				"x": -1.695578768,
				"y": -0.2021346855,
				"z": 3.6067684201,
				"element": "C" 
			},
			{
				"x": -1.2064171971,
				"y": 0.9730101565,
				"z": 3.0490401032,
				"element": "C" 
			},
			{
				"x": 1.5697177193,
				"y": 3.3394689683,
				"z": 0.8065042636,
				"element": "H" 
			},
			{
				"x": 2.1288153452,
				"y": -1.36934416,
				"z": 0.9910061834,
				"element": "H" 
			},
			{
				"x": 2.32121366,
				"y": 0.3935925302,
				"z": 0.8578401068,
				"element": "H" 
			},
			{
				"x": 2.9660864065,
				"y": 1.5574067622,
				"z": -1.2949589089,
				"element": "H" 
			},
			{
				"x": 5.0208389749,
				"y": 1.6087179315,
				"z": -2.6886145559,
				"element": "H" 
			},
			{
				"x": 5.6088367139,
				"y": -0.3442243575,
				"z": -4.1101399981,
				"element": "H" 
			},
			{
				"x": 4.1467609657,
				"y": -2.3546369651,
				"z": -4.1141365515,
				"element": "H" 
			},
			{
				"x": 2.1206184681,
				"y": -2.4203719402,
				"z": -2.6779365297,
				"element": "H" 
			},
			{
				"x": 0.4101003075,
				"y": -2.3893085739,
				"z": 2.0919216335,
				"element": "H" 
			},
			{
				"x": -1.4733613285,
				"y": -2.3482112725,
				"z": 3.6857827832,
				"element": "H" 
			},
			{
				"x": -2.5294631762,
				"y": -0.1691569157,
				"z": 4.3011449137,
				"element": "H" 
			},
			{
				"x": -1.6509274985,
				"y": 1.9313390022,
				"z": 3.2924030401,
				"element": "H" 
			}
		],
		 "valence_orbital": [ 
			{
				"type": "occ",
				"energy": -0.26679,
				"method": "rhf"
			},
			{
				"type": "occ",
				"energy": -0.26161,
				"method": "rhf"
			},
			{
				"type": "occ",
				"energy": -0.25562,
				"method": "rhf"
			},
			{
				"type": "occ",
				"energy": -0.25033,
				"method": "rhf"
			},
			{
				"type": "occ",
				"energy": -0.21876,
				"method": "rhf"
			},
			{
				"type": "unocc",
				"energy": -0.05361,
				"method": "rhf"
			},
			{
				"type": "unocc",
				"energy": -0.02233,
				"method": "rhf"
			},
			{
				"type": "unocc",
				"energy": -0.00887,
				"method": "rhf"
			},
			{
				"type": "unocc",
				"energy": -0.00608,
				"method": "rhf"
			},
			{
				"type": "unocc",
				"energy": 0.04669,
				"method": "rhf"
			}
		],
		"cosmo_sigma_profile": { 
			"-0.025": 0.0,
			"-0.024": 0.0,
			"-0.023": 0.0,
			"-0.022": 0.0,
			"-0.021": 0.0,
			"-0.02": 0.0,
			"-0.019": 0.0,
			"-0.018": 0.52503379105,
			"-0.017": 1.04303083453,
			"-0.016": 0.883740353897,
			"-0.015": 0.642901644887,
			"-0.014": 0.793239542248,
			"-0.013": 0.725355152559,
			"-0.012": 0.495203226461,
			"-0.011": 0.495116948589,
			"-0.01": 1.1895198365,
			"-0.009": 0.523449878942,
			"-0.008": 0.469386009483,
			"-0.007": 4.83064482069,
			"-0.006": 16.368560058,
			"-0.005": 21.5423519387,
			"-0.004": 21.0115796353,
			"-0.003": 18.3418645945,
			"-0.002": 19.6900670383,
			"-0.001": 17.7683788452,
			"0.0": 19.883350054,
			"0.001": 20.6217211592,
			"0.002": 25.3859759362,
			"0.003": 24.9407983008,
			"0.004": 21.6943160248,
			"0.005": 16.0177855997,
			"0.006": 5.88670153052,
			"0.007": 3.60064495425,
			"0.008": 3.92687525423,
			"0.009": 3.17538635691,
			"0.01": 2.4005034601,
			"0.011": 4.20794959809,
			"0.012": 3.00754710528,
			"0.013": 0.0,
			"0.014": 0.0,
			"0.015": 0.0,
			"0.016": 0.0,
			"0.017": 0.0,
			"0.018": 0.0,
			"0.019": 0.0,
			"0.02": 0.0,
			"0.021": 0.0,
			"0.022": 0.0,
			"0.023": 0.0,
			"0.024": 0.0,
			"0.025": 0.0
		}
	}
}
