{
	 "smiles": "CC1=CC=C(C(=C1N(=O)=O)N(=O)=O)N(=O)=O", 
	 "Tm": 385.15, 
	 "num_atms": 21, 
	 "gaussian": { 
		 "optdone": 1, 
		 "sigma_profile": "yes", 
		 "theory": "DFT", 
		 "functional": "B3LYP", 
		 "basiset": "6-31G**", 
		 "properties": { 
			 "R2extent": 4157.7297, 
			 "electric_dipole_moment_norm": 7.46589969193, 
			 "electric_quadrupole_moment_norm": 16.2257251625, 
			 "total_energy": -885.017738965, 
			 "HOMO_LUMO_gap": 0.18068, 
			 "cosmo_polarized_energy": -16.13, 
			 "cosmo_cavitation_energy": 28.05, 
			 "cosmo_dispersion_energy": -19.51, 
			 "cosmo_repulsion_energy": 1.49, 
			 "cosmo_total_nonelectrostatic_energy": 10.03, 
			 "SMD_solvation_energy": 11.76 
		},
		"coords": [
			{
				"x": -2.0400623087,
				"y": -0.7189762436,
				"z": 1.6709306754,
				"element": "C" 
			},
			{
				"x": -1.4378776896,
				"y": -0.7768593202,
				"z": 0.2901696646,
				"element": "C" 
			},
			{
				"x": -1.2148948299,
				"y": -2.0157643651,
				"z": -0.3268132772,
				"element": "C" 
			},
			{
				"x": -0.6511475225,
				"y": -2.1145142804,
				"z": -1.5923313946,
				"element": "C" 
			},
			{
				"x": -0.3004661534,
				"y": -0.9595360322,
				"z": -2.2848455178,
				"element": "C" 
			},
			{
				"x": -0.5359489507,
				"y": 0.2953480933,
				"z": -1.7240225822,
				"element": "C" 
			},
			{
				"x": -1.0909583842,
				"y": 0.3696867016,
				"z": -0.4453625714,
				"element": "C" 
			},
			{
				"x": -1.3645208499,
				"y": 1.7036155401,
				"z": 0.1294696117,
				"element": "N" 
			},
			{
				"x": -1.9484374248,
				"y": 2.5075217537,
				"z": -0.5881331818,
				"element": "O" 
			},
			{
				"x": -1.0060425083,
				"y": 1.8928635266,
				"z": 1.2868391592,
				"element": "O" 
			},
			{
				"x": -0.2274315873,
				"y": 1.54518792,
				"z": -2.4626917993,
				"element": "N" 
			},
			{
				"x": -0.885440665,
				"y": 1.7528277746,
				"z": -3.4684378104,
				"element": "O" 
			},
			{
				"x": 0.6434231295,
				"y": 2.2523594439,
				"z": -1.9776150751,
				"element": "O" 
			},
			{
				"x": 0.3756641026,
				"y": -1.1167872931,
				"z": -3.5856416382,
				"element": "N" 
			},
			{
				"x": 1.1079554159,
				"y": -0.2046506102,
				"z": -3.952330489,
				"element": "O" 
			},
			{
				"x": 0.177106044,
				"y": -2.1685255491,
				"z": -4.1869505716,
				"element": "O" 
			},
			{
				"x": -2.8455666705,
				"y": 0.0171562146,
				"z": 1.7374209617,
				"element": "H" 
			},
			{
				"x": -2.4416008251,
				"y": -1.6972552356,
				"z": 1.9427534607,
				"element": "H" 
			},
			{
				"x": -1.2863376915,
				"y": -0.4292230569,
				"z": 2.4080117748,
				"element": "H" 
			},
			{
				"x": -1.485582088,
				"y": -2.9211409771,
				"z": 0.2063276758,
				"element": "H" 
			},
			{
				"x": -0.4663325427,
				"y": -3.0734340048,
				"z": -2.0607470754,
				"element": "H" 
			}
		],
		 "valence_orbital": [ 
			{
				"type": "occ",
				"energy": -0.32857,
				"method": "rhf"
			},
			{
				"type": "occ",
				"energy": -0.3261,
				"method": "rhf"
			},
			{
				"type": "occ",
				"energy": -0.32268,
				"method": "rhf"
			},
			{
				"type": "occ",
				"energy": -0.30697,
				"method": "rhf"
			},
			{
				"type": "occ",
				"energy": -0.3009,
				"method": "rhf"
			},
			{
				"type": "unocc",
				"energy": -0.12022,
				"method": "rhf"
			},
			{
				"type": "unocc",
				"energy": -0.11426,
				"method": "rhf"
			},
			{
				"type": "unocc",
				"energy": -0.09169,
				"method": "rhf"
			},
			{
				"type": "unocc",
				"energy": -0.05499,
				"method": "rhf"
			},
			{
				"type": "unocc",
				"energy": -0.04026,
				"method": "rhf"
			}
		],
		"cosmo_sigma_profile": { 
			"-0.025": 0.0,
			"-0.024": 0.0,
			"-0.023": 0.0,
			"-0.022": 0.0,
			"-0.021": 0.0,
			"-0.02": 0.0,
			"-0.019": 0.0,
			"-0.018": 0.0,
			"-0.017": 0.0,
			"-0.016": 0.0,
			"-0.015": 0.0,
			"-0.014": 0.0,
			"-0.013": 0.0,
			"-0.012": 0.0651267025993,
			"-0.011": 0.656248032216,
			"-0.01": 2.98211037169,
			"-0.009": 7.59065992196,
			"-0.008": 6.48973133098,
			"-0.007": 8.25384060211,
			"-0.006": 11.1615957308,
			"-0.005": 14.866547536,
			"-0.004": 17.4590022008,
			"-0.003": 19.450199962,
			"-0.002": 16.1505871422,
			"-0.001": 8.72680773114,
			"0.0": 5.670990185,
			"0.001": 7.03627999464,
			"0.002": 8.27679916367,
			"0.003": 11.2420600407,
			"0.004": 12.0568904879,
			"0.005": 19.7902704945,
			"0.006": 25.1796877324,
			"0.007": 13.1979335584,
			"0.008": 7.88029473041,
			"0.009": 1.12550124773,
			"0.01": 0.0,
			"0.011": 0.0,
			"0.012": 0.0,
			"0.013": 0.0,
			"0.014": 0.0,
			"0.015": 0.0,
			"0.016": 0.0,
			"0.017": 0.0,
			"0.018": 0.0,
			"0.019": 0.0,
			"0.02": 0.0,
			"0.021": 0.0,
			"0.022": 0.0,
			"0.023": 0.0,
			"0.024": 0.0,
			"0.025": 0.0
		}
	}
}
