{
	 "smiles": "CC(=O)NC1=CC=C(C=C1)S(=O)(=O)N1CCC(=O)CC1", 
	 "Tm": 419.15, 
	 "num_atms": 36, 
	 "gaussian": { 
		 "optdone": 1, 
		 "sigma_profile": "yes", 
		 "theory": "DFT", 
		 "functional": "B3LYP", 
		 "basiset": "6-31G**", 
		 "properties": { 
			 "R2extent": 7556.5409, 
			 "electric_dipole_moment_norm": 1.66521217267, 
			 "electric_quadrupole_moment_norm": 25.5254603861, 
			 "total_energy": -1313.5491505, 
			 "HOMO_LUMO_gap": 0.19131, 
			 "cosmo_polarized_energy": -26.61, 
			 "cosmo_cavitation_energy": 40.25, 
			 "cosmo_dispersion_energy": -28.42, 
			 "cosmo_repulsion_energy": 2.15, 
			 "cosmo_total_nonelectrostatic_energy": 13.98, 
			 "SMD_solvation_energy": 6.12 
		},
		"coords": [
			{
				"x": -1.1981033141,
				"y": 2.9719563721,
				"z": 3.1297367415,
				"element": "C" 
			},
			{
				"x": -1.3037578494,
				"y": 1.790376508,
				"z": 4.0718998437,
				"element": "C" 
			},
			{
				"x": -1.7794651691,
				"y": 1.8940830156,
				"z": 5.19082369,
				"element": "O" 
			},
			{
				"x": -0.8702706823,
				"y": 0.5364465509,
				"z": 3.646800924,
				"element": "N" 
			},
			{
				"x": -0.3057079453,
				"y": 0.0686890972,
				"z": 2.4507782771,
				"element": "C" 
			},
			{
				"x": -0.5667367785,
				"y": -1.2637727125,
				"z": 2.0802401452,
				"element": "C" 
			},
			{
				"x": -0.0134523956,
				"y": -1.8052279554,
				"z": 0.926410885,
				"element": "C" 
			},
			{
				"x": 0.8025772653,
				"y": -1.0119893199,
				"z": 0.1130015073,
				"element": "C" 
			},
			{
				"x": 1.0928363533,
				"y": 0.3044091532,
				"z": 0.4809341323,
				"element": "C" 
			},
			{
				"x": 0.5534117985,
				"y": 0.8393381616,
				"z": 1.6474044672,
				"element": "C" 
			},
			{
				"x": 1.4746852171,
				"y": -1.6847129724,
				"z": -1.4091097647,
				"element": "S" 
			},
			{
				"x": 1.4901544608,
				"y": -3.1411058192,
				"z": -1.2598456599,
				"element": "O" 
			},
			{
				"x": 2.673871909,
				"y": -0.9084100324,
				"z": -1.7322694558,
				"element": "O" 
			},
			{
				"x": 0.3620096868,
				"y": -1.3612451251,
				"z": -2.6246125487,
				"element": "N" 
			},
			{
				"x": -0.8932261067,
				"y": -2.1391611478,
				"z": -2.5980995906,
				"element": "C" 
			},
			{
				"x": -1.8061801318,
				"y": -1.708142392,
				"z": -3.7513066481,
				"element": "C" 
			},
			{
				"x": -2.138186416,
				"y": -0.2204504424,
				"z": -3.6972192944,
				"element": "C" 
			},
			{
				"x": -3.1920737364,
				"y": 0.2337546822,
				"z": -4.0916485127,
				"element": "O" 
			},
			{
				"x": -1.0323963041,
				"y": 0.6494710266,
				"z": -3.1056196189,
				"element": "C" 
			},
			{
				"x": 0.3408593723,
				"y": -0.0184774876,
				"z": -3.2393608796,
				"element": "C" 
			},
			{
				"x": -1.3860424568,
				"y": 2.7044659449,
				"z": 2.0874176815,
				"element": "H" 
			},
			{
				"x": -0.2026714869,
				"y": 3.4242377273,
				"z": 3.1945768905,
				"element": "H" 
			},
			{
				"x": -1.9249203654,
				"y": 3.7132991858,
				"z": 3.4625538464,
				"element": "H" 
			},
			{
				"x": -1.1173442045,
				"y": -0.1718568246,
				"z": 4.3282308033,
				"element": "H" 
			},
			{
				"x": -1.2100410489,
				"y": -1.8743826411,
				"z": 2.7077898518,
				"element": "H" 
			},
			{
				"x": -0.1928965246,
				"y": -2.8415273901,
				"z": 0.6625831687,
				"element": "H" 
			},
			{
				"x": 1.7815911848,
				"y": 0.8901150411,
				"z": -0.1181177725,
				"element": "H" 
			},
			{
				"x": 0.8362124667,
				"y": 1.8391654403,
				"z": 1.9491658229,
				"element": "H" 
			},
			{
				"x": -0.6456305869,
				"y": -3.1989777222,
				"z": -2.6786622429,
				"element": "H" 
			},
			{
				"x": -1.4274780037,
				"y": -1.9950806238,
				"z": -1.6456721982,
				"element": "H" 
			},
			{
				"x": -2.7368303364,
				"y": -2.2810762534,
				"z": -3.7460601204,
				"element": "H" 
			},
			{
				"x": -1.3084011709,
				"y": -1.9074878617,
				"z": -4.7104363231,
				"element": "H" 
			},
			{
				"x": -1.0530671478,
				"y": 1.6281156074,
				"z": -3.5942793109,
				"element": "H" 
			},
			{
				"x": -1.2686182897,
				"y": 0.8148040681,
				"z": -2.0451067534,
				"element": "H" 
			},
			{
				"x": 1.1258966376,
				"y": 0.5872951375,
				"z": -2.7854316826,
				"element": "H" 
			},
			{
				"x": 0.6053920993,
				"y": -0.1151379964,
				"z": -4.2999903009,
				"element": "H" 
			}
		],
		 "valence_orbital": [ 
			{
				"type": "occ",
				"energy": -0.28671,
				"method": "rhf"
			},
			{
				"type": "occ",
				"energy": -0.27128,
				"method": "rhf"
			},
			{
				"type": "occ",
				"energy": -0.2675,
				"method": "rhf"
			},
			{
				"type": "occ",
				"energy": -0.25582,
				"method": "rhf"
			},
			{
				"type": "occ",
				"energy": -0.24306,
				"method": "rhf"
			},
			{
				"type": "unocc",
				"energy": -0.05175,
				"method": "rhf"
			},
			{
				"type": "unocc",
				"energy": -0.03883,
				"method": "rhf"
			},
			{
				"type": "unocc",
				"energy": -0.03039,
				"method": "rhf"
			},
			{
				"type": "unocc",
				"energy": 0.01125,
				"method": "rhf"
			},
			{
				"type": "unocc",
				"energy": 0.0466,
				"method": "rhf"
			}
		],
		"cosmo_sigma_profile": { 
			"-0.025": 0.0,
			"-0.024": 0.0,
			"-0.023": 0.0,
			"-0.022": 0.0,
			"-0.021": 0.0,
			"-0.02": 0.0,
			"-0.019": 0.0,
			"-0.018": 0.0,
			"-0.017": 0.0,
			"-0.016": 0.0,
			"-0.015": 0.282448850851,
			"-0.014": 1.20816350294,
			"-0.013": 1.40989539344,
			"-0.012": 0.990499944422,
			"-0.011": 1.11701805879,
			"-0.01": 1.43729202821,
			"-0.009": 2.27524299022,
			"-0.008": 6.83588180926,
			"-0.007": 15.2556198115,
			"-0.006": 26.5986522479,
			"-0.005": 30.9569145597,
			"-0.004": 32.0817590931,
			"-0.003": 25.011531705,
			"-0.002": 19.7749857696,
			"-0.001": 16.0728834661,
			"0.0": 11.5550887465,
			"0.001": 15.9122861578,
			"0.002": 17.7668187744,
			"0.003": 9.76485866688,
			"0.004": 6.74186485332,
			"0.005": 6.18129953507,
			"0.006": 6.26980573973,
			"0.007": 7.82637817537,
			"0.008": 5.08164061586,
			"0.009": 6.41810935815,
			"0.01": 9.76765298925,
			"0.011": 13.9125897374,
			"0.012": 11.2058376737,
			"0.013": 7.02250379548,
			"0.014": 1.85099066099,
			"0.015": 0.0454161840499,
			"0.016": 0.0,
			"0.017": 0.0,
			"0.018": 0.0,
			"0.019": 0.0,
			"0.02": 0.0,
			"0.021": 0.0,
			"0.022": 0.0,
			"0.023": 0.0,
			"0.024": 0.0,
			"0.025": 0.0
		}
	}
}
