{
	 "smiles": "CC1=CNN=C1[N+]([O-])=O", 
	 "Tm": 457.15, 
	 "num_atms": 14, 
	 "gaussian": { 
		 "optdone": 1, 
		 "sigma_profile": "yes", 
		 "theory": "DFT", 
		 "functional": "B3LYP", 
		 "basiset": "6-31G**", 
		 "properties": { 
			 "R2extent": 1184.9913, 
			 "electric_dipole_moment_norm": 6.35734752, 
			 "electric_quadrupole_moment_norm": 8.73890336942, 
			 "total_energy": -470.013658613, 
			 "HOMO_LUMO_gap": 0.19324, 
			 "cosmo_polarized_energy": -15.86, 
			 "cosmo_cavitation_energy": 19.03, 
			 "cosmo_dispersion_energy": -14.24, 
			 "cosmo_repulsion_energy": 1.19, 
			 "cosmo_total_nonelectrostatic_energy": 5.97, 
			 "SMD_solvation_energy": 5.19 
		},
		"coords": [
			{
				"x": -1.3925813009,
				"y": 0.1582666439,
				"z": 1.3254909218,
				"element": "C" 
			},
			{
				"x": -0.0719054951,
				"y": -0.0920223712,
				"z": 0.6663826121,
				"element": "C" 
			},
			{
				"x": 0.818420917,
				"y": -1.1180557175,
				"z": 0.9227028678,
				"element": "C" 
			},
			{
				"x": 1.8818128081,
				"y": -0.9445066073,
				"z": 0.0854990555,
				"element": "N" 
			},
			{
				"x": 1.7687501873,
				"y": 0.1194721214,
				"z": -0.7101271391,
				"element": "N" 
			},
			{
				"x": 0.5918775872,
				"y": 0.6332626933,
				"z": -0.3605232854,
				"element": "C" 
			},
			{
				"x": 0.1176518755,
				"y": 1.8284160498,
				"z": -1.0271401168,
				"element": "N" 
			},
			{
				"x": -0.9820665893,
				"y": 2.2550514562,
				"z": -0.6572250396,
				"element": "O" 
			},
			{
				"x": 0.818568132,
				"y": 2.3320874732,
				"z": -1.89714426,
				"element": "O" 
			},
			{
				"x": -2.2055422557,
				"y": 0.1517340934,
				"z": 0.5944449309,
				"element": "H" 
			},
			{
				"x": -1.41410633,
				"y": 1.1407523302,
				"z": 1.8046969993,
				"element": "H" 
			},
			{
				"x": -1.5932250637,
				"y": -0.60596291,
				"z": 2.0812137144,
				"element": "H" 
			},
			{
				"x": 0.7700520773,
				"y": -1.9380148261,
				"z": 1.6244737087,
				"element": "H" 
			},
			{
				"x": 2.7098934502,
				"y": -1.5169804292,
				"z": 0.0118550303,
				"element": "H" 
			}
		],
		 "valence_orbital": [ 
			{
				"type": "occ",
				"energy": -0.30132,
				"method": "rhf"
			},
			{
				"type": "occ",
				"energy": -0.29952,
				"method": "rhf"
			},
			{
				"type": "occ",
				"energy": -0.28903,
				"method": "rhf"
			},
			{
				"type": "occ",
				"energy": -0.28353,
				"method": "rhf"
			},
			{
				"type": "occ",
				"energy": -0.26959,
				"method": "rhf"
			},
			{
				"type": "unocc",
				"energy": -0.07635,
				"method": "rhf"
			},
			{
				"type": "unocc",
				"energy": 0.00084,
				"method": "rhf"
			},
			{
				"type": "unocc",
				"energy": 0.05497,
				"method": "rhf"
			},
			{
				"type": "unocc",
				"energy": 0.06253,
				"method": "rhf"
			},
			{
				"type": "unocc",
				"energy": 0.10297,
				"method": "rhf"
			}
		],
		"cosmo_sigma_profile": { 
			"-0.025": 0.0,
			"-0.024": 0.0,
			"-0.023": 0.0,
			"-0.022": 0.0,
			"-0.021": 0.0,
			"-0.02": 0.0,
			"-0.019": 0.0460571250533,
			"-0.018": 1.78766149917,
			"-0.017": 1.84839912247,
			"-0.016": 1.42715158007,
			"-0.015": 0.679919440052,
			"-0.014": 0.775450076636,
			"-0.013": 1.5136811637,
			"-0.012": 1.23822775063,
			"-0.011": 0.857896775261,
			"-0.01": 3.14799325501,
			"-0.009": 2.96590153099,
			"-0.008": 2.23442659004,
			"-0.007": 2.76085771811,
			"-0.006": 3.54708374596,
			"-0.005": 7.03590648441,
			"-0.004": 8.32801392271,
			"-0.003": 9.382498681,
			"-0.002": 10.1246504426,
			"-0.001": 14.2006208222,
			"0.0": 14.1859986448,
			"0.001": 8.78361546265,
			"0.002": 6.04140859017,
			"0.003": 3.77515367136,
			"0.004": 2.94121912994,
			"0.005": 3.55057819058,
			"0.006": 4.51307394187,
			"0.007": 6.38967357059,
			"0.008": 9.82124803611,
			"0.009": 6.39860508729,
			"0.01": 5.11314570711,
			"0.011": 2.25759664817,
			"0.012": 1.1541791025,
			"0.013": 1.5795337148,
			"0.014": 1.24206962419,
			"0.015": 0.20512085386,
			"0.016": 0.0,
			"0.017": 0.0,
			"0.018": 0.0,
			"0.019": 0.0,
			"0.02": 0.0,
			"0.021": 0.0,
			"0.022": 0.0,
			"0.023": 0.0,
			"0.024": 0.0,
			"0.025": 0.0
		}
	}
}
