{
	 "smiles": "O=CC1=CN=C2C=CC=CN12", 
	 "Tm": 392.15, 
	 "num_atms": 17, 
	 "gaussian": { 
		 "optdone": 1, 
		 "sigma_profile": "yes", 
		 "theory": "DFT", 
		 "functional": "B3LYP", 
		 "basiset": "6-31G**", 
		 "properties": { 
			 "R2extent": 1630.9811, 
			 "electric_dipole_moment_norm": 2.12049869135, 
			 "electric_quadrupole_moment_norm": 13.2604495041, 
			 "total_energy": -493.183814175, 
			 "HOMO_LUMO_gap": 0.16909, 
			 "cosmo_polarized_energy": -10.16, 
			 "cosmo_cavitation_energy": 21.53, 
			 "cosmo_dispersion_energy": -16.16, 
			 "cosmo_repulsion_energy": 1.26, 
			 "cosmo_total_nonelectrostatic_energy": 6.63, 
			 "SMD_solvation_energy": 3.28 
		},
		"coords": [
			{
				"x": 1.3558229206,
				"y": 2.7142961427,
				"z": -1.686529106,
				"element": "O" 
			},
			{
				"x": 1.6589645309,
				"y": 1.605572074,
				"z": -2.1202427528,
				"element": "C" 
			},
			{
				"x": 1.1418206709,
				"y": 0.3524387968,
				"z": -1.6387594712,
				"element": "C" 
			},
			{
				"x": 1.4032810938,
				"y": -0.961778245,
				"z": -2.0426851203,
				"element": "C" 
			},
			{
				"x": 0.7113844185,
				"y": -1.8717350182,
				"z": -1.3357638941,
				"element": "N" 
			},
			{
				"x": -0.013937779,
				"y": -1.1548909652,
				"z": -0.4566637298,
				"element": "C" 
			},
			{
				"x": -0.92060361,
				"y": -1.5825932698,
				"z": 0.5328455386,
				"element": "C" 
			},
			{
				"x": -1.5477642357,
				"y": -0.641304037,
				"z": 1.3196072539,
				"element": "C" 
			},
			{
				"x": -1.2847183956,
				"y": 0.7412531257,
				"z": 1.13669668,
				"element": "C" 
			},
			{
				"x": -0.4031066214,
				"y": 1.1609535357,
				"z": 0.1748960542,
				"element": "C" 
			},
			{
				"x": 0.2162007612,
				"y": 0.2168189723,
				"z": -0.6033977138,
				"element": "N" 
			},
			{
				"x": 2.3861811009,
				"y": 1.4966657647,
				"z": -2.9516323228,
				"element": "H" 
			},
			{
				"x": 2.0816801593,
				"y": -1.258001106,
				"z": -2.8340725881,
				"element": "H" 
			},
			{
				"x": -1.0950849198,
				"y": -2.6463094303,
				"z": 0.6421306922,
				"element": "H" 
			},
			{
				"x": -2.2488548779,
				"y": -0.9552668835,
				"z": 2.086117748,
				"element": "H" 
			},
			{
				"x": -1.7767160106,
				"y": 1.4835827491,
				"z": 1.7543001051,
				"element": "H" 
			},
			{
				"x": -0.1380492064,
				"y": 2.1872977941,
				"z": -0.0396473732,
				"element": "H" 
			}
		],
		 "valence_orbital": [ 
			{
				"type": "occ",
				"energy": -0.33073,
				"method": "rhf"
			},
			{
				"type": "occ",
				"energy": -0.28753,
				"method": "rhf"
			},
			{
				"type": "occ",
				"energy": -0.26318,
				"method": "rhf"
			},
			{
				"type": "occ",
				"energy": -0.25577,
				"method": "rhf"
			},
			{
				"type": "occ",
				"energy": -0.22867,
				"method": "rhf"
			},
			{
				"type": "unocc",
				"energy": -0.05958,
				"method": "rhf"
			},
			{
				"type": "unocc",
				"energy": -0.04278,
				"method": "rhf"
			},
			{
				"type": "unocc",
				"energy": 0.01217,
				"method": "rhf"
			},
			{
				"type": "unocc",
				"energy": 0.0837,
				"method": "rhf"
			},
			{
				"type": "unocc",
				"energy": 0.09573,
				"method": "rhf"
			}
		],
		"cosmo_sigma_profile": { 
			"-0.025": 0.0,
			"-0.024": 0.0,
			"-0.023": 0.0,
			"-0.022": 0.0,
			"-0.021": 0.0,
			"-0.02": 0.0,
			"-0.019": 0.0,
			"-0.018": 0.0,
			"-0.017": 0.0,
			"-0.016": 0.0,
			"-0.015": 0.0,
			"-0.014": 0.0,
			"-0.013": 0.0,
			"-0.012": 0.0,
			"-0.011": 0.0,
			"-0.01": 0.0,
			"-0.009": 0.592627883976,
			"-0.008": 7.11830920983,
			"-0.007": 12.4528244294,
			"-0.006": 12.4988230564,
			"-0.005": 9.66078975588,
			"-0.004": 8.21955301614,
			"-0.003": 8.62881463677,
			"-0.002": 15.4975238119,
			"-0.001": 16.3137768475,
			"0.0": 14.4982437212,
			"0.001": 16.9246177095,
			"0.002": 12.5844854579,
			"0.003": 4.07885209206,
			"0.004": 3.98952484913,
			"0.005": 3.51671707833,
			"0.006": 2.76371289195,
			"0.007": 2.37918591509,
			"0.008": 3.19227056731,
			"0.009": 2.56816770376,
			"0.01": 2.61834980091,
			"0.011": 3.92672135691,
			"0.012": 3.56553244878,
			"0.013": 3.16772728537,
			"0.014": 1.20760975224,
			"0.015": 0.911842131244,
			"0.016": 1.14059276309,
			"0.017": 0.369172083428,
			"0.018": 0.0,
			"0.019": 0.0,
			"0.02": 0.0,
			"0.021": 0.0,
			"0.022": 0.0,
			"0.023": 0.0,
			"0.024": 0.0,
			"0.025": 0.0
		}
	}
}
