{
	 "smiles": "CC1=C(N)C=CC(CN2CCSCC2)=C1", 
	 "Tm": 380.15, 
	 "num_atms": 33, 
	 "gaussian": { 
		 "optdone": 1, 
		 "sigma_profile": "yes", 
		 "theory": "DFT", 
		 "functional": "B3LYP", 
		 "basiset": "6-31G**", 
		 "properties": { 
			 "R2extent": 5140.1417, 
			 "electric_dipole_moment_norm": 2.67061978013, 
			 "electric_quadrupole_moment_norm": 19.5459393855, 
			 "total_energy": -975.820749085, 
			 "HOMO_LUMO_gap": 0.20354, 
			 "cosmo_polarized_energy": -11.63, 
			 "cosmo_cavitation_energy": 35.0, 
			 "cosmo_dispersion_energy": -25.63, 
			 "cosmo_repulsion_energy": 1.96, 
			 "cosmo_total_nonelectrostatic_energy": 11.34, 
			 "SMD_solvation_energy": 3.39 
		},
		"coords": [
			{
				"x": -4.2195565084,
				"y": 1.0712188566,
				"z": 1.2314106586,
				"element": "C" 
			},
			{
				"x": -3.1017455068,
				"y": 0.0596092694,
				"z": 1.1677255037,
				"element": "C" 
			},
			{
				"x": -3.3519897347,
				"y": -1.2960642181,
				"z": 1.4898184127,
				"element": "C" 
			},
			{
				"x": -4.6245344127,
				"y": -1.6960131951,
				"z": 1.9144011223,
				"element": "N" 
			},
			{
				"x": -2.2968833697,
				"y": -2.2172740751,
				"z": 1.433781518,
				"element": "C" 
			},
			{
				"x": -1.0144903442,
				"y": -1.8111528584,
				"z": 1.0691992796,
				"element": "C" 
			},
			{
				"x": -0.7465259608,
				"y": -0.4780003302,
				"z": 0.7502683701,
				"element": "C" 
			},
			{
				"x": 0.6561552466,
				"y": -0.016529542,
				"z": 0.4028407179,
				"element": "C" 
			},
			{
				"x": 0.6947032023,
				"y": 0.8450550076,
				"z": -0.7837097318,
				"element": "N" 
			},
			{
				"x": 0.3226893892,
				"y": 0.1820682841,
				"z": -2.0354234128,
				"element": "C" 
			},
			{
				"x": 1.371390287,
				"y": -0.7883235643,
				"z": -2.6025253799,
				"element": "C" 
			},
			{
				"x": 2.9770082047,
				"y": 0.0413600924,
				"z": -2.9445805773,
				"element": "S" 
			},
			{
				"x": 3.1758547473,
				"y": 0.876969389,
				"z": -1.3193808518,
				"element": "C" 
			},
			{
				"x": 1.9092785342,
				"y": 1.64814395,
				"z": -0.9122687826,
				"element": "C" 
			},
			{
				"x": -1.8086668836,
				"y": 0.4348818678,
				"z": 0.8052790247,
				"element": "C" 
			},
			{
				"x": -4.6852090658,
				"y": 1.0936084993,
				"z": 2.2247066401,
				"element": "H" 
			},
			{
				"x": -3.852139783,
				"y": 2.0758099826,
				"z": 1.0081144594,
				"element": "H" 
			},
			{
				"x": -5.0187071497,
				"y": 0.8513853868,
				"z": 0.5083310508,
				"element": "H" 
			},
			{
				"x": -4.7909692188,
				"y": -2.6917351283,
				"z": 1.8584183027,
				"element": "H" 
			},
			{
				"x": -5.3953162307,
				"y": -1.1702466959,
				"z": 1.5256481033,
				"element": "H" 
			},
			{
				"x": -2.487340154,
				"y": -3.2605562598,
				"z": 1.6759885177,
				"element": "H" 
			},
			{
				"x": -0.2139529165,
				"y": -2.5467420255,
				"z": 1.0315855676,
				"element": "H" 
			},
			{
				"x": 1.0585735875,
				"y": 0.5822170216,
				"z": 1.2317144154,
				"element": "H" 
			},
			{
				"x": 1.3096106662,
				"y": -0.9049388146,
				"z": 0.3315116587,
				"element": "H" 
			},
			{
				"x": -0.6132511507,
				"y": -0.3611889485,
				"z": -1.8641937748,
				"element": "H" 
			},
			{
				"x": 0.122730511,
				"y": 0.9599688102,
				"z": -2.782657606,
				"element": "H" 
			},
			{
				"x": 1.0355228594,
				"y": -1.1929691364,
				"z": -3.5619166392,
				"element": "H" 
			},
			{
				"x": 1.5379726853,
				"y": -1.6344968488,
				"z": -1.927687459,
				"element": "H" 
			},
			{
				"x": 3.4523849643,
				"y": 0.137442393,
				"z": -0.5600882705,
				"element": "H" 
			},
			{
				"x": 4.0201496011,
				"y": 1.5628095205,
				"z": -1.4379512673,
				"element": "H" 
			},
			{
				"x": 1.7207382579,
				"y": 2.4276826637,
				"z": -1.6612280234,
				"element": "H" 
			},
			{
				"x": 2.0895649636,
				"y": 2.1500916769,
				"z": 0.04732948,
				"element": "H" 
			},
			{
				"x": -1.6133493176,
				"y": 1.4717089693,
				"z": 0.5431389729,
				"element": "H" 
			}
		],
		 "valence_orbital": [ 
			{
				"type": "occ",
				"energy": -0.29469,
				"method": "rhf"
			},
			{
				"type": "occ",
				"energy": -0.236,
				"method": "rhf"
			},
			{
				"type": "occ",
				"energy": -0.22668,
				"method": "rhf"
			},
			{
				"type": "occ",
				"energy": -0.19679,
				"method": "rhf"
			},
			{
				"type": "occ",
				"energy": -0.19481,
				"method": "rhf"
			},
			{
				"type": "unocc",
				"energy": 0.00873,
				"method": "rhf"
			},
			{
				"type": "unocc",
				"energy": 0.01797,
				"method": "rhf"
			},
			{
				"type": "unocc",
				"energy": 0.04454,
				"method": "rhf"
			},
			{
				"type": "unocc",
				"energy": 0.07719,
				"method": "rhf"
			},
			{
				"type": "unocc",
				"energy": 0.08075,
				"method": "rhf"
			}
		],
		"cosmo_sigma_profile": { 
			"-0.025": 0.0,
			"-0.024": 0.0,
			"-0.023": 0.0,
			"-0.022": 0.0,
			"-0.021": 0.0,
			"-0.02": 0.0,
			"-0.019": 0.0,
			"-0.018": 0.0,
			"-0.017": 0.0,
			"-0.016": 0.0,
			"-0.015": 0.0,
			"-0.014": 0.0,
			"-0.013": 0.0,
			"-0.012": 0.929137620062,
			"-0.011": 2.28862804579,
			"-0.01": 2.68948393571,
			"-0.009": 2.91721943509,
			"-0.008": 3.84512302044,
			"-0.007": 2.20504546069,
			"-0.006": 5.1901942852,
			"-0.005": 10.3190573379,
			"-0.004": 28.5935569683,
			"-0.003": 34.860332425,
			"-0.002": 31.3556273763,
			"-0.001": 24.7092686465,
			"0.0": 21.3972120717,
			"0.001": 14.6894266169,
			"0.002": 12.2560478904,
			"0.003": 10.8135577132,
			"0.004": 11.5333864583,
			"0.005": 11.7352556231,
			"0.006": 11.5327050275,
			"0.007": 11.9852308115,
			"0.008": 5.37345425533,
			"0.009": 3.9319914915,
			"0.01": 3.59011396622,
			"0.011": 3.50117009809,
			"0.012": 1.30002106314,
			"0.013": 0.599496867427,
			"0.014": 0.656231143748,
			"0.015": 0.416519588516,
			"0.016": 0.0082064213595,
			"0.017": 0.0,
			"0.018": 0.0,
			"0.019": 0.0,
			"0.02": 0.0,
			"0.021": 0.0,
			"0.022": 0.0,
			"0.023": 0.0,
			"0.024": 0.0,
			"0.025": 0.0
		}
	}
}
