{
	 "smiles": "COC1=CC=C(C=C1)C(Cl)=O", 
	 "Tm": 297.65, 
	 "num_atms": 18, 
	 "gaussian": { 
		 "optdone": 1, 
		 "sigma_profile": "yes", 
		 "theory": "DFT", 
		 "functional": "B3LYP", 
		 "basiset": "6-31G**", 
		 "properties": { 
			 "R2extent": 3960.6294, 
			 "electric_dipole_moment_norm": 5.69601506055, 
			 "electric_quadrupole_moment_norm": 14.0955726067, 
			 "total_energy": -919.709201836, 
			 "HOMO_LUMO_gap": 0.17997, 
			 "cosmo_polarized_energy": -8.37, 
			 "cosmo_cavitation_energy": 24.34, 
			 "cosmo_dispersion_energy": -18.19, 
			 "cosmo_repulsion_energy": 1.46, 
			 "cosmo_total_nonelectrostatic_energy": 7.61, 
			 "SMD_solvation_energy": 5.66 
		},
		"coords": [
			{
				"x": 2.3384054448,
				"y": -1.3375643951,
				"z": -0.5539198334,
				"element": "C" 
			},
			{
				"x": 1.0783068706,
				"y": -2.0000503746,
				"z": -0.5673061016,
				"element": "O" 
			},
			{
				"x": -0.0491027368,
				"y": -1.2568634752,
				"z": -0.6600558892,
				"element": "C" 
			},
			{
				"x": -1.2555406949,
				"y": -1.980215276,
				"z": -0.6675575761,
				"element": "C" 
			},
			{
				"x": -2.4669194686,
				"y": -1.3177339678,
				"z": -0.759010776,
				"element": "C" 
			},
			{
				"x": -2.5050497304,
				"y": 0.0861969729,
				"z": -0.845480544,
				"element": "C" 
			},
			{
				"x": -1.2952508286,
				"y": 0.8013633196,
				"z": -0.8374000231,
				"element": "C" 
			},
			{
				"x": -0.0743693131,
				"y": 0.1450981812,
				"z": -0.7458416775,
				"element": "C" 
			},
			{
				"x": -3.7378711611,
				"y": 0.8845267386,
				"z": -0.946213544,
				"element": "C" 
			},
			{
				"x": -5.3002698424,
				"y": -0.0917959139,
				"z": -0.9528554055,
				"element": "Cl" 
			},
			{
				"x": -3.8140697837,
				"y": 2.0750441024,
				"z": -1.0224077959,
				"element": "O" 
			},
			{
				"x": 2.4277049389,
				"y": -0.6636010629,
				"z": 0.3064339897,
				"element": "H" 
			},
			{
				"x": 2.5033468948,
				"y": -0.7714198312,
				"z": -1.47841201,
				"element": "H" 
			},
			{
				"x": 3.0879164279,
				"y": -2.1254340481,
				"z": -0.4745595467,
				"element": "H" 
			},
			{
				"x": -1.2085127777,
				"y": -3.0616618351,
				"z": -0.6002025276,
				"element": "H" 
			},
			{
				"x": -3.3913991369,
				"y": -1.8820868798,
				"z": -0.7641243823,
				"element": "H" 
			},
			{
				"x": -1.3293885631,
				"y": 1.8833517158,
				"z": -0.9042742561,
				"element": "H" 
			},
			{
				"x": 0.8423634602,
				"y": 0.7218460292,
				"z": -0.7417121006,
				"element": "H" 
			}
		],
		 "valence_orbital": [ 
			{
				"type": "occ",
				"energy": -0.31204,
				"method": "rhf"
			},
			{
				"type": "occ",
				"energy": -0.31115,
				"method": "rhf"
			},
			{
				"type": "occ",
				"energy": -0.28544,
				"method": "rhf"
			},
			{
				"type": "occ",
				"energy": -0.27572,
				"method": "rhf"
			},
			{
				"type": "occ",
				"energy": -0.24606,
				"method": "rhf"
			},
			{
				"type": "unocc",
				"energy": -0.06609,
				"method": "rhf"
			},
			{
				"type": "unocc",
				"energy": -0.02228,
				"method": "rhf"
			},
			{
				"type": "unocc",
				"energy": 0.02464,
				"method": "rhf"
			},
			{
				"type": "unocc",
				"energy": 0.03882,
				"method": "rhf"
			},
			{
				"type": "unocc",
				"energy": 0.08179,
				"method": "rhf"
			}
		],
		"cosmo_sigma_profile": { 
			"-0.025": 0.0,
			"-0.024": 0.0,
			"-0.023": 0.0,
			"-0.022": 0.0,
			"-0.021": 0.0,
			"-0.02": 0.0,
			"-0.019": 0.0,
			"-0.018": 0.0,
			"-0.017": 0.0,
			"-0.016": 0.0,
			"-0.015": 0.0,
			"-0.014": 0.0,
			"-0.013": 0.0,
			"-0.012": 0.0,
			"-0.011": 0.0,
			"-0.01": 0.0,
			"-0.009": 0.0,
			"-0.008": 1.18691318458,
			"-0.007": 7.56540341173,
			"-0.006": 15.2213866802,
			"-0.005": 14.1422837587,
			"-0.004": 13.5142719743,
			"-0.003": 13.3591310251,
			"-0.002": 11.2960559898,
			"-0.001": 13.265998919,
			"0.0": 15.2241570341,
			"0.001": 16.7912299785,
			"0.002": 21.081745085,
			"0.003": 14.4577309811,
			"0.004": 8.91511015459,
			"0.005": 10.2341398871,
			"0.006": 5.32694236153,
			"0.007": 4.23091891868,
			"0.008": 4.45298663726,
			"0.009": 5.49938549472,
			"0.01": 1.65838518233,
			"0.011": 0.0184106087316,
			"0.012": 0.0,
			"0.013": 0.0,
			"0.014": 0.0,
			"0.015": 0.0,
			"0.016": 0.0,
			"0.017": 0.0,
			"0.018": 0.0,
			"0.019": 0.0,
			"0.02": 0.0,
			"0.021": 0.0,
			"0.022": 0.0,
			"0.023": 0.0,
			"0.024": 0.0,
			"0.025": 0.0
		}
	}
}
