{
	 "smiles": "CC1=C(NC(=O)C2=CC=CC=C2)C=CC=C1", 
	 "Tm": 419.15, 
	 "num_atms": 29, 
	 "gaussian": { 
		 "optdone": 1, 
		 "sigma_profile": "yes", 
		 "theory": "DFT", 
		 "functional": "B3LYP", 
		 "basiset": "6-31G**", 
		 "properties": { 
			 "R2extent": 4156.0434, 
			 "electric_dipole_moment_norm": 3.09657274579, 
			 "electric_quadrupole_moment_norm": 14.0721538163, 
			 "total_energy": -671.321518361, 
			 "HOMO_LUMO_gap": 0.18501, 
			 "cosmo_polarized_energy": -11.22, 
			 "cosmo_cavitation_energy": 32.64, 
			 "cosmo_dispersion_energy": -22.85, 
			 "cosmo_repulsion_energy": 1.79, 
			 "cosmo_total_nonelectrostatic_energy": 11.58, 
			 "SMD_solvation_energy": 6.27 
		},
		"coords": [
			{
				"x": 0.1394676683,
				"y": 2.5200341252,
				"z": 0.7289901842,
				"element": "C" 
			},
			{
				"x": -0.2585815621,
				"y": 1.2442627139,
				"z": 1.4304362896,
				"element": "C" 
			},
			{
				"x": 0.3155453606,
				"y": 0.0084365506,
				"z": 1.0635245946,
				"element": "C" 
			},
			{
				"x": 1.3000884391,
				"y": 0.0024263902,
				"z": 0.0399141673,
				"element": "N" 
			},
			{
				"x": 1.6577258374,
				"y": -0.9824914502,
				"z": -0.868536042,
				"element": "C" 
			},
			{
				"x": 2.7915029276,
				"y": -0.9872080792,
				"z": -1.3366604498,
				"element": "O" 
			},
			{
				"x": 0.6297573827,
				"y": -1.9744434011,
				"z": -1.3265242374,
				"element": "C" 
			},
			{
				"x": -0.7356094231,
				"y": -1.6731370678,
				"z": -1.4330484799,
				"element": "C" 
			},
			{
				"x": -1.6214409305,
				"y": -2.6150219472,
				"z": -1.9554521534,
				"element": "C" 
			},
			{
				"x": -1.1551197958,
				"y": -3.866277651,
				"z": -2.3646592315,
				"element": "C" 
			},
			{
				"x": 0.2055652659,
				"y": -4.1685557803,
				"z": -2.2684633606,
				"element": "C" 
			},
			{
				"x": 1.0952238275,
				"y": -3.2221862493,
				"z": -1.7649131091,
				"element": "C" 
			},
			{
				"x": -0.0489402965,
				"y": -1.1666068012,
				"z": 1.7340863268,
				"element": "C" 
			},
			{
				"x": -1.0073492365,
				"y": -1.1313903577,
				"z": 2.7445914228,
				"element": "C" 
			},
			{
				"x": -1.5867320198,
				"y": 0.0823563385,
				"z": 3.1148441976,
				"element": "C" 
			},
			{
				"x": -1.2028814189,
				"y": 1.2543168194,
				"z": 2.463117327,
				"element": "C" 
			},
			{
				"x": 1.1680455864,
				"y": 2.8198303006,
				"z": 0.9723279987,
				"element": "H" 
			},
			{
				"x": 0.0907816517,
				"y": 2.4107521113,
				"z": -0.3597860901,
				"element": "H" 
			},
			{
				"x": -0.5136933501,
				"y": 3.3457345436,
				"z": 1.0219805826,
				"element": "H" 
			},
			{
				"x": 2.0433150916,
				"y": 0.6861241604,
				"z": 0.1302785334,
				"element": "H" 
			},
			{
				"x": -1.1040649965,
				"y": -0.7020570806,
				"z": -1.1212603172,
				"element": "H" 
			},
			{
				"x": -2.6759805945,
				"y": -2.3708599386,
				"z": -2.0446419483,
				"element": "H" 
			},
			{
				"x": -1.8489219228,
				"y": -4.6005077092,
				"z": -2.7643258546,
				"element": "H" 
			},
			{
				"x": 0.5731781621,
				"y": -5.1371153365,
				"z": -2.5947005243,
				"element": "H" 
			},
			{
				"x": 2.1593995289,
				"y": -3.4258265556,
				"z": -1.7108005624,
				"element": "H" 
			},
			{
				"x": 0.4228920143,
				"y": -2.1041187723,
				"z": 1.4617938974,
				"element": "H" 
			},
			{
				"x": -1.2855717852,
				"y": -2.0507184978,
				"z": 3.2513198238,
				"element": "H" 
			},
			{
				"x": -2.3282547314,
				"y": 0.1185263141,
				"z": 3.907240418,
				"element": "H" 
			},
			{
				"x": -1.6502466803,
				"y": 2.2022223076,
				"z": 2.7514265968,
				"element": "H" 
			}
		],
		 "valence_orbital": [ 
			{
				"type": "occ",
				"energy": -0.26314,
				"method": "rhf"
			},
			{
				"type": "occ",
				"energy": -0.25819,
				"method": "rhf"
			},
			{
				"type": "occ",
				"energy": -0.24755,
				"method": "rhf"
			},
			{
				"type": "occ",
				"energy": -0.2451,
				"method": "rhf"
			},
			{
				"type": "occ",
				"energy": -0.22415,
				"method": "rhf"
			},
			{
				"type": "unocc",
				"energy": -0.03914,
				"method": "rhf"
			},
			{
				"type": "unocc",
				"energy": -0.01053,
				"method": "rhf"
			},
			{
				"type": "unocc",
				"energy": -0.00314,
				"method": "rhf"
			},
			{
				"type": "unocc",
				"energy": 0.00229,
				"method": "rhf"
			},
			{
				"type": "unocc",
				"energy": 0.0573,
				"method": "rhf"
			}
		],
		"cosmo_sigma_profile": { 
			"-0.025": 0.0,
			"-0.024": 0.0,
			"-0.023": 0.0,
			"-0.022": 0.0,
			"-0.021": 0.0,
			"-0.02": 0.0,
			"-0.019": 0.0,
			"-0.018": 0.0,
			"-0.017": 0.0,
			"-0.016": 0.0,
			"-0.015": 0.0,
			"-0.014": 0.0191186793694,
			"-0.013": 0.55712266707,
			"-0.012": 1.22227296911,
			"-0.011": 0.980952826974,
			"-0.01": 1.3155782535,
			"-0.009": 1.18576148424,
			"-0.008": 1.10554740811,
			"-0.007": 1.4648329644,
			"-0.006": 11.5863745005,
			"-0.005": 21.9645761815,
			"-0.004": 25.6410714327,
			"-0.003": 21.3976618427,
			"-0.002": 21.6422007383,
			"-0.001": 21.6901004623,
			"0.0": 20.8817851806,
			"0.001": 17.4127866072,
			"0.002": 14.729169956,
			"0.003": 16.3007757311,
			"0.004": 21.225488603,
			"0.005": 14.3404782845,
			"0.006": 5.98643645076,
			"0.007": 1.67250542413,
			"0.008": 1.98010691428,
			"0.009": 1.22198013619,
			"0.01": 1.27143310757,
			"0.011": 1.3503806974,
			"0.012": 2.96723145334,
			"0.013": 5.22408237596,
			"0.014": 1.99433600895,
			"0.015": 0.0149232352486,
			"0.016": 0.0,
			"0.017": 0.0,
			"0.018": 0.0,
			"0.019": 0.0,
			"0.02": 0.0,
			"0.021": 0.0,
			"0.022": 0.0,
			"0.023": 0.0,
			"0.024": 0.0,
			"0.025": 0.0
		}
	}
}
