{
	 "smiles": "O=CC1=NC(=CN1)C1=CC=CC=C1", 
	 "Tm": 444.15, 
	 "num_atms": 21, 
	 "gaussian": { 
		 "optdone": 1, 
		 "sigma_profile": "yes", 
		 "theory": "DFT", 
		 "functional": "B3LYP", 
		 "basiset": "6-31G**", 
		 "properties": { 
			 "R2extent": 3055.3334, 
			 "electric_dipole_moment_norm": 2.93544031791, 
			 "electric_quadrupole_moment_norm": 9.44920800702, 
			 "total_energy": -570.610297875, 
			 "HOMO_LUMO_gap": 0.15422, 
			 "cosmo_polarized_energy": -13.26, 
			 "cosmo_cavitation_energy": 26.18, 
			 "cosmo_dispersion_energy": -19.34, 
			 "cosmo_repulsion_energy": 1.51, 
			 "cosmo_total_nonelectrostatic_energy": 8.35, 
			 "SMD_solvation_energy": 4.16 
		},
		"coords": [
			{
				"x": -2.5777038246,
				"y": 0.0317447542,
				"z": -3.5412185157,
				"element": "O" 
			},
			{
				"x": -2.5105765342,
				"y": 0.2584939745,
				"z": -2.342270559,
				"element": "C" 
			},
			{
				"x": -1.2772337948,
				"y": 0.0945964922,
				"z": -1.5817852143,
				"element": "C" 
			},
			{
				"x": -1.0948759767,
				"y": 0.3111789652,
				"z": -0.2871952099,
				"element": "N" 
			},
			{
				"x": 0.2212175458,
				"y": 0.022151847,
				"z": -0.0358053863,
				"element": "C" 
			},
			{
				"x": 0.8413214814,
				"y": -0.3793493886,
				"z": -1.219824123,
				"element": "C" 
			},
			{
				"x": -0.120885387,
				"y": -0.3267116246,
				"z": -2.1819594504,
				"element": "N" 
			},
			{
				"x": 0.8031067924,
				"y": 0.1455880257,
				"z": 1.308779117,
				"element": "C" 
			},
			{
				"x": 2.1531488603,
				"y": -0.1529147407,
				"z": 1.5564797967,
				"element": "C" 
			},
			{
				"x": 2.6849983508,
				"y": -0.0294928571,
				"z": 2.8383679614,
				"element": "C" 
			},
			{
				"x": 1.8780050085,
				"y": 0.3944587361,
				"z": 3.896456979,
				"element": "C" 
			},
			{
				"x": 0.5344306996,
				"y": 0.6936436245,
				"z": 3.6599334757,
				"element": "C" 
			},
			{
				"x": -0.0001248992,
				"y": 0.571148809,
				"z": 2.3792647804,
				"element": "C" 
			},
			{
				"x": -3.3758539988,
				"y": 0.6038474393,
				"z": -1.7457127779,
				"element": "H" 
			},
			{
				"x": 1.8525107965,
				"y": -0.6853578491,
				"z": -1.4385201103,
				"element": "H" 
			},
			{
				"x": -0.0436192999,
				"y": -0.5470926181,
				"z": -3.1653272246,
				"element": "H" 
			},
			{
				"x": 2.7958248713,
				"y": -0.4840655152,
				"z": 0.7453864786,
				"element": "H" 
			},
			{
				"x": 3.7313832619,
				"y": -0.2647584566,
				"z": 3.0112652334,
				"element": "H" 
			},
			{
				"x": 2.29302381,
				"y": 0.4905231914,
				"z": 4.8955404582,
				"element": "H" 
			},
			{
				"x": -0.1006749351,
				"y": 1.0241424362,
				"z": 4.4770884488,
				"element": "H" 
			},
			{
				"x": -1.0424228281,
				"y": 0.8015247548,
				"z": 2.1874558421,
				"element": "H" 
			}
		],
		 "valence_orbital": [ 
			{
				"type": "occ",
				"energy": -0.29158,
				"method": "rhf"
			},
			{
				"type": "occ",
				"energy": -0.27394,
				"method": "rhf"
			},
			{
				"type": "occ",
				"energy": -0.26645,
				"method": "rhf"
			},
			{
				"type": "occ",
				"energy": -0.25054,
				"method": "rhf"
			},
			{
				"type": "occ",
				"energy": -0.21933,
				"method": "rhf"
			},
			{
				"type": "unocc",
				"energy": -0.06511,
				"method": "rhf"
			},
			{
				"type": "unocc",
				"energy": -0.02467,
				"method": "rhf"
			},
			{
				"type": "unocc",
				"energy": 0.00017,
				"method": "rhf"
			},
			{
				"type": "unocc",
				"energy": 0.06694,
				"method": "rhf"
			},
			{
				"type": "unocc",
				"energy": 0.07603,
				"method": "rhf"
			}
		],
		"cosmo_sigma_profile": { 
			"-0.025": 0.0,
			"-0.024": 0.0,
			"-0.023": 0.0,
			"-0.022": 0.0,
			"-0.021": 0.0,
			"-0.02": 0.0,
			"-0.019": 0.0,
			"-0.018": 0.060308204847,
			"-0.017": 1.02917180236,
			"-0.016": 0.93382328843,
			"-0.015": 0.974405501077,
			"-0.014": 0.754351644214,
			"-0.013": 1.21262172259,
			"-0.012": 1.08156016682,
			"-0.011": 0.785728787475,
			"-0.01": 3.06449368056,
			"-0.009": 3.95033797158,
			"-0.008": 3.31593230735,
			"-0.007": 5.29742966631,
			"-0.006": 8.21911785262,
			"-0.005": 13.117383364,
			"-0.004": 14.2989890351,
			"-0.003": 15.1475309556,
			"-0.002": 13.4851269099,
			"-0.001": 13.4377471049,
			"0.0": 11.5212886241,
			"0.001": 13.1491385529,
			"0.002": 12.5625323061,
			"0.003": 13.8101913394,
			"0.004": 13.702954065,
			"0.005": 14.0919702835,
			"0.006": 9.28079760901,
			"0.007": 3.31393632015,
			"0.008": 2.91975580048,
			"0.009": 3.40150785587,
			"0.01": 3.43720361635,
			"0.011": 4.74067445735,
			"0.012": 3.43214351464,
			"0.013": 1.19156617574,
			"0.014": 0.117857222701,
			"0.015": 0.0,
			"0.016": 0.0,
			"0.017": 0.0,
			"0.018": 0.0,
			"0.019": 0.0,
			"0.02": 0.0,
			"0.021": 0.0,
			"0.022": 0.0,
			"0.023": 0.0,
			"0.024": 0.0,
			"0.025": 0.0
		}
	}
}
