{
	 "smiles": "CC1=CC(=C(C)C=C1)S(N)(=O)=O", 
	 "Tm": 423.15, 
	 "num_atms": 23, 
	 "gaussian": { 
		 "optdone": 1, 
		 "sigma_profile": "yes", 
		 "theory": "DFT", 
		 "functional": "B3LYP", 
		 "basiset": "6-31G**", 
		 "properties": { 
			 "R2extent": 3073.9402, 
			 "electric_dipole_moment_norm": 3.78806641705, 
			 "electric_quadrupole_moment_norm": 15.3908761005, 
			 "total_energy": -914.813672976, 
			 "HOMO_LUMO_gap": 0.21318, 
			 "cosmo_polarized_energy": -13.96, 
			 "cosmo_cavitation_energy": 27.13, 
			 "cosmo_dispersion_energy": -20.51, 
			 "cosmo_repulsion_energy": 1.59, 
			 "cosmo_total_nonelectrostatic_energy": 8.21, 
			 "SMD_solvation_energy": 4.52 
		},
		"coords": [
			{
				"x": -0.9524387369,
				"y": -1.8991888738,
				"z": -1.7210950348,
				"element": "C" 
			},
			{
				"x": -1.3188232534,
				"y": -0.7760987726,
				"z": -0.7801460197,
				"element": "C" 
			},
			{
				"x": -0.329036242,
				"y": 0.003581151,
				"z": -0.1720547099,
				"element": "C" 
			},
			{
				"x": -0.6677971835,
				"y": 1.023859882,
				"z": 0.7184103546,
				"element": "C" 
			},
			{
				"x": -2.0062515929,
				"y": 1.3267312017,
				"z": 1.0399620346,
				"element": "C" 
			},
			{
				"x": -2.4144727966,
				"y": 2.4257589884,
				"z": 1.9889624765,
				"element": "C" 
			},
			{
				"x": -2.9805057861,
				"y": 0.5347709767,
				"z": 0.4207739953,
				"element": "C" 
			},
			{
				"x": -2.6510281063,
				"y": -0.4890426227,
				"z": -0.4670455206,
				"element": "C" 
			},
			{
				"x": 0.7045353329,
				"y": 1.9764613677,
				"z": 1.3833805605,
				"element": "S" 
			},
			{
				"x": 0.5960905741,
				"y": 1.6761479469,
				"z": 3.0539856502,
				"element": "N" 
			},
			{
				"x": 1.9459464478,
				"y": 1.3838306204,
				"z": 0.8714201011,
				"element": "O" 
			},
			{
				"x": 0.4388775097,
				"y": 3.4107544706,
				"z": 1.2293729915,
				"element": "O" 
			},
			{
				"x": -1.7431063423,
				"y": -2.0773855149,
				"z": -2.4558553513,
				"element": "H" 
			},
			{
				"x": -0.0279256817,
				"y": -1.6805156381,
				"z": -2.2632259834,
				"element": "H" 
			},
			{
				"x": -0.7958623232,
				"y": -2.8381653472,
				"z": -1.1756122572,
				"element": "H" 
			},
			{
				"x": 0.7196480418,
				"y": -0.1709902654,
				"z": -0.387774043,
				"element": "H" 
			},
			{
				"x": -2.0442247581,
				"y": 3.3977337783,
				"z": 1.6525411328,
				"element": "H" 
			},
			{
				"x": -1.9997545297,
				"y": 2.2518672717,
				"z": 2.9871453018,
				"element": "H" 
			},
			{
				"x": -3.503173211,
				"y": 2.4717110228,
				"z": 2.0704753982,
				"element": "H" 
			},
			{
				"x": -4.0263346942,
				"y": 0.7343192963,
				"z": 0.6385380071,
				"element": "H" 
			},
			{
				"x": -3.4466050563,
				"y": -1.0707850223,
				"z": -0.9262399495,
				"element": "H" 
			},
			{
				"x": 1.2539504135,
				"y": 0.9446610848,
				"z": 3.314148121,
				"element": "H" 
			},
			{
				"x": 0.8139919745,
				"y": 2.5436829978,
				"z": 3.5395327444,
				"element": "H" 
			}
		],
		 "valence_orbital": [ 
			{
				"type": "occ",
				"energy": -0.30692,
				"method": "rhf"
			},
			{
				"type": "occ",
				"energy": -0.30119,
				"method": "rhf"
			},
			{
				"type": "occ",
				"energy": -0.29408,
				"method": "rhf"
			},
			{
				"type": "occ",
				"energy": -0.26235,
				"method": "rhf"
			},
			{
				"type": "occ",
				"energy": -0.2464,
				"method": "rhf"
			},
			{
				"type": "unocc",
				"energy": -0.03322,
				"method": "rhf"
			},
			{
				"type": "unocc",
				"energy": -0.0101,
				"method": "rhf"
			},
			{
				"type": "unocc",
				"energy": 0.05777,
				"method": "rhf"
			},
			{
				"type": "unocc",
				"energy": 0.08509,
				"method": "rhf"
			},
			{
				"type": "unocc",
				"energy": 0.09115,
				"method": "rhf"
			}
		],
		"cosmo_sigma_profile": { 
			"-0.025": 0.0,
			"-0.024": 0.0,
			"-0.023": 0.0,
			"-0.022": 0.0,
			"-0.021": 0.0,
			"-0.02": 0.0,
			"-0.019": 0.0,
			"-0.018": 0.0,
			"-0.017": 0.0,
			"-0.016": 0.0,
			"-0.015": 0.806816137068,
			"-0.014": 2.75733583449,
			"-0.013": 2.3779771695,
			"-0.012": 3.12697011047,
			"-0.011": 1.77858520595,
			"-0.01": 1.75751151121,
			"-0.009": 1.96928803785,
			"-0.008": 1.41751855798,
			"-0.007": 1.94794378832,
			"-0.006": 6.94822640743,
			"-0.005": 12.4642978119,
			"-0.004": 15.1828187327,
			"-0.003": 14.6772237767,
			"-0.002": 17.1428498002,
			"-0.001": 21.8083799785,
			"0.0": 22.2861937647,
			"0.001": 11.903963604,
			"0.002": 11.5289595015,
			"0.003": 13.767292799,
			"0.004": 11.3523807042,
			"0.005": 3.43550351594,
			"0.006": 3.47398809768,
			"0.007": 3.33249929949,
			"0.008": 3.19518815573,
			"0.009": 5.04766222417,
			"0.01": 5.94902196255,
			"0.011": 8.38778836105,
			"0.012": 4.82987145462,
			"0.013": 0.0,
			"0.014": 0.0,
			"0.015": 0.0,
			"0.016": 0.0,
			"0.017": 0.0,
			"0.018": 0.0,
			"0.019": 0.0,
			"0.02": 0.0,
			"0.021": 0.0,
			"0.022": 0.0,
			"0.023": 0.0,
			"0.024": 0.0,
			"0.0": 0.0
		}
	}
}
