{
	 "smiles": "NC(=O)C1=CC(NCC2=CC=C(F)C=C2)=CC=C1", 
	 "Tm": 410.15, 
	 "num_atms": 31, 
	 "gaussian": { 
		 "optdone": 1, 
		 "sigma_profile": "yes", 
		 "theory": "DFT", 
		 "functional": "B3LYP", 
		 "basiset": "6-31G**", 
		 "properties": { 
			 "R2extent": 8115.0052, 
			 "electric_dipole_moment_norm": 3.49966850002, 
			 "electric_quadrupole_moment_norm": 28.0575832158, 
			 "total_energy": -825.906906608, 
			 "HOMO_LUMO_gap": 0.17374, 
			 "cosmo_polarized_energy": -17.68, 
			 "cosmo_cavitation_energy": 36.27, 
			 "cosmo_dispersion_energy": -25.9, 
			 "cosmo_repulsion_energy": 1.98, 
			 "cosmo_total_nonelectrostatic_energy": 12.35, 
			 "SMD_solvation_energy": 6.55 
		},
		"coords": [
			{
				"x": -0.4750501251,
				"y": 0.4285214123,
				"z": 4.9833050105,
				"element": "N" 
			},
			{
				"x": -1.8112060601,
				"y": 0.2937377894,
				"z": 4.6720882165,
				"element": "C" 
			},
			{
				"x": -2.6878634955,
				"y": 0.7387089695,
				"z": 5.4021415575,
				"element": "O" 
			},
			{
				"x": -2.1216692343,
				"y": -0.4080695809,
				"z": 3.3796968669,
				"element": "C" 
			},
			{
				"x": -1.1805420516,
				"y": -0.5202835067,
				"z": 2.3450661137,
				"element": "C" 
			},
			{
				"x": -1.5061786366,
				"y": -1.1876314523,
				"z": 1.1520687799,
				"element": "C" 
			},
			{
				"x": -0.5913747096,
				"y": -1.3549033643,
				"z": 0.1135395858,
				"element": "N" 
			},
			{
				"x": 0.643893886,
				"y": -0.5847960046,
				"z": 0.0482646742,
				"element": "C" 
			},
			{
				"x": 1.4424456264,
				"y": -0.948274972,
				"z": -1.1857289016,
				"element": "C" 
			},
			{
				"x": 1.8809053496,
				"y": 0.0401852671,
				"z": -2.0739249859,
				"element": "C" 
			},
			{
				"x": 2.634595618,
				"y": -0.2867461144,
				"z": -3.2028034,
				"element": "C" 
			},
			{
				"x": 2.9380544773,
				"y": -1.6221322878,
				"z": -3.4350892914,
				"element": "C" 
			},
			{
				"x": 3.6622799023,
				"y": -1.9504638769,
				"z": -4.5248754922,
				"element": "F" 
			},
			{
				"x": 2.5139895438,
				"y": -2.6329196775,
				"z": -2.5776614346,
				"element": "C" 
			},
			{
				"x": 1.767265396,
				"y": -2.2868090624,
				"z": -1.453373939,
				"element": "C" 
			},
			{
				"x": -2.8009117096,
				"y": -1.730644125,
				"z": 1.0214459264,
				"element": "C" 
			},
			{
				"x": -3.7332157496,
				"y": -1.5993703362,
				"z": 2.043950077,
				"element": "C" 
			},
			{
				"x": -3.4060122243,
				"y": -0.9360192225,
				"z": 3.2274384917,
				"element": "C" 
			},
			{
				"x": -0.2892847358,
				"y": 0.7774194998,
				"z": 5.9130200078,
				"element": "H" 
			},
			{
				"x": 0.19315577,
				"y": -0.2248766548,
				"z": 4.6044564896,
				"element": "H" 
			},
			{
				"x": -0.2121387741,
				"y": -0.0454824343,
				"z": 2.4508776352,
				"element": "H" 
			},
			{
				"x": -1.018107067,
				"y": -1.5034595337,
				"z": -0.7914664941,
				"element": "H" 
			},
			{
				"x": 0.4612344028,
				"y": 0.5026476498,
				"z": 0.064412587,
				"element": "H" 
			},
			{
				"x": 1.2356454889,
				"y": -0.8123445279,
				"z": 0.9456036287,
				"element": "H" 
			},
			{
				"x": 1.6320493016,
				"y": 1.0809543705,
				"z": -1.8843188249,
				"element": "H" 
			},
			{
				"x": 2.9791168611,
				"y": 0.4712219341,
				"z": -3.8978121607,
				"element": "H" 
			},
			{
				"x": 2.7727135809,
				"y": -3.6634745477,
				"z": -2.7958301369,
				"element": "H" 
			},
			{
				"x": 1.424793085,
				"y": -3.0623851367,
				"z": -0.774617999,
				"element": "H" 
			},
			{
				"x": -3.0657269127,
				"y": -2.2536178984,
				"z": 0.1053351195,
				"element": "H" 
			},
			{
				"x": -4.7267632242,
				"y": -2.0192925124,
				"z": 1.9146511959,
				"element": "H" 
			},
			{
				"x": -4.1208935794,
				"y": -0.8148000634,
				"z": 4.0328410966,
				"element": "H" 
			}
		],
		 "valence_orbital": [ 
			{
				"type": "occ",
				"energy": -0.2686,
				"method": "rhf"
			},
			{
				"type": "occ",
				"energy": -0.25459,
				"method": "rhf"
			},
			{
				"type": "occ",
				"energy": -0.2495,
				"method": "rhf"
			},
			{
				"type": "occ",
				"energy": -0.24393,
				"method": "rhf"
			},
			{
				"type": "occ",
				"energy": -0.20519,
				"method": "rhf"
			},
			{
				"type": "unocc",
				"energy": -0.03145,
				"method": "rhf"
			},
			{
				"type": "unocc",
				"energy": -0.02099,
				"method": "rhf"
			},
			{
				"type": "unocc",
				"energy": -0.01075,
				"method": "rhf"
			},
			{
				"type": "unocc",
				"energy": 0.00923,
				"method": "rhf"
			},
			{
				"type": "unocc",
				"energy": 0.06227,
				"method": "rhf"
			}
		],
		"cosmo_sigma_profile": { 
			"-0.025": 0.0,
			"-0.024": 0.0,
			"-0.023": 0.0,
			"-0.022": 0.0,
			"-0.021": 0.0,
			"-0.02": 0.0,
			"-0.019": 0.0,
			"-0.018": 0.0,
			"-0.017": 0.0,
			"-0.016": 0.0,
			"-0.015": 0.0,
			"-0.014": 0.685289350732,
			"-0.013": 2.5221381517,
			"-0.012": 2.79306716376,
			"-0.011": 3.12242942226,
			"-0.01": 4.12066581018,
			"-0.009": 4.6905349698,
			"-0.008": 2.90106404293,
			"-0.007": 8.0436544694,
			"-0.006": 14.1699684666,
			"-0.005": 17.8571206524,
			"-0.004": 20.9306553071,
			"-0.003": 18.7798098104,
			"-0.002": 16.7446689018,
			"-0.001": 15.147303884,
			"0.0": 15.8067901469,
			"0.001": 21.2843019571,
			"0.002": 19.3679759005,
			"0.003": 20.3965333951,
			"0.004": 28.9614447107,
			"0.005": 20.6901256601,
			"0.006": 7.44748522636,
			"0.007": 2.70216394953,
			"0.008": 2.84548896676,
			"0.009": 3.08828656572,
			"0.01": 1.02600847544,
			"0.011": 1.53605439995,
			"0.012": 1.81878687137,
			"0.013": 4.58264983655,
			"0.014": 4.52249804805,
			"0.015": 0.475420673903,
			"0.016": 0.0,
			"0.017": 0.0,
			"0.018": 0.0,
			"0.019": 0.0,
			"0.02": 0.0,
			"0.021": 0.0,
			"0.022": 0.0,
			"0.023": 0.0,
			"0.024": 0.0,
			"0.025": 0.0
		}
	}
}
