{
	 "smiles": "OC(=O)C1CCN(CC1)S(=O)(=O)C1=CC2=C(CCCC2)C=C1", 
	 "Tm": 455.15, 
	 "num_atms": 43, 
	 "gaussian": { 
		 "optdone": 1, 
		 "sigma_profile": "yes", 
		 "theory": "DFT", 
		 "functional": "B3LYP", 
		 "basiset": "6-31G**", 
		 "properties": { 
			 "R2extent": 10789.4739, 
			 "electric_dipole_moment_norm": 6.72229601327, 
			 "electric_quadrupole_moment_norm": 23.9006292237, 
			 "total_energy": -1376.14539655, 
			 "HOMO_LUMO_gap": 0.20694, 
			 "cosmo_polarized_energy": -24.3, 
			 "cosmo_cavitation_energy": 44.62, 
			 "cosmo_dispersion_energy": -31.84, 
			 "cosmo_repulsion_energy": 2.39, 
			 "cosmo_total_nonelectrostatic_energy": 15.17, 
			 "SMD_solvation_energy": 5.62 
		},
		"coords": [
			{
				"x": 0.783787738,
				"y": -6.3276387175,
				"z": 2.9916441691,
				"element": "O" 
			},
			{
				"x": 1.5424928,
				"y": -5.9172222729,
				"z": 1.9378595047,
				"element": "C" 
			},
			{
				"x": 2.7175125685,
				"y": -6.1854823982,
				"z": 1.9080610432,
				"element": "O" 
			},
			{
				"x": 0.7991853237,
				"y": -5.0994109349,
				"z": 0.8792319895,
				"element": "C" 
			},
			{
				"x": 0.2655642864,
				"y": -3.7811532955,
				"z": 1.5164649311,
				"element": "C" 
			},
			{
				"x": 0.0188626324,
				"y": -2.7162026414,
				"z": 0.4472942623,
				"element": "C" 
			},
			{
				"x": 1.3038438462,
				"y": -2.3419477154,
				"z": -0.179285963,
				"element": "N" 
			},
			{
				"x": 2.3285695149,
				"y": -3.4143316408,
				"z": -0.2532099514,
				"element": "C" 
			},
			{
				"x": 1.6926005867,
				"y": -4.8022369588,
				"z": -0.3474427946,
				"element": "C" 
			},
			{
				"x": 1.1421683762,
				"y": -1.3227870806,
				"z": -1.5277010695,
				"element": "S" 
			},
			{
				"x": -0.0755302357,
				"y": -1.6600882114,
				"z": -2.282390344,
				"element": "O" 
			},
			{
				"x": 2.4488592847,
				"y": -1.3049183846,
				"z": -2.1948328401,
				"element": "O" 
			},
			{
				"x": 0.8651023915,
				"y": 0.2718553414,
				"z": -0.7558322755,
				"element": "C" 
			},
			{
				"x": -0.3844665223,
				"y": 0.8818439039,
				"z": -0.8748439318,
				"element": "C" 
			},
			{
				"x": -0.5946289323,
				"y": 2.1378957821,
				"z": -0.3012120728,
				"element": "C" 
			},
			{
				"x": 0.452800913,
				"y": 2.7700862939,
				"z": 0.3950159934,
				"element": "C" 
			},
			{
				"x": 0.1525162426,
				"y": 4.1204366385,
				"z": 0.9957203194,
				"element": "C" 
			},
			{
				"x": -1.1795778457,
				"y": 4.0995254652,
				"z": 1.7823073008,
				"element": "C" 
			},
			{
				"x": -2.3376566753,
				"y": 3.4055951197,
				"z": 1.0073821538,
				"element": "C" 
			},
			{
				"x": -1.9084373358,
				"y": 2.8757783263,
				"z": -0.3811701049,
				"element": "C" 
			},
			{
				"x": 1.6971572381,
				"y": 2.1390935297,
				"z": 0.5038865658,
				"element": "C" 
			},
			{
				"x": 1.9154607508,
				"y": 0.890773625,
				"z": -0.074387673,
				"element": "C" 
			},
			{
				"x": -0.1381878012,
				"y": -6.0627688714,
				"z": 2.8655630963,
				"element": "H" 
			},
			{
				"x": -0.0639007781,
				"y": -5.6970287708,
				"z": 0.5538994226,
				"element": "H" 
			},
			{
				"x": 0.985234456,
				"y": -3.3934175239,
				"z": 2.2462115531,
				"element": "H" 
			},
			{
				"x": -0.6711046825,
				"y": -3.9543848474,
				"z": 2.058331635,
				"element": "H" 
			},
			{
				"x": -0.4221236024,
				"y": -1.8220716389,
				"z": 0.9017639427,
				"element": "H" 
			},
			{
				"x": -0.6942814088,
				"y": -3.0913995346,
				"z": -0.2992532769,
				"element": "H" 
			},
			{
				"x": 2.969815274,
				"y": -3.2135522385,
				"z": -1.1114856842,
				"element": "H" 
			},
			{
				"x": 2.9573205772,
				"y": -3.3537448152,
				"z": 0.642886885,
				"element": "H" 
			},
			{
				"x": 1.0943530583,
				"y": -4.8619585523,
				"z": -1.262386418,
				"element": "H" 
			},
			{
				"x": 2.4812099447,
				"y": -5.5560063707,
				"z": -0.4120088398,
				"element": "H" 
			},
			{
				"x": -1.1734565714,
				"y": 0.3774701386,
				"z": -1.4234242329,
				"element": "H" 
			},
			{
				"x": 0.0767062698,
				"y": 4.861084731,
				"z": 0.1861976149,
				"element": "H" 
			},
			{
				"x": 0.9718148655,
				"y": 4.4525367969,
				"z": 1.6414550325,
				"element": "H" 
			},
			{
				"x": -1.4535285989,
				"y": 5.1270615744,
				"z": 2.0430245408,
				"element": "H" 
			},
			{
				"x": -1.0104041894,
				"y": 3.5761258059,
				"z": 2.7292086601,
				"element": "H" 
			},
			{
				"x": -2.7142397906,
				"y": 2.5624343221,
				"z": 1.5960793503,
				"element": "H" 
			},
			{
				"x": -3.1802801876,
				"y": 4.093139468,
				"z": 0.8801636933,
				"element": "H" 
			},
			{
				"x": -2.689892726,
				"y": 2.2368562642,
				"z": -0.8046113095,
				"element": "H" 
			},
			{
				"x": -1.798846005,
				"y": 3.7266626619,
				"z": -1.0691731309,
				"element": "H" 
			},
			{
				"x": 2.5035256683,
				"y": 2.631340052,
				"z": 1.0414247655,
				"element": "H" 
			},
			{
				"x": 2.8821792814,
				"y": 0.404157575,
				"z": -0.0039265125,
				"element": "H" 
			}
		],
		 "valence_orbital": [ 
			{
				"type": "occ",
				"energy": -0.29474,
				"method": "rhf"
			},
			{
				"type": "occ",
				"energy": -0.27572,
				"method": "rhf"
			},
			{
				"type": "occ",
				"energy": -0.26436,
				"method": "rhf"
			},
			{
				"type": "occ",
				"energy": -0.25829,
				"method": "rhf"
			},
			{
				"type": "occ",
				"energy": -0.23982,
				"method": "rhf"
			},
			{
				"type": "unocc",
				"energy": -0.03288,
				"method": "rhf"
			},
			{
				"type": "unocc",
				"energy": -0.01455,
				"method": "rhf"
			},
			{
				"type": "unocc",
				"energy": 0.00323,
				"method": "rhf"
			},
			{
				"type": "unocc",
				"energy": 0.03641,
				"method": "rhf"
			},
			{
				"type": "unocc",
				"energy": 0.06711,
				"method": "rhf"
			}
		],
		"cosmo_sigma_profile": { 
			"-0.025": 0.0,
			"-0.024": 0.0,
			"-0.023": 0.0,
			"-0.022": 0.0,
			"-0.021": 0.0,
			"-0.02": 0.0,
			"-0.019": 0.149271632719,
			"-0.018": 1.01387059931,
			"-0.017": 1.12010892662,
			"-0.016": 1.13756706695,
			"-0.015": 1.01851782034,
			"-0.014": 1.30803581154,
			"-0.013": 0.707854911818,
			"-0.012": 1.12968912349,
			"-0.011": 2.07328952073,
			"-0.01": 1.00716973356,
			"-0.009": 0.868512350682,
			"-0.008": 1.95702776351,
			"-0.007": 4.15038748211,
			"-0.006": 11.7999772419,
			"-0.005": 20.9855755245,
			"-0.004": 32.3168176849,
			"-0.003": 38.8780107518,
			"-0.002": 40.159206141,
			"-0.001": 36.9402609864,
			"0.0": 26.4171569434,
			"0.001": 18.6335216247,
			"0.002": 12.8805865301,
			"0.003": 15.4082570279,
			"0.004": 12.5297715364,
			"0.005": 5.79536073908,
			"0.006": 6.04051072514,
			"0.007": 5.4661535421,
			"0.008": 6.12415140716,
			"0.009": 7.00761156292,
			"0.01": 10.048757455,
			"0.011": 12.8435028218,
			"0.012": 9.66165066401,
			"0.013": 1.85632862765,
			"0.014": 0.010683055796,
			"0.015": 0.0,
			"0.016": 0.0,
			"0.017": 0.0,
			"0.018": 0.0,
			"0.019": 0.0,
			"0.02": 0.0,
			"0.021": 0.0,
			"0.022": 0.0,
			"0.023": 0.0,
			"0.024": 0.0,
			"0.025": 0.0
		}
	}
}
