{
	 "smiles": "CCOC1=CC=C(C=C1)C1=NN=C(N)O1", 
	 "Tm": 512.15, 
	 "num_atms": 26, 
	 "gaussian": { 
		 "optdone": 1, 
		 "sigma_profile": "yes", 
		 "theory": "DFT", 
		 "functional": "B3LYP", 
		 "basiset": "6-31G**", 
		 "properties": { 
			 "R2extent": 5721.6697, 
			 "electric_dipole_moment_norm": 5.21589817865, 
			 "electric_quadrupole_moment_norm": 23.2205969131, 
			 "total_energy": -702.371011639, 
			 "HOMO_LUMO_gap": 0.1741, 
			 "cosmo_polarized_energy": -17.93, 
			 "cosmo_cavitation_energy": 30.96, 
			 "cosmo_dispersion_energy": -23.08, 
			 "cosmo_repulsion_energy": 1.82, 
			 "cosmo_total_nonelectrostatic_energy": 9.7, 
			 "SMD_solvation_energy": 4.15 
		},
		"coords": [
			{
				"x": -3.6534901628,
				"y": -2.7548236121,
				"z": -0.4203946392,
				"element": "C" 
			},
			{
				"x": -2.7847110484,
				"y": -1.6539882268,
				"z": 0.1620883899,
				"element": "C" 
			},
			{
				"x": -1.4801713824,
				"y": -1.7912677635,
				"z": -0.4033462392,
				"element": "O" 
			},
			{
				"x": -0.5077510964,
				"y": -0.9128457968,
				"z": -0.0376666917,
				"element": "C" 
			},
			{
				"x": -0.6822253194,
				"y": 0.1394108541,
				"z": 0.8705202507,
				"element": "C" 
			},
			{
				"x": 0.3904971685,
				"y": 0.9798446672,
				"z": 1.1698879973,
				"element": "C" 
			},
			{
				"x": 1.6435300606,
				"y": 0.7878437613,
				"z": 0.5762430254,
				"element": "C" 
			},
			{
				"x": 1.8084954273,
				"y": -0.2735158998,
				"z": -0.3357684976,
				"element": "C" 
			},
			{
				"x": 0.7488585527,
				"y": -1.1103272068,
				"z": -0.6378751633,
				"element": "C" 
			},
			{
				"x": 2.7725357509,
				"y": 1.6539731981,
				"z": 0.875808261,
				"element": "C" 
			},
			{
				"x": 3.9802302077,
				"y": 1.6198651198,
				"z": 0.4062930199,
				"element": "N" 
			},
			{
				"x": 4.6963362159,
				"y": 2.6536094386,
				"z": 1.0212502026,
				"element": "N" 
			},
			{
				"x": 3.846040917,
				"y": 3.2407938729,
				"z": 1.8090340509,
				"element": "C" 
			},
			{
				"x": 4.0259113111,
				"y": 4.3600992819,
				"z": 2.5782029339,
				"element": "N" 
			},
			{
				"x": 2.6087234333,
				"y": 2.6819301516,
				"z": 1.7892686039,
				"element": "O" 
			},
			{
				"x": -4.6670451531,
				"y": -2.688336026,
				"z": -0.0133194088,
				"element": "H" 
			},
			{
				"x": -3.2444848095,
				"y": -3.7388982678,
				"z": -0.1753986875,
				"element": "H" 
			},
			{
				"x": -3.7096800575,
				"y": -2.666116581,
				"z": -1.5088160878,
				"element": "H" 
			},
			{
				"x": -3.1930404316,
				"y": -0.6625433343,
				"z": -0.0793065552,
				"element": "H" 
			},
			{
				"x": -2.7271907412,
				"y": -1.7370774576,
				"z": 1.2565469743,
				"element": "H" 
			},
			{
				"x": -1.6396493782,
				"y": 0.3139919796,
				"z": 1.3459334541,
				"element": "H" 
			},
			{
				"x": 0.2480041349,
				"y": 1.7942381961,
				"z": 1.8724265383,
				"element": "H" 
			},
			{
				"x": 2.7785901747,
				"y": -0.4237175376,
				"z": -0.7973209003,
				"element": "H" 
			},
			{
				"x": 0.8627405034,
				"y": -1.9308373518,
				"z": -1.3384739321,
				"element": "H" 
			},
			{
				"x": 5.0008509645,
				"y": 4.600985853,
				"z": 2.6940694459,
				"element": "H" 
			},
			{
				"x": 3.494394758,
				"y": 4.3829086877,
				"z": 3.4379136545,
				"element": "H" 
			}
		],
		 "valence_orbital": [ 
			{
				"type": "occ",
				"energy": -0.30677,
				"method": "rhf"
			},
			{
				"type": "occ",
				"energy": -0.26343,
				"method": "rhf"
			},
			{
				"type": "occ",
				"energy": -0.25865,
				"method": "rhf"
			},
			{
				"type": "occ",
				"energy": -0.25132,
				"method": "rhf"
			},
			{
				"type": "occ",
				"energy": -0.20365,
				"method": "rhf"
			},
			{
				"type": "unocc",
				"energy": -0.02955,
				"method": "rhf"
			},
			{
				"type": "unocc",
				"energy": -0.00589,
				"method": "rhf"
			},
			{
				"type": "unocc",
				"energy": 0.04408,
				"method": "rhf"
			},
			{
				"type": "unocc",
				"energy": 0.06948,
				"method": "rhf"
			},
			{
				"type": "unocc",
				"energy": 0.07883,
				"method": "rhf"
			}
		],
		"cosmo_sigma_profile": { 
			"-0.025": 0.0,
			"-0.024": 0.0,
			"-0.023": 0.0,
			"-0.022": 0.0,
			"-0.021": 0.0,
			"-0.02": 0.0,
			"-0.019": 0.0,
			"-0.018": 0.0,
			"-0.017": 0.0,
			"-0.016": 0.103692932016,
			"-0.015": 1.8861823412,
			"-0.014": 2.91027356688,
			"-0.013": 1.90361987243,
			"-0.012": 2.68008194398,
			"-0.011": 3.11767732311,
			"-0.01": 1.54215176925,
			"-0.009": 2.00868856331,
			"-0.008": 1.42630943382,
			"-0.007": 3.70100749917,
			"-0.006": 9.38042169444,
			"-0.005": 15.0757947248,
			"-0.004": 19.7267118468,
			"-0.003": 20.3556131187,
			"-0.002": 18.2208574908,
			"-0.001": 16.8325175028,
			"0.0": 18.0677314639,
			"0.001": 16.5891215383,
			"0.002": 15.6164618021,
			"0.003": 18.0894475404,
			"0.004": 17.5103385746,
			"0.005": 5.29517203819,
			"0.006": 3.44282424148,
			"0.007": 4.65634349136,
			"0.008": 3.33511473018,
			"0.009": 4.08810049839,
			"0.01": 3.3516858946,
			"0.011": 2.76252601121,
			"0.012": 3.20177138728,
			"0.013": 3.3492167664,
			"0.014": 3.15247969303,
			"0.015": 2.08572676105,
			"0.016": 1.02472905324,
			"0.017": 0.0768813166587,
			"0.018": 0.0,
			"0.019": 0.0,
			"0.02": 0.0,
			"0.021": 0.0,
			"0.022": 0.0,
			"0.023": 0.0,
			"0.024": 0.0,
			"0.025": 0.0
		}
	}
}
