{
	 "smiles": "FC(F)(F)C(=O)NC1=C(I)C=CC=C1", 
	 "Tm": 379.15, 
	 "num_atms": 19, 
	 "gaussian": { 
		 "optdone": 1, 
		 "sigma_profile": "yes", 
		 "theory": "DFT", 
		 "functional": "B3LYP", 
		 "basiset": "6-31G**", 
		 "properties": { 
			 "R2extent": 3460.2407, 
			 "electric_dipole_moment_norm": 3.73599043494, 
			 "electric_quadrupole_moment_norm": 5.98105468709, 
			 "total_energy": -748.742794036, 
			 "HOMO_LUMO_gap": 0.18546, 
			 "cosmo_polarized_energy": -7.54, 
			 "cosmo_cavitation_energy": 27.82, 
			 "cosmo_dispersion_energy": -21.35, 
			 "cosmo_repulsion_energy": 1.59, 
			 "cosmo_total_nonelectrostatic_energy": 8.06, 
			 "SMD_solvation_energy": 5.7 
		},
		"coords": [
			{
				"x": -2.3967529154,
				"y": 0.1823870207,
				"z": -2.4699222169,
				"element": "F" 
			},
			{
				"x": -1.0837904572,
				"y": 0.463495111,
				"z": -2.6281388653,
				"element": "C" 
			},
			{
				"x": -0.780797708,
				"y": 0.3156820841,
				"z": -3.9131908306,
				"element": "F" 
			},
			{
				"x": -0.8908790507,
				"y": 1.7597586194,
				"z": -2.2960978133,
				"element": "F" 
			},
			{
				"x": -0.203843926,
				"y": -0.4715041436,
				"z": -1.7669563097,
				"element": "C" 
			},
			{
				"x": 0.6024515419,
				"y": -1.1850653056,
				"z": -2.3352942458,
				"element": "O" 
			},
			{
				"x": -0.32142009,
				"y": -0.5028980392,
				"z": -0.3968223108,
				"element": "N" 
			},
			{
				"x": -1.0795069587,
				"y": 0.1144684009,
				"z": 0.6191372162,
				"element": "C" 
			},
			{
				"x": -0.8269844238,
				"y": -0.2600086354,
				"z": 1.9604551906,
				"element": "C" 
			},
			{
				"x": 0.6498292636,
				"y": -1.7110197523,
				"z": 2.463040813,
				"element": "I" 
			},
			{
				"x": -1.5355006805,
				"y": 0.3055880787,
				"z": 3.0196268314,
				"element": "C" 
			},
			{
				"x": -2.5181315814,
				"y": 1.2625149824,
				"z": 2.7747724718,
				"element": "C" 
			},
			{
				"x": -2.7793941108,
				"y": 1.6423731947,
				"z": 1.4608521094,
				"element": "C" 
			},
			{
				"x": -2.0756035115,
				"y": 1.0812499411,
				"z": 0.3992575987,
				"element": "C" 
			},
			{
				"x": 0.3502961293,
				"y": -1.1814601017,
				"z": -0.0462406281,
				"element": "H" 
			},
			{
				"x": -1.3170618545,
				"y": -0.0037803431,
				"z": 4.0351934101,
				"element": "H" 
			},
			{
				"x": -3.0666010332,
				"y": 1.6996005545,
				"z": 3.6027317308,
				"element": "H" 
			},
			{
				"x": -3.5407822107,
				"y": 2.3859547403,
				"z": 1.2466981798,
				"element": "H" 
			},
			{
				"x": -2.3121264223,
				"y": 1.405063593,
				"z": -0.6001023315,
				"element": "H" 
			}
		],
		 "valence_orbital": [ 
			{
				"type": "occ",
				"energy": -0.31125,
				"method": "rhf"
			},
			{
				"type": "occ",
				"energy": -0.29297,
				"method": "rhf"
			},
			{
				"type": "occ",
				"energy": -0.28802,
				"method": "rhf"
			},
			{
				"type": "occ",
				"energy": -0.26095,
				"method": "rhf"
			},
			{
				"type": "occ",
				"energy": -0.24162,
				"method": "rhf"
			},
			{
				"type": "unocc",
				"energy": -0.05616,
				"method": "rhf"
			},
			{
				"type": "unocc",
				"energy": -0.05045,
				"method": "rhf"
			},
			{
				"type": "unocc",
				"energy": -0.03026,
				"method": "rhf"
			},
			{
				"type": "unocc",
				"energy": 0.00586,
				"method": "rhf"
			},
			{
				"type": "unocc",
				"energy": 0.03597,
				"method": "rhf"
			}
		],
		"cosmo_sigma_profile": { 
			"-0.025": 0.0,
			"-0.024": 0.0,
			"-0.023": 0.0,
			"-0.022": 0.0,
			"-0.021": 0.0,
			"-0.02": 0.0,
			"-0.019": 0.0,
			"-0.018": 0.0,
			"-0.017": 0.0,
			"-0.016": 0.0,
			"-0.015": 0.0,
			"-0.014": 0.0,
			"-0.013": 0.0,
			"-0.012": 0.0,
			"-0.011": 0.0,
			"-0.01": 0.0,
			"-0.009": 0.229847580523,
			"-0.008": 2.34055166425,
			"-0.007": 7.17133576882,
			"-0.006": 13.2890291386,
			"-0.005": 13.6339073198,
			"-0.004": 12.3808826409,
			"-0.003": 15.5657552349,
			"-0.002": 14.9234742241,
			"-0.001": 16.0090592293,
			"0.0": 21.8751995309,
			"0.001": 31.6499302165,
			"0.002": 31.6490908271,
			"0.003": 21.154350223,
			"0.004": 11.0618483279,
			"0.005": 0.719923624122,
			"0.006": 1.10670255192,
			"0.007": 2.00415218012,
			"0.008": 1.85797943626,
			"0.009": 1.28999421339,
			"0.01": 3.7977503325,
			"0.011": 5.03566499655,
			"0.012": 0.846284086528,
			"0.013": 0.0,
			"0.014": 0.0,
			"0.015": 0.0,
			"0.016": 0.0,
			"0.017": 0.0,
			"0.018": 0.0,
			"0.019": 0.0,
			"0.02": 0.0,
			"0.021": 0.0,
			"0.022": 0.0,
			"0.023": 0.0,
			"0.024": 0.0,
			"0.025": 0.0
		}
	}
}
