{
	 "smiles": "OC(=O)C1=CC(=CC=C1)S(=O)(=O)CC(F)(F)F", 
	 "Tm": 466.15, 
	 "num_atms": 24, 
	 "gaussian": { 
		 "optdone": 1, 
		 "sigma_profile": "yes", 
		 "theory": "DFT", 
		 "functional": "B3LYP", 
		 "basiset": "6-31G**", 
		 "properties": { 
			 "R2extent": 5082.1222, 
			 "electric_dipole_moment_norm": 1.55258806836, 
			 "electric_quadrupole_moment_norm": 24.2103164994, 
			 "total_energy": -1345.7202049, 
			 "HOMO_LUMO_gap": 0.21027, 
			 "cosmo_polarized_energy": -22.44, 
			 "cosmo_cavitation_energy": 31.75, 
			 "cosmo_dispersion_energy": -22.58, 
			 "cosmo_repulsion_energy": 1.65, 
			 "cosmo_total_nonelectrostatic_energy": 10.82, 
			 "SMD_solvation_energy": 6.93 
		},
		"coords": [
			{
				"x": 1.2955331172,
				"y": -3.1508263349,
				"z": 2.0608930652,
				"element": "O" 
			},
			{
				"x": -0.0153213692,
				"y": -2.8016501671,
				"z": 2.059818216,
				"element": "C" 
			},
			{
				"x": -0.7858208038,
				"y": -3.318437572,
				"z": 2.8327447312,
				"element": "O" 
			},
			{
				"x": -0.4407884115,
				"y": -1.7538301348,
				"z": 1.0696618392,
				"element": "C" 
			},
			{
				"x": 0.452459144,
				"y": -0.836002697,
				"z": 0.506449817,
				"element": "C" 
			},
			{
				"x": -0.0275353953,
				"y": 0.1163891773,
				"z": -0.3922743222,
				"element": "C" 
			},
			{
				"x": -1.3719584835,
				"y": 0.1647616784,
				"z": -0.7617758962,
				"element": "C" 
			},
			{
				"x": -2.2595477497,
				"y": -0.7464309262,
				"z": -0.1857956299,
				"element": "C" 
			},
			{
				"x": -1.8007243406,
				"y": -1.687583944,
				"z": 0.7330729869,
				"element": "C" 
			},
			{
				"x": 1.1457276636,
				"y": 1.2646815494,
				"z": -1.1306187936,
				"element": "S" 
			},
			{
				"x": 0.6066202981,
				"y": 1.7056049488,
				"z": -2.420379284,
				"element": "O" 
			},
			{
				"x": 2.4813239286,
				"y": 0.6622778475,
				"z": -1.0079813754,
				"element": "O" 
			},
			{
				"x": 1.2041251557,
				"y": 2.7065517221,
				"z": 0.0046724931,
				"element": "C" 
			},
			{
				"x": 0.0230219583,
				"y": 3.6591337359,
				"z": -0.0357101503,
				"element": "C" 
			},
			{
				"x": 0.1865740694,
				"y": 4.605185422,
				"z": 0.9126235724,
				"element": "F" 
			},
			{
				"x": -1.1417440273,
				"y": 3.0235784356,
				"z": 0.2212953088,
				"element": "F" 
			},
			{
				"x": -0.0942919001,
				"y": 4.275035813,
				"z": -1.2183492113,
				"element": "F" 
			},
			{
				"x": 1.7492932248,
				"y": -2.7964462893,
				"z": 1.2833470879,
				"element": "H" 
			},
			{
				"x": 1.5098745018,
				"y": -0.8329533879,
				"z": 0.7536348936,
				"element": "H" 
			},
			{
				"x": -1.707571086,
				"y": 0.8967920188,
				"z": -1.4873219718,
				"element": "H" 
			},
			{
				"x": -3.3099480066,
				"y": -0.7201788496,
				"z": -0.4573237637,
				"element": "H" 
			},
			{
				"x": -2.478970556,
				"y": -2.3932046659,
				"z": 1.2006420907,
				"element": "H" 
			},
			{
				"x": 2.1096853178,
				"y": 3.2414608801,
				"z": -0.290772889,
				"element": "H" 
			},
			{
				"x": 1.3322837502,
				"y": 2.3205917396,
				"z": 1.0174471855,
				"element": "H" 
			}
		],
		 "valence_orbital": [ 
			{
				"type": "occ",
				"energy": -0.32468,
				"method": "rhf"
			},
			{
				"type": "occ",
				"energy": -0.31755,
				"method": "rhf"
			},
			{
				"type": "occ",
				"energy": -0.30073,
				"method": "rhf"
			},
			{
				"type": "occ",
				"energy": -0.29917,
				"method": "rhf"
			},
			{
				"type": "occ",
				"energy": -0.28729,
				"method": "rhf"
			},
			{
				"type": "unocc",
				"energy": -0.07702,
				"method": "rhf"
			},
			{
				"type": "unocc",
				"energy": -0.0643,
				"method": "rhf"
			},
			{
				"type": "unocc",
				"energy": 0.01672,
				"method": "rhf"
			},
			{
				"type": "unocc",
				"energy": 0.02771,
				"method": "rhf"
			},
			{
				"type": "unocc",
				"energy": 0.04509,
				"method": "rhf"
			}
		],
		"cosmo_sigma_profile": { 
			"-0.025": 0.0,
			"-0.024": 0.0,
			"-0.023": 0.0,
			"-0.022": 0.0,
			"-0.021": 0.0,
			"-0.02": 0.0558018805729,
			"-0.019": 0.928655698323,
			"-0.018": 1.14623063559,
			"-0.017": 0.699532474654,
			"-0.016": 1.30943994469,
			"-0.015": 0.942609501266,
			"-0.014": 1.07892690734,
			"-0.013": 1.38410893244,
			"-0.012": 2.26723662523,
			"-0.011": 5.90485117412,
			"-0.01": 5.30015964488,
			"-0.009": 5.35805887008,
			"-0.008": 7.81764844755,
			"-0.007": 11.2784262181,
			"-0.006": 10.6210480415,
			"-0.005": 9.11781903581,
			"-0.004": 8.7485714708,
			"-0.003": 9.68085453876,
			"-0.002": 11.865457376,
			"-0.001": 14.7719551606,
			"0.0": 19.5420986359,
			"0.001": 19.6834372541,
			"0.002": 29.1463814992,
			"0.003": 11.5507846328,
			"0.004": 3.63323481028,
			"0.005": 5.37574803868,
			"0.006": 5.96124195555,
			"0.007": 5.22734820053,
			"0.008": 6.67887091454,
			"0.009": 9.3973913249,
			"0.01": 13.3720451529,
			"0.011": 11.1713859827,
			"0.012": 3.13169516311,
			"0.013": 0.455445205422,
			"0.014": 0.0,
			"0.015": 0.0,
			"0.016": 0.0,
			"0.017": 0.0,
			"0.018": 0.0,
			"0.019": 0.0,
			"0.02": 0.0,
			"0.021": 0.0,
			"0.022": 0.0,
			"0.023": 0.0,
			"0.024": 0.0,
			"0.025": 0.0
		}
	}
}
