{
	 "smiles": "OC(=O)C1SCCC2=C1C=CS2", 
	 "Tm": 422.15, 
	 "num_atms": 20, 
	 "gaussian": { 
		 "optdone": 1, 
		 "sigma_profile": "yes", 
		 "theory": "DFT", 
		 "functional": "B3LYP", 
		 "basiset": "6-31G**", 
		 "properties": { 
			 "R2extent": 2731.762, 
			 "electric_dipole_moment_norm": 4.65595579983, 
			 "electric_quadrupole_moment_norm": 12.0836134724, 
			 "total_energy": -1256.49069528, 
			 "HOMO_LUMO_gap": 0.21364, 
			 "cosmo_polarized_energy": -12.03, 
			 "cosmo_cavitation_energy": 25.86, 
			 "cosmo_dispersion_energy": -20.19, 
			 "cosmo_repulsion_energy": 1.51, 
			 "cosmo_total_nonelectrostatic_energy": 7.17, 
			 "SMD_solvation_energy": 4.62 
		},
		"coords": [
			{
				"x": -1.9112870777,
				"y": 1.3514662757,
				"z": -2.1654262893,
				"element": "O" 
			},
			{
				"x": -0.8528117504,
				"y": 0.5244096434,
				"z": -2.1611494477,
				"element": "C" 
			},
			{
				"x": -0.5531596351,
				"y": -0.1362054802,
				"z": -3.1255542338,
				"element": "O" 
			},
			{
				"x": -0.0660765084,
				"y": 0.3993361268,
				"z": -0.8336172176,
				"element": "C" 
			},
			{
				"x": -0.06118936,
				"y": 2.0232237782,
				"z": 0.0567367261,
				"element": "S" 
			},
			{
				"x": -0.0274360968,
				"y": 1.4827664256,
				"z": 1.8086773638,
				"element": "C" 
			},
			{
				"x": -1.1682544962,
				"y": 0.5247016081,
				"z": 2.1515239062,
				"element": "C" 
			},
			{
				"x": -1.1359156578,
				"y": -0.6780668413,
				"z": 1.2499106138,
				"element": "C" 
			},
			{
				"x": -0.6495906818,
				"y": -0.7516309429,
				"z": -0.0324573468,
				"element": "C" 
			},
			{
				"x": -0.737191899,
				"y": -2.0748016461,
				"z": -0.5876477916,
				"element": "C" 
			},
			{
				"x": -1.2874594406,
				"y": -2.9749739879,
				"z": 0.2743103021,
				"element": "C" 
			},
			{
				"x": -1.7067083593,
				"y": -2.235183862,
				"z": 1.7880823711,
				"element": "S" 
			},
			{
				"x": -1.9494247327,
				"y": 1.8205198258,
				"z": -1.3096136969,
				"element": "H" 
			},
			{
				"x": 0.9578216592,
				"y": 0.1557725755,
				"z": -1.1294965836,
				"element": "H" 
			},
			{
				"x": 0.9432545178,
				"y": 1.0254576477,
				"z": 2.019251875,
				"element": "H" 
			},
			{
				"x": -0.1001512445,
				"y": 2.4099972267,
				"z": 2.3835117337,
				"element": "H" 
			},
			{
				"x": -1.0682667469,
				"y": 0.2159418191,
				"z": 3.1994452818,
				"element": "H" 
			},
			{
				"x": -2.1278348817,
				"y": 1.0513907775,
				"z": 2.0684068869,
				"element": "H" 
			},
			{
				"x": -0.4132133393,
				"y": -2.3144358713,
				"z": -1.5932839545,
				"element": "H" 
			},
			{
				"x": -1.4789042689,
				"y": -4.0265850984,
				"z": 0.1133895014,
				"element": "H" 
			}
		],
		 "valence_orbital": [ 
			{
				"type": "occ",
				"energy": -0.31412,
				"method": "rhf"
			},
			{
				"type": "occ",
				"energy": -0.27853,
				"method": "rhf"
			},
			{
				"type": "occ",
				"energy": -0.25977,
				"method": "rhf"
			},
			{
				"type": "occ",
				"energy": -0.24971,
				"method": "rhf"
			},
			{
				"type": "occ",
				"energy": -0.23905,
				"method": "rhf"
			},
			{
				"type": "unocc",
				"energy": -0.02541,
				"method": "rhf"
			},
			{
				"type": "unocc",
				"energy": -0.0019,
				"method": "rhf"
			},
			{
				"type": "unocc",
				"energy": 0.01166,
				"method": "rhf"
			},
			{
				"type": "unocc",
				"energy": 0.02032,
				"method": "rhf"
			},
			{
				"type": "unocc",
				"energy": 0.04792,
				"method": "rhf"
			}
		],
		"cosmo_sigma_profile": { 
			"-0.025": 0.0,
			"-0.024": 0.0,
			"-0.023": 0.0,
			"-0.022": 0.0,
			"-0.021": 0.0,
			"-0.02": 0.0,
			"-0.019": 0.0,
			"-0.018": 0.0,
			"-0.017": 0.0,
			"-0.016": 0.0,
			"-0.015": 0.0,
			"-0.014": 0.0828594937142,
			"-0.013": 0.607262597994,
			"-0.012": 0.60155143646,
			"-0.011": 0.750913498794,
			"-0.01": 0.466244250215,
			"-0.009": 1.64692710704,
			"-0.008": 3.74785203098,
			"-0.007": 7.58778263869,
			"-0.006": 13.2360620628,
			"-0.005": 18.0816485543,
			"-0.004": 19.6249774766,
			"-0.003": 17.408527254,
			"-0.002": 12.4730022978,
			"-0.001": 9.10788674117,
			"0.0": 11.6214286189,
			"0.001": 9.57218734863,
			"0.002": 13.5798088145,
			"0.003": 15.2498883304,
			"0.004": 16.2403654514,
			"0.005": 8.25633461225,
			"0.006": 3.73153809812,
			"0.007": 4.36595316548,
			"0.008": 3.83317739487,
			"0.009": 4.56662712994,
			"0.01": 4.91049509231,
			"0.011": 4.11599703474,
			"0.012": 3.63562549072,
			"0.013": 0.506768397126,
			"0.014": 0.0,
			"0.015": 0.0,
			"0.016": 0.0,
			"0.017": 0.0,
			"0.018": 0.0,
			"0.019": 0.0,
			"0.02": 0.0,
			"0.021": 0.0,
			"0.022": 0.0,
			"0.023": 0.0,
			"0.024": 0.0,
			"0.025": 0.0
		}
	}
}
