{
	 "smiles": "OCC1=CC=C(OCC(O)=O)C=C1", 
	 "Tm": 384.65, 
	 "num_atms": 23, 
	 "gaussian": { 
		 "optdone": 1, 
		 "sigma_profile": "yes", 
		 "theory": "DFT", 
		 "functional": "B3LYP", 
		 "basiset": "6-31G**", 
		 "properties": { 
			 "R2extent": 3706.2793, 
			 "electric_dipole_moment_norm": 1.57125789735, 
			 "electric_quadrupole_moment_norm": 12.209290782, 
			 "total_energy": -649.864203213, 
			 "HOMO_LUMO_gap": 0.22558, 
			 "cosmo_polarized_energy": -15.58, 
			 "cosmo_cavitation_energy": 27.8, 
			 "cosmo_dispersion_energy": -20.12, 
			 "cosmo_repulsion_energy": 1.63, 
			 "cosmo_total_nonelectrostatic_energy": 9.31, 
			 "SMD_solvation_energy": 6.18 
		},
		"coords": [
			{
				"x": 1.422312716,
				"y": 4.4841694491,
				"z": -1.8996721384,
				"element": "O" 
			},
			{
				"x": 1.7251651038,
				"y": 3.5971176796,
				"z": -0.8312994871,
				"element": "C" 
			},
			{
				"x": 0.5729660986,
				"y": 2.6877278589,
				"z": -0.4485774268,
				"element": "C" 
			},
			{
				"x": 0.4124487553,
				"y": 2.2464807876,
				"z": 0.8705060584,
				"element": "C" 
			},
			{
				"x": -0.623386782,
				"y": 1.3803122369,
				"z": 1.2192923297,
				"element": "C" 
			},
			{
				"x": -1.5251655266,
				"y": 0.9631642479,
				"z": 0.2399221652,
				"element": "C" 
			},
			{
				"x": -2.6007186587,
				"y": 0.1676723625,
				"z": 0.608622964,
				"element": "O" 
			},
			{
				"x": -2.5674407009,
				"y": -1.1713458219,
				"z": 0.1750482522,
				"element": "C" 
			},
			{
				"x": -1.7379910322,
				"y": -2.0626256198,
				"z": 1.0945318476,
				"element": "C" 
			},
			{
				"x": -1.7444324649,
				"y": -3.3357996326,
				"z": 0.6319010564,
				"element": "O" 
			},
			{
				"x": -1.1582138361,
				"y": -1.7185858897,
				"z": 2.095877091,
				"element": "O" 
			},
			{
				"x": -1.3918678911,
				"y": 1.4051387958,
				"z": -1.078975164,
				"element": "C" 
			},
			{
				"x": -0.3415212172,
				"y": 2.2571658116,
				"z": -1.4181101329,
				"element": "C" 
			},
			{
				"x": 0.6531359564,
				"y": 5.005078635,
				"z": -1.6321206091,
				"element": "H" 
			},
			{
				"x": 2.573778583,
				"y": 3.001794808,
				"z": -1.189981328,
				"element": "H" 
			},
			{
				"x": 2.0760081158,
				"y": 4.1413460903,
				"z": 0.0599541381,
				"element": "H" 
			},
			{
				"x": 1.1081136965,
				"y": 2.5802107427,
				"z": 1.6372168305,
				"element": "H" 
			},
			{
				"x": -0.7475008085,
				"y": 1.0150123041,
				"z": 2.2319612322,
				"element": "H" 
			},
			{
				"x": -3.5966173883,
				"y": -1.5459865849,
				"z": 0.1777141591,
				"element": "H" 
			},
			{
				"x": -2.1830527849,
				"y": -1.274612591,
				"z": -0.8485774386,
				"element": "H" 
			},
			{
				"x": -1.2139584128,
				"y": -3.8587473378,
				"z": 1.2563687505,
				"element": "H" 
			},
			{
				"x": -2.1175277353,
				"y": 1.0951839908,
				"z": -1.8255752292,
				"element": "H" 
			},
			{
				"x": -0.2317337859,
				"y": 2.611927677,
				"z": -2.4383279208,
				"element": "H" 
			}
		],
		 "valence_orbital": [ 
			{
				"type": "occ",
				"energy": -0.2976,
				"method": "rhf"
			},
			{
				"type": "occ",
				"energy": -0.28194,
				"method": "rhf"
			},
			{
				"type": "occ",
				"energy": -0.27236,
				"method": "rhf"
			},
			{
				"type": "occ",
				"energy": -0.25232,
				"method": "rhf"
			},
			{
				"type": "occ",
				"energy": -0.23188,
				"method": "rhf"
			},
			{
				"type": "unocc",
				"energy": -0.0063,
				"method": "rhf"
			},
			{
				"type": "unocc",
				"energy": -0.00214,
				"method": "rhf"
			},
			{
				"type": "unocc",
				"energy": 0.00393,
				"method": "rhf"
			},
			{
				"type": "unocc",
				"energy": 0.06845,
				"method": "rhf"
			},
			{
				"type": "unocc",
				"energy": 0.08717,
				"method": "rhf"
			}
		],
		"cosmo_sigma_profile": { 
			"-0.025": 0.0,
			"-0.024": 0.0,
			"-0.023": 0.0,
			"-0.022": 0.0,
			"-0.021": 0.0,
			"-0.02": 0.0,
			"-0.019": 0.0924922065659,
			"-0.018": 0.964927946794,
			"-0.017": 0.863580337395,
			"-0.016": 1.39488696436,
			"-0.015": 1.43610513293,
			"-0.014": 1.50573356011,
			"-0.013": 1.0581203867,
			"-0.012": 1.32347825195,
			"-0.011": 2.40214127419,
			"-0.01": 1.49495468234,
			"-0.009": 2.2186116742,
			"-0.008": 4.20803480397,
			"-0.007": 6.30105094337,
			"-0.006": 10.7332518322,
			"-0.005": 17.1641538088,
			"-0.004": 17.51855706,
			"-0.003": 14.7256727679,
			"-0.002": 13.9037467917,
			"-0.001": 11.1792681126,
			"0.0": 9.84223787184,
			"0.001": 9.64162705472,
			"0.002": 8.79082063673,
			"0.003": 12.4791015661,
			"0.004": 13.1757001117,
			"0.005": 13.9330374653,
			"0.006": 6.16465348108,
			"0.007": 5.44466438993,
			"0.008": 5.45502850993,
			"0.009": 6.10952933423,
			"0.01": 6.45580024658,
			"0.011": 5.99838294668,
			"0.012": 2.19454762563,
			"0.013": 1.51752528407,
			"0.014": 2.1504067907,
			"0.015": 0.0488614238891,
			"0.016": 0.0,
			"0.017": 0.0,
			"0.018": 0.0,
			"0.019": 0.0,
			"0.02": 0.0,
			"0.021": 0.0,
			"0.022": 0.0,
			"0.023": 0.0,
			"0.024": 0.0,
			"0.025": 0.0
		}
	}
}
