{
	 "smiles": "CC1=CC(C(O)=O)=C(NC(=O)C2=CC(Cl)=CC=C2)C=C1", 
	 "Tm": 465.15, 
	 "num_atms": 32, 
	 "gaussian": { 
		 "optdone": 1, 
		 "sigma_profile": "yes", 
		 "theory": "DFT", 
		 "functional": "B3LYP", 
		 "basiset": "6-31G**", 
		 "properties": { 
			 "R2extent": 8118.379, 
			 "electric_dipole_moment_norm": 5.88451253801, 
			 "electric_quadrupole_moment_norm": 8.81862865246, 
			 "total_energy": -1319.48708452, 
			 "HOMO_LUMO_gap": 0.16256, 
			 "cosmo_polarized_energy": -15.04, 
			 "cosmo_cavitation_energy": 38.68, 
			 "cosmo_dispersion_energy": -27.39, 
			 "cosmo_repulsion_energy": 2.12, 
			 "cosmo_total_nonelectrostatic_energy": 13.41, 
			 "SMD_solvation_energy": 7.92 
		},
		"coords": [
			{
				"x": -2.8525365622,
				"y": -2.6166709103,
				"z": 2.7863422301,
				"element": "C" 
			},
			{
				"x": -1.9004450656,
				"y": -2.0303323227,
				"z": 1.7718219,
				"element": "C" 
			},
			{
				"x": -1.4629783232,
				"y": -2.7594614764,
				"z": 0.6720279876,
				"element": "C" 
			},
			{
				"x": -0.5693675723,
				"y": -2.2291078615,
				"z": -0.2778317731,
				"element": "C" 
			},
			{
				"x": -0.1923083659,
				"y": -3.0441549764,
				"z": -1.4519171148,
				"element": "C" 
			},
			{
				"x": -0.6095785018,
				"y": -4.3298419086,
				"z": -1.3772097684,
				"element": "O" 
			},
			{
				"x": 0.424644492,
				"y": -2.6477179646,
				"z": -2.4331087953,
				"element": "O" 
			},
			{
				"x": -0.0771342653,
				"y": -0.9051226687,
				"z": -0.1168256315,
				"element": "C" 
			},
			{
				"x": 0.8067273974,
				"y": -0.3705190607,
				"z": -1.0563986039,
				"element": "N" 
			},
			{
				"x": 1.6238792228,
				"y": 0.7530678826,
				"z": -1.0326748975,
				"element": "C" 
			},
			{
				"x": 1.9604116519,
				"y": 1.2761042171,
				"z": -2.0863175218,
				"element": "O" 
			},
			{
				"x": 2.1769127733,
				"y": 1.2547130352,
				"z": 0.27161086,
				"element": "C" 
			},
			{
				"x": 2.4110776026,
				"y": 2.6315032352,
				"z": 0.3805227509,
				"element": "C" 
			},
			{
				"x": 3.0055442906,
				"y": 3.1322717415,
				"z": 1.5346040996,
				"element": "C" 
			},
			{
				"x": 3.2724267743,
				"y": 4.8627149095,
				"z": 1.6857865849,
				"element": "Cl" 
			},
			{
				"x": 3.4047514007,
				"y": 2.2864167589,
				"z": 2.5707113421,
				"element": "C" 
			},
			{
				"x": 3.1960862929,
				"y": 0.9126810084,
				"z": 2.4396572512,
				"element": "C" 
			},
			{
				"x": 2.5795148177,
				"y": 0.3941802065,
				"z": 1.3017089989,
				"element": "C" 
			},
			{
				"x": -0.5538951387,
				"y": -0.1560685191,
				"z": 0.9755634314,
				"element": "C" 
			},
			{
				"x": -1.4316996867,
				"y": -0.7113622729,
				"z": 1.8945134306,
				"element": "C" 
			},
			{
				"x": -2.3856331383,
				"y": -2.6934982125,
				"z": 3.7754363734,
				"element": "H" 
			},
			{
				"x": -3.1768369039,
				"y": -3.6189395308,
				"z": 2.4941065767,
				"element": "H" 
			},
			{
				"x": -3.7478500387,
				"y": -1.9952008844,
				"z": 2.9012283769,
				"element": "H" 
			},
			{
				"x": -1.8203991657,
				"y": -3.7720888604,
				"z": 0.5232504003,
				"element": "H" 
			},
			{
				"x": -0.327067314,
				"y": -4.7442217876,
				"z": -2.209129463,
				"element": "H" 
			},
			{
				"x": 0.7881351461,
				"y": -0.8371720269,
				"z": -1.9625049275,
				"element": "H" 
			},
			{
				"x": 2.1374832918,
				"y": 3.2866330891,
				"z": -0.4381291673,
				"element": "H" 
			},
			{
				"x": 3.8756107487,
				"y": 2.6979666561,
				"z": 3.4566039495,
				"element": "H" 
			},
			{
				"x": 3.5199321319,
				"y": 0.2453160079,
				"z": 3.232554238,
				"element": "H" 
			},
			{
				"x": 2.4246663437,
				"y": -0.6748893573,
				"z": 1.2070309694,
				"element": "H" 
			},
			{
				"x": -0.2431969959,
				"y": 0.8740323654,
				"z": 1.0915597963,
				"element": "H" 
			},
			{
				"x": -1.7775773401,
				"y": -0.0960305115,
				"z": 2.7218061164,
				"element": "H" 
			}
		],
		 "valence_orbital": [ 
			{
				"type": "occ",
				"energy": -0.27648,
				"method": "rhf"
			},
			{
				"type": "occ",
				"energy": -0.27258,
				"method": "rhf"
			},
			{
				"type": "occ",
				"energy": -0.25664,
				"method": "rhf"
			},
			{
				"type": "occ",
				"energy": -0.25384,
				"method": "rhf"
			},
			{
				"type": "occ",
				"energy": -0.22552,
				"method": "rhf"
			},
			{
				"type": "unocc",
				"energy": -0.06296,
				"method": "rhf"
			},
			{
				"type": "unocc",
				"energy": -0.04832,
				"method": "rhf"
			},
			{
				"type": "unocc",
				"energy": -0.02081,
				"method": "rhf"
			},
			{
				"type": "unocc",
				"energy": -0.00989,
				"method": "rhf"
			},
			{
				"type": "unocc",
				"energy": 0.0264,
				"method": "rhf"
			}
		],
		"cosmo_sigma_profile": { 
			"-0.025": 0.0,
			"-0.024": 0.0,
			"-0.023": 0.0,
			"-0.022": 0.0,
			"-0.021": 0.0,
			"-0.02": 0.0,
			"-0.019": 0.120621647127,
			"-0.018": 0.901021396289,
			"-0.017": 0.736446682909,
			"-0.016": 0.778366051217,
			"-0.015": 0.851382783818,
			"-0.014": 0.972708344608,
			"-0.013": 0.286869601877,
			"-0.012": 0.676823459858,
			"-0.011": 1.08878215825,
			"-0.01": 0.452167391374,
			"-0.009": 0.380092709048,
			"-0.008": 1.80056209328,
			"-0.007": 8.3260480752,
			"-0.006": 13.3726700066,
			"-0.005": 18.3764982525,
			"-0.004": 20.8980353405,
			"-0.003": 23.4617148176,
			"-0.002": 24.4693340256,
			"-0.001": 25.3145323227,
			"0.0": 28.1813563481,
			"0.001": 28.9816304107,
			"0.002": 30.1777514935,
			"0.003": 24.2181671509,
			"0.004": 18.2251733682,
			"0.005": 7.63590883092,
			"0.006": 4.37937408335,
			"0.007": 3.95728122839,
			"0.008": 3.58873296944,
			"0.009": 3.08557117875,
			"0.01": 3.48703844188,
			"0.011": 4.31566878944,
			"0.012": 5.42721776359,
			"0.013": 2.96163877597,
			"0.014": 0.0840503166757,
			"0.015": 0.0,
			"0.016": 0.0,
			"0.017": 0.0,
			"0.018": 0.0,
			"0.019": 0.0,
			"0.02": 0.0,
			"0.021": 0.0,
			"0.022": 0.0,
			"0.023": 0.0,
			"0.024": 0.0,
			"0.025": 0.0
		}
	}
}
