{
	 "smiles": "COC1=CC=C(CCNC(=O)C=C/C2=CC(O)=C(O)C=C2)C=C1OC", 
	 "Tm": 372.15, 
	 "num_atms": 46, 
	 "gaussian": { 
		 "optdone": 1, 
		 "sigma_profile": "yes", 
		 "theory": "DFT", 
		 "functional": "B3LYP", 
		 "basiset": "6-31G**", 
		 "properties": { 
			 "R2extent": 9032.1725, 
			 "electric_dipole_moment_norm": 2.78533953047, 
			 "electric_quadrupole_moment_norm": 26.529864772, 
			 "total_energy": -1167.51727749, 
			 "HOMO_LUMO_gap": 0.15913, 
			 "cosmo_polarized_energy": -18.59, 
			 "cosmo_cavitation_energy": 47.9, 
			 "cosmo_dispersion_energy": -31.11, 
			 "cosmo_repulsion_energy": 2.34, 
			 "cosmo_total_nonelectrostatic_energy": 19.12, 
			 "SMD_solvation_energy": 9.54 
		},
		"coords": [
			{
				"x": -1.3100518489,
				"y": -2.2907563258,
				"z": 4.394034382,
				"element": "C" 
			},
			{
				"x": -1.4887132914,
				"y": -2.2668693738,
				"z": 2.9707189031,
				"element": "O" 
			},
			{
				"x": -1.8496195777,
				"y": -1.0449806403,
				"z": 2.4520690575,
				"element": "C" 
			},
			{
				"x": -3.1225770887,
				"y": -0.8967803838,
				"z": 1.889431613,
				"element": "C" 
			},
			{
				"x": -3.5213646173,
				"y": 0.3253252801,
				"z": 1.3393823795,
				"element": "C" 
			},
			{
				"x": -2.6619607905,
				"y": 1.4316520328,
				"z": 1.3511129684,
				"element": "C" 
			},
			{
				"x": -3.0772329911,
				"y": 2.7649569613,
				"z": 0.7700973655,
				"element": "C" 
			},
			{
				"x": -3.0290576994,
				"y": 2.8384095305,
				"z": -0.7742929303,
				"element": "C" 
			},
			{
				"x": -1.7644100292,
				"y": 2.427080875,
				"z": -1.3676729606,
				"element": "N" 
			},
			{
				"x": -0.5864862088,
				"y": 3.0677902804,
				"z": -1.1120441542,
				"element": "C" 
			},
			{
				"x": -0.5238597045,
				"y": 4.0319468869,
				"z": -0.3449509404,
				"element": "O" 
			},
			{
				"x": 0.6398440018,
				"y": 2.6153505551,
				"z": -1.834644294,
				"element": "C" 
			},
			{
				"x": 0.9835778595,
				"y": 1.4565199649,
				"z": -2.4359730458,
				"element": "C" 
			},
			{
				"x": 0.3181384245,
				"y": 0.1479264027,
				"z": -2.5535732854,
				"element": "C" 
			},
			{
				"x": -0.5189541919,
				"y": -0.4022514138,
				"z": -1.5569542317,
				"element": "C" 
			},
			{
				"x": -1.0910480695,
				"y": -1.6557174979,
				"z": -1.7305577232,
				"element": "C" 
			},
			{
				"x": -1.909939821,
				"y": -2.2788538466,
				"z": -0.8276414921,
				"element": "O" 
			},
			{
				"x": -0.8393824538,
				"y": -2.4043106826,
				"z": -2.8988900285,
				"element": "C" 
			},
			{
				"x": -1.4033002772,
				"y": -3.6294861542,
				"z": -3.0562522615,
				"element": "O" 
			},
			{
				"x": 0.0023937218,
				"y": -1.8809320385,
				"z": -3.8765109888,
				"element": "C" 
			},
			{
				"x": 0.5816161131,
				"y": -0.6258163907,
				"z": -3.697462464,
				"element": "C" 
			},
			{
				"x": -1.3818176454,
				"y": 1.2702368004,
				"z": 1.9013656007,
				"element": "C" 
			},
			{
				"x": -0.964599044,
				"y": 0.0520273726,
				"z": 2.4415836729,
				"element": "C" 
			},
			{
				"x": 0.2896123528,
				"y": -0.0326660087,
				"z": 2.9983747563,
				"element": "O" 
			},
			{
				"x": 1.2136446298,
				"y": -0.8713919995,
				"z": 2.2908938862,
				"element": "C" 
			},
			{
				"x": -0.5269396948,
				"y": -1.5947259381,
				"z": 4.7084515545,
				"element": "H" 
			},
			{
				"x": -2.2484030917,
				"y": -2.0413823134,
				"z": 4.9047103122,
				"element": "H" 
			},
			{
				"x": -1.0220541257,
				"y": -3.3129154329,
				"z": 4.6467329371,
				"element": "H" 
			},
			{
				"x": -3.7969125773,
				"y": -1.7478436621,
				"z": 1.9201721171,
				"element": "H" 
			},
			{
				"x": -4.521164634,
				"y": 0.4201065335,
				"z": 0.9230450901,
				"element": "H" 
			},
			{
				"x": -2.4310546249,
				"y": 3.5521843532,
				"z": 1.161357425,
				"element": "H" 
			},
			{
				"x": -4.1061208078,
				"y": 2.9999658817,
				"z": 1.0705202162,
				"element": "H" 
			},
			{
				"x": -3.2591501874,
				"y": 3.8698559603,
				"z": -1.0695263854,
				"element": "H" 
			},
			{
				"x": -3.8005529852,
				"y": 2.1919572866,
				"z": -1.2038240512,
				"element": "H" 
			},
			{
				"x": -1.7674065396,
				"y": 1.6687754878,
				"z": -2.0324616581,
				"element": "H" 
			},
			{
				"x": 1.3725321029,
				"y": 3.4175080445,
				"z": -1.8530093492,
				"element": "H" 
			},
			{
				"x": 1.9453524974,
				"y": 1.4840151543,
				"z": -2.9490434148,
				"element": "H" 
			},
			{
				"x": -0.7033818902,
				"y": 0.1397633982,
				"z": -0.6353067919,
				"element": "H" 
			},
			{
				"x": -2.0786898369,
				"y": -1.7186065103,
				"z": -0.0528883072,
				"element": "H" 
			},
			{
				"x": -1.9287766366,
				"y": -3.8067341788,
				"z": -2.2601602917,
				"element": "H" 
			},
			{
				"x": 0.198433117,
				"y": -2.471644535,
				"z": -4.7651708292,
				"element": "H" 
			},
			{
				"x": 1.2427615346,
				"y": -0.2315866888,
				"z": -4.4638609148,
				"element": "H" 
			},
			{
				"x": -0.6827230287,
				"y": 2.101343184,
				"z": 1.9121391496,
				"element": "H" 
			},
			{
				"x": 2.1492725279,
				"y": -0.8328990715,
				"z": 2.8517887876,
				"element": "H" 
			},
			{
				"x": 0.8554855722,
				"y": -1.9042063373,
				"z": 2.237785735,
				"element": "H" 
			},
			{
				"x": 1.3835415558,
				"y": -0.4896408025,
				"z": 1.2769048844,
				"element": "H" 
			}
		],
		 "valence_orbital": [ 
			{
				"type": "occ",
				"energy": -0.25097,
				"method": "rhf"
			},
			{
				"type": "occ",
				"energy": -0.24374,
				"method": "rhf"
			},
			{
				"type": "occ",
				"energy": -0.24051,
				"method": "rhf"
			},
			{
				"type": "occ",
				"energy": -0.23471,
				"method": "rhf"
			},
			{
				"type": "occ",
				"energy": -0.2066,
				"method": "rhf"
			},
			{
				"type": "unocc",
				"energy": -0.04747,
				"method": "rhf"
			},
			{
				"type": "unocc",
				"energy": -0.01587,
				"method": "rhf"
			},
			{
				"type": "unocc",
				"energy": -0.01046,
				"method": "rhf"
			},
			{
				"type": "unocc",
				"energy": -0.0004,
				"method": "rhf"
			},
			{
				"type": "unocc",
				"energy": 0.02866,
				"method": "rhf"
			}
		],
		"cosmo_sigma_profile": { 
			"-0.025": 0.0,
			"-0.024": 0.0,
			"-0.023": 0.0,
			"-0.022": 0.0,
			"-0.021": 0.0,
			"-0.02": 0.0,
			"-0.019": 0.0,
			"-0.018": 0.0,
			"-0.017": 0.0,
			"-0.016": 0.0,
			"-0.015": 0.120502492139,
			"-0.014": 0.405936463208,
			"-0.013": 0.979774861398,
			"-0.012": 0.393728967967,
			"-0.011": 1.3016847098,
			"-0.01": 2.11348423664,
			"-0.009": 2.10188358002,
			"-0.008": 2.28967553949,
			"-0.007": 4.24655429226,
			"-0.006": 16.645678361,
			"-0.005": 25.9741929599,
			"-0.004": 35.4352486853,
			"-0.003": 37.6722506008,
			"-0.002": 41.5268252619,
			"-0.001": 31.6728288593,
			"0.0": 24.9683684168,
			"0.001": 23.938132954,
			"0.002": 23.2480559324,
			"0.003": 25.3257081844,
			"0.004": 22.3720384761,
			"0.005": 13.1465242492,
			"0.006": 7.22605562242,
			"0.007": 5.91619823904,
			"0.008": 4.99627600524,
			"0.009": 4.7389027476,
			"0.01": 4.94994660743,
			"0.011": 5.28169037002,
			"0.012": 2.26816566908,
			"0.013": 2.20743006615,
			"0.014": 3.74926441533,
			"0.015": 2.17209964849,
			"0.016": 0.308352877271,
			"0.017": 0.0,
			"0.018": 0.0,
			"0.019": 0.0,
			"0.02": 0.0,
			"0.021": 0.0,
			"0.022": 0.0,
			"0.023": 0.0,
			"0.024": 0.0,
			"0.025": 0.0
		}
	}
}
