{
	 "smiles": "CC(=O)NC1=CC=C(F)C=C1Br", 
	 "Tm": 390.65, 
	 "num_atms": 19, 
	 "gaussian": { 
		 "optdone": 1, 
		 "sigma_profile": "yes", 
		 "theory": "DFT", 
		 "functional": "B3LYP", 
		 "basiset": "6-31G**", 
		 "properties": { 
			 "R2extent": 4408.5001, 
			 "electric_dipole_moment_norm": 2.40597560461, 
			 "electric_quadrupole_moment_norm": 6.17347509592, 
			 "total_energy": -3110.30407526, 
			 "HOMO_LUMO_gap": 0.202, 
			 "cosmo_polarized_energy": -8.96, 
			 "cosmo_cavitation_energy": 26.03, 
			 "cosmo_dispersion_energy": -19.45, 
			 "cosmo_repulsion_energy": 1.52, 
			 "cosmo_total_nonelectrostatic_energy": 8.1, 
			 "SMD_solvation_energy": 4.67 
		},
		"coords": [
			{
				"x": -1.8564713058,
				"y": 0.8999532146,
				"z": -2.1945540009,
				"element": "C" 
			},
			{
				"x": -1.2572990504,
				"y": 0.9029289949,
				"z": -0.796255847,
				"element": "C" 
			},
			{
				"x": -0.9742485856,
				"y": 1.9453951973,
				"z": -0.2236170971,
				"element": "O" 
			},
			{
				"x": -1.0731074412,
				"y": -0.3545261383,
				"z": -0.2573164472,
				"element": "N" 
			},
			{
				"x": -0.5501544095,
				"y": -0.7013992291,
				"z": 0.9983709315,
				"element": "C" 
			},
			{
				"x": -0.1144000894,
				"y": 0.2525835791,
				"z": 1.9365142295,
				"element": "C" 
			},
			{
				"x": 0.3976103239,
				"y": -0.1372013534,
				"z": 3.1708451722,
				"element": "C" 
			},
			{
				"x": 0.4796161789,
				"y": -1.4881261711,
				"z": 3.480932094,
				"element": "C" 
			},
			{
				"x": 0.9746155265,
				"y": -1.8716528941,
				"z": 4.6748989694,
				"element": "F" 
			},
			{
				"x": 0.0616885837,
				"y": -2.4642877514,
				"z": 2.5860860131,
				"element": "C" 
			},
			{
				"x": -0.4478188671,
				"y": -2.0600106898,
				"z": 1.3564176505,
				"element": "C" 
			},
			{
				"x": -1.0187679538,
				"y": -3.4286788173,
				"z": 0.1372377175,
				"element": "Br" 
			},
			{
				"x": -2.7921595392,
				"y": 1.4653427399,
				"z": -2.1732959103,
				"element": "H" 
			},
			{
				"x": -1.1735827007,
				"y": 1.4269177335,
				"z": -2.8663405522,
				"element": "H" 
			},
			{
				"x": -2.0528966904,
				"y": -0.0972128736,
				"z": -2.5972091171,
				"element": "H" 
			},
			{
				"x": -1.3468132378,
				"y": -1.1414087498,
				"z": -0.829782232,
				"element": "H" 
			},
			{
				"x": -0.1887280111,
				"y": 1.2975807571,
				"z": 1.6710384862,
				"element": "H" 
			},
			{
				"x": 0.7323363206,
				"y": 0.6009534655,
				"z": 3.8911143329,
				"element": "H" 
			},
			{
				"x": 0.1341809482,
				"y": -3.512451014,
				"z": 2.847315607,
				"element": "H" 
			}
		],
		 "valence_orbital": [ 
			{
				"type": "occ",
				"energy": -0.31161,
				"method": "rhf"
			},
			{
				"type": "occ",
				"energy": -0.31095,
				"method": "rhf"
			},
			{
				"type": "occ",
				"energy": -0.26139,
				"method": "rhf"
			},
			{
				"type": "occ",
				"energy": -0.26114,
				"method": "rhf"
			},
			{
				"type": "occ",
				"energy": -0.22737,
				"method": "rhf"
			},
			{
				"type": "unocc",
				"energy": -0.02537,
				"method": "rhf"
			},
			{
				"type": "unocc",
				"energy": -0.02176,
				"method": "rhf"
			},
			{
				"type": "unocc",
				"energy": -0.01245,
				"method": "rhf"
			},
			{
				"type": "unocc",
				"energy": 0.03807,
				"method": "rhf"
			},
			{
				"type": "unocc",
				"energy": 0.07532,
				"method": "rhf"
			}
		],
		"cosmo_sigma_profile": { 
			"-0.025": 0.0,
			"-0.024": 0.0,
			"-0.023": 0.0,
			"-0.022": 0.0,
			"-0.021": 0.0,
			"-0.02": 0.0,
			"-0.019": 0.0,
			"-0.018": 0.0,
			"-0.017": 0.0,
			"-0.016": 0.0,
			"-0.015": 0.0,
			"-0.014": 0.0,
			"-0.013": 0.318376966982,
			"-0.012": 1.24805466197,
			"-0.011": 0.872736510603,
			"-0.01": 0.984437307477,
			"-0.009": 1.76555496073,
			"-0.008": 3.64959994297,
			"-0.007": 4.53076622192,
			"-0.006": 8.72910979674,
			"-0.005": 12.6639416376,
			"-0.004": 12.4504130311,
			"-0.003": 15.6237376923,
			"-0.002": 14.7920899698,
			"-0.001": 15.1597630442,
			"0.0": 19.8660436902,
			"0.001": 24.5425997797,
			"0.002": 21.669756329,
			"0.003": 17.7092027447,
			"0.004": 16.4171202405,
			"0.005": 2.91976488253,
			"0.006": 1.57289978518,
			"0.007": 1.35331147264,
			"0.008": 1.76756324301,
			"0.009": 1.47230454576,
			"0.01": 1.62660244651,
			"0.011": 1.80605990633,
			"0.012": 2.85669994194,
			"0.013": 2.59330687546,
			"0.014": 1.1868892804,
			"0.015": 0.010374340827,
			"0.016": 0.0,
			"0.017": 0.0,
			"0.018": 0.0,
			"0.019": 0.0,
			"0.02": 0.0,
			"0.021": 0.0,
			"0.022": 0.0,
			"0.023": 0.0,
			"0.024": 0.0,
			"0.025": 0.0
		}
	}
}
