{
	 "smiles": "NCC(C1=CNC2=C1C=CC=C2)C1=C(Cl)C=C(Cl)C=C1", 
	 "Tm": 404.15, 
	 "num_atms": 34, 
	 "gaussian": { 
		 "optdone": 1, 
		 "sigma_profile": "yes", 
		 "theory": "DFT", 
		 "functional": "B3LYP", 
		 "basiset": "6-31G**", 
		 "properties": { 
			 "R2extent": 8732.2895, 
			 "electric_dipole_moment_norm": 2.74156651205, 
			 "electric_quadrupole_moment_norm": 16.3280619251, 
			 "total_energy": -1648.02752294, 
			 "HOMO_LUMO_gap": 0.18039, 
			 "cosmo_polarized_energy": -14.65, 
			 "cosmo_cavitation_energy": 40.21, 
			 "cosmo_dispersion_energy": -28.36, 
			 "cosmo_repulsion_energy": 2.21, 
			 "cosmo_total_nonelectrostatic_energy": 14.06, 
			 "SMD_solvation_energy": 5.0 
		},
		"coords": [
			{
				"x": -1.5563339803,
				"y": -2.2336714366,
				"z": 1.6911138875,
				"element": "N" 
			},
			{
				"x": -0.3777058492,
				"y": -1.9962091989,
				"z": 0.8583725333,
				"element": "C" 
			},
			{
				"x": -0.7994229573,
				"y": -1.6737056704,
				"z": -0.6027275494,
				"element": "C" 
			},
			{
				"x": -1.6279779568,
				"y": -0.4146235547,
				"z": -0.7136013689,
				"element": "C" 
			},
			{
				"x": -2.8413065339,
				"y": -0.3614540502,
				"z": -1.3533295799,
				"element": "C" 
			},
			{
				"x": -3.3791068236,
				"y": 0.906106126,
				"z": -1.2665093128,
				"element": "N" 
			},
			{
				"x": -2.519637819,
				"y": 1.7114539585,
				"z": -0.5507776762,
				"element": "C" 
			},
			{
				"x": -1.3965118791,
				"y": 0.9143075732,
				"z": -0.1832537611,
				"element": "C" 
			},
			{
				"x": -0.3661823669,
				"y": 1.5303038117,
				"z": 0.5561116252,
				"element": "C" 
			},
			{
				"x": -0.4782431388,
				"y": 2.8706250947,
				"z": 0.9045332161,
				"element": "C" 
			},
			{
				"x": -1.604133195,
				"y": 3.6308452715,
				"z": 0.5303523045,
				"element": "C" 
			},
			{
				"x": -2.6371187603,
				"y": 3.061180845,
				"z": -0.2035977431,
				"element": "C" 
			},
			{
				"x": 0.4162673075,
				"y": -1.7286517452,
				"z": -1.5295878624,
				"element": "C" 
			},
			{
				"x": 0.9415454368,
				"y": -2.9476347105,
				"z": -1.9919288151,
				"element": "C" 
			},
			{
				"x": 0.1831375555,
				"y": -4.484336248,
				"z": -1.5555162148,
				"element": "Cl" 
			},
			{
				"x": 2.0599716194,
				"y": -3.0250042245,
				"z": -2.8220087204,
				"element": "C" 
			},
			{
				"x": 2.6857095815,
				"y": -1.8434946269,
				"z": -3.208497387,
				"element": "C" 
			},
			{
				"x": 4.0972146966,
				"y": -1.9220726892,
				"z": -4.2515541687,
				"element": "Cl" 
			},
			{
				"x": 2.2019064006,
				"y": -0.6086833579,
				"z": -2.7848338275,
				"element": "C" 
			},
			{
				"x": 1.079317564,
				"y": -0.5696685094,
				"z": -1.9602862225,
				"element": "C" 
			},
			{
				"x": -1.9642177493,
				"y": -3.1369458376,
				"z": 1.459570927,
				"element": "H" 
			},
			{
				"x": -1.285393594,
				"y": -2.2839291607,
				"z": 2.6693513311,
				"element": "H" 
			},
			{
				"x": 0.1650801723,
				"y": -1.1423432625,
				"z": 1.2742442007,
				"element": "H" 
			},
			{
				"x": 0.3322625247,
				"y": -2.8378122322,
				"z": 0.833270302,
				"element": "H" 
			},
			{
				"x": -1.4536998424,
				"y": -2.49859252,
				"z": -0.9109953911,
				"element": "H" 
			},
			{
				"x": -3.374896172,
				"y": -1.150470032,
				"z": -1.8652250639,
				"element": "H" 
			},
			{
				"x": -4.2700437248,
				"y": 1.1886958043,
				"z": -1.6399351594,
				"element": "H" 
			},
			{
				"x": 0.5175461918,
				"y": 0.972079033,
				"z": 0.8486793742,
				"element": "H" 
			},
			{
				"x": 0.3160997252,
				"y": 3.3426382517,
				"z": 1.4753577571,
				"element": "H" 
			},
			{
				"x": -1.6643662114,
				"y": 4.676526927,
				"z": 0.81720718,
				"element": "H" 
			},
			{
				"x": -3.5058537304,
				"y": 3.6435000877,
				"z": -0.498454902,
				"element": "H" 
			},
			{
				"x": 2.4279841143,
				"y": -3.9858095561,
				"z": -3.1596673481,
				"element": "H" 
			},
			{
				"x": 2.6900164064,
				"y": 0.3073206057,
				"z": -3.0978214726,
				"element": "H" 
			},
			{
				"x": 0.6951929878,
				"y": 0.3944292338,
				"z": -1.6484550917,
				"element": "H" 
			}
		],
		 "valence_orbital": [ 
			{
				"type": "occ",
				"energy": -0.25736,
				"method": "rhf"
			},
			{
				"type": "occ",
				"energy": -0.24301,
				"method": "rhf"
			},
			{
				"type": "occ",
				"energy": -0.23083,
				"method": "rhf"
			},
			{
				"type": "occ",
				"energy": -0.21984,
				"method": "rhf"
			},
			{
				"type": "occ",
				"energy": -0.1999,
				"method": "rhf"
			},
			{
				"type": "unocc",
				"energy": -0.01951,
				"method": "rhf"
			},
			{
				"type": "unocc",
				"energy": -0.01692,
				"method": "rhf"
			},
			{
				"type": "unocc",
				"energy": -0.00781,
				"method": "rhf"
			},
			{
				"type": "unocc",
				"energy": 0.00947,
				"method": "rhf"
			},
			{
				"type": "unocc",
				"energy": 0.02762,
				"method": "rhf"
			}
		],
		"cosmo_sigma_profile": { 
			"-0.025": 0.0,
			"-0.024": 0.0,
			"-0.023": 0.0,
			"-0.022": 0.0,
			"-0.021": 0.0,
			"-0.02": 0.0,
			"-0.019": 0.0,
			"-0.018": 0.0,
			"-0.017": 0.0,
			"-0.016": 0.25640859088,
			"-0.015": 1.53829905837,
			"-0.014": 1.18111068795,
			"-0.013": 1.4621501143,
			"-0.012": 1.01578675121,
			"-0.011": 1.46463105001,
			"-0.01": 2.13109876256,
			"-0.009": 3.52321345957,
			"-0.008": 7.06372686399,
			"-0.007": 9.8109203282,
			"-0.006": 11.9064229651,
			"-0.005": 17.2807219402,
			"-0.004": 18.7348504578,
			"-0.003": 18.7514544672,
			"-0.002": 21.0899492206,
			"-0.001": 25.1842784885,
			"0.0": 23.1605357224,
			"0.001": 26.6421237965,
			"0.002": 30.7914497683,
			"0.003": 27.2412212134,
			"0.004": 28.4929129719,
			"0.005": 18.0809088193,
			"0.006": 9.01790542999,
			"0.007": 7.85312442052,
			"0.008": 1.68614851496,
			"0.009": 1.29489977907,
			"0.01": 1.17097853202,
			"0.011": 0.761665510193,
			"0.012": 1.47560646765,
			"0.013": 0.712389721735,
			"0.014": 1.02017583864,
			"0.015": 0.705616499999,
			"0.016": 0.589727708769,
			"0.017": 0.683723212841,
			"0.018": 0.916545128491,
			"0.019": 0.34809818982,
			"0.02": 0.0,
			"0.021": 0.0,
			"0.022": 0.0,
			"0.023": 0.0,
			"0.024": 0.0,
			"0.025": 0.0
		}
	}
}
