{
	 "smiles": "ClCC1=NN=C(O1)C1=CC=C(Br)S1", 
	 "Tm": 383.15, 
	 "num_atms": 17, 
	 "gaussian": { 
		 "optdone": 1, 
		 "sigma_profile": "yes", 
		 "theory": "DFT", 
		 "functional": "B3LYP", 
		 "basiset": "6-31G**", 
		 "properties": { 
			 "R2extent": 6247.9513, 
			 "electric_dipole_moment_norm": 2.43921447192, 
			 "electric_quadrupole_moment_norm": 13.1310230355, 
			 "total_energy": -3883.61377492, 
			 "HOMO_LUMO_gap": 0.16089, 
			 "cosmo_polarized_energy": -10.64, 
			 "cosmo_cavitation_energy": 28.87, 
			 "cosmo_dispersion_energy": -22.12, 
			 "cosmo_repulsion_energy": 1.73, 
			 "cosmo_total_nonelectrostatic_energy": 8.48, 
			 "SMD_solvation_energy": 1.55 
		},
		"coords": [
			{
				"x": 0.0850085468,
				"y": -0.7855916895,
				"z": -4.8840616741,
				"element": "Cl" 
			},
			{
				"x": 0.1359704086,
				"y": 0.978976484,
				"z": -4.4326860509,
				"element": "C" 
			},
			{
				"x": -0.5179921085,
				"y": 1.2441045773,
				"z": -3.134118016,
				"element": "C" 
			},
			{
				"x": -1.6337538418,
				"y": 1.8679149387,
				"z": -2.9182389643,
				"element": "N" 
			},
			{
				"x": -1.8275832918,
				"y": 1.876531641,
				"z": -1.5432113746,
				"element": "N" 
			},
			{
				"x": -0.807044556,
				"y": 1.2469163176,
				"z": -1.02708266,
				"element": "C" 
			},
			{
				"x": 0.0723991263,
				"y": 0.8186564986,
				"z": -1.9791119508,
				"element": "O" 
			},
			{
				"x": -0.5319721626,
				"y": 0.9788312858,
				"z": 0.3613566438,
				"element": "C" 
			},
			{
				"x": -1.3097363398,
				"y": 1.3493531182,
				"z": 1.4360541598,
				"element": "C" 
			},
			{
				"x": -0.770396745,
				"y": 0.9381810842,
				"z": 2.6831574566,
				"element": "C" 
			},
			{
				"x": 0.4116321633,
				"y": 0.2602579507,
				"z": 2.5324983489,
				"element": "C" 
			},
			{
				"x": 1.4764526318,
				"y": -0.4674693982,
				"z": 3.9012771552,
				"element": "Br" 
			},
			{
				"x": 0.8951589484,
				"y": 0.1052541602,
				"z": 0.8708533462,
				"element": "S" 
			},
			{
				"x": 1.1898044897,
				"y": 1.258654183,
				"z": -4.4161789737,
				"element": "H" 
			},
			{
				"x": -0.3921293187,
				"y": 1.5307527308,
				"z": -5.2081425204,
				"element": "H" 
			},
			{
				"x": -2.2358791553,
				"y": 1.8986413686,
				"z": 1.3179670205,
				"element": "H" 
			},
			{
				"x": -1.2282387954,
				"y": 1.130534749,
				"z": 3.6448680538,
				"element": "H" 
			}
		],
		 "valence_orbital": [ 
			{
				"type": "occ",
				"energy": -0.31198,
				"method": "rhf"
			},
			{
				"type": "occ",
				"energy": -0.30048,
				"method": "rhf"
			},
			{
				"type": "occ",
				"energy": -0.29146,
				"method": "rhf"
			},
			{
				"type": "occ",
				"energy": -0.28255,
				"method": "rhf"
			},
			{
				"type": "occ",
				"energy": -0.23765,
				"method": "rhf"
			},
			{
				"type": "unocc",
				"energy": -0.07676,
				"method": "rhf"
			},
			{
				"type": "unocc",
				"energy": -0.03279,
				"method": "rhf"
			},
			{
				"type": "unocc",
				"energy": -0.01904,
				"method": "rhf"
			},
			{
				"type": "unocc",
				"energy": 0.00039,
				"method": "rhf"
			},
			{
				"type": "unocc",
				"energy": 0.0121,
				"method": "rhf"
			}
		],
		"cosmo_sigma_profile": { 
			"-0.025": 0.0,
			"-0.024": 0.0,
			"-0.023": 0.0,
			"-0.022": 0.0,
			"-0.021": 0.0,
			"-0.02": 0.0,
			"-0.019": 0.0,
			"-0.018": 0.0,
			"-0.017": 0.0,
			"-0.016": 0.0,
			"-0.015": 0.0,
			"-0.014": 0.0,
			"-0.013": 0.0,
			"-0.012": 0.0,
			"-0.011": 0.203115576985,
			"-0.01": 3.5398896503,
			"-0.009": 5.50798449612,
			"-0.008": 7.95393729351,
			"-0.007": 7.25211589402,
			"-0.006": 10.8664274325,
			"-0.005": 8.95870734414,
			"-0.004": 10.5521529542,
			"-0.003": 10.734340188,
			"-0.002": 15.543924618,
			"-0.001": 20.5631592601,
			"0.0": 28.1515424733,
			"0.001": 28.9910613521,
			"0.002": 23.3629778193,
			"0.003": 17.0214779333,
			"0.004": 8.20286321547,
			"0.005": 10.8836310209,
			"0.006": 4.76977836533,
			"0.007": 1.87189428826,
			"0.008": 2.06886152151,
			"0.009": 2.08040922962,
			"0.01": 2.97824886151,
			"0.011": 3.19108844302,
			"0.012": 2.64196685578,
			"0.013": 2.04285667575,
			"0.014": 1.29905645855,
			"0.015": 0.000397831347576,
			"0.016": 0.0,
			"0.017": 0.0,
			"0.018": 0.0,
			"0.019": 0.0,
			"0.02": 0.0,
			"0.021": 0.0,
			"0.022": 0.0,
			"0.023": 0.0,
			"0.024": 0.0,
			"0.025": 0.0
		}
	}
}
