{
	 "smiles": "CC(C)(C)OC(=O)N1CCC(CC1)(N1C=CC=N1)C(O)=O", 
	 "Tm": 433.15, 
	 "num_atms": 42, 
	 "gaussian": { 
		 "optdone": 1, 
		 "sigma_profile": "yes", 
		 "theory": "DFT", 
		 "functional": "B3LYP", 
		 "basiset": "6-31G**", 
		 "properties": { 
			 "R2extent": 6887.3104, 
			 "electric_dipole_moment_norm": 4.29940082802, 
			 "electric_quadrupole_moment_norm": 26.4698228698, 
			 "total_energy": -1011.32138093, 
			 "HOMO_LUMO_gap": 0.23115, 
			 "cosmo_polarized_energy": -16.46, 
			 "cosmo_cavitation_energy": 41.94, 
			 "cosmo_dispersion_energy": -28.39, 
			 "cosmo_repulsion_energy": 2.15, 
			 "cosmo_total_nonelectrostatic_energy": 15.69, 
			 "SMD_solvation_energy": 8.84 
		},
		"coords": [
			{
				"x": 4.6495516003,
				"y": 1.7891836066,
				"z": 1.327078424,
				"element": "C" 
			},
			{
				"x": 3.6137279862,
				"y": 2.3057079602,
				"z": 0.3249009701,
				"element": "C" 
			},
			{
				"x": 2.8070163954,
				"y": 3.4624051766,
				"z": 0.9245892336,
				"element": "C" 
			},
			{
				"x": 4.2838708618,
				"y": 2.6898791994,
				"z": -0.9985220795,
				"element": "C" 
			},
			{
				"x": 2.745218659,
				"y": 1.132439217,
				"z": 0.1307963336,
				"element": "O" 
			},
			{
				"x": 1.6989237935,
				"y": 1.1783066309,
				"z": -0.7333449072,
				"element": "C" 
			},
			{
				"x": 1.3378600276,
				"y": 2.1612929335,
				"z": -1.3654955925,
				"element": "O" 
			},
			{
				"x": 1.051781644,
				"y": -0.0273129727,
				"z": -0.8040168934,
				"element": "N" 
			},
			{
				"x": 1.4988616778,
				"y": -1.2660936017,
				"z": -0.1720824951,
				"element": "C" 
			},
			{
				"x": 0.3969625684,
				"y": -1.8827186661,
				"z": 0.7108724441,
				"element": "C" 
			},
			{
				"x": -1.0241527627,
				"y": -1.6858322412,
				"z": 0.1278426932,
				"element": "C" 
			},
			{
				"x": -0.9202969391,
				"y": -1.3875006277,
				"z": -1.3922066909,
				"element": "C" 
			},
			{
				"x": -0.1234206471,
				"y": -0.107152352,
				"z": -1.6782770685,
				"element": "C" 
			},
			{
				"x": -1.7161567175,
				"y": -0.5486937298,
				"z": 0.7918357747,
				"element": "N" 
			},
			{
				"x": -1.2017438175,
				"y": 0.5021784097,
				"z": 1.4866870161,
				"element": "C" 
			},
			{
				"x": -2.2476166409,
				"y": 1.3612939068,
				"z": 1.7733143527,
				"element": "C" 
			},
			{
				"x": -3.3773984077,
				"y": 0.7544968622,
				"z": 1.1986832424,
				"element": "C" 
			},
			{
				"x": -3.0507763052,
				"y": -0.3875974677,
				"z": 0.5942492938,
				"element": "N" 
			},
			{
				"x": -1.8360453532,
				"y": -3.0257292552,
				"z": 0.2670672225,
				"element": "C" 
			},
			{
				"x": -3.1604035583,
				"y": -2.9430534615,
				"z": 0.2857557977,
				"element": "O" 
			},
			{
				"x": -1.2525220964,
				"y": -4.0875996308,
				"z": 0.2528128949,
				"element": "O" 
			},
			{
				"x": 5.366802326,
				"y": 2.5796501438,
				"z": 1.5667562415,
				"element": "H" 
			},
			{
				"x": 4.1653588854,
				"y": 1.4696729048,
				"z": 2.2547261815,
				"element": "H" 
			},
			{
				"x": 5.1985217567,
				"y": 0.9383783014,
				"z": 0.9129210587,
				"element": "H" 
			},
			{
				"x": 3.4785552456,
				"y": 4.2927906618,
				"z": 1.1659060553,
				"element": "H" 
			},
			{
				"x": 2.3178726527,
				"y": 3.1443011827,
				"z": 1.8512396358,
				"element": "H" 
			},
			{
				"x": 2.0486883999,
				"y": 3.8119774666,
				"z": 0.2240146227,
				"element": "H" 
			},
			{
				"x": 4.8144733883,
				"y": 1.8296730371,
				"z": -1.4190939352,
				"element": "H" 
			},
			{
				"x": 3.5482703384,
				"y": 3.0414348046,
				"z": -1.7220631159,
				"element": "H" 
			},
			{
				"x": 5.0149478493,
				"y": 3.4853539122,
				"z": -0.8215081762,
				"element": "H" 
			},
			{
				"x": 1.7903412705,
				"y": -1.9830563825,
				"z": -0.9519723625,
				"element": "H" 
			},
			{
				"x": 2.3882531437,
				"y": -1.0540815034,
				"z": 0.4167643497,
				"element": "H" 
			},
			{
				"x": 0.5606687213,
				"y": -2.9594288712,
				"z": 0.7837361238,
				"element": "H" 
			},
			{
				"x": 0.4391918759,
				"y": -1.4843956926,
				"z": 1.7278723451,
				"element": "H" 
			},
			{
				"x": -1.9206137851,
				"y": -1.2917389766,
				"z": -1.8228989661,
				"element": "H" 
			},
			{
				"x": -0.450899605,
				"y": -2.2591970272,
				"z": -1.8591837689,
				"element": "H" 
			},
			{
				"x": -0.7383077623,
				"y": 0.7793407157,
				"z": -1.5056934472,
				"element": "H" 
			},
			{
				"x": 0.1731161274,
				"y": -0.0850349255,
				"z": -2.7356273063,
				"element": "H" 
			},
			{
				"x": -0.1498956991,
				"y": 0.5843215695,
				"z": 1.7032026867,
				"element": "H" 
			},
			{
				"x": -2.1936118633,
				"y": 2.2922738118,
				"z": 2.3163900001,
				"element": "H" 
			},
			{
				"x": -4.4064821651,
				"y": 1.0865951237,
				"z": 1.1974323886,
				"element": "H" 
			},
			{
				"x": -3.4335930695,
				"y": -1.9811301532,
				"z": 0.3352394225,
				"element": "H" 
			}
		],
		 "valence_orbital": [ 
			{
				"type": "occ",
				"energy": -0.2835,
				"method": "rhf"
			},
			{
				"type": "occ",
				"energy": -0.27149,
				"method": "rhf"
			},
			{
				"type": "occ",
				"energy": -0.266,
				"method": "rhf"
			},
			{
				"type": "occ",
				"energy": -0.25723,
				"method": "rhf"
			},
			{
				"type": "occ",
				"energy": -0.2423,
				"method": "rhf"
			},
			{
				"type": "unocc",
				"energy": -0.01115,
				"method": "rhf"
			},
			{
				"type": "unocc",
				"energy": 0.01227,
				"method": "rhf"
			},
			{
				"type": "unocc",
				"energy": 0.04588,
				"method": "rhf"
			},
			{
				"type": "unocc",
				"energy": 0.04862,
				"method": "rhf"
			},
			{
				"type": "unocc",
				"energy": 0.06731,
				"method": "rhf"
			}
		],
		"cosmo_sigma_profile": { 
			"-0.025": 0.0,
			"-0.024": 0.0,
			"-0.023": 0.0,
			"-0.022": 0.0,
			"-0.021": 0.0,
			"-0.02": 0.0,
			"-0.019": 0.0,
			"-0.018": 0.0,
			"-0.017": 0.0,
			"-0.016": 0.0,
			"-0.015": 0.0,
			"-0.014": 0.0,
			"-0.013": 0.0,
			"-0.012": 0.0,
			"-0.011": 0.0,
			"-0.01": 0.0,
			"-0.009": 0.801512397422,
			"-0.008": 3.46306627814,
			"-0.007": 6.56070672935,
			"-0.006": 11.6672238974,
			"-0.005": 21.5455583497,
			"-0.004": 35.9012536489,
			"-0.003": 36.8733476635,
			"-0.002": 30.5135760294,
			"-0.001": 29.2753083425,
			"0.0": 35.4137022706,
			"0.001": 26.6612912785,
			"0.002": 15.7716772418,
			"0.003": 12.4053241301,
			"0.004": 12.2936964233,
			"0.005": 6.3255995216,
			"0.006": 5.16758572865,
			"0.007": 4.86374517766,
			"0.008": 3.55609806959,
			"0.009": 5.37003984222,
			"0.01": 4.78816439576,
			"0.011": 7.17167880431,
			"0.012": 6.03493077475,
			"0.013": 4.38199303707,
			"0.014": 2.03517224061,
			"0.015": 0.025208867081,
			"0.016": 0.0,
			"0.017": 0.0,
			"0.018": 0.0,
			"0.019": 0.0,
			"0.02": 0.0,
			"0.021": 0.0,
			"0.022": 0.0,
			"0.023": 0.0,
			"0.024": 0.0,
			"0.025": 0.0
		}
	}
}
