{
	 "smiles": "CCOC(=O)C(O)(CC#N)C1=NC=CN1C", 
	 "Tm": 391.15, 
	 "num_atms": 29, 
	 "gaussian": { 
		 "optdone": 1, 
		 "sigma_profile": "yes", 
		 "theory": "DFT", 
		 "functional": "B3LYP", 
		 "basiset": "6-31G**", 
		 "properties": { 
			 "R2extent": 3853.5771, 
			 "electric_dipole_moment_norm": 6.35830519714, 
			 "electric_quadrupole_moment_norm": 16.7602477458, 
			 "total_energy": -778.804345486, 
			 "HOMO_LUMO_gap": 0.22329, 
			 "cosmo_polarized_energy": -18.72, 
			 "cosmo_cavitation_energy": 33.27, 
			 "cosmo_dispersion_energy": -22.42, 
			 "cosmo_repulsion_energy": 1.77, 
			 "cosmo_total_nonelectrostatic_energy": 12.63, 
			 "SMD_solvation_energy": 7.4 
		},
		"coords": [
			{
				"x": 3.7878059125,
				"y": 0.2625141888,
				"z": -1.0357290242,
				"element": "C" 
			},
			{
				"x": 2.9619535362,
				"y": -1.0120580453,
				"z": -0.972158084,
				"element": "C" 
			},
			{
				"x": 1.5459166665,
				"y": -0.7038859055,
				"z": -0.8520076986,
				"element": "O" 
			},
			{
				"x": 1.0778398643,
				"y": -0.5038629799,
				"z": 0.3758815087,
				"element": "C" 
			},
			{
				"x": 1.7325854755,
				"y": -0.593463291,
				"z": 1.4000918017,
				"element": "O" 
			},
			{
				"x": -0.4425706759,
				"y": -0.1790802781,
				"z": 0.3789953279,
				"element": "C" 
			},
			{
				"x": -0.8516758815,
				"y": 0.3735143759,
				"z": -0.8372168438,
				"element": "O" 
			},
			{
				"x": -0.7360739757,
				"y": 0.8573520424,
				"z": 1.5012597071,
				"element": "C" 
			},
			{
				"x": -0.06023996,
				"y": 2.1350576512,
				"z": 1.2642681741,
				"element": "C" 
			},
			{
				"x": 0.4806206938,
				"y": 3.147758484,
				"z": 1.0975831032,
				"element": "N" 
			},
			{
				"x": -1.2186768375,
				"y": -1.4775845283,
				"z": 0.5948231986,
				"element": "C" 
			},
			{
				"x": -2.0136835356,
				"y": -1.9108282321,
				"z": -0.3663779998,
				"element": "N" 
			},
			{
				"x": -2.5637024671,
				"y": -3.0810437428,
				"z": 0.0915085362,
				"element": "C" 
			},
			{
				"x": -2.0878830345,
				"y": -3.3559901419,
				"z": 1.3470145872,
				"element": "C" 
			},
			{
				"x": -1.2186592111,
				"y": -2.3293639574,
				"z": 1.6689426335,
				"element": "N" 
			},
			{
				"x": -0.5225522728,
				"y": -2.2165909052,
				"z": 2.9504338028,
				"element": "C" 
			},
			{
				"x": 4.8406059427,
				"y": 0.0105721407,
				"z": -1.2009038259,
				"element": "H" 
			},
			{
				"x": 3.7106093118,
				"y": 0.8212682022,
				"z": -0.0999392493,
				"element": "H" 
			},
			{
				"x": 3.4519136122,
				"y": 0.9022733302,
				"z": -1.8561948437,
				"element": "H" 
			},
			{
				"x": 3.2575090127,
				"y": -1.6403484322,
				"z": -0.1287165749,
				"element": "H" 
			},
			{
				"x": 3.0296111657,
				"y": -1.5858503465,
				"z": -1.8987361995,
				"element": "H" 
			},
			{
				"x": -1.3978244728,
				"y": -0.3092503907,
				"z": -1.2746798195,
				"element": "H" 
			},
			{
				"x": -1.8169972804,
				"y": 1.0253722704,
				"z": 1.5200890858,
				"element": "H" 
			},
			{
				"x": -0.4201118857,
				"y": 0.4813835258,
				"z": 2.4766571232,
				"element": "H" 
			},
			{
				"x": -3.2592360148,
				"y": -3.6545388929,
				"z": -0.5041957997,
				"element": "H" 
			},
			{
				"x": -2.2748537009,
				"y": -4.1678036856,
				"z": 2.0336815976,
				"element": "H" 
			},
			{
				"x": -1.1446997679,
				"y": -1.6984010352,
				"z": 3.6876729138,
				"element": "H" 
			},
			{
				"x": 0.4177471156,
				"y": -1.6833961541,
				"z": 2.8148865537,
				"element": "H" 
			},
			{
				"x": -0.307677335,
				"y": -3.2214252669,
				"z": 3.319266308,
				"element": "H" 
			}
		],
		 "valence_orbital": [ 
			{
				"type": "occ",
				"energy": -0.30791,
				"method": "rhf"
			},
			{
				"type": "occ",
				"energy": -0.2957,
				"method": "rhf"
			},
			{
				"type": "occ",
				"energy": -0.29094,
				"method": "rhf"
			},
			{
				"type": "occ",
				"energy": -0.26893,
				"method": "rhf"
			},
			{
				"type": "occ",
				"energy": -0.24183,
				"method": "rhf"
			},
			{
				"type": "unocc",
				"energy": -0.01854,
				"method": "rhf"
			},
			{
				"type": "unocc",
				"energy": 0.01329,
				"method": "rhf"
			},
			{
				"type": "unocc",
				"energy": 0.0357,
				"method": "rhf"
			},
			{
				"type": "unocc",
				"energy": 0.04554,
				"method": "rhf"
			},
			{
				"type": "unocc",
				"energy": 0.05077,
				"method": "rhf"
			}
		],
		"cosmo_sigma_profile": { 
			"-0.025": 0.0,
			"-0.024": 0.0,
			"-0.023": 0.0,
			"-0.022": 0.0,
			"-0.021": 0.0,
			"-0.02": 0.0,
			"-0.019": 0.0,
			"-0.018": 0.0,
			"-0.017": 0.0,
			"-0.016": 0.0,
			"-0.015": 0.0,
			"-0.014": 0.0,
			"-0.013": 0.0,
			"-0.012": 0.0,
			"-0.011": 0.0,
			"-0.01": 0.443557045588,
			"-0.009": 5.69267542256,
			"-0.008": 8.75261295389,
			"-0.007": 12.6072543587,
			"-0.006": 16.8031073888,
			"-0.005": 16.8951226759,
			"-0.004": 24.8565785916,
			"-0.003": 22.4200038371,
			"-0.002": 19.1005937979,
			"-0.001": 17.5998049515,
			"0.0": 14.7402865926,
			"0.001": 10.9753093374,
			"0.002": 9.96128538368,
			"0.003": 11.0231650874,
			"0.004": 11.1125089257,
			"0.005": 9.18488407479,
			"0.006": 8.03172139654,
			"0.007": 7.69632468844,
			"0.008": 8.17826779903,
			"0.009": 7.68550453147,
			"0.01": 8.34637731335,
			"0.011": 6.65363415915,
			"0.012": 3.55684300749,
			"0.013": 2.23035734173,
			"0.014": 0.0579705197746,
			"0.015": 0.0,
			"0.016": 0.0,
			"0.017": 0.0,
			"0.018": 0.0,
			"0.019": 0.0,
			"0.02": 0.0,
			"0.021": 0.0,
			"0.022": 0.0,
			"0.023": 0.0,
			"0.024": 0.0,
			"0.025": 0.0
		}
	}
}
