{
	 "smiles": "ClCC1(CCl)COC1", 
	 "Tm": 291.85, 
	 "num_atms": 16, 
	 "gaussian": { 
		 "optdone": 1, 
		 "sigma_profile": "yes", 
		 "theory": "DFT", 
		 "functional": "B3LYP", 
		 "basiset": "6-31G**", 
		 "properties": { 
			 "R2extent": 1692.6896, 
			 "electric_dipole_moment_norm": 2.14178144076, 
			 "electric_quadrupole_moment_norm": 8.46164113396, 
			 "total_energy": -1190.9228782, 
			 "HOMO_LUMO_gap": 0.26705, 
			 "cosmo_polarized_energy": -9.16, 
			 "cosmo_cavitation_energy": 21.63, 
			 "cosmo_dispersion_energy": -16.23, 
			 "cosmo_repulsion_energy": 1.34, 
			 "cosmo_total_nonelectrostatic_energy": 6.75, 
			 "SMD_solvation_energy": 3.14 
		},
		"coords": [
			{
				"x": -1.312911979,
				"y": 0.4067822519,
				"z": 1.9660555583,
				"element": "Cl" 
			},
			{
				"x": 0.4220971427,
				"y": -0.0949205611,
				"z": 1.7301626196,
				"element": "C" 
			},
			{
				"x": 0.9186408281,
				"y": 0.1110595202,
				"z": 0.2992734892,
				"element": "C" 
			},
			{
				"x": 0.9134577455,
				"y": 1.5962341228,
				"z": -0.051080479,
				"element": "C" 
			},
			{
				"x": 1.5531269485,
				"y": 1.9639336227,
				"z": -1.7090830523,
				"element": "Cl" 
			},
			{
				"x": 2.2220325869,
				"y": -0.7047777115,
				"z": 0.0749566594,
				"element": "C" 
			},
			{
				"x": 1.5010445943,
				"y": -1.7288224332,
				"z": -0.6374079286,
				"element": "O" 
			},
			{
				"x": 0.3114601796,
				"y": -0.9072353224,
				"z": -0.6969712827,
				"element": "C" 
			},
			{
				"x": 0.4684463933,
				"y": -1.1519984826,
				"z": 1.9948039296,
				"element": "H" 
			},
			{
				"x": 1.0089698574,
				"y": 0.4822861828,
				"z": 2.4484156836,
				"element": "H" 
			},
			{
				"x": 1.5386217377,
				"y": 2.1598938619,
				"z": 0.6456122972,
				"element": "H" 
			},
			{
				"x": -0.0989545746,
				"y": 1.999056317,
				"z": -0.0186007563,
				"element": "H" 
			},
			{
				"x": 2.720643735,
				"y": -1.0913297843,
				"z": 0.9733615809,
				"element": "H" 
			},
			{
				"x": 2.957393271,
				"y": -0.195833071,
				"z": -0.5590525736,
				"element": "H" 
			},
			{
				"x": 0.142555928,
				"y": -0.5041092985,
				"z": -1.7015732172,
				"element": "H" 
			},
			{
				"x": -0.5831243946,
				"y": -1.4408192146,
				"z": -0.3578725281,
				"element": "H" 
			}
		],
		 "valence_orbital": [ 
			{
				"type": "occ",
				"energy": -0.3156,
				"method": "rhf"
			},
			{
				"type": "occ",
				"energy": -0.30971,
				"method": "rhf"
			},
			{
				"type": "occ",
				"energy": -0.30494,
				"method": "rhf"
			},
			{
				"type": "occ",
				"energy": -0.30031,
				"method": "rhf"
			},
			{
				"type": "occ",
				"energy": -0.25884,
				"method": "rhf"
			},
			{
				"type": "unocc",
				"energy": 0.00821,
				"method": "rhf"
			},
			{
				"type": "unocc",
				"energy": 0.01295,
				"method": "rhf"
			},
			{
				"type": "unocc",
				"energy": 0.06679,
				"method": "rhf"
			},
			{
				"type": "unocc",
				"energy": 0.08219,
				"method": "rhf"
			},
			{
				"type": "unocc",
				"energy": 0.10569,
				"method": "rhf"
			}
		],
		"cosmo_sigma_profile": { 
			"-0.025": 0.0,
			"-0.024": 0.0,
			"-0.023": 0.0,
			"-0.022": 0.0,
			"-0.021": 0.0,
			"-0.02": 0.0,
			"-0.019": 0.0,
			"-0.018": 0.0,
			"-0.017": 0.0,
			"-0.016": 0.0,
			"-0.015": 0.0,
			"-0.014": 0.0,
			"-0.013": 0.0,
			"-0.012": 0.0,
			"-0.011": 0.0,
			"-0.01": 0.230240002653,
			"-0.009": 2.21794265756,
			"-0.008": 5.99185496216,
			"-0.007": 8.59943347576,
			"-0.006": 10.6989779351,
			"-0.005": 12.3257660306,
			"-0.004": 15.3729057529,
			"-0.003": 12.6613446921,
			"-0.002": 9.07398755296,
			"-0.001": 8.50269221489,
			"0.0": 8.46420141023,
			"0.001": 9.2968401024,
			"0.002": 9.20813651906,
			"0.003": 10.7140594818,
			"0.004": 12.3578972057,
			"0.005": 12.4179297045,
			"0.006": 14.0265724352,
			"0.007": 2.56353725784,
			"0.008": 0.830706033561,
			"0.009": 1.00576481221,
			"0.01": 1.52057701257,
			"0.011": 1.56060529756,
			"0.012": 0.861127058662,
			"0.013": 2.59267360488,
			"0.014": 1.095442304,
			"0.015": 0.0,
			"0.016": 0.0,
			"0.017": 0.0,
			"0.018": 0.0,
			"0.019": 0.0,
			"0.02": 0.0,
			"0.021": 0.0,
			"0.022": 0.0,
			"0.023": 0.0,
			"0.024": 0.0,
			"0.025": 0.0
		}
	}
}
