{
	 "smiles": "FC1=CC=C(OCC(=O)N2CCNCC2)C=C1", 
	 "Tm": 363.15, 
	 "num_atms": 32, 
	 "gaussian": { 
		 "optdone": 1, 
		 "sigma_profile": "yes", 
		 "theory": "DFT", 
		 "functional": "B3LYP", 
		 "basiset": "6-31G**", 
		 "properties": { 
			 "R2extent": 6625.1837, 
			 "electric_dipole_moment_norm": 2.27711362475, 
			 "electric_quadrupole_moment_norm": 15.0884091312, 
			 "total_energy": -826.080683734, 
			 "HOMO_LUMO_gap": 0.20606, 
			 "cosmo_polarized_energy": -14.93, 
			 "cosmo_cavitation_energy": 35.06, 
			 "cosmo_dispersion_energy": -25.05, 
			 "cosmo_repulsion_energy": 1.91, 
			 "cosmo_total_nonelectrostatic_energy": 11.93, 
			 "SMD_solvation_energy": 3.87 
		},
		"coords": [
			{
				"x": -6.1332129767,
				"y": 1.1347635317,
				"z": 1.1982051913,
				"element": "F" 
			},
			{
				"x": -4.8817791754,
				"y": 0.725492328,
				"z": 0.8924891264,
				"element": "C" 
			},
			{
				"x": -4.7043864863,
				"y": -0.5135970307,
				"z": 0.2813955498,
				"element": "C" 
			},
			{
				"x": -3.4168876738,
				"y": -0.9326170379,
				"z": -0.0334560629,
				"element": "C" 
			},
			{
				"x": -2.3141689204,
				"y": -0.116974312,
				"z": 0.2606056349,
				"element": "C" 
			},
			{
				"x": -1.0913367721,
				"y": -0.6248892345,
				"z": -0.0955159775,
				"element": "O" 
			},
			{
				"x": 0.0633889858,
				"y": 0.1643402408,
				"z": 0.1570590479,
				"element": "C" 
			},
			{
				"x": 1.3199384715,
				"y": -0.580309581,
				"z": -0.3045328452,
				"element": "C" 
			},
			{
				"x": 2.2598337913,
				"y": -0.6987921309,
				"z": 0.4772239681,
				"element": "O" 
			},
			{
				"x": 1.3475896335,
				"y": -1.0546623796,
				"z": -1.5865387766,
				"element": "N" 
			},
			{
				"x": 2.5271908406,
				"y": -1.7863358524,
				"z": -2.0471434784,
				"element": "C" 
			},
			{
				"x": 3.2307452236,
				"y": -1.003957583,
				"z": -3.183233012,
				"element": "C" 
			},
			{
				"x": 2.2950900971,
				"y": -0.2273549336,
				"z": -4.0159006792,
				"element": "N" 
			},
			{
				"x": 0.960946193,
				"y": -0.8169455214,
				"z": -4.0086779529,
				"element": "C" 
			},
			{
				"x": 0.3090858249,
				"y": -0.8373953414,
				"z": -2.6021690525,
				"element": "C" 
			},
			{
				"x": -2.5096339624,
				"y": 1.1231893659,
				"z": 0.8782122352,
				"element": "C" 
			},
			{
				"x": -3.8054194246,
				"y": 1.5452388106,
				"z": 1.194587936,
				"element": "C" 
			},
			{
				"x": -5.5679576869,
				"y": -1.1318469905,
				"z": 0.0613550374,
				"element": "H" 
			},
			{
				"x": -3.2421133336,
				"y": -1.893050753,
				"z": -0.5067067655,
				"element": "H" 
			},
			{
				"x": 0.1953782793,
				"y": 0.3452356996,
				"z": 1.2280915002,
				"element": "H" 
			},
			{
				"x": -0.0118966493,
				"y": 1.1369673594,
				"z": -0.3550973503,
				"element": "H" 
			},
			{
				"x": 3.1848617893,
				"y": -1.928859689,
				"z": -1.1903084107,
				"element": "H" 
			},
			{
				"x": 2.208813375,
				"y": -2.7750388059,
				"z": -2.4022148124,
				"element": "H" 
			},
			{
				"x": 3.7796571683,
				"y": -1.716319142,
				"z": -3.8143198655,
				"element": "H" 
			},
			{
				"x": 3.9683075817,
				"y": -0.3135158021,
				"z": -2.7630857379,
				"element": "H" 
			},
			{
				"x": 2.2378359586,
				"y": 0.72158927,
				"z": -3.6564210561,
				"element": "H" 
			},
			{
				"x": 0.3101398523,
				"y": -0.2680985772,
				"z": -4.6972453926,
				"element": "H" 
			},
			{
				"x": 1.0400257261,
				"y": -1.8365353131,
				"z": -4.4039977606,
				"element": "H" 
			},
			{
				"x": -0.4699431599,
				"y": -1.6092698066,
				"z": -2.5454529631,
				"element": "H" 
			},
			{
				"x": -0.1797792921,
				"y": 0.1225447759,
				"z": -2.4142400915,
				"element": "H" 
			},
			{
				"x": -1.6728871585,
				"y": 1.7658828927,
				"z": 1.1234560696,
				"element": "H" 
			},
			{
				"x": -3.9785261198,
				"y": 2.5024215434,
				"z": 1.6743767466,
				"element": "H" 
			}
		],
		 "valence_orbital": [ 
			{
				"type": "occ",
				"energy": -0.2658,
				"method": "rhf"
			},
			{
				"type": "occ",
				"energy": -0.25331,
				"method": "rhf"
			},
			{
				"type": "occ",
				"energy": -0.24778,
				"method": "rhf"
			},
			{
				"type": "occ",
				"energy": -0.22492,
				"method": "rhf"
			},
			{
				"type": "occ",
				"energy": -0.22289,
				"method": "rhf"
			},
			{
				"type": "unocc",
				"energy": -0.01683,
				"method": "rhf"
			},
			{
				"type": "unocc",
				"energy": 0.00806,
				"method": "rhf"
			},
			{
				"type": "unocc",
				"energy": 0.01369,
				"method": "rhf"
			},
			{
				"type": "unocc",
				"energy": 0.06464,
				"method": "rhf"
			},
			{
				"type": "unocc",
				"energy": 0.08147,
				"method": "rhf"
			}
		],
		"cosmo_sigma_profile": { 
			"-0.025": 0.0,
			"-0.024": 0.0,
			"-0.023": 0.0,
			"-0.022": 0.0,
			"-0.021": 0.0,
			"-0.02": 0.0,
			"-0.019": 0.0,
			"-0.018": 0.0,
			"-0.017": 0.0,
			"-0.016": 0.0,
			"-0.015": 0.0,
			"-0.014": 0.0,
			"-0.013": 0.0,
			"-0.012": 0.0,
			"-0.011": 0.0727472976249,
			"-0.01": 0.960003384455,
			"-0.009": 1.81735925891,
			"-0.008": 3.21570083216,
			"-0.007": 14.4469070109,
			"-0.006": 14.4916690226,
			"-0.005": 20.3885515821,
			"-0.004": 27.783322528,
			"-0.003": 25.3846176385,
			"-0.002": 21.3743577311,
			"-0.001": 14.8574852108,
			"0.0": 12.8773628371,
			"0.001": 16.3802563351,
			"0.002": 18.0465406554,
			"0.003": 20.2796288238,
			"0.004": 21.9263145034,
			"0.005": 12.2144521099,
			"0.006": 3.3479374347,
			"0.007": 3.49799197197,
			"0.008": 3.06812314871,
			"0.009": 1.60802141969,
			"0.01": 1.48982990481,
			"0.011": 2.71912681272,
			"0.012": 2.71744989598,
			"0.013": 3.99723469901,
			"0.014": 4.66167869479,
			"0.015": 1.33820806125,
			"0.016": 0.514001304917,
			"0.017": 0.650252790834,
			"0.018": 0.365704220588,
			"0.019": 0.0334305913681,
			"0.02": 0.0,
			"0.021": 0.0,
			"0.022": 0.0,
			"0.023": 0.0,
			"0.024": 0.0,
			"0.025": 0.0
		}
	}
}
