{
	 "smiles": "OC(=O)C1=NN(C(=O)C1C=C1/C(=O)N(N=C1C(O)=O)C1=CC=CC=C1)C1=CC=CC=C1", 
	 "Tm": 531.15, 
	 "num_atms": 45, 
	 "gaussian": { 
		 "optdone": 1, 
		 "sigma_profile": "yes", 
		 "theory": "DFT", 
		 "functional": "B3LYP", 
		 "basiset": "6-31G**", 
		 "properties": { 
			 "R2extent": 17468.5523, 
			 "electric_dipole_moment_norm": 3.51930176882, 
			 "electric_quadrupole_moment_norm": 41.1248404892, 
			 "total_energy": -1478.98534779, 
			 "HOMO_LUMO_gap": 0.11741, 
			 "cosmo_polarized_energy": -24.58, 
			 "cosmo_cavitation_energy": 52.57, 
			 "cosmo_dispersion_energy": -36.65, 
			 "cosmo_repulsion_energy": 2.72, 
			 "cosmo_total_nonelectrostatic_energy": 18.63, 
			 "SMD_solvation_energy": 11.49 
		},
		"coords": [
			{
				"x": 3.960595716,
				"y": 0.7943722273,
				"z": -1.0682825442,
				"element": "O" 
			},
			{
				"x": 2.6174826595,
				"y": 0.818763869,
				"z": -1.1502543152,
				"element": "C" 
			},
			{
				"x": 2.0146978733,
				"y": 1.6225327538,
				"z": -1.8237091115,
				"element": "O" 
			},
			{
				"x": 1.9126052178,
				"y": -0.222792929,
				"z": -0.3563268262,
				"element": "C" 
			},
			{
				"x": 2.5731278746,
				"y": -1.0923322505,
				"z": 0.3326571483,
				"element": "N" 
			},
			{
				"x": 1.6973801275,
				"y": -1.9532573842,
				"z": 0.9467920057,
				"element": "N" 
			},
			{
				"x": 0.3550366334,
				"y": -1.6512628141,
				"z": 0.6358655686,
				"element": "C" 
			},
			{
				"x": -0.6305735523,
				"y": -2.2508536666,
				"z": 0.99644668,
				"element": "O" 
			},
			{
				"x": 0.427941745,
				"y": -0.3782706022,
				"z": -0.2433982755,
				"element": "C" 
			},
			{
				"x": -0.3161099445,
				"y": -0.5217827736,
				"z": -1.5346056188,
				"element": "C" 
			},
			{
				"x": -1.5126365356,
				"y": 0.0505128302,
				"z": -1.7734393249,
				"element": "C" 
			},
			{
				"x": -2.2703445668,
				"y": 0.970656445,
				"z": -0.8750286361,
				"element": "C" 
			},
			{
				"x": -1.9870381457,
				"y": 1.375863847,
				"z": 0.2425599973,
				"element": "O" 
			},
			{
				"x": -3.4199031893,
				"y": 1.2991146906,
				"z": -1.6219099068,
				"element": "N" 
			},
			{
				"x": -3.4286560175,
				"y": 0.670475159,
				"z": -2.8417297485,
				"element": "N" 
			},
			{
				"x": -2.3459675485,
				"y": -0.0451687477,
				"z": -2.9572501184,
				"element": "C" 
			},
			{
				"x": -2.0993340148,
				"y": -0.8290679857,
				"z": -4.1966182344,
				"element": "C" 
			},
			{
				"x": -3.0447574111,
				"y": -0.7049916908,
				"z": -5.1452340722,
				"element": "O" 
			},
			{
				"x": -1.1214056788,
				"y": -1.529312333,
				"z": -4.342973024,
				"element": "O" 
			},
			{
				"x": -4.5233966187,
				"y": 2.1164174053,
				"z": -1.242159816,
				"element": "C" 
			},
			{
				"x": -5.7127118312,
				"y": 2.0446711758,
				"z": -1.9793838976,
				"element": "C" 
			},
			{
				"x": -6.7935074938,
				"y": 2.8470690829,
				"z": -1.6218596897,
				"element": "C" 
			},
			{
				"x": -6.7039450328,
				"y": 3.7156162074,
				"z": -0.5325797988,
				"element": "C" 
			},
			{
				"x": -5.516875053,
				"y": 3.776179623,
				"z": 0.1973512402,
				"element": "C" 
			},
			{
				"x": -4.4204243322,
				"y": 2.9862020951,
				"z": -0.1480296011,
				"element": "C" 
			},
			{
				"x": 2.2016450764,
				"y": -2.9893090593,
				"z": 1.7883117371,
				"element": "C" 
			},
			{
				"x": 3.5538386765,
				"y": -2.9719892481,
				"z": 2.1563434261,
				"element": "C" 
			},
			{
				"x": 4.0576168242,
				"y": -3.9811286309,
				"z": 2.973322319,
				"element": "C" 
			},
			{
				"x": 3.2272093658,
				"y": -5.0048298262,
				"z": 3.4328177781,
				"element": "C" 
			},
			{
				"x": 1.8821684833,
				"y": -5.0101489979,
				"z": 3.0642429248,
				"element": "C" 
			},
			{
				"x": 1.357741727,
				"y": -4.0121512916,
				"z": 2.2427514267,
				"element": "C" 
			},
			{
				"x": 4.2262080343,
				"y": 0.0617894174,
				"z": -0.4854364352,
				"element": "H" 
			},
			{
				"x": -0.0183499519,
				"y": 0.4402871146,
				"z": 0.3401794807,
				"element": "H" 
			},
			{
				"x": 0.1102009782,
				"y": -1.1486741884,
				"z": -2.3135973594,
				"element": "H" 
			},
			{
				"x": -3.7300687753,
				"y": -0.0933499367,
				"z": -4.8221829008,
				"element": "H" 
			},
			{
				"x": -5.783181063,
				"y": 1.3677819389,
				"z": -2.8211939697,
				"element": "H" 
			},
			{
				"x": -7.7116917975,
				"y": 2.7864559219,
				"z": -2.1985825822,
				"element": "H" 
			},
			{
				"x": -7.550332325,
				"y": 4.3366819553,
				"z": -0.2560510546,
				"element": "H" 
			},
			{
				"x": -5.4330155219,
				"y": 4.4478811878,
				"z": 1.0464939002,
				"element": "H" 
			},
			{
				"x": -3.5038005457,
				"y": 3.0331998699,
				"z": 0.4226273248,
				"element": "H" 
			},
			{
				"x": 4.198280002,
				"y": -2.1772583096,
				"z": 1.8036031378,
				"element": "H" 
			},
			{
				"x": 5.1067171564,
				"y": -3.9609596826,
				"z": 3.2529860419,
				"element": "H" 
			},
			{
				"x": 3.6244540034,
				"y": -5.7876792209,
				"z": 4.0713744093,
				"element": "H" 
			},
			{
				"x": 1.224310486,
				"y": -5.800040712,
				"z": 3.4141211805,
				"element": "H" 
			},
			{
				"x": 0.3138682862,
				"y": -4.0192125354,
				"z": 1.9635691347,
				"element": "H" 
			}
		],
		 "valence_orbital": [ 
			{
				"type": "occ",
				"energy": -0.27698,
				"method": "rhf"
			},
			{
				"type": "occ",
				"energy": -0.26701,
				"method": "rhf"
			},
			{
				"type": "occ",
				"energy": -0.26212,
				"method": "rhf"
			},
			{
				"type": "occ",
				"energy": -0.24108,
				"method": "rhf"
			},
			{
				"type": "occ",
				"energy": -0.23437,
				"method": "rhf"
			},
			{
				"type": "unocc",
				"energy": -0.11696,
				"method": "rhf"
			},
			{
				"type": "unocc",
				"energy": -0.09289,
				"method": "rhf"
			},
			{
				"type": "unocc",
				"energy": -0.05268,
				"method": "rhf"
			},
			{
				"type": "unocc",
				"energy": -0.03781,
				"method": "rhf"
			},
			{
				"type": "unocc",
				"energy": -0.01674,
				"method": "rhf"
			}
		],
		"cosmo_sigma_profile": { 
			"-0.025": 0.0,
			"-0.024": 0.0,
			"-0.023": 0.0,
			"-0.022": 0.0,
			"-0.021": 0.0,
			"-0.02": 0.0,
			"-0.019": 0.0,
			"-0.018": 0.0,
			"-0.017": 0.0467175228698,
			"-0.016": 0.535440332729,
			"-0.015": 1.71944046346,
			"-0.014": 1.4315205923,
			"-0.013": 1.35398856185,
			"-0.012": 2.05244853071,
			"-0.011": 3.7524618507,
			"-0.01": 3.53098165311,
			"-0.009": 5.76927010307,
			"-0.008": 6.13984238451,
			"-0.007": 9.82151170997,
			"-0.006": 24.3930599855,
			"-0.005": 30.6044960037,
			"-0.004": 35.4324677159,
			"-0.003": 26.8412013466,
			"-0.002": 25.9834934362,
			"-0.001": 26.6475169129,
			"0.0": 25.8051453431,
			"0.001": 25.832142197,
			"0.002": 25.4412048876,
			"0.003": 27.5966972499,
			"0.004": 29.9353728587,
			"0.005": 18.4880878117,
			"0.006": 7.93588328888,
			"0.007": 9.13863733923,
			"0.008": 11.2485489524,
			"0.009": 14.4358262291,
			"0.01": 12.9261205627,
			"0.011": 7.09189135925,
			"0.012": 2.94643088027,
			"0.013": 0.115756820053,
			"0.014": 0.0,
			"0.015": 0.0,
			"0.016": 0.0,
			"0.017": 0.0,
			"0.018": 0.0,
			"0.019": 0.0,
			"0.02": 0.0,
			"0.021": 0.0,
			"0.022": 0.0,
			"0.023": 0.0,
			"0.024": 0.0,
			"0.025": 0.0
		}
	}
}
