{
	 "smiles": "NC1=CC(=CC(Br)=C1)C(O)=O", 
	 "Tm": 492.15, 
	 "num_atms": 17, 
	 "gaussian": { 
		 "optdone": 1, 
		 "sigma_profile": "yes", 
		 "theory": "DFT", 
		 "functional": "B3LYP", 
		 "basiset": "6-31G**", 
		 "properties": { 
			 "R2extent": 3268.3973, 
			 "electric_dipole_moment_norm": 4.56997048349, 
			 "electric_quadrupole_moment_norm": 22.6398145105, 
			 "total_energy": -3046.9756805, 
			 "HOMO_LUMO_gap": 0.17454, 
			 "cosmo_polarized_energy": -17.25, 
			 "cosmo_cavitation_energy": 24.21, 
			 "cosmo_dispersion_energy": -18.37, 
			 "cosmo_repulsion_energy": 1.49, 
			 "cosmo_total_nonelectrostatic_energy": 7.33, 
			 "SMD_solvation_energy": 4.17 
		},
		"coords": [
			{
				"x": 0.2028049559,
				"y": 0.2731141508,
				"z": -3.897946032,
				"element": "N" 
			},
			{
				"x": 0.0136797271,
				"y": 0.3331463226,
				"z": -2.5270042834,
				"element": "C" 
			},
			{
				"x": 0.5919145294,
				"y": -0.62480887,
				"z": -1.6785612261,
				"element": "C" 
			},
			{
				"x": 0.3668603293,
				"y": -0.5849313166,
				"z": -0.3028241319,
				"element": "C" 
			},
			{
				"x": -0.4629287749,
				"y": 0.3963701293,
				"z": 0.2596401196,
				"element": "C" 
			},
			{
				"x": -1.035872183,
				"y": 1.3371933262,
				"z": -0.5926642259,
				"element": "C" 
			},
			{
				"x": -2.1786708435,
				"y": 2.681507391,
				"z": 0.1433132068,
				"element": "Br" 
			},
			{
				"x": -0.8082147573,
				"y": 1.3286160455,
				"z": -1.9630044971,
				"element": "C" 
			},
			{
				"x": 1.0330108988,
				"y": -1.6444208842,
				"z": 0.5295983857,
				"element": "C" 
			},
			{
				"x": 1.1773857815,
				"y": -1.3772247435,
				"z": 1.8535036933,
				"element": "O" 
			},
			{
				"x": 1.4359939368,
				"y": -2.6886620251,
				"z": 0.074395854,
				"element": "O" 
			},
			{
				"x": 0.0445719447,
				"y": 1.1233499892,
				"z": -4.418204903,
				"element": "H" 
			},
			{
				"x": 1.002170888,
				"y": -0.2524090755,
				"z": -4.2197952107,
				"element": "H" 
			},
			{
				"x": 1.2206179854,
				"y": -1.4149338185,
				"z": -2.075958813,
				"element": "H" 
			},
			{
				"x": -0.707095461,
				"y": 0.4120935947,
				"z": 1.3157675735,
				"element": "H" 
			},
			{
				"x": -1.2722982308,
				"y": 2.0776748786,
				"z": -2.5955916834,
				"element": "H" 
			},
			{
				"x": 0.9578692737,
				"y": -0.4522750946,
				"z": 2.0329361734,
				"element": "H" 
			}
		],
		 "valence_orbital": [ 
			{
				"type": "occ",
				"energy": -0.306,
				"method": "rhf"
			},
			{
				"type": "occ",
				"energy": -0.29766,
				"method": "rhf"
			},
			{
				"type": "occ",
				"energy": -0.27587,
				"method": "rhf"
			},
			{
				"type": "occ",
				"energy": -0.25755,
				"method": "rhf"
			},
			{
				"type": "occ",
				"energy": -0.22819,
				"method": "rhf"
			},
			{
				"type": "unocc",
				"energy": -0.05365,
				"method": "rhf"
			},
			{
				"type": "unocc",
				"energy": -0.0175,
				"method": "rhf"
			},
			{
				"type": "unocc",
				"energy": -0.00378,
				"method": "rhf"
			},
			{
				"type": "unocc",
				"energy": 0.04646,
				"method": "rhf"
			},
			{
				"type": "unocc",
				"energy": 0.06463,
				"method": "rhf"
			}
		],
		"cosmo_sigma_profile": { 
			"-0.025": 0.0,
			"-0.024": 0.0,
			"-0.023": 0.0,
			"-0.022": 0.0,
			"-0.021": 0.0,
			"-0.02": 0.0,
			"-0.019": 0.0416815520548,
			"-0.018": 0.7245357063,
			"-0.017": 1.00937170485,
			"-0.016": 0.893535398179,
			"-0.015": 1.55657120175,
			"-0.014": 0.964361465339,
			"-0.013": 3.70247499216,
			"-0.012": 4.09797838745,
			"-0.011": 4.33654788857,
			"-0.01": 5.30331974559,
			"-0.009": 4.48303080965,
			"-0.008": 4.7776791466,
			"-0.007": 4.84714467278,
			"-0.006": 4.66344656435,
			"-0.005": 5.42065961118,
			"-0.004": 6.91348813607,
			"-0.003": 8.57089657671,
			"-0.002": 7.34343363304,
			"-0.001": 8.6778901651,
			"0.0": 10.4588647637,
			"0.001": 12.5736796494,
			"0.002": 21.1255613679,
			"0.003": 19.9351328918,
			"0.004": 15.2069672393,
			"0.005": 7.00951411107,
			"0.006": 3.22966041706,
			"0.007": 3.85777610244,
			"0.008": 2.80111793192,
			"0.009": 4.17780079058,
			"0.01": 5.73759943309,
			"0.011": 5.79847640152,
			"0.012": 5.17004588717,
			"0.013": 1.36561604624,
			"0.014": 0.00497008515055,
			"0.015": 0.0,
			"0.016": 0.0,
			"0.017": 0.0,
			"0.018": 0.0,
			"0.019": 0.0,
			"0.02": 0.0,
			"0.021": 0.0,
			"0.022": 0.0,
			"0.023": 0.0,
			"0.024": 0.0,
			"0.025": 0.0
		}
	}
}
