{
	 "smiles": "[O-][N+](=O)C1=CC(=C(C=C1Cl)C(C(=O)C1=CC=CC=C1)C1=CC=CC=C1)[N+]([O-])=O", 
	 "Tm": 404.15, 
	 "num_atms": 41, 
	 "gaussian": { 
		 "optdone": 1, 
		 "sigma_profile": "yes", 
		 "theory": "DFT", 
		 "functional": "B3LYP", 
		 "basiset": "6-31G**", 
		 "properties": { 
			 "R2extent": 12493.0446, 
			 "electric_dipole_moment_norm": 7.70409440103, 
			 "electric_quadrupole_moment_norm": 18.3338468263, 
			 "total_energy": -1715.5484925, 
			 "HOMO_LUMO_gap": 0.14773, 
			 "cosmo_polarized_energy": -19.12, 
			 "cosmo_cavitation_energy": 48.1, 
			 "cosmo_dispersion_energy": -32.78, 
			 "cosmo_repulsion_energy": 2.47, 
			 "cosmo_total_nonelectrostatic_energy": 17.78, 
			 "SMD_solvation_energy": 12.23 
		},
		"coords": [
			{
				"x": 0.7723745314,
				"y": 2.3240415891,
				"z": -6.1909962188,
				"element": "O" 
			},
			{
				"x": 1.2952152635,
				"y": 2.603447481,
				"z": -5.1182243294,
				"element": "N" 
			},
			{
				"x": 2.0238894383,
				"y": 3.5716738982,
				"z": -4.9092601704,
				"element": "O" 
			},
			{
				"x": 1.0118993652,
				"y": 1.7320862981,
				"z": -3.963111419,
				"element": "C" 
			},
			{
				"x": 1.033800097,
				"y": 2.3356940499,
				"z": -2.7114710412,
				"element": "C" 
			},
			{
				"x": 0.7663456856,
				"y": 1.6019641158,
				"z": -1.5633785762,
				"element": "C" 
			},
			{
				"x": 0.4620766204,
				"y": 0.2259458573,
				"z": -1.6164316248,
				"element": "C" 
			},
			{
				"x": 0.4441868907,
				"y": -0.3443387839,
				"z": -2.8957300461,
				"element": "C" 
			},
			{
				"x": 0.7171600201,
				"y": 0.3669227982,
				"z": -4.0667267519,
				"element": "C" 
			},
			{
				"x": 0.7173545038,
				"y": -0.5208580984,
				"z": -5.5591718513,
				"element": "Cl" 
			},
			{
				"x": 0.1028163933,
				"y": -0.7060850005,
				"z": -0.4584702758,
				"element": "C" 
			},
			{
				"x": -1.1047884633,
				"y": -0.1814664316,
				"z": 0.3543196732,
				"element": "C" 
			},
			{
				"x": -1.5261175416,
				"y": 0.9494064565,
				"z": 0.1744042307,
				"element": "O" 
			},
			{
				"x": -1.8125786244,
				"y": -1.1173102372,
				"z": 1.285004344,
				"element": "C" 
			},
			{
				"x": -1.5002817133,
				"y": -2.4813886845,
				"z": 1.4070717511,
				"element": "C" 
			},
			{
				"x": -2.2343087519,
				"y": -3.2956628483,
				"z": 2.2682579978,
				"element": "C" 
			},
			{
				"x": -3.2803913302,
				"y": -2.7577564977,
				"z": 3.0206689868,
				"element": "C" 
			},
			{
				"x": -3.5960982662,
				"y": -1.4005616316,
				"z": 2.9083366903,
				"element": "C" 
			},
			{
				"x": -2.8701606339,
				"y": -0.5873698978,
				"z": 2.0441453203,
				"element": "C" 
			},
			{
				"x": 1.3177878241,
				"y": -1.2062974749,
				"z": 0.3439651155,
				"element": "C" 
			},
			{
				"x": 1.535475618,
				"y": -0.8889897554,
				"z": 1.6896569797,
				"element": "C" 
			},
			{
				"x": 2.6366593627,
				"y": -1.4092313534,
				"z": 2.3704178846,
				"element": "C" 
			},
			{
				"x": 3.5406043803,
				"y": -2.2486473337,
				"z": 1.7182106781,
				"element": "C" 
			},
			{
				"x": 3.3330024783,
				"y": -2.5713508417,
				"z": 0.3766565342,
				"element": "C" 
			},
			{
				"x": 2.2269675247,
				"y": -2.0575278253,
				"z": -0.3003879338,
				"element": "C" 
			},
			{
				"x": 0.8550025768,
				"y": 2.3718285425,
				"z": -0.3078336978,
				"element": "N" 
			},
			{
				"x": 0.6590579804,
				"y": 3.5812842366,
				"z": -0.3767293656,
				"element": "O" 
			},
			{
				"x": 1.1621983349,
				"y": 1.765308043,
				"z": 0.7129336968,
				"element": "O" 
			},
			{
				"x": 1.2585070812,
				"y": 3.3907469909,
				"z": -2.6335954039,
				"element": "H" 
			},
			{
				"x": 0.1999374688,
				"y": -1.3955704746,
				"z": -2.9993457342,
				"element": "H" 
			},
			{
				"x": -0.2975255889,
				"y": -1.6032466054,
				"z": -0.9491615972,
				"element": "H" 
			},
			{
				"x": -0.6806742128,
				"y": -2.9143776145,
				"z": 0.8446906555,
				"element": "H" 
			},
			{
				"x": -1.9868754368,
				"y": -4.3493978367,
				"z": 2.3541782873,
				"element": "H" 
			},
			{
				"x": -3.8479174237,
				"y": -3.3943825753,
				"z": 3.6933802377,
				"element": "H" 
			},
			{
				"x": -4.4088517855,
				"y": -0.9799508403,
				"z": 3.492891546,
				"element": "H" 
			},
			{
				"x": -3.1034217491,
				"y": 0.4660569823,
				"z": 1.934237296,
				"element": "H" 
			},
			{
				"x": 0.854367843,
				"y": -0.2260203279,
				"z": 2.2095130072,
				"element": "H" 
			},
			{
				"x": 2.7888900288,
				"y": -1.1496804061,
				"z": 3.4139013186,
				"element": "H" 
			},
			{
				"x": 4.3987307364,
				"y": -2.6481162847,
				"z": 2.2506169346,
				"element": "H" 
			},
			{
				"x": 4.0266737186,
				"y": -3.2253509149,
				"z": -0.1437150382,
				"element": "H" 
			},
			{
				"x": 2.0744097551,
				"y": -2.320570763,
				"z": -1.3442180904,
				"element": "H" 
			}
		],
		 "valence_orbital": [ 
			{
				"type": "occ",
				"energy": -0.27512,
				"method": "rhf"
			},
			{
				"type": "occ",
				"energy": -0.2715,
				"method": "rhf"
			},
			{
				"type": "occ",
				"energy": -0.2684,
				"method": "rhf"
			},
			{
				"type": "occ",
				"energy": -0.26108,
				"method": "rhf"
			},
			{
				"type": "occ",
				"energy": -0.2547,
				"method": "rhf"
			},
			{
				"type": "unocc",
				"energy": -0.10697,
				"method": "rhf"
			},
			{
				"type": "unocc",
				"energy": -0.09195,
				"method": "rhf"
			},
			{
				"type": "unocc",
				"energy": -0.07372,
				"method": "rhf"
			},
			{
				"type": "unocc",
				"energy": -0.04264,
				"method": "rhf"
			},
			{
				"type": "unocc",
				"energy": -0.02452,
				"method": "rhf"
			}
		],
		"cosmo_sigma_profile": { 
			"-0.025": 0.0,
			"-0.024": 0.0,
			"-0.023": 0.0,
			"-0.022": 0.0,
			"-0.021": 0.0,
			"-0.02": 0.0,
			"-0.019": 0.0,
			"-0.018": 0.0,
			"-0.017": 0.0,
			"-0.016": 0.0,
			"-0.015": 0.0,
			"-0.014": 0.0,
			"-0.013": 0.0,
			"-0.012": 0.249392506761,
			"-0.011": 2.20273160137,
			"-0.01": 2.66479002862,
			"-0.009": 5.17496191032,
			"-0.008": 6.39292781662,
			"-0.007": 10.5414266922,
			"-0.006": 20.1803107892,
			"-0.005": 28.5515144617,
			"-0.004": 31.4679516901,
			"-0.003": 31.6755424851,
			"-0.002": 25.0816425251,
			"-0.001": 22.9549597404,
			"0.0": 20.8772168688,
			"0.001": 23.7276385603,
			"0.002": 28.3988824639,
			"0.003": 28.8847949933,
			"0.004": 24.1412302041,
			"0.005": 17.6667896256,
			"0.006": 16.6019604181,
			"0.007": 20.3490178286,
			"0.008": 10.5207476005,
			"0.009": 7.34603662024,
			"0.01": 2.56820486807,
			"0.011": 1.00922649194,
			"0.012": 0.0,
			"0.013": 0.0,
			"0.014": 0.0,
			"0.015": 0.0,
			"0.016": 0.0,
			"0.017": 0.0,
			"0.018": 0.0,
			"0.019": 0.0,
			"0.02": 0.0,
			"0.021": 0.0,
			"0.022": 0.0,
			"0.023": 0.0,
			"0.024": 0.0,
			"0.025": 0.0
		}
	}
}
