{
	 "smiles": "CC=CC1NN2C(S1)=NN=C2C1=CC(=CC=C1)[N+]([O-])=O", 
	 "Tm": 496.15, 
	 "num_atms": 31, 
	 "gaussian": { 
		 "optdone": 1, 
		 "sigma_profile": "yes", 
		 "theory": "DFT", 
		 "functional": "B3LYP", 
		 "basiset": "6-31G**", 
		 "properties": { 
			 "R2extent": 8220.2814, 
			 "electric_dipole_moment_norm": 10.2837224972, 
			 "electric_quadrupole_moment_norm": 16.7829667279, 
			 "total_energy": -1286.11097701, 
			 "HOMO_LUMO_gap": 0.14132, 
			 "cosmo_polarized_energy": -24.37, 
			 "cosmo_cavitation_energy": 38.5, 
			 "cosmo_dispersion_energy": -27.75, 
			 "cosmo_repulsion_energy": 2.09, 
			 "cosmo_total_nonelectrostatic_energy": 12.84, 
			 "SMD_solvation_energy": 6.11 
		},
		"coords": [
			{
				"x": 2.9526973258,
				"y": -1.7451440625,
				"z": -4.0005078373,
				"element": "C" 
			},
			{
				"x": 3.0909579984,
				"y": -1.8596895183,
				"z": -2.5123467523,
				"element": "C" 
			},
			{
				"x": 2.0925227497,
				"y": -1.7204407373,
				"z": -1.6353371196,
				"element": "C" 
			},
			{
				"x": 2.2788491103,
				"y": -1.8644295182,
				"z": -0.1619420149,
				"element": "C" 
			},
			{
				"x": 1.7711831134,
				"y": -0.7056715914,
				"z": 0.594813939,
				"element": "N" 
			},
			{
				"x": 0.4015677046,
				"y": -0.9650077657,
				"z": 0.8007067005,
				"element": "N" 
			},
			{
				"x": -0.0109138772,
				"y": -2.2720176847,
				"z": 0.8372331886,
				"element": "C" 
			},
			{
				"x": 1.3049789279,
				"y": -3.3872556799,
				"z": 0.5011561351,
				"element": "S" 
			},
			{
				"x": -1.294754316,
				"y": -2.3499544499,
				"z": 1.0798688559,
				"element": "N" 
			},
			{
				"x": -1.7382338744,
				"y": -1.0459285843,
				"z": 1.2251267587,
				"element": "N" 
			},
			{
				"x": -0.7272190868,
				"y": -0.2127148788,
				"z": 1.0458626764,
				"element": "C" 
			},
			{
				"x": -0.82358647,
				"y": 1.2473718302,
				"z": 1.0984061498,
				"element": "C" 
			},
			{
				"x": -2.0394205722,
				"y": 1.8135157253,
				"z": 1.5138266071,
				"element": "C" 
			},
			{
				"x": -2.1518238865,
				"y": 3.1960134042,
				"z": 1.5588135762,
				"element": "C" 
			},
			{
				"x": -1.104569443,
				"y": 4.0488093582,
				"z": 1.2080044616,
				"element": "C" 
			},
			{
				"x": 0.0958806958,
				"y": 3.4777003517,
				"z": 0.7952049937,
				"element": "C" 
			},
			{
				"x": 0.241470658,
				"y": 2.0904516087,
				"z": 0.7384952795,
				"element": "C" 
			},
			{
				"x": -3.4296778587,
				"y": 3.7891229023,
				"z": 1.9983357327,
				"element": "N" 
			},
			{
				"x": -4.3383826117,
				"y": 3.0229846728,
				"z": 2.3094909417,
				"element": "O" 
			},
			{
				"x": -3.5041730671,
				"y": 5.0174497062,
				"z": 2.0255201699,
				"element": "O" 
			},
			{
				"x": 3.607066858,
				"y": -0.9585176242,
				"z": -4.3956459024,
				"element": "H" 
			},
			{
				"x": 1.9246889961,
				"y": -1.5174854241,
				"z": -4.2951387472,
				"element": "H" 
			},
			{
				"x": 3.251564591,
				"y": -2.6786977281,
				"z": -4.4931094741,
				"element": "H" 
			},
			{
				"x": 4.0921956298,
				"y": -2.079997685,
				"z": -2.1378076221,
				"element": "H" 
			},
			{
				"x": 1.080599222,
				"y": -1.5093916998,
				"z": -1.9765156918,
				"element": "H" 
			},
			{
				"x": 3.3283195811,
				"y": -2.0126200585,
				"z": 0.097143815,
				"element": "H" 
			},
			{
				"x": 2.2096265867,
				"y": -0.6998312014,
				"z": 1.5191713089,
				"element": "H" 
			},
			{
				"x": -2.8738295886,
				"y": 1.1821974427,
				"z": 1.7910148313,
				"element": "H" 
			},
			{
				"x": -1.2466168453,
				"y": 5.1204309417,
				"z": 1.263208119,
				"element": "H" 
			},
			{
				"x": 0.92623963,
				"y": 4.1168681348,
				"z": 0.5122458738,
				"element": "H" 
			},
			{
				"x": 1.1786921186,
				"y": 1.6576798135,
				"z": 0.4060010472,
				"element": "H" 
			}
		],
		 "valence_orbital": [ 
			{
				"type": "occ",
				"energy": -0.2849,
				"method": "rhf"
			},
			{
				"type": "occ",
				"energy": -0.28247,
				"method": "rhf"
			},
			{
				"type": "occ",
				"energy": -0.27584,
				"method": "rhf"
			},
			{
				"type": "occ",
				"energy": -0.26355,
				"method": "rhf"
			},
			{
				"type": "occ",
				"energy": -0.23029,
				"method": "rhf"
			},
			{
				"type": "unocc",
				"energy": -0.08897,
				"method": "rhf"
			},
			{
				"type": "unocc",
				"energy": -0.0558,
				"method": "rhf"
			},
			{
				"type": "unocc",
				"energy": -0.03798,
				"method": "rhf"
			},
			{
				"type": "unocc",
				"energy": -0.0085,
				"method": "rhf"
			},
			{
				"type": "unocc",
				"energy": 0.00359,
				"method": "rhf"
			}
		],
		"cosmo_sigma_profile": { 
			"-0.025": 0.0,
			"-0.024": 0.0,
			"-0.023": 0.0,
			"-0.022": 0.0,
			"-0.021": 0.0,
			"-0.02": 0.0,
			"-0.019": 0.0,
			"-0.018": 0.0,
			"-0.017": 0.0,
			"-0.016": 0.423550232335,
			"-0.015": 2.37651124,
			"-0.014": 1.75679820361,
			"-0.013": 1.71254068589,
			"-0.012": 1.46828741958,
			"-0.011": 2.29657232011,
			"-0.01": 2.98119243824,
			"-0.009": 4.16868682137,
			"-0.008": 5.03562153355,
			"-0.007": 7.95100575132,
			"-0.006": 14.1143254924,
			"-0.005": 14.8622760797,
			"-0.004": 19.7745538597,
			"-0.003": 22.1925739554,
			"-0.002": 25.3011563171,
			"-0.001": 27.6631777618,
			"0.0": 30.7509153271,
			"0.001": 23.7755003988,
			"0.002": 15.2753268923,
			"0.003": 11.2639345894,
			"0.004": 11.1829697401,
			"0.005": 10.5327238871,
			"0.006": 9.95678447306,
			"0.007": 10.8927829461,
			"0.008": 8.97270983724,
			"0.009": 5.6186908024,
			"0.01": 4.11225784036,
			"0.011": 2.41563127366,
			"0.012": 3.19534377523,
			"0.013": 3.91576262818,
			"0.014": 2.36041268184,
			"0.015": 1.90849833747,
			"0.016": 0.80550748563,
			"0.017": 0.0349941301097,
			"0.018": 0.0,
			"0.019": 0.0,
			"0.02": 0.0,
			"0.021": 0.0,
			"0.022": 0.0,
			"0.023": 0.0,
			"0.024": 0.0,
			"0.025": 0.0
		}
	}
}
