{
	 "smiles": "CC1C(C)C(=O)NC1=O", 
	 "Tm": 330.15, 
	 "num_atms": 18, 
	 "gaussian": { 
		 "optdone": 1, 
		 "sigma_profile": "yes", 
		 "theory": "DFT", 
		 "functional": "B3LYP", 
		 "basiset": "6-31G**", 
		 "properties": { 
			 "R2extent": 1243.4256, 
			 "electric_dipole_moment_norm": 2.03302367424, 
			 "electric_quadrupole_moment_norm": 12.6906710398, 
			 "total_energy": -439.301450636, 
			 "HOMO_LUMO_gap": 0.2355, 
			 "cosmo_polarized_energy": -12.51, 
			 "cosmo_cavitation_energy": 21.15, 
			 "cosmo_dispersion_energy": -15.45, 
			 "cosmo_repulsion_energy": 1.28, 
			 "cosmo_total_nonelectrostatic_energy": 6.99, 
			 "SMD_solvation_energy": 5.09 
		},
		"coords": [
			{
				"x": 1.3106699689,
				"y": 0.7167919934,
				"z": -1.2725315443,
				"element": "C" 
			},
			{
				"x": 0.5622432903,
				"y": -0.1523067713,
				"z": -0.2474191439,
				"element": "C" 
			},
			{
				"x": -0.9885109158,
				"y": -0.0326478633,
				"z": -0.2377533805,
				"element": "C" 
			},
			{
				"x": -1.6889970438,
				"y": 0.5434730835,
				"z": -1.4702560426,
				"element": "C" 
			},
			{
				"x": -1.3055665768,
				"y": 0.7649105091,
				"z": 1.0325436895,
				"element": "C" 
			},
			{
				"x": -2.3659598398,
				"y": 1.2544375055,
				"z": 1.3567056452,
				"element": "O" 
			},
			{
				"x": -0.1380494369,
				"y": 0.8071359597,
				"z": 1.7903201843,
				"element": "N" 
			},
			{
				"x": 0.9841353264,
				"y": 0.270014794,
				"z": 1.165237564,
				"element": "C" 
			},
			{
				"x": 2.0900674379,
				"y": 0.2028314395,
				"z": 1.6568844251,
				"element": "O" 
			},
			{
				"x": 1.058879898,
				"y": 1.7768252841,
				"z": -1.1654363459,
				"element": "H" 
			},
			{
				"x": 1.0712628882,
				"y": 0.4115838879,
				"z": -2.2945962903,
				"element": "H" 
			},
			{
				"x": 2.3875808264,
				"y": 0.6096996662,
				"z": -1.1207406183,
				"element": "H" 
			},
			{
				"x": 0.8756343154,
				"y": -1.1919930313,
				"z": -0.3878597388,
				"element": "H" 
			},
			{
				"x": -1.4072829979,
				"y": -1.0308610947,
				"z": -0.0482073771,
				"element": "H" 
			},
			{
				"x": -1.3155504816,
				"y": 1.5393420586,
				"z": -1.7237040712,
				"element": "H" 
			},
			{
				"x": -2.7593460485,
				"y": 0.6314862838,
				"z": -1.2689106831,
				"element": "H" 
			},
			{
				"x": -1.551428219,
				"y": -0.1053333444,
				"z": -2.3400029515,
				"element": "H" 
			},
			{
				"x": -0.0994823912,
				"y": 1.2289096398,
				"z": 2.7100266796,
				"element": "H" 
			}
		],
		 "valence_orbital": [ 
			{
				"type": "occ",
				"energy": -0.35991,
				"method": "rhf"
			},
			{
				"type": "occ",
				"energy": -0.34017,
				"method": "rhf"
			},
			{
				"type": "occ",
				"energy": -0.29268,
				"method": "rhf"
			},
			{
				"type": "occ",
				"energy": -0.28385,
				"method": "rhf"
			},
			{
				"type": "occ",
				"energy": -0.25654,
				"method": "rhf"
			},
			{
				"type": "unocc",
				"energy": -0.02104,
				"method": "rhf"
			},
			{
				"type": "unocc",
				"energy": 0.0215,
				"method": "rhf"
			},
			{
				"type": "unocc",
				"energy": 0.08161,
				"method": "rhf"
			},
			{
				"type": "unocc",
				"energy": 0.09562,
				"method": "rhf"
			},
			{
				"type": "unocc",
				"energy": 0.10456,
				"method": "rhf"
			}
		],
		"cosmo_sigma_profile": { 
			"-0.025": 0.0,
			"-0.024": 0.0,
			"-0.023": 0.0,
			"-0.022": 0.0,
			"-0.021": 0.0,
			"-0.02": 0.0,
			"-0.019": 0.0,
			"-0.018": 0.0,
			"-0.017": 0.109410482991,
			"-0.016": 0.957510672668,
			"-0.015": 1.35986991402,
			"-0.014": 1.11849721158,
			"-0.013": 0.715410785692,
			"-0.012": 0.701202010285,
			"-0.011": 0.750322914337,
			"-0.01": 0.802048316362,
			"-0.009": 1.03945279904,
			"-0.008": 1.50999979879,
			"-0.007": 5.48421544848,
			"-0.006": 9.41825823805,
			"-0.005": 8.71513662114,
			"-0.004": 16.4333142739,
			"-0.003": 16.8820912409,
			"-0.002": 17.5613404592,
			"-0.001": 14.4432570096,
			"0.0": 13.7419112245,
			"0.001": 6.64577988825,
			"0.002": 2.87114812562,
			"0.003": 2.92489330354,
			"0.004": 2.77600410726,
			"0.005": 2.88948758622,
			"0.006": 3.49893157917,
			"0.007": 2.18240836057,
			"0.008": 2.57619117474,
			"0.009": 3.06529274429,
			"0.01": 3.82134094936,
			"0.011": 6.89885864789,
			"0.012": 10.2057404105,
			"0.013": 3.47195015163,
			"0.014": 0.00703046633191,
			"0.015": 0.0,
			"0.016": 0.0,
			"0.017": 0.0,
			"0.018": 0.0,
			"0.019": 0.0,
			"0.02": 0.0,
			"0.021": 0.0,
			"0.022": 0.0,
			"0.023": 0.0,
			"0.024": 0.0,
			"0.025": 0.0
		}
	}
}
