{
	 "smiles": "CC1=C(C=CC=C1N)C(F)(F)F", 
	 "Tm": 312.15, 
	 "num_atms": 20, 
	 "gaussian": { 
		 "optdone": 1, 
		 "sigma_profile": "yes", 
		 "theory": "DFT", 
		 "functional": "B3LYP", 
		 "basiset": "6-31G**", 
		 "properties": { 
			 "R2extent": 2206.5193, 
			 "electric_dipole_moment_norm": 3.63309424458, 
			 "electric_quadrupole_moment_norm": 8.9065304732, 
			 "total_energy": -663.962188616, 
			 "HOMO_LUMO_gap": 0.19524, 
			 "cosmo_polarized_energy": -7.86, 
			 "cosmo_cavitation_energy": 24.11, 
			 "cosmo_dispersion_energy": -17.64, 
			 "cosmo_repulsion_energy": 1.34, 
			 "cosmo_total_nonelectrostatic_energy": 7.81, 
			 "SMD_solvation_energy": 5.13 
		},
		"coords": [
			{
				"x": -1.6624245889,
				"y": -1.2921136836,
				"z": -1.0117254786,
				"element": "C" 
			},
			{
				"x": -0.7212074043,
				"y": -0.1359672214,
				"z": -0.7626649976,
				"element": "C" 
			},
			{
				"x": 0.6802948831,
				"y": -0.2538883466,
				"z": -0.7587600645,
				"element": "C" 
			},
			{
				"x": 1.5099317154,
				"y": 0.851337998,
				"z": -0.546373322,
				"element": "C" 
			},
			{
				"x": 0.9402971842,
				"y": 2.1035687627,
				"z": -0.3289723458,
				"element": "C" 
			},
			{
				"x": -0.441289349,
				"y": 2.248141585,
				"z": -0.3123257106,
				"element": "C" 
			},
			{
				"x": -1.2797789847,
				"y": 1.1418397574,
				"z": -0.5234126544,
				"element": "C" 
			},
			{
				"x": -2.6655687543,
				"y": 1.3153856422,
				"z": -0.5573123411,
				"element": "N" 
			},
			{
				"x": 1.3281430901,
				"y": -1.5972011127,
				"z": -0.9886108579,
				"element": "C" 
			},
			{
				"x": 2.6745181986,
				"y": -1.5418075384,
				"z": -0.9049365088,
				"element": "F" 
			},
			{
				"x": 1.0358731286,
				"y": -2.1049757749,
				"z": -2.2133045953,
				"element": "F" 
			},
			{
				"x": 0.9186631126,
				"y": -2.5214311549,
				"z": -0.0837783813,
				"element": "F" 
			},
			{
				"x": -2.3912750931,
				"y": -1.0250676028,
				"z": -1.7859709682,
				"element": "H" 
			},
			{
				"x": -1.1502868585,
				"y": -2.1953225146,
				"z": -1.3333415912,
				"element": "H" 
			},
			{
				"x": -2.2300414735,
				"y": -1.5459546773,
				"z": -0.1050836493,
				"element": "H" 
			},
			{
				"x": 2.5850401502,
				"y": 0.7259997659,
				"z": -0.5517412904,
				"element": "H" 
			},
			{
				"x": 1.5757256114,
				"y": 2.9684348357,
				"z": -0.1639278624,
				"element": "H" 
			},
			{
				"x": -0.886733529,
				"y": 3.22451178,
				"z": -0.1362353902,
				"element": "H" 
			},
			{
				"x": -3.2166843111,
				"y": 0.520859771,
				"z": -0.2652647315,
				"element": "H" 
			},
			{
				"x": -2.9934967278,
				"y": 2.1738497291,
				"z": -0.1367572591,
				"element": "H" 
			}
		],
		 "valence_orbital": [ 
			{
				"type": "occ",
				"energy": -0.35597,
				"method": "rhf"
			},
			{
				"type": "occ",
				"energy": -0.34098,
				"method": "rhf"
			},
			{
				"type": "occ",
				"energy": -0.31646,
				"method": "rhf"
			},
			{
				"type": "occ",
				"energy": -0.2524,
				"method": "rhf"
			},
			{
				"type": "occ",
				"energy": -0.21104,
				"method": "rhf"
			},
			{
				"type": "unocc",
				"energy": -0.0158,
				"method": "rhf"
			},
			{
				"type": "unocc",
				"energy": 0.00792,
				"method": "rhf"
			},
			{
				"type": "unocc",
				"energy": 0.07208,
				"method": "rhf"
			},
			{
				"type": "unocc",
				"energy": 0.09615,
				"method": "rhf"
			},
			{
				"type": "unocc",
				"energy": 0.12126,
				"method": "rhf"
			}
		],
		"cosmo_sigma_profile": { 
			"-0.025": 0.0,
			"-0.024": 0.0,
			"-0.023": 0.0,
			"-0.022": 0.0,
			"-0.021": 0.0,
			"-0.02": 0.0,
			"-0.019": 0.0,
			"-0.018": 0.0,
			"-0.017": 0.0,
			"-0.016": 0.0,
			"-0.015": 0.0,
			"-0.014": 0.0,
			"-0.013": 0.319231300375,
			"-0.012": 2.26605797831,
			"-0.011": 2.51774541159,
			"-0.01": 2.97731100801,
			"-0.009": 3.63971359306,
			"-0.008": 2.78309873355,
			"-0.007": 2.97916519718,
			"-0.006": 6.01458511797,
			"-0.005": 7.85700493434,
			"-0.004": 10.4214915676,
			"-0.003": 9.43236897555,
			"-0.002": 10.1059885344,
			"-0.001": 13.4848887978,
			"0.0": 14.614563188,
			"0.001": 12.8331825401,
			"0.002": 20.5854458672,
			"0.003": 36.8986020899,
			"0.004": 13.387408267,
			"0.005": 9.76618324307,
			"0.006": 3.95450639547,
			"0.007": 0.919499620106,
			"0.008": 0.559093357007,
			"0.009": 0.357012019917,
			"0.01": 0.877721444689,
			"0.011": 0.817723901683,
			"0.012": 0.587614064316,
			"0.013": 0.33689483438,
			"0.014": 0.457896811326,
			"0.015": 0.00766797306358,
			"0.016": 0.0,
			"0.017": 0.0,
			"0.018": 0.0,
			"0.019": 0.0,
			"0.02": 0.0,
			"0.021": 0.0,
			"0.022": 0.0,
			"0.023": 0.0,
			"0.024": 0.0,
			"0.025": 0.0
		}
	}
}
