{
	 "smiles": "CCOC(=O)C1=C(C)N2N=C(C=C2N=C1)C1=CC=CS1", 
	 "Tm": 425.15, 
	 "num_atms": 33, 
	 "gaussian": { 
		 "optdone": 1, 
		 "sigma_profile": "yes", 
		 "theory": "DFT", 
		 "functional": "B3LYP", 
		 "basiset": "6-31G**", 
		 "properties": { 
			 "R2extent": 9483.1646, 
			 "electric_dipole_moment_norm": 0.999681924414, 
			 "electric_quadrupole_moment_norm": 20.1166778895, 
			 "total_energy": -1254.20631903, 
			 "HOMO_LUMO_gap": 0.14944, 
			 "cosmo_polarized_energy": -11.59, 
			 "cosmo_cavitation_energy": 39.29, 
			 "cosmo_dispersion_energy": -29.06, 
			 "cosmo_repulsion_energy": 2.16, 
			 "cosmo_total_nonelectrostatic_energy": 12.4, 
			 "SMD_solvation_energy": 5.42 
		},
		"coords": [
			{
				"x": 3.7697237245,
				"y": 4.7710642952,
				"z": -0.9884487561,
				"element": "C" 
			},
			{
				"x": 3.8404407465,
				"y": 3.3305076093,
				"z": -0.5193303563,
				"element": "C" 
			},
			{
				"x": 2.4894075617,
				"y": 2.814126096,
				"z": -0.5020549143,
				"element": "O" 
			},
			{
				"x": 2.3537970657,
				"y": 1.5278563925,
				"z": -0.1061349082,
				"element": "C" 
			},
			{
				"x": 3.3092024336,
				"y": 0.8445406352,
				"z": 0.2167950635,
				"element": "O" 
			},
			{
				"x": 0.9268382958,
				"y": 1.103128435,
				"z": -0.1268680329,
				"element": "C" 
			},
			{
				"x": 0.5347676647,
				"y": -0.1832368045,
				"z": 0.2442199249,
				"element": "C" 
			},
			{
				"x": 1.3812270273,
				"y": -1.3257107141,
				"z": 0.7058368239,
				"element": "C" 
			},
			{
				"x": -0.8057613392,
				"y": -0.429033735,
				"z": 0.1755357283,
				"element": "N" 
			},
			{
				"x": -1.3834125359,
				"y": -1.609385916,
				"z": 0.4922647736,
				"element": "N" 
			},
			{
				"x": -2.6994148604,
				"y": -1.4073004845,
				"z": 0.2818350964,
				"element": "C" 
			},
			{
				"x": -2.9803198039,
				"y": -0.0975084692,
				"z": -0.1714067017,
				"element": "C" 
			},
			{
				"x": -1.7495809573,
				"y": 0.5342030755,
				"z": -0.2391521841,
				"element": "C" 
			},
			{
				"x": -1.3692301899,
				"y": 1.7786496792,
				"z": -0.5981739873,
				"element": "N" 
			},
			{
				"x": -0.0823392687,
				"y": 2.0350431196,
				"z": -0.5385401549,
				"element": "C" 
			},
			{
				"x": -3.641993686,
				"y": -2.4845048457,
				"z": 0.5253014717,
				"element": "C" 
			},
			{
				"x": -5.0105915717,
				"y": -2.4739970573,
				"z": 0.3705541011,
				"element": "C" 
			},
			{
				"x": -5.6232207106,
				"y": -3.7144925488,
				"z": 0.7035390893,
				"element": "C" 
			},
			{
				"x": -4.7152716885,
				"y": -4.6567215417,
				"z": 1.1083225375,
				"element": "C" 
			},
			{
				"x": -3.0946107821,
				"y": -4.04681513,
				"z": 1.090505177,
				"element": "S" 
			},
			{
				"x": 4.7760518812,
				"y": 5.200269934,
				"z": -1.0153859712,
				"element": "H" 
			},
			{
				"x": 3.3417171465,
				"y": 4.8359205092,
				"z": -1.9929057967,
				"element": "H" 
			},
			{
				"x": 3.1571264067,
				"y": 5.3741709297,
				"z": -0.3121996049,
				"element": "H" 
			},
			{
				"x": 4.2630534885,
				"y": 3.2436844286,
				"z": 0.4864006017,
				"element": "H" 
			},
			{
				"x": 4.4463980053,
				"y": 2.7083035551,
				"z": -1.1851340317,
				"element": "H" 
			},
			{
				"x": 1.0430545499,
				"y": -1.6479617695,
				"z": 1.6963771359,
				"element": "H" 
			},
			{
				"x": 1.2247671352,
				"y": -2.1820263684,
				"z": 0.041308864,
				"element": "H" 
			},
			{
				"x": 2.4291513538,
				"y": -1.0460191797,
				"z": 0.730585488,
				"element": "H" 
			},
			{
				"x": -3.9339791949,
				"y": 0.3405431749,
				"z": -0.4178504787,
				"element": "H" 
			},
			{
				"x": 0.2287597007,
				"y": 3.0337385813,
				"z": -0.8259861907,
				"element": "H" 
			},
			{
				"x": -5.5590712398,
				"y": -1.603642638,
				"z": 0.0287431767,
				"element": "H" 
			},
			{
				"x": -6.6901123789,
				"y": -3.8963268422,
				"z": 0.6442977844,
				"element": "H" 
			},
			{
				"x": -4.9034739794,
				"y": -5.675966406,
				"z": 1.4167492317,
				"element": "H" 
			}
		],
		 "valence_orbital": [ 
			{
				"type": "occ",
				"energy": -0.28207,
				"method": "rhf"
			},
			{
				"type": "occ",
				"energy": -0.26575,
				"method": "rhf"
			},
			{
				"type": "occ",
				"energy": -0.25349,
				"method": "rhf"
			},
			{
				"type": "occ",
				"energy": -0.23135,
				"method": "rhf"
			},
			{
				"type": "occ",
				"energy": -0.21616,
				"method": "rhf"
			},
			{
				"type": "unocc",
				"energy": -0.06672,
				"method": "rhf"
			},
			{
				"type": "unocc",
				"energy": -0.03922,
				"method": "rhf"
			},
			{
				"type": "unocc",
				"energy": -0.02177,
				"method": "rhf"
			},
			{
				"type": "unocc",
				"energy": 0.03562,
				"method": "rhf"
			},
			{
				"type": "unocc",
				"energy": 0.04304,
				"method": "rhf"
			}
		],
		"cosmo_sigma_profile": { 
			"-0.025": 0.0,
			"-0.024": 0.0,
			"-0.023": 0.0,
			"-0.022": 0.0,
			"-0.021": 0.0,
			"-0.02": 0.0,
			"-0.019": 0.0,
			"-0.018": 0.0,
			"-0.017": 0.0,
			"-0.016": 0.0,
			"-0.015": 0.0,
			"-0.014": 0.0,
			"-0.013": 0.0,
			"-0.012": 0.0,
			"-0.011": 0.0,
			"-0.01": 0.0,
			"-0.009": 0.992629912772,
			"-0.008": 5.08589015364,
			"-0.007": 7.27686430511,
			"-0.006": 10.3593954686,
			"-0.005": 20.3428391926,
			"-0.004": 28.1410522543,
			"-0.003": 31.1501633358,
			"-0.002": 31.1343986455,
			"-0.001": 29.0226071725,
			"0.0": 21.8396663542,
			"0.001": 16.800410749,
			"0.002": 23.2708492688,
			"0.003": 27.202890874,
			"0.004": 23.7759174736,
			"0.005": 9.797860843,
			"0.006": 5.18186331027,
			"0.007": 5.01833398033,
			"0.008": 4.71473261222,
			"0.009": 4.03754528697,
			"0.01": 4.15228003507,
			"0.011": 3.62464120962,
			"0.012": 2.02375135112,
			"0.013": 0.680137051808,
			"0.014": 1.11418856421,
			"0.015": 0.330289468079,
			"0.016": 0.0,
			"0.017": 0.0,
			"0.018": 0.0,
			"0.019": 0.0,
			"0.02": 0.0,
			"0.021": 0.0,
			"0.022": 0.0,
			"0.023": 0.0,
			"0.024": 0.0,
			"0.025": 0.0
		}
	}
}
