{
	 "smiles": "CCOC1=C(C=CC=C1)C(=O)NCC(O)=O", 
	 "Tm": 440.15, 
	 "num_atms": 29, 
	 "gaussian": { 
		 "optdone": 1, 
		 "sigma_profile": "yes", 
		 "theory": "DFT", 
		 "functional": "B3LYP", 
		 "basiset": "6-31G**", 
		 "properties": { 
			 "R2extent": 4118.1252, 
			 "electric_dipole_moment_norm": 1.56728418291, 
			 "electric_quadrupole_moment_norm": 21.1300798392, 
			 "total_energy": -782.665376486, 
			 "HOMO_LUMO_gap": 0.21095, 
			 "cosmo_polarized_energy": -17.04, 
			 "cosmo_cavitation_energy": 33.57, 
			 "cosmo_dispersion_energy": -23.02, 
			 "cosmo_repulsion_energy": 1.85, 
			 "cosmo_total_nonelectrostatic_energy": 12.4, 
			 "SMD_solvation_energy": 7.37 
		},
		"coords": [
			{
				"x": 0.70217331,
				"y": 3.1247579162,
				"z": -0.4090376806,
				"element": "C" 
			},
			{
				"x": -0.4747881187,
				"y": 2.4241751892,
				"z": 0.2432619417,
				"element": "C" 
			},
			{
				"x": 0.0374625193,
				"y": 1.3258036817,
				"z": 1.0230887179,
				"element": "O" 
			},
			{
				"x": -0.9259473145,
				"y": 0.5705446999,
				"z": 1.6601923695,
				"element": "C" 
			},
			{
				"x": -1.6295811257,
				"y": -0.4364585223,
				"z": 0.975042475,
				"element": "C" 
			},
			{
				"x": -2.6174757875,
				"y": -1.1545106286,
				"z": 1.6644560635,
				"element": "C" 
			},
			{
				"x": -2.8638929747,
				"y": -0.920654402,
				"z": 3.014874945,
				"element": "C" 
			},
			{
				"x": -2.1371507328,
				"y": 0.0620140275,
				"z": 3.692238421,
				"element": "C" 
			},
			{
				"x": -1.1797697903,
				"y": 0.8136075446,
				"z": 3.0129523542,
				"element": "C" 
			},
			{
				"x": -1.4557122053,
				"y": -0.7362932516,
				"z": -0.4913934485,
				"element": "C" 
			},
			{
				"x": -2.4290900581,
				"y": -0.8092428919,
				"z": -1.2356868102,
				"element": "O" 
			},
			{
				"x": -0.1867124495,
				"y": -0.9403314774,
				"z": -0.9708760619,
				"element": "N" 
			},
			{
				"x": 1.0241221223,
				"y": -1.1806337187,
				"z": -0.2127827155,
				"element": "C" 
			},
			{
				"x": 1.8686902609,
				"y": -2.3316215756,
				"z": -0.7348151095,
				"element": "C" 
			},
			{
				"x": 1.5161505172,
				"y": -2.7249831079,
				"z": -1.9814829917,
				"element": "O" 
			},
			{
				"x": 2.7913647794,
				"y": -2.8180198209,
				"z": -0.1238405136,
				"element": "O" 
			},
			{
				"x": 1.4096926866,
				"y": 3.4774931095,
				"z": 0.3468300779,
				"element": "H" 
			},
			{
				"x": 1.228628744,
				"y": 2.4471561044,
				"z": -1.0875036934,
				"element": "H" 
			},
			{
				"x": 0.3525106617,
				"y": 3.9860256611,
				"z": -0.9866299116,
				"element": "H" 
			},
			{
				"x": -1.1785539333,
				"y": 2.0482445655,
				"z": -0.5105558736,
				"element": "H" 
			},
			{
				"x": -1.0248099026,
				"y": 3.1073907873,
				"z": 0.9053061384,
				"element": "H" 
			},
			{
				"x": -3.185588704,
				"y": -1.9003775066,
				"z": 1.117814496,
				"element": "H" 
			},
			{
				"x": -3.620208634,
				"y": -1.4991321663,
				"z": 3.5363682319,
				"element": "H" 
			},
			{
				"x": -2.3228623532,
				"y": 0.251068352,
				"z": 4.7455786013,
				"element": "H" 
			},
			{
				"x": -0.6139282646,
				"y": 1.5939373053,
				"z": 3.5120399535,
				"element": "H" 
			},
			{
				"x": -0.1686281744,
				"y": -1.1794205221,
				"z": -1.9542054886,
				"element": "H" 
			},
			{
				"x": 1.6750407214,
				"y": -0.2968500501,
				"z": -0.1839305565,
				"element": "H" 
			},
			{
				"x": 0.7831802136,
				"y": -1.4074645803,
				"z": 0.8275949912,
				"element": "H" 
			},
			{
				"x": 2.1297839869,
				"y": -3.4369247218,
				"z": -2.2291989228,
				"element": "H" 
			}
		],
		 "valence_orbital": [ 
			{
				"type": "occ",
				"energy": -0.2786,
				"method": "rhf"
			},
			{
				"type": "occ",
				"energy": -0.26768,
				"method": "rhf"
			},
			{
				"type": "occ",
				"energy": -0.25053,
				"method": "rhf"
			},
			{
				"type": "occ",
				"energy": -0.24882,
				"method": "rhf"
			},
			{
				"type": "occ",
				"energy": -0.23984,
				"method": "rhf"
			},
			{
				"type": "unocc",
				"energy": -0.02889,
				"method": "rhf"
			},
			{
				"type": "unocc",
				"energy": -0.00838,
				"method": "rhf"
			},
			{
				"type": "unocc",
				"energy": 7e-05,
				"method": "rhf"
			},
			{
				"type": "unocc",
				"energy": 0.04306,
				"method": "rhf"
			},
			{
				"type": "unocc",
				"energy": 0.06346,
				"method": "rhf"
			}
		],
		"cosmo_sigma_profile": { 
			"-0.025": 0.0,
			"-0.024": 0.0,
			"-0.023": 0.0,
			"-0.022": 0.0,
			"-0.021": 0.0,
			"-0.02": 0.0,
			"-0.019": 0.309486247821,
			"-0.018": 1.37015525074,
			"-0.017": 0.348558098082,
			"-0.016": 1.14288908132,
			"-0.015": 0.673337579987,
			"-0.014": 0.739737796143,
			"-0.013": 0.992305806822,
			"-0.012": 0.744590924503,
			"-0.011": 0.997373643347,
			"-0.01": 1.23642320373,
			"-0.009": 0.855137351395,
			"-0.008": 2.49208759723,
			"-0.007": 6.97304622209,
			"-0.006": 12.728433693,
			"-0.005": 15.0758425873,
			"-0.004": 24.2290230572,
			"-0.003": 27.7568046502,
			"-0.002": 23.0228830793,
			"-0.001": 19.2115726722,
			"0.0": 20.3324635873,
			"0.001": 15.8912444532,
			"0.002": 13.3879344238,
			"0.003": 13.214301989,
			"0.004": 15.066998129,
			"0.005": 7.73350525446,
			"0.006": 3.73735137801,
			"0.007": 2.01080993,
			"0.008": 3.51885385347,
			"0.009": 4.19356426293,
			"0.01": 4.36153744228,
			"0.011": 7.21016591743,
			"0.012": 4.24608094004,
			"0.013": 4.97677827244,
			"0.014": 4.19507673797,
			"0.015": 0.57601233819,
			"0.016": 0.0,
			"0.017": 0.0,
			"0.018": 0.0,
			"0.019": 0.0,
			"0.02": 0.0,
			"0.021": 0.0,
			"0.022": 0.0,
			"0.023": 0.0,
			"0.024": 0.0,
			"0.0": 0.0
		}
	}
}
