{
	 "smiles": "CCOC(=O)NC1=CC=CC=C1", 
	 "Tm": 322.15, 
	 "num_atms": 23, 
	 "gaussian": { 
		 "optdone": 1, 
		 "sigma_profile": "yes", 
		 "theory": "DFT", 
		 "functional": "B3LYP", 
		 "basiset": "6-31G**", 
		 "properties": { 
			 "R2extent": 2962.5609, 
			 "electric_dipole_moment_norm": 1.41943513765, 
			 "electric_quadrupole_moment_norm": 11.0729170443, 
			 "total_energy": -554.813439474, 
			 "HOMO_LUMO_gap": 0.21419, 
			 "cosmo_polarized_energy": -9.49, 
			 "cosmo_cavitation_energy": 26.85, 
			 "cosmo_dispersion_energy": -19.7, 
			 "cosmo_repulsion_energy": 1.58, 
			 "cosmo_total_nonelectrostatic_energy": 8.73, 
			 "SMD_solvation_energy": 5.92 
		},
		"coords": [
			{
				"x": -0.4730028014,
				"y": 3.7990714455,
				"z": -0.5575741237,
				"element": "C" 
			},
			{
				"x": 0.185365762,
				"y": 2.8310327105,
				"z": 0.4126855695,
				"element": "C" 
			},
			{
				"x": -0.3078634075,
				"y": 1.4805023115,
				"z": 0.2312709633,
				"element": "O" 
			},
			{
				"x": 0.2932516469,
				"y": 0.7668062809,
				"z": -0.7451255317,
				"element": "C" 
			},
			{
				"x": 1.2034121995,
				"y": 1.1760715571,
				"z": -1.445273866,
				"element": "O" 
			},
			{
				"x": -0.2179805704,
				"y": -0.5036319366,
				"z": -0.8885919411,
				"element": "N" 
			},
			{
				"x": -1.230134903,
				"y": -1.23648417,
				"z": -0.2339672929,
				"element": "C" 
			},
			{
				"x": -2.0383653319,
				"y": -0.7383129962,
				"z": 0.7993657415,
				"element": "C" 
			},
			{
				"x": -3.0119649618,
				"y": -1.5593709326,
				"z": 1.3699277739,
				"element": "C" 
			},
			{
				"x": -3.2033199488,
				"y": -2.8704900936,
				"z": 0.9350520749,
				"element": "C" 
			},
			{
				"x": -2.3992276197,
				"y": -3.3643793418,
				"z": -0.0938868958,
				"element": "C" 
			},
			{
				"x": -1.4238325546,
				"y": -2.5584180821,
				"z": -0.6723675733,
				"element": "C" 
			},
			{
				"x": -0.1380150367,
				"y": 4.8201325073,
				"z": -0.3461462235,
				"element": "H" 
			},
			{
				"x": -0.1979019356,
				"y": 3.5534468184,
				"z": -1.5858962161,
				"element": "H" 
			},
			{
				"x": -1.5624501638,
				"y": 3.7683080809,
				"z": -0.4621157925,
				"element": "H" 
			},
			{
				"x": -0.0647280493,
				"y": 3.0677193351,
				"z": 1.4495708442,
				"element": "H" 
			},
			{
				"x": 1.270570756,
				"y": 2.826455037,
				"z": 0.2918016797,
				"element": "H" 
			},
			{
				"x": 0.2698530242,
				"y": -0.9950442708,
				"z": -1.6242698898,
				"element": "H" 
			},
			{
				"x": -1.9062503544,
				"y": 0.2747059954,
				"z": 1.1490202582,
				"element": "H" 
			},
			{
				"x": -3.6290845977,
				"y": -1.1582091173,
				"z": 2.1691841657,
				"element": "H" 
			},
			{
				"x": -3.9648572501,
				"y": -3.4970323633,
				"z": 1.3886895915,
				"element": "H" 
			},
			{
				"x": -2.5284002743,
				"y": -4.3821573696,
				"z": -0.4507770973,
				"element": "H" 
			},
			{
				"x": -0.8017736275,
				"y": -2.9526214057,
				"z": -1.4728762187,
				"element": "H" 
			}
		],
		 "valence_orbital": [ 
			{
				"type": "occ",
				"energy": -0.31227,
				"method": "rhf"
			},
			{
				"type": "occ",
				"energy": -0.29682,
				"method": "rhf"
			},
			{
				"type": "occ",
				"energy": -0.27755,
				"method": "rhf"
			},
			{
				"type": "occ",
				"energy": -0.25161,
				"method": "rhf"
			},
			{
				"type": "occ",
				"energy": -0.21726,
				"method": "rhf"
			},
			{
				"type": "unocc",
				"energy": -0.00307,
				"method": "rhf"
			},
			{
				"type": "unocc",
				"energy": -0.0018,
				"method": "rhf"
			},
			{
				"type": "unocc",
				"energy": 0.06445,
				"method": "rhf"
			},
			{
				"type": "unocc",
				"energy": 0.07943,
				"method": "rhf"
			},
			{
				"type": "unocc",
				"energy": 0.10029,
				"method": "rhf"
			}
		],
		"cosmo_sigma_profile": { 
			"-0.025": 0.0,
			"-0.024": 0.0,
			"-0.023": 0.0,
			"-0.022": 0.0,
			"-0.021": 0.0,
			"-0.02": 0.0,
			"-0.019": 0.0,
			"-0.018": 0.0,
			"-0.017": 0.0,
			"-0.016": 0.0,
			"-0.015": 0.524966082052,
			"-0.014": 0.888311849432,
			"-0.013": 1.37183227562,
			"-0.012": 0.890708896715,
			"-0.011": 0.908982456846,
			"-0.01": 1.46218631142,
			"-0.009": 1.099267228,
			"-0.008": 1.09792193672,
			"-0.007": 1.30859742618,
			"-0.006": 6.63895048914,
			"-0.005": 13.4673451651,
			"-0.004": 18.1852126572,
			"-0.003": 22.1820771897,
			"-0.002": 18.2511403284,
			"-0.001": 16.687009773,
			"0.0": 20.3312839063,
			"0.001": 14.4719398977,
			"0.002": 13.5253951377,
			"0.003": 12.6554026483,
			"0.004": 11.9384871968,
			"0.005": 11.3664275388,
			"0.006": 9.04951061077,
			"0.007": 1.67554141928,
			"0.008": 1.071559803,
			"0.009": 1.44250311465,
			"0.01": 1.44737803981,
			"0.011": 1.35517919589,
			"0.012": 2.97889712454,
			"0.013": 4.69565727669,
			"0.014": 0.273857576161,
			"0.015": 0.0,
			"0.016": 0.0,
			"0.017": 0.0,
			"0.018": 0.0,
			"0.019": 0.0,
			"0.02": 0.0,
			"0.021": 0.0,
			"0.022": 0.0,
			"0.023": 0.0,
			"0.024": 0.0,
			"0.025": 0.0
		}
	}
}
