{
	 "smiles": "OC(=O)C1=CC(CN2C(=O)C3=C(C=CC=C3)C2=O)=CC=C1", 
	 "Tm": 480.15, 
	 "num_atms": 32, 
	 "gaussian": { 
		 "optdone": 1, 
		 "sigma_profile": "yes", 
		 "theory": "DFT", 
		 "functional": "B3LYP", 
		 "basiset": "6-31G**", 
		 "properties": { 
			 "R2extent": 7152.217, 
			 "electric_dipole_moment_norm": 5.85994953818, 
			 "electric_quadrupole_moment_norm": 28.9478070301, 
			 "total_energy": -972.024735212, 
			 "HOMO_LUMO_gap": 0.17014, 
			 "cosmo_polarized_energy": -19.93, 
			 "cosmo_cavitation_energy": 38.39, 
			 "cosmo_dispersion_energy": -26.54, 
			 "cosmo_repulsion_energy": 1.99, 
			 "cosmo_total_nonelectrostatic_energy": 13.84, 
			 "SMD_solvation_energy": 8.36 
		},
		"coords": [
			{
				"x": -2.4017879877,
				"y": -1.3851590828,
				"z": 3.7677605607,
				"element": "O" 
			},
			{
				"x": -2.8745999039,
				"y": -2.0597141953,
				"z": 2.6882543293,
				"element": "C" 
			},
			{
				"x": -3.2193897287,
				"y": -3.2129855987,
				"z": 2.8043677488,
				"element": "O" 
			},
			{
				"x": -2.9447853765,
				"y": -1.3129351614,
				"z": 1.3873006267,
				"element": "C" 
			},
			{
				"x": -2.2720342887,
				"y": -0.10680371,
				"z": 1.1560689957,
				"element": "C" 
			},
			{
				"x": -2.3661667274,
				"y": 0.5388047937,
				"z": -0.0825115097,
				"element": "C" 
			},
			{
				"x": -1.6177205568,
				"y": 1.8363716809,
				"z": -0.3257741342,
				"element": "C" 
			},
			{
				"x": -0.2120436154,
				"y": 1.635047204,
				"z": -0.6685484767,
				"element": "N" 
			},
			{
				"x": 0.2594884731,
				"y": 1.5063108616,
				"z": -1.9866702386,
				"element": "C" 
			},
			{
				"x": -0.431991898,
				"y": 1.5661979768,
				"z": -2.9840337326,
				"element": "O" 
			},
			{
				"x": 1.7332270311,
				"y": 1.3003239025,
				"z": -1.8634359163,
				"element": "C" 
			},
			{
				"x": 2.0650721457,
				"y": 1.3075153227,
				"z": -0.5055795316,
				"element": "C" 
			},
			{
				"x": 3.3733379603,
				"y": 1.1376184537,
				"z": -0.0772228937,
				"element": "C" 
			},
			{
				"x": 4.3551191129,
				"y": 0.9578528323,
				"z": -1.061274678,
				"element": "C" 
			},
			{
				"x": 4.0228139273,
				"y": 0.9510817126,
				"z": -2.4219108273,
				"element": "C" 
			},
			{
				"x": 2.6975592156,
				"y": 1.1238092857,
				"z": -2.8445405778,
				"element": "C" 
			},
			{
				"x": 0.8132867804,
				"y": 1.5144227537,
				"z": 0.2804555415,
				"element": "C" 
			},
			{
				"x": 0.6606231651,
				"y": 1.5743424825,
				"z": 1.48671477,
				"element": "O" 
			},
			{
				"x": -3.1371564183,
				"y": -0.040380051,
				"z": -1.0958378607,
				"element": "C" 
			},
			{
				"x": -3.8053246549,
				"y": -1.2473229925,
				"z": -0.8744207489,
				"element": "C" 
			},
			{
				"x": -3.7072956526,
				"y": -1.8845491683,
				"z": 0.3585630533,
				"element": "C" 
			},
			{
				"x": -2.2721193309,
				"y": -0.4504434054,
				"z": 3.5569579039,
				"element": "H" 
			},
			{
				"x": -1.6220649862,
				"y": 0.3363918168,
				"z": 1.9077822479,
				"element": "H" 
			},
			{
				"x": -1.6384040083,
				"y": 2.465706462,
				"z": 0.5676906293,
				"element": "H" 
			},
			{
				"x": -2.0678557496,
				"y": 2.386320387,
				"z": -1.1550853773,
				"element": "H" 
			},
			{
				"x": 3.6196068474,
				"y": 1.1438817606,
				"z": 0.9795848146,
				"element": "H" 
			},
			{
				"x": 5.3909204759,
				"y": 0.820561016,
				"z": -0.7658830182,
				"element": "H" 
			},
			{
				"x": 4.8063225559,
				"y": 0.8087089268,
				"z": -3.1600663561,
				"element": "H" 
			},
			{
				"x": 2.4291755153,
				"y": 1.1197861201,
				"z": -3.8959720014,
				"element": "H" 
			},
			{
				"x": -3.2002417758,
				"y": 0.4504407467,
				"z": -2.0630548069,
				"element": "H" 
			},
			{
				"x": -4.3998780939,
				"y": -1.689725059,
				"z": -1.6680409716,
				"element": "H" 
			},
			{
				"x": -4.2094924524,
				"y": -2.8259780742,
				"z": 0.5522624359,
				"element": "H" 
			}
		],
		 "valence_orbital": [ 
			{
				"type": "occ",
				"energy": -0.27832,
				"method": "rhf"
			},
			{
				"type": "occ",
				"energy": -0.27702,
				"method": "rhf"
			},
			{
				"type": "occ",
				"energy": -0.27308,
				"method": "rhf"
			},
			{
				"type": "occ",
				"energy": -0.26891,
				"method": "rhf"
			},
			{
				"type": "occ",
				"energy": -0.26095,
				"method": "rhf"
			},
			{
				"type": "unocc",
				"energy": -0.09081,
				"method": "rhf"
			},
			{
				"type": "unocc",
				"energy": -0.05087,
				"method": "rhf"
			},
			{
				"type": "unocc",
				"energy": -0.04794,
				"method": "rhf"
			},
			{
				"type": "unocc",
				"energy": -0.02438,
				"method": "rhf"
			},
			{
				"type": "unocc",
				"energy": 0.02027,
				"method": "rhf"
			}
		],
		"cosmo_sigma_profile": { 
			"-0.025": 0.0,
			"-0.024": 0.0,
			"-0.023": 0.0,
			"-0.022": 0.0,
			"-0.021": 0.0,
			"-0.02": 0.0,
			"-0.019": 0.350313147957,
			"-0.018": 0.792986789501,
			"-0.017": 0.835286715101,
			"-0.016": 0.711954990472,
			"-0.015": 1.26637099414,
			"-0.014": 0.80248428922,
			"-0.013": 0.732207613531,
			"-0.012": 0.870597593288,
			"-0.011": 0.89972387929,
			"-0.01": 0.934079931601,
			"-0.009": 0.749285816447,
			"-0.008": 3.35158167392,
			"-0.007": 12.8865432265,
			"-0.006": 21.0922901126,
			"-0.005": 22.9255326744,
			"-0.004": 20.8119502031,
			"-0.003": 21.2654661586,
			"-0.002": 17.6016734617,
			"-0.001": 23.0066184441,
			"0.0": 21.9513521426,
			"0.001": 25.7967944195,
			"0.002": 28.713881007,
			"0.003": 16.8962340381,
			"0.004": 6.32176856012,
			"0.005": 5.11023187974,
			"0.006": 5.01516398207,
			"0.007": 5.29352500287,
			"0.008": 5.76206354416,
			"0.009": 6.60834195192,
			"0.01": 9.80535840199,
			"0.011": 11.8909482758,
			"0.012": 6.56690567584,
			"0.013": 1.50673572833,
			"0.014": 0.100665615514,
			"0.015": 0.0,
			"0.016": 0.0,
			"0.017": 0.0,
			"0.018": 0.0,
			"0.019": 0.0,
			"0.02": 0.0,
			"0.021": 0.0,
			"0.022": 0.0,
			"0.023": 0.0,
			"0.024": 0.0,
			"0.025": 0.0
		}
	}
}
