{
	 "smiles": "NS(=O)(=O)C1=CC(=CS1)C(O)=O", 
	 "Tm": 468.15, 
	 "num_atms": 17, 
	 "gaussian": { 
		 "optdone": 1, 
		 "sigma_profile": "yes", 
		 "theory": "DFT", 
		 "functional": "B3LYP", 
		 "basiset": "6-31G**", 
		 "properties": { 
			 "R2extent": 3821.8696, 
			 "electric_dipole_moment_norm": 4.78578696872, 
			 "electric_quadrupole_moment_norm": 21.9760743608, 
			 "total_energy": -1345.48685391, 
			 "HOMO_LUMO_gap": 0.20062, 
			 "cosmo_polarized_energy": -23.56, 
			 "cosmo_cavitation_energy": 25.81, 
			 "cosmo_dispersion_energy": -19.78, 
			 "cosmo_repulsion_energy": 1.49, 
			 "cosmo_total_nonelectrostatic_energy": 7.52, 
			 "SMD_solvation_energy": 5.27 
		},
		"coords": [
			{
				"x": 1.4971351295,
				"y": -0.3230953941,
				"z": 1.5014203957,
				"element": "N" 
			},
			{
				"x": -0.0340260121,
				"y": -0.4817998521,
				"z": 2.1294176167,
				"element": "S" 
			},
			{
				"x": -0.4161771082,
				"y": -1.8799869057,
				"z": 1.9638679818,
				"element": "O" 
			},
			{
				"x": -0.0247802471,
				"y": 0.1684035255,
				"z": 3.4353765055,
				"element": "O" 
			},
			{
				"x": -1.0845817031,
				"y": 0.4899049508,
				"z": 1.0560210005,
				"element": "C" 
			},
			{
				"x": -0.7246527068,
				"y": 1.2138909959,
				"z": -0.0451851503,
				"element": "C" 
			},
			{
				"x": -1.841718407,
				"y": 1.8649371612,
				"z": -0.6547490323,
				"element": "C" 
			},
			{
				"x": -3.0228394423,
				"y": 1.6156803022,
				"z": 0.0037857201,
				"element": "C" 
			},
			{
				"x": -2.8014484478,
				"y": 0.5913609914,
				"z": 1.3688043557,
				"element": "S" 
			},
			{
				"x": -1.6873358316,
				"y": 2.7033027367,
				"z": -1.8604395817,
				"element": "C" 
			},
			{
				"x": -2.859676257,
				"y": 3.2315448995,
				"z": -2.2845638219,
				"element": "O" 
			},
			{
				"x": -0.6288425392,
				"y": 2.9056279941,
				"z": -2.4213033926,
				"element": "O" 
			},
			{
				"x": 1.915133095,
				"y": 0.5941703629,
				"z": 1.6034177075,
				"element": "H" 
			},
			{
				"x": 1.6517491813,
				"y": -0.7843036485,
				"z": 0.6126646215,
				"element": "H" 
			},
			{
				"x": 0.2814319019,
				"y": 1.3019682325,
				"z": -0.4334744371,
				"element": "H" 
			},
			{
				"x": -4.0063750207,
				"y": 1.9854436665,
				"z": -0.2501955466,
				"element": "H" 
			},
			{
				"x": -2.6493955848,
				"y": 3.7589499812,
				"z": -3.0728649427,
				"element": "H" 
			}
		],
		 "valence_orbital": [ 
			{
				"type": "occ",
				"energy": -0.31922,
				"method": "rhf"
			},
			{
				"type": "occ",
				"energy": -0.3164,
				"method": "rhf"
			},
			{
				"type": "occ",
				"energy": -0.29516,
				"method": "rhf"
			},
			{
				"type": "occ",
				"energy": -0.28706,
				"method": "rhf"
			},
			{
				"type": "occ",
				"energy": -0.26878,
				"method": "rhf"
			},
			{
				"type": "unocc",
				"energy": -0.06816,
				"method": "rhf"
			},
			{
				"type": "unocc",
				"energy": -0.03011,
				"method": "rhf"
			},
			{
				"type": "unocc",
				"energy": -0.00189,
				"method": "rhf"
			},
			{
				"type": "unocc",
				"energy": 0.02737,
				"method": "rhf"
			},
			{
				"type": "unocc",
				"energy": 0.04285,
				"method": "rhf"
			}
		],
		"cosmo_sigma_profile": { 
			"-0.025": 0.0,
			"-0.024": 0.0,
			"-0.023": 0.0,
			"-0.022": 0.0,
			"-0.021": 0.0,
			"-0.02": 0.0,
			"-0.019": 0.187596681299,
			"-0.018": 1.08821394508,
			"-0.017": 0.777919021728,
			"-0.016": 2.71897882631,
			"-0.015": 3.25756910128,
			"-0.014": 4.74010551847,
			"-0.013": 3.18306124293,
			"-0.012": 3.90595336051,
			"-0.011": 4.912567811,
			"-0.01": 5.42888999159,
			"-0.009": 3.94382195532,
			"-0.008": 5.04002415315,
			"-0.007": 4.11980037633,
			"-0.006": 3.413562483,
			"-0.005": 5.11764733709,
			"-0.004": 5.29383066176,
			"-0.003": 8.4566245074,
			"-0.002": 10.8149023192,
			"-0.001": 15.0742756537,
			"0.0": 21.0952779449,
			"0.001": 14.4238131248,
			"0.002": 7.46987042642,
			"0.003": 5.69095719358,
			"0.004": 6.5406294688,
			"0.005": 4.85678716515,
			"0.006": 6.89905339746,
			"0.007": 8.04807187499,
			"0.008": 4.14415507543,
			"0.009": 6.30632065817,
			"0.01": 14.0306705456,
			"0.011": 14.8017640623,
			"0.012": 2.80363519429,
			"0.013": 0.0,
			"0.014": 0.0,
			"0.015": 0.0,
			"0.016": 0.0,
			"0.017": 0.0,
			"0.018": 0.0,
			"0.019": 0.0,
			"0.02": 0.0,
			"0.021": 0.0,
			"0.022": 0.0,
			"0.023": 0.0,
			"0.024": 0.0,
			"0.025": 0.0
		}
	}
}
