{
	 "smiles": "CC[Si](Cl)(Cl)CC", 
	 "Tm": 176.35, 
	 "num_atms": 17, 
	 "gaussian": { 
		 "optdone": 1, 
		 "sigma_profile": "yes", 
		 "theory": "DFT", 
		 "functional": "B3LYP", 
		 "basiset": "6-31G**", 
		 "properties": { 
			 "R2extent": 1593.5768, 
			 "electric_dipole_moment_norm": 3.05950622323, 
			 "electric_quadrupole_moment_norm": 5.91073024084, 
			 "total_energy": -1368.46950263, 
			 "HOMO_LUMO_gap": 0.31418, 
			 "cosmo_polarized_energy": -4.48, 
			 "cosmo_cavitation_energy": 24.29, 
			 "cosmo_dispersion_energy": -15.55, 
			 "cosmo_repulsion_energy": 1.42, 
			 "cosmo_total_nonelectrostatic_energy": 10.16, 
			 "SMD_solvation_energy": 3.78 
		},
		"coords": [
			{
				"x": 1.3992013952,
				"y": -2.2136939162,
				"z": -1.5170256558,
				"element": "C" 
			},
			{
				"x": -0.0895294863,
				"y": -1.9102313835,
				"z": -1.2686591855,
				"element": "C" 
			},
			{
				"x": -0.4747603481,
				"y": -0.4888101351,
				"z": -0.0981257052,
				"element": "Si" 
			},
			{
				"x": 0.446559618,
				"y": -0.8711677899,
				"z": 1.7398849173,
				"element": "Cl" 
			},
			{
				"x": -2.5438976278,
				"y": -0.4998916188,
				"z": 0.2039639152,
				"element": "Cl" 
			},
			{
				"x": -0.0160072798,
				"y": 1.2506933843,
				"z": -0.6482790111,
				"element": "C" 
			},
			{
				"x": 1.4868580084,
				"y": 1.5590780129,
				"z": -0.7764730185,
				"element": "C" 
			},
			{
				"x": 1.912615849,
				"y": -1.3764469709,
				"z": -1.9995948206,
				"element": "H" 
			},
			{
				"x": 1.5100335757,
				"y": -3.0846961952,
				"z": -2.171010669,
				"element": "H" 
			},
			{
				"x": 1.9239549478,
				"y": -2.4319934642,
				"z": -0.5823497075,
				"element": "H" 
			},
			{
				"x": -0.6005646644,
				"y": -1.6886640883,
				"z": -2.2154936813,
				"element": "H" 
			},
			{
				"x": -0.5911516311,
				"y": -2.7959391266,
				"z": -0.8599299154,
				"element": "H" 
			},
			{
				"x": -0.5279745418,
				"y": 1.4261195053,
				"z": -1.6042444568,
				"element": "H" 
			},
			{
				"x": -0.4813789366,
				"y": 1.9378535643,
				"z": 0.0689464942,
				"element": "H" 
			},
			{
				"x": 1.9669961164,
				"y": 0.9440214366,
				"z": -1.5436921164,
				"element": "H" 
			},
			{
				"x": 1.6418715499,
				"y": 2.6066409427,
				"z": -1.0543509124,
				"element": "H" 
			},
			{
				"x": 2.0125734556,
				"y": 1.3851278426,
				"z": 0.1669335286,
				"element": "H" 
			}
		],
		 "valence_orbital": [ 
			{
				"type": "occ",
				"energy": -0.3414,
				"method": "rhf"
			},
			{
				"type": "occ",
				"energy": -0.32331,
				"method": "rhf"
			},
			{
				"type": "occ",
				"energy": -0.32209,
				"method": "rhf"
			},
			{
				"type": "occ",
				"energy": -0.3131,
				"method": "rhf"
			},
			{
				"type": "occ",
				"energy": -0.2919,
				"method": "rhf"
			},
			{
				"type": "unocc",
				"energy": 0.02228,
				"method": "rhf"
			},
			{
				"type": "unocc",
				"energy": 0.03086,
				"method": "rhf"
			},
			{
				"type": "unocc",
				"energy": 0.05823,
				"method": "rhf"
			},
			{
				"type": "unocc",
				"energy": 0.09043,
				"method": "rhf"
			},
			{
				"type": "unocc",
				"energy": 0.10934,
				"method": "rhf"
			}
		],
		"cosmo_sigma_profile": { 
			"-0.025": 0.0,
			"-0.024": 0.0,
			"-0.023": 0.0,
			"-0.022": 0.0,
			"-0.021": 0.0,
			"-0.02": 0.0,
			"-0.019": 0.0,
			"-0.018": 0.0,
			"-0.017": 0.0,
			"-0.016": 0.0,
			"-0.015": 0.0,
			"-0.014": 0.0,
			"-0.013": 0.0,
			"-0.012": 0.0,
			"-0.011": 0.0,
			"-0.01": 0.0,
			"-0.009": 0.0,
			"-0.008": 0.0,
			"-0.007": 0.0,
			"-0.006": 3.68070203677,
			"-0.005": 10.5562083082,
			"-0.004": 12.6962252904,
			"-0.003": 18.713677254,
			"-0.002": 20.4705224976,
			"-0.001": 27.0785731998,
			"0.0": 23.1702728758,
			"0.001": 14.731002844,
			"0.002": 9.50470651708,
			"0.003": 11.6278160946,
			"0.004": 15.4571435171,
			"0.005": 20.1326936634,
			"0.006": 2.89885191328,
			"0.007": 0.0,
			"0.008": 0.0,
			"0.009": 0.0,
			"0.01": 0.0,
			"0.011": 0.0,
			"0.012": 0.0,
			"0.013": 0.0,
			"0.014": 0.0,
			"0.015": 0.0,
			"0.016": 0.0,
			"0.017": 0.0,
			"0.018": 0.0,
			"0.019": 0.0,
			"0.02": 0.0,
			"0.021": 0.0,
			"0.022": 0.0,
			"0.023": 0.0,
			"0.024": 0.0,
			"0.025": 0.0
		}
	}
}
