{
	 "smiles": "CC1=CC(Cl)=CC(Cl)=C1N", 
	 "Tm": 317.15, 
	 "num_atms": 17, 
	 "gaussian": { 
		 "optdone": 1, 
		 "sigma_profile": "yes", 
		 "theory": "DFT", 
		 "functional": "B3LYP", 
		 "basiset": "6-31G**", 
		 "properties": { 
			 "R2extent": 2839.5737, 
			 "electric_dipole_moment_norm": 3.45661529679, 
			 "electric_quadrupole_moment_norm": 4.68479228355, 
			 "total_energy": -1246.11269494, 
			 "HOMO_LUMO_gap": 0.19575, 
			 "cosmo_polarized_energy": -7.55, 
			 "cosmo_cavitation_energy": 23.92, 
			 "cosmo_dispersion_energy": -18.2, 
			 "cosmo_repulsion_energy": 1.48, 
			 "cosmo_total_nonelectrostatic_energy": 7.2, 
			 "SMD_solvation_energy": 3.43 
		},
		"coords": [
			{
				"x": 1.287102401,
				"y": 0.4111246458,
				"z": -1.087753234,
				"element": "C" 
			},
			{
				"x": 0.2606972824,
				"y": -0.0099320164,
				"z": -0.0654992321,
				"element": "C" 
			},
			{
				"x": -0.2565414821,
				"y": 0.9098579882,
				"z": 0.8459236054,
				"element": "C" 
			},
			{
				"x": -1.2173946815,
				"y": 0.5256666857,
				"z": 1.7799648382,
				"element": "C" 
			},
			{
				"x": -1.8544038569,
				"y": 1.7082250576,
				"z": 2.91548833,
				"element": "Cl" 
			},
			{
				"x": -1.6803190665,
				"y": -0.7844308045,
				"z": 1.8230156403,
				"element": "C" 
			},
			{
				"x": -1.158890725,
				"y": -1.7022466531,
				"z": 0.9156704673,
				"element": "C" 
			},
			{
				"x": -1.7379488512,
				"y": -3.3675837763,
				"z": 0.9808553516,
				"element": "Cl" 
			},
			{
				"x": -0.1893526367,
				"y": -1.3535230633,
				"z": -0.0421817948,
				"element": "C" 
			},
			{
				"x": 0.2745833923,
				"y": -2.2688660775,
				"z": -0.9760953362,
				"element": "N" 
			},
			{
				"x": 0.9475667011,
				"y": 0.1903613824,
				"z": -2.1070281042,
				"element": "H" 
			},
			{
				"x": 1.4883177581,
				"y": 1.4826818142,
				"z": -1.023021288,
				"element": "H" 
			},
			{
				"x": 2.2451903969,
				"y": -0.1084258536,
				"z": -0.9450640798,
				"element": "H" 
			},
			{
				"x": 0.0903468533,
				"y": 1.9375317371,
				"z": 0.8245328924,
				"element": "H" 
			},
			{
				"x": -2.4254554373,
				"y": -1.093273577,
				"z": 2.5455211262,
				"element": "H" 
			},
			{
				"x": 1.2051979204,
				"y": -2.1051116178,
				"z": -1.3304275176,
				"element": "H" 
			},
			{
				"x": 0.0961040318,
				"y": -3.2389558714,
				"z": -0.7572016648,
				"element": "H" 
			}
		],
		 "valence_orbital": [ 
			{
				"type": "occ",
				"energy": -0.32372,
				"method": "rhf"
			},
			{
				"type": "occ",
				"energy": -0.30919,
				"method": "rhf"
			},
			{
				"type": "occ",
				"energy": -0.29705,
				"method": "rhf"
			},
			{
				"type": "occ",
				"energy": -0.25145,
				"method": "rhf"
			},
			{
				"type": "occ",
				"energy": -0.2105,
				"method": "rhf"
			},
			{
				"type": "unocc",
				"energy": -0.01475,
				"method": "rhf"
			},
			{
				"type": "unocc",
				"energy": -0.0008,
				"method": "rhf"
			},
			{
				"type": "unocc",
				"energy": 0.01133,
				"method": "rhf"
			},
			{
				"type": "unocc",
				"energy": 0.05319,
				"method": "rhf"
			},
			{
				"type": "unocc",
				"energy": 0.06988,
				"method": "rhf"
			}
		],
		"cosmo_sigma_profile": { 
			"-0.025": 0.0,
			"-0.024": 0.0,
			"-0.023": 0.0,
			"-0.022": 0.0,
			"-0.021": 0.0,
			"-0.02": 0.0,
			"-0.019": 0.0,
			"-0.018": 0.0,
			"-0.017": 0.0,
			"-0.016": 0.0,
			"-0.015": 0.0,
			"-0.014": 0.0,
			"-0.013": 0.412559118469,
			"-0.012": 1.48673681895,
			"-0.011": 2.15060055015,
			"-0.01": 2.95928552292,
			"-0.009": 2.19106943252,
			"-0.008": 3.37052960207,
			"-0.007": 4.19260267345,
			"-0.006": 7.13571251662,
			"-0.005": 7.92325251912,
			"-0.004": 9.8110726963,
			"-0.003": 9.83976876259,
			"-0.002": 12.1141577575,
			"-0.001": 14.4793435222,
			"0.0": 15.2702091714,
			"0.001": 14.9761886059,
			"0.002": 19.4371694432,
			"0.003": 24.8783693798,
			"0.004": 22.4879071346,
			"0.005": 14.0519503359,
			"0.006": 1.88770048749,
			"0.007": 0.519934723538,
			"0.008": 0.67507728384,
			"0.009": 0.774803545764,
			"0.01": 0.693734860325,
			"0.011": 0.343551633182,
			"0.012": 0.536277611605,
			"0.013": 0.371542693608,
			"0.014": 0.0,
			"0.015": 0.0,
			"0.016": 0.0,
			"0.017": 0.0,
			"0.018": 0.0,
			"0.019": 0.0,
			"0.02": 0.0,
			"0.021": 0.0,
			"0.022": 0.0,
			"0.023": 0.0,
			"0.024": 0.0,
			"0.025": 0.0
		}
	}
}
