{
	 "smiles": "CC1=CC(C)=C(NS(C)(=O)=O)C(C)=C1S(Cl)(=O)=O", 
	 "Tm": 449.15, 
	 "num_atms": 32, 
	 "gaussian": { 
		 "optdone": 1, 
		 "sigma_profile": "yes", 
		 "theory": "DFT", 
		 "functional": "B3LYP", 
		 "basiset": "6-31G**", 
		 "properties": { 
			 "R2extent": 6941.583, 
			 "electric_dipole_moment_norm": 5.49804326829, 
			 "electric_quadrupole_moment_norm": 30.4082571617, 
			 "total_energy": -2001.59089663, 
			 "HOMO_LUMO_gap": 0.17048, 
			 "cosmo_polarized_energy": -19.74, 
			 "cosmo_cavitation_energy": 37.93, 
			 "cosmo_dispersion_energy": -27.61, 
			 "cosmo_repulsion_energy": 2.0, 
			 "cosmo_total_nonelectrostatic_energy": 12.32, 
			 "SMD_solvation_energy": 5.05 
		},
		"coords": [
			{
				"x": 1.8155213801,
				"y": 0.0681543273,
				"z": -4.1366873802,
				"element": "C" 
			},
			{
				"x": 0.869308689,
				"y": 0.1888977074,
				"z": -2.9618486979,
				"element": "C" 
			},
			{
				"x": -0.4823967808,
				"y": 0.394996169,
				"z": -3.2594918596,
				"element": "C" 
			},
			{
				"x": -1.4680948917,
				"y": 0.5569927888,
				"z": -2.2912684416,
				"element": "C" 
			},
			{
				"x": -2.9000631349,
				"y": 0.8046431021,
				"z": -2.6991872444,
				"element": "C" 
			},
			{
				"x": -1.0913956667,
				"y": 0.4794727419,
				"z": -0.9384665723,
				"element": "C" 
			},
			{
				"x": -2.0990988035,
				"y": 0.5943248527,
				"z": 0.0773316048,
				"element": "N" 
			},
			{
				"x": -2.384560618,
				"y": 2.1371179377,
				"z": 0.7963518495,
				"element": "S" 
			},
			{
				"x": -2.4871475341,
				"y": 1.7177893615,
				"z": 2.5425176181,
				"element": "C" 
			},
			{
				"x": -1.1974004514,
				"y": 2.960734748,
				"z": 0.5761856508,
				"element": "O" 
			},
			{
				"x": -3.7195212877,
				"y": 2.5771722026,
				"z": 0.3723643947,
				"element": "O" 
			},
			{
				"x": 0.2429419573,
				"y": 0.2393615721,
				"z": -0.5563206768,
				"element": "C" 
			},
			{
				"x": 0.5561252913,
				"y": 0.1606739493,
				"z": 0.9191304826,
				"element": "C" 
			},
			{
				"x": 1.2027292263,
				"y": 0.1101411031,
				"z": -1.5896624939,
				"element": "C" 
			},
			{
				"x": 2.9241411173,
				"y": -0.2145837856,
				"z": -1.1282443089,
				"element": "S" 
			},
			{
				"x": 3.4456712651,
				"y": 1.577773445,
				"z": -0.0752463022,
				"element": "Cl" 
			},
			{
				"x": 3.7904100378,
				"y": -0.2233176562,
				"z": -2.2990442304,
				"element": "O" 
			},
			{
				"x": 2.9991883525,
				"y": -1.3053860286,
				"z": -0.1604763559,
				"element": "O" 
			},
			{
				"x": 1.2449898426,
				"y": 0.1546021883,
				"z": -5.0640940309,
				"element": "H" 
			},
			{
				"x": 2.345223727,
				"y": -0.886851627,
				"z": -4.1445929411,
				"element": "H" 
			},
			{
				"x": 2.5812440758,
				"y": 0.8465544607,
				"z": -4.1260130493,
				"element": "H" 
			},
			{
				"x": -0.7690726063,
				"y": 0.4534799963,
				"z": -4.3052572771,
				"element": "H" 
			},
			{
				"x": -3.5409590722,
				"y": -0.0563960453,
				"z": -2.4645233042,
				"element": "H" 
			},
			{
				"x": -2.9708148698,
				"y": 0.9712822974,
				"z": -3.7760606255,
				"element": "H" 
			},
			{
				"x": -3.3241966132,
				"y": 1.6740157334,
				"z": -2.1876746131,
				"element": "H" 
			},
			{
				"x": -3.0042714903,
				"y": 0.2556126168,
				"z": -0.2384222708,
				"element": "H" 
			},
			{
				"x": -1.5310422754,
				"y": 1.3097841682,
				"z": 2.8679531198,
				"element": "H" 
			},
			{
				"x": -2.7103653773,
				"y": 2.6462970059,
				"z": 3.0712038558,
				"element": "H" 
			},
			{
				"x": -3.2932683483,
				"y": 0.9974855705,
				"z": 2.6858543866,
				"element": "H" 
			},
			{
				"x": -0.3058407097,
				"y": -0.2629545526,
				"z": 1.4384735873,
				"element": "H" 
			},
			{
				"x": 0.730526154,
				"y": 1.1666411135,
				"z": 1.3148466047,
				"element": "H" 
			},
			{
				"x": 1.4269894152,
				"y": -0.4509114643,
				"z": 1.1361695215,
				"element": "H" 
			}
		],
		 "valence_orbital": [ 
			{
				"type": "occ",
				"energy": -0.31796,
				"method": "rhf"
			},
			{
				"type": "occ",
				"energy": -0.3102,
				"method": "rhf"
			},
			{
				"type": "occ",
				"energy": -0.308,
				"method": "rhf"
			},
			{
				"type": "occ",
				"energy": -0.27347,
				"method": "rhf"
			},
			{
				"type": "occ",
				"energy": -0.25561,
				"method": "rhf"
			},
			{
				"type": "unocc",
				"energy": -0.08513,
				"method": "rhf"
			},
			{
				"type": "unocc",
				"energy": -0.04554,
				"method": "rhf"
			},
			{
				"type": "unocc",
				"energy": -0.03358,
				"method": "rhf"
			},
			{
				"type": "unocc",
				"energy": 0.04155,
				"method": "rhf"
			},
			{
				"type": "unocc",
				"energy": 0.04809,
				"method": "rhf"
			}
		],
		"cosmo_sigma_profile": { 
			"-0.025": 0.0,
			"-0.024": 0.0,
			"-0.023": 0.0,
			"-0.022": 0.0,
			"-0.021": 0.0,
			"-0.02": 0.0,
			"-0.019": 0.0,
			"-0.018": 0.0,
			"-0.017": 0.0,
			"-0.016": 0.0,
			"-0.015": 0.330945688561,
			"-0.014": 0.770022963897,
			"-0.013": 1.48683856722,
			"-0.012": 1.36086391202,
			"-0.011": 1.65595977569,
			"-0.01": 2.14083531197,
			"-0.009": 4.53370056212,
			"-0.008": 5.91778437159,
			"-0.007": 10.8076857776,
			"-0.006": 14.2765624871,
			"-0.005": 17.0185847205,
			"-0.004": 20.4274801427,
			"-0.003": 18.3524945769,
			"-0.002": 23.6343570517,
			"-0.001": 30.0969051841,
			"0.0": 25.5101284903,
			"0.001": 19.5959441124,
			"0.002": 18.0710651324,
			"0.003": 14.2580713899,
			"0.004": 14.6405992548,
			"0.005": 6.734511457,
			"0.006": 6.10722259133,
			"0.007": 8.90354848327,
			"0.008": 10.3650303377,
			"0.009": 8.80196578998,
			"0.01": 8.13361302879,
			"0.011": 8.35645909302,
			"0.012": 0.981364123449,
			"0.013": 0.0,
			"0.014": 0.0,
			"0.015": 0.0,
			"0.016": 0.0,
			"0.017": 0.0,
			"0.018": 0.0,
			"0.019": 0.0,
			"0.02": 0.0,
			"0.021": 0.0,
			"0.022": 0.0,
			"0.023": 0.0,
			"0.024": 0.0,
			"0.025": 0.0
		}
	}
}
