{
	 "smiles": "[O-][N+](=O)C1=C(Br)C=C2OCCOC2=C1", 
	 "Tm": 441.15, 
	 "num_atms": 20, 
	 "gaussian": { 
		 "optdone": 1, 
		 "sigma_profile": "yes", 
		 "theory": "DFT", 
		 "functional": "B3LYP", 
		 "basiset": "6-31G**", 
		 "properties": { 
			 "R2extent": 5670.9762, 
			 "electric_dipole_moment_norm": 7.1605621965, 
			 "electric_quadrupole_moment_norm": 20.4009066294, 
			 "total_energy": -3235.38414419, 
			 "HOMO_LUMO_gap": 0.15595, 
			 "cosmo_polarized_energy": -12.24, 
			 "cosmo_cavitation_energy": 26.85, 
			 "cosmo_dispersion_energy": -20.81, 
			 "cosmo_repulsion_energy": 1.63, 
			 "cosmo_total_nonelectrostatic_energy": 7.66, 
			 "SMD_solvation_energy": 6.11 
		},
		"coords": [
			{
				"x": -3.389620309,
				"y": 3.8496832997,
				"z": -0.8176324234,
				"element": "O" 
			},
			{
				"x": -2.2597520058,
				"y": 3.62851088,
				"z": -1.2587209458,
				"element": "N" 
			},
			{
				"x": -1.5951695249,
				"y": 4.4291017473,
				"z": -1.9096536123,
				"element": "O" 
			},
			{
				"x": -1.6951714821,
				"y": 2.2954653099,
				"z": -1.0029490876,
				"element": "C" 
			},
			{
				"x": -0.3182854437,
				"y": 2.0137302608,
				"z": -0.9927570389,
				"element": "C" 
			},
			{
				"x": 1.0611981326,
				"y": 3.3035082872,
				"z": -1.2018696877,
				"element": "Br" 
			},
			{
				"x": 0.0936307715,
				"y": 0.7024106431,
				"z": -0.7631584708,
				"element": "C" 
			},
			{
				"x": -0.8324816491,
				"y": -0.3194359772,
				"z": -0.5569663819,
				"element": "C" 
			},
			{
				"x": -0.363419894,
				"y": -1.5834532906,
				"z": -0.3651630027,
				"element": "O" 
			},
			{
				"x": -1.3629326429,
				"y": -2.606572404,
				"z": -0.4670763443,
				"element": "C" 
			},
			{
				"x": -2.6241632957,
				"y": -2.1836236442,
				"z": 0.2663579467,
				"element": "C" 
			},
			{
				"x": -3.1530074123,
				"y": -0.9881668818,
				"z": -0.3144304204,
				"element": "O" 
			},
			{
				"x": -2.2095742415,
				"y": -0.0237040262,
				"z": -0.5396526632,
				"element": "C" 
			},
			{
				"x": -2.624558365,
				"y": 1.2807103904,
				"z": -0.760184635,
				"element": "C" 
			},
			{
				"x": 1.1482112129,
				"y": 0.456191143,
				"z": -0.7470330957,
				"element": "H" 
			},
			{
				"x": -1.5850360981,
				"y": -2.7957668804,
				"z": -1.5249195205,
				"element": "H" 
			},
			{
				"x": -0.925906479,
				"y": -3.5050775184,
				"z": -0.0260483181,
				"element": "H" 
			},
			{
				"x": -2.405355813,
				"y": -2.0146276492,
				"z": 1.3289814927,
				"element": "H" 
			},
			{
				"x": -3.4060446085,
				"y": -2.9411255874,
				"z": 0.178492837,
				"element": "H" 
			},
			{
				"x": -3.6794608521,
				"y": 1.5220418982,
				"z": -0.7402166277,
				"element": "H" 
			}
		],
		 "valence_orbital": [ 
			{
				"type": "occ",
				"energy": -0.2996,
				"method": "rhf"
			},
			{
				"type": "occ",
				"energy": -0.29451,
				"method": "rhf"
			},
			{
				"type": "occ",
				"energy": -0.27396,
				"method": "rhf"
			},
			{
				"type": "occ",
				"energy": -0.26018,
				"method": "rhf"
			},
			{
				"type": "occ",
				"energy": -0.23824,
				"method": "rhf"
			},
			{
				"type": "unocc",
				"energy": -0.08229,
				"method": "rhf"
			},
			{
				"type": "unocc",
				"energy": -0.02947,
				"method": "rhf"
			},
			{
				"type": "unocc",
				"energy": -0.00809,
				"method": "rhf"
			},
			{
				"type": "unocc",
				"energy": 0.00219,
				"method": "rhf"
			},
			{
				"type": "unocc",
				"energy": 0.06434,
				"method": "rhf"
			}
		],
		"cosmo_sigma_profile": { 
			"-0.025": 0.0,
			"-0.024": 0.0,
			"-0.023": 0.0,
			"-0.022": 0.0,
			"-0.021": 0.0,
			"-0.02": 0.0,
			"-0.019": 0.0,
			"-0.018": 0.0,
			"-0.017": 0.0,
			"-0.016": 0.0,
			"-0.015": 0.0,
			"-0.014": 0.0,
			"-0.013": 0.0,
			"-0.012": 0.0,
			"-0.011": 0.0,
			"-0.01": 0.0,
			"-0.009": 0.30997034118,
			"-0.008": 6.62801446289,
			"-0.007": 16.0365360263,
			"-0.006": 15.2433124984,
			"-0.005": 14.3386268844,
			"-0.004": 11.9443411133,
			"-0.003": 11.2496926177,
			"-0.002": 9.95531312045,
			"-0.001": 17.4085174678,
			"0.0": 22.0013643087,
			"0.001": 14.5198493569,
			"0.002": 11.004405774,
			"0.003": 11.7882080523,
			"0.004": 10.557054697,
			"0.005": 6.74739908022,
			"0.006": 6.06280968787,
			"0.007": 9.07069738666,
			"0.008": 13.8044203353,
			"0.009": 6.7716600138,
			"0.01": 2.86050431174,
			"0.011": 0.0266562310817,
			"0.012": 0.0,
			"0.013": 0.0,
			"0.014": 0.0,
			"0.015": 0.0,
			"0.016": 0.0,
			"0.017": 0.0,
			"0.018": 0.0,
			"0.019": 0.0,
			"0.02": 0.0,
			"0.021": 0.0,
			"0.022": 0.0,
			"0.023": 0.0,
			"0.024": 0.0,
			"0.025": 0.0
		}
	}
}
