{
	 "smiles": "N#CCC1=CC=CC=N1", 
	 "Tm": 297.15, 
	 "num_atms": 15, 
	 "gaussian": { 
		 "optdone": 1, 
		 "sigma_profile": "yes", 
		 "theory": "DFT", 
		 "functional": "B3LYP", 
		 "basiset": "6-31G**", 
		 "properties": { 
			 "R2extent": 1623.5738, 
			 "electric_dipole_moment_norm": 3.4541511982, 
			 "electric_quadrupole_moment_norm": 11.7990362759, 
			 "total_energy": -379.84193865, 
			 "HOMO_LUMO_gap": 0.23055, 
			 "cosmo_polarized_energy": -9.75, 
			 "cosmo_cavitation_energy": 20.15, 
			 "cosmo_dispersion_energy": -14.48, 
			 "cosmo_repulsion_energy": 1.19, 
			 "cosmo_total_nonelectrostatic_energy": 6.86, 
			 "SMD_solvation_energy": 3.55 
		},
		"coords": [
			{
				"x": 2.0825672031,
				"y": 1.6055972144,
				"z": 1.3308757955,
				"element": "N" 
			},
			{
				"x": 1.043852625,
				"y": 1.4220976392,
				"z": 0.8468787415,
				"element": "C" 
			},
			{
				"x": -0.2602853712,
				"y": 1.1851015292,
				"z": 0.2271422764,
				"element": "C" 
			},
			{
				"x": -0.2150883814,
				"y": 0.428312849,
				"z": -1.0972298552,
				"element": "C" 
			},
			{
				"x": 0.9724286483,
				"y": -0.0117797854,
				"z": -1.6863805559,
				"element": "C" 
			},
			{
				"x": 0.8961134232,
				"y": -0.6951191698,
				"z": -2.9005519165,
				"element": "C" 
			},
			{
				"x": -0.3534524023,
				"y": -0.9117020284,
				"z": -3.4765977792,
				"element": "C" 
			},
			{
				"x": -1.4794052163,
				"y": -0.4305551259,
				"z": -2.8057025343,
				"element": "C" 
			},
			{
				"x": -1.4227596753,
				"y": 0.2255906251,
				"z": -1.642405684,
				"element": "N" 
			},
			{
				"x": -0.8918753562,
				"y": 0.6309131569,
				"z": 0.9314431966,
				"element": "H" 
			},
			{
				"x": -0.7577256889,
				"y": 2.1491948349,
				"z": 0.068505573,
				"element": "H" 
			},
			{
				"x": 1.9276443534,
				"y": 0.1755588184,
				"z": -1.20771513,
				"element": "H" 
			},
			{
				"x": 1.800672847,
				"y": -1.0507706432,
				"z": -3.3852148641,
				"element": "H" 
			},
			{
				"x": -0.4588794916,
				"y": -1.4383273716,
				"z": -4.4195220537,
				"element": "H" 
			},
			{
				"x": -2.4745075169,
				"y": -0.5786125429,
				"z": -3.2214252102,
				"element": "H" 
			}
		],
		 "valence_orbital": [ 
			{
				"type": "occ",
				"energy": -0.3324,
				"method": "rhf"
			},
			{
				"type": "occ",
				"energy": -0.33034,
				"method": "rhf"
			},
			{
				"type": "occ",
				"energy": -0.29697,
				"method": "rhf"
			},
			{
				"type": "occ",
				"energy": -0.27034,
				"method": "rhf"
			},
			{
				"type": "occ",
				"energy": -0.26948,
				"method": "rhf"
			},
			{
				"type": "unocc",
				"energy": -0.03893,
				"method": "rhf"
			},
			{
				"type": "unocc",
				"energy": -0.02216,
				"method": "rhf"
			},
			{
				"type": "unocc",
				"energy": 0.0293,
				"method": "rhf"
			},
			{
				"type": "unocc",
				"energy": 0.03822,
				"method": "rhf"
			},
			{
				"type": "unocc",
				"energy": 0.09108,
				"method": "rhf"
			}
		],
		"cosmo_sigma_profile": { 
			"-0.025": 0.0,
			"-0.024": 0.0,
			"-0.023": 0.0,
			"-0.022": 0.0,
			"-0.021": 0.0,
			"-0.02": 0.0,
			"-0.019": 0.0,
			"-0.018": 0.0,
			"-0.017": 0.0,
			"-0.016": 0.0,
			"-0.015": 0.0,
			"-0.014": 0.0,
			"-0.013": 0.0,
			"-0.012": 0.0,
			"-0.011": 0.0,
			"-0.01": 0.192470073161,
			"-0.009": 4.04736234839,
			"-0.008": 5.45528370208,
			"-0.007": 8.82086301307,
			"-0.006": 13.190911103,
			"-0.005": 12.3499742476,
			"-0.004": 11.1647787805,
			"-0.003": 9.44149577183,
			"-0.002": 8.85203106993,
			"-0.001": 9.03635563479,
			"0.0": 8.5954705735,
			"0.001": 9.97658918773,
			"0.002": 15.9429092752,
			"0.003": 8.50085152323,
			"0.004": 4.71473721061,
			"0.005": 3.05766558533,
			"0.006": 2.76716673644,
			"0.007": 4.40712853201,
			"0.008": 4.31125504509,
			"0.009": 4.08898352778,
			"0.01": 3.6832882216,
			"0.011": 3.54297359948,
			"0.012": 2.98132872647,
			"0.013": 2.09582193746,
			"0.014": 0.752144802043,
			"0.015": 0.791593514957,
			"0.016": 0.0625002066545,
			"0.017": 0.0,
			"0.018": 0.0,
			"0.019": 0.0,
			"0.02": 0.0,
			"0.021": 0.0,
			"0.022": 0.0,
			"0.023": 0.0,
			"0.024": 0.0,
			"0.025": 0.0
		}
	}
}
