{
	 "smiles": "CN1CCN(CC1)C(=O)C1CCCNC1", 
	 "Tm": 359.15, 
	 "num_atms": 36, 
	 "gaussian": { 
		 "optdone": 1, 
		 "sigma_profile": "yes", 
		 "theory": "DFT", 
		 "functional": "B3LYP", 
		 "basiset": "6-31G**", 
		 "properties": { 
			 "R2extent": 4445.2722, 
			 "electric_dipole_moment_norm": 3.22774159746, 
			 "electric_quadrupole_moment_norm": 9.10351144779, 
			 "total_energy": -671.297668813, 
			 "HOMO_LUMO_gap": 0.24313, 
			 "cosmo_polarized_energy": -13.94, 
			 "cosmo_cavitation_energy": 34.07, 
			 "cosmo_dispersion_energy": -25.12, 
			 "cosmo_repulsion_energy": 1.97, 
			 "cosmo_total_nonelectrostatic_energy": 10.92, 
			 "SMD_solvation_energy": 0.1 
		},
		"coords": [
			{
				"x": 0.0509121232,
				"y": -4.296736984,
				"z": 2.6962897282,
				"element": "C" 
			},
			{
				"x": 0.2692979958,
				"y": -2.8591230879,
				"z": 2.6977155528,
				"element": "N" 
			},
			{
				"x": 1.2502656533,
				"y": -2.3893405914,
				"z": 1.7014400775,
				"element": "C" 
			},
			{
				"x": 0.619452827,
				"y": -1.7495957415,
				"z": 0.4631436271,
				"element": "C" 
			},
			{
				"x": -0.2190908962,
				"y": -0.611816494,
				"z": 0.8700326681,
				"element": "N" 
			},
			{
				"x": -0.7616768747,
				"y": -0.6679208461,
				"z": 2.2299830153,
				"element": "C" 
			},
			{
				"x": -0.9940421266,
				"y": -2.1231512,
				"z": 2.636647052,
				"element": "C" 
			},
			{
				"x": -0.5192294673,
				"y": 0.3206425664,
				"z": -0.0967816547,
				"element": "C" 
			},
			{
				"x": -0.129827668,
				"y": 0.1533558659,
				"z": -1.2511158777,
				"element": "O" 
			},
			{
				"x": -1.35398854,
				"y": 1.5483839387,
				"z": 0.3067430492,
				"element": "C" 
			},
			{
				"x": -1.7878813653,
				"y": 2.3587417994,
				"z": -0.9334973871,
				"element": "C" 
			},
			{
				"x": -0.633995545,
				"y": 3.1768488721,
				"z": -1.5362334149,
				"element": "C" 
			},
			{
				"x": 0.0737542611,
				"y": 4.0073183525,
				"z": -0.4624757276,
				"element": "C" 
			},
			{
				"x": 0.5124990414,
				"y": 3.1248797852,
				"z": 0.62166811,
				"element": "N" 
			},
			{
				"x": -0.6134511808,
				"y": 2.4828858613,
				"z": 1.2911491898,
				"element": "C" 
			},
			{
				"x": 1.0006292072,
				"y": -4.8204490036,
				"z": 2.8417173336,
				"element": "H" 
			},
			{
				"x": -0.4172018513,
				"y": -4.6796712068,
				"z": 1.7683102433,
				"element": "H" 
			},
			{
				"x": -0.6064816832,
				"y": -4.5661969194,
				"z": 3.5306360352,
				"element": "H" 
			},
			{
				"x": 1.8744343841,
				"y": -3.2322344122,
				"z": 1.3896456554,
				"element": "H" 
			},
			{
				"x": 1.9230498166,
				"y": -1.6572659886,
				"z": 2.1691769115,
				"element": "H" 
			},
			{
				"x": 0.0233726932,
				"y": -2.483641922,
				"z": -0.0973677675,
				"element": "H" 
			},
			{
				"x": 1.3864649644,
				"y": -1.3813057186,
				"z": -0.2217410561,
				"element": "H" 
			},
			{
				"x": -1.7108779208,
				"y": -0.1310173402,
				"z": 2.2763645613,
				"element": "H" 
			},
			{
				"x": -0.0811017741,
				"y": -0.1981454679,
				"z": 2.9548797218,
				"element": "H" 
			},
			{
				"x": -1.4790261291,
				"y": -2.1527307342,
				"z": 3.6213123431,
				"element": "H" 
			},
			{
				"x": -1.7051233039,
				"y": -2.5723784702,
				"z": 1.9161353833,
				"element": "H" 
			},
			{
				"x": -2.2613614638,
				"y": 1.1901726712,
				"z": 0.81216238,
				"element": "H" 
			},
			{
				"x": -2.5920232113,
				"y": 3.0390459068,
				"z": -0.6201432214,
				"element": "H" 
			},
			{
				"x": -2.2045292745,
				"y": 1.6860190099,
				"z": -1.68814962,
				"element": "H" 
			},
			{
				"x": 0.0841812817,
				"y": 2.4900688403,
				"z": -1.9895787346,
				"element": "H" 
			},
			{
				"x": -1.0171903284,
				"y": 3.8388974822,
				"z": -2.3221143628,
				"element": "H" 
			},
			{
				"x": -0.6113126625,
				"y": 4.8018162448,
				"z": -0.1011821698,
				"element": "H" 
			},
			{
				"x": 0.9537449545,
				"y": 4.5054400265,
				"z": -0.8842861286,
				"element": "H" 
			},
			{
				"x": 1.060190913,
				"y": 3.6477356278,
				"z": 1.2987430349,
				"element": "H" 
			},
			{
				"x": -0.233371235,
				"y": 1.9296669348,
				"z": 2.1547594898,
				"element": "H" 
			},
			{
				"x": -1.355665615,
				"y": 3.2119023431,
				"z": 1.6762119597,
				"element": "H" 
			}
		],
		 "valence_orbital": [ 
			{
				"type": "occ",
				"energy": -0.30164,
				"method": "rhf"
			},
			{
				"type": "occ",
				"energy": -0.2373,
				"method": "rhf"
			},
			{
				"type": "occ",
				"energy": -0.2284,
				"method": "rhf"
			},
			{
				"type": "occ",
				"energy": -0.21405,
				"method": "rhf"
			},
			{
				"type": "occ",
				"energy": -0.20829,
				"method": "rhf"
			},
			{
				"type": "unocc",
				"energy": 0.03484,
				"method": "rhf"
			},
			{
				"type": "unocc",
				"energy": 0.06909,
				"method": "rhf"
			},
			{
				"type": "unocc",
				"energy": 0.08493,
				"method": "rhf"
			},
			{
				"type": "unocc",
				"energy": 0.1053,
				"method": "rhf"
			},
			{
				"type": "unocc",
				"energy": 0.10698,
				"method": "rhf"
			}
		],
		"cosmo_sigma_profile": { 
			"-0.025": 0.0,
			"-0.024": 0.0,
			"-0.023": 0.0,
			"-0.022": 0.0,
			"-0.021": 0.0,
			"-0.02": 0.0,
			"-0.019": 0.0,
			"-0.018": 0.0,
			"-0.017": 0.0,
			"-0.016": 0.0,
			"-0.015": 0.0,
			"-0.014": 0.0,
			"-0.013": 0.0,
			"-0.012": 0.0,
			"-0.011": 0.0,
			"-0.01": 0.940562450712,
			"-0.009": 1.21465419486,
			"-0.008": 1.62596533644,
			"-0.007": 3.68827048992,
			"-0.006": 3.92607930436,
			"-0.005": 8.61210368412,
			"-0.004": 22.6621507131,
			"-0.003": 35.579247958,
			"-0.002": 43.0909229797,
			"-0.001": 42.680684712,
			"0.0": 30.656755458,
			"0.001": 14.211711492,
			"0.002": 7.12531180001,
			"0.003": 4.8189637513,
			"0.004": 3.32202241843,
			"0.005": 3.97632916043,
			"0.006": 2.63981610258,
			"0.007": 2.9031192085,
			"0.008": 3.76079995539,
			"0.009": 2.18932809255,
			"0.01": 2.67905909594,
			"0.011": 3.49751816745,
			"0.012": 4.22702338753,
			"0.013": 3.42316368512,
			"0.014": 4.59779534659,
			"0.015": 2.6915621501,
			"0.016": 1.08903118818,
			"0.017": 0.420120708733,
			"0.018": 0.0,
			"0.019": 0.0,
			"0.02": 0.0,
			"0.021": 0.0,
			"0.022": 0.0,
			"0.023": 0.0,
			"0.024": 0.0,
			"0.025": 0.0
		}
	}
}
