{
	 "smiles": "NC(=O)CS(=O)(=O)C1=CC=C(C=C1)C(O)=O", 
	 "Tm": 529.15, 
	 "num_atms": 25, 
	 "gaussian": { 
		 "optdone": 1, 
		 "sigma_profile": "yes", 
		 "theory": "DFT", 
		 "functional": "B3LYP", 
		 "basiset": "6-31G**", 
		 "properties": { 
			 "R2extent": 5404.86, 
			 "electric_dipole_moment_norm": 2.08380217151, 
			 "electric_quadrupole_moment_norm": 24.4587350384, 
			 "total_energy": -1177.39539545, 
			 "HOMO_LUMO_gap": 0.18402, 
			 "cosmo_polarized_energy": -27.74, 
			 "cosmo_cavitation_energy": 31.68, 
			 "cosmo_dispersion_energy": -22.9, 
			 "cosmo_repulsion_energy": 1.75, 
			 "cosmo_total_nonelectrostatic_energy": 10.54, 
			 "SMD_solvation_energy": 6.7 
		},
		"coords": [
			{
				"x": 0.4520788693,
				"y": 3.2234800949,
				"z": 0.1523423251,
				"element": "N" 
			},
			{
				"x": 1.2725627444,
				"y": 2.7085832516,
				"z": -0.7999721129,
				"element": "C" 
			},
			{
				"x": 2.4606308537,
				"y": 2.9681248031,
				"z": -0.9030993348,
				"element": "O" 
			},
			{
				"x": 0.5889851297,
				"y": 1.8027000549,
				"z": -1.8371883878,
				"element": "C" 
			},
			{
				"x": -0.4493878347,
				"y": 0.4402933993,
				"z": -1.2081966356,
				"element": "S" 
			},
			{
				"x": -1.379263713,
				"y": 1.0152851569,
				"z": -0.2138330277,
				"element": "O" 
			},
			{
				"x": -0.9553612835,
				"y": -0.2874812813,
				"z": -2.3795304852,
				"element": "O" 
			},
			{
				"x": 0.6988819298,
				"y": -0.6401928826,
				"z": -0.3364366792,
				"element": "C" 
			},
			{
				"x": 1.3006377879,
				"y": -1.6832827061,
				"z": -1.0410463714,
				"element": "C" 
			},
			{
				"x": 2.2000746972,
				"y": -2.5137757972,
				"z": -0.3749090295,
				"element": "C" 
			},
			{
				"x": 2.4863413666,
				"y": -2.3044377616,
				"z": 0.9816624536,
				"element": "C" 
			},
			{
				"x": 1.8422822772,
				"y": -1.2734031084,
				"z": 1.6786163424,
				"element": "C" 
			},
			{
				"x": 0.9505731943,
				"y": -0.4309114315,
				"z": 1.0217534333,
				"element": "C" 
			},
			{
				"x": 3.432201478,
				"y": -3.1788496655,
				"z": 1.7591865628,
				"element": "C" 
			},
			{
				"x": 4.3655090803,
				"y": -3.8575781678,
				"z": 1.0452850499,
				"element": "O" 
			},
			{
				"x": 3.3818941158,
				"y": -3.2896611361,
				"z": 2.9601301246,
				"element": "O" 
			},
			{
				"x": 0.8701677852,
				"y": 3.8071535609,
				"z": 0.8614222749,
				"element": "H" 
			},
			{
				"x": -0.4861317393,
				"y": 2.8637308336,
				"z": 0.2779403431,
				"element": "H" 
			},
			{
				"x": 1.3571342193,
				"y": 1.3632141306,
				"z": -2.4736820593,
				"element": "H" 
			},
			{
				"x": -0.1069045514,
				"y": 2.3795091164,
				"z": -2.4564738007,
				"element": "H" 
			},
			{
				"x": 1.0462845181,
				"y": -1.8513676745,
				"z": -2.081829204,
				"element": "H" 
			},
			{
				"x": 2.6380856085,
				"y": -3.3496363676,
				"z": -0.9140362256,
				"element": "H" 
			},
			{
				"x": 2.051398678,
				"y": -1.1534287721,
				"z": 2.7358357626,
				"element": "H" 
			},
			{
				"x": 0.4425455537,
				"y": 0.3665309167,
				"z": 1.5517242484,
				"element": "H" 
			},
			{
				"x": 4.3944792353,
				"y": -3.5404985666,
				"z": 0.1319344333,
				"element": "H" 
			}
		],
		 "valence_orbital": [ 
			{
				"type": "occ",
				"energy": -0.30301,
				"method": "rhf"
			},
			{
				"type": "occ",
				"energy": -0.29822,
				"method": "rhf"
			},
			{
				"type": "occ",
				"energy": -0.28776,
				"method": "rhf"
			},
			{
				"type": "occ",
				"energy": -0.28622,
				"method": "rhf"
			},
			{
				"type": "occ",
				"energy": -0.26982,
				"method": "rhf"
			},
			{
				"type": "unocc",
				"energy": -0.0858,
				"method": "rhf"
			},
			{
				"type": "unocc",
				"energy": -0.04951,
				"method": "rhf"
			},
			{
				"type": "unocc",
				"energy": -0.01086,
				"method": "rhf"
			},
			{
				"type": "unocc",
				"energy": 0.01049,
				"method": "rhf"
			},
			{
				"type": "unocc",
				"energy": 0.03798,
				"method": "rhf"
			}
		],
		"cosmo_sigma_profile": { 
			"-0.025": 0.0,
			"-0.024": 0.0,
			"-0.023": 0.0,
			"-0.022": 0.0,
			"-0.021": 0.0,
			"-0.02": 0.147863700852,
			"-0.019": 0.625590858128,
			"-0.018": 1.37552082665,
			"-0.017": 0.891595119723,
			"-0.016": 0.693457322528,
			"-0.015": 1.34925948751,
			"-0.014": 2.66650957126,
			"-0.013": 2.07239699706,
			"-0.012": 2.77859190858,
			"-0.011": 3.38562193532,
			"-0.01": 6.81318631366,
			"-0.009": 8.25534906663,
			"-0.008": 11.231574472,
			"-0.007": 11.331318861,
			"-0.006": 11.7245744818,
			"-0.005": 11.0300891164,
			"-0.004": 12.7319991803,
			"-0.003": 11.6169852575,
			"-0.002": 12.2892531289,
			"-0.001": 13.6690905218,
			"0.0": 19.6463184417,
			"0.001": 12.6497289035,
			"0.002": 6.23866070925,
			"0.003": 6.7364634447,
			"0.004": 5.93191848217,
			"0.005": 5.4766090621,
			"0.006": 5.18339002551,
			"0.007": 6.83201522061,
			"0.008": 7.74650207602,
			"0.009": 9.22372092617,
			"0.01": 12.5257370573,
			"0.011": 14.2669360517,
			"0.012": 6.79320077441,
			"0.013": 6.0504317572,
			"0.014": 1.15028966711,
			"0.015": 0.0,
			"0.016": 0.0,
			"0.017": 0.0,
			"0.018": 0.0,
			"0.019": 0.0,
			"0.02": 0.0,
			"0.021": 0.0,
			"0.022": 0.0,
			"0.023": 0.0,
			"0.024": 0.0,
			"0.025": 0.0
		}
	}
}
