{
	 "smiles": "CC1=NC=C(CN)N1C1=CC=CC=C1", 
	 "Tm": 320.15, 
	 "num_atms": 27, 
	 "gaussian": { 
		 "optdone": 1, 
		 "sigma_profile": "yes", 
		 "theory": "DFT", 
		 "functional": "B3LYP", 
		 "basiset": "6-31G**", 
		 "properties": { 
			 "R2extent": 2946.2402, 
			 "electric_dipole_moment_norm": 5.17744024205, 
			 "electric_quadrupole_moment_norm": 6.05430993178, 
			 "total_energy": -591.25426947, 
			 "HOMO_LUMO_gap": 0.18194, 
			 "cosmo_polarized_energy": -14.44, 
			 "cosmo_cavitation_energy": 30.22, 
			 "cosmo_dispersion_energy": -20.97, 
			 "cosmo_repulsion_energy": 1.68, 
			 "cosmo_total_nonelectrostatic_energy": 10.93, 
			 "SMD_solvation_energy": 2.21 
		},
		"coords": [
			{
				"x": -0.1908503207,
				"y": 0.7278711529,
				"z": -2.7307134939,
				"element": "C" 
			},
			{
				"x": -0.54398446,
				"y": 0.7814958779,
				"z": -1.2792590522,
				"element": "C" 
			},
			{
				"x": -1.4174337638,
				"y": 1.6041775313,
				"z": -0.7376580508,
				"element": "N" 
			},
			{
				"x": -1.4102437388,
				"y": 1.3238115669,
				"z": 0.6094058861,
				"element": "C" 
			},
			{
				"x": -0.5191887169,
				"y": 0.3258863275,
				"z": 0.910393531,
				"element": "C" 
			},
			{
				"x": -0.1701505082,
				"y": -0.3428392323,
				"z": 2.2018350041,
				"element": "C" 
			},
			{
				"x": -0.7864527387,
				"y": -1.6772833552,
				"z": 2.326175009,
				"element": "N" 
			},
			{
				"x": 0.0416358234,
				"y": -0.0274712413,
				"z": -0.3215075454,
				"element": "N" 
			},
			{
				"x": 1.0471216965,
				"y": -1.01771406,
				"z": -0.5461495734,
				"element": "C" 
			},
			{
				"x": 2.3776441339,
				"y": -0.7549183785,
				"z": -0.2014759789,
				"element": "C" 
			},
			{
				"x": 3.3559686514,
				"y": -1.7253749474,
				"z": -0.4215956579,
				"element": "C" 
			},
			{
				"x": 3.0123924922,
				"y": -2.9525538508,
				"z": -0.9928385774,
				"element": "C" 
			},
			{
				"x": 1.6849701266,
				"y": -3.2114894972,
				"z": -1.3410185677,
				"element": "C" 
			},
			{
				"x": 0.6999978527,
				"y": -2.2488530276,
				"z": -1.114802211,
				"element": "C" 
			},
			{
				"x": 0.8771041393,
				"y": 0.9065310372,
				"z": -2.9005719722,
				"element": "H" 
			},
			{
				"x": -0.4347958158,
				"y": -0.2396555631,
				"z": -3.1838400604,
				"element": "H" 
			},
			{
				"x": -0.7608806204,
				"y": 1.5036335836,
				"z": -3.2436064171,
				"element": "H" 
			},
			{
				"x": -2.0522838774,
				"y": 1.8534738359,
				"z": 1.3007363975,
				"element": "H" 
			},
			{
				"x": 0.9272836948,
				"y": -0.3528287789,
				"z": 2.3273256089,
				"element": "H" 
			},
			{
				"x": -0.5669907963,
				"y": 0.2844029759,
				"z": 3.0069871153,
				"element": "H" 
			},
			{
				"x": -0.5195287894,
				"y": -2.0821115419,
				"z": 3.2217224452,
				"element": "H" 
			},
			{
				"x": -0.3976686925,
				"y": -2.293475649,
				"z": 1.6152561488,
				"element": "H" 
			},
			{
				"x": 2.6338648215,
				"y": 0.2084143579,
				"z": 0.2280096014,
				"element": "H" 
			},
			{
				"x": 4.3877238506,
				"y": -1.5191581592,
				"z": -0.1527803588,
				"element": "H" 
			},
			{
				"x": 3.7766011484,
				"y": -3.7041179927,
				"z": -1.1669539464,
				"element": "H" 
			},
			{
				"x": 1.4133612927,
				"y": -4.1646543672,
				"z": -1.7848308033,
				"element": "H" 
			},
			{
				"x": -0.3374168851,
				"y": -2.4403986046,
				"z": -1.3713444804,
				"element": "H" 
			}
		],
		 "valence_orbital": [ 
			{
				"type": "occ",
				"energy": -0.27116,
				"method": "rhf"
			},
			{
				"type": "occ",
				"energy": -0.25916,
				"method": "rhf"
			},
			{
				"type": "occ",
				"energy": -0.24763,
				"method": "rhf"
			},
			{
				"type": "occ",
				"energy": -0.23269,
				"method": "rhf"
			},
			{
				"type": "occ",
				"energy": -0.20682,
				"method": "rhf"
			},
			{
				"type": "unocc",
				"energy": -0.02488,
				"method": "rhf"
			},
			{
				"type": "unocc",
				"energy": -0.02295,
				"method": "rhf"
			},
			{
				"type": "unocc",
				"energy": 0.03164,
				"method": "rhf"
			},
			{
				"type": "unocc",
				"energy": 0.07473,
				"method": "rhf"
			},
			{
				"type": "unocc",
				"energy": 0.07641,
				"method": "rhf"
			}
		],
		"cosmo_sigma_profile": { 
			"-0.025": 0.0,
			"-0.024": 0.0,
			"-0.023": 0.0,
			"-0.022": 0.0,
			"-0.021": 0.0,
			"-0.02": 0.0,
			"-0.019": 0.0,
			"-0.018": 0.0,
			"-0.017": 0.0,
			"-0.016": 0.0,
			"-0.015": 0.0,
			"-0.014": 0.0,
			"-0.013": 0.0,
			"-0.012": 0.0,
			"-0.011": 0.0,
			"-0.01": 0.771484417226,
			"-0.009": 1.4307124459,
			"-0.008": 1.60392490299,
			"-0.007": 5.79027445238,
			"-0.006": 13.4683455841,
			"-0.005": 21.6459825082,
			"-0.004": 26.9404455965,
			"-0.003": 23.5090969159,
			"-0.002": 22.692628153,
			"-0.001": 21.5114870941,
			"0.0": 14.7990356615,
			"0.001": 12.1196828094,
			"0.002": 11.0564887732,
			"0.003": 10.7487268346,
			"0.004": 12.3756774639,
			"0.005": 6.59574461162,
			"0.006": 5.08098005334,
			"0.007": 4.11973789349,
			"0.008": 2.77535430431,
			"0.009": 1.90272242913,
			"0.01": 2.48786083647,
			"0.011": 2.58553972096,
			"0.012": 1.86631223746,
			"0.013": 2.59061518372,
			"0.014": 1.6494871818,
			"0.015": 1.24430470242,
			"0.016": 1.54394362819,
			"0.017": 1.74250968836,
			"0.018": 1.64692676659,
			"0.019": 0.79970067221,
			"0.02": 0.433160028087,
			"0.021": 0.0,
			"0.022": 0.0,
			"0.023": 0.0,
			"0.024": 0.0,
			"0.025": 0.0
		}
	}
}
