{
	 "smiles": "OC(=O)C=CC1=C2C=CC=CC2=CN=C1", 
	 "Tm": 534.15, 
	 "num_atms": 24, 
	 "gaussian": { 
		 "optdone": 1, 
		 "sigma_profile": "yes", 
		 "theory": "DFT", 
		 "functional": "B3LYP", 
		 "basiset": "6-31G**", 
		 "properties": { 
			 "R2extent": 3559.9538, 
			 "electric_dipole_moment_norm": 7.13032880448, 
			 "electric_quadrupole_moment_norm": 11.2303290192, 
			 "total_energy": -667.889455659, 
			 "HOMO_LUMO_gap": 0.16262, 
			 "cosmo_polarized_energy": -16.33, 
			 "cosmo_cavitation_energy": 28.64, 
			 "cosmo_dispersion_energy": -20.72, 
			 "cosmo_repulsion_energy": 1.59, 
			 "cosmo_total_nonelectrostatic_energy": 9.52, 
			 "SMD_solvation_energy": 4.25 
		},
		"coords": [
			{
				"x": -0.2691182756,
				"y": 0.222781403,
				"z": 2.5547136002,
				"element": "O" 
			},
			{
				"x": -1.2864893771,
				"y": 1.0652456428,
				"z": 2.2576520168,
				"element": "C" 
			},
			{
				"x": -1.8229208451,
				"y": 1.7038817559,
				"z": 3.1350193311,
				"element": "O" 
			},
			{
				"x": -1.7088911278,
				"y": 1.2280299716,
				"z": 0.8326376873,
				"element": "C" 
			},
			{
				"x": -1.3887852284,
				"y": 0.5198389114,
				"z": -0.2656603683,
				"element": "C" 
			},
			{
				"x": -0.598021095,
				"y": -0.7233133433,
				"z": -0.3859410796,
				"element": "C" 
			},
			{
				"x": 0.446839723,
				"y": -0.838375724,
				"z": -1.3642426389,
				"element": "C" 
			},
			{
				"x": 0.8818906934,
				"y": 0.2319017632,
				"z": -2.188233309,
				"element": "C" 
			},
			{
				"x": 1.8908556711,
				"y": 0.0374168928,
				"z": -3.1080708313,
				"element": "C" 
			},
			{
				"x": 2.5189865686,
				"y": -1.2240954435,
				"z": -3.2429377003,
				"element": "C" 
			},
			{
				"x": 2.1268439611,
				"y": -2.2770819644,
				"z": -2.4471207114,
				"element": "C" 
			},
			{
				"x": 1.0888200035,
				"y": -2.1068643584,
				"z": -1.4961510938,
				"element": "C" 
			},
			{
				"x": 0.6588271485,
				"y": -3.1652811279,
				"z": -0.6484470825,
				"element": "C" 
			},
			{
				"x": -0.301402942,
				"y": -3.0562509667,
				"z": 0.2443863099,
				"element": "N" 
			},
			{
				"x": -0.9198498972,
				"y": -1.8520020899,
				"z": 0.3570027226,
				"element": "C" 
			},
			{
				"x": 0.0554655048,
				"y": -0.2207040364,
				"z": 1.7556100811,
				"element": "H" 
			},
			{
				"x": -2.3730605614,
				"y": 2.0794905578,
				"z": 0.7206986176,
				"element": "H" 
			},
			{
				"x": -1.7852706515,
				"y": 0.8949646168,
				"z": -1.2095164102,
				"element": "H" 
			},
			{
				"x": 0.4244947501,
				"y": 1.2100997866,
				"z": -2.0816919031,
				"element": "H" 
			},
			{
				"x": 2.214255044,
				"y": 0.863769146,
				"z": -3.7342441331,
				"element": "H" 
			},
			{
				"x": 3.3134492176,
				"y": -1.3537048706,
				"z": -3.9713876246,
				"element": "H" 
			},
			{
				"x": 2.6057537652,
				"y": -3.2486913079,
				"z": -2.5341762964,
				"element": "H" 
			},
			{
				"x": 1.1455534873,
				"y": -4.1377183598,
				"z": -0.7309645497,
				"element": "H" 
			},
			{
				"x": -1.736125537,
				"y": -1.8096368551,
				"z": 1.0739653659,
				"element": "H" 
			}
		],
		 "valence_orbital": [ 
			{
				"type": "occ",
				"energy": -0.29105,
				"method": "rhf"
			},
			{
				"type": "occ",
				"energy": -0.28331,
				"method": "rhf"
			},
			{
				"type": "occ",
				"energy": -0.2711,
				"method": "rhf"
			},
			{
				"type": "occ",
				"energy": -0.26795,
				"method": "rhf"
			},
			{
				"type": "occ",
				"energy": -0.24641,
				"method": "rhf"
			},
			{
				"type": "unocc",
				"energy": -0.08379,
				"method": "rhf"
			},
			{
				"type": "unocc",
				"energy": -0.04951,
				"method": "rhf"
			},
			{
				"type": "unocc",
				"energy": -0.04368,
				"method": "rhf"
			},
			{
				"type": "unocc",
				"energy": 0.00689,
				"method": "rhf"
			},
			{
				"type": "unocc",
				"energy": 0.06155,
				"method": "rhf"
			}
		],
		"cosmo_sigma_profile": { 
			"-0.025": 0.0,
			"-0.024": 0.0,
			"-0.023": 0.0,
			"-0.022": 0.0,
			"-0.021": 0.0,
			"-0.02": 0.0,
			"-0.019": 0.0,
			"-0.018": 0.0,
			"-0.017": 0.0,
			"-0.016": 0.0,
			"-0.015": 0.0,
			"-0.014": 0.0552852702029,
			"-0.013": 0.704549121515,
			"-0.012": 0.795325417451,
			"-0.011": 0.931542350217,
			"-0.01": 1.14113150285,
			"-0.009": 0.971938188589,
			"-0.008": 4.52866037644,
			"-0.007": 16.5640516733,
			"-0.006": 17.9324828453,
			"-0.005": 16.662184766,
			"-0.004": 14.21547697,
			"-0.003": 12.7403900019,
			"-0.002": 13.8895992037,
			"-0.001": 15.7147300818,
			"0.0": 19.2881097707,
			"0.001": 16.6187953146,
			"0.002": 15.2172291797,
			"0.003": 14.540765726,
			"0.004": 6.04826323372,
			"0.005": 3.14424049198,
			"0.006": 2.95084452863,
			"0.007": 3.41196542041,
			"0.008": 3.77947469152,
			"0.009": 4.78440931723,
			"0.01": 4.8515436433,
			"0.011": 6.40317097622,
			"0.012": 6.13338721538,
			"0.013": 3.9441012173,
			"0.014": 1.22893464868,
			"0.015": 0.766595910215,
			"0.016": 0.525009965478,
			"0.017": 0.0410454757138,
			"0.018": 0.0,
			"0.019": 0.0,
			"0.02": 0.0,
			"0.021": 0.0,
			"0.022": 0.0,
			"0.023": 0.0,
			"0.024": 0.0,
			"0.025": 0.0
		}
	}
}
