{
	 "smiles": "OCC1OC(O)C(F)C(O)C1O", 
	 "Tm": 446.15, 
	 "num_atms": 23, 
	 "gaussian": { 
		 "optdone": 1, 
		 "sigma_profile": "yes", 
		 "theory": "DFT", 
		 "functional": "B3LYP", 
		 "basiset": "6-31G**", 
		 "properties": { 
			 "R2extent": 2439.9454, 
			 "electric_dipole_moment_norm": 2.7729107775, 
			 "electric_quadrupole_moment_norm": 14.7418005861, 
			 "total_energy": -711.183317009, 
			 "HOMO_LUMO_gap": 0.29596, 
			 "cosmo_polarized_energy": -15.63, 
			 "cosmo_cavitation_energy": 24.24, 
			 "cosmo_dispersion_energy": -18.69, 
			 "cosmo_repulsion_energy": 1.48, 
			 "cosmo_total_nonelectrostatic_energy": 7.03, 
			 "SMD_solvation_energy": 4.08 
		},
		"coords": [
			{
				"x": -0.9761625467,
				"y": 1.3799278738,
				"z": -3.6406591327,
				"element": "O" 
			},
			{
				"x": -0.9260458624,
				"y": 1.4171586051,
				"z": -2.2040322938,
				"element": "C" 
			},
			{
				"x": 0.4540414054,
				"y": 0.8698399846,
				"z": -1.8073082362,
				"element": "C" 
			},
			{
				"x": 0.7435034066,
				"y": 1.1067891118,
				"z": -0.4216816616,
				"element": "O" 
			},
			{
				"x": 0.1103443437,
				"y": 0.2945515015,
				"z": 0.5290272968,
				"element": "C" 
			},
			{
				"x": -1.2662658704,
				"y": 0.6152030809,
				"z": 0.6031177787,
				"element": "O" 
			},
			{
				"x": 0.2726327042,
				"y": -1.2089849593,
				"z": 0.2301581409,
				"element": "C" 
			},
			{
				"x": -0.5763849503,
				"y": -1.8816097214,
				"z": 1.126052673,
				"element": "F" 
			},
			{
				"x": -0.1047031884,
				"y": -1.5367588457,
				"z": -1.2014761125,
				"element": "C" 
			},
			{
				"x": 0.1999604943,
				"y": -2.8876167401,
				"z": -1.4797785422,
				"element": "O" 
			},
			{
				"x": 0.6922072435,
				"y": -0.6140964511,
				"z": -2.1375757754,
				"element": "C" 
			},
			{
				"x": 0.428734059,
				"y": -0.9637488997,
				"z": -3.4878251825,
				"element": "O" 
			},
			{
				"x": -1.8637994595,
				"y": 1.6313639927,
				"z": -3.9238592478,
				"element": "H" 
			},
			{
				"x": -1.0094865317,
				"y": 2.444416,
				"z": -1.8284896975,
				"element": "H" 
			},
			{
				"x": -1.7362432437,
				"y": 0.8311076779,
				"z": -1.7617715136,
				"element": "H" 
			},
			{
				"x": 1.1952831875,
				"y": 1.4661671997,
				"z": -2.3491618932,
				"element": "H" 
			},
			{
				"x": 0.609374879,
				"y": 0.5421149673,
				"z": 1.4758655729,
				"element": "H" 
			},
			{
				"x": -1.690272125,
				"y": -0.1284953418,
				"z": 1.0585430827,
				"element": "H" 
			},
			{
				"x": 1.2964729368,
				"y": -1.5398766875,
				"z": 0.4323718762,
				"element": "H" 
			},
			{
				"x": -1.1824752619,
				"y": -1.3467936435,
				"z": -1.3277349686,
				"element": "H" 
			},
			{
				"x": 0.1851595389,
				"y": -2.9538453343,
				"z": -2.4475666418,
				"element": "H" 
			},
			{
				"x": 1.7561919942,
				"y": -0.8210314432,
				"z": -1.9580804002,
				"element": "H" 
			},
			{
				"x": -0.2096671528,
				"y": -0.3170819278,
				"z": -3.8397351215,
				"element": "H" 
			}
		],
		 "valence_orbital": [ 
			{
				"type": "occ",
				"energy": -0.30699,
				"method": "rhf"
			},
			{
				"type": "occ",
				"energy": -0.28759,
				"method": "rhf"
			},
			{
				"type": "occ",
				"energy": -0.28622,
				"method": "rhf"
			},
			{
				"type": "occ",
				"energy": -0.27759,
				"method": "rhf"
			},
			{
				"type": "occ",
				"energy": -0.25654,
				"method": "rhf"
			},
			{
				"type": "unocc",
				"energy": 0.03942,
				"method": "rhf"
			},
			{
				"type": "unocc",
				"energy": 0.07256,
				"method": "rhf"
			},
			{
				"type": "unocc",
				"energy": 0.08692,
				"method": "rhf"
			},
			{
				"type": "unocc",
				"energy": 0.09365,
				"method": "rhf"
			},
			{
				"type": "unocc",
				"energy": 0.10863,
				"method": "rhf"
			}
		],
		"cosmo_sigma_profile": { 
			"-0.025": 0.0,
			"-0.024": 0.0,
			"-0.023": 0.0,
			"-0.022": 0.0,
			"-0.021": 0.0,
			"-0.02": 0.0,
			"-0.019": 0.0,
			"-0.018": 0.00731690002389,
			"-0.017": 0.702306950881,
			"-0.016": 1.25031874699,
			"-0.015": 1.07394455811,
			"-0.014": 1.23827517997,
			"-0.013": 1.78271475404,
			"-0.012": 2.06908137283,
			"-0.011": 2.15747937181,
			"-0.01": 2.60148925999,
			"-0.009": 1.67567400285,
			"-0.008": 3.0148447566,
			"-0.007": 7.8499127027,
			"-0.006": 12.2893906259,
			"-0.005": 16.3476995234,
			"-0.004": 15.1407071494,
			"-0.003": 11.4628764592,
			"-0.002": 9.64376484403,
			"-0.001": 8.37431742354,
			"0.0": 6.8612611646,
			"0.001": 6.32906032822,
			"0.002": 6.81811628033,
			"0.003": 6.83253607066,
			"0.004": 8.24345035224,
			"0.005": 9.16501972348,
			"0.006": 7.63862902771,
			"0.007": 5.53847414253,
			"0.008": 5.06569175647,
			"0.009": 6.09238038341,
			"0.01": 5.3871059508,
			"0.011": 5.84223075107,
			"0.012": 4.06287125432,
			"0.013": 4.13709099331,
			"0.014": 0.983271228597,
			"0.015": 0.0,
			"0.016": 0.0,
			"0.017": 0.0,
			"0.018": 0.0,
			"0.019": 0.0,
			"0.02": 0.0,
			"0.021": 0.0,
			"0.022": 0.0,
			"0.023": 0.0,
			"0.024": 0.0,
			"0.025": 0.0
		}
	}
}
