{
	 "smiles": "CCCOC1=CC=CC=C1", 
	 "Tm": 245.65, 
	 "num_atms": 22, 
	 "gaussian": { 
		 "optdone": 1, 
		 "sigma_profile": "yes", 
		 "theory": "DFT", 
		 "functional": "B3LYP", 
		 "basiset": "6-31G**", 
		 "properties": { 
			 "R2extent": 2867.1855, 
			 "electric_dipole_moment_norm": 1.38089889927, 
			 "electric_quadrupole_moment_norm": 4.62083526649, 
			 "total_energy": -425.41365774, 
			 "HOMO_LUMO_gap": 0.21808, 
			 "cosmo_polarized_energy": -4.94, 
			 "cosmo_cavitation_energy": 24.94, 
			 "cosmo_dispersion_energy": -18.54, 
			 "cosmo_repulsion_energy": 1.53, 
			 "cosmo_total_nonelectrostatic_energy": 7.93, 
			 "SMD_solvation_energy": 4.45 
		},
		"coords": [
			{
				"x": 1.7885458357,
				"y": -2.5667286084,
				"z": 1.5477754901,
				"element": "C" 
			},
			{
				"x": 0.8252931436,
				"y": -1.419708501,
				"z": 1.2274292108,
				"element": "C" 
			},
			{
				"x": 0.3169424662,
				"y": -1.4782734877,
				"z": -0.2068529464,
				"element": "C" 
			},
			{
				"x": -0.5654964085,
				"y": -0.3763141484,
				"z": -0.4018057865,
				"element": "O" 
			},
			{
				"x": -1.1559304284,
				"y": -0.212167043,
				"z": -1.6223433468,
				"element": "C" 
			},
			{
				"x": -2.0119444863,
				"y": 0.8939300581,
				"z": -1.7385550097,
				"element": "C" 
			},
			{
				"x": -2.6618906655,
				"y": 1.1485794668,
				"z": -2.940804266,
				"element": "C" 
			},
			{
				"x": -2.4715590402,
				"y": 0.3093528325,
				"z": -4.0444965853,
				"element": "C" 
			},
			{
				"x": -1.6209899019,
				"y": -0.787067782,
				"z": -3.9241751791,
				"element": "C" 
			},
			{
				"x": -0.9594068418,
				"y": -1.0574358065,
				"z": -2.7215965085,
				"element": "C" 
			},
			{
				"x": 1.3064102224,
				"y": -3.5425800128,
				"z": 1.4205309218,
				"element": "H" 
			},
			{
				"x": 2.6695999537,
				"y": -2.5441600937,
				"z": 0.896491435,
				"element": "H" 
			},
			{
				"x": 2.1403887356,
				"y": -2.5044591819,
				"z": 2.5816749436,
				"element": "H" 
			},
			{
				"x": -0.0365186767,
				"y": -1.4457886493,
				"z": 1.9041190872,
				"element": "H" 
			},
			{
				"x": 1.3184038179,
				"y": -0.4533678753,
				"z": 1.3834215696,
				"element": "H" 
			},
			{
				"x": 1.1552913534,
				"y": -1.4219824281,
				"z": -0.9173462568,
				"element": "H" 
			},
			{
				"x": -0.2131715704,
				"y": -2.424694174,
				"z": -0.3913656232,
				"element": "H" 
			},
			{
				"x": -2.1481078243,
				"y": 1.5342129511,
				"z": -0.8729779775,
				"element": "H" 
			},
			{
				"x": -3.3219295919,
				"y": 2.0082774569,
				"z": -3.0173605225,
				"element": "H" 
			},
			{
				"x": -2.9801487173,
				"y": 0.5101709054,
				"z": -4.9822565231,
				"element": "H" 
			},
			{
				"x": -1.4626263099,
				"y": -1.4482399009,
				"z": -4.7718947687,
				"element": "H" 
			},
			{
				"x": -0.3030550651,
				"y": -1.9167559779,
				"z": -2.6539113578,
				"element": "H" 
			}
		],
		 "valence_orbital": [ 
			{
				"type": "occ",
				"energy": -0.34104,
				"method": "rhf"
			},
			{
				"type": "occ",
				"energy": -0.31762,
				"method": "rhf"
			},
			{
				"type": "occ",
				"energy": -0.31042,
				"method": "rhf"
			},
			{
				"type": "occ",
				"energy": -0.24501,
				"method": "rhf"
			},
			{
				"type": "occ",
				"energy": -0.21365,
				"method": "rhf"
			},
			{
				"type": "unocc",
				"energy": 0.00443,
				"method": "rhf"
			},
			{
				"type": "unocc",
				"energy": 0.01883,
				"method": "rhf"
			},
			{
				"type": "unocc",
				"energy": 0.08707,
				"method": "rhf"
			},
			{
				"type": "unocc",
				"energy": 0.09764,
				"method": "rhf"
			},
			{
				"type": "unocc",
				"energy": 0.11647,
				"method": "rhf"
			}
		],
		"cosmo_sigma_profile": { 
			"-0.025": 0.0,
			"-0.024": 0.0,
			"-0.023": 0.0,
			"-0.022": 0.0,
			"-0.021": 0.0,
			"-0.02": 0.0,
			"-0.019": 0.0,
			"-0.018": 0.0,
			"-0.017": 0.0,
			"-0.016": 0.0,
			"-0.015": 0.0,
			"-0.014": 0.0,
			"-0.013": 0.0,
			"-0.012": 0.0,
			"-0.011": 0.0,
			"-0.01": 0.0,
			"-0.009": 0.0,
			"-0.008": 0.0,
			"-0.007": 0.0232740894392,
			"-0.006": 3.34761402163,
			"-0.005": 11.9928216171,
			"-0.004": 17.3122443998,
			"-0.003": 27.1428194578,
			"-0.002": 22.0713685234,
			"-0.001": 20.5395320901,
			"0.0": 19.1067992164,
			"0.001": 15.5991018654,
			"0.002": 8.37102700648,
			"0.003": 9.14430074053,
			"0.004": 11.5846830387,
			"0.005": 11.3427602718,
			"0.006": 10.4993467449,
			"0.007": 4.00539766259,
			"0.008": 1.0702194445,
			"0.009": 1.68743798664,
			"0.01": 1.54011442301,
			"0.011": 0.136301479567,
			"0.012": 0.0,
			"0.013": 0.0,
			"0.014": 0.0,
			"0.015": 0.0,
			"0.016": 0.0,
			"0.017": 0.0,
			"0.018": 0.0,
			"0.019": 0.0,
			"0.02": 0.0,
			"0.021": 0.0,
			"0.022": 0.0,
			"0.023": 0.0,
			"0.024": 0.0,
			"0.025": 0.0
		}
	}
}
