{
	 "smiles": "BrC1=CSC=C1Br", 
	 "Tm": 277.9, 
	 "num_atms": 9, 
	 "gaussian": { 
		 "optdone": 1, 
		 "sigma_profile": "yes", 
		 "theory": "DFT", 
		 "functional": "B3LYP", 
		 "basiset": "6-31G**", 
		 "properties": { 
			 "R2extent": 4169.9539, 
			 "electric_dipole_moment_norm": 1.71686877192, 
			 "electric_quadrupole_moment_norm": 6.80111807205, 
			 "total_energy": -5694.59906359, 
			 "HOMO_LUMO_gap": 0.21216, 
			 "cosmo_polarized_energy": -4.2, 
			 "cosmo_cavitation_energy": 19.46, 
			 "cosmo_dispersion_energy": -16.04, 
			 "cosmo_repulsion_energy": 1.29, 
			 "cosmo_total_nonelectrostatic_energy": 4.71, 
			 "SMD_solvation_energy": 1.41 
		},
		"coords": [
			{
				"x": 0.829095442,
				"y": -3.0068677785,
				"z": 2.9397095537,
				"element": "Br" 
			},
			{
				"x": 1.3242738503,
				"y": -2.0700025163,
				"z": 1.3762324338,
				"element": "C" 
			},
			{
				"x": 2.6232387718,
				"y": -1.881581021,
				"z": 1.0014331055,
				"element": "C" 
			},
			{
				"x": 2.7292840215,
				"y": -0.9850344543,
				"z": -0.4772612886,
				"element": "S" 
			},
			{
				"x": 1.0049503175,
				"y": -0.8623683765,
				"z": -0.5920941735,
				"element": "C" 
			},
			{
				"x": 0.391637653,
				"y": -1.4825992218,
				"z": 0.4578813977,
				"element": "C" 
			},
			{
				"x": -1.4849279155,
				"y": -1.5489508479,
				"z": 0.6613879539,
				"element": "Br" 
			},
			{
				"x": 3.5133612537,
				"y": -2.2189562128,
				"z": 1.5109814445,
				"element": "H" 
			},
			{
				"x": 0.5390866058,
				"y": -0.3456395709,
				"z": -1.4177704271,
				"element": "H" 
			}
		],
		 "valence_orbital": [ 
			{
				"type": "occ",
				"energy": -0.3234,
				"method": "rhf"
			},
			{
				"type": "occ",
				"energy": -0.30349,
				"method": "rhf"
			},
			{
				"type": "occ",
				"energy": -0.28755,
				"method": "rhf"
			},
			{
				"type": "occ",
				"energy": -0.24906,
				"method": "rhf"
			},
			{
				"type": "occ",
				"energy": -0.2467,
				"method": "rhf"
			},
			{
				"type": "unocc",
				"energy": -0.03454,
				"method": "rhf"
			},
			{
				"type": "unocc",
				"energy": -0.01771,
				"method": "rhf"
			},
			{
				"type": "unocc",
				"energy": -0.0053,
				"method": "rhf"
			},
			{
				"type": "unocc",
				"energy": 0.0372,
				"method": "rhf"
			},
			{
				"type": "unocc",
				"energy": 0.05298,
				"method": "rhf"
			}
		],
		"cosmo_sigma_profile": { 
			"-0.025": 0.0,
			"-0.024": 0.0,
			"-0.023": 0.0,
			"-0.022": 0.0,
			"-0.021": 0.0,
			"-0.02": 0.0,
			"-0.019": 0.0,
			"-0.018": 0.0,
			"-0.017": 0.0,
			"-0.016": 0.0,
			"-0.015": 0.0,
			"-0.014": 0.0,
			"-0.013": 0.0,
			"-0.012": 0.0,
			"-0.011": 0.0332246984353,
			"-0.01": 3.20181334149,
			"-0.009": 3.93137311276,
			"-0.008": 3.36748443531,
			"-0.007": 3.3699486409,
			"-0.006": 4.13468688275,
			"-0.005": 5.76120022991,
			"-0.004": 6.28081079509,
			"-0.003": 6.78081635129,
			"-0.002": 8.59707662161,
			"-0.001": 10.1375276719,
			"0.0": 14.2613661885,
			"0.001": 24.0906172209,
			"0.002": 26.9138975837,
			"0.003": 20.6788867872,
			"0.004": 18.9731037304,
			"0.005": 5.29401968912,
			"0.006": 0.228921871641,
			"0.007": 0.0,
			"0.008": 0.0,
			"0.009": 0.0,
			"0.01": 0.0,
			"0.011": 0.0,
			"0.012": 0.0,
			"0.013": 0.0,
			"0.014": 0.0,
			"0.015": 0.0,
			"0.016": 0.0,
			"0.017": 0.0,
			"0.018": 0.0,
			"0.019": 0.0,
			"0.02": 0.0,
			"0.021": 0.0,
			"0.022": 0.0,
			"0.023": 0.0,
			"0.024": 0.0,
			"0.025": 0.0
		}
	}
}
