{
	 "smiles": "OCC1=CC=CC=C1CO", 
	 "Tm": 336.15, 
	 "num_atms": 20, 
	 "gaussian": { 
		 "optdone": 1, 
		 "sigma_profile": "yes", 
		 "theory": "DFT", 
		 "functional": "B3LYP", 
		 "basiset": "6-31G**", 
		 "properties": { 
			 "R2extent": 1973.8322, 
			 "electric_dipole_moment_norm": 2.98639871082, 
			 "electric_quadrupole_moment_norm": 12.2357341803, 
			 "total_energy": -461.304589537, 
			 "HOMO_LUMO_gap": 0.22642, 
			 "cosmo_polarized_energy": -11.18, 
			 "cosmo_cavitation_energy": 22.97, 
			 "cosmo_dispersion_energy": -16.88, 
			 "cosmo_repulsion_energy": 1.38, 
			 "cosmo_total_nonelectrostatic_energy": 7.47, 
			 "SMD_solvation_energy": 4.1 
		},
		"coords": [
			{
				"x": -1.4467920215,
				"y": 2.7907719392,
				"z": 2.1100245964,
				"element": "O" 
			},
			{
				"x": -2.1918418287,
				"y": 1.9210843637,
				"z": 1.2524198467,
				"element": "C" 
			},
			{
				"x": -1.3066166895,
				"y": 0.9518048592,
				"z": 0.4940058339,
				"element": "C" 
			},
			{
				"x": -1.138995654,
				"y": 1.0922601399,
				"z": -0.8864385663,
				"element": "C" 
			},
			{
				"x": -0.2962612273,
				"y": 0.2406206554,
				"z": -1.6071624478,
				"element": "C" 
			},
			{
				"x": 0.3968235389,
				"y": -0.7661153121,
				"z": -0.9402315145,
				"element": "C" 
			},
			{
				"x": 0.2355551311,
				"y": -0.916826145,
				"z": 0.4404274822,
				"element": "C" 
			},
			{
				"x": -0.6052765763,
				"y": -0.0723268642,
				"z": 1.1706886756,
				"element": "C" 
			},
			{
				"x": -0.7933450075,
				"y": -0.2922536276,
				"z": 2.6588175132,
				"element": "C" 
			},
			{
				"x": -2.1029998664,
				"y": -0.7681111406,
				"z": 2.983286069,
				"element": "O" 
			},
			{
				"x": -0.7716383236,
				"y": 3.2194975823,
				"z": 1.567312963,
				"element": "H" 
			},
			{
				"x": -2.7989970871,
				"y": 2.4979401723,
				"z": 0.5384793222,
				"element": "H" 
			},
			{
				"x": -2.8693413828,
				"y": 1.376172214,
				"z": 1.9135345475,
				"element": "H" 
			},
			{
				"x": -1.6791952799,
				"y": 1.8804232447,
				"z": -1.4066063084,
				"element": "H" 
			},
			{
				"x": -0.1830720177,
				"y": 0.3677887597,
				"z": -2.68001134,
				"element": "H" 
			},
			{
				"x": 1.0572816318,
				"y": -1.4333724421,
				"z": -1.4866291699,
				"element": "H" 
			},
			{
				"x": 0.7751820803,
				"y": -1.7045482279,
				"z": 0.9618642258,
				"element": "H" 
			},
			{
				"x": -0.0208266913,
				"y": -0.984057155,
				"z": 3.0272330416,
				"element": "H" 
			},
			{
				"x": -0.6890829147,
				"y": 0.6526944165,
				"z": 3.196590943,
				"element": "H" 
			},
			{
				"x": -2.2624598139,
				"y": -1.5568474324,
				"z": 2.4478942867,
				"element": "H" 
			}
		],
		 "valence_orbital": [ 
			{
				"type": "occ",
				"energy": -0.32206,
				"method": "rhf"
			},
			{
				"type": "occ",
				"energy": -0.27315,
				"method": "rhf"
			},
			{
				"type": "occ",
				"energy": -0.26647,
				"method": "rhf"
			},
			{
				"type": "occ",
				"energy": -0.25416,
				"method": "rhf"
			},
			{
				"type": "occ",
				"energy": -0.24481,
				"method": "rhf"
			},
			{
				"type": "unocc",
				"energy": -0.01839,
				"method": "rhf"
			},
			{
				"type": "unocc",
				"energy": -0.00567,
				"method": "rhf"
			},
			{
				"type": "unocc",
				"energy": 0.08852,
				"method": "rhf"
			},
			{
				"type": "unocc",
				"energy": 0.09379,
				"method": "rhf"
			},
			{
				"type": "unocc",
				"energy": 0.09597,
				"method": "rhf"
			}
		],
		"cosmo_sigma_profile": { 
			"-0.025": 0.0,
			"-0.024": 0.0,
			"-0.023": 0.0,
			"-0.022": 0.0,
			"-0.021": 0.0,
			"-0.02": 0.0,
			"-0.019": 0.0,
			"-0.018": 0.0,
			"-0.017": 0.0,
			"-0.016": 0.038884082357,
			"-0.015": 1.38531255189,
			"-0.014": 1.61029635024,
			"-0.013": 1.73570648371,
			"-0.012": 1.74585561612,
			"-0.011": 1.54575416361,
			"-0.01": 1.83522169652,
			"-0.009": 1.12522953591,
			"-0.008": 1.45110872161,
			"-0.007": 2.27663893398,
			"-0.006": 5.41360473849,
			"-0.005": 15.8949811436,
			"-0.004": 15.0393203599,
			"-0.003": 14.8277816167,
			"-0.002": 13.8551623311,
			"-0.001": 13.2363573561,
			"0.0": 9.88836261657,
			"0.001": 9.21537931653,
			"0.002": 9.73823022768,
			"0.003": 9.45479779654,
			"0.004": 11.4466219691,
			"0.005": 10.6089920765,
			"0.006": 6.79318878628,
			"0.007": 3.06932868172,
			"0.008": 2.33584542463,
			"0.009": 2.41488085865,
			"0.01": 1.37965892555,
			"0.011": 2.71294468068,
			"0.012": 2.44901063749,
			"0.013": 2.63625761089,
			"0.014": 2.98126043139,
			"0.015": 0.666802690929,
			"0.016": 0.0,
			"0.017": 0.0,
			"0.018": 0.0,
			"0.019": 0.0,
			"0.02": 0.0,
			"0.021": 0.0,
			"0.022": 0.0,
			"0.023": 0.0,
			"0.024": 0.0,
			"0.025": 0.0
		}
	}
}
