{
	 "smiles": "CC(C)N1N=CC=C1N1C(C)=CC(C=O)=C1C", 
	 "Tm": 351.15, 
	 "num_atms": 34, 
	 "gaussian": { 
		 "optdone": 1, 
		 "sigma_profile": "yes", 
		 "theory": "DFT", 
		 "functional": "B3LYP", 
		 "basiset": "6-31G**", 
		 "properties": { 
			 "R2extent": 4303.0304, 
			 "electric_dipole_moment_norm": 3.63905022499, 
			 "electric_quadrupole_moment_norm": 21.0282186637, 
			 "total_energy": -745.092889743, 
			 "HOMO_LUMO_gap": 0.18125, 
			 "cosmo_polarized_energy": -12.13, 
			 "cosmo_cavitation_energy": 37.07, 
			 "cosmo_dispersion_energy": -24.23, 
			 "cosmo_repulsion_energy": 1.87, 
			 "cosmo_total_nonelectrostatic_energy": 14.71, 
			 "SMD_solvation_energy": 7.24 
		},
		"coords": [
			{
				"x": -2.8896884012,
				"y": -1.4499294017,
				"z": 0.5530665084,
				"element": "C" 
			},
			{
				"x": -1.7751905807,
				"y": -0.9443665623,
				"z": -0.3697677248,
				"element": "C" 
			},
			{
				"x": -1.810386059,
				"y": -1.6230845255,
				"z": -1.7434575046,
				"element": "C" 
			},
			{
				"x": -0.4607345107,
				"y": -1.1471822538,
				"z": 0.2635913569,
				"element": "N" 
			},
			{
				"x": -0.0404858439,
				"y": -2.3961208149,
				"z": 0.542713041,
				"element": "N" 
			},
			{
				"x": 1.1622359884,
				"y": -2.2486952602,
				"z": 1.1011427895,
				"element": "C" 
			},
			{
				"x": 1.5362249884,
				"y": -0.894428943,
				"z": 1.1902151339,
				"element": "C" 
			},
			{
				"x": 0.465245796,
				"y": -0.2105875798,
				"z": 0.6397744507,
				"element": "C" 
			},
			{
				"x": 0.2628942308,
				"y": 1.1738826276,
				"z": 0.4625041777,
				"element": "N" 
			},
			{
				"x": -0.2974541234,
				"y": 2.0333023869,
				"z": 1.4264280926,
				"element": "C" 
			},
			{
				"x": -0.7642327578,
				"y": 1.5345601205,
				"z": 2.7548456328,
				"element": "C" 
			},
			{
				"x": -0.2839207236,
				"y": 3.2921658311,
				"z": 0.8933471996,
				"element": "C" 
			},
			{
				"x": 0.2989264907,
				"y": 3.2229333133,
				"z": -0.417270991,
				"element": "C" 
			},
			{
				"x": 0.5011884236,
				"y": 4.359302861,
				"z": -1.3061349217,
				"element": "C" 
			},
			{
				"x": 0.9964884783,
				"y": 4.3291317519,
				"z": -2.4249851986,
				"element": "O" 
			},
			{
				"x": 0.6357467751,
				"y": 1.8939311968,
				"z": -0.6582383451,
				"element": "C" 
			},
			{
				"x": 1.2871183853,
				"y": 1.2629681082,
				"z": -1.8437348455,
				"element": "C" 
			},
			{
				"x": -2.8673615756,
				"y": -0.9376248595,
				"z": 1.5193614713,
				"element": "H" 
			},
			{
				"x": -2.7757627724,
				"y": -2.5223626551,
				"z": 0.7301848042,
				"element": "H" 
			},
			{
				"x": -3.8659094662,
				"y": -1.2709683556,
				"z": 0.0925682879,
				"element": "H" 
			},
			{
				"x": -1.8685598219,
				"y": 0.1384203099,
				"z": -0.4951678381,
				"element": "H" 
			},
			{
				"x": -1.0230097352,
				"y": -1.2365702657,
				"z": -2.3967951285,
				"element": "H" 
			},
			{
				"x": -2.7758339387,
				"y": -1.440985585,
				"z": -2.224903499,
				"element": "H" 
			},
			{
				"x": -1.6686016471,
				"y": -2.7013441991,
				"z": -1.6356898921,
				"element": "H" 
			},
			{
				"x": 1.7153176598,
				"y": -3.1227864503,
				"z": 1.4178954604,
				"element": "H" 
			},
			{
				"x": 2.442149166,
				"y": -0.4626238914,
				"z": 1.5878912985,
				"element": "H" 
			},
			{
				"x": 0.0346738809,
				"y": 1.0272270091,
				"z": 3.3073023147,
				"element": "H" 
			},
			{
				"x": -1.1087307501,
				"y": 2.3788494746,
				"z": 3.356346097,
				"element": "H" 
			},
			{
				"x": -1.5958375432,
				"y": 0.8247781789,
				"z": 2.6687604378,
				"element": "H" 
			},
			{
				"x": -0.646421803,
				"y": 4.1865071569,
				"z": 1.3827708056,
				"element": "H" 
			},
			{
				"x": 0.1552993662,
				"y": 5.327485498,
				"z": -0.8779353224,
				"element": "H" 
			},
			{
				"x": 2.1775984069,
				"y": 0.6931646809,
				"z": -1.5559352312,
				"element": "H" 
			},
			{
				"x": 0.6124553175,
				"y": 0.5682758935,
				"z": -2.3589775001,
				"element": "H" 
			},
			{
				"x": 1.5677586997,
				"y": 2.0507752038,
				"z": -2.5425154177,
				"element": "H" 
			}
		],
		 "valence_orbital": [ 
			{
				"type": "occ",
				"energy": -0.25963,
				"method": "rhf"
			},
			{
				"type": "occ",
				"energy": -0.25712,
				"method": "rhf"
			},
			{
				"type": "occ",
				"energy": -0.25414,
				"method": "rhf"
			},
			{
				"type": "occ",
				"energy": -0.23797,
				"method": "rhf"
			},
			{
				"type": "occ",
				"energy": -0.21457,
				"method": "rhf"
			},
			{
				"type": "unocc",
				"energy": -0.03332,
				"method": "rhf"
			},
			{
				"type": "unocc",
				"energy": 0.00331,
				"method": "rhf"
			},
			{
				"type": "unocc",
				"energy": 0.02796,
				"method": "rhf"
			},
			{
				"type": "unocc",
				"energy": 0.05519,
				"method": "rhf"
			},
			{
				"type": "unocc",
				"energy": 0.06683,
				"method": "rhf"
			}
		],
		"cosmo_sigma_profile": { 
			"-0.025": 0.0,
			"-0.024": 0.0,
			"-0.023": 0.0,
			"-0.022": 0.0,
			"-0.021": 0.0,
			"-0.02": 0.0,
			"-0.019": 0.0,
			"-0.018": 0.0,
			"-0.017": 0.0,
			"-0.016": 0.0,
			"-0.015": 0.0,
			"-0.014": 0.0,
			"-0.013": 0.0,
			"-0.012": 0.0,
			"-0.011": 0.0,
			"-0.01": 0.0,
			"-0.009": 0.0,
			"-0.008": 0.659037788131,
			"-0.007": 3.34230334383,
			"-0.006": 7.20978768533,
			"-0.005": 22.5799299717,
			"-0.004": 31.4624684607,
			"-0.003": 30.2099665354,
			"-0.002": 32.1117170775,
			"-0.001": 33.2443747096,
			"0.0": 32.9114218635,
			"0.001": 17.7898747749,
			"0.002": 13.1629580299,
			"0.003": 12.4172931038,
			"0.004": 13.7104902802,
			"0.005": 8.8275266566,
			"0.006": 7.17501185655,
			"0.007": 3.95968388354,
			"0.008": 3.23587930255,
			"0.009": 2.55222571676,
			"0.01": 3.4411164177,
			"0.011": 3.87869599852,
			"0.012": 4.19972150903,
			"0.013": 3.33157639775,
			"0.014": 1.67695739042,
			"0.015": 0.128832622162,
			"0.016": 0.0,
			"0.017": 0.0,
			"0.018": 0.0,
			"0.019": 0.0,
			"0.02": 0.0,
			"0.021": 0.0,
			"0.022": 0.0,
			"0.023": 0.0,
			"0.024": 0.0,
			"0.025": 0.0
		}
	}
}
