{
	 "smiles": "CC1=NNC2=C1C(=CC(C)=N2)C(O)=O", 
	 "Tm": 573.15, 
	 "num_atms": 23, 
	 "gaussian": { 
		 "optdone": 1, 
		 "sigma_profile": "yes", 
		 "theory": "DFT", 
		 "functional": "B3LYP", 
		 "basiset": "6-31G**", 
		 "properties": { 
			 "R2extent": 3565.7502, 
			 "electric_dipole_moment_norm": 3.11740360877, 
			 "electric_quadrupole_moment_norm": 11.0097442023, 
			 "total_energy": -663.090488058, 
			 "HOMO_LUMO_gap": 0.17252, 
			 "cosmo_polarized_energy": -15.96, 
			 "cosmo_cavitation_energy": 27.23, 
			 "cosmo_dispersion_energy": -20.22, 
			 "cosmo_repulsion_energy": 1.58, 
			 "cosmo_total_nonelectrostatic_energy": 8.6, 
			 "SMD_solvation_energy": 3.17 
		},
		"coords": [
			{
				"x": 4.2913366518,
				"y": -1.8198833119,
				"z": -0.7515405087,
				"element": "C" 
			},
			{
				"x": 3.4608138045,
				"y": -0.9297208639,
				"z": 0.1265427756,
				"element": "C" 
			},
			{
				"x": 4.0083210016,
				"y": -0.4271388854,
				"z": 1.2254852327,
				"element": "N" 
			},
			{
				"x": 3.0526150718,
				"y": 0.3059879964,
				"z": 1.8469525922,
				"element": "N" 
			},
			{
				"x": 1.8661922324,
				"y": 0.2773655629,
				"z": 1.1822751816,
				"element": "C" 
			},
			{
				"x": 2.0841480723,
				"y": -0.5133074496,
				"z": 0.0212843868,
				"element": "C" 
			},
			{
				"x": 0.9494673146,
				"y": -0.6969113934,
				"z": -0.8080401228,
				"element": "C" 
			},
			{
				"x": -0.2442006475,
				"y": -0.1233166137,
				"z": -0.3907300961,
				"element": "C" 
			},
			{
				"x": -0.3207175933,
				"y": 0.655589918,
				"z": 0.7922079994,
				"element": "C" 
			},
			{
				"x": -1.6269394787,
				"y": 1.2861561793,
				"z": 1.2010729432,
				"element": "C" 
			},
			{
				"x": 0.7348343272,
				"y": 0.8663426354,
				"z": 1.5813778405,
				"element": "N" 
			},
			{
				"x": 0.9265015748,
				"y": -1.4550119308,
				"z": -2.1063272485,
				"element": "C" 
			},
			{
				"x": 2.0596144801,
				"y": -1.4028540597,
				"z": -2.8510102761,
				"element": "O" 
			},
			{
				"x": -0.0400610469,
				"y": -2.0580823761,
				"z": -2.5046132042,
				"element": "O" 
			},
			{
				"x": 3.7548972627,
				"y": -2.729520784,
				"z": -1.0348696812,
				"element": "H" 
			},
			{
				"x": 4.6122285364,
				"y": -1.3259939989,
				"z": -1.6778768393,
				"element": "H" 
			},
			{
				"x": 5.1963098215,
				"y": -2.0988400216,
				"z": -0.2082951937,
				"element": "H" 
			},
			{
				"x": 3.2456674596,
				"y": 0.7450418463,
				"z": 2.7336976872,
				"element": "H" 
			},
			{
				"x": -1.1302005182,
				"y": -0.2721723428,
				"z": -0.998094891,
				"element": "H" 
			},
			{
				"x": -2.4031403403,
				"y": 0.525301189,
				"z": 1.3401010847,
				"element": "H" 
			},
			{
				"x": -1.497983533,
				"y": 1.8342735511,
				"z": 2.1353582907,
				"element": "H" 
			},
			{
				"x": -1.9882435881,
				"y": 1.9779614491,
				"z": 0.431788357,
				"element": "H" 
			},
			{
				"x": 2.6950391347,
				"y": -0.7959662956,
				"z": -2.44594631,
				"element": "H" 
			}
		],
		 "valence_orbital": [ 
			{
				"type": "occ",
				"energy": -0.3094,
				"method": "rhf"
			},
			{
				"type": "occ",
				"energy": -0.28818,
				"method": "rhf"
			},
			{
				"type": "occ",
				"energy": -0.2766,
				"method": "rhf"
			},
			{
				"type": "occ",
				"energy": -0.25794,
				"method": "rhf"
			},
			{
				"type": "occ",
				"energy": -0.24697,
				"method": "rhf"
			},
			{
				"type": "unocc",
				"energy": -0.07445,
				"method": "rhf"
			},
			{
				"type": "unocc",
				"energy": -0.01336,
				"method": "rhf"
			},
			{
				"type": "unocc",
				"energy": 0.02009,
				"method": "rhf"
			},
			{
				"type": "unocc",
				"energy": 0.04232,
				"method": "rhf"
			},
			{
				"type": "unocc",
				"energy": 0.06356,
				"method": "rhf"
			}
		],
		"cosmo_sigma_profile": { 
			"-0.025": 0.0,
			"-0.024": 0.0,
			"-0.023": 0.0,
			"-0.022": 0.0,
			"-0.021": 0.0,
			"-0.02": 0.0,
			"-0.019": 0.0,
			"-0.018": 0.517748068161,
			"-0.017": 1.01486853683,
			"-0.016": 2.27875037267,
			"-0.015": 1.84136151994,
			"-0.014": 1.79833497868,
			"-0.013": 2.63755600709,
			"-0.012": 0.917479138374,
			"-0.011": 2.1941769941,
			"-0.01": 1.79111214166,
			"-0.009": 1.27620250706,
			"-0.008": 1.92275977047,
			"-0.007": 3.12972293905,
			"-0.006": 6.39774815493,
			"-0.005": 13.5353398887,
			"-0.004": 15.6060485023,
			"-0.003": 15.0301215266,
			"-0.002": 15.281806148,
			"-0.001": 23.5960017007,
			"0.0": 23.0373464671,
			"0.001": 13.3388905166,
			"0.002": 8.77888882864,
			"0.003": 5.89206046996,
			"0.004": 7.00189873406,
			"0.005": 4.93104424756,
			"0.006": 4.49024106952,
			"0.007": 5.55282087551,
			"0.008": 5.64245232546,
			"0.009": 5.04032807008,
			"0.01": 6.7696444933,
			"0.011": 7.82690518828,
			"0.012": 4.56132174363,
			"0.013": 1.90987735824,
			"0.014": 1.32385075974,
			"0.015": 0.357706182174,
			"0.016": 0.0,
			"0.017": 0.0,
			"0.018": 0.0,
			"0.019": 0.0,
			"0.02": 0.0,
			"0.021": 0.0,
			"0.022": 0.0,
			"0.023": 0.0,
			"0.024": 0.0,
			"0.025": 0.0
		}
	}
}
