{
	 "smiles": "CN1C(CCC(O)=O)=NC(=O)C2=C1C=CC=C2", 
	 "Tm": 474.15, 
	 "num_atms": 29, 
	 "gaussian": { 
		 "optdone": 1, 
		 "sigma_profile": "yes", 
		 "theory": "DFT", 
		 "functional": "B3LYP", 
		 "basiset": "6-31G**", 
		 "properties": { 
			 "R2extent": 4830.8975, 
			 "electric_dipole_moment_norm": 6.76959982052, 
			 "electric_quadrupole_moment_norm": 22.9496204383, 
			 "total_energy": -799.711665947, 
			 "HOMO_LUMO_gap": 0.18126, 
			 "cosmo_polarized_energy": -27.32, 
			 "cosmo_cavitation_energy": 32.81, 
			 "cosmo_dispersion_energy": -23.11, 
			 "cosmo_repulsion_energy": 1.77, 
			 "cosmo_total_nonelectrostatic_energy": 11.48, 
			 "SMD_solvation_energy": 5.72 
		},
		"coords": [
			{
				"x": 2.0775090334,
				"y": -1.470825316,
				"z": -0.5129665134,
				"element": "C" 
			},
			{
				"x": 1.3124024035,
				"y": -0.4024705798,
				"z": -1.1554595329,
				"element": "N" 
			},
			{
				"x": 0.2417687099,
				"y": -0.6356989832,
				"z": -1.9985439962,
				"element": "C" 
			},
			{
				"x": -0.1929969047,
				"y": -2.0629184193,
				"z": -2.287976042,
				"element": "C" 
			},
			{
				"x": -1.0787142638,
				"y": -2.6778923095,
				"z": -1.1753299563,
				"element": "C" 
			},
			{
				"x": -2.3166868298,
				"y": -1.8414557654,
				"z": -0.9122083211,
				"element": "C" 
			},
			{
				"x": -3.1961298652,
				"y": -1.9235504647,
				"z": -1.9343624241,
				"element": "O" 
			},
			{
				"x": -2.5053115368,
				"y": -1.1717343988,
				"z": 0.0779794557,
				"element": "O" 
			},
			{
				"x": -0.4712998672,
				"y": 0.2875700982,
				"z": -2.5703725793,
				"element": "N" 
			},
			{
				"x": -0.2024174625,
				"y": 1.6450696573,
				"z": -2.3616074232,
				"element": "C" 
			},
			{
				"x": -0.884987099,
				"y": 2.5133949345,
				"z": -2.8883930627,
				"element": "O" 
			},
			{
				"x": 0.9454461032,
				"y": 1.9651810014,
				"z": -1.4821989925,
				"element": "C" 
			},
			{
				"x": 1.6862290998,
				"y": 0.9256466647,
				"z": -0.8877438249,
				"element": "C" 
			},
			{
				"x": 2.7722002467,
				"y": 1.2424763651,
				"z": -0.0498096965,
				"element": "C" 
			},
			{
				"x": 3.0996516892,
				"y": 2.5743985699,
				"z": 0.1790562295,
				"element": "C" 
			},
			{
				"x": 2.3653182621,
				"y": 3.6111574575,
				"z": -0.4111340104,
				"element": "C" 
			},
			{
				"x": 1.2942338955,
				"y": 3.2992317344,
				"z": -1.2360112061,
				"element": "C" 
			},
			{
				"x": 3.1284217096,
				"y": -1.4244241538,
				"z": -0.8161851579,
				"element": "H" 
			},
			{
				"x": 1.6846303997,
				"y": -2.4421113966,
				"z": -0.7928977736,
				"element": "H" 
			},
			{
				"x": 2.0205678175,
				"y": -1.3777551664,
				"z": 0.5761131235,
				"element": "H" 
			},
			{
				"x": 0.657129232,
				"y": -2.7238232701,
				"z": -2.4827540388,
				"element": "H" 
			},
			{
				"x": -0.7782971373,
				"y": -2.0012783262,
				"z": -3.2056984725,
				"element": "H" 
			},
			{
				"x": -1.3858092938,
				"y": -3.6795228148,
				"z": -1.4934297387,
				"element": "H" 
			},
			{
				"x": -0.5426833471,
				"y": -2.7627091187,
				"z": -0.2276537755,
				"element": "H" 
			},
			{
				"x": -3.9124883947,
				"y": -1.2975876853,
				"z": -1.734804505,
				"element": "H" 
			},
			{
				"x": 3.3601020374,
				"y": 0.4666080224,
				"z": 0.4237549307,
				"element": "H" 
			},
			{
				"x": 3.9394409022,
				"y": 2.8053897879,
				"z": 0.8280768654,
				"element": "H" 
			},
			{
				"x": 2.6328470844,
				"y": 4.6460041483,
				"z": -0.2220586408,
				"element": "H" 
			},
			{
				"x": 0.6921233759,
				"y": 4.0639297271,
				"z": -1.7153809207,
				"element": "H" 
			}
		],
		 "valence_orbital": [ 
			{
				"type": "occ",
				"energy": -0.27441,
				"method": "rhf"
			},
			{
				"type": "occ",
				"energy": -0.26774,
				"method": "rhf"
			},
			{
				"type": "occ",
				"energy": -0.26061,
				"method": "rhf"
			},
			{
				"type": "occ",
				"energy": -0.23208,
				"method": "rhf"
			},
			{
				"type": "occ",
				"energy": -0.22817,
				"method": "rhf"
			},
			{
				"type": "unocc",
				"energy": -0.04691,
				"method": "rhf"
			},
			{
				"type": "unocc",
				"energy": -0.02479,
				"method": "rhf"
			},
			{
				"type": "unocc",
				"energy": 0.00492,
				"method": "rhf"
			},
			{
				"type": "unocc",
				"energy": 0.01042,
				"method": "rhf"
			},
			{
				"type": "unocc",
				"energy": 0.06489,
				"method": "rhf"
			}
		],
		"cosmo_sigma_profile": { 
			"-0.025": 0.0,
			"-0.024": 0.0,
			"-0.023": 0.0,
			"-0.022": 0.0,
			"-0.021": 0.0,
			"-0.02": 0.0,
			"-0.019": 0.0648300433263,
			"-0.018": 0.81247795917,
			"-0.017": 0.821231666424,
			"-0.016": 1.23340044066,
			"-0.015": 0.517385260671,
			"-0.014": 0.824498257073,
			"-0.013": 0.315115955592,
			"-0.012": 0.786894685002,
			"-0.011": 0.653063891488,
			"-0.01": 1.31663586051,
			"-0.009": 2.6565138411,
			"-0.008": 4.86618463665,
			"-0.007": 16.5782403327,
			"-0.006": 22.4909293486,
			"-0.005": 23.5908259399,
			"-0.004": 22.7184702466,
			"-0.003": 17.430879214,
			"-0.002": 12.8700264095,
			"-0.001": 10.8614120907,
			"0.0": 10.48251126,
			"0.001": 11.9262171687,
			"0.002": 14.0763311998,
			"0.003": 15.4229240233,
			"0.004": 10.1061142778,
			"0.005": 4.84898400657,
			"0.006": 5.49654704237,
			"0.007": 5.26828921387,
			"0.008": 5.2161539869,
			"0.009": 4.46851776005,
			"0.01": 3.78588008752,
			"0.011": 6.07218151978,
			"0.012": 7.05655894903,
			"0.013": 4.80897826508,
			"0.014": 5.1105813933,
			"0.015": 2.36288410758,
			"0.016": 2.19752463173,
			"0.017": 1.00458352473,
			"0.018": 0.0,
			"0.019": 0.0,
			"0.02": 0.0,
			"0.021": 0.0,
			"0.022": 0.0,
			"0.023": 0.0,
			"0.024": 0.0,
			"0.025": 0.0
		}
	}
}
