{
	 "smiles": "CCCCC(CC)COC(=O)C1=CC=C(C=C1)C(=O)OCC(CC)CCCC", 
	 "Tm": 305.15, 
	 "num_atms": 66, 
	 "gaussian": { 
		 "optdone": 1, 
		 "sigma_profile": "yes", 
		 "theory": "DFT", 
		 "functional": "B3LYP", 
		 "basiset": "6-31G**", 
		 "properties": { 
			 "R2extent": 22490.2451, 
			 "electric_dipole_moment_norm": 0.653512402331, 
			 "electric_quadrupole_moment_norm": 18.7751477017, 
			 "total_energy": -1238.42996841, 
			 "HOMO_LUMO_gap": 0.19478, 
			 "cosmo_polarized_energy": -10.08, 
			 "cosmo_cavitation_energy": 66.19, 
			 "cosmo_dispersion_energy": -43.17, 
			 "cosmo_repulsion_energy": 3.39, 
			 "cosmo_total_nonelectrostatic_energy": 26.41, 
			 "SMD_solvation_energy": 11.97 
		},
		"coords": [
			{
				"x": 3.0822506555,
				"y": 4.6134416699,
				"z": 0.2381579103,
				"element": "C" 
			},
			{
				"x": 4.4661269661,
				"y": 4.6288233764,
				"z": 0.8985668212,
				"element": "C" 
			},
			{
				"x": 4.9585439941,
				"y": 3.2551867088,
				"z": 1.387137774,
				"element": "C" 
			},
			{
				"x": 4.1438955867,
				"y": 2.6711056757,
				"z": 2.5503273458,
				"element": "C" 
			},
			{
				"x": 4.5877419781,
				"y": 1.2647956279,
				"z": 3.0018926207,
				"element": "C" 
			},
			{
				"x": 6.0346847355,
				"y": 1.1905294928,
				"z": 3.5450967774,
				"element": "C" 
			},
			{
				"x": 6.3415407934,
				"y": 2.0575479143,
				"z": 4.7745494332,
				"element": "C" 
			},
			{
				"x": 3.6098558973,
				"y": 0.6788433666,
				"z": 4.0291119811,
				"element": "C" 
			},
			{
				"x": 2.272587085,
				"y": 0.5418629334,
				"z": 3.4892137186,
				"element": "O" 
			},
			{
				"x": 2.0018664623,
				"y": -0.602774317,
				"z": 2.8233285844,
				"element": "C" 
			},
			{
				"x": 2.806846398,
				"y": -1.5005303363,
				"z": 2.6634837328,
				"element": "O" 
			},
			{
				"x": 0.5985880739,
				"y": -0.641519148,
				"z": 2.3118362267,
				"element": "C" 
			},
			{
				"x": -0.3076370841,
				"y": 0.4083014432,
				"z": 2.5206830613,
				"element": "C" 
			},
			{
				"x": -1.6020874525,
				"y": 0.3159223014,
				"z": 2.0208400606,
				"element": "C" 
			},
			{
				"x": -2.0050061767,
				"y": -0.8217704191,
				"z": 1.3080902584,
				"element": "C" 
			},
			{
				"x": -1.0995178984,
				"y": -1.8727558292,
				"z": 1.1018822889,
				"element": "C" 
			},
			{
				"x": 0.1950569278,
				"y": -1.7804090235,
				"z": 1.6017364095,
				"element": "C" 
			},
			{
				"x": -3.4093344145,
				"y": -0.8604022497,
				"z": 0.799853414,
				"element": "C" 
			},
			{
				"x": -4.2286012658,
				"y": 0.015364025,
				"z": 1.0039758435,
				"element": "O" 
			},
			{
				"x": -3.6684900414,
				"y": -1.9812516992,
				"z": 0.090532958,
				"element": "O" 
			},
			{
				"x": -5.0159983274,
				"y": -2.1243904841,
				"z": -0.4203754048,
				"element": "C" 
			},
			{
				"x": -5.2521270183,
				"y": -1.4206303312,
				"z": -1.7652663726,
				"element": "C" 
			},
			{
				"x": -6.7771426775,
				"y": -1.4084259394,
				"z": -2.0290804181,
				"element": "C" 
			},
			{
				"x": -7.2257015361,
				"y": -0.4933565844,
				"z": -3.1745033426,
				"element": "C" 
			},
			{
				"x": -4.4768855695,
				"y": -2.0623853219,
				"z": -2.9356135688,
				"element": "C" 
			},
			{
				"x": -2.951408807,
				"y": -1.86959464,
				"z": -2.925110699,
				"element": "C" 
			},
			{
				"x": -2.2548436298,
				"y": -2.3576872702,
				"z": -4.2066568507,
				"element": "C" 
			},
			{
				"x": -2.3251460339,
				"y": -3.8734249387,
				"z": -4.4300838527,
				"element": "C" 
			},
			{
				"x": 2.8128787917,
				"y": 5.6079476029,
				"z": -0.1325620886,
				"element": "H" 
			},
			{
				"x": 3.0605398845,
				"y": 3.9245450976,
				"z": -0.6143990327,
				"element": "H" 
			},
			{
				"x": 2.2975199098,
				"y": 4.3013902198,
				"z": 0.9347186847,
				"element": "H" 
			},
			{
				"x": 4.4609019053,
				"y": 5.3314344727,
				"z": 1.7434553646,
				"element": "H" 
			},
			{
				"x": 5.196102347,
				"y": 5.0256095528,
				"z": 0.1815171386,
				"element": "H" 
			},
			{
				"x": 6.0096241212,
				"y": 3.3517897443,
				"z": 1.6865452064,
				"element": "H" 
			},
			{
				"x": 4.946186099,
				"y": 2.5477566962,
				"z": 0.5451265885,
				"element": "H" 
			},
			{
				"x": 3.0888773312,
				"y": 2.6099015293,
				"z": 2.2618262687,
				"element": "H" 
			},
			{
				"x": 4.1827977195,
				"y": 3.3635433401,
				"z": 3.4034694929,
				"element": "H" 
			},
			{
				"x": 4.5489065171,
				"y": 0.6000823532,
				"z": 2.1283709432,
				"element": "H" 
			},
			{
				"x": 6.256998674,
				"y": 0.1417228584,
				"z": 3.7811009463,
				"element": "H" 
			},
			{
				"x": 6.723924282,
				"y": 1.4623594611,
				"z": 2.7377153288,
				"element": "H" 
			},
			{
				"x": 5.7199099327,
				"y": 1.790251534,
				"z": 5.6358510948,
				"element": "H" 
			},
			{
				"x": 7.3855916264,
				"y": 1.9312776181,
				"z": 5.078646884,
				"element": "H" 
			},
			{
				"x": 6.1873104544,
				"y": 3.1225813946,
				"z": 4.5733313809,
				"element": "H" 
			},
			{
				"x": 3.4830649346,
				"y": 1.3407341862,
				"z": 4.8894998732,
				"element": "H" 
			},
			{
				"x": 3.949881081,
				"y": -0.3025868071,
				"z": 4.3686466282,
				"element": "H" 
			},
			{
				"x": 0.0077954397,
				"y": 1.2857653432,
				"z": 3.0726987429,
				"element": "H" 
			},
			{
				"x": -2.3205177653,
				"y": 1.1142735523,
				"z": 2.1713382662,
				"element": "H" 
			},
			{
				"x": -1.416324418,
				"y": -2.7538102663,
				"z": 0.5565057339,
				"element": "H" 
			},
			{
				"x": 0.9120633716,
				"y": -2.5807956708,
				"z": 1.4552666307,
				"element": "H" 
			},
			{
				"x": -5.1560514475,
				"y": -3.2054607256,
				"z": -0.5157756731,
				"element": "H" 
			},
			{
				"x": -5.7043509415,
				"y": -1.7347485777,
				"z": 0.333299331,
				"element": "H" 
			},
			{
				"x": -4.9275413592,
				"y": -0.3778340081,
				"z": -1.64632864,
				"element": "H" 
			},
			{
				"x": -7.2872760192,
				"y": -1.0859762259,
				"z": -1.1124761791,
				"element": "H" 
			},
			{
				"x": -7.1194369777,
				"y": -2.4350344762,
				"z": -2.2235215489,
				"element": "H" 
			},
			{
				"x": -6.8296319665,
				"y": -0.8124021298,
				"z": -4.1433129228,
				"element": "H" 
			},
			{
				"x": -6.8985365093,
				"y": 0.5383295982,
				"z": -3.0035028068,
				"element": "H" 
			},
			{
				"x": -8.3174210783,
				"y": -0.4858935346,
				"z": -3.2562979934,
				"element": "H" 
			},
			{
				"x": -4.7226139634,
				"y": -3.1334149776,
				"z": -2.9667000306,
				"element": "H" 
			},
			{
				"x": -4.8581190978,
				"y": -1.6414622085,
				"z": -3.874621604,
				"element": "H" 
			},
			{
				"x": -2.5124411117,
				"y": -2.3770479866,
				"z": -2.0592429598,
				"element": "H" 
			},
			{
				"x": -2.7343465053,
				"y": -0.8009285767,
				"z": -2.7919453879,
				"element": "H" 
			},
			{
				"x": -2.6873540531,
				"y": -1.8403173828,
				"z": -5.0745087562,
				"element": "H" 
			},
			{
				"x": -1.2010256065,
				"y": -2.0535944923,
				"z": -4.1680381743,
				"element": "H" 
			},
			{
				"x": -1.8981278451,
				"y": -4.4169611445,
				"z": -3.5789481245,
				"element": "H" 
			},
			{
				"x": -1.7656202341,
				"y": -4.1666856954,
				"z": -5.3245306267,
				"element": "H" 
			},
			{
				"x": -3.3551951441,
				"y": -4.2211572723,
				"z": -4.56072469,
				"element": "H" 
			}
		],
		 "valence_orbital": [ 
			{
				"type": "occ",
				"energy": -0.28927,
				"method": "rhf"
			},
			{
				"type": "occ",
				"energy": -0.27679,
				"method": "rhf"
			},
			{
				"type": "occ",
				"energy": -0.27499,
				"method": "rhf"
			},
			{
				"type": "occ",
				"energy": -0.26551,
				"method": "rhf"
			},
			{
				"type": "occ",
				"energy": -0.26341,
				"method": "rhf"
			},
			{
				"type": "unocc",
				"energy": -0.06863,
				"method": "rhf"
			},
			{
				"type": "unocc",
				"energy": -0.01275,
				"method": "rhf"
			},
			{
				"type": "unocc",
				"energy": 0.01247,
				"method": "rhf"
			},
			{
				"type": "unocc",
				"energy": 0.07467,
				"method": "rhf"
			},
			{
				"type": "unocc",
				"energy": 0.08314,
				"method": "rhf"
			}
		],
		"cosmo_sigma_profile": { 
			"-0.025": 0.0,
			"-0.024": 0.0,
			"-0.023": 0.0,
			"-0.022": 0.0,
			"-0.021": 0.0,
			"-0.02": 0.0,
			"-0.019": 0.0,
			"-0.018": 0.0,
			"-0.017": 0.0,
			"-0.016": 0.0,
			"-0.015": 0.0,
			"-0.014": 0.0,
			"-0.013": 0.0,
			"-0.012": 0.0,
			"-0.011": 0.0,
			"-0.01": 0.0,
			"-0.009": 0.0,
			"-0.008": 0.0,
			"-0.007": 0.826840125207,
			"-0.006": 6.19080521546,
			"-0.005": 12.2326042798,
			"-0.004": 18.7648386412,
			"-0.003": 37.3905796512,
			"-0.002": 76.740760779,
			"-0.001": 87.2447449997,
			"0.0": 90.9792898034,
			"0.001": 87.9498390831,
			"0.002": 45.1836179564,
			"0.003": 10.8611747886,
			"0.004": 5.68736425167,
			"0.005": 6.11242815391,
			"0.006": 3.5648296245,
			"0.007": 2.63607429852,
			"0.008": 3.07482470554,
			"0.009": 2.83866510983,
			"0.01": 3.91169882038,
			"0.011": 5.83526060793,
			"0.012": 6.24306405311,
			"0.013": 0.0528135725257,
			"0.014": 0.0,
			"0.015": 0.0,
			"0.016": 0.0,
			"0.017": 0.0,
			"0.018": 0.0,
			"0.019": 0.0,
			"0.02": 0.0,
			"0.021": 0.0,
			"0.022": 0.0,
			"0.023": 0.0,
			"0.024": 0.0,
			"0.025": 0.0
		}
	}
}
