{
	 "smiles": "ClC(Cl)(Cl)OC(=O)C(Cl)(Cl)Cl", 
	 "Tm": 307.15, 
	 "num_atms": 11, 
	 "gaussian": { 
		 "optdone": 1, 
		 "sigma_profile": "yes", 
		 "theory": "DFT", 
		 "functional": "B3LYP", 
		 "basiset": "6-31G**", 
		 "properties": { 
			 "R2extent": 3807.1916, 
			 "electric_dipole_moment_norm": 0.762734514756, 
			 "electric_quadrupole_moment_norm": 2.92235311692, 
			 "total_energy": -3025.86088628, 
			 "HOMO_LUMO_gap": 0.23874, 
			 "cosmo_polarized_energy": -3.71, 
			 "cosmo_cavitation_energy": 27.16, 
			 "cosmo_dispersion_energy": -19.4, 
			 "cosmo_repulsion_energy": 1.59, 
			 "cosmo_total_nonelectrostatic_energy": 9.35, 
			 "SMD_solvation_energy": 3.56 
		},
		"coords": [
			{
				"x": -2.4897076316,
				"y": -0.3013959364,
				"z": 2.5187871996,
				"element": "Cl" 
			},
			{
				"x": -2.1500822036,
				"y": -0.5911264801,
				"z": 0.7872608417,
				"element": "C" 
			},
			{
				"x": -3.2441743604,
				"y": 0.4147071269,
				"z": -0.2177433245,
				"element": "Cl" 
			},
			{
				"x": -2.3797951599,
				"y": -2.3303264546,
				"z": 0.4113599438,
				"element": "Cl" 
			},
			{
				"x": -0.8155851069,
				"y": -0.2077838342,
				"z": 0.6253711839,
				"element": "O" 
			},
			{
				"x": -0.1909328596,
				"y": -0.2905504488,
				"z": -0.5909173277,
				"element": "C" 
			},
			{
				"x": -0.6720855619,
				"y": -0.6764167215,
				"z": -1.6108665766,
				"element": "O" 
			},
			{
				"x": 1.2758137454,
				"y": 0.2095397697,
				"z": -0.4254734941,
				"element": "C" 
			},
			{
				"x": 1.2397045769,
				"y": 1.9135493848,
				"z": 0.1442670351,
				"element": "Cl" 
			},
			{
				"x": 2.107061897,
				"y": 0.1088856381,
				"z": -1.9927913907,
				"element": "Cl" 
			},
			{
				"x": 2.1053826647,
				"y": -0.8338820438,
				"z": 0.7797459095,
				"element": "Cl" 
			}
		],
		 "valence_orbital": [ 
			{
				"type": "occ",
				"energy": -0.33779,
				"method": "rhf"
			},
			{
				"type": "occ",
				"energy": -0.33775,
				"method": "rhf"
			},
			{
				"type": "occ",
				"energy": -0.32624,
				"method": "rhf"
			},
			{
				"type": "occ",
				"energy": -0.32448,
				"method": "rhf"
			},
			{
				"type": "occ",
				"energy": -0.32073,
				"method": "rhf"
			},
			{
				"type": "unocc",
				"energy": -0.08199,
				"method": "rhf"
			},
			{
				"type": "unocc",
				"energy": -0.06506,
				"method": "rhf"
			},
			{
				"type": "unocc",
				"energy": -0.06069,
				"method": "rhf"
			},
			{
				"type": "unocc",
				"energy": -0.02226,
				"method": "rhf"
			},
			{
				"type": "unocc",
				"energy": -0.01736,
				"method": "rhf"
			}
		],
		"cosmo_sigma_profile": { 
			"-0.025": 0.0,
			"-0.024": 0.0,
			"-0.023": 0.0,
			"-0.022": 0.0,
			"-0.021": 0.0,
			"-0.02": 0.0,
			"-0.019": 0.0,
			"-0.018": 0.0,
			"-0.017": 0.0,
			"-0.016": 0.0,
			"-0.015": 0.0,
			"-0.014": 0.0,
			"-0.013": 0.0,
			"-0.012": 0.0,
			"-0.011": 0.0,
			"-0.01": 0.0,
			"-0.009": 0.000202092297852,
			"-0.008": 0.602964426472,
			"-0.007": 1.79537319079,
			"-0.006": 4.75189239909,
			"-0.005": 11.0423983753,
			"-0.004": 12.926988615,
			"-0.003": 15.4054739594,
			"-0.002": 17.9084164984,
			"-0.001": 20.0276389839,
			"0.0": 29.0426441908,
			"0.001": 47.7814811833,
			"0.002": 48.8925351762,
			"0.003": 5.70582402796,
			"0.004": 3.85368713601,
			"0.005": 3.03706993531,
			"0.006": 3.28104977517,
			"0.007": 4.23839320474,
			"0.008": 1.43534802188,
			"0.009": 0.0,
			"0.01": 0.0,
			"0.011": 0.0,
			"0.012": 0.0,
			"0.013": 0.0,
			"0.014": 0.0,
			"0.015": 0.0,
			"0.016": 0.0,
			"0.017": 0.0,
			"0.018": 0.0,
			"0.019": 0.0,
			"0.02": 0.0,
			"0.021": 0.0,
			"0.022": 0.0,
			"0.023": 0.0,
			"0.024": 0.0,
			"0.025": 0.0
		}
	}
}
