{
	 "smiles": "CC1=CC=CC(C=C)=C1", 
	 "Tm": 188.95, 
	 "num_atms": 19, 
	 "gaussian": { 
		 "optdone": 1, 
		 "sigma_profile": "yes", 
		 "theory": "DFT", 
		 "functional": "B3LYP", 
		 "basiset": "6-31G**", 
		 "properties": { 
			 "R2extent": 1924.4885, 
			 "electric_dipole_moment_norm": 0.521711040711, 
			 "electric_quadrupole_moment_norm": 6.70202452398, 
			 "total_energy": -348.973972741, 
			 "HOMO_LUMO_gap": 0.18981, 
			 "cosmo_polarized_energy": -3.97, 
			 "cosmo_cavitation_energy": 22.4, 
			 "cosmo_dispersion_energy": -16.31, 
			 "cosmo_repulsion_energy": 1.32, 
			 "cosmo_total_nonelectrostatic_energy": 7.41, 
			 "SMD_solvation_energy": 4.58 
		},
		"coords": [
			{
				"x": -1.4129974068,
				"y": 0.5740669551,
				"z": -2.4827183069,
				"element": "C" 
			},
			{
				"x": -1.4466380822,
				"y": 0.3528414667,
				"z": -0.9881027711,
				"element": "C" 
			},
			{
				"x": -1.8026428995,
				"y": -0.8896043415,
				"z": -0.4509355202,
				"element": "C" 
			},
			{
				"x": -1.8014572225,
				"y": -1.0909138403,
				"z": 0.9319760108,
				"element": "C" 
			},
			{
				"x": -1.4489677355,
				"y": -0.0602558787,
				"z": 1.7966652612,
				"element": "C" 
			},
			{
				"x": -1.0894103993,
				"y": 1.2011944313,
				"z": 1.288650947,
				"element": "C" 
			},
			{
				"x": -0.7101315087,
				"y": 2.3368941548,
				"z": 2.1458850033,
				"element": "C" 
			},
			{
				"x": -0.6266895973,
				"y": 2.3601346794,
				"z": 3.4818830062,
				"element": "C" 
			},
			{
				"x": -1.0985463826,
				"y": 1.380525875,
				"z": -0.1043004505,
				"element": "C" 
			},
			{
				"x": -0.4245848236,
				"y": 0.3374237601,
				"z": -2.8964597777,
				"element": "H" 
			},
			{
				"x": -1.63070868,
				"y": 1.6153768494,
				"z": -2.7389234391,
				"element": "H" 
			},
			{
				"x": -2.1405040437,
				"y": -0.0606762548,
				"z": -2.9976090914,
				"element": "H" 
			},
			{
				"x": -2.0840685905,
				"y": -1.7023799639,
				"z": -1.1159526528,
				"element": "H" 
			},
			{
				"x": -2.0828443839,
				"y": -2.0598214691,
				"z": 1.3354061624,
				"element": "H" 
			},
			{
				"x": -1.4580973545,
				"y": -0.233327196,
				"z": 2.8682365976,
				"element": "H" 
			},
			{
				"x": -0.4734986289,
				"y": 3.2519746629,
				"z": 1.6032603016,
				"element": "H" 
			},
			{
				"x": -0.8423765132,
				"y": 1.4943032728,
				"z": 4.1010214014,
				"element": "H" 
			},
			{
				"x": -0.3335368035,
				"y": 3.2640798475,
				"z": 4.0056551757,
				"element": "H" 
			},
			{
				"x": -0.8259989438,
				"y": 2.3540629895,
				"z": -0.5075378576,
				"element": "H" 
			}
		],
		 "valence_orbital": [ 
			{
				"type": "occ",
				"energy": -0.33701,
				"method": "rhf"
			},
			{
				"type": "occ",
				"energy": -0.33103,
				"method": "rhf"
			},
			{
				"type": "occ",
				"energy": -0.29192,
				"method": "rhf"
			},
			{
				"type": "occ",
				"energy": -0.24077,
				"method": "rhf"
			},
			{
				"type": "occ",
				"energy": -0.21878,
				"method": "rhf"
			},
			{
				"type": "unocc",
				"energy": -0.02897,
				"method": "rhf"
			},
			{
				"type": "unocc",
				"energy": 0.00377,
				"method": "rhf"
			},
			{
				"type": "unocc",
				"energy": 0.06188,
				"method": "rhf"
			},
			{
				"type": "unocc",
				"energy": 0.09774,
				"method": "rhf"
			},
			{
				"type": "unocc",
				"energy": 0.11507,
				"method": "rhf"
			}
		],
		"cosmo_sigma_profile": { 
			"-0.025": 0.0,
			"-0.024": 0.0,
			"-0.023": 0.0,
			"-0.022": 0.0,
			"-0.021": 0.0,
			"-0.02": 0.0,
			"-0.019": 0.0,
			"-0.018": 0.0,
			"-0.017": 0.0,
			"-0.016": 0.0,
			"-0.015": 0.0,
			"-0.014": 0.0,
			"-0.013": 0.0,
			"-0.012": 0.0,
			"-0.011": 0.0,
			"-0.01": 0.0,
			"-0.009": 0.0,
			"-0.008": 0.0,
			"-0.007": 0.516712749482,
			"-0.006": 3.98667959786,
			"-0.005": 12.9443648524,
			"-0.004": 18.131698742,
			"-0.003": 18.9181271271,
			"-0.002": 16.590005296,
			"-0.001": 16.4212593147,
			"0.0": 17.2874579897,
			"0.001": 12.6742176158,
			"0.002": 10.3205774594,
			"0.003": 9.86124243483,
			"0.004": 13.2247824258,
			"0.005": 12.8632547041,
			"0.006": 11.9199040548,
			"0.007": 2.42689418818,
			"0.008": 0.00426928592153,
			"0.009": 0.0,
			"0.01": 0.0,
			"0.011": 0.0,
			"0.012": 0.0,
			"0.013": 0.0,
			"0.014": 0.0,
			"0.015": 0.0,
			"0.016": 0.0,
			"0.017": 0.0,
			"0.018": 0.0,
			"0.019": 0.0,
			"0.02": 0.0,
			"0.021": 0.0,
			"0.022": 0.0,
			"0.023": 0.0,
			"0.024": 0.0,
			"0.025": 0.0
		}
	}
}
