{
	 "smiles": "CCCC(N)=O", 
	 "Tm": 388.15, 
	 "num_atms": 15, 
	 "gaussian": { 
		 "optdone": 1, 
		 "sigma_profile": "yes", 
		 "theory": "DFT", 
		 "functional": "B3LYP", 
		 "basiset": "6-31G**", 
		 "properties": { 
			 "R2extent": 812.1755, 
			 "electric_dipole_moment_norm": 3.57932460948, 
			 "electric_quadrupole_moment_norm": 5.758023621, 
			 "total_energy": -287.850126242, 
			 "HOMO_LUMO_gap": 0.27092, 
			 "cosmo_polarized_energy": -11.63, 
			 "cosmo_cavitation_energy": 17.83, 
			 "cosmo_dispersion_energy": -13.22, 
			 "cosmo_repulsion_energy": 1.18, 
			 "cosmo_total_nonelectrostatic_energy": 5.79, 
			 "SMD_solvation_energy": 3.92 
		},
		"coords": [
			{
				"x": 1.618549563,
				"y": 0.7918303207,
				"z": 1.4694032611,
				"element": "C" 
			},
			{
				"x": 1.3881428313,
				"y": 1.7130999458,
				"z": 0.267425,
				"element": "C" 
			},
			{
				"x": 0.757633783,
				"y": 1.0090195844,
				"z": -0.955777189,
				"element": "C" 
			},
			{
				"x": -0.6835466176,
				"y": 0.5785891641,
				"z": -0.7017641318,
				"element": "C" 
			},
			{
				"x": -1.6385476248,
				"y": 1.3223242306,
				"z": -1.3415080338,
				"element": "N" 
			},
			{
				"x": -0.9794977363,
				"y": -0.3458880822,
				"z": 0.0445011131,
				"element": "O" 
			},
			{
				"x": 2.3183965017,
				"y": -0.0122309012,
				"z": 1.2149242883,
				"element": "H" 
			},
			{
				"x": 2.0426708157,
				"y": 1.3510994095,
				"z": 2.3100003384,
				"element": "H" 
			},
			{
				"x": 0.6859237824,
				"y": 0.3244232135,
				"z": 1.7925258263,
				"element": "H" 
			},
			{
				"x": 0.7505714018,
				"y": 2.5577134943,
				"z": 0.5603062752,
				"element": "H" 
			},
			{
				"x": 2.3434972734,
				"y": 2.1485091079,
				"z": -0.050730923,
				"element": "H" 
			},
			{
				"x": 0.8168212148,
				"y": 1.667950658,
				"z": -1.8303138571,
				"element": "H" 
			},
			{
				"x": 1.327720794,
				"y": 0.1032527423,
				"z": -1.1895509522,
				"element": "H" 
			},
			{
				"x": -2.6066665465,
				"y": 1.0832193149,
				"z": -1.1888292054,
				"element": "H" 
			},
			{
				"x": -1.413769436,
				"y": 2.0676877974,
				"z": -1.9789118104,
				"element": "H" 
			}
		],
		 "valence_orbital": [ 
			{
				"type": "occ",
				"energy": -0.34314,
				"method": "rhf"
			},
			{
				"type": "occ",
				"energy": -0.33701,
				"method": "rhf"
			},
			{
				"type": "occ",
				"energy": -0.33089,
				"method": "rhf"
			},
			{
				"type": "occ",
				"energy": -0.26296,
				"method": "rhf"
			},
			{
				"type": "occ",
				"energy": -0.23967,
				"method": "rhf"
			},
			{
				"type": "unocc",
				"energy": 0.03125,
				"method": "rhf"
			},
			{
				"type": "unocc",
				"energy": 0.07113,
				"method": "rhf"
			},
			{
				"type": "unocc",
				"energy": 0.1147,
				"method": "rhf"
			},
			{
				"type": "unocc",
				"energy": 0.12417,
				"method": "rhf"
			},
			{
				"type": "unocc",
				"energy": 0.14533,
				"method": "rhf"
			}
		],
		"cosmo_sigma_profile": { 
			"-0.025": 0.0,
			"-0.024": 0.0,
			"-0.023": 0.0,
			"-0.022": 0.0,
			"-0.021": 0.0,
			"-0.02": 0.0,
			"-0.019": 0.0,
			"-0.018": 0.0,
			"-0.017": 0.0,
			"-0.016": 0.0,
			"-0.015": 0.0,
			"-0.014": 1.15967342233,
			"-0.013": 2.51312553712,
			"-0.012": 1.85548509112,
			"-0.011": 2.68596452353,
			"-0.01": 2.64512174806,
			"-0.009": 2.57726473989,
			"-0.008": 2.25479637172,
			"-0.007": 2.49387075502,
			"-0.006": 1.84109088316,
			"-0.005": 2.28443162762,
			"-0.004": 4.51952211099,
			"-0.003": 11.0896895849,
			"-0.002": 16.8434640586,
			"-0.001": 17.480082682,
			"0.0": 15.4627242841,
			"0.001": 11.3618366359,
			"0.002": 7.71311192056,
			"0.003": 4.07486376282,
			"0.004": 3.50688397379,
			"0.005": 2.87573018547,
			"0.006": 1.90089759836,
			"0.007": 1.06758885264,
			"0.008": 1.56731048344,
			"0.009": 1.91159680677,
			"0.01": 0.750461613923,
			"0.011": 1.96710292531,
			"0.012": 1.67204665453,
			"0.013": 2.27847676927,
			"0.014": 4.60312087324,
			"0.015": 3.11425107686,
			"0.016": 0.197954538919,
			"0.017": 0.0,
			"0.018": 0.0,
			"0.019": 0.0,
			"0.02": 0.0,
			"0.021": 0.0,
			"0.022": 0.0,
			"0.023": 0.0,
			"0.024": 0.0,
			"0.025": 0.0
		}
	}
}
