{
	 "smiles": "BrCCN1C=CC=CC1=O", 
	 "Tm": 400.15, 
	 "num_atms": 18, 
	 "gaussian": { 
		 "optdone": 1, 
		 "sigma_profile": "yes", 
		 "theory": "DFT", 
		 "functional": "B3LYP", 
		 "basiset": "6-31G**", 
		 "properties": { 
			 "R2extent": 2394.5546, 
			 "electric_dipole_moment_norm": 2.8849453565, 
			 "electric_quadrupole_moment_norm": 13.4131158587, 
			 "total_energy": -2972.95308808, 
			 "HOMO_LUMO_gap": 0.17636, 
			 "cosmo_polarized_energy": -11.68, 
			 "cosmo_cavitation_energy": 23.68, 
			 "cosmo_dispersion_energy": -17.64, 
			 "cosmo_repulsion_energy": 1.43, 
			 "cosmo_total_nonelectrostatic_energy": 7.46, 
			 "SMD_solvation_energy": 3.63 
		},
		"coords": [
			{
				"x": -0.412861183,
				"y": 1.661071584,
				"z": 2.0565565674,
				"element": "Br" 
			},
			{
				"x": -0.719763667,
				"y": -0.282343416,
				"z": 2.2774098298,
				"element": "C" 
			},
			{
				"x": 0.4727680679,
				"y": -1.1129737004,
				"z": 1.8234885977,
				"element": "C" 
			},
			{
				"x": 0.7052042199,
				"y": -1.0686353894,
				"z": 0.379508223,
				"element": "N" 
			},
			{
				"x": 1.7036496228,
				"y": -0.2955606559,
				"z": -0.1469319916,
				"element": "C" 
			},
			{
				"x": 1.9391214294,
				"y": -0.249507161,
				"z": -1.4903092779,
				"element": "C" 
			},
			{
				"x": 1.1119110083,
				"y": -1.0276666967,
				"z": -2.3473655719,
				"element": "C" 
			},
			{
				"x": 0.1057048733,
				"y": -1.7988830077,
				"z": -1.8380129971,
				"element": "C" 
			},
			{
				"x": -0.1720293715,
				"y": -1.8545265804,
				"z": -0.4194490362,
				"element": "C" 
			},
			{
				"x": -1.070203676,
				"y": -2.5026229244,
				"z": 0.1224283487,
				"element": "O" 
			},
			{
				"x": -0.9086666212,
				"y": -0.4306170606,
				"z": 3.3402752502,
				"element": "H" 
			},
			{
				"x": -1.6085549459,
				"y": -0.5253416613,
				"z": 1.6998930356,
				"element": "H" 
			},
			{
				"x": 0.2560585813,
				"y": -2.1537138279,
				"z": 2.0842034268,
				"element": "H" 
			},
			{
				"x": 1.3850562343,
				"y": -0.7971559883,
				"z": 2.3338337341,
				"element": "H" 
			},
			{
				"x": 2.2848326786,
				"y": 0.2726404731,
				"z": 0.5700836843,
				"element": "H" 
			},
			{
				"x": 2.7380045774,
				"y": 0.3693966779,
				"z": -1.8787704232,
				"element": "H" 
			},
			{
				"x": 1.284962981,
				"y": -1.0058456072,
				"z": -3.4201614694,
				"element": "H" 
			},
			{
				"x": -0.5396948094,
				"y": -2.3993150577,
				"z": -2.4684799303,
				"element": "H" 
			}
		],
		 "valence_orbital": [ 
			{
				"type": "occ",
				"energy": -0.30014,
				"method": "rhf"
			},
			{
				"type": "occ",
				"energy": -0.28103,
				"method": "rhf"
			},
			{
				"type": "occ",
				"energy": -0.27785,
				"method": "rhf"
			},
			{
				"type": "occ",
				"energy": -0.25165,
				"method": "rhf"
			},
			{
				"type": "occ",
				"energy": -0.21767,
				"method": "rhf"
			},
			{
				"type": "unocc",
				"energy": -0.04131,
				"method": "rhf"
			},
			{
				"type": "unocc",
				"energy": -0.00185,
				"method": "rhf"
			},
			{
				"type": "unocc",
				"energy": 0.01322,
				"method": "rhf"
			},
			{
				"type": "unocc",
				"energy": 0.07879,
				"method": "rhf"
			},
			{
				"type": "unocc",
				"energy": 0.10131,
				"method": "rhf"
			}
		],
		"cosmo_sigma_profile": { 
			"-0.025": 0.0,
			"-0.024": 0.0,
			"-0.023": 0.0,
			"-0.022": 0.0,
			"-0.021": 0.0,
			"-0.02": 0.0,
			"-0.019": 0.0,
			"-0.018": 0.0,
			"-0.017": 0.0,
			"-0.016": 0.0,
			"-0.015": 0.0,
			"-0.014": 0.0,
			"-0.013": 0.0,
			"-0.012": 0.0,
			"-0.011": 0.0,
			"-0.01": 0.360144604917,
			"-0.009": 2.39911452743,
			"-0.008": 5.4341286532,
			"-0.007": 12.039113103,
			"-0.006": 14.9700587846,
			"-0.005": 14.210922466,
			"-0.004": 13.1343173169,
			"-0.003": 11.4588197384,
			"-0.002": 9.45758297304,
			"-0.001": 10.862771113,
			"0.0": 11.4119614868,
			"0.001": 10.4620084466,
			"0.002": 13.527887214,
			"0.003": 15.4099092604,
			"0.004": 11.8342563069,
			"0.005": 8.44614789991,
			"0.006": 9.34486942673,
			"0.007": 1.94149657289,
			"0.008": 1.10172400224,
			"0.009": 1.01283794748,
			"0.01": 1.18672057007,
			"0.011": 1.47861745978,
			"0.012": 1.45103645094,
			"0.013": 1.85017901672,
			"0.014": 3.96011221885,
			"0.015": 2.47779620827,
			"0.016": 0.444341485922,
			"0.017": 0.0,
			"0.018": 0.0,
			"0.019": 0.0,
			"0.02": 0.0,
			"0.021": 0.0,
			"0.022": 0.0,
			"0.023": 0.0,
			"0.024": 0.0,
			"0.025": 0.0
		}
	}
}
