{
	 "smiles": "NC1=NN=C(O1)C1=CC=C(F)C=C1", 
	 "Tm": 520.15, 
	 "num_atms": 19, 
	 "gaussian": { 
		 "optdone": 1, 
		 "sigma_profile": "yes", 
		 "theory": "DFT", 
		 "functional": "B3LYP", 
		 "basiset": "6-31G**", 
		 "properties": { 
			 "R2extent": 3303.5561, 
			 "electric_dipole_moment_norm": 3.90031446425, 
			 "electric_quadrupole_moment_norm": 19.6728048722, 
			 "total_energy": -647.756228746, 
			 "HOMO_LUMO_gap": 0.17697, 
			 "cosmo_polarized_energy": -15.41, 
			 "cosmo_cavitation_energy": 25.02, 
			 "cosmo_dispersion_energy": -18.61, 
			 "cosmo_repulsion_energy": 1.44, 
			 "cosmo_total_nonelectrostatic_energy": 7.85, 
			 "SMD_solvation_energy": 3.35 
		},
		"coords": [
			{
				"x": -1.898162975,
				"y": 0.3526707859,
				"z": 3.5939367025,
				"element": "N" 
			},
			{
				"x": -2.075418555,
				"y": 0.3473034465,
				"z": 2.2380477929,
				"element": "C" 
			},
			{
				"x": -3.173837607,
				"y": 0.1688950648,
				"z": 1.5644225836,
				"element": "N" 
			},
			{
				"x": -2.7881852485,
				"y": 0.1640149252,
				"z": 0.2207792255,
				"element": "N" 
			},
			{
				"x": -1.5068166825,
				"y": 0.3509697108,
				"z": 0.1854706367,
				"element": "C" 
			},
			{
				"x": -0.9728521763,
				"y": 0.4756710658,
				"z": 1.4560992613,
				"element": "O" 
			},
			{
				"x": -0.622435223,
				"y": 0.4438721635,
				"z": -0.9671984554,
				"element": "C" 
			},
			{
				"x": 0.7594876267,
				"y": 0.6374516073,
				"z": -0.8146484467,
				"element": "C" 
			},
			{
				"x": 1.5871409479,
				"y": 0.7232055945,
				"z": -1.9317426617,
				"element": "C" 
			},
			{
				"x": 1.019462594,
				"y": 0.6126790915,
				"z": -3.1960976648,
				"element": "C" 
			},
			{
				"x": 1.8164534744,
				"y": 0.6948797541,
				"z": -4.2794596599,
				"element": "F" 
			},
			{
				"x": -0.3478830985,
				"y": 0.419472601,
				"z": -3.377871938,
				"element": "C" 
			},
			{
				"x": -1.167914435,
				"y": 0.3356759754,
				"z": -2.2588701392,
				"element": "C" 
			},
			{
				"x": -1.1489110278,
				"y": 0.9389006115,
				"z": 3.9350775235,
				"element": "H" 
			},
			{
				"x": -2.7641841507,
				"y": 0.4465494179,
				"z": 4.1064363019,
				"element": "H" 
			},
			{
				"x": 1.185680776,
				"y": 0.7193981923,
				"z": 0.179183367,
				"element": "H" 
			},
			{
				"x": 2.656924431,
				"y": 0.8721976459,
				"z": -1.8354203814,
				"element": "H" 
			},
			{
				"x": -0.7484583888,
				"y": 0.3383956931,
				"z": -4.3823558141,
				"element": "H" 
			},
			{
				"x": -2.2364902822,
				"y": 0.185696653,
				"z": -2.3675882338,
				"element": "H" 
			}
		],
		 "valence_orbital": [ 
			{
				"type": "occ",
				"energy": -0.31587,
				"method": "rhf"
			},
			{
				"type": "occ",
				"energy": -0.27495,
				"method": "rhf"
			},
			{
				"type": "occ",
				"energy": -0.27129,
				"method": "rhf"
			},
			{
				"type": "occ",
				"energy": -0.27009,
				"method": "rhf"
			},
			{
				"type": "occ",
				"energy": -0.21886,
				"method": "rhf"
			},
			{
				"type": "unocc",
				"energy": -0.04189,
				"method": "rhf"
			},
			{
				"type": "unocc",
				"energy": -0.01893,
				"method": "rhf"
			},
			{
				"type": "unocc",
				"energy": 0.036,
				"method": "rhf"
			},
			{
				"type": "unocc",
				"energy": 0.06235,
				"method": "rhf"
			},
			{
				"type": "unocc",
				"energy": 0.06927,
				"method": "rhf"
			}
		],
		"cosmo_sigma_profile": { 
			"-0.025": 0.0,
			"-0.024": 0.0,
			"-0.023": 0.0,
			"-0.022": 0.0,
			"-0.021": 0.0,
			"-0.02": 0.0,
			"-0.019": 0.0,
			"-0.018": 0.0,
			"-0.017": 0.0,
			"-0.016": 0.179485999934,
			"-0.015": 2.08373960518,
			"-0.014": 3.26852770861,
			"-0.013": 1.98513941636,
			"-0.012": 2.6910128725,
			"-0.011": 2.29902351166,
			"-0.01": 1.97275012002,
			"-0.009": 1.98865859803,
			"-0.008": 3.52815320438,
			"-0.007": 7.62638099749,
			"-0.006": 7.7077103674,
			"-0.005": 9.18992497058,
			"-0.004": 8.14628382606,
			"-0.003": 9.43276846704,
			"-0.002": 10.2585913332,
			"-0.001": 15.1494458707,
			"0.0": 16.0314968077,
			"0.001": 17.1459104766,
			"0.002": 21.237001947,
			"0.003": 15.629690678,
			"0.004": 13.5087260992,
			"0.005": 3.58595370091,
			"0.006": 2.22063158565,
			"0.007": 2.15433053269,
			"0.008": 2.85858428982,
			"0.009": 2.17560384784,
			"0.01": 3.03156484558,
			"0.011": 2.43379322178,
			"0.012": 3.61915984994,
			"0.013": 3.22817681302,
			"0.014": 2.76494043055,
			"0.015": 1.63091384897,
			"0.016": 0.789353213543,
			"0.017": 0.0241905770883,
			"0.018": 0.0,
			"0.019": 0.0,
			"0.02": 0.0,
			"0.021": 0.0,
			"0.022": 0.0,
			"0.023": 0.0,
			"0.024": 0.0,
			"0.025": 0.0
		}
	}
}
