{
	 "smiles": "COC1=CC(OC)=NC(SC2=CC=CC3=C2C(=O)OC3C)=N1", 
	 "Tm": 436.15, 
	 "num_atms": 36, 
	 "gaussian": { 
		 "optdone": 1, 
		 "sigma_profile": "yes", 
		 "theory": "DFT", 
		 "functional": "B3LYP", 
		 "basiset": "6-31G**", 
		 "properties": { 
			 "R2extent": 7318.0812, 
			 "electric_dipole_moment_norm": 5.08336245216, 
			 "electric_quadrupole_moment_norm": 18.1827944384, 
			 "total_energy": -1388.62928388, 
			 "HOMO_LUMO_gap": 0.1631, 
			 "cosmo_polarized_energy": -18.61, 
			 "cosmo_cavitation_energy": 42.41, 
			 "cosmo_dispersion_energy": -28.89, 
			 "cosmo_repulsion_energy": 2.17, 
			 "cosmo_total_nonelectrostatic_energy": 15.7, 
			 "SMD_solvation_energy": 7.91 
		},
		"coords": [
			{
				"x": -1.7259860201,
				"y": -2.6555001815,
				"z": 1.3065401577,
				"element": "C" 
			},
			{
				"x": -0.6436868969,
				"y": -2.7701606278,
				"z": 2.2359315019,
				"element": "O" 
			},
			{
				"x": 0.2747858143,
				"y": -1.7893496854,
				"z": 2.2463300832,
				"element": "C" 
			},
			{
				"x": 1.342084019,
				"y": -1.914524939,
				"z": 3.134638232,
				"element": "C" 
			},
			{
				"x": 2.2627906702,
				"y": -0.8651145976,
				"z": 3.1098551519,
				"element": "C" 
			},
			{
				"x": 3.3092735676,
				"y": -0.9313368454,
				"z": 3.9471039467,
				"element": "O" 
			},
			{
				"x": 4.264846046,
				"y": 0.1368396464,
				"z": 3.8966797234,
				"element": "C" 
			},
			{
				"x": 2.1439720288,
				"y": 0.1879062919,
				"z": 2.2931504436,
				"element": "N" 
			},
			{
				"x": 1.0780884422,
				"y": 0.1772427932,
				"z": 1.4943634056,
				"element": "C" 
			},
			{
				"x": 0.9920518233,
				"y": 1.6455600758,
				"z": 0.477120969,
				"element": "S" 
			},
			{
				"x": -0.3667365829,
				"y": 1.3291478303,
				"z": -0.637421663,
				"element": "C" 
			},
			{
				"x": -1.434591616,
				"y": 2.234479774,
				"z": -0.649580424,
				"element": "C" 
			},
			{
				"x": -2.4803133636,
				"y": 2.1106621784,
				"z": -1.5736234694,
				"element": "C" 
			},
			{
				"x": -2.4969145401,
				"y": 1.073511693,
				"z": -2.5072027386,
				"element": "C" 
			},
			{
				"x": -1.4352605862,
				"y": 0.1720613274,
				"z": -2.4951733976,
				"element": "C" 
			},
			{
				"x": -0.3856381731,
				"y": 0.2972619602,
				"z": -1.5888676543,
				"element": "C" 
			},
			{
				"x": 0.5947013296,
				"y": -0.7858897025,
				"z": -1.8652950215,
				"element": "C" 
			},
			{
				"x": 1.6501168319,
				"y": -1.0419934821,
				"z": -1.3448148652,
				"element": "O" 
			},
			{
				"x": 0.0956439852,
				"y": -1.5359668744,
				"z": -2.9072360637,
				"element": "O" 
			},
			{
				"x": -1.1660090757,
				"y": -1.0194754456,
				"z": -3.3822141675,
				"element": "C" 
			},
			{
				"x": -2.2202311044,
				"y": -2.1210373229,
				"z": -3.3279494392,
				"element": "C" 
			},
			{
				"x": 0.1228075645,
				"y": -0.7426863738,
				"z": 1.4229100452,
				"element": "N" 
			},
			{
				"x": -1.3576429358,
				"y": -2.6545076224,
				"z": 0.276649226,
				"element": "H" 
			},
			{
				"x": -2.3489906561,
				"y": -3.5331201731,
				"z": 1.4834154135,
				"element": "H" 
			},
			{
				"x": -2.2986918563,
				"y": -1.7401276189,
				"z": 1.4771028064,
				"element": "H" 
			},
			{
				"x": 1.4505586694,
				"y": -2.7651102914,
				"z": 3.7929079836,
				"element": "H" 
			},
			{
				"x": 5.0235520112,
				"y": -0.1247211429,
				"z": 4.6350224796,
				"element": "H" 
			},
			{
				"x": 3.7991120012,
				"y": 1.0925948569,
				"z": 4.1509311968,
				"element": "H" 
			},
			{
				"x": 4.7106005513,
				"y": 0.2168406645,
				"z": 2.9020006753,
				"element": "H" 
			},
			{
				"x": -1.4485668184,
				"y": 3.0410811863,
				"z": 0.0760995466,
				"element": "H" 
			},
			{
				"x": -3.2924330429,
				"y": 2.8315781479,
				"z": -1.5532948945,
				"element": "H" 
			},
			{
				"x": -3.3114809018,
				"y": 0.9817115978,
				"z": -3.2198071596,
				"element": "H" 
			},
			{
				"x": -1.0120377023,
				"y": -0.7043093686,
				"z": -4.4229096457,
				"element": "H" 
			},
			{
				"x": -2.3784876752,
				"y": -2.4486704956,
				"z": -2.2966576878,
				"element": "H" 
			},
			{
				"x": -1.8992369593,
				"y": -2.9792603726,
				"z": -3.923827964,
				"element": "H" 
			},
			{
				"x": -3.1716488483,
				"y": -1.7567168607,
				"z": -3.7281767326,
				"element": "H" 
			}
		],
		 "valence_orbital": [ 
			{
				"type": "occ",
				"energy": -0.26865,
				"method": "rhf"
			},
			{
				"type": "occ",
				"energy": -0.26694,
				"method": "rhf"
			},
			{
				"type": "occ",
				"energy": -0.26161,
				"method": "rhf"
			},
			{
				"type": "occ",
				"energy": -0.25151,
				"method": "rhf"
			},
			{
				"type": "occ",
				"energy": -0.22007,
				"method": "rhf"
			},
			{
				"type": "unocc",
				"energy": -0.05697,
				"method": "rhf"
			},
			{
				"type": "unocc",
				"energy": -0.02982,
				"method": "rhf"
			},
			{
				"type": "unocc",
				"energy": -0.01033,
				"method": "rhf"
			},
			{
				"type": "unocc",
				"energy": -8e-05,
				"method": "rhf"
			},
			{
				"type": "unocc",
				"energy": 0.04418,
				"method": "rhf"
			}
		],
		"cosmo_sigma_profile": { 
			"-0.025": 0.0,
			"-0.024": 0.0,
			"-0.023": 0.0,
			"-0.022": 0.0,
			"-0.021": 0.0,
			"-0.02": 0.0,
			"-0.019": 0.0,
			"-0.018": 0.0,
			"-0.017": 0.0,
			"-0.016": 0.0,
			"-0.015": 0.0,
			"-0.014": 0.0,
			"-0.013": 0.0,
			"-0.012": 0.0,
			"-0.011": 0.0,
			"-0.01": 0.0,
			"-0.009": 0.0,
			"-0.008": 2.82752474424,
			"-0.007": 14.1335337862,
			"-0.006": 18.5882354028,
			"-0.005": 27.414450206,
			"-0.004": 30.6320623297,
			"-0.003": 31.2530518767,
			"-0.002": 25.6724041018,
			"-0.001": 26.7126821364,
			"0.0": 24.1753214009,
			"0.001": 24.116115032,
			"0.002": 23.5109280309,
			"0.003": 17.3349728087,
			"0.004": 12.381611227,
			"0.005": 10.119176394,
			"0.006": 10.4761508069,
			"0.007": 9.31405595183,
			"0.008": 9.00176147964,
			"0.009": 7.74448876827,
			"0.01": 5.55269255385,
			"0.011": 4.60783456343,
			"0.012": 3.87004622934,
			"0.013": 1.02097720747,
			"0.014": 0.0,
			"0.015": 0.0,
			"0.016": 0.0,
			"0.017": 0.0,
			"0.018": 0.0,
			"0.019": 0.0,
			"0.02": 0.0,
			"0.021": 0.0,
			"0.022": 0.0,
			"0.023": 0.0,
			"0.024": 0.0,
			"0.025": 0.0
		}
	}
}
