{
	 "smiles": "ClC1=NC2=C(S1)C=C(Cl)C=C2", 
	 "Tm": 369.15, 
	 "num_atms": 14, 
	 "gaussian": { 
		 "optdone": 1, 
		 "sigma_profile": "yes", 
		 "theory": "DFT", 
		 "functional": "B3LYP", 
		 "basiset": "6-31G**", 
		 "properties": { 
			 "R2extent": 4241.199, 
			 "electric_dipole_moment_norm": 0.576218925409, 
			 "electric_quadrupole_moment_norm": 7.64831449667, 
			 "total_energy": -1641.87435523, 
			 "HOMO_LUMO_gap": 0.19136, 
			 "cosmo_polarized_energy": -5.0, 
			 "cosmo_cavitation_energy": 24.08, 
			 "cosmo_dispersion_energy": -18.96, 
			 "cosmo_repulsion_energy": 1.47, 
			 "cosmo_total_nonelectrostatic_energy": 6.58, 
			 "SMD_solvation_energy": 1.32 
		},
		"coords": [
			{
				"x": -4.5714484458,
				"y": -2.4032037298,
				"z": -2.1960321498,
				"element": "Cl" 
			},
			{
				"x": -3.1525866272,
				"y": -1.7816908556,
				"z": -1.427365953,
				"element": "C" 
			},
			{
				"x": -2.3504605848,
				"y": -0.9486938991,
				"z": -1.9820544239,
				"element": "N" 
			},
			{
				"x": -1.3096674305,
				"y": -0.6399744149,
				"z": -1.1162563411,
				"element": "C" 
			},
			{
				"x": -1.352112077,
				"y": -1.2839098811,
				"z": 0.1446571008,
				"element": "C" 
			},
			{
				"x": -2.7709518235,
				"y": -2.316208314,
				"z": 0.219569126,
				"element": "S" 
			},
			{
				"x": -0.3721577948,
				"y": -1.0686418782,
				"z": 1.1145361373,
				"element": "C" 
			},
			{
				"x": 0.6569400578,
				"y": -0.188926367,
				"z": 0.7910261436,
				"element": "C" 
			},
			{
				"x": 1.9148483858,
				"y": 0.1155964215,
				"z": 1.9779764233,
				"element": "Cl" 
			},
			{
				"x": 0.7244360609,
				"y": 0.4633548185,
				"z": -0.4509049043,
				"element": "C" 
			},
			{
				"x": -0.2580513685,
				"y": 0.2393563664,
				"z": -1.4064976354,
				"element": "C" 
			},
			{
				"x": -0.3986960259,
				"y": -1.5579832226,
				"z": 2.080916479,
				"element": "H" 
			},
			{
				"x": 1.54728097,
				"y": 1.1392096383,
				"z": -0.6529910845,
				"element": "H" 
			},
			{
				"x": -0.2262732965,
				"y": 0.7320153176,
				"z": -2.372178918,
				"element": "H" 
			}
		],
		 "valence_orbital": [ 
			{
				"type": "occ",
				"energy": -0.32337,
				"method": "rhf"
			},
			{
				"type": "occ",
				"energy": -0.31822,
				"method": "rhf"
			},
			{
				"type": "occ",
				"energy": -0.30558,
				"method": "rhf"
			},
			{
				"type": "occ",
				"energy": -0.25935,
				"method": "rhf"
			},
			{
				"type": "occ",
				"energy": -0.24687,
				"method": "rhf"
			},
			{
				"type": "unocc",
				"energy": -0.05551,
				"method": "rhf"
			},
			{
				"type": "unocc",
				"energy": -0.02959,
				"method": "rhf"
			},
			{
				"type": "unocc",
				"energy": -0.02149,
				"method": "rhf"
			},
			{
				"type": "unocc",
				"energy": 0.00432,
				"method": "rhf"
			},
			{
				"type": "unocc",
				"energy": 0.01005,
				"method": "rhf"
			}
		],
		"cosmo_sigma_profile": { 
			"-0.025": 0.0,
			"-0.024": 0.0,
			"-0.023": 0.0,
			"-0.022": 0.0,
			"-0.021": 0.0,
			"-0.02": 0.0,
			"-0.019": 0.0,
			"-0.018": 0.0,
			"-0.017": 0.0,
			"-0.016": 0.0,
			"-0.015": 0.0,
			"-0.014": 0.0,
			"-0.013": 0.0,
			"-0.012": 0.0,
			"-0.011": 0.0,
			"-0.01": 0.436571595199,
			"-0.009": 2.24341089037,
			"-0.008": 3.93350760229,
			"-0.007": 5.42237415053,
			"-0.006": 5.93325945405,
			"-0.005": 6.18002802974,
			"-0.004": 7.11331151795,
			"-0.003": 13.8770731401,
			"-0.002": 16.4268777016,
			"-0.001": 18.6893869466,
			"0.0": 22.0744990502,
			"0.001": 30.8632152507,
			"0.002": 28.6283503581,
			"0.003": 15.3441413196,
			"0.004": 12.5308285787,
			"0.005": 4.56678215863,
			"0.006": 1.16524603678,
			"0.007": 1.35109592616,
			"0.008": 1.12359588423,
			"0.009": 0.962283360246,
			"0.01": 1.07271080782,
			"0.011": 0.915264172354,
			"0.012": 0.840408514983,
			"0.013": 0.419903202019,
			"0.014": 0.0,
			"0.015": 0.0,
			"0.016": 0.0,
			"0.017": 0.0,
			"0.018": 0.0,
			"0.019": 0.0,
			"0.02": 0.0,
			"0.021": 0.0,
			"0.022": 0.0,
			"0.023": 0.0,
			"0.024": 0.0,
			"0.025": 0.0
		}
	}
}
