{
	 "smiles": "CC1=CC=CC=C1C1=NNC(=C1)C1=CC=CC=C1", 
	 "Tm": 381.15, 
	 "num_atms": 32, 
	 "gaussian": { 
		 "optdone": 1, 
		 "sigma_profile": "yes", 
		 "theory": "DFT", 
		 "functional": "B3LYP", 
		 "basiset": "6-31G**", 
		 "properties": { 
			 "R2extent": 6680.8635, 
			 "electric_dipole_moment_norm": 2.84293775169, 
			 "electric_quadrupole_moment_norm": 13.2967393653, 
			 "total_energy": -727.64186478, 
			 "HOMO_LUMO_gap": 0.18066, 
			 "cosmo_polarized_energy": -12.06, 
			 "cosmo_cavitation_energy": 35.63, 
			 "cosmo_dispersion_energy": -26.06, 
			 "cosmo_repulsion_energy": 1.98, 
			 "cosmo_total_nonelectrostatic_energy": 11.56, 
			 "SMD_solvation_energy": 4.75 
		},
		"coords": [
			{
				"x": 0.2508019664,
				"y": 0.8640704515,
				"z": -2.6876965237,
				"element": "C" 
			},
			{
				"x": 0.1574777768,
				"y": 1.9337917629,
				"z": -1.6223957519,
				"element": "C" 
			},
			{
				"x": 0.0423796937,
				"y": 3.2709781577,
				"z": -2.0283592436,
				"element": "C" 
			},
			{
				"x": -0.071222306,
				"y": 4.3143786584,
				"z": -1.1125503762,
				"element": "C" 
			},
			{
				"x": -0.0802334132,
				"y": 4.0289702862,
				"z": 0.2531320025,
				"element": "C" 
			},
			{
				"x": 0.0346230507,
				"y": 2.7100551083,
				"z": 0.6788067418,
				"element": "C" 
			},
			{
				"x": 0.1602529005,
				"y": 1.6489949141,
				"z": -0.2365735053,
				"element": "C" 
			},
			{
				"x": 0.2704267535,
				"y": 0.2809634931,
				"z": 0.3167998367,
				"element": "C" 
			},
			{
				"x": -0.3065260159,
				"y": 0.00399529,
				"z": 1.4979187909,
				"element": "N" 
			},
			{
				"x": -0.0025816138,
				"y": -1.2833928483,
				"z": 1.7377092704,
				"element": "N" 
			},
			{
				"x": 0.767178855,
				"y": -1.8583821631,
				"z": 0.7676217569,
				"element": "C" 
			},
			{
				"x": 0.9590089967,
				"y": -0.8594234633,
				"z": -0.1765085513,
				"element": "C" 
			},
			{
				"x": 1.2206900002,
				"y": -3.2513643748,
				"z": 0.8260665681,
				"element": "C" 
			},
			{
				"x": 2.4134048227,
				"y": -3.6346697472,
				"z": 0.1887827623,
				"element": "C" 
			},
			{
				"x": 2.8517569799,
				"y": -4.9558486171,
				"z": 0.23741765,
				"element": "C" 
			},
			{
				"x": 2.1148125505,
				"y": -5.9186874913,
				"z": 0.9313618111,
				"element": "C" 
			},
			{
				"x": 0.9292665413,
				"y": -5.5499586668,
				"z": 1.5695690689,
				"element": "C" 
			},
			{
				"x": 0.4820545504,
				"y": -4.2309708236,
				"z": 1.5128002252,
				"element": "C" 
			},
			{
				"x": 1.2836016379,
				"y": 0.5253875281,
				"z": -2.8389212531,
				"element": "H" 
			},
			{
				"x": -0.101710626,
				"y": 1.2514268536,
				"z": -3.6477278652,
				"element": "H" 
			},
			{
				"x": -0.3450119992,
				"y": -0.0180885317,
				"z": -2.4371722939,
				"element": "H" 
			},
			{
				"x": 0.0325352753,
				"y": 3.4912077122,
				"z": -3.0931888279,
				"element": "H" 
			},
			{
				"x": -0.1578200706,
				"y": 5.3388998239,
				"z": -1.463454,
				"element": "H" 
			},
			{
				"x": -0.1724167758,
				"y": 4.8282417046,
				"z": 0.9830019252,
				"element": "H" 
			},
			{
				"x": 0.0292788729,
				"y": 2.4737042148,
				"z": 1.7373241069,
				"element": "H" 
			},
			{
				"x": -0.2901013459,
				"y": -1.6968405384,
				"z": 2.6110615744,
				"element": "H" 
			},
			{
				"x": 1.5161100686,
				"y": -0.9540377343,
				"z": -1.093852583,
				"element": "H" 
			},
			{
				"x": 3.0039352427,
				"y": -2.8853623737,
				"z": -0.3293661959,
				"element": "H" 
			},
			{
				"x": 3.7770349062,
				"y": -5.2327781889,
				"z": -0.2595949505,
				"element": "H" 
			},
			{
				"x": 2.4603932146,
				"y": -6.9473217504,
				"z": 0.9721988574,
				"element": "H" 
			},
			{
				"x": 0.3432087878,
				"y": -6.2929887681,
				"z": 2.1027254451,
				"element": "H" 
			},
			{
				"x": -0.4635092775,
				"y": -3.9678498783,
				"z": 1.979463528,
				"element": "H" 
			}
		],
		 "valence_orbital": [ 
			{
				"type": "occ",
				"energy": -0.2714,
				"method": "rhf"
			},
			{
				"type": "occ",
				"energy": -0.26075,
				"method": "rhf"
			},
			{
				"type": "occ",
				"energy": -0.23335,
				"method": "rhf"
			},
			{
				"type": "occ",
				"energy": -0.22718,
				"method": "rhf"
			},
			{
				"type": "occ",
				"energy": -0.21236,
				"method": "rhf"
			},
			{
				"type": "unocc",
				"energy": -0.0317,
				"method": "rhf"
			},
			{
				"type": "unocc",
				"energy": -0.01271,
				"method": "rhf"
			},
			{
				"type": "unocc",
				"energy": -0.00813,
				"method": "rhf"
			},
			{
				"type": "unocc",
				"energy": 0.01139,
				"method": "rhf"
			},
			{
				"type": "unocc",
				"energy": 0.05215,
				"method": "rhf"
			}
		],
		"cosmo_sigma_profile": { 
			"-0.025": 0.0,
			"-0.024": 0.0,
			"-0.023": 0.0,
			"-0.022": 0.0,
			"-0.021": 0.0,
			"-0.02": 0.0,
			"-0.019": 0.0,
			"-0.018": 0.0,
			"-0.017": 0.0494814916273,
			"-0.016": 0.884328160773,
			"-0.015": 1.14329103855,
			"-0.014": 0.932993969605,
			"-0.013": 1.39522166686,
			"-0.012": 1.23382186775,
			"-0.011": 0.973308154854,
			"-0.01": 1.4270093073,
			"-0.009": 1.36800320043,
			"-0.008": 1.35925171624,
			"-0.007": 2.15311674884,
			"-0.006": 11.8105149884,
			"-0.005": 21.0374884094,
			"-0.004": 24.1191072946,
			"-0.003": 22.7952578691,
			"-0.002": 20.6753714595,
			"-0.001": 17.8138660315,
			"0.0": 21.7773267673,
			"0.001": 18.2577402991,
			"0.002": 18.7615325791,
			"0.003": 22.4718644305,
			"0.004": 23.6564799003,
			"0.005": 23.156651291,
			"0.006": 13.6770421906,
			"0.007": 3.22166883086,
			"0.008": 1.71145835225,
			"0.009": 1.46695341902,
			"0.01": 1.37065853899,
			"0.011": 1.22745385055,
			"0.012": 0.738045278476,
			"0.013": 0.864975262106,
			"0.014": 1.01463447543,
			"0.015": 0.625976884382,
			"0.016": 0.0654964957659,
			"0.017": 0.0,
			"0.018": 0.0,
			"0.019": 0.0,
			"0.02": 0.0,
			"0.021": 0.0,
			"0.022": 0.0,
			"0.023": 0.0,
			"0.024": 0.0,
			"0.025": 0.0
		}
	}
}
