{
	 "smiles": "O=C1CNC(=S)N1", 
	 "Tm": 503.15, 
	 "num_atms": 11, 
	 "gaussian": { 
		 "optdone": 1, 
		 "sigma_profile": "yes", 
		 "theory": "DFT", 
		 "functional": "B3LYP", 
		 "basiset": "6-31G**", 
		 "properties": { 
			 "R2extent": 2291.1229, 
			 "electric_dipole_moment_norm": 3.21044520433, 
			 "electric_quadrupole_moment_norm": 21.0991645929, 
			 "total_energy": -699.667642895, 
			 "HOMO_LUMO_gap": 0.1811, 
			 "cosmo_polarized_energy": -17.4, 
			 "cosmo_cavitation_energy": 17.18, 
			 "cosmo_dispersion_energy": -13.65, 
			 "cosmo_repulsion_energy": 1.13, 
			 "cosmo_total_nonelectrostatic_energy": 4.67, 
			 "SMD_solvation_energy": 2.05 
		},
		"coords": [
			{
				"x": -1.2572207741,
				"y": 0.7548224238,
				"z": -0.7908640056,
				"element": "O" 
			},
			{
				"x": -1.4065461032,
				"y": 0.1631220385,
				"z": 0.2529717229,
				"element": "C" 
			},
			{
				"x": -1.0082713189,
				"y": -1.281658734,
				"z": 0.5862005323,
				"element": "C" 
			},
			{
				"x": -1.4398089785,
				"y": -1.4046802498,
				"z": 1.9655263158,
				"element": "N" 
			},
			{
				"x": -2.0107125934,
				"y": -0.2764615159,
				"z": 2.4591578034,
				"element": "C" 
			},
			{
				"x": -2.6244393518,
				"y": -0.0204468239,
				"z": 3.9756706594,
				"element": "S" 
			},
			{
				"x": -1.980856371,
				"y": 0.6478994887,
				"z": 1.4193937539,
				"element": "N" 
			},
			{
				"x": -1.5211772413,
				"y": -1.9773987286,
				"z": -0.0886225916,
				"element": "H" 
			},
			{
				"x": 0.0734013679,
				"y": -1.4111010721,
				"z": 0.4607562976,
				"element": "H" 
			},
			{
				"x": -1.3465238575,
				"y": -2.2262538979,
				"z": 2.5414032423,
				"element": "H" 
			},
			{
				"x": -2.3489447781,
				"y": 1.5827570713,
				"z": 1.5235062696,
				"element": "H" 
			}
		],
		 "valence_orbital": [ 
			{
				"type": "occ",
				"energy": -0.39118,
				"method": "rhf"
			},
			{
				"type": "occ",
				"energy": -0.29381,
				"method": "rhf"
			},
			{
				"type": "occ",
				"energy": -0.29075,
				"method": "rhf"
			},
			{
				"type": "occ",
				"energy": -0.23919,
				"method": "rhf"
			},
			{
				"type": "occ",
				"energy": -0.22691,
				"method": "rhf"
			},
			{
				"type": "unocc",
				"energy": -0.04581,
				"method": "rhf"
			},
			{
				"type": "unocc",
				"energy": 0.01791,
				"method": "rhf"
			},
			{
				"type": "unocc",
				"energy": 0.05487,
				"method": "rhf"
			},
			{
				"type": "unocc",
				"energy": 0.09529,
				"method": "rhf"
			},
			{
				"type": "unocc",
				"energy": 0.09737,
				"method": "rhf"
			}
		],
		"cosmo_sigma_profile": { 
			"-0.025": 0.0,
			"-0.024": 0.0,
			"-0.023": 0.0,
			"-0.022": 0.0,
			"-0.021": 0.0,
			"-0.02": 0.0,
			"-0.019": 0.0,
			"-0.018": 0.0,
			"-0.017": 0.850032095024,
			"-0.016": 2.27723031313,
			"-0.015": 2.31689802783,
			"-0.014": 1.79283042412,
			"-0.013": 1.49650275085,
			"-0.012": 2.41457982236,
			"-0.011": 1.36227851211,
			"-0.01": 1.82211704984,
			"-0.009": 6.02972893606,
			"-0.008": 10.1553981804,
			"-0.007": 7.13623568018,
			"-0.006": 7.1656875172,
			"-0.005": 5.78898708427,
			"-0.004": 4.31210839499,
			"-0.003": 5.47248814384,
			"-0.002": 4.65061368143,
			"-0.001": 3.76742745462,
			"0.0": 4.34729441425,
			"0.001": 2.94212174672,
			"0.002": 4.19912841431,
			"0.003": 3.34373101051,
			"0.004": 5.31148889421,
			"0.005": 4.09674386848,
			"0.006": 4.51129227561,
			"0.007": 5.26156938681,
			"0.008": 6.59741828066,
			"0.009": 9.00865409495,
			"0.01": 8.08712177211,
			"0.011": 9.13252611136,
			"0.012": 3.92977201505,
			"0.013": 0.28894700166,
			"0.014": 0.0,
			"0.015": 0.0,
			"0.016": 0.0,
			"0.017": 0.0,
			"0.018": 0.0,
			"0.019": 0.0,
			"0.02": 0.0,
			"0.021": 0.0,
			"0.022": 0.0,
			"0.023": 0.0,
			"0.024": 0.0,
			"0.025": 0.0
		}
	}
}
