{
	 "smiles": "NS(=O)(=O)C1=CC(C#N)=C(Cl)C=C1", 
	 "Tm": 493.15, 
	 "num_atms": 18, 
	 "gaussian": { 
		 "optdone": 1, 
		 "sigma_profile": "yes", 
		 "theory": "DFT", 
		 "functional": "B3LYP", 
		 "basiset": "6-31G**", 
		 "properties": { 
			 "R2extent": 4439.6358, 
			 "electric_dipole_moment_norm": 4.90892465414, 
			 "electric_quadrupole_moment_norm": 17.3822048478, 
			 "total_energy": -1387.99498695, 
			 "HOMO_LUMO_gap": 0.19914, 
			 "cosmo_polarized_energy": -18.45, 
			 "cosmo_cavitation_energy": 27.37, 
			 "cosmo_dispersion_energy": -20.11, 
			 "cosmo_repulsion_energy": 1.56, 
			 "cosmo_total_nonelectrostatic_energy": 8.82, 
			 "SMD_solvation_energy": 5.4 
		},
		"coords": [
			{
				"x": -0.0219248212,
				"y": 1.8475096645,
				"z": -1.7387604187,
				"element": "N" 
			},
			{
				"x": 0.5277041783,
				"y": 0.4726062611,
				"z": -2.552004047,
				"element": "S" 
			},
			{
				"x": 1.8837973261,
				"y": 0.7709242377,
				"z": -3.0167835199,
				"element": "O" 
			},
			{
				"x": -0.5390002231,
				"y": 0.0185365468,
				"z": -3.4463221391,
				"element": "O" 
			},
			{
				"x": 0.6710252067,
				"y": -0.7462285018,
				"z": -1.2396923137,
				"element": "C" 
			},
			{
				"x": -0.3929615308,
				"y": -1.6052397776,
				"z": -0.9926984327,
				"element": "C" 
			},
			{
				"x": -0.2899808098,
				"y": -2.5600012585,
				"z": 0.0326060599,
				"element": "C" 
			},
			{
				"x": -1.3923837344,
				"y": -3.4394092757,
				"z": 0.2832173276,
				"element": "C" 
			},
			{
				"x": -2.3069303775,
				"y": -4.1343459236,
				"z": 0.4623585409,
				"element": "N" 
			},
			{
				"x": 0.8989863048,
				"y": -2.630000307,
				"z": 0.7861560951,
				"element": "C" 
			},
			{
				"x": 1.0585894525,
				"y": -3.8016485238,
				"z": 2.0629936682,
				"element": "Cl" 
			},
			{
				"x": 1.9641703873,
				"y": -1.7703788292,
				"z": 0.5153641884,
				"element": "C" 
			},
			{
				"x": 1.8534925466,
				"y": -0.8257453679,
				"z": -0.5013282064,
				"element": "C" 
			},
			{
				"x": -0.9682581251,
				"y": 2.0737881752,
				"z": -2.033415095,
				"element": "H" 
			},
			{
				"x": 0.619520381,
				"y": 2.618385827,
				"z": -1.9055083659,
				"element": "H" 
			},
			{
				"x": -1.2923983393,
				"y": -1.5526817927,
				"z": -1.5953361709,
				"element": "H" 
			},
			{
				"x": 2.8745681823,
				"y": -1.8501702789,
				"z": 1.0981375659,
				"element": "H" 
			},
			{
				"x": 2.6821839957,
				"y": -0.1659008756,
				"z": -0.7332847368,
				"element": "H" 
			}
		],
		 "valence_orbital": [ 
			{
				"type": "occ",
				"energy": -0.33463,
				"method": "rhf"
			},
			{
				"type": "occ",
				"energy": -0.3253,
				"method": "rhf"
			},
			{
				"type": "occ",
				"energy": -0.31611,
				"method": "rhf"
			},
			{
				"type": "occ",
				"energy": -0.29616,
				"method": "rhf"
			},
			{
				"type": "occ",
				"energy": -0.28068,
				"method": "rhf"
			},
			{
				"type": "unocc",
				"energy": -0.08154,
				"method": "rhf"
			},
			{
				"type": "unocc",
				"energy": -0.06296,
				"method": "rhf"
			},
			{
				"type": "unocc",
				"energy": 0.00019,
				"method": "rhf"
			},
			{
				"type": "unocc",
				"energy": 0.01797,
				"method": "rhf"
			},
			{
				"type": "unocc",
				"energy": 0.03287,
				"method": "rhf"
			}
		],
		"cosmo_sigma_profile": { 
			"-0.025": 0.0,
			"-0.024": 0.0,
			"-0.023": 0.0,
			"-0.022": 0.0,
			"-0.021": 0.0,
			"-0.02": 0.0,
			"-0.019": 0.0,
			"-0.018": 0.0,
			"-0.017": 0.0,
			"-0.016": 0.180141839673,
			"-0.015": 1.99818554968,
			"-0.014": 2.30779023293,
			"-0.013": 2.92139244197,
			"-0.012": 2.50552757162,
			"-0.011": 1.6258812075,
			"-0.01": 3.03612282857,
			"-0.009": 7.67643694736,
			"-0.008": 7.17913798183,
			"-0.007": 6.73516010317,
			"-0.006": 6.99071950535,
			"-0.005": 6.90856485714,
			"-0.004": 11.4480737242,
			"-0.003": 15.7726635974,
			"-0.002": 20.9432289612,
			"-0.001": 16.3226770571,
			"0.0": 11.6595878973,
			"0.001": 10.4572371565,
			"0.002": 13.1280867753,
			"0.003": 10.7342724108,
			"0.004": 5.56048899812,
			"0.005": 5.59828673172,
			"0.006": 6.33164575131,
			"0.007": 7.17438144045,
			"0.008": 6.38674942541,
			"0.009": 8.37167031734,
			"0.01": 11.9699632405,
			"0.011": 9.46876130158,
			"0.012": 1.8429281216,
			"0.013": 0.132950983399,
			"0.014": 0.0,
			"0.015": 0.0,
			"0.016": 0.0,
			"0.017": 0.0,
			"0.018": 0.0,
			"0.019": 0.0,
			"0.02": 0.0,
			"0.021": 0.0,
			"0.022": 0.0,
			"0.023": 0.0,
			"0.024": 0.0,
			"0.025": 0.0
		}
	}
}
