{
	 "smiles": "NC1=NC2=C(S1)C(=CC(=N2)C1=CC=CC=C1)C(F)(F)F", 
	 "Tm": 508.15, 
	 "num_atms": 28, 
	 "gaussian": { 
		 "optdone": 1, 
		 "sigma_profile": "yes", 
		 "theory": "DFT", 
		 "functional": "B3LYP", 
		 "basiset": "6-31G**", 
		 "properties": { 
			 "R2extent": 7269.5269, 
			 "electric_dipole_moment_norm": 2.44045590413, 
			 "electric_quadrupole_moment_norm": 28.8396498217, 
			 "total_energy": -1362.1916788, 
			 "HOMO_LUMO_gap": 0.16588, 
			 "cosmo_polarized_energy": -15.49, 
			 "cosmo_cavitation_energy": 35.76, 
			 "cosmo_dispersion_energy": -26.4, 
			 "cosmo_repulsion_energy": 1.9, 
			 "cosmo_total_nonelectrostatic_energy": 11.26, 
			 "SMD_solvation_energy": 3.71 
		},
		"coords": [
			{
				"x": 0.0183649566,
				"y": -4.561421804,
				"z": -1.912911236,
				"element": "N" 
			},
			{
				"x": -0.170737062,
				"y": -3.2375031804,
				"z": -1.6588188211,
				"element": "C" 
			},
			{
				"x": 0.7312459307,
				"y": -2.4609558476,
				"z": -1.1468380829,
				"element": "N" 
			},
			{
				"x": 0.223794411,
				"y": -1.1890056565,
				"z": -0.9532471034,
				"element": "C" 
			},
			{
				"x": -1.130193256,
				"y": -1.005500194,
				"z": -1.3536373435,
				"element": "C" 
			},
			{
				"x": -1.783600688,
				"y": -2.5116495645,
				"z": -1.9671257438,
				"element": "S" 
			},
			{
				"x": -1.7005719653,
				"y": 0.2571277489,
				"z": -1.2238802112,
				"element": "C" 
			},
			{
				"x": -0.9151096176,
				"y": 1.2736704534,
				"z": -0.6839247545,
				"element": "C" 
			},
			{
				"x": 0.409199682,
				"y": 1.0039635447,
				"z": -0.2857330974,
				"element": "C" 
			},
			{
				"x": 0.9625374721,
				"y": -0.2120517011,
				"z": -0.4346164379,
				"element": "N" 
			},
			{
				"x": 1.2766325557,
				"y": 2.0591052512,
				"z": 0.3032170367,
				"element": "C" 
			},
			{
				"x": 0.7483254038,
				"y": 3.2433355127,
				"z": 0.8434174931,
				"element": "C" 
			},
			{
				"x": 1.5874476862,
				"y": 4.217393017,
				"z": 1.3824003443,
				"element": "C" 
			},
			{
				"x": 2.970060235,
				"y": 4.0259484698,
				"z": 1.39346908,
				"element": "C" 
			},
			{
				"x": 3.5060055516,
				"y": 2.8478338201,
				"z": 0.867747657,
				"element": "C" 
			},
			{
				"x": 2.6691748949,
				"y": 1.8727403541,
				"z": 0.3311447687,
				"element": "C" 
			},
			{
				"x": -3.10211746,
				"y": 0.5331378481,
				"z": -1.7034626205,
				"element": "C" 
			},
			{
				"x": -3.1681234497,
				"y": 0.5184300433,
				"z": -3.053237175,
				"element": "F" 
			},
			{
				"x": -3.9680622858,
				"y": -0.407088083,
				"z": -1.2598494207,
				"element": "F" 
			},
			{
				"x": -3.555182243,
				"y": 1.7317006422,
				"z": -1.2890578734,
				"element": "F" 
			},
			{
				"x": -0.5729343655,
				"y": -5.0234279092,
				"z": -2.58614144,
				"element": "H" 
			},
			{
				"x": 0.9781543173,
				"y": -4.8739475217,
				"z": -1.8674941876,
				"element": "H" 
			},
			{
				"x": -1.3327151822,
				"y": 2.2671668547,
				"z": -0.594607984,
				"element": "H" 
			},
			{
				"x": -0.325002913,
				"y": 3.4027707232,
				"z": 0.8697157131,
				"element": "H" 
			},
			{
				"x": 1.1586612323,
				"y": 5.1234674234,
				"z": 1.8008496424,
				"element": "H" 
			},
			{
				"x": 3.6233663778,
				"y": 4.7857247879,
				"z": 1.8128037797,
				"element": "H" 
			},
			{
				"x": 4.5805917933,
				"y": 2.6884102022,
				"z": 0.8751037223,
				"element": "H" 
			},
			{
				"x": 3.0745879878,
				"y": 0.9523247651,
				"z": -0.0732857044,
				"element": "H" 
			}
		],
		 "valence_orbital": [ 
			{
				"type": "occ",
				"energy": -0.27224,
				"method": "rhf"
			},
			{
				"type": "occ",
				"energy": -0.26431,
				"method": "rhf"
			},
			{
				"type": "occ",
				"energy": -0.25133,
				"method": "rhf"
			},
			{
				"type": "occ",
				"energy": -0.24683,
				"method": "rhf"
			},
			{
				"type": "occ",
				"energy": -0.21935,
				"method": "rhf"
			},
			{
				"type": "unocc",
				"energy": -0.05347,
				"method": "rhf"
			},
			{
				"type": "unocc",
				"energy": -0.03762,
				"method": "rhf"
			},
			{
				"type": "unocc",
				"energy": -0.00744,
				"method": "rhf"
			},
			{
				"type": "unocc",
				"energy": 0.00158,
				"method": "rhf"
			},
			{
				"type": "unocc",
				"energy": 0.00842,
				"method": "rhf"
			}
		],
		"cosmo_sigma_profile": { 
			"-0.025": 0.0,
			"-0.024": 0.0,
			"-0.023": 0.0,
			"-0.022": 0.0,
			"-0.021": 0.0,
			"-0.02": 0.0,
			"-0.019": 0.0,
			"-0.018": 0.0,
			"-0.017": 0.0,
			"-0.016": 0.615116635925,
			"-0.015": 2.54110183688,
			"-0.014": 2.97683951865,
			"-0.013": 2.86371219841,
			"-0.012": 2.60250926986,
			"-0.011": 2.07360961446,
			"-0.01": 2.30263708458,
			"-0.009": 1.86018419031,
			"-0.008": 3.4045076191,
			"-0.007": 3.89068108319,
			"-0.006": 8.16257098038,
			"-0.005": 11.160972712,
			"-0.004": 15.7673121901,
			"-0.003": 14.5841305374,
			"-0.002": 16.4262142669,
			"-0.001": 23.5796621885,
			"0.0": 27.0469912127,
			"0.001": 30.3753534706,
			"0.002": 42.7804514505,
			"0.003": 24.0189558224,
			"0.004": 13.3110635925,
			"0.005": 15.4388339295,
			"0.006": 5.17618466995,
			"0.007": 2.146835704,
			"0.008": 2.0838529487,
			"0.009": 2.38399613508,
			"0.01": 1.93386957435,
			"0.011": 1.77708018136,
			"0.012": 1.99631414596,
			"0.013": 2.2944467108,
			"0.014": 2.0937808527,
			"0.015": 0.88592433819,
			"0.016": 0.0,
			"0.017": 0.0,
			"0.018": 0.0,
			"0.019": 0.0,
			"0.02": 0.0,
			"0.021": 0.0,
			"0.022": 0.0,
			"0.023": 0.0,
			"0.024": 0.0,
			"0.025": 0.0
		}
	}
}
