{
	 "smiles": "CS(=O)(=O)NC1=C2CCCNC2=CC=C1", 
	 "Tm": 391.15, 
	 "num_atms": 29, 
	 "gaussian": { 
		 "optdone": 1, 
		 "sigma_profile": "yes", 
		 "theory": "DFT", 
		 "functional": "B3LYP", 
		 "basiset": "6-31G**", 
		 "properties": { 
			 "R2extent": 5612.0566, 
			 "electric_dipole_moment_norm": 6.16203521817, 
			 "electric_quadrupole_moment_norm": 30.4837154466, 
			 "total_energy": -1047.58532067, 
			 "HOMO_LUMO_gap": 0.19479, 
			 "cosmo_polarized_energy": -17.87, 
			 "cosmo_cavitation_energy": 31.78, 
			 "cosmo_dispersion_energy": -23.88, 
			 "cosmo_repulsion_energy": 1.82, 
			 "cosmo_total_nonelectrostatic_energy": 9.72, 
			 "SMD_solvation_energy": 3.36 
		},
		"coords": [
			{
				"x": -1.7643492516,
				"y": -1.0581741127,
				"z": -3.7523016404,
				"element": "C" 
			},
			{
				"x": -3.2119984943,
				"y": -1.5452220111,
				"z": -2.7899243697,
				"element": "S" 
			},
			{
				"x": -4.1403360504,
				"y": -0.416100206,
				"z": -2.8115687799,
				"element": "O" 
			},
			{
				"x": -3.6293814982,
				"y": -2.886003582,
				"z": -3.2034878769,
				"element": "O" 
			},
			{
				"x": -2.6358639541,
				"y": -1.765577333,
				"z": -1.2183885451,
				"element": "N" 
			},
			{
				"x": -1.8815531006,
				"y": -0.8181915794,
				"z": -0.4740028084,
				"element": "C" 
			},
			{
				"x": -0.8205254773,
				"y": -1.2873742741,
				"z": 0.3280227068,
				"element": "C" 
			},
			{
				"x": -0.4527082541,
				"y": -2.7613448055,
				"z": 0.3721491274,
				"element": "C" 
			},
			{
				"x": 0.9189420978,
				"y": -3.0102611465,
				"z": 1.0184662309,
				"element": "C" 
			},
			{
				"x": 1.0723526644,
				"y": -2.1657611746,
				"z": 2.2820094522,
				"element": "C" 
			},
			{
				"x": 0.9524178473,
				"y": -0.7624758125,
				"z": 1.9169771019,
				"element": "N" 
			},
			{
				"x": -0.1108732475,
				"y": -0.3518246578,
				"z": 1.1140538807,
				"element": "C" 
			},
			{
				"x": -0.4395538351,
				"y": 1.0142125739,
				"z": 1.0498885053,
				"element": "C" 
			},
			{
				"x": -1.4794682766,
				"y": 1.4445317807,
				"z": 0.2374236559,
				"element": "C" 
			},
			{
				"x": -2.2224344449,
				"y": 0.5399710388,
				"z": -0.5202315487,
				"element": "C" 
			},
			{
				"x": -1.3183821118,
				"y": -0.1761551965,
				"z": -3.2903952914,
				"element": "H" 
			},
			{
				"x": -2.1174236285,
				"y": -0.8231745573,
				"z": -4.757652585,
				"element": "H" 
			},
			{
				"x": -1.0597237286,
				"y": -1.8901261008,
				"z": -3.7770240742,
				"element": "H" 
			},
			{
				"x": -2.4378275237,
				"y": -2.7456134967,
				"z": -1.0641824183,
				"element": "H" 
			},
			{
				"x": -1.2188435139,
				"y": -3.3243545002,
				"z": 0.9270228535,
				"element": "H" 
			},
			{
				"x": -0.442997037,
				"y": -3.182646249,
				"z": -0.6423738341,
				"element": "H" 
			},
			{
				"x": 1.037794139,
				"y": -4.0725197578,
				"z": 1.2546086584,
				"element": "H" 
			},
			{
				"x": 1.7161482215,
				"y": -2.7351691312,
				"z": 0.3189411516,
				"element": "H" 
			},
			{
				"x": 0.3146601441,
				"y": -2.4713501825,
				"z": 3.0250370622,
				"element": "H" 
			},
			{
				"x": 2.0569190191,
				"y": -2.3225756891,
				"z": 2.7344137878,
				"element": "H" 
			},
			{
				"x": 1.1988612322,
				"y": -0.1048913218,
				"z": 2.6434153999,
				"element": "H" 
			},
			{
				"x": 0.1258503135,
				"y": 1.7254592273,
				"z": 1.6466812663,
				"element": "H" 
			},
			{
				"x": -1.7352224619,
				"y": 2.4998099016,
				"z": 0.2080641539,
				"element": "H" 
			},
			{
				"x": -3.0677797888,
				"y": 0.8653023559,
				"z": -1.1130412225,
				"element": "H" 
			}
		],
		 "valence_orbital": [ 
			{
				"type": "occ",
				"energy": -0.30352,
				"method": "rhf"
			},
			{
				"type": "occ",
				"energy": -0.29949,
				"method": "rhf"
			},
			{
				"type": "occ",
				"energy": -0.28162,
				"method": "rhf"
			},
			{
				"type": "occ",
				"energy": -0.22571,
				"method": "rhf"
			},
			{
				"type": "occ",
				"energy": -0.19788,
				"method": "rhf"
			},
			{
				"type": "unocc",
				"energy": -0.00309,
				"method": "rhf"
			},
			{
				"type": "unocc",
				"energy": 0.01011,
				"method": "rhf"
			},
			{
				"type": "unocc",
				"energy": 0.05956,
				"method": "rhf"
			},
			{
				"type": "unocc",
				"energy": 0.07488,
				"method": "rhf"
			},
			{
				"type": "unocc",
				"energy": 0.0807,
				"method": "rhf"
			}
		],
		"cosmo_sigma_profile": { 
			"-0.025": 0.0,
			"-0.024": 0.0,
			"-0.023": 0.0,
			"-0.022": 0.0,
			"-0.021": 0.0,
			"-0.02": 0.0,
			"-0.019": 0.0,
			"-0.018": 0.0,
			"-0.017": 0.0,
			"-0.016": 0.0,
			"-0.015": 0.0,
			"-0.014": 0.0307784903109,
			"-0.013": 0.614075159197,
			"-0.012": 2.12685721596,
			"-0.011": 2.55127183723,
			"-0.01": 2.79251373089,
			"-0.009": 6.31469046869,
			"-0.008": 6.99002699362,
			"-0.007": 7.6596697567,
			"-0.006": 8.85456438196,
			"-0.005": 13.7526962634,
			"-0.004": 19.8458127826,
			"-0.003": 25.2088726323,
			"-0.002": 24.8181551796,
			"-0.001": 19.1598194273,
			"0.0": 11.9821999145,
			"0.001": 8.30596739251,
			"0.002": 8.46202612711,
			"0.003": 9.04383728126,
			"0.004": 9.35573655032,
			"0.005": 10.3558984516,
			"0.006": 12.1886958518,
			"0.007": 8.6923665423,
			"0.008": 4.78363089983,
			"0.009": 4.25087587005,
			"0.01": 6.89449691671,
			"0.011": 11.1985488275,
			"0.012": 4.33845738591,
			"0.013": 0.0675677610222,
			"0.014": 0.0,
			"0.015": 0.0,
			"0.016": 0.0,
			"0.017": 0.0,
			"0.018": 0.0,
			"0.019": 0.0,
			"0.02": 0.0,
			"0.021": 0.0,
			"0.022": 0.0,
			"0.023": 0.0,
			"0.024": 0.0,
			"0.025": 0.0
		}
	}
}
