{
	 "smiles": "CC1=C(C)C2=C(C=C1)C=C(CCl)C(Cl)=N2", 
	 "Tm": 383.15, 
	 "num_atms": 26, 
	 "gaussian": { 
		 "optdone": 1, 
		 "sigma_profile": "yes", 
		 "theory": "DFT", 
		 "functional": "B3LYP", 
		 "basiset": "6-31G**", 
		 "properties": { 
			 "R2extent": 7614.1193, 
			 "electric_dipole_moment_norm": 4.48278001022, 
			 "electric_quadrupole_moment_norm": 18.1754837553, 
			 "total_energy": -1439.07248349, 
			 "HOMO_LUMO_gap": 0.16694, 
			 "cosmo_polarized_energy": -9.55, 
			 "cosmo_cavitation_energy": 32.63, 
			 "cosmo_dispersion_energy": -23.82, 
			 "cosmo_repulsion_energy": 1.85, 
			 "cosmo_total_nonelectrostatic_energy": 10.67, 
			 "SMD_solvation_energy": 3.77 
		},
		"coords": [
			{
				"x": 1.3389186904,
				"y": 1.9837670498,
				"z": -1.8652255059,
				"element": "C" 
			},
			{
				"x": 0.4838040785,
				"y": 0.9089288035,
				"z": -1.2377798262,
				"element": "C" 
			},
			{
				"x": 0.4218518506,
				"y": -0.3663480817,
				"z": -1.7983650301,
				"element": "C" 
			},
			{
				"x": 1.2018361105,
				"y": -0.711723798,
				"z": -3.0412808912,
				"element": "C" 
			},
			{
				"x": -0.4009686025,
				"y": -1.3518475514,
				"z": -1.1726770182,
				"element": "C" 
			},
			{
				"x": -1.145179652,
				"y": -1.0315702672,
				"z": 0.0057495488,
				"element": "C" 
			},
			{
				"x": -1.0565165304,
				"y": 0.2722841077,
				"z": 0.5470313634,
				"element": "C" 
			},
			{
				"x": -0.2602409006,
				"y": 1.210401089,
				"z": -0.0670745836,
				"element": "C" 
			},
			{
				"x": -1.9420843831,
				"y": -2.053914392,
				"z": 0.5745729837,
				"element": "C" 
			},
			{
				"x": -2.0029761732,
				"y": -3.3137840267,
				"z": 0.0172956137,
				"element": "C" 
			},
			{
				"x": -2.8497833248,
				"y": -4.3853284184,
				"z": 0.6265499971,
				"element": "C" 
			},
			{
				"x": -4.5165433159,
				"y": -4.4727469266,
				"z": -0.134201515,
				"element": "Cl" 
			},
			{
				"x": -1.2111298756,
				"y": -3.5053838786,
				"z": -1.1579869567,
				"element": "C" 
			},
			{
				"x": -1.2184599773,
				"y": -5.0983904214,
				"z": -1.9309474597,
				"element": "Cl" 
			},
			{
				"x": -0.4638944169,
				"y": -2.6054295204,
				"z": -1.7156907893,
				"element": "N" 
			},
			{
				"x": 1.2774810026,
				"y": 2.9185951761,
				"z": -1.3025821167,
				"element": "H" 
			},
			{
				"x": 2.3931007259,
				"y": 1.6853178537,
				"z": -1.9075811449,
				"element": "H" 
			},
			{
				"x": 1.0304786298,
				"y": 2.1913382852,
				"z": -2.8967217454,
				"element": "H" 
			},
			{
				"x": 0.9121541008,
				"y": -0.0682190222,
				"z": -3.8807716465,
				"element": "H" 
			},
			{
				"x": 2.277528165,
				"y": -0.5641940659,
				"z": -2.8868280357,
				"element": "H" 
			},
			{
				"x": 1.0311851062,
				"y": -1.7492259423,
				"z": -3.3256141819,
				"element": "H" 
			},
			{
				"x": -1.6209327497,
				"y": 0.5198934468,
				"z": 1.4418530303,
				"element": "H" 
			},
			{
				"x": -0.1926615352,
				"y": 2.2127547167,
				"z": 0.347239993,
				"element": "H" 
			},
			{
				"x": -2.5213011657,
				"y": -1.834964366,
				"z": 1.4688946372,
				"element": "H" 
			},
			{
				"x": -2.4186089052,
				"y": -5.3762110477,
				"z": 0.4981217664,
				"element": "H" 
			},
			{
				"x": -3.0220569522,
				"y": -4.1909988022,
				"z": 1.6849195133,
				"element": "H" 
			}
		],
		 "valence_orbital": [ 
			{
				"type": "occ",
				"energy": -0.29747,
				"method": "rhf"
			},
			{
				"type": "occ",
				"energy": -0.2943,
				"method": "rhf"
			},
			{
				"type": "occ",
				"energy": -0.27263,
				"method": "rhf"
			},
			{
				"type": "occ",
				"energy": -0.25061,
				"method": "rhf"
			},
			{
				"type": "occ",
				"energy": -0.23348,
				"method": "rhf"
			},
			{
				"type": "unocc",
				"energy": -0.06654,
				"method": "rhf"
			},
			{
				"type": "unocc",
				"energy": -0.03609,
				"method": "rhf"
			},
			{
				"type": "unocc",
				"energy": 0.009,
				"method": "rhf"
			},
			{
				"type": "unocc",
				"energy": 0.0245,
				"method": "rhf"
			},
			{
				"type": "unocc",
				"energy": 0.03235,
				"method": "rhf"
			}
		],
		"cosmo_sigma_profile": { 
			"-0.025": 0.0,
			"-0.024": 0.0,
			"-0.023": 0.0,
			"-0.022": 0.0,
			"-0.021": 0.0,
			"-0.02": 0.0,
			"-0.019": 0.0,
			"-0.018": 0.0,
			"-0.017": 0.0,
			"-0.016": 0.0,
			"-0.015": 0.0,
			"-0.014": 0.0,
			"-0.013": 0.0,
			"-0.012": 0.0,
			"-0.011": 0.0,
			"-0.01": 0.0109282372043,
			"-0.009": 2.49896431794,
			"-0.008": 6.13007509575,
			"-0.007": 6.64009528357,
			"-0.006": 9.42707927764,
			"-0.005": 13.2742265387,
			"-0.004": 19.7046729624,
			"-0.003": 14.8266947664,
			"-0.002": 18.342156233,
			"-0.001": 23.4197730754,
			"0.0": 29.3745636996,
			"0.001": 25.3092377653,
			"0.002": 22.4817377766,
			"0.003": 18.9324821726,
			"0.004": 16.8820995989,
			"0.005": 13.5997288882,
			"0.006": 12.8910692222,
			"0.007": 6.05215732953,
			"0.008": 2.06674888549,
			"0.009": 1.56531636104,
			"0.01": 1.00944885266,
			"0.011": 0.017486956867,
			"0.012": 0.0,
			"0.013": 0.0,
			"0.014": 0.0,
			"0.015": 0.0,
			"0.016": 0.0,
			"0.017": 0.0,
			"0.018": 0.0,
			"0.019": 0.0,
			"0.02": 0.0,
			"0.021": 0.0,
			"0.022": 0.0,
			"0.023": 0.0,
			"0.024": 0.0,
			"0.025": 0.0
		}
	}
}
