{
	 "smiles": "OC(=O)C1=NOC(=N1)C1=CC=C(F)C=C1", 
	 "Tm": 403.15, 
	 "num_atms": 20, 
	 "gaussian": { 
		 "optdone": 1, 
		 "sigma_profile": "yes", 
		 "theory": "DFT", 
		 "functional": "B3LYP", 
		 "basiset": "6-31G**", 
		 "properties": { 
			 "R2extent": 4585.5156, 
			 "electric_dipole_moment_norm": 1.40776117648, 
			 "electric_quadrupole_moment_norm": 8.35802800306, 
			 "total_energy": -780.946703369, 
			 "HOMO_LUMO_gap": 0.1818, 
			 "cosmo_polarized_energy": -13.66, 
			 "cosmo_cavitation_energy": 27.4, 
			 "cosmo_dispersion_energy": -20.08, 
			 "cosmo_repulsion_energy": 1.54, 
			 "cosmo_total_nonelectrostatic_energy": 8.86, 
			 "SMD_solvation_energy": 4.97 
		},
		"coords": [
			{
				"x": 1.4929471074,
				"y": 2.8519668787,
				"z": 2.7657329459,
				"element": "O" 
			},
			{
				"x": 1.9726957653,
				"y": 1.7645310421,
				"z": 2.1332137235,
				"element": "C" 
			},
			{
				"x": 3.134853558,
				"y": 1.434423459,
				"z": 2.1262262765,
				"element": "O" 
			},
			{
				"x": 0.8933320655,
				"y": 1.0062210639,
				"z": 1.4323180937,
				"element": "C" 
			},
			{
				"x": -0.3658619941,
				"y": 1.3823829227,
				"z": 1.4515011418,
				"element": "N" 
			},
			{
				"x": -0.9927817028,
				"y": 0.4000420915,
				"z": 0.6849363231,
				"element": "O" 
			},
			{
				"x": -0.0309984785,
				"y": -0.4664348085,
				"z": 0.2858279953,
				"element": "C" 
			},
			{
				"x": 1.154796148,
				"y": -0.1352243676,
				"z": 0.7225337696,
				"element": "N" 
			},
			{
				"x": -0.403930089,
				"y": -1.6077081616,
				"z": -0.539692892,
				"element": "C" 
			},
			{
				"x": 0.596899152,
				"y": -2.5041767133,
				"z": -0.9516894642,
				"element": "C" 
			},
			{
				"x": 0.2711276118,
				"y": -3.6017604434,
				"z": -1.7395110434,
				"element": "C" 
			},
			{
				"x": -1.0590904675,
				"y": -3.789783418,
				"z": -2.1073025321,
				"element": "C" 
			},
			{
				"x": -1.3778272793,
				"y": -4.8503101952,
				"z": -2.8692080414,
				"element": "F" 
			},
			{
				"x": -2.0703841965,
				"y": -2.9177256135,
				"z": -1.7134427595,
				"element": "C" 
			},
			{
				"x": -1.737731571,
				"y": -1.8211834878,
				"z": -0.9250615002,
				"element": "C" 
			},
			{
				"x": 2.2575138333,
				"y": 3.2784833944,
				"z": 3.188035805,
				"element": "H" 
			},
			{
				"x": 1.6223201078,
				"y": -2.3265815792,
				"z": -0.6464799856,
				"element": "H" 
			},
			{
				"x": 1.0236140142,
				"y": -4.3084908688,
				"z": -2.0709841658,
				"element": "H" 
			},
			{
				"x": -3.0916257068,
				"y": -3.1060165308,
				"z": -2.0249860446,
				"element": "H" 
			},
			{
				"x": -2.5092678777,
				"y": -1.1287546647,
				"z": -0.6065676456,
				"element": "H" 
			}
		],
		 "valence_orbital": [ 
			{
				"type": "occ",
				"energy": -0.32069,
				"method": "rhf"
			},
			{
				"type": "occ",
				"energy": -0.31261,
				"method": "rhf"
			},
			{
				"type": "occ",
				"energy": -0.29495,
				"method": "rhf"
			},
			{
				"type": "occ",
				"energy": -0.28394,
				"method": "rhf"
			},
			{
				"type": "occ",
				"energy": -0.25689,
				"method": "rhf"
			},
			{
				"type": "unocc",
				"energy": -0.07509,
				"method": "rhf"
			},
			{
				"type": "unocc",
				"energy": -0.05054,
				"method": "rhf"
			},
			{
				"type": "unocc",
				"energy": -0.03164,
				"method": "rhf"
			},
			{
				"type": "unocc",
				"energy": 0.03676,
				"method": "rhf"
			},
			{
				"type": "unocc",
				"energy": 0.06437,
				"method": "rhf"
			}
		],
		"cosmo_sigma_profile": { 
			"-0.025": 0.0,
			"-0.024": 0.0,
			"-0.023": 0.0,
			"-0.022": 0.0,
			"-0.021": 0.0,
			"-0.02": 0.278534340488,
			"-0.019": 0.84394240635,
			"-0.018": 1.04922057614,
			"-0.017": 1.35145077509,
			"-0.016": 0.457684448256,
			"-0.015": 0.680040335992,
			"-0.014": 0.405369061572,
			"-0.013": 0.961041774164,
			"-0.012": 0.837079809684,
			"-0.011": 0.697548956068,
			"-0.01": 0.401366499082,
			"-0.009": 1.19404697583,
			"-0.008": 5.69671558485,
			"-0.007": 8.14360827112,
			"-0.006": 11.5785284907,
			"-0.005": 11.7813916231,
			"-0.004": 12.6168424907,
			"-0.003": 12.7710582097,
			"-0.002": 13.4593186469,
			"-0.001": 18.5519254655,
			"0.0": 17.0312408654,
			"0.001": 20.3149868962,
			"0.002": 13.7507192196,
			"0.003": 12.3193879208,
			"0.004": 12.4625782047,
			"0.005": 5.74353081701,
			"0.006": 4.074514262,
			"0.007": 5.31019982877,
			"0.008": 4.37264784886,
			"0.009": 6.08054807673,
			"0.01": 7.76807226349,
			"0.011": 5.15136996823,
			"0.012": 2.57374949006,
			"0.013": 1.15339234175,
			"0.014": 0.0357946810922,
			"0.015": 0.0,
			"0.016": 0.0,
			"0.017": 0.0,
			"0.018": 0.0,
			"0.019": 0.0,
			"0.02": 0.0,
			"0.021": 0.0,
			"0.022": 0.0,
			"0.023": 0.0,
			"0.024": 0.0,
			"0.025": 0.0
		}
	}
}
