{
	 "smiles": "CC1=CC(C(O)=O)=C(C)N1CC1=CC=CS1", 
	 "Tm": 459.15, 
	 "num_atms": 29, 
	 "gaussian": { 
		 "optdone": 1, 
		 "sigma_profile": "yes", 
		 "theory": "DFT", 
		 "functional": "B3LYP", 
		 "basiset": "6-31G**", 
		 "properties": { 
			 "R2extent": 4740.9027, 
			 "electric_dipole_moment_norm": 6.47782634145, 
			 "electric_quadrupole_moment_norm": 32.2777499005, 
			 "total_energy": -1068.49481661, 
			 "HOMO_LUMO_gap": 0.18903, 
			 "cosmo_polarized_energy": -18.42, 
			 "cosmo_cavitation_energy": 34.09, 
			 "cosmo_dispersion_energy": -24.03, 
			 "cosmo_repulsion_energy": 1.83, 
			 "cosmo_total_nonelectrostatic_energy": 11.89, 
			 "SMD_solvation_energy": 6.52 
		},
		"coords": [
			{
				"x": 2.8245229693,
				"y": -0.2126326569,
				"z": 0.454051297,
				"element": "C" 
			},
			{
				"x": 1.8742434091,
				"y": 0.4087660284,
				"z": -0.5188854366,
				"element": "C" 
			},
			{
				"x": 1.9699514295,
				"y": 0.5597831969,
				"z": -1.8777498888,
				"element": "C" 
			},
			{
				"x": 0.8030505778,
				"y": 1.2483569665,
				"z": -2.3322981272,
				"element": "C" 
			},
			{
				"x": 0.5660287421,
				"y": 1.5599533964,
				"z": -3.7549960448,
				"element": "C" 
			},
			{
				"x": -0.2772178404,
				"y": 2.6077660756,
				"z": -4.0276666916,
				"element": "O" 
			},
			{
				"x": 1.0731102498,
				"y": 0.9544905647,
				"z": -4.6713180252,
				"element": "O" 
			},
			{
				"x": -0.0057443412,
				"y": 1.4819343887,
				"z": -1.221826041,
				"element": "C" 
			},
			{
				"x": -1.381892154,
				"y": 2.0649635492,
				"z": -1.0984245578,
				"element": "C" 
			},
			{
				"x": 0.6628798884,
				"y": 0.9776097053,
				"z": -0.1234680045,
				"element": "N" 
			},
			{
				"x": 0.1276494905,
				"y": 0.9256344713,
				"z": 1.2278566417,
				"element": "C" 
			},
			{
				"x": -0.684418741,
				"y": -0.3227539748,
				"z": 1.4907327714,
				"element": "C" 
			},
			{
				"x": -0.9250714654,
				"y": -1.3780815635,
				"z": 0.6520913704,
				"element": "C" 
			},
			{
				"x": -1.7376457322,
				"y": -2.3950256521,
				"z": 1.2464316062,
				"element": "C" 
			},
			{
				"x": -2.1039014076,
				"y": -2.1008597966,
				"z": 2.5277397259,
				"element": "C" 
			},
			{
				"x": -1.4613811509,
				"y": -0.5680510148,
				"z": 3.0378868583,
				"element": "S" 
			},
			{
				"x": 2.3633001995,
				"y": -1.0286316339,
				"z": 1.0229686999,
				"element": "H" 
			},
			{
				"x": 3.2200653432,
				"y": 0.5127381195,
				"z": 1.1769926456,
				"element": "H" 
			},
			{
				"x": 3.6756205352,
				"y": -0.6265534457,
				"z": -0.0910915334,
				"element": "H" 
			},
			{
				"x": 2.7878617652,
				"y": 0.2396202377,
				"z": -2.5064486481,
				"element": "H" 
			},
			{
				"x": -0.4088634491,
				"y": 3.1254610188,
				"z": -3.2221527439,
				"element": "H" 
			},
			{
				"x": -1.83720221,
				"y": 2.1696453566,
				"z": -2.0850743827,
				"element": "H" 
			},
			{
				"x": -2.0390279784,
				"y": 1.4140029668,
				"z": -0.5117092017,
				"element": "H" 
			},
			{
				"x": -1.3846210736,
				"y": 3.0522834951,
				"z": -0.616372772,
				"element": "H" 
			},
			{
				"x": 0.9669886206,
				"y": 0.9901212205,
				"z": 1.928207064,
				"element": "H" 
			},
			{
				"x": -0.4794109611,
				"y": 1.8212615999,
				"z": 1.3962953194,
				"element": "H" 
			},
			{
				"x": -0.53230247,
				"y": -1.427611899,
				"z": -0.3569336877,
				"element": "H" 
			},
			{
				"x": -2.0331494814,
				"y": -3.3039328034,
				"z": 0.7349994467,
				"element": "H" 
			},
			{
				"x": -2.7103227639,
				"y": -2.6821579169,
				"z": 3.2082623405,
				"element": "H" 
			}
		],
		 "valence_orbital": [ 
			{
				"type": "occ",
				"energy": -0.26281,
				"method": "rhf"
			},
			{
				"type": "occ",
				"energy": -0.26018,
				"method": "rhf"
			},
			{
				"type": "occ",
				"energy": -0.24432,
				"method": "rhf"
			},
			{
				"type": "occ",
				"energy": -0.2423,
				"method": "rhf"
			},
			{
				"type": "occ",
				"energy": -0.21429,
				"method": "rhf"
			},
			{
				"type": "unocc",
				"energy": -0.02526,
				"method": "rhf"
			},
			{
				"type": "unocc",
				"energy": -0.01134,
				"method": "rhf"
			},
			{
				"type": "unocc",
				"energy": 0.01556,
				"method": "rhf"
			},
			{
				"type": "unocc",
				"energy": 0.03498,
				"method": "rhf"
			},
			{
				"type": "unocc",
				"energy": 0.05581,
				"method": "rhf"
			}
		],
		"cosmo_sigma_profile": { 
			"-0.025": 0.0,
			"-0.024": 0.0,
			"-0.023": 0.0,
			"-0.022": 0.0,
			"-0.021": 0.0,
			"-0.02": 0.0,
			"-0.019": 0.0,
			"-0.018": 0.0,
			"-0.017": 0.217040238905,
			"-0.016": 0.477171892732,
			"-0.015": 0.77013316843,
			"-0.014": 1.18811221584,
			"-0.013": 0.970456476333,
			"-0.012": 0.639808599321,
			"-0.011": 0.840815509848,
			"-0.01": 1.03113452768,
			"-0.009": 1.25092173392,
			"-0.008": 3.40142588567,
			"-0.007": 10.685808373,
			"-0.006": 15.5293562723,
			"-0.005": 18.8609723656,
			"-0.004": 20.3108854884,
			"-0.003": 21.7941233791,
			"-0.002": 20.6522180717,
			"-0.001": 23.8525336531,
			"0.0": 19.9208052173,
			"0.001": 14.9116746637,
			"0.002": 13.5159895882,
			"0.003": 14.2420563406,
			"0.004": 16.545399365,
			"0.005": 13.4353187173,
			"0.006": 8.0252026859,
			"0.007": 3.01699465775,
			"0.008": 2.89151226812,
			"0.009": 2.92047213885,
			"0.01": 3.45712457381,
			"0.011": 5.08384015449,
			"0.012": 5.75427162209,
			"0.013": 5.13686344325,
			"0.014": 1.75745422957,
			"0.015": 0.0407455350934,
			"0.016": 0.0,
			"0.017": 0.0,
			"0.018": 0.0,
			"0.019": 0.0,
			"0.02": 0.0,
			"0.021": 0.0,
			"0.022": 0.0,
			"0.023": 0.0,
			"0.024": 0.0,
			"0.025": 0.0
		}
	}
}
