{
	 "smiles": "CC1=NC=NC(N)=C1", 
	 "Tm": 460.15, 
	 "num_atms": 15, 
	 "gaussian": { 
		 "optdone": 1, 
		 "sigma_profile": "yes", 
		 "theory": "DFT", 
		 "functional": "B3LYP", 
		 "basiset": "6-31G**", 
		 "properties": { 
			 "R2extent": 1230.4432, 
			 "electric_dipole_moment_norm": 3.46606040051, 
			 "electric_quadrupole_moment_norm": 10.1674367001, 
			 "total_energy": -359.020702435, 
			 "HOMO_LUMO_gap": 0.2195, 
			 "cosmo_polarized_energy": -11.44, 
			 "cosmo_cavitation_energy": 18.87, 
			 "cosmo_dispersion_energy": -14.35, 
			 "cosmo_repulsion_energy": 1.2, 
			 "cosmo_total_nonelectrostatic_energy": 5.72, 
			 "SMD_solvation_energy": 0.71 
		},
		"coords": [
			{
				"x": -1.8445632289,
				"y": 1.7463193158,
				"z": 1.0434781029,
				"element": "C" 
			},
			{
				"x": -1.189836092,
				"y": 0.4242330411,
				"z": 0.7440754781,
				"element": "C" 
			},
			{
				"x": 0.0968812675,
				"y": 0.2894798763,
				"z": 1.1386930296,
				"element": "N" 
			},
			{
				"x": 0.6633651886,
				"y": -0.8849266002,
				"z": 0.8684214323,
				"element": "C" 
			},
			{
				"x": 0.1198052573,
				"y": -1.9431138255,
				"z": 0.2613771531,
				"element": "N" 
			},
			{
				"x": -1.1580541487,
				"y": -1.7996019631,
				"z": -0.1312892612,
				"element": "C" 
			},
			{
				"x": -1.7170992162,
				"y": -2.8600717995,
				"z": -0.7919691579,
				"element": "N" 
			},
			{
				"x": -1.865400064,
				"y": -0.6019755536,
				"z": 0.0984852592,
				"element": "C" 
			},
			{
				"x": -1.2885812442,
				"y": 2.5566844059,
				"z": 0.560885813,
				"element": "H" 
			},
			{
				"x": -1.8183643996,
				"y": 1.9415922103,
				"z": 2.1204262566,
				"element": "H" 
			},
			{
				"x": -2.8824669343,
				"y": 1.7769808874,
				"z": 0.7023584034,
				"element": "H" 
			},
			{
				"x": 1.699550368,
				"y": -1.0036601535,
				"z": 1.1839050431,
				"element": "H" 
			},
			{
				"x": -2.7200880609,
				"y": -2.9244837107,
				"z": -0.8599362369,
				"element": "H" 
			},
			{
				"x": -1.2039539175,
				"y": -3.7276030092,
				"z": -0.7415256689,
				"element": "H" 
			},
			{
				"x": -2.896494775,
				"y": -0.4864531213,
				"z": -0.2214856465,
				"element": "H" 
			}
		],
		 "valence_orbital": [ 
			{
				"type": "occ",
				"energy": -0.33754,
				"method": "rhf"
			},
			{
				"type": "occ",
				"energy": -0.28531,
				"method": "rhf"
			},
			{
				"type": "occ",
				"energy": -0.27504,
				"method": "rhf"
			},
			{
				"type": "occ",
				"energy": -0.24263,
				"method": "rhf"
			},
			{
				"type": "occ",
				"energy": -0.23275,
				"method": "rhf"
			},
			{
				"type": "unocc",
				"energy": -0.01325,
				"method": "rhf"
			},
			{
				"type": "unocc",
				"energy": -0.00174,
				"method": "rhf"
			},
			{
				"type": "unocc",
				"energy": 0.07857,
				"method": "rhf"
			},
			{
				"type": "unocc",
				"energy": 0.1107,
				"method": "rhf"
			},
			{
				"type": "unocc",
				"energy": 0.1268,
				"method": "rhf"
			}
		],
		"cosmo_sigma_profile": { 
			"-0.025": 0.0,
			"-0.024": 0.0,
			"-0.023": 0.0,
			"-0.022": 0.0,
			"-0.021": 0.0,
			"-0.02": 0.0,
			"-0.019": 0.0,
			"-0.018": 0.0,
			"-0.017": 0.0,
			"-0.016": 0.0,
			"-0.015": 0.0685067970379,
			"-0.014": 1.30333070005,
			"-0.013": 2.01879713712,
			"-0.012": 2.27285806878,
			"-0.011": 3.0352729569,
			"-0.01": 2.5843078032,
			"-0.009": 1.98857236763,
			"-0.008": 2.61260318244,
			"-0.007": 3.63450245205,
			"-0.006": 4.9492844793,
			"-0.005": 8.04625438958,
			"-0.004": 8.76609302174,
			"-0.003": 9.76680616315,
			"-0.002": 8.84445060864,
			"-0.001": 10.8366968811,
			"0.0": 13.684995458,
			"0.001": 12.8878053404,
			"0.002": 10.0609944465,
			"0.003": 8.13368838641,
			"0.004": 4.07363977415,
			"0.005": 4.35434651966,
			"0.006": 3.0335922999,
			"0.007": 3.78928870164,
			"0.008": 4.04068893843,
			"0.009": 2.82603713044,
			"0.01": 2.17944175124,
			"0.011": 1.32838328655,
			"0.012": 1.75429197607,
			"0.013": 1.59312727435,
			"0.014": 1.82711231783,
			"0.015": 1.94771318419,
			"0.016": 0.828920227014,
			"0.017": 0.663095799942,
			"0.018": 0.0272031065316,
			"0.019": 0.0,
			"0.02": 0.0,
			"0.021": 0.0,
			"0.022": 0.0,
			"0.023": 0.0,
			"0.024": 0.0,
			"0.025": 0.0
		}
	}
}
