{
	 "smiles": "CC1=CC=C(C=C1)C1C(C#N)=C2SC3=C(C=CC=C3)N2C(N)=C1C#N", 
	 "Tm": 474.15, 
	 "num_atms": 39, 
	 "gaussian": { 
		 "optdone": 1, 
		 "sigma_profile": "yes", 
		 "theory": "DFT", 
		 "functional": "B3LYP", 
		 "basiset": "6-31G**", 
		 "properties": { 
			 "R2extent": 9622.2672, 
			 "electric_dipole_moment_norm": 7.12249525728, 
			 "electric_quadrupole_moment_norm": 30.3595159009, 
			 "total_energy": -1387.71834486, 
			 "HOMO_LUMO_gap": 0.15481, 
			 "cosmo_polarized_energy": -22.77, 
			 "cosmo_cavitation_energy": 45.91, 
			 "cosmo_dispersion_energy": -31.09, 
			 "cosmo_repulsion_energy": 2.31, 
			 "cosmo_total_nonelectrostatic_energy": 17.14, 
			 "SMD_solvation_energy": 9.58 
		},
		"coords": [
			{
				"x": -4.1203434927,
				"y": 2.0770453257,
				"z": -3.1061180788,
				"element": "C" 
			},
			{
				"x": -2.7916775393,
				"y": 1.5178138026,
				"z": -2.6554183517,
				"element": "C" 
			},
			{
				"x": -2.5672570609,
				"y": 1.1841723903,
				"z": -1.3122813866,
				"element": "C" 
			},
			{
				"x": -1.3335456105,
				"y": 0.6974989015,
				"z": -0.8859904686,
				"element": "C" 
			},
			{
				"x": -0.2807254955,
				"y": 0.526970793,
				"z": -1.7928572882,
				"element": "C" 
			},
			{
				"x": -0.4995463342,
				"y": 0.8571601845,
				"z": -3.1344004263,
				"element": "C" 
			},
			{
				"x": -1.736471658,
				"y": 1.3422594551,
				"z": -3.5585217669,
				"element": "C" 
			},
			{
				"x": 1.0720753771,
				"y": -0.0458431694,
				"z": -1.3622973823,
				"element": "C" 
			},
			{
				"x": 1.0479942189,
				"y": -1.5730737499,
				"z": -1.2740057431,
				"element": "C" 
			},
			{
				"x": 1.0653308788,
				"y": -2.3349255082,
				"z": -2.4698986314,
				"element": "C" 
			},
			{
				"x": 1.0865380834,
				"y": -2.9478201371,
				"z": -3.4622104274,
				"element": "N" 
			},
			{
				"x": 0.9558983905,
				"y": -2.1980685533,
				"z": -0.0731844715,
				"element": "C" 
			},
			{
				"x": 0.783330858,
				"y": -3.937670988,
				"z": 0.1880646244,
				"element": "S" 
			},
			{
				"x": 0.5745469648,
				"y": -3.6694418223,
				"z": 1.9246635299,
				"element": "C" 
			},
			{
				"x": 0.6927245484,
				"y": -2.3120587878,
				"z": 2.2720913284,
				"element": "C" 
			},
			{
				"x": 0.4463452554,
				"y": -1.9111384539,
				"z": 3.5893312675,
				"element": "C" 
			},
			{
				"x": 0.1475385012,
				"y": -2.887513603,
				"z": 4.5438207192,
				"element": "C" 
			},
			{
				"x": 0.0751324565,
				"y": -4.23853417,
				"z": 4.2010288936,
				"element": "C" 
			},
			{
				"x": 0.2774583988,
				"y": -4.6375715021,
				"z": 2.8777747569,
				"element": "C" 
			},
			{
				"x": 1.0057565032,
				"y": -1.5058390984,
				"z": 1.1480905232,
				"element": "N" 
			},
			{
				"x": 1.5109817115,
				"y": -0.1968674644,
				"z": 1.1408412007,
				"element": "C" 
			},
			{
				"x": 1.8974581865,
				"y": 0.3224800272,
				"z": 2.3625641534,
				"element": "N" 
			},
			{
				"x": 1.5988857653,
				"y": 0.4909491736,
				"z": -0.0396730437,
				"element": "C" 
			},
			{
				"x": 2.2281990144,
				"y": 1.7622113617,
				"z": -0.0160177889,
				"element": "C" 
			},
			{
				"x": 2.7555721122,
				"y": 2.8024718249,
				"z": 0.036573493,
				"element": "N" 
			},
			{
				"x": -4.947796071,
				"y": 1.665118009,
				"z": -2.520196145,
				"element": "H" 
			},
			{
				"x": -4.3096442638,
				"y": 1.8576606816,
				"z": -4.1610202287,
				"element": "H" 
			},
			{
				"x": -4.1512620417,
				"y": 3.1677090651,
				"z": -2.989226139,
				"element": "H" 
			},
			{
				"x": -3.3705482504,
				"y": 1.3089841622,
				"z": -0.5899677658,
				"element": "H" 
			},
			{
				"x": -1.1895024339,
				"y": 0.4551844105,
				"z": 0.1632191558,
				"element": "H" 
			},
			{
				"x": 0.3025611494,
				"y": 0.7290823916,
				"z": -3.8571932332,
				"element": "H" 
			},
			{
				"x": -1.881852091,
				"y": 1.5901008825,
				"z": -4.6070420406,
				"element": "H" 
			},
			{
				"x": 1.7950881468,
				"y": 0.2270337886,
				"z": -2.1397298451,
				"element": "H" 
			},
			{
				"x": 0.4638871388,
				"y": -0.8644830917,
				"z": 3.8608426816,
				"element": "H" 
			},
			{
				"x": -0.0414271603,
				"y": -2.5779991401,
				"z": 5.5668569353,
				"element": "H" 
			},
			{
				"x": -0.1569214083,
				"y": -4.9820697524,
				"z": 4.9565519501,
				"element": "H" 
			},
			{
				"x": 0.1925795903,
				"y": -5.6812411935,
				"z": 2.5928104887,
				"element": "H" 
			},
			{
				"x": 2.4319771693,
				"y": -0.3067261015,
				"z": 2.9500646542,
				"element": "H" 
			},
			{
				"x": 2.3262604919,
				"y": 1.2376796561,
				"z": 2.2838602969,
				"element": "H" 
			}
		],
		 "valence_orbital": [ 
			{
				"type": "occ",
				"energy": -0.27054,
				"method": "rhf"
			},
			{
				"type": "occ",
				"energy": -0.25036,
				"method": "rhf"
			},
			{
				"type": "occ",
				"energy": -0.24475,
				"method": "rhf"
			},
			{
				"type": "occ",
				"energy": -0.23186,
				"method": "rhf"
			},
			{
				"type": "occ",
				"energy": -0.21016,
				"method": "rhf"
			},
			{
				"type": "unocc",
				"energy": -0.05535,
				"method": "rhf"
			},
			{
				"type": "unocc",
				"energy": -0.03997,
				"method": "rhf"
			},
			{
				"type": "unocc",
				"energy": -0.03288,
				"method": "rhf"
			},
			{
				"type": "unocc",
				"energy": -0.01831,
				"method": "rhf"
			},
			{
				"type": "unocc",
				"energy": -0.00348,
				"method": "rhf"
			}
		],
		"cosmo_sigma_profile": { 
			"-0.025": 0.0,
			"-0.024": 0.0,
			"-0.023": 0.0,
			"-0.022": 0.0,
			"-0.021": 0.0,
			"-0.02": 0.0,
			"-0.019": 0.0,
			"-0.018": 0.0,
			"-0.017": 0.0,
			"-0.016": 0.0,
			"-0.015": 0.168855262649,
			"-0.014": 1.88561935791,
			"-0.013": 2.52503785925,
			"-0.012": 2.91536848645,
			"-0.011": 1.90616527806,
			"-0.01": 2.17669007242,
			"-0.009": 2.41305909422,
			"-0.008": 4.77754012654,
			"-0.007": 10.5707087159,
			"-0.006": 16.5290632086,
			"-0.005": 23.284717259,
			"-0.004": 29.6973268366,
			"-0.003": 24.7681836055,
			"-0.002": 25.542312846,
			"-0.001": 30.7161330024,
			"0.0": 35.624073932,
			"0.001": 25.8293851384,
			"0.002": 25.623209509,
			"0.003": 23.1711040108,
			"0.004": 18.8462609217,
			"0.005": 12.3799894739,
			"0.006": 10.4913053774,
			"0.007": 4.59844224812,
			"0.008": 5.349211282,
			"0.009": 6.30743330966,
			"0.01": 6.04508335312,
			"0.011": 6.2656651206,
			"0.012": 5.79657284645,
			"0.013": 4.46013093824,
			"0.014": 1.56970679424,
			"0.015": 0.0,
			"0.016": 0.0,
			"0.017": 0.0,
			"0.018": 0.0,
			"0.019": 0.0,
			"0.02": 0.0,
			"0.021": 0.0,
			"0.022": 0.0,
			"0.023": 0.0,
			"0.024": 0.0,
			"0.025": 0.0
		}
	}
}
