{
	 "smiles": "OC1=C(O)C(Br)=CC(C=O)=C1", 
	 "Tm": 493.15, 
	 "num_atms": 16, 
	 "gaussian": { 
		 "optdone": 1, 
		 "sigma_profile": "yes", 
		 "theory": "DFT", 
		 "functional": "B3LYP", 
		 "basiset": "6-31G**", 
		 "properties": { 
			 "R2extent": 3673.4611, 
			 "electric_dipole_moment_norm": 3.52209999006, 
			 "electric_quadrupole_moment_norm": 5.78305276476, 
			 "total_energy": -3066.82028581, 
			 "HOMO_LUMO_gap": 0.17121, 
			 "cosmo_polarized_energy": -11.1, 
			 "cosmo_cavitation_energy": 23.24, 
			 "cosmo_dispersion_energy": -17.79, 
			 "cosmo_repulsion_energy": 1.42, 
			 "cosmo_total_nonelectrostatic_energy": 6.86, 
			 "SMD_solvation_energy": 4.64 
		},
		"coords": [
			{
				"x": -3.4472737474,
				"y": -2.1240236027,
				"z": 1.3631401384,
				"element": "O" 
			},
			{
				"x": -2.3171481687,
				"y": -1.4002081444,
				"z": 1.1545993208,
				"element": "C" 
			},
			{
				"x": -1.1334362972,
				"y": -1.7269462737,
				"z": 1.8463754335,
				"element": "C" 
			},
			{
				"x": -1.2199021916,
				"y": -2.7806166252,
				"z": 2.699959517,
				"element": "O" 
			},
			{
				"x": 0.0233894786,
				"y": -0.9722887665,
				"z": 1.6213210836,
				"element": "C" 
			},
			{
				"x": 1.6018140214,
				"y": -1.4637622318,
				"z": 2.590647235,
				"element": "Br" 
			},
			{
				"x": 0.0331769777,
				"y": 0.0913948718,
				"z": 0.7323502832,
				"element": "C" 
			},
			{
				"x": -1.1487760129,
				"y": 0.4082116843,
				"z": 0.0495431297,
				"element": "C" 
			},
			{
				"x": -1.1593751183,
				"y": 1.539380311,
				"z": -0.9032413973,
				"element": "C" 
			},
			{
				"x": -0.197775708,
				"y": 2.2414632358,
				"z": -1.1527747302,
				"element": "O" 
			},
			{
				"x": -2.3183930589,
				"y": -0.3359710549,
				"z": 0.2612845002,
				"element": "C" 
			},
			{
				"x": -3.2467501556,
				"y": -2.8144755159,
				"z": 2.0131552669,
				"element": "H" 
			},
			{
				"x": -0.3557679467,
				"y": -2.9198408763,
				"z": 3.1217909948,
				"element": "H" 
			},
			{
				"x": 0.9251783018,
				"y": 0.6797174958,
				"z": 0.5534827613,
				"element": "H" 
			},
			{
				"x": -2.1405591557,
				"y": 1.715836868,
				"z": -1.3970918184,
				"element": "H" 
			},
			{
				"x": -3.2370012185,
				"y": -0.0946713751,
				"z": -0.2652417188,
				"element": "H" 
			}
		],
		 "valence_orbital": [ 
			{
				"type": "occ",
				"energy": -0.31896,
				"method": "rhf"
			},
			{
				"type": "occ",
				"energy": -0.31874,
				"method": "rhf"
			},
			{
				"type": "occ",
				"energy": -0.25846,
				"method": "rhf"
			},
			{
				"type": "occ",
				"energy": -0.25622,
				"method": "rhf"
			},
			{
				"type": "occ",
				"energy": -0.23478,
				"method": "rhf"
			},
			{
				"type": "unocc",
				"energy": -0.06357,
				"method": "rhf"
			},
			{
				"type": "unocc",
				"energy": -0.02025,
				"method": "rhf"
			},
			{
				"type": "unocc",
				"energy": -0.01634,
				"method": "rhf"
			},
			{
				"type": "unocc",
				"energy": 0.04273,
				"method": "rhf"
			},
			{
				"type": "unocc",
				"energy": 0.05154,
				"method": "rhf"
			}
		],
		"cosmo_sigma_profile": { 
			"-0.025": 0.0,
			"-0.024": 0.0,
			"-0.023": 0.0,
			"-0.022": 0.0,
			"-0.021": 0.0,
			"-0.02": 0.0,
			"-0.019": 0.0,
			"-0.018": 0.0,
			"-0.017": 0.0,
			"-0.016": 0.340018984365,
			"-0.015": 1.45770103472,
			"-0.014": 1.38305448053,
			"-0.013": 1.13594178949,
			"-0.012": 1.31191216204,
			"-0.011": 1.48895532999,
			"-0.01": 1.59683967337,
			"-0.009": 1.33378797831,
			"-0.008": 4.38089784601,
			"-0.007": 7.27709217336,
			"-0.006": 7.63486326986,
			"-0.005": 8.14934386944,
			"-0.004": 9.14867588765,
			"-0.003": 10.4498436161,
			"-0.002": 9.74277067413,
			"-0.001": 14.923264953,
			"0.0": 17.4428403496,
			"0.001": 20.3445893896,
			"0.002": 20.2139203063,
			"0.003": 11.8398865767,
			"0.004": 7.30610281444,
			"0.005": 5.04205045987,
			"0.006": 3.17742676401,
			"0.007": 2.62081087681,
			"0.008": 3.25007332583,
			"0.009": 3.35621806655,
			"0.01": 4.68576216795,
			"0.011": 4.864378808,
			"0.012": 3.05603749559,
			"0.013": 0.821063220538,
			"0.014": 9.088526317e-07,
			"0.015": 0.0,
			"0.016": 0.0,
			"0.017": 0.0,
			"0.018": 0.0,
			"0.019": 0.0,
			"0.02": 0.0,
			"0.021": 0.0,
			"0.022": 0.0,
			"0.023": 0.0,
			"0.024": 0.0,
			"0.025": 0.0
		}
	}
}
