{
	 "smiles": "COC1=CC=C(C=C1)C1=CSC(=N1)C(=C/C1=CC=CO1)C#N", 
	 "Tm": 388.15, 
	 "num_atms": 34, 
	 "gaussian": { 
		 "optdone": 1, 
		 "sigma_profile": "yes", 
		 "theory": "DFT", 
		 "functional": "B3LYP", 
		 "basiset": "6-31G**", 
		 "properties": { 
			 "R2extent": 10585.1363, 
			 "electric_dipole_moment_norm": 6.35626244738, 
			 "electric_quadrupole_moment_norm": 41.1154241002, 
			 "total_energy": -1313.11038637, 
			 "HOMO_LUMO_gap": 0.11927, 
			 "cosmo_polarized_energy": -14.09, 
			 "cosmo_cavitation_energy": 42.05, 
			 "cosmo_dispersion_energy": -29.72, 
			 "cosmo_repulsion_energy": 2.18, 
			 "cosmo_total_nonelectrostatic_energy": 14.51, 
			 "SMD_solvation_energy": 9.34 
		},
		"coords": [
			{
				"x": 4.5037011294,
				"y": 3.8664119717,
				"z": -1.1616661874,
				"element": "C" 
			},
			{
				"x": 3.1273910085,
				"y": 3.5280728876,
				"z": -1.0861681668,
				"element": "O" 
			},
			{
				"x": 2.7610305419,
				"y": 2.4815182872,
				"z": -0.2935988694,
				"element": "C" 
			},
			{
				"x": 3.6485042981,
				"y": 1.6964841022,
				"z": 0.4531820028,
				"element": "C" 
			},
			{
				"x": 3.1564747026,
				"y": 0.6451177127,
				"z": 1.2273968031,
				"element": "C" 
			},
			{
				"x": 1.7877276344,
				"y": 0.3541461588,
				"z": 1.284224834,
				"element": "C" 
			},
			{
				"x": 0.9115477811,
				"y": 1.1521419952,
				"z": 0.5243431532,
				"element": "C" 
			},
			{
				"x": 1.3869235197,
				"y": 2.1982299516,
				"z": -0.251993814,
				"element": "C" 
			},
			{
				"x": 1.2657699614,
				"y": -0.7429953848,
				"z": 2.1194052515,
				"element": "C" 
			},
			{
				"x": 1.8578293028,
				"y": -1.2448732019,
				"z": 3.2565969284,
				"element": "C" 
			},
			{
				"x": 0.9088001422,
				"y": -2.5083404108,
				"z": 3.943435315,
				"element": "S" 
			},
			{
				"x": -0.262967881,
				"y": -2.2871032748,
				"z": 2.6356332295,
				"element": "C" 
			},
			{
				"x": 0.069570951,
				"y": -1.3446484338,
				"z": 1.7912413226,
				"element": "N" 
			},
			{
				"x": -1.4593668175,
				"y": -3.1236403992,
				"z": 2.5774438812,
				"element": "C" 
			},
			{
				"x": -2.408872849,
				"y": -3.2101893999,
				"z": 1.5873545723,
				"element": "C" 
			},
			{
				"x": -2.5544066429,
				"y": -2.5940463512,
				"z": 0.3106515594,
				"element": "C" 
			},
			{
				"x": -1.8726003197,
				"y": -1.7036565611,
				"z": -0.4992378739,
				"element": "C" 
			},
			{
				"x": -2.6211784126,
				"y": -1.5786578573,
				"z": -1.6982052518,
				"element": "C" 
			},
			{
				"x": -3.713880785,
				"y": -2.3903951471,
				"z": -1.5542021568,
				"element": "C" 
			},
			{
				"x": -3.69675178,
				"y": -3.011635645,
				"z": -0.3579504053,
				"element": "O" 
			},
			{
				"x": -1.6714568653,
				"y": -3.9774304411,
				"z": 3.7124139802,
				"element": "C" 
			},
			{
				"x": -1.833534559,
				"y": -4.6705912324,
				"z": 4.6341246757,
				"element": "N" 
			},
			{
				"x": 5.1016412267,
				"y": 3.0420887549,
				"z": -1.5711697695,
				"element": "H" 
			},
			{
				"x": 4.9058277351,
				"y": 4.1479629635,
				"z": -0.1799969838,
				"element": "H" 
			},
			{
				"x": 4.5667999688,
				"y": 4.7231591305,
				"z": -1.8341226143,
				"element": "H" 
			},
			{
				"x": 4.7153955606,
				"y": 1.8836135764,
				"z": 0.430166453,
				"element": "H" 
			},
			{
				"x": 3.8612256807,
				"y": 0.0284101998,
				"z": 1.7777928755,
				"element": "H" 
			},
			{
				"x": -0.1536181704,
				"y": 0.9504688048,
				"z": 0.5642190759,
				"element": "H" 
			},
			{
				"x": 0.713222522,
				"y": 2.8194693859,
				"z": -0.8331054214,
				"element": "H" 
			},
			{
				"x": 2.7671261049,
				"y": -0.9135361734,
				"z": 3.7363038393,
				"element": "H" 
			},
			{
				"x": -3.221033925,
				"y": -3.9020812383,
				"z": 1.7949192858,
				"element": "H" 
			},
			{
				"x": -0.9495227413,
				"y": -1.2203247566,
				"z": -0.2270480946,
				"element": "H" 
			},
			{
				"x": -2.3843301267,
				"y": -0.9658745207,
				"z": -2.5558244426,
				"element": "H" 
			},
			{
				"x": -4.5549878962,
				"y": -2.6161754536,
				"z": -2.1924589868,
				"element": "H" 
			}
		],
		 "valence_orbital": [ 
			{
				"type": "occ",
				"energy": -0.28384,
				"method": "rhf"
			},
			{
				"type": "occ",
				"energy": -0.27116,
				"method": "rhf"
			},
			{
				"type": "occ",
				"energy": -0.25865,
				"method": "rhf"
			},
			{
				"type": "occ",
				"energy": -0.22709,
				"method": "rhf"
			},
			{
				"type": "occ",
				"energy": -0.20537,
				"method": "rhf"
			},
			{
				"type": "unocc",
				"energy": -0.0861,
				"method": "rhf"
			},
			{
				"type": "unocc",
				"energy": -0.03121,
				"method": "rhf"
			},
			{
				"type": "unocc",
				"energy": -0.00951,
				"method": "rhf"
			},
			{
				"type": "unocc",
				"energy": -0.00031,
				"method": "rhf"
			},
			{
				"type": "unocc",
				"energy": 0.00775,
				"method": "rhf"
			}
		],
		"cosmo_sigma_profile": { 
			"-0.025": 0.0,
			"-0.024": 0.0,
			"-0.023": 0.0,
			"-0.022": 0.0,
			"-0.021": 0.0,
			"-0.02": 0.0,
			"-0.019": 0.0,
			"-0.018": 0.0,
			"-0.017": 0.0,
			"-0.016": 0.0,
			"-0.015": 0.0,
			"-0.014": 0.0,
			"-0.013": 0.0,
			"-0.012": 0.0,
			"-0.011": 0.0802336458172,
			"-0.01": 2.29506430454,
			"-0.009": 5.04971850423,
			"-0.008": 6.67852743517,
			"-0.007": 8.47910875258,
			"-0.006": 15.6395402295,
			"-0.005": 21.9238600773,
			"-0.004": 23.0976428825,
			"-0.003": 24.8191761034,
			"-0.002": 20.5700626312,
			"-0.001": 21.688760683,
			"0.0": 31.3846083526,
			"0.001": 32.5362606508,
			"0.002": 34.2999193218,
			"0.003": 28.4626396907,
			"0.004": 18.8483958692,
			"0.005": 15.7477170948,
			"0.006": 6.65701401398,
			"0.007": 4.09257823287,
			"0.008": 4.08999163546,
			"0.009": 4.94208327251,
			"0.01": 4.19152625025,
			"0.011": 3.11993760538,
			"0.012": 2.49234018211,
			"0.013": 1.24680007579,
			"0.014": 0.0109350365325,
			"0.015": 0.0,
			"0.016": 0.0,
			"0.017": 0.0,
			"0.018": 0.0,
			"0.019": 0.0,
			"0.02": 0.0,
			"0.021": 0.0,
			"0.022": 0.0,
			"0.023": 0.0,
			"0.024": 0.0,
			"0.025": 0.0
		}
	}
}
