{
	 "smiles": "CCN(CC)C1=CC=C(C=C1)N=C=S", 
	 "Tm": 305.15, 
	 "num_atms": 28, 
	 "gaussian": { 
		 "optdone": 1, 
		 "sigma_profile": "yes", 
		 "theory": "DFT", 
		 "functional": "B3LYP", 
		 "basiset": "6-31G**", 
		 "properties": { 
			 "R2extent": 6499.6545, 
			 "electric_dipole_moment_norm": 7.22741784941, 
			 "electric_quadrupole_moment_norm": 33.8102066298, 
			 "total_energy": -935.295069017, 
			 "HOMO_LUMO_gap": 0.16549, 
			 "cosmo_polarized_energy": -8.23, 
			 "cosmo_cavitation_energy": 33.24, 
			 "cosmo_dispersion_energy": -24.25, 
			 "cosmo_repulsion_energy": 1.88, 
			 "cosmo_total_nonelectrostatic_energy": 10.87, 
			 "SMD_solvation_energy": 5.35 
		},
		"coords": [
			{
				"x": -3.2458831715,
				"y": -1.233497572,
				"z": -1.2631846148,
				"element": "C" 
			},
			{
				"x": -1.7405431056,
				"y": -1.4286056092,
				"z": -1.0831521076,
				"element": "C" 
			},
			{
				"x": -1.05328823,
				"y": -0.3433945092,
				"z": -0.3723433135,
				"element": "N" 
			},
			{
				"x": -1.7651555434,
				"y": 0.3378061221,
				"z": 0.7115594109,
				"element": "C" 
			},
			{
				"x": -1.7119461084,
				"y": -0.3874422076,
				"z": 2.0634722228,
				"element": "C" 
			},
			{
				"x": 0.3409970307,
				"y": -0.3385036451,
				"z": -0.3797991145,
				"element": "C" 
			},
			{
				"x": 1.0859342838,
				"y": 0.6341673963,
				"z": 0.3342993545,
				"element": "C" 
			},
			{
				"x": 2.47060955,
				"y": 0.6751051744,
				"z": 0.2840678179,
				"element": "C" 
			},
			{
				"x": 3.1879021486,
				"y": -0.263137354,
				"z": -0.4749238042,
				"element": "C" 
			},
			{
				"x": 2.4745354513,
				"y": -1.2472463288,
				"z": -1.1724998614,
				"element": "C" 
			},
			{
				"x": 1.0873459824,
				"y": -1.2889043731,
				"z": -1.1197340582,
				"element": "C" 
			},
			{
				"x": 4.5596122694,
				"y": -0.2234615675,
				"z": -0.5226816945,
				"element": "N" 
			},
			{
				"x": 5.7437900916,
				"y": -0.1893533799,
				"z": -0.5639127759,
				"element": "C" 
			},
			{
				"x": 7.3413711511,
				"y": -0.1426467076,
				"z": -0.6196464482,
				"element": "S" 
			},
			{
				"x": -3.6215769969,
				"y": -2.0218525392,
				"z": -1.9224713504,
				"element": "H" 
			},
			{
				"x": -3.4713364639,
				"y": -0.2700443858,
				"z": -1.730839085,
				"element": "H" 
			},
			{
				"x": -3.8024079165,
				"y": -1.3048404923,
				"z": -0.3244841354,
				"element": "H" 
			},
			{
				"x": -1.5564069748,
				"y": -2.4019671652,
				"z": -0.5971937496,
				"element": "H" 
			},
			{
				"x": -1.2983105846,
				"y": -1.4931118297,
				"z": -2.0823481273,
				"element": "H" 
			},
			{
				"x": -1.3702994085,
				"y": 1.3525286235,
				"z": 0.8100562837,
				"element": "H" 
			},
			{
				"x": -2.8029166175,
				"y": 0.4681981906,
				"z": 0.402304736,
				"element": "H" 
			},
			{
				"x": -0.6802419731,
				"y": -0.5133569997,
				"z": 2.4043001206,
				"element": "H" 
			},
			{
				"x": -2.167842801,
				"y": -1.3807877788,
				"z": 1.9962399743,
				"element": "H" 
			},
			{
				"x": -2.2560559921,
				"y": 0.1816157344,
				"z": 2.8249163033,
				"element": "H" 
			},
			{
				"x": 0.5829832566,
				"y": 1.3799367195,
				"z": 0.9358474148,
				"element": "H" 
			},
			{
				"x": 3.010973162,
				"y": 1.4368138625,
				"z": 0.8365611138,
				"element": "H" 
			},
			{
				"x": 3.0169207419,
				"y": -1.9889803036,
				"z": -1.7496682018,
				"element": "H" 
			},
			{
				"x": 0.589536768,
				"y": -2.0844370749,
				"z": -1.6571423105,
				"element": "H" 
			}
		],
		 "valence_orbital": [ 
			{
				"type": "occ",
				"energy": -0.30101,
				"method": "rhf"
			},
			{
				"type": "occ",
				"energy": -0.26213,
				"method": "rhf"
			},
			{
				"type": "occ",
				"energy": -0.2452,
				"method": "rhf"
			},
			{
				"type": "occ",
				"energy": -0.23825,
				"method": "rhf"
			},
			{
				"type": "occ",
				"energy": -0.19223,
				"method": "rhf"
			},
			{
				"type": "unocc",
				"energy": -0.02674,
				"method": "rhf"
			},
			{
				"type": "unocc",
				"energy": -0.01148,
				"method": "rhf"
			},
			{
				"type": "unocc",
				"energy": 0.01832,
				"method": "rhf"
			},
			{
				"type": "unocc",
				"energy": 0.06206,
				"method": "rhf"
			},
			{
				"type": "unocc",
				"energy": 0.06516,
				"method": "rhf"
			}
		],
		"cosmo_sigma_profile": { 
			"-0.025": 0.0,
			"-0.024": 0.0,
			"-0.023": 0.0,
			"-0.022": 0.0,
			"-0.021": 0.0,
			"-0.02": 0.0,
			"-0.019": 0.0,
			"-0.018": 0.0,
			"-0.017": 0.0,
			"-0.016": 0.0,
			"-0.015": 0.0,
			"-0.014": 0.0,
			"-0.013": 0.0,
			"-0.012": 0.0,
			"-0.011": 0.0,
			"-0.01": 0.0,
			"-0.009": 0.0,
			"-0.008": 0.111212075627,
			"-0.007": 3.70045567964,
			"-0.006": 9.57005516252,
			"-0.005": 10.6405752306,
			"-0.004": 18.5033132838,
			"-0.003": 30.8187380577,
			"-0.002": 29.8418391235,
			"-0.001": 26.3596705224,
			"0.0": 32.6308794822,
			"0.001": 23.3821319352,
			"0.002": 14.3609510143,
			"0.003": 12.8208984682,
			"0.004": 16.8582049628,
			"0.005": 12.4264303836,
			"0.006": 10.9074244552,
			"0.007": 12.5027021871,
			"0.008": 1.70564866068,
			"0.009": 0.0144212687249,
			"0.01": 0.0,
			"0.011": 0.0,
			"0.012": 0.0,
			"0.013": 0.0,
			"0.014": 0.0,
			"0.015": 0.0,
			"0.016": 0.0,
			"0.017": 0.0,
			"0.018": 0.0,
			"0.019": 0.0,
			"0.02": 0.0,
			"0.021": 0.0,
			"0.022": 0.0,
			"0.023": 0.0,
			"0.024": 0.0,
			"0.025": 0.0
		}
	}
}
