{
	 "smiles": "ON=C1CCCSC1", 
	 "Tm": 377.15, 
	 "num_atms": 17, 
	 "gaussian": { 
		 "optdone": 1, 
		 "sigma_profile": "yes", 
		 "theory": "DFT", 
		 "functional": "B3LYP", 
		 "basiset": "6-31G**", 
		 "properties": { 
			 "R2extent": 1492.4424, 
			 "electric_dipole_moment_norm": 2.0438117746, 
			 "electric_quadrupole_moment_norm": 7.78263883076, 
			 "total_energy": -724.061979472, 
			 "HOMO_LUMO_gap": 0.21834, 
			 "cosmo_polarized_energy": -9.42, 
			 "cosmo_cavitation_energy": 20.79, 
			 "cosmo_dispersion_energy": -16.35, 
			 "cosmo_repulsion_energy": 1.32, 
			 "cosmo_total_nonelectrostatic_energy": 5.76, 
			 "SMD_solvation_energy": 2.66 
		},
		"coords": [
			{
				"x": -0.9133360248,
				"y": 1.5728425812,
				"z": 0.7346698046,
				"element": "O" 
			},
			{
				"x": 0.4385412684,
				"y": 1.1723485226,
				"z": 0.6795635353,
				"element": "N" 
			},
			{
				"x": 0.6204965515,
				"y": 0.290924739,
				"z": -0.2329891724,
				"element": "C" 
			},
			{
				"x": -0.4671846647,
				"y": -0.2659476746,
				"z": -1.122021352,
				"element": "C" 
			},
			{
				"x": 0.0098319425,
				"y": -1.4339409489,
				"z": -1.9968882583,
				"element": "C" 
			},
			{
				"x": 0.6229438736,
				"y": -2.5700381112,
				"z": -1.1739928742,
				"element": "C" 
			},
			{
				"x": 2.1250084681,
				"y": -2.0528388192,
				"z": -0.2146160808,
				"element": "S" 
			},
			{
				"x": 2.0231821635,
				"y": -0.2161195657,
				"z": -0.4029212961,
				"element": "C" 
			},
			{
				"x": -0.9046891887,
				"y": 2.2048302388,
				"z": 1.4652596998,
				"element": "H" 
			},
			{
				"x": -1.3012074212,
				"y": -0.582470899,
				"z": -0.4828065021,
				"element": "H" 
			},
			{
				"x": -0.8705092311,
				"y": 0.5450411437,
				"z": -1.7421085456,
				"element": "H" 
			},
			{
				"x": 0.7342059584,
				"y": -1.0848099798,
				"z": -2.7422939189,
				"element": "H" 
			},
			{
				"x": -0.8427202551,
				"y": -1.8323122289,
				"z": -2.5596064762,
				"element": "H" 
			},
			{
				"x": 0.9319634056,
				"y": -3.3943583057,
				"z": -1.8217732212,
				"element": "H" 
			},
			{
				"x": -0.1140208667,
				"y": -2.9561665688,
				"z": -0.462582987,
				"element": "H" 
			},
			{
				"x": 2.4213138026,
				"y": 0.0636230959,
				"z": -1.3839508379,
				"element": "H" 
			},
			{
				"x": 2.6696802181,
				"y": 0.2087927807,
				"z": 0.3665584832,
				"element": "H" 
			}
		],
		 "valence_orbital": [ 
			{
				"type": "occ",
				"energy": -0.34549,
				"method": "rhf"
			},
			{
				"type": "occ",
				"energy": -0.31008,
				"method": "rhf"
			},
			{
				"type": "occ",
				"energy": -0.2702,
				"method": "rhf"
			},
			{
				"type": "occ",
				"energy": -0.2453,
				"method": "rhf"
			},
			{
				"type": "occ",
				"energy": -0.21849,
				"method": "rhf"
			},
			{
				"type": "unocc",
				"energy": -0.00015,
				"method": "rhf"
			},
			{
				"type": "unocc",
				"energy": 0.04283,
				"method": "rhf"
			},
			{
				"type": "unocc",
				"energy": 0.06077,
				"method": "rhf"
			},
			{
				"type": "unocc",
				"energy": 0.07959,
				"method": "rhf"
			},
			{
				"type": "unocc",
				"energy": 0.09406,
				"method": "rhf"
			}
		],
		"cosmo_sigma_profile": { 
			"-0.025": 0.0,
			"-0.024": 0.0,
			"-0.023": 0.0,
			"-0.022": 0.0,
			"-0.021": 0.0,
			"-0.02": 0.0,
			"-0.019": 0.0,
			"-0.018": 0.0,
			"-0.017": 0.681741390354,
			"-0.016": 0.937674142013,
			"-0.015": 0.818600543857,
			"-0.014": 0.785660540965,
			"-0.013": 1.00492603363,
			"-0.012": 0.657833372398,
			"-0.011": 0.459399457883,
			"-0.01": 0.504018048837,
			"-0.009": 0.953630220519,
			"-0.008": 0.668627100174,
			"-0.007": 1.10895167124,
			"-0.006": 6.53203784624,
			"-0.005": 11.7802628311,
			"-0.004": 18.3345810053,
			"-0.003": 21.6676303632,
			"-0.002": 17.7532737452,
			"-0.001": 10.7783113908,
			"0.0": 4.21396551279,
			"0.001": 6.05703654828,
			"0.002": 5.23287062052,
			"0.003": 4.95359264722,
			"0.004": 5.79222314757,
			"0.005": 7.29564673574,
			"0.006": 8.0994183888,
			"0.007": 7.09093081825,
			"0.008": 4.79189148245,
			"0.009": 5.61926707987,
			"0.01": 5.10155619597,
			"0.011": 2.15031634513,
			"0.012": 1.40379463597,
			"0.013": 0.763509365815,
			"0.014": 0.260950662903,
			"0.015": 0.0,
			"0.016": 0.0,
			"0.017": 0.0,
			"0.018": 0.0,
			"0.019": 0.0,
			"0.02": 0.0,
			"0.021": 0.0,
			"0.022": 0.0,
			"0.023": 0.0,
			"0.024": 0.0,
			"0.025": 0.0
		}
	}
}
