{
	 "smiles": "CC1=CC(O)=CC(C)=C1I", 
	 "Tm": 402.65, 
	 "num_atms": 19, 
	 "gaussian": { 
		 "optdone": 1, 
		 "sigma_profile": "no", 
		 "theory": "DFT", 
		 "functional": "B3LYP", 
		 "basiset": "6-31G**", 
		 "properties": { 
			 "R2extent": 2145.8147, 
			 "electric_dipole_moment_norm": 2.06929196103, 
			 "electric_quadrupole_moment_norm": 10.333402055, 
			 "total_energy": -396.893620671, 
			 "HOMO_LUMO_gap": 0.18704, 
			 "cosmo_polarized_energy": -73977.92, 
			 "cosmo_cavitation_energy": 24.94, 
			 "cosmo_dispersion_energy": -19.72, 
			 "cosmo_repulsion_energy": 1.54, 
			 "cosmo_total_nonelectrostatic_energy": 6.76, 
			 "SMD_solvation_energy": 3.91 
		},
		"coords": [
			{
				"x": -2.6077737539,
				"y": -0.5201909977,
				"z": 1.7685899521,
				"element": "C" 
			},
			{
				"x": -1.7699293283,
				"y": -0.4557859569,
				"z": 0.515390479,
				"element": "C" 
			},
			{
				"x": -0.5120846604,
				"y": -1.0656463185,
				"z": 0.5121861319,
				"element": "C" 
			},
			{
				"x": 0.2997544591,
				"y": -1.0333919349,
				"z": -0.6217780052,
				"element": "C" 
			},
			{
				"x": 1.5140201586,
				"y": -1.6524880629,
				"z": -0.5444126277,
				"element": "O" 
			},
			{
				"x": -0.143721901,
				"y": -0.3843558553,
				"z": -1.7739053807,
				"element": "C" 
			},
			{
				"x": -1.3966926291,
				"y": 0.2403891935,
				"z": -1.8166776672,
				"element": "C" 
			},
			{
				"x": -1.8260002924,
				"y": 0.9278545,
				"z": -3.0893560767,
				"element": "C" 
			},
			{
				"x": -2.1935767836,
				"y": 0.1924287033,
				"z": -0.6605828551,
				"element": "C" 
			},
			{
				"x": -4.1111399409,
				"y": 1.1341759129,
				"z": -0.6890261722,
				"element": "I" 
			},
			{
				"x": -2.0831734389,
				"y": -1.0699780257,
				"z": 2.5536332363,
				"element": "H" 
			},
			{
				"x": -3.5660418482,
				"y": -1.0169772028,
				"z": 1.5831804969,
				"element": "H" 
			},
			{
				"x": -2.838605567,
				"y": 0.4814998129,
				"z": 2.1464553583,
				"element": "H" 
			},
			{
				"x": -0.1499619963,
				"y": -1.5752564727,
				"z": 1.3990228893,
				"element": "H" 
			},
			{
				"x": 1.9727483495,
				"y": -1.5575457466,
				"z": -1.3892043349,
				"element": "H" 
			},
			{
				"x": 0.4889146828,
				"y": -0.3586096738,
				"z": -2.6589721993,
				"element": "H" 
			},
			{
				"x": -2.7502435664,
				"y": 0.4940060784,
				"z": -3.4854215263,
				"element": "H" 
			},
			{
				"x": -2.0228284306,
				"y": 1.9920157413,
				"z": -2.9215953739,
				"element": "H" 
			},
			{
				"x": -1.051863513,
				"y": 0.8404563055,
				"z": -3.8559263245,
				"element": "H" 
			}
		],
		 "valence_orbital": [ 
			{
				"type": "occ",
				"energy": -0.33091,
				"method": "rhf"
			},
			{
				"type": "occ",
				"energy": -0.27489,
				"method": "rhf"
			},
			{
				"type": "occ",
				"energy": -0.25966,
				"method": "rhf"
			},
			{
				"type": "occ",
				"energy": -0.24719,
				"method": "rhf"
			},
			{
				"type": "occ",
				"energy": -0.21668,
				"method": "rhf"
			},
			{
				"type": "unocc",
				"energy": -0.02964,
				"method": "rhf"
			},
			{
				"type": "unocc",
				"energy": -0.00518,
				"method": "rhf"
			},
			{
				"type": "unocc",
				"energy": 0.00024,
				"method": "rhf"
			},
			{
				"type": "unocc",
				"energy": 0.04131,
				"method": "rhf"
			},
			{
				"type": "unocc",
				"energy": 0.04945,
				"method": "rhf"
			}
		],
		"cosmo_sigma_profile": { 
			"0.0": 0.0,
			"0.0": 0.0,
			"0.0": 0.0,
			"0.0": 0.0,
			"0.0": 0.0,
			"0.0": 0.0,
			"0.0": 0.0,
			"0.0": 0.0,
			"0.0": 0.0,
			"0.0": 0.0,
			"0.0": 0.0,
			"0.0": 0.0,
			"0.0": 0.0,
			"0.0": 0.0,
			"0.0": 0.0,
			"0.0": 0.0,
			"0.0": 0.0,
			"0.0": 0.0,
			"0.0": 0.0,
			"0.0": 0.0,
			"0.0": 0.0,
			"0.0": 0.0,
			"0.0": 0.0,
			"0.0": 0.0,
			"0.0": 0.0,
			"0.0": 0.0,
			"0.0": 0.0,
			"0.0": 0.0,
			"0.0": 0.0,
			"0.0": 0.0,
			"0.0": 0.0,
			"0.0": 0.0,
			"0.0": 0.0,
			"0.0": 0.0,
			"0.0": 0.0,
			"0.0": 0.0,
			"0.0": 0.0,
			"0.0": 0.0,
			"0.0": 0.0,
			"0.0": 0.0,
			"0.0": 0.0,
			"0.0": 0.0,
			"0.0": 0.0,
			"0.0": 0.0,
			"0.0": 0.0,
			"0.0": 0.0,
			"0.0": 0.0,
			"0.0": 0.0,
			"0.0": 0.0,
			"0.0": 0.0,
			"0.0": 0.0
		}
	}
}
