{
	 "smiles": "OC(=O)C1=CC=C(C(O)=O)C2=CC=CC=C12", 
	 "Tm": 596.15, 
	 "num_atms": 24, 
	 "gaussian": { 
		 "optdone": 1, 
		 "sigma_profile": "yes", 
		 "theory": "DFT", 
		 "functional": "B3LYP", 
		 "basiset": "6-31G**", 
		 "properties": { 
			 "R2extent": 3861.8954, 
			 "electric_dipole_moment_norm": 3.20329559048, 
			 "electric_quadrupole_moment_norm": 29.6653934835, 
			 "total_energy": -763.013026729, 
			 "HOMO_LUMO_gap": 0.15626, 
			 "cosmo_polarized_energy": -21.07, 
			 "cosmo_cavitation_energy": 28.63, 
			 "cosmo_dispersion_energy": -21.23, 
			 "cosmo_repulsion_energy": 1.62, 
			 "cosmo_total_nonelectrostatic_energy": 9.02, 
			 "SMD_solvation_energy": 6.8 
		},
		"coords": [
			{
				"x": 1.1589383134,
				"y": 1.3086356707,
				"z": -4.0813663618,
				"element": "O" 
			},
			{
				"x": 0.3735780026,
				"y": 1.9648635517,
				"z": -3.1854178991,
				"element": "C" 
			},
			{
				"x": -0.2387675947,
				"y": 2.9473502839,
				"z": -3.5262396328,
				"element": "O" 
			},
			{
				"x": 0.3725979691,
				"y": 1.4454074411,
				"z": -1.7708230766,
				"element": "C" 
			},
			{
				"x": 0.3691270947,
				"y": 2.4133766688,
				"z": -0.7862177312,
				"element": "C" 
			},
			{
				"x": 0.459636338,
				"y": 2.0590952235,
				"z": 0.571407046,
				"element": "C" 
			},
			{
				"x": 0.5266376874,
				"y": 0.732319279,
				"z": 0.9630275468,
				"element": "C" 
			},
			{
				"x": 0.6085542975,
				"y": 0.4226450101,
				"z": 2.4341853209,
				"element": "C" 
			},
			{
				"x": 1.357931703,
				"y": 1.2870065282,
				"z": 3.1697611315,
				"element": "O" 
			},
			{
				"x": 0.0489663445,
				"y": -0.4979665038,
				"z": 2.9815119314,
				"element": "O" 
			},
			{
				"x": 0.4566283273,
				"y": -0.3090470984,
				"z": -0.0226891345,
				"element": "C" 
			},
			{
				"x": 0.4705495177,
				"y": -1.6889183046,
				"z": 0.3239655554,
				"element": "C" 
			},
			{
				"x": 0.3843347602,
				"y": -2.6644984348,
				"z": -0.643351176,
				"element": "C" 
			},
			{
				"x": 0.2606917875,
				"y": -2.311537067,
				"z": -2.0040724521,
				"element": "C" 
			},
			{
				"x": 0.2543586092,
				"y": -0.9871124525,
				"z": -2.3803668174,
				"element": "C" 
			},
			{
				"x": 0.3761875379,
				"y": 0.054593504,
				"z": -1.4150758637,
				"element": "C" 
			},
			{
				"x": 1.667866505,
				"y": 0.6163706763,
				"z": -3.6343266475,
				"element": "H" 
			},
			{
				"x": 0.3116285461,
				"y": 3.4560055161,
				"z": -1.078936014,
				"element": "H" 
			},
			{
				"x": 0.4468817821,
				"y": 2.8477326801,
				"z": 1.3185911804,
				"element": "H" 
			},
			{
				"x": 1.852143382,
				"y": 1.8774166748,
				"z": 2.5835549096,
				"element": "H" 
			},
			{
				"x": 0.5186139583,
				"y": -1.9610310176,
				"z": 1.3696635054,
				"element": "H" 
			},
			{
				"x": 0.3905816191,
				"y": -3.7111044833,
				"z": -0.3547262357,
				"element": "H" 
			},
			{
				"x": 0.1570535199,
				"y": -3.0859568999,
				"z": -2.7581962806,
				"element": "H" 
			},
			{
				"x": 0.1149799924,
				"y": -0.7355464466,
				"z": -3.4257628046,
				"element": "H" 
			}
		],
		 "valence_orbital": [ 
			{
				"type": "occ",
				"energy": -0.31304,
				"method": "rhf"
			},
			{
				"type": "occ",
				"energy": -0.28466,
				"method": "rhf"
			},
			{
				"type": "occ",
				"energy": -0.28316,
				"method": "rhf"
			},
			{
				"type": "occ",
				"energy": -0.2744,
				"method": "rhf"
			},
			{
				"type": "occ",
				"energy": -0.24672,
				"method": "rhf"
			},
			{
				"type": "unocc",
				"energy": -0.09046,
				"method": "rhf"
			},
			{
				"type": "unocc",
				"energy": -0.04237,
				"method": "rhf"
			},
			{
				"type": "unocc",
				"energy": -0.02728,
				"method": "rhf"
			},
			{
				"type": "unocc",
				"energy": -0.00318,
				"method": "rhf"
			},
			{
				"type": "unocc",
				"energy": 0.04352,
				"method": "rhf"
			}
		],
		"cosmo_sigma_profile": { 
			"-0.025": 0.0,
			"-0.024": 0.0,
			"-0.023": 0.0,
			"-0.022": 0.0,
			"-0.021": 0.0,
			"-0.02": 0.0,
			"-0.019": 0.244021595821,
			"-0.018": 1.22810403279,
			"-0.017": 1.83408402956,
			"-0.016": 1.59309991276,
			"-0.015": 1.23760921914,
			"-0.014": 1.61234315627,
			"-0.013": 2.34312518213,
			"-0.012": 2.78886363007,
			"-0.011": 1.49120743932,
			"-0.01": 2.15471032324,
			"-0.009": 2.85205711752,
			"-0.008": 4.46143895094,
			"-0.007": 9.19553986876,
			"-0.006": 12.408311777,
			"-0.005": 13.6271166329,
			"-0.004": 12.579994901,
			"-0.003": 12.1745039478,
			"-0.002": 12.3315161638,
			"-0.001": 11.6948632161,
			"0.0": 15.2178723542,
			"0.001": 18.2519656679,
			"0.002": 12.9706864271,
			"0.003": 13.5075559327,
			"0.004": 7.61711331899,
			"0.005": 5.01575297298,
			"0.006": 4.5137552948,
			"0.007": 5.55893659632,
			"0.008": 5.31927639201,
			"0.009": 8.01707194201,
			"0.01": 10.1138442362,
			"0.011": 10.3282705917,
			"0.012": 5.50894519831,
			"0.013": 0.808052051839,
			"0.014": 0.0,
			"0.015": 0.0,
			"0.016": 0.0,
			"0.017": 0.0,
			"0.018": 0.0,
			"0.019": 0.0,
			"0.02": 0.0,
			"0.021": 0.0,
			"0.022": 0.0,
			"0.023": 0.0,
			"0.024": 0.0,
			"0.025": 0.0
		}
	}
}
