{
	 "smiles": "ClCCC(=O)NC1=CC(=CC=C1)C#N", 
	 "Tm": 372.15, 
	 "num_atms": 23, 
	 "gaussian": { 
		 "optdone": 1, 
		 "sigma_profile": "yes", 
		 "theory": "DFT", 
		 "functional": "B3LYP", 
		 "basiset": "6-31G**", 
		 "properties": { 
			 "R2extent": 4903.8123, 
			 "electric_dipole_moment_norm": 3.91470745012, 
			 "electric_quadrupole_moment_norm": 30.795818774, 
			 "total_energy": -1031.41161172, 
			 "HOMO_LUMO_gap": 0.19117, 
			 "cosmo_polarized_energy": -20.97, 
			 "cosmo_cavitation_energy": 30.56, 
			 "cosmo_dispersion_energy": -21.43, 
			 "cosmo_repulsion_energy": 1.71, 
			 "cosmo_total_nonelectrostatic_energy": 10.84, 
			 "SMD_solvation_energy": 6.65 
		},
		"coords": [
			{
				"x": 0.0180134579,
				"y": -0.0598459242,
				"z": 2.8678789623,
				"element": "Cl" 
			},
			{
				"x": 0.6149886044,
				"y": 1.5720552513,
				"z": 2.3548882275,
				"element": "C" 
			},
			{
				"x": 1.8789467904,
				"y": 1.4839119628,
				"z": 1.5030856711,
				"element": "C" 
			},
			{
				"x": 1.7678959516,
				"y": 0.6800617205,
				"z": 0.2034205829,
				"element": "C" 
			},
			{
				"x": 2.5353538511,
				"y": -0.234265905,
				"z": -0.0474097868,
				"element": "O" 
			},
			{
				"x": 0.7680482398,
				"y": 1.1059991221,
				"z": -0.6482244656,
				"element": "N" 
			},
			{
				"x": 0.4035422246,
				"y": 0.5891313622,
				"z": -1.907385923,
				"element": "C" 
			},
			{
				"x": -0.6540275667,
				"y": 1.2180908938,
				"z": -2.5763228443,
				"element": "C" 
			},
			{
				"x": -1.069644872,
				"y": 0.7572603252,
				"z": -3.8322039804,
				"element": "C" 
			},
			{
				"x": -0.4312643673,
				"y": -0.3398269131,
				"z": -4.4321439845,
				"element": "C" 
			},
			{
				"x": 0.6179910031,
				"y": -0.9563796567,
				"z": -3.7563506569,
				"element": "C" 
			},
			{
				"x": 1.044678441,
				"y": -0.5091052394,
				"z": -2.5058783417,
				"element": "C" 
			},
			{
				"x": -2.1537823651,
				"y": 1.4177374057,
				"z": -4.5008064778,
				"element": "C" 
			},
			{
				"x": -3.0320546696,
				"y": 1.9554723395,
				"z": -5.0416925584,
				"element": "N" 
			},
			{
				"x": 0.8122977228,
				"y": 2.1322076525,
				"z": 3.2698558802,
				"element": "H" 
			},
			{
				"x": -0.2175576198,
				"y": 2.0526952653,
				"z": 1.8358818965,
				"element": "H" 
			},
			{
				"x": 2.1888957507,
				"y": 2.5109505165,
				"z": 1.2616296687,
				"element": "H" 
			},
			{
				"x": 2.6853249395,
				"y": 1.0202045595,
				"z": 2.0733831475,
				"element": "H" 
			},
			{
				"x": 0.2120986276,
				"y": 1.889413392,
				"z": -0.3364428425,
				"element": "H" 
			},
			{
				"x": -1.1615504948,
				"y": 2.0677343955,
				"z": -2.1283875346,
				"element": "H" 
			},
			{
				"x": -0.758230436,
				"y": -0.6914000145,
				"z": -5.4041112237,
				"element": "H" 
			},
			{
				"x": 1.1201331259,
				"y": -1.8061209557,
				"z": -4.2083582761,
				"element": "H" 
			},
			{
				"x": 1.8606036607,
				"y": -0.9907815558,
				"z": -1.9868051405,
				"element": "H" 
			}
		],
		 "valence_orbital": [ 
			{
				"type": "occ",
				"energy": -0.31315,
				"method": "rhf"
			},
			{
				"type": "occ",
				"energy": -0.31121,
				"method": "rhf"
			},
			{
				"type": "occ",
				"energy": -0.2731,
				"method": "rhf"
			},
			{
				"type": "occ",
				"energy": -0.27114,
				"method": "rhf"
			},
			{
				"type": "occ",
				"energy": -0.24495,
				"method": "rhf"
			},
			{
				"type": "unocc",
				"energy": -0.05378,
				"method": "rhf"
			},
			{
				"type": "unocc",
				"energy": -0.03493,
				"method": "rhf"
			},
			{
				"type": "unocc",
				"energy": 0.00478,
				"method": "rhf"
			},
			{
				"type": "unocc",
				"energy": 0.01664,
				"method": "rhf"
			},
			{
				"type": "unocc",
				"energy": 0.03384,
				"method": "rhf"
			}
		],
		"cosmo_sigma_profile": { 
			"-0.025": 0.0,
			"-0.024": 0.0,
			"-0.023": 0.0,
			"-0.022": 0.0,
			"-0.021": 0.0,
			"-0.02": 0.0,
			"-0.019": 0.0,
			"-0.018": 0.0,
			"-0.017": 0.207750031371,
			"-0.016": 1.90603704381,
			"-0.015": 1.73877298812,
			"-0.014": 1.54503565224,
			"-0.013": 1.62558651392,
			"-0.012": 1.53297305667,
			"-0.011": 1.61898522914,
			"-0.01": 2.57265210019,
			"-0.009": 3.26412481237,
			"-0.008": 8.58877051524,
			"-0.007": 12.3103896539,
			"-0.006": 14.2159278366,
			"-0.005": 15.0314473684,
			"-0.004": 10.8780073164,
			"-0.003": 10.3158734615,
			"-0.002": 11.3475117921,
			"-0.001": 12.7384627319,
			"0.0": 14.699050055,
			"0.001": 18.7270060989,
			"0.002": 19.2118862613,
			"0.003": 16.2425666636,
			"0.004": 7.92882621977,
			"0.005": 11.5251873888,
			"0.006": 13.0753804995,
			"0.007": 6.29187474597,
			"0.008": 4.6310891378,
			"0.009": 5.23999774596,
			"0.01": 4.51015156428,
			"0.011": 5.32844071114,
			"0.012": 4.64100994273,
			"0.013": 3.66021796852,
			"0.014": 0.395228539024,
			"0.015": 0.0,
			"0.016": 0.0,
			"0.017": 0.0,
			"0.018": 0.0,
			"0.019": 0.0,
			"0.02": 0.0,
			"0.021": 0.0,
			"0.022": 0.0,
			"0.023": 0.0,
			"0.024": 0.0,
			"0.025": 0.0
		}
	}
}
