{
	 "smiles": "CCC(=O)NC1=CC(N)=C(C)C=C1", 
	 "Tm": 395.15, 
	 "num_atms": 27, 
	 "gaussian": { 
		 "optdone": 1, 
		 "sigma_profile": "yes", 
		 "theory": "DFT", 
		 "functional": "B3LYP", 
		 "basiset": "6-31G**", 
		 "properties": { 
			 "R2extent": 3580.4441, 
			 "electric_dipole_moment_norm": 4.70147638301, 
			 "electric_quadrupole_moment_norm": 11.9144907562, 
			 "total_energy": -574.259277835, 
			 "HOMO_LUMO_gap": 0.19897, 
			 "cosmo_polarized_energy": -14.83, 
			 "cosmo_cavitation_energy": 30.05, 
			 "cosmo_dispersion_energy": -21.43, 
			 "cosmo_repulsion_energy": 1.72, 
			 "cosmo_total_nonelectrostatic_energy": 10.34, 
			 "SMD_solvation_energy": 5.72 
		},
		"coords": [
			{
				"x": 2.7852909987,
				"y": 2.3224252657,
				"z": -0.6120017937,
				"element": "C" 
			},
			{
				"x": 2.2715236445,
				"y": 1.2032979535,
				"z": -1.5279206433,
				"element": "C" 
			},
			{
				"x": 1.3237689103,
				"y": 1.7457678728,
				"z": -2.5910853683,
				"element": "C" 
			},
			{
				"x": 1.6820160286,
				"y": 2.623787009,
				"z": -3.3666858104,
				"element": "O" 
			},
			{
				"x": 0.0623391754,
				"y": 1.196843723,
				"z": -2.7153880662,
				"element": "N" 
			},
			{
				"x": -0.642815092,
				"y": 0.2655483464,
				"z": -1.9098772674,
				"element": "C" 
			},
			{
				"x": -0.709932158,
				"y": 0.408213956,
				"z": -0.5205730383,
				"element": "C" 
			},
			{
				"x": -1.4271952742,
				"y": -0.5080075116,
				"z": 0.2638203122,
				"element": "C" 
			},
			{
				"x": -1.5180614683,
				"y": -0.320142948,
				"z": 1.6444085686,
				"element": "N" 
			},
			{
				"x": -2.1269498882,
				"y": -1.5691300187,
				"z": -0.3567282021,
				"element": "C" 
			},
			{
				"x": -2.9300119738,
				"y": -2.5406131219,
				"z": 0.4713123245,
				"element": "C" 
			},
			{
				"x": -2.0657652162,
				"y": -1.672738743,
				"z": -1.7476745742,
				"element": "C" 
			},
			{
				"x": -1.3320328733,
				"y": -0.7827535297,
				"z": -2.5301582125,
				"element": "C" 
			},
			{
				"x": 3.1946444651,
				"y": 3.1365839168,
				"z": -1.2147910793,
				"element": "H" 
			},
			{
				"x": 3.5683810321,
				"y": 1.9508193133,
				"z": 0.0556080693,
				"element": "H" 
			},
			{
				"x": 1.9813790893,
				"y": 2.7349757797,
				"z": 0.0080967491,
				"element": "H" 
			},
			{
				"x": 3.1163378781,
				"y": 0.7822743639,
				"z": -2.0860416961,
				"element": "H" 
			},
			{
				"x": 1.8252049508,
				"y": 0.3903144842,
				"z": -0.9527021226,
				"element": "H" 
			},
			{
				"x": -0.4121368075,
				"y": 1.5326777289,
				"z": -3.5452435546,
				"element": "H" 
			},
			{
				"x": -0.2274792509,
				"y": 1.2560855906,
				"z": -0.0431064418,
				"element": "H" 
			},
			{
				"x": -1.6825488479,
				"y": -1.1536501999,
				"z": 2.1905648208,
				"element": "H" 
			},
			{
				"x": -0.7948849959,
				"y": 0.2591704626,
				"z": 2.0474165019,
				"element": "H" 
			},
			{
				"x": -2.2998814522,
				"y": -3.1097180088,
				"z": 1.1703122905,
				"element": "H" 
			},
			{
				"x": -3.4409745905,
				"y": -3.2680791003,
				"z": -0.1642753372,
				"element": "H" 
			},
			{
				"x": -3.6910716876,
				"y": -2.0264596303,
				"z": 1.0718716292,
				"element": "H" 
			},
			{
				"x": -2.6021225963,
				"y": -2.484867679,
				"z": -2.2323603994,
				"element": "H" 
			},
			{
				"x": -1.2801219999,
				"y": -0.9028252754,
				"z": -3.6076976587,
				"element": "H" 
			}
		],
		 "valence_orbital": [ 
			{
				"type": "occ",
				"energy": -0.31755,
				"method": "rhf"
			},
			{
				"type": "occ",
				"energy": -0.27353,
				"method": "rhf"
			},
			{
				"type": "occ",
				"energy": -0.24199,
				"method": "rhf"
			},
			{
				"type": "occ",
				"energy": -0.22686,
				"method": "rhf"
			},
			{
				"type": "occ",
				"energy": -0.20459,
				"method": "rhf"
			},
			{
				"type": "unocc",
				"energy": -0.00562,
				"method": "rhf"
			},
			{
				"type": "unocc",
				"energy": 0.00683,
				"method": "rhf"
			},
			{
				"type": "unocc",
				"energy": 0.03723,
				"method": "rhf"
			},
			{
				"type": "unocc",
				"energy": 0.06944,
				"method": "rhf"
			},
			{
				"type": "unocc",
				"energy": 0.09117,
				"method": "rhf"
			}
		],
		"cosmo_sigma_profile": { 
			"-0.025": 0.0,
			"-0.024": 0.0,
			"-0.023": 0.0,
			"-0.022": 0.0,
			"-0.021": 0.0,
			"-0.02": 0.0,
			"-0.019": 0.0,
			"-0.018": 0.0,
			"-0.017": 0.0,
			"-0.016": 0.0,
			"-0.015": 0.0,
			"-0.014": 0.240219942179,
			"-0.013": 0.960370630593,
			"-0.012": 2.26266817797,
			"-0.011": 3.99326721523,
			"-0.01": 3.4410915451,
			"-0.009": 3.95794786983,
			"-0.008": 3.83256954035,
			"-0.007": 3.99921392846,
			"-0.006": 6.39292101456,
			"-0.005": 12.2541519113,
			"-0.004": 16.9560601193,
			"-0.003": 20.348005029,
			"-0.002": 21.5807076341,
			"-0.001": 21.367259039,
			"0.0": 21.9096745903,
			"0.001": 17.8775409943,
			"0.002": 10.5728899524,
			"0.003": 9.75534256256,
			"0.004": 8.05101312811,
			"0.005": 9.37489735437,
			"0.006": 9.93814598699,
			"0.007": 4.69975302209,
			"0.008": 1.87134266577,
			"0.009": 2.15585224217,
			"0.01": 2.9664489676,
			"0.011": 1.7178350882,
			"0.012": 2.13837028233,
			"0.013": 3.81011361154,
			"0.014": 6.22755814332,
			"0.015": 1.34059197994,
			"0.016": 0.0,
			"0.017": 0.0,
			"0.018": 0.0,
			"0.019": 0.0,
			"0.02": 0.0,
			"0.021": 0.0,
			"0.022": 0.0,
			"0.023": 0.0,
			"0.024": 0.0,
			"0.025": 0.0
		}
	}
}
