{
	 "smiles": "CCCCCCCCC1=CC=C(C=C1)N=NC1=CC=C(OC(=O)CC)C=C1", 
	 "Tm": 334.15, 
	 "num_atms": 57, 
	 "gaussian": { 
		 "optdone": 1, 
		 "sigma_profile": "yes", 
		 "theory": "DFT", 
		 "functional": "B3LYP", 
		 "basiset": "6-31G**", 
		 "properties": { 
			 "R2extent": 27430.536, 
			 "electric_dipole_moment_norm": 4.96195756834, 
			 "electric_quadrupole_moment_norm": 32.2445897623, 
			 "total_energy": -1154.47823777, 
			 "HOMO_LUMO_gap": 0.14032, 
			 "cosmo_polarized_energy": -12.93, 
			 "cosmo_cavitation_energy": 60.44, 
			 "cosmo_dispersion_energy": -41.52, 
			 "cosmo_repulsion_energy": 3.24, 
			 "cosmo_total_nonelectrostatic_energy": 22.16, 
			 "SMD_solvation_energy": 8.94 
		},
		"coords": [
			{
				"x": -3.001867822,
				"y": -5.8851880723,
				"z": 0.1152059451,
				"element": "C" 
			},
			{
				"x": -2.1452486778,
				"y": -6.7515807816,
				"z": 1.0459870454,
				"element": "C" 
			},
			{
				"x": -2.1530730983,
				"y": -6.300957848,
				"z": 2.5177339667,
				"element": "C" 
			},
			{
				"x": -1.5792307672,
				"y": -4.9006243821,
				"z": 2.7967880005,
				"element": "C" 
			},
			{
				"x": -0.0898986507,
				"y": -4.7403897908,
				"z": 2.4610807985,
				"element": "C" 
			},
			{
				"x": 0.4691468506,
				"y": -3.3627016252,
				"z": 2.8405920474,
				"element": "C" 
			},
			{
				"x": 1.9569891027,
				"y": -3.2013213574,
				"z": 2.5073708817,
				"element": "C" 
			},
			{
				"x": 2.5503599059,
				"y": -1.8274849299,
				"z": 2.8951521195,
				"element": "C" 
			},
			{
				"x": 1.9813072016,
				"y": -0.6655192393,
				"z": 2.1102300856,
				"element": "C" 
			},
			{
				"x": 1.0477503039,
				"y": 0.2127462371,
				"z": 2.6757752785,
				"element": "C" 
			},
			{
				"x": 0.5179975698,
				"y": 1.2673974743,
				"z": 1.9354128764,
				"element": "C" 
			},
			{
				"x": 0.913930043,
				"y": 1.4690293366,
				"z": 0.6072793486,
				"element": "C" 
			},
			{
				"x": 1.8532830506,
				"y": 0.5970142085,
				"z": 0.0268600706,
				"element": "C" 
			},
			{
				"x": 2.3728118388,
				"y": -0.4495022972,
				"z": 0.7743239335,
				"element": "C" 
			},
			{
				"x": 0.3160619343,
				"y": 2.5695860598,
				"z": -0.0496643457,
				"element": "N" 
			},
			{
				"x": 0.6874055602,
				"y": 2.7451449852,
				"z": -1.2426074221,
				"element": "N" 
			},
			{
				"x": 0.080938354,
				"y": 3.8475879944,
				"z": -1.893811902,
				"element": "C" 
			},
			{
				"x": -0.8800065628,
				"y": 4.6942421576,
				"z": -1.3121384544,
				"element": "C" 
			},
			{
				"x": -1.4106877192,
				"y": 5.7478152477,
				"z": -2.0442677346,
				"element": "C" 
			},
			{
				"x": -0.9801304169,
				"y": 5.965927076,
				"z": -3.3589577267,
				"element": "C" 
			},
			{
				"x": -1.5660823274,
				"y": 6.976090292,
				"z": -4.109011872,
				"element": "O" 
			},
			{
				"x": -1.0653478695,
				"y": 8.2643396563,
				"z": -4.1458105983,
				"element": "C" 
			},
			{
				"x": -1.6453743978,
				"y": 9.0737160479,
				"z": -4.8204937787,
				"element": "O" 
			},
			{
				"x": 0.1821375768,
				"y": 8.5495692584,
				"z": -3.3287308511,
				"element": "C" 
			},
			{
				"x": 0.6337967705,
				"y": 10.0029681398,
				"z": -3.4594286355,
				"element": "C" 
			},
			{
				"x": -0.0386017506,
				"y": 5.1256107273,
				"z": -3.9539554274,
				"element": "C" 
			},
			{
				"x": 0.4901070223,
				"y": 4.06958574,
				"z": -3.2159861124,
				"element": "C" 
			},
			{
				"x": -2.630191309,
				"y": -4.8568935892,
				"z": 0.0552377768,
				"element": "H" 
			},
			{
				"x": -4.0407578039,
				"y": -5.840269424,
				"z": 0.4627420298,
				"element": "H" 
			},
			{
				"x": -3.0099475432,
				"y": -6.2891556712,
				"z": -0.9025486204,
				"element": "H" 
			},
			{
				"x": -2.5077915732,
				"y": -7.7866633499,
				"z": 1.0028576266,
				"element": "H" 
			},
			{
				"x": -1.1143901439,
				"y": -6.7824003266,
				"z": 0.6705930763,
				"element": "H" 
			},
			{
				"x": -3.186879551,
				"y": -6.3354164318,
				"z": 2.888315142,
				"element": "H" 
			},
			{
				"x": -1.5936522414,
				"y": -7.0353032189,
				"z": 3.1136981206,
				"element": "H" 
			},
			{
				"x": -2.1567965759,
				"y": -4.1433554416,
				"z": 2.2500009958,
				"element": "H" 
			},
			{
				"x": -1.7265621691,
				"y": -4.6740323421,
				"z": 3.861639105,
				"element": "H" 
			},
			{
				"x": 0.4841595427,
				"y": -5.5225003233,
				"z": 2.9792480288,
				"element": "H" 
			},
			{
				"x": 0.0722803478,
				"y": -4.9068571855,
				"z": 1.3877959005,
				"element": "H" 
			},
			{
				"x": -0.1084813582,
				"y": -2.5822537915,
				"z": 2.3283672802,
				"element": "H" 
			},
			{
				"x": 0.3198109496,
				"y": -3.1945516064,
				"z": 3.9172007877,
				"element": "H" 
			},
			{
				"x": 2.111577788,
				"y": -3.3685261138,
				"z": 1.4328813452,
				"element": "H" 
			},
			{
				"x": 2.5311600892,
				"y": -3.9815774327,
				"z": 3.0245050652,
				"element": "H" 
			},
			{
				"x": 2.3909688435,
				"y": -1.6576161024,
				"z": 3.9669147969,
				"element": "H" 
			},
			{
				"x": 3.6364988696,
				"y": -1.8633139791,
				"z": 2.7433484839,
				"element": "H" 
			},
			{
				"x": 0.7360294459,
				"y": 0.0696014255,
				"z": 3.7069682045,
				"element": "H" 
			},
			{
				"x": -0.2051901606,
				"y": 1.9528552736,
				"z": 2.366123162,
				"element": "H" 
			},
			{
				"x": 2.1580722811,
				"y": 0.7645753808,
				"z": -0.9998279776,
				"element": "H" 
			},
			{
				"x": 3.1034884175,
				"y": -1.1166708601,
				"z": 0.3226362153,
				"element": "H" 
			},
			{
				"x": -1.1948781968,
				"y": 4.5026418382,
				"z": -0.2929546895,
				"element": "H" 
			},
			{
				"x": -2.1656974227,
				"y": 6.4025016265,
				"z": -1.6200958475,
				"element": "H" 
			},
			{
				"x": 0.9709105273,
				"y": 7.8572507231,
				"z": -3.6472802984,
				"element": "H" 
			},
			{
				"x": -0.0208495697,
				"y": 8.2886811542,
				"z": -2.2829435945,
				"element": "H" 
			},
			{
				"x": 0.8564245137,
				"y": 10.251511149,
				"z": -4.4999928774,
				"element": "H" 
			},
			{
				"x": -0.1475366752,
				"y": 10.6874972399,
				"z": -3.1202710105,
				"element": "H" 
			},
			{
				"x": 1.5323403071,
				"y": 10.1758980515,
				"z": -2.8602620432,
				"element": "H" 
			},
			{
				"x": 0.2580578133,
				"y": 5.2998586045,
				"z": -4.9830602663,
				"element": "H" 
			},
			{
				"x": 1.2242495328,
				"y": 3.3961844082,
				"z": -3.6462634549,
				"element": "H" 
			}
		],
		 "valence_orbital": [ 
			{
				"type": "occ",
				"energy": -0.27015,
				"method": "rhf"
			},
			{
				"type": "occ",
				"energy": -0.26481,
				"method": "rhf"
			},
			{
				"type": "occ",
				"energy": -0.25856,
				"method": "rhf"
			},
			{
				"type": "occ",
				"energy": -0.23032,
				"method": "rhf"
			},
			{
				"type": "occ",
				"energy": -0.22592,
				"method": "rhf"
			},
			{
				"type": "unocc",
				"energy": -0.0856,
				"method": "rhf"
			},
			{
				"type": "unocc",
				"energy": -0.0197,
				"method": "rhf"
			},
			{
				"type": "unocc",
				"energy": -0.0087,
				"method": "rhf"
			},
			{
				"type": "unocc",
				"energy": 0.00131,
				"method": "rhf"
			},
			{
				"type": "unocc",
				"energy": 0.00707,
				"method": "rhf"
			}
		],
		"cosmo_sigma_profile": { 
			"-0.025": 0.0,
			"-0.024": 0.0,
			"-0.023": 0.0,
			"-0.022": 0.0,
			"-0.021": 0.0,
			"-0.02": 0.0,
			"-0.019": 0.0,
			"-0.018": 0.0,
			"-0.017": 0.0,
			"-0.016": 0.0,
			"-0.015": 0.0,
			"-0.014": 0.0,
			"-0.013": 0.0,
			"-0.012": 0.0,
			"-0.011": 0.0,
			"-0.01": 0.0,
			"-0.009": 0.0,
			"-0.008": 1.33619989991,
			"-0.007": 7.82285025488,
			"-0.006": 15.753580593,
			"-0.005": 19.6586011587,
			"-0.004": 26.7276621786,
			"-0.003": 31.1984993635,
			"-0.002": 50.5842294811,
			"-0.001": 63.069081144,
			"0.0": 64.0335148733,
			"0.001": 63.9148376146,
			"0.002": 48.6150469559,
			"0.003": 24.6614979637,
			"0.004": 17.4112499025,
			"0.005": 7.47489057185,
			"0.006": 4.91194166465,
			"0.007": 6.27082109855,
			"0.008": 4.01236318658,
			"0.009": 3.76042136395,
			"0.01": 3.57461056814,
			"0.011": 5.56618359547,
			"0.012": 3.58464383502,
			"0.013": 0.485880969111,
			"0.014": 0.0,
			"0.015": 0.0,
			"0.016": 0.0,
			"0.017": 0.0,
			"0.018": 0.0,
			"0.019": 0.0,
			"0.02": 0.0,
			"0.021": 0.0,
			"0.022": 0.0,
			"0.023": 0.0,
			"0.024": 0.0,
			"0.025": 0.0
		}
	}
}
