{
	 "smiles": "NC1=C(O)C=C(C=C1)C(O)=O", 
	 "Tm": 486.15, 
	 "num_atms": 18, 
	 "gaussian": { 
		 "optdone": 1, 
		 "sigma_profile": "yes", 
		 "theory": "DFT", 
		 "functional": "B3LYP", 
		 "basiset": "6-31G**", 
		 "properties": { 
			 "R2extent": 2237.5221, 
			 "electric_dipole_moment_norm": 3.50557207029, 
			 "electric_quadrupole_moment_norm": 14.0604139139, 
			 "total_energy": -551.407309814, 
			 "HOMO_LUMO_gap": 0.17225, 
			 "cosmo_polarized_energy": -16.74, 
			 "cosmo_cavitation_energy": 22.69, 
			 "cosmo_dispersion_energy": -17.14, 
			 "cosmo_repulsion_energy": 1.38, 
			 "cosmo_total_nonelectrostatic_energy": 6.94, 
			 "SMD_solvation_energy": 5.38 
		},
		"coords": [
			{
				"x": -3.5499163867,
				"y": 0.097720142,
				"z": 1.5256161479,
				"element": "N" 
			},
			{
				"x": -2.1937816924,
				"y": -0.1416425025,
				"z": 1.418588932,
				"element": "C" 
			},
			{
				"x": -1.5220463329,
				"y": 0.2349639612,
				"z": 0.2298819907,
				"element": "C" 
			},
			{
				"x": -2.2998208101,
				"y": 0.8752137739,
				"z": -0.7069238464,
				"element": "O" 
			},
			{
				"x": -0.1743508561,
				"y": -0.0296029786,
				"z": 0.0606963023,
				"element": "C" 
			},
			{
				"x": 0.5540952031,
				"y": -0.6799869655,
				"z": 1.0744050842,
				"element": "C" 
			},
			{
				"x": -0.1006309264,
				"y": -1.0528283997,
				"z": 2.2540196604,
				"element": "C" 
			},
			{
				"x": -1.4541455374,
				"y": -0.7863636231,
				"z": 2.4224186049,
				"element": "C" 
			},
			{
				"x": 1.9915932201,
				"y": -0.9810766865,
				"z": 0.938560976,
				"element": "C" 
			},
			{
				"x": 2.5160862443,
				"y": -0.5713337539,
				"z": -0.2514635,
				"element": "O" 
			},
			{
				"x": 2.679609949,
				"y": -1.5359125868,
				"z": 1.7762709814,
				"element": "O" 
			},
			{
				"x": -3.9245288512,
				"y": 0.7826830331,
				"z": 0.8855915007,
				"element": "H" 
			},
			{
				"x": -3.9334256589,
				"y": 0.1350402964,
				"z": 2.4578801701,
				"element": "H" 
			},
			{
				"x": -1.7530543132,
				"y": 1.1081693805,
				"z": -1.4675795685,
				"element": "H" 
			},
			{
				"x": 0.3280122141,
				"y": 0.2683024087,
				"z": -0.8550049001,
				"element": "H" 
			},
			{
				"x": 0.4694796756,
				"y": -1.5512190824,
				"z": 3.0300372519,
				"element": "H" 
			},
			{
				"x": -1.9589276962,
				"y": -1.0813826851,
				"z": 3.3386015321,
				"element": "H" 
			},
			{
				"x": 3.4527525553,
				"y": -0.8240437316,
				"z": -0.2167973194,
				"element": "H" 
			}
		],
		 "valence_orbital": [ 
			{
				"type": "occ",
				"energy": -0.31773,
				"method": "rhf"
			},
			{
				"type": "occ",
				"energy": -0.30143,
				"method": "rhf"
			},
			{
				"type": "occ",
				"energy": -0.26391,
				"method": "rhf"
			},
			{
				"type": "occ",
				"energy": -0.24007,
				"method": "rhf"
			},
			{
				"type": "occ",
				"energy": -0.20198,
				"method": "rhf"
			},
			{
				"type": "unocc",
				"energy": -0.02973,
				"method": "rhf"
			},
			{
				"type": "unocc",
				"energy": 0.00741,
				"method": "rhf"
			},
			{
				"type": "unocc",
				"energy": 0.05929,
				"method": "rhf"
			},
			{
				"type": "unocc",
				"energy": 0.07726,
				"method": "rhf"
			},
			{
				"type": "unocc",
				"energy": 0.08642,
				"method": "rhf"
			}
		],
		"cosmo_sigma_profile": { 
			"-0.025": 0.0,
			"-0.024": 0.0,
			"-0.023": 0.0,
			"-0.022": 0.0,
			"-0.021": 0.0,
			"-0.02": 0.0,
			"-0.019": 0.0,
			"-0.018": 0.878157213677,
			"-0.017": 1.97140753957,
			"-0.016": 2.3419942005,
			"-0.015": 1.43199657467,
			"-0.014": 1.66767349541,
			"-0.013": 3.20213083697,
			"-0.012": 3.42479738564,
			"-0.011": 3.64213615964,
			"-0.01": 4.61030635524,
			"-0.009": 4.32489315743,
			"-0.008": 3.28505902382,
			"-0.007": 3.79313115702,
			"-0.006": 5.60786629424,
			"-0.005": 6.30893008855,
			"-0.004": 6.87808719268,
			"-0.003": 5.28808131606,
			"-0.002": 5.4166639456,
			"-0.001": 8.14693831197,
			"0.0": 7.92184407935,
			"0.001": 8.96825241485,
			"0.002": 13.3713277928,
			"0.003": 15.3133557225,
			"0.004": 15.3774318714,
			"0.005": 12.0340881954,
			"0.006": 6.48648701198,
			"0.007": 6.81209632272,
			"0.008": 4.53858723565,
			"0.009": 3.33524378004,
			"0.01": 2.73673603969,
			"0.011": 2.71235912412,
			"0.012": 5.42469479625,
			"0.013": 2.91235117359,
			"0.014": 0.0,
			"0.015": 0.0,
			"0.016": 0.0,
			"0.017": 0.0,
			"0.018": 0.0,
			"0.019": 0.0,
			"0.02": 0.0,
			"0.021": 0.0,
			"0.022": 0.0,
			"0.023": 0.0,
			"0.024": 0.0,
			"0.025": 0.0
		}
	}
}
