{
	 "smiles": "FCCCl", 
	 "Tm": 223.15, 
	 "num_atms": 8, 
	 "gaussian": { 
		 "optdone": 1, 
		 "sigma_profile": "yes", 
		 "theory": "DFT", 
		 "functional": "B3LYP", 
		 "basiset": "6-31G**", 
		 "properties": { 
			 "R2extent": 586.9707, 
			 "electric_dipole_moment_norm": 2.78465718357, 
			 "electric_quadrupole_moment_norm": 4.9133302708, 
			 "total_energy": -638.647705627, 
			 "HOMO_LUMO_gap": 0.31988, 
			 "cosmo_polarized_energy": -6.27, 
			 "cosmo_cavitation_energy": 13.39, 
			 "cosmo_dispersion_energy": -10.13, 
			 "cosmo_repulsion_energy": 0.93, 
			 "cosmo_total_nonelectrostatic_energy": 4.18, 
			 "SMD_solvation_energy": 2.72 
		},
		"coords": [
			{
				"x": -0.3633316011,
				"y": 0.6776513937,
				"z": -0.5530948398,
				"element": "F" 
			},
			{
				"x": -1.1428507771,
				"y": 0.1067586635,
				"z": 0.4355011894,
				"element": "C" 
			},
			{
				"x": -0.3681824964,
				"y": -0.9646016225,
				"z": 1.1719302452,
				"element": "C" 
			},
			{
				"x": 1.0100605035,
				"y": -0.2816918564,
				"z": 2.1245852082,
				"element": "Cl" 
			},
			{
				"x": -2.0209522064,
				"y": -0.3596116323,
				"z": -0.0334034176,
				"element": "H" 
			},
			{
				"x": -1.4784770052,
				"y": 0.8924395174,
				"z": 1.1213534016,
				"element": "H" 
			},
			{
				"x": 0.0574422233,
				"y": -1.6818330517,
				"z": 0.4684976307,
				"element": "H" 
			},
			{
				"x": -1.0198086406,
				"y": -1.4863114116,
				"z": 1.8760305823,
				"element": "H" 
			}
		],
		 "valence_orbital": [ 
			{
				"type": "occ",
				"energy": -0.4113,
				"method": "rhf"
			},
			{
				"type": "occ",
				"energy": -0.3572,
				"method": "rhf"
			},
			{
				"type": "occ",
				"energy": -0.34335,
				"method": "rhf"
			},
			{
				"type": "occ",
				"energy": -0.30089,
				"method": "rhf"
			},
			{
				"type": "occ",
				"energy": -0.30037,
				"method": "rhf"
			},
			{
				"type": "unocc",
				"energy": 0.01951,
				"method": "rhf"
			},
			{
				"type": "unocc",
				"energy": 0.08836,
				"method": "rhf"
			},
			{
				"type": "unocc",
				"energy": 0.11049,
				"method": "rhf"
			},
			{
				"type": "unocc",
				"energy": 0.1362,
				"method": "rhf"
			},
			{
				"type": "unocc",
				"energy": 0.1522,
				"method": "rhf"
			}
		],
		"cosmo_sigma_profile": { 
			"-0.025": 0.0,
			"-0.024": 0.0,
			"-0.023": 0.0,
			"-0.022": 0.0,
			"-0.021": 0.0,
			"-0.02": 0.0,
			"-0.019": 0.0,
			"-0.018": 0.0,
			"-0.017": 0.0,
			"-0.016": 0.0,
			"-0.015": 0.0,
			"-0.014": 0.0,
			"-0.013": 0.0,
			"-0.012": 0.0,
			"-0.011": 0.0,
			"-0.01": 0.0,
			"-0.009": 0.363914608738,
			"-0.008": 5.98014277936,
			"-0.007": 10.8679700899,
			"-0.006": 9.58865294259,
			"-0.005": 7.73666912048,
			"-0.004": 5.02137227075,
			"-0.003": 3.39633650355,
			"-0.002": 2.95916032013,
			"-0.001": 3.38687598477,
			"0.0": 4.11789683605,
			"0.001": 3.63599202478,
			"0.002": 4.84930364965,
			"0.003": 4.30736761663,
			"0.004": 6.02458082483,
			"0.005": 9.50741267805,
			"0.006": 19.2294553752,
			"0.007": 6.88031629051,
			"0.008": 0.0,
			"0.009": 0.0,
			"0.01": 0.0,
			"0.011": 0.0,
			"0.012": 0.0,
			"0.013": 0.0,
			"0.014": 0.0,
			"0.015": 0.0,
			"0.016": 0.0,
			"0.017": 0.0,
			"0.018": 0.0,
			"0.019": 0.0,
			"0.02": 0.0,
			"0.021": 0.0,
			"0.022": 0.0,
			"0.023": 0.0,
			"0.024": 0.0,
			"0.025": 0.0
		}
	}
}
