{
	 "smiles": "FC1=CC=C(C=C1)C1=NOC(CS(Cl)(=O)=O)=C1", 
	 "Tm": 382.15, 
	 "num_atms": 24, 
	 "gaussian": { 
		 "optdone": 1, 
		 "sigma_profile": "yes", 
		 "theory": "DFT", 
		 "functional": "B3LYP", 
		 "basiset": "6-31G**", 
		 "properties": { 
			 "R2extent": 8690.5564, 
			 "electric_dipole_moment_norm": 3.12135313927, 
			 "electric_quadrupole_moment_norm": 15.9578070987, 
			 "total_energy": -1623.80233733, 
			 "HOMO_LUMO_gap": 0.15165, 
			 "cosmo_polarized_energy": -15.04, 
			 "cosmo_cavitation_energy": 33.77, 
			 "cosmo_dispersion_energy": -24.58, 
			 "cosmo_repulsion_energy": 1.82, 
			 "cosmo_total_nonelectrostatic_energy": 11.0, 
			 "SMD_solvation_energy": 4.7 
		},
		"coords": [
			{
				"x": -1.5727081782,
				"y": 2.5126332224,
				"z": 3.9551580015,
				"element": "F" 
			},
			{
				"x": -1.4326916308,
				"y": 2.05784839,
				"z": 2.6956084013,
				"element": "C" 
			},
			{
				"x": -1.9246370984,
				"y": 2.8240189195,
				"z": 1.6423167735,
				"element": "C" 
			},
			{
				"x": -1.7796670466,
				"y": 2.3496937499,
				"z": 0.3434083532,
				"element": "C" 
			},
			{
				"x": -1.1473631427,
				"y": 1.1188124018,
				"z": 0.0941566891,
				"element": "C" 
			},
			{
				"x": -0.6616806235,
				"y": 0.3736124649,
				"z": 1.1790187337,
				"element": "C" 
			},
			{
				"x": -0.8015213549,
				"y": 0.8374401715,
				"z": 2.4853123125,
				"element": "C" 
			},
			{
				"x": -0.9979283865,
				"y": 0.6271953823,
				"z": -1.2852864678,
				"element": "C" 
			},
			{
				"x": -1.3482989378,
				"y": 1.3848785823,
				"z": -2.3118914641,
				"element": "N" 
			},
			{
				"x": -1.0864472248,
				"y": 0.640549384,
				"z": -3.4524193357,
				"element": "O" 
			},
			{
				"x": -0.5876892615,
				"y": -0.562442838,
				"z": -3.0884188081,
				"element": "C" 
			},
			{
				"x": -0.2508152699,
				"y": -1.4896561318,
				"z": -4.1917395933,
				"element": "C" 
			},
			{
				"x": 1.548370893,
				"y": -1.8492326986,
				"z": -4.3553409133,
				"element": "S" 
			},
			{
				"x": 2.3015064003,
				"y": 0.0815218752,
				"z": -4.7859950092,
				"element": "Cl" 
			},
			{
				"x": 2.0749437681,
				"y": -2.2467608175,
				"z": -3.0556814073,
				"element": "O" 
			},
			{
				"x": 1.7291721069,
				"y": -2.6714749247,
				"z": -5.5443192768,
				"element": "O" 
			},
			{
				"x": -0.5038685587,
				"y": -0.6384426804,
				"z": -1.7328458719,
				"element": "C" 
			},
			{
				"x": -2.4109004163,
				"y": 3.7708064527,
				"z": 1.8501470683,
				"element": "H" 
			},
			{
				"x": -2.1565998299,
				"y": 2.9291246693,
				"z": -0.4920873065,
				"element": "H" 
			},
			{
				"x": -0.1615061739,
				"y": -0.5746565801,
				"z": 1.0107594048,
				"element": "H" 
			},
			{
				"x": -0.4287868217,
				"y": 0.2722257735,
				"z": 3.3322502719,
				"element": "H" 
			},
			{
				"x": -0.5714410215,
				"y": -1.1022774632,
				"z": -5.1600768993,
				"element": "H" 
			},
			{
				"x": -0.6658621677,
				"y": -2.4915093356,
				"z": -4.0425935164,
				"element": "H" 
			},
			{
				"x": -0.133280023,
				"y": -1.4660079693,
				"z": -1.1495401401,
				"element": "H" 
			}
		],
		 "valence_orbital": [ 
			{
				"type": "occ",
				"energy": -0.32557,
				"method": "rhf"
			},
			{
				"type": "occ",
				"energy": -0.32139,
				"method": "rhf"
			},
			{
				"type": "occ",
				"energy": -0.28617,
				"method": "rhf"
			},
			{
				"type": "occ",
				"energy": -0.27507,
				"method": "rhf"
			},
			{
				"type": "occ",
				"energy": -0.24732,
				"method": "rhf"
			},
			{
				"type": "unocc",
				"energy": -0.09567,
				"method": "rhf"
			},
			{
				"type": "unocc",
				"energy": -0.05497,
				"method": "rhf"
			},
			{
				"type": "unocc",
				"energy": -0.02925,
				"method": "rhf"
			},
			{
				"type": "unocc",
				"energy": -0.02052,
				"method": "rhf"
			},
			{
				"type": "unocc",
				"energy": 0.03771,
				"method": "rhf"
			}
		],
		"cosmo_sigma_profile": { 
			"-0.025": 0.0,
			"-0.024": 0.0,
			"-0.023": 0.0,
			"-0.022": 0.0,
			"-0.021": 0.0,
			"-0.02": 0.0,
			"-0.019": 0.0,
			"-0.018": 0.0,
			"-0.017": 0.0,
			"-0.016": 0.0,
			"-0.015": 0.0,
			"-0.014": 0.640595076828,
			"-0.013": 1.57221150128,
			"-0.012": 3.47335662311,
			"-0.011": 3.55385896859,
			"-0.01": 5.82994213103,
			"-0.009": 5.86203946297,
			"-0.008": 6.96512221928,
			"-0.007": 10.1995722783,
			"-0.006": 9.86272412874,
			"-0.005": 9.96541165973,
			"-0.004": 9.69674947106,
			"-0.003": 8.72599970451,
			"-0.002": 12.761372517,
			"-0.001": 17.8320632749,
			"0.0": 24.2496450295,
			"0.001": 24.1884364428,
			"0.002": 29.6703476924,
			"0.003": 29.1594791565,
			"0.004": 15.9297128441,
			"0.005": 6.77271254955,
			"0.006": 6.83922022295,
			"0.007": 10.8734365662,
			"0.008": 12.3224815993,
			"0.009": 4.04494273681,
			"0.01": 1.23702497628,
			"0.011": 1.38554622644,
			"0.012": 1.06274653686,
			"0.013": 0.0310297919195,
			"0.014": 0.0,
			"0.015": 0.0,
			"0.016": 0.0,
			"0.017": 0.0,
			"0.018": 0.0,
			"0.019": 0.0,
			"0.02": 0.0,
			"0.021": 0.0,
			"0.022": 0.0,
			"0.023": 0.0,
			"0.024": 0.0,
			"0.025": 0.0
		}
	}
}
