{
	 "smiles": "NNC(=O)C1=CC(=CC(=C1)C(F)(F)F)C(F)(F)F", 
	 "Tm": 406.15, 
	 "num_atms": 24, 
	 "gaussian": { 
		 "optdone": 1, 
		 "sigma_profile": "yes", 
		 "theory": "DFT", 
		 "functional": "B3LYP", 
		 "basiset": "6-31G**", 
		 "properties": { 
			 "R2extent": 5741.8134, 
			 "electric_dipole_moment_norm": 2.80397809906, 
			 "electric_quadrupole_moment_norm": 6.27516690854, 
			 "total_energy": -1130.32915535, 
			 "HOMO_LUMO_gap": 0.19587, 
			 "cosmo_polarized_energy": -14.23, 
			 "cosmo_cavitation_energy": 32.35, 
			 "cosmo_dispersion_energy": -21.76, 
			 "cosmo_repulsion_energy": 1.58, 
			 "cosmo_total_nonelectrostatic_energy": 12.17, 
			 "SMD_solvation_energy": 8.95 
		},
		"coords": [
			{
				"x": 0.1474249973,
				"y": 0.7968917848,
				"z": 2.7839480466,
				"element": "N" 
			},
			{
				"x": -0.6720002333,
				"y": -0.2933257964,
				"z": 2.4245900118,
				"element": "N" 
			},
			{
				"x": -1.1332402765,
				"y": -0.5920528732,
				"z": 1.1600863429,
				"element": "C" 
			},
			{
				"x": -2.1695293656,
				"y": -1.2247995175,
				"z": 1.0037600414,
				"element": "O" 
			},
			{
				"x": -0.3223390509,
				"y": -0.1413465791,
				"z": -0.0271328409,
				"element": "C" 
			},
			{
				"x": 1.0758578475,
				"y": -0.1579214039,
				"z": -0.0576981772,
				"element": "C" 
			},
			{
				"x": 1.756425409,
				"y": 0.2043273349,
				"z": -1.2218827587,
				"element": "C" 
			},
			{
				"x": 1.0515123368,
				"y": 0.5942321934,
				"z": -2.3601168427,
				"element": "C" 
			},
			{
				"x": -0.3444040927,
				"y": 0.5955916583,
				"z": -2.3343649126,
				"element": "C" 
			},
			{
				"x": -1.0291014707,
				"y": 0.2157187024,
				"z": -1.1814540802,
				"element": "C" 
			},
			{
				"x": -1.1134878551,
				"y": 0.9547403908,
				"z": -3.5814510768,
				"element": "C" 
			},
			{
				"x": -0.4305766896,
				"y": 1.8312119169,
				"z": -4.3493595169,
				"element": "F" 
			},
			{
				"x": -2.3075134946,
				"y": 1.5089645002,
				"z": -3.2870009562,
				"element": "F" 
			},
			{
				"x": -1.354963382,
				"y": -0.1352338718,
				"z": -4.3408577646,
				"element": "F" 
			},
			{
				"x": 3.2613316607,
				"y": 0.124581145,
				"z": -1.2601075571,
				"element": "C" 
			},
			{
				"x": 3.7859143265,
				"y": 1.0046519312,
				"z": -2.1374857713,
				"element": "F" 
			},
			{
				"x": 3.8012040331,
				"y": 0.382307863,
				"z": -0.0470734571,
				"element": "F" 
			},
			{
				"x": 3.6826043208,
				"y": -1.104842187,
				"z": -1.626145611,
				"element": "F" 
			},
			{
				"x": 1.1274104036,
				"y": 0.5435934513,
				"z": 2.7071545211,
				"element": "H" 
			},
			{
				"x": -0.0318420092,
				"y": 1.5982921928,
				"z": 2.1849427316,
				"element": "H" 
			},
			{
				"x": -1.3287798242,
				"y": -0.5607536118,
				"z": 3.1490234412,
				"element": "H" 
			},
			{
				"x": 1.6434532091,
				"y": -0.4717546403,
				"z": 0.8102415863,
				"element": "H" 
			},
			{
				"x": 1.5826033132,
				"y": 0.9005452087,
				"z": -3.2535083187,
				"element": "H" 
			},
			{
				"x": -2.1126641131,
				"y": 0.1927802073,
				"z": -1.1608070812,
				"element": "H" 
			}
		],
		 "valence_orbital": [ 
			{
				"type": "occ",
				"energy": -0.31415,
				"method": "rhf"
			},
			{
				"type": "occ",
				"energy": -0.2978,
				"method": "rhf"
			},
			{
				"type": "occ",
				"energy": -0.29643,
				"method": "rhf"
			},
			{
				"type": "occ",
				"energy": -0.27055,
				"method": "rhf"
			},
			{
				"type": "occ",
				"energy": -0.2644,
				"method": "rhf"
			},
			{
				"type": "unocc",
				"energy": -0.06853,
				"method": "rhf"
			},
			{
				"type": "unocc",
				"energy": -0.05774,
				"method": "rhf"
			},
			{
				"type": "unocc",
				"energy": 0.01445,
				"method": "rhf"
			},
			{
				"type": "unocc",
				"energy": 0.05176,
				"method": "rhf"
			},
			{
				"type": "unocc",
				"energy": 0.08553,
				"method": "rhf"
			}
		],
		"cosmo_sigma_profile": { 
			"-0.025": 0.0,
			"-0.024": 0.0,
			"-0.023": 0.0,
			"-0.022": 0.0,
			"-0.021": 0.0,
			"-0.02": 0.0,
			"-0.019": 0.0,
			"-0.018": 0.0,
			"-0.017": 0.0,
			"-0.016": 0.0,
			"-0.015": 0.0,
			"-0.014": 0.256751754572,
			"-0.013": 1.88892486082,
			"-0.012": 3.96701020458,
			"-0.011": 3.95945330169,
			"-0.01": 4.22823967604,
			"-0.009": 5.06093629098,
			"-0.008": 4.07956768766,
			"-0.007": 6.83981478676,
			"-0.006": 8.06727544306,
			"-0.005": 7.55773948211,
			"-0.004": 10.8411088973,
			"-0.003": 11.2381437095,
			"-0.002": 15.5165910468,
			"-0.001": 20.3903996584,
			"0.0": 22.5410387084,
			"0.001": 19.3719993461,
			"0.002": 49.367711377,
			"0.003": 35.1275887441,
			"0.004": 2.74976935039,
			"0.005": 2.21007914589,
			"0.006": 1.97241740992,
			"0.007": 2.48788657184,
			"0.008": 1.52867399025,
			"0.009": 1.65523724865,
			"0.01": 2.35269683773,
			"0.011": 2.35805087376,
			"0.012": 4.46674688487,
			"0.013": 5.1377846054,
			"0.014": 1.0550925332,
			"0.015": 0.563658016174,
			"0.016": 0.136101233087,
			"0.017": 0.0,
			"0.018": 0.0,
			"0.019": 0.0,
			"0.02": 0.0,
			"0.021": 0.0,
			"0.022": 0.0,
			"0.023": 0.0,
			"0.024": 0.0,
			"0.025": 0.0
		}
	}
}
