{
	 "smiles": "CC(NC(N)=O)C1CC2CCC1C2", 
	 "Tm": 441.15, 
	 "num_atms": 31, 
	 "gaussian": { 
		 "optdone": 1, 
		 "sigma_profile": "yes", 
		 "theory": "DFT", 
		 "functional": "B3LYP", 
		 "basiset": "6-31G**", 
		 "properties": { 
			 "R2extent": 2980.1061, 
			 "electric_dipole_moment_norm": 3.73701185976, 
			 "electric_quadrupole_moment_norm": 15.6101976512, 
			 "total_energy": -576.666945301, 
			 "HOMO_LUMO_gap": 0.28777, 
			 "cosmo_polarized_energy": -13.11, 
			 "cosmo_cavitation_energy": 30.08, 
			 "cosmo_dispersion_energy": -21.78, 
			 "cosmo_repulsion_energy": 1.72, 
			 "cosmo_total_nonelectrostatic_energy": 10.02, 
			 "SMD_solvation_energy": 4.47 
		},
		"coords": [
			{
				"x": 0.6597597429,
				"y": 1.9222864567,
				"z": 0.3196601445,
				"element": "C" 
			},
			{
				"x": 1.3016595399,
				"y": 0.551213452,
				"z": 0.0505208501,
				"element": "C" 
			},
			{
				"x": 2.3138962247,
				"y": 0.1865575587,
				"z": 1.0650541365,
				"element": "N" 
			},
			{
				"x": 2.1167418725,
				"y": -0.256104255,
				"z": 2.3637544859,
				"element": "C" 
			},
			{
				"x": 0.949547533,
				"y": 0.1650112534,
				"z": 2.9925896154,
				"element": "N" 
			},
			{
				"x": 2.9303146993,
				"y": -0.9790821498,
				"z": 2.9263373925,
				"element": "O" 
			},
			{
				"x": 0.2609005431,
				"y": -0.5647678696,
				"z": -0.172071431,
				"element": "C" 
			},
			{
				"x": 0.87053809,
				"y": -1.9390644847,
				"z": -0.6178769005,
				"element": "C" 
			},
			{
				"x": 0.004254195,
				"y": -2.3434989261,
				"z": -1.8345724263,
				"element": "C" 
			},
			{
				"x": 0.4037343,
				"y": -1.4551718857,
				"z": -3.0362881689,
				"element": "C" 
			},
			{
				"x": -0.1667735664,
				"y": -0.0529100955,
				"z": -2.6425490538,
				"element": "C" 
			},
			{
				"x": -0.8203993486,
				"y": -0.3111577922,
				"z": -1.2618373492,
				"element": "C" 
			},
			{
				"x": -1.3675619907,
				"y": -1.7434046683,
				"z": -1.4554593015,
				"element": "C" 
			},
			{
				"x": 0.182333307,
				"y": 2.3008722774,
				"z": -0.5887133796,
				"element": "H" 
			},
			{
				"x": 1.4169808707,
				"y": 2.6458208616,
				"z": 0.6348543366,
				"element": "H" 
			},
			{
				"x": -0.1243547146,
				"y": 1.8743991713,
				"z": 1.0837281716,
				"element": "H" 
			},
			{
				"x": 1.8937558774,
				"y": 0.6595165344,
				"z": -0.8656150369,
				"element": "H" 
			},
			{
				"x": 3.1405972796,
				"y": -0.2613486444,
				"z": 0.6941788464,
				"element": "H" 
			},
			{
				"x": 0.977206189,
				"y": -0.0262860418,
				"z": 3.9847085256,
				"element": "H" 
			},
			{
				"x": 0.5951255007,
				"y": 1.0802864488,
				"z": 2.7567493658,
				"element": "H" 
			},
			{
				"x": -0.2605333488,
				"y": -0.7009393957,
				"z": 0.7827304605,
				"element": "H" 
			},
			{
				"x": 1.9301394174,
				"y": -1.857491053,
				"z": -0.8886827686,
				"element": "H" 
			},
			{
				"x": 0.8063338056,
				"y": -2.6782976983,
				"z": 0.1863518652,
				"element": "H" 
			},
			{
				"x": 0.0210879555,
				"y": -3.4147173918,
				"z": -2.0531595048,
				"element": "H" 
			},
			{
				"x": -0.0541365773,
				"y": -1.8201927292,
				"z": -3.9618696727,
				"element": "H" 
			},
			{
				"x": 1.4873595154,
				"y": -1.442637084,
				"z": -3.194807127,
				"element": "H" 
			},
			{
				"x": 0.6014945806,
				"y": 0.7260576845,
				"z": -2.620337128,
				"element": "H" 
			},
			{
				"x": -0.9257705331,
				"y": 0.2780289096,
				"z": -3.3592959394,
				"element": "H" 
			},
			{
				"x": -1.5589634359,
				"y": 0.443615662,
				"z": -0.977509989,
				"element": "H" 
			},
			{
				"x": -1.7923976184,
				"y": -2.1701921701,
				"z": -0.5403850369,
				"element": "H" 
			},
			{
				"x": -2.1106699056,
				"y": -1.8174019353,
				"z": -2.2574879825,
				"element": "H" 
			}
		],
		 "valence_orbital": [ 
			{
				"type": "occ",
				"energy": -0.30485,
				"method": "rhf"
			},
			{
				"type": "occ",
				"energy": -0.29174,
				"method": "rhf"
			},
			{
				"type": "occ",
				"energy": -0.26471,
				"method": "rhf"
			},
			{
				"type": "occ",
				"energy": -0.24985,
				"method": "rhf"
			},
			{
				"type": "occ",
				"energy": -0.23541,
				"method": "rhf"
			},
			{
				"type": "unocc",
				"energy": 0.05236,
				"method": "rhf"
			},
			{
				"type": "unocc",
				"energy": 0.06245,
				"method": "rhf"
			},
			{
				"type": "unocc",
				"energy": 0.08791,
				"method": "rhf"
			},
			{
				"type": "unocc",
				"energy": 0.08973,
				"method": "rhf"
			},
			{
				"type": "unocc",
				"energy": 0.10676,
				"method": "rhf"
			}
		],
		"cosmo_sigma_profile": { 
			"-0.025": 0.0,
			"-0.024": 0.0,
			"-0.023": 0.0,
			"-0.022": 0.0,
			"-0.021": 0.0,
			"-0.02": 0.0,
			"-0.019": 0.0,
			"-0.018": 0.0,
			"-0.017": 0.0,
			"-0.016": 0.0,
			"-0.015": 0.0,
			"-0.014": 0.000116442930128,
			"-0.013": 0.605429962849,
			"-0.012": 2.0079984941,
			"-0.011": 3.4765812973,
			"-0.01": 3.00392829574,
			"-0.009": 3.62884150038,
			"-0.008": 3.39302261941,
			"-0.007": 3.62920009659,
			"-0.006": 3.2415969093,
			"-0.005": 5.42628901945,
			"-0.004": 7.44903806993,
			"-0.003": 15.469422971,
			"-0.002": 30.146082189,
			"-0.001": 36.8125029956,
			"0.0": 31.1742108627,
			"0.001": 28.8485661731,
			"0.002": 16.2330085295,
			"0.003": 3.15035338405,
			"0.004": 3.29127321526,
			"0.005": 3.97828113167,
			"0.006": 2.73410936349,
			"0.007": 2.74767414179,
			"0.008": 1.89574164896,
			"0.009": 1.87672391103,
			"0.01": 1.57122530535,
			"0.011": 2.13214109725,
			"0.012": 1.53319338395,
			"0.013": 1.18441344637,
			"0.014": 4.72917195986,
			"0.015": 5.73399960457,
			"0.016": 0.494651658512,
			"0.017": 0.0,
			"0.018": 0.0,
			"0.019": 0.0,
			"0.02": 0.0,
			"0.021": 0.0,
			"0.022": 0.0,
			"0.023": 0.0,
			"0.024": 0.0,
			"0.025": 0.0
		}
	}
}
