{
	 "smiles": "[O-][N+](=O)C1=CC(NCN2C(=S)SC(=CC3=CC=CC=C3)C2=O)=CC=C1", 
	 "Tm": 463.15, 
	 "num_atms": 38, 
	 "gaussian": { 
		 "optdone": 1, 
		 "sigma_profile": "yes", 
		 "theory": "DFT", 
		 "functional": "B3LYP", 
		 "basiset": "6-31G**", 
		 "properties": { 
			 "R2extent": 14232.7713, 
			 "electric_dipole_moment_norm": 8.4567849884, 
			 "electric_quadrupole_moment_norm": 32.9865426953, 
			 "total_energy": -1841.85990218, 
			 "HOMO_LUMO_gap": 0.11598, 
			 "cosmo_polarized_energy": -16.43, 
			 "cosmo_cavitation_energy": 46.78, 
			 "cosmo_dispersion_energy": -33.82, 
			 "cosmo_repulsion_energy": 2.44, 
			 "cosmo_total_nonelectrostatic_energy": 15.4, 
			 "SMD_solvation_energy": 8.42 
		},
		"coords": [
			{
				"x": -2.0097351433,
				"y": -0.0999951422,
				"z": 6.2975784199,
				"element": "O" 
			},
			{
				"x": -1.885870306,
				"y": 0.9655122145,
				"z": 5.6935401511,
				"element": "N" 
			},
			{
				"x": -1.6471263533,
				"y": 2.0474989511,
				"z": 6.2286612906,
				"element": "O" 
			},
			{
				"x": -2.0332607824,
				"y": 0.9462937679,
				"z": 4.2269533112,
				"element": "C" 
			},
			{
				"x": -2.303034173,
				"y": -0.268558538,
				"z": 3.6107862356,
				"element": "C" 
			},
			{
				"x": -2.4485117513,
				"y": -0.3149292272,
				"z": 2.2141304335,
				"element": "C" 
			},
			{
				"x": -2.7705425199,
				"y": -1.5383655332,
				"z": 1.6250046289,
				"element": "N" 
			},
			{
				"x": -2.7457005841,
				"y": -1.8000082256,
				"z": 0.2239531449,
				"element": "C" 
			},
			{
				"x": -1.3879711401,
				"y": -1.9305292679,
				"z": -0.3823225226,
				"element": "N" 
			},
			{
				"x": -0.5724474387,
				"y": -2.9996678072,
				"z": -0.1126077808,
				"element": "C" 
			},
			{
				"x": -0.895523217,
				"y": -4.2667587445,
				"z": 0.8949623213,
				"element": "S" 
			},
			{
				"x": 0.9445351419,
				"y": -2.8598666296,
				"z": -1.0267471789,
				"element": "S" 
			},
			{
				"x": 0.4291340247,
				"y": -1.355005187,
				"z": -1.7973443006,
				"element": "C" 
			},
			{
				"x": 1.062664988,
				"y": -0.5638206352,
				"z": -2.6964491608,
				"element": "C" 
			},
			{
				"x": 2.3656336076,
				"y": -0.6672536883,
				"z": -3.3309793602,
				"element": "C" 
			},
			{
				"x": 3.2923672532,
				"y": -1.7045056845,
				"z": -3.0933705391,
				"element": "C" 
			},
			{
				"x": 4.5199972674,
				"y": -1.7218764002,
				"z": -3.7477483478,
				"element": "C" 
			},
			{
				"x": 4.8542226865,
				"y": -0.7100053199,
				"z": -4.6523813855,
				"element": "C" 
			},
			{
				"x": 3.9500294653,
				"y": 0.3255045957,
				"z": -4.9005041188,
				"element": "C" 
			},
			{
				"x": 2.7225109345,
				"y": 0.3455875603,
				"z": -4.2475003314,
				"element": "C" 
			},
			{
				"x": -0.9246262773,
				"y": -0.985201851,
				"z": -1.3191238889,
				"element": "C" 
			},
			{
				"x": -1.5774911743,
				"y": -0.0142474449,
				"z": -1.6659112133,
				"element": "O" 
			},
			{
				"x": -2.304302675,
				"y": 0.878839265,
				"z": 1.4810937582,
				"element": "C" 
			},
			{
				"x": -2.0374295988,
				"y": 2.0813879734,
				"z": 2.1372544695,
				"element": "C" 
			},
			{
				"x": -1.8971657534,
				"y": 2.1401873359,
				"z": 3.5213873997,
				"element": "C" 
			},
			{
				"x": -2.4033971679,
				"y": -1.1592464127,
				"z": 4.2197150589,
				"element": "H" 
			},
			{
				"x": -2.5874614923,
				"y": -2.3536149012,
				"z": 2.1947900444,
				"element": "H" 
			},
			{
				"x": -3.2305817154,
				"y": -1.004731756,
				"z": -0.3418483799,
				"element": "H" 
			},
			{
				"x": -3.2592764524,
				"y": -2.7452512332,
				"z": 0.0422908466,
				"element": "H" 
			},
			{
				"x": 0.4697089731,
				"y": 0.3033812873,
				"z": -2.9843549326,
				"element": "H" 
			},
			{
				"x": 3.0629250004,
				"y": -2.5023424423,
				"z": -2.3964954112,
				"element": "H" 
			},
			{
				"x": 5.2201365897,
				"y": -2.528115093,
				"z": -3.5512900296,
				"element": "H" 
			},
			{
				"x": 5.8140520838,
				"y": -0.7293656379,
				"z": -5.1598227084,
				"element": "H" 
			},
			{
				"x": 4.2026180708,
				"y": 1.11526502,
				"z": -5.6014183072,
				"element": "H" 
			},
			{
				"x": 2.020127586,
				"y": 1.1517124026,
				"z": -4.4409866204,
				"element": "H" 
			},
			{
				"x": -2.3808097559,
				"y": 0.8748246127,
				"z": 0.399669585,
				"element": "H" 
			},
			{
				"x": -1.9303639028,
				"y": 2.9877095843,
				"z": 1.5491949235,
				"element": "H" 
			},
			{
				"x": -1.6864342986,
				"y": 3.0609582324,
				"z": 4.0482404951,
				"element": "H" 
			}
		],
		 "valence_orbital": [ 
			{
				"type": "occ",
				"energy": -0.27612,
				"method": "rhf"
			},
			{
				"type": "occ",
				"energy": -0.27285,
				"method": "rhf"
			},
			{
				"type": "occ",
				"energy": -0.2494,
				"method": "rhf"
			},
			{
				"type": "occ",
				"energy": -0.23879,
				"method": "rhf"
			},
			{
				"type": "occ",
				"energy": -0.22347,
				"method": "rhf"
			},
			{
				"type": "unocc",
				"energy": -0.10749,
				"method": "rhf"
			},
			{
				"type": "unocc",
				"energy": -0.08084,
				"method": "rhf"
			},
			{
				"type": "unocc",
				"energy": -0.05383,
				"method": "rhf"
			},
			{
				"type": "unocc",
				"energy": -0.02645,
				"method": "rhf"
			},
			{
				"type": "unocc",
				"energy": -0.01202,
				"method": "rhf"
			}
		],
		"cosmo_sigma_profile": { 
			"-0.025": 0.0,
			"-0.024": 0.0,
			"-0.023": 0.0,
			"-0.022": 0.0,
			"-0.021": 0.0,
			"-0.02": 0.0,
			"-0.019": 0.0,
			"-0.018": 0.0,
			"-0.017": 0.0,
			"-0.016": 0.0,
			"-0.015": 0.0,
			"-0.014": 0.0,
			"-0.013": 0.155565875299,
			"-0.012": 0.816762238087,
			"-0.011": 1.32682911409,
			"-0.01": 0.728793330667,
			"-0.009": 2.19490896791,
			"-0.008": 4.85517176375,
			"-0.007": 14.3252480355,
			"-0.006": 26.4306605439,
			"-0.005": 27.0788058416,
			"-0.004": 21.3694174219,
			"-0.003": 23.1588644286,
			"-0.002": 22.9243312704,
			"-0.001": 27.088360535,
			"0.0": 32.372551865,
			"0.001": 31.901506402,
			"0.002": 34.0616148101,
			"0.003": 31.348669846,
			"0.004": 20.7384633713,
			"0.005": 10.2413439725,
			"0.006": 10.0732879531,
			"0.007": 11.6861037872,
			"0.008": 12.3385772981,
			"0.009": 7.12119116818,
			"0.01": 5.4923136044,
			"0.011": 1.91990795936,
			"0.012": 0.0,
			"0.013": 0.0,
			"0.014": 0.0,
			"0.015": 0.0,
			"0.016": 0.0,
			"0.017": 0.0,
			"0.018": 0.0,
			"0.019": 0.0,
			"0.02": 0.0,
			"0.021": 0.0,
			"0.022": 0.0,
			"0.023": 0.0,
			"0.024": 0.0,
			"0.025": 0.0
		}
	}
}
