{
	 "smiles": "OC1=C(Cl)C=CC=N1", 
	 "Tm": 454.15, 
	 "num_atms": 12, 
	 "gaussian": { 
		 "optdone": 1, 
		 "sigma_profile": "yes", 
		 "theory": "DFT", 
		 "functional": "B3LYP", 
		 "basiset": "6-31G**", 
		 "properties": { 
			 "R2extent": 1407.2048, 
			 "electric_dipole_moment_norm": 2.09684509204, 
			 "electric_quadrupole_moment_norm": 5.27454470926, 
			 "total_energy": -783.108006443, 
			 "HOMO_LUMO_gap": 0.20495, 
			 "cosmo_polarized_energy": -7.44, 
			 "cosmo_cavitation_energy": 18.15, 
			 "cosmo_dispersion_energy": -14.01, 
			 "cosmo_repulsion_energy": 1.17, 
			 "cosmo_total_nonelectrostatic_energy": 5.31, 
			 "SMD_solvation_energy": 2.17 
		},
		"coords": [
			{
				"x": 2.2312012102,
				"y": 1.8952489165,
				"z": -1.1727387967,
				"element": "O" 
			},
			{
				"x": 1.5954289201,
				"y": 1.0874374543,
				"z": -0.3038210022,
				"element": "C" 
			},
			{
				"x": 1.0064773464,
				"y": -0.1048657811,
				"z": -0.7676772895,
				"element": "C" 
			},
			{
				"x": 1.0954427463,
				"y": -0.5401637231,
				"z": -2.4567022072,
				"element": "Cl" 
			},
			{
				"x": 0.3568933529,
				"y": -0.9204851037,
				"z": 0.1480636847,
				"element": "C" 
			},
			{
				"x": 0.3095380418,
				"y": -0.5332423737,
				"z": 1.4912620665,
				"element": "C" 
			},
			{
				"x": 0.9214481313,
				"y": 0.6625269717,
				"z": 1.8500455019,
				"element": "C" 
			},
			{
				"x": 1.5510770248,
				"y": 1.4564959071,
				"z": 0.9723280624,
				"element": "N" 
			},
			{
				"x": 2.5548234422,
				"y": 2.6449133908,
				"z": -0.6479205633,
				"element": "H" 
			},
			{
				"x": -0.1030086756,
				"y": -1.8430760432,
				"z": -0.1898551466,
				"element": "H" 
			},
			{
				"x": -0.1899887326,
				"y": -1.1476412228,
				"z": 2.2320253094,
				"element": "H" 
			},
			{
				"x": 0.9122671924,
				"y": 1.0074516073,
				"z": 2.8813903804,
				"element": "H" 
			}
		],
		 "valence_orbital": [ 
			{
				"type": "occ",
				"energy": -0.35181,
				"method": "rhf"
			},
			{
				"type": "occ",
				"energy": -0.32037,
				"method": "rhf"
			},
			{
				"type": "occ",
				"energy": -0.28483,
				"method": "rhf"
			},
			{
				"type": "occ",
				"energy": -0.28011,
				"method": "rhf"
			},
			{
				"type": "occ",
				"energy": -0.23993,
				"method": "rhf"
			},
			{
				"type": "unocc",
				"energy": -0.03498,
				"method": "rhf"
			},
			{
				"type": "unocc",
				"energy": -0.0086,
				"method": "rhf"
			},
			{
				"type": "unocc",
				"energy": 0.02931,
				"method": "rhf"
			},
			{
				"type": "unocc",
				"energy": 0.08425,
				"method": "rhf"
			},
			{
				"type": "unocc",
				"energy": 0.10911,
				"method": "rhf"
			}
		],
		"cosmo_sigma_profile": { 
			"-0.025": 0.0,
			"-0.024": 0.0,
			"-0.023": 0.0,
			"-0.022": 0.0,
			"-0.021": 0.0,
			"-0.02": 0.0,
			"-0.019": 0.0,
			"-0.018": 0.228458930822,
			"-0.017": 0.641349663536,
			"-0.016": 0.844850498339,
			"-0.015": 0.673559341889,
			"-0.014": 1.09872432545,
			"-0.013": 0.967579322692,
			"-0.012": 0.058021043774,
			"-0.011": 0.437666827483,
			"-0.01": 0.826964252573,
			"-0.009": 0.793973803786,
			"-0.008": 2.23664606581,
			"-0.007": 6.97819290511,
			"-0.006": 8.8033348842,
			"-0.005": 6.94591114476,
			"-0.004": 4.68986300786,
			"-0.003": 5.08985750159,
			"-0.002": 6.57925959394,
			"-0.001": 11.0012133982,
			"0.0": 14.7640337772,
			"0.001": 15.1518440826,
			"0.002": 14.9969074984,
			"0.003": 9.63904721872,
			"0.004": 10.5881417579,
			"0.005": 6.19774154942,
			"0.006": 3.38636034539,
			"0.007": 3.53890482414,
			"0.008": 2.43360675156,
			"0.009": 3.13371308562,
			"0.01": 3.14274928233,
			"0.011": 1.05268753625,
			"0.012": 0.629101651908,
			"0.013": 0.576049606244,
			"0.014": 0.0263849515273,
			"0.015": 0.0,
			"0.016": 0.0,
			"0.017": 0.0,
			"0.018": 0.0,
			"0.019": 0.0,
			"0.02": 0.0,
			"0.021": 0.0,
			"0.022": 0.0,
			"0.023": 0.0,
			"0.024": 0.0,
			"0.025": 0.0
		}
	}
}
