{
	 "smiles": "CC1=CC=C(C=C1Br)C#N", 
	 "Tm": 314.15, 
	 "num_atms": 16, 
	 "gaussian": { 
		 "optdone": 1, 
		 "sigma_profile": "yes", 
		 "theory": "DFT", 
		 "functional": "B3LYP", 
		 "basiset": "6-31G**", 
		 "properties": { 
			 "R2extent": 2625.4696, 
			 "electric_dipole_moment_norm": 4.52662787735, 
			 "electric_quadrupole_moment_norm": 15.2178420231, 
			 "total_energy": -2934.61318894, 
			 "HOMO_LUMO_gap": 0.20115, 
			 "cosmo_polarized_energy": -8.34, 
			 "cosmo_cavitation_energy": 23.45, 
			 "cosmo_dispersion_energy": -17.03, 
			 "cosmo_repulsion_energy": 1.37, 
			 "cosmo_total_nonelectrostatic_energy": 7.79, 
			 "SMD_solvation_energy": 4.45 
		},
		"coords": [
			{
				"x": -2.1317134886,
				"y": -2.3404265175,
				"z": 1.7696003076,
				"element": "C" 
			},
			{
				"x": -1.1648331083,
				"y": -1.8503880878,
				"z": 0.7256804096,
				"element": "C" 
			},
			{
				"x": -0.9939134675,
				"y": -2.5513361426,
				"z": -0.4780733077,
				"element": "C" 
			},
			{
				"x": -0.1097376668,
				"y": -2.1268107547,
				"z": -1.4634336481,
				"element": "C" 
			},
			{
				"x": 0.6433826331,
				"y": -0.9604202744,
				"z": -1.2612302567,
				"element": "C" 
			},
			{
				"x": 0.4961713077,
				"y": -0.2359327468,
				"z": -0.0681127422,
				"element": "C" 
			},
			{
				"x": -0.396360896,
				"y": -0.6868093334,
				"z": 0.8976031121,
				"element": "C" 
			},
			{
				"x": -0.5587698763,
				"y": 0.3375219819,
				"z": 2.5048862691,
				"element": "Br" 
			},
			{
				"x": 1.5609260245,
				"y": -0.5048110854,
				"z": -2.264288632,
				"element": "C" 
			},
			{
				"x": 2.3044657269,
				"y": -0.1379314023,
				"z": -3.0801215454,
				"element": "N" 
			},
			{
				"x": -1.6207543008,
				"y": -2.5416134551,
				"z": 2.7171336057,
				"element": "H" 
			},
			{
				"x": -2.8996834964,
				"y": -1.5885260697,
				"z": 1.9799484132,
				"element": "H" 
			},
			{
				"x": -2.6259154893,
				"y": -3.2575251064,
				"z": 1.4412370524,
				"element": "H" 
			},
			{
				"x": -1.5746293977,
				"y": -3.4548622245,
				"z": -0.6393482897,
				"element": "H" 
			},
			{
				"x": 0.0022370119,
				"y": -2.6882754334,
				"z": -2.3844340943,
				"element": "H" 
			},
			{
				"x": 1.0730284836,
				"y": 0.6657466521,
				"z": 0.0974533464,
				"element": "H" 
			}
		],
		 "valence_orbital": [ 
			{
				"type": "occ",
				"energy": -0.33512,
				"method": "rhf"
			},
			{
				"type": "occ",
				"energy": -0.32458,
				"method": "rhf"
			},
			{
				"type": "occ",
				"energy": -0.30142,
				"method": "rhf"
			},
			{
				"type": "occ",
				"energy": -0.27351,
				"method": "rhf"
			},
			{
				"type": "occ",
				"energy": -0.25971,
				"method": "rhf"
			},
			{
				"type": "unocc",
				"energy": -0.05856,
				"method": "rhf"
			},
			{
				"type": "unocc",
				"energy": -0.03522,
				"method": "rhf"
			},
			{
				"type": "unocc",
				"energy": -0.00886,
				"method": "rhf"
			},
			{
				"type": "unocc",
				"energy": 0.0338,
				"method": "rhf"
			},
			{
				"type": "unocc",
				"energy": 0.06659,
				"method": "rhf"
			}
		],
		"cosmo_sigma_profile": { 
			"-0.025": 0.0,
			"-0.024": 0.0,
			"-0.023": 0.0,
			"-0.022": 0.0,
			"-0.021": 0.0,
			"-0.02": 0.0,
			"-0.019": 0.0,
			"-0.018": 0.0,
			"-0.017": 0.0,
			"-0.016": 0.0,
			"-0.015": 0.0,
			"-0.014": 0.0,
			"-0.013": 0.0,
			"-0.012": 0.0,
			"-0.011": 0.0,
			"-0.01": 0.0,
			"-0.009": 0.913678896432,
			"-0.008": 4.16641085281,
			"-0.007": 7.99963848163,
			"-0.006": 7.81342495993,
			"-0.005": 10.2168540149,
			"-0.004": 12.060171112,
			"-0.003": 12.8576098439,
			"-0.002": 16.4799287893,
			"-0.001": 22.559512524,
			"0.0": 17.136873791,
			"0.001": 21.9432154076,
			"0.002": 12.9036355489,
			"0.003": 10.3988552469,
			"0.004": 9.52363583647,
			"0.005": 3.49098060216,
			"0.006": 2.52453113272,
			"0.007": 2.66713309107,
			"0.008": 3.83699407803,
			"0.009": 3.06540048922,
			"0.01": 3.40023968531,
			"0.011": 2.52373405986,
			"0.012": 2.39480123156,
			"0.013": 1.36243168145,
			"0.014": 0.00151516887254,
			"0.015": 0.0,
			"0.016": 0.0,
			"0.017": 0.0,
			"0.018": 0.0,
			"0.019": 0.0,
			"0.02": 0.0,
			"0.021": 0.0,
			"0.022": 0.0,
			"0.023": 0.0,
			"0.024": 0.0,
			"0.025": 0.0
		}
	}
}
