{
	 "smiles": "BrC1=CC(=CC(Br)=C1)C#N", 
	 "Tm": 371.65, 
	 "num_atms": 13, 
	 "gaussian": { 
		 "optdone": 1, 
		 "sigma_profile": "yes", 
		 "theory": "DFT", 
		 "functional": "B3LYP", 
		 "basiset": "6-31G**", 
		 "properties": { 
			 "R2extent": 4056.5291, 
			 "electric_dipole_moment_norm": 2.88134932627, 
			 "electric_quadrupole_moment_norm": 10.4941946904, 
			 "total_energy": -5466.09003045, 
			 "HOMO_LUMO_gap": 0.19521, 
			 "cosmo_polarized_energy": -7.74, 
			 "cosmo_cavitation_energy": 23.82, 
			 "cosmo_dispersion_energy": -17.73, 
			 "cosmo_repulsion_energy": 1.44, 
			 "cosmo_total_nonelectrostatic_energy": 7.53, 
			 "SMD_solvation_energy": 3.24 
		},
		"coords": [
			{
				"x": -3.0237091351,
				"y": 1.7577433041,
				"z": 1.7848174621,
				"element": "Br" 
			},
			{
				"x": -1.3904181336,
				"y": 0.979053462,
				"z": 1.1939949377,
				"element": "C" 
			},
			{
				"x": -0.6412688265,
				"y": 0.2111894763,
				"z": 2.0802165473,
				"element": "C" 
			},
			{
				"x": 0.5612302375,
				"y": -0.356604533,
				"z": 1.6297467014,
				"element": "C" 
			},
			{
				"x": 1.0034752155,
				"y": -0.1565894755,
				"z": 0.3122826939,
				"element": "C" 
			},
			{
				"x": 0.2255133854,
				"y": 0.6177374192,
				"z": -0.5429630315,
				"element": "C" 
			},
			{
				"x": 0.8071564489,
				"y": 0.9012542236,
				"z": -2.3330581714,
				"element": "Br" 
			},
			{
				"x": -0.9731110604,
				"y": 1.1928801732,
				"z": -0.1199878613,
				"element": "C" 
			},
			{
				"x": 1.3486109868,
				"y": -1.1518414413,
				"z": 2.527711661,
				"element": "C" 
			},
			{
				"x": 1.9867232674,
				"y": -1.796367006,
				"z": 3.255526887,
				"element": "N" 
			},
			{
				"x": -0.975436161,
				"y": 0.0523500808,
				"z": 3.097510535,
				"element": "H" 
			},
			{
				"x": 1.9317710724,
				"y": -0.5977349721,
				"z": -0.0274962847,
				"element": "H" 
			},
			{
				"x": -1.5671372973,
				"y": 1.7927292887,
				"z": -0.7974020764,
				"element": "H" 
			}
		],
		 "valence_orbital": [ 
			{
				"type": "occ",
				"energy": -0.31544,
				"method": "rhf"
			},
			{
				"type": "occ",
				"energy": -0.31439,
				"method": "rhf"
			},
			{
				"type": "occ",
				"energy": -0.30868,
				"method": "rhf"
			},
			{
				"type": "occ",
				"energy": -0.27872,
				"method": "rhf"
			},
			{
				"type": "occ",
				"energy": -0.27038,
				"method": "rhf"
			},
			{
				"type": "unocc",
				"energy": -0.07517,
				"method": "rhf"
			},
			{
				"type": "unocc",
				"energy": -0.05045,
				"method": "rhf"
			},
			{
				"type": "unocc",
				"energy": -0.03523,
				"method": "rhf"
			},
			{
				"type": "unocc",
				"energy": -0.00249,
				"method": "rhf"
			},
			{
				"type": "unocc",
				"energy": 0.03058,
				"method": "rhf"
			}
		],
		"cosmo_sigma_profile": { 
			"-0.025": 0.0,
			"-0.024": 0.0,
			"-0.023": 0.0,
			"-0.022": 0.0,
			"-0.021": 0.0,
			"-0.02": 0.0,
			"-0.019": 0.0,
			"-0.018": 0.0,
			"-0.017": 0.0,
			"-0.016": 0.0,
			"-0.015": 0.0,
			"-0.014": 0.0,
			"-0.013": 0.0,
			"-0.012": 0.0,
			"-0.011": 0.0,
			"-0.01": 1.18297422774,
			"-0.009": 4.98827399436,
			"-0.008": 5.13571734723,
			"-0.007": 4.63389628377,
			"-0.006": 6.38776402272,
			"-0.005": 8.66778628867,
			"-0.004": 10.0171543628,
			"-0.003": 12.3929084086,
			"-0.002": 16.9710713644,
			"-0.001": 27.3032022088,
			"0.0": 20.1990332608,
			"0.001": 11.436615303,
			"0.002": 14.0112193604,
			"0.003": 22.4782891704,
			"0.004": 11.7587104962,
			"0.005": 2.96194709639,
			"0.006": 2.19299848938,
			"0.007": 3.28578203355,
			"0.008": 3.33021709955,
			"0.009": 3.29359927789,
			"0.01": 2.88486575198,
			"0.011": 2.28930542539,
			"0.012": 2.14018651826,
			"0.013": 0.391395005657,
			"0.014": 0.0,
			"0.015": 0.0,
			"0.016": 0.0,
			"0.017": 0.0,
			"0.018": 0.0,
			"0.019": 0.0,
			"0.02": 0.0,
			"0.021": 0.0,
			"0.022": 0.0,
			"0.023": 0.0,
			"0.024": 0.0,
			"0.025": 0.0
		}
	}
}
