{
	 "smiles": "CC1=NC(=NC(O)=C1)C1=CC=C(C=C1)C1=CC=CC=C1", 
	 "Tm": 549.15, 
	 "num_atms": 34, 
	 "gaussian": { 
		 "optdone": 1, 
		 "sigma_profile": "yes", 
		 "theory": "DFT", 
		 "functional": "B3LYP", 
		 "basiset": "6-31G**", 
		 "properties": { 
			 "R2extent": 9911.9868, 
			 "electric_dipole_moment_norm": 0.396507730063, 
			 "electric_quadrupole_moment_norm": 14.2465608327, 
			 "total_energy": -841.010187081, 
			 "HOMO_LUMO_gap": 0.16278, 
			 "cosmo_polarized_energy": -10.79, 
			 "cosmo_cavitation_energy": 38.59, 
			 "cosmo_dispersion_energy": -28.24, 
			 "cosmo_repulsion_energy": 2.14, 
			 "cosmo_total_nonelectrostatic_energy": 12.49, 
			 "SMD_solvation_energy": 4.83 
		},
		"coords": [
			{
				"x": 3.3689015323,
				"y": 5.6906977155,
				"z": 1.5705452455,
				"element": "C" 
			},
			{
				"x": 3.7403641993,
				"y": 4.2439087046,
				"z": 1.3692111285,
				"element": "C" 
			},
			{
				"x": 2.7468168619,
				"y": 3.396842441,
				"z": 1.0483360362,
				"element": "N" 
			},
			{
				"x": 3.0662035126,
				"y": 2.1062898963,
				"z": 0.8670035581,
				"element": "C" 
			},
			{
				"x": 4.3058156587,
				"y": 1.5938825439,
				"z": 0.9817753717,
				"element": "N" 
			},
			{
				"x": 5.277086712,
				"y": 2.4449330246,
				"z": 1.2990502294,
				"element": "C" 
			},
			{
				"x": 6.5236953282,
				"y": 1.9501809196,
				"z": 1.4175605381,
				"element": "O" 
			},
			{
				"x": 5.0567745999,
				"y": 3.808333568,
				"z": 1.5103163402,
				"element": "C" 
			},
			{
				"x": 1.9711901523,
				"y": 1.1710452831,
				"z": 0.5136504359,
				"element": "C" 
			},
			{
				"x": 0.6532858361,
				"y": 1.6346132046,
				"z": 0.3783939264,
				"element": "C" 
			},
			{
				"x": -0.3743620878,
				"y": 0.7591269028,
				"z": 0.0473146839,
				"element": "C" 
			},
			{
				"x": -0.1267922061,
				"y": -0.6095504046,
				"z": -0.1619315761,
				"element": "C" 
			},
			{
				"x": 1.1966267644,
				"y": -1.0652880607,
				"z": -0.0245906924,
				"element": "C" 
			},
			{
				"x": 2.227178817,
				"y": -0.193265156,
				"z": 0.3072344133,
				"element": "C" 
			},
			{
				"x": -1.2254925243,
				"y": -1.5419316129,
				"z": -0.5163381638,
				"element": "C" 
			},
			{
				"x": -1.2517800335,
				"y": -2.8536734402,
				"z": -0.0112908588,
				"element": "C" 
			},
			{
				"x": -2.2838115558,
				"y": -3.729552396,
				"z": -0.3444856876,
				"element": "C" 
			},
			{
				"x": -3.3137680711,
				"y": -3.3138702553,
				"z": -1.1906063987,
				"element": "C" 
			},
			{
				"x": -3.3017158898,
				"y": -2.0139909277,
				"z": -1.7002110557,
				"element": "C" 
			},
			{
				"x": -2.2695612025,
				"y": -1.1383181077,
				"z": -1.3669032886,
				"element": "C" 
			},
			{
				"x": 3.9120927227,
				"y": 6.3349254106,
				"z": 0.8704645458,
				"element": "H" 
			},
			{
				"x": 3.6251834079,
				"y": 6.0229977787,
				"z": 2.5825195221,
				"element": "H" 
			},
			{
				"x": 2.297433448,
				"y": 5.8222841422,
				"z": 1.4149902498,
				"element": "H" 
			},
			{
				"x": 6.4539798807,
				"y": 0.9993734593,
				"z": 1.2326610938,
				"element": "H" 
			},
			{
				"x": 5.871751911,
				"y": 4.4739680667,
				"z": 1.767948749,
				"element": "H" 
			},
			{
				"x": 0.4529022512,
				"y": 2.6865163666,
				"z": 0.5463029989,
				"element": "H" 
			},
			{
				"x": -1.3908224548,
				"y": 1.1343917407,
				"z": -0.0250009319,
				"element": "H" 
			},
			{
				"x": 1.4221886533,
				"y": -2.1117295998,
				"z": -0.2071514348,
				"element": "H" 
			},
			{
				"x": 3.2446430862,
				"y": -0.5551188503,
				"z": 0.4015935889,
				"element": "H" 
			},
			{
				"x": -0.470192885,
				"y": -3.1788081985,
				"z": 0.6689704151,
				"element": "H" 
			},
			{
				"x": -2.2878906738,
				"y": -4.7359722804,
				"z": 0.0647154758,
				"element": "H" 
			},
			{
				"x": -4.1179667151,
				"y": -3.9962074443,
				"z": -1.4502397211,
				"element": "H" 
			},
			{
				"x": -4.0935722974,
				"y": -1.6828004003,
				"z": -2.3662503569,
				"element": "H" 
			},
			{
				"x": -2.2559867387,
				"y": -0.1383340341,
				"z": -1.7901583797,
				"element": "H" 
			}
		],
		 "valence_orbital": [ 
			{
				"type": "occ",
				"energy": -0.25444,
				"method": "rhf"
			},
			{
				"type": "occ",
				"energy": -0.2526,
				"method": "rhf"
			},
			{
				"type": "occ",
				"energy": -0.25002,
				"method": "rhf"
			},
			{
				"type": "occ",
				"energy": -0.24841,
				"method": "rhf"
			},
			{
				"type": "occ",
				"energy": -0.21714,
				"method": "rhf"
			},
			{
				"type": "unocc",
				"energy": -0.05436,
				"method": "rhf"
			},
			{
				"type": "unocc",
				"energy": -0.01926,
				"method": "rhf"
			},
			{
				"type": "unocc",
				"energy": -0.00292,
				"method": "rhf"
			},
			{
				"type": "unocc",
				"energy": -0.00146,
				"method": "rhf"
			},
			{
				"type": "unocc",
				"energy": 0.00543,
				"method": "rhf"
			}
		],
		"cosmo_sigma_profile": { 
			"-0.025": 0.0,
			"-0.024": 0.0,
			"-0.023": 0.0,
			"-0.022": 0.0,
			"-0.021": 0.0,
			"-0.02": 0.0,
			"-0.019": 0.0,
			"-0.018": 0.159883578258,
			"-0.017": 0.623782179647,
			"-0.016": 1.08386140393,
			"-0.015": 0.683740813035,
			"-0.014": 0.40540223106,
			"-0.013": 0.599319470616,
			"-0.012": 0.61167347378,
			"-0.011": 0.962590916494,
			"-0.01": 0.884852955595,
			"-0.009": 0.323510202708,
			"-0.008": 0.730775830342,
			"-0.007": 2.72300620164,
			"-0.006": 9.6938599356,
			"-0.005": 24.6484727226,
			"-0.004": 26.5453708598,
			"-0.003": 24.571543408,
			"-0.002": 19.2565989285,
			"-0.001": 25.9980087729,
			"0.0": 26.2631684061,
			"0.001": 22.2755490684,
			"0.002": 22.9793342218,
			"0.003": 26.2111882493,
			"0.004": 26.3159879827,
			"0.005": 20.5750994251,
			"0.006": 9.3512010767,
			"0.007": 4.90307887774,
			"0.008": 3.33280325971,
			"0.009": 3.27994805519,
			"0.01": 2.92901804131,
			"0.011": 0.4865184954,
			"0.012": 0.0,
			"0.013": 0.0,
			"0.014": 0.0,
			"0.015": 0.0,
			"0.016": 0.0,
			"0.017": 0.0,
			"0.018": 0.0,
			"0.019": 0.0,
			"0.02": 0.0,
			"0.021": 0.0,
			"0.022": 0.0,
			"0.023": 0.0,
			"0.024": 0.0,
			"0.025": 0.0
		}
	}
}
