{
	 "smiles": "N1C2=CC=CC=C2C2=C3C=CC=CC3=CC=C12", 
	 "Tm": 407.15, 
	 "num_atms": 28, 
	 "gaussian": { 
		 "optdone": 1, 
		 "sigma_profile": "yes", 
		 "theory": "DFT", 
		 "functional": "B3LYP", 
		 "basiset": "6-31G**", 
		 "properties": { 
			 "R2extent": 4157.7615, 
			 "electric_dipole_moment_norm": 2.00073275577, 
			 "electric_quadrupole_moment_norm": 14.6668213179, 
			 "total_energy": -671.119436901, 
			 "HOMO_LUMO_gap": 0.15488, 
			 "cosmo_polarized_energy": -10.62, 
			 "cosmo_cavitation_energy": 30.91, 
			 "cosmo_dispersion_energy": -23.4, 
			 "cosmo_repulsion_energy": 1.73, 
			 "cosmo_total_nonelectrostatic_energy": 9.24, 
			 "SMD_solvation_energy": 4.22 
		},
		"coords": [
			{
				"x": -0.9207361272,
				"y": -2.4965483492,
				"z": 1.4584262684,
				"element": "N" 
			},
			{
				"x": 0.3674112777,
				"y": -2.5245640131,
				"z": 0.9572860339,
				"element": "C" 
			},
			{
				"x": 1.3447941797,
				"y": -3.5122072323,
				"z": 1.0989053088,
				"element": "C" 
			},
			{
				"x": 2.5760600443,
				"y": -3.296193356,
				"z": 0.4887591194,
				"element": "C" 
			},
			{
				"x": 2.8220537874,
				"y": -2.1214877919,
				"z": -0.244219136,
				"element": "C" 
			},
			{
				"x": 1.8442408429,
				"y": -1.1415106875,
				"z": -0.3815079846,
				"element": "C" 
			},
			{
				"x": 0.5871589831,
				"y": -1.3241250931,
				"z": 0.2209963425,
				"element": "C" 
			},
			{
				"x": -0.644073601,
				"y": -0.5577124104,
				"z": 0.3006533499,
				"element": "C" 
			},
			{
				"x": -1.0726483984,
				"y": 0.7085909682,
				"z": -0.2112069884,
				"element": "C" 
			},
			{
				"x": -0.2618684396,
				"y": 1.5656746639,
				"z": -0.9986610761,
				"element": "C" 
			},
			{
				"x": -0.7373410657,
				"y": 2.7760632052,
				"z": -1.4615237807,
				"element": "C" 
			},
			{
				"x": -2.0514723755,
				"y": 3.195000418,
				"z": -1.1611853419,
				"element": "C" 
			},
			{
				"x": -2.8662366114,
				"y": 2.3863320022,
				"z": -0.3982133412,
				"element": "C" 
			},
			{
				"x": -2.4110278439,
				"y": 1.1367040218,
				"z": 0.0939744856,
				"element": "C" 
			},
			{
				"x": -3.2681509205,
				"y": 0.3102609612,
				"z": 0.883615006,
				"element": "C" 
			},
			{
				"x": -2.8538305252,
				"y": -0.903374141,
				"z": 1.372847359,
				"element": "C" 
			},
			{
				"x": -1.539481444,
				"y": -1.3229135704,
				"z": 1.072658648,
				"element": "C" 
			},
			{
				"x": -1.3438797611,
				"y": -3.2187126501,
				"z": 2.0179676242,
				"element": "H" 
			},
			{
				"x": 1.1490124929,
				"y": -4.4177378198,
				"z": 1.6663837943,
				"element": "H" 
			},
			{
				"x": 3.3568587112,
				"y": -4.0454497074,
				"z": 0.5804220676,
				"element": "H" 
			},
			{
				"x": 3.7919097314,
				"y": -1.9773113678,
				"z": -0.7108349048,
				"element": "H" 
			},
			{
				"x": 2.0662890204,
				"y": -0.2478234003,
				"z": -0.9531818093,
				"element": "H" 
			},
			{
				"x": 0.7500942203,
				"y": 1.2667138343,
				"z": -1.242601899,
				"element": "H" 
			},
			{
				"x": -0.0932705396,
				"y": 3.4117832843,
				"z": -2.0626875931,
				"element": "H" 
			},
			{
				"x": -2.415777765,
				"y": 4.1491485533,
				"z": -1.5302994837,
				"element": "H" 
			},
			{
				"x": -3.8804229738,
				"y": 2.6982234854,
				"z": -0.1602272444,
				"element": "H" 
			},
			{
				"x": -4.2732527781,
				"y": 0.6652587949,
				"z": 1.0947167385,
				"element": "H" 
			},
			{
				"x": -3.5131121215,
				"y": -1.5245826022,
				"z": 1.9724384372,
				"element": "H" 
			}
		],
		 "valence_orbital": [ 
			{
				"type": "occ",
				"energy": -0.28898,
				"method": "rhf"
			},
			{
				"type": "occ",
				"energy": -0.24585,
				"method": "rhf"
			},
			{
				"type": "occ",
				"energy": -0.24314,
				"method": "rhf"
			},
			{
				"type": "occ",
				"energy": -0.20553,
				"method": "rhf"
			},
			{
				"type": "occ",
				"energy": -0.19392,
				"method": "rhf"
			},
			{
				"type": "unocc",
				"energy": -0.03904,
				"method": "rhf"
			},
			{
				"type": "unocc",
				"energy": -0.00199,
				"method": "rhf"
			},
			{
				"type": "unocc",
				"energy": 0.00723,
				"method": "rhf"
			},
			{
				"type": "unocc",
				"energy": 0.02758,
				"method": "rhf"
			},
			{
				"type": "unocc",
				"energy": 0.05779,
				"method": "rhf"
			}
		],
		"cosmo_sigma_profile": { 
			"-0.025": 0.0,
			"-0.024": 0.0,
			"-0.023": 0.0,
			"-0.022": 0.0,
			"-0.021": 0.0,
			"-0.02": 0.0,
			"-0.019": 0.0,
			"-0.018": 0.0,
			"-0.017": 0.0,
			"-0.016": 0.348533269197,
			"-0.015": 1.45859372154,
			"-0.014": 1.48781177042,
			"-0.013": 1.11435297652,
			"-0.012": 1.62358487428,
			"-0.011": 1.15533460577,
			"-0.01": 1.38584001035,
			"-0.009": 1.49195060218,
			"-0.008": 2.02913864461,
			"-0.007": 4.1333625786,
			"-0.006": 11.6543359857,
			"-0.005": 17.9683881049,
			"-0.004": 18.5746450643,
			"-0.003": 18.5515312335,
			"-0.002": 13.6234387833,
			"-0.001": 13.5301191388,
			"0.0": 12.9136070281,
			"0.001": 11.271635655,
			"0.002": 13.6692206408,
			"0.003": 21.645388537,
			"0.004": 29.570795755,
			"0.005": 30.1541729795,
			"0.006": 16.1813440857,
			"0.007": 3.61022050289,
			"0.008": 0.0,
			"0.009": 0.0,
			"0.01": 0.0,
			"0.011": 0.0,
			"0.012": 0.0,
			"0.013": 0.0,
			"0.014": 0.0,
			"0.015": 0.0,
			"0.016": 0.0,
			"0.017": 0.0,
			"0.018": 0.0,
			"0.019": 0.0,
			"0.02": 0.0,
			"0.021": 0.0,
			"0.022": 0.0,
			"0.023": 0.0,
			"0.024": 0.0,
			"0.025": 0.0
		}
	}
}
