{
	 "smiles": "ClC1=CC2=C(OCO2)C=C1C=O", 
	 "Tm": 388.65, 
	 "num_atms": 17, 
	 "gaussian": { 
		 "optdone": 1, 
		 "sigma_profile": "yes", 
		 "theory": "DFT", 
		 "functional": "B3LYP", 
		 "basiset": "6-31G**", 
		 "properties": { 
			 "R2extent": 2858.6517, 
			 "electric_dipole_moment_norm": 4.15433389125, 
			 "electric_quadrupole_moment_norm": 7.63820824867, 
			 "total_energy": -993.688189122, 
			 "HOMO_LUMO_gap": 0.16225, 
			 "cosmo_polarized_energy": -8.87, 
			 "cosmo_cavitation_energy": 23.57, 
			 "cosmo_dispersion_energy": -18.05, 
			 "cosmo_repulsion_energy": 1.42, 
			 "cosmo_total_nonelectrostatic_energy": 6.94, 
			 "SMD_solvation_energy": 5.62 
		},
		"coords": [
			{
				"x": 1.7315152886,
				"y": 1.9355713357,
				"z": 3.1679133526,
				"element": "Cl" 
			},
			{
				"x": 0.9670744045,
				"y": 1.0199154042,
				"z": 1.8721616691,
				"element": "C" 
			},
			{
				"x": 1.7054767631,
				"y": 0.8789164071,
				"z": 0.686034235,
				"element": "C" 
			},
			{
				"x": 1.1034746641,
				"y": 0.1603316795,
				"z": -0.3283059231,
				"element": "C" 
			},
			{
				"x": -0.1704013547,
				"y": -0.4001390124,
				"z": -0.1926001312,
				"element": "C" 
			},
			{
				"x": -0.5087296941,
				"y": -1.0516960827,
				"z": -1.3514101587,
				"element": "O" 
			},
			{
				"x": 0.5983956604,
				"y": -0.8900400968,
				"z": -2.2426173908,
				"element": "C" 
			},
			{
				"x": 1.6045272881,
				"y": -0.1165375029,
				"z": -1.5637080909,
				"element": "O" 
			},
			{
				"x": -0.8943088142,
				"y": -0.2644800895,
				"z": 0.9641197021,
				"element": "C" 
			},
			{
				"x": -0.3130188927,
				"y": 0.4663766054,
				"z": 2.0315711038,
				"element": "C" 
			},
			{
				"x": -1.1128925327,
				"y": 0.6005127618,
				"z": 3.2723358892,
				"element": "C" 
			},
			{
				"x": -2.2238637951,
				"y": 0.1171510439,
				"z": 3.4035712025,
				"element": "O" 
			},
			{
				"x": 2.6918460151,
				"y": 1.3110139367,
				"z": 0.5765058857,
				"element": "H" 
			},
			{
				"x": 1.0124904959,
				"y": -1.8713398874,
				"z": -2.5010069445,
				"element": "H" 
			},
			{
				"x": 0.2755536457,
				"y": -0.3512651151,
				"z": -3.14077324,
				"element": "H" 
			},
			{
				"x": -1.8831376478,
				"y": -0.6862724423,
				"z": 1.1010588358,
				"element": "H" 
			},
			{
				"x": -0.641601494,
				"y": 1.1733810547,
				"z": 4.0910500032,
				"element": "H" 
			}
		],
		 "valence_orbital": [ 
			{
				"type": "occ",
				"energy": -0.32986,
				"method": "rhf"
			},
			{
				"type": "occ",
				"energy": -0.31064,
				"method": "rhf"
			},
			{
				"type": "occ",
				"energy": -0.26718,
				"method": "rhf"
			},
			{
				"type": "occ",
				"energy": -0.25633,
				"method": "rhf"
			},
			{
				"type": "occ",
				"energy": -0.22896,
				"method": "rhf"
			},
			{
				"type": "unocc",
				"energy": -0.06671,
				"method": "rhf"
			},
			{
				"type": "unocc",
				"energy": -0.02166,
				"method": "rhf"
			},
			{
				"type": "unocc",
				"energy": 0.01465,
				"method": "rhf"
			},
			{
				"type": "unocc",
				"energy": 0.03982,
				"method": "rhf"
			},
			{
				"type": "unocc",
				"energy": 0.08295,
				"method": "rhf"
			}
		],
		"cosmo_sigma_profile": { 
			"-0.025": 0.0,
			"-0.024": 0.0,
			"-0.023": 0.0,
			"-0.022": 0.0,
			"-0.021": 0.0,
			"-0.02": 0.0,
			"-0.019": 0.0,
			"-0.018": 0.0,
			"-0.017": 0.0,
			"-0.016": 0.0,
			"-0.015": 0.0,
			"-0.014": 0.0,
			"-0.013": 0.0,
			"-0.012": 0.0,
			"-0.011": 0.0,
			"-0.01": 0.00701827234909,
			"-0.009": 2.60563018129,
			"-0.008": 8.73836228836,
			"-0.007": 9.79564383915,
			"-0.006": 8.87487458316,
			"-0.005": 8.54860746324,
			"-0.004": 9.60423533984,
			"-0.003": 11.20947811,
			"-0.002": 11.230398068,
			"-0.001": 15.4471339741,
			"0.0": 21.0637589859,
			"0.001": 22.5279774798,
			"0.002": 12.5682045072,
			"0.003": 10.3350227371,
			"0.004": 10.1180237394,
			"0.005": 4.48909532653,
			"0.006": 2.67976763432,
			"0.007": 5.4302414301,
			"0.008": 4.04807791097,
			"0.009": 3.10909280868,
			"0.01": 3.12778182276,
			"0.011": 3.84414711309,
			"0.012": 2.39297298134,
			"0.013": 0.5959159194,
			"0.014": 0.0,
			"0.015": 0.0,
			"0.016": 0.0,
			"0.017": 0.0,
			"0.018": 0.0,
			"0.019": 0.0,
			"0.02": 0.0,
			"0.021": 0.0,
			"0.022": 0.0,
			"0.023": 0.0,
			"0.024": 0.0,
			"0.025": 0.0
		}
	}
}
