{
	 "smiles": "CC(C)(C)OC(=O)NCC1=CC=C(O1)C(O)=O", 
	 "Tm": 405.15, 
	 "num_atms": 32, 
	 "gaussian": { 
		 "optdone": 1, 
		 "sigma_profile": "yes", 
		 "theory": "DFT", 
		 "functional": "B3LYP", 
		 "basiset": "6-31G**", 
		 "properties": { 
			 "R2extent": 5279.6619, 
			 "electric_dipole_moment_norm": 2.44524493661, 
			 "electric_quadrupole_moment_norm": 25.6498750537, 
			 "total_energy": -859.110999978, 
			 "HOMO_LUMO_gap": 0.19175, 
			 "cosmo_polarized_energy": -17.67, 
			 "cosmo_cavitation_energy": 36.43, 
			 "cosmo_dispersion_energy": -24.16, 
			 "cosmo_repulsion_energy": 1.88, 
			 "cosmo_total_nonelectrostatic_energy": 14.16, 
			 "SMD_solvation_energy": 8.28 
		},
		"coords": [
			{
				"x": -0.026746552,
				"y": 1.9882670737,
				"z": 2.3628837974,
				"element": "C" 
			},
			{
				"x": 0.2903437315,
				"y": 0.5680013779,
				"z": 1.8854241513,
				"element": "C" 
			},
			{
				"x": -0.7043708095,
				"y": -0.4674355912,
				"z": 2.4207836826,
				"element": "C" 
			},
			{
				"x": 1.7252600254,
				"y": 0.1720361712,
				"z": 2.2416897467,
				"element": "C" 
			},
			{
				"x": 0.3098020673,
				"y": 0.5311693241,
				"z": 0.4121129801,
				"element": "O" 
			},
			{
				"x": -0.8108148165,
				"y": 0.7502265221,
				"z": -0.3044526252,
				"element": "C" 
			},
			{
				"x": -1.8965910623,
				"y": 1.1019645931,
				"z": 0.124384218,
				"element": "O" 
			},
			{
				"x": -0.573321026,
				"y": 0.561786922,
				"z": -1.6505485185,
				"element": "N" 
			},
			{
				"x": 0.5772615535,
				"y": -0.1445829334,
				"z": -2.2030117161,
				"element": "C" 
			},
			{
				"x": 0.442162008,
				"y": -1.6376307605,
				"z": -2.215891289,
				"element": "C" 
			},
			{
				"x": 0.3089145185,
				"y": -2.5551356247,
				"z": -3.2267450168,
				"element": "C" 
			},
			{
				"x": 0.2020602916,
				"y": -3.831089963,
				"z": -2.604621238,
				"element": "C" 
			},
			{
				"x": 0.2744015692,
				"y": -3.6046049936,
				"z": -1.2555020816,
				"element": "C" 
			},
			{
				"x": 0.4243144955,
				"y": -2.2665327091,
				"z": -1.0110421356,
				"element": "O" 
			},
			{
				"x": 0.2193974935,
				"y": -4.5479337224,
				"z": -0.1411222783,
				"element": "C" 
			},
			{
				"x": 0.3322251083,
				"y": -3.950072032,
				"z": 1.0704187378,
				"element": "O" 
			},
			{
				"x": 0.0877471669,
				"y": -5.7483937926,
				"z": -0.2814292855,
				"element": "O" 
			},
			{
				"x": 0.6814186506,
				"y": 2.7026539169,
				"z": 1.9309262043,
				"element": "H" 
			},
			{
				"x": -1.0388132263,
				"y": 2.2764325338,
				"z": 2.0772965195,
				"element": "H" 
			},
			{
				"x": 0.0623734736,
				"y": 2.0383299136,
				"z": 3.4530952582,
				"element": "H" 
			},
			{
				"x": -0.6190840905,
				"y": -0.5218027066,
				"z": 3.5112329069,
				"element": "H" 
			},
			{
				"x": -1.7285061091,
				"y": -0.1958367669,
				"z": 2.163248266,
				"element": "H" 
			},
			{
				"x": -0.4802114733,
				"y": -1.4553298339,
				"z": 2.0074696962,
				"element": "H" 
			},
			{
				"x": 1.9517786802,
				"y": -0.8260531137,
				"z": 1.8561046444,
				"element": "H" 
			},
			{
				"x": 2.440400805,
				"y": 0.8818455903,
				"z": 1.8150191733,
				"element": "H" 
			},
			{
				"x": 1.8532828715,
				"y": 0.1642275642,
				"z": 3.3282623855,
				"element": "H" 
			},
			{
				"x": -1.4254796052,
				"y": 0.5709663193,
				"z": -2.1931232245,
				"element": "H" 
			},
			{
				"x": 0.733045774,
				"y": 0.1930816785,
				"z": -3.2319814097,
				"element": "H" 
			},
			{
				"x": 1.4547920149,
				"y": 0.1451784063,
				"z": -1.621512529,
				"element": "H" 
			},
			{
				"x": 0.290964224,
				"y": -2.3383554405,
				"z": -4.2853839026,
				"element": "H" 
			},
			{
				"x": 0.085415196,
				"y": -4.7974443951,
				"z": -3.0721789895,
				"element": "H" 
			},
			{
				"x": 0.2745770516,
				"y": -4.6681335276,
				"z": 1.7222938716,
				"element": "H" 
			}
		],
		 "valence_orbital": [ 
			{
				"type": "occ",
				"energy": -0.28699,
				"method": "rhf"
			},
			{
				"type": "occ",
				"energy": -0.28414,
				"method": "rhf"
			},
			{
				"type": "occ",
				"energy": -0.26664,
				"method": "rhf"
			},
			{
				"type": "occ",
				"energy": -0.25781,
				"method": "rhf"
			},
			{
				"type": "occ",
				"energy": -0.24209,
				"method": "rhf"
			},
			{
				"type": "unocc",
				"energy": -0.05034,
				"method": "rhf"
			},
			{
				"type": "unocc",
				"energy": 0.02819,
				"method": "rhf"
			},
			{
				"type": "unocc",
				"energy": 0.05758,
				"method": "rhf"
			},
			{
				"type": "unocc",
				"energy": 0.06951,
				"method": "rhf"
			},
			{
				"type": "unocc",
				"energy": 0.08195,
				"method": "rhf"
			}
		],
		"cosmo_sigma_profile": { 
			"-0.025": 0.0,
			"-0.024": 0.0,
			"-0.023": 0.0,
			"-0.022": 0.0,
			"-0.021": 0.0,
			"-0.02": 0.0,
			"-0.019": 0.198261548102,
			"-0.018": 0.852080334571,
			"-0.017": 0.903137482369,
			"-0.016": 1.1334768215,
			"-0.015": 0.568226005877,
			"-0.014": 1.47550909979,
			"-0.013": 1.17228164081,
			"-0.012": 2.03098456096,
			"-0.011": 2.00350448309,
			"-0.01": 2.022450011,
			"-0.009": 1.78634625713,
			"-0.008": 5.91213742317,
			"-0.007": 8.53080962548,
			"-0.006": 8.83553059937,
			"-0.005": 8.63748062769,
			"-0.004": 17.3885056009,
			"-0.003": 21.3675307596,
			"-0.002": 20.4743272418,
			"-0.001": 22.5593088113,
			"0.0": 32.8355497618,
			"0.001": 31.2675264703,
			"0.002": 20.4218948064,
			"0.003": 14.0881230862,
			"0.004": 11.5666875708,
			"0.005": 9.35370250242,
			"0.006": 7.78669964332,
			"0.007": 5.46833868079,
			"0.008": 3.30437131537,
			"0.009": 2.07495237529,
			"0.01": 3.30706622182,
			"0.011": 5.71743239218,
			"0.012": 6.83946685715,
			"0.013": 3.52406560116,
			"0.014": 1.62559545843,
			"0.015": 0.0,
			"0.016": 0.0,
			"0.017": 0.0,
			"0.018": 0.0,
			"0.019": 0.0,
			"0.02": 0.0,
			"0.021": 0.0,
			"0.022": 0.0,
			"0.023": 0.0,
			"0.024": 0.0,
			"0.025": 0.0
		}
	}
}
