{
	 "smiles": "COC(=O)C(=O)CC(=O)C1=CC=C(C)C=C1", 
	 "Tm": 360.15, 
	 "num_atms": 28, 
	 "gaussian": { 
		 "optdone": 1, 
		 "sigma_profile": "yes", 
		 "theory": "DFT", 
		 "functional": "B3LYP", 
		 "basiset": "6-31G**", 
		 "properties": { 
			 "R2extent": 4811.495, 
			 "electric_dipole_moment_norm": 2.33038833674, 
			 "electric_quadrupole_moment_norm": 26.4007396696, 
			 "total_energy": -765.398437432, 
			 "HOMO_LUMO_gap": 0.17044, 
			 "cosmo_polarized_energy": -14.24, 
			 "cosmo_cavitation_energy": 33.48, 
			 "cosmo_dispersion_energy": -23.22, 
			 "cosmo_repulsion_energy": 1.83, 
			 "cosmo_total_nonelectrostatic_energy": 12.09, 
			 "SMD_solvation_energy": 8.63 
		},
		"coords": [
			{
				"x": -2.7929009399,
				"y": -1.1246407732,
				"z": -4.1342418458,
				"element": "C" 
			},
			{
				"x": -1.5731964212,
				"y": -0.6946768614,
				"z": -3.499069916,
				"element": "O" 
			},
			{
				"x": -0.8806166251,
				"y": -1.6571859706,
				"z": -2.8691796884,
				"element": "C" 
			},
			{
				"x": -1.1884123525,
				"y": -2.8232917325,
				"z": -2.8211523782,
				"element": "O" 
			},
			{
				"x": 0.3982426882,
				"y": -1.091335823,
				"z": -2.2025776375,
				"element": "C" 
			},
			{
				"x": 1.283271488,
				"y": -1.864973201,
				"z": -1.9116702049,
				"element": "O" 
			},
			{
				"x": 0.459411235,
				"y": 0.4011652618,
				"z": -1.9140424876,
				"element": "C" 
			},
			{
				"x": -0.3662891064,
				"y": 0.7800094749,
				"z": -0.6606039196,
				"element": "C" 
			},
			{
				"x": -1.484400876,
				"y": 1.2468653647,
				"z": -0.8040990106,
				"element": "O" 
			},
			{
				"x": 0.2325303894,
				"y": 0.571284129,
				"z": 0.6871834153,
				"element": "C" 
			},
			{
				"x": 1.4554347507,
				"y": -0.0855655737,
				"z": 0.894842228,
				"element": "C" 
			},
			{
				"x": 1.9492943807,
				"y": -0.2540340734,
				"z": 2.1873565874,
				"element": "C" 
			},
			{
				"x": 1.2521766935,
				"y": 0.2322932844,
				"z": 3.3005095709,
				"element": "C" 
			},
			{
				"x": 1.8055322154,
				"y": 0.0778980527,
				"z": 4.6956647473,
				"element": "C" 
			},
			{
				"x": 0.0262048788,
				"y": 0.8850479391,
				"z": 3.0844452945,
				"element": "C" 
			},
			{
				"x": -0.4785411335,
				"y": 1.0495667717,
				"z": 1.8025068544,
				"element": "C" 
			},
			{
				"x": -2.5788697244,
				"y": -1.883217799,
				"z": -4.8909066046,
				"element": "H" 
			},
			{
				"x": -3.4758640405,
				"y": -1.5430034859,
				"z": -3.3915792567,
				"element": "H" 
			},
			{
				"x": -3.2178378964,
				"y": -0.2308765016,
				"z": -4.5885976386,
				"element": "H" 
			},
			{
				"x": 1.5089902746,
				"y": 0.6719538471,
				"z": -1.7845515258,
				"element": "H" 
			},
			{
				"x": 0.0192676584,
				"y": 0.9567254988,
				"z": -2.7421762682,
				"element": "H" 
			},
			{
				"x": 2.010439205,
				"y": -0.4985807911,
				"z": 0.0595336771,
				"element": "H" 
			},
			{
				"x": 2.8914446665,
				"y": -0.7755283254,
				"z": 2.3336048343,
				"element": "H" 
			},
			{
				"x": 2.5828631817,
				"y": -0.6897672018,
				"z": 4.7369279109,
				"element": "H" 
			},
			{
				"x": 1.0199100032,
				"y": -0.1919675964,
				"z": 5.4086275408,
				"element": "H" 
			},
			{
				"x": 2.2500401563,
				"y": 1.0175248722,
				"z": 5.0467929291,
				"element": "H" 
			},
			{
				"x": -0.5345381639,
				"y": 1.2627195415,
				"z": 3.9359120007,
				"element": "H" 
			},
			{
				"x": -1.4276865853,
				"y": 1.546791672,
				"z": 1.6327407918,
				"element": "H" 
			}
		],
		 "valence_orbital": [ 
			{
				"type": "occ",
				"energy": -0.30318,
				"method": "rhf"
			},
			{
				"type": "occ",
				"energy": -0.2698,
				"method": "rhf"
			},
			{
				"type": "occ",
				"energy": -0.26136,
				"method": "rhf"
			},
			{
				"type": "occ",
				"energy": -0.25444,
				"method": "rhf"
			},
			{
				"type": "occ",
				"energy": -0.25335,
				"method": "rhf"
			},
			{
				"type": "unocc",
				"energy": -0.08291,
				"method": "rhf"
			},
			{
				"type": "unocc",
				"energy": -0.05587,
				"method": "rhf"
			},
			{
				"type": "unocc",
				"energy": -0.01129,
				"method": "rhf"
			},
			{
				"type": "unocc",
				"energy": 0.03119,
				"method": "rhf"
			},
			{
				"type": "unocc",
				"energy": 0.05247,
				"method": "rhf"
			}
		],
		"cosmo_sigma_profile": { 
			"-0.025": 0.0,
			"-0.024": 0.0,
			"-0.023": 0.0,
			"-0.022": 0.0,
			"-0.021": 0.0,
			"-0.02": 0.0,
			"-0.019": 0.0,
			"-0.018": 0.0,
			"-0.017": 0.0,
			"-0.016": 0.0,
			"-0.015": 0.0,
			"-0.014": 0.0,
			"-0.013": 0.0,
			"-0.012": 0.0,
			"-0.011": 0.0,
			"-0.01": 0.113569336796,
			"-0.009": 0.557072789782,
			"-0.008": 3.06904560688,
			"-0.007": 9.321061651,
			"-0.006": 17.8723582337,
			"-0.005": 26.9491340689,
			"-0.004": 30.3200485321,
			"-0.003": 19.8526864483,
			"-0.002": 16.959749104,
			"-0.001": 17.5638102466,
			"0.0": 17.8575145391,
			"0.001": 13.3672539773,
			"0.002": 13.3330850979,
			"0.003": 15.5045067957,
			"0.004": 15.1277346589,
			"0.005": 5.37277897752,
			"0.006": 4.08887137509,
			"0.007": 4.93187295185,
			"0.008": 6.13791904999,
			"0.009": 7.62845469054,
			"0.01": 8.96479717132,
			"0.011": 8.42367833567,
			"0.012": 3.26494539298,
			"0.013": 0.103151486024,
			"0.014": 0.0,
			"0.015": 0.0,
			"0.016": 0.0,
			"0.017": 0.0,
			"0.018": 0.0,
			"0.019": 0.0,
			"0.02": 0.0,
			"0.021": 0.0,
			"0.022": 0.0,
			"0.023": 0.0,
			"0.024": 0.0,
			"0.025": 0.0
		}
	}
}
