{
	 "smiles": "COC1=CC=C(C=CC(O)=O)C=C1O", 
	 "Tm": 507.15, 
	 "num_atms": 24, 
	 "gaussian": { 
		 "optdone": 1, 
		 "sigma_profile": "yes", 
		 "theory": "DFT", 
		 "functional": "B3LYP", 
		 "basiset": "6-31G**", 
		 "properties": { 
			 "R2extent": 4675.1298, 
			 "electric_dipole_moment_norm": 3.97899857376, 
			 "electric_quadrupole_moment_norm": 16.0350630597, 
			 "total_energy": -687.965465268, 
			 "HOMO_LUMO_gap": 0.15297, 
			 "cosmo_polarized_energy": -16.59, 
			 "cosmo_cavitation_energy": 29.3, 
			 "cosmo_dispersion_energy": -21.42, 
			 "cosmo_repulsion_energy": 1.69, 
			 "cosmo_total_nonelectrostatic_energy": 9.58, 
			 "SMD_solvation_energy": 7.59 
		},
		"coords": [
			{
				"x": -2.5101025373,
				"y": 1.8233332329,
				"z": 2.443999549,
				"element": "C" 
			},
			{
				"x": -1.4217289952,
				"y": 2.1406276364,
				"z": 1.568029903,
				"element": "O" 
			},
			{
				"x": -0.7702332951,
				"y": 1.1022454247,
				"z": 0.9655055164,
				"element": "C" 
			},
			{
				"x": -0.6592761126,
				"y": 1.1184520641,
				"z": -0.4289727081,
				"element": "C" 
			},
			{
				"x": 0.0404044748,
				"y": 0.1334345799,
				"z": -1.1146285468,
				"element": "C" 
			},
			{
				"x": 0.6507895367,
				"y": -0.921526305,
				"z": -0.413142477,
				"element": "C" 
			},
			{
				"x": 1.3930314587,
				"y": -2.0007834606,
				"z": -1.0611561761,
				"element": "C" 
			},
			{
				"x": 1.6077927574,
				"y": -2.1669535151,
				"z": -2.3813215111,
				"element": "C" 
			},
			{
				"x": 2.3688205549,
				"y": -3.2876807342,
				"z": -2.9515144266,
				"element": "C" 
			},
			{
				"x": 2.8500669522,
				"y": -4.1611069996,
				"z": -2.0224866637,
				"element": "O" 
			},
			{
				"x": 2.5664286525,
				"y": -3.4458780559,
				"z": -4.1420839355,
				"element": "O" 
			},
			{
				"x": 0.5425823007,
				"y": -0.9323599875,
				"z": 0.9898232568,
				"element": "C" 
			},
			{
				"x": -0.1427362971,
				"y": 0.0624758903,
				"z": 1.6832796349,
				"element": "C" 
			},
			{
				"x": -0.221266886,
				"y": 0.0851127673,
				"z": 3.0492765904,
				"element": "O" 
			},
			{
				"x": -3.2613921301,
				"y": 1.215829712,
				"z": 1.9239264656,
				"element": "H" 
			},
			{
				"x": -2.1705143007,
				"y": 1.2975467592,
				"z": 3.3390618745,
				"element": "H" 
			},
			{
				"x": -2.9537132759,
				"y": 2.7808604345,
				"z": 2.7228236191,
				"element": "H" 
			},
			{
				"x": -1.1393337808,
				"y": 1.9354367147,
				"z": -0.9577756465,
				"element": "H" 
			},
			{
				"x": 0.1023911378,
				"y": 0.180855124,
				"z": -2.1963387885,
				"element": "H" 
			},
			{
				"x": 1.8140178535,
				"y": -2.7478403443,
				"z": -0.3915830874,
				"element": "H" 
			},
			{
				"x": 1.2301585029,
				"y": -1.4773976002,
				"z": -3.1284408072,
				"element": "H" 
			},
			{
				"x": 3.3240490181,
				"y": -4.8387395448,
				"z": -2.5308857053,
				"element": "H" 
			},
			{
				"x": 1.0200415779,
				"y": -1.7329466503,
				"z": 1.5528887849,
				"element": "H" 
			},
			{
				"x": 0.2621228328,
				"y": -0.6722971425,
				"z": 3.4040152853,
				"element": "H" 
			}
		],
		 "valence_orbital": [ 
			{
				"type": "occ",
				"energy": -0.30024,
				"method": "rhf"
			},
			{
				"type": "occ",
				"energy": -0.27971,
				"method": "rhf"
			},
			{
				"type": "occ",
				"energy": -0.2674,
				"method": "rhf"
			},
			{
				"type": "occ",
				"energy": -0.24745,
				"method": "rhf"
			},
			{
				"type": "occ",
				"energy": -0.21759,
				"method": "rhf"
			},
			{
				"type": "unocc",
				"energy": -0.06462,
				"method": "rhf"
			},
			{
				"type": "unocc",
				"energy": -0.00454,
				"method": "rhf"
			},
			{
				"type": "unocc",
				"energy": 0.02607,
				"method": "rhf"
			},
			{
				"type": "unocc",
				"energy": 0.05481,
				"method": "rhf"
			},
			{
				"type": "unocc",
				"energy": 0.08101,
				"method": "rhf"
			}
		],
		"cosmo_sigma_profile": { 
			"-0.025": 0.0,
			"-0.024": 0.0,
			"-0.023": 0.0,
			"-0.022": 0.0,
			"-0.021": 0.0,
			"-0.02": 0.0,
			"-0.019": 0.0,
			"-0.018": 1.05486890687,
			"-0.017": 2.31972211106,
			"-0.016": 2.17338749131,
			"-0.015": 1.81040911646,
			"-0.014": 1.57538434401,
			"-0.013": 1.17227693609,
			"-0.012": 1.80575774644,
			"-0.011": 2.00255104036,
			"-0.01": 1.79742223894,
			"-0.009": 1.13166279376,
			"-0.008": 5.54638122736,
			"-0.007": 5.97787902194,
			"-0.006": 8.84171022453,
			"-0.005": 11.8310606524,
			"-0.004": 12.7166166859,
			"-0.003": 15.4492867836,
			"-0.002": 12.9404780518,
			"-0.001": 12.6771702375,
			"0.0": 14.3453191047,
			"0.001": 15.3480580853,
			"0.002": 19.08203423,
			"0.003": 22.2651187615,
			"0.004": 14.3373717878,
			"0.005": 7.98014793977,
			"0.006": 5.15679741818,
			"0.007": 5.22844249139,
			"0.008": 6.09467658797,
			"0.009": 4.21241984081,
			"0.01": 4.13740493573,
			"0.011": 3.60422568331,
			"0.012": 5.60951870054,
			"0.013": 2.87106220259,
			"0.014": 0.191321084036,
			"0.015": 0.0,
			"0.016": 0.0,
			"0.017": 0.0,
			"0.018": 0.0,
			"0.019": 0.0,
			"0.02": 0.0,
			"0.021": 0.0,
			"0.022": 0.0,
			"0.023": 0.0,
			"0.024": 0.0,
			"0.025": 0.0
		}
	}
}
