{
	 "smiles": "SC1=NC=CC(=N1)C1=CC=CS1", 
	 "Tm": 483.15, 
	 "num_atms": 18, 
	 "gaussian": { 
		 "optdone": 1, 
		 "sigma_profile": "yes", 
		 "theory": "DFT", 
		 "functional": "B3LYP", 
		 "basiset": "6-31G**", 
		 "properties": { 
			 "R2extent": 3507.0508, 
			 "electric_dipole_moment_norm": 3.69026089593, 
			 "electric_quadrupole_moment_norm": 10.9843514406, 
			 "total_energy": -1214.32930884, 
			 "HOMO_LUMO_gap": 0.16286, 
			 "cosmo_polarized_energy": -8.97, 
			 "cosmo_cavitation_energy": 26.06, 
			 "cosmo_dispersion_energy": -20.48, 
			 "cosmo_repulsion_energy": 1.52, 
			 "cosmo_total_nonelectrostatic_energy": 7.11, 
			 "SMD_solvation_energy": 1.48 
		},
		"coords": [
			{
				"x": 3.3581732775,
				"y": 0.2901416463,
				"z": -2.8535922862,
				"element": "S" 
			},
			{
				"x": 2.1104895949,
				"y": -0.6601991909,
				"z": -2.0109870272,
				"element": "C" 
			},
			{
				"x": 1.7508274126,
				"y": -1.7798633151,
				"z": -2.6524284119,
				"element": "N" 
			},
			{
				"x": 0.8136557789,
				"y": -2.5076555809,
				"z": -2.0357844056,
				"element": "C" 
			},
			{
				"x": 0.245560409,
				"y": -2.1434881405,
				"z": -0.8207545496,
				"element": "C" 
			},
			{
				"x": 0.6988815953,
				"y": -0.948572336,
				"z": -0.23894468,
				"element": "C" 
			},
			{
				"x": 1.6441308854,
				"y": -0.203576341,
				"z": -0.8494735654,
				"element": "N" 
			},
			{
				"x": 0.1976564068,
				"y": -0.4339026392,
				"z": 1.0346324099,
				"element": "C" 
			},
			{
				"x": 0.5895908673,
				"y": 0.724687149,
				"z": 1.6687410658,
				"element": "C" 
			},
			{
				"x": -0.0869189053,
				"y": 0.9502610976,
				"z": 2.8975972423,
				"element": "C" 
			},
			{
				"x": -0.9901833202,
				"y": -0.0373492288,
				"z": 3.1927574179,
				"element": "C" 
			},
			{
				"x": -1.0288987821,
				"y": -1.2618313079,
				"z": 1.9715229868,
				"element": "S" 
			},
			{
				"x": 3.4139953194,
				"y": 1.2607462586,
				"z": -1.9218832093,
				"element": "H" 
			},
			{
				"x": 0.5071611015,
				"y": -3.4220706603,
				"z": -2.5405011515,
				"element": "H" 
			},
			{
				"x": -0.5122366638,
				"y": -2.7608235745,
				"z": -0.3521757935,
				"element": "H" 
			},
			{
				"x": 1.3421679643,
				"y": 1.376850612,
				"z": 1.244463586,
				"element": "H" 
			},
			{
				"x": 0.0876745416,
				"y": 1.8080076948,
				"z": 3.5366483815,
				"element": "H" 
			},
			{
				"x": -1.636627483,
				"y": -0.119962143,
				"z": 4.0556619902,
				"element": "H" 
			}
		],
		 "valence_orbital": [ 
			{
				"type": "occ",
				"energy": -0.30589,
				"method": "rhf"
			},
			{
				"type": "occ",
				"energy": -0.26583,
				"method": "rhf"
			},
			{
				"type": "occ",
				"energy": -0.25984,
				"method": "rhf"
			},
			{
				"type": "occ",
				"energy": -0.24718,
				"method": "rhf"
			},
			{
				"type": "occ",
				"energy": -0.2328,
				"method": "rhf"
			},
			{
				"type": "unocc",
				"energy": -0.06994,
				"method": "rhf"
			},
			{
				"type": "unocc",
				"energy": -0.03068,
				"method": "rhf"
			},
			{
				"type": "unocc",
				"energy": 0.0074,
				"method": "rhf"
			},
			{
				"type": "unocc",
				"energy": 0.01642,
				"method": "rhf"
			},
			{
				"type": "unocc",
				"energy": 0.02351,
				"method": "rhf"
			}
		],
		"cosmo_sigma_profile": { 
			"-0.025": 0.0,
			"-0.024": 0.0,
			"-0.023": 0.0,
			"-0.022": 0.0,
			"-0.021": 0.0,
			"-0.02": 0.0,
			"-0.019": 0.0,
			"-0.018": 0.0,
			"-0.017": 0.0,
			"-0.016": 0.0,
			"-0.015": 0.0,
			"-0.014": 0.0,
			"-0.013": 0.0,
			"-0.012": 0.0,
			"-0.011": 0.733616080086,
			"-0.01": 1.47817783822,
			"-0.009": 3.13876222787,
			"-0.008": 7.59972582977,
			"-0.007": 9.38384016724,
			"-0.006": 10.5698865559,
			"-0.005": 9.6333861176,
			"-0.004": 10.2310779451,
			"-0.003": 9.32123688787,
			"-0.002": 11.9014395687,
			"-0.001": 15.8966729375,
			"0.0": 19.18813852,
			"0.001": 17.4648167413,
			"0.002": 19.6124923383,
			"0.003": 24.6663595456,
			"0.004": 16.0900661737,
			"0.005": 7.95292023557,
			"0.006": 7.03938054571,
			"0.007": 5.55689521226,
			"0.008": 2.37922965352,
			"0.009": 1.19608497836,
			"0.01": 1.18084308259,
			"0.011": 0.938888068774,
			"0.012": 0.505311539225,
			"0.013": 1.13103686157,
			"0.014": 0.588975652796,
			"0.015": 0.0230383928673,
			"0.016": 0.0,
			"0.017": 0.0,
			"0.018": 0.0,
			"0.019": 0.0,
			"0.02": 0.0,
			"0.021": 0.0,
			"0.022": 0.0,
			"0.023": 0.0,
			"0.024": 0.0,
			"0.025": 0.0
		}
	}
}
