{
	 "smiles": "OC(=O)CCS(=O)(=O)C1=CC2=C(OCCCO2)C=C1", 
	 "Tm": 383.15, 
	 "num_atms": 33, 
	 "gaussian": { 
		 "optdone": 1, 
		 "sigma_profile": "yes", 
		 "theory": "DFT", 
		 "functional": "B3LYP", 
		 "basiset": "6-31G**", 
		 "properties": { 
			 "R2extent": 7381.9556, 
			 "electric_dipole_moment_norm": 8.03817930691, 
			 "electric_quadrupole_moment_norm": 21.4888817464, 
			 "total_energy": -1315.17290074, 
			 "HOMO_LUMO_gap": 0.20105, 
			 "cosmo_polarized_energy": -23.9, 
			 "cosmo_cavitation_energy": 37.82, 
			 "cosmo_dispersion_energy": -27.54, 
			 "cosmo_repulsion_energy": 2.1, 
			 "cosmo_total_nonelectrostatic_energy": 12.38, 
			 "SMD_solvation_energy": 6.9 
		},
		"coords": [
			{
				"x": -2.6088616115,
				"y": 0.4087511442,
				"z": 3.7530588535,
				"element": "O" 
			},
			{
				"x": -3.710777478,
				"y": 0.8364989928,
				"z": 3.0900798416,
				"element": "C" 
			},
			{
				"x": -4.8293493269,
				"y": 0.4773744958,
				"z": 3.3709290736,
				"element": "O" 
			},
			{
				"x": -3.3725243075,
				"y": 1.8717914853,
				"z": 2.0315741999,
				"element": "C" 
			},
			{
				"x": -2.0882471107,
				"y": 1.6123020786,
				"z": 1.2389532983,
				"element": "C" 
			},
			{
				"x": -2.330034504,
				"y": 0.2579745591,
				"z": 0.0380405553,
				"element": "S" 
			},
			{
				"x": -2.6332683868,
				"y": -0.964314406,
				"z": 0.8024713875,
				"element": "O" 
			},
			{
				"x": -3.257891932,
				"y": 0.7535149335,
				"z": -0.9935610575,
				"element": "O" 
			},
			{
				"x": -0.7106459338,
				"y": 0.0723260494,
				"z": -0.7094309499,
				"element": "C" 
			},
			{
				"x": 0.2146354333,
				"y": -0.7864440493,
				"z": -0.1168739286,
				"element": "C" 
			},
			{
				"x": 1.4814518234,
				"y": -0.9399591445,
				"z": -0.6800564937,
				"element": "C" 
			},
			{
				"x": 1.8183749016,
				"y": -0.2020873067,
				"z": -1.8396024396,
				"element": "C" 
			},
			{
				"x": 3.0386505459,
				"y": -0.265359235,
				"z": -2.4546453294,
				"element": "O" 
			},
			{
				"x": 4.1896209004,
				"y": -0.4352168904,
				"z": -1.6090432778,
				"element": "C" 
			},
			{
				"x": 4.4559255558,
				"y": -1.9066555426,
				"z": -1.2939715894,
				"element": "C" 
			},
			{
				"x": 3.1566954277,
				"y": -2.6211728278,
				"z": -0.9158090584,
				"element": "C" 
			},
			{
				"x": 2.3396499312,
				"y": -1.8100787795,
				"z": -0.0552356274,
				"element": "O" 
			},
			{
				"x": 0.859723656,
				"y": 0.6267097072,
				"z": -2.4343258495,
				"element": "C" 
			},
			{
				"x": -0.4090937236,
				"y": 0.7677123857,
				"z": -1.882311345,
				"element": "C" 
			},
			{
				"x": -2.9206341028,
				"y": -0.2514925276,
				"z": 4.3940872153,
				"element": "H" 
			},
			{
				"x": -4.2352946327,
				"y": 1.9659602122,
				"z": 1.3689378379,
				"element": "H" 
			},
			{
				"x": -3.2565803502,
				"y": 2.8302188361,
				"z": 2.5535089079,
				"element": "H" 
			},
			{
				"x": -1.80460555,
				"y": 2.4877245691,
				"z": 0.6494906908,
				"element": "H" 
			},
			{
				"x": -1.2619552703,
				"y": 1.325849485,
				"z": 1.8922011382,
				"element": "H" 
			},
			{
				"x": -0.0449763239,
				"y": -1.3712560495,
				"z": 0.7585868426,
				"element": "H" 
			},
			{
				"x": 5.0228484644,
				"y": 0.0078186881,
				"z": -2.1603990071,
				"element": "H" 
			},
			{
				"x": 4.0471230286,
				"y": 0.1376091837,
				"z": -0.6862016392,
				"element": "H" 
			},
			{
				"x": 4.8998638251,
				"y": -2.4153362316,
				"z": -2.1574120628,
				"element": "H" 
			},
			{
				"x": 5.1818532685,
				"y": -1.9584227719,
				"z": -0.474096796,
				"element": "H" 
			},
			{
				"x": 3.3570564487,
				"y": -3.538318969,
				"z": -0.3559391421,
				"element": "H" 
			},
			{
				"x": 2.5851669882,
				"y": -2.887395064,
				"z": -1.8119149087,
				"element": "H" 
			},
			{
				"x": 1.1450681692,
				"y": 1.1618712028,
				"z": -3.3339688772,
				"element": "H" 
			},
			{
				"x": -1.1574678233,
				"y": 1.3983017868,
				"z": -2.3488204631,
				"element": "H" 
			}
		],
		 "valence_orbital": [ 
			{
				"type": "occ",
				"energy": -0.29129,
				"method": "rhf"
			},
			{
				"type": "occ",
				"energy": -0.28184,
				"method": "rhf"
			},
			{
				"type": "occ",
				"energy": -0.27177,
				"method": "rhf"
			},
			{
				"type": "occ",
				"energy": -0.259,
				"method": "rhf"
			},
			{
				"type": "occ",
				"energy": -0.23494,
				"method": "rhf"
			},
			{
				"type": "unocc",
				"energy": -0.03389,
				"method": "rhf"
			},
			{
				"type": "unocc",
				"energy": -0.01674,
				"method": "rhf"
			},
			{
				"type": "unocc",
				"energy": 0.01074,
				"method": "rhf"
			},
			{
				"type": "unocc",
				"energy": 0.05677,
				"method": "rhf"
			},
			{
				"type": "unocc",
				"energy": 0.06755,
				"method": "rhf"
			}
		],
		"cosmo_sigma_profile": { 
			"-0.025": 0.0,
			"-0.024": 0.0,
			"-0.023": 0.0,
			"-0.022": 0.0,
			"-0.021": 0.0,
			"-0.02": 0.0,
			"-0.019": 0.0397539124355,
			"-0.018": 0.936750518007,
			"-0.017": 0.753016055443,
			"-0.016": 0.824381018789,
			"-0.015": 0.797462677719,
			"-0.014": 0.846801614806,
			"-0.013": 1.25380767169,
			"-0.012": 0.136029548703,
			"-0.011": 0.496168376447,
			"-0.01": 0.597339873761,
			"-0.009": 2.49347495027,
			"-0.008": 7.62721368382,
			"-0.007": 11.9684072126,
			"-0.006": 19.8267069998,
			"-0.005": 29.3346239313,
			"-0.004": 29.3137409604,
			"-0.003": 21.0531447241,
			"-0.002": 16.3756462111,
			"-0.001": 14.0349521446,
			"0.0": 13.9104979994,
			"0.001": 16.7526002267,
			"0.002": 17.7209948991,
			"0.003": 11.9334339309,
			"0.004": 8.11625795002,
			"0.005": 7.28028273464,
			"0.006": 8.18797779637,
			"0.007": 8.2217574906,
			"0.008": 7.20498861454,
			"0.009": 7.93930800192,
			"0.01": 10.6479202115,
			"0.011": 11.7975599319,
			"0.012": 9.61304683577,
			"0.013": 0.922561066741,
			"0.014": 0.0,
			"0.015": 0.0,
			"0.016": 0.0,
			"0.017": 0.0,
			"0.018": 0.0,
			"0.019": 0.0,
			"0.02": 0.0,
			"0.021": 0.0,
			"0.022": 0.0,
			"0.023": 0.0,
			"0.024": 0.0,
			"0.025": 0.0
		}
	}
}
