{
	 "smiles": "CSC1=NC(N)=NS1", 
	 "Tm": 430.15, 
	 "num_atms": 13, 
	 "gaussian": { 
		 "optdone": 1, 
		 "sigma_profile": "yes", 
		 "theory": "DFT", 
		 "functional": "B3LYP", 
		 "basiset": "6-31G**", 
		 "properties": { 
			 "R2extent": 2174.6857, 
			 "electric_dipole_moment_norm": 3.00454907432, 
			 "electric_quadrupole_moment_norm": 8.13325972412, 
			 "total_energy": -1077.95651575, 
			 "HOMO_LUMO_gap": 0.18777, 
			 "cosmo_polarized_energy": -10.0, 
			 "cosmo_cavitation_energy": 20.6, 
			 "cosmo_dispersion_energy": -16.61, 
			 "cosmo_repulsion_energy": 1.3, 
			 "cosmo_total_nonelectrostatic_energy": 5.29, 
			 "SMD_solvation_energy": 0.82 
		},
		"coords": [
			{
				"x": 1.9164595238,
				"y": 2.1662334424,
				"z": 1.7283796436,
				"element": "C" 
			},
			{
				"x": 0.5601559769,
				"y": 1.743934441,
				"z": 2.8775793475,
				"element": "S" 
			},
			{
				"x": -0.1654235493,
				"y": 0.3979402478,
				"z": 2.0176250977,
				"element": "C" 
			},
			{
				"x": 0.2680166923,
				"y": -0.0957839998,
				"z": 0.8891186191,
				"element": "N" 
			},
			{
				"x": -0.5583610269,
				"y": -1.1445432574,
				"z": 0.5234865287,
				"element": "C" 
			},
			{
				"x": -0.307874198,
				"y": -1.7690579506,
				"z": -0.6761651501,
				"element": "N" 
			},
			{
				"x": -1.571505246,
				"y": -1.4935839906,
				"z": 1.286896273,
				"element": "N" 
			},
			{
				"x": -1.5902225178,
				"y": -0.4414681391,
				"z": 2.6063208805,
				"element": "S" 
			},
			{
				"x": 1.5135973793,
				"y": 2.4426141411,
				"z": 0.7539697589,
				"element": "H" 
			},
			{
				"x": 2.4328218444,
				"y": 3.0158708311,
				"z": 2.1794467818,
				"element": "H" 
			},
			{
				"x": 2.5988358771,
				"y": 1.323016579,
				"z": 1.6217901602,
				"element": "H" 
			},
			{
				"x": 0.6487075343,
				"y": -1.7127977658,
				"z": -0.9925627208,
				"element": "H" 
			},
			{
				"x": -0.7462082899,
				"y": -2.6716745794,
				"z": -0.7859852201,
				"element": "H" 
			}
		],
		 "valence_orbital": [ 
			{
				"type": "occ",
				"energy": -0.3131,
				"method": "rhf"
			},
			{
				"type": "occ",
				"energy": -0.30463,
				"method": "rhf"
			},
			{
				"type": "occ",
				"energy": -0.27884,
				"method": "rhf"
			},
			{
				"type": "occ",
				"energy": -0.25685,
				"method": "rhf"
			},
			{
				"type": "occ",
				"energy": -0.21575,
				"method": "rhf"
			},
			{
				"type": "unocc",
				"energy": -0.02798,
				"method": "rhf"
			},
			{
				"type": "unocc",
				"energy": -0.00636,
				"method": "rhf"
			},
			{
				"type": "unocc",
				"energy": 0.02901,
				"method": "rhf"
			},
			{
				"type": "unocc",
				"energy": 0.0497,
				"method": "rhf"
			},
			{
				"type": "unocc",
				"energy": 0.06323,
				"method": "rhf"
			}
		],
		"cosmo_sigma_profile": { 
			"-0.025": 0.0,
			"-0.024": 0.0,
			"-0.023": 0.0,
			"-0.022": 0.0,
			"-0.021": 0.0,
			"-0.02": 0.0,
			"-0.019": 0.0,
			"-0.018": 0.0,
			"-0.017": 0.0,
			"-0.016": 0.0,
			"-0.015": 0.0,
			"-0.014": 0.778729127834,
			"-0.013": 2.33155805945,
			"-0.012": 1.97065763749,
			"-0.011": 2.2062169451,
			"-0.01": 2.83231575979,
			"-0.009": 1.68080882466,
			"-0.008": 3.44492345491,
			"-0.007": 4.23487654034,
			"-0.006": 6.92964570867,
			"-0.005": 8.52412872421,
			"-0.004": 6.89187830125,
			"-0.003": 10.4105821183,
			"-0.002": 12.9380367955,
			"-0.001": 12.2946994366,
			"0.0": 13.7679514925,
			"0.001": 12.2850675721,
			"0.002": 11.8367514853,
			"0.003": 12.0003242673,
			"0.004": 9.02016000278,
			"0.005": 6.77006700964,
			"0.006": 6.19083857246,
			"0.007": 4.4295764887,
			"0.008": 2.9468072902,
			"0.009": 2.41114675377,
			"0.01": 3.01483472239,
			"0.011": 2.05971515028,
			"0.012": 1.31818129447,
			"0.013": 1.04642979668,
			"0.014": 1.26230791756,
			"0.015": 0.710049911701,
			"0.016": 0.0575260929964,
			"0.017": 0.0,
			"0.018": 0.0,
			"0.019": 0.0,
			"0.02": 0.0,
			"0.021": 0.0,
			"0.022": 0.0,
			"0.023": 0.0,
			"0.024": 0.0,
			"0.025": 0.0
		}
	}
}
