{
	 "smiles": "CNC(=O)C(=N/OC)C1=CC=CC=C1OC1=CC=CC=C1", 
	 "Tm": 361.15, 
	 "num_atms": 37, 
	 "gaussian": { 
		 "optdone": 1, 
		 "sigma_profile": "yes", 
		 "theory": "DFT", 
		 "functional": "B3LYP", 
		 "basiset": "6-31G**", 
		 "properties": { 
			 "R2extent": 6531.59, 
			 "electric_dipole_moment_norm": 3.82726733323, 
			 "electric_quadrupole_moment_norm": 14.2605845785, 
			 "total_energy": -954.448246218, 
			 "HOMO_LUMO_gap": 0.18445, 
			 "cosmo_polarized_energy": -15.85, 
			 "cosmo_cavitation_energy": 41.95, 
			 "cosmo_dispersion_energy": -27.75, 
			 "cosmo_repulsion_energy": 2.19, 
			 "cosmo_total_nonelectrostatic_energy": 16.39, 
			 "SMD_solvation_energy": 7.99 
		},
		"coords": [
			{
				"x": -1.5154767289,
				"y": -3.2727411548,
				"z": 0.7525487509,
				"element": "C" 
			},
			{
				"x": -0.2949045057,
				"y": -3.8851112878,
				"z": 0.2540090826,
				"element": "N" 
			},
			{
				"x": 0.9631339746,
				"y": -3.3703098735,
				"z": 0.2807104135,
				"element": "C" 
			},
			{
				"x": 1.9510249538,
				"y": -4.016701344,
				"z": -0.055637651,
				"element": "O" 
			},
			{
				"x": 1.1080617402,
				"y": -1.9065435766,
				"z": 0.677884039,
				"element": "C" 
			},
			{
				"x": 1.0282186533,
				"y": -1.4904405663,
				"z": 1.8908266644,
				"element": "N" 
			},
			{
				"x": 0.6698795683,
				"y": -2.5210979516,
				"z": 2.7672719592,
				"element": "O" 
			},
			{
				"x": 0.6725831444,
				"y": -2.0134543285,
				"z": 4.0986193208,
				"element": "C" 
			},
			{
				"x": 1.4641071796,
				"y": -0.934060701,
				"z": -0.38736787,
				"element": "C" 
			},
			{
				"x": 2.4866718373,
				"y": -1.245001345,
				"z": -1.3000213567,
				"element": "C" 
			},
			{
				"x": 2.85070459,
				"y": -0.3539674454,
				"z": -2.306084609,
				"element": "C" 
			},
			{
				"x": 2.1915878742,
				"y": 0.8716878395,
				"z": -2.4164783263,
				"element": "C" 
			},
			{
				"x": 1.1651685524,
				"y": 1.1977572296,
				"z": -1.5327446707,
				"element": "C" 
			},
			{
				"x": 0.7933495284,
				"y": 0.2980147547,
				"z": -0.5291104252,
				"element": "C" 
			},
			{
				"x": -0.2035430753,
				"y": 0.6019964618,
				"z": 0.3747771019,
				"element": "O" 
			},
			{
				"x": -1.3303543981,
				"y": 1.2965698485,
				"z": -0.0256394623,
				"element": "C" 
			},
			{
				"x": -2.0060443159,
				"y": 1.0132004703,
				"z": -1.2170278168,
				"element": "C" 
			},
			{
				"x": -3.1845563977,
				"y": 1.700044404,
				"z": -1.5109510519,
				"element": "C" 
			},
			{
				"x": -3.6933263127,
				"y": 2.65318427,
				"z": -0.625728941,
				"element": "C" 
			},
			{
				"x": -3.0128794887,
				"y": 2.9198262342,
				"z": 0.5643919989,
				"element": "C" 
			},
			{
				"x": -1.829316242,
				"y": 2.2468236467,
				"z": 0.8675794469,
				"element": "C" 
			},
			{
				"x": -2.3504828998,
				"y": -3.5314005331,
				"z": 0.0948296913,
				"element": "H" 
			},
			{
				"x": -1.4072539967,
				"y": -2.1872998439,
				"z": 0.7564036293,
				"element": "H" 
			},
			{
				"x": -1.7488040299,
				"y": -3.595424258,
				"z": 1.7732692306,
				"element": "H" 
			},
			{
				"x": -0.3145885243,
				"y": -4.8695723324,
				"z": 0.0179305246,
				"element": "H" 
			},
			{
				"x": 1.6706527893,
				"y": -1.6649281478,
				"z": 4.3846626422,
				"element": "H" 
			},
			{
				"x": 0.379118305,
				"y": -2.8532167385,
				"z": 4.7322070731,
				"element": "H" 
			},
			{
				"x": -0.0441140807,
				"y": -1.192496145,
				"z": 4.2098820585,
				"element": "H" 
			},
			{
				"x": 2.9855902158,
				"y": -2.2021948543,
				"z": -1.1972434389,
				"element": "H" 
			},
			{
				"x": 3.6486452845,
				"y": -0.6129784112,
				"z": -2.9949083957,
				"element": "H" 
			},
			{
				"x": 2.4751942431,
				"y": 1.5804256542,
				"z": -3.1892054252,
				"element": "H" 
			},
			{
				"x": 0.6452235117,
				"y": 2.1459254678,
				"z": -1.6143195711,
				"element": "H" 
			},
			{
				"x": -1.6117984797,
				"y": 0.2687240229,
				"z": -1.900425366,
				"element": "H" 
			},
			{
				"x": -3.7101304567,
				"y": 1.4813523465,
				"z": -2.4362028309,
				"element": "H" 
			},
			{
				"x": -4.6119202303,
				"y": 3.1818180664,
				"z": -0.8610277996,
				"element": "H" 
			},
			{
				"x": -3.4001416418,
				"y": 3.6586098582,
				"z": 1.2601576867,
				"element": "H" 
			},
			{
				"x": -1.2838801411,
				"y": 2.4383802634,
				"z": 1.785663694,
				"element": "H" 
			}
		],
		 "valence_orbital": [ 
			{
				"type": "occ",
				"energy": -0.25233,
				"method": "rhf"
			},
			{
				"type": "occ",
				"energy": -0.25073,
				"method": "rhf"
			},
			{
				"type": "occ",
				"energy": -0.23902,
				"method": "rhf"
			},
			{
				"type": "occ",
				"energy": -0.23253,
				"method": "rhf"
			},
			{
				"type": "occ",
				"energy": -0.21891,
				"method": "rhf"
			},
			{
				"type": "unocc",
				"energy": -0.03446,
				"method": "rhf"
			},
			{
				"type": "unocc",
				"energy": -0.01052,
				"method": "rhf"
			},
			{
				"type": "unocc",
				"energy": -0.00376,
				"method": "rhf"
			},
			{
				"type": "unocc",
				"energy": 0.0082,
				"method": "rhf"
			},
			{
				"type": "unocc",
				"energy": 0.02272,
				"method": "rhf"
			}
		],
		"cosmo_sigma_profile": { 
			"-0.025": 0.0,
			"-0.024": 0.0,
			"-0.023": 0.0,
			"-0.022": 0.0,
			"-0.021": 0.0,
			"-0.02": 0.0,
			"-0.019": 0.0,
			"-0.018": 0.0,
			"-0.017": 0.0,
			"-0.016": 0.0,
			"-0.015": 0.115532843073,
			"-0.014": 1.10992767238,
			"-0.013": 1.03633084909,
			"-0.012": 0.861865837016,
			"-0.011": 1.09635228613,
			"-0.01": 1.14376553308,
			"-0.009": 0.480690871886,
			"-0.008": 0.957664815818,
			"-0.007": 3.72303862231,
			"-0.006": 18.3247718579,
			"-0.005": 25.9980417794,
			"-0.004": 33.0381306794,
			"-0.003": 33.1244853076,
			"-0.002": 29.5215608963,
			"-0.001": 18.1768212717,
			"0.0": 19.4399616863,
			"0.001": 21.4547244538,
			"0.002": 23.4898075118,
			"0.003": 25.8294968926,
			"0.004": 23.6520398551,
			"0.005": 17.3816696521,
			"0.006": 7.14844911879,
			"0.007": 4.94127386229,
			"0.008": 3.93463778981,
			"0.009": 2.11648457766,
			"0.01": 2.97252905956,
			"0.011": 2.91293553336,
			"0.012": 4.15576247164,
			"0.013": 5.69355763587,
			"0.014": 0.77674661627,
			"0.015": 0.0,
			"0.016": 0.0,
			"0.017": 0.0,
			"0.018": 0.0,
			"0.019": 0.0,
			"0.02": 0.0,
			"0.021": 0.0,
			"0.022": 0.0,
			"0.023": 0.0,
			"0.024": 0.0,
			"0.025": 0.0
		}
	}
}
