{
	 "smiles": "CCCCS(N)(=O)=O", 
	 "Tm": 317.15, 
	 "num_atms": 19, 
	 "gaussian": { 
		 "optdone": 1, 
		 "sigma_profile": "yes", 
		 "theory": "DFT", 
		 "functional": "B3LYP", 
		 "basiset": "6-31G**", 
		 "properties": { 
			 "R2extent": 2034.714, 
			 "electric_dipole_moment_norm": 3.45004975182, 
			 "electric_quadrupole_moment_norm": 17.8869925155, 
			 "total_energy": -762.389332989, 
			 "HOMO_LUMO_gap": 0.34183, 
			 "cosmo_polarized_energy": -13.9, 
			 "cosmo_cavitation_energy": 22.59, 
			 "cosmo_dispersion_energy": -17.01, 
			 "cosmo_repulsion_energy": 1.38, 
			 "cosmo_total_nonelectrostatic_energy": 6.96, 
			 "SMD_solvation_energy": 3.32 
		},
		"coords": [
			{
				"x": -1.6948929762,
				"y": -0.7682103086,
				"z": 0.200287173,
				"element": "C" 
			},
			{
				"x": -1.080476766,
				"y": 0.1491776405,
				"z": -0.8617493498,
				"element": "C" 
			},
			{
				"x": 0.2598958181,
				"y": 0.7859983965,
				"z": -0.4593160623,
				"element": "C" 
			},
			{
				"x": 1.4116684593,
				"y": -0.1663586169,
				"z": -0.122474461,
				"element": "C" 
			},
			{
				"x": 2.1297464287,
				"y": -1.0600589236,
				"z": -1.5290485338,
				"element": "S" 
			},
			{
				"x": 1.0057367597,
				"y": -2.3031428251,
				"z": -1.8329417709,
				"element": "N" 
			},
			{
				"x": 2.1276552052,
				"y": -0.1750053986,
				"z": -2.6997493224,
				"element": "O" 
			},
			{
				"x": 3.3582847163,
				"y": -1.6997956886,
				"z": -1.0449041271,
				"element": "O" 
			},
			{
				"x": -2.6899456444,
				"y": -1.1060661188,
				"z": -0.1064129127,
				"element": "H" 
			},
			{
				"x": -1.8033525054,
				"y": -0.2502858095,
				"z": 1.1606737584,
				"element": "H" 
			},
			{
				"x": -1.0854533515,
				"y": -1.6626299445,
				"z": 0.3624421214,
				"element": "H" 
			},
			{
				"x": -0.9625799743,
				"y": -0.4039798328,
				"z": -1.7997293453,
				"element": "H" 
			},
			{
				"x": -1.7769452135,
				"y": 0.9680719532,
				"z": -1.0801227028,
				"element": "H" 
			},
			{
				"x": 0.5982713111,
				"y": 1.4622089231,
				"z": -1.2511716932,
				"element": "H" 
			},
			{
				"x": 0.104632633,
				"y": 1.4043230297,
				"z": 0.4349737383,
				"element": "H" 
			},
			{
				"x": 2.2700268943,
				"y": 0.3895875581,
				"z": 0.2672334753,
				"element": "H" 
			},
			{
				"x": 1.1465215544,
				"y": -0.9313151799,
				"z": 0.6113276569,
				"element": "H" 
			},
			{
				"x": 1.4667998382,
				"y": -3.1979180176,
				"z": -1.6838279499,
				"element": "H" 
			},
			{
				"x": 0.6867068131,
				"y": -2.2221008366,
				"z": -2.7953896922,
				"element": "H" 
			}
		],
		 "valence_orbital": [ 
			{
				"type": "occ",
				"energy": -0.33993,
				"method": "rhf"
			},
			{
				"type": "occ",
				"energy": -0.31427,
				"method": "rhf"
			},
			{
				"type": "occ",
				"energy": -0.307,
				"method": "rhf"
			},
			{
				"type": "occ",
				"energy": -0.30031,
				"method": "rhf"
			},
			{
				"type": "occ",
				"energy": -0.29052,
				"method": "rhf"
			},
			{
				"type": "unocc",
				"energy": 0.05131,
				"method": "rhf"
			},
			{
				"type": "unocc",
				"energy": 0.07067,
				"method": "rhf"
			},
			{
				"type": "unocc",
				"energy": 0.07582,
				"method": "rhf"
			},
			{
				"type": "unocc",
				"energy": 0.08917,
				"method": "rhf"
			},
			{
				"type": "unocc",
				"energy": 0.10269,
				"method": "rhf"
			}
		],
		"cosmo_sigma_profile": { 
			"-0.025": 0.0,
			"-0.024": 0.0,
			"-0.023": 0.0,
			"-0.022": 0.0,
			"-0.021": 0.0,
			"-0.02": 0.0,
			"-0.019": 0.0,
			"-0.018": 0.0,
			"-0.017": 0.0,
			"-0.016": 0.0,
			"-0.015": 0.341906574309,
			"-0.014": 2.01210678427,
			"-0.013": 2.4123933771,
			"-0.012": 2.60480516209,
			"-0.011": 2.36618896042,
			"-0.01": 1.85043314834,
			"-0.009": 1.91448804349,
			"-0.008": 3.41014696899,
			"-0.007": 5.19615973341,
			"-0.006": 5.33706175498,
			"-0.005": 7.65409668053,
			"-0.004": 10.2955476072,
			"-0.003": 14.5205830512,
			"-0.002": 17.8134880779,
			"-0.001": 16.605358728,
			"0.0": 14.2254266074,
			"0.001": 12.4947633383,
			"0.002": 6.87587729563,
			"0.003": 3.59194151521,
			"0.004": 2.98237100733,
			"0.005": 3.40839835914,
			"0.006": 4.39251106974,
			"0.007": 3.21451399957,
			"0.008": 3.24685945984,
			"0.009": 3.62794280751,
			"0.01": 3.79041400376,
			"0.011": 10.5193873666,
			"0.012": 8.25301611032,
			"0.013": 0.46629832253,
			"0.014": 0.0,
			"0.015": 0.0,
			"0.016": 0.0,
			"0.017": 0.0,
			"0.018": 0.0,
			"0.019": 0.0,
			"0.02": 0.0,
			"0.021": 0.0,
			"0.022": 0.0,
			"0.023": 0.0,
			"0.024": 0.0,
			"0.025": 0.0
		}
	}
}
