{
	 "smiles": "CN(C)C1=CC=C(CNC2=CC(=O)C3=CC=CC=C3C2=O)C=C1", 
	 "Tm": 439.15, 
	 "num_atms": 41, 
	 "gaussian": { 
		 "optdone": 1, 
		 "sigma_profile": "yes", 
		 "theory": "DFT", 
		 "functional": "B3LYP", 
		 "basiset": "6-31G**", 
		 "properties": { 
			 "R2extent": 10253.2381, 
			 "electric_dipole_moment_norm": 3.9729060812, 
			 "electric_quadrupole_moment_norm": 27.4332066062, 
			 "total_energy": -994.811520564, 
			 "HOMO_LUMO_gap": 0.0915, 
			 "cosmo_polarized_energy": -16.34, 
			 "cosmo_cavitation_energy": 44.21, 
			 "cosmo_dispersion_energy": -31.48, 
			 "cosmo_repulsion_energy": 2.35, 
			 "cosmo_total_nonelectrostatic_energy": 15.08, 
			 "SMD_solvation_energy": 6.85 
		},
		"coords": [
			{
				"x": 2.7278823224,
				"y": 4.0624296843,
				"z": -2.6486124001,
				"element": "C" 
			},
			{
				"x": 1.5270171183,
				"y": 4.4993343306,
				"z": -1.9567587949,
				"element": "N" 
			},
			{
				"x": 1.5879752478,
				"y": 5.7278521667,
				"z": -1.183745615,
				"element": "C" 
			},
			{
				"x": 0.5203322383,
				"y": 3.5785746543,
				"z": -1.6927081635,
				"element": "C" 
			},
			{
				"x": 0.533003303,
				"y": 2.2869018402,
				"z": -2.2694608837,
				"element": "C" 
			},
			{
				"x": -0.4926161703,
				"y": 1.3805343272,
				"z": -2.0238177912,
				"element": "C" 
			},
			{
				"x": -1.5736795512,
				"y": 1.701580037,
				"z": -1.1927744323,
				"element": "C" 
			},
			{
				"x": -2.6669437157,
				"y": 0.6962715606,
				"z": -0.8953592886,
				"element": "C" 
			},
			{
				"x": -2.4046917223,
				"y": -0.1331906691,
				"z": 0.3003206547,
				"element": "N" 
			},
			{
				"x": -1.6182571363,
				"y": -1.242381497,
				"z": 0.4362580129,
				"element": "C" 
			},
			{
				"x": -1.1269530104,
				"y": -1.608564216,
				"z": 1.6648150516,
				"element": "C" 
			},
			{
				"x": -0.3683008047,
				"y": -2.8165461761,
				"z": 1.9226787439,
				"element": "C" 
			},
			{
				"x": 0.0484687486,
				"y": -3.1014323043,
				"z": 3.0480826523,
				"element": "O" 
			},
			{
				"x": -0.0919877815,
				"y": -3.7143458255,
				"z": 0.7566587907,
				"element": "C" 
			},
			{
				"x": 0.63958762,
				"y": -4.8884637441,
				"z": 0.9400609826,
				"element": "C" 
			},
			{
				"x": 0.9016188313,
				"y": -5.7242955485,
				"z": -0.1454172348,
				"element": "C" 
			},
			{
				"x": 0.4331736647,
				"y": -5.3891467583,
				"z": -1.4204974281,
				"element": "C" 
			},
			{
				"x": -0.2969255119,
				"y": -4.2178907524,
				"z": -1.6100167163,
				"element": "C" 
			},
			{
				"x": -0.5628913282,
				"y": -3.3752557169,
				"z": -0.5229889249,
				"element": "C" 
			},
			{
				"x": -1.3511934077,
				"y": -2.1334429865,
				"z": -0.7543522791,
				"element": "C" 
			},
			{
				"x": -1.7654804104,
				"y": -1.8566390437,
				"z": -1.8762469526,
				"element": "O" 
			},
			{
				"x": -1.5855011747,
				"y": 2.9773987586,
				"z": -0.618070985,
				"element": "C" 
			},
			{
				"x": -0.5687227289,
				"y": 3.8986329033,
				"z": -0.8499005955,
				"element": "C" 
			},
			{
				"x": 3.2759639708,
				"y": 3.2772501352,
				"z": -2.1044711444,
				"element": "H" 
			},
			{
				"x": 2.4899906905,
				"y": 3.677119574,
				"z": -3.6466993208,
				"element": "H" 
			},
			{
				"x": 3.395457552,
				"y": 4.9156097279,
				"z": -2.7790345299,
				"element": "H" 
			},
			{
				"x": 1.7211316937,
				"y": 5.5510568628,
				"z": -0.1046869276,
				"element": "H" 
			},
			{
				"x": 0.6776343134,
				"y": 6.3236112741,
				"z": -1.3174294246,
				"element": "H" 
			},
			{
				"x": 2.4265716788,
				"y": 6.3306938792,
				"z": -1.5357382472,
				"element": "H" 
			},
			{
				"x": 1.3455086543,
				"y": 1.9859282103,
				"z": -2.9192561774,
				"element": "H" 
			},
			{
				"x": -0.4534245669,
				"y": 0.4002690178,
				"z": -2.491002329,
				"element": "H" 
			},
			{
				"x": -3.6060970434,
				"y": 1.2206282696,
				"z": -0.688468903,
				"element": "H" 
			},
			{
				"x": -2.8291276174,
				"y": 0.0305567886,
				"z": -1.7379206671,
				"element": "H" 
			},
			{
				"x": -2.4757759764,
				"y": 0.3934353089,
				"z": 1.1625698991,
				"element": "H" 
			},
			{
				"x": -1.3024205521,
				"y": -0.9779829131,
				"z": 2.5330236663,
				"element": "H" 
			},
			{
				"x": 0.9901899297,
				"y": -5.1206323847,
				"z": 1.9401697066,
				"element": "H" 
			},
			{
				"x": 1.4707172077,
				"y": -6.6381282085,
				"z": -0.0001367922,
				"element": "H" 
			},
			{
				"x": 0.6373830815,
				"y": -6.041957124,
				"z": -2.2640676015,
				"element": "H" 
			},
			{
				"x": -0.6721212381,
				"y": -3.9372462409,
				"z": -2.5882863916,
				"element": "H" 
			},
			{
				"x": -2.4124122334,
				"y": 3.2678726055,
				"z": 0.0280357921,
				"element": "H" 
			},
			{
				"x": -0.6294841848,
				"y": 4.8709001928,
				"z": -0.3767470107,
				"element": "H" 
			}
		],
		 "valence_orbital": [ 
			{
				"type": "occ",
				"energy": -0.25865,
				"method": "rhf"
			},
			{
				"type": "occ",
				"energy": -0.24599,
				"method": "rhf"
			},
			{
				"type": "occ",
				"energy": -0.24009,
				"method": "rhf"
			},
			{
				"type": "occ",
				"energy": -0.21665,
				"method": "rhf"
			},
			{
				"type": "occ",
				"energy": -0.19001,
				"method": "rhf"
			},
			{
				"type": "unocc",
				"energy": -0.09851,
				"method": "rhf"
			},
			{
				"type": "unocc",
				"energy": -0.02893,
				"method": "rhf"
			},
			{
				"type": "unocc",
				"energy": -0.00534,
				"method": "rhf"
			},
			{
				"type": "unocc",
				"energy": 0.00302,
				"method": "rhf"
			},
			{
				"type": "unocc",
				"energy": 0.01383,
				"method": "rhf"
			}
		],
		"cosmo_sigma_profile": { 
			"-0.025": 0.0,
			"-0.024": 0.0,
			"-0.023": 0.0,
			"-0.022": 0.0,
			"-0.021": 0.0,
			"-0.02": 0.0,
			"-0.019": 0.0,
			"-0.018": 0.0,
			"-0.017": 0.0,
			"-0.016": 0.0,
			"-0.015": 0.0,
			"-0.014": 0.511664649561,
			"-0.013": 1.22525953806,
			"-0.012": 1.84061494641,
			"-0.011": 1.3178611311,
			"-0.01": 1.06783821212,
			"-0.009": 1.50405327254,
			"-0.008": 2.38426109934,
			"-0.007": 5.87224766969,
			"-0.006": 14.2329380143,
			"-0.005": 24.3480742073,
			"-0.004": 27.456045513,
			"-0.003": 31.8999793438,
			"-0.002": 33.8578769313,
			"-0.001": 33.0116180934,
			"0.0": 24.9335300719,
			"0.001": 24.1673718699,
			"0.002": 30.0485635414,
			"0.003": 23.2439728024,
			"0.004": 11.9803621371,
			"0.005": 11.8551768248,
			"0.006": 12.3059957898,
			"0.007": 11.3271986862,
			"0.008": 3.90705219212,
			"0.009": 2.7946749325,
			"0.01": 3.22683864576,
			"0.011": 2.89758526584,
			"0.012": 2.77767564145,
			"0.013": 4.78655044674,
			"0.014": 1.5082104461,
			"0.015": 0.236666027013,
			"0.016": 0.0,
			"0.017": 0.0,
			"0.018": 0.0,
			"0.019": 0.0,
			"0.02": 0.0,
			"0.021": 0.0,
			"0.022": 0.0,
			"0.023": 0.0,
			"0.024": 0.0,
			"0.025": 0.0
		}
	}
}
