{
	 "smiles": "NC(=O)C(CC(O)=O)NC(=O)OCC1=CC=CC=C1", 
	 "Tm": 443.15, 
	 "num_atms": 33, 
	 "gaussian": { 
		 "optdone": 1, 
		 "sigma_profile": "yes", 
		 "theory": "DFT", 
		 "functional": "B3LYP", 
		 "basiset": "6-31G**", 
		 "properties": { 
			 "R2extent": 6133.7598, 
			 "electric_dipole_moment_norm": 7.38879409511, 
			 "electric_quadrupole_moment_norm": 27.2234327112, 
			 "total_energy": -951.393151317, 
			 "HOMO_LUMO_gap": 0.22113, 
			 "cosmo_polarized_energy": -25.78, 
			 "cosmo_cavitation_energy": 37.61, 
			 "cosmo_dispersion_energy": -25.41, 
			 "cosmo_repulsion_energy": 1.99, 
			 "cosmo_total_nonelectrostatic_energy": 14.19, 
			 "SMD_solvation_energy": 8.76 
		},
		"coords": [
			{
				"x": -1.6635224424,
				"y": -1.5041874135,
				"z": 0.2917208953,
				"element": "N" 
			},
			{
				"x": -0.97084858,
				"y": -1.8527060895,
				"z": -0.8094000883,
				"element": "C" 
			},
			{
				"x": -1.5038270963,
				"y": -1.9655579022,
				"z": -1.9174278315,
				"element": "O" 
			},
			{
				"x": 0.5170686195,
				"y": -2.2042868873,
				"z": -0.5978825903,
				"element": "C" 
			},
			{
				"x": 1.3525863768,
				"y": -2.0382860207,
				"z": -1.8957053302,
				"element": "C" 
			},
			{
				"x": 1.2951126763,
				"y": -3.2306436127,
				"z": -2.8606663512,
				"element": "C" 
			},
			{
				"x": 0.0871647211,
				"y": -3.543226004,
				"z": -3.3438502279,
				"element": "O" 
			},
			{
				"x": 2.2901025213,
				"y": -3.8477700378,
				"z": -3.1697503214,
				"element": "O" 
			},
			{
				"x": 1.078061685,
				"y": -1.5044664248,
				"z": 0.5604682981,
				"element": "N" 
			},
			{
				"x": 1.3489392006,
				"y": -0.1502284472,
				"z": 0.6126837001,
				"element": "C" 
			},
			{
				"x": 2.0423183109,
				"y": 0.3619469023,
				"z": 1.4706378601,
				"element": "O" 
			},
			{
				"x": 0.7073301077,
				"y": 0.5063822646,
				"z": -0.3801413392,
				"element": "O" 
			},
			{
				"x": 0.7761529805,
				"y": 1.9626417812,
				"z": -0.3385118112,
				"element": "C" 
			},
			{
				"x": -0.3675978417,
				"y": 2.5425573443,
				"z": 0.454400702,
				"element": "C" 
			},
			{
				"x": -1.5712151463,
				"y": 2.875476494,
				"z": -0.1803458407,
				"element": "C" 
			},
			{
				"x": -2.6392945822,
				"y": 3.3953365274,
				"z": 0.5517728423,
				"element": "C" 
			},
			{
				"x": -2.5127347939,
				"y": 3.5862601129,
				"z": 1.9294085874,
				"element": "C" 
			},
			{
				"x": -1.3164012072,
				"y": 3.2562056274,
				"z": 2.570612186,
				"element": "C" 
			},
			{
				"x": -0.2482690936,
				"y": 2.7370821267,
				"z": 1.8380744304,
				"element": "C" 
			},
			{
				"x": -2.6276409623,
				"y": -1.2289924674,
				"z": 0.1774310489,
				"element": "H" 
			},
			{
				"x": -1.1791555052,
				"y": -1.2828163221,
				"z": 1.1476063089,
				"element": "H" 
			},
			{
				"x": 0.5209272558,
				"y": -3.2648932907,
				"z": -0.3159516266,
				"element": "H" 
			},
			{
				"x": 1.0385702614,
				"y": -1.1282925895,
				"z": -2.4149906944,
				"element": "H" 
			},
			{
				"x": 2.401163511,
				"y": -1.9292419676,
				"z": -1.6161951279,
				"element": "H" 
			},
			{
				"x": -0.5940755725,
				"y": -2.9324272045,
				"z": -2.9639960579,
				"element": "H" 
			},
			{
				"x": 1.6923257139,
				"y": -2.0341365806,
				"z": 1.1635546094,
				"element": "H" 
			},
			{
				"x": 1.7430273792,
				"y": 2.2459928826,
				"z": 0.0798191161,
				"element": "H" 
			},
			{
				"x": 0.7240856961,
				"y": 2.2602000784,
				"z": -1.387203529,
				"element": "H" 
			},
			{
				"x": -1.6694468808,
				"y": 2.7305341433,
				"z": -1.2534923279,
				"element": "H" 
			},
			{
				"x": -3.5656054032,
				"y": 3.6557576801,
				"z": 0.0477699645,
				"element": "H" 
			},
			{
				"x": -3.3414468994,
				"y": 3.995580804,
				"z": 2.5001510905,
				"element": "H" 
			},
			{
				"x": -1.2130949283,
				"y": 3.40826248,
				"z": 3.6412152434,
				"element": "H" 
			},
			{
				"x": 0.6815399184,
				"y": 2.4714420132,
				"z": 2.3317842122,
				"element": "H" 
			}
		],
		 "valence_orbital": [ 
			{
				"type": "occ",
				"energy": -0.28942,
				"method": "rhf"
			},
			{
				"type": "occ",
				"energy": -0.28367,
				"method": "rhf"
			},
			{
				"type": "occ",
				"energy": -0.26506,
				"method": "rhf"
			},
			{
				"type": "occ",
				"energy": -0.26326,
				"method": "rhf"
			},
			{
				"type": "occ",
				"energy": -0.24753,
				"method": "rhf"
			},
			{
				"type": "unocc",
				"energy": -0.0264,
				"method": "rhf"
			},
			{
				"type": "unocc",
				"energy": -0.01627,
				"method": "rhf"
			},
			{
				"type": "unocc",
				"energy": -0.01026,
				"method": "rhf"
			},
			{
				"type": "unocc",
				"energy": 0.01791,
				"method": "rhf"
			},
			{
				"type": "unocc",
				"energy": 0.0301,
				"method": "rhf"
			}
		],
		"cosmo_sigma_profile": { 
			"-0.025": 0.0,
			"-0.024": 0.0,
			"-0.023": 0.0,
			"-0.022": 0.0,
			"-0.021": 0.0,
			"-0.02": 0.0,
			"-0.019": 0.0,
			"-0.018": 0.0,
			"-0.017": 0.0,
			"-0.016": 0.0371717799277,
			"-0.015": 1.81583527944,
			"-0.014": 3.68981187392,
			"-0.013": 3.04248821451,
			"-0.012": 3.23298830213,
			"-0.011": 3.83573593046,
			"-0.01": 4.99960148911,
			"-0.009": 6.24819429316,
			"-0.008": 4.10181180916,
			"-0.007": 7.58387373726,
			"-0.006": 17.2017763077,
			"-0.005": 19.6814959048,
			"-0.004": 22.4856834458,
			"-0.003": 21.2761192963,
			"-0.002": 17.5322796178,
			"-0.001": 14.4739999808,
			"0.0": 14.993937829,
			"0.001": 14.558267735,
			"0.002": 14.5445143946,
			"0.003": 15.3139561021,
			"0.004": 16.5806571353,
			"0.005": 14.6577252814,
			"0.006": 6.77270567512,
			"0.007": 4.2259044878,
			"0.008": 4.72768495518,
			"0.009": 4.85844784717,
			"0.01": 6.87506700648,
			"0.011": 7.63656704376,
			"0.012": 12.2304585733,
			"0.013": 7.33799580037,
			"0.014": 1.43342064616,
			"0.015": 0.0131767878216,
			"0.016": 0.0,
			"0.017": 0.0,
			"0.018": 0.0,
			"0.019": 0.0,
			"0.02": 0.0,
			"0.021": 0.0,
			"0.022": 0.0,
			"0.023": 0.0,
			"0.024": 0.0,
			"0.025": 0.0
		}
	}
}
