{
	 "smiles": "CC12CCCC3(C4OCCN4C1)C1CCC4CC1(CCC23)C(O)C4=C", 
	 "Tm": 393.15, 
	 "num_atms": 58, 
	 "gaussian": { 
		 "optdone": 1, 
		 "sigma_profile": "yes", 
		 "theory": "DFT", 
		 "functional": "B3LYP", 
		 "basiset": "6-31G**", 
		 "properties": { 
			 "R2extent": 7804.6246, 
			 "electric_dipole_moment_norm": 1.63533701114, 
			 "electric_quadrupole_moment_norm": 8.62122822166, 
			 "total_energy": -1063.38023956, 
			 "HOMO_LUMO_gap": 0.22589, 
			 "cosmo_polarized_energy": -9.03, 
			 "cosmo_cavitation_energy": 47.14, 
			 "cosmo_dispersion_energy": -33.53, 
			 "cosmo_repulsion_energy": 2.44, 
			 "cosmo_total_nonelectrostatic_energy": 16.05, 
			 "SMD_solvation_energy": 5.94 
		},
		"coords": [
			{
				"x": 1.5069310019,
				"y": -3.9861629617,
				"z": 0.1301902802,
				"element": "C" 
			},
			{
				"x": 1.7308398731,
				"y": -2.4649605718,
				"z": 0.0899824728,
				"element": "C" 
			},
			{
				"x": 2.5788889639,
				"y": -1.9928617858,
				"z": 1.3172202313,
				"element": "C" 
			},
			{
				"x": 1.9961893872,
				"y": -0.7797876443,
				"z": 2.0606789954,
				"element": "C" 
			},
			{
				"x": 1.5026059488,
				"y": 0.3495028955,
				"z": 1.1355541685,
				"element": "C" 
			},
			{
				"x": 0.6429465812,
				"y": -0.1369757675,
				"z": -0.0727215058,
				"element": "C" 
			},
			{
				"x": 1.4682824489,
				"y": 0.0467065437,
				"z": -1.3704155403,
				"element": "C" 
			},
			{
				"x": 1.9174271497,
				"y": 1.3768080148,
				"z": -1.6074133893,
				"element": "O" 
			},
			{
				"x": 3.1882576583,
				"y": 1.3131022061,
				"z": -2.2740237951,
				"element": "C" 
			},
			{
				"x": 3.4944545337,
				"y": -0.1879112789,
				"z": -2.4154344501,
				"element": "C" 
			},
			{
				"x": 2.7012604677,
				"y": -0.7188737716,
				"z": -1.3219843105,
				"element": "N" 
			},
			{
				"x": 2.5148800855,
				"y": -2.1490632118,
				"z": -1.208897838,
				"element": "C" 
			},
			{
				"x": -0.7717168109,
				"y": 0.509614245,
				"z": -0.2444079187,
				"element": "C" 
			},
			{
				"x": -0.8731217317,
				"y": 1.9398959444,
				"z": -0.814448008,
				"element": "C" 
			},
			{
				"x": -2.3485708444,
				"y": 2.2763792202,
				"z": -1.1157698522,
				"element": "C" 
			},
			{
				"x": -3.2759477711,
				"y": 1.9383938254,
				"z": 0.0784959709,
				"element": "C" 
			},
			{
				"x": -3.1749521411,
				"y": 0.436099302,
				"z": 0.4285336503,
				"element": "C" 
			},
			{
				"x": -1.7299992906,
				"y": 0.3379370834,
				"z": 0.9903662865,
				"element": "C" 
			},
			{
				"x": -1.401276884,
				"y": -0.949424941,
				"z": 1.7764572658,
				"element": "C" 
			},
			{
				"x": -0.7494416119,
				"y": -2.0903940978,
				"z": 0.9748082684,
				"element": "C" 
			},
			{
				"x": 0.3832848478,
				"y": -1.684176187,
				"z": -0.0206999372,
				"element": "C" 
			},
			{
				"x": -1.7393407341,
				"y": 1.5736238185,
				"z": 1.9586473146,
				"element": "C" 
			},
			{
				"x": -2.245237672,
				"y": 1.1449457015,
				"z": 3.2327122043,
				"element": "O" 
			},
			{
				"x": -2.6939031916,
				"y": 2.578242906,
				"z": 1.321016501,
				"element": "C" 
			},
			{
				"x": -2.9588388634,
				"y": 3.7902354195,
				"z": 1.8131934203,
				"element": "C" 
			},
			{
				"x": 0.9897906164,
				"y": -4.299962789,
				"z": 1.0410228517,
				"element": "H" 
			},
			{
				"x": 0.9150759906,
				"y": -4.3295845671,
				"z": -0.7267098028,
				"element": "H" 
			},
			{
				"x": 2.4678544125,
				"y": -4.5136831067,
				"z": 0.1053179875,
				"element": "H" 
			},
			{
				"x": 2.6928099493,
				"y": -2.8192446078,
				"z": 2.0293081431,
				"element": "H" 
			},
			{
				"x": 3.5874540114,
				"y": -1.7434401821,
				"z": 0.9698690583,
				"element": "H" 
			},
			{
				"x": 2.7539408179,
				"y": -0.3762838388,
				"z": 2.7435642352,
				"element": "H" 
			},
			{
				"x": 1.1754994729,
				"y": -1.1171459826,
				"z": 2.701233739,
				"element": "H" 
			},
			{
				"x": 2.3666927407,
				"y": 0.8885069895,
				"z": 0.7373668603,
				"element": "H" 
			},
			{
				"x": 0.9496018854,
				"y": 1.0736587692,
				"z": 1.7375155418,
				"element": "H" 
			},
			{
				"x": 0.8341527947,
				"y": -0.2675060038,
				"z": -2.2318731354,
				"element": "H" 
			},
			{
				"x": 3.1265008194,
				"y": 1.8224852559,
				"z": -3.2427737417,
				"element": "H" 
			},
			{
				"x": 3.935195588,
				"y": 1.8231566923,
				"z": -1.6548015909,
				"element": "H" 
			},
			{
				"x": 4.5567819288,
				"y": -0.4237857568,
				"z": -2.2936300383,
				"element": "H" 
			},
			{
				"x": 3.1680122711,
				"y": -0.5658138627,
				"z": -3.4036148238,
				"element": "H" 
			},
			{
				"x": 1.9751654303,
				"y": -2.5697705373,
				"z": -2.0824297725,
				"element": "H" 
			},
			{
				"x": 3.4997149375,
				"y": -2.6311620355,
				"z": -1.1759254453,
				"element": "H" 
			},
			{
				"x": -1.2285563643,
				"y": -0.1210393535,
				"z": -1.023582587,
				"element": "H" 
			},
			{
				"x": -0.2813703998,
				"y": 2.0330328575,
				"z": -1.7264841726,
				"element": "H" 
			},
			{
				"x": -0.4553756793,
				"y": 2.6740461516,
				"z": -0.1156602506,
				"element": "H" 
			},
			{
				"x": -2.6832265606,
				"y": 1.7080601327,
				"z": -1.9946023557,
				"element": "H" 
			},
			{
				"x": -2.4455557765,
				"y": 3.3394861705,
				"z": -1.3650654567,
				"element": "H" 
			},
			{
				"x": -4.2982999176,
				"y": 2.2721474362,
				"z": -0.1295578445,
				"element": "H" 
			},
			{
				"x": -3.350666642,
				"y": -0.2201731229,
				"z": -0.4306229239,
				"element": "H" 
			},
			{
				"x": -3.8995154523,
				"y": 0.1784282977,
				"z": 1.2096900829,
				"element": "H" 
			},
			{
				"x": -2.3103373086,
				"y": -1.3256247483,
				"z": 2.2558705954,
				"element": "H" 
			},
			{
				"x": -0.7444870639,
				"y": -0.6775042575,
				"z": 2.6062701485,
				"element": "H" 
			},
			{
				"x": -1.5255462828,
				"y": -2.6197694729,
				"z": 0.4095916636,
				"element": "H" 
			},
			{
				"x": -0.3752703569,
				"y": -2.8199663405,
				"z": 1.7004306907,
				"element": "H" 
			},
			{
				"x": -0.0027996707,
				"y": -1.9392913729,
				"z": -1.0188008003,
				"element": "H" 
			},
			{
				"x": -0.7408838361,
				"y": 2.0071319334,
				"z": 2.1023146008,
				"element": "H" 
			},
			{
				"x": -2.7890225683,
				"y": 1.8663709952,
				"z": 3.5731961415,
				"element": "H" 
			},
			{
				"x": -3.693229637,
				"y": 4.4469628826,
				"z": 1.3542386194,
				"element": "H" 
			},
			{
				"x": -2.4470015513,
				"y": 4.1776824675,
				"z": 2.6920932974,
				"element": "H" 
			}
		],
		 "valence_orbital": [ 
			{
				"type": "occ",
				"energy": -0.26328,
				"method": "rhf"
			},
			{
				"type": "occ",
				"energy": -0.25139,
				"method": "rhf"
			},
			{
				"type": "occ",
				"energy": -0.24856,
				"method": "rhf"
			},
			{
				"type": "occ",
				"energy": -0.24738,
				"method": "rhf"
			},
			{
				"type": "occ",
				"energy": -0.21674,
				"method": "rhf"
			},
			{
				"type": "unocc",
				"energy": 0.00915,
				"method": "rhf"
			},
			{
				"type": "unocc",
				"energy": 0.07374,
				"method": "rhf"
			},
			{
				"type": "unocc",
				"energy": 0.09059,
				"method": "rhf"
			},
			{
				"type": "unocc",
				"energy": 0.09241,
				"method": "rhf"
			},
			{
				"type": "unocc",
				"energy": 0.09577,
				"method": "rhf"
			}
		],
		"cosmo_sigma_profile": { 
			"-0.025": 0.0,
			"-0.024": 0.0,
			"-0.023": 0.0,
			"-0.022": 0.0,
			"-0.021": 0.0,
			"-0.02": 0.0,
			"-0.019": 0.0,
			"-0.018": 0.0,
			"-0.017": 0.0,
			"-0.016": 0.0,
			"-0.015": 0.0,
			"-0.014": 0.0,
			"-0.013": 0.299110649117,
			"-0.012": 0.803428427034,
			"-0.011": 0.322669545134,
			"-0.01": 1.5190274267,
			"-0.009": 0.618247143755,
			"-0.008": 0.59332932528,
			"-0.007": 1.62848139356,
			"-0.006": 1.4648502385,
			"-0.005": 5.10221515761,
			"-0.004": 13.6627108854,
			"-0.003": 30.3657551053,
			"-0.002": 65.6061343447,
			"-0.001": 63.1349454139,
			"0.0": 54.4338247359,
			"0.001": 45.8507093058,
			"0.002": 23.5925373314,
			"0.003": 10.4186079127,
			"0.004": 7.83578904068,
			"0.005": 7.28672229729,
			"0.006": 4.39416203279,
			"0.007": 3.61214403971,
			"0.008": 3.47947884073,
			"0.009": 3.6208848979,
			"0.01": 3.80328547258,
			"0.011": 2.76565812374,
			"0.012": 2.02431775039,
			"0.013": 1.24509789139,
			"0.014": 1.24291709399,
			"0.015": 0.0782924401501,
			"0.016": 0.0,
			"0.017": 0.0,
			"0.018": 0.0,
			"0.019": 0.0,
			"0.02": 0.0,
			"0.021": 0.0,
			"0.022": 0.0,
			"0.023": 0.0,
			"0.024": 0.0,
			"0.025": 0.0
		}
	}
}
