{
	 "smiles": "COC(=O)C1=CC(C#N)=C(OC)C=C1", 
	 "Tm": 397.15, 
	 "num_atms": 23, 
	 "gaussian": { 
		 "optdone": 1, 
		 "sigma_profile": "yes", 
		 "theory": "DFT", 
		 "functional": "B3LYP", 
		 "basiset": "6-31G**", 
		 "properties": { 
			 "R2extent": 3634.1695, 
			 "electric_dipole_moment_norm": 3.63899387331, 
			 "electric_quadrupole_moment_norm": 28.499071001, 
			 "total_energy": -666.894359954, 
			 "HOMO_LUMO_gap": 0.19029, 
			 "cosmo_polarized_energy": -14.36, 
			 "cosmo_cavitation_energy": 29.13, 
			 "cosmo_dispersion_energy": -20.59, 
			 "cosmo_repulsion_energy": 1.63, 
			 "cosmo_total_nonelectrostatic_energy": 10.16, 
			 "SMD_solvation_energy": 8.83 
		},
		"coords": [
			{
				"x": -0.776433911,
				"y": 3.7576473385,
				"z": 3.5458713853,
				"element": "C" 
			},
			{
				"x": -0.7648847228,
				"y": 2.6430150791,
				"z": 2.6396290067,
				"element": "O" 
			},
			{
				"x": 0.2201491927,
				"y": 2.6616027018,
				"z": 1.7144279804,
				"element": "C" 
			},
			{
				"x": 1.0479840867,
				"y": 3.5490932908,
				"z": 1.6371088164,
				"element": "O" 
			},
			{
				"x": 0.1718306801,
				"y": 1.4804464422,
				"z": 0.8118640753,
				"element": "C" 
			},
			{
				"x": -0.7963594059,
				"y": 0.4784729957,
				"z": 0.9309852778,
				"element": "C" 
			},
			{
				"x": -0.7985549745,
				"y": -0.6124978179,
				"z": 0.0566854024,
				"element": "C" 
			},
			{
				"x": -1.7931287558,
				"y": -1.6344629294,
				"z": 0.1848367269,
				"element": "C" 
			},
			{
				"x": -2.6129576339,
				"y": -2.449674424,
				"z": 0.312272493,
				"element": "N" 
			},
			{
				"x": 0.1865059303,
				"y": -0.7073206042,
				"z": -0.9595685082,
				"element": "C" 
			},
			{
				"x": 0.106533307,
				"y": -1.7926559649,
				"z": -1.7551962353,
				"element": "O" 
			},
			{
				"x": 1.0621261499,
				"y": -1.9573930194,
				"z": -2.7993383347,
				"element": "C" 
			},
			{
				"x": 1.1542216608,
				"y": 0.300196509,
				"z": -1.0737250404,
				"element": "C" 
			},
			{
				"x": 1.1402783426,
				"y": 1.3778809123,
				"z": -0.1947297929,
				"element": "C" 
			},
			{
				"x": -0.9033798102,
				"y": 4.6954981532,
				"z": 2.9995185761,
				"element": "H" 
			},
			{
				"x": -1.6206410747,
				"y": 3.5847187511,
				"z": 4.2129008514,
				"element": "H" 
			},
			{
				"x": 0.1577567847,
				"y": 3.802753579,
				"z": 4.111051947,
				"element": "H" 
			},
			{
				"x": -1.5526295029,
				"y": 0.5419885561,
				"z": 1.7037489391,
				"element": "H" 
			},
			{
				"x": 2.0798912675,
				"y": -2.0332087341,
				"z": -2.3993715198,
				"element": "H" 
			},
			{
				"x": 0.7964031931,
				"y": -2.8906235365,
				"z": -3.2956555455,
				"element": "H" 
			},
			{
				"x": 1.0107978659,
				"y": -1.1328951878,
				"z": -3.5198490071,
				"element": "H" 
			},
			{
				"x": 1.9147545399,
				"y": 0.2464611004,
				"z": -1.8426719037,
				"element": "H" 
			},
			{
				"x": 1.8846367906,
				"y": 2.163056809,
				"z": -0.2743955898,
				"element": "H" 
			}
		],
		 "valence_orbital": [ 
			{
				"type": "occ",
				"energy": -0.32744,
				"method": "rhf"
			},
			{
				"type": "occ",
				"energy": -0.30831,
				"method": "rhf"
			},
			{
				"type": "occ",
				"energy": -0.28155,
				"method": "rhf"
			},
			{
				"type": "occ",
				"energy": -0.27451,
				"method": "rhf"
			},
			{
				"type": "occ",
				"energy": -0.24743,
				"method": "rhf"
			},
			{
				"type": "unocc",
				"energy": -0.05714,
				"method": "rhf"
			},
			{
				"type": "unocc",
				"energy": -0.0456,
				"method": "rhf"
			},
			{
				"type": "unocc",
				"energy": 0.03475,
				"method": "rhf"
			},
			{
				"type": "unocc",
				"energy": 0.03708,
				"method": "rhf"
			},
			{
				"type": "unocc",
				"energy": 0.07996,
				"method": "rhf"
			}
		],
		"cosmo_sigma_profile": { 
			"-0.025": 0.0,
			"-0.024": 0.0,
			"-0.023": 0.0,
			"-0.022": 0.0,
			"-0.021": 0.0,
			"-0.02": 0.0,
			"-0.019": 0.0,
			"-0.018": 0.0,
			"-0.017": 0.0,
			"-0.016": 0.0,
			"-0.015": 0.0,
			"-0.014": 0.0,
			"-0.013": 0.0,
			"-0.012": 0.0,
			"-0.011": 0.0,
			"-0.01": 0.0,
			"-0.009": 0.126769274261,
			"-0.008": 3.91481005691,
			"-0.007": 11.3501432711,
			"-0.006": 18.9352124028,
			"-0.005": 17.7998732697,
			"-0.004": 20.4898741187,
			"-0.003": 17.3016289263,
			"-0.002": 15.8460793387,
			"-0.001": 19.8562952886,
			"0.0": 21.0894377883,
			"0.001": 15.748523539,
			"0.002": 9.91634582677,
			"0.003": 5.71381022357,
			"0.004": 6.85767699822,
			"0.005": 6.5723089694,
			"0.006": 6.06683764303,
			"0.007": 6.54680269246,
			"0.008": 6.08051711718,
			"0.009": 5.14937744156,
			"0.01": 4.67554408204,
			"0.011": 6.38606594171,
			"0.012": 5.91747389678,
			"0.013": 1.63454523107,
			"0.014": 0.0407571518584,
			"0.015": 0.0,
			"0.016": 0.0,
			"0.017": 0.0,
			"0.018": 0.0,
			"0.019": 0.0,
			"0.02": 0.0,
			"0.021": 0.0,
			"0.022": 0.0,
			"0.023": 0.0,
			"0.024": 0.0,
			"0.025": 0.0
		}
	}
}
