{
	 "smiles": "C1C2CC3CC1CC(C2)C3", 
	 "Tm": 540.15, 
	 "num_atms": 26, 
	 "gaussian": { 
		 "optdone": 1, 
		 "sigma_profile": "yes", 
		 "theory": "DFT", 
		 "functional": "B3LYP", 
		 "basiset": "6-31G**", 
		 "properties": { 
			 "R2extent": 1266.1024, 
			 "electric_dipole_moment_norm": 0.0, 
			 "electric_quadrupole_moment_norm": 0.0003, 
			 "total_energy": -390.740878506, 
			 "HOMO_LUMO_gap": 0.34283, 
			 "cosmo_polarized_energy": -0.44, 
			 "cosmo_cavitation_energy": 23.24, 
			 "cosmo_dispersion_energy": -18.42, 
			 "cosmo_repulsion_energy": 1.46, 
			 "cosmo_total_nonelectrostatic_energy": 6.28, 
			 "SMD_solvation_energy": 2.36 
		},
		"coords": [
			{
				"x": 1.7453805248,
				"y": -0.7366934655,
				"z": -0.9163579514,
				"element": "C" 
			},
			{
				"x": 0.6643567825,
				"y": -0.2920442034,
				"z": -1.9249647316,
				"element": "C" 
			},
			{
				"x": -0.4618096207,
				"y": -1.3472718093,
				"z": -1.9658298597,
				"element": "C" 
			},
			{
				"x": -1.0919515026,
				"y": -1.4917247875,
				"z": -0.5638454894,
				"element": "C" 
			},
			{
				"x": -0.0067484494,
				"y": -1.9335504799,
				"z": 0.4414861041,
				"element": "C" 
			},
			{
				"x": 1.12033883,
				"y": -0.8795797697,
				"z": 0.4880746034,
				"element": "C" 
			},
			{
				"x": 0.5322717599,
				"y": 0.4787698677,
				"z": 0.9268524349,
				"element": "C" 
			},
			{
				"x": -0.5515298143,
				"y": 0.926293342,
				"z": -0.0774503552,
				"element": "C" 
			},
			{
				"x": 0.0776015871,
				"y": 1.065012138,
				"z": -1.4804785452,
				"element": "C" 
			},
			{
				"x": -1.6747844301,
				"y": -0.1318840591,
				"z": -0.1227289103,
				"element": "C" 
			},
			{
				"x": 2.1849951943,
				"y": -1.6922946723,
				"z": -1.2320458431,
				"element": "H" 
			},
			{
				"x": 2.5625509808,
				"y": -0.0033771067,
				"z": -0.8921893131,
				"element": "H" 
			},
			{
				"x": 1.110830095,
				"y": -0.1911225114,
				"z": -2.9226450093,
				"element": "H" 
			},
			{
				"x": -1.2284016704,
				"y": -1.0520715351,
				"z": -2.6947471808,
				"element": "H" 
			},
			{
				"x": -0.0608300777,
				"y": -2.3134981275,
				"z": -2.300107505,
				"element": "H" 
			},
			{
				"x": -1.892130267,
				"y": -2.2424648203,
				"z": -0.5954894285,
				"element": "H" 
			},
			{
				"x": -0.4467714888,
				"y": -2.0590870361,
				"z": 1.4398482923,
				"element": "H" 
			},
			{
				"x": 0.4023393771,
				"y": -2.9099896432,
				"z": 0.1493800328,
				"element": "H" 
			},
			{
				"x": 1.8906003956,
				"y": -1.1956146087,
				"z": 1.2034201021,
				"element": "H" 
			},
			{
				"x": 1.328219722,
				"y": 1.233347849,
				"z": 0.9833688883,
				"element": "H" 
			},
			{
				"x": 0.1015368601,
				"y": 0.3952741856,
				"z": 1.933646924,
				"element": "H" 
			},
			{
				"x": -0.9680417767,
				"y": 1.8921570278,
				"z": 0.2364265879,
				"element": "H" 
			},
			{
				"x": -0.67935403,
				"y": 1.4023887943,
				"z": -2.2011062383,
				"element": "H" 
			},
			{
				"x": 0.8657608678,
				"y": 1.8296759535,
				"z": -1.4659544413,
				"element": "H" 
			},
			{
				"x": -2.4624435545,
				"y": 0.1842897772,
				"z": -0.8196729897,
				"element": "H" 
			},
			{
				"x": -2.1438862948,
				"y": -0.2258402994,
				"z": 0.8658098221,
				"element": "H" 
			}
		],
		 "valence_orbital": [ 
			{
				"type": "occ",
				"energy": -0.31715,
				"method": "rhf"
			},
			{
				"type": "occ",
				"energy": -0.31714,
				"method": "rhf"
			},
			{
				"type": "occ",
				"energy": -0.27328,
				"method": "rhf"
			},
			{
				"type": "occ",
				"energy": -0.27327,
				"method": "rhf"
			},
			{
				"type": "occ",
				"energy": -0.27326,
				"method": "rhf"
			},
			{
				"type": "unocc",
				"energy": 0.06957,
				"method": "rhf"
			},
			{
				"type": "unocc",
				"energy": 0.12999,
				"method": "rhf"
			},
			{
				"type": "unocc",
				"energy": 0.13,
				"method": "rhf"
			},
			{
				"type": "unocc",
				"energy": 0.13,
				"method": "rhf"
			},
			{
				"type": "unocc",
				"energy": 0.13604,
				"method": "rhf"
			}
		],
		"cosmo_sigma_profile": { 
			"-0.025": 0.0,
			"-0.024": 0.0,
			"-0.023": 0.0,
			"-0.022": 0.0,
			"-0.021": 0.0,
			"-0.02": 0.0,
			"-0.019": 0.0,
			"-0.018": 0.0,
			"-0.017": 0.0,
			"-0.016": 0.0,
			"-0.015": 0.0,
			"-0.014": 0.0,
			"-0.013": 0.0,
			"-0.012": 0.0,
			"-0.011": 0.0,
			"-0.01": 0.0,
			"-0.009": 0.0,
			"-0.008": 0.0,
			"-0.007": 0.0,
			"-0.006": 0.0,
			"-0.005": 0.0,
			"-0.004": 0.0,
			"-0.003": 0.0,
			"-0.002": 15.9663565044,
			"-0.001": 49.6940320536,
			"0.0": 47.4584314281,
			"0.001": 44.169503474,
			"0.002": 19.3115489737,
			"0.003": 0.232830344275,
			"0.004": 0.0,
			"0.005": 0.0,
			"0.006": 0.0,
			"0.007": 0.0,
			"0.008": 0.0,
			"0.009": 0.0,
			"0.01": 0.0,
			"0.011": 0.0,
			"0.012": 0.0,
			"0.013": 0.0,
			"0.014": 0.0,
			"0.015": 0.0,
			"0.016": 0.0,
			"0.017": 0.0,
			"0.018": 0.0,
			"0.019": 0.0,
			"0.02": 0.0,
			"0.021": 0.0,
			"0.022": 0.0,
			"0.023": 0.0,
			"0.024": 0.0,
			"0.025": 0.0
		}
	}
}
