{
	 "smiles": "CCCCCCCCCCCC=C", 
	 "Tm": 260.15, 
	 "num_atms": 39, 
	 "gaussian": { 
		 "optdone": 1, 
		 "sigma_profile": "yes", 
		 "theory": "DFT", 
		 "functional": "B3LYP", 
		 "basiset": "6-31G**", 
		 "properties": { 
			 "R2extent": 5531.0508, 
			 "electric_dipole_moment_norm": 0.386872911949, 
			 "electric_quadrupole_moment_norm": 3.19944048546, 
			 "total_energy": -511.058593993, 
			 "HOMO_LUMO_gap": 0.27408, 
			 "cosmo_polarized_energy": -1.92, 
			 "cosmo_cavitation_energy": 38.6, 
			 "cosmo_dispersion_energy": -26.09, 
			 "cosmo_repulsion_energy": 2.15, 
			 "cosmo_total_nonelectrostatic_energy": 14.65, 
			 "SMD_solvation_energy": 5.99 
		},
		"coords": [
			{
				"x": -1.3439801585,
				"y": -3.4338845322,
				"z": 2.7944965566,
				"element": "C" 
			},
			{
				"x": -0.3816195607,
				"y": -3.2409971621,
				"z": 1.6176863431,
				"element": "C" 
			},
			{
				"x": -0.8923865548,
				"y": -2.2221038045,
				"z": 0.589027677,
				"element": "C" 
			},
			{
				"x": -0.0051829096,
				"y": -2.0662076974,
				"z": -0.6581830521,
				"element": "C" 
			},
			{
				"x": 1.4239080712,
				"y": -1.5486520311,
				"z": -0.4099944405,
				"element": "C" 
			},
			{
				"x": 1.5779539971,
				"y": -0.1561008737,
				"z": 0.2331837723,
				"element": "C" 
			},
			{
				"x": 1.1094638418,
				"y": 1.0487109927,
				"z": -0.6136469087,
				"element": "C" 
			},
			{
				"x": -0.3694499943,
				"y": 1.4362812014,
				"z": -0.4494917017,
				"element": "C" 
			},
			{
				"x": -0.7977424638,
				"y": 2.7475353494,
				"z": -1.1340661363,
				"element": "C" 
			},
			{
				"x": -0.7405078548,
				"y": 2.7611169406,
				"z": -2.6779072753,
				"element": "C" 
			},
			{
				"x": 0.5885697275,
				"y": 3.2642320863,
				"z": -3.2800443239,
				"element": "C" 
			},
			{
				"x": 0.5562039469,
				"y": 3.3248885123,
				"z": -4.7828331334,
				"element": "C" 
			},
			{
				"x": 1.3759505706,
				"y": 2.6632861881,
				"z": -5.600373828,
				"element": "C" 
			},
			{
				"x": -0.9584559604,
				"y": -4.16435555,
				"z": 3.513465771,
				"element": "H" 
			},
			{
				"x": -1.5058194563,
				"y": -2.4924837179,
				"z": 3.3322735407,
				"element": "H" 
			},
			{
				"x": -2.3228766953,
				"y": -3.7887272756,
				"z": 2.4519179755,
				"element": "H" 
			},
			{
				"x": -0.2157922156,
				"y": -4.2056467516,
				"z": 1.1179672588,
				"element": "H" 
			},
			{
				"x": 0.597219968,
				"y": -2.9267807804,
				"z": 2.0014661637,
				"element": "H" 
			},
			{
				"x": -1.8962673039,
				"y": -2.5271845266,
				"z": 0.26246743,
				"element": "H" 
			},
			{
				"x": -1.0239743068,
				"y": -1.2490802907,
				"z": 1.0809802405,
				"element": "H" 
			},
			{
				"x": -0.5125381605,
				"y": -1.4101027957,
				"z": -1.3759556344,
				"element": "H" 
			},
			{
				"x": 0.0709530238,
				"y": -3.0430978348,
				"z": -1.156010842,
				"element": "H" 
			},
			{
				"x": 1.9564854193,
				"y": -1.5429383249,
				"z": -1.3711268201,
				"element": "H" 
			},
			{
				"x": 1.9595425402,
				"y": -2.2730915131,
				"z": 0.2170843688,
				"element": "H" 
			},
			{
				"x": 2.6458663522,
				"y": -0.0250720474,
				"z": 0.4493567458,
				"element": "H" 
			},
			{
				"x": 1.0774281083,
				"y": -0.131198716,
				"z": 1.2108216364,
				"element": "H" 
			},
			{
				"x": 1.3330129866,
				"y": 0.847084793,
				"z": -1.6694844061,
				"element": "H" 
			},
			{
				"x": 1.7163121291,
				"y": 1.9226999283,
				"z": -0.3398456673,
				"element": "H" 
			},
			{
				"x": -0.5811423932,
				"y": 1.5307176266,
				"z": 0.6248278858,
				"element": "H" 
			},
			{
				"x": -1.0155633756,
				"y": 0.6272612421,
				"z": -0.8118307411,
				"element": "H" 
			},
			{
				"x": -0.1969247758,
				"y": 3.5799928775,
				"z": -0.7401517252,
				"element": "H" 
			},
			{
				"x": -1.8296444655,
				"y": 2.9539462948,
				"z": -0.8235439871,
				"element": "H" 
			},
			{
				"x": -0.957543884,
				"y": 1.7573242276,
				"z": -3.0669833948,
				"element": "H" 
			},
			{
				"x": -1.54339106,
				"y": 3.4068129533,
				"z": -3.0573973045,
				"element": "H" 
			},
			{
				"x": 0.7835838948,
				"y": 4.2713418036,
				"z": -2.8811305017,
				"element": "H" 
			},
			{
				"x": 1.4250268417,
				"y": 2.6360938621,
				"z": -2.9564293243,
				"element": "H" 
			},
			{
				"x": -0.2189518919,
				"y": 3.9608454053,
				"z": -5.2147918514,
				"element": "H" 
			},
			{
				"x": 2.1617308016,
				"y": 2.0155597567,
				"z": -5.2176081746,
				"element": "H" 
			},
			{
				"x": 1.2971432204,
				"y": 2.745474184,
				"z": -6.6805921914,
				"element": "H" 
			}
		],
		 "valence_orbital": [ 
			{
				"type": "occ",
				"energy": -0.30967,
				"method": "rhf"
			},
			{
				"type": "occ",
				"energy": -0.30392,
				"method": "rhf"
			},
			{
				"type": "occ",
				"energy": -0.30091,
				"method": "rhf"
			},
			{
				"type": "occ",
				"energy": -0.29329,
				"method": "rhf"
			},
			{
				"type": "occ",
				"energy": -0.24866,
				"method": "rhf"
			},
			{
				"type": "unocc",
				"energy": 0.02542,
				"method": "rhf"
			},
			{
				"type": "unocc",
				"energy": 0.07877,
				"method": "rhf"
			},
			{
				"type": "unocc",
				"energy": 0.09198,
				"method": "rhf"
			},
			{
				"type": "unocc",
				"energy": 0.09961,
				"method": "rhf"
			},
			{
				"type": "unocc",
				"energy": 0.10765,
				"method": "rhf"
			}
		],
		"cosmo_sigma_profile": { 
			"-0.025": 0.0,
			"-0.024": 0.0,
			"-0.023": 0.0,
			"-0.022": 0.0,
			"-0.021": 0.0,
			"-0.02": 0.0,
			"-0.019": 0.0,
			"-0.018": 0.0,
			"-0.017": 0.0,
			"-0.016": 0.0,
			"-0.015": 0.0,
			"-0.014": 0.0,
			"-0.013": 0.0,
			"-0.012": 0.0,
			"-0.011": 0.0,
			"-0.01": 0.0,
			"-0.009": 0.0,
			"-0.008": 0.0,
			"-0.007": 0.0,
			"-0.006": 0.0,
			"-0.005": 0.822460140864,
			"-0.004": 5.29745503407,
			"-0.003": 9.98665011493,
			"-0.002": 40.2436068367,
			"-0.001": 67.1765363596,
			"0.0": 69.9596817891,
			"0.001": 57.420531831,
			"0.002": 26.0557132269,
			"0.003": 5.03859821902,
			"0.004": 4.37952895485,
			"0.005": 3.24463498676,
			"0.006": 2.80973098695,
			"0.007": 2.93500336617,
			"0.008": 0.933027139061,
			"0.009": 0.0,
			"0.01": 0.0,
			"0.011": 0.0,
			"0.012": 0.0,
			"0.013": 0.0,
			"0.014": 0.0,
			"0.015": 0.0,
			"0.016": 0.0,
			"0.017": 0.0,
			"0.018": 0.0,
			"0.019": 0.0,
			"0.02": 0.0,
			"0.021": 0.0,
			"0.022": 0.0,
			"0.023": 0.0,
			"0.024": 0.0,
			"0.025": 0.0
		}
	}
}
