{
	 "smiles": "CCN(CC)C1=CC=C(C=C1)C(C)=O", 
	 "Tm": 321.15, 
	 "num_atms": 31, 
	 "gaussian": { 
		 "optdone": 1, 
		 "sigma_profile": "yes", 
		 "theory": "DFT", 
		 "functional": "B3LYP", 
		 "basiset": "6-31G**", 
		 "properties": { 
			 "R2extent": 4360.2112, 
			 "electric_dipole_moment_norm": 5.40670068526, 
			 "electric_quadrupole_moment_norm": 19.1012622502, 
			 "total_energy": -597.506212789, 
			 "HOMO_LUMO_gap": 0.16372, 
			 "cosmo_polarized_energy": -11.08, 
			 "cosmo_cavitation_energy": 32.51, 
			 "cosmo_dispersion_energy": -23.45, 
			 "cosmo_repulsion_energy": 1.83, 
			 "cosmo_total_nonelectrostatic_energy": 10.89, 
			 "SMD_solvation_energy": 5.77 
		},
		"coords": [
			{
				"x": 3.4629124411,
				"y": 1.5573934159,
				"z": -1.450879793,
				"element": "C" 
			},
			{
				"x": 2.6736900922,
				"y": 0.2621264032,
				"z": -1.2377138609,
				"element": "C" 
			},
			{
				"x": 1.5103491417,
				"y": 0.4109240373,
				"z": -0.3617510123,
				"element": "N" 
			},
			{
				"x": 1.7483812762,
				"y": 1.0222721878,
				"z": 0.9508339909,
				"element": "C" 
			},
			{
				"x": 1.324023618,
				"y": 2.4924328756,
				"z": 1.0639449252,
				"element": "C" 
			},
			{
				"x": 0.3637982383,
				"y": -0.3474046864,
				"z": -0.5644021258,
				"element": "C" 
			},
			{
				"x": 0.2770488239,
				"y": -1.3498133024,
				"z": -1.5648104288,
				"element": "C" 
			},
			{
				"x": -0.8883916243,
				"y": -2.0735136613,
				"z": -1.7542003061,
				"element": "C" 
			},
			{
				"x": -2.0299929036,
				"y": -1.8609557172,
				"z": -0.9641378379,
				"element": "C" 
			},
			{
				"x": -1.946551418,
				"y": -0.8802043706,
				"z": 0.0368156911,
				"element": "C" 
			},
			{
				"x": -0.7887403889,
				"y": -0.1417636007,
				"z": 0.2355678195,
				"element": "C" 
			},
			{
				"x": -3.2442224609,
				"y": -2.6775295844,
				"z": -1.2216703255,
				"element": "C" 
			},
			{
				"x": -4.4769221093,
				"y": -2.4513729467,
				"z": -0.35622076,
				"element": "C" 
			},
			{
				"x": -3.2651997525,
				"y": -3.5208463475,
				"z": -2.1108159037,
				"element": "O" 
			},
			{
				"x": 4.2836106301,
				"y": 1.3663857109,
				"z": -2.1497747674,
				"element": "H" 
			},
			{
				"x": 3.9052690551,
				"y": 1.9409203472,
				"z": -0.5272041038,
				"element": "H" 
			},
			{
				"x": 2.8252868415,
				"y": 2.3374313824,
				"z": -1.8773558497,
				"element": "H" 
			},
			{
				"x": 2.3205747068,
				"y": -0.0675052765,
				"z": -2.215015222,
				"element": "H" 
			},
			{
				"x": 3.3501858316,
				"y": -0.5233007273,
				"z": -0.8597084345,
				"element": "H" 
			},
			{
				"x": 1.2349237259,
				"y": 0.4274038082,
				"z": 1.7138776148,
				"element": "H" 
			},
			{
				"x": 2.8178938077,
				"y": 0.933315766,
				"z": 1.1739481596,
				"element": "H" 
			},
			{
				"x": 0.2595199571,
				"y": 2.6178839169,
				"z": 0.8470220245,
				"element": "H" 
			},
			{
				"x": 1.8798950808,
				"y": 3.122421534,
				"z": 0.3648421112,
				"element": "H" 
			},
			{
				"x": 1.5111460301,
				"y": 2.8617267966,
				"z": 2.0785297006,
				"element": "H" 
			},
			{
				"x": 1.1344077494,
				"y": -1.5907963715,
				"z": -2.1802771364,
				"element": "H" 
			},
			{
				"x": -0.9365356447,
				"y": -2.8420610336,
				"z": -2.5190570877,
				"element": "H" 
			},
			{
				"x": -2.801876595,
				"y": -0.6746363489,
				"z": 0.6734459254,
				"element": "H" 
			},
			{
				"x": -0.788917966,
				"y": 0.6218544998,
				"z": 1.0032764813,
				"element": "H" 
			},
			{
				"x": -4.8340670685,
				"y": -1.4187891091,
				"z": -0.4392685604,
				"element": "H" 
			},
			{
				"x": -4.2572594751,
				"y": -2.6365095599,
				"z": 0.7011538271,
				"element": "H" 
			},
			{
				"x": -5.2623396408,
				"y": -3.1320900378,
				"z": -0.6860947554,
				"element": "H" 
			}
		],
		 "valence_orbital": [ 
			{
				"type": "occ",
				"energy": -0.32889,
				"method": "rhf"
			},
			{
				"type": "occ",
				"energy": -0.28307,
				"method": "rhf"
			},
			{
				"type": "occ",
				"energy": -0.24978,
				"method": "rhf"
			},
			{
				"type": "occ",
				"energy": -0.23005,
				"method": "rhf"
			},
			{
				"type": "occ",
				"energy": -0.19699,
				"method": "rhf"
			},
			{
				"type": "unocc",
				"energy": -0.03327,
				"method": "rhf"
			},
			{
				"type": "unocc",
				"energy": 0.00053,
				"method": "rhf"
			},
			{
				"type": "unocc",
				"energy": 0.05788,
				"method": "rhf"
			},
			{
				"type": "unocc",
				"energy": 0.07811,
				"method": "rhf"
			},
			{
				"type": "unocc",
				"energy": 0.09718,
				"method": "rhf"
			}
		],
		"cosmo_sigma_profile": { 
			"-0.025": 0.0,
			"-0.024": 0.0,
			"-0.023": 0.0,
			"-0.022": 0.0,
			"-0.021": 0.0,
			"-0.02": 0.0,
			"-0.019": 0.0,
			"-0.018": 0.0,
			"-0.017": 0.0,
			"-0.016": 0.0,
			"-0.015": 0.0,
			"-0.014": 0.0,
			"-0.013": 0.0,
			"-0.012": 0.0,
			"-0.011": 0.0,
			"-0.01": 0.0,
			"-0.009": 0.0,
			"-0.008": 0.0,
			"-0.007": 0.837639533579,
			"-0.006": 5.6503342903,
			"-0.005": 17.531863529,
			"-0.004": 25.3708482289,
			"-0.003": 32.6741010754,
			"-0.002": 35.045817286,
			"-0.001": 27.942949789,
			"0.0": 23.9210211189,
			"0.001": 17.4413002961,
			"0.002": 9.03301357624,
			"0.003": 9.39447126791,
			"0.004": 12.4031114545,
			"0.005": 13.6958140439,
			"0.006": 6.0375995795,
			"0.007": 2.43455057458,
			"0.008": 1.72923737369,
			"0.009": 0.922529940489,
			"0.01": 2.01465955523,
			"0.011": 2.12261831904,
			"0.012": 3.04826143832,
			"0.013": 4.40931602469,
			"0.014": 1.78855823498,
			"0.015": 0.181405472628,
			"0.016": 0.0,
			"0.017": 0.0,
			"0.018": 0.0,
			"0.019": 0.0,
			"0.02": 0.0,
			"0.021": 0.0,
			"0.022": 0.0,
			"0.023": 0.0,
			"0.024": 0.0,
			"0.025": 0.0
		}
	}
}
