{
	 "smiles": "CC(C)(C)OC(=O)NC(CC1=CC=CC=C1)C=O", 
	 "Tm": 360.15, 
	 "num_atms": 37, 
	 "gaussian": { 
		 "optdone": 1, 
		 "sigma_profile": "yes", 
		 "theory": "DFT", 
		 "functional": "B3LYP", 
		 "basiset": "6-31G**", 
		 "properties": { 
			 "R2extent": 4263.8432, 
			 "electric_dipole_moment_norm": 3.58254823275, 
			 "electric_quadrupole_moment_norm": 15.4394610683, 
			 "total_energy": -825.381956393, 
			 "HOMO_LUMO_gap": 0.20468, 
			 "cosmo_polarized_energy": -16.66, 
			 "cosmo_cavitation_energy": 38.95, 
			 "cosmo_dispersion_energy": -24.79, 
			 "cosmo_repulsion_energy": 1.91, 
			 "cosmo_total_nonelectrostatic_energy": 16.07, 
			 "SMD_solvation_energy": 7.52 
		},
		"coords": [
			{
				"x": 0.9783168723,
				"y": 3.1034568344,
				"z": -0.3089419265,
				"element": "C" 
			},
			{
				"x": 0.3296112974,
				"y": 1.776732858,
				"z": -0.7178587574,
				"element": "C" 
			},
			{
				"x": 1.081880762,
				"y": 1.1462531659,
				"z": -1.8918508823,
				"element": "C" 
			},
			{
				"x": -1.1610585543,
				"y": 1.9251628865,
				"z": -1.0367779726,
				"element": "C" 
			},
			{
				"x": 0.510074103,
				"y": 0.7779398208,
				"z": 0.3542003784,
				"element": "O" 
			},
			{
				"x": 0.0717498195,
				"y": 1.0223811331,
				"z": 1.6001549556,
				"element": "C" 
			},
			{
				"x": -0.6339947866,
				"y": 1.9502309696,
				"z": 1.9602660227,
				"element": "O" 
			},
			{
				"x": 0.4874509376,
				"y": 0.0474332207,
				"z": 2.4859175069,
				"element": "N" 
			},
			{
				"x": 1.5040492552,
				"y": -0.9702158614,
				"z": 2.3017711355,
				"element": "C" 
			},
			{
				"x": 0.9839670724,
				"y": -2.3534608372,
				"z": 1.814647236,
				"element": "C" 
			},
			{
				"x": 0.2930836932,
				"y": -2.4136703467,
				"z": 0.4698896587,
				"element": "C" 
			},
			{
				"x": 0.9982527961,
				"y": -2.7663588563,
				"z": -0.688364201,
				"element": "C" 
			},
			{
				"x": 0.3542458602,
				"y": -2.8467723008,
				"z": -1.9242730552,
				"element": "C" 
			},
			{
				"x": -1.0124913471,
				"y": -2.5780541964,
				"z": -2.0197142353,
				"element": "C" 
			},
			{
				"x": -1.7284514478,
				"y": -2.2334201245,
				"z": -0.8707850718,
				"element": "C" 
			},
			{
				"x": -1.0803691884,
				"y": -2.1557220856,
				"z": 0.3620217096,
				"element": "C" 
			},
			{
				"x": 2.750490827,
				"y": -0.4854142327,
				"z": 1.5500005417,
				"element": "C" 
			},
			{
				"x": 3.1439722335,
				"y": 0.6552050448,
				"z": 1.5326055434,
				"element": "O" 
			},
			{
				"x": 0.9721103866,
				"y": 3.7890136918,
				"z": -1.1627600151,
				"element": "H" 
			},
			{
				"x": 2.016182393,
				"y": 2.9363281416,
				"z": -0.0064665199,
				"element": "H" 
			},
			{
				"x": 0.4401020196,
				"y": 3.5669428241,
				"z": 0.5181738158,
				"element": "H" 
			},
			{
				"x": 2.1398106058,
				"y": 1.0185517614,
				"z": -1.6449505772,
				"element": "H" 
			},
			{
				"x": 0.6616024279,
				"y": 0.1681947879,
				"z": -2.1402894227,
				"element": "H" 
			},
			{
				"x": 1.0072601955,
				"y": 1.7935114537,
				"z": -2.7710519684,
				"element": "H" 
			},
			{
				"x": -1.592109772,
				"y": 0.9515144591,
				"z": -1.2885647357,
				"element": "H" 
			},
			{
				"x": -1.2873379692,
				"y": 2.589571403,
				"z": -1.8981786831,
				"element": "H" 
			},
			{
				"x": -1.6989055389,
				"y": 2.3437912002,
				"z": -0.1856679374,
				"element": "H" 
			},
			{
				"x": 0.216982833,
				"y": 0.2742027266,
				"z": 3.4306603989,
				"element": "H" 
			},
			{
				"x": 1.9099179868,
				"y": -1.1688133393,
				"z": 3.3072129031,
				"element": "H" 
			},
			{
				"x": 1.8414476303,
				"y": -3.0387751876,
				"z": 1.8166094551,
				"element": "H" 
			},
			{
				"x": 0.2993057203,
				"y": -2.7191776122,
				"z": 2.5872993347,
				"element": "H" 
			},
			{
				"x": 2.0600511501,
				"y": -2.9926356919,
				"z": -0.6228034866,
				"element": "H" 
			},
			{
				"x": 0.9179892651,
				"y": -3.1284525413,
				"z": -2.8092372932,
				"element": "H" 
			},
			{
				"x": -1.5177390301,
				"y": -2.6475935322,
				"z": -2.9787353379,
				"element": "H" 
			},
			{
				"x": -2.7946593381,
				"y": -2.0342747886,
				"z": -0.9326885084,
				"element": "H" 
			},
			{
				"x": -1.644687649,
				"y": -1.8927733277,
				"z": 1.252487456,
				"element": "H" 
			},
			{
				"x": 3.331396478,
				"y": -1.3045335209,
				"z": 1.0690425355,
				"element": "H" 
			}
		],
		 "valence_orbital": [ 
			{
				"type": "occ",
				"energy": -0.26746,
				"method": "rhf"
			},
			{
				"type": "occ",
				"energy": -0.25783,
				"method": "rhf"
			},
			{
				"type": "occ",
				"energy": -0.25752,
				"method": "rhf"
			},
			{
				"type": "occ",
				"energy": -0.25169,
				"method": "rhf"
			},
			{
				"type": "occ",
				"energy": -0.23874,
				"method": "rhf"
			},
			{
				"type": "unocc",
				"energy": -0.03406,
				"method": "rhf"
			},
			{
				"type": "unocc",
				"energy": -0.0075,
				"method": "rhf"
			},
			{
				"type": "unocc",
				"energy": -0.00427,
				"method": "rhf"
			},
			{
				"type": "unocc",
				"energy": 0.05817,
				"method": "rhf"
			},
			{
				"type": "unocc",
				"energy": 0.06602,
				"method": "rhf"
			}
		],
		"cosmo_sigma_profile": { 
			"-0.025": 0.0,
			"-0.024": 0.0,
			"-0.023": 0.0,
			"-0.022": 0.0,
			"-0.021": 0.0,
			"-0.02": 0.0,
			"-0.019": 0.0,
			"-0.018": 0.0,
			"-0.017": 0.0,
			"-0.016": 0.0,
			"-0.015": 0.0539904752114,
			"-0.014": 1.20458021288,
			"-0.013": 1.25290020808,
			"-0.012": 0.905697744699,
			"-0.011": 1.32481740579,
			"-0.01": 1.68495586807,
			"-0.009": 4.06136481654,
			"-0.008": 5.41446120363,
			"-0.007": 7.0290210072,
			"-0.006": 9.56466226915,
			"-0.005": 16.1624891201,
			"-0.004": 23.8266868666,
			"-0.003": 24.5622117293,
			"-0.002": 21.9399635618,
			"-0.001": 25.3586136687,
			"0.0": 31.6177483139,
			"0.001": 30.901005504,
			"0.002": 20.5330855405,
			"0.003": 14.0310187799,
			"0.004": 12.6038196116,
			"0.005": 12.3539836414,
			"0.006": 9.86950642971,
			"0.007": 4.8857979111,
			"0.008": 3.84202209162,
			"0.009": 3.77285680799,
			"0.01": 4.02410838528,
			"0.011": 4.12323046591,
			"0.012": 2.77522881177,
			"0.013": 3.26353414175,
			"0.014": 2.37640377823,
			"0.015": 0.0117376365475,
			"0.016": 0.0,
			"0.017": 0.0,
			"0.018": 0.0,
			"0.019": 0.0,
			"0.02": 0.0,
			"0.021": 0.0,
			"0.022": 0.0,
			"0.023": 0.0,
			"0.024": 0.0,
			"0.025": 0.0
		}
	}
}
