{
	 "smiles": "CC1=CC2=C(OC(N)=N2)C(C)=C1", 
	 "Tm": 471.15, 
	 "num_atms": 22, 
	 "gaussian": { 
		 "optdone": 1, 
		 "sigma_profile": "yes", 
		 "theory": "DFT", 
		 "functional": "B3LYP", 
		 "basiset": "6-31G**", 
		 "properties": { 
			 "R2extent": 2322.3586, 
			 "electric_dipole_moment_norm": 2.2658179031, 
			 "electric_quadrupole_moment_norm": 14.8231627135, 
			 "total_energy": -533.73191716, 
			 "HOMO_LUMO_gap": 0.20496, 
			 "cosmo_polarized_energy": -11.22, 
			 "cosmo_cavitation_energy": 25.83, 
			 "cosmo_dispersion_energy": -19.28, 
			 "cosmo_repulsion_energy": 1.55, 
			 "cosmo_total_nonelectrostatic_energy": 8.1, 
			 "SMD_solvation_energy": 2.82 
		},
		"coords": [
			{
				"x": -2.2522153651,
				"y": 0.5861059196,
				"z": 2.3878239758,
				"element": "C" 
			},
			{
				"x": -1.0557027895,
				"y": 0.5303727872,
				"z": 1.4633045655,
				"element": "C" 
			},
			{
				"x": -1.2261786774,
				"y": 0.6655434237,
				"z": 0.0795679006,
				"element": "C" 
			},
			{
				"x": -0.0959462016,
				"y": 0.5774110428,
				"z": -0.7339988578,
				"element": "C" 
			},
			{
				"x": 1.1572760822,
				"y": 0.3614235503,
				"z": -0.151199345,
				"element": "C" 
			},
			{
				"x": 2.0902816119,
				"y": 0.3229577325,
				"z": -1.1801443216,
				"element": "O" 
			},
			{
				"x": 1.3272699562,
				"y": 0.5157827075,
				"z": -2.3023065305,
				"element": "C" 
			},
			{
				"x": 2.018598789,
				"y": 0.5789437927,
				"z": -3.4785538713,
				"element": "N" 
			},
			{
				"x": 0.0504122619,
				"y": 0.6664271588,
				"z": -2.1229168687,
				"element": "N" 
			},
			{
				"x": 1.3870039801,
				"y": 0.2231081047,
				"z": 1.2096892047,
				"element": "C" 
			},
			{
				"x": 2.7618905492,
				"y": -0.0014596913,
				"z": 1.7832717714,
				"element": "C" 
			},
			{
				"x": 0.2304934134,
				"y": 0.3170224665,
				"z": 1.9988270235,
				"element": "C" 
			},
			{
				"x": -3.0814037484,
				"y": 1.1368171693,
				"z": 1.9341988834,
				"element": "H" 
			},
			{
				"x": -2.6201784084,
				"y": -0.4198561852,
				"z": 2.6265038981,
				"element": "H" 
			},
			{
				"x": -2.0039787957,
				"y": 1.0725283878,
				"z": 3.3365877249,
				"element": "H" 
			},
			{
				"x": -2.2066781525,
				"y": 0.8362344325,
				"z": -0.3536712436,
				"element": "H" 
			},
			{
				"x": 1.4411689194,
				"y": 0.4795592497,
				"z": -4.3005096039,
				"element": "H" 
			},
			{
				"x": 2.8967390015,
				"y": 0.0813833047,
				"z": -3.5035331595,
				"element": "H" 
			},
			{
				"x": 3.2073591481,
				"y": -0.9278739149,
				"z": 1.4029059768,
				"element": "H" 
			},
			{
				"x": 2.7229815591,
				"y": -0.0676705513,
				"z": 2.8735509125,
				"element": "H" 
			},
			{
				"x": 3.4442678331,
				"y": 0.813293435,
				"z": 1.5159535126,
				"element": "H" 
			},
			{
				"x": 0.3371390337,
				"y": 0.2224456772,
				"z": 3.0771484523,
				"element": "H" 
			}
		],
		 "valence_orbital": [ 
			{
				"type": "occ",
				"energy": -0.33237,
				"method": "rhf"
			},
			{
				"type": "occ",
				"energy": -0.2833,
				"method": "rhf"
			},
			{
				"type": "occ",
				"energy": -0.27821,
				"method": "rhf"
			},
			{
				"type": "occ",
				"energy": -0.22247,
				"method": "rhf"
			},
			{
				"type": "occ",
				"energy": -0.20372,
				"method": "rhf"
			},
			{
				"type": "unocc",
				"energy": 0.00124,
				"method": "rhf"
			},
			{
				"type": "unocc",
				"energy": 0.01944,
				"method": "rhf"
			},
			{
				"type": "unocc",
				"energy": 0.06026,
				"method": "rhf"
			},
			{
				"type": "unocc",
				"energy": 0.07754,
				"method": "rhf"
			},
			{
				"type": "unocc",
				"energy": 0.11101,
				"method": "rhf"
			}
		],
		"cosmo_sigma_profile": { 
			"-0.025": 0.0,
			"-0.024": 0.0,
			"-0.023": 0.0,
			"-0.022": 0.0,
			"-0.021": 0.0,
			"-0.02": 0.0,
			"-0.019": 0.0,
			"-0.018": 0.0,
			"-0.017": 0.0,
			"-0.016": 0.0,
			"-0.015": 1.00319267462,
			"-0.014": 2.92687625833,
			"-0.013": 1.68510274773,
			"-0.012": 2.9889988927,
			"-0.011": 2.40868046437,
			"-0.01": 2.28702844922,
			"-0.009": 1.3651104539,
			"-0.008": 1.20917746781,
			"-0.007": 1.92590098899,
			"-0.006": 2.20855221101,
			"-0.005": 6.33123830029,
			"-0.004": 16.3349912371,
			"-0.003": 15.7311107129,
			"-0.002": 17.5594414954,
			"-0.001": 18.3117088213,
			"0.0": 23.0373201267,
			"0.001": 16.2581615515,
			"0.002": 10.5324617493,
			"0.003": 11.1137142859,
			"0.004": 11.3965229135,
			"0.005": 11.3919881798,
			"0.006": 10.0757772025,
			"0.007": 4.11306786674,
			"0.008": 2.45906972106,
			"0.009": 1.49102190209,
			"0.01": 1.33706378846,
			"0.011": 1.43549966143,
			"0.012": 1.57167041721,
			"0.013": 1.04076590415,
			"0.014": 0.662377456414,
			"0.015": 1.1337850514,
			"0.016": 1.02736941599,
			"0.017": 0.36822083424,
			"0.018": 0.0,
			"0.019": 0.0,
			"0.02": 0.0,
			"0.021": 0.0,
			"0.022": 0.0,
			"0.023": 0.0,
			"0.024": 0.0,
			"0.025": 0.0
		}
	}
}
