{
	 "smiles": "CC1=C[C@H](O)[C@H]2C[C@@H]1C2(C)C", 
	 "Tm": 344.0, 
	 "num_atms": 27, 
	 "gaussian": { 
		 "optdone": 1, 
		 "sigma_profile": "yes", 
		 "theory": "DFT", 
		 "functional": "B3LYP", 
		 "basiset": "6-31G**", 
		 "properties": { 
			 "R2extent": 1771.0442, 
			 "electric_dipole_moment_norm": 2.13334994082, 
			 "electric_quadrupole_moment_norm": 4.31024634911, 
			 "total_energy": -465.886714811, 
			 "HOMO_LUMO_gap": 0.24041, 
			 "cosmo_polarized_energy": -5.57, 
			 "cosmo_cavitation_energy": 26.24, 
			 "cosmo_dispersion_energy": -19.23, 
			 "cosmo_repulsion_energy": 1.53, 
			 "cosmo_total_nonelectrostatic_energy": 8.54, 
			 "SMD_solvation_energy": 4.12 
		},
		"coords": [
			{
				"x": 2.5359198058,
				"y": -2.6073992559,
				"z": -0.5305725877,
				"element": "C" 
			},
			{
				"x": 1.7454005448,
				"y": -1.3319387849,
				"z": -0.47148351,
				"element": "C" 
			},
			{
				"x": 2.1517539251,
				"y": -0.2175454353,
				"z": 0.1569639463,
				"element": "C" 
			},
			{
				"x": 1.2678994537,
				"y": 1.0155982378,
				"z": 0.1676297055,
				"element": "C" 
			},
			{
				"x": 1.0536920755,
				"y": 1.5294699612,
				"z": 1.4853266036,
				"element": "O" 
			},
			{
				"x": -0.0407484023,
				"y": 0.7255940544,
				"z": -0.597554449,
				"element": "C" 
			},
			{
				"x": 0.3486981713,
				"y": 0.0777387557,
				"z": -1.9577108417,
				"element": "C" 
			},
			{
				"x": 0.3948784862,
				"y": -1.2695037882,
				"z": -1.1728762965,
				"element": "C" 
			},
			{
				"x": -0.6896468071,
				"y": -0.6542793133,
				"z": -0.2041921244,
				"element": "C" 
			},
			{
				"x": -0.7274988664,
				"y": -1.1065150878,
				"z": 1.2607867167,
				"element": "C" 
			},
			{
				"x": -2.1154802694,
				"y": -0.7887064243,
				"z": -0.765695567,
				"element": "C" 
			},
			{
				"x": 1.9732212454,
				"y": -3.4402573412,
				"z": -0.088256421,
				"element": "H" 
			},
			{
				"x": 2.7458945205,
				"y": -2.8938145914,
				"z": -1.5695830915,
				"element": "H" 
			},
			{
				"x": 3.4890588213,
				"y": -2.5194692615,
				"z": -0.001351023,
				"element": "H" 
			},
			{
				"x": 3.1051956764,
				"y": -0.1614009838,
				"z": 0.6785143861,
				"element": "H" 
			},
			{
				"x": 1.7818249163,
				"y": 1.8387912131,
				"z": -0.3485250468,
				"element": "H" 
			},
			{
				"x": 0.7397655441,
				"y": 0.8005993981,
				"z": 2.0344032014,
				"element": "H" 
			},
			{
				"x": -0.6880331883,
				"y": 1.6090613858,
				"z": -0.5926426396,
				"element": "H" 
			},
			{
				"x": -0.4455385794,
				"y": 0.1280181822,
				"z": -2.7044548843,
				"element": "H" 
			},
			{
				"x": 1.2879289565,
				"y": 0.4032439154,
				"z": -2.4138564442,
				"element": "H" 
			},
			{
				"x": 0.1468592658,
				"y": -2.1990471318,
				"z": -1.6963584471,
				"element": "H" 
			},
			{
				"x": -1.1874643771,
				"y": -2.0990133542,
				"z": 1.3399326834,
				"element": "H" 
			},
			{
				"x": -1.3399470035,
				"y": -0.4219455789,
				"z": 1.8598536655,
				"element": "H" 
			},
			{
				"x": 0.264507058,
				"y": -1.1784069657,
				"z": 1.7125546537,
				"element": "H" 
			},
			{
				"x": -2.4545119666,
				"y": -1.8295733674,
				"z": -0.7038443681,
				"element": "H" 
			},
			{
				"x": -2.2051667778,
				"y": -0.473551225,
				"z": -1.807640928,
				"element": "H" 
			},
			{
				"x": -2.8125622287,
				"y": -0.1801472133,
				"z": -0.1776668924,
				"element": "H" 
			}
		],
		 "valence_orbital": [ 
			{
				"type": "occ",
				"energy": -0.30742,
				"method": "rhf"
			},
			{
				"type": "occ",
				"energy": -0.2998,
				"method": "rhf"
			},
			{
				"type": "occ",
				"energy": -0.27741,
				"method": "rhf"
			},
			{
				"type": "occ",
				"energy": -0.25978,
				"method": "rhf"
			},
			{
				"type": "occ",
				"energy": -0.22709,
				"method": "rhf"
			},
			{
				"type": "unocc",
				"energy": 0.01332,
				"method": "rhf"
			},
			{
				"type": "unocc",
				"energy": 0.08047,
				"method": "rhf"
			},
			{
				"type": "unocc",
				"energy": 0.10158,
				"method": "rhf"
			},
			{
				"type": "unocc",
				"energy": 0.11164,
				"method": "rhf"
			},
			{
				"type": "unocc",
				"energy": 0.12815,
				"method": "rhf"
			}
		],
		"cosmo_sigma_profile": { 
			"-0.025": 0.0,
			"-0.024": 0.0,
			"-0.023": 0.0,
			"-0.022": 0.0,
			"-0.021": 0.0,
			"-0.02": 0.0,
			"-0.019": 0.0,
			"-0.018": 0.0,
			"-0.017": 0.0,
			"-0.016": 0.0,
			"-0.015": 0.0,
			"-0.014": 0.0,
			"-0.013": 0.00559336049475,
			"-0.012": 0.447650548256,
			"-0.011": 0.701067804405,
			"-0.01": 0.630715317896,
			"-0.009": 0.865071074583,
			"-0.008": 0.661394137895,
			"-0.007": 1.28025210898,
			"-0.006": 1.44554215024,
			"-0.005": 1.63483150616,
			"-0.004": 7.70953165846,
			"-0.003": 22.0062437492,
			"-0.002": 32.1253604655,
			"-0.001": 30.643037847,
			"0.0": 34.8891891766,
			"0.001": 29.8716989377,
			"0.002": 13.4060165554,
			"0.003": 4.78443629525,
			"0.004": 3.136988706,
			"0.005": 2.24981133742,
			"0.006": 1.43849497617,
			"0.007": 1.04318443131,
			"0.008": 1.57581781507,
			"0.009": 1.19788289242,
			"0.01": 1.31954212823,
			"0.011": 1.22430413959,
			"0.012": 0.902302131977,
			"0.013": 1.77638293661,
			"0.014": 2.19429745828,
			"0.015": 1.56377690098,
			"0.016": 0.0,
			"0.017": 0.0,
			"0.018": 0.0,
			"0.019": 0.0,
			"0.02": 0.0,
			"0.021": 0.0,
			"0.022": 0.0,
			"0.023": 0.0,
			"0.024": 0.0,
			"0.025": 0.0
		}
	}
}
