{
	 "smiles": "CCCCC(O)C(C)C", 
	 "Tm": 188.15, 
	 "num_atms": 27, 
	 "gaussian": { 
		 "optdone": 1, 
		 "sigma_profile": "yes", 
		 "theory": "DFT", 
		 "functional": "B3LYP", 
		 "basiset": "6-31G**", 
		 "properties": { 
			 "R2extent": 2007.7304, 
			 "electric_dipole_moment_norm": 1.56177382806, 
			 "electric_quadrupole_moment_norm": 4.82699574684, 
			 "total_energy": -390.935740524, 
			 "HOMO_LUMO_gap": 0.32401, 
			 "cosmo_polarized_energy": -5.6, 
			 "cosmo_cavitation_energy": 27.05, 
			 "cosmo_dispersion_energy": -19.16, 
			 "cosmo_repulsion_energy": 1.59, 
			 "cosmo_total_nonelectrostatic_energy": 9.47, 
			 "SMD_solvation_energy": 4.53 
		},
		"coords": [
			{
				"x": 2.1035913013,
				"y": -3.3109137625,
				"z": 0.8221376989,
				"element": "C" 
			},
			{
				"x": 0.8624199703,
				"y": -2.4360809043,
				"z": 1.0367939333,
				"element": "C" 
			},
			{
				"x": 0.1104607014,
				"y": -2.0702244804,
				"z": -0.2570510205,
				"element": "C" 
			},
			{
				"x": 0.8574805541,
				"y": -1.1045562839,
				"z": -1.197791973,
				"element": "C" 
			},
			{
				"x": 0.9425856702,
				"y": 0.3659375047,
				"z": -0.7187197475,
				"element": "C" 
			},
			{
				"x": 2.208665896,
				"y": 0.937330577,
				"z": -1.071665233,
				"element": "O" 
			},
			{
				"x": -0.1146900517,
				"y": 1.3009120047,
				"z": -1.3400672761,
				"element": "C" 
			},
			{
				"x": -1.5534416052,
				"y": 0.8122653837,
				"z": -1.1214458039,
				"element": "C" 
			},
			{
				"x": 0.0494386695,
				"y": 2.7360208589,
				"z": -0.8172089281,
				"element": "C" 
			},
			{
				"x": 1.8410147329,
				"y": -4.249513512,
				"z": 0.3205532767,
				"element": "H" 
			},
			{
				"x": 2.8602724687,
				"y": -2.8123404651,
				"z": 0.2068211955,
				"element": "H" 
			},
			{
				"x": 2.5764881373,
				"y": -3.5653628016,
				"z": 1.7763836273,
				"element": "H" 
			},
			{
				"x": 0.1690473592,
				"y": -2.9661850189,
				"z": 1.7018794362,
				"element": "H" 
			},
			{
				"x": 1.1472189142,
				"y": -1.5219063403,
				"z": 1.5749723122,
				"element": "H" 
			},
			{
				"x": -0.8626551571,
				"y": -1.642778511,
				"z": 0.0096312228,
				"element": "H" 
			},
			{
				"x": -0.1092503623,
				"y": -2.9967939479,
				"z": -0.8044660692,
				"element": "H" 
			},
			{
				"x": 1.8831243129,
				"y": -1.4666655581,
				"z": -1.3417334408,
				"element": "H" 
			},
			{
				"x": 0.4026959153,
				"y": -1.1321141486,
				"z": -2.1959923278,
				"element": "H" 
			},
			{
				"x": 0.81892652,
				"y": 0.396345736,
				"z": 0.3786106684,
				"element": "H" 
			},
			{
				"x": 2.8966297922,
				"y": 0.4297839834,
				"z": -0.6236470022,
				"element": "H" 
			},
			{
				"x": 0.0880650812,
				"y": 1.3052661621,
				"z": -2.421141395,
				"element": "H" 
			},
			{
				"x": -1.7926065585,
				"y": 0.7438382273,
				"z": -0.0529752066,
				"element": "H" 
			},
			{
				"x": -2.2623073692,
				"y": 1.5172617545,
				"z": -1.5683336432,
				"element": "H" 
			},
			{
				"x": -1.7388112311,
				"y": -0.1669691816,
				"z": -1.5723871543,
				"element": "H" 
			},
			{
				"x": 1.0657274412,
				"y": 3.0978875589,
				"z": -0.9821375392,
				"element": "H" 
			},
			{
				"x": -0.6499577519,
				"y": 3.4141291666,
				"z": -1.3182177916,
				"element": "H" 
			},
			{
				"x": -0.1585333509,
				"y": 2.7836259984,
				"z": 0.2594981808,
				"element": "H" 
			}
		],
		 "valence_orbital": [ 
			{
				"type": "occ",
				"energy": -0.32283,
				"method": "rhf"
			},
			{
				"type": "occ",
				"energy": -0.32062,
				"method": "rhf"
			},
			{
				"type": "occ",
				"energy": -0.31496,
				"method": "rhf"
			},
			{
				"type": "occ",
				"energy": -0.29651,
				"method": "rhf"
			},
			{
				"type": "occ",
				"energy": -0.25632,
				"method": "rhf"
			},
			{
				"type": "unocc",
				"energy": 0.06769,
				"method": "rhf"
			},
			{
				"type": "unocc",
				"energy": 0.09268,
				"method": "rhf"
			},
			{
				"type": "unocc",
				"energy": 0.10616,
				"method": "rhf"
			},
			{
				"type": "unocc",
				"energy": 0.11018,
				"method": "rhf"
			},
			{
				"type": "unocc",
				"energy": 0.12211,
				"method": "rhf"
			}
		],
		"cosmo_sigma_profile": { 
			"-0.025": 0.0,
			"-0.024": 0.0,
			"-0.023": 0.0,
			"-0.022": 0.0,
			"-0.021": 0.0,
			"-0.02": 0.0,
			"-0.019": 0.0,
			"-0.018": 0.0,
			"-0.017": 0.0,
			"-0.016": 0.0,
			"-0.015": 0.172027771284,
			"-0.014": 0.812419415303,
			"-0.013": 0.85152062071,
			"-0.012": 0.987455557177,
			"-0.011": 0.912285094995,
			"-0.01": 0.353904483099,
			"-0.009": 1.16377579733,
			"-0.008": 0.747976337702,
			"-0.007": 0.861959128752,
			"-0.006": 1.9641454095,
			"-0.005": 1.92817989194,
			"-0.004": 2.42327868624,
			"-0.003": 9.0691369815,
			"-0.002": 33.7324533623,
			"-0.001": 38.010922342,
			"0.0": 37.2909218,
			"0.001": 35.6339602815,
			"0.002": 19.917302708,
			"0.003": 2.40343654951,
			"0.004": 2.27095365999,
			"0.005": 1.81147981951,
			"0.006": 0.952681019607,
			"0.007": 1.94818553146,
			"0.008": 1.8161514444,
			"0.009": 1.53351878758,
			"0.01": 1.50912074085,
			"0.011": 1.74731498771,
			"0.012": 1.30191629497,
			"0.013": 1.07638139911,
			"0.014": 1.09860985882,
			"0.015": 0.586568272135,
			"0.016": 0.0,
			"0.017": 0.0,
			"0.018": 0.0,
			"0.019": 0.0,
			"0.02": 0.0,
			"0.021": 0.0,
			"0.022": 0.0,
			"0.023": 0.0,
			"0.024": 0.0,
			"0.025": 0.0
		}
	}
}
