{
	 "smiles": "NC1=C(Cl)C=CC(=C1)S(=O)(=O)N1CCCCC1", 
	 "Tm": 403.15, 
	 "num_atms": 32, 
	 "gaussian": { 
		 "optdone": 1, 
		 "sigma_profile": "yes", 
		 "theory": "DFT", 
		 "functional": "B3LYP", 
		 "basiset": "6-31G**", 
		 "properties": { 
			 "R2extent": 5977.4757, 
			 "electric_dipole_moment_norm": 5.97985322312, 
			 "electric_quadrupole_moment_norm": 27.9501783975, 
			 "total_energy": -1546.47732723, 
			 "HOMO_LUMO_gap": 0.18745, 
			 "cosmo_polarized_energy": -17.07, 
			 "cosmo_cavitation_energy": 36.3, 
			 "cosmo_dispersion_energy": -26.46, 
			 "cosmo_repulsion_energy": 2.03, 
			 "cosmo_total_nonelectrostatic_energy": 11.87, 
			 "SMD_solvation_energy": 3.41 
		},
		"coords": [
			{
				"x": 2.7517047559,
				"y": -1.6146290427,
				"z": -0.182193027,
				"element": "N" 
			},
			{
				"x": 2.0239280695,
				"y": -0.4906924776,
				"z": 0.1491559018,
				"element": "C" 
			},
			{
				"x": 2.2569374615,
				"y": 0.7584924324,
				"z": -0.4653457306,
				"element": "C" 
			},
			{
				"x": 3.4511693226,
				"y": 0.8611251847,
				"z": -1.7554786024,
				"element": "Cl" 
			},
			{
				"x": 1.5820461727,
				"y": 1.9113331401,
				"z": -0.0752671203,
				"element": "C" 
			},
			{
				"x": 0.626716653,
				"y": 1.8576496009,
				"z": 0.9380017303,
				"element": "C" 
			},
			{
				"x": 0.3680679697,
				"y": 0.6225201618,
				"z": 1.5395194299,
				"element": "C" 
			},
			{
				"x": 1.0499313834,
				"y": -0.5314480225,
				"z": 1.1644708518,
				"element": "C" 
			},
			{
				"x": -0.9130704647,
				"y": 0.5017857971,
				"z": 2.8013128438,
				"element": "S" 
			},
			{
				"x": -0.9942066504,
				"y": 1.8119533567,
				"z": 3.4504495884,
				"element": "O" 
			},
			{
				"x": -0.6619584199,
				"y": -0.7325020765,
				"z": 3.5507770863,
				"element": "O" 
			},
			{
				"x": -2.3662370903,
				"y": 0.2860012915,
				"z": 2.000682388,
				"element": "N" 
			},
			{
				"x": -2.93468974,
				"y": 1.4542945496,
				"z": 1.2958284683,
				"element": "C" 
			},
			{
				"x": -4.3010656894,
				"y": 1.0713581439,
				"z": 0.7231517352,
				"element": "C" 
			},
			{
				"x": -4.188698442,
				"y": -0.05597423,
				"z": -0.3289405492,
				"element": "C" 
			},
			{
				"x": -3.003569582,
				"y": -1.0024732111,
				"z": -0.0234808628,
				"element": "C" 
			},
			{
				"x": -2.7047563908,
				"y": -1.056847784,
				"z": 1.4774288576,
				"element": "C" 
			},
			{
				"x": 3.231477487,
				"y": -1.6051722024,
				"z": -1.0698644364,
				"element": "H" 
			},
			{
				"x": 2.3556515654,
				"y": -2.5053248574,
				"z": 0.07583792,
				"element": "H" 
			},
			{
				"x": 1.8140262026,
				"y": 2.8502955543,
				"z": -0.5659575102,
				"element": "H" 
			},
			{
				"x": 0.1210202621,
				"y": 2.7530033198,
				"z": 1.2778385017,
				"element": "H" 
			},
			{
				"x": 0.858492366,
				"y": -1.4611481467,
				"z": 1.690445828,
				"element": "H" 
			},
			{
				"x": -2.2730058435,
				"y": 1.7904322695,
				"z": 0.4809911249,
				"element": "H" 
			},
			{
				"x": -3.0228381307,
				"y": 2.2720059285,
				"z": 2.0130629877,
				"element": "H" 
			},
			{
				"x": -4.7660738459,
				"y": 1.9620326957,
				"z": 0.2882532425,
				"element": "H" 
			},
			{
				"x": -4.9443890275,
				"y": 0.7557623443,
				"z": 1.5523553249,
				"element": "H" 
			},
			{
				"x": -4.0608143812,
				"y": 0.3733297051,
				"z": -1.3288900498,
				"element": "H" 
			},
			{
				"x": -5.1271935247,
				"y": -0.6207255437,
				"z": -0.3531754019,
				"element": "H" 
			},
			{
				"x": -3.2117025813,
				"y": -2.0139156941,
				"z": -0.3892878076,
				"element": "H" 
			},
			{
				"x": -2.1016723687,
				"y": -0.6607038962,
				"z": -0.5446681742,
				"element": "H" 
			},
			{
				"x": -3.5760853193,
				"y": -1.4370559122,
				"z": 2.0264321841,
				"element": "H" 
			},
			{
				"x": -1.8811421793,
				"y": -1.7376623786,
				"z": 1.6982532775,
				"element": "H" 
			}
		],
		 "valence_orbital": [ 
			{
				"type": "occ",
				"energy": -0.29584,
				"method": "rhf"
			},
			{
				"type": "occ",
				"energy": -0.29461,
				"method": "rhf"
			},
			{
				"type": "occ",
				"energy": -0.2693,
				"method": "rhf"
			},
			{
				"type": "occ",
				"energy": -0.24181,
				"method": "rhf"
			},
			{
				"type": "occ",
				"energy": -0.2236,
				"method": "rhf"
			},
			{
				"type": "unocc",
				"energy": -0.03615,
				"method": "rhf"
			},
			{
				"type": "unocc",
				"energy": -0.01183,
				"method": "rhf"
			},
			{
				"type": "unocc",
				"energy": 0.01922,
				"method": "rhf"
			},
			{
				"type": "unocc",
				"energy": 0.06273,
				"method": "rhf"
			},
			{
				"type": "unocc",
				"energy": 0.07264,
				"method": "rhf"
			}
		],
		"cosmo_sigma_profile": { 
			"-0.025": 0.0,
			"-0.024": 0.0,
			"-0.023": 0.0,
			"-0.022": 0.0,
			"-0.021": 0.0,
			"-0.02": 0.0,
			"-0.019": 0.0,
			"-0.018": 0.0,
			"-0.017": 0.0,
			"-0.016": 0.0,
			"-0.015": 0.0,
			"-0.014": 0.886221253518,
			"-0.013": 1.56799054873,
			"-0.012": 2.13220750385,
			"-0.011": 3.18729579063,
			"-0.01": 2.89468093413,
			"-0.009": 1.92503436307,
			"-0.008": 3.02315910682,
			"-0.007": 5.22088343408,
			"-0.006": 6.0765563376,
			"-0.005": 8.07263338239,
			"-0.004": 18.6794881363,
			"-0.003": 36.9366211483,
			"-0.002": 35.9453990678,
			"-0.001": 24.4745634098,
			"0.0": 23.1741669409,
			"0.001": 18.0435041219,
			"0.002": 20.1023664692,
			"0.003": 17.3532522891,
			"0.004": 11.738744647,
			"0.005": 7.49024122199,
			"0.006": 5.01131038915,
			"0.007": 4.59563273413,
			"0.008": 5.45015347379,
			"0.009": 3.25574082764,
			"0.01": 6.03469701802,
			"0.011": 8.76599741451,
			"0.012": 5.96709217417,
			"0.013": 0.0938359724616,
			"0.014": 0.0,
			"0.015": 0.0,
			"0.016": 0.0,
			"0.017": 0.0,
			"0.018": 0.0,
			"0.019": 0.0,
			"0.02": 0.0,
			"0.021": 0.0,
			"0.022": 0.0,
			"0.023": 0.0,
			"0.024": 0.0,
			"0.025": 0.0
		}
	}
}
