{
	 "smiles": "O=C1OC(=O)C2C1C1CCC2C=C1", 
	 "Tm": 419.15, 
	 "num_atms": 23, 
	 "gaussian": { 
		 "optdone": 1, 
		 "sigma_profile": "yes", 
		 "theory": "DFT", 
		 "functional": "B3LYP", 
		 "basiset": "6-31G**", 
		 "properties": { 
			 "R2extent": 2333.2102, 
			 "electric_dipole_moment_norm": 5.12314925998, 
			 "electric_quadrupole_moment_norm": 12.5167353216, 
			 "total_energy": -612.721216026, 
			 "HOMO_LUMO_gap": 0.23136, 
			 "cosmo_polarized_energy": -11.77, 
			 "cosmo_cavitation_energy": 25.0, 
			 "cosmo_dispersion_energy": -18.7, 
			 "cosmo_repulsion_energy": 1.48, 
			 "cosmo_total_nonelectrostatic_energy": 7.77, 
			 "SMD_solvation_energy": 5.49 
		},
		"coords": [
			{
				"x": -0.0872338024,
				"y": 0.9332347446,
				"z": 3.4370999262,
				"element": "O" 
			},
			{
				"x": 0.2725182379,
				"y": 0.8669731358,
				"z": 2.2995161303,
				"element": "C" 
			},
			{
				"x": 1.5915842889,
				"y": 1.211905415,
				"z": 1.9121538301,
				"element": "O" 
			},
			{
				"x": 1.6874130825,
				"y": 1.3333259448,
				"z": 0.5044250773,
				"element": "C" 
			},
			{
				"x": 2.7420688345,
				"y": 1.4084629038,
				"z": -0.0518451612,
				"element": "O" 
			},
			{
				"x": 0.2524761757,
				"y": 1.4005361068,
				"z": 0.0424401402,
				"element": "C" 
			},
			{
				"x": -0.3738484925,
				"y": 0.3972175905,
				"z": 1.019405136,
				"element": "C" 
			},
			{
				"x": -1.851485322,
				"y": 0.1930379854,
				"z": 0.6009084054,
				"element": "C" 
			},
			{
				"x": -2.4682298871,
				"y": 1.5435447987,
				"z": 0.1165396885,
				"element": "C" 
			},
			{
				"x": -1.7370554616,
				"y": 2.0412594261,
				"z": -1.172469322,
				"element": "C" 
			},
			{
				"x": -0.4106183203,
				"y": 1.2231383643,
				"z": -1.3474160223,
				"element": "C" 
			},
			{
				"x": -0.8851626198,
				"y": -0.203810927,
				"z": -1.5771237085,
				"element": "C" 
			},
			{
				"x": -1.6913719311,
				"y": -0.6996317219,
				"z": -0.627063935,
				"element": "C" 
			},
			{
				"x": -0.0349825655,
				"y": 2.4074567033,
				"z": 0.3833581695,
				"element": "H" 
			},
			{
				"x": 0.1220166834,
				"y": -0.5698231519,
				"z": 0.8521534426,
				"element": "H" 
			},
			{
				"x": -2.4532792069,
				"y": -0.2654647221,
				"z": 1.3887148031,
				"element": "H" 
			},
			{
				"x": -2.3999504342,
				"y": 2.2868676726,
				"z": 0.9182919491,
				"element": "H" 
			},
			{
				"x": -3.5334052236,
				"y": 1.3972084519,
				"z": -0.0809550079,
				"element": "H" 
			},
			{
				"x": -2.3656973508,
				"y": 1.8975433755,
				"z": -2.0549823729,
				"element": "H" 
			},
			{
				"x": -1.5131949426,
				"y": 3.1119066944,
				"z": -1.0997030705,
				"element": "H" 
			},
			{
				"x": 0.2030627398,
				"y": 1.6094298648,
				"z": -2.1640383361,
				"element": "H" 
			},
			{
				"x": -0.6514601091,
				"y": -0.7269484132,
				"z": -2.4993234773,
				"element": "H" 
			},
			{
				"x": -2.1641643734,
				"y": -1.6755702419,
				"z": -0.6837862846,
				"element": "H" 
			}
		],
		 "valence_orbital": [ 
			{
				"type": "occ",
				"energy": -0.32815,
				"method": "rhf"
			},
			{
				"type": "occ",
				"energy": -0.32077,
				"method": "rhf"
			},
			{
				"type": "occ",
				"energy": -0.29091,
				"method": "rhf"
			},
			{
				"type": "occ",
				"energy": -0.28392,
				"method": "rhf"
			},
			{
				"type": "occ",
				"energy": -0.2642,
				"method": "rhf"
			},
			{
				"type": "unocc",
				"energy": -0.03284,
				"method": "rhf"
			},
			{
				"type": "unocc",
				"energy": -0.00664,
				"method": "rhf"
			},
			{
				"type": "unocc",
				"energy": 0.00869,
				"method": "rhf"
			},
			{
				"type": "unocc",
				"energy": 0.06795,
				"method": "rhf"
			},
			{
				"type": "unocc",
				"energy": 0.08818,
				"method": "rhf"
			}
		],
		"cosmo_sigma_profile": { 
			"-0.025": 0.0,
			"-0.024": 0.0,
			"-0.023": 0.0,
			"-0.022": 0.0,
			"-0.021": 0.0,
			"-0.02": 0.0,
			"-0.019": 0.0,
			"-0.018": 0.0,
			"-0.017": 0.0,
			"-0.016": 0.0,
			"-0.015": 0.0,
			"-0.014": 0.0,
			"-0.013": 0.0,
			"-0.012": 0.0,
			"-0.011": 0.031955623927,
			"-0.01": 2.23748843388,
			"-0.009": 4.43054697722,
			"-0.008": 3.87850855071,
			"-0.007": 4.20893107696,
			"-0.006": 7.31550429543,
			"-0.005": 13.3278847286,
			"-0.004": 18.4031922429,
			"-0.003": 21.8417225633,
			"-0.002": 21.0390438943,
			"-0.001": 16.8461384701,
			"0.0": 14.8785436796,
			"0.001": 6.95764225742,
			"0.002": 5.13168443437,
			"0.003": 6.2169337572,
			"0.004": 5.79557637944,
			"0.005": 3.66170105784,
			"0.006": 3.90171533994,
			"0.007": 7.0784206544,
			"0.008": 7.58021993308,
			"0.009": 8.71409457563,
			"0.01": 10.8583922142,
			"0.011": 2.93155512563,
			"0.012": 0.0,
			"0.013": 0.0,
			"0.014": 0.0,
			"0.015": 0.0,
			"0.016": 0.0,
			"0.017": 0.0,
			"0.018": 0.0,
			"0.019": 0.0,
			"0.02": 0.0,
			"0.021": 0.0,
			"0.022": 0.0,
			"0.023": 0.0,
			"0.024": 0.0,
			"0.025": 0.0
		}
	}
}
