{
	 "smiles": "OC(=O)CN1N=NC2=C(C=CC=C2)C1=O", 
	 "Tm": 421.15, 
	 "num_atms": 22, 
	 "gaussian": { 
		 "optdone": 1, 
		 "sigma_profile": "yes", 
		 "theory": "DFT", 
		 "functional": "B3LYP", 
		 "basiset": "6-31G**", 
		 "properties": { 
			 "R2extent": 3289.255, 
			 "electric_dipole_moment_norm": 1.36559117601, 
			 "electric_quadrupole_moment_norm": 19.349965594, 
			 "total_energy": -737.077533694, 
			 "HOMO_LUMO_gap": 0.18023, 
			 "cosmo_polarized_energy": -16.4, 
			 "cosmo_cavitation_energy": 27.75, 
			 "cosmo_dispersion_energy": -20.17, 
			 "cosmo_repulsion_energy": 1.56, 
			 "cosmo_total_nonelectrostatic_energy": 9.15, 
			 "SMD_solvation_energy": 4.91 
		},
		"coords": [
			{
				"x": 0.4801248519,
				"y": 2.3519436352,
				"z": 3.7640475624,
				"element": "O" 
			},
			{
				"x": 0.7103584869,
				"y": 1.8063820104,
				"z": 2.550595729,
				"element": "C" 
			},
			{
				"x": 1.7123064214,
				"y": 1.2021486876,
				"z": 2.2579176791,
				"element": "O" 
			},
			{
				"x": -0.4629587761,
				"y": 2.0941168691,
				"z": 1.6201888088,
				"element": "C" 
			},
			{
				"x": -0.3362773267,
				"y": 1.3775646609,
				"z": 0.366723657,
				"element": "N" 
			},
			{
				"x": 0.1409907364,
				"y": 2.1294485516,
				"z": -0.6749874287,
				"element": "N" 
			},
			{
				"x": 0.3361749659,
				"y": 1.5936934801,
				"z": -1.8043691316,
				"element": "N" 
			},
			{
				"x": 0.0818851728,
				"y": 0.2340977353,
				"z": -1.9923945886,
				"element": "C" 
			},
			{
				"x": -0.3986577885,
				"y": -0.5953904265,
				"z": -0.9610144138,
				"element": "C" 
			},
			{
				"x": -0.6382745417,
				"y": -1.9562602182,
				"z": -1.1986448036,
				"element": "C" 
			},
			{
				"x": -0.3993920946,
				"y": -2.4796854176,
				"z": -2.4613435949,
				"element": "C" 
			},
			{
				"x": 0.0808245244,
				"y": -1.6534995641,
				"z": -3.4951069631,
				"element": "C" 
			},
			{
				"x": 0.3214008106,
				"y": -0.3070967504,
				"z": -3.2685553196,
				"element": "C" 
			},
			{
				"x": -0.6280580581,
				"y": 0.0036782413,
				"z": 0.3509113964,
				"element": "C" 
			},
			{
				"x": -1.0385381536,
				"y": -0.5635149288,
				"z": 1.3546020506,
				"element": "O" 
			},
			{
				"x": 1.2591022644,
				"y": 2.1521887568,
				"z": 4.3099915447,
				"element": "H" 
			},
			{
				"x": -0.4893047948,
				"y": 3.1623600699,
				"z": 1.3944807079,
				"element": "H" 
			},
			{
				"x": -1.3904867243,
				"y": 1.8055921682,
				"z": 2.118458931,
				"element": "H" 
			},
			{
				"x": -1.0058525783,
				"y": -2.5694450796,
				"z": -0.383010466,
				"element": "H" 
			},
			{
				"x": -0.5821708223,
				"y": -3.5321873898,
				"z": -2.6552171848,
				"element": "H" 
			},
			{
				"x": 0.2647705848,
				"y": -2.0761775831,
				"z": -4.4782743373,
				"element": "H" 
			},
			{
				"x": 0.6924328395,
				"y": 0.3507424916,
				"z": -4.047099835,
				"element": "H" 
			}
		],
		 "valence_orbital": [ 
			{
				"type": "occ",
				"energy": -0.28848,
				"method": "rhf"
			},
			{
				"type": "occ",
				"energy": -0.28652,
				"method": "rhf"
			},
			{
				"type": "occ",
				"energy": -0.2766,
				"method": "rhf"
			},
			{
				"type": "occ",
				"energy": -0.25592,
				"method": "rhf"
			},
			{
				"type": "occ",
				"energy": -0.25276,
				"method": "rhf"
			},
			{
				"type": "unocc",
				"energy": -0.07253,
				"method": "rhf"
			},
			{
				"type": "unocc",
				"energy": -0.05536,
				"method": "rhf"
			},
			{
				"type": "unocc",
				"energy": 0.00102,
				"method": "rhf"
			},
			{
				"type": "unocc",
				"energy": 0.00861,
				"method": "rhf"
			},
			{
				"type": "unocc",
				"energy": 0.05453,
				"method": "rhf"
			}
		],
		"cosmo_sigma_profile": { 
			"-0.025": 0.0,
			"-0.024": 0.0,
			"-0.023": 0.0,
			"-0.022": 0.0,
			"-0.021": 0.0,
			"-0.02": 0.0,
			"-0.019": 0.418652760211,
			"-0.018": 1.18282048362,
			"-0.017": 0.809005070807,
			"-0.016": 0.745934771142,
			"-0.015": 1.28277029466,
			"-0.014": 0.495409077095,
			"-0.013": 0.318789724135,
			"-0.012": 0.818812374996,
			"-0.011": 0.910656072586,
			"-0.01": 1.38540005723,
			"-0.009": 2.47410142935,
			"-0.008": 6.14965982681,
			"-0.007": 13.5341763637,
			"-0.006": 14.1757640384,
			"-0.005": 14.0503730754,
			"-0.004": 10.9406931377,
			"-0.003": 11.7906012832,
			"-0.002": 12.0080223226,
			"-0.001": 13.1924069069,
			"0.0": 16.8195804222,
			"0.001": 17.8880246284,
			"0.002": 15.4591667065,
			"0.003": 6.657613683,
			"0.004": 5.93378344664,
			"0.005": 6.21995395646,
			"0.006": 5.31956107569,
			"0.007": 6.58251765726,
			"0.008": 7.53253135438,
			"0.009": 6.54289185546,
			"0.01": 7.23418144208,
			"0.011": 8.21697898014,
			"0.012": 4.81197096616,
			"0.013": 1.03743513007,
			"0.014": 0.0405075490836,
			"0.015": 0.0,
			"0.016": 0.0,
			"0.017": 0.0,
			"0.018": 0.0,
			"0.019": 0.0,
			"0.02": 0.0,
			"0.021": 0.0,
			"0.022": 0.0,
			"0.023": 0.0,
			"0.024": 0.0,
			"0.025": 0.0
		}
	}
}
