{
	 "smiles": "NC1=C(C(CCC2CCCCC2)=NN1)C1=CC=C(Br)C=C1", 
	 "Tm": 442.15, 
	 "num_atms": 43, 
	 "gaussian": { 
		 "optdone": 1, 
		 "sigma_profile": "yes", 
		 "theory": "DFT", 
		 "functional": "B3LYP", 
		 "basiset": "6-31G**", 
		 "properties": { 
			 "R2extent": 12401.4702, 
			 "electric_dipole_moment_norm": 3.28163110358, 
			 "electric_quadrupole_moment_norm": 18.071020749, 
			 "total_energy": -3396.74037917, 
			 "HOMO_LUMO_gap": 0.18507, 
			 "cosmo_polarized_energy": -14.92, 
			 "cosmo_cavitation_energy": 45.77, 
			 "cosmo_dispersion_energy": -32.09, 
			 "cosmo_repulsion_energy": 2.51, 
			 "cosmo_total_nonelectrostatic_energy": 16.19, 
			 "SMD_solvation_energy": 4.13 
		},
		"coords": [
			{
				"x": 2.8286258695,
				"y": 2.0299645517,
				"z": 1.8216122814,
				"element": "N" 
			},
			{
				"x": 2.0356103767,
				"y": 1.6009293552,
				"z": 0.7583382682,
				"element": "C" 
			},
			{
				"x": 0.6573035411,
				"y": 1.4042147041,
				"z": 0.6538798786,
				"element": "C" 
			},
			{
				"x": 0.463770697,
				"y": 0.9993463415,
				"z": -0.7079742884,
				"element": "C" 
			},
			{
				"x": -0.8366096046,
				"y": 0.7450200363,
				"z": -1.4295307739,
				"element": "C" 
			},
			{
				"x": -0.8084399535,
				"y": -0.3899308393,
				"z": -2.4745409898,
				"element": "C" 
			},
			{
				"x": -0.9798742243,
				"y": -1.8213829203,
				"z": -1.9308931871,
				"element": "C" 
			},
			{
				"x": -1.1614947014,
				"y": -2.8169131229,
				"z": -3.0952384942,
				"element": "C" 
			},
			{
				"x": -1.3538362942,
				"y": -4.2628095402,
				"z": -2.6140679079,
				"element": "C" 
			},
			{
				"x": -0.2027742624,
				"y": -4.7086036369,
				"z": -1.7010439445,
				"element": "C" 
			},
			{
				"x": -0.019114132,
				"y": -3.7323327291,
				"z": -0.5306551839,
				"element": "C" 
			},
			{
				"x": 0.171931012,
				"y": -2.2866175435,
				"z": -1.0174696866,
				"element": "C" 
			},
			{
				"x": 1.6114943287,
				"y": 0.9515000862,
				"z": -1.3740157845,
				"element": "N" 
			},
			{
				"x": 2.5571765442,
				"y": 1.3154573931,
				"z": -0.4590897551,
				"element": "N" 
			},
			{
				"x": -0.3163307307,
				"y": 1.5809049105,
				"z": 1.7433061225,
				"element": "C" 
			},
			{
				"x": -1.2899448442,
				"y": 0.6066935232,
				"z": 2.0345344242,
				"element": "C" 
			},
			{
				"x": -2.1971244703,
				"y": 0.7735283809,
				"z": 3.0786912235,
				"element": "C" 
			},
			{
				"x": -2.1302376006,
				"y": 1.9224042958,
				"z": 3.8661301007,
				"element": "C" 
			},
			{
				"x": -3.3637809094,
				"y": 2.1509284218,
				"z": 5.30992904,
				"element": "Br" 
			},
			{
				"x": -1.1754158077,
				"y": 2.9042436506,
				"z": 3.6142251873,
				"element": "C" 
			},
			{
				"x": -0.284532704,
				"y": 2.7315713847,
				"z": 2.5543931798,
				"element": "C" 
			},
			{
				"x": 3.682107358,
				"y": 1.4937405968,
				"z": 1.936443948,
				"element": "H" 
			},
			{
				"x": 2.3095606954,
				"y": 2.0438412317,
				"z": 2.6919176009,
				"element": "H" 
			},
			{
				"x": -1.1143739755,
				"y": 1.6760813914,
				"z": -1.9422308408,
				"element": "H" 
			},
			{
				"x": -1.6335859467,
				"y": 0.565806795,
				"z": -0.7002614935,
				"element": "H" 
			},
			{
				"x": -1.622637415,
				"y": -0.2055846116,
				"z": -3.1874336383,
				"element": "H" 
			},
			{
				"x": 0.1253029223,
				"y": -0.3203026467,
				"z": -3.0446134776,
				"element": "H" 
			},
			{
				"x": -1.9079609061,
				"y": -1.8428773782,
				"z": -1.334107953,
				"element": "H" 
			},
			{
				"x": -2.0135471333,
				"y": -2.5101287805,
				"z": -3.7155148173,
				"element": "H" 
			},
			{
				"x": -0.2736663763,
				"y": -2.7665472253,
				"z": -3.7432504805,
				"element": "H" 
			},
			{
				"x": -1.4434410336,
				"y": -4.9378656107,
				"z": -3.4740434846,
				"element": "H" 
			},
			{
				"x": -2.3015391151,
				"y": -4.3367856505,
				"z": -2.0612993547,
				"element": "H" 
			},
			{
				"x": -0.3817847973,
				"y": -5.7245463022,
				"z": -1.328050254,
				"element": "H" 
			},
			{
				"x": 0.7271970879,
				"y": -4.7496513927,
				"z": -2.2862564594,
				"element": "H" 
			},
			{
				"x": 0.8346122794,
				"y": -4.0355720576,
				"z": 0.0880464935,
				"element": "H" 
			},
			{
				"x": -0.9049830448,
				"y": -3.7816557748,
				"z": 0.1195808372,
				"element": "H" 
			},
			{
				"x": 0.2728412418,
				"y": -1.6163763485,
				"z": -0.1569296878,
				"element": "H" 
			},
			{
				"x": 1.1169952122,
				"y": -2.2062851241,
				"z": -1.5730950555,
				"element": "H" 
			},
			{
				"x": 3.5173787287,
				"y": 1.4031734073,
				"z": -0.7512040271,
				"element": "H" 
			},
			{
				"x": -1.3244252571,
				"y": -0.3057064285,
				"z": 1.4477666633,
				"element": "H" 
			},
			{
				"x": -2.9394501096,
				"y": 0.0117057932,
				"z": 3.2890531982,
				"element": "H" 
			},
			{
				"x": -1.1370840945,
				"y": 3.798844645,
				"z": 4.2257669231,
				"element": "H" 
			},
			{
				"x": 0.4317815494,
				"y": 3.5184747684,
				"z": 2.3341956495,
				"element": "H" 
			}
		],
		 "valence_orbital": [ 
			{
				"type": "occ",
				"energy": -0.27737,
				"method": "rhf"
			},
			{
				"type": "occ",
				"energy": -0.26286,
				"method": "rhf"
			},
			{
				"type": "occ",
				"energy": -0.25681,
				"method": "rhf"
			},
			{
				"type": "occ",
				"energy": -0.22743,
				"method": "rhf"
			},
			{
				"type": "occ",
				"energy": -0.20312,
				"method": "rhf"
			},
			{
				"type": "unocc",
				"energy": -0.01805,
				"method": "rhf"
			},
			{
				"type": "unocc",
				"energy": -0.01582,
				"method": "rhf"
			},
			{
				"type": "unocc",
				"energy": 0.00855,
				"method": "rhf"
			},
			{
				"type": "unocc",
				"energy": 0.02944,
				"method": "rhf"
			},
			{
				"type": "unocc",
				"energy": 0.06567,
				"method": "rhf"
			}
		],
		"cosmo_sigma_profile": { 
			"-0.025": 0.0,
			"-0.024": 0.0,
			"-0.023": 0.0,
			"-0.022": 0.0,
			"-0.021": 0.0,
			"-0.02": 0.0,
			"-0.019": 0.0,
			"-0.018": 0.0,
			"-0.017": 0.0,
			"-0.016": 1.06977799252,
			"-0.015": 1.52591071651,
			"-0.014": 2.10999730143,
			"-0.013": 3.70191725023,
			"-0.012": 2.53389535536,
			"-0.011": 2.9347453715,
			"-0.01": 2.97808469158,
			"-0.009": 2.72366217688,
			"-0.008": 2.40997635647,
			"-0.007": 4.30635440891,
			"-0.006": 7.70456125698,
			"-0.005": 10.1950893526,
			"-0.004": 11.2893730852,
			"-0.003": 16.4645275002,
			"-0.002": 29.0856650817,
			"-0.001": 47.4486082592,
			"0.0": 51.6623975801,
			"0.001": 42.0739684346,
			"0.002": 30.9443139687,
			"0.003": 23.5579987768,
			"0.004": 26.5014294007,
			"0.005": 16.0067139659,
			"0.006": 3.55776667852,
			"0.007": 3.37925604574,
			"0.008": 2.92995998386,
			"0.009": 1.97256112854,
			"0.01": 1.93404441847,
			"0.011": 1.57291106533,
			"0.012": 1.76067957353,
			"0.013": 1.71534146139,
			"0.014": 1.28970652707,
			"0.015": 1.04375574713,
			"0.016": 0.883610461431,
			"0.017": 0.0605379837611,
			"0.018": 0.0,
			"0.019": 0.0,
			"0.02": 0.0,
			"0.021": 0.0,
			"0.022": 0.0,
			"0.023": 0.0,
			"0.024": 0.0,
			"0.025": 0.0
		}
	}
}
