{
	 "smiles": "OC(=O)CC1=CSC(=N1)C1=CC=CC=C1", 
	 "Tm": 363.15, 
	 "num_atms": 24, 
	 "gaussian": { 
		 "optdone": 1, 
		 "sigma_profile": "yes", 
		 "theory": "DFT", 
		 "functional": "B3LYP", 
		 "basiset": "6-31G**", 
		 "properties": { 
			 "R2extent": 4345.9116, 
			 "electric_dipole_moment_norm": 2.29755909173, 
			 "electric_quadrupole_moment_norm": 14.9634885104, 
			 "total_energy": -1027.9957375, 
			 "HOMO_LUMO_gap": 0.16767, 
			 "cosmo_polarized_energy": -13.39, 
			 "cosmo_cavitation_energy": 30.89, 
			 "cosmo_dispersion_energy": -22.72, 
			 "cosmo_repulsion_energy": 1.76, 
			 "cosmo_total_nonelectrostatic_energy": 9.93, 
			 "SMD_solvation_energy": 5.13 
		},
		"coords": [
			{
				"x": -1.014191893,
				"y": -3.0366357211,
				"z": 1.8601943784,
				"element": "O" 
			},
			{
				"x": -0.8877382398,
				"y": -3.5469979813,
				"z": 0.6129685249,
				"element": "C" 
			},
			{
				"x": -0.2909316912,
				"y": -4.5728897844,
				"z": 0.3802398433,
				"element": "O" 
			},
			{
				"x": -1.6175568746,
				"y": -2.7056359349,
				"z": -0.4241390187,
				"element": "C" 
			},
			{
				"x": -1.3289723667,
				"y": -1.2321141692,
				"z": -0.3326514183,
				"element": "C" 
			},
			{
				"x": -2.2421842867,
				"y": -0.2491128046,
				"z": -0.0688793162,
				"element": "C" 
			},
			{
				"x": -1.4729080207,
				"y": 1.3015853143,
				"z": -0.071993713,
				"element": "S" 
			},
			{
				"x": 0.0634208145,
				"y": 0.5022028123,
				"z": -0.4361529922,
				"element": "C" 
			},
			{
				"x": -0.0412371059,
				"y": -0.7965143633,
				"z": -0.5381399739,
				"element": "N" 
			},
			{
				"x": 1.3208242152,
				"y": 1.2426029357,
				"z": -0.6073346936,
				"element": "C" 
			},
			{
				"x": 2.4949975798,
				"y": 0.5284337235,
				"z": -0.9062960082,
				"element": "C" 
			},
			{
				"x": 3.7023501474,
				"y": 1.2000262668,
				"z": -1.0743244609,
				"element": "C" 
			},
			{
				"x": 3.7607424551,
				"y": 2.5906254026,
				"z": -0.9478148645,
				"element": "C" 
			},
			{
				"x": 2.5994142186,
				"y": 3.3069890274,
				"z": -0.6508929575,
				"element": "C" 
			},
			{
				"x": 1.3884286195,
				"y": 2.6394901631,
				"z": -0.4815517681,
				"element": "C" 
			},
			{
				"x": -0.5264300081,
				"y": -3.6391996781,
				"z": 2.4465099712,
				"element": "H" 
			},
			{
				"x": -1.3270401369,
				"y": -3.0974293041,
				"z": -1.4019090845,
				"element": "H" 
			},
			{
				"x": -2.6914188725,
				"y": -2.8805087779,
				"z": -0.294006188,
				"element": "H" 
			},
			{
				"x": -3.299870307,
				"y": -0.3487625064,
				"z": 0.1288314216,
				"element": "H" 
			},
			{
				"x": 2.4364821338,
				"y": -0.5499977908,
				"z": -1.001945166,
				"element": "H" 
			},
			{
				"x": 4.6017739929,
				"y": 0.6365195402,
				"z": -1.3051102406,
				"element": "H" 
			},
			{
				"x": 4.7041894032,
				"y": 3.1122374851,
				"z": -1.079568571,
				"element": "H" 
			},
			{
				"x": 2.6355765685,
				"y": 4.387726751,
				"z": -0.5504745834,
				"element": "H" 
			},
			{
				"x": 0.4936796544,
				"y": 3.2110593939,
				"z": -0.250059121,
				"element": "H" 
			}
		],
		 "valence_orbital": [ 
			{
				"type": "occ",
				"energy": -0.2837,
				"method": "rhf"
			},
			{
				"type": "occ",
				"energy": -0.27735,
				"method": "rhf"
			},
			{
				"type": "occ",
				"energy": -0.26846,
				"method": "rhf"
			},
			{
				"type": "occ",
				"energy": -0.25692,
				"method": "rhf"
			},
			{
				"type": "occ",
				"energy": -0.22299,
				"method": "rhf"
			},
			{
				"type": "unocc",
				"energy": -0.05532,
				"method": "rhf"
			},
			{
				"type": "unocc",
				"energy": -0.00738,
				"method": "rhf"
			},
			{
				"type": "unocc",
				"energy": 0.00622,
				"method": "rhf"
			},
			{
				"type": "unocc",
				"energy": 0.01767,
				"method": "rhf"
			},
			{
				"type": "unocc",
				"energy": 0.02192,
				"method": "rhf"
			}
		],
		"cosmo_sigma_profile": { 
			"-0.025": 0.0,
			"-0.024": 0.0,
			"-0.023": 0.0,
			"-0.022": 0.0,
			"-0.021": 0.0,
			"-0.02": 0.0,
			"-0.019": 0.00759841580044,
			"-0.018": 0.943279177548,
			"-0.017": 0.800132670705,
			"-0.016": 1.14268455247,
			"-0.015": 0.858183236533,
			"-0.014": 0.177527075043,
			"-0.013": 0.240778397641,
			"-0.012": 0.974961737726,
			"-0.011": 1.579817842,
			"-0.01": 0.849614357958,
			"-0.009": 2.03074102475,
			"-0.008": 6.25716411674,
			"-0.007": 7.13410790329,
			"-0.006": 13.4167426927,
			"-0.005": 15.8464332532,
			"-0.004": 17.6953011781,
			"-0.003": 14.0509405452,
			"-0.002": 13.4307998089,
			"-0.001": 13.8624246087,
			"0.0": 15.2146580165,
			"0.001": 19.1055081075,
			"0.002": 21.7657698821,
			"0.003": 20.7862014244,
			"0.004": 18.243011807,
			"0.005": 12.5375742047,
			"0.006": 5.17950776942,
			"0.007": 4.06745419113,
			"0.008": 5.05754745987,
			"0.009": 4.2529927488,
			"0.01": 3.31087054471,
			"0.011": 4.49743031719,
			"0.012": 3.99085049167,
			"0.013": 0.487236328967,
			"0.014": 0.0,
			"0.015": 0.0,
			"0.016": 0.0,
			"0.017": 0.0,
			"0.018": 0.0,
			"0.019": 0.0,
			"0.02": 0.0,
			"0.021": 0.0,
			"0.022": 0.0,
			"0.023": 0.0,
			"0.024": 0.0,
			"0.025": 0.0
		}
	}
}
