{
	 "smiles": "CC1=CC=C(C=C1)N1C(S)=NN=C1C1=CC=C(Cl)C=C1", 
	 "Tm": 415.15, 
	 "num_atms": 32, 
	 "gaussian": { 
		 "optdone": 1, 
		 "sigma_profile": "yes", 
		 "theory": "DFT", 
		 "functional": "B3LYP", 
		 "basiset": "6-31G**", 
		 "properties": { 
			 "R2extent": 8401.3259, 
			 "electric_dipole_moment_norm": 5.70080069289, 
			 "electric_quadrupole_moment_norm": 6.57196581854, 
			 "total_energy": -1601.44776822, 
			 "HOMO_LUMO_gap": 0.1768, 
			 "cosmo_polarized_energy": -14.98, 
			 "cosmo_cavitation_energy": 40.17, 
			 "cosmo_dispersion_energy": -28.36, 
			 "cosmo_repulsion_energy": 2.16, 
			 "cosmo_total_nonelectrostatic_energy": 13.97, 
			 "SMD_solvation_energy": 4.23 
		},
		"coords": [
			{
				"x": -4.1411908784,
				"y": -1.9947354698,
				"z": 1.2939462031,
				"element": "C" 
			},
			{
				"x": -2.8305233814,
				"y": -1.298031916,
				"z": 1.0172927541,
				"element": "C" 
			},
			{
				"x": -2.776813353,
				"y": -0.1569665805,
				"z": 0.2058466656,
				"element": "C" 
			},
			{
				"x": -1.5721558871,
				"y": 0.5035117023,
				"z": -0.0343153724,
				"element": "C" 
			},
			{
				"x": -0.3960492626,
				"y": 0.0249811024,
				"z": 0.5484287002,
				"element": "C" 
			},
			{
				"x": -0.4267470128,
				"y": -1.1083511,
				"z": 1.3657300387,
				"element": "C" 
			},
			{
				"x": -1.6357596712,
				"y": -1.7627981986,
				"z": 1.5870454137,
				"element": "C" 
			},
			{
				"x": 0.8437900862,
				"y": 0.7065154117,
				"z": 0.3172774478,
				"element": "N" 
			},
			{
				"x": 1.216411595,
				"y": 1.9124239892,
				"z": 0.8680800995,
				"element": "C" 
			},
			{
				"x": 0.1296695301,
				"y": 2.8794575377,
				"z": 1.8698817829,
				"element": "S" 
			},
			{
				"x": 2.4565467372,
				"y": 2.2121838112,
				"z": 0.5626167348,
				"element": "N" 
			},
			{
				"x": 2.9374384558,
				"y": 1.1832492535,
				"z": -0.2125042578,
				"element": "N" 
			},
			{
				"x": 1.9858642216,
				"y": 0.2848511335,
				"z": -0.3589711676,
				"element": "C" 
			},
			{
				"x": 2.1503000404,
				"y": -0.9514269792,
				"z": -1.1345618972,
				"element": "C" 
			},
			{
				"x": 3.456387107,
				"y": -1.4432156076,
				"z": -1.3103415546,
				"element": "C" 
			},
			{
				"x": 3.6941485161,
				"y": -2.5895222199,
				"z": -2.0606162037,
				"element": "C" 
			},
			{
				"x": 2.6167786608,
				"y": -3.258987886,
				"z": -2.6432401309,
				"element": "C" 
			},
			{
				"x": 2.9071600607,
				"y": -4.7145015759,
				"z": -3.583265379,
				"element": "Cl" 
			},
			{
				"x": 1.3141624824,
				"y": -2.7878389723,
				"z": -2.4923893017,
				"element": "C" 
			},
			{
				"x": 1.085383154,
				"y": -1.6351424285,
				"z": -1.7425105719,
				"element": "C" 
			},
			{
				"x": -4.582062478,
				"y": -1.6413098016,
				"z": 2.234204919,
				"element": "H" 
			},
			{
				"x": -4.8700389922,
				"y": -1.8069456287,
				"z": 0.5006129959,
				"element": "H" 
			},
			{
				"x": -4.0078428338,
				"y": -3.0768165021,
				"z": 1.3851137161,
				"element": "H" 
			},
			{
				"x": -3.688292931,
				"y": 0.2189608304,
				"z": -0.2508137378,
				"element": "H" 
			},
			{
				"x": -1.5376954089,
				"y": 1.3800713568,
				"z": -0.6733905488,
				"element": "H" 
			},
			{
				"x": 0.4918496912,
				"y": -1.4705472679,
				"z": 1.8156594205,
				"element": "H" 
			},
			{
				"x": -1.6524915739,
				"y": -2.6475770492,
				"z": 2.2177452653,
				"element": "H" 
			},
			{
				"x": 1.0805271441,
				"y": 3.8056537923,
				"z": 2.0983264456,
				"element": "H" 
			},
			{
				"x": 4.2807884257,
				"y": -0.9072388255,
				"z": -0.853517659,
				"element": "H" 
			},
			{
				"x": 4.7029938084,
				"y": -2.9652300557,
				"z": -2.1901670816,
				"element": "H" 
			},
			{
				"x": 0.4886932536,
				"y": -3.3106381708,
				"z": -2.962412746,
				"element": "H" 
			},
			{
				"x": 0.0707706938,
				"y": -1.2669376851,
				"z": -1.6499909927,
				"element": "H" 
			}
		],
		 "valence_orbital": [ 
			{
				"type": "occ",
				"energy": -0.27419,
				"method": "rhf"
			},
			{
				"type": "occ",
				"energy": -0.26606,
				"method": "rhf"
			},
			{
				"type": "occ",
				"energy": -0.2605,
				"method": "rhf"
			},
			{
				"type": "occ",
				"energy": -0.24949,
				"method": "rhf"
			},
			{
				"type": "occ",
				"energy": -0.21875,
				"method": "rhf"
			},
			{
				"type": "unocc",
				"energy": -0.04195,
				"method": "rhf"
			},
			{
				"type": "unocc",
				"energy": -0.03103,
				"method": "rhf"
			},
			{
				"type": "unocc",
				"energy": -0.03025,
				"method": "rhf"
			},
			{
				"type": "unocc",
				"energy": -0.01473,
				"method": "rhf"
			},
			{
				"type": "unocc",
				"energy": 0.01121,
				"method": "rhf"
			}
		],
		"cosmo_sigma_profile": { 
			"-0.025": 0.0,
			"-0.024": 0.0,
			"-0.023": 0.0,
			"-0.022": 0.0,
			"-0.021": 0.0,
			"-0.02": 0.0,
			"-0.019": 0.0,
			"-0.018": 0.0,
			"-0.017": 0.0,
			"-0.016": 0.0,
			"-0.015": 0.0,
			"-0.014": 0.0,
			"-0.013": 0.0577321540747,
			"-0.012": 1.54430569368,
			"-0.011": 1.04408400461,
			"-0.01": 1.36391823465,
			"-0.009": 1.42504500504,
			"-0.008": 2.488188964,
			"-0.007": 9.55616320745,
			"-0.006": 17.5662378646,
			"-0.005": 23.5583261213,
			"-0.004": 22.694584188,
			"-0.003": 21.8604330351,
			"-0.002": 23.3063987061,
			"-0.001": 24.8827554393,
			"0.0": 27.222096054,
			"0.001": 27.93580751,
			"0.002": 36.6294913406,
			"0.003": 30.213300293,
			"0.004": 18.0052301231,
			"0.005": 8.65311115839,
			"0.006": 4.34536605773,
			"0.007": 3.06705525574,
			"0.008": 1.63488259121,
			"0.009": 1.62822602444,
			"0.01": 2.3266990244,
			"0.011": 2.50463079924,
			"0.012": 2.76192219483,
			"0.013": 3.22662413015,
			"0.014": 2.54505578363,
			"0.015": 2.35274881566,
			"0.016": 0.776009326891,
			"0.017": 0.0025850211766,
			"0.018": 0.0,
			"0.019": 0.0,
			"0.02": 0.0,
			"0.021": 0.0,
			"0.022": 0.0,
			"0.023": 0.0,
			"0.024": 0.0,
			"0.025": 0.0
		}
	}
}
