{
	 "smiles": "CC1=CC=C2OC=C(C=O)C(=O)C2=C1", 
	 "Tm": 445.15, 
	 "num_atms": 22, 
	 "gaussian": { 
		 "optdone": 1, 
		 "sigma_profile": "yes", 
		 "theory": "DFT", 
		 "functional": "B3LYP", 
		 "basiset": "6-31G**", 
		 "properties": { 
			 "R2extent": 3328.7636, 
			 "electric_dipole_moment_norm": 5.46530820082, 
			 "electric_quadrupole_moment_norm": 8.70582349752, 
			 "total_energy": -649.651109903, 
			 "HOMO_LUMO_gap": 0.17176, 
			 "cosmo_polarized_energy": -11.49, 
			 "cosmo_cavitation_energy": 27.07, 
			 "cosmo_dispersion_energy": -19.86, 
			 "cosmo_repulsion_energy": 1.52, 
			 "cosmo_total_nonelectrostatic_energy": 8.74, 
			 "SMD_solvation_energy": 7.02 
		},
		"coords": [
			{
				"x": 2.3118756569,
				"y": 2.0179771386,
				"z": 1.7502453619,
				"element": "C" 
			},
			{
				"x": 0.9867607481,
				"y": 1.4619969225,
				"z": 1.286298994,
				"element": "C" 
			},
			{
				"x": -0.1878102981,
				"y": 2.2379183301,
				"z": 1.3918365275,
				"element": "C" 
			},
			{
				"x": -1.4203285049,
				"y": 1.7557917062,
				"z": 0.9748616033,
				"element": "C" 
			},
			{
				"x": -1.4889832373,
				"y": 0.4685309462,
				"z": 0.4385669102,
				"element": "C" 
			},
			{
				"x": -2.735401436,
				"y": 0.0277428381,
				"z": 0.0358853724,
				"element": "O" 
			},
			{
				"x": -2.8456733509,
				"y": -1.2001699617,
				"z": -0.4838289232,
				"element": "C" 
			},
			{
				"x": -1.8165518251,
				"y": -2.0704585491,
				"z": -0.6537785753,
				"element": "C" 
			},
			{
				"x": -2.0973622578,
				"y": -3.3985003693,
				"z": -1.2445990164,
				"element": "C" 
			},
			{
				"x": -3.2074482752,
				"y": -3.7646183901,
				"z": -1.592405924,
				"element": "O" 
			},
			{
				"x": -0.4504833664,
				"y": -1.6975599404,
				"z": -0.2573196042,
				"element": "C" 
			},
			{
				"x": 0.519614842,
				"y": -2.4416721134,
				"z": -0.3864784144,
				"element": "O" 
			},
			{
				"x": -0.3490511403,
				"y": -0.3339602422,
				"z": 0.3159730456,
				"element": "C" 
			},
			{
				"x": 0.8830374317,
				"y": 0.1837360704,
				"z": 0.7473228516,
				"element": "C" 
			},
			{
				"x": 2.2825354936,
				"y": 2.2787946835,
				"z": 2.8143035206,
				"element": "H" 
			},
			{
				"x": 2.5740231699,
				"y": 2.9299356516,
				"z": 1.2019024462,
				"element": "H" 
			},
			{
				"x": 3.1185267329,
				"y": 1.2955151933,
				"z": 1.6043656739,
				"element": "H" 
			},
			{
				"x": -0.1275515621,
				"y": 3.2393209724,
				"z": 1.8101771645,
				"element": "H" 
			},
			{
				"x": -2.3244442886,
				"y": 2.3497221432,
				"z": 1.0546758826,
				"element": "H" 
			},
			{
				"x": -3.8643514076,
				"y": -1.4447536863,
				"z": -0.7658479733,
				"element": "H" 
			},
			{
				"x": -1.2073630149,
				"y": -4.0453420284,
				"z": -1.3485154483,
				"element": "H" 
			},
			{
				"x": 1.7531298902,
				"y": -0.4572473151,
				"z": 0.6421585249,
				"element": "H" 
			}
		],
		 "valence_orbital": [ 
			{
				"type": "occ",
				"energy": -0.2836,
				"method": "rhf"
			},
			{
				"type": "occ",
				"energy": -0.27503,
				"method": "rhf"
			},
			{
				"type": "occ",
				"energy": -0.27083,
				"method": "rhf"
			},
			{
				"type": "occ",
				"energy": -0.24962,
				"method": "rhf"
			},
			{
				"type": "occ",
				"energy": -0.24374,
				"method": "rhf"
			},
			{
				"type": "unocc",
				"energy": -0.07198,
				"method": "rhf"
			},
			{
				"type": "unocc",
				"energy": -0.06175,
				"method": "rhf"
			},
			{
				"type": "unocc",
				"energy": -0.01391,
				"method": "rhf"
			},
			{
				"type": "unocc",
				"energy": 0.01098,
				"method": "rhf"
			},
			{
				"type": "unocc",
				"energy": 0.07782,
				"method": "rhf"
			}
		],
		"cosmo_sigma_profile": { 
			"-0.025": 0.0,
			"-0.024": 0.0,
			"-0.023": 0.0,
			"-0.022": 0.0,
			"-0.021": 0.0,
			"-0.02": 0.0,
			"-0.019": 0.0,
			"-0.018": 0.0,
			"-0.017": 0.0,
			"-0.016": 0.0,
			"-0.015": 0.0,
			"-0.014": 0.0,
			"-0.013": 0.0,
			"-0.012": 0.0,
			"-0.011": 0.426789382536,
			"-0.01": 1.49433940903,
			"-0.009": 1.1015260453,
			"-0.008": 2.30923180948,
			"-0.007": 5.60726475373,
			"-0.006": 9.41227341988,
			"-0.005": 15.0991092714,
			"-0.004": 21.0594284331,
			"-0.003": 20.6351424719,
			"-0.002": 20.8107346636,
			"-0.001": 20.5945819445,
			"0.0": 19.2320302128,
			"0.001": 15.0417019963,
			"0.002": 15.4763400012,
			"0.003": 9.08375978523,
			"0.004": 4.51951934505,
			"0.005": 3.17963832573,
			"0.006": 3.50526289417,
			"0.007": 2.39928091775,
			"0.008": 3.49640502187,
			"0.009": 3.7216833581,
			"0.01": 4.51412038025,
			"0.011": 5.91595562486,
			"0.012": 6.47557804347,
			"0.013": 2.54059697169,
			"0.014": 0.0,
			"0.015": 0.0,
			"0.016": 0.0,
			"0.017": 0.0,
			"0.018": 0.0,
			"0.019": 0.0,
			"0.02": 0.0,
			"0.021": 0.0,
			"0.022": 0.0,
			"0.023": 0.0,
			"0.024": 0.0,
			"0.025": 0.0
		}
	}
}
