{
	 "smiles": "CC1=NOC(=N1)C1=CC(Br)=CC=C1", 
	 "Tm": 368.65, 
	 "num_atms": 20, 
	 "gaussian": { 
		 "optdone": 1, 
		 "sigma_profile": "yes", 
		 "theory": "DFT", 
		 "functional": "B3LYP", 
		 "basiset": "6-31G**", 
		 "properties": { 
			 "R2extent": 5790.371, 
			 "electric_dipole_moment_norm": 2.55493026519, 
			 "electric_quadrupole_moment_norm": 7.19221378089, 
			 "total_energy": -3103.27875868, 
			 "HOMO_LUMO_gap": 0.18357, 
			 "cosmo_polarized_energy": -7.61, 
			 "cosmo_cavitation_energy": 27.59, 
			 "cosmo_dispersion_energy": -20.87, 
			 "cosmo_repulsion_energy": 1.65, 
			 "cosmo_total_nonelectrostatic_energy": 8.37, 
			 "SMD_solvation_energy": 1.91 
		},
		"coords": [
			{
				"x": -1.4231478636,
				"y": 0.9966031554,
				"z": -3.3508299148,
				"element": "C" 
			},
			{
				"x": -0.6093551888,
				"y": 0.9429279025,
				"z": -2.0958362239,
				"element": "C" 
			},
			{
				"x": 0.3458052829,
				"y": 1.8059536179,
				"z": -1.8374673294,
				"element": "N" 
			},
			{
				"x": 0.8297645429,
				"y": 1.3887423425,
				"z": -0.5855918463,
				"element": "O" 
			},
			{
				"x": 0.1048486047,
				"y": 0.3131507593,
				"z": -0.2299710543,
				"element": "C" 
			},
			{
				"x": -0.7969010891,
				"y": -0.0095777698,
				"z": -1.1194766755,
				"element": "N" 
			},
			{
				"x": 0.386762172,
				"y": -0.345330095,
				"z": 1.044496424,
				"element": "C" 
			},
			{
				"x": 1.3999340685,
				"y": 0.13652075,
				"z": 1.88762778,
				"element": "C" 
			},
			{
				"x": 1.6392690172,
				"y": -0.5158366596,
				"z": 3.0924201362,
				"element": "C" 
			},
			{
				"x": 3.0158439148,
				"y": 0.1322674181,
				"z": 4.2470910547,
				"element": "Br" 
			},
			{
				"x": 0.896052809,
				"y": -1.6324998014,
				"z": 3.4755758813,
				"element": "C" 
			},
			{
				"x": -0.1096081808,
				"y": -2.1021660522,
				"z": 2.6273405943,
				"element": "C" 
			},
			{
				"x": -0.3690952748,
				"y": -1.4674153585,
				"z": 1.4163633528,
				"element": "C" 
			},
			{
				"x": -1.953394509,
				"y": 1.9497456941,
				"z": -3.4297353374,
				"element": "H" 
			},
			{
				"x": -0.784418299,
				"y": 0.8966086229,
				"z": -4.2328104148,
				"element": "H" 
			},
			{
				"x": -2.1506882485,
				"y": 0.1842903971,
				"z": -3.3445838072,
				"element": "H" 
			},
			{
				"x": 1.9846387953,
				"y": 1.0025087232,
				"z": 1.6026963692,
				"element": "H" 
			},
			{
				"x": 1.1011288833,
				"y": -2.124129494,
				"z": 4.41956842,
				"element": "H" 
			},
			{
				"x": -0.691609976,
				"y": -2.9707588507,
				"z": 2.9197455679,
				"element": "H" 
			},
			{
				"x": -1.1468294611,
				"y": -1.8223053017,
				"z": 0.7495770233,
				"element": "H" 
			}
		],
		 "valence_orbital": [ 
			{
				"type": "occ",
				"energy": -0.30332,
				"method": "rhf"
			},
			{
				"type": "occ",
				"energy": -0.29835,
				"method": "rhf"
			},
			{
				"type": "occ",
				"energy": -0.2951,
				"method": "rhf"
			},
			{
				"type": "occ",
				"energy": -0.26342,
				"method": "rhf"
			},
			{
				"type": "occ",
				"energy": -0.25082,
				"method": "rhf"
			},
			{
				"type": "unocc",
				"energy": -0.06725,
				"method": "rhf"
			},
			{
				"type": "unocc",
				"energy": -0.02725,
				"method": "rhf"
			},
			{
				"type": "unocc",
				"energy": -0.00158,
				"method": "rhf"
			},
			{
				"type": "unocc",
				"energy": 0.00824,
				"method": "rhf"
			},
			{
				"type": "unocc",
				"energy": 0.05489,
				"method": "rhf"
			}
		],
		"cosmo_sigma_profile": { 
			"-0.025": 0.0,
			"-0.024": 0.0,
			"-0.023": 0.0,
			"-0.022": 0.0,
			"-0.021": 0.0,
			"-0.02": 0.0,
			"-0.019": 0.0,
			"-0.018": 0.0,
			"-0.017": 0.0,
			"-0.016": 0.0,
			"-0.015": 0.0,
			"-0.014": 0.0,
			"-0.013": 0.0,
			"-0.012": 0.0,
			"-0.011": 0.0,
			"-0.01": 0.0,
			"-0.009": 0.0,
			"-0.008": 1.86341711167,
			"-0.007": 6.83770325343,
			"-0.006": 12.2370430638,
			"-0.005": 12.6246989285,
			"-0.004": 15.4718346499,
			"-0.003": 18.9432153223,
			"-0.002": 22.6887035311,
			"-0.001": 17.8116248789,
			"0.0": 18.8405232863,
			"0.001": 24.4818320294,
			"0.002": 18.9828573658,
			"0.003": 12.8447245673,
			"0.004": 14.4246740377,
			"0.005": 5.49563027975,
			"0.006": 5.47831344866,
			"0.007": 3.52086529102,
			"0.008": 2.83276351806,
			"0.009": 1.68273180557,
			"0.01": 2.6116324481,
			"0.011": 2.54877857894,
			"0.012": 1.70666195443,
			"0.013": 1.55650057556,
			"0.014": 0.114373200948,
			"0.015": 0.0,
			"0.016": 0.0,
			"0.017": 0.0,
			"0.018": 0.0,
			"0.019": 0.0,
			"0.02": 0.0,
			"0.021": 0.0,
			"0.022": 0.0,
			"0.023": 0.0,
			"0.024": 0.0,
			"0.025": 0.0
		}
	}
}
