{
	 "smiles": "CCCCOC1=C(C=C(N)C=C1)[N+]([O-])=O", 
	 "Tm": 335.15, 
	 "num_atms": 29, 
	 "gaussian": { 
		 "optdone": 1, 
		 "sigma_profile": "yes", 
		 "theory": "DFT", 
		 "functional": "B3LYP", 
		 "basiset": "6-31G**", 
		 "properties": { 
			 "R2extent": 4325.4647, 
			 "electric_dipole_moment_norm": 6.088188219, 
			 "electric_quadrupole_moment_norm": 24.5331904061, 
			 "total_energy": -724.569397342, 
			 "HOMO_LUMO_gap": 0.13444, 
			 "cosmo_polarized_energy": -16.54, 
			 "cosmo_cavitation_energy": 32.82, 
			 "cosmo_dispersion_energy": -23.19, 
			 "cosmo_repulsion_energy": 1.87, 
			 "cosmo_total_nonelectrostatic_energy": 11.5, 
			 "SMD_solvation_energy": 7.88 
		},
		"coords": [
			{
				"x": 1.5801385832,
				"y": -4.0122340566,
				"z": -1.3563133803,
				"element": "C" 
			},
			{
				"x": 0.4990640255,
				"y": -3.484329308,
				"z": -0.4088531004,
				"element": "C" 
			},
			{
				"x": -0.3935068974,
				"y": -2.4181564392,
				"z": -1.0576450658,
				"element": "C" 
			},
			{
				"x": -1.4635944481,
				"y": -1.8670648615,
				"z": -0.114726031,
				"element": "C" 
			},
			{
				"x": -0.9137095257,
				"y": -1.239198553,
				"z": 1.0507916032,
				"element": "O" 
			},
			{
				"x": -0.434325409,
				"y": 0.0257506546,
				"z": 0.9871393024,
				"element": "C" 
			},
			{
				"x": 0.2154806336,
				"y": 0.574967713,
				"z": 2.1165124274,
				"element": "C" 
			},
			{
				"x": 0.749980293,
				"y": 1.8637570836,
				"z": 2.104520855,
				"element": "C" 
			},
			{
				"x": 0.6463253409,
				"y": 2.6777830933,
				"z": 0.9745622579,
				"element": "C" 
			},
			{
				"x": 1.1118455662,
				"y": 3.9966463033,
				"z": 0.986267996,
				"element": "N" 
			},
			{
				"x": 0.0016161012,
				"y": 2.1420277062,
				"z": -0.1521324918,
				"element": "C" 
			},
			{
				"x": -0.5137257038,
				"y": 0.8504503064,
				"z": -0.1473921589,
				"element": "C" 
			},
			{
				"x": 0.371630133,
				"y": -0.1751516361,
				"z": 3.3701105515,
				"element": "N" 
			},
			{
				"x": -0.4174790674,
				"y": -1.0825910378,
				"z": 3.6173399383,
				"element": "O" 
			},
			{
				"x": 1.2901140097,
				"y": 0.1723493298,
				"z": 4.1204283829,
				"element": "O" 
			},
			{
				"x": 1.1398468408,
				"y": -4.4659778582,
				"z": -2.2518923935,
				"element": "H" 
			},
			{
				"x": 2.2455639307,
				"y": -3.2067299261,
				"z": -1.6875811937,
				"element": "H" 
			},
			{
				"x": 2.1981622529,
				"y": -4.7725880159,
				"z": -0.86852093,
				"element": "H" 
			},
			{
				"x": -0.1292605146,
				"y": -4.3169268872,
				"z": -0.0647968779,
				"element": "H" 
			},
			{
				"x": 0.9634091017,
				"y": -3.0635253742,
				"z": 0.490011469,
				"element": "H" 
			},
			{
				"x": 0.2273640354,
				"y": -1.5962339698,
				"z": -1.4359838006,
				"element": "H" 
			},
			{
				"x": -0.9088902024,
				"y": -2.8426148884,
				"z": -1.9306669126,
				"element": "H" 
			},
			{
				"x": -2.0652642462,
				"y": -2.6850137893,
				"z": 0.2923050674,
				"element": "H" 
			},
			{
				"x": -2.147723543,
				"y": -1.1826282639,
				"z": -0.6311782537,
				"element": "H" 
			},
			{
				"x": 1.2468187532,
				"y": 2.2095709048,
				"z": 3.0031502984,
				"element": "H" 
			},
			{
				"x": 1.3560585815,
				"y": 4.3682141672,
				"z": 0.0782844424,
				"element": "H" 
			},
			{
				"x": 1.8350917213,
				"y": 4.1835380209,
				"z": 1.6676421178,
				"element": "H" 
			},
			{
				"x": -0.0978539004,
				"y": 2.7453881256,
				"z": -1.0509460825,
				"element": "H" 
			},
			{
				"x": -0.9837764456,
				"y": 0.4810214567,
				"z": -1.0497380368,
				"element": "H" 
			}
		],
		 "valence_orbital": [ 
			{
				"type": "occ",
				"energy": -0.28914,
				"method": "rhf"
			},
			{
				"type": "occ",
				"energy": -0.28542,
				"method": "rhf"
			},
			{
				"type": "occ",
				"energy": -0.27735,
				"method": "rhf"
			},
			{
				"type": "occ",
				"energy": -0.26194,
				"method": "rhf"
			},
			{
				"type": "occ",
				"energy": -0.20443,
				"method": "rhf"
			},
			{
				"type": "unocc",
				"energy": -0.06999,
				"method": "rhf"
			},
			{
				"type": "unocc",
				"energy": -0.00334,
				"method": "rhf"
			},
			{
				"type": "unocc",
				"energy": 0.01775,
				"method": "rhf"
			},
			{
				"type": "unocc",
				"energy": 0.06868,
				"method": "rhf"
			},
			{
				"type": "unocc",
				"energy": 0.07993,
				"method": "rhf"
			}
		],
		"cosmo_sigma_profile": { 
			"-0.025": 0.0,
			"-0.024": 0.0,
			"-0.023": 0.0,
			"-0.022": 0.0,
			"-0.021": 0.0,
			"-0.02": 0.0,
			"-0.019": 0.0,
			"-0.018": 0.0,
			"-0.017": 0.0,
			"-0.016": 0.0,
			"-0.015": 0.0,
			"-0.014": 0.0,
			"-0.013": 1.08967255386,
			"-0.012": 3.40107052534,
			"-0.011": 2.42107001287,
			"-0.01": 3.86183877059,
			"-0.009": 3.57483415919,
			"-0.008": 4.81239277688,
			"-0.007": 6.96366443422,
			"-0.006": 7.52969819066,
			"-0.005": 11.9024257579,
			"-0.004": 13.1693788847,
			"-0.003": 21.5354223185,
			"-0.002": 23.1878686597,
			"-0.001": 22.3072733153,
			"0.0": 24.6331183686,
			"0.001": 23.8665118241,
			"0.002": 15.978232819,
			"0.003": 13.7769988908,
			"0.004": 7.15126978856,
			"0.005": 4.90062201902,
			"0.006": 4.35873197899,
			"0.007": 3.86391913464,
			"0.008": 9.71773290823,
			"0.009": 9.30276692812,
			"0.01": 6.63114330931,
			"0.011": 4.12590121839,
			"0.012": 1.73252044247,
			"0.013": 1.45844501796,
			"0.014": 0.72726841869,
			"0.015": 0.181195810476,
			"0.016": 0.0,
			"0.017": 0.0,
			"0.018": 0.0,
			"0.019": 0.0,
			"0.02": 0.0,
			"0.021": 0.0,
			"0.022": 0.0,
			"0.023": 0.0,
			"0.024": 0.0,
			"0.025": 0.0
		}
	}
}
