{
	 "smiles": "O=C1NC=NC2=C1N=NN2C1=CC=CC=C1", 
	 "Tm": 553.15, 
	 "num_atms": 23, 
	 "gaussian": { 
		 "optdone": 1, 
		 "sigma_profile": "yes", 
		 "theory": "DFT", 
		 "functional": "B3LYP", 
		 "basiset": "6-31G**", 
		 "properties": { 
			 "R2extent": 3854.5437, 
			 "electric_dipole_moment_norm": 5.91741942911, 
			 "electric_quadrupole_moment_norm": 21.9248191993, 
			 "total_energy": -734.23683001, 
			 "HOMO_LUMO_gap": 0.18047, 
			 "cosmo_polarized_energy": -19.21, 
			 "cosmo_cavitation_energy": 28.22, 
			 "cosmo_dispersion_energy": -21.4, 
			 "cosmo_repulsion_energy": 1.62, 
			 "cosmo_total_nonelectrostatic_energy": 8.43, 
			 "SMD_solvation_energy": 3.49 
		},
		"coords": [
			{
				"x": 4.3269743874,
				"y": -0.7392205033,
				"z": -1.2588583447,
				"element": "O" 
			},
			{
				"x": 3.4381045833,
				"y": -0.2144040407,
				"z": -0.6190125493,
				"element": "C" 
			},
			{
				"x": 3.7398977985,
				"y": 0.8049506176,
				"z": 0.3445324135,
				"element": "N" 
			},
			{
				"x": 2.8363669804,
				"y": 1.466501936,
				"z": 1.1214076377,
				"element": "C" 
			},
			{
				"x": 1.5484631657,
				"y": 1.2709573867,
				"z": 1.1062268925,
				"element": "N" 
			},
			{
				"x": 1.1729621735,
				"y": 0.3098666881,
				"z": 0.2105039721,
				"element": "C" 
			},
			{
				"x": 2.0059973292,
				"y": -0.4278952149,
				"z": -0.6318131733,
				"element": "C" 
			},
			{
				"x": 1.2490627412,
				"y": -1.2861538251,
				"z": -1.3734072763,
				"element": "N" 
			},
			{
				"x": 0.009829147,
				"y": -1.1244976628,
				"z": -1.0433660824,
				"element": "N" 
			},
			{
				"x": -0.0810573952,
				"y": -0.1493793571,
				"z": -0.0693419307,
				"element": "N" 
			},
			{
				"x": -1.3625073943,
				"y": 0.2043389814,
				"z": 0.4560809102,
				"element": "C" 
			},
			{
				"x": -1.4816341239,
				"y": 1.1885921587,
				"z": 1.4436320577,
				"element": "C" 
			},
			{
				"x": -2.748613882,
				"y": 1.5078544059,
				"z": 1.9330641842,
				"element": "C" 
			},
			{
				"x": -3.8851983883,
				"y": 0.8597524044,
				"z": 1.4500493643,
				"element": "C" 
			},
			{
				"x": -3.7505989785,
				"y": -0.1204445843,
				"z": 0.4643629509,
				"element": "C" 
			},
			{
				"x": -2.4956360769,
				"y": -0.4546282192,
				"z": -0.0381384749,
				"element": "C" 
			},
			{
				"x": 4.7258716129,
				"y": 1.0253251445,
				"z": 0.4258787356,
				"element": "H" 
			},
			{
				"x": 3.2491659807,
				"y": 2.2105997868,
				"z": 1.7981292935,
				"element": "H" 
			},
			{
				"x": -0.5994831354,
				"y": 1.6909634627,
				"z": 1.8178357307,
				"element": "H" 
			},
			{
				"x": -2.8405957423,
				"y": 2.2717279956,
				"z": 2.6994336924,
				"element": "H" 
			},
			{
				"x": -4.8669850677,
				"y": 1.1150236355,
				"z": 1.8370670752,
				"element": "H" 
			},
			{
				"x": -4.6277833504,
				"y": -0.6322657417,
				"z": 0.0801008832,
				"element": "H" 
			},
			{
				"x": -2.3818023647,
				"y": -1.212765455,
				"z": -0.8018679619,
				"element": "H" 
			}
		],
		 "valence_orbital": [ 
			{
				"type": "occ",
				"energy": -0.27994,
				"method": "rhf"
			},
			{
				"type": "occ",
				"energy": -0.27449,
				"method": "rhf"
			},
			{
				"type": "occ",
				"energy": -0.26348,
				"method": "rhf"
			},
			{
				"type": "occ",
				"energy": -0.25521,
				"method": "rhf"
			},
			{
				"type": "occ",
				"energy": -0.24511,
				"method": "rhf"
			},
			{
				"type": "unocc",
				"energy": -0.06464,
				"method": "rhf"
			},
			{
				"type": "unocc",
				"energy": -0.03228,
				"method": "rhf"
			},
			{
				"type": "unocc",
				"energy": -0.01857,
				"method": "rhf"
			},
			{
				"type": "unocc",
				"energy": -0.01018,
				"method": "rhf"
			},
			{
				"type": "unocc",
				"energy": 0.03251,
				"method": "rhf"
			}
		],
		"cosmo_sigma_profile": { 
			"-0.025": 0.0,
			"-0.024": 0.0,
			"-0.023": 0.0,
			"-0.022": 0.0,
			"-0.021": 0.0,
			"-0.02": 0.0,
			"-0.019": 0.0,
			"-0.018": 0.99839034961,
			"-0.017": 1.48115550252,
			"-0.016": 1.28330359114,
			"-0.015": 1.25770711894,
			"-0.014": 1.31518544648,
			"-0.013": 1.27778815625,
			"-0.012": 1.79284929734,
			"-0.011": 3.23382089496,
			"-0.01": 2.22448566768,
			"-0.009": 1.90120873376,
			"-0.008": 2.08673590461,
			"-0.007": 3.34653510157,
			"-0.006": 11.2750702211,
			"-0.005": 13.7749778705,
			"-0.004": 20.2100419631,
			"-0.003": 18.3763198834,
			"-0.002": 12.8404219937,
			"-0.001": 11.8118490739,
			"0.0": 13.1361367907,
			"0.001": 13.9381560528,
			"0.002": 14.692402118,
			"0.003": 13.9581136738,
			"0.004": 15.4471509638,
			"0.005": 6.23528015283,
			"0.006": 5.44343599284,
			"0.007": 4.88623348188,
			"0.008": 4.58286744988,
			"0.009": 6.38752352408,
			"0.01": 4.10378879359,
			"0.011": 5.78133888662,
			"0.012": 6.76215183694,
			"0.013": 2.37987040853,
			"0.014": 0.585005260234,
			"0.015": 0.0,
			"0.016": 0.0,
			"0.017": 0.0,
			"0.018": 0.0,
			"0.019": 0.0,
			"0.02": 0.0,
			"0.021": 0.0,
			"0.022": 0.0,
			"0.023": 0.0,
			"0.024": 0.0,
			"0.025": 0.0
		}
	}
}
