{
	 "smiles": "NC(=O)CC1=NC2=C(N1)C=CC=C2", 
	 "Tm": 503.15, 
	 "num_atms": 22, 
	 "gaussian": { 
		 "optdone": 1, 
		 "sigma_profile": "yes", 
		 "theory": "DFT", 
		 "functional": "B3LYP", 
		 "basiset": "6-31G**", 
		 "properties": { 
			 "R2extent": 2892.6661, 
			 "electric_dipole_moment_norm": 4.03694164684, 
			 "electric_quadrupole_moment_norm": 19.7751028369, 
			 "total_energy": -587.899112025, 
			 "HOMO_LUMO_gap": 0.20534, 
			 "cosmo_polarized_energy": -17.51, 
			 "cosmo_cavitation_energy": 26.25, 
			 "cosmo_dispersion_energy": -19.9, 
			 "cosmo_repulsion_energy": 1.59, 
			 "cosmo_total_nonelectrostatic_energy": 7.94, 
			 "SMD_solvation_energy": 2.7 
		},
		"coords": [
			{
				"x": -2.8258086479,
				"y": 2.4991137626,
				"z": 2.774230715,
				"element": "N" 
			},
			{
				"x": -1.7152445649,
				"y": 2.2528562426,
				"z": 2.0307985079,
				"element": "C" 
			},
			{
				"x": -1.3598079985,
				"y": 2.9969501705,
				"z": 1.1202963127,
				"element": "O" 
			},
			{
				"x": -0.9046918053,
				"y": 1.0238787769,
				"z": 2.4473468291,
				"element": "C" 
			},
			{
				"x": -0.3500783094,
				"y": 0.2446850258,
				"z": 1.2912793029,
				"element": "C" 
			},
			{
				"x": -0.2150291549,
				"y": -1.0611498109,
				"z": 1.2756969909,
				"element": "N" 
			},
			{
				"x": 0.3723731108,
				"y": -1.3364485573,
				"z": 0.046599573,
				"element": "C" 
			},
			{
				"x": 0.5820173924,
				"y": -0.1363385848,
				"z": -0.6794919218,
				"element": "C" 
			},
			{
				"x": 0.1212458724,
				"y": 0.8624282731,
				"z": 0.1582543124,
				"element": "N" 
			},
			{
				"x": 1.1467454981,
				"y": -0.1217220299,
				"z": -1.956633676,
				"element": "C" 
			},
			{
				"x": 1.5075143447,
				"y": -1.3536803631,
				"z": -2.4971586931,
				"element": "C" 
			},
			{
				"x": 1.3108435126,
				"y": -2.5560664295,
				"z": -1.7878043581,
				"element": "C" 
			},
			{
				"x": 0.7448088323,
				"y": -2.5636402391,
				"z": -0.5167155705,
				"element": "C" 
			},
			{
				"x": -3.3837564411,
				"y": 3.3075277373,
				"z": 2.5419380772,
				"element": "H" 
			},
			{
				"x": -3.1615937638,
				"y": 1.8578584296,
				"z": 3.4737937402,
				"element": "H" 
			},
			{
				"x": -1.4766854631,
				"y": 0.3344177934,
				"z": 3.0725192346,
				"element": "H" 
			},
			{
				"x": -0.0770083818,
				"y": 1.4023455632,
				"z": 3.0651286774,
				"element": "H" 
			},
			{
				"x": -0.0274792449,
				"y": 1.8487985128,
				"z": -0.0196593581,
				"element": "H" 
			},
			{
				"x": 1.300442766,
				"y": 0.8030365646,
				"z": -2.5045726009,
				"element": "H" 
			},
			{
				"x": 1.9516159512,
				"y": -1.3884507557,
				"z": -3.4877488724,
				"element": "H" 
			},
			{
				"x": 1.608562832,
				"y": -3.494186534,
				"z": -2.2471730847,
				"element": "H" 
			},
			{
				"x": 0.5893136631,
				"y": -3.4867135482,
				"z": 0.0326758625,
				"element": "H" 
			}
		],
		 "valence_orbital": [ 
			{
				"type": "occ",
				"energy": -0.2888,
				"method": "rhf"
			},
			{
				"type": "occ",
				"energy": -0.27511,
				"method": "rhf"
			},
			{
				"type": "occ",
				"energy": -0.26273,
				"method": "rhf"
			},
			{
				"type": "occ",
				"energy": -0.21669,
				"method": "rhf"
			},
			{
				"type": "occ",
				"energy": -0.21252,
				"method": "rhf"
			},
			{
				"type": "unocc",
				"energy": -0.00718,
				"method": "rhf"
			},
			{
				"type": "unocc",
				"energy": 0.00957,
				"method": "rhf"
			},
			{
				"type": "unocc",
				"energy": 0.03232,
				"method": "rhf"
			},
			{
				"type": "unocc",
				"energy": 0.05728,
				"method": "rhf"
			},
			{
				"type": "unocc",
				"energy": 0.06266,
				"method": "rhf"
			}
		],
		"cosmo_sigma_profile": { 
			"-0.025": 0.0,
			"-0.024": 0.0,
			"-0.023": 0.0,
			"-0.022": 0.0,
			"-0.021": 0.0,
			"-0.02": 0.0,
			"-0.019": 0.0,
			"-0.018": 0.0,
			"-0.017": 0.0,
			"-0.016": 0.0343285135448,
			"-0.015": 1.19445444273,
			"-0.014": 3.09427689334,
			"-0.013": 2.3038624183,
			"-0.012": 3.87728583517,
			"-0.011": 3.32610672212,
			"-0.01": 2.78347457527,
			"-0.009": 3.02554698881,
			"-0.008": 5.2236858701,
			"-0.007": 6.95280895516,
			"-0.006": 7.9103687757,
			"-0.005": 13.4745939415,
			"-0.004": 12.4722527588,
			"-0.003": 13.7400448841,
			"-0.002": 10.9209815582,
			"-0.001": 10.2264769313,
			"0.0": 9.51612451314,
			"0.001": 11.1807760712,
			"0.002": 11.9069856285,
			"0.003": 13.0354982095,
			"0.004": 11.4245354925,
			"0.005": 12.5788669232,
			"0.006": 10.6749659245,
			"0.007": 6.01382714291,
			"0.008": 2.21339461369,
			"0.009": 3.13956160387,
			"0.01": 2.01397921921,
			"0.011": 3.23767026163,
			"0.012": 3.40090544377,
			"0.013": 3.36647341565,
			"0.014": 1.75187938994,
			"0.015": 1.09852603344,
			"0.016": 0.85620081854,
			"0.017": 1.04630610218,
			"0.018": 0.39209529042,
			"0.019": 0.0,
			"0.02": 0.0,
			"0.021": 0.0,
			"0.022": 0.0,
			"0.023": 0.0,
			"0.024": 0.0,
			"0.025": 0.0
		}
	}
}
