{
	 "smiles": "COC1=CC=C(CCC(C)(N)C(O)=O)C=C1", 
	 "Tm": 577.15, 
	 "num_atms": 33, 
	 "gaussian": { 
		 "optdone": 1, 
		 "sigma_profile": "yes", 
		 "theory": "DFT", 
		 "functional": "B3LYP", 
		 "basiset": "6-31G**", 
		 "properties": { 
			 "R2extent": 5381.6802, 
			 "electric_dipole_moment_norm": 4.52942279435, 
			 "electric_quadrupole_moment_norm": 26.8403849797, 
			 "total_energy": -747.946184051, 
			 "HOMO_LUMO_gap": 0.20887, 
			 "cosmo_polarized_energy": -15.94, 
			 "cosmo_cavitation_energy": 34.59, 
			 "cosmo_dispersion_energy": -24.21, 
			 "cosmo_repulsion_energy": 1.87, 
			 "cosmo_total_nonelectrostatic_energy": 12.25, 
			 "SMD_solvation_energy": 6.45 
		},
		"coords": [
			{
				"x": 3.5176168711,
				"y": 1.4617695887,
				"z": 3.6403379237,
				"element": "C" 
			},
			{
				"x": 2.1296584934,
				"y": 1.1609807918,
				"z": 3.6661500203,
				"element": "O" 
			},
			{
				"x": 1.5202500937,
				"y": 0.8160435981,
				"z": 2.4990226715,
				"element": "C" 
			},
			{
				"x": 0.1452391414,
				"y": 0.5547437357,
				"z": 2.5803920526,
				"element": "C" 
			},
			{
				"x": -0.5657740184,
				"y": 0.1966926476,
				"z": 1.4403068031,
				"element": "C" 
			},
			{
				"x": 0.058999921,
				"y": 0.0911465673,
				"z": 0.1836482584,
				"element": "C" 
			},
			{
				"x": -0.7126010127,
				"y": -0.3376691707,
				"z": -1.0516011929,
				"element": "C" 
			},
			{
				"x": -0.7940628418,
				"y": 0.6557268429,
				"z": -2.2352213374,
				"element": "C" 
			},
			{
				"x": -1.7062345629,
				"y": 1.9223541132,
				"z": -2.1462493782,
				"element": "C" 
			},
			{
				"x": -2.9527783279,
				"y": 1.7044361365,
				"z": -1.2643232863,
				"element": "C" 
			},
			{
				"x": -2.1817583794,
				"y": 2.179759314,
				"z": -3.5125720166,
				"element": "N" 
			},
			{
				"x": -0.960704365,
				"y": 3.1812476083,
				"z": -1.6114006651,
				"element": "C" 
			},
			{
				"x": -0.2972755722,
				"y": 3.0855226043,
				"z": -0.4415705838,
				"element": "O" 
			},
			{
				"x": -1.0016680423,
				"y": 4.2437529042,
				"z": -2.1907136883,
				"element": "O" 
			},
			{
				"x": 1.4370208079,
				"y": 0.3482007458,
				"z": 0.1276465268,
				"element": "C" 
			},
			{
				"x": 2.1676394658,
				"y": 0.7093824241,
				"z": 1.2602597466,
				"element": "C" 
			},
			{
				"x": 4.112895625,
				"y": 0.5977833681,
				"z": 3.3183872072,
				"element": "H" 
			},
			{
				"x": 3.7337325478,
				"y": 2.3136124145,
				"z": 2.9834136116,
				"element": "H" 
			},
			{
				"x": 3.7874997944,
				"y": 1.7208389971,
				"z": 4.664967005,
				"element": "H" 
			},
			{
				"x": -0.3426028132,
				"y": 0.6379902981,
				"z": 3.5458616412,
				"element": "H" 
			},
			{
				"x": -1.6291261672,
				"y": -0.0129631618,
				"z": 1.5260627328,
				"element": "H" 
			},
			{
				"x": -0.2445358011,
				"y": -1.2475227194,
				"z": -1.4493096638,
				"element": "H" 
			},
			{
				"x": -1.7242589334,
				"y": -0.6336646867,
				"z": -0.7569501375,
				"element": "H" 
			},
			{
				"x": -1.1978128285,
				"y": 0.0919490793,
				"z": -3.0828459402,
				"element": "H" 
			},
			{
				"x": 0.2190391847,
				"y": 0.9626322258,
				"z": -2.5276322565,
				"element": "H" 
			},
			{
				"x": -3.6098342099,
				"y": 2.5771724164,
				"z": -1.3334016877,
				"element": "H" 
			},
			{
				"x": -2.7001090632,
				"y": 1.5607391603,
				"z": -0.210285761,
				"element": "H" 
			},
			{
				"x": -3.5102600818,
				"y": 0.8350215162,
				"z": -1.6229027834,
				"element": "H" 
			},
			{
				"x": -2.5603831393,
				"y": 3.1263651118,
				"z": -3.5306324488,
				"element": "H" 
			},
			{
				"x": -1.3728617729,
				"y": 2.2314900519,
				"z": -4.1316023931,
				"element": "H" 
			},
			{
				"x": -0.2946837378,
				"y": 2.1753626567,
				"z": -0.0961884792,
				"element": "H" 
			},
			{
				"x": 1.9584958591,
				"y": 0.2660033999,
				"z": -0.8229154538,
				"element": "H" 
			},
			{
				"x": 3.2294378658,
				"y": 0.9031994199,
				"z": 1.1671629529,
				"element": "H" 
			}
		],
		 "valence_orbital": [ 
			{
				"type": "occ",
				"energy": -0.30128,
				"method": "rhf"
			},
			{
				"type": "occ",
				"energy": -0.26589,
				"method": "rhf"
			},
			{
				"type": "occ",
				"energy": -0.25765,
				"method": "rhf"
			},
			{
				"type": "occ",
				"energy": -0.24119,
				"method": "rhf"
			},
			{
				"type": "occ",
				"energy": -0.2286,
				"method": "rhf"
			},
			{
				"type": "unocc",
				"energy": -0.01973,
				"method": "rhf"
			},
			{
				"type": "unocc",
				"energy": -0.00664,
				"method": "rhf"
			},
			{
				"type": "unocc",
				"energy": 0.02168,
				"method": "rhf"
			},
			{
				"type": "unocc",
				"energy": 0.07286,
				"method": "rhf"
			},
			{
				"type": "unocc",
				"energy": 0.08921,
				"method": "rhf"
			}
		],
		"cosmo_sigma_profile": { 
			"-0.025": 0.0,
			"-0.024": 0.0,
			"-0.023": 0.0,
			"-0.022": 0.0,
			"-0.021": 0.0,
			"-0.02": 0.0,
			"-0.019": 0.0,
			"-0.018": 0.0,
			"-0.017": 0.0,
			"-0.016": 0.0,
			"-0.015": 0.0,
			"-0.014": 0.00539694806023,
			"-0.013": 0.0112348329398,
			"-0.012": 0.135991161823,
			"-0.011": 0.152315656164,
			"-0.01": 0.553123776217,
			"-0.009": 1.30369503754,
			"-0.008": 2.31347430519,
			"-0.007": 4.19933081901,
			"-0.006": 15.9814108949,
			"-0.005": 28.47694156,
			"-0.004": 31.2143343703,
			"-0.003": 30.7381253156,
			"-0.002": 22.4588479287,
			"-0.001": 19.6420671158,
			"0.0": 15.1267416441,
			"0.001": 11.7483520222,
			"0.002": 11.547942854,
			"0.003": 13.4770716515,
			"0.004": 10.5487638801,
			"0.005": 8.5762596641,
			"0.006": 4.93045504437,
			"0.007": 5.15460024285,
			"0.008": 3.97968560472,
			"0.009": 5.2878818648,
			"0.01": 5.29825976992,
			"0.011": 5.90788673217,
			"0.012": 5.83083475031,
			"0.013": 3.07127226419,
			"0.014": 1.14882408452,
			"0.015": 0.461837413131,
			"0.016": 0.586292878239,
			"0.017": 0.357960442292,
			"0.018": 0.783217765833,
			"0.019": 0.162490120331,
			"0.02": 0.0,
			"0.021": 0.0,
			"0.022": 0.0,
			"0.023": 0.0,
			"0.024": 0.0,
			"0.025": 0.0
		}
	}
}
