{
	 "smiles": "ClC1=CC=C(C=C1)C(=O)CSC#N", 
	 "Tm": 409.15, 
	 "num_atms": 19, 
	 "gaussian": { 
		 "optdone": 1, 
		 "sigma_profile": "yes", 
		 "theory": "DFT", 
		 "functional": "B3LYP", 
		 "basiset": "6-31G**", 
		 "properties": { 
			 "R2extent": 5006.5141, 
			 "electric_dipole_moment_norm": 4.5105274747, 
			 "electric_quadrupole_moment_norm": 21.3985621036, 
			 "total_energy": -1334.89659287, 
			 "HOMO_LUMO_gap": 0.17537, 
			 "cosmo_polarized_energy": -14.16, 
			 "cosmo_cavitation_energy": 28.82, 
			 "cosmo_dispersion_energy": -21.05, 
			 "cosmo_repulsion_energy": 1.62, 
			 "cosmo_total_nonelectrostatic_energy": 9.39, 
			 "SMD_solvation_energy": 6.8 
		},
		"coords": [
			{
				"x": 0.818064378,
				"y": 0.2883195576,
				"z": 4.9211433129,
				"element": "Cl" 
			},
			{
				"x": 0.3000865399,
				"y": -0.0815546327,
				"z": 3.2912020514,
				"element": "C" 
			},
			{
				"x": 0.9136421291,
				"y": 0.5637617593,
				"z": 2.2160302283,
				"element": "C" 
			},
			{
				"x": 0.4975352024,
				"y": 0.2656176024,
				"z": 0.921058704,
				"element": "C" 
			},
			{
				"x": -0.5241186246,
				"y": -0.6699873157,
				"z": 0.6951426529,
				"element": "C" 
			},
			{
				"x": -1.1252710692,
				"y": -1.3053833448,
				"z": 1.7943314203,
				"element": "C" 
			},
			{
				"x": -0.7194325444,
				"y": -1.0169282785,
				"z": 3.0912482364,
				"element": "C" 
			},
			{
				"x": -1.0093555894,
				"y": -1.0279281288,
				"z": -0.6669921468,
				"element": "C" 
			},
			{
				"x": -1.9002560665,
				"y": -1.8452530718,
				"z": -0.8415484483,
				"element": "O" 
			},
			{
				"x": -0.3673222385,
				"y": -0.3474450259,
				"z": -1.8713574201,
				"element": "C" 
			},
			{
				"x": -1.1933983359,
				"y": -1.0122062126,
				"z": -3.3825036653,
				"element": "S" 
			},
			{
				"x": -0.304078715,
				"y": -0.1060969809,
				"z": -4.5217810583,
				"element": "C" 
			},
			{
				"x": 0.2807556756,
				"y": 0.4940313951,
				"z": -5.3331886308,
				"element": "N" 
			},
			{
				"x": 1.7023623791,
				"y": 1.2858035829,
				"z": 2.3937316614,
				"element": "H" 
			},
			{
				"x": 0.9804602471,
				"y": 0.7724017084,
				"z": 0.0917028937,
				"element": "H" 
			},
			{
				"x": -1.9136427453,
				"y": -2.0264431376,
				"z": 1.6072675102,
				"element": "H" 
			},
			{
				"x": -1.1815909292,
				"y": -1.5057737421,
				"z": 3.9414561886,
				"element": "H" 
			},
			{
				"x": 0.7047755142,
				"y": -0.5597420462,
				"z": -1.9157698848,
				"element": "H" 
			},
			{
				"x": -0.5021152071,
				"y": 0.737106312,
				"z": -1.8264736057,
				"element": "H" 
			}
		],
		 "valence_orbital": [ 
			{
				"type": "occ",
				"energy": -0.33264,
				"method": "rhf"
			},
			{
				"type": "occ",
				"energy": -0.29281,
				"method": "rhf"
			},
			{
				"type": "occ",
				"energy": -0.28868,
				"method": "rhf"
			},
			{
				"type": "occ",
				"energy": -0.27691,
				"method": "rhf"
			},
			{
				"type": "occ",
				"energy": -0.2648,
				"method": "rhf"
			},
			{
				"type": "unocc",
				"energy": -0.08943,
				"method": "rhf"
			},
			{
				"type": "unocc",
				"energy": -0.04116,
				"method": "rhf"
			},
			{
				"type": "unocc",
				"energy": -0.02655,
				"method": "rhf"
			},
			{
				"type": "unocc",
				"energy": 0.00422,
				"method": "rhf"
			},
			{
				"type": "unocc",
				"energy": 0.00976,
				"method": "rhf"
			}
		],
		"cosmo_sigma_profile": { 
			"-0.025": 0.0,
			"-0.024": 0.0,
			"-0.023": 0.0,
			"-0.022": 0.0,
			"-0.021": 0.0,
			"-0.02": 0.0,
			"-0.019": 0.0,
			"-0.018": 0.0,
			"-0.017": 0.0,
			"-0.016": 0.0,
			"-0.015": 0.0,
			"-0.014": 0.0,
			"-0.013": 0.0,
			"-0.012": 0.0,
			"-0.011": 0.157782292384,
			"-0.01": 7.27077088306,
			"-0.009": 8.12138103169,
			"-0.008": 8.52183807468,
			"-0.007": 10.0440333658,
			"-0.006": 10.7112052052,
			"-0.005": 8.65439871641,
			"-0.004": 9.74758506984,
			"-0.003": 9.33933695538,
			"-0.002": 11.8477966113,
			"-0.001": 15.6170194242,
			"0.0": 23.1253584747,
			"0.001": 23.4762899857,
			"0.002": 20.2261230627,
			"0.003": 15.3256561002,
			"0.004": 16.6597425726,
			"0.005": 4.20785141949,
			"0.006": 5.12710120819,
			"0.007": 5.20712830243,
			"0.008": 5.26056561447,
			"0.009": 6.23173185838,
			"0.01": 6.10678487482,
			"0.011": 3.30312417696,
			"0.012": 2.3031703499,
			"0.013": 0.652530074611,
			"0.014": 0.0,
			"0.015": 0.0,
			"0.016": 0.0,
			"0.017": 0.0,
			"0.018": 0.0,
			"0.019": 0.0,
			"0.02": 0.0,
			"0.021": 0.0,
			"0.022": 0.0,
			"0.023": 0.0,
			"0.024": 0.0,
			"0.025": 0.0
		}
	}
}
