{
	 "smiles": "CC(C)(C)C(=O)NC1=CC2=NN(N=C2C=C1)C1CCCC1", 
	 "Tm": 409.15, 
	 "num_atms": 43, 
	 "gaussian": { 
		 "optdone": 1, 
		 "sigma_profile": "yes", 
		 "theory": "DFT", 
		 "functional": "B3LYP", 
		 "basiset": "6-31G**", 
		 "properties": { 
			 "R2extent": 11033.8714, 
			 "electric_dipole_moment_norm": 2.93531679381, 
			 "electric_quadrupole_moment_norm": 18.0463180242, 
			 "total_energy": -917.203128692, 
			 "HOMO_LUMO_gap": 0.16586, 
			 "cosmo_polarized_energy": -14.5, 
			 "cosmo_cavitation_energy": 44.07, 
			 "cosmo_dispersion_energy": -31.55, 
			 "cosmo_repulsion_energy": 2.41, 
			 "cosmo_total_nonelectrostatic_energy": 14.93, 
			 "SMD_solvation_energy": 5.14 
		},
		"coords": [
			{
				"x": 4.6888940104,
				"y": -1.8291175444,
				"z": -1.6088736963,
				"element": "C" 
			},
			{
				"x": 4.2939340966,
				"y": -2.3083730005,
				"z": -0.1932253885,
				"element": "C" 
			},
			{
				"x": 5.5600179793,
				"y": -2.4540874816,
				"z": 0.6664540613,
				"element": "C" 
			},
			{
				"x": 3.5726628783,
				"y": -3.6731493959,
				"z": -0.2775818358,
				"element": "C" 
			},
			{
				"x": 3.3705060855,
				"y": -1.2611891681,
				"z": 0.4845457375,
				"element": "C" 
			},
			{
				"x": 3.6798045261,
				"y": -0.6999645719,
				"z": 1.5275024492,
				"element": "O" 
			},
			{
				"x": 2.1877528604,
				"y": -1.0252641175,
				"z": -0.1853513961,
				"element": "N" 
			},
			{
				"x": 1.1207315964,
				"y": -0.1540377251,
				"z": 0.1280499422,
				"element": "C" 
			},
			{
				"x": 0.0447382462,
				"y": -0.1286368324,
				"z": -0.7467273666,
				"element": "C" 
			},
			{
				"x": -1.0250360941,
				"y": 0.7364347599,
				"z": -0.4421311008,
				"element": "C" 
			},
			{
				"x": -2.184995042,
				"y": 0.9650622142,
				"z": -1.1025886007,
				"element": "N" 
			},
			{
				"x": -2.782267109,
				"y": 1.8789676871,
				"z": -0.3387060395,
				"element": "N" 
			},
			{
				"x": -2.1482095698,
				"y": 2.2771673908,
				"z": 0.7565559212,
				"element": "N" 
			},
			{
				"x": -1.0024099234,
				"y": 1.5564984462,
				"z": 0.7213632402,
				"element": "C" 
			},
			{
				"x": 0.101272177,
				"y": 1.5191649253,
				"z": 1.6015769915,
				"element": "C" 
			},
			{
				"x": 1.1443662832,
				"y": 0.6722230561,
				"z": 1.3017803674,
				"element": "C" 
			},
			{
				"x": -4.1121819042,
				"y": 2.3950590997,
				"z": -0.6853638149,
				"element": "C" 
			},
			{
				"x": -4.111254869,
				"y": 3.9450150623,
				"z": -0.8331392246,
				"element": "C" 
			},
			{
				"x": -5.338885513,
				"y": 4.4330290965,
				"z": -0.0394280879,
				"element": "C" 
			},
			{
				"x": -5.4507138196,
				"y": 3.4164582723,
				"z": 1.1079180611,
				"element": "C" 
			},
			{
				"x": -5.1697623807,
				"y": 2.0747775107,
				"z": 0.4108495738,
				"element": "C" 
			},
			{
				"x": 5.1731375394,
				"y": -0.8481335407,
				"z": -1.5728693748,
				"element": "H" 
			},
			{
				"x": 5.3943029436,
				"y": -2.5368033613,
				"z": -2.0573174981,
				"element": "H" 
			},
			{
				"x": 3.8313274548,
				"y": -1.7540399446,
				"z": -2.2866516489,
				"element": "H" 
			},
			{
				"x": 6.0887583664,
				"y": -1.501934006,
				"z": 0.7531736816,
				"element": "H" 
			},
			{
				"x": 5.3129559696,
				"y": -2.7828893855,
				"z": 1.6786124381,
				"element": "H" 
			},
			{
				"x": 6.2333102005,
				"y": -3.1891746191,
				"z": 0.2132484189,
				"element": "H" 
			},
			{
				"x": 3.257329707,
				"y": -4.0148075996,
				"z": 0.7133481528,
				"element": "H" 
			},
			{
				"x": 4.250066443,
				"y": -4.4263376382,
				"z": -0.6939318028,
				"element": "H" 
			},
			{
				"x": 2.685427498,
				"y": -3.6454863851,
				"z": -0.9197934609,
				"element": "H" 
			},
			{
				"x": 2.0514097792,
				"y": -1.5523914317,
				"z": -1.0351068168,
				"element": "H" 
			},
			{
				"x": 0.0175803753,
				"y": -0.7499105944,
				"z": -1.6373692718,
				"element": "H" 
			},
			{
				"x": 0.127043369,
				"y": 2.140605929,
				"z": 2.4903947954,
				"element": "H" 
			},
			{
				"x": 2.0099608108,
				"y": 0.6084953391,
				"z": 1.9449961281,
				"element": "H" 
			},
			{
				"x": -4.3444371936,
				"y": 1.8911470698,
				"z": -1.6234429229,
				"element": "H" 
			},
			{
				"x": -4.1200455549,
				"y": 4.2534627573,
				"z": -1.8822468863,
				"element": "H" 
			},
			{
				"x": -3.1966666538,
				"y": 4.3349782388,
				"z": -0.3783984995,
				"element": "H" 
			},
			{
				"x": -5.2278770017,
				"y": 5.4659888452,
				"z": 0.3040661439,
				"element": "H" 
			},
			{
				"x": -6.2404467533,
				"y": 4.3918419564,
				"z": -0.6642207182,
				"element": "H" 
			},
			{
				"x": -4.6756988259,
				"y": 3.6134053244,
				"z": 1.8569331376,
				"element": "H" 
			},
			{
				"x": -6.4213246522,
				"y": 3.4362912228,
				"z": 1.6130892172,
				"element": "H" 
			},
			{
				"x": -4.8255854105,
				"y": 1.2893139916,
				"z": 1.0875617082,
				"element": "H" 
			},
			{
				"x": -6.0789929251,
				"y": 1.7114401479,
				"z": -0.0817547147,
				"element": "H" 
			}
		],
		 "valence_orbital": [ 
			{
				"type": "occ",
				"energy": -0.29025,
				"method": "rhf"
			},
			{
				"type": "occ",
				"energy": -0.28889,
				"method": "rhf"
			},
			{
				"type": "occ",
				"energy": -0.2482,
				"method": "rhf"
			},
			{
				"type": "occ",
				"energy": -0.23381,
				"method": "rhf"
			},
			{
				"type": "occ",
				"energy": -0.20938,
				"method": "rhf"
			},
			{
				"type": "unocc",
				"energy": -0.04352,
				"method": "rhf"
			},
			{
				"type": "unocc",
				"energy": 0.00498,
				"method": "rhf"
			},
			{
				"type": "unocc",
				"energy": 0.0363,
				"method": "rhf"
			},
			{
				"type": "unocc",
				"energy": 0.05328,
				"method": "rhf"
			},
			{
				"type": "unocc",
				"energy": 0.05766,
				"method": "rhf"
			}
		],
		"cosmo_sigma_profile": { 
			"-0.025": 0.0,
			"-0.024": 0.0,
			"-0.023": 0.0,
			"-0.022": 0.0,
			"-0.021": 0.0,
			"-0.02": 0.0,
			"-0.019": 0.0,
			"-0.018": 0.0,
			"-0.017": 0.0,
			"-0.016": 0.0,
			"-0.015": 0.0484998808051,
			"-0.014": 1.03612359369,
			"-0.013": 1.55367241307,
			"-0.012": 1.25291927388,
			"-0.011": 2.01056691535,
			"-0.01": 1.25152210402,
			"-0.009": 1.69731575986,
			"-0.008": 1.85588628306,
			"-0.007": 3.11507399689,
			"-0.006": 6.72698542515,
			"-0.005": 8.11284946379,
			"-0.004": 21.5917239571,
			"-0.003": 39.0384318869,
			"-0.002": 41.1483757207,
			"-0.001": 41.9451307331,
			"0.0": 43.7849214216,
			"0.001": 35.0652608526,
			"0.002": 18.7879119901,
			"0.003": 22.7812494676,
			"0.004": 13.1488103335,
			"0.005": 6.2356215783,
			"0.006": 5.26533158041,
			"0.007": 4.04035998666,
			"0.008": 4.47364592469,
			"0.009": 3.83718121465,
			"0.01": 3.40255595519,
			"0.011": 3.65496895279,
			"0.012": 4.33294564267,
			"0.013": 3.03295847136,
			"0.014": 1.61880947957,
			"0.015": 0.0222745899257,
			"0.016": 0.0,
			"0.017": 0.0,
			"0.018": 0.0,
			"0.019": 0.0,
			"0.02": 0.0,
			"0.021": 0.0,
			"0.022": 0.0,
			"0.023": 0.0,
			"0.024": 0.0,
			"0.025": 0.0
		}
	}
}
