{
	 "smiles": "CC1(NC(=O)NC1=O)C1=CC=CO1", 
	 "Tm": 453.15, 
	 "num_atms": 21, 
	 "gaussian": { 
		 "optdone": 1, 
		 "sigma_profile": "yes", 
		 "theory": "DFT", 
		 "functional": "B3LYP", 
		 "basiset": "6-31G**", 
		 "properties": { 
			 "R2extent": 3095.9925, 
			 "electric_dipole_moment_norm": 2.54657079815, 
			 "electric_quadrupole_moment_norm": 12.1557582314, 
			 "total_energy": -644.859313152, 
			 "HOMO_LUMO_gap": 0.21747, 
			 "cosmo_polarized_energy": -14.58, 
			 "cosmo_cavitation_energy": 25.77, 
			 "cosmo_dispersion_energy": -18.43, 
			 "cosmo_repulsion_energy": 1.47, 
			 "cosmo_total_nonelectrostatic_energy": 8.81, 
			 "SMD_solvation_energy": 6.5 
		},
		"coords": [
			{
				"x": 1.5385756306,
				"y": -1.1323802905,
				"z": -0.2503774986,
				"element": "C" 
			},
			{
				"x": 1.4947133385,
				"y": 0.4008070512,
				"z": -0.1105966782,
				"element": "C" 
			},
			{
				"x": 1.4933678621,
				"y": 0.8248220982,
				"z": 1.2939387667,
				"element": "N" 
			},
			{
				"x": 2.5073987509,
				"y": 1.7023680449,
				"z": 1.5952669941,
				"element": "C" 
			},
			{
				"x": 2.6997900181,
				"y": 2.317751716,
				"z": 2.6213126742,
				"element": "O" 
			},
			{
				"x": 3.3271733846,
				"y": 1.7373788062,
				"z": 0.4440428203,
				"element": "N" 
			},
			{
				"x": 2.8190272301,
				"y": 1.0255166027,
				"z": -0.6159428008,
				"element": "C" 
			},
			{
				"x": 3.3030074198,
				"y": 0.8963820135,
				"z": -1.7209198531,
				"element": "O" 
			},
			{
				"x": 0.3379262142,
				"y": 0.9957778467,
				"z": -0.8711168802,
				"element": "C" 
			},
			{
				"x": 0.200458758,
				"y": 1.6077509253,
				"z": -2.0802888644,
				"element": "C" 
			},
			{
				"x": -1.1986251946,
				"y": 1.8936532613,
				"z": -2.2292379192,
				"element": "C" 
			},
			{
				"x": -1.8053383929,
				"y": 1.4336880048,
				"z": -1.1032198442,
				"element": "C" 
			},
			{
				"x": -0.8830700268,
				"y": 0.8763793544,
				"z": -0.2608478382,
				"element": "O" 
			},
			{
				"x": 1.6929792858,
				"y": -1.3971272901,
				"z": -1.2989708571,
				"element": "H" 
			},
			{
				"x": 0.594376126,
				"y": -1.5657661748,
				"z": 0.0902143056,
				"element": "H" 
			},
			{
				"x": 2.3539126543,
				"y": -1.5452254853,
				"z": 0.3500197746,
				"element": "H" 
			},
			{
				"x": 0.6448231845,
				"y": 0.8490597472,
				"z": 1.8401344203,
				"element": "H" 
			},
			{
				"x": 4.1832857233,
				"y": 2.2721929281,
				"z": 0.4097352007,
				"element": "H" 
			},
			{
				"x": 0.998400947,
				"y": 1.8158549399,
				"z": -2.7769240975,
				"element": "H" 
			},
			{
				"x": -1.6794251444,
				"y": 2.3806275993,
				"z": -3.0652866302,
				"element": "H" 
			},
			{
				"x": -2.825557769,
				"y": 1.424788301,
				"z": -0.7528351949,
				"element": "H" 
			}
		],
		 "valence_orbital": [ 
			{
				"type": "occ",
				"energy": -0.29307,
				"method": "rhf"
			},
			{
				"type": "occ",
				"energy": -0.28847,
				"method": "rhf"
			},
			{
				"type": "occ",
				"energy": -0.27802,
				"method": "rhf"
			},
			{
				"type": "occ",
				"energy": -0.26584,
				"method": "rhf"
			},
			{
				"type": "occ",
				"energy": -0.23469,
				"method": "rhf"
			},
			{
				"type": "unocc",
				"energy": -0.01722,
				"method": "rhf"
			},
			{
				"type": "unocc",
				"energy": 0.00276,
				"method": "rhf"
			},
			{
				"type": "unocc",
				"energy": 0.05078,
				"method": "rhf"
			},
			{
				"type": "unocc",
				"energy": 0.06276,
				"method": "rhf"
			},
			{
				"type": "unocc",
				"energy": 0.07776,
				"method": "rhf"
			}
		],
		"cosmo_sigma_profile": { 
			"-0.025": 0.0,
			"-0.024": 0.0,
			"-0.023": 0.0,
			"-0.022": 0.0,
			"-0.021": 0.0,
			"-0.02": 0.0,
			"-0.019": 0.0,
			"-0.018": 0.0,
			"-0.017": 0.81181991017,
			"-0.016": 1.26275601644,
			"-0.015": 1.59852845666,
			"-0.014": 1.83105883673,
			"-0.013": 0.923552723844,
			"-0.012": 1.57613464044,
			"-0.011": 2.23557580847,
			"-0.01": 1.6997876321,
			"-0.009": 2.37079345343,
			"-0.008": 4.46960114972,
			"-0.007": 5.60395494907,
			"-0.006": 7.9361359037,
			"-0.005": 11.6479222357,
			"-0.004": 13.5599109769,
			"-0.003": 14.9076258247,
			"-0.002": 16.7411743571,
			"-0.001": 17.582902065,
			"0.0": 10.7319995893,
			"0.001": 10.1468296013,
			"0.002": 13.3837602188,
			"0.003": 10.7412054071,
			"0.004": 10.6728305788,
			"0.005": 8.91968796244,
			"0.006": 3.13868267171,
			"0.007": 2.323751821,
			"0.008": 2.28197578281,
			"0.009": 2.84070950395,
			"0.01": 4.09821126762,
			"0.011": 5.40378224309,
			"0.012": 9.47123101162,
			"0.013": 4.22265193197,
			"0.014": 0.203017465268,
			"0.015": 0.0,
			"0.016": 0.0,
			"0.017": 0.0,
			"0.018": 0.0,
			"0.019": 0.0,
			"0.02": 0.0,
			"0.021": 0.0,
			"0.022": 0.0,
			"0.023": 0.0,
			"0.024": 0.0,
			"0.025": 0.0
		}
	}
}
