{
	 "smiles": "O=N(=O)C1=CC=CC=C1C=CC1=CC=CC=C1", 
	 "Tm": 346.15, 
	 "num_atms": 28, 
	 "gaussian": { 
		 "optdone": 1, 
		 "sigma_profile": "yes", 
		 "theory": "DFT", 
		 "functional": "B3LYP", 
		 "basiset": "6-31G**", 
		 "properties": { 
			 "R2extent": 6805.5512, 
			 "electric_dipole_moment_norm": 4.27797098284, 
			 "electric_quadrupole_moment_norm": 25.1063372358, 
			 "total_energy": -745.206892977, 
			 "HOMO_LUMO_gap": 0.13145, 
			 "cosmo_polarized_energy": -10.58, 
			 "cosmo_cavitation_energy": 33.13, 
			 "cosmo_dispersion_energy": -23.95, 
			 "cosmo_repulsion_energy": 1.82, 
			 "cosmo_total_nonelectrostatic_energy": 11.0, 
			 "SMD_solvation_energy": 7.6 
		},
		"coords": [
			{
				"x": 1.4019443919,
				"y": -1.8218183856,
				"z": 3.7888234067,
				"element": "O" 
			},
			{
				"x": 0.2272549388,
				"y": -1.9439126084,
				"z": 4.1412678333,
				"element": "N" 
			},
			{
				"x": -0.1241650138,
				"y": -2.129854213,
				"z": 5.3072124218,
				"element": "O" 
			},
			{
				"x": -0.82808803,
				"y": -1.8873238859,
				"z": 3.1141534857,
				"element": "C" 
			},
			{
				"x": -2.054104122,
				"y": -2.4499895893,
				"z": 3.4796617389,
				"element": "C" 
			},
			{
				"x": -3.0999211417,
				"y": -2.4912414588,
				"z": 2.5673897193,
				"element": "C" 
			},
			{
				"x": -2.915498282,
				"y": -1.943249485,
				"z": 1.2945138188,
				"element": "C" 
			},
			{
				"x": -1.7009020993,
				"y": -1.3631309576,
				"z": 0.9500871097,
				"element": "C" 
			},
			{
				"x": -0.6013350335,
				"y": -1.325803367,
				"z": 1.8344018219,
				"element": "C" 
			},
			{
				"x": 0.6465629357,
				"y": -0.6728314678,
				"z": 1.4183851603,
				"element": "C" 
			},
			{
				"x": 1.0750001832,
				"y": -0.6183548623,
				"z": 0.1403373249,
				"element": "C" 
			},
			{
				"x": 2.2821176188,
				"y": 0.0484074819,
				"z": -0.355842954,
				"element": "C" 
			},
			{
				"x": 3.1526838158,
				"y": 0.7903611162,
				"z": 0.4670075526,
				"element": "C" 
			},
			{
				"x": 4.2842688138,
				"y": 1.4017608318,
				"z": -0.0625649437,
				"element": "C" 
			},
			{
				"x": 4.5772580152,
				"y": 1.2920447836,
				"z": -1.425908068,
				"element": "C" 
			},
			{
				"x": 3.7254143371,
				"y": 0.5622411111,
				"z": -2.2557978551,
				"element": "C" 
			},
			{
				"x": 2.5924779445,
				"y": -0.0512944838,
				"z": -1.7249590761,
				"element": "C" 
			},
			{
				"x": -2.1561082174,
				"y": -2.8550486432,
				"z": 4.4782011199,
				"element": "H" 
			},
			{
				"x": -4.0484323091,
				"y": -2.9373285585,
				"z": 2.8478140124,
				"element": "H" 
			},
			{
				"x": -3.7285199522,
				"y": -1.9501104077,
				"z": 0.5744633956,
				"element": "H" 
			},
			{
				"x": -1.5942054349,
				"y": -0.8902602777,
				"z": -0.0199423044,
				"element": "H" 
			},
			{
				"x": 1.2501000972,
				"y": -0.2377926421,
				"z": 2.2041573291,
				"element": "H" 
			},
			{
				"x": 0.5008753548,
				"y": -1.1385375693,
				"z": -0.6250797371,
				"element": "H" 
			},
			{
				"x": 2.9443993882,
				"y": 0.889138018,
				"z": 1.5275641818,
				"element": "H" 
			},
			{
				"x": 4.9427411495,
				"y": 1.9678307873,
				"z": 0.5900674443,
				"element": "H" 
			},
			{
				"x": 5.4617895502,
				"y": 1.7716157871,
				"z": -1.8346725196,
				"element": "H" 
			},
			{
				"x": 3.9428099231,
				"y": 0.4696891573,
				"z": -3.3160188881,
				"element": "H" 
			},
			{
				"x": 1.9330811782,
				"y": -0.6203062113,
				"z": -2.3758225309,
				"element": "H" 
			}
		],
		 "valence_orbital": [ 
			{
				"type": "occ",
				"energy": -0.29008,
				"method": "rhf"
			},
			{
				"type": "occ",
				"energy": -0.27545,
				"method": "rhf"
			},
			{
				"type": "occ",
				"energy": -0.27367,
				"method": "rhf"
			},
			{
				"type": "occ",
				"energy": -0.25561,
				"method": "rhf"
			},
			{
				"type": "occ",
				"energy": -0.21927,
				"method": "rhf"
			},
			{
				"type": "unocc",
				"energy": -0.08782,
				"method": "rhf"
			},
			{
				"type": "unocc",
				"energy": -0.05521,
				"method": "rhf"
			},
			{
				"type": "unocc",
				"energy": -0.00925,
				"method": "rhf"
			},
			{
				"type": "unocc",
				"energy": -0.00443,
				"method": "rhf"
			},
			{
				"type": "unocc",
				"energy": 0.00384,
				"method": "rhf"
			}
		],
		"cosmo_sigma_profile": { 
			"-0.025": 0.0,
			"-0.024": 0.0,
			"-0.023": 0.0,
			"-0.022": 0.0,
			"-0.021": 0.0,
			"-0.02": 0.0,
			"-0.019": 0.0,
			"-0.018": 0.0,
			"-0.017": 0.0,
			"-0.016": 0.0,
			"-0.015": 0.0,
			"-0.014": 0.0,
			"-0.013": 0.0,
			"-0.012": 0.0,
			"-0.011": 0.0,
			"-0.01": 0.0,
			"-0.009": 0.0,
			"-0.008": 0.81579252361,
			"-0.007": 10.660935437,
			"-0.006": 21.1544841162,
			"-0.005": 22.6774691602,
			"-0.004": 19.9508749729,
			"-0.003": 18.7853986566,
			"-0.002": 13.9047601456,
			"-0.001": 15.1814304581,
			"0.0": 17.9756003705,
			"0.001": 21.4096134419,
			"0.002": 23.8549245322,
			"0.003": 20.0894745254,
			"0.004": 16.1318159782,
			"0.005": 13.6551115705,
			"0.006": 7.18851448812,
			"0.007": 6.12421468285,
			"0.008": 8.85362503976,
			"0.009": 4.32780566194,
			"0.01": 3.44005958399,
			"0.011": 0.51235451058,
			"0.012": 0.0,
			"0.013": 0.0,
			"0.014": 0.0,
			"0.015": 0.0,
			"0.016": 0.0,
			"0.017": 0.0,
			"0.018": 0.0,
			"0.019": 0.0,
			"0.02": 0.0,
			"0.021": 0.0,
			"0.022": 0.0,
			"0.023": 0.0,
			"0.024": 0.0,
			"0.025": 0.0
		}
	}
}
