{
	 "smiles": "CN(C)C1=NN=C(Br)C(=N1)C1=NC(=NN=C1Br)N(C)C", 
	 "Tm": 396.15, 
	 "num_atms": 32, 
	 "gaussian": { 
		 "optdone": 1, 
		 "sigma_profile": "yes", 
		 "theory": "DFT", 
		 "functional": "B3LYP", 
		 "basiset": "6-31G**", 
		 "properties": { 
			 "R2extent": 10646.9808, 
			 "electric_dipole_moment_norm": 4.68092096707, 
			 "electric_quadrupole_moment_norm": 34.7900298295, 
			 "total_energy": -5969.02347295, 
			 "HOMO_LUMO_gap": 0.14323, 
			 "cosmo_polarized_energy": -14.01, 
			 "cosmo_cavitation_energy": 41.49, 
			 "cosmo_dispersion_energy": -29.24, 
			 "cosmo_repulsion_energy": 2.31, 
			 "cosmo_total_nonelectrostatic_energy": 14.55, 
			 "SMD_solvation_energy": 0.32 
		},
		"coords": [
			{
				"x": 4.5901484242,
				"y": 0.0225651173,
				"z": 0.9526292706,
				"element": "C" 
			},
			{
				"x": 4.2229437826,
				"y": -1.2974534029,
				"z": 0.4620957323,
				"element": "N" 
			},
			{
				"x": 5.313545095,
				"y": -2.1147391438,
				"z": -0.0526045407,
				"element": "C" 
			},
			{
				"x": 2.9436525205,
				"y": -1.753074104,
				"z": 0.5032649429,
				"element": "C" 
			},
			{
				"x": 2.7066419039,
				"y": -3.0101218105,
				"z": 0.0386177536,
				"element": "N" 
			},
			{
				"x": 1.4696890678,
				"y": -3.4700252361,
				"z": 0.0870103857,
				"element": "N" 
			},
			{
				"x": 0.4990206574,
				"y": -2.7118365184,
				"z": 0.5698911853,
				"element": "C" 
			},
			{
				"x": -1.2437988545,
				"y": -3.4752296798,
				"z": 0.6346593334,
				"element": "Br" 
			},
			{
				"x": 0.7556280007,
				"y": -1.4075115064,
				"z": 1.0308025415,
				"element": "C" 
			},
			{
				"x": 1.9858467456,
				"y": -0.9292535549,
				"z": 0.9967276615,
				"element": "N" 
			},
			{
				"x": -0.3128158705,
				"y": -0.4834071862,
				"z": 1.5320871213,
				"element": "C" 
			},
			{
				"x": -1.0709204078,
				"y": 0.0972301189,
				"z": 0.6202244717,
				"element": "N" 
			},
			{
				"x": -2.0093065365,
				"y": 0.9648802474,
				"z": 1.0742868818,
				"element": "C" 
			},
			{
				"x": -2.1957088378,
				"y": 1.272551552,
				"z": 2.3868580534,
				"element": "N" 
			},
			{
				"x": -1.429666342,
				"y": 0.6762254111,
				"z": 3.2820951616,
				"element": "N" 
			},
			{
				"x": -0.5059745378,
				"y": -0.1877443909,
				"z": 2.8940067132,
				"element": "C" 
			},
			{
				"x": 0.5238287984,
				"y": -1.0241795228,
				"z": 4.2593079105,
				"element": "Br" 
			},
			{
				"x": -2.8143012252,
				"y": 1.5733776742,
				"z": 0.164571365,
				"element": "N" 
			},
			{
				"x": -2.711764974,
				"y": 1.3037660405,
				"z": -1.2618506048,
				"element": "C" 
			},
			{
				"x": -3.8463353257,
				"y": 2.5208412825,
				"z": 0.5639280722,
				"element": "C" 
			},
			{
				"x": 3.706514742,
				"y": 0.5416504107,
				"z": 1.3155453253,
				"element": "H" 
			},
			{
				"x": 5.0507390987,
				"y": 0.6088984991,
				"z": 0.1476279423,
				"element": "H" 
			},
			{
				"x": 5.317441429,
				"y": -0.0671533725,
				"z": 1.7693840667,
				"element": "H" 
			},
			{
				"x": 4.9251031849,
				"y": -3.0685079852,
				"z": -0.4006668973,
				"element": "H" 
			},
			{
				"x": 6.0573804587,
				"y": -2.2901592066,
				"z": 0.7348150634,
				"element": "H" 
			},
			{
				"x": 5.8092542299,
				"y": -1.5966933586,
				"z": -0.8828978315,
				"element": "H" 
			},
			{
				"x": -1.9202740625,
				"y": 0.5815754643,
				"z": -1.4461266385,
				"element": "H" 
			},
			{
				"x": -3.6612439471,
				"y": 0.9035796866,
				"z": -1.6391044584,
				"element": "H" 
			},
			{
				"x": -2.4912559838,
				"y": 2.2307983419,
				"z": -1.8059615723,
				"element": "H" 
			},
			{
				"x": -4.833953079,
				"y": 2.1526155018,
				"z": 0.2589612019,
				"element": "H" 
			},
			{
				"x": -3.8272873032,
				"y": 2.6513591704,
				"z": 1.6429600922,
				"element": "H" 
			},
			{
				"x": -3.6755708516,
				"y": 3.488275461,
				"z": 0.0755542942,
				"element": "H" 
			}
		],
		 "valence_orbital": [ 
			{
				"type": "occ",
				"energy": -0.28755,
				"method": "rhf"
			},
			{
				"type": "occ",
				"energy": -0.24684,
				"method": "rhf"
			},
			{
				"type": "occ",
				"energy": -0.23372,
				"method": "rhf"
			},
			{
				"type": "occ",
				"energy": -0.22714,
				"method": "rhf"
			},
			{
				"type": "occ",
				"energy": -0.22692,
				"method": "rhf"
			},
			{
				"type": "unocc",
				"energy": -0.08369,
				"method": "rhf"
			},
			{
				"type": "unocc",
				"energy": -0.06885,
				"method": "rhf"
			},
			{
				"type": "unocc",
				"energy": -0.03043,
				"method": "rhf"
			},
			{
				"type": "unocc",
				"energy": -0.01947,
				"method": "rhf"
			},
			{
				"type": "unocc",
				"energy": 0.0033,
				"method": "rhf"
			}
		],
		"cosmo_sigma_profile": { 
			"-0.025": 0.0,
			"-0.024": 0.0,
			"-0.023": 0.0,
			"-0.022": 0.0,
			"-0.021": 0.0,
			"-0.02": 0.0,
			"-0.019": 0.0,
			"-0.018": 0.0,
			"-0.017": 0.0,
			"-0.016": 0.0,
			"-0.015": 0.0,
			"-0.014": 0.0,
			"-0.013": 0.0,
			"-0.012": 0.0,
			"-0.011": 0.0,
			"-0.01": 0.0,
			"-0.009": 0.0,
			"-0.008": 0.0,
			"-0.007": 0.414413826555,
			"-0.006": 7.54267646063,
			"-0.005": 32.2437685806,
			"-0.004": 32.6252538281,
			"-0.003": 37.0145188589,
			"-0.002": 45.7308694908,
			"-0.001": 31.0559297828,
			"0.0": 22.9880619901,
			"0.001": 19.6625801698,
			"0.002": 20.7248921829,
			"0.003": 21.8637248554,
			"0.004": 21.0627130446,
			"0.005": 10.8870160065,
			"0.006": 6.39693319969,
			"0.007": 4.5373911557,
			"0.008": 4.05696595073,
			"0.009": 3.99189577115,
			"0.01": 5.00913024765,
			"0.011": 5.56707330605,
			"0.012": 3.45164320987,
			"0.013": 1.68996334062,
			"0.014": 0.0631887018303,
			"0.015": 0.0,
			"0.016": 0.0,
			"0.017": 0.0,
			"0.018": 0.0,
			"0.019": 0.0,
			"0.02": 0.0,
			"0.021": 0.0,
			"0.022": 0.0,
			"0.023": 0.0,
			"0.024": 0.0,
			"0.025": 0.0
		}
	}
}
