{
	 "smiles": "[O-][N+](=O)C1=CC=CC=C1CC(=O)C1=C(C=CC=C1)[N+]([O-])=O", 
	 "Tm": 439.15, 
	 "num_atms": 31, 
	 "gaussian": { 
		 "optdone": 1, 
		 "sigma_profile": "yes", 
		 "theory": "DFT", 
		 "functional": "B3LYP", 
		 "basiset": "6-31G**", 
		 "properties": { 
			 "R2extent": 4863.2016, 
			 "electric_dipole_moment_norm": 4.71826760157, 
			 "electric_quadrupole_moment_norm": 20.9229594054, 
			 "total_energy": -1024.9270868, 
			 "HOMO_LUMO_gap": 0.15014, 
			 "cosmo_polarized_energy": -15.44, 
			 "cosmo_cavitation_energy": 35.89, 
			 "cosmo_dispersion_energy": -24.34, 
			 "cosmo_repulsion_energy": 1.83, 
			 "cosmo_total_nonelectrostatic_energy": 13.39, 
			 "SMD_solvation_energy": 10.15 
		},
		"coords": [
			{
				"x": -2.2952033119,
				"y": 0.3314334442,
				"z": 1.3916651061,
				"element": "O" 
			},
			{
				"x": -2.7298078329,
				"y": 0.0460539977,
				"z": 0.2712170126,
				"element": "N" 
			},
			{
				"x": -3.7902740699,
				"y": -0.5458447174,
				"z": 0.0806432182,
				"element": "O" 
			},
			{
				"x": -1.9296316537,
				"y": 0.4242151622,
				"z": -0.9050574577,
				"element": "C" 
			},
			{
				"x": -2.2811574269,
				"y": -0.1995682382,
				"z": -2.1057003568,
				"element": "C" 
			},
			{
				"x": -1.576342533,
				"y": 0.0907776144,
				"z": -3.2669877903,
				"element": "C" 
			},
			{
				"x": -0.534699537,
				"y": 1.0190843816,
				"z": -3.2200837502,
				"element": "C" 
			},
			{
				"x": -0.2072421312,
				"y": 1.6443272564,
				"z": -2.0186771817,
				"element": "C" 
			},
			{
				"x": -0.8827137743,
				"y": 1.3658651942,
				"z": -0.8191705226,
				"element": "C" 
			},
			{
				"x": -0.4783380212,
				"y": 2.120125019,
				"z": 0.427490097,
				"element": "C" 
			},
			{
				"x": 0.3529591667,
				"y": 1.3759213694,
				"z": 1.4898602499,
				"element": "C" 
			},
			{
				"x": 0.4735199725,
				"y": 1.84967081,
				"z": 2.5983510176,
				"element": "O" 
			},
			{
				"x": 0.9374652491,
				"y": -0.0035663069,
				"z": 1.2226104073,
				"element": "C" 
			},
			{
				"x": 1.9686372955,
				"y": -0.313945471,
				"z": 0.323837381,
				"element": "C" 
			},
			{
				"x": 2.4548754228,
				"y": -1.6122898163,
				"z": 0.1609085004,
				"element": "C" 
			},
			{
				"x": 1.9099464524,
				"y": -2.6413164748,
				"z": 0.9207164616,
				"element": "C" 
			},
			{
				"x": 0.8962489843,
				"y": -2.3590407947,
				"z": 1.8397873972,
				"element": "C" 
			},
			{
				"x": 0.4233366834,
				"y": -1.0562029386,
				"z": 1.9915379204,
				"element": "C" 
			},
			{
				"x": 2.6171092854,
				"y": 0.7473018418,
				"z": -0.454086539,
				"element": "N" 
			},
			{
				"x": 3.3717175583,
				"y": 0.4235207459,
				"z": -1.3676503747,
				"element": "O" 
			},
			{
				"x": 2.3694152535,
				"y": 1.9160477043,
				"z": -0.1400494164,
				"element": "O" 
			},
			{
				"x": -3.1038538322,
				"y": -0.9029685258,
				"z": -2.1011676314,
				"element": "H" 
			},
			{
				"x": -1.8408814364,
				"y": -0.3995472181,
				"z": -4.1981650575,
				"element": "H" 
			},
			{
				"x": 0.0224670275,
				"y": 1.2624345309,
				"z": -4.1196651307,
				"element": "H" 
			},
			{
				"x": 0.6015964181,
				"y": 2.3675056968,
				"z": -1.9948147529,
				"element": "H" 
			},
			{
				"x": -1.350456445,
				"y": 2.4884601195,
				"z": 0.9710435605,
				"element": "H" 
			},
			{
				"x": 0.1136879077,
				"y": 2.9904539283,
				"z": 0.1335798791,
				"element": "H" 
			},
			{
				"x": 3.2571220609,
				"y": -1.784325762,
				"z": -0.5455033736,
				"element": "H" 
			},
			{
				"x": 2.2831626897,
				"y": -3.653717653,
				"z": 0.8052672996,
				"element": "H" 
			},
			{
				"x": 0.4736062871,
				"y": -3.1549779297,
				"z": 2.4453678025,
				"element": "H" 
			},
			{
				"x": -0.3666717093,
				"y": -0.83858697,
				"z": 2.7006960248,
				"element": "H" 
			}
		],
		 "valence_orbital": [ 
			{
				"type": "occ",
				"energy": -0.28987,
				"method": "rhf"
			},
			{
				"type": "occ",
				"energy": -0.28839,
				"method": "rhf"
			},
			{
				"type": "occ",
				"energy": -0.28503,
				"method": "rhf"
			},
			{
				"type": "occ",
				"energy": -0.28067,
				"method": "rhf"
			},
			{
				"type": "occ",
				"energy": -0.25315,
				"method": "rhf"
			},
			{
				"type": "unocc",
				"energy": -0.10301,
				"method": "rhf"
			},
			{
				"type": "unocc",
				"energy": -0.09741,
				"method": "rhf"
			},
			{
				"type": "unocc",
				"energy": -0.04607,
				"method": "rhf"
			},
			{
				"type": "unocc",
				"energy": -0.0324,
				"method": "rhf"
			},
			{
				"type": "unocc",
				"energy": -0.02202,
				"method": "rhf"
			}
		],
		"cosmo_sigma_profile": { 
			"-0.025": 0.0,
			"-0.024": 0.0,
			"-0.023": 0.0,
			"-0.022": 0.0,
			"-0.021": 0.0,
			"-0.02": 0.0,
			"-0.019": 0.0,
			"-0.018": 0.0,
			"-0.017": 0.0,
			"-0.016": 0.0,
			"-0.015": 0.0,
			"-0.014": 0.0,
			"-0.013": 0.0,
			"-0.012": 0.0,
			"-0.011": 0.0,
			"-0.01": 0.0,
			"-0.009": 0.0589658383867,
			"-0.008": 6.35439509252,
			"-0.007": 19.3715153116,
			"-0.006": 21.2878867892,
			"-0.005": 19.4687366069,
			"-0.004": 17.0161464043,
			"-0.003": 19.6899332155,
			"-0.002": 18.0724682088,
			"-0.001": 22.21731041,
			"0.0": 24.9286587158,
			"0.001": 25.118050557,
			"0.002": 17.0225281106,
			"0.003": 7.24264389843,
			"0.004": 7.80141328947,
			"0.005": 7.95880953425,
			"0.006": 8.91356965523,
			"0.007": 14.0860897348,
			"0.008": 11.0012440466,
			"0.009": 8.68971636752,
			"0.01": 6.21955720887,
			"0.011": 4.1389382307,
			"0.012": 1.60852008569,
			"0.013": 0.0,
			"0.014": 0.0,
			"0.015": 0.0,
			"0.016": 0.0,
			"0.017": 0.0,
			"0.018": 0.0,
			"0.019": 0.0,
			"0.02": 0.0,
			"0.021": 0.0,
			"0.022": 0.0,
			"0.023": 0.0,
			"0.024": 0.0,
			"0.025": 0.0
		}
	}
}
