{
	 "smiles": "SC1=NN=C(N1C1=CC=C(OCC2=CC=CC=C2)C=C1)C1=CC=CO1", 
	 "Tm": 510.15, 
	 "num_atms": 40, 
	 "gaussian": { 
		 "optdone": 1, 
		 "sigma_profile": "yes", 
		 "theory": "DFT", 
		 "functional": "B3LYP", 
		 "basiset": "6-31G**", 
		 "properties": { 
			 "R2extent": 11637.9703, 
			 "electric_dipole_moment_norm": 7.33352627663, 
			 "electric_quadrupole_moment_norm": 37.381420464, 
			 "total_energy": -1445.88486869, 
			 "HOMO_LUMO_gap": 0.17505, 
			 "cosmo_polarized_energy": -20.83, 
			 "cosmo_cavitation_energy": 47.35, 
			 "cosmo_dispersion_energy": -32.28, 
			 "cosmo_repulsion_energy": 2.43, 
			 "cosmo_total_nonelectrostatic_energy": 17.5, 
			 "SMD_solvation_energy": 6.82 
		},
		"coords": [
			{
				"x": 0.07747912,
				"y": 4.4876580216,
				"z": 3.0573966044,
				"element": "S" 
			},
			{
				"x": -0.2481438017,
				"y": 2.902539216,
				"z": 3.7645800272,
				"element": "C" 
			},
			{
				"x": -0.3161335902,
				"y": 2.617229554,
				"z": 5.0428138417,
				"element": "N" 
			},
			{
				"x": -0.5891208383,
				"y": 1.2707572537,
				"z": 5.1445321326,
				"element": "N" 
			},
			{
				"x": -0.6792479331,
				"y": 0.7787280695,
				"z": 3.9255030507,
				"element": "C" 
			},
			{
				"x": -0.4677410106,
				"y": 1.7860353284,
				"z": 2.9905822111,
				"element": "N" 
			},
			{
				"x": -0.4824168904,
				"y": 1.7255226001,
				"z": 1.5594197109,
				"element": "C" 
			},
			{
				"x": 0.7016824783,
				"y": 1.4981719786,
				"z": 0.8576870281,
				"element": "C" 
			},
			{
				"x": 0.6967615578,
				"y": 1.4343558545,
				"z": -0.5363132496,
				"element": "C" 
			},
			{
				"x": -0.5075750895,
				"y": 1.6072276494,
				"z": -1.2323583866,
				"element": "C" 
			},
			{
				"x": -0.6357325324,
				"y": 1.5810477991,
				"z": -2.5889771315,
				"element": "O" 
			},
			{
				"x": 0.5337577646,
				"y": 1.482613698,
				"z": -3.4064964079,
				"element": "C" 
			},
			{
				"x": 1.1164973604,
				"y": 0.0854608479,
				"z": -3.4882407225,
				"element": "C" 
			},
			{
				"x": 0.2833358256,
				"y": -1.0394174991,
				"z": -3.4627416214,
				"element": "C" 
			},
			{
				"x": 0.8236059074,
				"y": -2.3189573563,
				"z": -3.5903692205,
				"element": "C" 
			},
			{
				"x": 2.2005907036,
				"y": -2.4885060749,
				"z": -3.753384865,
				"element": "C" 
			},
			{
				"x": 3.0361950099,
				"y": -1.3711627029,
				"z": -3.7832258491,
				"element": "C" 
			},
			{
				"x": 2.4958433384,
				"y": -0.0910639331,
				"z": -3.6467263017,
				"element": "C" 
			},
			{
				"x": -1.6984927978,
				"y": 1.8344666847,
				"z": -0.5228667264,
				"element": "C" 
			},
			{
				"x": -1.6864007939,
				"y": 1.89493131,
				"z": 0.8635128286,
				"element": "C" 
			},
			{
				"x": -0.9536291467,
				"y": -0.6064414941,
				"z": 3.6019074282,
				"element": "C" 
			},
			{
				"x": -1.0417685757,
				"y": -1.3287383456,
				"z": 2.4368123154,
				"element": "C" 
			},
			{
				"x": -1.3388239047,
				"y": -2.6734685496,
				"z": 2.8194041212,
				"element": "C" 
			},
			{
				"x": -1.4094592495,
				"y": -2.6732520847,
				"z": 4.1799464008,
				"element": "C" 
			},
			{
				"x": -1.1787679342,
				"y": -1.428209846,
				"z": 4.6712651482,
				"element": "O" 
			},
			{
				"x": 0.1752769308,
				"y": 5.0686953231,
				"z": 4.2684987165,
				"element": "H" 
			},
			{
				"x": 1.6288804169,
				"y": 1.3608887417,
				"z": 1.4047117047,
				"element": "H" 
			},
			{
				"x": 1.6210167913,
				"y": 1.2297812594,
				"z": -1.0610837027,
				"element": "H" 
			},
			{
				"x": 1.2925006802,
				"y": 2.2025336255,
				"z": -3.0736980136,
				"element": "H" 
			},
			{
				"x": 0.1866141303,
				"y": 1.8057281486,
				"z": -4.3935290819,
				"element": "H" 
			},
			{
				"x": -0.7864958867,
				"y": -0.9059575202,
				"z": -3.3343714272,
				"element": "H" 
			},
			{
				"x": 0.1687078447,
				"y": -3.1852653294,
				"z": -3.5644779585,
				"element": "H" 
			},
			{
				"x": 2.6195041147,
				"y": -3.4855277533,
				"z": -3.8532254765,
				"element": "H" 
			},
			{
				"x": 4.1085372178,
				"y": -1.4945396231,
				"z": -3.9042805219,
				"element": "H" 
			},
			{
				"x": 3.1523441721,
				"y": 0.776333254,
				"z": -3.6640496872,
				"element": "H" 
			},
			{
				"x": -2.6177616882,
				"y": 1.9686760984,
				"z": -1.0826685155,
				"element": "H" 
			},
			{
				"x": -2.6036505138,
				"y": 2.0733209616,
				"z": 1.4152206722,
				"element": "H" 
			},
			{
				"x": -0.9095811876,
				"y": -0.9547860266,
				"z": 1.4340215461,
				"element": "H" 
			},
			{
				"x": -1.4789985344,
				"y": -3.5216518401,
				"z": 2.1652023991,
				"element": "H" 
			},
			{
				"x": -1.6052894652,
				"y": -3.4369572989,
				"z": 4.9163669795,
				"element": "H" 
			}
		],
		 "valence_orbital": [ 
			{
				"type": "occ",
				"energy": -0.25824,
				"method": "rhf"
			},
			{
				"type": "occ",
				"energy": -0.25753,
				"method": "rhf"
			},
			{
				"type": "occ",
				"energy": -0.25377,
				"method": "rhf"
			},
			{
				"type": "occ",
				"energy": -0.2351,
				"method": "rhf"
			},
			{
				"type": "occ",
				"energy": -0.2024,
				"method": "rhf"
			},
			{
				"type": "unocc",
				"energy": -0.02735,
				"method": "rhf"
			},
			{
				"type": "unocc",
				"energy": -0.02354,
				"method": "rhf"
			},
			{
				"type": "unocc",
				"energy": -0.01942,
				"method": "rhf"
			},
			{
				"type": "unocc",
				"energy": -0.01722,
				"method": "rhf"
			},
			{
				"type": "unocc",
				"energy": -0.01458,
				"method": "rhf"
			}
		],
		"cosmo_sigma_profile": { 
			"-0.025": 0.0,
			"-0.024": 0.0,
			"-0.023": 0.0,
			"-0.022": 0.0,
			"-0.021": 0.0,
			"-0.02": 0.0,
			"-0.019": 0.0,
			"-0.018": 0.0,
			"-0.017": 0.0,
			"-0.016": 0.0,
			"-0.015": 0.0,
			"-0.014": 0.0,
			"-0.013": 0.113038483333,
			"-0.012": 1.37175360546,
			"-0.011": 1.36962866465,
			"-0.01": 1.83565633848,
			"-0.009": 3.69364418099,
			"-0.008": 3.72181217394,
			"-0.007": 14.6703525816,
			"-0.006": 24.726892304,
			"-0.005": 28.9601717631,
			"-0.004": 28.3190046734,
			"-0.003": 27.7969507042,
			"-0.002": 23.1702301065,
			"-0.001": 24.3050188609,
			"0.0": 23.7135575414,
			"0.001": 32.7709127051,
			"0.002": 35.9621118702,
			"0.003": 26.7251796903,
			"0.004": 21.3398197041,
			"0.005": 15.5725769029,
			"0.006": 10.1313147545,
			"0.007": 5.12708348913,
			"0.008": 4.1321141801,
			"0.009": 3.13276693378,
			"0.01": 2.43894416718,
			"0.011": 2.8495285176,
			"0.012": 3.52547004305,
			"0.013": 4.21537698886,
			"0.014": 2.91911080489,
			"0.015": 2.67910674463,
			"0.016": 1.90348368377,
			"0.017": 0.268979376125,
			"0.018": 0.0,
			"0.019": 0.0,
			"0.02": 0.0,
			"0.021": 0.0,
			"0.022": 0.0,
			"0.023": 0.0,
			"0.024": 0.0,
			"0.025": 0.0
		}
	}
}
