{
	 "smiles": "COC1=CC=C(NC(=S)NNC(=O)C2=NN(N=C2C)C2=CC=CC=C2)C=C1", 
	 "Tm": 479.15, 
	 "num_atms": 45, 
	 "gaussian": { 
		 "optdone": 1, 
		 "sigma_profile": "yes", 
		 "theory": "DFT", 
		 "functional": "B3LYP", 
		 "basiset": "6-31G**", 
		 "properties": { 
			 "R2extent": 12687.2306, 
			 "electric_dipole_moment_norm": 8.78718158797, 
			 "electric_quadrupole_moment_norm": 28.8793638135, 
			 "total_energy": -1573.86813044, 
			 "HOMO_LUMO_gap": 0.14917, 
			 "cosmo_polarized_energy": -20.56, 
			 "cosmo_cavitation_energy": 51.26, 
			 "cosmo_dispersion_energy": -33.83, 
			 "cosmo_repulsion_energy": 2.47, 
			 "cosmo_total_nonelectrostatic_energy": 19.9, 
			 "SMD_solvation_energy": 7.56 
		},
		"coords": [
			{
				"x": 1.5498524862,
				"y": -3.5045357045,
				"z": -0.6659378307,
				"element": "C" 
			},
			{
				"x": 2.2074247313,
				"y": -2.6434275073,
				"z": -1.5877948576,
				"element": "O" 
			},
			{
				"x": 1.6246292662,
				"y": -1.4493470553,
				"z": -1.8856317374,
				"element": "C" 
			},
			{
				"x": 0.4495954865,
				"y": -0.9652547804,
				"z": -1.296430754,
				"element": "C" 
			},
			{
				"x": -0.0629083334,
				"y": 0.2744474815,
				"z": -1.6832059165,
				"element": "C" 
			},
			{
				"x": 0.5972491676,
				"y": 1.0541231067,
				"z": -2.6383332998,
				"element": "C" 
			},
			{
				"x": 0.0611037336,
				"y": 2.295549343,
				"z": -3.0867253749,
				"element": "N" 
			},
			{
				"x": -0.3469165812,
				"y": 3.3658542485,
				"z": -2.3403653689,
				"element": "C" 
			},
			{
				"x": -1.1505305238,
				"y": 4.6677650249,
				"z": -3.0513482481,
				"element": "S" 
			},
			{
				"x": -0.0478972909,
				"y": 3.3079708632,
				"z": -1.0150254583,
				"element": "N" 
			},
			{
				"x": -0.2580362923,
				"y": 4.4396785697,
				"z": -0.2235422233,
				"element": "N" 
			},
			{
				"x": -0.5465173262,
				"y": 4.3971955037,
				"z": 1.1207279682,
				"element": "C" 
			},
			{
				"x": -1.0785404957,
				"y": 5.353579811,
				"z": 1.6764709075,
				"element": "O" 
			},
			{
				"x": -0.0880448617,
				"y": 3.228675962,
				"z": 1.910622167,
				"element": "C" 
			},
			{
				"x": 0.7675190114,
				"y": 2.2953276317,
				"z": 1.4741172199,
				"element": "N" 
			},
			{
				"x": 0.951887325,
				"y": 1.5062164745,
				"z": 2.5288355383,
				"element": "N" 
			},
			{
				"x": 0.2666860265,
				"y": 1.8637003037,
				"z": 3.6270328978,
				"element": "N" 
			},
			{
				"x": -0.4012832133,
				"y": 2.9583752952,
				"z": 3.268919803,
				"element": "C" 
			},
			{
				"x": -1.289253451,
				"y": 3.6954722856,
				"z": 4.2151507063,
				"element": "C" 
			},
			{
				"x": 1.8316488658,
				"y": 0.3870537831,
				"z": 2.5222896857,
				"element": "C" 
			},
			{
				"x": 1.8923461565,
				"y": -0.4356020031,
				"z": 3.65194786,
				"element": "C" 
			},
			{
				"x": 2.7577481122,
				"y": -1.5276336309,
				"z": 3.6488499804,
				"element": "C" 
			},
			{
				"x": 3.5534447343,
				"y": -1.8013616019,
				"z": 2.5337890202,
				"element": "C" 
			},
			{
				"x": 3.4811445978,
				"y": -0.9704712828,
				"z": 1.4132281135,
				"element": "C" 
			},
			{
				"x": 2.6231436957,
				"y": 0.1286214489,
				"z": 1.3996992831,
				"element": "C" 
			},
			{
				"x": 1.7792905767,
				"y": 0.5666422174,
				"z": -3.2180211865,
				"element": "C" 
			},
			{
				"x": 2.2826297614,
				"y": -0.6746760647,
				"z": -2.8544079848,
				"element": "C" 
			},
			{
				"x": 0.5429279599,
				"y": -3.7686349407,
				"z": -1.0123379898,
				"element": "H" 
			},
			{
				"x": 2.1594980211,
				"y": -4.4077288927,
				"z": -0.614621388,
				"element": "H" 
			},
			{
				"x": 1.4883148793,
				"y": -3.0533066492,
				"z": 0.3312475826,
				"element": "H" 
			},
			{
				"x": -0.0783507651,
				"y": -1.5435855692,
				"z": -0.5482964251,
				"element": "H" 
			},
			{
				"x": -0.987637546,
				"y": 0.6334784199,
				"z": -1.2437763797,
				"element": "H" 
			},
			{
				"x": -0.1133888008,
				"y": 2.4143211085,
				"z": -4.0749945049,
				"element": "H" 
			},
			{
				"x": 0.6615377978,
				"y": 2.6757910977,
				"z": -0.657039359,
				"element": "H" 
			},
			{
				"x": -0.6811610124,
				"y": 5.1970376714,
				"z": -0.7639360574,
				"element": "H" 
			},
			{
				"x": -1.3064068284,
				"y": 3.1861701615,
				"z": 5.1806472623,
				"element": "H" 
			},
			{
				"x": -2.3078894699,
				"y": 3.7619343469,
				"z": 3.8221903037,
				"element": "H" 
			},
			{
				"x": -0.9400707821,
				"y": 4.7228424804,
				"z": 4.3446308385,
				"element": "H" 
			},
			{
				"x": 1.2709680663,
				"y": -0.2091404431,
				"z": 4.5091678908,
				"element": "H" 
			},
			{
				"x": 2.8086646791,
				"y": -2.1660891842,
				"z": 4.5256613199,
				"element": "H" 
			},
			{
				"x": 4.2277345251,
				"y": -2.6523045125,
				"z": 2.5394734533,
				"element": "H" 
			},
			{
				"x": 4.0909581808,
				"y": -1.17645475,
				"z": 0.5392739386,
				"element": "H" 
			},
			{
				"x": 2.565192549,
				"y": 0.7775468428,
				"z": 0.5356240048,
				"element": "H" 
			},
			{
				"x": 2.2975070716,
				"y": 1.1689158316,
				"z": -3.958450293,
				"element": "H" 
			},
			{
				"x": 3.1903861097,
				"y": -1.0652327426,
				"z": -3.3021751074,
				"element": "H" 
			}
		],
		 "valence_orbital": [ 
			{
				"type": "occ",
				"energy": -0.25326,
				"method": "rhf"
			},
			{
				"type": "occ",
				"energy": -0.24332,
				"method": "rhf"
			},
			{
				"type": "occ",
				"energy": -0.22246,
				"method": "rhf"
			},
			{
				"type": "occ",
				"energy": -0.21761,
				"method": "rhf"
			},
			{
				"type": "occ",
				"energy": -0.21345,
				"method": "rhf"
			},
			{
				"type": "unocc",
				"energy": -0.06428,
				"method": "rhf"
			},
			{
				"type": "unocc",
				"energy": -0.02799,
				"method": "rhf"
			},
			{
				"type": "unocc",
				"energy": -0.02598,
				"method": "rhf"
			},
			{
				"type": "unocc",
				"energy": -0.02105,
				"method": "rhf"
			},
			{
				"type": "unocc",
				"energy": -0.01298,
				"method": "rhf"
			}
		],
		"cosmo_sigma_profile": { 
			"-0.025": 0.0,
			"-0.024": 0.0,
			"-0.023": 0.0,
			"-0.022": 0.0,
			"-0.021": 0.0,
			"-0.02": 0.0,
			"-0.019": 0.0,
			"-0.018": 0.0,
			"-0.017": 0.0,
			"-0.016": 0.0,
			"-0.015": 0.434870262611,
			"-0.014": 0.866901869783,
			"-0.013": 0.744965889693,
			"-0.012": 0.991684959317,
			"-0.011": 1.17636467744,
			"-0.01": 1.01890094091,
			"-0.009": 1.88781560588,
			"-0.008": 2.77011068417,
			"-0.007": 7.31566529961,
			"-0.006": 21.4942728627,
			"-0.005": 30.9852118636,
			"-0.004": 30.7464502022,
			"-0.003": 33.461193867,
			"-0.002": 34.7344843913,
			"-0.001": 39.6685098277,
			"0.0": 36.1219286582,
			"0.001": 31.2196529256,
			"0.002": 28.2872233767,
			"0.003": 25.6208451985,
			"0.004": 21.3424733746,
			"0.005": 7.72651547125,
			"0.006": 8.1127390042,
			"0.007": 7.68872401571,
			"0.008": 8.28280838566,
			"0.009": 8.83373731373,
			"0.01": 9.27507792278,
			"0.011": 5.8314374208,
			"0.012": 3.7254901461,
			"0.013": 2.2808134345,
			"0.014": 0.12120780981,
			"0.015": 0.0,
			"0.016": 0.0,
			"0.017": 0.0,
			"0.018": 0.0,
			"0.019": 0.0,
			"0.02": 0.0,
			"0.021": 0.0,
			"0.022": 0.0,
			"0.023": 0.0,
			"0.024": 0.0,
			"0.025": 0.0
		}
	}
}
