{
	 "smiles": "ClC1=CC=CC2=CC=CN=C12", 
	 "Tm": 253.15, 
	 "num_atms": 17, 
	 "gaussian": { 
		 "optdone": 1, 
		 "sigma_profile": "yes", 
		 "theory": "DFT", 
		 "functional": "B3LYP", 
		 "basiset": "6-31G**", 
		 "properties": { 
			 "R2extent": 2033.0324, 
			 "electric_dipole_moment_norm": 3.64766692695, 
			 "electric_quadrupole_moment_norm": 10.8596288624, 
			 "total_energy": -861.520272128, 
			 "HOMO_LUMO_gap": 0.1706, 
			 "cosmo_polarized_energy": -8.63, 
			 "cosmo_cavitation_energy": 22.76, 
			 "cosmo_dispersion_energy": -17.35, 
			 "cosmo_repulsion_energy": 1.37, 
			 "cosmo_total_nonelectrostatic_energy": 6.78, 
			 "SMD_solvation_energy": 2.32 
		},
		"coords": [
			{
				"x": -1.7230302417,
				"y": 1.1331224208,
				"z": -1.3820102956,
				"element": "Cl" 
			},
			{
				"x": -0.145777242,
				"y": 0.7987671683,
				"z": -0.7067559163,
				"element": "C" 
			},
			{
				"x": 0.5823331799,
				"y": 1.8270436339,
				"z": -0.1499582047,
				"element": "C" 
			},
			{
				"x": 1.8610624628,
				"y": 1.5789492059,
				"z": 0.4022074054,
				"element": "C" 
			},
			{
				"x": 2.3941146208,
				"y": 0.3111272517,
				"z": 0.3910368812,
				"element": "C" 
			},
			{
				"x": 1.6636226249,
				"y": -0.7643132933,
				"z": -0.176668321,
				"element": "C" 
			},
			{
				"x": 2.1609965809,
				"y": -2.0927838999,
				"z": -0.2172345764,
				"element": "C" 
			},
			{
				"x": 1.399432906,
				"y": -3.0866330197,
				"z": -0.7826790113,
				"element": "C" 
			},
			{
				"x": 0.1293312298,
				"y": -2.7464472777,
				"z": -1.3116429113,
				"element": "C" 
			},
			{
				"x": -0.3760315107,
				"y": -1.5300427435,
				"z": -1.2980667729,
				"element": "N" 
			},
			{
				"x": 0.3651514066,
				"y": -0.5354005932,
				"z": -0.7420996181,
				"element": "C" 
			},
			{
				"x": 0.1683401257,
				"y": 2.8292098078,
				"z": -0.1376638593,
				"element": "H" 
			},
			{
				"x": 2.4167455332,
				"y": 2.404811616,
				"z": 0.8356970766,
				"element": "H" 
			},
			{
				"x": 3.3758494368,
				"y": 0.1163158913,
				"z": 0.8140732789,
				"element": "H" 
			},
			{
				"x": 3.1415493162,
				"y": -2.3040683342,
				"z": 0.2018400058,
				"element": "H" 
			},
			{
				"x": 1.750039961,
				"y": -4.1126493671,
				"z": -0.8298236566,
				"element": "H" 
			},
			{
				"x": -0.4898303903,
				"y": -3.5202084671,
				"z": -1.7642515043,
				"element": "H" 
			}
		],
		 "valence_orbital": [ 
			{
				"type": "occ",
				"energy": -0.30395,
				"method": "rhf"
			},
			{
				"type": "occ",
				"energy": -0.29672,
				"method": "rhf"
			},
			{
				"type": "occ",
				"energy": -0.26126,
				"method": "rhf"
			},
			{
				"type": "occ",
				"energy": -0.25809,
				"method": "rhf"
			},
			{
				"type": "occ",
				"energy": -0.23239,
				"method": "rhf"
			},
			{
				"type": "unocc",
				"energy": -0.06179,
				"method": "rhf"
			},
			{
				"type": "unocc",
				"energy": -0.02557,
				"method": "rhf"
			},
			{
				"type": "unocc",
				"energy": 0.01257,
				"method": "rhf"
			},
			{
				"type": "unocc",
				"energy": 0.03948,
				"method": "rhf"
			},
			{
				"type": "unocc",
				"energy": 0.08002,
				"method": "rhf"
			}
		],
		"cosmo_sigma_profile": { 
			"-0.025": 0.0,
			"-0.024": 0.0,
			"-0.023": 0.0,
			"-0.022": 0.0,
			"-0.021": 0.0,
			"-0.02": 0.0,
			"-0.019": 0.0,
			"-0.018": 0.0,
			"-0.017": 0.0,
			"-0.016": 0.0,
			"-0.015": 0.0,
			"-0.014": 0.0,
			"-0.013": 0.0,
			"-0.012": 0.0,
			"-0.011": 0.0,
			"-0.01": 0.0,
			"-0.009": 0.0,
			"-0.008": 2.17843435319,
			"-0.007": 11.5660599143,
			"-0.006": 14.3262687273,
			"-0.005": 12.5089823907,
			"-0.004": 9.33172259708,
			"-0.003": 8.26613023534,
			"-0.002": 8.76594283396,
			"-0.001": 9.66295917224,
			"0.0": 13.0660821169,
			"0.001": 25.4075408463,
			"0.002": 23.9256815552,
			"0.003": 14.795347745,
			"0.004": 10.0803927994,
			"0.005": 7.65315234829,
			"0.006": 2.11058800695,
			"0.007": 2.30859284745,
			"0.008": 2.07502875481,
			"0.009": 1.5341184746,
			"0.01": 1.01304724664,
			"0.011": 0.976301799343,
			"0.012": 1.30313006269,
			"0.013": 1.01481292861,
			"0.014": 0.904293343326,
			"0.015": 1.04092039664,
			"0.016": 0.204030801652,
			"0.017": 0.0,
			"0.018": 0.0,
			"0.019": 0.0,
			"0.02": 0.0,
			"0.021": 0.0,
			"0.022": 0.0,
			"0.023": 0.0,
			"0.024": 0.0,
			"0.025": 0.0
		}
	}
}
