{
	 "smiles": "NN1C=NC=N1", 
	 "Tm": 338.15, 
	 "num_atms": 10, 
	 "gaussian": { 
		 "optdone": 1, 
		 "sigma_profile": "yes", 
		 "theory": "DFT", 
		 "functional": "B3LYP", 
		 "basiset": "6-31G**", 
		 "properties": { 
			 "R2extent": 467.1304, 
			 "electric_dipole_moment_norm": 2.68628597324, 
			 "electric_quadrupole_moment_norm": 3.07610824257, 
			 "total_energy": -297.573666769, 
			 "HOMO_LUMO_gap": 0.27207, 
			 "cosmo_polarized_energy": -11.37, 
			 "cosmo_cavitation_energy": 14.36, 
			 "cosmo_dispersion_energy": -10.92, 
			 "cosmo_repulsion_energy": 0.95, 
			 "cosmo_total_nonelectrostatic_energy": 4.39, 
			 "SMD_solvation_energy": 1.27 
		},
		"coords": [
			{
				"x": -1.312439242,
				"y": -1.5433954221,
				"z": -1.0547908894,
				"element": "N" 
			},
			{
				"x": -0.6617258143,
				"y": -0.5583185717,
				"z": -0.3137932751,
				"element": "N" 
			},
			{
				"x": -0.5542504511,
				"y": -0.5160365165,
				"z": 1.0324364045,
				"element": "C" 
			},
			{
				"x": 0.1271137515,
				"y": 0.5564507791,
				"z": 1.3971719744,
				"element": "N" 
			},
			{
				"x": 0.4167684643,
				"y": 1.1441888172,
				"z": 0.2002151489,
				"element": "C" 
			},
			{
				"x": -0.0376399926,
				"y": 0.5113919564,
				"z": -0.8728937395,
				"element": "N" 
			},
			{
				"x": -2.0292373225,
				"y": -1.0860733655,
				"z": -1.6153529695,
				"element": "H" 
			},
			{
				"x": -0.6338141965,
				"y": -1.9444692045,
				"z": -1.6995999479,
				"element": "H" 
			},
			{
				"x": -0.9827094524,
				"y": -1.2752656845,
				"z": 1.6703813525,
				"element": "H" 
			},
			{
				"x": 0.9781342555,
				"y": 2.0651272119,
				"z": 0.1174259412,
				"element": "H" 
			}
		],
		 "valence_orbital": [ 
			{
				"type": "occ",
				"energy": -0.3368,
				"method": "rhf"
			},
			{
				"type": "occ",
				"energy": -0.30695,
				"method": "rhf"
			},
			{
				"type": "occ",
				"energy": -0.29236,
				"method": "rhf"
			},
			{
				"type": "occ",
				"energy": -0.27509,
				"method": "rhf"
			},
			{
				"type": "occ",
				"energy": -0.2692,
				"method": "rhf"
			},
			{
				"type": "unocc",
				"energy": 0.00287,
				"method": "rhf"
			},
			{
				"type": "unocc",
				"energy": 0.05285,
				"method": "rhf"
			},
			{
				"type": "unocc",
				"energy": 0.06497,
				"method": "rhf"
			},
			{
				"type": "unocc",
				"energy": 0.12839,
				"method": "rhf"
			},
			{
				"type": "unocc",
				"energy": 0.13908,
				"method": "rhf"
			}
		],
		"cosmo_sigma_profile": { 
			"-0.025": 0.0,
			"-0.024": 0.0,
			"-0.023": 0.0,
			"-0.022": 0.0,
			"-0.021": 0.0,
			"-0.02": 0.0,
			"-0.019": 0.0,
			"-0.018": 0.0,
			"-0.017": 0.0,
			"-0.016": 0.0,
			"-0.015": 0.0,
			"-0.014": 1.07295795466,
			"-0.013": 3.89650799914,
			"-0.012": 3.34532772768,
			"-0.011": 2.56752073123,
			"-0.01": 3.4001260072,
			"-0.009": 3.4487749981,
			"-0.008": 4.97693942504,
			"-0.007": 4.88593227298,
			"-0.006": 3.82900359398,
			"-0.005": 4.17118382479,
			"-0.004": 3.73838593119,
			"-0.003": 5.22875834803,
			"-0.002": 6.42888631313,
			"-0.001": 5.81390029493,
			"0.0": 5.18619858125,
			"0.001": 6.08848420584,
			"0.002": 5.57155847524,
			"0.003": 4.46715917122,
			"0.004": 3.55365987657,
			"0.005": 4.10625044822,
			"0.006": 3.48245217901,
			"0.007": 3.79650866155,
			"0.008": 3.51222247707,
			"0.009": 1.78128194035,
			"0.01": 2.54797716856,
			"0.011": 3.05901561635,
			"0.012": 3.16926292102,
			"0.013": 2.39820576564,
			"0.014": 2.50479190775,
			"0.015": 1.40180150931,
			"0.016": 1.09291985458,
			"0.017": 0.312209103367,
			"0.018": 0.0,
			"0.019": 0.0,
			"0.02": 0.0,
			"0.021": 0.0,
			"0.022": 0.0,
			"0.023": 0.0,
			"0.024": 0.0,
			"0.025": 0.0
		}
	}
}
