{
	 "smiles": "COC1=CC(=CC=C1)C1C(CC(=O)N1C1CC1)C(O)=O", 
	 "Tm": 453.15, 
	 "num_atms": 37, 
	 "gaussian": { 
		 "optdone": 1, 
		 "sigma_profile": "yes", 
		 "theory": "DFT", 
		 "functional": "B3LYP", 
		 "basiset": "6-31G**", 
		 "properties": { 
			 "R2extent": 5755.9519, 
			 "electric_dipole_moment_norm": 4.54464037191, 
			 "electric_quadrupole_moment_norm": 22.5002365565, 
			 "total_energy": -937.463865801, 
			 "HOMO_LUMO_gap": 0.20919, 
			 "cosmo_polarized_energy": -21.36, 
			 "cosmo_cavitation_energy": 39.04, 
			 "cosmo_dispersion_energy": -25.83, 
			 "cosmo_repulsion_energy": 2.0, 
			 "cosmo_total_nonelectrostatic_energy": 15.21, 
			 "SMD_solvation_energy": 8.42 
		},
		"coords": [
			{
				"x": 2.0880305088,
				"y": -1.8820178476,
				"z": 1.6915251198,
				"element": "C" 
			},
			{
				"x": 1.823487994,
				"y": -0.6114597145,
				"z": 2.2705958202,
				"element": "O" 
			},
			{
				"x": 0.7923018602,
				"y": 0.1271914882,
				"z": 1.7809715427,
				"element": "C" 
			},
			{
				"x": -0.0432814054,
				"y": -0.2762565634,
				"z": 0.7295289198,
				"element": "C" 
			},
			{
				"x": -1.0784885929,
				"y": 0.5696971201,
				"z": 0.2859623918,
				"element": "C" 
			},
			{
				"x": -1.265920536,
				"y": 1.8085697169,
				"z": 0.8995679854,
				"element": "C" 
			},
			{
				"x": -0.4310484254,
				"y": 2.2020479693,
				"z": 1.9517338578,
				"element": "C" 
			},
			{
				"x": 0.5898357628,
				"y": 1.3735267227,
				"z": 2.3964585145,
				"element": "C" 
			},
			{
				"x": -2.0395033421,
				"y": 0.1228047781,
				"z": -0.8118275236,
				"element": "C" 
			},
			{
				"x": -3.2022953995,
				"y": -0.830150608,
				"z": -0.3428307399,
				"element": "C" 
			},
			{
				"x": -2.653538774,
				"y": -2.2367878558,
				"z": -0.641375459,
				"element": "C" 
			},
			{
				"x": -1.7432417478,
				"y": -2.0132136414,
				"z": -1.8510038619,
				"element": "C" 
			},
			{
				"x": -1.3768075233,
				"y": -2.8578817731,
				"z": -2.6472494846,
				"element": "O" 
			},
			{
				"x": -1.4017884031,
				"y": -0.6723103868,
				"z": -1.8662062912,
				"element": "N" 
			},
			{
				"x": -0.722614225,
				"y": -0.0458390733,
				"z": -2.9674353024,
				"element": "C" 
			},
			{
				"x": 0.5782483533,
				"y": 0.6976564246,
				"z": -2.7462034461,
				"element": "C" 
			},
			{
				"x": 0.5713054203,
				"y": -0.6223573199,
				"z": -3.470098353,
				"element": "C" 
			},
			{
				"x": -3.7809114963,
				"y": -0.6465305081,
				"z": 1.060414076,
				"element": "C" 
			},
			{
				"x": -2.9610748271,
				"y": -0.8720860131,
				"z": 2.1141749607,
				"element": "O" 
			},
			{
				"x": -4.9432010394,
				"y": -0.3750145545,
				"z": 1.242338343,
				"element": "O" 
			},
			{
				"x": 2.3465525101,
				"y": -1.7962532813,
				"z": 0.6287447112,
				"element": "H" 
			},
			{
				"x": 1.233253265,
				"y": -2.561531707,
				"z": 1.8008577539,
				"element": "H" 
			},
			{
				"x": 2.9404958836,
				"y": -2.2881041544,
				"z": 2.2370460118,
				"element": "H" 
			},
			{
				"x": 0.1295551639,
				"y": -1.2142547899,
				"z": 0.2156879602,
				"element": "H" 
			},
			{
				"x": -2.0637665856,
				"y": 2.46461897,
				"z": 0.563431024,
				"element": "H" 
			},
			{
				"x": -0.5804719298,
				"y": 3.1674469563,
				"z": 2.4259370581,
				"element": "H" 
			},
			{
				"x": 1.2487039408,
				"y": 1.6643639348,
				"z": 3.2075158426,
				"element": "H" 
			},
			{
				"x": -2.4820264758,
				"y": 1.0236926769,
				"z": -1.2511090306,
				"element": "H" 
			},
			{
				"x": -4.0465472564,
				"y": -0.6432346354,
				"z": -1.0101907714,
				"element": "H" 
			},
			{
				"x": -2.06705259,
				"y": -2.6493585767,
				"z": 0.1881351172,
				"element": "H" 
			},
			{
				"x": -3.4307600065,
				"y": -2.9636525477,
				"z": -0.8831208273,
				"element": "H" 
			},
			{
				"x": -1.3975964037,
				"y": 0.3717024686,
				"z": -3.7151938695,
				"element": "H" 
			},
			{
				"x": 0.9808251115,
				"y": 0.7235841192,
				"z": -1.740271764,
				"element": "H" 
			},
			{
				"x": 0.7304129713,
				"y": 1.6085922197,
				"z": -3.3168467056,
				"element": "H" 
			},
			{
				"x": 0.9527114683,
				"y": -1.4950394959,
				"z": -2.9539206942,
				"element": "H" 
			},
			{
				"x": 0.7235708678,
				"y": -0.6379333457,
				"z": -4.5442535313,
				"element": "H" 
			},
			{
				"x": -2.0313540966,
				"y": -0.901627172,
				"z": 1.8324106451,
				"element": "H" 
			}
		],
		 "valence_orbital": [ 
			{
				"type": "occ",
				"energy": -0.27454,
				"method": "rhf"
			},
			{
				"type": "occ",
				"energy": -0.27117,
				"method": "rhf"
			},
			{
				"type": "occ",
				"energy": -0.25275,
				"method": "rhf"
			},
			{
				"type": "occ",
				"energy": -0.2489,
				"method": "rhf"
			},
			{
				"type": "occ",
				"energy": -0.24015,
				"method": "rhf"
			},
			{
				"type": "unocc",
				"energy": -0.03096,
				"method": "rhf"
			},
			{
				"type": "unocc",
				"energy": -0.01621,
				"method": "rhf"
			},
			{
				"type": "unocc",
				"energy": 0.0018,
				"method": "rhf"
			},
			{
				"type": "unocc",
				"energy": 0.01978,
				"method": "rhf"
			},
			{
				"type": "unocc",
				"energy": 0.05967,
				"method": "rhf"
			}
		],
		"cosmo_sigma_profile": { 
			"-0.025": 0.0,
			"-0.024": 0.0,
			"-0.023": 0.0,
			"-0.022": 0.0,
			"-0.021": 0.0,
			"-0.02": 0.0,
			"-0.019": 0.0,
			"-0.018": 0.0,
			"-0.017": 0.0,
			"-0.016": 0.0,
			"-0.015": 0.0,
			"-0.014": 0.0199827481661,
			"-0.013": 0.177880931834,
			"-0.012": 0.317443685677,
			"-0.011": 1.16734249299,
			"-0.01": 1.40610290373,
			"-0.009": 1.42410127732,
			"-0.008": 3.18707789025,
			"-0.007": 14.1686225006,
			"-0.006": 24.7314388322,
			"-0.005": 32.069951818,
			"-0.004": 30.701889001,
			"-0.003": 28.8265991594,
			"-0.002": 18.0890275131,
			"-0.001": 15.7247675849,
			"0.0": 16.0144383474,
			"0.001": 14.1543571868,
			"0.002": 15.8472800843,
			"0.003": 14.0908371031,
			"0.004": 13.0527096496,
			"0.005": 7.9133242676,
			"0.006": 4.79422747849,
			"0.007": 5.554038755,
			"0.008": 5.33532701843,
			"0.009": 6.40713983042,
			"0.01": 7.37109937928,
			"0.011": 7.33288400229,
			"0.012": 7.80585005091,
			"0.013": 7.33416311093,
			"0.014": 3.11000915384,
			"0.015": 0.308008321418,
			"0.016": 0.0,
			"0.017": 0.0,
			"0.018": 0.0,
			"0.019": 0.0,
			"0.02": 0.0,
			"0.021": 0.0,
			"0.022": 0.0,
			"0.023": 0.0,
			"0.024": 0.0,
			"0.025": 0.0
		}
	}
}
