{
	 "smiles": "OC(=O)CCC1=CC=C(O)C=C1", 
	 "Tm": 403.15, 
	 "num_atms": 22, 
	 "gaussian": { 
		 "optdone": 1, 
		 "sigma_profile": "yes", 
		 "theory": "DFT", 
		 "functional": "B3LYP", 
		 "basiset": "6-31G**", 
		 "properties": { 
			 "R2extent": 3257.4811, 
			 "electric_dipole_moment_norm": 1.82260601886, 
			 "electric_quadrupole_moment_norm": 20.0722864906, 
			 "total_energy": -574.672555112, 
			 "HOMO_LUMO_gap": 0.21229, 
			 "cosmo_polarized_energy": -14.13, 
			 "cosmo_cavitation_energy": 26.32, 
			 "cosmo_dispersion_energy": -18.74, 
			 "cosmo_repulsion_energy": 1.52, 
			 "cosmo_total_nonelectrostatic_energy": 9.11, 
			 "SMD_solvation_energy": 5.78 
		},
		"coords": [
			{
				"x": 2.4445556104,
				"y": -1.592850861,
				"z": 0.8947286654,
				"element": "O" 
			},
			{
				"x": 1.8209762214,
				"y": -2.6246117196,
				"z": 0.2653121558,
				"element": "C" 
			},
			{
				"x": 1.7195597025,
				"y": -3.7193570557,
				"z": 0.7709555519,
				"element": "O" 
			},
			{
				"x": 1.3322007061,
				"y": -2.2401786929,
				"z": -1.1152289337,
				"element": "C" 
			},
			{
				"x": 0.5742427608,
				"y": -0.8951289915,
				"z": -1.1861103572,
				"element": "C" 
			},
			{
				"x": -0.7151355276,
				"y": -0.8763857409,
				"z": -0.3910725616,
				"element": "C" 
			},
			{
				"x": -0.7571749205,
				"y": -0.3719064073,
				"z": 0.9173763009,
				"element": "C" 
			},
			{
				"x": -1.9341139236,
				"y": -0.3738303161,
				"z": 1.661121741,
				"element": "C" 
			},
			{
				"x": -3.1082602438,
				"y": -0.8884107315,
				"z": 1.1020816932,
				"element": "C" 
			},
			{
				"x": -4.2382559577,
				"y": -0.8650884477,
				"z": 1.8712342796,
				"element": "O" 
			},
			{
				"x": -3.0894633063,
				"y": -1.3940269491,
				"z": -0.2018929355,
				"element": "C" 
			},
			{
				"x": -1.9022036633,
				"y": -1.3836737183,
				"z": -0.9331701445,
				"element": "C" 
			},
			{
				"x": 2.7307210317,
				"y": -1.9435925908,
				"z": 1.7548988568,
				"element": "H" 
			},
			{
				"x": 0.7090962408,
				"y": -3.0646175253,
				"z": -1.4690762658,
				"element": "H" 
			},
			{
				"x": 2.2161322902,
				"y": -2.1888469292,
				"z": -1.7650598347,
				"element": "H" 
			},
			{
				"x": 1.2384476438,
				"y": -0.0974046162,
				"z": -0.8406956542,
				"element": "H" 
			},
			{
				"x": 0.3591112146,
				"y": -0.6928785275,
				"z": -2.2417833097,
				"element": "H" 
			},
			{
				"x": 0.1506970992,
				"y": 0.0274141917,
				"z": 1.3609490127,
				"element": "H" 
			},
			{
				"x": -1.9635759751,
				"y": 0.0204209484,
				"z": 2.671644923,
				"element": "H" 
			},
			{
				"x": -4.9679146541,
				"y": -1.2541532254,
				"z": 1.3721184109,
				"element": "H" 
			},
			{
				"x": -4.0008056547,
				"y": -1.7897346994,
				"z": -0.6461116766,
				"element": "H" 
			},
			{
				"x": -1.9053366951,
				"y": -1.7748573948,
				"z": -1.9481199176,
				"element": "H" 
			}
		],
		 "valence_orbital": [ 
			{
				"type": "occ",
				"energy": -0.32529,
				"method": "rhf"
			},
			{
				"type": "occ",
				"energy": -0.31522,
				"method": "rhf"
			},
			{
				"type": "occ",
				"energy": -0.26989,
				"method": "rhf"
			},
			{
				"type": "occ",
				"energy": -0.25061,
				"method": "rhf"
			},
			{
				"type": "occ",
				"energy": -0.21621,
				"method": "rhf"
			},
			{
				"type": "unocc",
				"energy": -0.00392,
				"method": "rhf"
			},
			{
				"type": "unocc",
				"energy": 0.01175,
				"method": "rhf"
			},
			{
				"type": "unocc",
				"energy": 0.01293,
				"method": "rhf"
			},
			{
				"type": "unocc",
				"energy": 0.07068,
				"method": "rhf"
			},
			{
				"type": "unocc",
				"energy": 0.07418,
				"method": "rhf"
			}
		],
		"cosmo_sigma_profile": { 
			"-0.025": 0.0,
			"-0.024": 0.0,
			"-0.023": 0.0,
			"-0.022": 0.0,
			"-0.021": 0.0,
			"-0.02": 0.0,
			"-0.019": 0.0,
			"-0.018": 0.391764375277,
			"-0.017": 2.03660465885,
			"-0.016": 1.74811321128,
			"-0.015": 2.41004813587,
			"-0.014": 1.34538065027,
			"-0.013": 1.91261305989,
			"-0.012": 0.869103334547,
			"-0.011": 1.23390247711,
			"-0.01": 2.19522519129,
			"-0.009": 1.72534131439,
			"-0.008": 2.39743063376,
			"-0.007": 2.19567107982,
			"-0.006": 6.4407509652,
			"-0.005": 12.2560354945,
			"-0.004": 16.795137116,
			"-0.003": 16.7091332139,
			"-0.002": 15.2031070617,
			"-0.001": 12.7965267454,
			"0.0": 11.2883321343,
			"0.001": 8.98508990238,
			"0.002": 11.0694854718,
			"0.003": 11.1381880641,
			"0.004": 13.0029828994,
			"0.005": 13.2303373446,
			"0.006": 10.0507227511,
			"0.007": 3.27638940657,
			"0.008": 3.35611066821,
			"0.009": 4.61905174184,
			"0.01": 4.00074155514,
			"0.011": 4.83817672569,
			"0.012": 6.41022485687,
			"0.013": 1.70151702153,
			"0.014": 0.059189531459,
			"0.015": 0.0,
			"0.016": 0.0,
			"0.017": 0.0,
			"0.018": 0.0,
			"0.019": 0.0,
			"0.02": 0.0,
			"0.021": 0.0,
			"0.022": 0.0,
			"0.023": 0.0,
			"0.024": 0.0,
			"0.025": 0.0
		}
	}
}
