{
	 "smiles": "CC1=CC=CN2C=C(COC3=C(C=CC=C3)C(O)=O)N=C12", 
	 "Tm": 473.15, 
	 "num_atms": 35, 
	 "gaussian": { 
		 "optdone": 1, 
		 "sigma_profile": "yes", 
		 "theory": "DFT", 
		 "functional": "B3LYP", 
		 "basiset": "6-31G**", 
		 "properties": { 
			 "R2extent": 7642.8002, 
			 "electric_dipole_moment_norm": 4.69677266748, 
			 "electric_quadrupole_moment_norm": 17.1620210873, 
			 "total_energy": -953.322413964, 
			 "HOMO_LUMO_gap": 0.17598, 
			 "cosmo_polarized_energy": -16.79, 
			 "cosmo_cavitation_energy": 39.77, 
			 "cosmo_dispersion_energy": -27.98, 
			 "cosmo_repulsion_energy": 2.15, 
			 "cosmo_total_nonelectrostatic_energy": 13.93, 
			 "SMD_solvation_energy": 7.31 
		},
		"coords": [
			{
				"x": -0.5304332181,
				"y": -4.7172716817,
				"z": 0.2106809389,
				"element": "C" 
			},
			{
				"x": 0.2932346813,
				"y": -3.7616145759,
				"z": 1.0272953745,
				"element": "C" 
			},
			{
				"x": 0.617964098,
				"y": -3.9689123849,
				"z": 2.3499981085,
				"element": "C" 
			},
			{
				"x": 1.4015571093,
				"y": -3.0285416926,
				"z": 3.0773732034,
				"element": "C" 
			},
			{
				"x": 1.8542240141,
				"y": -1.8891720271,
				"z": 2.4768672385,
				"element": "C" 
			},
			{
				"x": 1.5403347316,
				"y": -1.6677565503,
				"z": 1.1564119367,
				"element": "N" 
			},
			{
				"x": 1.8555668014,
				"y": -0.6257908343,
				"z": 0.3099118225,
				"element": "C" 
			},
			{
				"x": 1.2618811401,
				"y": -0.9413543336,
				"z": -0.897315601,
				"element": "C" 
			},
			{
				"x": 1.3058041895,
				"y": -0.1447022994,
				"z": -2.1698687782,
				"element": "C" 
			},
			{
				"x": 1.1362279054,
				"y": 1.2615188749,
				"z": -1.9658708954,
				"element": "O" 
			},
			{
				"x": -0.0980703882,
				"y": 1.7590986739,
				"z": -1.6945153173,
				"element": "C" 
			},
			{
				"x": -0.2319447088,
				"y": 3.1662110488,
				"z": -1.571205565,
				"element": "C" 
			},
			{
				"x": -1.5058823788,
				"y": 3.7040436707,
				"z": -1.3256670344,
				"element": "C" 
			},
			{
				"x": -2.6287479592,
				"y": 2.8980728253,
				"z": -1.1915105577,
				"element": "C" 
			},
			{
				"x": -2.4816524607,
				"y": 1.514447144,
				"z": -1.3011734597,
				"element": "C" 
			},
			{
				"x": -1.2343481043,
				"y": 0.9458953501,
				"z": -1.5485307093,
				"element": "C" 
			},
			{
				"x": 0.8655941143,
				"y": 4.1676840172,
				"z": -1.6809393047,
				"element": "C" 
			},
			{
				"x": 2.1128914911,
				"y": 3.6635744957,
				"z": -1.8225759722,
				"element": "O" 
			},
			{
				"x": 0.6800284931,
				"y": 5.3723008476,
				"z": -1.6357734086,
				"element": "O" 
			},
			{
				"x": 0.5936262479,
				"y": -2.1312614145,
				"z": -0.8375014762,
				"element": "N" 
			},
			{
				"x": 0.7679267773,
				"y": -2.5723346051,
				"z": 0.4081650579,
				"element": "C" 
			},
			{
				"x": 0.0281898512,
				"y": -5.0618737373,
				"z": -0.665947293,
				"element": "H" 
			},
			{
				"x": -0.8268291899,
				"y": -5.5863328773,
				"z": 0.803199018,
				"element": "H" 
			},
			{
				"x": -1.4323515926,
				"y": -4.2263404593,
				"z": -0.1700605691,
				"element": "H" 
			},
			{
				"x": 0.2703673068,
				"y": -4.8674560693,
				"z": 2.8508583191,
				"element": "H" 
			},
			{
				"x": 1.6471520875,
				"y": -3.2082323245,
				"z": 4.117807029,
				"element": "H" 
			},
			{
				"x": 2.4532682801,
				"y": -1.1322984566,
				"z": 2.9678713361,
				"element": "H" 
			},
			{
				"x": 2.4373885949,
				"y": 0.2237165907,
				"z": 0.6305093628,
				"element": "H" 
			},
			{
				"x": 2.289686379,
				"y": -0.2183888172,
				"z": -2.6429415782,
				"element": "H" 
			},
			{
				"x": 0.5644612224,
				"y": -0.542482283,
				"z": -2.8715585014,
				"element": "H" 
			},
			{
				"x": -1.5764116315,
				"y": 4.7831086348,
				"z": -1.2452496917,
				"element": "H" 
			},
			{
				"x": -3.6016534981,
				"y": 3.3389619697,
				"z": -1.0001751127,
				"element": "H" 
			},
			{
				"x": -3.3436478948,
				"y": 0.8621704238,
				"z": -1.1908406867,
				"element": "H" 
			},
			{
				"x": -1.1459428443,
				"y": -0.1315853715,
				"z": -1.6072337634,
				"element": "H" 
			},
			{
				"x": 2.6842403531,
				"y": 4.4485982282,
				"z": -1.8749934699,
				"element": "H" 
			}
		],
		 "valence_orbital": [ 
			{
				"type": "occ",
				"energy": -0.26502,
				"method": "rhf"
			},
			{
				"type": "occ",
				"energy": -0.25289,
				"method": "rhf"
			},
			{
				"type": "occ",
				"energy": -0.24234,
				"method": "rhf"
			},
			{
				"type": "occ",
				"energy": -0.22361,
				"method": "rhf"
			},
			{
				"type": "occ",
				"energy": -0.21342,
				"method": "rhf"
			},
			{
				"type": "unocc",
				"energy": -0.03744,
				"method": "rhf"
			},
			{
				"type": "unocc",
				"energy": -0.03348,
				"method": "rhf"
			},
			{
				"type": "unocc",
				"energy": -0.00218,
				"method": "rhf"
			},
			{
				"type": "unocc",
				"energy": 0.01023,
				"method": "rhf"
			},
			{
				"type": "unocc",
				"energy": 0.04965,
				"method": "rhf"
			}
		],
		"cosmo_sigma_profile": { 
			"-0.025": 0.0,
			"-0.024": 0.0,
			"-0.023": 0.0,
			"-0.022": 0.0,
			"-0.021": 0.0,
			"-0.02": 0.0,
			"-0.019": 0.0,
			"-0.018": 0.246918557261,
			"-0.017": 0.804075900248,
			"-0.016": 1.04546841653,
			"-0.015": 0.856417990474,
			"-0.014": 0.773795706554,
			"-0.013": 0.668148221154,
			"-0.012": 0.289546756786,
			"-0.011": 0.344191818692,
			"-0.01": 2.09370201839,
			"-0.009": 4.66204458596,
			"-0.008": 4.08272031804,
			"-0.007": 8.54369470524,
			"-0.006": 16.0217487154,
			"-0.005": 20.8991655901,
			"-0.004": 23.4515615454,
			"-0.003": 19.5542050118,
			"-0.002": 20.8235982838,
			"-0.001": 20.36771727,
			"0.0": 26.7776927668,
			"0.001": 27.4045704007,
			"0.002": 26.1946563029,
			"0.003": 27.3540928051,
			"0.004": 20.1378925696,
			"0.005": 7.64936681623,
			"0.006": 5.5290441423,
			"0.007": 3.04518771228,
			"0.008": 3.92316787512,
			"0.009": 3.88634980571,
			"0.01": 4.20206400068,
			"0.011": 4.52920285804,
			"0.012": 7.3897536917,
			"0.013": 2.32955029196,
			"0.014": 0.985842774761,
			"0.015": 0.755575774561,
			"0.016": 0.393585131484,
			"0.017": 0.217386916254,
			"0.018": 0.0,
			"0.019": 0.0,
			"0.02": 0.0,
			"0.021": 0.0,
			"0.022": 0.0,
			"0.023": 0.0,
			"0.024": 0.0,
			"0.025": 0.0
		}
	}
}
