{
	 "smiles": "OC1=NC2=C(N=CN2)C(S)=N1", 
	 "Tm": 573.15, 
	 "num_atms": 15, 
	 "gaussian": { 
		 "optdone": 1, 
		 "sigma_profile": "yes", 
		 "theory": "DFT", 
		 "functional": "B3LYP", 
		 "basiset": "6-31G**", 
		 "properties": { 
			 "R2extent": 1828.5664, 
			 "electric_dipole_moment_norm": 3.0976561252, 
			 "electric_quadrupole_moment_norm": 15.4591993845, 
			 "total_energy": -885.372719642, 
			 "HOMO_LUMO_gap": 0.18498, 
			 "cosmo_polarized_energy": -16.32, 
			 "cosmo_cavitation_energy": 21.71, 
			 "cosmo_dispersion_energy": -17.36, 
			 "cosmo_repulsion_energy": 1.34, 
			 "cosmo_total_nonelectrostatic_energy": 5.69, 
			 "SMD_solvation_energy": -0.86 
		},
		"coords": [
			{
				"x": 1.9822867649,
				"y": 1.9255568138,
				"z": 1.4640825904,
				"element": "O" 
			},
			{
				"x": 1.2058856593,
				"y": 1.1008864753,
				"z": 0.7406158686,
				"element": "C" 
			},
			{
				"x": 0.884868669,
				"y": 1.5332612544,
				"z": -0.4787121815,
				"element": "N" 
			},
			{
				"x": 0.1163864067,
				"y": 0.6516771522,
				"z": -1.1159236985,
				"element": "C" 
			},
			{
				"x": -0.3343647716,
				"y": -0.5888196561,
				"z": -0.6282932895,
				"element": "C" 
			},
			{
				"x": -1.1157122152,
				"y": -1.24217818,
				"z": -1.5655993396,
				"element": "N" 
			},
			{
				"x": -1.1380343545,
				"y": -0.4252607462,
				"z": -2.5874658931,
				"element": "C" 
			},
			{
				"x": -0.4140436331,
				"y": 0.7366910498,
				"z": -2.3816441214,
				"element": "N" 
			},
			{
				"x": 0.0831831432,
				"y": -0.9096194649,
				"z": 0.6702804016,
				"element": "C" 
			},
			{
				"x": -0.3634542944,
				"y": -2.4138439314,
				"z": 1.4806873441,
				"element": "S" 
			},
			{
				"x": 0.8538229212,
				"y": -0.0540246662,
				"z": 1.3431582821,
				"element": "N" 
			},
			{
				"x": 2.1273121459,
				"y": 1.4804093455,
				"z": 2.313024387,
				"element": "H" 
			},
			{
				"x": -1.6594788305,
				"y": -0.6050653612,
				"z": -3.5181949656,
				"element": "H" 
			},
			{
				"x": -0.2895320303,
				"y": 1.5053907066,
				"z": -3.023710716,
				"element": "H" 
			},
			{
				"x": -1.0892255806,
				"y": -2.8807607917,
				"z": 0.4434953313,
				"element": "H" 
			}
		],
		 "valence_orbital": [ 
			{
				"type": "occ",
				"energy": -0.30324,
				"method": "rhf"
			},
			{
				"type": "occ",
				"energy": -0.29222,
				"method": "rhf"
			},
			{
				"type": "occ",
				"energy": -0.26588,
				"method": "rhf"
			},
			{
				"type": "occ",
				"energy": -0.26173,
				"method": "rhf"
			},
			{
				"type": "occ",
				"energy": -0.22902,
				"method": "rhf"
			},
			{
				"type": "unocc",
				"energy": -0.04404,
				"method": "rhf"
			},
			{
				"type": "unocc",
				"energy": 0.00096,
				"method": "rhf"
			},
			{
				"type": "unocc",
				"energy": 0.02178,
				"method": "rhf"
			},
			{
				"type": "unocc",
				"energy": 0.03192,
				"method": "rhf"
			},
			{
				"type": "unocc",
				"energy": 0.06603,
				"method": "rhf"
			}
		],
		"cosmo_sigma_profile": { 
			"-0.025": 0.0,
			"-0.024": 0.0,
			"-0.023": 0.0,
			"-0.022": 0.0,
			"-0.021": 0.0,
			"-0.02": 0.0,
			"-0.019": 0.0,
			"-0.018": 0.732305047418,
			"-0.017": 2.71673567138,
			"-0.016": 2.088420151,
			"-0.015": 2.74229795563,
			"-0.014": 1.83572410931,
			"-0.013": 0.770589943026,
			"-0.012": 1.71694487662,
			"-0.011": 2.95596402344,
			"-0.01": 5.45329739263,
			"-0.009": 3.69842445187,
			"-0.008": 4.45879353714,
			"-0.007": 3.58523730363,
			"-0.006": 3.8888305552,
			"-0.005": 4.11280661439,
			"-0.004": 4.59420173131,
			"-0.003": 6.03218735964,
			"-0.002": 10.9073560995,
			"-0.001": 16.6472693135,
			"0.0": 12.5029425506,
			"0.001": 9.91393730486,
			"0.002": 9.89133725974,
			"0.003": 10.2010262853,
			"0.004": 10.071542231,
			"0.005": 7.97854697001,
			"0.006": 6.83571644722,
			"0.007": 6.111481542,
			"0.008": 4.93474836227,
			"0.009": 4.34142934456,
			"0.01": 4.82405396512,
			"0.011": 4.3912762025,
			"0.012": 2.70163661471,
			"0.013": 2.05559981042,
			"0.014": 1.74098897462,
			"0.015": 0.283994905426,
			"0.016": 0.0,
			"0.017": 0.0,
			"0.018": 0.0,
			"0.019": 0.0,
			"0.02": 0.0,
			"0.021": 0.0,
			"0.022": 0.0,
			"0.023": 0.0,
			"0.024": 0.0,
			"0.025": 0.0
		}
	}
}
