{
	 "smiles": "OC1CCN(CC1)C1=C2C=CC=CC2=NN=C1", 
	 "Tm": 358.15, 
	 "num_atms": 32, 
	 "gaussian": { 
		 "optdone": 1, 
		 "sigma_profile": "yes", 
		 "theory": "DFT", 
		 "functional": "B3LYP", 
		 "basiset": "6-31G**", 
		 "properties": { 
			 "R2extent": 4795.6227, 
			 "electric_dipole_moment_norm": 6.33963551239, 
			 "electric_quadrupole_moment_norm": 7.58736370685, 
			 "total_energy": -743.860464151, 
			 "HOMO_LUMO_gap": 0.15034, 
			 "cosmo_polarized_energy": -17.03, 
			 "cosmo_cavitation_energy": 33.21, 
			 "cosmo_dispersion_energy": -24.45, 
			 "cosmo_repulsion_energy": 1.86, 
			 "cosmo_total_nonelectrostatic_energy": 10.61, 
			 "SMD_solvation_energy": 2.21 
		},
		"coords": [
			{
				"x": -2.0452542649,
				"y": -3.6781994112,
				"z": 0.2791948041,
				"element": "O" 
			},
			{
				"x": -2.3814545301,
				"y": -2.8503842341,
				"z": -0.8358837266,
				"element": "C" 
			},
			{
				"x": -2.9820311574,
				"y": -1.5107013698,
				"z": -0.3813691849,
				"element": "C" 
			},
			{
				"x": -1.9508084731,
				"y": -0.6738222131,
				"z": 0.3774896189,
				"element": "C" 
			},
			{
				"x": -0.7472959568,
				"y": -0.4586183249,
				"z": -0.4538355477,
				"element": "N" 
			},
			{
				"x": -0.1042757186,
				"y": -1.7305636321,
				"z": -0.8117093803,
				"element": "C" 
			},
			{
				"x": -1.0811132409,
				"y": -2.6067295107,
				"z": -1.6045000833,
				"element": "C" 
			},
			{
				"x": 0.0869707265,
				"y": 0.6049892271,
				"z": -0.0811984152,
				"element": "C" 
			},
			{
				"x": -0.3685853987,
				"y": 1.9584597091,
				"z": -0.1508089725,
				"element": "C" 
			},
			{
				"x": -1.6175930637,
				"y": 2.372786615,
				"z": -0.6863649542,
				"element": "C" 
			},
			{
				"x": -1.9598691945,
				"y": 3.7069143896,
				"z": -0.7037435975,
				"element": "C" 
			},
			{
				"x": -1.0751309187,
				"y": 4.6895154768,
				"z": -0.1915053342,
				"element": "C" 
			},
			{
				"x": 0.1567304292,
				"y": 4.32104851,
				"z": 0.2945736846,
				"element": "C" 
			},
			{
				"x": 0.544210114,
				"y": 2.9538689219,
				"z": 0.3079152174,
				"element": "C" 
			},
			{
				"x": 1.8092663113,
				"y": 2.6730657234,
				"z": 0.7503839569,
				"element": "N" 
			},
			{
				"x": 2.2280025609,
				"y": 1.4383135267,
				"z": 0.7277210354,
				"element": "N" 
			},
			{
				"x": 1.405638257,
				"y": 0.4352453772,
				"z": 0.3287949897,
				"element": "C" 
			},
			{
				"x": -2.8478194747,
				"y": -3.8303263527,
				"z": 0.7948522739,
				"element": "H" 
			},
			{
				"x": -3.0980651905,
				"y": -3.3707302169,
				"z": -1.4907813126,
				"element": "H" 
			},
			{
				"x": -3.3346528284,
				"y": -0.9577121787,
				"z": -1.2608021461,
				"element": "H" 
			},
			{
				"x": -3.8557338088,
				"y": -1.687590641,
				"z": 0.2601865207,
				"element": "H" 
			},
			{
				"x": -1.6709482812,
				"y": -1.1974343399,
				"z": 1.3058661013,
				"element": "H" 
			},
			{
				"x": -2.3703258559,
				"y": 0.2918460237,
				"z": 0.6608368866,
				"element": "H" 
			},
			{
				"x": 0.7739438251,
				"y": -1.5124818337,
				"z": -1.4252601952,
				"element": "H" 
			},
			{
				"x": 0.2336902456,
				"y": -2.2796635817,
				"z": 0.0814623482,
				"element": "H" 
			},
			{
				"x": -1.3180869031,
				"y": -2.1168897604,
				"z": -2.5556146469,
				"element": "H" 
			},
			{
				"x": -0.6094785738,
				"y": -3.5691769651,
				"z": -1.8278118357,
				"element": "H" 
			},
			{
				"x": -2.2803499079,
				"y": 1.6320405997,
				"z": -1.1195921458,
				"element": "H" 
			},
			{
				"x": -2.9117641123,
				"y": 4.0133516704,
				"z": -1.1280060884,
				"element": "H" 
			},
			{
				"x": -1.3676327446,
				"y": 5.7352704212,
				"z": -0.2061195687,
				"element": "H" 
			},
			{
				"x": 0.873993934,
				"y": 5.0452305107,
				"z": 0.6665758778,
				"element": "H" 
			},
			{
				"x": 1.8580231952,
				"y": -0.5489221364,
				"z": 0.3792538202,
				"element": "H" 
			}
		],
		 "valence_orbital": [ 
			{
				"type": "occ",
				"energy": -0.27946,
				"method": "rhf"
			},
			{
				"type": "occ",
				"energy": -0.26575,
				"method": "rhf"
			},
			{
				"type": "occ",
				"energy": -0.25002,
				"method": "rhf"
			},
			{
				"type": "occ",
				"energy": -0.22106,
				"method": "rhf"
			},
			{
				"type": "occ",
				"energy": -0.20973,
				"method": "rhf"
			},
			{
				"type": "unocc",
				"energy": -0.05939,
				"method": "rhf"
			},
			{
				"type": "unocc",
				"energy": -0.02254,
				"method": "rhf"
			},
			{
				"type": "unocc",
				"energy": 0.0179,
				"method": "rhf"
			},
			{
				"type": "unocc",
				"energy": 0.05558,
				"method": "rhf"
			},
			{
				"type": "unocc",
				"energy": 0.07966,
				"method": "rhf"
			}
		],
		"cosmo_sigma_profile": { 
			"-0.025": 0.0,
			"-0.024": 0.0,
			"-0.023": 0.0,
			"-0.022": 0.0,
			"-0.021": 0.0,
			"-0.02": 0.0,
			"-0.019": 0.0,
			"-0.018": 0.0,
			"-0.017": 0.0,
			"-0.016": 0.0580701015655,
			"-0.015": 0.812961809481,
			"-0.014": 1.1600220495,
			"-0.013": 0.800335646117,
			"-0.012": 0.94828338442,
			"-0.011": 0.933122061842,
			"-0.01": 0.996641811255,
			"-0.009": 0.742420926703,
			"-0.008": 1.49375181123,
			"-0.007": 3.64134579842,
			"-0.006": 11.4610411025,
			"-0.005": 16.2753267316,
			"-0.004": 25.2827221191,
			"-0.003": 30.8937860611,
			"-0.002": 29.8959518078,
			"-0.001": 21.8847979035,
			"0.0": 17.3193550415,
			"0.001": 15.223876448,
			"0.002": 17.4420795258,
			"0.003": 15.7587709125,
			"0.004": 8.49588763045,
			"0.005": 5.04257068525,
			"0.006": 3.83800698536,
			"0.007": 3.90897061615,
			"0.008": 2.84136029416,
			"0.009": 3.03407033376,
			"0.01": 2.91260745338,
			"0.011": 3.00810085971,
			"0.012": 3.50399784225,
			"0.013": 3.03807585166,
			"0.014": 3.68965072949,
			"0.015": 3.19817962441,
			"0.016": 1.85902826152,
			"0.017": 0.591597948425,
			"0.018": 0.0,
			"0.019": 0.0,
			"0.02": 0.0,
			"0.021": 0.0,
			"0.022": 0.0,
			"0.023": 0.0,
			"0.024": 0.0,
			"0.025": 0.0
		}
	}
}
