{
	 "smiles": "O=C1OCC=C1", 
	 "Tm": 277.4, 
	 "num_atms": 10, 
	 "gaussian": { 
		 "optdone": 1, 
		 "sigma_profile": "yes", 
		 "theory": "DFT", 
		 "functional": "B3LYP", 
		 "basiset": "6-31G**", 
		 "properties": { 
			 "R2extent": 1358.7671, 
			 "electric_dipole_moment_norm": 4.84740339357, 
			 "electric_quadrupole_moment_norm": 15.8784641905, 
			 "total_energy": -305.264570685, 
			 "HOMO_LUMO_gap": 0.22328, 
			 "cosmo_polarized_energy": -11.39, 
			 "cosmo_cavitation_energy": 14.15, 
			 "cosmo_dispersion_energy": -10.86, 
			 "cosmo_repulsion_energy": 0.95, 
			 "cosmo_total_nonelectrostatic_energy": 4.25, 
			 "SMD_solvation_energy": 3.92 
		},
		"coords": [
			{
				"x": -2.0600054809,
				"y": 3.2273569251,
				"z": -1.4494236059,
				"element": "O" 
			},
			{
				"x": -1.8834762567,
				"y": 2.1049445831,
				"z": -1.0513527551,
				"element": "C" 
			},
			{
				"x": -2.9156723175,
				"y": 1.2019058031,
				"z": -0.8895757113,
				"element": "O" 
			},
			{
				"x": -2.4009349553,
				"y": -0.0401620503,
				"z": -0.4076692857,
				"element": "C" 
			},
			{
				"x": -0.9193037965,
				"y": 0.1712729052,
				"z": -0.2798874241,
				"element": "C" 
			},
			{
				"x": -0.6270486081,
				"y": 1.4178376666,
				"z": -0.6556780653,
				"element": "C" 
			},
			{
				"x": -2.8775337773,
				"y": -0.2805021667,
				"z": 0.5515916482,
				"element": "H" 
			},
			{
				"x": -2.6539942863,
				"y": -0.8363526182,
				"z": -1.1198072025,
				"element": "H" 
			},
			{
				"x": -0.2384029574,
				"y": -0.5974573926,
				"z": 0.0666705431,
				"element": "H" 
			},
			{
				"x": 0.334972436,
				"y": 1.9101563447,
				"z": -0.6912681414,
				"element": "H" 
			}
		],
		 "valence_orbital": [ 
			{
				"type": "occ",
				"energy": -0.40414,
				"method": "rhf"
			},
			{
				"type": "occ",
				"energy": -0.37051,
				"method": "rhf"
			},
			{
				"type": "occ",
				"energy": -0.31198,
				"method": "rhf"
			},
			{
				"type": "occ",
				"energy": -0.28475,
				"method": "rhf"
			},
			{
				"type": "occ",
				"energy": -0.27125,
				"method": "rhf"
			},
			{
				"type": "unocc",
				"energy": -0.04797,
				"method": "rhf"
			},
			{
				"type": "unocc",
				"energy": 0.07688,
				"method": "rhf"
			},
			{
				"type": "unocc",
				"energy": 0.09267,
				"method": "rhf"
			},
			{
				"type": "unocc",
				"energy": 0.11546,
				"method": "rhf"
			},
			{
				"type": "unocc",
				"energy": 0.12644,
				"method": "rhf"
			}
		],
		"cosmo_sigma_profile": { 
			"-0.025": 0.0,
			"-0.024": 0.0,
			"-0.023": 0.0,
			"-0.022": 0.0,
			"-0.021": 0.0,
			"-0.02": 0.0,
			"-0.019": 0.0,
			"-0.018": 0.0,
			"-0.017": 0.0,
			"-0.016": 0.0,
			"-0.015": 0.0,
			"-0.014": 0.0,
			"-0.013": 0.0,
			"-0.012": 0.0,
			"-0.011": 0.0,
			"-0.01": 0.119651333251,
			"-0.009": 2.60859194172,
			"-0.008": 7.5554966874,
			"-0.007": 12.2357207374,
			"-0.006": 8.68929317408,
			"-0.005": 7.31315309075,
			"-0.004": 6.29030698402,
			"-0.003": 6.56362641175,
			"-0.002": 7.11866279637,
			"-0.001": 5.99034168617,
			"0.0": 5.49988807808,
			"0.001": 5.25855141004,
			"0.002": 3.4068877004,
			"0.003": 2.4921817418,
			"0.004": 1.86109036195,
			"0.005": 1.50038713821,
			"0.006": 2.62316129348,
			"0.007": 2.74741447486,
			"0.008": 2.56977902659,
			"0.009": 2.69972817937,
			"0.01": 5.04708563779,
			"0.011": 3.94313302369,
			"0.012": 6.32868329521,
			"0.013": 2.92143638057,
			"0.014": 0.119513326991,
			"0.015": 0.0,
			"0.016": 0.0,
			"0.017": 0.0,
			"0.018": 0.0,
			"0.019": 0.0,
			"0.02": 0.0,
			"0.021": 0.0,
			"0.022": 0.0,
			"0.023": 0.0,
			"0.024": 0.0,
			"0.025": 0.0
		}
	}
}
