{
	 "smiles": "CCNC1=NC=C(C=C1)C#N", 
	 "Tm": 362.15, 
	 "num_atms": 20, 
	 "gaussian": { 
		 "optdone": 1, 
		 "sigma_profile": "yes", 
		 "theory": "DFT", 
		 "functional": "B3LYP", 
		 "basiset": "6-31G**", 
		 "properties": { 
			 "R2extent": 3262.9582, 
			 "electric_dipole_moment_norm": 6.84797908729, 
			 "electric_quadrupole_moment_norm": 26.59985074, 
			 "total_energy": -474.523140055, 
			 "HOMO_LUMO_gap": 0.18439, 
			 "cosmo_polarized_energy": -12.9, 
			 "cosmo_cavitation_energy": 24.97, 
			 "cosmo_dispersion_energy": -17.79, 
			 "cosmo_repulsion_energy": 1.45, 
			 "cosmo_total_nonelectrostatic_energy": 8.63, 
			 "SMD_solvation_energy": 3.87 
		},
		"coords": [
			{
				"x": 1.1384407178,
				"y": -2.5708324448,
				"z": -0.8715453566,
				"element": "C" 
			},
			{
				"x": -0.2508855993,
				"y": -2.2000225393,
				"z": -0.3362529979,
				"element": "C" 
			},
			{
				"x": -0.4092177682,
				"y": -0.7923690488,
				"z": -0.0098326382,
				"element": "N" 
			},
			{
				"x": 0.0601666775,
				"y": -0.1654146894,
				"z": 1.106599184,
				"element": "C" 
			},
			{
				"x": -0.0736534066,
				"y": 1.1804570902,
				"z": 1.1007063589,
				"element": "N" 
			},
			{
				"x": 0.3291958863,
				"y": 1.8610994572,
				"z": 2.1656699331,
				"element": "C" 
			},
			{
				"x": 0.8940698739,
				"y": 1.2693560155,
				"z": 3.309342813,
				"element": "C" 
			},
			{
				"x": 1.0373192261,
				"y": -0.1322392113,
				"z": 3.3046478914,
				"element": "C" 
			},
			{
				"x": 0.6261532311,
				"y": -0.8596978514,
				"z": 2.2050534593,
				"element": "C" 
			},
			{
				"x": 1.3075767655,
				"y": 2.0642546387,
				"z": 4.4195137193,
				"element": "C" 
			},
			{
				"x": 1.6442223545,
				"y": 2.7155383211,
				"z": 5.3244200187,
				"element": "N" 
			},
			{
				"x": 1.1882703639,
				"y": -3.6412458884,
				"z": -1.0971153518,
				"element": "H" 
			},
			{
				"x": 1.3622713024,
				"y": -2.017601436,
				"z": -1.7888832389,
				"element": "H" 
			},
			{
				"x": 1.918729506,
				"y": -2.3393632352,
				"z": -0.1403805991,
				"element": "H" 
			},
			{
				"x": -1.0156476804,
				"y": -2.4454754528,
				"z": -1.0799104211,
				"element": "H" 
			},
			{
				"x": -0.4901309088,
				"y": -2.7977063759,
				"z": 0.5507745565,
				"element": "H" 
			},
			{
				"x": -0.706696495,
				"y": -0.1545524524,
				"z": -0.7350456363,
				"element": "H" 
			},
			{
				"x": 0.205018442,
				"y": 2.9414174917,
				"z": 2.1241241764,
				"element": "H" 
			},
			{
				"x": 1.4728917876,
				"y": -0.6336218,
				"z": 4.1630060253,
				"element": "H" 
			},
			{
				"x": 0.7376057236,
				"y": -1.9370805886,
				"z": 2.189308104,
				"element": "H" 
			}
		],
		 "valence_orbital": [ 
			{
				"type": "occ",
				"energy": -0.3261,
				"method": "rhf"
			},
			{
				"type": "occ",
				"energy": -0.30424,
				"method": "rhf"
			},
			{
				"type": "occ",
				"energy": -0.29742,
				"method": "rhf"
			},
			{
				"type": "occ",
				"energy": -0.2735,
				"method": "rhf"
			},
			{
				"type": "occ",
				"energy": -0.22128,
				"method": "rhf"
			},
			{
				"type": "unocc",
				"energy": -0.03689,
				"method": "rhf"
			},
			{
				"type": "unocc",
				"energy": -0.03018,
				"method": "rhf"
			},
			{
				"type": "unocc",
				"energy": 0.0419,
				"method": "rhf"
			},
			{
				"type": "unocc",
				"energy": 0.06908,
				"method": "rhf"
			},
			{
				"type": "unocc",
				"energy": 0.08255,
				"method": "rhf"
			}
		],
		"cosmo_sigma_profile": { 
			"-0.025": 0.0,
			"-0.024": 0.0,
			"-0.023": 0.0,
			"-0.022": 0.0,
			"-0.021": 0.0,
			"-0.02": 0.0,
			"-0.019": 0.0,
			"-0.018": 0.0,
			"-0.017": 0.0,
			"-0.016": 0.0,
			"-0.015": 0.0,
			"-0.014": 0.0868136295177,
			"-0.013": 1.1004538662,
			"-0.012": 0.881474040833,
			"-0.011": 0.801061210816,
			"-0.01": 1.16286088514,
			"-0.009": 0.965350524164,
			"-0.008": 5.78806797008,
			"-0.007": 7.65109905149,
			"-0.006": 9.42562745758,
			"-0.005": 10.5465478326,
			"-0.004": 13.5356818287,
			"-0.003": 18.6527912458,
			"-0.002": 15.1165559774,
			"-0.001": 14.8165180546,
			"0.0": 21.1665065564,
			"0.001": 19.5080890466,
			"0.002": 10.5015323687,
			"0.003": 5.9955522958,
			"0.004": 4.5656856997,
			"0.005": 4.48965891965,
			"0.006": 3.25513883518,
			"0.007": 4.45021030115,
			"0.008": 4.36135693516,
			"0.009": 4.6540633615,
			"0.01": 3.86121358978,
			"0.011": 3.92980225498,
			"0.012": 3.63222741445,
			"0.013": 3.07014253387,
			"0.014": 1.55348655238,
			"0.015": 0.159976845894,
			"0.016": 0.0,
			"0.017": 0.0,
			"0.018": 0.0,
			"0.019": 0.0,
			"0.02": 0.0,
			"0.021": 0.0,
			"0.022": 0.0,
			"0.023": 0.0,
			"0.024": 0.0,
			"0.025": 0.0
		}
	}
}
