{
	 "smiles": "CCOC(=O)C1=NN(C=C1O)C1=CC=CC=C1", 
	 "Tm": 360.15, 
	 "num_atms": 29, 
	 "gaussian": { 
		 "optdone": 1, 
		 "sigma_profile": "yes", 
		 "theory": "DFT", 
		 "functional": "B3LYP", 
		 "basiset": "6-31G**", 
		 "properties": { 
			 "R2extent": 6348.9059, 
			 "electric_dipole_moment_norm": 1.832206937, 
			 "electric_quadrupole_moment_norm": 21.7563723068, 
			 "total_energy": -799.671654805, 
			 "HOMO_LUMO_gap": 0.17152, 
			 "cosmo_polarized_energy": -13.92, 
			 "cosmo_cavitation_energy": 33.77, 
			 "cosmo_dispersion_energy": -24.68, 
			 "cosmo_repulsion_energy": 1.91, 
			 "cosmo_total_nonelectrostatic_energy": 11.0, 
			 "SMD_solvation_energy": 6.8 
		},
		"coords": [
			{
				"x": 1.0097370788,
				"y": 3.9937636461,
				"z": 0.2454840306,
				"element": "C" 
			},
			{
				"x": 1.88532247,
				"y": 2.7886518237,
				"z": 0.5513962264,
				"element": "C" 
			},
			{
				"x": 1.0912942804,
				"y": 1.5840475812,
				"z": 0.7003260054,
				"element": "O" 
			},
			{
				"x": 0.7927589982,
				"y": 0.8987965689,
				"z": -0.457427217,
				"element": "C" 
			},
			{
				"x": 1.1693797172,
				"y": 1.2504517438,
				"z": -1.5514601541,
				"element": "O" 
			},
			{
				"x": -0.020575615,
				"y": -0.2798501696,
				"z": -0.1329880817,
				"element": "C" 
			},
			{
				"x": -0.44254582,
				"y": -1.1123099395,
				"z": -1.0962938124,
				"element": "N" 
			},
			{
				"x": -1.1437631392,
				"y": -2.0561233576,
				"z": -0.4608542979,
				"element": "N" 
			},
			{
				"x": -1.190868976,
				"y": -1.862364894,
				"z": 0.902756974,
				"element": "C" 
			},
			{
				"x": -0.4712208384,
				"y": -0.7123016255,
				"z": 1.1491108025,
				"element": "C" 
			},
			{
				"x": -0.2527890523,
				"y": -0.1511858864,
				"z": 2.3561061447,
				"element": "O" 
			},
			{
				"x": -1.7351559283,
				"y": -3.1179266736,
				"z": -1.2009007643,
				"element": "C" 
			},
			{
				"x": -1.2572384032,
				"y": -3.4058799729,
				"z": -2.4841718117,
				"element": "C" 
			},
			{
				"x": -1.8312977375,
				"y": -4.4475060751,
				"z": -3.2086058081,
				"element": "C" 
			},
			{
				"x": -2.8690923912,
				"y": -5.2076294477,
				"z": -2.6632279207,
				"element": "C" 
			},
			{
				"x": -3.3402931072,
				"y": -4.9102003293,
				"z": -1.3841370448,
				"element": "C" 
			},
			{
				"x": -2.7829882833,
				"y": -3.8630568827,
				"z": -0.6504416799,
				"element": "C" 
			},
			{
				"x": 0.2484366708,
				"y": 4.1325622009,
				"z": 1.0189252483,
				"element": "H" 
			},
			{
				"x": 1.6263788094,
				"y": 4.8978297895,
				"z": 0.2047467004,
				"element": "H" 
			},
			{
				"x": 0.5153799258,
				"y": 3.8721089485,
				"z": -0.7211780402,
				"element": "H" 
			},
			{
				"x": 2.6185876173,
				"y": 2.6206156252,
				"z": -0.2399928464,
				"element": "H" 
			},
			{
				"x": 2.4015495841,
				"y": 2.8957324141,
				"z": 1.50845275,
				"element": "H" 
			},
			{
				"x": -1.6799130294,
				"y": -2.5439692939,
				"z": 1.5777152374,
				"element": "H" 
			},
			{
				"x": 0.2867098459,
				"y": 0.6421629355,
				"z": 2.1937815196,
				"element": "H" 
			},
			{
				"x": -0.4504443686,
				"y": -2.80887975,
				"z": -2.8910835486,
				"element": "H" 
			},
			{
				"x": -1.4588383379,
				"y": -4.6694284045,
				"z": -4.204234452,
				"element": "H" 
			},
			{
				"x": -3.3087026915,
				"y": -6.021376171,
				"z": -3.23172704,
				"element": "H" 
			},
			{
				"x": -4.1542213998,
				"y": -5.4859330511,
				"z": -0.9538059724,
				"element": "H" 
			},
			{
				"x": -3.178385879,
				"y": -3.619101353,
				"z": 0.3293288531,
				"element": "H" 
			}
		],
		 "valence_orbital": [ 
			{
				"type": "occ",
				"energy": -0.28709,
				"method": "rhf"
			},
			{
				"type": "occ",
				"energy": -0.27837,
				"method": "rhf"
			},
			{
				"type": "occ",
				"energy": -0.26134,
				"method": "rhf"
			},
			{
				"type": "occ",
				"energy": -0.24485,
				"method": "rhf"
			},
			{
				"type": "occ",
				"energy": -0.21804,
				"method": "rhf"
			},
			{
				"type": "unocc",
				"energy": -0.04652,
				"method": "rhf"
			},
			{
				"type": "unocc",
				"energy": -0.01201,
				"method": "rhf"
			},
			{
				"type": "unocc",
				"energy": 0.00112,
				"method": "rhf"
			},
			{
				"type": "unocc",
				"energy": 0.04318,
				"method": "rhf"
			},
			{
				"type": "unocc",
				"energy": 0.08344,
				"method": "rhf"
			}
		],
		"cosmo_sigma_profile": { 
			"-0.025": 0.0,
			"-0.024": 0.0,
			"-0.023": 0.0,
			"-0.022": 0.0,
			"-0.021": 0.0,
			"-0.02": 0.0,
			"-0.019": 0.0,
			"-0.018": 0.0,
			"-0.017": 0.0,
			"-0.016": 0.0,
			"-0.015": 0.0,
			"-0.014": 0.0,
			"-0.013": 0.0,
			"-0.012": 0.191466161684,
			"-0.011": 0.963624518601,
			"-0.01": 2.73572515854,
			"-0.009": 3.05170196872,
			"-0.008": 2.59072401377,
			"-0.007": 4.61959297302,
			"-0.006": 13.1849015395,
			"-0.005": 19.5309209623,
			"-0.004": 23.7564406942,
			"-0.003": 24.1949030911,
			"-0.002": 21.2694175041,
			"-0.001": 19.8001345573,
			"0.0": 24.1437926909,
			"0.001": 20.6889436683,
			"0.002": 16.3767800198,
			"0.003": 15.4240667223,
			"0.004": 15.7167631298,
			"0.005": 7.99143245929,
			"0.006": 4.22483195059,
			"0.007": 4.31929408608,
			"0.008": 3.20013913471,
			"0.009": 3.91088622044,
			"0.01": 4.81138559499,
			"0.011": 6.29904032318,
			"0.012": 4.14712109078,
			"0.013": 2.49294009885,
			"0.014": 0.566887182113,
			"0.015": 0.0,
			"0.016": 0.0,
			"0.017": 0.0,
			"0.018": 0.0,
			"0.019": 0.0,
			"0.02": 0.0,
			"0.021": 0.0,
			"0.022": 0.0,
			"0.023": 0.0,
			"0.024": 0.0,
			"0.025": 0.0
		}
	}
}
