{
	 "smiles": "C1=NN2C(=N1)N=NC1=CC3=C(C=CC=C3)C=C21", 
	 "Tm": 473.15, 
	 "num_atms": 24, 
	 "gaussian": { 
		 "optdone": 1, 
		 "sigma_profile": "yes", 
		 "theory": "DFT", 
		 "functional": "B3LYP", 
		 "basiset": "6-31G**", 
		 "properties": { 
			 "R2extent": 4214.8615, 
			 "electric_dipole_moment_norm": 6.08470604467, 
			 "electric_quadrupole_moment_norm": 14.4227546142, 
			 "total_energy": -735.203467219, 
			 "HOMO_LUMO_gap": 0.12851, 
			 "cosmo_polarized_energy": -13.83, 
			 "cosmo_cavitation_energy": 28.97, 
			 "cosmo_dispersion_energy": -21.95, 
			 "cosmo_repulsion_energy": 1.6, 
			 "cosmo_total_nonelectrostatic_energy": 8.63, 
			 "SMD_solvation_energy": -0.06 
		},
		"coords": [
			{
				"x": -3.7150167111,
				"y": -0.7974050845,
				"z": 0.4809870987,
				"element": "C" 
			},
			{
				"x": -2.6408448728,
				"y": -0.1873029203,
				"z": 0.9988301785,
				"element": "N" 
			},
			{
				"x": -1.6479670942,
				"y": -0.7347427695,
				"z": 0.2701508583,
				"element": "N" 
			},
			{
				"x": -2.1605366955,
				"y": -1.6334944923,
				"z": -0.637372283,
				"element": "C" 
			},
			{
				"x": -3.4841920293,
				"y": -1.6833387471,
				"z": -0.5130505712,
				"element": "N" 
			},
			{
				"x": -1.3704664766,
				"y": -2.3430002171,
				"z": -1.5149702026,
				"element": "N" 
			},
			{
				"x": -0.1000075615,
				"y": -2.1587365573,
				"z": -1.4861141303,
				"element": "N" 
			},
			{
				"x": 0.472894484,
				"y": -1.2594245076,
				"z": -0.5861316816,
				"element": "C" 
			},
			{
				"x": 1.8559599888,
				"y": -1.1075243835,
				"z": -0.6077553969,
				"element": "C" 
			},
			{
				"x": 2.4996618239,
				"y": -0.2186600553,
				"z": 0.271204795,
				"element": "C" 
			},
			{
				"x": 1.7090037782,
				"y": 0.5453030205,
				"z": 1.2080382317,
				"element": "C" 
			},
			{
				"x": 2.3772614962,
				"y": 1.4410092893,
				"z": 2.0910861865,
				"element": "C" 
			},
			{
				"x": 3.7437209578,
				"y": 1.5759186072,
				"z": 2.0531632654,
				"element": "C" 
			},
			{
				"x": 4.5229994896,
				"y": 0.8242415301,
				"z": 1.1312068975,
				"element": "C" 
			},
			{
				"x": 3.9164114551,
				"y": -0.0490429913,
				"z": 0.2642350659,
				"element": "C" 
			},
			{
				"x": 0.3052886543,
				"y": 0.3912053897,
				"z": 1.2300700649,
				"element": "C" 
			},
			{
				"x": -0.2881549496,
				"y": -0.4911921447,
				"z": 0.3513558419,
				"element": "C" 
			},
			{
				"x": -4.7055692534,
				"y": -0.5766486323,
				"z": 0.8544297683,
				"element": "H" 
			},
			{
				"x": 2.4220097187,
				"y": -1.6957270832,
				"z": -1.3233451958,
				"element": "H" 
			},
			{
				"x": 1.7844695878,
				"y": 2.0164779273,
				"z": 2.7964413007,
				"element": "H" 
			},
			{
				"x": 4.2387032442,
				"y": 2.2630844656,
				"z": 2.7329685631,
				"element": "H" 
			},
			{
				"x": 5.6016531323,
				"y": 0.9462370065,
				"z": 1.1181185031,
				"element": "H" 
			},
			{
				"x": 4.5043438547,
				"y": -0.6271329628,
				"z": -0.4432642406,
				"element": "H" 
			},
			{
				"x": -0.3072260213,
				"y": 0.9547963127,
				"z": 1.9251170824,
				"element": "H" 
			}
		],
		 "valence_orbital": [ 
			{
				"type": "occ",
				"energy": -0.29412,
				"method": "rhf"
			},
			{
				"type": "occ",
				"energy": -0.28618,
				"method": "rhf"
			},
			{
				"type": "occ",
				"energy": -0.26235,
				"method": "rhf"
			},
			{
				"type": "occ",
				"energy": -0.25045,
				"method": "rhf"
			},
			{
				"type": "occ",
				"energy": -0.23445,
				"method": "rhf"
			},
			{
				"type": "unocc",
				"energy": -0.10594,
				"method": "rhf"
			},
			{
				"type": "unocc",
				"energy": -0.05299,
				"method": "rhf"
			},
			{
				"type": "unocc",
				"energy": -0.03248,
				"method": "rhf"
			},
			{
				"type": "unocc",
				"energy": 0.00543,
				"method": "rhf"
			},
			{
				"type": "unocc",
				"energy": 0.01995,
				"method": "rhf"
			}
		],
		"cosmo_sigma_profile": { 
			"-0.025": 0.0,
			"-0.024": 0.0,
			"-0.023": 0.0,
			"-0.022": 0.0,
			"-0.021": 0.0,
			"-0.02": 0.0,
			"-0.019": 0.0,
			"-0.018": 0.0,
			"-0.017": 0.0,
			"-0.016": 0.0,
			"-0.015": 0.0,
			"-0.014": 0.0,
			"-0.013": 0.0,
			"-0.012": 0.0,
			"-0.011": 0.0,
			"-0.01": 1.14320579907,
			"-0.009": 2.23942725017,
			"-0.008": 8.41562058791,
			"-0.007": 12.8485179747,
			"-0.006": 15.3999511818,
			"-0.005": 15.9031615186,
			"-0.004": 12.5808477424,
			"-0.003": 13.0531911794,
			"-0.002": 16.007164873,
			"-0.001": 18.5579717555,
			"0.0": 21.5025346936,
			"0.001": 20.7833627569,
			"0.002": 16.2181100691,
			"0.003": 14.8320665826,
			"0.004": 5.48362773187,
			"0.005": 2.9544703443,
			"0.006": 5.24025968663,
			"0.007": 3.99342838117,
			"0.008": 4.3995294165,
			"0.009": 4.39590664751,
			"0.01": 5.14094087201,
			"0.011": 5.80368773721,
			"0.012": 3.59651061245,
			"0.013": 2.97592312325,
			"0.014": 1.57362033905,
			"0.015": 0.680248037079,
			"0.016": 0.00620445930899,
			"0.017": 0.0,
			"0.018": 0.0,
			"0.019": 0.0,
			"0.02": 0.0,
			"0.021": 0.0,
			"0.022": 0.0,
			"0.023": 0.0,
			"0.024": 0.0,
			"0.025": 0.0
		}
	}
}
