{
	 "smiles": "ClS(=O)(=O)C1=CC=C2OCCCOC2=C1", 
	 "Tm": 324.15, 
	 "num_atms": 24, 
	 "gaussian": { 
		 "optdone": 1, 
		 "sigma_profile": "yes", 
		 "theory": "DFT", 
		 "functional": "B3LYP", 
		 "basiset": "6-31G**", 
		 "properties": { 
			 "R2extent": 5955.2565, 
			 "electric_dipole_moment_norm": 7.58891207157, 
			 "electric_quadrupole_moment_norm": 15.7997622928, 
			 "total_energy": -1507.56608557, 
			 "HOMO_LUMO_gap": 0.16977, 
			 "cosmo_polarized_energy": -12.1, 
			 "cosmo_cavitation_energy": 30.79, 
			 "cosmo_dispersion_energy": -23.39, 
			 "cosmo_repulsion_energy": 1.79, 
			 "cosmo_total_nonelectrostatic_energy": 9.19, 
			 "SMD_solvation_energy": 4.05 
		},
		"coords": [
			{
				"x": 4.8669610977,
				"y": 1.6005665584,
				"z": 1.3876923156,
				"element": "Cl" 
			},
			{
				"x": 3.6993000733,
				"y": 1.8479162647,
				"z": -0.3875391036,
				"element": "S" 
			},
			{
				"x": 3.4294801719,
				"y": 3.2768873371,
				"z": -0.4915488253,
				"element": "O" 
			},
			{
				"x": 4.399321201,
				"y": 1.1101913098,
				"z": -1.4323325087,
				"element": "O" 
			},
			{
				"x": 2.2015089883,
				"y": 0.9867477188,
				"z": 0.0423240755,
				"element": "C" 
			},
			{
				"x": 2.090515968,
				"y": -0.3724680054,
				"z": -0.2549894524,
				"element": "C" 
			},
			{
				"x": 0.9029934534,
				"y": -1.0158808663,
				"z": 0.0714604582,
				"element": "C" 
			},
			{
				"x": -0.1503854737,
				"y": -0.3328527369,
				"z": 0.6944238467,
				"element": "C" 
			},
			{
				"x": -1.2347536231,
				"y": -1.0793013057,
				"z": 1.0523193632,
				"element": "O" 
			},
			{
				"x": -2.541789587,
				"y": -0.6470331656,
				"z": 0.6444350327,
				"element": "C" 
			},
			{
				"x": -3.0647085203,
				"y": 0.5408704426,
				"z": 1.4408449064,
				"element": "C" 
			},
			{
				"x": -2.2839738315,
				"y": 1.8230989478,
				"z": 1.185082639,
				"element": "C" 
			},
			{
				"x": -0.9414793244,
				"y": 1.7691555655,
				"z": 1.6861134248,
				"element": "O" 
			},
			{
				"x": -0.0126135355,
				"y": 1.0433598034,
				"z": 0.9932751568,
				"element": "C" 
			},
			{
				"x": 1.1726049537,
				"y": 1.6987124853,
				"z": 0.6551002589,
				"element": "C" 
			},
			{
				"x": 2.9030198949,
				"y": -0.9000450692,
				"z": -0.7402681094,
				"element": "H" 
			},
			{
				"x": 0.7633630725,
				"y": -2.070944033,
				"z": -0.1379865309,
				"element": "H" 
			},
			{
				"x": -2.5292728945,
				"y": -0.4183469543,
				"z": -0.4310118415,
				"element": "H" 
			},
			{
				"x": -3.176812565,
				"y": -1.5225777965,
				"z": 0.7993365719,
				"element": "H" 
			},
			{
				"x": -3.0405816081,
				"y": 0.3051145461,
				"z": 2.5104312685,
				"element": "H" 
			},
			{
				"x": -4.1135998287,
				"y": 0.7086638162,
				"z": 1.1624460992,
				"element": "H" 
			},
			{
				"x": -2.2667890635,
				"y": 2.0621323683,
				"z": 0.1118065043,
				"element": "H" 
			},
			{
				"x": -2.740601885,
				"y": 2.6631148138,
				"z": 1.7141081206,
				"element": "H" 
			},
			{
				"x": 1.2739928657,
				"y": 2.7525179551,
				"z": 0.8863763294,
				"element": "H" 
			}
		],
		 "valence_orbital": [ 
			{
				"type": "occ",
				"energy": -0.31844,
				"method": "rhf"
			},
			{
				"type": "occ",
				"energy": -0.30803,
				"method": "rhf"
			},
			{
				"type": "occ",
				"energy": -0.3064,
				"method": "rhf"
			},
			{
				"type": "occ",
				"energy": -0.27313,
				"method": "rhf"
			},
			{
				"type": "occ",
				"energy": -0.25359,
				"method": "rhf"
			},
			{
				"type": "unocc",
				"energy": -0.08382,
				"method": "rhf"
			},
			{
				"type": "unocc",
				"energy": -0.03553,
				"method": "rhf"
			},
			{
				"type": "unocc",
				"energy": -0.02946,
				"method": "rhf"
			},
			{
				"type": "unocc",
				"energy": 0.05513,
				"method": "rhf"
			},
			{
				"type": "unocc",
				"energy": 0.06875,
				"method": "rhf"
			}
		],
		"cosmo_sigma_profile": { 
			"-0.025": 0.0,
			"-0.024": 0.0,
			"-0.023": 0.0,
			"-0.022": 0.0,
			"-0.021": 0.0,
			"-0.02": 0.0,
			"-0.019": 0.0,
			"-0.018": 0.0,
			"-0.017": 0.0,
			"-0.016": 0.0,
			"-0.015": 0.0,
			"-0.014": 0.0,
			"-0.013": 0.0,
			"-0.012": 0.0,
			"-0.011": 0.0,
			"-0.01": 0.0,
			"-0.009": 0.131819275459,
			"-0.008": 3.37316385767,
			"-0.007": 6.53769807793,
			"-0.006": 16.5914256485,
			"-0.005": 24.5022617423,
			"-0.004": 19.6416102538,
			"-0.003": 17.4447822554,
			"-0.002": 15.283172251,
			"-0.001": 15.392603173,
			"0.0": 20.2896619885,
			"0.001": 19.7113985433,
			"0.002": 14.9575975033,
			"0.003": 16.9769137414,
			"0.004": 15.1562856501,
			"0.005": 6.1545904106,
			"0.006": 6.09663940705,
			"0.007": 6.76830502677,
			"0.008": 12.522606631,
			"0.009": 7.91236909142,
			"0.01": 2.11750103388,
			"0.011": 0.320797538877,
			"0.012": 0.0,
			"0.013": 0.0,
			"0.014": 0.0,
			"0.015": 0.0,
			"0.016": 0.0,
			"0.017": 0.0,
			"0.018": 0.0,
			"0.019": 0.0,
			"0.02": 0.0,
			"0.021": 0.0,
			"0.022": 0.0,
			"0.023": 0.0,
			"0.024": 0.0,
			"0.025": 0.0
		}
	}
}
