{
	 "smiles": "CN(C)C1=CC=C(CCC(O)=O)C=C1", 
	 "Tm": 379.15, 
	 "num_atms": 29, 
	 "gaussian": { 
		 "optdone": 1, 
		 "sigma_profile": "yes", 
		 "theory": "DFT", 
		 "functional": "B3LYP", 
		 "basiset": "6-31G**", 
		 "properties": { 
			 "R2extent": 4642.1571, 
			 "electric_dipole_moment_norm": 1.97474685973, 
			 "electric_quadrupole_moment_norm": 15.7429062993, 
			 "total_energy": -633.424160665, 
			 "HOMO_LUMO_gap": 0.19015, 
			 "cosmo_polarized_energy": -12.15, 
			 "cosmo_cavitation_energy": 31.78, 
			 "cosmo_dispersion_energy": -22.54, 
			 "cosmo_repulsion_energy": 1.79, 
			 "cosmo_total_nonelectrostatic_energy": 11.03, 
			 "SMD_solvation_energy": 5.85 
		},
		"coords": [
			{
				"x": 1.2344245246,
				"y": 1.6796303428,
				"z": 2.3270740774,
				"element": "C" 
			},
			{
				"x": 0.3465077464,
				"y": 2.0483117984,
				"z": 1.2377257615,
				"element": "N" 
			},
			{
				"x": -0.3860683081,
				"y": 3.2972406031,
				"z": 1.3573780742,
				"element": "C" 
			},
			{
				"x": -0.1547145379,
				"y": 1.0484665501,
				"z": 0.4064476728,
				"element": "C" 
			},
			{
				"x": 0.3730953968,
				"y": -0.2624179678,
				"z": 0.4290094325,
				"element": "C" 
			},
			{
				"x": -0.110672985,
				"y": -1.2435809597,
				"z": -0.430579743,
				"element": "C" 
			},
			{
				"x": -1.1405141758,
				"y": -0.9886559031,
				"z": -1.344351289,
				"element": "C" 
			},
			{
				"x": -1.6754311272,
				"y": -2.0768670143,
				"z": -2.2504637401,
				"element": "C" 
			},
			{
				"x": -2.7426209091,
				"y": -2.9771184036,
				"z": -1.5858214442,
				"element": "C" 
			},
			{
				"x": -4.0150468711,
				"y": -2.2618204082,
				"z": -1.1853896374,
				"element": "C" 
			},
			{
				"x": -4.5031948759,
				"y": -1.483021577,
				"z": -2.1882610642,
				"element": "O" 
			},
			{
				"x": -4.5833820207,
				"y": -2.368532071,
				"z": -0.1220151953,
				"element": "O" 
			},
			{
				"x": -1.669567808,
				"y": 0.3072202851,
				"z": -1.3593178699,
				"element": "C" 
			},
			{
				"x": -1.2000465845,
				"y": 1.304226511,
				"z": -0.5083586918,
				"element": "C" 
			},
			{
				"x": 1.5370103137,
				"y": 2.5816333637,
				"z": 2.8619212402,
				"element": "H" 
			},
			{
				"x": 2.1458784693,
				"y": 1.2047645657,
				"z": 1.9470909364,
				"element": "H" 
			},
			{
				"x": 0.7697952352,
				"y": 0.9900268358,
				"z": 3.0501870936,
				"element": "H" 
			},
			{
				"x": 0.1528339052,
				"y": 3.964100129,
				"z": 2.0327498329,
				"element": "H" 
			},
			{
				"x": -1.408070588,
				"y": 3.1642444052,
				"z": 1.7475203839,
				"element": "H" 
			},
			{
				"x": -0.4591359623,
				"y": 3.8036412514,
				"z": 0.3884302202,
				"element": "H" 
			},
			{
				"x": 1.1687386364,
				"y": -0.5218870676,
				"z": 1.1165017391,
				"element": "H" 
			},
			{
				"x": 0.3301403594,
				"y": -2.2376182298,
				"z": -0.3849124693,
				"element": "H" 
			},
			{
				"x": -0.8530936623,
				"y": -2.7262297732,
				"z": -2.5733641065,
				"element": "H" 
			},
			{
				"x": -2.1028043897,
				"y": -1.63529215,
				"z": -3.1558937299,
				"element": "H" 
			},
			{
				"x": -3.0291206656,
				"y": -3.7736372906,
				"z": -2.2858223054,
				"element": "H" 
			},
			{
				"x": -2.3514068893,
				"y": -3.4525250699,
				"z": -0.683593096,
				"element": "H" 
			},
			{
				"x": -5.3175267545,
				"y": -1.0847761439,
				"z": -1.8377240039,
				"element": "H" 
			},
			{
				"x": -2.4754478939,
				"y": 0.5439559545,
				"z": -2.04941945,
				"element": "H" 
			},
			{
				"x": -1.652357578,
				"y": 2.286817434,
				"z": -0.5634486287,
				"element": "H" 
			}
		],
		 "valence_orbital": [ 
			{
				"type": "occ",
				"energy": -0.3111,
				"method": "rhf"
			},
			{
				"type": "occ",
				"energy": -0.27405,
				"method": "rhf"
			},
			{
				"type": "occ",
				"energy": -0.26411,
				"method": "rhf"
			},
			{
				"type": "occ",
				"energy": -0.23895,
				"method": "rhf"
			},
			{
				"type": "occ",
				"energy": -0.18403,
				"method": "rhf"
			},
			{
				"type": "unocc",
				"energy": 0.00612,
				"method": "rhf"
			},
			{
				"type": "unocc",
				"energy": 0.01803,
				"method": "rhf"
			},
			{
				"type": "unocc",
				"energy": 0.02135,
				"method": "rhf"
			},
			{
				"type": "unocc",
				"energy": 0.0775,
				"method": "rhf"
			},
			{
				"type": "unocc",
				"energy": 0.08871,
				"method": "rhf"
			}
		],
		"cosmo_sigma_profile": { 
			"-0.025": 0.0,
			"-0.024": 0.0,
			"-0.023": 0.0,
			"-0.022": 0.0,
			"-0.021": 0.0,
			"-0.02": 0.0,
			"-0.019": 0.0,
			"-0.018": 0.401326968429,
			"-0.017": 0.854286650426,
			"-0.016": 0.90135991827,
			"-0.015": 0.723752043777,
			"-0.014": 1.21597959039,
			"-0.013": 0.790926874819,
			"-0.012": 0.163575579885,
			"-0.011": 0.316835306949,
			"-0.01": 0.843644854735,
			"-0.009": 0.723094991254,
			"-0.008": 0.630413558068,
			"-0.007": 1.4211576152,
			"-0.006": 6.39738717739,
			"-0.005": 14.0533156554,
			"-0.004": 23.6631888201,
			"-0.003": 29.5910209776,
			"-0.002": 32.5738054438,
			"-0.001": 27.5490228042,
			"0.0": 13.966365229,
			"0.001": 11.8862304741,
			"0.002": 10.339927939,
			"0.003": 10.3504763658,
			"0.004": 9.4511357718,
			"0.005": 9.61799535077,
			"0.006": 11.0380863929,
			"0.007": 10.4033795933,
			"0.008": 4.4108332893,
			"0.009": 3.24401047751,
			"0.01": 2.11289713115,
			"0.011": 3.41370928848,
			"0.012": 4.95896230851,
			"0.013": 1.56271338277,
			"0.014": 0.0430313539166,
			"0.015": 0.0,
			"0.016": 0.0,
			"0.017": 0.0,
			"0.018": 0.0,
			"0.019": 0.0,
			"0.02": 0.0,
			"0.021": 0.0,
			"0.022": 0.0,
			"0.023": 0.0,
			"0.024": 0.0,
			"0.025": 0.0
		}
	}
}
