{
	 "smiles": "OC(=O)CNC(=O)C1=CC2=C(NN=N2)C=C1", 
	 "Tm": 489.15, 
	 "num_atms": 24, 
	 "gaussian": { 
		 "optdone": 1, 
		 "sigma_profile": "yes", 
		 "theory": "DFT", 
		 "functional": "B3LYP", 
		 "basiset": "6-31G**", 
		 "properties": { 
			 "R2extent": 4605.2708, 
			 "electric_dipole_moment_norm": 3.6050524587, 
			 "electric_quadrupole_moment_norm": 31.6911259734, 
			 "total_energy": -792.442611882, 
			 "HOMO_LUMO_gap": 0.18974, 
			 "cosmo_polarized_energy": -25.28, 
			 "cosmo_cavitation_energy": 29.93, 
			 "cosmo_dispersion_energy": -21.93, 
			 "cosmo_repulsion_energy": 1.72, 
			 "cosmo_total_nonelectrostatic_energy": 9.71, 
			 "SMD_solvation_energy": 4.52 
		},
		"coords": [
			{
				"x": -0.8495956119,
				"y": -1.0794130385,
				"z": -4.0261039114,
				"element": "O" 
			},
			{
				"x": 0.0221519614,
				"y": -1.6971036778,
				"z": -3.2060184062,
				"element": "C" 
			},
			{
				"x": 0.745292113,
				"y": -2.6048739432,
				"z": -3.5492561973,
				"element": "O" 
			},
			{
				"x": -0.0514689341,
				"y": -1.1247303199,
				"z": -1.7995590196,
				"element": "C" 
			},
			{
				"x": 0.9502401823,
				"y": -1.7552480507,
				"z": -0.9654608266,
				"element": "N" 
			},
			{
				"x": 1.7740681468,
				"y": -1.153663021,
				"z": -0.0386524751,
				"element": "C" 
			},
			{
				"x": 2.8527015692,
				"y": -1.656662326,
				"z": 0.2570311639,
				"element": "O" 
			},
			{
				"x": 1.3099230784,
				"y": 0.1104135952,
				"z": 0.6296341971,
				"element": "C" 
			},
			{
				"x": -0.0254944722,
				"y": 0.3750930941,
				"z": 0.9155600653,
				"element": "C" 
			},
			{
				"x": -0.3230187616,
				"y": 1.5545758959,
				"z": 1.6134898397,
				"element": "C" 
			},
			{
				"x": 0.7023209454,
				"y": 2.4381136208,
				"z": 2.0075224726,
				"element": "C" 
			},
			{
				"x": 0.0200790533,
				"y": 3.4358488795,
				"z": 2.6368796116,
				"element": "N" 
			},
			{
				"x": -1.3245918175,
				"y": 3.186766844,
				"z": 2.6350132167,
				"element": "N" 
			},
			{
				"x": -1.5367033723,
				"y": 2.0680557076,
				"z": 2.0287228057,
				"element": "N" 
			},
			{
				"x": 2.0556380885,
				"y": 2.1760847086,
				"z": 1.7382414098,
				"element": "C" 
			},
			{
				"x": 2.3318335572,
				"y": 1.0027707027,
				"z": 1.0605905077,
				"element": "C" 
			},
			{
				"x": -0.7692345939,
				"y": -1.5066865009,
				"z": -4.8956842366,
				"element": "H" 
			},
			{
				"x": 0.082358379,
				"y": -0.0398171386,
				"z": -1.8546152993,
				"element": "H" 
			},
			{
				"x": -1.078200969,
				"y": -1.2931127439,
				"z": -1.4431380947,
				"element": "H" 
			},
			{
				"x": 1.3823611347,
				"y": -2.5700032462,
				"z": -1.3914334269,
				"element": "H" 
			},
			{
				"x": -0.8224590818,
				"y": -0.3080570699,
				"z": 0.6458981432,
				"element": "H" 
			},
			{
				"x": 0.360333141,
				"y": 4.2748741632,
				"z": 3.0817752013,
				"element": "H" 
			},
			{
				"x": 2.8483730624,
				"y": 2.8471620652,
				"z": 2.0517984745,
				"element": "H" 
			},
			{
				"x": 3.3571932015,
				"y": 0.7217117999,
				"z": 0.8471647844,
				"element": "H" 
			}
		],
		 "valence_orbital": [ 
			{
				"type": "occ",
				"energy": -0.27941,
				"method": "rhf"
			},
			{
				"type": "occ",
				"energy": -0.26863,
				"method": "rhf"
			},
			{
				"type": "occ",
				"energy": -0.26367,
				"method": "rhf"
			},
			{
				"type": "occ",
				"energy": -0.25509,
				"method": "rhf"
			},
			{
				"type": "occ",
				"energy": -0.24723,
				"method": "rhf"
			},
			{
				"type": "unocc",
				"energy": -0.05749,
				"method": "rhf"
			},
			{
				"type": "unocc",
				"energy": -0.02991,
				"method": "rhf"
			},
			{
				"type": "unocc",
				"energy": -0.01205,
				"method": "rhf"
			},
			{
				"type": "unocc",
				"energy": 0.02254,
				"method": "rhf"
			},
			{
				"type": "unocc",
				"energy": 0.05409,
				"method": "rhf"
			}
		],
		"cosmo_sigma_profile": { 
			"-0.025": 0.0,
			"-0.024": 0.0,
			"-0.023": 0.0,
			"-0.022": 0.0,
			"-0.021": 0.0,
			"-0.02": 0.0166863878654,
			"-0.019": 0.747409017758,
			"-0.018": 2.33048784591,
			"-0.017": 2.49047143308,
			"-0.016": 2.32125728675,
			"-0.015": 1.83730376517,
			"-0.014": 1.49150102352,
			"-0.013": 1.76128850088,
			"-0.012": 2.65835987505,
			"-0.011": 1.64118525328,
			"-0.01": 1.63325079393,
			"-0.009": 4.52494113044,
			"-0.008": 10.5302798612,
			"-0.007": 9.87873757123,
			"-0.006": 11.9512215156,
			"-0.005": 11.3432695351,
			"-0.004": 10.1572220816,
			"-0.003": 10.6825619544,
			"-0.002": 11.8419102857,
			"-0.001": 14.9570375263,
			"0.0": 14.1390766384,
			"0.001": 16.5334315598,
			"0.002": 13.1765763726,
			"0.003": 9.99944847629,
			"0.004": 7.12756282914,
			"0.005": 5.84373277199,
			"0.006": 5.84334258055,
			"0.007": 6.81475974298,
			"0.008": 6.93748446771,
			"0.009": 6.96127547788,
			"0.01": 7.84350714941,
			"0.011": 7.66013067813,
			"0.012": 4.74748758611,
			"0.013": 6.74799308553,
			"0.014": 3.78115720443,
			"0.015": 0.669224979599,
			"0.016": 0.0110057036604,
			"0.017": 0.0,
			"0.018": 0.0,
			"0.019": 0.0,
			"0.02": 0.0,
			"0.021": 0.0,
			"0.022": 0.0,
			"0.023": 0.0,
			"0.024": 0.0,
			"0.025": 0.0
		}
	}
}
