{
	 "smiles": "CC(C)CC1=NC(=CS1)C(O)=O", 
	 "Tm": 378.15, 
	 "num_atms": 23, 
	 "gaussian": { 
		 "optdone": 1, 
		 "sigma_profile": "yes", 
		 "theory": "DFT", 
		 "functional": "B3LYP", 
		 "basiset": "6-31G**", 
		 "properties": { 
			 "R2extent": 4242.032, 
			 "electric_dipole_moment_norm": 2.71097480807, 
			 "electric_quadrupole_moment_norm": 12.1328740317, 
			 "total_energy": -914.88631939, 
			 "HOMO_LUMO_gap": 0.20446, 
			 "cosmo_polarized_energy": -12.78, 
			 "cosmo_cavitation_energy": 28.6, 
			 "cosmo_dispersion_energy": -20.43, 
			 "cosmo_repulsion_energy": 1.61, 
			 "cosmo_total_nonelectrostatic_energy": 9.78, 
			 "SMD_solvation_energy": 4.82 
		},
		"coords": [
			{
				"x": -0.1987126973,
				"y": 1.4598446654,
				"z": 0.1056098633,
				"element": "C" 
			},
			{
				"x": -0.0644144579,
				"y": 0.6417963044,
				"z": -1.1857573761,
				"element": "C" 
			},
			{
				"x": -1.1269854184,
				"y": -0.4626020894,
				"z": -1.2690255798,
				"element": "C" 
			},
			{
				"x": 1.3754840776,
				"y": 0.0890381155,
				"z": -1.3853957266,
				"element": "C" 
			},
			{
				"x": 1.8072329751,
				"y": -0.9560719712,
				"z": -0.3942929547,
				"element": "C" 
			},
			{
				"x": 2.1302532,
				"y": -0.7279822782,
				"z": 0.8424371392,
				"element": "N" 
			},
			{
				"x": 2.4728511254,
				"y": -1.8876626949,
				"z": 1.5023206006,
				"element": "C" 
			},
			{
				"x": 2.4182521548,
				"y": -3.0381644012,
				"z": 0.7564485824,
				"element": "C" 
			},
			{
				"x": 1.9127082908,
				"y": -2.6706297484,
				"z": -0.8477079179,
				"element": "S" 
			},
			{
				"x": 2.8695185419,
				"y": -1.8218267636,
				"z": 2.9293546275,
				"element": "C" 
			},
			{
				"x": 3.1853605627,
				"y": -3.0523472018,
				"z": 3.4167682934,
				"element": "O" 
			},
			{
				"x": 2.9152134116,
				"y": -0.8182144791,
				"z": 3.6042615605,
				"element": "O" 
			},
			{
				"x": -1.2082726433,
				"y": 1.8761582233,
				"z": 0.19126801,
				"element": "H" 
			},
			{
				"x": 0.5118977558,
				"y": 2.2929325708,
				"z": 0.1235160473,
				"element": "H" 
			},
			{
				"x": -0.0036527516,
				"y": 0.8460992324,
				"z": 0.9894537293,
				"element": "H" 
			},
			{
				"x": -0.2253064647,
				"y": 1.3232844122,
				"z": -2.0331276749,
				"element": "H" 
			},
			{
				"x": -1.0392089125,
				"y": -1.041562496,
				"z": -2.1956045844,
				"element": "H" 
			},
			{
				"x": -1.0447320657,
				"y": -1.1604747973,
				"z": -0.4286007182,
				"element": "H" 
			},
			{
				"x": -2.1326759544,
				"y": -0.0307306664,
				"z": -1.2403932942,
				"element": "H" 
			},
			{
				"x": 2.0859778041,
				"y": 0.9204455835,
				"z": -1.3146104103,
				"element": "H" 
			},
			{
				"x": 1.4609682642,
				"y": -0.3227951027,
				"z": -2.3972028271,
				"element": "H" 
			},
			{
				"x": 2.6505729157,
				"y": -4.0434442282,
				"z": 1.0745326344,
				"element": "H" 
			},
			{
				"x": 3.427870286,
				"y": -2.9107901892,
				"z": 4.3463479764,
				"element": "H" 
			}
		],
		 "valence_orbital": [ 
			{
				"type": "occ",
				"energy": -0.31896,
				"method": "rhf"
			},
			{
				"type": "occ",
				"energy": -0.29279,
				"method": "rhf"
			},
			{
				"type": "occ",
				"energy": -0.27896,
				"method": "rhf"
			},
			{
				"type": "occ",
				"energy": -0.27373,
				"method": "rhf"
			},
			{
				"type": "occ",
				"energy": -0.25351,
				"method": "rhf"
			},
			{
				"type": "unocc",
				"energy": -0.04905,
				"method": "rhf"
			},
			{
				"type": "unocc",
				"energy": -0.0107,
				"method": "rhf"
			},
			{
				"type": "unocc",
				"energy": 0.00648,
				"method": "rhf"
			},
			{
				"type": "unocc",
				"energy": 0.07806,
				"method": "rhf"
			},
			{
				"type": "unocc",
				"energy": 0.08585,
				"method": "rhf"
			}
		],
		"cosmo_sigma_profile": { 
			"-0.025": 0.0,
			"-0.024": 0.0,
			"-0.023": 0.0,
			"-0.022": 0.0,
			"-0.021": 0.0,
			"-0.02": 0.0,
			"-0.019": 0.0700301460347,
			"-0.018": 0.920416342888,
			"-0.017": 0.792244423549,
			"-0.016": 0.847180401034,
			"-0.015": 0.74907780566,
			"-0.014": 0.458521901598,
			"-0.013": 0.497233709259,
			"-0.012": 0.712868521621,
			"-0.011": 1.4047301773,
			"-0.01": 1.90223471872,
			"-0.009": 1.84813545446,
			"-0.008": 1.76609011773,
			"-0.007": 2.43640271862,
			"-0.006": 5.03889398768,
			"-0.005": 7.52771805546,
			"-0.004": 8.07536776249,
			"-0.003": 20.4931524425,
			"-0.002": 27.9288514439,
			"-0.001": 28.5072072708,
			"0.0": 28.6405569837,
			"0.001": 30.7128765604,
			"0.002": 14.8072377148,
			"0.003": 4.27400924717,
			"0.004": 3.69200096302,
			"0.005": 4.28007867009,
			"0.006": 2.75435670125,
			"0.007": 4.12996137904,
			"0.008": 2.32523410881,
			"0.009": 3.18584608707,
			"0.01": 2.61627069263,
			"0.011": 4.36928892187,
			"0.012": 4.41480897487,
			"0.013": 2.54325784527,
			"0.014": 1.48665684216,
			"0.015": 1.14511956388,
			"0.016": 0.311168579619,
			"0.017": 0.0,
			"0.018": 0.0,
			"0.019": 0.0,
			"0.02": 0.0,
			"0.021": 0.0,
			"0.022": 0.0,
			"0.023": 0.0,
			"0.024": 0.0,
			"0.025": 0.0
		}
	}
}
