{
	 "smiles": "CC1=C(Br)SC(=N1)C1=CC=CC=C1", 
	 "Tm": 333.15, 
	 "num_atms": 21, 
	 "gaussian": { 
		 "optdone": 1, 
		 "sigma_profile": "yes", 
		 "theory": "DFT", 
		 "functional": "B3LYP", 
		 "basiset": "6-31G**", 
		 "properties": { 
			 "R2extent": 5486.7683, 
			 "electric_dipole_moment_norm": 1.05535143436, 
			 "electric_quadrupole_moment_norm": 10.2419661701, 
			 "total_energy": -3410.22781517, 
			 "HOMO_LUMO_gap": 0.15915, 
			 "cosmo_polarized_energy": -5.11, 
			 "cosmo_cavitation_energy": 29.05, 
			 "cosmo_dispersion_energy": -22.3, 
			 "cosmo_repulsion_energy": 1.71, 
			 "cosmo_total_nonelectrostatic_energy": 8.47, 
			 "SMD_solvation_energy": 2.32 
		},
		"coords": [
			{
				"x": -3.35631186,
				"y": -1.3540573848,
				"z": -0.4210510335,
				"element": "C" 
			},
			{
				"x": -1.8868582894,
				"y": -1.2285790858,
				"z": -0.6998208646,
				"element": "C" 
			},
			{
				"x": -1.2453283021,
				"y": -1.6090703684,
				"z": -1.8509236931,
				"element": "C" 
			},
			{
				"x": -2.0262796642,
				"y": -2.3841695141,
				"z": -3.3783915611,
				"element": "Br" 
			},
			{
				"x": 0.4623267553,
				"y": -1.2897623957,
				"z": -1.7639812406,
				"element": "S" 
			},
			{
				"x": 0.2024115141,
				"y": -0.6454941072,
				"z": -0.1395337018,
				"element": "C" 
			},
			{
				"x": -1.0476845856,
				"y": -0.6896274381,
				"z": 0.2459260366,
				"element": "N" 
			},
			{
				"x": 1.2967297958,
				"y": -0.1158829271,
				"z": 0.6838364728,
				"element": "C" 
			},
			{
				"x": 2.6258078433,
				"y": -0.087364513,
				"z": 0.2310194024,
				"element": "C" 
			},
			{
				"x": 3.638115927,
				"y": 0.4228647663,
				"z": 1.0405699989,
				"element": "C" 
			},
			{
				"x": 3.3395484881,
				"y": 0.9122020975,
				"z": 2.3138851616,
				"element": "C" 
			},
			{
				"x": 2.0194702688,
				"y": 0.8875278693,
				"z": 2.772298047,
				"element": "C" 
			},
			{
				"x": 1.004411821,
				"y": 0.3789499864,
				"z": 1.9676795807,
				"element": "C" 
			},
			{
				"x": -3.9498814646,
				"y": -0.7922669937,
				"z": -1.1498750177,
				"element": "H" 
			},
			{
				"x": -3.6839271131,
				"y": -2.3977620407,
				"z": -0.4707051314,
				"element": "H" 
			},
			{
				"x": -3.567627388,
				"y": -0.9669423898,
				"z": 0.5768230511,
				"element": "H" 
			},
			{
				"x": 2.8747504842,
				"y": -0.464435881,
				"z": -0.7574296466,
				"element": "H" 
			},
			{
				"x": 4.6609946219,
				"y": 0.4380400916,
				"z": 0.6760960202,
				"element": "H" 
			},
			{
				"x": 4.1295172111,
				"y": 1.309778996,
				"z": 2.9442027783,
				"element": "H" 
			},
			{
				"x": 1.7804199122,
				"y": 1.2666461908,
				"z": 3.7617430183,
				"element": "H" 
			},
			{
				"x": -0.023605976,
				"y": 0.3542050415,
				"z": 2.3114323224,
				"element": "H" 
			}
		],
		 "valence_orbital": [ 
			{
				"type": "occ",
				"energy": -0.28101,
				"method": "rhf"
			},
			{
				"type": "occ",
				"energy": -0.27486,
				"method": "rhf"
			},
			{
				"type": "occ",
				"energy": -0.27371,
				"method": "rhf"
			},
			{
				"type": "occ",
				"energy": -0.25833,
				"method": "rhf"
			},
			{
				"type": "occ",
				"energy": -0.21768,
				"method": "rhf"
			},
			{
				"type": "unocc",
				"energy": -0.05853,
				"method": "rhf"
			},
			{
				"type": "unocc",
				"energy": -0.00855,
				"method": "rhf"
			},
			{
				"type": "unocc",
				"energy": -0.0045,
				"method": "rhf"
			},
			{
				"type": "unocc",
				"energy": 0.01135,
				"method": "rhf"
			},
			{
				"type": "unocc",
				"energy": 0.01404,
				"method": "rhf"
			}
		],
		"cosmo_sigma_profile": { 
			"-0.025": 0.0,
			"-0.024": 0.0,
			"-0.023": 0.0,
			"-0.022": 0.0,
			"-0.021": 0.0,
			"-0.02": 0.0,
			"-0.019": 0.0,
			"-0.018": 0.0,
			"-0.017": 0.0,
			"-0.016": 0.0,
			"-0.015": 0.0,
			"-0.014": 0.0,
			"-0.013": 0.0,
			"-0.012": 0.0,
			"-0.011": 0.0,
			"-0.01": 0.0,
			"-0.009": 0.0,
			"-0.008": 0.0448039667066,
			"-0.007": 2.2138992124,
			"-0.006": 9.19713899754,
			"-0.005": 15.2890604114,
			"-0.004": 17.3186904491,
			"-0.003": 16.1960261766,
			"-0.002": 18.5043894596,
			"-0.001": 22.4499293219,
			"0.0": 27.1532419928,
			"0.001": 27.177031594,
			"0.002": 25.8892304819,
			"0.003": 24.9772445096,
			"0.004": 16.8457531573,
			"0.005": 7.96723508342,
			"0.006": 1.77008214385,
			"0.007": 1.28287123162,
			"0.008": 1.63632102511,
			"0.009": 1.22416776542,
			"0.01": 1.11314060499,
			"0.011": 0.641610416758,
			"0.012": 0.0,
			"0.013": 0.0,
			"0.014": 0.0,
			"0.015": 0.0,
			"0.016": 0.0,
			"0.017": 0.0,
			"0.018": 0.0,
			"0.019": 0.0,
			"0.02": 0.0,
			"0.021": 0.0,
			"0.022": 0.0,
			"0.023": 0.0,
			"0.024": 0.0,
			"0.025": 0.0
		}
	}
}
