{
	 "smiles": "NC1=CN=C(C=C1)C(O)=O", 
	 "Tm": 491.15, 
	 "num_atms": 16, 
	 "gaussian": { 
		 "optdone": 1, 
		 "sigma_profile": "yes", 
		 "theory": "DFT", 
		 "functional": "B3LYP", 
		 "basiset": "6-31G**", 
		 "properties": { 
			 "R2extent": 2928.9547, 
			 "electric_dipole_moment_norm": 5.43049326489, 
			 "electric_quadrupole_moment_norm": 22.5440280021, 
			 "total_energy": -492.215509499, 
			 "HOMO_LUMO_gap": 0.18457, 
			 "cosmo_polarized_energy": -20.11, 
			 "cosmo_cavitation_energy": 21.05, 
			 "cosmo_dispersion_energy": -15.83, 
			 "cosmo_repulsion_energy": 1.3, 
			 "cosmo_total_nonelectrostatic_energy": 6.52, 
			 "SMD_solvation_energy": 3.74 
		},
		"coords": [
			{
				"x": 0.317299535,
				"y": -0.3442903497,
				"z": -1.6691739616,
				"element": "N" 
			},
			{
				"x": 0.8190809244,
				"y": 0.1499780673,
				"z": -0.4818048178,
				"element": "C" 
			},
			{
				"x": 1.8696538785,
				"y": 1.0981586148,
				"z": -0.4781099746,
				"element": "C" 
			},
			{
				"x": 2.3681107636,
				"y": 1.6479868871,
				"z": 0.6170736843,
				"element": "N" 
			},
			{
				"x": 1.851613894,
				"y": 1.2917942623,
				"z": 1.8058264942,
				"element": "C" 
			},
			{
				"x": 0.8098597303,
				"y": 0.3610259985,
				"z": 1.916301827,
				"element": "C" 
			},
			{
				"x": 0.2893840848,
				"y": -0.2156827188,
				"z": 0.7653508673,
				"element": "C" 
			},
			{
				"x": 2.4564447961,
				"y": 1.9452163036,
				"z": 3.0026375166,
				"element": "C" 
			},
			{
				"x": 1.8701419929,
				"y": 1.5256531794,
				"z": 4.161711198,
				"element": "O" 
			},
			{
				"x": 3.35758758,
				"y": 2.7535598814,
				"z": 2.9962218641,
				"element": "O" 
			},
			{
				"x": -0.1960385522,
				"y": -1.212308999,
				"z": -1.6278029245,
				"element": "H" 
			},
			{
				"x": 0.9069778665,
				"y": -0.2595529378,
				"z": -2.4842967308,
				"element": "H" 
			},
			{
				"x": 2.3099367846,
				"y": 1.4101036715,
				"z": -1.4262562974,
				"element": "H" 
			},
			{
				"x": 0.4209467702,
				"y": 0.0963569867,
				"z": 2.8921710453,
				"element": "H" 
			},
			{
				"x": -0.5201645607,
				"y": -0.9386262873,
				"z": 0.8255914755,
				"element": "H" 
			},
			{
				"x": 2.331464512,
				"y": 2.0059274401,
				"z": 4.8681587345,
				"element": "H" 
			}
		],
		 "valence_orbital": [ 
			{
				"type": "occ",
				"energy": -0.30548,
				"method": "rhf"
			},
			{
				"type": "occ",
				"energy": -0.28453,
				"method": "rhf"
			},
			{
				"type": "occ",
				"energy": -0.26285,
				"method": "rhf"
			},
			{
				"type": "occ",
				"energy": -0.25683,
				"method": "rhf"
			},
			{
				"type": "occ",
				"energy": -0.22475,
				"method": "rhf"
			},
			{
				"type": "unocc",
				"energy": -0.04018,
				"method": "rhf"
			},
			{
				"type": "unocc",
				"energy": -0.02157,
				"method": "rhf"
			},
			{
				"type": "unocc",
				"energy": 0.05842,
				"method": "rhf"
			},
			{
				"type": "unocc",
				"energy": 0.07272,
				"method": "rhf"
			},
			{
				"type": "unocc",
				"energy": 0.08784,
				"method": "rhf"
			}
		],
		"cosmo_sigma_profile": { 
			"-0.025": 0.0,
			"-0.024": 0.0,
			"-0.023": 0.0,
			"-0.022": 0.0,
			"-0.021": 0.0,
			"-0.02": 0.0,
			"-0.019": 0.0,
			"-0.018": 0.439086745253,
			"-0.017": 0.923941433064,
			"-0.016": 0.816863542885,
			"-0.015": 0.84366016909,
			"-0.014": 2.07215280283,
			"-0.013": 3.80592612347,
			"-0.012": 3.56888932532,
			"-0.011": 3.77397339397,
			"-0.01": 5.07446082738,
			"-0.009": 3.41412609911,
			"-0.008": 4.17450245658,
			"-0.007": 5.88707295036,
			"-0.006": 6.74409655227,
			"-0.005": 6.06043361958,
			"-0.004": 5.38974721774,
			"-0.003": 5.44069823877,
			"-0.002": 8.13507802103,
			"-0.001": 8.74533197466,
			"0.0": 8.95589653997,
			"0.001": 13.7610368411,
			"0.002": 14.2132020429,
			"0.003": 8.56094234966,
			"0.004": 5.45460012181,
			"0.005": 4.50858895858,
			"0.006": 4.86226296475,
			"0.007": 4.27598553632,
			"0.008": 3.55354002589,
			"0.009": 2.62974840078,
			"0.01": 3.58711994892,
			"0.011": 3.45754452864,
			"0.012": 5.97083302862,
			"0.013": 2.75344474835,
			"0.014": 1.75366751433,
			"0.015": 0.866181899883,
			"0.016": 1.61253205468,
			"0.017": 0.862881557754,
			"0.018": 0.899058707005,
			"0.019": 0.0641465547026,
			"0.02": 0.0,
			"0.021": 0.0,
			"0.022": 0.0,
			"0.023": 0.0,
			"0.024": 0.0,
			"0.025": 0.0
		}
	}
}
