{
	 "smiles": "CC(=O)NC1=CC=C(C=C1)C1=CSC(N)=N1", 
	 "Tm": 523.15, 
	 "num_atms": 27, 
	 "gaussian": { 
		 "optdone": 1, 
		 "sigma_profile": "yes", 
		 "theory": "DFT", 
		 "functional": "B3LYP", 
		 "basiset": "6-31G**", 
		 "properties": { 
			 "R2extent": 7180.5195, 
			 "electric_dipole_moment_norm": 4.97229141242, 
			 "electric_quadrupole_moment_norm": 24.0844696628, 
			 "total_energy": -1063.48482267, 
			 "HOMO_LUMO_gap": 0.16304, 
			 "cosmo_polarized_energy": -18.41, 
			 "cosmo_cavitation_energy": 33.27, 
			 "cosmo_dispersion_energy": -24.98, 
			 "cosmo_repulsion_energy": 1.9, 
			 "cosmo_total_nonelectrostatic_energy": 10.19, 
			 "SMD_solvation_energy": 5.1 
		},
		"coords": [
			{
				"x": 1.0645228072,
				"y": -1.6467572743,
				"z": 2.96657461,
				"element": "C" 
			},
			{
				"x": 2.2105683575,
				"y": -1.9791179714,
				"z": 2.0301297694,
				"element": "C" 
			},
			{
				"x": 3.1880418309,
				"y": -2.6117729825,
				"z": 2.4040109442,
				"element": "O" 
			},
			{
				"x": 2.1353059796,
				"y": -1.566976724,
				"z": 0.7088795537,
				"element": "N" 
			},
			{
				"x": 1.1453307753,
				"y": -0.8611242593,
				"z": -0.008007589,
				"element": "C" 
			},
			{
				"x": 0.4618983564,
				"y": 0.2435713481,
				"z": 0.523650546,
				"element": "C" 
			},
			{
				"x": -0.4895865602,
				"y": 0.9143890386,
				"z": -0.2373438096,
				"element": "C" 
			},
			{
				"x": -0.7763727494,
				"y": 0.5314278139,
				"z": -1.5573881722,
				"element": "C" 
			},
			{
				"x": -0.0614126422,
				"y": -0.5527890916,
				"z": -2.0934762014,
				"element": "C" 
			},
			{
				"x": 0.8756651115,
				"y": -1.2403337744,
				"z": -1.331965443,
				"element": "C" 
			},
			{
				"x": -1.7809768549,
				"y": 1.2294412804,
				"z": -2.3792796429,
				"element": "C" 
			},
			{
				"x": -2.6344939787,
				"y": 2.2134916058,
				"z": -1.9577823038,
				"element": "C" 
			},
			{
				"x": -3.6570164271,
				"y": 2.7428401372,
				"z": -3.2684445778,
				"element": "S" 
			},
			{
				"x": -2.8247383366,
				"y": 1.5781984478,
				"z": -4.3097701814,
				"element": "C" 
			},
			{
				"x": -3.2056235827,
				"y": 1.4002274111,
				"z": -5.6202519517,
				"element": "N" 
			},
			{
				"x": -1.9006307855,
				"y": 0.8825308241,
				"z": -3.7196151087,
				"element": "N" 
			},
			{
				"x": 0.0934146736,
				"y": -1.6335018132,
				"z": 2.4671341625,
				"element": "H" 
			},
			{
				"x": 1.2244952413,
				"y": -0.6666314377,
				"z": 3.4284759731,
				"element": "H" 
			},
			{
				"x": 1.0702958996,
				"y": -2.3943610105,
				"z": 3.7605587243,
				"element": "H" 
			},
			{
				"x": 2.8953952419,
				"y": -1.9554203051,
				"z": 0.1632598365,
				"element": "H" 
			},
			{
				"x": 0.6939686794,
				"y": 0.5987563526,
				"z": 1.5205193894,
				"element": "H" 
			},
			{
				"x": -0.9928874753,
				"y": 1.7702057003,
				"z": 0.2021534239,
				"element": "H" 
			},
			{
				"x": -0.263281925,
				"y": -0.853823752,
				"z": -3.114930103,
				"element": "H" 
			},
			{
				"x": 1.4013630169,
				"y": -2.0904428698,
				"z": -1.7590825768,
				"element": "H" 
			},
			{
				"x": -2.7413153546,
				"y": 2.6534777255,
				"z": -0.9780917585,
				"element": "H" 
			},
			{
				"x": -3.5615539873,
				"y": 2.2099358258,
				"z": -6.1076499768,
				"element": "H" 
			},
			{
				"x": -2.5380753118,
				"y": 0.8597597544,
				"z": -6.1548675362,
				"element": "H" 
			}
		],
		 "valence_orbital": [ 
			{
				"type": "occ",
				"energy": -0.27625,
				"method": "rhf"
			},
			{
				"type": "occ",
				"energy": -0.25742,
				"method": "rhf"
			},
			{
				"type": "occ",
				"energy": -0.24953,
				"method": "rhf"
			},
			{
				"type": "occ",
				"energy": -0.23523,
				"method": "rhf"
			},
			{
				"type": "occ",
				"energy": -0.19933,
				"method": "rhf"
			},
			{
				"type": "unocc",
				"energy": -0.03629,
				"method": "rhf"
			},
			{
				"type": "unocc",
				"energy": -0.00812,
				"method": "rhf"
			},
			{
				"type": "unocc",
				"energy": 0.00419,
				"method": "rhf"
			},
			{
				"type": "unocc",
				"energy": 0.00955,
				"method": "rhf"
			},
			{
				"type": "unocc",
				"energy": 0.03239,
				"method": "rhf"
			}
		],
		"cosmo_sigma_profile": { 
			"-0.025": 0.0,
			"-0.024": 0.0,
			"-0.023": 0.0,
			"-0.022": 0.0,
			"-0.021": 0.0,
			"-0.02": 0.0,
			"-0.019": 0.0,
			"-0.018": 0.0,
			"-0.017": 0.0,
			"-0.016": 0.0,
			"-0.015": 0.328558430288,
			"-0.014": 2.7147345314,
			"-0.013": 3.69516962049,
			"-0.012": 3.50768054948,
			"-0.011": 3.76440133534,
			"-0.01": 4.02704831867,
			"-0.009": 4.17699815811,
			"-0.008": 6.09100961648,
			"-0.007": 7.41181096984,
			"-0.006": 11.6497474457,
			"-0.005": 12.4050576214,
			"-0.004": 16.0146458198,
			"-0.003": 15.4744987015,
			"-0.002": 16.5564641671,
			"-0.001": 16.634605877,
			"0.0": 13.9183389756,
			"0.001": 13.6157625276,
			"0.002": 18.9733209327,
			"0.003": 21.7389178345,
			"0.004": 26.0603035307,
			"0.005": 14.439230035,
			"0.006": 4.65136222597,
			"0.007": 3.10122548163,
			"0.008": 4.93276082061,
			"0.009": 2.66731827773,
			"0.01": 2.88900229125,
			"0.011": 3.83272092713,
			"0.012": 2.92189123171,
			"0.013": 4.83300668217,
			"0.014": 4.15381241118,
			"0.015": 0.570938208007,
			"0.016": 0.0,
			"0.017": 0.0,
			"0.018": 0.0,
			"0.019": 0.0,
			"0.02": 0.0,
			"0.021": 0.0,
			"0.022": 0.0,
			"0.023": 0.0,
			"0.024": 0.0,
			"0.025": 0.0
		}
	}
}
