{
	 "smiles": "CN1CCN(C)CC1", 
	 "Tm": 272.15, 
	 "num_atms": 22, 
	 "gaussian": { 
		 "optdone": 1, 
		 "sigma_profile": "yes", 
		 "theory": "DFT", 
		 "functional": "B3LYP", 
		 "basiset": "6-31G**", 
		 "properties": { 
			 "R2extent": 1179.6805, 
			 "electric_dipole_moment_norm": 0.957297811551, 
			 "electric_quadrupole_moment_norm": 3.11925289292, 
			 "total_energy": -346.548366244, 
			 "HOMO_LUMO_gap": 0.26974, 
			 "cosmo_polarized_energy": -3.8, 
			 "cosmo_cavitation_energy": 21.98, 
			 "cosmo_dispersion_energy": -16.56, 
			 "cosmo_repulsion_energy": 1.36, 
			 "cosmo_total_nonelectrostatic_energy": 6.79, 
			 "SMD_solvation_energy": -0.22 
		},
		"coords": [
			{
				"x": 1.78484146,
				"y": 0.9853554467,
				"z": -1.6267392805,
				"element": "C" 
			},
			{
				"x": 0.6532351027,
				"y": 0.2541249425,
				"z": -1.0872243818,
				"element": "N" 
			},
			{
				"x": -0.6238655885,
				"y": 0.8487409566,
				"z": -1.490117173,
				"element": "C" 
			},
			{
				"x": -1.7937572306,
				"y": -0.1259276603,
				"z": -1.1808297139,
				"element": "C" 
			},
			{
				"x": -1.4980152187,
				"y": -1.0765134497,
				"z": -0.1174083271,
				"element": "N" 
			},
			{
				"x": -1.3770247508,
				"y": -0.4606169053,
				"z": 1.2024621366,
				"element": "C" 
			},
			{
				"x": -0.3529926236,
				"y": -1.9148056174,
				"z": -0.4997486602,
				"element": "C" 
			},
			{
				"x": 0.6889488755,
				"y": -1.1738105842,
				"z": -1.381405168,
				"element": "C" 
			},
			{
				"x": 1.8344999688,
				"y": 0.9641677011,
				"z": -2.7334321791,
				"element": "H" 
			},
			{
				"x": 2.7200460178,
				"y": 0.5692717958,
				"z": -1.2371992228,
				"element": "H" 
			},
			{
				"x": 1.7260677971,
				"y": 2.0349474027,
				"z": -1.3178539243,
				"element": "H" 
			},
			{
				"x": -0.6391111617,
				"y": 1.0958552544,
				"z": -2.5713675579,
				"element": "H" 
			},
			{
				"x": -0.7438601889,
				"y": 1.7954489244,
				"z": -0.9483171095,
				"element": "H" 
			},
			{
				"x": -2.6956952393,
				"y": 0.4400694982,
				"z": -0.9238640209,
				"element": "H" 
			},
			{
				"x": -2.0333223104,
				"y": -0.7042462982,
				"z": -2.08232106,
				"element": "H" 
			},
			{
				"x": -0.5214361314,
				"y": 0.2245884279,
				"z": 1.3067732596,
				"element": "H" 
			},
			{
				"x": -1.2808761541,
				"y": -1.2466564611,
				"z": 1.9593068813,
				"element": "H" 
			},
			{
				"x": -2.2970652339,
				"y": 0.0933391537,
				"z": 1.4218043557,
				"element": "H" 
			},
			{
				"x": -0.7139287501,
				"y": -2.7990118517,
				"z": -1.0451055117,
				"element": "H" 
			},
			{
				"x": 0.1240610015,
				"y": -2.2762045259,
				"z": 0.4159246008,
				"element": "H" 
			},
			{
				"x": 1.6950897656,
				"y": -1.552041308,
				"z": -1.1692550509,
				"element": "H" 
			},
			{
				"x": 0.5003605929,
				"y": -1.3771748422,
				"z": -2.4556828922,
				"element": "H" 
			}
		],
		 "valence_orbital": [ 
			{
				"type": "occ",
				"energy": -0.34443,
				"method": "rhf"
			},
			{
				"type": "occ",
				"energy": -0.33924,
				"method": "rhf"
			},
			{
				"type": "occ",
				"energy": -0.32443,
				"method": "rhf"
			},
			{
				"type": "occ",
				"energy": -0.20874,
				"method": "rhf"
			},
			{
				"type": "occ",
				"energy": -0.19275,
				"method": "rhf"
			},
			{
				"type": "unocc",
				"energy": 0.07699,
				"method": "rhf"
			},
			{
				"type": "unocc",
				"energy": 0.11232,
				"method": "rhf"
			},
			{
				"type": "unocc",
				"energy": 0.11782,
				"method": "rhf"
			},
			{
				"type": "unocc",
				"energy": 0.12536,
				"method": "rhf"
			},
			{
				"type": "unocc",
				"energy": 0.13603,
				"method": "rhf"
			}
		],
		"cosmo_sigma_profile": { 
			"-0.025": 0.0,
			"-0.024": 0.0,
			"-0.023": 0.0,
			"-0.022": 0.0,
			"-0.021": 0.0,
			"-0.02": 0.0,
			"-0.019": 0.0,
			"-0.018": 0.0,
			"-0.017": 0.0,
			"-0.016": 0.0,
			"-0.015": 0.0,
			"-0.014": 0.0,
			"-0.013": 0.0,
			"-0.012": 0.0,
			"-0.011": 0.0,
			"-0.01": 0.0,
			"-0.009": 0.0,
			"-0.008": 0.0,
			"-0.007": 0.0,
			"-0.006": 0.0,
			"-0.005": 0.0,
			"-0.004": 5.62154785907,
			"-0.003": 23.4491405331,
			"-0.002": 29.8940273679,
			"-0.001": 36.371805952,
			"0.0": 32.6385420137,
			"0.001": 15.5774812315,
			"0.002": 3.98806495746,
			"0.003": 3.0154601136,
			"0.004": 1.87775959271,
			"0.005": 2.02381134244,
			"0.006": 2.26090010527,
			"0.007": 1.93530096881,
			"0.008": 1.96021595354,
			"0.009": 1.53786451077,
			"0.01": 0.974750118069,
			"0.011": 1.53538269946,
			"0.012": 1.56994154385,
			"0.013": 0.829429544336,
			"0.014": 0.241704587216,
			"0.015": 0.426025675444,
			"0.016": 0.579872846544,
			"0.017": 0.443090909128,
			"0.018": 0.0,
			"0.019": 0.0,
			"0.02": 0.0,
			"0.021": 0.0,
			"0.022": 0.0,
			"0.023": 0.0,
			"0.024": 0.0,
			"0.025": 0.0
		}
	}
}
