{
	 "smiles": "CCC1=C(CO)C2=C(C3=CC=CC=C3N2)C(=C1)C(F)(F)F", 
	 "Tm": 425.15, 
	 "num_atms": 35, 
	 "gaussian": { 
		 "optdone": 1, 
		 "sigma_profile": "yes", 
		 "theory": "DFT", 
		 "functional": "B3LYP", 
		 "basiset": "6-31G**", 
		 "properties": { 
			 "R2extent": 6625.204, 
			 "electric_dipole_moment_norm": 3.70907863761, 
			 "electric_quadrupole_moment_norm": 8.60662660396, 
			 "total_energy": -1047.67292222, 
			 "HOMO_LUMO_gap": 0.16507, 
			 "cosmo_polarized_energy": -10.98, 
			 "cosmo_cavitation_energy": 38.18, 
			 "cosmo_dispersion_energy": -27.08, 
			 "cosmo_repulsion_energy": 1.99, 
			 "cosmo_total_nonelectrostatic_energy": 13.09, 
			 "SMD_solvation_energy": 6.65 
		},
		"coords": [
			{
				"x": -2.6045040374,
				"y": -0.5479309282,
				"z": -2.6789603897,
				"element": "C" 
			},
			{
				"x": -1.0809483022,
				"y": -0.3722417075,
				"z": -2.8179436787,
				"element": "C" 
			},
			{
				"x": -0.3720672531,
				"y": -0.2139823169,
				"z": -1.4834998226,
				"element": "C" 
			},
			{
				"x": -0.2625260357,
				"y": 1.0231565971,
				"z": -0.8293180878,
				"element": "C" 
			},
			{
				"x": -0.7578630021,
				"y": 2.3326140982,
				"z": -1.4110838287,
				"element": "C" 
			},
			{
				"x": -1.3643534067,
				"y": 3.1936930207,
				"z": -0.4368236089,
				"element": "O" 
			},
			{
				"x": 0.3950051543,
				"y": 1.0386767815,
				"z": 0.4134911176,
				"element": "C" 
			},
			{
				"x": 0.9508418761,
				"y": -0.1146222304,
				"z": 1.0290526329,
				"element": "C" 
			},
			{
				"x": 1.5357251944,
				"y": 0.3277214451,
				"z": 2.28431465,
				"element": "C" 
			},
			{
				"x": 2.2190652288,
				"y": -0.3043190126,
				"z": 3.3354540648,
				"element": "C" 
			},
			{
				"x": 2.6345274763,
				"y": 0.4541792089,
				"z": 4.4248075435,
				"element": "C" 
			},
			{
				"x": 2.3819901702,
				"y": 1.8365646085,
				"z": 4.4860953376,
				"element": "C" 
			},
			{
				"x": 1.7121827887,
				"y": 2.4922479714,
				"z": 3.4579246272,
				"element": "C" 
			},
			{
				"x": 1.2973187292,
				"y": 1.7277807891,
				"z": 2.3642149503,
				"element": "C" 
			},
			{
				"x": 0.6300286159,
				"y": 2.1337116262,
				"z": 1.2219757407,
				"element": "N" 
			},
			{
				"x": 0.8267584755,
				"y": -1.3377517436,
				"z": 0.344981339,
				"element": "C" 
			},
			{
				"x": 0.1737151137,
				"y": -1.3670683794,
				"z": -0.8828245748,
				"element": "C" 
			},
			{
				"x": 1.3911580066,
				"y": -2.607022824,
				"z": 0.9191199698,
				"element": "C" 
			},
			{
				"x": 1.1778811227,
				"y": -3.6770567387,
				"z": 0.1236476838,
				"element": "F" 
			},
			{
				"x": 0.8465222839,
				"y": -2.8984915927,
				"z": 2.1265924315,
				"element": "F" 
			},
			{
				"x": 2.7300016872,
				"y": -2.5204636775,
				"z": 1.114349477,
				"element": "F" 
			},
			{
				"x": -2.839778165,
				"y": -1.4197312742,
				"z": -2.0605562394,
				"element": "H" 
			},
			{
				"x": -3.0733306832,
				"y": -0.6882925682,
				"z": -3.6584263509,
				"element": "H" 
			},
			{
				"x": -3.0686952725,
				"y": 0.3245355515,
				"z": -2.2064869484,
				"element": "H" 
			},
			{
				"x": -0.6700375447,
				"y": -1.2510389124,
				"z": -3.3267486564,
				"element": "H" 
			},
			{
				"x": -0.8683528047,
				"y": 0.4767766426,
				"z": -3.4765814369,
				"element": "H" 
			},
			{
				"x": 0.085767141,
				"y": 2.913720695,
				"z": -1.8029291591,
				"element": "H" 
			},
			{
				"x": -1.4456773964,
				"y": 2.160102716,
				"z": -2.2455069947,
				"element": "H" 
			},
			{
				"x": -2.1193153033,
				"y": 2.7199126235,
				"z": -0.0614017945,
				"element": "H" 
			},
			{
				"x": 2.4201525077,
				"y": -1.3675833968,
				"z": 3.3046021624,
				"element": "H" 
			},
			{
				"x": 3.1625262014,
				"y": -0.0282120435,
				"z": 5.2417123832,
				"element": "H" 
			},
			{
				"x": 2.7169357775,
				"y": 2.4040471393,
				"z": 5.3495898424,
				"element": "H" 
			},
			{
				"x": 1.5199859304,
				"y": 3.5602523538,
				"z": 3.5006365222,
				"element": "H" 
			},
			{
				"x": 0.1783700957,
				"y": 3.0225869769,
				"z": 1.0597379961,
				"element": "H" 
			},
			{
				"x": 0.0870896299,
				"y": -2.3143714985,
				"z": -1.4029089008,
				"element": "H" 
			}
		],
		 "valence_orbital": [ 
			{
				"type": "occ",
				"energy": -0.29612,
				"method": "rhf"
			},
			{
				"type": "occ",
				"energy": -0.27573,
				"method": "rhf"
			},
			{
				"type": "occ",
				"energy": -0.25483,
				"method": "rhf"
			},
			{
				"type": "occ",
				"energy": -0.21569,
				"method": "rhf"
			},
			{
				"type": "occ",
				"energy": -0.20668,
				"method": "rhf"
			},
			{
				"type": "unocc",
				"energy": -0.04161,
				"method": "rhf"
			},
			{
				"type": "unocc",
				"energy": -0.00537,
				"method": "rhf"
			},
			{
				"type": "unocc",
				"energy": 0.02599,
				"method": "rhf"
			},
			{
				"type": "unocc",
				"energy": 0.03204,
				"method": "rhf"
			},
			{
				"type": "unocc",
				"energy": 0.05718,
				"method": "rhf"
			}
		],
		"cosmo_sigma_profile": { 
			"-0.025": 0.0,
			"-0.024": 0.0,
			"-0.023": 0.0,
			"-0.022": 0.0,
			"-0.021": 0.0,
			"-0.02": 0.0,
			"-0.019": 0.0,
			"-0.018": 0.0,
			"-0.017": 0.0,
			"-0.016": 0.567502825132,
			"-0.015": 1.10690255552,
			"-0.014": 0.382909254373,
			"-0.013": 1.17711692843,
			"-0.012": 1.10551811381,
			"-0.011": 2.01381089893,
			"-0.01": 1.90573819228,
			"-0.009": 1.32149959994,
			"-0.008": 1.80293882244,
			"-0.007": 3.39640159601,
			"-0.006": 6.78847388601,
			"-0.005": 18.1030723941,
			"-0.004": 21.2078817693,
			"-0.003": 22.8280570221,
			"-0.002": 21.6339684862,
			"-0.001": 24.4072905849,
			"0.0": 24.1703352626,
			"0.001": 23.2009463202,
			"0.002": 27.8721758377,
			"0.003": 48.0508471447,
			"0.004": 23.6522040931,
			"0.005": 10.9929754371,
			"0.006": 8.65780802472,
			"0.007": 1.73438305734,
			"0.008": 0.701728582357,
			"0.009": 0.649086675949,
			"0.01": 1.05594957328,
			"0.011": 1.15563080749,
			"0.012": 0.913390999958,
			"0.013": 1.01266800323,
			"0.014": 0.2958961507,
			"0.015": 0.0,
			"0.016": 0.0,
			"0.017": 0.0,
			"0.018": 0.0,
			"0.019": 0.0,
			"0.02": 0.0,
			"0.021": 0.0,
			"0.022": 0.0,
			"0.023": 0.0,
			"0.024": 0.0,
			"0.025": 0.0
		}
	}
}
