{
	 "smiles": "OC(=O)CC1=CC=CO1", 
	 "Tm": 339.65, 
	 "num_atms": 15, 
	 "gaussian": { 
		 "optdone": 1, 
		 "sigma_profile": "yes", 
		 "theory": "DFT", 
		 "functional": "B3LYP", 
		 "basiset": "6-31G**", 
		 "properties": { 
			 "R2extent": 1940.4151, 
			 "electric_dipole_moment_norm": 1.45441705504, 
			 "electric_quadrupole_moment_norm": 8.67722129486, 
			 "total_energy": -457.910428693, 
			 "HOMO_LUMO_gap": 0.22871, 
			 "cosmo_polarized_energy": -11.38, 
			 "cosmo_cavitation_energy": 20.14, 
			 "cosmo_dispersion_energy": -14.67, 
			 "cosmo_repulsion_energy": 1.23, 
			 "cosmo_total_nonelectrostatic_energy": 6.7, 
			 "SMD_solvation_energy": 5.76 
		},
		"coords": [
			{
				"x": 2.0038382859,
				"y": 1.815428473,
				"z": -3.0302070043,
				"element": "O" 
			},
			{
				"x": 1.6950522617,
				"y": 0.6657952521,
				"z": -2.3799733229,
				"element": "C" 
			},
			{
				"x": 2.4074990809,
				"y": -0.3091920361,
				"z": -2.3928999709,
				"element": "O" 
			},
			{
				"x": 0.3674469588,
				"y": 0.8136288123,
				"z": -1.6451405778,
				"element": "C" 
			},
			{
				"x": -0.163690859,
				"y": -0.4572484568,
				"z": -1.0843792877,
				"element": "C" 
			},
			{
				"x": -0.262258346,
				"y": -0.9561824269,
				"z": 0.1804528863,
				"element": "C" 
			},
			{
				"x": -0.8823589849,
				"y": -2.2442629081,
				"z": 0.0638967247,
				"element": "C" 
			},
			{
				"x": -1.1159001986,
				"y": -2.4294633756,
				"z": -1.2633585429,
				"element": "C" 
			},
			{
				"x": -0.6881477379,
				"y": -1.3493652438,
				"z": -1.9779115403,
				"element": "O" 
			},
			{
				"x": 2.8627161727,
				"y": 1.6605657948,
				"z": -3.4580633758,
				"element": "H" 
			},
			{
				"x": 0.5196655844,
				"y": 1.5372835594,
				"z": -0.8366783177,
				"element": "H" 
			},
			{
				"x": -0.3485600102,
				"y": 1.2747613142,
				"z": -2.3354759124,
				"element": "H" 
			},
			{
				"x": 0.0706167623,
				"y": -0.4697391553,
				"z": 1.0863571468,
				"element": "H" 
			},
			{
				"x": -1.1191207614,
				"y": -2.9328255592,
				"z": 0.8620841418,
				"element": "H" 
			},
			{
				"x": -1.5566982088,
				"y": -3.2284840441,
				"z": -1.8388030467,
				"element": "H" 
			}
		],
		 "valence_orbital": [ 
			{
				"type": "occ",
				"energy": -0.36427,
				"method": "rhf"
			},
			{
				"type": "occ",
				"energy": -0.3216,
				"method": "rhf"
			},
			{
				"type": "occ",
				"energy": -0.27951,
				"method": "rhf"
			},
			{
				"type": "occ",
				"energy": -0.27334,
				"method": "rhf"
			},
			{
				"type": "occ",
				"energy": -0.2211,
				"method": "rhf"
			},
			{
				"type": "unocc",
				"energy": 0.00761,
				"method": "rhf"
			},
			{
				"type": "unocc",
				"energy": 0.01443,
				"method": "rhf"
			},
			{
				"type": "unocc",
				"energy": 0.07359,
				"method": "rhf"
			},
			{
				"type": "unocc",
				"energy": 0.07888,
				"method": "rhf"
			},
			{
				"type": "unocc",
				"energy": 0.10618,
				"method": "rhf"
			}
		],
		"cosmo_sigma_profile": { 
			"-0.025": 0.0,
			"-0.024": 0.0,
			"-0.023": 0.0,
			"-0.022": 0.0,
			"-0.021": 0.0,
			"-0.02": 0.0,
			"-0.019": 0.0517355376427,
			"-0.018": 0.730178804343,
			"-0.017": 1.16589546755,
			"-0.016": 0.597363671132,
			"-0.015": 0.723969594249,
			"-0.014": 1.06329589008,
			"-0.013": 0.416143816432,
			"-0.012": 0.612970537074,
			"-0.011": 1.37193644964,
			"-0.01": 0.425529268283,
			"-0.009": 1.1212620219,
			"-0.008": 5.47175578247,
			"-0.007": 9.08335320493,
			"-0.006": 11.1147479562,
			"-0.005": 7.70650189708,
			"-0.004": 10.4298223151,
			"-0.003": 10.01218085,
			"-0.002": 8.42132013362,
			"-0.001": 8.54756136483,
			"0.0": 6.10323044265,
			"0.001": 7.61569830893,
			"0.002": 7.96958113146,
			"0.003": 7.5895180365,
			"0.004": 8.55609251144,
			"0.005": 9.82384225469,
			"0.006": 8.15312791447,
			"0.007": 4.77082739655,
			"0.008": 5.25901349956,
			"0.009": 4.16514380757,
			"0.01": 2.94528171926,
			"0.011": 4.97754512771,
			"0.012": 3.53533373784,
			"0.013": 0.163068328788,
			"0.014": 0.0,
			"0.015": 0.0,
			"0.016": 0.0,
			"0.017": 0.0,
			"0.018": 0.0,
			"0.019": 0.0,
			"0.02": 0.0,
			"0.021": 0.0,
			"0.022": 0.0,
			"0.023": 0.0,
			"0.024": 0.0,
			"0.025": 0.0
		}
	}
}
