{
	 "smiles": "CC1=CC(OCCCC(O)=O)=CC=C1", 
	 "Tm": 329.15, 
	 "num_atms": 28, 
	 "gaussian": { 
		 "optdone": 1, 
		 "sigma_profile": "yes", 
		 "theory": "DFT", 
		 "functional": "B3LYP", 
		 "basiset": "6-31G**", 
		 "properties": { 
			 "R2extent": 4402.8628, 
			 "electric_dipole_moment_norm": 2.29670822048, 
			 "electric_quadrupole_moment_norm": 11.1732552535, 
			 "total_energy": -653.298511183, 
			 "HOMO_LUMO_gap": 0.21684, 
			 "cosmo_polarized_energy": -13.04, 
			 "cosmo_cavitation_energy": 31.86, 
			 "cosmo_dispersion_energy": -22.27, 
			 "cosmo_repulsion_energy": 1.79, 
			 "cosmo_total_nonelectrostatic_energy": 11.38, 
			 "SMD_solvation_energy": 6.52 
		},
		"coords": [
			{
				"x": -2.9344667485,
				"y": -1.4407420484,
				"z": -1.8426303168,
				"element": "C" 
			},
			{
				"x": -1.501610517,
				"y": -0.9593487447,
				"z": -1.8567861028,
				"element": "C" 
			},
			{
				"x": -0.7975480551,
				"y": -0.8330350599,
				"z": -0.6469095979,
				"element": "C" 
			},
			{
				"x": 0.5288184914,
				"y": -0.3938799101,
				"z": -0.6434393361,
				"element": "C" 
			},
			{
				"x": 1.2896851836,
				"y": -0.2402964627,
				"z": 0.482939667,
				"element": "O" 
			},
			{
				"x": 0.7186698802,
				"y": -0.5417504005,
				"z": 1.7503867211,
				"element": "C" 
			},
			{
				"x": 1.7833914915,
				"y": -0.3134499887,
				"z": 2.8164588994,
				"element": "C" 
			},
			{
				"x": 3.0447353802,
				"y": -1.164778864,
				"z": 2.6082844378,
				"element": "C" 
			},
			{
				"x": 3.9991088273,
				"y": -0.5607133498,
				"z": 1.5962314587,
				"element": "C" 
			},
			{
				"x": 4.5961992507,
				"y": -1.5079283402,
				"z": 0.834388817,
				"element": "O" 
			},
			{
				"x": 4.2595049303,
				"y": 0.6176117023,
				"z": 1.4958826355,
				"element": "O" 
			},
			{
				"x": 1.1666687002,
				"y": -0.071985787,
				"z": -1.8513435784,
				"element": "C" 
			},
			{
				"x": 0.4693419074,
				"y": -0.1969865346,
				"z": -3.0450711476,
				"element": "C" 
			},
			{
				"x": -0.8589501212,
				"y": -0.6387225164,
				"z": -3.0539268026,
				"element": "C" 
			},
			{
				"x": -3.5647239196,
				"y": -0.8024753869,
				"z": -1.2125664165,
				"element": "H" 
			},
			{
				"x": -3.0097114256,
				"y": -2.4595339666,
				"z": -1.4441557542,
				"element": "H" 
			},
			{
				"x": -3.3630310295,
				"y": -1.4446693491,
				"z": -2.8484073678,
				"element": "H" 
			},
			{
				"x": -1.3008469786,
				"y": -1.0801932871,
				"z": 0.2815523922,
				"element": "H" 
			},
			{
				"x": -0.1537082791,
				"y": 0.1004430953,
				"z": 1.9377110707,
				"element": "H" 
			},
			{
				"x": 0.377126081,
				"y": -1.5880047206,
				"z": 1.7685388636,
				"element": "H" 
			},
			{
				"x": 2.0701324304,
				"y": 0.7425900163,
				"z": 2.8337969262,
				"element": "H" 
			},
			{
				"x": 1.3349615481,
				"y": -0.5506622373,
				"z": 3.787768634,
				"element": "H" 
			},
			{
				"x": 2.8008103068,
				"y": -2.1906951896,
				"z": 2.3178443934,
				"element": "H" 
			},
			{
				"x": 3.6052084084,
				"y": -1.2240028623,
				"z": 3.5500178042,
				"element": "H" 
			},
			{
				"x": 5.2100306045,
				"y": -1.0319681664,
				"z": 0.2496411901,
				"element": "H" 
			},
			{
				"x": 2.1948514966,
				"y": 0.2727338567,
				"z": -1.8205141408,
				"element": "H" 
			},
			{
				"x": 0.9616381098,
				"y": 0.0531711202,
				"z": -3.9807737381,
				"element": "H" 
			},
			{
				"x": -1.3945859541,
				"y": -0.7317266179,
				"z": -3.9945196114,
				"element": "H" 
			}
		],
		 "valence_orbital": [ 
			{
				"type": "occ",
				"energy": -0.30825,
				"method": "rhf"
			},
			{
				"type": "occ",
				"energy": -0.30772,
				"method": "rhf"
			},
			{
				"type": "occ",
				"energy": -0.26904,
				"method": "rhf"
			},
			{
				"type": "occ",
				"energy": -0.23893,
				"method": "rhf"
			},
			{
				"type": "occ",
				"energy": -0.21397,
				"method": "rhf"
			},
			{
				"type": "unocc",
				"energy": 0.00287,
				"method": "rhf"
			},
			{
				"type": "unocc",
				"energy": 0.01565,
				"method": "rhf"
			},
			{
				"type": "unocc",
				"energy": 0.02153,
				"method": "rhf"
			},
			{
				"type": "unocc",
				"energy": 0.0816,
				"method": "rhf"
			},
			{
				"type": "unocc",
				"energy": 0.09108,
				"method": "rhf"
			}
		],
		"cosmo_sigma_profile": { 
			"-0.025": 0.0,
			"-0.024": 0.0,
			"-0.023": 0.0,
			"-0.022": 0.0,
			"-0.021": 0.0,
			"-0.02": 0.0,
			"-0.019": 0.0,
			"-0.018": 0.428597488579,
			"-0.017": 1.00299313288,
			"-0.016": 0.769048697183,
			"-0.015": 1.3574687025,
			"-0.014": 0.189706588862,
			"-0.013": 0.0159723327626,
			"-0.012": 0.627336741594,
			"-0.011": 1.2710845949,
			"-0.01": 0.930884196567,
			"-0.009": 0.346930223616,
			"-0.008": 0.776226737029,
			"-0.007": 1.70795118983,
			"-0.006": 6.03050433855,
			"-0.005": 21.4644166974,
			"-0.004": 30.3010747189,
			"-0.003": 27.5681586283,
			"-0.002": 21.4160472732,
			"-0.001": 19.2832125409,
			"0.0": 16.3129809884,
			"0.001": 12.267490414,
			"0.002": 9.58079068689,
			"0.003": 11.3026525688,
			"0.004": 12.8752338258,
			"0.005": 12.8601574045,
			"0.006": 12.939947325,
			"0.007": 5.56107087475,
			"0.008": 4.0272402083,
			"0.009": 3.18520219564,
			"0.01": 3.60746419621,
			"0.011": 3.67275194888,
			"0.012": 5.62629151808,
			"0.013": 1.28754907921,
			"0.014": 0.0,
			"0.015": 0.0,
			"0.016": 0.0,
			"0.017": 0.0,
			"0.018": 0.0,
			"0.019": 0.0,
			"0.02": 0.0,
			"0.021": 0.0,
			"0.022": 0.0,
			"0.023": 0.0,
			"0.024": 0.0,
			"0.025": 0.0
		}
	}
}
