{
	 "smiles": "OC1=CC(=CC(F)=C1)[N+]([O-])=O", 
	 "Tm": 385.15, 
	 "num_atms": 15, 
	 "gaussian": { 
		 "optdone": 1, 
		 "sigma_profile": "yes", 
		 "theory": "DFT", 
		 "functional": "B3LYP", 
		 "basiset": "6-31G**", 
		 "properties": { 
			 "R2extent": 2560.8966, 
			 "electric_dipole_moment_norm": 3.35323017552, 
			 "electric_quadrupole_moment_norm": 14.353027628, 
			 "total_energy": -611.198119601, 
			 "HOMO_LUMO_gap": 0.15969, 
			 "cosmo_polarized_energy": -11.15, 
			 "cosmo_cavitation_energy": 21.14, 
			 "cosmo_dispersion_energy": -15.56, 
			 "cosmo_repulsion_energy": 1.22, 
			 "cosmo_total_nonelectrostatic_energy": 6.8, 
			 "SMD_solvation_energy": 6.93 
		},
		"coords": [
			{
				"x": -1.4252789064,
				"y": -0.9614382554,
				"z": 0.5833283953,
				"element": "O" 
			},
			{
				"x": -0.3873327517,
				"y": -0.8107352518,
				"z": -0.279889972,
				"element": "C" 
			},
			{
				"x": 0.8847863473,
				"y": -0.4024151398,
				"z": 0.1320613173,
				"element": "C" 
			},
			{
				"x": 1.881048714,
				"y": -0.2784422329,
				"z": -0.8326551606,
				"element": "C" 
			},
			{
				"x": 1.6751295509,
				"y": -0.5398081466,
				"z": -2.1827895099,
				"element": "C" 
			},
			{
				"x": 0.3945185815,
				"y": -0.9430134703,
				"z": -2.5458242254,
				"element": "C" 
			},
			{
				"x": 0.145523327,
				"y": -1.2075288854,
				"z": -3.8397250888,
				"element": "F" 
			},
			{
				"x": -0.6395981959,
				"y": -1.0847406601,
				"z": -1.6305929036,
				"element": "C" 
			},
			{
				"x": 3.2232374991,
				"y": 0.1525954446,
				"z": -0.3975035944,
				"element": "N" 
			},
			{
				"x": 4.0939220899,
				"y": 0.258493297,
				"z": -1.258256695,
				"element": "O" 
			},
			{
				"x": 3.3865866394,
				"y": 0.3791438928,
				"z": 0.8008525282,
				"element": "O" 
			},
			{
				"x": -1.1366722548,
				"y": -0.7465483185,
				"z": 1.4802010625,
				"element": "H" 
			},
			{
				"x": 1.1154045096,
				"y": -0.1822148669,
				"z": 1.1677076568,
				"element": "H" 
			},
			{
				"x": 2.4704508193,
				"y": -0.4339093634,
				"z": -2.9071847729,
				"element": "H" 
			},
			{
				"x": -1.6245259691,
				"y": -1.4012380432,
				"z": -1.9521290375,
				"element": "H" 
			}
		],
		 "valence_orbital": [ 
			{
				"type": "occ",
				"energy": -0.3175,
				"method": "rhf"
			},
			{
				"type": "occ",
				"energy": -0.31554,
				"method": "rhf"
			},
			{
				"type": "occ",
				"energy": -0.29898,
				"method": "rhf"
			},
			{
				"type": "occ",
				"energy": -0.28135,
				"method": "rhf"
			},
			{
				"type": "occ",
				"energy": -0.25698,
				"method": "rhf"
			},
			{
				"type": "unocc",
				"energy": -0.09729,
				"method": "rhf"
			},
			{
				"type": "unocc",
				"energy": -0.01826,
				"method": "rhf"
			},
			{
				"type": "unocc",
				"energy": -0.00263,
				"method": "rhf"
			},
			{
				"type": "unocc",
				"energy": 0.04788,
				"method": "rhf"
			},
			{
				"type": "unocc",
				"energy": 0.07234,
				"method": "rhf"
			}
		],
		"cosmo_sigma_profile": { 
			"-0.025": 0.0,
			"-0.024": 0.0,
			"-0.023": 0.0,
			"-0.022": 0.0,
			"-0.021": 0.0,
			"-0.02": 0.00626337088592,
			"-0.019": 0.786473562817,
			"-0.018": 1.32624785427,
			"-0.017": 1.26362430966,
			"-0.016": 1.19465120612,
			"-0.015": 0.841595569237,
			"-0.014": 1.04465753649,
			"-0.013": 0.891092324502,
			"-0.012": 1.17060776064,
			"-0.011": 0.969872263608,
			"-0.01": 1.45389057278,
			"-0.009": 1.82974624092,
			"-0.008": 3.59364899175,
			"-0.007": 4.4151063298,
			"-0.006": 5.0575599291,
			"-0.005": 5.52484300627,
			"-0.004": 5.80224679397,
			"-0.003": 6.91327996083,
			"-0.002": 9.04679272236,
			"-0.001": 18.1246422994,
			"0.0": 22.5121839873,
			"0.001": 12.2929976971,
			"0.002": 6.36745926693,
			"0.003": 11.4114066292,
			"0.004": 9.033981377,
			"0.005": 5.01215165103,
			"0.006": 5.17089795064,
			"0.007": 11.2432965411,
			"0.008": 6.71301483692,
			"0.009": 5.78527971592,
			"0.01": 3.18370119876,
			"0.011": 0.0652270916749,
			"0.012": 0.0,
			"0.013": 0.0,
			"0.014": 0.0,
			"0.015": 0.0,
			"0.016": 0.0,
			"0.017": 0.0,
			"0.018": 0.0,
			"0.019": 0.0,
			"0.02": 0.0,
			"0.021": 0.0,
			"0.022": 0.0,
			"0.023": 0.0,
			"0.024": 0.0,
			"0.025": 0.0
		}
	}
}
