{
	 "smiles": "NC1=CC(=CC=C1C(O)=O)C(O)=O", 
	 "Tm": 597.15, 
	 "num_atms": 20, 
	 "gaussian": { 
		 "optdone": 1, 
		 "sigma_profile": "yes", 
		 "theory": "DFT", 
		 "functional": "B3LYP", 
		 "basiset": "6-31G**", 
		 "properties": { 
			 "R2extent": 3264.7711, 
			 "electric_dipole_moment_norm": 2.70001783142, 
			 "electric_quadrupole_moment_norm": 15.3515477151, 
			 "total_energy": -664.753730403, 
			 "HOMO_LUMO_gap": 0.14611, 
			 "cosmo_polarized_energy": -18.53, 
			 "cosmo_cavitation_energy": 24.96, 
			 "cosmo_dispersion_energy": -18.88, 
			 "cosmo_repulsion_energy": 1.48, 
			 "cosmo_total_nonelectrostatic_energy": 7.57, 
			 "SMD_solvation_energy": 6.5 
		},
		"coords": [
			{
				"x": -3.4252594049,
				"y": -0.6999716666,
				"z": 0.2587919629,
				"element": "N" 
			},
			{
				"x": -2.107148234,
				"y": -0.4599374555,
				"z": 0.5075257805,
				"element": "C" 
			},
			{
				"x": -1.1712413994,
				"y": -0.4932645351,
				"z": -0.5497682731,
				"element": "C" 
			},
			{
				"x": 0.1775659441,
				"y": -0.248540943,
				"z": -0.3327875355,
				"element": "C" 
			},
			{
				"x": 0.6568356148,
				"y": 0.0384521355,
				"z": 0.9583121549,
				"element": "C" 
			},
			{
				"x": -0.2526618733,
				"y": 0.0925106324,
				"z": 2.0007309303,
				"element": "C" 
			},
			{
				"x": -1.6310364206,
				"y": -0.1275890767,
				"z": 1.8123943495,
				"element": "C" 
			},
			{
				"x": -2.5852011001,
				"y": -0.0596674564,
				"z": 2.9497329875,
				"element": "C" 
			},
			{
				"x": -2.1735315169,
				"y": 0.576657028,
				"z": 4.0760170465,
				"element": "O" 
			},
			{
				"x": -3.7070671058,
				"y": -0.5366237272,
				"z": 2.933099687,
				"element": "O" 
			},
			{
				"x": 1.0839363715,
				"y": -0.3183659305,
				"z": -1.5155762562,
				"element": "C" 
			},
			{
				"x": 2.3777496235,
				"y": -0.0638803924,
				"z": -1.204208781,
				"element": "O" 
			},
			{
				"x": 0.7282359915,
				"y": -0.5732106116,
				"z": -2.6486615066,
				"element": "O" 
			},
			{
				"x": -4.0226633357,
				"y": -0.8657719197,
				"z": 1.059411402,
				"element": "H" 
			},
			{
				"x": -3.6859090193,
				"y": -1.074081318,
				"z": -0.6389061145,
				"element": "H" 
			},
			{
				"x": -1.5015160118,
				"y": -0.7218803701,
				"z": -1.5582606339,
				"element": "H" 
			},
			{
				"x": 1.713122603,
				"y": 0.202716968,
				"z": 1.1275709586,
				"element": "H" 
			},
			{
				"x": 0.1289629403,
				"y": 0.2695585108,
				"z": 3.0034659325,
				"element": "H" 
			},
			{
				"x": -1.3558145917,
				"y": 1.0634779014,
				"z": 3.9060579836,
				"element": "H" 
			},
			{
				"x": 2.8707409249,
				"y": -0.1364877734,
				"z": -2.0380420751,
				"element": "H" 
			}
		],
		 "valence_orbital": [ 
			{
				"type": "occ",
				"energy": -0.32052,
				"method": "rhf"
			},
			{
				"type": "occ",
				"energy": -0.28705,
				"method": "rhf"
			},
			{
				"type": "occ",
				"energy": -0.2826,
				"method": "rhf"
			},
			{
				"type": "occ",
				"energy": -0.27402,
				"method": "rhf"
			},
			{
				"type": "occ",
				"energy": -0.22005,
				"method": "rhf"
			},
			{
				"type": "unocc",
				"energy": -0.07394,
				"method": "rhf"
			},
			{
				"type": "unocc",
				"energy": -0.01089,
				"method": "rhf"
			},
			{
				"type": "unocc",
				"energy": 0.00818,
				"method": "rhf"
			},
			{
				"type": "unocc",
				"energy": 0.05887,
				"method": "rhf"
			},
			{
				"type": "unocc",
				"energy": 0.07177,
				"method": "rhf"
			}
		],
		"cosmo_sigma_profile": { 
			"-0.025": 0.0,
			"-0.024": 0.0,
			"-0.023": 0.0,
			"-0.022": 0.0,
			"-0.021": 0.0,
			"-0.02": 0.0,
			"-0.019": 0.326868291131,
			"-0.018": 2.19600618357,
			"-0.017": 1.6980415078,
			"-0.016": 1.80458165167,
			"-0.015": 1.5863334637,
			"-0.014": 2.13518138427,
			"-0.013": 2.85099912499,
			"-0.012": 3.31772081702,
			"-0.011": 3.89250356717,
			"-0.01": 3.2475144061,
			"-0.009": 3.85334047799,
			"-0.008": 4.56520524594,
			"-0.007": 4.98858082193,
			"-0.006": 5.74654330274,
			"-0.005": 6.28252941025,
			"-0.004": 6.20385059552,
			"-0.003": 8.40630723914,
			"-0.002": 9.97815124202,
			"-0.001": 9.89570502234,
			"0.0": 11.7514254206,
			"0.001": 14.8477241852,
			"0.002": 19.6160899348,
			"0.003": 13.2793487916,
			"0.004": 6.91705873519,
			"0.005": 6.53725453922,
			"0.006": 5.62468750813,
			"0.007": 6.27373396818,
			"0.008": 5.25788658964,
			"0.009": 4.97296772089,
			"0.01": 6.70837475318,
			"0.011": 8.49621649394,
			"0.012": 4.76219925432,
			"0.013": 1.43930507327,
			"0.014": 0.0586643605173,
			"0.015": 0.0,
			"0.016": 0.0,
			"0.017": 0.0,
			"0.018": 0.0,
			"0.019": 0.0,
			"0.02": 0.0,
			"0.021": 0.0,
			"0.022": 0.0,
			"0.023": 0.0,
			"0.024": 0.0,
			"0.025": 0.0
		}
	}
}
