{
	 "smiles": "CC(=O)C=CC1=C(C2=CC=C(C)O2)C2=CC(=CC=C2O1)[N+]([O-])=O", 
	 "Tm": 451.15, 
	 "num_atms": 36, 
	 "gaussian": { 
		 "optdone": 1, 
		 "sigma_profile": "yes", 
		 "theory": "DFT", 
		 "functional": "B3LYP", 
		 "basiset": "6-31G**", 
		 "properties": { 
			 "R2extent": 8553.1209, 
			 "electric_dipole_moment_norm": 5.19773010554, 
			 "electric_quadrupole_moment_norm": 32.0859975809, 
			 "total_energy": -1086.37788659, 
			 "HOMO_LUMO_gap": 0.12398, 
			 "cosmo_polarized_energy": -15.25, 
			 "cosmo_cavitation_energy": 42.53, 
			 "cosmo_dispersion_energy": -29.2, 
			 "cosmo_repulsion_energy": 2.22, 
			 "cosmo_total_nonelectrostatic_energy": 15.55, 
			 "SMD_solvation_energy": 10.94 
		},
		"coords": [
			{
				"x": 1.0526436988,
				"y": 4.2112599135,
				"z": 2.2607314912,
				"element": "C" 
			},
			{
				"x": -0.0556017625,
				"y": 4.3860034512,
				"z": 1.2438411942,
				"element": "C" 
			},
			{
				"x": -1.1267619084,
				"y": 4.892104083,
				"z": 1.5217738488,
				"element": "O" 
			},
			{
				"x": 0.2450418938,
				"y": 4.0359614802,
				"z": -0.1931651422,
				"element": "C" 
			},
			{
				"x": 0.3059978822,
				"y": 2.8234816859,
				"z": -0.7790145484,
				"element": "C" 
			},
			{
				"x": 0.1355411075,
				"y": 1.5283992178,
				"z": -0.1755671374,
				"element": "C" 
			},
			{
				"x": 0.1168342563,
				"y": 0.2629712972,
				"z": -0.730781707,
				"element": "C" 
			},
			{
				"x": 0.1842196977,
				"y": -0.0975752139,
				"z": -2.1286480467,
				"element": "C" 
			},
			{
				"x": -0.1484155468,
				"y": 0.5265654314,
				"z": -3.3043945937,
				"element": "C" 
			},
			{
				"x": 0.1421848822,
				"y": -0.396443706,
				"z": -4.3550774169,
				"element": "C" 
			},
			{
				"x": 0.6227671419,
				"y": -1.5307205115,
				"z": -3.76504285,
				"element": "C" 
			},
			{
				"x": 1.0927011409,
				"y": -2.8425839162,
				"z": -4.2850461517,
				"element": "C" 
			},
			{
				"x": 0.6523748431,
				"y": -1.3613052062,
				"z": -2.4081519027,
				"element": "O" 
			},
			{
				"x": -0.0265804806,
				"y": -0.654067563,
				"z": 0.3834019059,
				"element": "C" 
			},
			{
				"x": -0.1047146777,
				"y": -2.0436613638,
				"z": 0.5182017662,
				"element": "C" 
			},
			{
				"x": -0.2632889055,
				"y": -2.544349645,
				"z": 1.806427397,
				"element": "C" 
			},
			{
				"x": -0.3491450882,
				"y": -1.7313675991,
				"z": 2.9501139885,
				"element": "C" 
			},
			{
				"x": -0.2743261047,
				"y": -0.3493711747,
				"z": 2.8227942844,
				"element": "C" 
			},
			{
				"x": -0.1124535392,
				"y": 0.1516219811,
				"z": 1.5348092884,
				"element": "C" 
			},
			{
				"x": -0.019826855,
				"y": 1.4659807023,
				"z": 1.1997117024,
				"element": "O" 
			},
			{
				"x": -0.3449330574,
				"y": -4.0020538094,
				"z": 1.9822041627,
				"element": "N" 
			},
			{
				"x": -0.2701323171,
				"y": -4.7059973369,
				"z": 0.9748986298,
				"element": "O" 
			},
			{
				"x": -0.4830219068,
				"y": -4.434324257,
				"z": 3.1269198433,
				"element": "O" 
			},
			{
				"x": 0.6766057805,
				"y": 4.4477153372,
				"z": 3.2580837688,
				"element": "H" 
			},
			{
				"x": 1.4561273542,
				"y": 3.1966144121,
				"z": 2.2333120623,
				"element": "H" 
			},
			{
				"x": 1.8745507919,
				"y": 4.8951993637,
				"z": 2.0136160295,
				"element": "H" 
			},
			{
				"x": 0.3518960772,
				"y": 4.9084335889,
				"z": -0.8353879339,
				"element": "H" 
			},
			{
				"x": 0.4925680783,
				"y": 2.7831551653,
				"z": -1.8477919898,
				"element": "H" 
			},
			{
				"x": -0.5894981567,
				"y": 1.5070531085,
				"z": -3.4064617997,
				"element": "H" 
			},
			{
				"x": 0.0001667102,
				"y": -0.2422835861,
				"z": -5.4150947947,
				"element": "H" 
			},
			{
				"x": 0.4935181775,
				"y": -3.6686730454,
				"z": -3.8854168072,
				"element": "H" 
			},
			{
				"x": 2.136688896,
				"y": -3.0314291098,
				"z": -4.0100393641,
				"element": "H" 
			},
			{
				"x": 1.0162720892,
				"y": -2.8585629921,
				"z": -5.3744014133,
				"element": "H" 
			},
			{
				"x": -0.0389292799,
				"y": -2.7139179774,
				"z": -0.3271489265,
				"element": "H" 
			},
			{
				"x": -0.4732621749,
				"y": -2.202917876,
				"z": 3.916165535,
				"element": "H" 
			},
			{
				"x": -0.3412087381,
				"y": 0.3092856705,
				"z": 3.6809256273,
				"element": "H" 
			}
		],
		 "valence_orbital": [ 
			{
				"type": "occ",
				"energy": -0.28726,
				"method": "rhf"
			},
			{
				"type": "occ",
				"energy": -0.27107,
				"method": "rhf"
			},
			{
				"type": "occ",
				"energy": -0.25672,
				"method": "rhf"
			},
			{
				"type": "occ",
				"energy": -0.25066,
				"method": "rhf"
			},
			{
				"type": "occ",
				"energy": -0.20947,
				"method": "rhf"
			},
			{
				"type": "unocc",
				"energy": -0.08549,
				"method": "rhf"
			},
			{
				"type": "unocc",
				"energy": -0.0748,
				"method": "rhf"
			},
			{
				"type": "unocc",
				"energy": -0.02496,
				"method": "rhf"
			},
			{
				"type": "unocc",
				"energy": -0.01809,
				"method": "rhf"
			},
			{
				"type": "unocc",
				"energy": 0.00719,
				"method": "rhf"
			}
		],
		"cosmo_sigma_profile": { 
			"-0.025": 0.0,
			"-0.024": 0.0,
			"-0.023": 0.0,
			"-0.022": 0.0,
			"-0.021": 0.0,
			"-0.02": 0.0,
			"-0.019": 0.0,
			"-0.018": 0.0,
			"-0.017": 0.0,
			"-0.016": 0.0,
			"-0.015": 0.0,
			"-0.014": 0.0,
			"-0.013": 0.0,
			"-0.012": 0.0,
			"-0.011": 0.0,
			"-0.01": 0.0,
			"-0.009": 0.591681356917,
			"-0.008": 6.43449603766,
			"-0.007": 12.1914180342,
			"-0.006": 16.7225888209,
			"-0.005": 20.217475206,
			"-0.004": 22.1220653863,
			"-0.003": 26.3826686144,
			"-0.002": 31.5736853177,
			"-0.001": 39.2196968066,
			"0.0": 37.3539939989,
			"0.001": 27.8362487999,
			"0.002": 18.735593543,
			"0.003": 14.1287912297,
			"0.004": 11.299780954,
			"0.005": 9.4519645604,
			"0.006": 7.11887682945,
			"0.007": 8.14853924699,
			"0.008": 10.1060137263,
			"0.009": 7.02078290906,
			"0.01": 5.3785808242,
			"0.011": 4.58489309113,
			"0.012": 4.00108190284,
			"0.013": 1.22573242033,
			"0.014": 0.0,
			"0.015": 0.0,
			"0.016": 0.0,
			"0.017": 0.0,
			"0.018": 0.0,
			"0.019": 0.0,
			"0.02": 0.0,
			"0.021": 0.0,
			"0.022": 0.0,
			"0.023": 0.0,
			"0.024": 0.0,
			"0.025": 0.0
		}
	}
}
