{
	 "smiles": "NC(=O)C1=CC=C(O1)C(O)=O", 
	 "Tm": 560.15, 
	 "num_atms": 16, 
	 "gaussian": { 
		 "optdone": 1, 
		 "sigma_profile": "yes", 
		 "theory": "DFT", 
		 "functional": "B3LYP", 
		 "basiset": "6-31G**", 
		 "properties": { 
			 "R2extent": 2507.9278, 
			 "electric_dipole_moment_norm": 6.47891725831, 
			 "electric_quadrupole_moment_norm": 12.6627436518, 
			 "total_energy": -587.29559067, 
			 "HOMO_LUMO_gap": 0.18944, 
			 "cosmo_polarized_energy": -21.86, 
			 "cosmo_cavitation_energy": 22.17, 
			 "cosmo_dispersion_energy": -16.29, 
			 "cosmo_repulsion_energy": 1.33, 
			 "cosmo_total_nonelectrostatic_energy": 7.21, 
			 "SMD_solvation_energy": 6.65 
		},
		"coords": [
			{
				"x": 3.8440399612,
				"y": 0.4111122667,
				"z": 1.573986745,
				"element": "N" 
			},
			{
				"x": 2.6808392079,
				"y": 1.1083603464,
				"z": 1.4076758479,
				"element": "C" 
			},
			{
				"x": 2.6371420666,
				"y": 2.3242274145,
				"z": 1.2918179291,
				"element": "O" 
			},
			{
				"x": 1.4477564624,
				"y": 0.277772696,
				"z": 1.3765494585,
				"element": "C" 
			},
			{
				"x": 1.1670362091,
				"y": -1.0643904875,
				"z": 1.4761478096,
				"element": "C" 
			},
			{
				"x": -0.2443138301,
				"y": -1.1995606389,
				"z": 1.3650503355,
				"element": "C" 
			},
			{
				"x": -0.7323835389,
				"y": 0.0693084823,
				"z": 1.204837356,
				"element": "C" 
			},
			{
				"x": 0.2891653559,
				"y": 0.9731489127,
				"z": 1.2108284584,
				"element": "O" 
			},
			{
				"x": -2.1070753492,
				"y": 0.5813046253,
				"z": 1.0369616862,
				"element": "C" 
			},
			{
				"x": -2.2164998284,
				"y": 1.9214962038,
				"z": 0.9049779257,
				"element": "O" 
			},
			{
				"x": -3.0700056164,
				"y": -0.1493814882,
				"z": 1.0216155502,
				"element": "O" 
			},
			{
				"x": 3.8846057315,
				"y": -0.5896551265,
				"z": 1.6698183602,
				"element": "H" 
			},
			{
				"x": 4.7017775403,
				"y": 0.9401848709,
				"z": 1.600344179,
				"element": "H" 
			},
			{
				"x": 1.8785049833,
				"y": -1.8667216177,
				"z": 1.6126950644,
				"element": "H" 
			},
			{
				"x": -0.8356672452,
				"y": -2.1022718288,
				"z": 1.3967474313,
				"element": "H" 
			},
			{
				"x": -1.33902211,
				"y": 2.3360653691,
				"z": 0.9433458631,
				"element": "H" 
			}
		],
		 "valence_orbital": [ 
			{
				"type": "occ",
				"energy": -0.31339,
				"method": "rhf"
			},
			{
				"type": "occ",
				"energy": -0.28626,
				"method": "rhf"
			},
			{
				"type": "occ",
				"energy": -0.2841,
				"method": "rhf"
			},
			{
				"type": "occ",
				"energy": -0.27377,
				"method": "rhf"
			},
			{
				"type": "occ",
				"energy": -0.26216,
				"method": "rhf"
			},
			{
				"type": "unocc",
				"energy": -0.07272,
				"method": "rhf"
			},
			{
				"type": "unocc",
				"energy": -0.01324,
				"method": "rhf"
			},
			{
				"type": "unocc",
				"energy": 0.04863,
				"method": "rhf"
			},
			{
				"type": "unocc",
				"energy": 0.07436,
				"method": "rhf"
			},
			{
				"type": "unocc",
				"energy": 0.08648,
				"method": "rhf"
			}
		],
		"cosmo_sigma_profile": { 
			"-0.025": 0.0,
			"-0.024": 0.0,
			"-0.023": 0.0,
			"-0.022": 0.0,
			"-0.021": 0.0,
			"-0.02": 0.0,
			"-0.019": 0.0,
			"-0.018": 0.114824806409,
			"-0.017": 0.321958505591,
			"-0.016": 1.00188218039,
			"-0.015": 3.13269448131,
			"-0.014": 3.04514064671,
			"-0.013": 3.25441747876,
			"-0.012": 3.79290060084,
			"-0.011": 2.84947910278,
			"-0.01": 4.29031360575,
			"-0.009": 5.89466834728,
			"-0.008": 5.7233710387,
			"-0.007": 5.6902831129,
			"-0.006": 5.3462399719,
			"-0.005": 5.54421486345,
			"-0.004": 7.04533212573,
			"-0.003": 7.93932169708,
			"-0.002": 11.4386111638,
			"-0.001": 11.2743236302,
			"0.0": 11.4524065162,
			"0.001": 11.327194804,
			"0.002": 7.34714327206,
			"0.003": 4.61775136985,
			"0.004": 5.07125219429,
			"0.005": 3.43897710467,
			"0.006": 2.76230180119,
			"0.007": 4.32399485371,
			"0.008": 4.43180918076,
			"0.009": 5.6940837763,
			"0.01": 6.53842639714,
			"0.011": 7.19985031763,
			"0.012": 6.65576566092,
			"0.013": 6.69583361142,
			"0.014": 2.47394553542,
			"0.015": 0.0,
			"0.016": 0.0,
			"0.017": 0.0,
			"0.018": 0.0,
			"0.019": 0.0,
			"0.02": 0.0,
			"0.021": 0.0,
			"0.022": 0.0,
			"0.023": 0.0,
			"0.024": 0.0,
			"0.025": 0.0
		}
	}
}
