{
	 "smiles": "NC1=CC=C(C=C1)C1=NC2=C(N1)C=C(N)C=C2", 
	 "Tm": 508.15, 
	 "num_atms": 29, 
	 "gaussian": { 
		 "optdone": 1, 
		 "sigma_profile": "yes", 
		 "theory": "DFT", 
		 "functional": "B3LYP", 
		 "basiset": "6-31G**", 
		 "properties": { 
			 "R2extent": 5988.6086, 
			 "electric_dipole_moment_norm": 4.08273420639, 
			 "electric_quadrupole_moment_norm": 22.8570215164, 
			 "total_energy": -721.64935195, 
			 "HOMO_LUMO_gap": 0.149, 
			 "cosmo_polarized_energy": -23.34, 
			 "cosmo_cavitation_energy": 33.2, 
			 "cosmo_dispersion_energy": -24.98, 
			 "cosmo_repulsion_energy": 1.91, 
			 "cosmo_total_nonelectrostatic_energy": 10.13, 
			 "SMD_solvation_energy": 3.26 
		},
		"coords": [
			{
				"x": -2.9589824242,
				"y": -4.527944161,
				"z": 3.3669421704,
				"element": "N" 
			},
			{
				"x": -2.2953996933,
				"y": -3.5723237971,
				"z": 2.6012189078,
				"element": "C" 
			},
			{
				"x": -2.9648843423,
				"y": -2.8683454721,
				"z": 1.5855957338,
				"element": "C" 
			},
			{
				"x": -2.3119486876,
				"y": -1.8761466258,
				"z": 0.8628305404,
				"element": "C" 
			},
			{
				"x": -0.9725676461,
				"y": -1.5444914507,
				"z": 1.1231898822,
				"element": "C" 
			},
			{
				"x": -0.3060490369,
				"y": -2.2558873419,
				"z": 2.1377264969,
				"element": "C" 
			},
			{
				"x": -0.9499849717,
				"y": -3.2471885375,
				"z": 2.8614280076,
				"element": "C" 
			},
			{
				"x": -0.2500443948,
				"y": -0.508144693,
				"z": 0.3874477172,
				"element": "C" 
			},
			{
				"x": 1.0423948906,
				"y": -0.2734065776,
				"z": 0.483682321,
				"element": "N" 
			},
			{
				"x": 1.2928533846,
				"y": 0.7869546204,
				"z": -0.3698758608,
				"element": "C" 
			},
			{
				"x": 0.0992995295,
				"y": 1.2054933158,
				"z": -1.0061130199,
				"element": "C" 
			},
			{
				"x": -0.8697569812,
				"y": 0.3552168663,
				"z": -0.5106338514,
				"element": "N" 
			},
			{
				"x": 0.0508477835,
				"y": 2.2561779154,
				"z": -1.9217883893,
				"element": "C" 
			},
			{
				"x": 1.2547424554,
				"y": 2.9145416041,
				"z": -2.2057991878,
				"element": "C" 
			},
			{
				"x": 1.2721398008,
				"y": 4.0213617294,
				"z": -3.0684299729,
				"element": "N" 
			},
			{
				"x": 2.457184895,
				"y": 2.503697575,
				"z": -1.575519657,
				"element": "C" 
			},
			{
				"x": 2.4880822117,
				"y": 1.4533169853,
				"z": -0.6680708711,
				"element": "C" 
			},
			{
				"x": -3.7683753542,
				"y": -4.9500931869,
				"z": 2.9337902961,
				"element": "H" 
			},
			{
				"x": -2.3669344852,
				"y": -5.2107796832,
				"z": 3.8188782899,
				"element": "H" 
			},
			{
				"x": -4.0025396061,
				"y": -3.1047182298,
				"z": 1.3633898217,
				"element": "H" 
			},
			{
				"x": -2.8624831782,
				"y": -1.3741847193,
				"z": 0.0711191399,
				"element": "H" 
			},
			{
				"x": 0.7307504236,
				"y": -2.0098960563,
				"z": 2.3400239575,
				"element": "H" 
			},
			{
				"x": -0.4146005134,
				"y": -3.7786074866,
				"z": 3.6446184442,
				"element": "H" 
			},
			{
				"x": -1.8585681057,
				"y": 0.4164253914,
				"z": -0.6898756385,
				"element": "H" 
			},
			{
				"x": -0.876728444,
				"y": 2.5654295928,
				"z": -2.3963973617,
				"element": "H" 
			},
			{
				"x": 2.1654827089,
				"y": 4.1853724666,
				"z": -3.5133858202,
				"element": "H" 
			},
			{
				"x": 0.522612221,
				"y": 4.0344389187,
				"z": -3.7474726315,
				"element": "H" 
			},
			{
				"x": 3.374330685,
				"y": 3.037458906,
				"z": -1.8120128708,
				"element": "H" 
			},
			{
				"x": 3.4168268752,
				"y": 1.1491721315,
				"z": -0.1959065936,
				"element": "H" 
			}
		],
		 "valence_orbital": [ 
			{
				"type": "occ",
				"energy": -0.25511,
				"method": "rhf"
			},
			{
				"type": "occ",
				"energy": -0.24915,
				"method": "rhf"
			},
			{
				"type": "occ",
				"energy": -0.21907,
				"method": "rhf"
			},
			{
				"type": "occ",
				"energy": -0.20906,
				"method": "rhf"
			},
			{
				"type": "occ",
				"energy": -0.17101,
				"method": "rhf"
			},
			{
				"type": "unocc",
				"energy": -0.02201,
				"method": "rhf"
			},
			{
				"type": "unocc",
				"energy": 0.00148,
				"method": "rhf"
			},
			{
				"type": "unocc",
				"energy": 0.02505,
				"method": "rhf"
			},
			{
				"type": "unocc",
				"energy": 0.04707,
				"method": "rhf"
			},
			{
				"type": "unocc",
				"energy": 0.07097,
				"method": "rhf"
			}
		],
		"cosmo_sigma_profile": { 
			"-0.025": 0.0,
			"-0.024": 0.0,
			"-0.023": 0.0,
			"-0.022": 0.0,
			"-0.021": 0.0,
			"-0.02": 0.0,
			"-0.019": 0.0,
			"-0.018": 0.0,
			"-0.017": 0.0,
			"-0.016": 0.609833694973,
			"-0.015": 1.35085903494,
			"-0.014": 1.30768718116,
			"-0.013": 2.11689068232,
			"-0.012": 6.19561688626,
			"-0.011": 7.05245191627,
			"-0.01": 6.49780267258,
			"-0.009": 7.97496906841,
			"-0.008": 8.3518575511,
			"-0.007": 7.59295750651,
			"-0.006": 11.8142036671,
			"-0.005": 12.5264847521,
			"-0.004": 12.8627197899,
			"-0.003": 11.85436574,
			"-0.002": 11.0028619956,
			"-0.001": 10.5741440241,
			"0.0": 8.49726167499,
			"0.001": 10.7234214999,
			"0.002": 14.7775239457,
			"0.003": 15.7268151194,
			"0.004": 17.9681865512,
			"0.005": 21.9809965078,
			"0.006": 22.6779406879,
			"0.007": 9.56300083154,
			"0.008": 4.02762396748,
			"0.009": 3.56245216418,
			"0.01": 2.32895924776,
			"0.011": 3.16479883573,
			"0.012": 2.93019588147,
			"0.013": 2.20622401743,
			"0.014": 2.482954409,
			"0.015": 1.05607466859,
			"0.016": 1.09883954718,
			"0.017": 0.269373006479,
			"0.018": 0.0,
			"0.019": 0.0,
			"0.02": 0.0,
			"0.021": 0.0,
			"0.022": 0.0,
			"0.023": 0.0,
			"0.024": 0.0,
			"0.025": 0.0
		}
	}
}
