{
	 "smiles": "[O-][N+](=O)C1=CC=C2C(=C1)N=C(C2=O)C1=CC=CC=C1", 
	 "Tm": 458.15, 
	 "num_atms": 27, 
	 "gaussian": { 
		 "optdone": 1, 
		 "sigma_profile": "yes", 
		 "theory": "DFT", 
		 "functional": "B3LYP", 
		 "basiset": "6-31G**", 
		 "properties": { 
			 "R2extent": 7016.8292, 
			 "electric_dipole_moment_norm": 4.17054100687, 
			 "electric_quadrupole_moment_norm": 23.490954808, 
			 "total_energy": -873.367639333, 
			 "HOMO_LUMO_gap": 0.1113, 
			 "cosmo_polarized_energy": -10.65, 
			 "cosmo_cavitation_energy": 33.43, 
			 "cosmo_dispersion_energy": -24.51, 
			 "cosmo_repulsion_energy": 1.83, 
			 "cosmo_total_nonelectrostatic_energy": 10.74, 
			 "SMD_solvation_energy": 6.77 
		},
		"coords": [
			{
				"x": 0.1380712133,
				"y": -5.296840645,
				"z": 3.5399234089,
				"element": "O" 
			},
			{
				"x": 0.287702592,
				"y": -4.9443430939,
				"z": 2.3715800317,
				"element": "N" 
			},
			{
				"x": 0.5994530167,
				"y": -5.6900252002,
				"z": 1.4454708433,
				"element": "O" 
			},
			{
				"x": 0.0773476226,
				"y": -3.5157026612,
				"z": 2.0536026558,
				"element": "C" 
			},
			{
				"x": -0.2765874435,
				"y": -2.6562187998,
				"z": 3.0925088652,
				"element": "C" 
			},
			{
				"x": -0.4802387735,
				"y": -1.2975968689,
				"z": 2.8094615162,
				"element": "C" 
			},
			{
				"x": -0.3175746182,
				"y": -0.8768064629,
				"z": 1.5003719625,
				"element": "C" 
			},
			{
				"x": 0.0394269767,
				"y": -1.7595608153,
				"z": 0.4688631858,
				"element": "C" 
			},
			{
				"x": 0.2459955273,
				"y": -3.1050005251,
				"z": 0.7226531931,
				"element": "C" 
			},
			{
				"x": 0.1514056123,
				"y": -1.1142481512,
				"z": -0.7946517728,
				"element": "N" 
			},
			{
				"x": -0.1160742375,
				"y": 0.1464733064,
				"z": -0.6329932646,
				"element": "C" 
			},
			{
				"x": -0.4488072452,
				"y": 0.4559968516,
				"z": 0.8513945629,
				"element": "C" 
			},
			{
				"x": -0.7431322345,
				"y": 1.5170250099,
				"z": 1.3618233031,
				"element": "O" 
			},
			{
				"x": -0.0970978614,
				"y": 1.1173037465,
				"z": -1.7246877997,
				"element": "C" 
			},
			{
				"x": -0.3937979674,
				"y": 2.4768122922,
				"z": -1.5092177874,
				"element": "C" 
			},
			{
				"x": -0.3655610879,
				"y": 3.3740144996,
				"z": -2.575527644,
				"element": "C" 
			},
			{
				"x": -0.0440434466,
				"y": 2.9325315773,
				"z": -3.8599674434,
				"element": "C" 
			},
			{
				"x": 0.2521331127,
				"y": 1.5822413679,
				"z": -4.0820973277,
				"element": "C" 
			},
			{
				"x": 0.2266040709,
				"y": 0.680748273,
				"z": -3.0261907255,
				"element": "C" 
			},
			{
				"x": -0.3860884726,
				"y": -3.0557500434,
				"z": 4.0923222774,
				"element": "H" 
			},
			{
				"x": -0.7566896636,
				"y": -0.5979906324,
				"z": 3.5921785573,
				"element": "H" 
			},
			{
				"x": 0.5217757427,
				"y": -3.8124572996,
				"z": -0.048242712,
				"element": "H" 
			},
			{
				"x": -0.6431041301,
				"y": 2.8183648041,
				"z": -0.5122283915,
				"element": "H" 
			},
			{
				"x": -0.5955103323,
				"y": 4.4209171462,
				"z": -2.4016798569,
				"element": "H" 
			},
			{
				"x": -0.0234408152,
				"y": 3.635910933,
				"z": -4.6874929013,
				"element": "H" 
			},
			{
				"x": 0.5024229939,
				"y": 1.2375496834,
				"z": -5.0810298169,
				"element": "H" 
			},
			{
				"x": 0.4534098484,
				"y": -0.3684482923,
				"z": -3.1808469195,
				"element": "H" 
			}
		],
		 "valence_orbital": [ 
			{
				"type": "occ",
				"energy": -0.29674,
				"method": "rhf"
			},
			{
				"type": "occ",
				"energy": -0.29347,
				"method": "rhf"
			},
			{
				"type": "occ",
				"energy": -0.26682,
				"method": "rhf"
			},
			{
				"type": "occ",
				"energy": -0.26534,
				"method": "rhf"
			},
			{
				"type": "occ",
				"energy": -0.24499,
				"method": "rhf"
			},
			{
				"type": "unocc",
				"energy": -0.13369,
				"method": "rhf"
			},
			{
				"type": "unocc",
				"energy": -0.08914,
				"method": "rhf"
			},
			{
				"type": "unocc",
				"energy": -0.04947,
				"method": "rhf"
			},
			{
				"type": "unocc",
				"energy": -0.01678,
				"method": "rhf"
			},
			{
				"type": "unocc",
				"energy": -0.01404,
				"method": "rhf"
			}
		],
		"cosmo_sigma_profile": { 
			"-0.025": 0.0,
			"-0.024": 0.0,
			"-0.023": 0.0,
			"-0.022": 0.0,
			"-0.021": 0.0,
			"-0.02": 0.0,
			"-0.019": 0.0,
			"-0.018": 0.0,
			"-0.017": 0.0,
			"-0.016": 0.0,
			"-0.015": 0.0,
			"-0.014": 0.0,
			"-0.013": 0.0,
			"-0.012": 0.0,
			"-0.011": 0.0,
			"-0.01": 0.0,
			"-0.009": 1.30928378997,
			"-0.008": 4.87881122344,
			"-0.007": 9.80790766464,
			"-0.006": 15.1712023221,
			"-0.005": 18.5038672122,
			"-0.004": 18.3074184185,
			"-0.003": 19.8311930314,
			"-0.002": 22.8581630942,
			"-0.001": 25.522052352,
			"0.0": 23.0765822718,
			"0.001": 15.8815484326,
			"0.002": 15.7711992873,
			"0.003": 17.7971739808,
			"0.004": 15.6257305137,
			"0.005": 6.07066837132,
			"0.006": 8.37377413658,
			"0.007": 12.4313801318,
			"0.008": 8.71758971434,
			"0.009": 7.34737358454,
			"0.01": 2.56935685887,
			"0.011": 1.00629073849,
			"0.012": 0.334577316267,
			"0.013": 0.0,
			"0.014": 0.0,
			"0.015": 0.0,
			"0.016": 0.0,
			"0.017": 0.0,
			"0.018": 0.0,
			"0.019": 0.0,
			"0.02": 0.0,
			"0.021": 0.0,
			"0.022": 0.0,
			"0.023": 0.0,
			"0.024": 0.0,
			"0.025": 0.0
		}
	}
}
