{
	 "smiles": "CN1CCCN(C)CCN(C)CCCN(C)CC1", 
	 "Tm": 315.15, 
	 "num_atms": 50, 
	 "gaussian": { 
		 "optdone": 1, 
		 "sigma_profile": "yes", 
		 "theory": "DFT", 
		 "functional": "B3LYP", 
		 "basiset": "6-31G**", 
		 "properties": { 
			 "R2extent": 5921.9765, 
			 "electric_dipole_moment_norm": 0.420967172117, 
			 "electric_quadrupole_moment_norm": 4.86352982514, 
			 "total_energy": -771.73341256, 
			 "HOMO_LUMO_gap": 0.26758, 
			 "cosmo_polarized_energy": -5.97, 
			 "cosmo_cavitation_energy": 44.98, 
			 "cosmo_dispersion_energy": -29.88, 
			 "cosmo_repulsion_energy": 2.27, 
			 "cosmo_total_nonelectrostatic_energy": 17.36, 
			 "SMD_solvation_energy": 3.55 
		},
		"coords": [
			{
				"x": 0.2975235011,
				"y": -1.4445957297,
				"z": 3.5013118327,
				"element": "C" 
			},
			{
				"x": -0.1117428032,
				"y": -0.9117108864,
				"z": 2.2113019992,
				"element": "N" 
			},
			{
				"x": 0.7530366904,
				"y": -1.3681573218,
				"z": 1.1116060554,
				"element": "C" 
			},
			{
				"x": 0.1589190844,
				"y": -2.5488851302,
				"z": 0.331978106,
				"element": "C" 
			},
			{
				"x": 1.0175881826,
				"y": -2.9947593348,
				"z": -0.8636677345,
				"element": "C" 
			},
			{
				"x": 1.4933730868,
				"y": -1.8932620103,
				"z": -1.7073544979,
				"element": "N" 
			},
			{
				"x": 2.4963940779,
				"y": -2.3468838473,
				"z": -2.6602252164,
				"element": "C" 
			},
			{
				"x": 0.4326928692,
				"y": -1.1108233682,
				"z": -2.3492950541,
				"element": "C" 
			},
			{
				"x": 0.8610621521,
				"y": 0.3559763396,
				"z": -2.5612709915,
				"element": "C" 
			},
			{
				"x": -0.2844992533,
				"y": 1.259272666,
				"z": -2.6899041007,
				"element": "N" 
			},
			{
				"x": -0.8453919427,
				"y": 1.2594287916,
				"z": -4.0339744402,
				"element": "C" 
			},
			{
				"x": -0.034717366,
				"y": 2.6119192036,
				"z": -2.1785923937,
				"element": "C" 
			},
			{
				"x": -1.3074482985,
				"y": 3.3105169964,
				"z": -1.6732359083,
				"element": "C" 
			},
			{
				"x": -2.030985034,
				"y": 2.4962133505,
				"z": -0.5908378492,
				"element": "C" 
			},
			{
				"x": -1.2021099382,
				"y": 2.2688606752,
				"z": 0.6018594849,
				"element": "N" 
			},
			{
				"x": -1.3736831395,
				"y": 3.320096033,
				"z": 1.5947567875,
				"element": "C" 
			},
			{
				"x": -1.3722693871,
				"y": 0.9254176022,
				"z": 1.1544965625,
				"element": "C" 
			},
			{
				"x": -0.3128412588,
				"y": 0.5400417922,
				"z": 2.2059382652,
				"element": "C" 
			},
			{
				"x": -0.44033434,
				"y": -1.1844657859,
				"z": 4.2674406735,
				"element": "H" 
			},
			{
				"x": 0.3469744632,
				"y": -2.5375073439,
				"z": 3.4500933706,
				"element": "H" 
			},
			{
				"x": 1.2874803348,
				"y": -1.0822129636,
				"z": 3.8417377536,
				"element": "H" 
			},
			{
				"x": 0.912010052,
				"y": -0.5413833419,
				"z": 0.4155363961,
				"element": "H" 
			},
			{
				"x": 1.7577706348,
				"y": -1.631097603,
				"z": 1.4851124964,
				"element": "H" 
			},
			{
				"x": 0.028342923,
				"y": -3.4140995497,
				"z": 0.994412844,
				"element": "H" 
			},
			{
				"x": -0.8517204505,
				"y": -2.2736137381,
				"z": 0.0098439854,
				"element": "H" 
			},
			{
				"x": 0.4590523525,
				"y": -3.75674427,
				"z": -1.4443301385,
				"element": "H" 
			},
			{
				"x": 1.9148667237,
				"y": -3.5001650372,
				"z": -0.4834115643,
				"element": "H" 
			},
			{
				"x": 2.89877294,
				"y": -1.4974115773,
				"z": -3.2197482988,
				"element": "H" 
			},
			{
				"x": 2.1023203872,
				"y": -3.0776850045,
				"z": -3.3941293713,
				"element": "H" 
			},
			{
				"x": 3.3293490426,
				"y": -2.819468987,
				"z": -2.1289651116,
				"element": "H" 
			},
			{
				"x": -0.4373572427,
				"y": -1.0825826842,
				"z": -1.6905430484,
				"element": "H" 
			},
			{
				"x": 0.0975689529,
				"y": -1.5781672752,
				"z": -3.2944583161,
				"element": "H" 
			},
			{
				"x": 1.4250964911,
				"y": 0.6418255749,
				"z": -1.6696697604,
				"element": "H" 
			},
			{
				"x": 1.5550356268,
				"y": 0.4474749709,
				"z": -3.4183129613,
				"element": "H" 
			},
			{
				"x": -1.1114302525,
				"y": 0.2418240744,
				"z": -4.3351622149,
				"element": "H" 
			},
			{
				"x": -0.1464421082,
				"y": 1.666581314,
				"z": -4.7913170429,
				"element": "H" 
			},
			{
				"x": -1.7601200072,
				"y": 1.8585388845,
				"z": -4.0663064846,
				"element": "H" 
			},
			{
				"x": 0.4677408144,
				"y": 3.2518884559,
				"z": -2.929293095,
				"element": "H" 
			},
			{
				"x": 0.6388914574,
				"y": 2.522072356,
				"z": -1.3227207271,
				"element": "H" 
			},
			{
				"x": -2.0097053583,
				"y": 3.4974531434,
				"z": -2.4962489272,
				"element": "H" 
			},
			{
				"x": -1.0217333967,
				"y": 4.2989163112,
				"z": -1.2901224854,
				"element": "H" 
			},
			{
				"x": -2.9880798877,
				"y": 2.9824250582,
				"z": -0.3300425463,
				"element": "H" 
			},
			{
				"x": -2.276667365,
				"y": 1.5245722252,
				"z": -1.0265126892,
				"element": "H" 
			},
			{
				"x": -1.2059190884,
				"y": 4.298957163,
				"z": 1.1347658901,
				"element": "H" 
			},
			{
				"x": -2.3857055618,
				"y": 3.3284463636,
				"z": 2.0465796988,
				"element": "H" 
			},
			{
				"x": -0.6435139324,
				"y": 3.2102031409,
				"z": 2.402299926,
				"element": "H" 
			},
			{
				"x": -1.2833610364,
				"y": 0.2262775671,
				"z": 0.3192985857,
				"element": "H" 
			},
			{
				"x": -2.3793770113,
				"y": 0.7667327744,
				"z": 1.5886153036,
				"element": "H" 
			},
			{
				"x": -0.6402635717,
				"y": 0.844793825,
				"z": 3.2057846203,
				"element": "H" 
			},
			{
				"x": 0.6210561912,
				"y": 1.0921561375,
				"z": 1.9919823322,
				"element": "H" 
			}
		],
		 "valence_orbital": [ 
			{
				"type": "occ",
				"energy": -0.30828,
				"method": "rhf"
			},
			{
				"type": "occ",
				"energy": -0.2124,
				"method": "rhf"
			},
			{
				"type": "occ",
				"energy": -0.2009,
				"method": "rhf"
			},
			{
				"type": "occ",
				"energy": -0.19998,
				"method": "rhf"
			},
			{
				"type": "occ",
				"energy": -0.19345,
				"method": "rhf"
			},
			{
				"type": "unocc",
				"energy": 0.07413,
				"method": "rhf"
			},
			{
				"type": "unocc",
				"energy": 0.08725,
				"method": "rhf"
			},
			{
				"type": "unocc",
				"energy": 0.09362,
				"method": "rhf"
			},
			{
				"type": "unocc",
				"energy": 0.09917,
				"method": "rhf"
			},
			{
				"type": "unocc",
				"energy": 0.10806,
				"method": "rhf"
			}
		],
		"cosmo_sigma_profile": { 
			"-0.025": 0.0,
			"-0.024": 0.0,
			"-0.023": 0.0,
			"-0.022": 0.0,
			"-0.021": 0.0,
			"-0.02": 0.0,
			"-0.019": 0.0,
			"-0.018": 0.0,
			"-0.017": 0.0,
			"-0.016": 0.0,
			"-0.015": 0.0,
			"-0.014": 0.0,
			"-0.013": 0.0,
			"-0.012": 0.0,
			"-0.011": 0.0,
			"-0.01": 0.0,
			"-0.009": 0.0,
			"-0.008": 0.0,
			"-0.007": 0.0,
			"-0.006": 0.0,
			"-0.005": 0.285419170951,
			"-0.004": 8.06681868679,
			"-0.003": 34.9628172255,
			"-0.002": 45.2524922908,
			"-0.001": 78.28811719,
			"0.0": 89.2913345475,
			"0.001": 41.4845018465,
			"0.002": 9.21185253786,
			"0.003": 6.77846103907,
			"0.004": 4.4975117294,
			"0.005": 4.94869761477,
			"0.006": 5.05218934975,
			"0.007": 3.50139737248,
			"0.008": 3.1171232077,
			"0.009": 2.43503180339,
			"0.01": 2.1429165242,
			"0.011": 1.53512622978,
			"0.012": 0.872689555605,
			"0.013": 1.43315879874,
			"0.014": 0.227348131238,
			"0.015": 0.241247303962,
			"0.016": 0.143524988038,
			"0.017": 0.0,
			"0.018": 0.0,
			"0.019": 0.0,
			"0.02": 0.0,
			"0.021": 0.0,
			"0.022": 0.0,
			"0.023": 0.0,
			"0.024": 0.0,
			"0.025": 0.0
		}
	}
}
