{
	 "smiles": "C1=CC=NC=C1", 
	 "Tm": 231.35, 
	 "num_atms": 11, 
	 "gaussian": { 
		 "optdone": 1, 
		 "sigma_profile": "yes", 
		 "theory": "DFT", 
		 "functional": "B3LYP", 
		 "basiset": "6-31G**", 
		 "properties": { 
			 "R2extent": 686.3642, 
			 "electric_dipole_moment_norm": 2.17616642976, 
			 "electric_quadrupole_moment_norm": 5.97480154984, 
			 "total_energy": -248.287061501, 
			 "HOMO_LUMO_gap": 0.22897, 
			 "cosmo_polarized_energy": -5.59, 
			 "cosmo_cavitation_energy": 14.66, 
			 "cosmo_dispersion_energy": -11.21, 
			 "cosmo_repulsion_energy": 0.96, 
			 "cosmo_total_nonelectrostatic_energy": 4.42, 
			 "SMD_solvation_energy": 1.35 
		},
		"coords": [
			{
				"x": 1.5836040734,
				"y": -0.8238447007,
				"z": 1.0827412104,
				"element": "C" 
			},
			{
				"x": 0.9012902734,
				"y": 0.3687044356,
				"z": 1.3236743285,
				"element": "C" 
			},
			{
				"x": -0.4930855884,
				"y": 0.3632440152,
				"z": 1.2510459558,
				"element": "C" 
			},
			{
				"x": -1.2185260938,
				"y": -0.7248556202,
				"z": 0.9622198223,
				"element": "N" 
			},
			{
				"x": -0.5494428046,
				"y": -1.8622157808,
				"z": 0.7333567591,
				"element": "C" 
			},
			{
				"x": 0.8421713561,
				"y": -1.9660895342,
				"z": 0.7805651591,
				"element": "C" 
			},
			{
				"x": 2.6682486844,
				"y": -0.8621656964,
				"z": 1.1294015058,
				"element": "H" 
			},
			{
				"x": 1.4337012632,
				"y": 1.2843108588,
				"z": 1.5627132215,
				"element": "H" 
			},
			{
				"x": -1.0555773684,
				"y": 1.2777308256,
				"z": 1.4338172218,
				"element": "H" 
			},
			{
				"x": -1.15718499,
				"y": -2.7353733671,
				"z": 0.5002664255,
				"element": "H" 
			},
			{
				"x": 1.3273011947,
				"y": -2.9176454358,
				"z": 0.5852983901,
				"element": "H" 
			}
		],
		 "valence_orbital": [ 
			{
				"type": "occ",
				"energy": -0.39445,
				"method": "rhf"
			},
			{
				"type": "occ",
				"energy": -0.36303,
				"method": "rhf"
			},
			{
				"type": "occ",
				"energy": -0.28602,
				"method": "rhf"
			},
			{
				"type": "occ",
				"energy": -0.26173,
				"method": "rhf"
			},
			{
				"type": "occ",
				"energy": -0.25207,
				"method": "rhf"
			},
			{
				"type": "unocc",
				"energy": -0.0231,
				"method": "rhf"
			},
			{
				"type": "unocc",
				"energy": -0.01032,
				"method": "rhf"
			},
			{
				"type": "unocc",
				"energy": 0.09347,
				"method": "rhf"
			},
			{
				"type": "unocc",
				"energy": 0.13802,
				"method": "rhf"
			},
			{
				"type": "unocc",
				"energy": 0.14492,
				"method": "rhf"
			}
		],
		"cosmo_sigma_profile": { 
			"-0.025": 0.0,
			"-0.024": 0.0,
			"-0.023": 0.0,
			"-0.022": 0.0,
			"-0.021": 0.0,
			"-0.02": 0.0,
			"-0.019": 0.0,
			"-0.018": 0.0,
			"-0.017": 0.0,
			"-0.016": 0.0,
			"-0.015": 0.0,
			"-0.014": 0.0,
			"-0.013": 0.0,
			"-0.012": 0.0,
			"-0.011": 0.0,
			"-0.01": 0.0,
			"-0.009": 0.0,
			"-0.008": 0.0867412921996,
			"-0.007": 3.94429754907,
			"-0.006": 10.7621608314,
			"-0.005": 12.0971642825,
			"-0.004": 10.5072100593,
			"-0.003": 7.21467528032,
			"-0.002": 7.512146192,
			"-0.001": 5.79106275448,
			"0.0": 7.49462098924,
			"0.001": 7.44823507126,
			"0.002": 10.6041348882,
			"0.003": 15.3779788215,
			"0.004": 4.20834902575,
			"0.005": 2.44881695002,
			"0.006": 1.43627458014,
			"0.007": 1.18128589602,
			"0.008": 1.7658191632,
			"0.009": 1.38013946193,
			"0.01": 0.794200936428,
			"0.011": 0.637806444769,
			"0.012": 1.13389876756,
			"0.013": 1.15215467253,
			"0.014": 0.581929476807,
			"0.015": 1.01672773008,
			"0.016": 0.858122945567,
			"0.017": 0.562426119753,
			"0.018": 0.0,
			"0.019": 0.0,
			"0.02": 0.0,
			"0.021": 0.0,
			"0.022": 0.0,
			"0.023": 0.0,
			"0.024": 0.0,
			"0.025": 0.0
		}
	}
}
