{
	 "smiles": "NC(=O)C1=CC(N)=C(C=C1)S(N)(=O)=O", 
	 "Tm": 476.15, 
	 "num_atms": 23, 
	 "gaussian": { 
		 "optdone": 1, 
		 "sigma_profile": "yes", 
		 "theory": "DFT", 
		 "functional": "B3LYP", 
		 "basiset": "6-31G**", 
		 "properties": { 
			 "R2extent": 3891.7314, 
			 "electric_dipole_moment_norm": 5.32781531775, 
			 "electric_quadrupole_moment_norm": 11.3247255243, 
			 "total_energy": -1060.23804527, 
			 "HOMO_LUMO_gap": 0.16425, 
			 "cosmo_polarized_energy": -25.12, 
			 "cosmo_cavitation_energy": 28.52, 
			 "cosmo_dispersion_energy": -21.91, 
			 "cosmo_repulsion_energy": 1.69, 
			 "cosmo_total_nonelectrostatic_energy": 8.3, 
			 "SMD_solvation_energy": 5.24 
		},
		"coords": [
			{
				"x": -0.6625682682,
				"y": 2.7502620598,
				"z": 2.7198511334,
				"element": "N" 
			},
			{
				"x": 0.4224877952,
				"y": 2.6725525806,
				"z": 1.8839042129,
				"element": "C" 
			},
			{
				"x": 1.3413671872,
				"y": 3.4801617711,
				"z": 1.938227748,
				"element": "O" 
			},
			{
				"x": 0.4085117847,
				"y": 1.5458425091,
				"z": 0.8821734151,
				"element": "C" 
			},
			{
				"x": 1.6189844174,
				"y": 1.2377593575,
				"z": 0.2788844955,
				"element": "C" 
			},
			{
				"x": 1.7462926353,
				"y": 0.1961415064,
				"z": -0.6670923885,
				"element": "C" 
			},
			{
				"x": 2.9571509228,
				"y": -0.0333612997,
				"z": -1.2600635459,
				"element": "N" 
			},
			{
				"x": 0.5671532625,
				"y": -0.5374434875,
				"z": -0.9690254417,
				"element": "C" 
			},
			{
				"x": -0.6596984285,
				"y": -0.2031180573,
				"z": -0.3797075856,
				"element": "C" 
			},
			{
				"x": -0.752192441,
				"y": 0.8245788865,
				"z": 0.5456780178,
				"element": "C" 
			},
			{
				"x": 0.5701111579,
				"y": -1.81544753,
				"z": -2.2158144392,
				"element": "S" 
			},
			{
				"x": -0.5097293575,
				"y": -2.9509203602,
				"z": -1.5761496855,
				"element": "N" 
			},
			{
				"x": -0.0557707536,
				"y": -1.3431333523,
				"z": -3.4527523871,
				"element": "O" 
			},
			{
				"x": 1.9245509973,
				"y": -2.4032607531,
				"z": -2.2543085277,
				"element": "O" 
			},
			{
				"x": -0.5973083911,
				"y": 3.4343976388,
				"z": 3.4594752148,
				"element": "H" 
			},
			{
				"x": -1.2495636421,
				"y": 1.9475856681,
				"z": 2.8817101998,
				"element": "H" 
			},
			{
				"x": 2.4884982363,
				"y": 1.8301393014,
				"z": 0.5469002462,
				"element": "H" 
			},
			{
				"x": 3.0965545995,
				"y": -0.9128119611,
				"z": -1.7405331355,
				"element": "H" 
			},
			{
				"x": 3.7638393044,
				"y": 0.416164132,
				"z": -0.8579934554,
				"element": "H" 
			},
			{
				"x": -1.5392712621,
				"y": -0.7761023665,
				"z": -0.649783741,
				"element": "H" 
			},
			{
				"x": -1.7191462038,
				"y": 1.0847221589,
				"z": 0.9617937027,
				"element": "H" 
			},
			{
				"x": -1.0300588396,
				"y": -3.3574103941,
				"z": -2.3500014072,
				"element": "H" 
			},
			{
				"x": -0.0073947131,
				"y": -3.6646980085,
				"z": -1.0539726458,
				"element": "H" 
			}
		],
		 "valence_orbital": [ 
			{
				"type": "occ",
				"energy": -0.29884,
				"method": "rhf"
			},
			{
				"type": "occ",
				"energy": -0.2776,
				"method": "rhf"
			},
			{
				"type": "occ",
				"energy": -0.26671,
				"method": "rhf"
			},
			{
				"type": "occ",
				"energy": -0.25545,
				"method": "rhf"
			},
			{
				"type": "occ",
				"energy": -0.21877,
				"method": "rhf"
			},
			{
				"type": "unocc",
				"energy": -0.05452,
				"method": "rhf"
			},
			{
				"type": "unocc",
				"energy": -0.00683,
				"method": "rhf"
			},
			{
				"type": "unocc",
				"energy": 0.03887,
				"method": "rhf"
			},
			{
				"type": "unocc",
				"energy": 0.05122,
				"method": "rhf"
			},
			{
				"type": "unocc",
				"energy": 0.06582,
				"method": "rhf"
			}
		],
		"cosmo_sigma_profile": { 
			"-0.025": 0.0,
			"-0.024": 0.0,
			"-0.023": 0.0,
			"-0.022": 0.0,
			"-0.021": 0.0,
			"-0.02": 0.0,
			"-0.019": 0.0,
			"-0.018": 0.0,
			"-0.017": 0.0,
			"-0.016": 0.00141314646849,
			"-0.015": 1.80609519329,
			"-0.014": 5.58096370834,
			"-0.013": 6.79234651486,
			"-0.012": 5.7151005113,
			"-0.011": 7.55982720235,
			"-0.01": 5.74320902027,
			"-0.009": 5.83047424828,
			"-0.008": 5.46270161614,
			"-0.007": 6.31062402867,
			"-0.006": 8.16409279499,
			"-0.005": 7.03675690796,
			"-0.004": 7.25744190569,
			"-0.003": 5.50912321835,
			"-0.002": 8.70256415054,
			"-0.001": 10.6955404349,
			"0.0": 12.3056515591,
			"0.001": 13.1236916337,
			"0.002": 16.5533068837,
			"0.003": 16.823907674,
			"0.004": 9.14298119727,
			"0.005": 6.09347553766,
			"0.006": 5.56117940422,
			"0.007": 5.92368397892,
			"0.008": 5.58203299338,
			"0.009": 6.36748378934,
			"0.01": 8.21244145814,
			"0.011": 10.0666007154,
			"0.012": 4.85014490205,
			"0.013": 5.12279904027,
			"0.014": 2.66975283716,
			"0.015": 0.0768346472936,
			"0.016": 0.0,
			"0.017": 0.0,
			"0.018": 0.0,
			"0.019": 0.0,
			"0.02": 0.0,
			"0.021": 0.0,
			"0.022": 0.0,
			"0.023": 0.0,
			"0.024": 0.0,
			"0.025": 0.0
		}
	}
}
