{
	 "smiles": "CCN1C2=C(C=C(Br)C=C2)C2=C1C=CC(Br)=C2", 
	 "Tm": 412.5, 
	 "num_atms": 28, 
	 "gaussian": { 
		 "optdone": 1, 
		 "sigma_profile": "yes", 
		 "theory": "DFT", 
		 "functional": "B3LYP", 
		 "basiset": "6-31G**", 
		 "properties": { 
			 "R2extent": 10489.0704, 
			 "electric_dipole_moment_norm": 4.75914543589, 
			 "electric_quadrupole_moment_norm": 7.12649733039, 
			 "total_energy": -5737.70914987, 
			 "HOMO_LUMO_gap": 0.16178, 
			 "cosmo_polarized_energy": -8.69, 
			 "cosmo_cavitation_energy": 36.27, 
			 "cosmo_dispersion_energy": -26.74, 
			 "cosmo_repulsion_energy": 2.05, 
			 "cosmo_total_nonelectrostatic_energy": 11.58, 
			 "SMD_solvation_energy": 3.1 
		},
		"coords": [
			{
				"x": -0.1344291578,
				"y": 2.785376363,
				"z": -1.8518350928,
				"element": "C" 
			},
			{
				"x": 0.663261045,
				"y": 2.1769428066,
				"z": -0.693208971,
				"element": "C" 
			},
			{
				"x": 0.2634113322,
				"y": 0.8165842025,
				"z": -0.3644074058,
				"element": "N" 
			},
			{
				"x": 0.7658715215,
				"y": -0.3397594414,
				"z": -0.9491452516,
				"element": "C" 
			},
			{
				"x": 0.0821504471,
				"y": -1.4668241283,
				"z": -0.4193339616,
				"element": "C" 
			},
			{
				"x": 0.4227004049,
				"y": -2.7554934897,
				"z": -0.8451421394,
				"element": "C" 
			},
			{
				"x": 1.4322397734,
				"y": -2.8877300511,
				"z": -1.7902335845,
				"element": "C" 
			},
			{
				"x": 1.9233094522,
				"y": -4.6360136714,
				"z": -2.398583504,
				"element": "Br" 
			},
			{
				"x": 2.1062039997,
				"y": -1.7756962609,
				"z": -2.3189850441,
				"element": "C" 
			},
			{
				"x": 1.7772640707,
				"y": -0.4880103616,
				"z": -1.9036609366,
				"element": "C" 
			},
			{
				"x": -0.8903069355,
				"y": -0.9538514345,
				"z": 0.521185964,
				"element": "C" 
			},
			{
				"x": -0.7501216202,
				"y": 0.4599512875,
				"z": 0.5171144856,
				"element": "C" 
			},
			{
				"x": -1.5572375328,
				"y": 1.2708787612,
				"z": 1.3214663002,
				"element": "C" 
			},
			{
				"x": -2.5021103154,
				"y": 0.6550576751,
				"z": 2.1380524104,
				"element": "C" 
			},
			{
				"x": -2.6351599901,
				"y": -0.7423275354,
				"z": 2.1434704666,
				"element": "C" 
			},
			{
				"x": -3.9525882543,
				"y": -1.5367068646,
				"z": 3.2841395504,
				"element": "Br" 
			},
			{
				"x": -1.8437281302,
				"y": -1.5600321961,
				"z": 1.3467019301,
				"element": "C" 
			},
			{
				"x": -1.2015336424,
				"y": 2.8225575035,
				"z": -1.6144178264,
				"element": "H" 
			},
			{
				"x": 0.2084187316,
				"y": 3.8052589911,
				"z": -2.0539224854,
				"element": "H" 
			},
			{
				"x": -0.0107411544,
				"y": 2.19447351,
				"z": -2.7639757724,
				"element": "H" 
			},
			{
				"x": 0.5543406348,
				"y": 2.785360773,
				"z": 0.2102412308,
				"element": "H" 
			},
			{
				"x": 1.7325410514,
				"y": 2.1641349466,
				"z": -0.9272507577,
				"element": "H" 
			},
			{
				"x": -0.0839226834,
				"y": -3.6304180479,
				"z": -0.4536004028,
				"element": "H" 
			},
			{
				"x": 2.8855626779,
				"y": -1.9246845774,
				"z": -3.0572449052,
				"element": "H" 
			},
			{
				"x": 2.2989710664,
				"y": 0.3666115263,
				"z": -2.3217007656,
				"element": "H" 
			},
			{
				"x": -1.4649122003,
				"y": 2.3519871787,
				"z": 1.3188177282,
				"element": "H" 
			},
			{
				"x": -3.1429587623,
				"y": 1.2552036387,
				"z": 2.7734764194,
				"element": "H" 
			},
			{
				"x": -1.9674958298,
				"y": -2.6369311034,
				"z": 1.3677823211,
				"element": "H" 
			}
		],
		 "valence_orbital": [ 
			{
				"type": "occ",
				"energy": -0.28279,
				"method": "rhf"
			},
			{
				"type": "occ",
				"energy": -0.28043,
				"method": "rhf"
			},
			{
				"type": "occ",
				"energy": -0.25185,
				"method": "rhf"
			},
			{
				"type": "occ",
				"energy": -0.22489,
				"method": "rhf"
			},
			{
				"type": "occ",
				"energy": -0.20647,
				"method": "rhf"
			},
			{
				"type": "unocc",
				"energy": -0.04469,
				"method": "rhf"
			},
			{
				"type": "unocc",
				"energy": -0.0105,
				"method": "rhf"
			},
			{
				"type": "unocc",
				"energy": 0.00904,
				"method": "rhf"
			},
			{
				"type": "unocc",
				"energy": 0.01107,
				"method": "rhf"
			},
			{
				"type": "unocc",
				"energy": 0.01287,
				"method": "rhf"
			}
		],
		"cosmo_sigma_profile": { 
			"-0.025": 0.0,
			"-0.024": 0.0,
			"-0.023": 0.0,
			"-0.022": 0.0,
			"-0.021": 0.0,
			"-0.02": 0.0,
			"-0.019": 0.0,
			"-0.018": 0.0,
			"-0.017": 0.0,
			"-0.016": 0.0,
			"-0.015": 0.0,
			"-0.014": 0.0,
			"-0.013": 0.0,
			"-0.012": 0.0,
			"-0.011": 0.0,
			"-0.01": 0.0,
			"-0.009": 0.0,
			"-0.008": 1.98812893054,
			"-0.007": 11.7654546369,
			"-0.006": 14.6288518981,
			"-0.005": 14.6255340893,
			"-0.004": 18.8640071645,
			"-0.003": 25.1106137667,
			"-0.002": 20.3513191195,
			"-0.001": 18.2068326618,
			"0.0": 21.9272639038,
			"0.001": 23.8148455272,
			"0.002": 25.2638307385,
			"0.003": 39.2390829716,
			"0.004": 36.9559408491,
			"0.005": 22.2507964163,
			"0.006": 2.16010957604,
			"0.007": 0.0,
			"0.008": 0.0,
			"0.009": 0.0,
			"0.01": 0.0,
			"0.011": 0.0,
			"0.012": 0.0,
			"0.013": 0.0,
			"0.014": 0.0,
			"0.015": 0.0,
			"0.016": 0.0,
			"0.017": 0.0,
			"0.018": 0.0,
			"0.019": 0.0,
			"0.02": 0.0,
			"0.021": 0.0,
			"0.022": 0.0,
			"0.023": 0.0,
			"0.024": 0.0,
			"0.025": 0.0
		}
	}
}
