{
	 "smiles": "CC(C)S(=O)(=O)NC1=CC=C(C=C1)C(O)=O", 
	 "Tm": 453.15, 
	 "num_atms": 29, 
	 "gaussian": { 
		 "optdone": 1, 
		 "sigma_profile": "yes", 
		 "theory": "DFT", 
		 "functional": "B3LYP", 
		 "basiset": "6-31G**", 
		 "properties": { 
			 "R2extent": 5739.8906, 
			 "electric_dipole_moment_norm": 6.36590525927, 
			 "electric_quadrupole_moment_norm": 36.1705906494, 
			 "total_energy": -1142.68854469, 
			 "HOMO_LUMO_gap": 0.19251, 
			 "cosmo_polarized_energy": -25.95, 
			 "cosmo_cavitation_energy": 34.08, 
			 "cosmo_dispersion_energy": -24.49, 
			 "cosmo_repulsion_energy": 1.85, 
			 "cosmo_total_nonelectrostatic_energy": 11.44, 
			 "SMD_solvation_energy": 6.33 
		},
		"coords": [
			{
				"x": 2.9840355741,
				"y": -2.3679334841,
				"z": -0.0549360992,
				"element": "C" 
			},
			{
				"x": 2.222725706,
				"y": -1.1696729313,
				"z": -0.6314382365,
				"element": "C" 
			},
			{
				"x": 3.0556978679,
				"y": -0.3316652469,
				"z": -1.6005174905,
				"element": "C" 
			},
			{
				"x": 1.6335290774,
				"y": -0.1403219806,
				"z": 0.7713218636,
				"element": "S" 
			},
			{
				"x": 0.7988290946,
				"y": -0.9899065484,
				"z": 1.6219207154,
				"element": "O" 
			},
			{
				"x": 2.7546586973,
				"y": 0.6300898859,
				"z": 1.3137794427,
				"element": "O" 
			},
			{
				"x": 0.6443762184,
				"y": 1.0462880151,
				"z": 0.0655100637,
				"element": "N" 
			},
			{
				"x": -0.532905366,
				"y": 0.8496156076,
				"z": -0.6772793087,
				"element": "C" 
			},
			{
				"x": -1.3709878546,
				"y": -0.2633065012,
				"z": -0.4823009513,
				"element": "C" 
			},
			{
				"x": -2.5266601812,
				"y": -0.3939632085,
				"z": -1.2412679191,
				"element": "C" 
			},
			{
				"x": -2.8846534921,
				"y": 0.5622082648,
				"z": -2.2023990197,
				"element": "C" 
			},
			{
				"x": -2.0598968208,
				"y": 1.6843064968,
				"z": -2.3656217246,
				"element": "C" 
			},
			{
				"x": -0.8943650398,
				"y": 1.8253048621,
				"z": -1.6217877656,
				"element": "C" 
			},
			{
				"x": -4.1529735883,
				"y": 0.3452809422,
				"z": -2.9642545374,
				"element": "C" 
			},
			{
				"x": -4.3172211137,
				"y": 1.0668840345,
				"z": -4.1079562498,
				"element": "O" 
			},
			{
				"x": -5.0143258488,
				"y": -0.4276231463,
				"z": -2.6144690955,
				"element": "O" 
			},
			{
				"x": 3.882770921,
				"y": -2.0380998864,
				"z": 0.4743483979,
				"element": "H" 
			},
			{
				"x": 3.2905544915,
				"y": -3.023978418,
				"z": -0.8753168523,
				"element": "H" 
			},
			{
				"x": 2.3609822612,
				"y": -2.9398309918,
				"z": 0.6352805596,
				"element": "H" 
			},
			{
				"x": 1.2964723623,
				"y": -1.5079971539,
				"z": -1.1096845197,
				"element": "H" 
			},
			{
				"x": 2.4791746057,
				"y": 0.4930343525,
				"z": -2.028630308,
				"element": "H" 
			},
			{
				"x": 3.9366065869,
				"y": 0.0782872364,
				"z": -1.0996863705,
				"element": "H" 
			},
			{
				"x": 3.3910659774,
				"y": -0.9664833708,
				"z": -2.4262790798,
				"element": "H" 
			},
			{
				"x": 1.1595932784,
				"y": 1.903654979,
				"z": -0.093226519,
				"element": "H" 
			},
			{
				"x": -1.1257273556,
				"y": -0.9965613527,
				"z": 0.2762623333,
				"element": "H" 
			},
			{
				"x": -3.1868714001,
				"y": -1.2415947112,
				"z": -1.0920766552,
				"element": "H" 
			},
			{
				"x": -2.3275535449,
				"y": 2.4821379155,
				"z": -3.0544068389,
				"element": "H" 
			},
			{
				"x": -0.2654740349,
				"y": 2.7006553533,
				"z": -1.7612485738,
				"element": "H" 
			},
			{
				"x": -3.4903570791,
				"y": 1.5051909863,
				"z": -4.3501392614,
				"element": "H" 
			}
		],
		 "valence_orbital": [ 
			{
				"type": "occ",
				"energy": -0.31377,
				"method": "rhf"
			},
			{
				"type": "occ",
				"energy": -0.31151,
				"method": "rhf"
			},
			{
				"type": "occ",
				"energy": -0.28084,
				"method": "rhf"
			},
			{
				"type": "occ",
				"energy": -0.27416,
				"method": "rhf"
			},
			{
				"type": "occ",
				"energy": -0.24579,
				"method": "rhf"
			},
			{
				"type": "unocc",
				"energy": -0.05328,
				"method": "rhf"
			},
			{
				"type": "unocc",
				"energy": -0.03192,
				"method": "rhf"
			},
			{
				"type": "unocc",
				"energy": 0.03041,
				"method": "rhf"
			},
			{
				"type": "unocc",
				"energy": 0.04388,
				"method": "rhf"
			},
			{
				"type": "unocc",
				"energy": 0.05073,
				"method": "rhf"
			}
		],
		"cosmo_sigma_profile": { 
			"-0.025": 0.0,
			"-0.024": 0.0,
			"-0.023": 0.0,
			"-0.022": 0.0,
			"-0.021": 0.0,
			"-0.02": 0.0,
			"-0.019": 0.156174410084,
			"-0.018": 0.821632773425,
			"-0.017": 1.28515936549,
			"-0.016": 1.60951056282,
			"-0.015": 2.13012949423,
			"-0.014": 1.26842568231,
			"-0.013": 2.85643821838,
			"-0.012": 1.97169035819,
			"-0.011": 2.70611974673,
			"-0.01": 2.66869240704,
			"-0.009": 3.07605474776,
			"-0.008": 3.64589040229,
			"-0.007": 6.37572257015,
			"-0.006": 11.392011729,
			"-0.005": 19.4780211846,
			"-0.004": 18.4856193042,
			"-0.003": 21.1286656843,
			"-0.002": 18.1530715548,
			"-0.001": 23.1705637706,
			"0.0": 14.9290331895,
			"0.001": 11.4041420455,
			"0.002": 16.5165017655,
			"0.003": 15.9281629757,
			"0.004": 6.61340942017,
			"0.005": 4.77941559386,
			"0.006": 5.47184156137,
			"0.007": 5.66620967442,
			"0.008": 5.70029677176,
			"0.009": 7.44003877054,
			"0.01": 11.2507899811,
			"0.011": 12.7905212945,
			"0.012": 6.80762173819,
			"0.013": 2.18063826268,
			"0.014": 0.165295340722,
			"0.015": 0.0,
			"0.016": 0.0,
			"0.017": 0.0,
			"0.018": 0.0,
			"0.019": 0.0,
			"0.02": 0.0,
			"0.021": 0.0,
			"0.022": 0.0,
			"0.023": 0.0,
			"0.024": 0.0,
			"0.025": 0.0
		}
	}
}
