{
	 "smiles": "CC(N1C(C)=CC(C(O)=O)=C1C)C1=CC=CC=C1", 
	 "Tm": 409.15, 
	 "num_atms": 35, 
	 "gaussian": { 
		 "optdone": 1, 
		 "sigma_profile": "yes", 
		 "theory": "DFT", 
		 "functional": "B3LYP", 
		 "basiset": "6-31G**", 
		 "properties": { 
			 "R2extent": 5640.448, 
			 "electric_dipole_moment_norm": 6.68814980843, 
			 "electric_quadrupole_moment_norm": 19.8854134536, 
			 "total_energy": -787.061200551, 
			 "HOMO_LUMO_gap": 0.19349, 
			 "cosmo_polarized_energy": -17.36, 
			 "cosmo_cavitation_energy": 36.92, 
			 "cosmo_dispersion_energy": -25.42, 
			 "cosmo_repulsion_energy": 1.95, 
			 "cosmo_total_nonelectrostatic_energy": 13.45, 
			 "SMD_solvation_energy": 7.56 
		},
		"coords": [
			{
				"x": 0.2477217837,
				"y": 2.9889157743,
				"z": -1.7336347528,
				"element": "C" 
			},
			{
				"x": -0.0282932031,
				"y": 1.490926397,
				"z": -1.9317684839,
				"element": "C" 
			},
			{
				"x": -0.0312010235,
				"y": 0.7639163635,
				"z": -0.648040934,
				"element": "N" 
			},
			{
				"x": -1.1631923539,
				"y": 0.1438308736,
				"z": -0.1154678885,
				"element": "C" 
			},
			{
				"x": -2.5133362788,
				"y": 0.1840981123,
				"z": -0.7608060338,
				"element": "C" 
			},
			{
				"x": -0.7911005561,
				"y": -0.4534971175,
				"z": 1.0619565964,
				"element": "C" 
			},
			{
				"x": 0.6017414636,
				"y": -0.1955209764,
				"z": 1.2691412387,
				"element": "C" 
			},
			{
				"x": 1.4418665693,
				"y": -0.6429665085,
				"z": 2.3920777763,
				"element": "C" 
			},
			{
				"x": 0.8924102817,
				"y": -1.6019989851,
				"z": 3.1970980903,
				"element": "O" 
			},
			{
				"x": 2.5558579221,
				"y": -0.233091856,
				"z": 2.6484009533,
				"element": "O" 
			},
			{
				"x": 1.0477886803,
				"y": 0.5673996336,
				"z": 0.1913526472,
				"element": "C" 
			},
			{
				"x": 2.420687312,
				"y": 1.1009740899,
				"z": -0.070830532,
				"element": "C" 
			},
			{
				"x": 0.8392848343,
				"y": 0.7924650395,
				"z": -2.9849990233,
				"element": "C" 
			},
			{
				"x": 0.848284305,
				"y": -0.6090415819,
				"z": -3.0558894192,
				"element": "C" 
			},
			{
				"x": 1.5758454181,
				"y": -1.2702989148,
				"z": -4.0436903744,
				"element": "C" 
			},
			{
				"x": 2.3089452938,
				"y": -0.5423090486,
				"z": -4.9837265055,
				"element": "C" 
			},
			{
				"x": 2.3065306777,
				"y": 0.8502074174,
				"z": -4.9238233823,
				"element": "C" 
			},
			{
				"x": 1.5772311458,
				"y": 1.5124961315,
				"z": -3.9325449081,
				"element": "C" 
			},
			{
				"x": 1.2913259414,
				"y": 3.1910455991,
				"z": -1.4847105396,
				"element": "H" 
			},
			{
				"x": -0.379918413,
				"y": 3.3715429614,
				"z": -0.9247476734,
				"element": "H" 
			},
			{
				"x": -0.0001933243,
				"y": 3.5449829948,
				"z": -2.6420239239,
				"element": "H" 
			},
			{
				"x": -1.0598627412,
				"y": 1.4151468103,
				"z": -2.2880448602,
				"element": "H" 
			},
			{
				"x": -2.5247247691,
				"y": -0.2748214658,
				"z": -1.7573824097,
				"element": "H" 
			},
			{
				"x": -2.9066495712,
				"y": 1.2033534789,
				"z": -0.8631260637,
				"element": "H" 
			},
			{
				"x": -3.2179813502,
				"y": -0.37404346,
				"z": -0.1395190589,
				"element": "H" 
			},
			{
				"x": -1.4746736186,
				"y": -0.9748512167,
				"z": 1.720644389,
				"element": "H" 
			},
			{
				"x": 0.0657141589,
				"y": -1.9180071873,
				"z": 2.8082226823,
				"element": "H" 
			},
			{
				"x": 3.1290110919,
				"y": 0.5705124955,
				"z": 0.5648018637,
				"element": "H" 
			},
			{
				"x": 2.4956694076,
				"y": 2.1635127229,
				"z": 0.1918405281,
				"element": "H" 
			},
			{
				"x": 2.7101812331,
				"y": 0.9913464452,
				"z": -1.1191330555,
				"element": "H" 
			},
			{
				"x": 0.2921408452,
				"y": -1.1855844145,
				"z": -2.3225509506,
				"element": "H" 
			},
			{
				"x": 1.5730057225,
				"y": -2.356059634,
				"z": -4.0767664902,
				"element": "H" 
			},
			{
				"x": 2.8783286718,
				"y": -1.0568484832,
				"z": -5.7521488018,
				"element": "H" 
			},
			{
				"x": 2.8759100362,
				"y": 1.4286009926,
				"z": -5.6458091845,
				"element": "H" 
			},
			{
				"x": 1.5939444071,
				"y": 2.5966665168,
				"z": -3.9054515157,
				"element": "H" 
			}
		],
		 "valence_orbital": [ 
			{
				"type": "occ",
				"energy": -0.25969,
				"method": "rhf"
			},
			{
				"type": "occ",
				"energy": -0.25896,
				"method": "rhf"
			},
			{
				"type": "occ",
				"energy": -0.24941,
				"method": "rhf"
			},
			{
				"type": "occ",
				"energy": -0.2438,
				"method": "rhf"
			},
			{
				"type": "occ",
				"energy": -0.2089,
				"method": "rhf"
			},
			{
				"type": "unocc",
				"energy": -0.01541,
				"method": "rhf"
			},
			{
				"type": "unocc",
				"energy": -0.01151,
				"method": "rhf"
			},
			{
				"type": "unocc",
				"energy": -0.00361,
				"method": "rhf"
			},
			{
				"type": "unocc",
				"energy": 0.033,
				"method": "rhf"
			},
			{
				"type": "unocc",
				"energy": 0.0721,
				"method": "rhf"
			}
		],
		"cosmo_sigma_profile": { 
			"-0.025": 0.0,
			"-0.024": 0.0,
			"-0.023": 0.0,
			"-0.022": 0.0,
			"-0.021": 0.0,
			"-0.02": 0.0,
			"-0.019": 0.0,
			"-0.018": 0.0,
			"-0.017": 0.586043080187,
			"-0.016": 0.905461035729,
			"-0.015": 0.884530565739,
			"-0.014": 0.792659462297,
			"-0.013": 0.644750549,
			"-0.012": 1.15350488087,
			"-0.011": 0.898750160107,
			"-0.01": 1.23982323982,
			"-0.009": 1.10179842758,
			"-0.008": 0.914856266527,
			"-0.007": 1.80197717118,
			"-0.006": 9.70560251131,
			"-0.005": 22.868816335,
			"-0.004": 31.0050863798,
			"-0.003": 26.6496496339,
			"-0.002": 25.120999519,
			"-0.001": 27.7329238953,
			"0.0": 26.3494071297,
			"0.001": 18.4250674695,
			"0.002": 14.6530788647,
			"0.003": 13.1584022493,
			"0.004": 13.8276869028,
			"0.005": 14.7888929707,
			"0.006": 9.07234075548,
			"0.007": 3.53194279663,
			"0.008": 2.25358043618,
			"0.009": 2.81503834176,
			"0.01": 3.59608775875,
			"0.011": 3.94618012644,
			"0.012": 5.23850778729,
			"0.013": 4.45471478417,
			"0.014": 2.17349804497,
			"0.015": 0.25100500306,
			"0.016": 0.0,
			"0.017": 0.0,
			"0.018": 0.0,
			"0.019": 0.0,
			"0.02": 0.0,
			"0.021": 0.0,
			"0.022": 0.0,
			"0.023": 0.0,
			"0.024": 0.0,
			"0.025": 0.0
		}
	}
}
