{
	 "smiles": "CS(=O)CCC(N)C(O)=O", 
	 "Tm": 506.15, 
	 "num_atms": 21, 
	 "gaussian": { 
		 "optdone": 1, 
		 "sigma_profile": "yes", 
		 "theory": "DFT", 
		 "functional": "B3LYP", 
		 "basiset": "6-31G**", 
		 "properties": { 
			 "R2extent": 2200.9131, 
			 "electric_dipole_moment_norm": 4.07868439328, 
			 "electric_quadrupole_moment_norm": 18.930914278, 
			 "total_energy": -875.723298337, 
			 "HOMO_LUMO_gap": 0.20494, 
			 "cosmo_polarized_energy": -25.01, 
			 "cosmo_cavitation_energy": 25.23, 
			 "cosmo_dispersion_energy": -18.36, 
			 "cosmo_repulsion_energy": 1.46, 
			 "cosmo_total_nonelectrostatic_energy": 8.33, 
			 "SMD_solvation_energy": 3.86 
		},
		"coords": [
			{
				"x": 1.6112458287,
				"y": 1.676790015,
				"z": 0.0585257503,
				"element": "C" 
			},
			{
				"x": 1.0533560747,
				"y": 0.495411367,
				"z": 1.3408688036,
				"element": "S" 
			},
			{
				"x": 0.80735563,
				"y": 1.2712857048,
				"z": 2.6165339978,
				"element": "O" 
			},
			{
				"x": -0.6273704974,
				"y": 0.1485016363,
				"z": 0.6411017199,
				"element": "C" 
			},
			{
				"x": -0.6887950054,
				"y": -0.6819747601,
				"z": -0.6436075359,
				"element": "C" 
			},
			{
				"x": -0.0261984996,
				"y": -2.0654395897,
				"z": -0.5701935948,
				"element": "C" 
			},
			{
				"x": -0.561475306,
				"y": -2.9128444292,
				"z": -1.6478510703,
				"element": "N" 
			},
			{
				"x": 1.5045483695,
				"y": -1.9649122296,
				"z": -0.71446513,
				"element": "C" 
			},
			{
				"x": 2.2495716594,
				"y": -2.8103545673,
				"z": 0.0373094985,
				"element": "O" 
			},
			{
				"x": 2.0371455853,
				"y": -1.2597240134,
				"z": -1.5419661003,
				"element": "O" 
			},
			{
				"x": 0.8853078226,
				"y": 2.4887458321,
				"z": -0.0343946453,
				"element": "H" 
			},
			{
				"x": 1.756952912,
				"y": 1.1472573355,
				"z": -0.8851902409,
				"element": "H" 
			},
			{
				"x": 2.5653321041,
				"y": 2.07712861,
				"z": 0.4068824012,
				"element": "H" 
			},
			{
				"x": -1.1270692459,
				"y": -0.3688846981,
				"z": 1.467323918,
				"element": "H" 
			},
			{
				"x": -1.1202546431,
				"y": 1.1183315714,
				"z": 0.5184353519,
				"element": "H" 
			},
			{
				"x": -1.7431169365,
				"y": -0.8506803409,
				"z": -0.8867406352,
				"element": "H" 
			},
			{
				"x": -0.2475453552,
				"y": -0.1360916191,
				"z": -1.4844670636,
				"element": "H" 
			},
			{
				"x": -0.2902185479,
				"y": -2.5429879994,
				"z": 0.3839559641,
				"element": "H" 
			},
			{
				"x": -0.1559840703,
				"y": -3.8457413312,
				"z": -1.6051486949,
				"element": "H" 
			},
			{
				"x": -0.2782517019,
				"y": -2.5191843193,
				"z": -2.5440798338,
				"element": "H" 
			},
			{
				"x": 1.6985638232,
				"y": -3.2404321747,
				"z": 0.7067671397,
				"element": "H" 
			}
		],
		 "valence_orbital": [ 
			{
				"type": "occ",
				"energy": -0.33203,
				"method": "rhf"
			},
			{
				"type": "occ",
				"energy": -0.30393,
				"method": "rhf"
			},
			{
				"type": "occ",
				"energy": -0.25953,
				"method": "rhf"
			},
			{
				"type": "occ",
				"energy": -0.2568,
				"method": "rhf"
			},
			{
				"type": "occ",
				"energy": -0.21981,
				"method": "rhf"
			},
			{
				"type": "unocc",
				"energy": -0.01487,
				"method": "rhf"
			},
			{
				"type": "unocc",
				"energy": 0.03072,
				"method": "rhf"
			},
			{
				"type": "unocc",
				"energy": 0.0448,
				"method": "rhf"
			},
			{
				"type": "unocc",
				"energy": 0.05411,
				"method": "rhf"
			},
			{
				"type": "unocc",
				"energy": 0.07642,
				"method": "rhf"
			}
		],
		"cosmo_sigma_profile": { 
			"-0.025": 0.0,
			"-0.024": 0.0,
			"-0.023": 0.0,
			"-0.022": 0.0,
			"-0.021": 0.0,
			"-0.02": 0.0220418599276,
			"-0.019": 1.13939169841,
			"-0.018": 1.00706425718,
			"-0.017": 1.13440379774,
			"-0.016": 1.42864230144,
			"-0.015": 0.937002934191,
			"-0.014": 0.844113723622,
			"-0.013": 1.14313483053,
			"-0.012": 2.91773172353,
			"-0.011": 3.01430158481,
			"-0.01": 3.47644544483,
			"-0.009": 4.10737352853,
			"-0.008": 5.19440761111,
			"-0.007": 10.5121898144,
			"-0.006": 11.3671385648,
			"-0.005": 12.5031394776,
			"-0.004": 17.7072979715,
			"-0.003": 12.9809556701,
			"-0.002": 13.8341368258,
			"-0.001": 9.38380182643,
			"0.0": 5.36426071088,
			"0.001": 5.23299422511,
			"0.002": 5.56181494664,
			"0.003": 6.07326365193,
			"0.004": 4.91589586775,
			"0.005": 3.58588602029,
			"0.006": 4.18521171887,
			"0.007": 3.67568997882,
			"0.008": 4.41282835054,
			"0.009": 5.46925447233,
			"0.01": 5.51332887917,
			"0.011": 4.87342004532,
			"0.012": 4.73381718021,
			"0.013": 3.75651363017,
			"0.014": 3.53932440788,
			"0.015": 6.06933368229,
			"0.016": 4.79377290413,
			"0.017": 0.770633486475,
			"0.018": 0.0781202806463,
			"0.019": 0.0,
			"0.02": 0.0,
			"0.021": 0.0,
			"0.022": 0.0,
			"0.023": 0.0,
			"0.024": 0.0,
			"0.025": 0.0
		}
	}
}
