{
	 "smiles": "FC1=CC=C(C=NC2=C(CC3=CC=C(Cl)C=C3)C(N=CC3=CC=C(F)C=C3)=NN2)C=C1", 
	 "Tm": 497.15, 
	 "num_atms": 48, 
	 "gaussian": { 
		 "optdone": 1, 
		 "sigma_profile": "yes", 
		 "theory": "DFT", 
		 "functional": "B3LYP", 
		 "basiset": "6-31G**", 
		 "properties": { 
			 "R2extent": 22475.8359, 
			 "electric_dipole_moment_norm": 2.0857391999, 
			 "electric_quadrupole_moment_norm": 17.7582124086, 
			 "total_energy": -1803.64417573, 
			 "HOMO_LUMO_gap": 0.14374, 
			 "cosmo_polarized_energy": -15.29, 
			 "cosmo_cavitation_energy": 57.93, 
			 "cosmo_dispersion_energy": -38.92, 
			 "cosmo_repulsion_energy": 2.88, 
			 "cosmo_total_nonelectrostatic_energy": 21.88, 
			 "SMD_solvation_energy": 7.57 
		},
		"coords": [
			{
				"x": 1.8188950733,
				"y": -8.4393367953,
				"z": 0.8254597382,
				"element": "F" 
			},
			{
				"x": 1.6126115984,
				"y": -7.1287754187,
				"z": 0.5961582486,
				"element": "C" 
			},
			{
				"x": 2.5613367151,
				"y": -6.4175035744,
				"z": -0.1385002028,
				"element": "C" 
			},
			{
				"x": 2.348508484,
				"y": -5.0656562358,
				"z": -0.3730366886,
				"element": "C" 
			},
			{
				"x": 1.196178635,
				"y": -4.4242177228,
				"z": 0.1203332525,
				"element": "C" 
			},
			{
				"x": 0.9460520843,
				"y": -3.0028932745,
				"z": -0.1144950587,
				"element": "C" 
			},
			{
				"x": 1.7377797847,
				"y": -2.2782293986,
				"z": -0.8273819517,
				"element": "N" 
			},
			{
				"x": 1.512638652,
				"y": -0.9325709096,
				"z": -1.0156361371,
				"element": "C" 
			},
			{
				"x": 0.7583026339,
				"y": 0.0875941212,
				"z": -0.4174575893,
				"element": "C" 
			},
			{
				"x": -0.1520940948,
				"y": 0.0555423269,
				"z": 0.7754891079,
				"element": "C" 
			},
			{
				"x": -1.5420686675,
				"y": -0.5284919762,
				"z": 0.5519799004,
				"element": "C" 
			},
			{
				"x": -2.1767254906,
				"y": -1.2495040476,
				"z": 1.5724264126,
				"element": "C" 
			},
			{
				"x": -3.4663743796,
				"y": -1.7585489115,
				"z": 1.4110915994,
				"element": "C" 
			},
			{
				"x": -4.13209904,
				"y": -1.5419493206,
				"z": 0.2062584012,
				"element": "C" 
			},
			{
				"x": -5.7558745387,
				"y": -2.1828978517,
				"z": -0.0147451899,
				"element": "Cl" 
			},
			{
				"x": -3.5273637256,
				"y": -0.8274232086,
				"z": -0.8272200475,
				"element": "C" 
			},
			{
				"x": -2.2380392631,
				"y": -0.3273278828,
				"z": -0.6470383392,
				"element": "C" 
			},
			{
				"x": 1.1026288341,
				"y": 1.2502070083,
				"z": -1.1582475292,
				"element": "C" 
			},
			{
				"x": 0.5781047316,
				"y": 2.5107401776,
				"z": -0.8868363337,
				"element": "N" 
			},
			{
				"x": 0.9042971353,
				"y": 3.5133397429,
				"z": -1.622385753,
				"element": "C" 
			},
			{
				"x": 0.3870995616,
				"y": 4.8612474936,
				"z": -1.3803106739,
				"element": "C" 
			},
			{
				"x": -0.5063700796,
				"y": 5.1329415082,
				"z": -0.326680533,
				"element": "C" 
			},
			{
				"x": -0.9847871369,
				"y": 6.4195995987,
				"z": -0.1165693383,
				"element": "C" 
			},
			{
				"x": -0.5634186576,
				"y": 7.4397960677,
				"z": -0.9690696454,
				"element": "C" 
			},
			{
				"x": -1.0266100288,
				"y": 8.6887706827,
				"z": -0.7662304862,
				"element": "F" 
			},
			{
				"x": 0.3174753588,
				"y": 7.2103215069,
				"z": -2.0199647041,
				"element": "C" 
			},
			{
				"x": 0.7885529519,
				"y": 5.9144918669,
				"z": -2.2188762508,
				"element": "C" 
			},
			{
				"x": 1.9929080032,
				"y": 0.9891361767,
				"z": -2.1324234509,
				"element": "N" 
			},
			{
				"x": 2.2264815985,
				"y": -0.3216491157,
				"z": -2.0105623343,
				"element": "N" 
			},
			{
				"x": 0.2624012652,
				"y": -5.1729311557,
				"z": 0.8571947941,
				"element": "C" 
			},
			{
				"x": 0.4631485412,
				"y": -6.5294371025,
				"z": 1.0997048596,
				"element": "C" 
			},
			{
				"x": 3.4422369717,
				"y": -6.9307853758,
				"z": -0.5087062802,
				"element": "H" 
			},
			{
				"x": 3.0655152124,
				"y": -4.4812020434,
				"z": -0.9392510168,
				"element": "H" 
			},
			{
				"x": 0.032456963,
				"y": -2.6026855244,
				"z": 0.3366483972,
				"element": "H" 
			},
			{
				"x": -0.2633472609,
				"y": 1.093122213,
				"z": 1.1134763869,
				"element": "H" 
			},
			{
				"x": 0.3281470166,
				"y": -0.4883777187,
				"z": 1.5991146621,
				"element": "H" 
			},
			{
				"x": -1.6587521346,
				"y": -1.4140025696,
				"z": 2.5145302135,
				"element": "H" 
			},
			{
				"x": -3.9479666587,
				"y": -2.3152602417,
				"z": 2.2076483293,
				"element": "H" 
			},
			{
				"x": -4.0581468874,
				"y": -0.6665286018,
				"z": -1.7592423793,
				"element": "H" 
			},
			{
				"x": -1.7652408744,
				"y": 0.227253545,
				"z": -1.4517153304,
				"element": "H" 
			},
			{
				"x": 1.5900008305,
				"y": 3.400982866,
				"z": -2.4709289088,
				"element": "H" 
			},
			{
				"x": -0.8127281635,
				"y": 4.3146760291,
				"z": 0.3158167088,
				"element": "H" 
			},
			{
				"x": -1.6740454506,
				"y": 6.6493497142,
				"z": 0.6889008687,
				"element": "H" 
			},
			{
				"x": 0.6180393475,
				"y": 8.0340602268,
				"z": -2.658009691,
				"element": "H" 
			},
			{
				"x": 1.4778656327,
				"y": 5.7137934936,
				"z": -3.0348786695,
				"element": "H" 
			},
			{
				"x": 2.869990359,
				"y": -0.7913039619,
				"z": -2.6308422766,
				"element": "H" 
			},
			{
				"x": -0.6312981823,
				"y": -4.6855996777,
				"z": 1.2381288167,
				"element": "H" 
			},
			{
				"x": -0.2480032604,
				"y": -7.1222767482,
				"z": 1.6641820925,
				"element": "H" 
			}
		],
		 "valence_orbital": [ 
			{
				"type": "occ",
				"energy": -0.26377,
				"method": "rhf"
			},
			{
				"type": "occ",
				"energy": -0.26292,
				"method": "rhf"
			},
			{
				"type": "occ",
				"energy": -0.24177,
				"method": "rhf"
			},
			{
				"type": "occ",
				"energy": -0.22478,
				"method": "rhf"
			},
			{
				"type": "occ",
				"energy": -0.21362,
				"method": "rhf"
			},
			{
				"type": "unocc",
				"energy": -0.06988,
				"method": "rhf"
			},
			{
				"type": "unocc",
				"energy": -0.0601,
				"method": "rhf"
			},
			{
				"type": "unocc",
				"energy": -0.0214,
				"method": "rhf"
			},
			{
				"type": "unocc",
				"energy": -0.01639,
				"method": "rhf"
			},
			{
				"type": "unocc",
				"energy": -0.01485,
				"method": "rhf"
			}
		],
		"cosmo_sigma_profile": { 
			"-0.025": 0.0,
			"-0.024": 0.0,
			"-0.023": 0.0,
			"-0.022": 0.0,
			"-0.021": 0.0,
			"-0.02": 0.0,
			"-0.019": 0.0,
			"-0.018": 0.0,
			"-0.017": 0.116073203764,
			"-0.016": 1.00091119192,
			"-0.015": 1.68727082756,
			"-0.014": 0.37575426004,
			"-0.013": 0.513809211986,
			"-0.012": 0.661661493944,
			"-0.011": 1.30411927735,
			"-0.01": 1.20163499673,
			"-0.009": 0.332972569616,
			"-0.008": 3.63948848345,
			"-0.007": 15.3124865243,
			"-0.006": 23.9845898502,
			"-0.005": 31.7538286611,
			"-0.004": 24.5560303772,
			"-0.003": 21.474635275,
			"-0.002": 26.1956092296,
			"-0.001": 29.6108589162,
			"0.0": 40.4969471153,
			"0.001": 45.6732819848,
			"0.002": 54.9820641351,
			"0.003": 60.8483715877,
			"0.004": 44.915354324,
			"0.005": 17.2939158933,
			"0.006": 5.35231271032,
			"0.007": 5.32273385977,
			"0.008": 4.01111403185,
			"0.009": 1.85723096535,
			"0.01": 0.990316707062,
			"0.011": 0.958997710969,
			"0.012": 1.04698399339,
			"0.013": 1.14855369796,
			"0.014": 0.417556281196,
			"0.015": 0.0,
			"0.016": 0.0,
			"0.017": 0.0,
			"0.018": 0.0,
			"0.019": 0.0,
			"0.02": 0.0,
			"0.021": 0.0,
			"0.022": 0.0,
			"0.023": 0.0,
			"0.024": 0.0,
			"0.025": 0.0
		}
	}
}
