{
	 "smiles": "CC1=CC(=CC=C1)C1=NN=C(S)N1CCC(O)=O", 
	 "Tm": 290.15, 
	 "num_atms": 31, 
	 "gaussian": { 
		 "optdone": 1, 
		 "sigma_profile": "yes", 
		 "theory": "DFT", 
		 "functional": "B3LYP", 
		 "basiset": "6-31G**", 
		 "properties": { 
			 "R2extent": 5571.2526, 
			 "electric_dipole_moment_norm": 6.2646024399, 
			 "electric_quadrupole_moment_norm": 15.8822953927, 
			 "total_energy": -1177.99945903, 
			 "HOMO_LUMO_gap": 0.19102, 
			 "cosmo_polarized_energy": -23.79, 
			 "cosmo_cavitation_energy": 36.55, 
			 "cosmo_dispersion_energy": -25.87, 
			 "cosmo_repulsion_energy": 1.99, 
			 "cosmo_total_nonelectrostatic_energy": 12.67, 
			 "SMD_solvation_energy": 4.75 
		},
		"coords": [
			{
				"x": 0.3802836851,
				"y": -1.9584327657,
				"z": 4.0243831504,
				"element": "C" 
			},
			{
				"x": -0.4069279029,
				"y": -1.8785586631,
				"z": 2.7368939332,
				"element": "C" 
			},
			{
				"x": 0.2334086915,
				"y": -1.6444167115,
				"z": 1.5157206088,
				"element": "C" 
			},
			{
				"x": -0.4880760018,
				"y": -1.5567863579,
				"z": 0.3133430189,
				"element": "C" 
			},
			{
				"x": -1.8793505757,
				"y": -1.7368891135,
				"z": 0.3392520487,
				"element": "C" 
			},
			{
				"x": -2.5262563292,
				"y": -1.9770714112,
				"z": 1.5499491623,
				"element": "C" 
			},
			{
				"x": -1.7997143067,
				"y": -2.0397691368,
				"z": 2.7386005369,
				"element": "C" 
			},
			{
				"x": 0.1656614622,
				"y": -1.3491852269,
				"z": -0.991405072,
				"element": "C" 
			},
			{
				"x": -0.151249238,
				"y": -2.0238162457,
				"z": -2.0785917374,
				"element": "N" 
			},
			{
				"x": 0.6234453034,
				"y": -1.5575534492,
				"z": -3.1141533734,
				"element": "N" 
			},
			{
				"x": 1.3975185974,
				"y": -0.6149635073,
				"z": -2.6288397668,
				"element": "C" 
			},
			{
				"x": 2.6168050215,
				"y": 0.28186785,
				"z": -3.5513017352,
				"element": "S" 
			},
			{
				"x": 1.1609950741,
				"y": -0.4309149921,
				"z": -1.2812847714,
				"element": "N" 
			},
			{
				"x": 1.7395923738,
				"y": 0.5968252448,
				"z": -0.4148349851,
				"element": "C" 
			},
			{
				"x": 0.7410274157,
				"y": 1.6896822752,
				"z": -0.0250307679,
				"element": "C" 
			},
			{
				"x": 0.3646497567,
				"y": 2.5861968771,
				"z": -1.1860415409,
				"element": "C" 
			},
			{
				"x": -0.6960538233,
				"y": 3.3652818149,
				"z": -0.8858510821,
				"element": "O" 
			},
			{
				"x": 0.9401625969,
				"y": 2.6373569955,
				"z": -2.2511195601,
				"element": "O" 
			},
			{
				"x": 0.0807036815,
				"y": -2.8257070154,
				"z": 4.6217888937,
				"element": "H" 
			},
			{
				"x": 1.4543535725,
				"y": -2.0369476488,
				"z": 3.8340108308,
				"element": "H" 
			},
			{
				"x": 0.2182825274,
				"y": -1.0688171918,
				"z": 4.6453342326,
				"element": "H" 
			},
			{
				"x": 1.3172416637,
				"y": -1.5724009906,
				"z": 1.5009278327,
				"element": "H" 
			},
			{
				"x": -2.4324606564,
				"y": -1.695004815,
				"z": -0.5925538275,
				"element": "H" 
			},
			{
				"x": -3.6033189693,
				"y": -2.1165219408,
				"z": 1.5662280195,
				"element": "H" 
			},
			{
				"x": -2.3150413641,
				"y": -2.2267334646,
				"z": 3.6775624888,
				"element": "H" 
			},
			{
				"x": 3.1004176794,
				"y": -0.8233269658,
				"z": -4.1523149298,
				"element": "H" 
			},
			{
				"x": 2.1307742907,
				"y": 0.1246569045,
				"z": 0.4875822849,
				"element": "H" 
			},
			{
				"x": 2.5817929388,
				"y": 1.0307366536,
				"z": -0.9562384013,
				"element": "H" 
			},
			{
				"x": 1.1876387063,
				"y": 2.3267271579,
				"z": 0.74914011,
				"element": "H" 
			},
			{
				"x": -0.1655250142,
				"y": 1.2660336007,
				"z": 0.4158769589,
				"element": "H" 
			},
			{
				"x": -0.8620808568,
				"y": 3.9185522396,
				"z": -1.6682325604,
				"element": "H" 
			}
		],
		 "valence_orbital": [ 
			{
				"type": "occ",
				"energy": -0.28591,
				"method": "rhf"
			},
			{
				"type": "occ",
				"energy": -0.26319,
				"method": "rhf"
			},
			{
				"type": "occ",
				"energy": -0.25286,
				"method": "rhf"
			},
			{
				"type": "occ",
				"energy": -0.24635,
				"method": "rhf"
			},
			{
				"type": "occ",
				"energy": -0.22292,
				"method": "rhf"
			},
			{
				"type": "unocc",
				"energy": -0.0319,
				"method": "rhf"
			},
			{
				"type": "unocc",
				"energy": -0.01044,
				"method": "rhf"
			},
			{
				"type": "unocc",
				"energy": -0.00652,
				"method": "rhf"
			},
			{
				"type": "unocc",
				"energy": 0.01409,
				"method": "rhf"
			},
			{
				"type": "unocc",
				"energy": 0.03801,
				"method": "rhf"
			}
		],
		"cosmo_sigma_profile": { 
			"-0.025": 0.0,
			"-0.024": 0.0,
			"-0.023": 0.0,
			"-0.022": 0.0,
			"-0.021": 0.0,
			"-0.02": 0.0,
			"-0.019": 0.179484622893,
			"-0.018": 0.879888058695,
			"-0.017": 1.11541649957,
			"-0.016": 0.749691051158,
			"-0.015": 0.768316630656,
			"-0.014": 0.709516342294,
			"-0.013": 0.398056333461,
			"-0.012": 1.17221262712,
			"-0.011": 2.48268997167,
			"-0.01": 2.65569504376,
			"-0.009": 3.66044915762,
			"-0.008": 8.32487913026,
			"-0.007": 9.98359616638,
			"-0.006": 13.6461532264,
			"-0.005": 19.2604707092,
			"-0.004": 23.7311245392,
			"-0.003": 21.03120408,
			"-0.002": 22.872804844,
			"-0.001": 20.5145435322,
			"0.0": 19.2114671375,
			"0.001": 13.2511781839,
			"0.002": 14.0146680303,
			"0.003": 13.4074673009,
			"0.004": 15.2875932532,
			"0.005": 11.780260022,
			"0.006": 7.89979070523,
			"0.007": 7.24819576172,
			"0.008": 6.53957936315,
			"0.009": 5.04034733557,
			"0.01": 5.2104092961,
			"0.011": 5.15900263492,
			"0.012": 3.11170529796,
			"0.013": 3.35046262772,
			"0.014": 3.57996711402,
			"0.015": 2.15480802605,
			"0.016": 2.09283953494,
			"0.017": 0.593122021183,
			"0.018": 0.0,
			"0.019": 0.0,
			"0.02": 0.0,
			"0.021": 0.0,
			"0.022": 0.0,
			"0.023": 0.0,
			"0.024": 0.0,
			"0.025": 0.0
		}
	}
}
