{
	 "smiles": "COC1=CC(NC(=S)NN)=CC(OC)=C1OC", 
	 "Tm": 451.15, 
	 "num_atms": 32, 
	 "gaussian": { 
		 "optdone": 1, 
		 "sigma_profile": "yes", 
		 "theory": "DFT", 
		 "functional": "B3LYP", 
		 "basiset": "6-31G**", 
		 "properties": { 
			 "R2extent": 6316.6896, 
			 "electric_dipole_moment_norm": 5.69612217039, 
			 "electric_quadrupole_moment_norm": 16.3191380569, 
			 "total_energy": -1178.14674956, 
			 "HOMO_LUMO_gap": 0.17999, 
			 "cosmo_polarized_energy": -17.64, 
			 "cosmo_cavitation_energy": 37.48, 
			 "cosmo_dispersion_energy": -26.51, 
			 "cosmo_repulsion_energy": 2.07, 
			 "cosmo_total_nonelectrostatic_energy": 13.05, 
			 "SMD_solvation_energy": 8.28 
		},
		"coords": [
			{
				"x": 0.8155000012,
				"y": -0.3171210103,
				"z": -3.0257102836,
				"element": "C" 
			},
			{
				"x": 1.5457621329,
				"y": -0.3659121981,
				"z": -1.7929831049,
				"element": "O" 
			},
			{
				"x": 0.7990651335,
				"y": -0.2201567091,
				"z": -0.6511412244,
				"element": "C" 
			},
			{
				"x": 1.0501816715,
				"y": 0.889816828,
				"z": 0.1597941998,
				"element": "C" 
			},
			{
				"x": 0.3671655551,
				"y": 1.0351342641,
				"z": 1.3757282936,
				"element": "C" 
			},
			{
				"x": 0.6137489217,
				"y": 2.1142759184,
				"z": 2.2583491847,
				"element": "N" 
			},
			{
				"x": 0.8183098789,
				"y": 3.4471017897,
				"z": 2.0007973053,
				"element": "C" 
			},
			{
				"x": 1.132984701,
				"y": 4.5193350048,
				"z": 3.2606075772,
				"element": "S" 
			},
			{
				"x": 0.7359480316,
				"y": 3.8361296464,
				"z": 0.7006258869,
				"element": "N" 
			},
			{
				"x": 0.7764823651,
				"y": 5.1821075775,
				"z": 0.2941646748,
				"element": "N" 
			},
			{
				"x": -0.5625290279,
				"y": 0.0634837021,
				"z": 1.7683220761,
				"element": "C" 
			},
			{
				"x": -0.794682224,
				"y": -1.0566771575,
				"z": 0.969690776,
				"element": "C" 
			},
			{
				"x": -1.6475233555,
				"y": -2.019266422,
				"z": 1.4417254775,
				"element": "O" 
			},
			{
				"x": -2.8293423616,
				"y": -2.2561894982,
				"z": 0.6651205862,
				"element": "C" 
			},
			{
				"x": -0.1170500292,
				"y": -1.2080892566,
				"z": -0.2537649263,
				"element": "C" 
			},
			{
				"x": -0.3375011495,
				"y": -2.3168561124,
				"z": -1.0414900803,
				"element": "O" 
			},
			{
				"x": 0.5927886335,
				"y": -3.3845033664,
				"z": -0.8040513872,
				"element": "C" 
			},
			{
				"x": 1.5545948855,
				"y": -0.4438030827,
				"z": -3.8189243062,
				"element": "H" 
			},
			{
				"x": 0.0712912496,
				"y": -1.1160587213,
				"z": -3.0800273544,
				"element": "H" 
			},
			{
				"x": 0.3226845019,
				"y": 0.6561470668,
				"z": -3.1446693162,
				"element": "H" 
			},
			{
				"x": 1.8191496498,
				"y": 1.587110807,
				"z": -0.1498326286,
				"element": "H" 
			},
			{
				"x": 0.5489748153,
				"y": 1.9204695389,
				"z": 3.2480560323,
				"element": "H" 
			},
			{
				"x": 0.3125117648,
				"y": 3.2151463986,
				"z": 0.0243173366,
				"element": "H" 
			},
			{
				"x": 1.7442776972,
				"y": 5.4934831782,
				"z": 0.3770378869,
				"element": "H" 
			},
			{
				"x": 0.2666997695,
				"y": 5.7236099226,
				"z": 0.9957103687,
				"element": "H" 
			},
			{
				"x": -1.1116436624,
				"y": 0.1587244708,
				"z": 2.6992057167,
				"element": "H" 
			},
			{
				"x": -3.3840925759,
				"y": -3.0335296557,
				"z": 1.1938090789,
				"element": "H" 
			},
			{
				"x": -3.4434861441,
				"y": -1.3485584307,
				"z": 0.611053583,
				"element": "H" 
			},
			{
				"x": -2.5829593837,
				"y": -2.5957748188,
				"z": -0.3439010888,
				"element": "H" 
			},
			{
				"x": 0.3125610873,
				"y": -4.1928733041,
				"z": -1.4824140597,
				"element": "H" 
			},
			{
				"x": 1.6167620263,
				"y": -3.0614969908,
				"z": -1.019957975,
				"element": "H" 
			},
			{
				"x": 0.5238654407,
				"y": -3.7349093793,
				"z": 0.2317516948,
				"element": "H" 
			}
		],
		 "valence_orbital": [ 
			{
				"type": "occ",
				"energy": -0.27264,
				"method": "rhf"
			},
			{
				"type": "occ",
				"energy": -0.24507,
				"method": "rhf"
			},
			{
				"type": "occ",
				"energy": -0.23769,
				"method": "rhf"
			},
			{
				"type": "occ",
				"energy": -0.21237,
				"method": "rhf"
			},
			{
				"type": "occ",
				"energy": -0.20919,
				"method": "rhf"
			},
			{
				"type": "unocc",
				"energy": -0.0292,
				"method": "rhf"
			},
			{
				"type": "unocc",
				"energy": -0.01443,
				"method": "rhf"
			},
			{
				"type": "unocc",
				"energy": 0.01659,
				"method": "rhf"
			},
			{
				"type": "unocc",
				"energy": 0.06152,
				"method": "rhf"
			},
			{
				"type": "unocc",
				"energy": 0.07834,
				"method": "rhf"
			}
		],
		"cosmo_sigma_profile": { 
			"-0.025": 0.0,
			"-0.024": 0.0,
			"-0.023": 0.0,
			"-0.022": 0.0,
			"-0.021": 0.0,
			"-0.02": 0.0,
			"-0.019": 0.0,
			"-0.018": 0.0,
			"-0.017": 0.0,
			"-0.016": 0.0,
			"-0.015": 0.25332646019,
			"-0.014": 0.913649428404,
			"-0.013": 1.51274761424,
			"-0.012": 1.7719685568,
			"-0.011": 3.23180788355,
			"-0.01": 3.30573411596,
			"-0.009": 4.86014020127,
			"-0.008": 4.36438677587,
			"-0.007": 6.24820796946,
			"-0.006": 10.1816595291,
			"-0.005": 16.636253826,
			"-0.004": 23.050726649,
			"-0.003": 33.8447497459,
			"-0.002": 27.0986008059,
			"-0.001": 20.9369554848,
			"0.0": 17.4872046989,
			"0.001": 18.1051258207,
			"0.002": 19.7495961531,
			"0.003": 16.3026207558,
			"0.004": 8.58731777858,
			"0.005": 7.74530682357,
			"0.006": 7.08821955497,
			"0.007": 6.08114709647,
			"0.008": 7.22368893014,
			"0.009": 9.34067437376,
			"0.01": 9.54411590081,
			"0.011": 8.42994254961,
			"0.012": 2.86358734831,
			"0.013": 0.556234999804,
			"0.014": 0.762591923359,
			"0.015": 0.410292057642,
			"0.016": 0.467831635194,
			"0.017": 0.0,
			"0.018": 0.0,
			"0.019": 0.0,
			"0.02": 0.0,
			"0.021": 0.0,
			"0.022": 0.0,
			"0.023": 0.0,
			"0.024": 0.0,
			"0.025": 0.0
		}
	}
}
