{
	 "smiles": "ClCC(=O)N(C1CCCC1)C1CCS(=O)(=O)C1", 
	 "Tm": 290.15, 
	 "num_atms": 35, 
	 "gaussian": { 
		 "optdone": 1, 
		 "sigma_profile": "yes", 
		 "theory": "DFT", 
		 "functional": "B3LYP", 
		 "basiset": "6-31G**", 
		 "properties": { 
			 "R2extent": 6978.8147, 
			 "electric_dipole_moment_norm": 7.62876909141, 
			 "electric_quadrupole_moment_norm": 20.5786177855, 
			 "total_energy": -1568.74446733, 
			 "HOMO_LUMO_gap": 0.21822, 
			 "cosmo_polarized_energy": -20.12, 
			 "cosmo_cavitation_energy": 36.77, 
			 "cosmo_dispersion_energy": -26.73, 
			 "cosmo_repulsion_energy": 2.01, 
			 "cosmo_total_nonelectrostatic_energy": 12.05, 
			 "SMD_solvation_energy": 4.06 
		},
		"coords": [
			{
				"x": 3.2979700092,
				"y": -2.7870596765,
				"z": -1.9498200242,
				"element": "Cl" 
			},
			{
				"x": 2.2522731129,
				"y": -1.9781875535,
				"z": -0.7343922238,
				"element": "C" 
			},
			{
				"x": 2.6540817912,
				"y": -0.5411310638,
				"z": -0.4513996795,
				"element": "C" 
			},
			{
				"x": 3.7773887578,
				"y": -0.1153196773,
				"z": -0.5908555915,
				"element": "O" 
			},
			{
				"x": 1.5657840538,
				"y": 0.2340056549,
				"z": 0.1071656962,
				"element": "N" 
			},
			{
				"x": 0.9601293682,
				"y": 1.0343968032,
				"z": -1.0042762714,
				"element": "C" 
			},
			{
				"x": 0.5688125408,
				"y": 0.2284547591,
				"z": -2.2589306354,
				"element": "C" 
			},
			{
				"x": -0.2215183801,
				"y": 1.2483972718,
				"z": -3.1006156599,
				"element": "C" 
			},
			{
				"x": -0.9006165564,
				"y": 2.1956579049,
				"z": -2.0685877927,
				"element": "C" 
			},
			{
				"x": -0.3545887112,
				"y": 1.7701741203,
				"z": -0.6826144605,
				"element": "C" 
			},
			{
				"x": 1.9371620089,
				"y": 1.0859568102,
				"z": 1.2740004909,
				"element": "C" 
			},
			{
				"x": 0.7462055435,
				"y": 1.1677212465,
				"z": 2.2748687167,
				"element": "C" 
			},
			{
				"x": 0.6175866137,
				"y": -0.1894272877,
				"z": 2.9747839266,
				"element": "C" 
			},
			{
				"x": 2.3429255676,
				"y": -0.7775893558,
				"z": 3.1884805337,
				"element": "S" 
			},
			{
				"x": 2.5021573408,
				"y": -2.0820240144,
				"z": 2.5158444507,
				"element": "O" 
			},
			{
				"x": 2.7743970079,
				"y": -0.6094499403,
				"z": 4.5846368063,
				"element": "O" 
			},
			{
				"x": 3.0804806591,
				"y": 0.5370037039,
				"z": 2.1465224129,
				"element": "C" 
			},
			{
				"x": 1.2173664573,
				"y": -2.0513538768,
				"z": -1.0603482985,
				"element": "H" 
			},
			{
				"x": 2.3531865473,
				"y": -2.5089794489,
				"z": 0.2179701545,
				"element": "H" 
			},
			{
				"x": 1.7083995094,
				"y": 1.7865683208,
				"z": -1.3140528864,
				"element": "H" 
			},
			{
				"x": -0.0867660082,
				"y": -0.5990244634,
				"z": -1.9615299718,
				"element": "H" 
			},
			{
				"x": 1.4203787678,
				"y": -0.1930752458,
				"z": -2.8005996035,
				"element": "H" 
			},
			{
				"x": 0.4611763269,
				"y": 1.811911108,
				"z": -3.744712482,
				"element": "H" 
			},
			{
				"x": -0.9421902328,
				"y": 0.7556352599,
				"z": -3.7585634586,
				"element": "H" 
			},
			{
				"x": -0.6516206883,
				"y": 3.2399595968,
				"z": -2.2796359861,
				"element": "H" 
			},
			{
				"x": -1.991299913,
				"y": 2.1220291652,
				"z": -2.0964925774,
				"element": "H" 
			},
			{
				"x": -1.0432832612,
				"y": 1.066383349,
				"z": -0.2004327187,
				"element": "H" 
			},
			{
				"x": -0.2243421256,
				"y": 2.626379556,
				"z": -0.0155759187,
				"element": "H" 
			},
			{
				"x": 2.2187675074,
				"y": 2.0931955505,
				"z": 0.9361455988,
				"element": "H" 
			},
			{
				"x": 0.9713961093,
				"y": 1.9496465846,
				"z": 3.0092359944,
				"element": "H" 
			},
			{
				"x": -0.1904199596,
				"y": 1.4348837116,
				"z": 1.7905751794,
				"element": "H" 
			},
			{
				"x": 0.1149886624,
				"y": -0.9284952283,
				"z": 2.3496464094,
				"element": "H" 
			},
			{
				"x": 0.1567336259,
				"y": -0.1444533444,
				"z": 3.9623374228,
				"element": "H" 
			},
			{
				"x": 3.9397147437,
				"y": 0.1308863888,
				"z": 1.6189486302,
				"element": "H" 
			},
			{
				"x": 3.4103832037,
				"y": 1.3178233106,
				"z": 2.8352738172,
				"element": "H" 
			}
		],
		 "valence_orbital": [ 
			{
				"type": "occ",
				"energy": -0.30133,
				"method": "rhf"
			},
			{
				"type": "occ",
				"energy": -0.29413,
				"method": "rhf"
			},
			{
				"type": "occ",
				"energy": -0.28408,
				"method": "rhf"
			},
			{
				"type": "occ",
				"energy": -0.28226,
				"method": "rhf"
			},
			{
				"type": "occ",
				"energy": -0.25652,
				"method": "rhf"
			},
			{
				"type": "unocc",
				"energy": -0.0383,
				"method": "rhf"
			},
			{
				"type": "unocc",
				"energy": 0.03231,
				"method": "rhf"
			},
			{
				"type": "unocc",
				"energy": 0.0417,
				"method": "rhf"
			},
			{
				"type": "unocc",
				"energy": 0.05079,
				"method": "rhf"
			},
			{
				"type": "unocc",
				"energy": 0.06364,
				"method": "rhf"
			}
		],
		"cosmo_sigma_profile": { 
			"-0.025": 0.0,
			"-0.024": 0.0,
			"-0.023": 0.0,
			"-0.022": 0.0,
			"-0.021": 0.0,
			"-0.02": 0.0,
			"-0.019": 0.0,
			"-0.018": 0.0,
			"-0.017": 0.0,
			"-0.016": 0.0,
			"-0.015": 0.0,
			"-0.014": 0.0,
			"-0.013": 0.0,
			"-0.012": 0.0,
			"-0.011": 0.0,
			"-0.01": 0.0349863942209,
			"-0.009": 2.51842900518,
			"-0.008": 6.71387883311,
			"-0.007": 10.2265820366,
			"-0.006": 16.1396499019,
			"-0.005": 20.696303188,
			"-0.004": 23.8986780247,
			"-0.003": 31.7925139166,
			"-0.002": 32.3821974861,
			"-0.001": 23.2080077547,
			"0.0": 19.5797556331,
			"0.001": 16.6156932132,
			"0.002": 7.58607375237,
			"0.003": 7.7904004968,
			"0.004": 7.91300408147,
			"0.005": 10.1836409155,
			"0.006": 8.41450285864,
			"0.007": 4.58119666251,
			"0.008": 4.88825194175,
			"0.009": 6.03072785844,
			"0.01": 7.16700850645,
			"0.011": 9.72023978228,
			"0.012": 9.32711489486,
			"0.013": 1.79043021257,
			"0.014": 0.0,
			"0.015": 0.0,
			"0.016": 0.0,
			"0.017": 0.0,
			"0.018": 0.0,
			"0.019": 0.0,
			"0.02": 0.0,
			"0.021": 0.0,
			"0.022": 0.0,
			"0.023": 0.0,
			"0.024": 0.0,
			"0.025": 0.0
		}
	}
}
