{
	 "smiles": "OC(=O)C1=C(C=CN=C1)C(F)(F)F", 
	 "Tm": 423.15, 
	 "num_atms": 17, 
	 "gaussian": { 
		 "optdone": 1, 
		 "sigma_profile": "yes", 
		 "theory": "DFT", 
		 "functional": "B3LYP", 
		 "basiset": "6-31G**", 
		 "properties": { 
			 "R2extent": 2231.8434, 
			 "electric_dipole_moment_norm": 1.50580344667, 
			 "electric_quadrupole_moment_norm": 11.1650468785, 
			 "total_energy": -773.879959108, 
			 "HOMO_LUMO_gap": 0.20074, 
			 "cosmo_polarized_energy": -10.52, 
			 "cosmo_cavitation_energy": 23.28, 
			 "cosmo_dispersion_energy": -16.83, 
			 "cosmo_repulsion_energy": 1.27, 
			 "cosmo_total_nonelectrostatic_energy": 7.71, 
			 "SMD_solvation_energy": 4.97 
		},
		"coords": [
			{
				"x": 2.1737819549,
				"y": -1.157902884,
				"z": 1.4648066283,
				"element": "O" 
			},
			{
				"x": 1.8841861801,
				"y": -1.3375764796,
				"z": 0.1621630083,
				"element": "C" 
			},
			{
				"x": 2.551323985,
				"y": -2.0348953853,
				"z": -0.5731122534,
				"element": "O" 
			},
			{
				"x": 0.7069518331,
				"y": -0.5414693145,
				"z": -0.3090112445,
				"element": "C" 
			},
			{
				"x": -0.4307942349,
				"y": -0.1807054751,
				"z": 0.437248196,
				"element": "C" 
			},
			{
				"x": -1.4150716172,
				"y": 0.5766151163,
				"z": -0.1969454902,
				"element": "C" 
			},
			{
				"x": -1.2397221365,
				"y": 0.9460801635,
				"z": -1.5305231984,
				"element": "C" 
			},
			{
				"x": -0.1757105442,
				"y": 0.5967498408,
				"z": -2.2604634427,
				"element": "N" 
			},
			{
				"x": 0.759181507,
				"y": -0.1358690602,
				"z": -1.6522730596,
				"element": "C" 
			},
			{
				"x": -0.6678422598,
				"y": -0.6017511688,
				"z": 1.8778304226,
				"element": "C" 
			},
			{
				"x": 0.0786637796,
				"y": 0.1084631574,
				"z": 2.7411229979,
				"element": "F" 
			},
			{
				"x": -1.9607298929,
				"y": -0.4093217012,
				"z": 2.2260700593,
				"element": "F" 
			},
			{
				"x": -0.4024954019,
				"y": -1.9094769683,
				"z": 2.0620208504,
				"element": "F" 
			},
			{
				"x": 2.9426677456,
				"y": -1.7216443112,
				"z": 1.654959013,
				"element": "H" 
			},
			{
				"x": -2.3136745274,
				"y": 0.860604623,
				"z": 0.3360485145,
				"element": "H" 
			},
			{
				"x": -1.998974718,
				"y": 1.539679816,
				"z": -2.035442903,
				"element": "H" 
			},
			{
				"x": 1.6195583475,
				"y": -0.4306799688,
				"z": -2.2466980984,
				"element": "H" 
			}
		],
		 "valence_orbital": [ 
			{
				"type": "occ",
				"energy": -0.33489,
				"method": "rhf"
			},
			{
				"type": "occ",
				"energy": -0.31741,
				"method": "rhf"
			},
			{
				"type": "occ",
				"energy": -0.30252,
				"method": "rhf"
			},
			{
				"type": "occ",
				"energy": -0.28518,
				"method": "rhf"
			},
			{
				"type": "occ",
				"energy": -0.27712,
				"method": "rhf"
			},
			{
				"type": "unocc",
				"energy": -0.07638,
				"method": "rhf"
			},
			{
				"type": "unocc",
				"energy": -0.04871,
				"method": "rhf"
			},
			{
				"type": "unocc",
				"energy": 0.02242,
				"method": "rhf"
			},
			{
				"type": "unocc",
				"energy": 0.06858,
				"method": "rhf"
			},
			{
				"type": "unocc",
				"energy": 0.09965,
				"method": "rhf"
			}
		],
		"cosmo_sigma_profile": { 
			"-0.025": 0.0,
			"-0.024": 0.0,
			"-0.023": 0.0,
			"-0.022": 0.0,
			"-0.021": 0.0,
			"-0.02": 0.0,
			"-0.019": 0.639870248787,
			"-0.018": 1.01419194581,
			"-0.017": 0.957346818267,
			"-0.016": 0.660145542746,
			"-0.015": 0.907788213386,
			"-0.014": 0.655079369486,
			"-0.013": 0.526030347825,
			"-0.012": 0.977325653203,
			"-0.011": 0.683274158556,
			"-0.01": 0.268776653357,
			"-0.009": 1.12839700608,
			"-0.008": 5.48698749321,
			"-0.007": 7.13995323049,
			"-0.006": 4.671597487,
			"-0.005": 7.42505435855,
			"-0.004": 8.63336076458,
			"-0.003": 11.5687215933,
			"-0.002": 16.2085971858,
			"-0.001": 17.3802371484,
			"0.0": 12.3739760234,
			"0.001": 12.6681360939,
			"0.002": 24.4334407891,
			"0.003": 13.7875228486,
			"0.004": 5.54551449936,
			"0.005": 5.06565786588,
			"0.006": 4.55986331484,
			"0.007": 4.25645102142,
			"0.008": 2.26361962365,
			"0.009": 2.58763003374,
			"0.01": 3.65169472022,
			"0.011": 6.00452214925,
			"0.012": 1.15718189232,
			"0.013": 0.782185101391,
			"0.014": 0.846459852941,
			"0.015": 0.630442029176,
			"0.016": 0.0,
			"0.017": 0.0,
			"0.018": 0.0,
			"0.019": 0.0,
			"0.02": 0.0,
			"0.021": 0.0,
			"0.022": 0.0,
			"0.023": 0.0,
			"0.024": 0.0,
			"0.025": 0.0
		}
	}
}
