{
	 "smiles": "OC(=O)C1=CC(=CC(Cl)=C1)[N+]([O-])=O", 
	 "Tm": 420.15, 
	 "num_atms": 17, 
	 "gaussian": { 
		 "optdone": 1, 
		 "sigma_profile": "yes", 
		 "theory": "DFT", 
		 "functional": "B3LYP", 
		 "basiset": "6-31G**", 
		 "properties": { 
			 "R2extent": 3583.7829, 
			 "electric_dipole_moment_norm": 2.29477502819, 
			 "electric_quadrupole_moment_norm": 15.3822453686, 
			 "total_energy": -1084.90828337, 
			 "HOMO_LUMO_gap": 0.1758, 
			 "cosmo_polarized_energy": -11.6, 
			 "cosmo_cavitation_energy": 25.32, 
			 "cosmo_dispersion_energy": -18.63, 
			 "cosmo_repulsion_energy": 1.48, 
			 "cosmo_total_nonelectrostatic_energy": 8.17, 
			 "SMD_solvation_energy": 7.7 
		},
		"coords": [
			{
				"x": 2.4695545918,
				"y": -3.371601505,
				"z": -0.4790879123,
				"element": "O" 
			},
			{
				"x": 2.653676596,
				"y": -2.5472012932,
				"z": 0.575149821,
				"element": "C" 
			},
			{
				"x": 3.3659696589,
				"y": -2.8249979551,
				"z": 1.5168357682,
				"element": "O" 
			},
			{
				"x": 1.888092431,
				"y": -1.2713269079,
				"z": 0.4482889753,
				"element": "C" 
			},
			{
				"x": 1.0796979628,
				"y": -0.9994832662,
				"z": -0.6591473508,
				"element": "C" 
			},
			{
				"x": 0.4031978775,
				"y": 0.2146691413,
				"z": -0.6928393104,
				"element": "C" 
			},
			{
				"x": 0.4992328039,
				"y": 1.1611482022,
				"z": 0.3247235471,
				"element": "C" 
			},
			{
				"x": 1.3124143318,
				"y": 0.86348318,
				"z": 1.4168153428,
				"element": "C" 
			},
			{
				"x": 1.4598109784,
				"y": 2.0258113941,
				"z": 2.7157408403,
				"element": "Cl" 
			},
			{
				"x": 2.0073677708,
				"y": -0.3419581998,
				"z": 1.4892242157,
				"element": "C" 
			},
			{
				"x": -0.4556710772,
				"y": 0.5200539351,
				"z": -1.8548158029,
				"element": "N" 
			},
			{
				"x": -0.5273832231,
				"y": -0.3266921331,
				"z": -2.7420855938,
				"element": "O" 
			},
			{
				"x": -1.0415646344,
				"y": 1.6004091085,
				"z": -1.857433372,
				"element": "O" 
			},
			{
				"x": 3.0026855052,
				"y": -4.1647994404,
				"z": -0.3042180316,
				"element": "H" 
			},
			{
				"x": 0.9742746115,
				"y": -1.7035822541,
				"z": -1.4730146485,
				"element": "H" 
			},
			{
				"x": -0.0471424165,
				"y": 2.0924138493,
				"z": 0.2528632887,
				"element": "H" 
			},
			{
				"x": 2.6405862317,
				"y": -0.5768458556,
				"z": 2.336800223,
				"element": "H" 
			}
		],
		 "valence_orbital": [ 
			{
				"type": "occ",
				"energy": -0.32347,
				"method": "rhf"
			},
			{
				"type": "occ",
				"energy": -0.30753,
				"method": "rhf"
			},
			{
				"type": "occ",
				"energy": -0.304,
				"method": "rhf"
			},
			{
				"type": "occ",
				"energy": -0.30204,
				"method": "rhf"
			},
			{
				"type": "occ",
				"energy": -0.28305,
				"method": "rhf"
			},
			{
				"type": "unocc",
				"energy": -0.10725,
				"method": "rhf"
			},
			{
				"type": "unocc",
				"energy": -0.07881,
				"method": "rhf"
			},
			{
				"type": "unocc",
				"energy": -0.02698,
				"method": "rhf"
			},
			{
				"type": "unocc",
				"energy": 0.00477,
				"method": "rhf"
			},
			{
				"type": "unocc",
				"energy": 0.03236,
				"method": "rhf"
			}
		],
		"cosmo_sigma_profile": { 
			"-0.025": 0.0,
			"-0.024": 0.0,
			"-0.023": 0.0,
			"-0.022": 0.0,
			"-0.021": 0.0,
			"-0.02": 0.0153154024864,
			"-0.019": 0.63119698685,
			"-0.018": 0.957813736673,
			"-0.017": 1.09096187943,
			"-0.016": 0.685466097253,
			"-0.015": 0.86841183325,
			"-0.014": 0.81792282006,
			"-0.013": 0.109332536832,
			"-0.012": 0.848308884379,
			"-0.011": 0.970856625094,
			"-0.01": 0.3566629393,
			"-0.009": 1.53666455655,
			"-0.008": 3.84668299358,
			"-0.007": 5.19245057474,
			"-0.006": 5.2560312562,
			"-0.005": 9.45909512455,
			"-0.004": 12.3863366929,
			"-0.003": 19.2890152502,
			"-0.002": 27.357597975,
			"-0.001": 16.293279192,
			"0.0": 10.7090501234,
			"0.001": 9.94893011536,
			"0.002": 9.69779944218,
			"0.003": 14.6254061967,
			"0.004": 9.03504095481,
			"0.005": 5.91743598185,
			"0.006": 8.38208523014,
			"0.007": 10.9714114799,
			"0.008": 6.08489523828,
			"0.009": 4.52068507433,
			"0.01": 4.09071343843,
			"0.011": 4.08092997355,
			"0.012": 0.335225332852,
			"0.013": 0.0,
			"0.014": 0.0,
			"0.015": 0.0,
			"0.016": 0.0,
			"0.017": 0.0,
			"0.018": 0.0,
			"0.019": 0.0,
			"0.02": 0.0,
			"0.021": 0.0,
			"0.022": 0.0,
			"0.023": 0.0,
			"0.024": 0.0,
			"0.025": 0.0
		}
	}
}
