{
	 "smiles": "CC(C)(C)OC(=O)NCC1CCCCC1O", 
	 "Tm": 331.15, 
	 "num_atms": 39, 
	 "gaussian": { 
		 "optdone": 1, 
		 "sigma_profile": "yes", 
		 "theory": "DFT", 
		 "functional": "B3LYP", 
		 "basiset": "6-31G**", 
		 "properties": { 
			 "R2extent": 5554.0158, 
			 "electric_dipole_moment_norm": 2.07904646894, 
			 "electric_quadrupole_moment_norm": 11.0257960071, 
			 "total_energy": -751.601414078, 
			 "HOMO_LUMO_gap": 0.29557, 
			 "cosmo_polarized_energy": -13.6, 
			 "cosmo_cavitation_energy": 38.39, 
			 "cosmo_dispersion_energy": -26.21, 
			 "cosmo_repulsion_energy": 2.07, 
			 "cosmo_total_nonelectrostatic_energy": 14.25, 
			 "SMD_solvation_energy": 6.37 
		},
		"coords": [
			{
				"x": 2.8118356238,
				"y": 1.7017771554,
				"z": 2.7118809231,
				"element": "C" 
			},
			{
				"x": 1.542811925,
				"y": 1.7361601522,
				"z": 1.8534002745,
				"element": "C" 
			},
			{
				"x": 1.3623616273,
				"y": 3.1127560331,
				"z": 1.2081638904,
				"element": "C" 
			},
			{
				"x": 0.2935853578,
				"y": 1.3401148478,
				"z": 2.6476152775,
				"element": "C" 
			},
			{
				"x": 1.6996191574,
				"y": 0.8535223214,
				"z": 0.6860238193,
				"element": "O" 
			},
			{
				"x": 1.9012677211,
				"y": -0.4769831701,
				"z": 0.8463622765,
				"element": "C" 
			},
			{
				"x": 1.9429640301,
				"y": -1.0758267303,
				"z": 1.9103158001,
				"element": "O" 
			},
			{
				"x": 2.0678335957,
				"y": -1.1036451534,
				"z": -0.3599666198,
				"element": "N" 
			},
			{
				"x": 2.0239898167,
				"y": -0.5104592342,
				"z": -1.6894075648,
				"element": "C" 
			},
			{
				"x": 0.7299971428,
				"y": -0.7838316176,
				"z": -2.4835378757,
				"element": "C" 
			},
			{
				"x": -0.5369116693,
				"y": -0.29506902,
				"z": -1.7631583145,
				"element": "C" 
			},
			{
				"x": -1.7653383535,
				"y": -0.329408301,
				"z": -2.7030444713,
				"element": "C" 
			},
			{
				"x": -1.671749871,
				"y": -1.4711768464,
				"z": -3.7439534772,
				"element": "C" 
			},
			{
				"x": -0.87723653,
				"y": -2.6558433067,
				"z": -3.1846776496,
				"element": "C" 
			},
			{
				"x": 0.5854609183,
				"y": -2.2718657912,
				"z": -2.8972919815,
				"element": "C" 
			},
			{
				"x": 1.3269952502,
				"y": -2.551461923,
				"z": -4.0884240399,
				"element": "O" 
			},
			{
				"x": 2.7332314875,
				"y": 2.4439933197,
				"z": 3.5129610832,
				"element": "H" 
			},
			{
				"x": 3.6881543739,
				"y": 1.9498936598,
				"z": 2.1044174677,
				"element": "H" 
			},
			{
				"x": 2.9554404358,
				"y": 0.7164688499,
				"z": 3.155460445,
				"element": "H" 
			},
			{
				"x": 0.4793426651,
				"y": 3.1252768178,
				"z": 0.5623287207,
				"element": "H" 
			},
			{
				"x": 1.2352732549,
				"y": 3.8760741528,
				"z": 1.981541628,
				"element": "H" 
			},
			{
				"x": 2.2361183285,
				"y": 3.3746867729,
				"z": 0.6041364731,
				"element": "H" 
			},
			{
				"x": -0.5856965893,
				"y": 1.3369383878,
				"z": 1.9955269637,
				"element": "H" 
			},
			{
				"x": 0.4110946663,
				"y": 0.3503660416,
				"z": 3.0888060906,
				"element": "H" 
			},
			{
				"x": 0.1205545468,
				"y": 2.0680238819,
				"z": 3.447065526,
				"element": "H" 
			},
			{
				"x": 2.2055832147,
				"y": -2.0982516379,
				"z": -0.2636488252,
				"element": "H" 
			},
			{
				"x": 2.8918260565,
				"y": -0.8782685962,
				"z": -2.2571637551,
				"element": "H" 
			},
			{
				"x": 2.1628453187,
				"y": 0.5648356898,
				"z": -1.5701824732,
				"element": "H" 
			},
			{
				"x": 0.8271064855,
				"y": -0.2212410747,
				"z": -3.4237645691,
				"element": "H" 
			},
			{
				"x": -0.7125228349,
				"y": -0.9326937073,
				"z": -0.8880605161,
				"element": "H" 
			},
			{
				"x": -0.3817137695,
				"y": 0.7153529004,
				"z": -1.3704368654,
				"element": "H" 
			},
			{
				"x": -2.6745630647,
				"y": -0.4436657742,
				"z": -2.1011407655,
				"element": "H" 
			},
			{
				"x": -1.8616107463,
				"y": 0.630694335,
				"z": -3.2239771813,
				"element": "H" 
			},
			{
				"x": -2.6736642998,
				"y": -1.7892553853,
				"z": -4.0517505216,
				"element": "H" 
			},
			{
				"x": -1.1699154919,
				"y": -1.1156380776,
				"z": -4.6515991134,
				"element": "H" 
			},
			{
				"x": -0.8688803457,
				"y": -3.4998663816,
				"z": -3.8814499686,
				"element": "H" 
			},
			{
				"x": -1.3459817056,
				"y": -3.0106325092,
				"z": -2.2584314713,
				"element": "H" 
			},
			{
				"x": 0.9539311405,
				"y": -2.9130253712,
				"z": -2.0774604329,
				"element": "H" 
			},
			{
				"x": 2.2407611305,
				"y": -2.26922571,
				"z": -3.9518782063,
				"element": "H" 
			}
		],
		 "valence_orbital": [ 
			{
				"type": "occ",
				"energy": -0.30108,
				"method": "rhf"
			},
			{
				"type": "occ",
				"energy": -0.2866,
				"method": "rhf"
			},
			{
				"type": "occ",
				"energy": -0.2632,
				"method": "rhf"
			},
			{
				"type": "occ",
				"energy": -0.25846,
				"method": "rhf"
			},
			{
				"type": "occ",
				"energy": -0.24666,
				"method": "rhf"
			},
			{
				"type": "unocc",
				"energy": 0.04891,
				"method": "rhf"
			},
			{
				"type": "unocc",
				"energy": 0.06387,
				"method": "rhf"
			},
			{
				"type": "unocc",
				"energy": 0.07497,
				"method": "rhf"
			},
			{
				"type": "unocc",
				"energy": 0.08528,
				"method": "rhf"
			},
			{
				"type": "unocc",
				"energy": 0.09479,
				"method": "rhf"
			}
		],
		"cosmo_sigma_profile": { 
			"-0.025": 0.0,
			"-0.024": 0.0,
			"-0.023": 0.0,
			"-0.022": 0.0,
			"-0.021": 0.0,
			"-0.02": 0.0,
			"-0.019": 0.0,
			"-0.018": 0.0,
			"-0.017": 0.0,
			"-0.016": 0.0,
			"-0.015": 0.059605642531,
			"-0.014": 0.985566750549,
			"-0.013": 1.73982994463,
			"-0.012": 2.26825057077,
			"-0.011": 2.97130025727,
			"-0.01": 2.21873685832,
			"-0.009": 2.93425893794,
			"-0.008": 2.25660203708,
			"-0.007": 2.32413098266,
			"-0.006": 2.82185683691,
			"-0.005": 3.09233489114,
			"-0.004": 12.6686909291,
			"-0.003": 26.0786652065,
			"-0.002": 39.8778847827,
			"-0.001": 43.7157060597,
			"0.0": 44.1910640768,
			"0.001": 38.9505764899,
			"0.002": 15.003747672,
			"0.003": 8.55577700165,
			"0.004": 7.76306276819,
			"0.005": 4.9205592869,
			"0.006": 3.50621056134,
			"0.007": 2.65724864496,
			"0.008": 3.00755534051,
			"0.009": 2.54109614323,
			"0.01": 2.08663953115,
			"0.011": 2.54786231295,
			"0.012": 3.22012156118,
			"0.013": 4.05757389741,
			"0.014": 5.34455251057,
			"0.015": 0.877208279379,
			"0.016": 0.0,
			"0.017": 0.0,
			"0.018": 0.0,
			"0.019": 0.0,
			"0.02": 0.0,
			"0.021": 0.0,
			"0.022": 0.0,
			"0.023": 0.0,
			"0.024": 0.0,
			"0.025": 0.0
		}
	}
}
