{
	 "smiles": "CCOC(=O)C(C)=C", 
	 "Tm": 213.15, 
	 "num_atms": 18, 
	 "gaussian": { 
		 "optdone": 1, 
		 "sigma_profile": "yes", 
		 "theory": "DFT", 
		 "functional": "B3LYP", 
		 "basiset": "6-31G**", 
		 "properties": { 
			 "R2extent": 1393.0294, 
			 "electric_dipole_moment_norm": 1.62327947994, 
			 "electric_quadrupole_moment_norm": 5.76959936217, 
			 "total_energy": -385.112538781, 
			 "HOMO_LUMO_gap": 0.22888, 
			 "cosmo_polarized_energy": -5.85, 
			 "cosmo_cavitation_energy": 21.69, 
			 "cosmo_dispersion_energy": -15.49, 
			 "cosmo_repulsion_energy": 1.31, 
			 "cosmo_total_nonelectrostatic_energy": 7.51, 
			 "SMD_solvation_energy": 5.78 
		},
		"coords": [
			{
				"x": 1.0384077095,
				"y": 1.5414776502,
				"z": 2.4781288906,
				"element": "C" 
			},
			{
				"x": 1.0784560838,
				"y": 1.5543312163,
				"z": 0.957079747,
				"element": "C" 
			},
			{
				"x": -0.2445607926,
				"y": 1.4032651743,
				"z": 0.3928639096,
				"element": "O" 
			},
			{
				"x": -0.6951778641,
				"y": 0.136167567,
				"z": 0.2448049051,
				"element": "C" 
			},
			{
				"x": -0.0481422282,
				"y": -0.8482850693,
				"z": 0.5520889075,
				"element": "O" 
			},
			{
				"x": -2.0697696863,
				"y": 0.0585470295,
				"z": -0.3403363461,
				"element": "C" 
			},
			{
				"x": -2.5944129474,
				"y": -1.3397125101,
				"z": -0.5310091694,
				"element": "C" 
			},
			{
				"x": -2.7543915532,
				"y": 1.1649577324,
				"z": -0.6566185732,
				"element": "C" 
			},
			{
				"x": 0.3619740459,
				"y": 2.313343561,
				"z": 2.8570331582,
				"element": "H" 
			},
			{
				"x": 0.7057016176,
				"y": 0.5673212749,
				"z": 2.8444283017,
				"element": "H" 
			},
			{
				"x": 2.0395249222,
				"y": 1.7350321206,
				"z": 2.8778675029,
				"element": "H" 
			},
			{
				"x": 1.7187065926,
				"y": 0.7559517864,
				"z": 0.5744130979,
				"element": "H" 
			},
			{
				"x": 1.4284733563,
				"y": 2.5161983606,
				"z": 0.574248298,
				"element": "H" 
			},
			{
				"x": -1.9358652563,
				"y": -1.9167608318,
				"z": -1.1883782445,
				"element": "H" 
			},
			{
				"x": -2.6247146836,
				"y": -1.8778153677,
				"z": 0.4220717314,
				"element": "H" 
			},
			{
				"x": -3.5987199855,
				"y": -1.3247801214,
				"z": -0.9610408562,
				"element": "H" 
			},
			{
				"x": -2.3372110437,
				"y": 2.1528045596,
				"z": -0.5012752959,
				"element": "H" 
			},
			{
				"x": -3.752978287,
				"y": 1.1026558675,
				"z": -1.0796699646,
				"element": "H" 
			}
		],
		 "valence_orbital": [ 
			{
				"type": "occ",
				"energy": -0.36106,
				"method": "rhf"
			},
			{
				"type": "occ",
				"energy": -0.33699,
				"method": "rhf"
			},
			{
				"type": "occ",
				"energy": -0.29493,
				"method": "rhf"
			},
			{
				"type": "occ",
				"energy": -0.26887,
				"method": "rhf"
			},
			{
				"type": "occ",
				"energy": -0.26643,
				"method": "rhf"
			},
			{
				"type": "unocc",
				"energy": -0.03755,
				"method": "rhf"
			},
			{
				"type": "unocc",
				"energy": 0.08541,
				"method": "rhf"
			},
			{
				"type": "unocc",
				"energy": 0.10899,
				"method": "rhf"
			},
			{
				"type": "unocc",
				"energy": 0.11696,
				"method": "rhf"
			},
			{
				"type": "unocc",
				"energy": 0.12617,
				"method": "rhf"
			}
		],
		"cosmo_sigma_profile": { 
			"-0.025": 0.0,
			"-0.024": 0.0,
			"-0.023": 0.0,
			"-0.022": 0.0,
			"-0.021": 0.0,
			"-0.02": 0.0,
			"-0.019": 0.0,
			"-0.018": 0.0,
			"-0.017": 0.0,
			"-0.016": 0.0,
			"-0.015": 0.0,
			"-0.014": 0.0,
			"-0.013": 0.0,
			"-0.012": 0.0,
			"-0.011": 0.0,
			"-0.01": 0.0,
			"-0.009": 0.0,
			"-0.008": 0.0,
			"-0.007": 0.275796000683,
			"-0.006": 3.53130001412,
			"-0.005": 8.83944909008,
			"-0.004": 17.5219591364,
			"-0.003": 19.3161697279,
			"-0.002": 22.1081916405,
			"-0.001": 20.9408984126,
			"0.0": 22.0736035716,
			"0.001": 11.9974864383,
			"0.002": 8.59227667059,
			"0.003": 8.03077449869,
			"0.004": 6.31811811388,
			"0.005": 2.99865245061,
			"0.006": 3.89221632515,
			"0.007": 2.0509439222,
			"0.008": 1.56695636757,
			"0.009": 1.36260366099,
			"0.01": 1.56054361298,
			"0.011": 2.47212860339,
			"0.012": 3.74037482872,
			"0.013": 1.37095469305,
			"0.014": 0.0,
			"0.015": 0.0,
			"0.016": 0.0,
			"0.017": 0.0,
			"0.018": 0.0,
			"0.019": 0.0,
			"0.02": 0.0,
			"0.021": 0.0,
			"0.022": 0.0,
			"0.023": 0.0,
			"0.024": 0.0,
			"0.025": 0.0
		}
	}
}
