{
	 "smiles": "OC(C1CCCCN1)C1=CC(O)=C(O)C=C1", 
	 "Tm": 477.15, 
	 "num_atms": 33, 
	 "gaussian": { 
		 "optdone": 1, 
		 "sigma_profile": "yes", 
		 "theory": "DFT", 
		 "functional": "B3LYP", 
		 "basiset": "6-31G**", 
		 "properties": { 
			 "R2extent": 5707.4433, 
			 "electric_dipole_moment_norm": 4.66661335981, 
			 "electric_quadrupole_moment_norm": 20.9953493841, 
			 "total_energy": -747.933840105, 
			 "HOMO_LUMO_gap": 0.20851, 
			 "cosmo_polarized_energy": -16.37, 
			 "cosmo_cavitation_energy": 33.97, 
			 "cosmo_dispersion_energy": -24.75, 
			 "cosmo_repulsion_energy": 1.94, 
			 "cosmo_total_nonelectrostatic_energy": 11.17, 
			 "SMD_solvation_energy": 4.61 
		},
		"coords": [
			{
				"x": 2.2427204049,
				"y": -0.2666916087,
				"z": 1.9555813598,
				"element": "O" 
			},
			{
				"x": 1.2022388714,
				"y": 0.1810475914,
				"z": 1.1104923718,
				"element": "C" 
			},
			{
				"x": 0.0874665185,
				"y": 0.8196329275,
				"z": 1.992910203,
				"element": "C" 
			},
			{
				"x": -1.2043982434,
				"y": 1.147710266,
				"z": 1.2137847676,
				"element": "C" 
			},
			{
				"x": -2.4005542985,
				"y": 1.2302623958,
				"z": 2.1721317584,
				"element": "C" 
			},
			{
				"x": -2.6507629105,
				"y": -0.1318892568,
				"z": 2.861275112,
				"element": "C" 
			},
			{
				"x": -1.332284967,
				"y": -0.9316743159,
				"z": 3.0006101675,
				"element": "C" 
			},
			{
				"x": -0.1467216947,
				"y": -0.0782348273,
				"z": 3.1536860688,
				"element": "N" 
			},
			{
				"x": 1.7546005793,
				"y": 1.1577292727,
				"z": 0.09230133,
				"element": "C" 
			},
			{
				"x": 1.2827119194,
				"y": 1.1643375578,
				"z": -1.22794232,
				"element": "C" 
			},
			{
				"x": 1.7605747919,
				"y": 2.095261462,
				"z": -2.1440464166,
				"element": "C" 
			},
			{
				"x": 1.3540866462,
				"y": 2.174508909,
				"z": -3.4596619415,
				"element": "O" 
			},
			{
				"x": 2.7291527688,
				"y": 3.0385557249,
				"z": -1.7640087259,
				"element": "C" 
			},
			{
				"x": 3.2027445502,
				"y": 3.9465417071,
				"z": -2.6652665872,
				"element": "O" 
			},
			{
				"x": 3.2093218563,
				"y": 3.0265099524,
				"z": -0.4563692477,
				"element": "C" 
			},
			{
				"x": 2.725725624,
				"y": 2.0939136429,
				"z": 0.4626248792,
				"element": "C" 
			},
			{
				"x": 1.7629492511,
				"y": -0.5728712184,
				"z": 2.7502482572,
				"element": "H" 
			},
			{
				"x": 0.7504708497,
				"y": -0.6718552028,
				"z": 0.5688630044,
				"element": "H" 
			},
			{
				"x": 0.5061091777,
				"y": 1.7491295998,
				"z": 2.3969297372,
				"element": "H" 
			},
			{
				"x": -1.397661885,
				"y": 0.3715184133,
				"z": 0.4600517195,
				"element": "H" 
			},
			{
				"x": -1.0729402462,
				"y": 2.0834373417,
				"z": 0.6626931156,
				"element": "H" 
			},
			{
				"x": -3.3001687965,
				"y": 1.5626024957,
				"z": 1.6436333848,
				"element": "H" 
			},
			{
				"x": -2.1921513393,
				"y": 1.9974972483,
				"z": 2.9292413984,
				"element": "H" 
			},
			{
				"x": -3.1034022297,
				"y": 0.0282234552,
				"z": 3.8471654069,
				"element": "H" 
			},
			{
				"x": -3.3707645648,
				"y": -0.7254401726,
				"z": 2.2842862325,
				"element": "H" 
			},
			{
				"x": -1.3788336886,
				"y": -1.6212211557,
				"z": 3.8497670473,
				"element": "H" 
			},
			{
				"x": -1.1744764671,
				"y": -1.5531356951,
				"z": 2.1119610043,
				"element": "H" 
			},
			{
				"x": -0.2384043932,
				"y": 0.4752291625,
				"z": 4.000260249,
				"element": "H" 
			},
			{
				"x": 0.5430882605,
				"y": 0.4311881821,
				"z": -1.5466418906,
				"element": "H" 
			},
			{
				"x": 0.7409628417,
				"y": 1.4555078201,
				"z": -3.6540774101,
				"element": "H" 
			},
			{
				"x": 2.7623854799,
				"y": 3.7711971445,
				"z": -3.510142925,
				"element": "H" 
			},
			{
				"x": 3.9692587835,
				"y": 3.7499771787,
				"z": -0.1787110818,
				"element": "H" 
			},
			{
				"x": 3.1203565494,
				"y": 2.0669940019,
				"z": 1.472269971,
				"element": "H" 
			}
		],
		 "valence_orbital": [ 
			{
				"type": "occ",
				"energy": -0.30238,
				"method": "rhf"
			},
			{
				"type": "occ",
				"energy": -0.25444,
				"method": "rhf"
			},
			{
				"type": "occ",
				"energy": -0.23722,
				"method": "rhf"
			},
			{
				"type": "occ",
				"energy": -0.22894,
				"method": "rhf"
			},
			{
				"type": "occ",
				"energy": -0.19757,
				"method": "rhf"
			},
			{
				"type": "unocc",
				"energy": 0.01094,
				"method": "rhf"
			},
			{
				"type": "unocc",
				"energy": 0.02132,
				"method": "rhf"
			},
			{
				"type": "unocc",
				"energy": 0.05721,
				"method": "rhf"
			},
			{
				"type": "unocc",
				"energy": 0.06182,
				"method": "rhf"
			},
			{
				"type": "unocc",
				"energy": 0.08167,
				"method": "rhf"
			}
		],
		"cosmo_sigma_profile": { 
			"-0.025": 0.0,
			"-0.024": 0.0,
			"-0.023": 0.0,
			"-0.022": 0.0,
			"-0.021": 0.0,
			"-0.02": 0.0,
			"-0.019": 0.0,
			"-0.018": 0.636462767436,
			"-0.017": 1.39579075811,
			"-0.016": 0.882417356982,
			"-0.015": 1.11192026741,
			"-0.014": 1.19038430518,
			"-0.013": 1.60477790177,
			"-0.012": 1.35128592618,
			"-0.011": 1.61337814792,
			"-0.01": 2.61418637981,
			"-0.009": 3.80737020745,
			"-0.008": 2.28920880515,
			"-0.007": 3.77186787978,
			"-0.006": 5.8005928972,
			"-0.005": 8.29600594155,
			"-0.004": 13.1583510868,
			"-0.003": 25.4848967823,
			"-0.002": 28.4911795449,
			"-0.001": 27.9614695042,
			"0.0": 24.5253237577,
			"0.001": 20.3617042263,
			"0.002": 11.9647263368,
			"0.003": 12.1311299098,
			"0.004": 14.016231205,
			"0.005": 11.6647831088,
			"0.006": 10.6196923288,
			"0.007": 6.20432918319,
			"0.008": 4.32293121573,
			"0.009": 2.60362096764,
			"0.01": 3.61632523622,
			"0.011": 3.56890779044,
			"0.012": 2.44384929277,
			"0.013": 1.33501166684,
			"0.014": 1.47961265636,
			"0.015": 1.43580839862,
			"0.016": 0.426243916989,
			"0.017": 0.0,
			"0.018": 0.0,
			"0.019": 0.0,
			"0.02": 0.0,
			"0.021": 0.0,
			"0.022": 0.0,
			"0.023": 0.0,
			"0.024": 0.0,
			"0.025": 0.0
		}
	}
}
