{
	 "smiles": "OC(=O)C1=NC=CC(OCC2=CC=CC=C2)=C1", 
	 "Tm": 433.15, 
	 "num_atms": 28, 
	 "gaussian": { 
		 "optdone": 1, 
		 "sigma_profile": "yes", 
		 "theory": "DFT", 
		 "functional": "B3LYP", 
		 "basiset": "6-31G**", 
		 "properties": { 
			 "R2extent": 5041.3556, 
			 "electric_dipole_moment_norm": 2.51174926296, 
			 "electric_quadrupole_moment_norm": 7.74690646452, 
			 "total_energy": -782.437867395, 
			 "HOMO_LUMO_gap": 0.19894, 
			 "cosmo_polarized_energy": -15.08, 
			 "cosmo_cavitation_energy": 33.28, 
			 "cosmo_dispersion_energy": -23.35, 
			 "cosmo_repulsion_energy": 1.83, 
			 "cosmo_total_nonelectrostatic_energy": 11.76, 
			 "SMD_solvation_energy": 5.97 
		},
		"coords": [
			{
				"x": 1.1149888553,
				"y": -4.4288171731,
				"z": -2.9131278319,
				"element": "O" 
			},
			{
				"x": 0.9986728521,
				"y": -3.5726822631,
				"z": -1.881771813,
				"element": "C" 
			},
			{
				"x": 0.6380342777,
				"y": -3.9215037545,
				"z": -0.773049275,
				"element": "O" 
			},
			{
				"x": 1.3562454019,
				"y": -2.1560748528,
				"z": -2.2293421979,
				"element": "C" 
			},
			{
				"x": 1.7677599923,
				"y": -1.8891257649,
				"z": -3.4737744649,
				"element": "N" 
			},
			{
				"x": 2.0758347753,
				"y": -0.6123719535,
				"z": -3.7351890108,
				"element": "C" 
			},
			{
				"x": 1.9952998793,
				"y": 0.4176102455,
				"z": -2.8040928015,
				"element": "C" 
			},
			{
				"x": 1.5648777626,
				"y": 0.1178930586,
				"z": -1.5038336758,
				"element": "C" 
			},
			{
				"x": 1.5228151979,
				"y": 1.1546899501,
				"z": -0.6299583048,
				"element": "O" 
			},
			{
				"x": 1.1435147578,
				"y": 0.9108296528,
				"z": 0.7325958553,
				"element": "C" 
			},
			{
				"x": -0.3469412218,
				"y": 0.7265151068,
				"z": 0.9285216367,
				"element": "C" 
			},
			{
				"x": -0.825931787,
				"y": -0.1893458271,
				"z": 1.871507134,
				"element": "C" 
			},
			{
				"x": -2.1972992537,
				"y": -0.322364361,
				"z": 2.0974361028,
				"element": "C" 
			},
			{
				"x": -3.1025641793,
				"y": 0.454863675,
				"z": 1.3741839304,
				"element": "C" 
			},
			{
				"x": -2.6308193361,
				"y": 1.3668377574,
				"z": 0.4266284435,
				"element": "C" 
			},
			{
				"x": -1.2607981257,
				"y": 1.5054717107,
				"z": 0.2076228965,
				"element": "C" 
			},
			{
				"x": 1.23047071,
				"y": -1.2068636799,
				"z": -1.2090975001,
				"element": "C" 
			},
			{
				"x": 0.8591862768,
				"y": -5.2964784577,
				"z": -2.5580627862,
				"element": "H" 
			},
			{
				"x": 2.409546657,
				"y": -0.3984336465,
				"z": -4.7487506857,
				"element": "H" 
			},
			{
				"x": 2.260796738,
				"y": 1.4372470337,
				"z": -3.0610774067,
				"element": "H" 
			},
			{
				"x": 1.700181471,
				"y": 0.0554099811,
				"z": 1.1340541341,
				"element": "H" 
			},
			{
				"x": 1.4910766074,
				"y": 1.8065589213,
				"z": 1.257131252,
				"element": "H" 
			},
			{
				"x": -0.1250937645,
				"y": -0.8059813933,
				"z": 2.4296932738,
				"element": "H" 
			},
			{
				"x": -2.5562257627,
				"y": -1.0402143398,
				"z": 2.8291402395,
				"element": "H" 
			},
			{
				"x": -4.1700284791,
				"y": 0.3477586566,
				"z": 1.5434713351,
				"element": "H" 
			},
			{
				"x": -3.3315054155,
				"y": 1.9717102351,
				"z": -0.1418670402,
				"element": "H" 
			},
			{
				"x": -0.8931170264,
				"y": 2.2114654945,
				"z": -0.5310563347,
				"element": "H" 
			},
			{
				"x": 0.8660221394,
				"y": -1.5290040124,
				"z": -0.2436351044,
				"element": "H" 
			}
		],
		 "valence_orbital": [ 
			{
				"type": "occ",
				"energy": -0.26868,
				"method": "rhf"
			},
			{
				"type": "occ",
				"energy": -0.25811,
				"method": "rhf"
			},
			{
				"type": "occ",
				"energy": -0.2563,
				"method": "rhf"
			},
			{
				"type": "occ",
				"energy": -0.2533,
				"method": "rhf"
			},
			{
				"type": "occ",
				"energy": -0.25145,
				"method": "rhf"
			},
			{
				"type": "unocc",
				"energy": -0.05251,
				"method": "rhf"
			},
			{
				"type": "unocc",
				"energy": -0.01503,
				"method": "rhf"
			},
			{
				"type": "unocc",
				"energy": -0.01105,
				"method": "rhf"
			},
			{
				"type": "unocc",
				"energy": -0.00929,
				"method": "rhf"
			},
			{
				"type": "unocc",
				"energy": 0.05828,
				"method": "rhf"
			}
		],
		"cosmo_sigma_profile": { 
			"-0.025": 0.0,
			"-0.024": 0.0,
			"-0.023": 0.0,
			"-0.022": 0.0,
			"-0.021": 0.0,
			"-0.02": 0.0,
			"-0.019": 0.215875289398,
			"-0.018": 0.834607090637,
			"-0.017": 0.937760468236,
			"-0.016": 0.704372509139,
			"-0.015": 0.862507846728,
			"-0.014": 1.12483718976,
			"-0.013": 0.227507266702,
			"-0.012": 0.778772793115,
			"-0.011": 0.603525658203,
			"-0.01": 0.620682609216,
			"-0.009": 0.774983012354,
			"-0.008": 3.55022585433,
			"-0.007": 9.4855504967,
			"-0.006": 16.0203105565,
			"-0.005": 19.752679039,
			"-0.004": 19.3462696232,
			"-0.003": 18.3236719697,
			"-0.002": 16.9161101403,
			"-0.001": 15.2988354088,
			"0.0": 20.99114602,
			"0.001": 24.0155487275,
			"0.002": 18.8619384467,
			"0.003": 13.3260101936,
			"0.004": 12.5516690056,
			"0.005": 13.0558921639,
			"0.006": 6.69517185897,
			"0.007": 4.5757373081,
			"0.008": 4.01429238906,
			"0.009": 4.09312538666,
			"0.01": 3.34867767077,
			"0.011": 5.89639101186,
			"0.012": 3.39305494032,
			"0.013": 1.27577714301,
			"0.014": 1.42643394022,
			"0.015": 0.932049180482,
			"0.016": 1.09017104418,
			"0.017": 0.639591023214,
			"0.018": 0.0,
			"0.019": 0.0,
			"0.02": 0.0,
			"0.021": 0.0,
			"0.022": 0.0,
			"0.023": 0.0,
			"0.024": 0.0,
			"0.025": 0.0
		}
	}
}
