{
	 "smiles": "OC(=O)C1=CC=C(COC2=C(Br)C=CC=C2)C=C1", 
	 "Tm": 459.15, 
	 "num_atms": 29, 
	 "gaussian": { 
		 "optdone": 1, 
		 "sigma_profile": "yes", 
		 "theory": "DFT", 
		 "functional": "B3LYP", 
		 "basiset": "6-31G**", 
		 "properties": { 
			 "R2extent": 8811.8661, 
			 "electric_dipole_moment_norm": 5.46479085602, 
			 "electric_quadrupole_moment_norm": 25.7954374441, 
			 "total_energy": -3337.19298115, 
			 "HOMO_LUMO_gap": 0.18193, 
			 "cosmo_polarized_energy": -17.85, 
			 "cosmo_cavitation_energy": 36.44, 
			 "cosmo_dispersion_energy": -26.58, 
			 "cosmo_repulsion_energy": 2.03, 
			 "cosmo_total_nonelectrostatic_energy": 11.89, 
			 "SMD_solvation_energy": 6.27 
		},
		"coords": [
			{
				"x": -6.1549022956,
				"y": -1.2062517368,
				"z": 1.1702614182,
				"element": "O" 
			},
			{
				"x": -5.1951673112,
				"y": -1.4461410714,
				"z": 2.1040159031,
				"element": "C" 
			},
			{
				"x": -5.5095889714,
				"y": -1.8312209127,
				"z": 3.2059690145,
				"element": "O" 
			},
			{
				"x": -3.7741147378,
				"y": -1.2121424156,
				"z": 1.6891953909,
				"element": "C" 
			},
			{
				"x": -2.7654562373,
				"y": -1.8147969264,
				"z": 2.4549388947,
				"element": "C" 
			},
			{
				"x": -1.429585395,
				"y": -1.6332058483,
				"z": 2.1210723997,
				"element": "C" 
			},
			{
				"x": -1.0682724874,
				"y": -0.8322784578,
				"z": 1.0278735551,
				"element": "C" 
			},
			{
				"x": 0.3986958889,
				"y": -0.6545671602,
				"z": 0.7076633095,
				"element": "C" 
			},
			{
				"x": 0.5289559135,
				"y": 0.1436519236,
				"z": -0.4578567225,
				"element": "O" 
			},
			{
				"x": 1.7715581049,
				"y": 0.4429321529,
				"z": -0.9206534312,
				"element": "C" 
			},
			{
				"x": 1.8461240051,
				"y": 1.2518256636,
				"z": -2.0695876196,
				"element": "C" 
			},
			{
				"x": 0.2408234698,
				"y": 1.8716461708,
				"z": -2.8938467403,
				"element": "Br" 
			},
			{
				"x": 3.0742964016,
				"y": 1.6075539805,
				"z": -2.6141496494,
				"element": "C" 
			},
			{
				"x": 4.258418449,
				"y": 1.1621547043,
				"z": -2.0211828338,
				"element": "C" 
			},
			{
				"x": 4.1966943473,
				"y": 0.3615024319,
				"z": -0.8839162384,
				"element": "C" 
			},
			{
				"x": 2.9641546208,
				"y": 0.0016322308,
				"z": -0.3337469526,
				"element": "C" 
			},
			{
				"x": -2.0687098274,
				"y": -0.2114421755,
				"z": 0.2755142481,
				"element": "C" 
			},
			{
				"x": -3.4106627747,
				"y": -0.4026154132,
				"z": 0.6057873495,
				"element": "C" 
			},
			{
				"x": -5.7496639651,
				"y": -1.063112256,
				"z": 0.303922089,
				"element": "H" 
			},
			{
				"x": -3.0551671299,
				"y": -2.4224693359,
				"z": 3.3052536512,
				"element": "H" 
			},
			{
				"x": -0.6580692827,
				"y": -2.1160477833,
				"z": 2.7165512945,
				"element": "H" 
			},
			{
				"x": 0.9128276112,
				"y": -0.1749683606,
				"z": 1.5542204315,
				"element": "H" 
			},
			{
				"x": 0.8704424548,
				"y": -1.636094886,
				"z": 0.5506513673,
				"element": "H" 
			},
			{
				"x": 3.0984909359,
				"y": 2.2322371923,
				"z": -3.4999914747,
				"element": "H" 
			},
			{
				"x": 5.2148943839,
				"y": 1.4427919849,
				"z": -2.4499320281,
				"element": "H" 
			},
			{
				"x": 5.1090276825,
				"y": 0.0084213929,
				"z": -0.4129129318,
				"element": "H" 
			},
			{
				"x": 2.9372188809,
				"y": -0.6226509849,
				"z": 0.55126939,
				"element": "H" 
			},
			{
				"x": -1.7926588897,
				"y": 0.4207092927,
				"z": -0.5600542083,
				"element": "H" 
			},
			{
				"x": -4.1652038448,
				"y": 0.1238466031,
				"z": 0.0255711241,
				"element": "H" 
			}
		],
		 "valence_orbital": [ 
			{
				"type": "occ",
				"energy": -0.27511,
				"method": "rhf"
			},
			{
				"type": "occ",
				"energy": -0.27194,
				"method": "rhf"
			},
			{
				"type": "occ",
				"energy": -0.26154,
				"method": "rhf"
			},
			{
				"type": "occ",
				"energy": -0.25712,
				"method": "rhf"
			},
			{
				"type": "occ",
				"energy": -0.23411,
				"method": "rhf"
			},
			{
				"type": "unocc",
				"energy": -0.05218,
				"method": "rhf"
			},
			{
				"type": "unocc",
				"energy": -0.02285,
				"method": "rhf"
			},
			{
				"type": "unocc",
				"energy": -0.02087,
				"method": "rhf"
			},
			{
				"type": "unocc",
				"energy": -0.00627,
				"method": "rhf"
			},
			{
				"type": "unocc",
				"energy": 0.00259,
				"method": "rhf"
			}
		],
		"cosmo_sigma_profile": { 
			"-0.025": 0.0,
			"-0.024": 0.0,
			"-0.023": 0.0,
			"-0.022": 0.0,
			"-0.021": 0.0,
			"-0.02": 0.0,
			"-0.019": 0.255148992539,
			"-0.018": 0.70701192323,
			"-0.017": 0.737806204243,
			"-0.016": 1.23604213708,
			"-0.015": 0.931679052493,
			"-0.014": 0.741935543381,
			"-0.013": 0.722077569532,
			"-0.012": 1.54166849656,
			"-0.011": 1.27733648736,
			"-0.01": 1.18720291334,
			"-0.009": 1.00371833341,
			"-0.008": 3.88279058004,
			"-0.007": 15.1378875546,
			"-0.006": 19.5635808698,
			"-0.005": 17.7668947598,
			"-0.004": 16.4391086493,
			"-0.003": 14.877251875,
			"-0.002": 15.6506457399,
			"-0.001": 15.70761303,
			"0.0": 15.3232094004,
			"0.001": 21.8760833052,
			"0.002": 27.6612327734,
			"0.003": 31.314803527,
			"0.004": 25.1772280026,
			"0.005": 14.1429469483,
			"0.006": 5.04873597304,
			"0.007": 2.84382803801,
			"0.008": 2.8704427012,
			"0.009": 3.00238974476,
			"0.01": 4.80786461561,
			"0.011": 5.01345070531,
			"0.012": 5.20024814526,
			"0.013": 1.80211339807,
			"0.014": 0.0984376282785,
			"0.015": 0.0,
			"0.016": 0.0,
			"0.017": 0.0,
			"0.018": 0.0,
			"0.019": 0.0,
			"0.02": 0.0,
			"0.021": 0.0,
			"0.022": 0.0,
			"0.023": 0.0,
			"0.024": 0.0,
			"0.025": 0.0
		}
	}
}
