{
	 "smiles": "CON=C(C1=CC2=C(O1)C=CC=C2)C1=CC2=C(O1)C=CC=C2", 
	 "Tm": 405.15, 
	 "num_atms": 35, 
	 "gaussian": { 
		 "optdone": 1, 
		 "sigma_profile": "yes", 
		 "theory": "DFT", 
		 "functional": "B3LYP", 
		 "basiset": "6-31G**", 
		 "properties": { 
			 "R2extent": 8536.7745, 
			 "electric_dipole_moment_norm": 0.529997264144, 
			 "electric_quadrupole_moment_norm": 13.1448970768, 
			 "total_energy": -974.088920387, 
			 "HOMO_LUMO_gap": 0.14188, 
			 "cosmo_polarized_energy": -9.99, 
			 "cosmo_cavitation_energy": 40.63, 
			 "cosmo_dispersion_energy": -29.3, 
			 "cosmo_repulsion_energy": 2.24, 
			 "cosmo_total_nonelectrostatic_energy": 13.56, 
			 "SMD_solvation_energy": 7.68 
		},
		"coords": [
			{
				"x": -3.6020575263,
				"y": 1.8411939048,
				"z": 2.1872670546,
				"element": "C" 
			},
			{
				"x": -2.3434543298,
				"y": 1.4836636489,
				"z": 1.6198257013,
				"element": "O" 
			},
			{
				"x": -2.4458354075,
				"y": 0.2272701093,
				"z": 1.064065455,
				"element": "N" 
			},
			{
				"x": -1.3402828571,
				"y": -0.2154521775,
				"z": 0.5402507095,
				"element": "C" 
			},
			{
				"x": -0.0202487062,
				"y": 0.415169501,
				"z": 0.5466887576,
				"element": "C" 
			},
			{
				"x": 1.0462154422,
				"y": 0.2449536707,
				"z": -0.2963211129,
				"element": "C" 
			},
			{
				"x": 2.084953805,
				"y": 1.1150767572,
				"z": 0.1729253447,
				"element": "C" 
			},
			{
				"x": 1.546560767,
				"y": 1.7581166835,
				"z": 1.3049988001,
				"element": "C" 
			},
			{
				"x": 0.2705177523,
				"y": 1.3371294513,
				"z": 1.5315817894,
				"element": "O" 
			},
			{
				"x": 2.2448544783,
				"y": 2.6898712032,
				"z": 2.065917787,
				"element": "C" 
			},
			{
				"x": 3.5439433928,
				"y": 2.9773616494,
				"z": 1.6526594859,
				"element": "C" 
			},
			{
				"x": 4.1117882355,
				"y": 2.3523891983,
				"z": 0.5232483376,
				"element": "C" 
			},
			{
				"x": 3.3980125755,
				"y": 1.422816984,
				"z": -0.2240617337,
				"element": "C" 
			},
			{
				"x": -1.5128661838,
				"y": -1.4910720555,
				"z": -0.1664305868,
				"element": "C" 
			},
			{
				"x": -2.6279384106,
				"y": -2.0658692321,
				"z": -0.7043491201,
				"element": "C" 
			},
			{
				"x": -2.2202370023,
				"y": -3.3390746825,
				"z": -1.2305342737,
				"element": "C" 
			},
			{
				"x": -0.8393209272,
				"y": -3.4290482921,
				"z": -0.9659125089,
				"element": "C" 
			},
			{
				"x": -0.4062648123,
				"y": -2.3045955614,
				"z": -0.3173624166,
				"element": "O" 
			},
			{
				"x": -0.0517164443,
				"y": -4.5157894743,
				"z": -1.3260309183,
				"element": "C" 
			},
			{
				"x": -0.7011037654,
				"y": -5.5594770787,
				"z": -1.984118048,
				"element": "C" 
			},
			{
				"x": -2.0804980937,
				"y": -5.5021236669,
				"z": -2.2652240526,
				"element": "C" 
			},
			{
				"x": -2.8503429329,
				"y": -4.4034501598,
				"z": -1.8972516191,
				"element": "C" 
			},
			{
				"x": -3.4680232319,
				"y": 2.8529433965,
				"z": 2.5746149106,
				"element": "H" 
			},
			{
				"x": -4.3916687769,
				"y": 1.8316437943,
				"z": 1.4281850911,
				"element": "H" 
			},
			{
				"x": -3.8727046211,
				"y": 1.1619896529,
				"z": 3.0027783641,
				"element": "H" 
			},
			{
				"x": 1.0823843873,
				"y": -0.4297253141,
				"z": -1.1371271988,
				"element": "H" 
			},
			{
				"x": 1.7937989242,
				"y": 3.1624640059,
				"z": 2.9314152065,
				"element": "H" 
			},
			{
				"x": 4.1316129719,
				"y": 3.6989933995,
				"z": 2.2120834817,
				"element": "H" 
			},
			{
				"x": 5.1278387312,
				"y": 2.6050829514,
				"z": 0.2351460314,
				"element": "H" 
			},
			{
				"x": 3.8431290624,
				"y": 0.9450971699,
				"z": -1.0916578021,
				"element": "H" 
			},
			{
				"x": -3.6109748695,
				"y": -1.6206319018,
				"z": -0.7179079141,
				"element": "H" 
			},
			{
				"x": 1.0087772346,
				"y": -4.5444942113,
				"z": -1.1005988656,
				"element": "H" 
			},
			{
				"x": -0.1319439003,
				"y": -6.4337376065,
				"z": -2.285119254,
				"element": "H" 
			},
			{
				"x": -2.549424779,
				"y": -6.335527935,
				"z": -2.7798979122,
				"element": "H" 
			},
			{
				"x": -3.9128801822,
				"y": -4.3693577826,
				"z": -2.1183469706,
				"element": "H" 
			}
		],
		 "valence_orbital": [ 
			{
				"type": "occ",
				"energy": -0.26913,
				"method": "rhf"
			},
			{
				"type": "occ",
				"energy": -0.23908,
				"method": "rhf"
			},
			{
				"type": "occ",
				"energy": -0.23739,
				"method": "rhf"
			},
			{
				"type": "occ",
				"energy": -0.2215,
				"method": "rhf"
			},
			{
				"type": "occ",
				"energy": -0.20402,
				"method": "rhf"
			},
			{
				"type": "unocc",
				"energy": -0.06214,
				"method": "rhf"
			},
			{
				"type": "unocc",
				"energy": -0.02258,
				"method": "rhf"
			},
			{
				"type": "unocc",
				"energy": 0.00806,
				"method": "rhf"
			},
			{
				"type": "unocc",
				"energy": 0.01229,
				"method": "rhf"
			},
			{
				"type": "unocc",
				"energy": 0.02264,
				"method": "rhf"
			}
		],
		"cosmo_sigma_profile": { 
			"-0.025": 0.0,
			"-0.024": 0.0,
			"-0.023": 0.0,
			"-0.022": 0.0,
			"-0.021": 0.0,
			"-0.02": 0.0,
			"-0.019": 0.0,
			"-0.018": 0.0,
			"-0.017": 0.0,
			"-0.016": 0.0,
			"-0.015": 0.0,
			"-0.014": 0.0,
			"-0.013": 0.0,
			"-0.012": 0.0,
			"-0.011": 0.0,
			"-0.01": 0.0,
			"-0.009": 0.0,
			"-0.008": 0.49944282483,
			"-0.007": 6.74680880491,
			"-0.006": 19.9225074763,
			"-0.005": 25.4105971547,
			"-0.004": 30.1048343048,
			"-0.003": 25.2352974427,
			"-0.002": 20.5033594636,
			"-0.001": 19.4680378357,
			"0.0": 21.9737922789,
			"0.001": 28.4730958174,
			"0.002": 28.9551354779,
			"0.003": 32.2027548064,
			"0.004": 26.9499904479,
			"0.005": 19.7707215434,
			"0.006": 6.33387100167,
			"0.007": 4.77528087525,
			"0.008": 2.94040477978,
			"0.009": 2.26580363,
			"0.01": 2.36363661459,
			"0.011": 1.87030890676,
			"0.012": 0.685874428106,
			"0.013": 0.00639622342873,
			"0.014": 0.0,
			"0.015": 0.0,
			"0.016": 0.0,
			"0.017": 0.0,
			"0.018": 0.0,
			"0.019": 0.0,
			"0.02": 0.0,
			"0.021": 0.0,
			"0.022": 0.0,
			"0.023": 0.0,
			"0.024": 0.0,
			"0.025": 0.0
		}
	}
}
