{
	 "smiles": "CC(=O)C1=CC=C(C=C1)C#N", 
	 "Tm": 331.15, 
	 "num_atms": 18, 
	 "gaussian": { 
		 "optdone": 1, 
		 "sigma_profile": "yes", 
		 "theory": "DFT", 
		 "functional": "B3LYP", 
		 "basiset": "6-31G**", 
		 "properties": { 
			 "R2extent": 2401.8781, 
			 "electric_dipole_moment_norm": 3.56524539548, 
			 "electric_quadrupole_moment_norm": 22.4633836821, 
			 "total_energy": -477.137514705, 
			 "HOMO_LUMO_gap": 0.17755, 
			 "cosmo_polarized_energy": -12.16, 
			 "cosmo_cavitation_energy": 23.77, 
			 "cosmo_dispersion_energy": -16.72, 
			 "cosmo_repulsion_energy": 1.33, 
			 "cosmo_total_nonelectrostatic_energy": 8.39, 
			 "SMD_solvation_energy": 6.27 
		},
		"coords": [
			{
				"x": 1.3200259813,
				"y": -1.358382497,
				"z": -1.6704942381,
				"element": "C" 
			},
			{
				"x": 0.2603925412,
				"y": -0.2723274933,
				"z": -1.6845188313,
				"element": "C" 
			},
			{
				"x": -0.3430845569,
				"y": 0.0031800902,
				"z": -2.7088709611,
				"element": "O" 
			},
			{
				"x": -0.0405565552,
				"y": 0.4679185897,
				"z": -0.4091995812,
				"element": "C" 
			},
			{
				"x": 0.6177000854,
				"y": 0.1981923339,
				"z": 0.7997164863,
				"element": "C" 
			},
			{
				"x": 0.3023552553,
				"y": 0.911813145,
				"z": 1.9520783796,
				"element": "C" 
			},
			{
				"x": -0.6835440816,
				"y": 1.9109540487,
				"z": 1.90472527,
				"element": "C" 
			},
			{
				"x": -1.3483351378,
				"y": 2.1874249249,
				"z": 0.6958056092,
				"element": "C" 
			},
			{
				"x": -1.0245503382,
				"y": 1.4685333018,
				"z": -0.4463942139,
				"element": "C" 
			},
			{
				"x": -1.0115027456,
				"y": 2.6487522997,
				"z": 3.0903213373,
				"element": "C" 
			},
			{
				"x": -1.277031716,
				"y": 3.2466901025,
				"z": 4.0520541374,
				"element": "N" 
			},
			{
				"x": 1.4007727098,
				"y": -1.7795246724,
				"z": -2.67270016,
				"element": "H" 
			},
			{
				"x": 1.0594215253,
				"y": -2.152984698,
				"z": -0.9625145328,
				"element": "H" 
			},
			{
				"x": 2.2924170794,
				"y": -0.9551806089,
				"z": -1.3664819307,
				"element": "H" 
			},
			{
				"x": 1.3811165762,
				"y": -0.5706743587,
				"z": 0.8504508973,
				"element": "H" 
			},
			{
				"x": 0.8109689934,
				"y": 0.7037657811,
				"z": 2.887233855,
				"element": "H" 
			},
			{
				"x": -2.1086501361,
				"y": 2.9606357495,
				"z": 0.6672661148,
				"element": "H" 
			},
			{
				"x": -1.52201548,
				"y": 1.6621139612,
				"z": -1.3904776378,
				"element": "H" 
			}
		],
		 "valence_orbital": [ 
			{
				"type": "occ",
				"energy": -0.34974,
				"method": "rhf"
			},
			{
				"type": "occ",
				"energy": -0.3386,
				"method": "rhf"
			},
			{
				"type": "occ",
				"energy": -0.28667,
				"method": "rhf"
			},
			{
				"type": "occ",
				"energy": -0.27587,
				"method": "rhf"
			},
			{
				"type": "occ",
				"energy": -0.26587,
				"method": "rhf"
			},
			{
				"type": "unocc",
				"energy": -0.08832,
				"method": "rhf"
			},
			{
				"type": "unocc",
				"energy": -0.03443,
				"method": "rhf"
			},
			{
				"type": "unocc",
				"energy": -0.00523,
				"method": "rhf"
			},
			{
				"type": "unocc",
				"energy": 0.02826,
				"method": "rhf"
			},
			{
				"type": "unocc",
				"energy": 0.07154,
				"method": "rhf"
			}
		],
		"cosmo_sigma_profile": { 
			"-0.025": 0.0,
			"-0.024": 0.0,
			"-0.023": 0.0,
			"-0.022": 0.0,
			"-0.021": 0.0,
			"-0.02": 0.0,
			"-0.019": 0.0,
			"-0.018": 0.0,
			"-0.017": 0.0,
			"-0.016": 0.0,
			"-0.015": 0.0,
			"-0.014": 0.0,
			"-0.013": 0.0,
			"-0.012": 0.0,
			"-0.011": 0.0,
			"-0.01": 0.0,
			"-0.009": 0.613999223159,
			"-0.008": 6.04809447176,
			"-0.007": 12.7429166627,
			"-0.006": 15.4020082865,
			"-0.005": 10.9310653872,
			"-0.004": 11.9628248809,
			"-0.003": 12.0503474187,
			"-0.002": 17.8068151968,
			"-0.001": 15.5060751463,
			"0.0": 14.5393349775,
			"0.001": 17.8361331784,
			"0.002": 7.75426383909,
			"0.003": 4.1425774782,
			"0.004": 3.22897449287,
			"0.005": 5.01030341926,
			"0.006": 3.81465469005,
			"0.007": 3.73465596115,
			"0.008": 5.39801183682,
			"0.009": 5.37771104638,
			"0.01": 5.42702823128,
			"0.011": 6.17336510461,
			"0.012": 4.84388307702,
			"0.013": 1.4429841045,
			"0.014": 0.0,
			"0.015": 0.0,
			"0.016": 0.0,
			"0.017": 0.0,
			"0.018": 0.0,
			"0.019": 0.0,
			"0.02": 0.0,
			"0.021": 0.0,
			"0.022": 0.0,
			"0.023": 0.0,
			"0.024": 0.0,
			"0.025": 0.0
		}
	}
}
