{
	 "smiles": "OC(=O)C1=CC2=C(CCCC2)C(=C1)S(Cl)(=O)=O", 
	 "Tm": 467.15, 
	 "num_atms": 28, 
	 "gaussian": { 
		 "optdone": 1, 
		 "sigma_profile": "yes", 
		 "theory": "DFT", 
		 "functional": "B3LYP", 
		 "basiset": "6-31G**", 
		 "properties": { 
			 "R2extent": 6381.5534, 
			 "electric_dipole_moment_norm": 4.28782936461, 
			 "electric_quadrupole_moment_norm": 17.1501487177, 
			 "total_energy": -1585.03149021, 
			 "HOMO_LUMO_gap": 0.1816, 
			 "cosmo_polarized_energy": -16.74, 
			 "cosmo_cavitation_energy": 33.85, 
			 "cosmo_dispersion_energy": -25.22, 
			 "cosmo_repulsion_energy": 1.91, 
			 "cosmo_total_nonelectrostatic_energy": 10.54, 
			 "SMD_solvation_energy": 4.82 
		},
		"coords": [
			{
				"x": -5.0581070767,
				"y": -0.1838355445,
				"z": 0.6159828804,
				"element": "O" 
			},
			{
				"x": -4.1290844399,
				"y": -1.0325607614,
				"z": 0.111384353,
				"element": "C" 
			},
			{
				"x": -4.4697583196,
				"y": -1.9850746232,
				"z": -0.5489578467,
				"element": "O" 
			},
			{
				"x": -2.6879939666,
				"y": -0.7322608459,
				"z": 0.4120896096,
				"element": "C" 
			},
			{
				"x": -1.7146770639,
				"y": -1.3553701693,
				"z": -0.3715312143,
				"element": "C" 
			},
			{
				"x": -0.347428239,
				"y": -1.1486585825,
				"z": -0.1697903444,
				"element": "C" 
			},
			{
				"x": 0.0913891778,
				"y": -0.2956726504,
				"z": 0.8680776304,
				"element": "C" 
			},
			{
				"x": 1.5724083072,
				"y": -0.0494871566,
				"z": 1.1014059895,
				"element": "C" 
			},
			{
				"x": 2.4845344748,
				"y": -1.0634217838,
				"z": 0.4002284349,
				"element": "C" 
			},
			{
				"x": 2.0453510632,
				"y": -1.2818577926,
				"z": -1.0482849421,
				"element": "C" 
			},
			{
				"x": 0.6349163392,
				"y": -1.8765646389,
				"z": -1.0728273281,
				"element": "C" 
			},
			{
				"x": -0.9130366087,
				"y": 0.3165556495,
				"z": 1.6473261749,
				"element": "C" 
			},
			{
				"x": -2.2769310178,
				"y": 0.1092184502,
				"z": 1.4468747819,
				"element": "C" 
			},
			{
				"x": -0.5298555388,
				"y": 1.4755726833,
				"z": 2.9705178787,
				"element": "S" 
			},
			{
				"x": 0.1760853584,
				"y": 0.1720592227,
				"z": 4.5112807026,
				"element": "Cl" 
			},
			{
				"x": -1.7757334755,
				"y": 2.0442035472,
				"z": 3.4725059276,
				"element": "O" 
			},
			{
				"x": 0.5952512709,
				"y": 2.3255193928,
				"z": 2.6014423049,
				"element": "O" 
			},
			{
				"x": -4.6442386522,
				"y": 0.6082313364,
				"z": 0.9857453283,
				"element": "H" 
			},
			{
				"x": -2.0518330635,
				"y": -2.0198863154,
				"z": -1.1614871746,
				"element": "H" 
			},
			{
				"x": 1.7858413326,
				"y": -0.0373649577,
				"z": 2.1734919931,
				"element": "H" 
			},
			{
				"x": 1.8043112925,
				"y": 0.9637532605,
				"z": 0.7503104942,
				"element": "H" 
			},
			{
				"x": 3.5172915353,
				"y": -0.7035898002,
				"z": 0.4492726328,
				"element": "H" 
			},
			{
				"x": 2.4587490161,
				"y": -2.0209122666,
				"z": 0.9369312427,
				"element": "H" 
			},
			{
				"x": 2.7373987036,
				"y": -1.9484283181,
				"z": -1.5731963499,
				"element": "H" 
			},
			{
				"x": 2.0574542945,
				"y": -0.324091078,
				"z": -1.5850833143,
				"element": "H" 
			},
			{
				"x": 0.2349941661,
				"y": -1.8924028081,
				"z": -2.0927747383,
				"element": "H" 
			},
			{
				"x": 0.6812754647,
				"y": -2.9268148882,
				"z": -0.7511920572,
				"element": "H" 
			},
			{
				"x": -2.9779743345,
				"y": 0.5887414387,
				"z": 2.1210569505,
				"element": "H" 
			}
		],
		 "valence_orbital": [ 
			{
				"type": "occ",
				"energy": -0.33011,
				"method": "rhf"
			},
			{
				"type": "occ",
				"energy": -0.3226,
				"method": "rhf"
			},
			{
				"type": "occ",
				"energy": -0.29521,
				"method": "rhf"
			},
			{
				"type": "occ",
				"energy": -0.28721,
				"method": "rhf"
			},
			{
				"type": "occ",
				"energy": -0.28104,
				"method": "rhf"
			},
			{
				"type": "unocc",
				"energy": -0.09944,
				"method": "rhf"
			},
			{
				"type": "unocc",
				"energy": -0.07174,
				"method": "rhf"
			},
			{
				"type": "unocc",
				"energy": -0.0547,
				"method": "rhf"
			},
			{
				"type": "unocc",
				"energy": 0.01585,
				"method": "rhf"
			},
			{
				"type": "unocc",
				"energy": 0.03973,
				"method": "rhf"
			}
		],
		"cosmo_sigma_profile": { 
			"-0.025": 0.0,
			"-0.024": 0.0,
			"-0.023": 0.0,
			"-0.022": 0.0,
			"-0.021": 0.0,
			"-0.02": 0.37765807842,
			"-0.019": 0.748394984657,
			"-0.018": 1.24683049098,
			"-0.017": 0.844303863138,
			"-0.016": 1.18240541224,
			"-0.015": 0.844521143873,
			"-0.014": 0.789793818617,
			"-0.013": 1.08197684588,
			"-0.012": 0.977704420212,
			"-0.011": 1.38616573585,
			"-0.01": 0.565433421477,
			"-0.009": 1.61936111251,
			"-0.008": 1.18341619492,
			"-0.007": 2.82531061338,
			"-0.006": 5.79883777424,
			"-0.005": 10.0199722441,
			"-0.004": 20.4828659069,
			"-0.003": 32.0262951887,
			"-0.002": 32.4809967886,
			"-0.001": 29.647394434,
			"0.0": 25.0199052015,
			"0.001": 12.7381934784,
			"0.002": 11.4653257659,
			"0.003": 14.582699084,
			"0.004": 9.03195563775,
			"0.005": 5.28469840732,
			"0.006": 6.41719612309,
			"0.007": 8.09801368823,
			"0.008": 11.452464142,
			"0.009": 7.0273393087,
			"0.01": 4.94030522993,
			"0.011": 5.51612650624,
			"0.012": 3.03306270512,
			"0.013": 0.602954827179,
			"0.014": 0.0,
			"0.015": 0.0,
			"0.016": 0.0,
			"0.017": 0.0,
			"0.018": 0.0,
			"0.019": 0.0,
			"0.02": 0.0,
			"0.021": 0.0,
			"0.022": 0.0,
			"0.023": 0.0,
			"0.024": 0.0,
			"0.025": 0.0
		}
	}
}
