{
	 "smiles": "OC(C(O)C(O)C(O)=O)C(O)C(O)=O", 
	 "Tm": 503.15, 
	 "num_atms": 24, 
	 "gaussian": { 
		 "optdone": 1, 
		 "sigma_profile": "yes", 
		 "theory": "DFT", 
		 "functional": "B3LYP", 
		 "basiset": "6-31G**", 
		 "properties": { 
			 "R2extent": 3171.9336, 
			 "electric_dipole_moment_norm": 1.7371723173, 
			 "electric_quadrupole_moment_norm": 13.1309241811, 
			 "total_energy": -836.453945808, 
			 "HOMO_LUMO_gap": 0.24597, 
			 "cosmo_polarized_energy": -19.56, 
			 "cosmo_cavitation_energy": 26.42, 
			 "cosmo_dispersion_energy": -19.52, 
			 "cosmo_repulsion_energy": 1.52, 
			 "cosmo_total_nonelectrostatic_energy": 8.42, 
			 "SMD_solvation_energy": 6.05 
		},
		"coords": [
			{
				"x": 0.8916702448,
				"y": 0.2836726325,
				"z": -0.6295337104,
				"element": "O" 
			},
			{
				"x": -0.3488401403,
				"y": 0.0311081047,
				"z": 0.0018149307,
				"element": "C" 
			},
			{
				"x": -1.4535308342,
				"y": -0.4255827255,
				"z": -1.0238578833,
				"element": "C" 
			},
			{
				"x": -2.4110354978,
				"y": -1.3105020507,
				"z": -0.4279228645,
				"element": "O" 
			},
			{
				"x": -0.9459241841,
				"y": -1.1070514993,
				"z": -2.3124098531,
				"element": "C" 
			},
			{
				"x": -0.5130602105,
				"y": -2.4201051359,
				"z": -2.021006238,
				"element": "O" 
			},
			{
				"x": 0.1468193708,
				"y": -0.3630124826,
				"z": -3.0641750923,
				"element": "C" 
			},
			{
				"x": -0.2170732214,
				"y": 0.8779616341,
				"z": -3.4166510235,
				"element": "O" 
			},
			{
				"x": 1.1939826737,
				"y": -0.8906335858,
				"z": -3.3791448669,
				"element": "O" 
			},
			{
				"x": -0.1811406492,
				"y": -0.8929058132,
				"z": 1.2484512122,
				"element": "C" 
			},
			{
				"x": -1.3284110617,
				"y": -0.9451967046,
				"z": 2.0460118976,
				"element": "O" 
			},
			{
				"x": 0.3889434122,
				"y": -2.243309529,
				"z": 0.8212762411,
				"element": "C" 
			},
			{
				"x": -0.3947092545,
				"y": -3.2969058379,
				"z": 1.0913187159,
				"element": "O" 
			},
			{
				"x": 1.4660110184,
				"y": -2.3442746374,
				"z": 0.2543000013,
				"element": "O" 
			},
			{
				"x": 1.4269590974,
				"y": -0.528697987,
				"z": -0.5669623291,
				"element": "H" 
			},
			{
				"x": -0.6888728134,
				"y": 0.9837683811,
				"z": 0.4221389227,
				"element": "H" 
			},
			{
				"x": -2.0116348436,
				"y": 0.4656468786,
				"z": -1.3256038691,
				"element": "H" 
			},
			{
				"x": -2.0518906827,
				"y": -2.2081569647,
				"z": -0.5311419271,
				"element": "H" 
			},
			{
				"x": -1.8146014632,
				"y": -1.1618295246,
				"z": -2.985561265,
				"element": "H" 
			},
			{
				"x": 0.4259066946,
				"y": -2.4634296765,
				"z": -2.2762086837,
				"element": "H" 
			},
			{
				"x": 0.5417047122,
				"y": 1.2781596465,
				"z": -3.8736647151,
				"element": "H" 
			},
			{
				"x": 0.6143748557,
				"y": -0.4309857558,
				"z": 1.8451257976,
				"element": "H" 
			},
			{
				"x": -2.0650867102,
				"y": -1.1500023305,
				"z": 1.4432264581,
				"element": "H" 
			},
			{
				"x": 0.062039487,
				"y": -4.0780350364,
				"z": 0.7329801439,
				"element": "H" 
			}
		],
		 "valence_orbital": [ 
			{
				"type": "occ",
				"energy": -0.32155,
				"method": "rhf"
			},
			{
				"type": "occ",
				"energy": -0.29989,
				"method": "rhf"
			},
			{
				"type": "occ",
				"energy": -0.29804,
				"method": "rhf"
			},
			{
				"type": "occ",
				"energy": -0.26976,
				"method": "rhf"
			},
			{
				"type": "occ",
				"energy": -0.26063,
				"method": "rhf"
			},
			{
				"type": "unocc",
				"energy": -0.01466,
				"method": "rhf"
			},
			{
				"type": "unocc",
				"energy": -0.00418,
				"method": "rhf"
			},
			{
				"type": "unocc",
				"energy": 0.04818,
				"method": "rhf"
			},
			{
				"type": "unocc",
				"energy": 0.06208,
				"method": "rhf"
			},
			{
				"type": "unocc",
				"energy": 0.07798,
				"method": "rhf"
			}
		],
		"cosmo_sigma_profile": { 
			"-0.025": 0.0,
			"-0.024": 0.0,
			"-0.023": 0.0,
			"-0.022": 0.0,
			"-0.021": 0.0,
			"-0.02": 0.0,
			"-0.019": 1.3383936085,
			"-0.018": 1.9752694854,
			"-0.017": 1.81331386249,
			"-0.016": 1.4437608813,
			"-0.015": 1.35609516634,
			"-0.014": 1.83439010334,
			"-0.013": 0.835607007743,
			"-0.012": 1.58410336059,
			"-0.011": 2.3570285408,
			"-0.01": 1.11214964053,
			"-0.009": 2.40650050596,
			"-0.008": 5.51958912024,
			"-0.007": 12.8700338335,
			"-0.006": 13.2164194329,
			"-0.005": 10.5200003319,
			"-0.004": 11.1777341879,
			"-0.003": 12.3716530627,
			"-0.002": 10.4216589109,
			"-0.001": 9.58947043467,
			"0.0": 9.54410001188,
			"0.001": 7.92846640771,
			"0.002": 6.0775349245,
			"0.003": 6.98973558912,
			"0.004": 6.92926783595,
			"0.005": 7.72660796845,
			"0.006": 8.35316533608,
			"0.007": 7.29407159955,
			"0.008": 8.20344832646,
			"0.009": 7.4009508245,
			"0.01": 9.63123944114,
			"0.011": 7.89874023602,
			"0.012": 4.81621294389,
			"0.013": 2.95710588915,
			"0.014": 0.520668127839,
			"0.015": 0.0,
			"0.016": 0.0,
			"0.017": 0.0,
			"0.018": 0.0,
			"0.019": 0.0,
			"0.02": 0.0,
			"0.021": 0.0,
			"0.022": 0.0,
			"0.023": 0.0,
			"0.024": 0.0,
			"0.025": 0.0
		}
	}
}
