{
	 "smiles": "OC(=O)C12CC3CC(C1)CC(C3)(C2)C(F)(F)C(F)C(F)(F)F", 
	 "Tm": 389.15, 
	 "num_atms": 38, 
	 "gaussian": { 
		 "optdone": 1, 
		 "sigma_profile": "yes", 
		 "theory": "DFT", 
		 "functional": "B3LYP", 
		 "basiset": "6-31G**", 
		 "properties": { 
			 "R2extent": 6438.1364, 
			 "electric_dipole_moment_norm": 2.0372535581, 
			 "electric_quadrupole_moment_norm": 13.9271594968, 
			 "total_energy": -1292.65796184, 
			 "HOMO_LUMO_gap": 0.27461, 
			 "cosmo_polarized_energy": -11.44, 
			 "cosmo_cavitation_energy": 37.63, 
			 "cosmo_dispersion_energy": -26.26, 
			 "cosmo_repulsion_energy": 1.84, 
			 "cosmo_total_nonelectrostatic_energy": 13.21, 
			 "SMD_solvation_energy": 8.21 
		},
		"coords": [
			{
				"x": -2.6778226868,
				"y": -0.4882737726,
				"z": 1.5932020526,
				"element": "O" 
			},
			{
				"x": -2.7776242726,
				"y": 0.5761870176,
				"z": 0.7546931908,
				"element": "C" 
			},
			{
				"x": -3.8105996891,
				"y": 1.1981277173,
				"z": 0.6321591315,
				"element": "O" 
			},
			{
				"x": -1.4660644271,
				"y": 0.8756997922,
				"z": 0.041439594,
				"element": "C" 
			},
			{
				"x": -1.6741407354,
				"y": 2.0040515548,
				"z": -0.9898357377,
				"element": "C" 
			},
			{
				"x": -0.3395683108,
				"y": 2.3164808638,
				"z": -1.6925279799,
				"element": "C" 
			},
			{
				"x": 0.6993320625,
				"y": 2.7794064591,
				"z": -0.6551883611,
				"element": "C" 
			},
			{
				"x": 0.9227668673,
				"y": 1.6479395207,
				"z": 0.3635814276,
				"element": "C" 
			},
			{
				"x": -0.4018888739,
				"y": 1.3251947386,
				"z": 1.0832148877,
				"element": "C" 
			},
			{
				"x": 1.4425016262,
				"y": 0.3854915829,
				"z": -0.355334844,
				"element": "C" 
			},
			{
				"x": 0.3947794016,
				"y": -0.0977985806,
				"z": -1.3929883348,
				"element": "C" 
			},
			{
				"x": 0.1694507263,
				"y": 1.0552114033,
				"z": -2.4141853966,
				"element": "C" 
			},
			{
				"x": -0.9451120721,
				"y": -0.3989856286,
				"z": -0.6767770346,
				"element": "C" 
			},
			{
				"x": 0.8775775519,
				"y": -1.3329860581,
				"z": -2.1856205589,
				"element": "C" 
			},
			{
				"x": 2.1334370963,
				"y": -1.0960279458,
				"z": -2.6760995195,
				"element": "F" 
			},
			{
				"x": 0.0534849621,
				"y": -1.4935918616,
				"z": -3.28202255,
				"element": "F" 
			},
			{
				"x": 0.87945043,
				"y": -2.7552092346,
				"z": -1.5673687863,
				"element": "C" 
			},
			{
				"x": 1.3421777792,
				"y": -3.599730482,
				"z": -2.5542938437,
				"element": "F" 
			},
			{
				"x": 1.7501495314,
				"y": -3.0209332369,
				"z": -0.3347227241,
				"element": "C" 
			},
			{
				"x": 2.9661300378,
				"y": -2.4614595723,
				"z": -0.4169967741,
				"element": "F" 
			},
			{
				"x": 1.1425727603,
				"y": -2.5452443425,
				"z": 0.7811031641,
				"element": "F" 
			},
			{
				"x": 1.906144572,
				"y": -4.3423374337,
				"z": -0.1708998035,
				"element": "F" 
			},
			{
				"x": -3.5513558936,
				"y": -0.5837230544,
				"z": 2.0086838296,
				"element": "H" 
			},
			{
				"x": -2.4332908905,
				"y": 1.701310944,
				"z": -1.7200394292,
				"element": "H" 
			},
			{
				"x": -2.0656714693,
				"y": 2.8935268758,
				"z": -0.4852828475,
				"element": "H" 
			},
			{
				"x": -0.5010866128,
				"y": 3.1068666398,
				"z": -2.4354511011,
				"element": "H" 
			},
			{
				"x": 0.3506455381,
				"y": 3.6867829922,
				"z": -0.1458385681,
				"element": "H" 
			},
			{
				"x": 1.6448819207,
				"y": 3.0323928913,
				"z": -1.1512081061,
				"element": "H" 
			},
			{
				"x": 1.6656589676,
				"y": 1.9577063147,
				"z": 1.108686651,
				"element": "H" 
			},
			{
				"x": -0.2540725223,
				"y": 0.5339055242,
				"z": 1.8261463941,
				"element": "H" 
			},
			{
				"x": -0.7658813894,
				"y": 2.2107864505,
				"z": 1.6189034389,
				"element": "H" 
			},
			{
				"x": 2.3857115812,
				"y": 0.6013906565,
				"z": -0.8670780898,
				"element": "H" 
			},
			{
				"x": 1.6468893742,
				"y": -0.3866658847,
				"z": 0.3873864302,
				"element": "H" 
			},
			{
				"x": -0.5551310451,
				"y": 0.7415739146,
				"z": -3.1705686509,
				"element": "H" 
			},
			{
				"x": 1.1098607797,
				"y": 1.2643142946,
				"z": -2.9360921728,
				"element": "H" 
			},
			{
				"x": -1.6859876593,
				"y": -0.7407676136,
				"z": -1.4101697357,
				"element": "H" 
			},
			{
				"x": -0.8177776746,
				"y": -1.1933771078,
				"z": 0.063486228,
				"element": "H" 
			},
			{
				"x": -0.1466273417,
				"y": -3.0358363389,
				"z": -1.3118954702,
				"element": "H" 
			}
		],
		 "valence_orbital": [ 
			{
				"type": "occ",
				"energy": -0.32264,
				"method": "rhf"
			},
			{
				"type": "occ",
				"energy": -0.31458,
				"method": "rhf"
			},
			{
				"type": "occ",
				"energy": -0.29984,
				"method": "rhf"
			},
			{
				"type": "occ",
				"energy": -0.29318,
				"method": "rhf"
			},
			{
				"type": "occ",
				"energy": -0.27328,
				"method": "rhf"
			},
			{
				"type": "unocc",
				"energy": 0.00133,
				"method": "rhf"
			},
			{
				"type": "unocc",
				"energy": 0.04804,
				"method": "rhf"
			},
			{
				"type": "unocc",
				"energy": 0.05975,
				"method": "rhf"
			},
			{
				"type": "unocc",
				"energy": 0.07777,
				"method": "rhf"
			},
			{
				"type": "unocc",
				"energy": 0.0805,
				"method": "rhf"
			}
		],
		"cosmo_sigma_profile": { 
			"-0.025": 0.0,
			"-0.024": 0.0,
			"-0.023": 0.0,
			"-0.022": 0.0,
			"-0.021": 0.0,
			"-0.02": 0.0,
			"-0.019": 0.0,
			"-0.018": 0.4076359629,
			"-0.017": 1.2570114637,
			"-0.016": 0.84564685887,
			"-0.015": 0.507432112993,
			"-0.014": 0.95618000035,
			"-0.013": 0.242540581476,
			"-0.012": 0.869850633714,
			"-0.011": 2.25890092054,
			"-0.01": 3.14937575979,
			"-0.009": 2.83459305993,
			"-0.008": 2.31142685786,
			"-0.007": 2.23216358426,
			"-0.006": 2.84219521513,
			"-0.005": 4.19432051511,
			"-0.004": 9.21656240862,
			"-0.003": 32.1952719131,
			"-0.002": 36.3336428798,
			"-0.001": 34.1841222007,
			"0.0": 28.0771034296,
			"0.001": 25.8647182077,
			"0.002": 31.7393468342,
			"0.003": 18.0568339924,
			"0.004": 23.583094782,
			"0.005": 8.39800022034,
			"0.006": 2.94686175434,
			"0.007": 2.47498269435,
			"0.008": 2.94915524881,
			"0.009": 1.28054466216,
			"0.01": 2.51778186005,
			"0.011": 3.14142370873,
			"0.012": 4.63353095705,
			"0.013": 0.592773532367,
			"0.014": 0.0,
			"0.015": 0.0,
			"0.016": 0.0,
			"0.017": 0.0,
			"0.018": 0.0,
			"0.019": 0.0,
			"0.02": 0.0,
			"0.021": 0.0,
			"0.022": 0.0,
			"0.023": 0.0,
			"0.024": 0.0,
			"0.025": 0.0
		}
	}
}
