{
	 "smiles": "CC1=CC=CC=C1S(N)(=O)=O", 
	 "Tm": 429.15, 
	 "num_atms": 20, 
	 "gaussian": { 
		 "optdone": 1, 
		 "sigma_profile": "yes", 
		 "theory": "DFT", 
		 "functional": "B3LYP", 
		 "basiset": "6-31G**", 
		 "properties": { 
			 "R2extent": 2470.3456, 
			 "electric_dipole_moment_norm": 5.81130317485, 
			 "electric_quadrupole_moment_norm": 20.9987855361, 
			 "total_energy": -875.48984375, 
			 "HOMO_LUMO_gap": 0.22343, 
			 "cosmo_polarized_energy": -17.5, 
			 "cosmo_cavitation_energy": 24.29, 
			 "cosmo_dispersion_energy": -18.69, 
			 "cosmo_repulsion_energy": 1.43, 
			 "cosmo_total_nonelectrostatic_energy": 7.03, 
			 "SMD_solvation_energy": 3.85 
		},
		"coords": [
			{
				"x": -2.1143483001,
				"y": -0.2916012866,
				"z": 0.0911392676,
				"element": "C" 
			},
			{
				"x": -0.6701730193,
				"y": 0.0081739445,
				"z": -0.2377470522,
				"element": "C" 
			},
			{
				"x": -0.2017424135,
				"y": 1.3247087985,
				"z": -0.1353731421,
				"element": "C" 
			},
			{
				"x": 1.117830525,
				"y": 1.6650929779,
				"z": -0.4344271984,
				"element": "C" 
			},
			{
				"x": 2.0154431967,
				"y": 0.6828809459,
				"z": -0.8484793607,
				"element": "C" 
			},
			{
				"x": 1.5822331998,
				"y": -0.63718368,
				"z": -0.9616838621,
				"element": "C" 
			},
			{
				"x": 0.256803707,
				"y": -0.9665206635,
				"z": -0.6640710006,
				"element": "C" 
			},
			{
				"x": -0.1792287051,
				"y": -2.7156384056,
				"z": -0.823231135,
				"element": "S" 
			},
			{
				"x": -1.2867153534,
				"y": -2.8389874273,
				"z": -2.0810721498,
				"element": "N" 
			},
			{
				"x": -0.9011776358,
				"y": -3.1318211417,
				"z": 0.3795014756,
				"element": "O" 
			},
			{
				"x": 1.0186953918,
				"y": -3.412954193,
				"z": -1.2879129433,
				"element": "O" 
			},
			{
				"x": -2.6971062692,
				"y": -0.4926775305,
				"z": -0.8179605005,
				"element": "H" 
			},
			{
				"x": -2.2070058429,
				"y": -1.1627828276,
				"z": 0.7426323854,
				"element": "H" 
			},
			{
				"x": -2.579109185,
				"y": 0.5678285771,
				"z": 0.5798772296,
				"element": "H" 
			},
			{
				"x": -0.8925551199,
				"y": 2.0966437273,
				"z": 0.1930736422,
				"element": "H" 
			},
			{
				"x": 1.4417473262,
				"y": 2.6973377723,
				"z": -0.3384190058,
				"element": "H" 
			},
			{
				"x": 3.0459553497,
				"y": 0.9360971766,
				"z": -1.0772376848,
				"element": "H" 
			},
			{
				"x": 2.2593462723,
				"y": -1.424959583,
				"z": -1.2711639228,
				"element": "H" 
			},
			{
				"x": -0.9085787313,
				"y": -2.5456992297,
				"z": -2.9759604052,
				"element": "H" 
			},
			{
				"x": -2.190514393,
				"y": -2.4322379514,
				"z": -1.8663846373,
				"element": "H" 
			}
		],
		 "valence_orbital": [ 
			{
				"type": "occ",
				"energy": -0.31328,
				"method": "rhf"
			},
			{
				"type": "occ",
				"energy": -0.3031,
				"method": "rhf"
			},
			{
				"type": "occ",
				"energy": -0.29939,
				"method": "rhf"
			},
			{
				"type": "occ",
				"energy": -0.26823,
				"method": "rhf"
			},
			{
				"type": "occ",
				"energy": -0.26264,
				"method": "rhf"
			},
			{
				"type": "unocc",
				"energy": -0.03921,
				"method": "rhf"
			},
			{
				"type": "unocc",
				"energy": -0.01924,
				"method": "rhf"
			},
			{
				"type": "unocc",
				"energy": 0.04821,
				"method": "rhf"
			},
			{
				"type": "unocc",
				"energy": 0.06805,
				"method": "rhf"
			},
			{
				"type": "unocc",
				"energy": 0.08638,
				"method": "rhf"
			}
		],
		"cosmo_sigma_profile": { 
			"-0.025": 0.0,
			"-0.024": 0.0,
			"-0.023": 0.0,
			"-0.022": 0.0,
			"-0.021": 0.0,
			"-0.02": 0.0,
			"-0.019": 0.0,
			"-0.018": 0.0,
			"-0.017": 0.0,
			"-0.016": 0.148754011753,
			"-0.015": 1.52998290375,
			"-0.014": 2.14904377369,
			"-0.013": 3.1706105249,
			"-0.012": 2.79196263029,
			"-0.011": 2.86338828965,
			"-0.01": 1.98971833091,
			"-0.009": 1.93844684556,
			"-0.008": 2.35991822012,
			"-0.007": 4.94758921198,
			"-0.006": 11.8328363583,
			"-0.005": 12.1298863947,
			"-0.004": 11.1032719783,
			"-0.003": 11.0810766428,
			"-0.002": 11.8607925968,
			"-0.001": 13.6082143612,
			"0.0": 11.6615110315,
			"0.001": 10.2490225296,
			"0.002": 11.5289437029,
			"0.003": 12.4792651423,
			"0.004": 10.0075469256,
			"0.005": 3.42123581605,
			"0.006": 2.6866127899,
			"0.007": 3.79388856649,
			"0.008": 5.17893231445,
			"0.009": 4.42510119582,
			"0.01": 7.27282721217,
			"0.011": 9.4858986737,
			"0.012": 5.49384667423,
			"0.013": 0.13660153264,
			"0.014": 0.0,
			"0.015": 0.0,
			"0.016": 0.0,
			"0.017": 0.0,
			"0.018": 0.0,
			"0.019": 0.0,
			"0.02": 0.0,
			"0.021": 0.0,
			"0.022": 0.0,
			"0.023": 0.0,
			"0.024": 0.0,
			"0.025": 0.0
		}
	}
}
