{
	 "smiles": "COC1=CC=C(NC(=O)C2=CC=C(N)C=C2)C=C1", 
	 "Tm": 461.15, 
	 "num_atms": 32, 
	 "gaussian": { 
		 "optdone": 1, 
		 "sigma_profile": "yes", 
		 "theory": "DFT", 
		 "functional": "B3LYP", 
		 "basiset": "6-31G**", 
		 "properties": { 
			 "R2extent": 5859.6684, 
			 "electric_dipole_moment_norm": 5.11022084943, 
			 "electric_quadrupole_moment_norm": 24.2075515212, 
			 "total_energy": -801.883984248, 
			 "HOMO_LUMO_gap": 0.17969, 
			 "cosmo_polarized_energy": -18.99, 
			 "cosmo_cavitation_energy": 36.26, 
			 "cosmo_dispersion_energy": -25.82, 
			 "cosmo_repulsion_energy": 2.01, 
			 "cosmo_total_nonelectrostatic_energy": 12.46, 
			 "SMD_solvation_energy": 7.41 
		},
		"coords": [
			{
				"x": -0.2857121514,
				"y": -3.9181229569,
				"z": 4.09682675,
				"element": "C" 
			},
			{
				"x": 0.1014173032,
				"y": -3.7089130232,
				"z": 2.7490798829,
				"element": "O" 
			},
			{
				"x": -0.5085101528,
				"y": -2.7044983024,
				"z": 2.052239121,
				"element": "C" 
			},
			{
				"x": -0.0979091207,
				"y": -2.5493772043,
				"z": 0.7194307858,
				"element": "C" 
			},
			{
				"x": -0.6619322947,
				"y": -1.5680787866,
				"z": -0.083631372,
				"element": "C" 
			},
			{
				"x": -1.6304565363,
				"y": -0.6920195899,
				"z": 0.4349787995,
				"element": "C" 
			},
			{
				"x": -2.2561341616,
				"y": 0.3061023235,
				"z": -0.3606005841,
				"element": "N" 
			},
			{
				"x": -1.7547397857,
				"y": 1.0534601813,
				"z": -1.4192487532,
				"element": "C" 
			},
			{
				"x": -2.5321135139,
				"y": 1.4722444352,
				"z": -2.2738607935,
				"element": "O" 
			},
			{
				"x": -0.301929379,
				"y": 1.3890269653,
				"z": -1.4587351995,
				"element": "C" 
			},
			{
				"x": 0.2501382313,
				"y": 1.7209819591,
				"z": -2.7062808695,
				"element": "C" 
			},
			{
				"x": 1.5774039526,
				"y": 2.1046786547,
				"z": -2.8270261788,
				"element": "C" 
			},
			{
				"x": 2.3996425141,
				"y": 2.1976363489,
				"z": -1.6873729416,
				"element": "C" 
			},
			{
				"x": 3.7129340524,
				"y": 2.6358121982,
				"z": -1.7931915364,
				"element": "N" 
			},
			{
				"x": 1.8416047877,
				"y": 1.8946742832,
				"z": -0.430997709,
				"element": "C" 
			},
			{
				"x": 0.5160706986,
				"y": 1.4941814044,
				"z": -0.3224176393,
				"element": "C" 
			},
			{
				"x": -2.0321064499,
				"y": -0.8492436221,
				"z": 1.763993386,
				"element": "C" 
			},
			{
				"x": -1.4896531662,
				"y": -1.8530159822,
				"z": 2.5711155827,
				"element": "C" 
			},
			{
				"x": 0.3116700352,
				"y": -4.7574454107,
				"z": 4.456387109,
				"element": "H" 
			},
			{
				"x": -1.3505322884,
				"y": -4.1730376532,
				"z": 4.1787521702,
				"element": "H" 
			},
			{
				"x": -0.08071855,
				"y": -3.037618875,
				"z": 4.7199767519,
				"element": "H" 
			},
			{
				"x": 0.653693172,
				"y": -3.2269343009,
				"z": 0.3276871081,
				"element": "H" 
			},
			{
				"x": -0.3533410123,
				"y": -1.4752304387,
				"z": -1.1190734051,
				"element": "H" 
			},
			{
				"x": -3.2681339047,
				"y": 0.2711098413,
				"z": -0.4022464615,
				"element": "H" 
			},
			{
				"x": -0.391110216,
				"y": 1.6747549618,
				"z": -3.5802269484,
				"element": "H" 
			},
			{
				"x": 1.9873025496,
				"y": 2.349088874,
				"z": -3.8039968152,
				"element": "H" 
			},
			{
				"x": 4.3305525288,
				"y": 2.3825026015,
				"z": -1.0355519656,
				"element": "H" 
			},
			{
				"x": 4.1431571538,
				"y": 2.5386675368,
				"z": -2.7015693944,
				"element": "H" 
			},
			{
				"x": 2.4551213845,
				"y": 1.9845764046,
				"z": 0.4620365019,
				"element": "H" 
			},
			{
				"x": 0.1129221955,
				"y": 1.2751249932,
				"z": 0.6600070221,
				"element": "H" 
			},
			{
				"x": -2.7786135668,
				"y": -0.175508331,
				"z": 2.1752705064,
				"element": "H" 
			},
			{
				"x": -1.8308843089,
				"y": -1.9491794902,
				"z": 3.5949470896,
				"element": "H" 
			}
		],
		 "valence_orbital": [ 
			{
				"type": "occ",
				"energy": -0.25666,
				"method": "rhf"
			},
			{
				"type": "occ",
				"energy": -0.24859,
				"method": "rhf"
			},
			{
				"type": "occ",
				"energy": -0.23932,
				"method": "rhf"
			},
			{
				"type": "occ",
				"energy": -0.20921,
				"method": "rhf"
			},
			{
				"type": "occ",
				"energy": -0.20109,
				"method": "rhf"
			},
			{
				"type": "unocc",
				"energy": -0.0214,
				"method": "rhf"
			},
			{
				"type": "unocc",
				"energy": -0.0095,
				"method": "rhf"
			},
			{
				"type": "unocc",
				"energy": 0.00616,
				"method": "rhf"
			},
			{
				"type": "unocc",
				"energy": 0.01323,
				"method": "rhf"
			},
			{
				"type": "unocc",
				"energy": 0.06832,
				"method": "rhf"
			}
		],
		"cosmo_sigma_profile": { 
			"-0.025": 0.0,
			"-0.024": 0.0,
			"-0.023": 0.0,
			"-0.022": 0.0,
			"-0.021": 0.0,
			"-0.02": 0.0,
			"-0.019": 0.0,
			"-0.018": 0.0,
			"-0.017": 0.0,
			"-0.016": 0.0,
			"-0.015": 0.0,
			"-0.014": 0.220766142013,
			"-0.013": 2.27979221895,
			"-0.012": 4.1226833807,
			"-0.011": 4.01046597743,
			"-0.01": 3.23030632006,
			"-0.009": 4.55112544883,
			"-0.008": 4.24359278014,
			"-0.007": 4.51780775668,
			"-0.006": 16.068864231,
			"-0.005": 22.0749938164,
			"-0.004": 22.2999951431,
			"-0.003": 22.9819601482,
			"-0.002": 15.8761811308,
			"-0.001": 13.8989325699,
			"0.0": 14.764329063,
			"0.001": 16.7161304008,
			"0.002": 15.4734266606,
			"0.003": 18.3169188755,
			"0.004": 22.5610524355,
			"0.005": 21.8680360152,
			"0.006": 8.39047250306,
			"0.007": 3.94993093328,
			"0.008": 3.46721591007,
			"0.009": 3.65567714002,
			"0.01": 3.75431977972,
			"0.011": 2.48273123688,
			"0.012": 2.42600137083,
			"0.013": 4.50365247633,
			"0.014": 4.91007455774,
			"0.015": 0.661846156242,
			"0.016": 0.0,
			"0.017": 0.0,
			"0.018": 0.0,
			"0.019": 0.0,
			"0.02": 0.0,
			"0.021": 0.0,
			"0.022": 0.0,
			"0.023": 0.0,
			"0.024": 0.0,
			"0.025": 0.0
		}
	}
}
