{
	 "smiles": "O=C1CC2=CC=CC=C2C1", 
	 "Tm": 329.65, 
	 "num_atms": 18, 
	 "gaussian": { 
		 "optdone": 1, 
		 "sigma_profile": "yes", 
		 "theory": "DFT", 
		 "functional": "B3LYP", 
		 "basiset": "6-31G**", 
		 "properties": { 
			 "R2extent": 1650.8554, 
			 "electric_dipole_moment_norm": 2.54920429938, 
			 "electric_quadrupole_moment_norm": 7.17991107744, 
			 "total_energy": -423.004754158, 
			 "HOMO_LUMO_gap": 0.21396, 
			 "cosmo_polarized_energy": -7.67, 
			 "cosmo_cavitation_energy": 21.46, 
			 "cosmo_dispersion_energy": -16.16, 
			 "cosmo_repulsion_energy": 1.32, 
			 "cosmo_total_nonelectrostatic_energy": 6.62, 
			 "SMD_solvation_energy": 3.92 
		},
		"coords": [
			{
				"x": 0.1998530029,
				"y": 2.0604039315,
				"z": 2.1472625645,
				"element": "O" 
			},
			{
				"x": 0.0515515805,
				"y": 1.0209254522,
				"z": 1.5469438195,
				"element": "C" 
			},
			{
				"x": 0.284401576,
				"y": -0.3856523032,
				"z": 2.1251730143,
				"element": "C" 
			},
			{
				"x": -0.0368987097,
				"y": -1.312042294,
				"z": 0.979160634,
				"element": "C" 
			},
			{
				"x": 0.0079769156,
				"y": -2.7058007069,
				"z": 0.9549979172,
				"element": "C" 
			},
			{
				"x": -0.3316607549,
				"y": -3.380930447,
				"z": -0.2199007264,
				"element": "C" 
			},
			{
				"x": -0.7129241761,
				"y": -2.6675996874,
				"z": -1.3608422206,
				"element": "C" 
			},
			{
				"x": -0.758571289,
				"y": -1.2715387145,
				"z": -1.3390595219,
				"element": "C" 
			},
			{
				"x": -0.4199269143,
				"y": -0.5953198716,
				"z": -0.1672274778,
				"element": "C" 
			},
			{
				"x": -0.3984128178,
				"y": 0.8921271485,
				"z": 0.0813482998,
				"element": "C" 
			},
			{
				"x": -0.3571954771,
				"y": -0.5295775456,
				"z": 3.0041483115,
				"element": "H" 
			},
			{
				"x": 1.3189502352,
				"y": -0.4664161313,
				"z": 2.4831552011,
				"element": "H" 
			},
			{
				"x": 0.3038241946,
				"y": -3.2636193446,
				"z": 1.8397480159,
				"element": "H" 
			},
			{
				"x": -0.2993377075,
				"y": -4.4663884452,
				"z": -0.2471862025,
				"element": "H" 
			},
			{
				"x": -0.9751341462,
				"y": -3.2020214346,
				"z": -2.2694935439,
				"element": "H" 
			},
			{
				"x": -1.0553516315,
				"y": -0.7205636231,
				"z": -2.2277750858,
				"element": "H" 
			},
			{
				"x": -1.3755719628,
				"y": 1.376232717,
				"z": -0.0441790526,
				"element": "H" 
			},
			{
				"x": 0.3008280822,
				"y": 1.4388812997,
				"z": -0.5644739462,
				"element": "H" 
			}
		],
		 "valence_orbital": [ 
			{
				"type": "occ",
				"energy": -0.34144,
				"method": "rhf"
			},
			{
				"type": "occ",
				"energy": -0.33999,
				"method": "rhf"
			},
			{
				"type": "occ",
				"energy": -0.25248,
				"method": "rhf"
			},
			{
				"type": "occ",
				"energy": -0.24496,
				"method": "rhf"
			},
			{
				"type": "occ",
				"energy": -0.24372,
				"method": "rhf"
			},
			{
				"type": "unocc",
				"energy": -0.02976,
				"method": "rhf"
			},
			{
				"type": "unocc",
				"energy": -0.00303,
				"method": "rhf"
			},
			{
				"type": "unocc",
				"energy": 0.00166,
				"method": "rhf"
			},
			{
				"type": "unocc",
				"energy": 0.09353,
				"method": "rhf"
			},
			{
				"type": "unocc",
				"energy": 0.10991,
				"method": "rhf"
			}
		],
		"cosmo_sigma_profile": { 
			"-0.025": 0.0,
			"-0.024": 0.0,
			"-0.023": 0.0,
			"-0.022": 0.0,
			"-0.021": 0.0,
			"-0.02": 0.0,
			"-0.019": 0.0,
			"-0.018": 0.0,
			"-0.017": 0.0,
			"-0.016": 0.0,
			"-0.015": 0.0,
			"-0.014": 0.0,
			"-0.013": 0.0,
			"-0.012": 0.0,
			"-0.011": 0.0,
			"-0.01": 0.0,
			"-0.009": 0.0,
			"-0.008": 0.0,
			"-0.007": 2.12781206616,
			"-0.006": 13.886004842,
			"-0.005": 19.1539731975,
			"-0.004": 18.0552742483,
			"-0.003": 21.0996416124,
			"-0.002": 12.3172129035,
			"-0.001": 9.44088955697,
			"0.0": 7.84478134498,
			"0.001": 7.29595260982,
			"0.002": 8.07364381238,
			"0.003": 7.9636931489,
			"0.004": 7.81697372777,
			"0.005": 9.17235447767,
			"0.006": 8.85860280729,
			"0.007": 2.26120193694,
			"0.008": 1.41388556214,
			"0.009": 1.88403036944,
			"0.01": 2.53161432264,
			"0.011": 4.09041281538,
			"0.012": 4.34921315179,
			"0.013": 1.49883505706,
			"0.014": 0.0,
			"0.015": 0.0,
			"0.016": 0.0,
			"0.017": 0.0,
			"0.018": 0.0,
			"0.019": 0.0,
			"0.02": 0.0,
			"0.021": 0.0,
			"0.022": 0.0,
			"0.023": 0.0,
			"0.024": 0.0,
			"0.025": 0.0
		}
	}
}
