{
	 "smiles": "ClCC(=O)NCC(C1=CNC2=C1C=CC=C2)C1=C(Cl)C=C(Cl)C=C1", 
	 "Tm": 347.15, 
	 "num_atms": 39, 
	 "gaussian": { 
		 "optdone": 1, 
		 "sigma_profile": "yes", 
		 "theory": "DFT", 
		 "functional": "B3LYP", 
		 "basiset": "6-31G**", 
		 "properties": { 
			 "R2extent": 13585.1081, 
			 "electric_dipole_moment_norm": 4.05699585161, 
			 "electric_quadrupole_moment_norm": 35.1220843791, 
			 "total_energy": -2260.27717497, 
			 "HOMO_LUMO_gap": 0.17775, 
			 "cosmo_polarized_energy": -20.27, 
			 "cosmo_cavitation_energy": 48.17, 
			 "cosmo_dispersion_energy": -32.43, 
			 "cosmo_repulsion_energy": 2.52, 
			 "cosmo_total_nonelectrostatic_energy": 18.26, 
			 "SMD_solvation_energy": 7.14 
		},
		"coords": [
			{
				"x": 0.1568768375,
				"y": -4.5482371872,
				"z": 4.8502190375,
				"element": "Cl" 
			},
			{
				"x": 1.6490135074,
				"y": -3.7290421361,
				"z": 4.2100892613,
				"element": "C" 
			},
			{
				"x": 1.5465100483,
				"y": -2.2021479832,
				"z": 4.2427480138,
				"element": "C" 
			},
			{
				"x": 2.2667229457,
				"y": -1.565335959,
				"z": 4.9996589828,
				"element": "O" 
			},
			{
				"x": 0.6731477774,
				"y": -1.5941093984,
				"z": 3.3875624761,
				"element": "N" 
			},
			{
				"x": -0.2833565126,
				"y": -2.1881709581,
				"z": 2.4674381199,
				"element": "C" 
			},
			{
				"x": -0.2865053921,
				"y": -1.4433541378,
				"z": 1.1057964755,
				"element": "C" 
			},
			{
				"x": -0.7460692701,
				"y": -0.0054607489,
				"z": 1.248182588,
				"element": "C" 
			},
			{
				"x": -2.0386223878,
				"y": 0.4563415588,
				"z": 1.1635793956,
				"element": "C" 
			},
			{
				"x": -2.0693920022,
				"y": 1.8161418549,
				"z": 1.3941501492,
				"element": "N" 
			},
			{
				"x": -0.7873118782,
				"y": 2.2711353832,
				"z": 1.6241839128,
				"element": "C" 
			},
			{
				"x": 0.0792826048,
				"y": 1.1455653566,
				"z": 1.5410661718,
				"element": "C" 
			},
			{
				"x": 1.461146536,
				"y": 1.3426795586,
				"z": 1.72940965,
				"element": "C" 
			},
			{
				"x": 1.9305943183,
				"y": 2.6227770062,
				"z": 1.9937568957,
				"element": "C" 
			},
			{
				"x": 1.0500917425,
				"y": 3.7212180022,
				"z": 2.0745628976,
				"element": "C" 
			},
			{
				"x": -0.3179816388,
				"y": 3.5617944878,
				"z": 1.8903019561,
				"element": "C" 
			},
			{
				"x": -1.0896780952,
				"y": -2.1891821932,
				"z": 0.0459620021,
				"element": "C" 
			},
			{
				"x": -0.776445246,
				"y": -2.0881522869,
				"z": -1.3217972106,
				"element": "C" 
			},
			{
				"x": 0.5759100853,
				"y": -1.1013264306,
				"z": -1.860556295,
				"element": "Cl" 
			},
			{
				"x": -1.5056674126,
				"y": -2.7501013224,
				"z": -2.3085611173,
				"element": "C" 
			},
			{
				"x": -2.5895557209,
				"y": -3.5384549485,
				"z": -1.9290636026,
				"element": "C" 
			},
			{
				"x": -3.5155220051,
				"y": -4.3741544014,
				"z": -3.1629793379,
				"element": "Cl" 
			},
			{
				"x": -2.9411776232,
				"y": -3.6694266274,
				"z": -0.5891028083,
				"element": "C" 
			},
			{
				"x": -2.1891606305,
				"y": -2.9971712515,
				"z": 0.3741397085,
				"element": "C" 
			},
			{
				"x": 1.8199100162,
				"y": -4.1207786133,
				"z": 3.2053184595,
				"element": "H" 
			},
			{
				"x": 2.469994555,
				"y": -4.0071502538,
				"z": 4.8663077476,
				"element": "H" 
			},
			{
				"x": 0.6332899773,
				"y": -0.5882475223,
				"z": 3.5082921236,
				"element": "H" 
			},
			{
				"x": -1.2871989804,
				"y": -2.1675625401,
				"z": 2.9100316809,
				"element": "H" 
			},
			{
				"x": -0.022997164,
				"y": -3.235829977,
				"z": 2.3069306107,
				"element": "H" 
			},
			{
				"x": 0.7555192104,
				"y": -1.4231459415,
				"z": 0.7692066157,
				"element": "H" 
			},
			{
				"x": -2.9478000434,
				"y": -0.0822776607,
				"z": 0.9380598209,
				"element": "H" 
			},
			{
				"x": -2.8946770828,
				"y": 2.3916467957,
				"z": 1.3548834577,
				"element": "H" 
			},
			{
				"x": 2.1532758187,
				"y": 0.5077622866,
				"z": 1.6710176807,
				"element": "H" 
			},
			{
				"x": 2.9941380727,
				"y": 2.7826350887,
				"z": 2.142323049,
				"element": "H" 
			},
			{
				"x": 1.4481108528,
				"y": 4.7094748876,
				"z": 2.2843746854,
				"element": "H" 
			},
			{
				"x": -0.9966741793,
				"y": 4.40792287,
				"z": 1.9507431309,
				"element": "H" 
			},
			{
				"x": -1.2300251321,
				"y": -2.6508821163,
				"z": -3.3511116607,
				"element": "H" 
			},
			{
				"x": -3.7839184211,
				"y": -4.2873900847,
				"z": -0.3011581634,
				"element": "H" 
			},
			{
				"x": -2.4727980877,
				"y": -3.1149024564,
				"z": 1.4142334391,
				"element": "H" 
			}
		],
		 "valence_orbital": [ 
			{
				"type": "occ",
				"energy": -0.25968,
				"method": "rhf"
			},
			{
				"type": "occ",
				"energy": -0.25465,
				"method": "rhf"
			},
			{
				"type": "occ",
				"energy": -0.2513,
				"method": "rhf"
			},
			{
				"type": "occ",
				"energy": -0.22935,
				"method": "rhf"
			},
			{
				"type": "occ",
				"energy": -0.21038,
				"method": "rhf"
			},
			{
				"type": "unocc",
				"energy": -0.03263,
				"method": "rhf"
			},
			{
				"type": "unocc",
				"energy": -0.03049,
				"method": "rhf"
			},
			{
				"type": "unocc",
				"energy": -0.01951,
				"method": "rhf"
			},
			{
				"type": "unocc",
				"energy": -0.01635,
				"method": "rhf"
			},
			{
				"type": "unocc",
				"energy": 0.00189,
				"method": "rhf"
			}
		],
		"cosmo_sigma_profile": { 
			"-0.025": 0.0,
			"-0.024": 0.0,
			"-0.023": 0.0,
			"-0.022": 0.0,
			"-0.021": 0.0,
			"-0.02": 0.0,
			"-0.019": 0.0,
			"-0.018": 0.0,
			"-0.017": 0.0,
			"-0.016": 0.52200113451,
			"-0.015": 1.63487662277,
			"-0.014": 1.44850894527,
			"-0.013": 1.50070003179,
			"-0.012": 1.05930463003,
			"-0.011": 0.875830274745,
			"-0.01": 2.53959505267,
			"-0.009": 5.41514915969,
			"-0.008": 10.44451633,
			"-0.007": 12.4346934184,
			"-0.006": 16.3348968962,
			"-0.005": 22.6082145112,
			"-0.004": 22.5690637766,
			"-0.003": 25.0052899209,
			"-0.002": 22.0739274614,
			"-0.001": 22.9319441219,
			"0.0": 25.9114015658,
			"0.001": 34.2369973192,
			"0.002": 35.8219746566,
			"0.003": 28.6035929939,
			"0.004": 36.3773276216,
			"0.005": 24.3429812647,
			"0.006": 14.4628180434,
			"0.007": 6.06787512002,
			"0.008": 0.917167645907,
			"0.009": 1.27065738407,
			"0.01": 1.20409070462,
			"0.011": 1.916070215,
			"0.012": 2.30491013682,
			"0.013": 5.69305576114,
			"0.014": 2.74708145502,
			"0.015": 8.05020969189e-05,
			"0.016": 0.0,
			"0.017": 0.0,
			"0.018": 0.0,
			"0.019": 0.0,
			"0.02": 0.0,
			"0.021": 0.0,
			"0.022": 0.0,
			"0.023": 0.0,
			"0.024": 0.0,
			"0.025": 0.0
		}
	}
}
