{
	 "smiles": "OC(=O)CC1=CC(OC(F)(F)F)=CC=C1", 
	 "Tm": 327.15, 
	 "num_atms": 22, 
	 "gaussian": { 
		 "optdone": 1, 
		 "sigma_profile": "yes", 
		 "theory": "DFT", 
		 "functional": "B3LYP", 
		 "basiset": "6-31G**", 
		 "properties": { 
			 "R2extent": 4528.0175, 
			 "electric_dipole_moment_norm": 1.25554484587, 
			 "electric_quadrupole_moment_norm": 12.3903768232, 
			 "total_energy": -872.387346806, 
			 "HOMO_LUMO_gap": 0.22513, 
			 "cosmo_polarized_energy": -9.65, 
			 "cosmo_cavitation_energy": 28.75, 
			 "cosmo_dispersion_energy": -20.36, 
			 "cosmo_repulsion_energy": 1.55, 
			 "cosmo_total_nonelectrostatic_energy": 9.95, 
			 "SMD_solvation_energy": 7.57 
		},
		"coords": [
			{
				"x": 0.6539025227,
				"y": 1.0112467801,
				"z": 5.0318363053,
				"element": "O" 
			},
			{
				"x": 0.7141165493,
				"y": 2.0077523868,
				"z": 4.1200530153,
				"element": "C" 
			},
			{
				"x": 0.1199055531,
				"y": 3.0554822411,
				"z": 4.2500717984,
				"element": "O" 
			},
			{
				"x": 1.5806595261,
				"y": 1.6386768853,
				"z": 2.9280984623,
				"element": "C" 
			},
			{
				"x": 0.7333517498,
				"y": 1.228393017,
				"z": 1.7328049659,
				"element": "C" 
			},
			{
				"x": 0.8758013692,
				"y": -0.0435292666,
				"z": 1.1760234642,
				"element": "C" 
			},
			{
				"x": 0.1064108669,
				"y": -0.4114380018,
				"z": 0.0727949467,
				"element": "C" 
			},
			{
				"x": 0.3237637573,
				"y": -1.7220080509,
				"z": -0.3666554398,
				"element": "O" 
			},
			{
				"x": 0.0066462178,
				"y": -2.0935677381,
				"z": -1.6300101056,
				"element": "C" 
			},
			{
				"x": 0.5338262495,
				"y": -1.2748099507,
				"z": -2.5579328956,
				"element": "F" 
			},
			{
				"x": -1.3275049516,
				"y": -2.1292680788,
				"z": -1.8418312176,
				"element": "F" 
			},
			{
				"x": 0.4870614473,
				"y": -3.3221116914,
				"z": -1.8173503615,
				"element": "F" 
			},
			{
				"x": -0.8162146226,
				"y": 0.4648376132,
				"z": -0.4936837216,
				"element": "C" 
			},
			{
				"x": -0.9485649383,
				"y": 1.7371721694,
				"z": 0.0691036785,
				"element": "C" 
			},
			{
				"x": -0.188141541,
				"y": 2.1228049277,
				"z": 1.1699192313,
				"element": "C" 
			},
			{
				"x": 0.0589167735,
				"y": 1.3216295355,
				"z": 5.7358985413,
				"element": "H" 
			},
			{
				"x": 2.169144202,
				"y": 2.527694344,
				"z": 2.6792120163,
				"element": "H" 
			},
			{
				"x": 2.264381075,
				"y": 0.8339508906,
				"z": 3.2044765969,
				"element": "H" 
			},
			{
				"x": 1.5802501265,
				"y": -0.761420491,
				"z": 1.583328612,
				"element": "H" 
			},
			{
				"x": -1.4226316015,
				"y": 0.1723363954,
				"z": -1.3405128418,
				"element": "H" 
			},
			{
				"x": -1.6632747342,
				"y": 2.4315359969,
				"z": -0.3622741375,
				"element": "H" 
			},
			{
				"x": -0.3123055969,
				"y": 3.1079400864,
				"z": 1.6075290869,
				"element": "H" 
			}
		],
		 "valence_orbital": [ 
			{
				"type": "occ",
				"energy": -0.34774,
				"method": "rhf"
			},
			{
				"type": "occ",
				"energy": -0.3261,
				"method": "rhf"
			},
			{
				"type": "occ",
				"energy": -0.28596,
				"method": "rhf"
			},
			{
				"type": "occ",
				"energy": -0.26138,
				"method": "rhf"
			},
			{
				"type": "occ",
				"energy": -0.24873,
				"method": "rhf"
			},
			{
				"type": "unocc",
				"energy": -0.0236,
				"method": "rhf"
			},
			{
				"type": "unocc",
				"energy": -0.01226,
				"method": "rhf"
			},
			{
				"type": "unocc",
				"energy": 0.00773,
				"method": "rhf"
			},
			{
				"type": "unocc",
				"energy": 0.07242,
				"method": "rhf"
			},
			{
				"type": "unocc",
				"energy": 0.08419,
				"method": "rhf"
			}
		],
		"cosmo_sigma_profile": { 
			"-0.025": 0.0,
			"-0.024": 0.0,
			"-0.023": 0.0,
			"-0.022": 0.0,
			"-0.021": 0.0,
			"-0.02": 0.0,
			"-0.019": 0.0251789624142,
			"-0.018": 0.788199125292,
			"-0.017": 1.07491651279,
			"-0.016": 0.641612169053,
			"-0.015": 0.899306891643,
			"-0.014": 0.655622373025,
			"-0.013": 0.868284044888,
			"-0.012": 0.496691794434,
			"-0.011": 1.03040628442,
			"-0.01": 0.925437567854,
			"-0.009": 0.381129076992,
			"-0.008": 1.41929730239,
			"-0.007": 7.99885983712,
			"-0.006": 10.5100344594,
			"-0.005": 11.6301574909,
			"-0.004": 12.5080482242,
			"-0.003": 11.0544647038,
			"-0.002": 12.5700683697,
			"-0.001": 14.1403045351,
			"0.0": 18.0452597161,
			"0.001": 29.8598662038,
			"0.002": 39.6786915005,
			"0.003": 16.6892747539,
			"0.004": 10.5387929888,
			"0.005": 4.30943468602,
			"0.006": 3.33361165435,
			"0.007": 3.00396118221,
			"0.008": 2.54015148506,
			"0.009": 2.84772714128,
			"0.01": 2.46802933989,
			"0.011": 3.6524324395,
			"0.012": 3.28759982015,
			"0.013": 0.0178101700603,
			"0.014": 0.0,
			"0.015": 0.0,
			"0.016": 0.0,
			"0.017": 0.0,
			"0.018": 0.0,
			"0.019": 0.0,
			"0.02": 0.0,
			"0.021": 0.0,
			"0.022": 0.0,
			"0.023": 0.0,
			"0.024": 0.0,
			"0.025": 0.0
		}
	}
}
