{
	 "smiles": "CC1=C(Br)C=CC(NS(C)(=O)=O)=C1", 
	 "Tm": 376.15, 
	 "num_atms": 23, 
	 "gaussian": { 
		 "optdone": 1, 
		 "sigma_profile": "yes", 
		 "theory": "DFT", 
		 "functional": "B3LYP", 
		 "basiset": "6-31G**", 
		 "properties": { 
			 "R2extent": 5498.739, 
			 "electric_dipole_moment_norm": 3.63058445157, 
			 "electric_quadrupole_moment_norm": 24.3929757281, 
			 "total_energy": -3485.61143737, 
			 "HOMO_LUMO_gap": 0.20893, 
			 "cosmo_polarized_energy": -16.08, 
			 "cosmo_cavitation_energy": 30.19, 
			 "cosmo_dispersion_energy": -22.58, 
			 "cosmo_repulsion_energy": 1.74, 
			 "cosmo_total_nonelectrostatic_energy": 9.36, 
			 "SMD_solvation_energy": 3.75 
		},
		"coords": [
			{
				"x": -1.6611390018,
				"y": 0.3150858376,
				"z": -2.8096113483,
				"element": "C" 
			},
			{
				"x": -1.089341189,
				"y": 0.4409859825,
				"z": -1.4212318508,
				"element": "C" 
			},
			{
				"x": 0.1558512536,
				"y": 1.0382117088,
				"z": -1.1729204313,
				"element": "C" 
			},
			{
				"x": 1.2060681914,
				"y": 1.720321012,
				"z": -2.6223679915,
				"element": "Br" 
			},
			{
				"x": 0.664273949,
				"y": 1.1589731419,
				"z": 0.1180289503,
				"element": "C" 
			},
			{
				"x": -0.05982592,
				"y": 0.6623816643,
				"z": 1.1979229449,
				"element": "C" 
			},
			{
				"x": -1.3090943124,
				"y": 0.0667213759,
				"z": 0.9841371029,
				"element": "C" 
			},
			{
				"x": -2.0573774203,
				"y": -0.389432806,
				"z": 2.0998640432,
				"element": "N" 
			},
			{
				"x": -2.8717778667,
				"y": -1.8721014428,
				"z": 2.174470678,
				"element": "S" 
			},
			{
				"x": -1.6133407444,
				"y": -3.1209279214,
				"z": 1.8317514539,
				"element": "C" 
			},
			{
				"x": -3.2783934228,
				"y": -1.9863003033,
				"z": 3.573911846,
				"element": "O" 
			},
			{
				"x": -3.838956722,
				"y": -1.9230552183,
				"z": 1.079924593,
				"element": "O" 
			},
			{
				"x": -1.8145790006,
				"y": -0.0289737869,
				"z": -0.3191293848,
				"element": "C" 
			},
			{
				"x": -2.6388925774,
				"y": -0.1709941827,
				"z": -2.7839225544,
				"element": "H" 
			},
			{
				"x": -1.7744530189,
				"y": 1.2972687206,
				"z": -3.2804144474,
				"element": "H" 
			},
			{
				"x": -0.9996159716,
				"y": -0.2698091036,
				"z": -3.4575670252,
				"element": "H" 
			},
			{
				"x": 1.6282748261,
				"y": 1.6282511262,
				"z": 0.2775720237,
				"element": "H" 
			},
			{
				"x": 0.345462374,
				"y": 0.7428690871,
				"z": 2.2030749637,
				"element": "H" 
			},
			{
				"x": -1.6876351934,
				"y": -0.1497573989,
				"z": 3.0132346759,
				"element": "H" 
			},
			{
				"x": -2.1244651355,
				"y": -4.0847080135,
				"z": 1.8046699711,
				"element": "H" 
			},
			{
				"x": -0.8702405851,
				"y": -3.1048621966,
				"z": 2.6298508142,
				"element": "H" 
			},
			{
				"x": -1.1582296649,
				"y": -2.9071206256,
				"z": 0.8636170463,
				"element": "H" 
			},
			{
				"x": -2.7938728473,
				"y": -0.4667266573,
				"z": -0.4740660735,
				"element": "H" 
			}
		],
		 "valence_orbital": [ 
			{
				"type": "occ",
				"energy": -0.31141,
				"method": "rhf"
			},
			{
				"type": "occ",
				"energy": -0.29586,
				"method": "rhf"
			},
			{
				"type": "occ",
				"energy": -0.29071,
				"method": "rhf"
			},
			{
				"type": "occ",
				"energy": -0.26545,
				"method": "rhf"
			},
			{
				"type": "occ",
				"energy": -0.23194,
				"method": "rhf"
			},
			{
				"type": "unocc",
				"energy": -0.02301,
				"method": "rhf"
			},
			{
				"type": "unocc",
				"energy": -0.0216,
				"method": "rhf"
			},
			{
				"type": "unocc",
				"energy": 0.00386,
				"method": "rhf"
			},
			{
				"type": "unocc",
				"energy": 0.05368,
				"method": "rhf"
			},
			{
				"type": "unocc",
				"energy": 0.06569,
				"method": "rhf"
			}
		],
		"cosmo_sigma_profile": { 
			"-0.025": 0.0,
			"-0.024": 0.0,
			"-0.023": 0.0,
			"-0.022": 0.0,
			"-0.021": 0.0,
			"-0.02": 0.0,
			"-0.019": 0.0,
			"-0.018": 0.0,
			"-0.017": 0.0,
			"-0.016": 0.38451974308,
			"-0.015": 1.46243987868,
			"-0.014": 1.12160407311,
			"-0.013": 1.21505755073,
			"-0.012": 1.16007172191,
			"-0.011": 1.89440839939,
			"-0.01": 2.22563196501,
			"-0.009": 3.69646841516,
			"-0.008": 6.95295892533,
			"-0.007": 8.57751233808,
			"-0.006": 10.1512267052,
			"-0.005": 14.2825683938,
			"-0.004": 15.948745358,
			"-0.003": 15.5848598152,
			"-0.002": 14.3540447654,
			"-0.001": 14.5329603423,
			"0.0": 16.132642587,
			"0.001": 14.6901267173,
			"0.002": 16.4554349779,
			"0.003": 22.2518738492,
			"0.004": 17.1262169943,
			"0.005": 9.39806094661,
			"0.006": 3.26410031627,
			"0.007": 3.87869405121,
			"0.008": 3.27665501242,
			"0.009": 3.5926306074,
			"0.01": 7.6070186104,
			"0.011": 10.0711976172,
			"0.012": 2.10125076634,
			"0.013": 0.0,
			"0.014": 0.0,
			"0.015": 0.0,
			"0.016": 0.0,
			"0.017": 0.0,
			"0.018": 0.0,
			"0.019": 0.0,
			"0.02": 0.0,
			"0.021": 0.0,
			"0.022": 0.0,
			"0.023": 0.0,
			"0.024": 0.0,
			"0.025": 0.0
		}
	}
}
