{
	 "smiles": "OC(=O)C1=C(F)C(F)=C(F)C=C1", 
	 "Tm": 414.15, 
	 "num_atms": 15, 
	 "gaussian": { 
		 "optdone": 1, 
		 "sigma_profile": "yes", 
		 "theory": "DFT", 
		 "functional": "B3LYP", 
		 "basiset": "6-31G**", 
		 "properties": { 
			 "R2extent": 2071.7044, 
			 "electric_dipole_moment_norm": 0.753958049231, 
			 "electric_quadrupole_moment_norm": 11.1990100589, 
			 "total_energy": -718.500512124, 
			 "HOMO_LUMO_gap": 0.20565, 
			 "cosmo_polarized_energy": -8.46, 
			 "cosmo_cavitation_energy": 21.9, 
			 "cosmo_dispersion_energy": -15.88, 
			 "cosmo_repulsion_energy": 1.2, 
			 "cosmo_total_nonelectrostatic_energy": 7.22, 
			 "SMD_solvation_energy": 6.58 
		},
		"coords": [
			{
				"x": 0.8181321323,
				"y": 0.8909700806,
				"z": 2.4914060375,
				"element": "O" 
			},
			{
				"x": 0.6377592981,
				"y": 1.4917786261,
				"z": 1.2971195922,
				"element": "C" 
			},
			{
				"x": 0.69058455,
				"y": 2.6984240957,
				"z": 1.1599016531,
				"element": "O" 
			},
			{
				"x": 0.3705519017,
				"y": 0.5515568583,
				"z": 0.173030804,
				"element": "C" 
			},
			{
				"x": 0.3021851921,
				"y": -0.8441372864,
				"z": 0.2909724149,
				"element": "C" 
			},
			{
				"x": 0.4747906492,
				"y": -1.4769882731,
				"z": 1.4534738275,
				"element": "F" 
			},
			{
				"x": 0.0460046753,
				"y": -1.6397079413,
				"z": -0.8255417917,
				"element": "C" 
			},
			{
				"x": -0.016010765,
				"y": -2.9700220238,
				"z": -0.6970544863,
				"element": "F" 
			},
			{
				"x": -0.1439804469,
				"y": -1.0436387506,
				"z": -2.0693731852,
				"element": "C" 
			},
			{
				"x": -0.3881566714,
				"y": -1.832312594,
				"z": -3.1224638958,
				"element": "F" 
			},
			{
				"x": -0.0819013131,
				"y": 0.3387504399,
				"z": -2.2160420631,
				"element": "C" 
			},
			{
				"x": 0.1740069406,
				"y": 1.1201021282,
				"z": -1.0968346712,
				"element": "C" 
			},
			{
				"x": 0.9808558695,
				"y": 1.6112789865,
				"z": 3.1236382042,
				"element": "H" 
			},
			{
				"x": -0.2340409774,
				"y": 0.7735594371,
				"z": -3.1971180358,
				"element": "H" 
			},
			{
				"x": 0.229818965,
				"y": 2.1997862168,
				"z": -1.1721144042,
				"element": "H" 
			}
		],
		 "valence_orbital": [ 
			{
				"type": "occ",
				"energy": -0.37029,
				"method": "rhf"
			},
			{
				"type": "occ",
				"energy": -0.32814,
				"method": "rhf"
			},
			{
				"type": "occ",
				"energy": -0.29124,
				"method": "rhf"
			},
			{
				"type": "occ",
				"energy": -0.27297,
				"method": "rhf"
			},
			{
				"type": "occ",
				"energy": -0.26681,
				"method": "rhf"
			},
			{
				"type": "unocc",
				"energy": -0.06116,
				"method": "rhf"
			},
			{
				"type": "unocc",
				"energy": -0.02488,
				"method": "rhf"
			},
			{
				"type": "unocc",
				"energy": 0.04134,
				"method": "rhf"
			},
			{
				"type": "unocc",
				"energy": 0.04498,
				"method": "rhf"
			},
			{
				"type": "unocc",
				"energy": 0.07341,
				"method": "rhf"
			}
		],
		"cosmo_sigma_profile": { 
			"-0.025": 0.0,
			"-0.024": 0.0,
			"-0.023": 0.0,
			"-0.022": 0.0,
			"-0.021": 0.0,
			"-0.02": 0.0,
			"-0.019": 0.247810560962,
			"-0.018": 1.09127463976,
			"-0.017": 0.778971070305,
			"-0.016": 0.775402950516,
			"-0.015": 0.958201225784,
			"-0.014": 0.668793154763,
			"-0.013": 0.378184453958,
			"-0.012": 0.904117832862,
			"-0.011": 1.12499952048,
			"-0.01": 0.323539590267,
			"-0.009": 1.47247231515,
			"-0.008": 2.92750985983,
			"-0.007": 3.95867022451,
			"-0.006": 4.97933693344,
			"-0.005": 3.160947033,
			"-0.004": 6.41843342502,
			"-0.003": 18.5136619381,
			"-0.002": 16.1331609645,
			"-0.001": 14.5222168754,
			"0.0": 12.7634937383,
			"0.001": 12.1580465142,
			"0.002": 17.9415502059,
			"0.003": 26.8986680289,
			"0.004": 4.8058053937,
			"0.005": 2.85420601631,
			"0.006": 2.44752014416,
			"0.007": 3.57932953237,
			"0.008": 3.6793078669,
			"0.009": 1.95665876494,
			"0.01": 2.39529438336,
			"0.011": 4.81545225012,
			"0.012": 1.48945013604,
			"0.013": 0.0,
			"0.014": 0.0,
			"0.015": 0.0,
			"0.016": 0.0,
			"0.017": 0.0,
			"0.018": 0.0,
			"0.019": 0.0,
			"0.02": 0.0,
			"0.021": 0.0,
			"0.022": 0.0,
			"0.023": 0.0,
			"0.024": 0.0,
			"0.025": 0.0
		}
	}
}
