{
	 "smiles": "CNC1=C2C=CC=CC2=NC(S)=N1", 
	 "Tm": 494.15, 
	 "num_atms": 22, 
	 "gaussian": { 
		 "optdone": 1, 
		 "sigma_profile": "yes", 
		 "theory": "DFT", 
		 "functional": "B3LYP", 
		 "basiset": "6-31G**", 
		 "properties": { 
			 "R2extent": 3120.4557, 
			 "electric_dipole_moment_norm": 4.47944982671, 
			 "electric_quadrupole_moment_norm": 12.4139269335, 
			 "total_energy": -910.837003789, 
			 "HOMO_LUMO_gap": 0.16522, 
			 "cosmo_polarized_energy": -12.31, 
			 "cosmo_cavitation_energy": 27.25, 
			 "cosmo_dispersion_energy": -21.14, 
			 "cosmo_repulsion_energy": 1.62, 
			 "cosmo_total_nonelectrostatic_energy": 7.73, 
			 "SMD_solvation_energy": 0.75 
		},
		"coords": [
			{
				"x": -1.2853849366,
				"y": 1.3389340427,
				"z": 2.6920175111,
				"element": "C" 
			},
			{
				"x": 0.014445955,
				"y": 1.5549647953,
				"z": 2.0836605082,
				"element": "N" 
			},
			{
				"x": 0.6005599168,
				"y": 0.9322066579,
				"z": 1.0204114352,
				"element": "C" 
			},
			{
				"x": 0.2124766522,
				"y": -0.3495000193,
				"z": 0.4726826902,
				"element": "C" 
			},
			{
				"x": -0.7791945675,
				"y": -1.2231130548,
				"z": 0.9867474433,
				"element": "C" 
			},
			{
				"x": -1.0610718944,
				"y": -2.4220003363,
				"z": 0.3625687519,
				"element": "C" 
			},
			{
				"x": -0.3605352451,
				"y": -2.7979785266,
				"z": -0.8036315695,
				"element": "C" 
			},
			{
				"x": 0.6249318242,
				"y": -1.9831176475,
				"z": -1.3157204026,
				"element": "C" 
			},
			{
				"x": 0.9474569024,
				"y": -0.7533400561,
				"z": -0.6875491079,
				"element": "C" 
			},
			{
				"x": 1.9690754818,
				"y": -0.0135758232,
				"z": -1.2139608825,
				"element": "N" 
			},
			{
				"x": 2.2468688877,
				"y": 1.0976715737,
				"z": -0.5689373003,
				"element": "C" 
			},
			{
				"x": 3.598253345,
				"y": 2.1114474787,
				"z": -1.1443337084,
				"element": "S" 
			},
			{
				"x": 1.6221451737,
				"y": 1.6169471302,
				"z": 0.5033908355,
				"element": "N" 
			},
			{
				"x": -2.0634122644,
				"y": 1.151186527,
				"z": 1.9446034715,
				"element": "H" 
			},
			{
				"x": -1.2815093504,
				"y": 0.5122540881,
				"z": 3.4126080599,
				"element": "H" 
			},
			{
				"x": -1.555944172,
				"y": 2.2461609836,
				"z": 3.2363316976,
				"element": "H" 
			},
			{
				"x": 0.4627711277,
				"y": 2.44257344,
				"z": 2.2661935148,
				"element": "H" 
			},
			{
				"x": -1.3191986767,
				"y": -0.9707083606,
				"z": 1.8883698574,
				"element": "H" 
			},
			{
				"x": -1.8215068124,
				"y": -3.0785596089,
				"z": 0.7740520166,
				"element": "H" 
			},
			{
				"x": -0.5936159552,
				"y": -3.740316028,
				"z": -1.2914209895,
				"element": "H" 
			},
			{
				"x": 1.193186974,
				"y": -2.2544666179,
				"z": -2.1990006797,
				"element": "H" 
			},
			{
				"x": 3.9299016344,
				"y": 1.2907293619,
				"z": -2.1590831529,
				"element": "H" 
			}
		],
		 "valence_orbital": [ 
			{
				"type": "occ",
				"energy": -0.28359,
				"method": "rhf"
			},
			{
				"type": "occ",
				"energy": -0.26257,
				"method": "rhf"
			},
			{
				"type": "occ",
				"energy": -0.24795,
				"method": "rhf"
			},
			{
				"type": "occ",
				"energy": -0.23909,
				"method": "rhf"
			},
			{
				"type": "occ",
				"energy": -0.21116,
				"method": "rhf"
			},
			{
				"type": "unocc",
				"energy": -0.04594,
				"method": "rhf"
			},
			{
				"type": "unocc",
				"energy": -0.0186,
				"method": "rhf"
			},
			{
				"type": "unocc",
				"energy": 0.0238,
				"method": "rhf"
			},
			{
				"type": "unocc",
				"energy": 0.03526,
				"method": "rhf"
			},
			{
				"type": "unocc",
				"energy": 0.07061,
				"method": "rhf"
			}
		],
		"cosmo_sigma_profile": { 
			"-0.025": 0.0,
			"-0.024": 0.0,
			"-0.023": 0.0,
			"-0.022": 0.0,
			"-0.021": 0.0,
			"-0.02": 0.0,
			"-0.019": 0.0,
			"-0.018": 0.0,
			"-0.017": 0.0,
			"-0.016": 0.0,
			"-0.015": 0.0,
			"-0.014": 0.32666384641,
			"-0.013": 0.841552044129,
			"-0.012": 1.18059983609,
			"-0.011": 1.47522197731,
			"-0.01": 2.08693672112,
			"-0.009": 2.60552678624,
			"-0.008": 2.02816340375,
			"-0.007": 5.91795792103,
			"-0.006": 13.9811332602,
			"-0.005": 15.7324020576,
			"-0.004": 16.7395865842,
			"-0.003": 14.8555956542,
			"-0.002": 13.9027014751,
			"-0.001": 12.7428730036,
			"0.0": 12.1409776937,
			"0.001": 11.3455338255,
			"0.002": 14.9637183279,
			"0.003": 20.7577682622,
			"0.004": 19.5168473493,
			"0.005": 9.99915861628,
			"0.006": 6.46134546182,
			"0.007": 6.64097013991,
			"0.008": 4.4796665097,
			"0.009": 2.96066994355,
			"0.01": 2.64637033036,
			"0.011": 1.47984628024,
			"0.012": 1.7605059628,
			"0.013": 0.858730956297,
			"0.014": 0.388081078681,
			"0.015": 0.0,
			"0.016": 0.0,
			"0.017": 0.0,
			"0.018": 0.0,
			"0.019": 0.0,
			"0.02": 0.0,
			"0.021": 0.0,
			"0.022": 0.0,
			"0.023": 0.0,
			"0.024": 0.0,
			"0.025": 0.0
		}
	}
}
