{
	 "smiles": "COC1=CC=C(Br)C=C1C=CC(O)=O", 
	 "Tm": 499.15, 
	 "num_atms": 23, 
	 "gaussian": { 
		 "optdone": 1, 
		 "sigma_profile": "yes", 
		 "theory": "DFT", 
		 "functional": "B3LYP", 
		 "basiset": "6-31G**", 
		 "properties": { 
			 "R2extent": 6890.338, 
			 "electric_dipole_moment_norm": 7.23511409309, 
			 "electric_quadrupole_moment_norm": 21.9683251458, 
			 "total_energy": -3183.54504846, 
			 "HOMO_LUMO_gap": 0.15854, 
			 "cosmo_polarized_energy": -17.8, 
			 "cosmo_cavitation_energy": 30.48, 
			 "cosmo_dispersion_energy": -22.4, 
			 "cosmo_repulsion_energy": 1.77, 
			 "cosmo_total_nonelectrostatic_energy": 9.84, 
			 "SMD_solvation_energy": 6.18 
		},
		"coords": [
			{
				"x": 3.7365062062,
				"y": 1.8568314849,
				"z": 2.5653007675,
				"element": "C" 
			},
			{
				"x": 2.6158526851,
				"y": 1.4497766745,
				"z": 1.7889235725,
				"element": "O" 
			},
			{
				"x": 1.9294102868,
				"y": 0.3342237797,
				"z": 2.1576006857,
				"element": "C" 
			},
			{
				"x": 2.2736423917,
				"y": -0.4390233782,
				"z": 3.2711455078,
				"element": "C" 
			},
			{
				"x": 1.5371789493,
				"y": -1.5752968796,
				"z": 3.6079125271,
				"element": "C" 
			},
			{
				"x": 0.4474059572,
				"y": -1.9413297395,
				"z": 2.8246668692,
				"element": "C" 
			},
			{
				"x": -0.5683908026,
				"y": -3.4941251504,
				"z": 3.2753454558,
				"element": "Br" 
			},
			{
				"x": 0.0943270982,
				"y": -1.182487969,
				"z": 1.715997488,
				"element": "C" 
			},
			{
				"x": 0.8172070345,
				"y": -0.0318321322,
				"z": 1.3508435226,
				"element": "C" 
			},
			{
				"x": 0.3547285675,
				"y": 0.6860928865,
				"z": 0.1675206858,
				"element": "C" 
			},
			{
				"x": 0.8275182443,
				"y": 1.800045804,
				"z": -0.4251289866,
				"element": "C" 
			},
			{
				"x": 0.1401364721,
				"y": 2.3093720445,
				"z": -1.6401531508,
				"element": "C" 
			},
			{
				"x": 0.6757575579,
				"y": 3.4399629854,
				"z": -2.1837884694,
				"element": "O" 
			},
			{
				"x": -0.8297162218,
				"y": 1.7996461911,
				"z": -2.1559350029,
				"element": "O" 
			},
			{
				"x": 4.5205534151,
				"y": 1.0903417798,
				"z": 2.5706428909,
				"element": "H" 
			},
			{
				"x": 4.1189775641,
				"y": 2.7591092052,
				"z": 2.0866639055,
				"element": "H" 
			},
			{
				"x": 3.4466181396,
				"y": 2.0898319663,
				"z": 3.5967571331,
				"element": "H" 
			},
			{
				"x": 3.119085472,
				"y": -0.1664028878,
				"z": 3.8901038166,
				"element": "H" 
			},
			{
				"x": 1.8148251294,
				"y": -2.1656655736,
				"z": 4.473570501,
				"element": "H" 
			},
			{
				"x": -0.7570171581,
				"y": -1.4763668748,
				"z": 1.111942776,
				"element": "H" 
			},
			{
				"x": -0.5175012042,
				"y": 0.2471302555,
				"z": -0.3156274767,
				"element": "H" 
			},
			{
				"x": 1.6905671926,
				"y": 2.3276047282,
				"z": -0.0381228952,
				"element": "H" 
			},
			{
				"x": 1.439927023,
				"y": 3.7263607994,
				"z": -1.6648821235,
				"element": "H" 
			}
		],
		 "valence_orbital": [ 
			{
				"type": "occ",
				"energy": -0.29813,
				"method": "rhf"
			},
			{
				"type": "occ",
				"energy": -0.29252,
				"method": "rhf"
			},
			{
				"type": "occ",
				"energy": -0.26492,
				"method": "rhf"
			},
			{
				"type": "occ",
				"energy": -0.25476,
				"method": "rhf"
			},
			{
				"type": "occ",
				"energy": -0.23017,
				"method": "rhf"
			},
			{
				"type": "unocc",
				"energy": -0.07163,
				"method": "rhf"
			},
			{
				"type": "unocc",
				"energy": -0.0163,
				"method": "rhf"
			},
			{
				"type": "unocc",
				"energy": 0.00114,
				"method": "rhf"
			},
			{
				"type": "unocc",
				"energy": 0.0112,
				"method": "rhf"
			},
			{
				"type": "unocc",
				"energy": 0.06162,
				"method": "rhf"
			}
		],
		"cosmo_sigma_profile": { 
			"-0.025": 0.0,
			"-0.024": 0.0,
			"-0.023": 0.0,
			"-0.022": 0.0,
			"-0.021": 0.0,
			"-0.02": 0.0,
			"-0.019": 0.408847264746,
			"-0.018": 1.30062936251,
			"-0.017": 0.722504903833,
			"-0.016": 1.40691497742,
			"-0.015": 1.03169715109,
			"-0.014": 1.09754692117,
			"-0.013": 0.851739438927,
			"-0.012": 0.808148790213,
			"-0.011": 1.11838519612,
			"-0.01": 1.04741042033,
			"-0.009": 0.902683916736,
			"-0.008": 4.98176503197,
			"-0.007": 9.22628799254,
			"-0.006": 15.8703771886,
			"-0.005": 14.1925698257,
			"-0.004": 14.8147791841,
			"-0.003": 12.6965697151,
			"-0.002": 12.7308991334,
			"-0.001": 11.6703619512,
			"0.0": 13.9692684179,
			"0.001": 22.6683731252,
			"0.002": 29.4293120984,
			"0.003": 20.2882431631,
			"0.004": 14.5421437175,
			"0.005": 10.0955771169,
			"0.006": 2.42002147854,
			"0.007": 2.71612484146,
			"0.008": 2.25128225934,
			"0.009": 2.5721599594,
			"0.01": 4.02925518255,
			"0.011": 5.10988952266,
			"0.012": 5.77459947107,
			"0.013": 3.76083122703,
			"0.014": 0.67163301325,
			"0.015": 0.0,
			"0.016": 0.0,
			"0.017": 0.0,
			"0.018": 0.0,
			"0.019": 0.0,
			"0.02": 0.0,
			"0.021": 0.0,
			"0.022": 0.0,
			"0.023": 0.0,
			"0.024": 0.0,
			"0.025": 0.0
		}
	}
}
