{
	 "smiles": "CC(C)C(Br)C(=O)NCC1=CC=CO1", 
	 "Tm": 365.15, 
	 "num_atms": 28, 
	 "gaussian": { 
		 "optdone": 1, 
		 "sigma_profile": "yes", 
		 "theory": "DFT", 
		 "functional": "B3LYP", 
		 "basiset": "6-31G**", 
		 "properties": { 
			 "R2extent": 4837.8458, 
			 "electric_dipole_moment_norm": 4.76885669527, 
			 "electric_quadrupole_moment_norm": 10.9184693964, 
			 "total_energy": -3166.09486757, 
			 "HOMO_LUMO_gap": 0.20719, 
			 "cosmo_polarized_energy": -15.64, 
			 "cosmo_cavitation_energy": 32.98, 
			 "cosmo_dispersion_energy": -22.84, 
			 "cosmo_repulsion_energy": 1.8, 
			 "cosmo_total_nonelectrostatic_energy": 11.94, 
			 "SMD_solvation_energy": 5.42 
		},
		"coords": [
			{
				"x": -0.6282137795,
				"y": -0.6273545944,
				"z": 2.92970125,
				"element": "C" 
			},
			{
				"x": 0.1072123263,
				"y": -1.2976006778,
				"z": 1.7625951999,
				"element": "C" 
			},
			{
				"x": -0.8540865678,
				"y": -2.1576158964,
				"z": 0.919291565,
				"element": "C" 
			},
			{
				"x": 0.8733815868,
				"y": -0.3314162481,
				"z": 0.8329777761,
				"element": "C" 
			},
			{
				"x": 2.3144152941,
				"y": 0.6234228686,
				"z": 1.8209121118,
				"element": "Br" 
			},
			{
				"x": -0.0124084039,
				"y": 0.7260310144,
				"z": 0.1633084605,
				"element": "C" 
			},
			{
				"x": -0.6116771384,
				"y": 1.5749152299,
				"z": 0.8078637054,
				"element": "O" 
			},
			{
				"x": -0.1731658743,
				"y": 0.6538476241,
				"z": -1.2009095377,
				"element": "N" 
			},
			{
				"x": 0.5220106488,
				"y": -0.1552358407,
				"z": -2.2046859845,
				"element": "C" 
			},
			{
				"x": 1.8215700201,
				"y": 0.4084426989,
				"z": -2.6820771933,
				"element": "C" 
			},
			{
				"x": 2.2212648067,
				"y": 1.0067304976,
				"z": -3.8411594986,
				"element": "C" 
			},
			{
				"x": 3.6023784189,
				"y": 1.3529184424,
				"z": -3.6659639627,
				"element": "C" 
			},
			{
				"x": 3.9379946184,
				"y": 0.9411225153,
				"z": -2.4132139205,
				"element": "C" 
			},
			{
				"x": 2.8669165371,
				"y": 0.3599426272,
				"z": -1.8014957216,
				"element": "O" 
			},
			{
				"x": 0.0573265545,
				"y": -0.0298426081,
				"z": 3.5349397058,
				"element": "H" 
			},
			{
				"x": -1.071494318,
				"y": -1.3967809703,
				"z": 3.5708283997,
				"element": "H" 
			},
			{
				"x": -1.4208194411,
				"y": 0.0342318719,
				"z": 2.5742025738,
				"element": "H" 
			},
			{
				"x": 0.8735173654,
				"y": -1.9631086075,
				"z": 2.180151326,
				"element": "H" 
			},
			{
				"x": -0.3313961671,
				"y": -2.6897944814,
				"z": 0.1160070559,
				"element": "H" 
			},
			{
				"x": -1.3361771614,
				"y": -2.9088079197,
				"z": 1.5525307213,
				"element": "H" 
			},
			{
				"x": -1.6453763389,
				"y": -1.5490081444,
				"z": 0.4684524555,
				"element": "H" 
			},
			{
				"x": 1.4388961266,
				"y": -0.9058211709,
				"z": 0.1031930506,
				"element": "H" 
			},
			{
				"x": -0.7216313757,
				"y": 1.4317471744,
				"z": -1.5477517629,
				"element": "H" 
			},
			{
				"x": 0.6662471639,
				"y": -1.1661764161,
				"z": -1.8131265013,
				"element": "H" 
			},
			{
				"x": -0.1458182419,
				"y": -0.2534821073,
				"z": -3.0652859905,
				"element": "H" 
			},
			{
				"x": 1.6090771002,
				"y": 1.1815697515,
				"z": -4.7147964577,
				"element": "H" 
			},
			{
				"x": 4.2509857096,
				"y": 1.842736949,
				"z": -4.3776780737,
				"element": "H" 
			},
			{
				"x": 4.8451705307,
				"y": 0.9819864182,
				"z": -1.831010752,
				"element": "H" 
			}
		],
		 "valence_orbital": [ 
			{
				"type": "occ",
				"energy": -0.27048,
				"method": "rhf"
			},
			{
				"type": "occ",
				"energy": -0.26558,
				"method": "rhf"
			},
			{
				"type": "occ",
				"energy": -0.26146,
				"method": "rhf"
			},
			{
				"type": "occ",
				"energy": -0.24904,
				"method": "rhf"
			},
			{
				"type": "occ",
				"energy": -0.23196,
				"method": "rhf"
			},
			{
				"type": "unocc",
				"energy": -0.02477,
				"method": "rhf"
			},
			{
				"type": "unocc",
				"energy": 0.00276,
				"method": "rhf"
			},
			{
				"type": "unocc",
				"energy": 0.04913,
				"method": "rhf"
			},
			{
				"type": "unocc",
				"energy": 0.06182,
				"method": "rhf"
			},
			{
				"type": "unocc",
				"energy": 0.07677,
				"method": "rhf"
			}
		],
		"cosmo_sigma_profile": { 
			"-0.025": 0.0,
			"-0.024": 0.0,
			"-0.023": 0.0,
			"-0.022": 0.0,
			"-0.021": 0.0,
			"-0.02": 0.0,
			"-0.019": 0.0,
			"-0.018": 0.0,
			"-0.017": 0.0,
			"-0.016": 0.0,
			"-0.015": 0.0,
			"-0.014": 0.755519284238,
			"-0.013": 1.32749945297,
			"-0.012": 1.28558822146,
			"-0.011": 1.02078337331,
			"-0.01": 0.75893875856,
			"-0.009": 3.2455091402,
			"-0.008": 6.19811270318,
			"-0.007": 11.0924444939,
			"-0.006": 10.9218858037,
			"-0.005": 10.6012593571,
			"-0.004": 15.8369683424,
			"-0.003": 20.1008248945,
			"-0.002": 20.3316434171,
			"-0.001": 22.2347735812,
			"0.0": 21.8784115263,
			"0.001": 21.7821441244,
			"0.002": 16.2789031322,
			"0.003": 15.0144467098,
			"0.004": 14.2308683127,
			"0.005": 16.1709365527,
			"0.006": 11.6199792924,
			"0.007": 2.99632596593,
			"0.008": 1.54423054276,
			"0.009": 2.07730273973,
			"0.01": 1.90879444674,
			"0.011": 2.06091923493,
			"0.012": 2.20402074882,
			"0.013": 4.92180530031,
			"0.014": 2.48793583245,
			"0.015": 0.0353495499861,
			"0.016": 0.0,
			"0.017": 0.0,
			"0.018": 0.0,
			"0.019": 0.0,
			"0.02": 0.0,
			"0.021": 0.0,
			"0.022": 0.0,
			"0.023": 0.0,
			"0.024": 0.0,
			"0.025": 0.0
		}
	}
}
