{
	 "smiles": "NC(CSCCC1=CC=CC=C1)C(O)=O", 
	 "Tm": 484.15, 
	 "num_atms": 30, 
	 "gaussian": { 
		 "optdone": 1, 
		 "sigma_profile": "yes", 
		 "theory": "DFT", 
		 "functional": "B3LYP", 
		 "basiset": "6-31G**", 
		 "properties": { 
			 "R2extent": 4357.0071, 
			 "electric_dipole_moment_norm": 1.94903304487, 
			 "electric_quadrupole_moment_norm": 10.2141254633, 
			 "total_energy": -1031.6135639, 
			 "HOMO_LUMO_gap": 0.21636, 
			 "cosmo_polarized_energy": -13.63, 
			 "cosmo_cavitation_energy": 34.11, 
			 "cosmo_dispersion_energy": -23.76, 
			 "cosmo_repulsion_energy": 1.86, 
			 "cosmo_total_nonelectrostatic_energy": 12.21, 
			 "SMD_solvation_energy": 4.94 
		},
		"coords": [
			{
				"x": -2.6145143211,
				"y": 0.0138830531,
				"z": -2.6173200499,
				"element": "N" 
			},
			{
				"x": -1.9401198037,
				"y": -0.2588290749,
				"z": -1.3557052835,
				"element": "C" 
			},
			{
				"x": -0.7159484222,
				"y": 0.6504173135,
				"z": -1.1806009681,
				"element": "C" 
			},
			{
				"x": 0.5495637618,
				"y": 0.4528106804,
				"z": -2.510725062,
				"element": "S" 
			},
			{
				"x": 1.8678181634,
				"y": -0.5369649278,
				"z": -1.6843717989,
				"element": "C" 
			},
			{
				"x": 2.9699551707,
				"y": 0.2933886821,
				"z": -0.9981204057,
				"element": "C" 
			},
			{
				"x": 2.5143471401,
				"y": 1.0852782842,
				"z": 0.2093087707,
				"element": "C" 
			},
			{
				"x": 2.2917455742,
				"y": 0.4474436545,
				"z": 1.4391975702,
				"element": "C" 
			},
			{
				"x": 1.8523850805,
				"y": 1.1666782052,
				"z": 2.5508748927,
				"element": "C" 
			},
			{
				"x": 1.6301264981,
				"y": 2.5424785119,
				"z": 2.4525289613,
				"element": "C" 
			},
			{
				"x": 1.85117662,
				"y": 3.189846226,
				"z": 1.23634326,
				"element": "C" 
			},
			{
				"x": 2.2899736179,
				"y": 2.4657623185,
				"z": 0.1254467258,
				"element": "C" 
			},
			{
				"x": -1.5766925212,
				"y": -1.7274131825,
				"z": -1.0835705221,
				"element": "C" 
			},
			{
				"x": -2.3588717709,
				"y": -2.5877594903,
				"z": -1.7767156896,
				"element": "O" 
			},
			{
				"x": -0.7339687844,
				"y": -2.1128780121,
				"z": -0.2994187095,
				"element": "O" 
			},
			{
				"x": -1.979805026,
				"y": -0.2084492972,
				"z": -3.382496329,
				"element": "H" 
			},
			{
				"x": -3.4170002185,
				"y": -0.6005050443,
				"z": -2.7212441999,
				"element": "H" 
			},
			{
				"x": -2.6393393711,
				"y": 0.0001076723,
				"z": -0.5439458134,
				"element": "H" 
			},
			{
				"x": -1.0516975065,
				"y": 1.6881092284,
				"z": -1.2230573484,
				"element": "H" 
			},
			{
				"x": -0.2388930907,
				"y": 0.4758660437,
				"z": -0.2168439252,
				"element": "H" 
			},
			{
				"x": 2.312153781,
				"y": -1.1339768659,
				"z": -2.4870540696,
				"element": "H" 
			},
			{
				"x": 1.387517316,
				"y": -1.2257399635,
				"z": -0.986351262,
				"element": "H" 
			},
			{
				"x": 3.7582862008,
				"y": -0.4094284922,
				"z": -0.6943520149,
				"element": "H" 
			},
			{
				"x": 3.4171950807,
				"y": 0.9681983128,
				"z": -1.7356403684,
				"element": "H" 
			},
			{
				"x": 2.4648374921,
				"y": -0.6228281419,
				"z": 1.5258490622,
				"element": "H" 
			},
			{
				"x": 1.6881935159,
				"y": 0.6542650566,
				"z": 3.4947993205,
				"element": "H" 
			},
			{
				"x": 1.2915578742,
				"y": 3.1045931836,
				"z": 3.318255582,
				"element": "H" 
			},
			{
				"x": 1.6849210343,
				"y": 4.2601904606,
				"z": 1.1506450463,
				"element": "H" 
			},
			{
				"x": 2.4589675446,
				"y": 2.974680548,
				"z": -0.819591687,
				"element": "H" 
			},
			{
				"x": -2.08567063,
				"y": -3.4798249429,
				"z": -1.5031236846,
				"element": "H" 
			}
		],
		 "valence_orbital": [ 
			{
				"type": "occ",
				"energy": -0.29278,
				"method": "rhf"
			},
			{
				"type": "occ",
				"energy": -0.24628,
				"method": "rhf"
			},
			{
				"type": "occ",
				"energy": -0.23953,
				"method": "rhf"
			},
			{
				"type": "occ",
				"energy": -0.23806,
				"method": "rhf"
			},
			{
				"type": "occ",
				"energy": -0.21894,
				"method": "rhf"
			},
			{
				"type": "unocc",
				"energy": -0.00258,
				"method": "rhf"
			},
			{
				"type": "unocc",
				"energy": 0.00099,
				"method": "rhf"
			},
			{
				"type": "unocc",
				"energy": 0.00361,
				"method": "rhf"
			},
			{
				"type": "unocc",
				"energy": 0.04679,
				"method": "rhf"
			},
			{
				"type": "unocc",
				"energy": 0.06382,
				"method": "rhf"
			}
		],
		"cosmo_sigma_profile": { 
			"-0.025": 0.0,
			"-0.024": 0.0,
			"-0.023": 0.0,
			"-0.022": 0.0,
			"-0.021": 0.0,
			"-0.02": 0.0,
			"-0.019": 0.0274771415985,
			"-0.018": 0.913546400143,
			"-0.017": 0.731035430165,
			"-0.016": 0.906779861759,
			"-0.015": 0.422703005095,
			"-0.014": 1.30859253324,
			"-0.013": 0.429498497712,
			"-0.012": 0.762885083373,
			"-0.011": 0.710311890604,
			"-0.01": 1.17878885787,
			"-0.009": 1.91407767929,
			"-0.008": 2.57163401992,
			"-0.007": 6.47241044663,
			"-0.006": 8.43090733193,
			"-0.005": 18.0197388445,
			"-0.004": 25.1175988407,
			"-0.003": 27.2991458704,
			"-0.002": 20.6806875735,
			"-0.001": 18.1475701682,
			"0.0": 15.8676177883,
			"0.001": 16.4971638356,
			"0.002": 16.6145719146,
			"0.003": 16.1687888437,
			"0.004": 15.831279387,
			"0.005": 13.1228109407,
			"0.006": 12.3978794156,
			"0.007": 7.29522375606,
			"0.008": 3.71213014251,
			"0.009": 3.81632595112,
			"0.01": 3.45344613838,
			"0.011": 3.33772132212,
			"0.012": 2.58931039665,
			"0.013": 0.201622357379,
			"0.014": 0.240645542344,
			"0.015": 0.999601892531,
			"0.016": 0.579402110679,
			"0.017": 0.52149540044,
			"0.018": 0.436390583171,
			"0.019": 0.123560619444,
			"0.02": 0.0,
			"0.021": 0.0,
			"0.022": 0.0,
			"0.023": 0.0,
			"0.024": 0.0,
			"0.025": 0.0
		}
	}
}
