{
	 "smiles": "COC(=O)C1=CC(N)=CC(N)=C1", 
	 "Tm": 406.15, 
	 "num_atms": 22, 
	 "gaussian": { 
		 "optdone": 1, 
		 "sigma_profile": "yes", 
		 "theory": "DFT", 
		 "functional": "B3LYP", 
		 "basiset": "6-31G**", 
		 "properties": { 
			 "R2extent": 3050.497, 
			 "electric_dipole_moment_norm": 2.71751570925, 
			 "electric_quadrupole_moment_norm": 15.189842384, 
			 "total_energy": -570.846883851, 
			 "HOMO_LUMO_gap": 0.1631, 
			 "cosmo_polarized_energy": -16.28, 
			 "cosmo_cavitation_energy": 26.38, 
			 "cosmo_dispersion_energy": -19.52, 
			 "cosmo_repulsion_energy": 1.58, 
			 "cosmo_total_nonelectrostatic_energy": 8.44, 
			 "SMD_solvation_energy": 6.01 
		},
		"coords": [
			{
				"x": 1.0060816405,
				"y": -0.6521459706,
				"z": -4.1813474436,
				"element": "C" 
			},
			{
				"x": 0.4435810098,
				"y": 0.2340308103,
				"z": -3.2045644773,
				"element": "O" 
			},
			{
				"x": 0.5918168553,
				"y": -0.16201388,
				"z": -1.9166492843,
				"element": "C" 
			},
			{
				"x": 1.1583314812,
				"y": -1.1940026416,
				"z": -1.6102338453,
				"element": "O" 
			},
			{
				"x": -0.0093328129,
				"y": 0.7982159364,
				"z": -0.9467190955,
				"element": "C" 
			},
			{
				"x": 0.0814106511,
				"y": 0.471594961,
				"z": 0.4085700159,
				"element": "C" 
			},
			{
				"x": -0.4638159255,
				"y": 1.3368486281,
				"z": 1.3680431506,
				"element": "C" 
			},
			{
				"x": -0.4346183565,
				"y": 1.0001219622,
				"z": 2.7231876548,
				"element": "N" 
			},
			{
				"x": -1.0920699513,
				"y": 2.5180522842,
				"z": 0.9460170245,
				"element": "C" 
			},
			{
				"x": -1.1826041486,
				"y": 2.8449507417,
				"z": -0.4146331592,
				"element": "C" 
			},
			{
				"x": -1.7606664076,
				"y": 4.0545356572,
				"z": -0.8104889496,
				"element": "N" 
			},
			{
				"x": -0.6350912197,
				"y": 1.9746150188,
				"z": -1.3701350779,
				"element": "C" 
			},
			{
				"x": 0.5410482368,
				"y": -1.6396563051,
				"z": -4.1214401888,
				"element": "H" 
			},
			{
				"x": 2.0826942951,
				"y": -0.7637884069,
				"z": -4.0282617379,
				"element": "H" 
			},
			{
				"x": 0.8033247338,
				"y": -0.1920935736,
				"z": -5.1488159239,
				"element": "H" 
			},
			{
				"x": 0.5708340467,
				"y": -0.4526238107,
				"z": 0.6961459406,
				"element": "H" 
			},
			{
				"x": -0.4739666023,
				"y": 1.7825089334,
				"z": 3.3618839393,
				"element": "H" 
			},
			{
				"x": 0.2884990707,
				"y": 0.3421656878,
				"z": 2.9795363463,
				"element": "H" 
			},
			{
				"x": -1.5168744901,
				"y": 3.1923304636,
				"z": 1.6871653592,
				"element": "H" 
			},
			{
				"x": -2.0953831529,
				"y": 4.0695171009,
				"z": -1.7641321419,
				"element": "H" 
			},
			{
				"x": -2.4453920249,
				"y": 4.431378272,
				"z": -0.1693839964,
				"element": "H" 
			},
			{
				"x": -0.6894069288,
				"y": 2.2125581308,
				"z": -2.4260441094,
				"element": "H" 
			}
		],
		 "valence_orbital": [ 
			{
				"type": "occ",
				"energy": -0.29242,
				"method": "rhf"
			},
			{
				"type": "occ",
				"energy": -0.28096,
				"method": "rhf"
			},
			{
				"type": "occ",
				"energy": -0.26324,
				"method": "rhf"
			},
			{
				"type": "occ",
				"energy": -0.21518,
				"method": "rhf"
			},
			{
				"type": "occ",
				"energy": -0.19331,
				"method": "rhf"
			},
			{
				"type": "unocc",
				"energy": -0.03021,
				"method": "rhf"
			},
			{
				"type": "unocc",
				"energy": 0.02741,
				"method": "rhf"
			},
			{
				"type": "unocc",
				"energy": 0.07163,
				"method": "rhf"
			},
			{
				"type": "unocc",
				"energy": 0.08332,
				"method": "rhf"
			},
			{
				"type": "unocc",
				"energy": 0.09026,
				"method": "rhf"
			}
		],
		"cosmo_sigma_profile": { 
			"-0.025": 0.0,
			"-0.024": 0.0,
			"-0.023": 0.0,
			"-0.022": 0.0,
			"-0.021": 0.0,
			"-0.02": 0.0,
			"-0.019": 0.0,
			"-0.018": 0.0,
			"-0.017": 0.0,
			"-0.016": 0.0,
			"-0.015": 0.0,
			"-0.014": 0.0,
			"-0.013": 0.467839559644,
			"-0.012": 4.70772830937,
			"-0.011": 5.64748712751,
			"-0.01": 5.9617251312,
			"-0.009": 5.54425658985,
			"-0.008": 5.5598554896,
			"-0.007": 7.45833976897,
			"-0.006": 10.2995027347,
			"-0.005": 11.5985704308,
			"-0.004": 12.2396406197,
			"-0.003": 14.0104394638,
			"-0.002": 9.45787965636,
			"-0.001": 8.88305111997,
			"0.0": 7.64381281092,
			"0.001": 8.05821374233,
			"0.002": 10.326210277,
			"0.003": 9.6828677732,
			"0.004": 12.5439594003,
			"0.005": 13.7456789712,
			"0.006": 16.0984646798,
			"0.007": 4.24749158369,
			"0.008": 3.28162336327,
			"0.009": 4.03458080859,
			"0.01": 2.86734832365,
			"0.011": 3.8525418741,
			"0.012": 5.9779361915,
			"0.013": 2.60344042714,
			"0.014": 1.11137009597,
			"0.015": 0.564221121986,
			"0.016": 0.0,
			"0.017": 0.0,
			"0.018": 0.0,
			"0.019": 0.0,
			"0.02": 0.0,
			"0.021": 0.0,
			"0.022": 0.0,
			"0.023": 0.0,
			"0.024": 0.0,
			"0.025": 0.0
		}
	}
}
