{
	 "smiles": "CC(=O)N1CC(C=C1C1=CC=CC=C1)C1=CC=CC=C1", 
	 "Tm": 378.15, 
	 "num_atms": 37, 
	 "gaussian": { 
		 "optdone": 1, 
		 "sigma_profile": "yes", 
		 "theory": "DFT", 
		 "functional": "B3LYP", 
		 "basiset": "6-31G**", 
		 "properties": { 
			 "R2extent": 7718.7313, 
			 "electric_dipole_moment_norm": 3.15486520948, 
			 "electric_quadrupole_moment_norm": 6.81653465846, 
			 "total_energy": -826.135117218, 
			 "HOMO_LUMO_gap": 0.17873, 
			 "cosmo_polarized_energy": -14.11, 
			 "cosmo_cavitation_energy": 39.92, 
			 "cosmo_dispersion_energy": -27.39, 
			 "cosmo_repulsion_energy": 2.12, 
			 "cosmo_total_nonelectrostatic_energy": 14.64, 
			 "SMD_solvation_energy": 6.87 
		},
		"coords": [
			{
				"x": 0.8080597062,
				"y": -1.7877462615,
				"z": 0.0789716395,
				"element": "C" 
			},
			{
				"x": -0.1529897515,
				"y": -0.6716661865,
				"z": -0.3098722681,
				"element": "C" 
			},
			{
				"x": -1.1574899218,
				"y": -0.8958389442,
				"z": -0.9685285627,
				"element": "O" 
			},
			{
				"x": 0.1990679411,
				"y": 0.6030540438,
				"z": 0.1099462249,
				"element": "N" 
			},
			{
				"x": 1.1728031735,
				"y": 0.8862952566,
				"z": 1.185299973,
				"element": "C" 
			},
			{
				"x": 0.5780849208,
				"y": 2.1108198285,
				"z": 1.9487247163,
				"element": "C" 
			},
			{
				"x": -0.3779648182,
				"y": 2.6557294466,
				"z": 0.9114214672,
				"element": "C" 
			},
			{
				"x": -0.5949909781,
				"y": 1.7754245461,
				"z": -0.0840315463,
				"element": "C" 
			},
			{
				"x": -1.4219882852,
				"y": 2.0120941145,
				"z": -1.2837563237,
				"element": "C" 
			},
			{
				"x": -2.6245000139,
				"y": 2.7255232604,
				"z": -1.1651837572,
				"element": "C" 
			},
			{
				"x": -3.3741501403,
				"y": 3.0495899319,
				"z": -2.2955748343,
				"element": "C" 
			},
			{
				"x": -2.9331887652,
				"y": 2.6652083137,
				"z": -3.5622375954,
				"element": "C" 
			},
			{
				"x": -1.7384123412,
				"y": 1.9515229012,
				"z": -3.6898901268,
				"element": "C" 
			},
			{
				"x": -0.990565551,
				"y": 1.6242934616,
				"z": -2.5625235992,
				"element": "C" 
			},
			{
				"x": -0.0723509875,
				"y": 1.7539055058,
				"z": 3.2823182962,
				"element": "C" 
			},
			{
				"x": 0.5832988946,
				"y": 2.0454438873,
				"z": 4.4852913065,
				"element": "C" 
			},
			{
				"x": 0.0204412816,
				"y": 1.6924889762,
				"z": 5.7131205618,
				"element": "C" 
			},
			{
				"x": -1.2114320013,
				"y": 1.0378504994,
				"z": 5.7542646723,
				"element": "C" 
			},
			{
				"x": -1.8754442865,
				"y": 0.7437414706,
				"z": 4.561242047,
				"element": "C" 
			},
			{
				"x": -1.3126020474,
				"y": 1.1019860541,
				"z": 3.3358084941,
				"element": "C" 
			},
			{
				"x": 0.6561935552,
				"y": -2.083937278,
				"z": 1.1232460929,
				"element": "H" 
			},
			{
				"x": 0.5841339457,
				"y": -2.6464054681,
				"z": -0.5540864288,
				"element": "H" 
			},
			{
				"x": 1.8579052149,
				"y": -1.5045127403,
				"z": -0.040491245,
				"element": "H" 
			},
			{
				"x": 1.3076594603,
				"y": 0.0225285221,
				"z": 1.8356538278,
				"element": "H" 
			},
			{
				"x": 2.1433767283,
				"y": 1.1483657256,
				"z": 0.7455375074,
				"element": "H" 
			},
			{
				"x": 1.3844411049,
				"y": 2.8240606664,
				"z": 2.1534571587,
				"element": "H" 
			},
			{
				"x": -0.8147963414,
				"y": 3.6442420166,
				"z": 0.960722044,
				"element": "H" 
			},
			{
				"x": -2.9790464841,
				"y": 3.0078588211,
				"z": -0.1784717186,
				"element": "H" 
			},
			{
				"x": -4.306936829,
				"y": 3.595112671,
				"z": -2.1841510595,
				"element": "H" 
			},
			{
				"x": -3.5180556698,
				"y": 2.9128815825,
				"z": -4.4434153381,
				"element": "H" 
			},
			{
				"x": -1.3898560182,
				"y": 1.6457743703,
				"z": -4.6722401325,
				"element": "H" 
			},
			{
				"x": -0.0649787282,
				"y": 1.0692280156,
				"z": -2.6693555277,
				"element": "H" 
			},
			{
				"x": 1.5432828504,
				"y": 2.5565885827,
				"z": 4.4600151159,
				"element": "H" 
			},
			{
				"x": 0.542388859,
				"y": 1.9319076022,
				"z": 6.6355027123,
				"element": "H" 
			},
			{
				"x": -1.6530230373,
				"y": 0.763149516,
				"z": 6.7079226675,
				"element": "H" 
			},
			{
				"x": -2.8372341871,
				"y": 0.2388274223,
				"z": 4.5842465145,
				"element": "H" 
			},
			{
				"x": -1.8432404522,
				"y": 0.885909866,
				"z": 2.4128970239,
				"element": "H" 
			}
		],
		 "valence_orbital": [ 
			{
				"type": "occ",
				"energy": -0.25157,
				"method": "rhf"
			},
			{
				"type": "occ",
				"energy": -0.24806,
				"method": "rhf"
			},
			{
				"type": "occ",
				"energy": -0.24295,
				"method": "rhf"
			},
			{
				"type": "occ",
				"energy": -0.23436,
				"method": "rhf"
			},
			{
				"type": "occ",
				"energy": -0.20455,
				"method": "rhf"
			},
			{
				"type": "unocc",
				"energy": -0.02582,
				"method": "rhf"
			},
			{
				"type": "unocc",
				"energy": -0.00453,
				"method": "rhf"
			},
			{
				"type": "unocc",
				"energy": -0.00092,
				"method": "rhf"
			},
			{
				"type": "unocc",
				"energy": 0.00625,
				"method": "rhf"
			},
			{
				"type": "unocc",
				"energy": 0.01991,
				"method": "rhf"
			}
		],
		"cosmo_sigma_profile": { 
			"-0.025": 0.0,
			"-0.024": 0.0,
			"-0.023": 0.0,
			"-0.022": 0.0,
			"-0.021": 0.0,
			"-0.02": 0.0,
			"-0.019": 0.0,
			"-0.018": 0.0,
			"-0.017": 0.0,
			"-0.016": 0.0,
			"-0.015": 0.0,
			"-0.014": 0.0,
			"-0.013": 0.0,
			"-0.012": 0.0,
			"-0.011": 0.0,
			"-0.01": 0.0,
			"-0.009": 0.0,
			"-0.008": 0.0210636127268,
			"-0.007": 1.70360287449,
			"-0.006": 12.6332217583,
			"-0.005": 35.5254138888,
			"-0.004": 34.4197810902,
			"-0.003": 37.6405519382,
			"-0.002": 26.5578890609,
			"-0.001": 27.0162521497,
			"0.0": 18.3494451535,
			"0.001": 18.2388778963,
			"0.002": 17.0499037478,
			"0.003": 16.935159658,
			"0.004": 16.6797880224,
			"0.005": 17.6774524579,
			"0.006": 14.1057575085,
			"0.007": 4.60415295458,
			"0.008": 2.0020389819,
			"0.009": 1.06390369367,
			"0.01": 2.07488856941,
			"0.011": 1.64259076024,
			"0.012": 2.47011755621,
			"0.013": 3.16765102965,
			"0.014": 4.96464294372,
			"0.015": 1.10427100081,
			"0.016": 0.0,
			"0.017": 0.0,
			"0.018": 0.0,
			"0.019": 0.0,
			"0.02": 0.0,
			"0.021": 0.0,
			"0.022": 0.0,
			"0.023": 0.0,
			"0.024": 0.0,
			"0.025": 0.0
		}
	}
}
