{
	 "smiles": "CC(=O)C1=CC=C(S1)C1=CC=C(C=C1)C(F)(F)F", 
	 "Tm": 401.15, 
	 "num_atms": 27, 
	 "gaussian": { 
		 "optdone": 1, 
		 "sigma_profile": "yes", 
		 "theory": "DFT", 
		 "functional": "B3LYP", 
		 "basiset": "6-31G**", 
		 "properties": { 
			 "R2extent": 10841.6521, 
			 "electric_dipole_moment_norm": 3.92204774321, 
			 "electric_quadrupole_moment_norm": 15.6451569883, 
			 "total_energy": -1273.74705928, 
			 "HOMO_LUMO_gap": 0.15392, 
			 "cosmo_polarized_energy": -11.19, 
			 "cosmo_cavitation_energy": 35.01, 
			 "cosmo_dispersion_energy": -25.23, 
			 "cosmo_repulsion_energy": 1.82, 
			 "cosmo_total_nonelectrostatic_energy": 11.6, 
			 "SMD_solvation_energy": 7.41 
		},
		"coords": [
			{
				"x": -0.6936424769,
				"y": 1.387381468,
				"z": 5.8539787235,
				"element": "C" 
			},
			{
				"x": -1.6297364838,
				"y": 0.4908795354,
				"z": 5.0611454834,
				"element": "C" 
			},
			{
				"x": -2.5147552803,
				"y": -0.1561013525,
				"z": 5.6057868921,
				"element": "O" 
			},
			{
				"x": -1.4377023892,
				"y": 0.4223276655,
				"z": 3.6025158786,
				"element": "C" 
			},
			{
				"x": -0.5191861748,
				"y": 1.057153659,
				"z": 2.7912633359,
				"element": "C" 
			},
			{
				"x": -0.6600261152,
				"y": 0.724259213,
				"z": 1.4236985373,
				"element": "C" 
			},
			{
				"x": -1.6900849078,
				"y": -0.1677744755,
				"z": 1.1828341038,
				"element": "C" 
			},
			{
				"x": -2.4911600882,
				"y": -0.6081739578,
				"z": 2.668712117,
				"element": "S" 
			},
			{
				"x": -2.1130685496,
				"y": -0.7172613278,
				"z": -0.1112654282,
				"element": "C" 
			},
			{
				"x": -1.1939669029,
				"y": -0.819670017,
				"z": -1.1726529261,
				"element": "C" 
			},
			{
				"x": -1.5829524522,
				"y": -1.325395956,
				"z": -2.4077202205,
				"element": "C" 
			},
			{
				"x": -2.8988516047,
				"y": -1.7528714907,
				"z": -2.6068455914,
				"element": "C" 
			},
			{
				"x": -3.8213186028,
				"y": -1.6683411935,
				"z": -1.5610398956,
				"element": "C" 
			},
			{
				"x": -3.4325934612,
				"y": -1.1538763278,
				"z": -0.3287109287,
				"element": "C" 
			},
			{
				"x": -3.3321100601,
				"y": -2.250310804,
				"z": -3.9586671729,
				"element": "C" 
			},
			{
				"x": -3.761260223,
				"y": -1.2374851566,
				"z": -4.7479096493,
				"element": "F" 
			},
			{
				"x": -4.3496266525,
				"y": -3.1343234313,
				"z": -3.8674005404,
				"element": "F" 
			},
			{
				"x": -2.3204988642,
				"y": -2.8576990925,
				"z": -4.617861031,
				"element": "F" 
			},
			{
				"x": 0.3479530622,
				"y": 1.0735456255,
				"z": 5.7262152556,
				"element": "H" 
			},
			{
				"x": -0.9637501524,
				"y": 1.3288222333,
				"z": 6.9087402806,
				"element": "H" 
			},
			{
				"x": -0.7691874755,
				"y": 2.4263655284,
				"z": 5.5153788459,
				"element": "H" 
			},
			{
				"x": 0.2270519737,
				"y": 1.7480899689,
				"z": 3.1668592696,
				"element": "H" 
			},
			{
				"x": -0.0474893942,
				"y": 1.1483210495,
				"z": 0.6365318017,
				"element": "H" 
			},
			{
				"x": -0.1614365408,
				"y": -0.5241245253,
				"z": -1.0189130253,
				"element": "H" 
			},
			{
				"x": -0.8613162715,
				"y": -1.4083130371,
				"z": -3.2132226007,
				"element": "H" 
			},
			{
				"x": -4.8412817158,
				"y": -2.0044797818,
				"z": -1.7122988383,
				"element": "H" 
			},
			{
				"x": -4.1648021963,
				"y": -1.0743440193,
				"z": 0.4688473235,
				"element": "H" 
			}
		],
		 "valence_orbital": [ 
			{
				"type": "occ",
				"energy": -0.29568,
				"method": "rhf"
			},
			{
				"type": "occ",
				"energy": -0.27639,
				"method": "rhf"
			},
			{
				"type": "occ",
				"energy": -0.26862,
				"method": "rhf"
			},
			{
				"type": "occ",
				"energy": -0.25695,
				"method": "rhf"
			},
			{
				"type": "occ",
				"energy": -0.23502,
				"method": "rhf"
			},
			{
				"type": "unocc",
				"energy": -0.0811,
				"method": "rhf"
			},
			{
				"type": "unocc",
				"energy": -0.03187,
				"method": "rhf"
			},
			{
				"type": "unocc",
				"energy": -0.02608,
				"method": "rhf"
			},
			{
				"type": "unocc",
				"energy": 0.02488,
				"method": "rhf"
			},
			{
				"type": "unocc",
				"energy": 0.02737,
				"method": "rhf"
			}
		],
		"cosmo_sigma_profile": { 
			"-0.025": 0.0,
			"-0.024": 0.0,
			"-0.023": 0.0,
			"-0.022": 0.0,
			"-0.021": 0.0,
			"-0.02": 0.0,
			"-0.019": 0.0,
			"-0.018": 0.0,
			"-0.017": 0.0,
			"-0.016": 0.0,
			"-0.015": 0.0,
			"-0.014": 0.0,
			"-0.013": 0.0,
			"-0.012": 0.0,
			"-0.011": 0.0,
			"-0.01": 0.0,
			"-0.009": 0.0148896480484,
			"-0.008": 4.37447700782,
			"-0.007": 11.1704195582,
			"-0.006": 18.5480524807,
			"-0.005": 17.8796204096,
			"-0.004": 14.9233633637,
			"-0.003": 15.4022025659,
			"-0.002": 16.4834023654,
			"-0.001": 20.2772147583,
			"0.0": 20.6454880318,
			"0.001": 27.6579339719,
			"0.002": 43.6285485214,
			"0.003": 46.3769216772,
			"0.004": 5.44919687397,
			"0.005": 2.17570139466,
			"0.006": 1.75617316647,
			"0.007": 1.3568599577,
			"0.008": 1.7607251429,
			"0.009": 2.03871927049,
			"0.01": 2.34965515889,
			"0.011": 3.04294554502,
			"0.012": 4.37884928109,
			"0.013": 1.48515684045,
			"0.014": 0.122412908206,
			"0.015": 0.0,
			"0.016": 0.0,
			"0.017": 0.0,
			"0.018": 0.0,
			"0.019": 0.0,
			"0.02": 0.0,
			"0.021": 0.0,
			"0.022": 0.0,
			"0.023": 0.0,
			"0.024": 0.0,
			"0.025": 0.0
		}
	}
}
