{
	 "smiles": "CC(=O)NC1=C(C)C=C(C)C=C1", 
	 "Tm": 402.15, 
	 "num_atms": 25, 
	 "gaussian": { 
		 "optdone": 1, 
		 "sigma_profile": "yes", 
		 "theory": "DFT", 
		 "functional": "B3LYP", 
		 "basiset": "6-31G**", 
		 "properties": { 
			 "R2extent": 2751.6266, 
			 "electric_dipole_moment_norm": 3.71183255818, 
			 "electric_quadrupole_moment_norm": 16.8073526857, 
			 "total_energy": -518.906377929, 
			 "HOMO_LUMO_gap": 0.20833, 
			 "cosmo_polarized_energy": -10.63, 
			 "cosmo_cavitation_energy": 28.08, 
			 "cosmo_dispersion_energy": -20.04, 
			 "cosmo_repulsion_energy": 1.61, 
			 "cosmo_total_nonelectrostatic_energy": 9.65, 
			 "SMD_solvation_energy": 5.87 
		},
		"coords": [
			{
				"x": -1.7208610411,
				"y": -2.2169964869,
				"z": -2.6955123648,
				"element": "C" 
			},
			{
				"x": -1.3960254723,
				"y": -2.8242755775,
				"z": -1.342921014,
				"element": "C" 
			},
			{
				"x": -1.7843182578,
				"y": -3.9399567383,
				"z": -1.0251193727,
				"element": "O" 
			},
			{
				"x": -0.6557540808,
				"y": -2.0764139503,
				"z": -0.443641109,
				"element": "N" 
			},
			{
				"x": -0.068162418,
				"y": -0.7920747558,
				"z": -0.5586412803,
				"element": "C" 
			},
			{
				"x": -0.2093678875,
				"y": 0.1229789515,
				"z": 0.5068852947,
				"element": "C" 
			},
			{
				"x": -0.9997830936,
				"y": -0.2411637908,
				"z": 1.7404078974,
				"element": "C" 
			},
			{
				"x": 0.4025435066,
				"y": 1.374318935,
				"z": 0.3936210278,
				"element": "C" 
			},
			{
				"x": 1.1338248612,
				"y": 1.7591335365,
				"z": -0.7371654184,
				"element": "C" 
			},
			{
				"x": 1.7402498512,
				"y": 3.1388734181,
				"z": -0.8382999113,
				"element": "C" 
			},
			{
				"x": 1.2667936009,
				"y": 0.8298369958,
				"z": -1.7739591517,
				"element": "C" 
			},
			{
				"x": 0.6887096615,
				"y": -0.4343959369,
				"z": -1.6805332898,
				"element": "C" 
			},
			{
				"x": -2.665191438,
				"y": -2.6513981456,
				"z": -3.0265344755,
				"element": "H" 
			},
			{
				"x": -1.7917594364,
				"y": -1.1277913965,
				"z": -2.6736142772,
				"element": "H" 
			},
			{
				"x": -0.9535127878,
				"y": -2.4942368403,
				"z": -3.425990935,
				"element": "H" 
			},
			{
				"x": -0.5926166324,
				"y": -2.5393467135,
				"z": 0.4550869171,
				"element": "H" 
			},
			{
				"x": -0.5067092625,
				"y": -1.0266182451,
				"z": 2.3292410633,
				"element": "H" 
			},
			{
				"x": -1.1190351492,
				"y": 0.624766746,
				"z": 2.3961475587,
				"element": "H" 
			},
			{
				"x": -1.9964905426,
				"y": -0.6152866188,
				"z": 1.4822275612,
				"element": "H" 
			},
			{
				"x": 0.2943981843,
				"y": 2.0784366825,
				"z": 1.2161239536,
				"element": "H" 
			},
			{
				"x": 1.0250423807,
				"y": 3.858810302,
				"z": -1.2560992961,
				"element": "H" 
			},
			{
				"x": 2.0436962173,
				"y": 3.5169288807,
				"z": 0.1428057012,
				"element": "H" 
			},
			{
				"x": 2.6203210735,
				"y": 3.1417852374,
				"z": -1.4884291107,
				"element": "H" 
			},
			{
				"x": 1.846663232,
				"y": 1.0857273294,
				"z": -2.657088928,
				"element": "H" 
			},
			{
				"x": 0.8435449309,
				"y": -1.1588418189,
				"z": -2.4725970404,
				"element": "H" 
			}
		],
		 "valence_orbital": [ 
			{
				"type": "occ",
				"energy": -0.34095,
				"method": "rhf"
			},
			{
				"type": "occ",
				"energy": -0.28366,
				"method": "rhf"
			},
			{
				"type": "occ",
				"energy": -0.2499,
				"method": "rhf"
			},
			{
				"type": "occ",
				"energy": -0.24653,
				"method": "rhf"
			},
			{
				"type": "occ",
				"energy": -0.21939,
				"method": "rhf"
			},
			{
				"type": "unocc",
				"energy": -0.01106,
				"method": "rhf"
			},
			{
				"type": "unocc",
				"energy": -0.00567,
				"method": "rhf"
			},
			{
				"type": "unocc",
				"energy": 0.03695,
				"method": "rhf"
			},
			{
				"type": "unocc",
				"energy": 0.08387,
				"method": "rhf"
			},
			{
				"type": "unocc",
				"energy": 0.09228,
				"method": "rhf"
			}
		],
		"cosmo_sigma_profile": { 
			"-0.025": 0.0,
			"-0.024": 0.0,
			"-0.023": 0.0,
			"-0.022": 0.0,
			"-0.021": 0.0,
			"-0.02": 0.0,
			"-0.019": 0.0,
			"-0.018": 0.0,
			"-0.017": 0.0,
			"-0.016": 0.0,
			"-0.015": 0.0,
			"-0.014": 0.0,
			"-0.013": 0.222491933811,
			"-0.012": 1.13014076724,
			"-0.011": 0.741935573912,
			"-0.01": 1.40989916552,
			"-0.009": 1.1178221073,
			"-0.008": 1.32628932338,
			"-0.007": 3.52196023385,
			"-0.006": 5.36366746627,
			"-0.005": 12.198172785,
			"-0.004": 22.2872922694,
			"-0.003": 22.2820000982,
			"-0.002": 24.0079144202,
			"-0.001": 26.0838344348,
			"0.0": 24.7989166381,
			"0.001": 13.5451708653,
			"0.002": 9.17563240372,
			"0.003": 9.50529361141,
			"0.004": 8.30296043985,
			"0.005": 8.36238375611,
			"0.006": 6.69055670332,
			"0.007": 1.09197576215,
			"0.008": 1.94352635176,
			"0.009": 0.649130458262,
			"0.01": 0.702345523977,
			"0.011": 2.39196041226,
			"0.012": 1.55554062721,
			"0.013": 4.0193467286,
			"0.014": 5.37460180882,
			"0.015": 1.35226317322,
			"0.016": 0.00272904010433,
			"0.017": 0.0,
			"0.018": 0.0,
			"0.019": 0.0,
			"0.02": 0.0,
			"0.021": 0.0,
			"0.022": 0.0,
			"0.023": 0.0,
			"0.024": 0.0,
			"0.025": 0.0
		}
	}
}
