{
	 "smiles": "CCOC(=O)CNC1=CC(NCC(=O)OCC)=C(N)C=C1N", 
	 "Tm": 633.15, 
	 "num_atms": 44, 
	 "gaussian": { 
		 "optdone": 1, 
		 "sigma_profile": "yes", 
		 "theory": "DFT", 
		 "functional": "B3LYP", 
		 "basiset": "6-31G**", 
		 "properties": { 
			 "R2extent": 9862.8019, 
			 "electric_dipole_moment_norm": 2.72320266231, 
			 "electric_quadrupole_moment_norm": 19.5581356095, 
			 "total_energy": -1066.67339553, 
			 "HOMO_LUMO_gap": 0.16497, 
			 "cosmo_polarized_energy": -23.73, 
			 "cosmo_cavitation_energy": 47.88, 
			 "cosmo_dispersion_energy": -31.75, 
			 "cosmo_repulsion_energy": 2.49, 
			 "cosmo_total_nonelectrostatic_energy": 18.62, 
			 "SMD_solvation_energy": 8.42 
		},
		"coords": [
			{
				"x": 5.9500649736,
				"y": 0.6766440993,
				"z": 1.124158549,
				"element": "C" 
			},
			{
				"x": 4.6998571206,
				"y": 1.4717592819,
				"z": 0.8017799762,
				"element": "C" 
			},
			{
				"x": 3.5756683588,
				"y": 0.5594317855,
				"z": 0.8594885954,
				"element": "O" 
			},
			{
				"x": 2.3670516908,
				"y": 1.0945601606,
				"z": 0.602349036,
				"element": "C" 
			},
			{
				"x": 2.1840304715,
				"y": 2.2616959214,
				"z": 0.3286152928,
				"element": "O" 
			},
			{
				"x": 1.248243727,
				"y": 0.07038801,
				"z": 0.6304491165,
				"element": "C" 
			},
			{
				"x": 1.5890628764,
				"y": -1.1821901834,
				"z": 1.2677773974,
				"element": "N" 
			},
			{
				"x": 0.6801599973,
				"y": -2.252345109,
				"z": 1.1436508154,
				"element": "C" 
			},
			{
				"x": -0.6317567019,
				"y": -2.0879356328,
				"z": 0.6814643119,
				"element": "C" 
			},
			{
				"x": -1.5041017551,
				"y": -3.1772568326,
				"z": 0.5654367743,
				"element": "C" 
			},
			{
				"x": -2.8254015565,
				"y": -3.0557636186,
				"z": 0.0941915271,
				"element": "N" 
			},
			{
				"x": -3.4156848629,
				"y": -1.7415478056,
				"z": -0.0347942275,
				"element": "C" 
			},
			{
				"x": -2.9548728133,
				"y": -1.0264715078,
				"z": -1.3109951072,
				"element": "C" 
			},
			{
				"x": -2.9153738797,
				"y": -1.5202504834,
				"z": -2.4132698748,
				"element": "O" 
			},
			{
				"x": -2.6194607915,
				"y": 0.2571559008,
				"z": -1.0409372509,
				"element": "O" 
			},
			{
				"x": -2.1962520715,
				"y": 1.0549765703,
				"z": -2.1734932354,
				"element": "C" 
			},
			{
				"x": -1.6606100866,
				"y": 2.3715064444,
				"z": -1.6419139799,
				"element": "C" 
			},
			{
				"x": -1.0438631984,
				"y": -4.4674957281,
				"z": 0.8951482648,
				"element": "C" 
			},
			{
				"x": -1.9574866192,
				"y": -5.5485196968,
				"z": 0.767952857,
				"element": "N" 
			},
			{
				"x": 0.2527816871,
				"y": -4.6197465861,
				"z": 1.3924800581,
				"element": "C" 
			},
			{
				"x": 1.1180280571,
				"y": -3.5325613999,
				"z": 1.5379757484,
				"element": "C" 
			},
			{
				"x": 2.4563802058,
				"y": -3.6661079036,
				"z": 1.9918713307,
				"element": "N" 
			},
			{
				"x": 6.0975922731,
				"y": -0.1318349298,
				"z": 0.4023889617,
				"element": "H" 
			},
			{
				"x": 6.8249548841,
				"y": 1.3331769917,
				"z": 1.0886707694,
				"element": "H" 
			},
			{
				"x": 5.8889820148,
				"y": 0.2392885739,
				"z": 2.1247918378,
				"element": "H" 
			},
			{
				"x": 4.5281202203,
				"y": 2.281834703,
				"z": 1.516923828,
				"element": "H" 
			},
			{
				"x": 4.7376082208,
				"y": 1.9162590842,
				"z": -0.1974701194,
				"element": "H" 
			},
			{
				"x": 0.9246700785,
				"y": -0.0506336918,
				"z": -0.4209940719,
				"element": "H" 
			},
			{
				"x": 0.4089372759,
				"y": 0.5490849572,
				"z": 1.146696456,
				"element": "H" 
			},
			{
				"x": 2.5400942181,
				"y": -1.4758128926,
				"z": 1.0666960802,
				"element": "H" 
			},
			{
				"x": -0.976721586,
				"y": -1.1005375123,
				"z": 0.4060784303,
				"element": "H" 
			},
			{
				"x": -3.4352470926,
				"y": -3.7357955227,
				"z": 0.5338151848,
				"element": "H" 
			},
			{
				"x": -3.2278370872,
				"y": -1.0845785638,
				"z": 0.8272044294,
				"element": "H" 
			},
			{
				"x": -4.4999410197,
				"y": -1.8649582159,
				"z": -0.1282348104,
				"element": "H" 
			},
			{
				"x": -3.0567086128,
				"y": 1.2003163866,
				"z": -2.8355449159,
				"element": "H" 
			},
			{
				"x": -1.4420819713,
				"y": 0.4954602701,
				"z": -2.734391827,
				"element": "H" 
			},
			{
				"x": -1.3806492699,
				"y": 3.0182514633,
				"z": -2.479527272,
				"element": "H" 
			},
			{
				"x": -0.7732515637,
				"y": 2.2242929161,
				"z": -1.0189230954,
				"element": "H" 
			},
			{
				"x": -2.4183141286,
				"y": 2.8910262918,
				"z": -1.0480576217,
				"element": "H" 
			},
			{
				"x": -1.5326784472,
				"y": -6.4371081164,
				"z": 1.0076047931,
				"element": "H" 
			},
			{
				"x": -2.329744084,
				"y": -5.6082493776,
				"z": -0.1773974804,
				"element": "H" 
			},
			{
				"x": 0.6001591368,
				"y": -5.6140847687,
				"z": 1.66988302,
				"element": "H" 
			},
			{
				"x": 2.6631617574,
				"y": -4.6075577076,
				"z": 2.3049090877,
				"element": "H" 
			},
			{
				"x": 2.6611299539,
				"y": -3.0142660252,
				"z": 2.7454923604,
				"element": "H" 
			}
		],
		 "valence_orbital": [ 
			{
				"type": "occ",
				"energy": -0.27318,
				"method": "rhf"
			},
			{
				"type": "occ",
				"energy": -0.26174,
				"method": "rhf"
			},
			{
				"type": "occ",
				"energy": -0.23285,
				"method": "rhf"
			},
			{
				"type": "occ",
				"energy": -0.19997,
				"method": "rhf"
			},
			{
				"type": "occ",
				"energy": -0.15608,
				"method": "rhf"
			},
			{
				"type": "unocc",
				"energy": 0.00889,
				"method": "rhf"
			},
			{
				"type": "unocc",
				"energy": 0.01158,
				"method": "rhf"
			},
			{
				"type": "unocc",
				"energy": 0.02922,
				"method": "rhf"
			},
			{
				"type": "unocc",
				"energy": 0.04471,
				"method": "rhf"
			},
			{
				"type": "unocc",
				"energy": 0.07996,
				"method": "rhf"
			}
		],
		"cosmo_sigma_profile": { 
			"-0.025": 0.0,
			"-0.024": 0.0,
			"-0.023": 0.0,
			"-0.022": 0.0,
			"-0.021": 0.0,
			"-0.02": 0.0,
			"-0.019": 0.0,
			"-0.018": 0.0,
			"-0.017": 0.0,
			"-0.016": 0.0,
			"-0.015": 0.0,
			"-0.014": 0.0,
			"-0.013": 0.0,
			"-0.012": 0.282399861192,
			"-0.011": 3.90698708634,
			"-0.01": 6.41574533391,
			"-0.009": 5.73352391576,
			"-0.008": 9.53604848259,
			"-0.007": 9.25259281633,
			"-0.006": 13.3962481271,
			"-0.005": 25.0912304209,
			"-0.004": 38.2802286588,
			"-0.003": 40.9198864007,
			"-0.002": 31.3216222202,
			"-0.001": 25.6083393068,
			"0.0": 26.2247758684,
			"0.001": 17.0318591868,
			"0.002": 12.5857562664,
			"0.003": 12.2511948238,
			"0.004": 10.6345660482,
			"0.005": 11.6638390271,
			"0.006": 11.1169364494,
			"0.007": 14.2947300336,
			"0.008": 11.9827234596,
			"0.009": 6.47967357972,
			"0.01": 5.11417896899,
			"0.011": 8.66526269221,
			"0.012": 9.53477456962,
			"0.013": 3.22744378207,
			"0.014": 2.99733463196,
			"0.015": 1.33495619024,
			"0.016": 0.162747280258,
			"0.017": 0.0,
			"0.018": 0.0,
			"0.019": 0.0,
			"0.02": 0.0,
			"0.021": 0.0,
			"0.022": 0.0,
			"0.023": 0.0,
			"0.024": 0.0,
			"0.025": 0.0
		}
	}
}
