{
	 "smiles": "COC1=CC(CN2C(=O)NC(=O)C2=O)=CC=C1", 
	 "Tm": 413.15, 
	 "num_atms": 27, 
	 "gaussian": { 
		 "optdone": 1, 
		 "sigma_profile": "yes", 
		 "theory": "DFT", 
		 "functional": "B3LYP", 
		 "basiset": "6-31G**", 
		 "properties": { 
			 "R2extent": 4763.3074, 
			 "electric_dipole_moment_norm": 3.38749899631, 
			 "electric_quadrupole_moment_norm": 17.0356889315, 
			 "total_energy": -835.622522736, 
			 "HOMO_LUMO_gap": 0.1359, 
			 "cosmo_polarized_energy": -17.2, 
			 "cosmo_cavitation_energy": 32.82, 
			 "cosmo_dispersion_energy": -22.86, 
			 "cosmo_repulsion_energy": 1.77, 
			 "cosmo_total_nonelectrostatic_energy": 11.73, 
			 "SMD_solvation_energy": 8.56 
		},
		"coords": [
			{
				"x": -2.3197780027,
				"y": 3.6263309678,
				"z": 1.1408135266,
				"element": "C" 
			},
			{
				"x": -1.9602879506,
				"y": 3.3542298323,
				"z": -0.205733869,
				"element": "O" 
			},
			{
				"x": -0.9973574951,
				"y": 2.4177811942,
				"z": -0.4403063455,
				"element": "C" 
			},
			{
				"x": -0.3247466105,
				"y": 1.7073526282,
				"z": 0.5592375432,
				"element": "C" 
			},
			{
				"x": 0.651114973,
				"y": 0.7625949464,
				"z": 0.2066915032,
				"element": "C" 
			},
			{
				"x": 1.3597137598,
				"y": -0.0177418695,
				"z": 1.2957357864,
				"element": "C" 
			},
			{
				"x": 0.6306669723,
				"y": -1.2266107409,
				"z": 1.7072642854,
				"element": "N" 
			},
			{
				"x": -0.3747734595,
				"y": -1.2246859072,
				"z": 2.6809070286,
				"element": "C" 
			},
			{
				"x": -0.7482613581,
				"y": -0.2788718676,
				"z": 3.3367713597,
				"element": "O" 
			},
			{
				"x": -0.8566268538,
				"y": -2.5372549872,
				"z": 2.7541162954,
				"element": "N" 
			},
			{
				"x": -0.2167117516,
				"y": -3.3947930339,
				"z": 1.8704730917,
				"element": "C" 
			},
			{
				"x": -0.4050673692,
				"y": -4.573540738,
				"z": 1.705600098,
				"element": "O" 
			},
			{
				"x": 0.8030887389,
				"y": -2.4808945815,
				"z": 1.140354613,
				"element": "C" 
			},
			{
				"x": 1.5831154899,
				"y": -2.7949121714,
				"z": 0.2730093895,
				"element": "O" 
			},
			{
				"x": 0.9520283558,
				"y": 0.5282886296,
				"z": -1.1360320978,
				"element": "C" 
			},
			{
				"x": 0.2756186032,
				"y": 1.2455604625,
				"z": -2.1288395908,
				"element": "C" 
			},
			{
				"x": -0.6906444854,
				"y": 2.1844722634,
				"z": -1.7905279688,
				"element": "C" 
			},
			{
				"x": -3.101828444,
				"y": 4.3856769259,
				"z": 1.0954147194,
				"element": "H" 
			},
			{
				"x": -1.4702603461,
				"y": 4.0172002112,
				"z": 1.715366134,
				"element": "H" 
			},
			{
				"x": -2.7105289076,
				"y": 2.7332032767,
				"z": 1.644499101,
				"element": "H" 
			},
			{
				"x": -0.551764996,
				"y": 1.8616942553,
				"z": 1.6075133614,
				"element": "H" 
			},
			{
				"x": 2.3383964005,
				"y": -0.3603477132,
				"z": 0.9532569852,
				"element": "H" 
			},
			{
				"x": 1.4922664837,
				"y": 0.5899919448,
				"z": 2.1933932934,
				"element": "H" 
			},
			{
				"x": -1.5910067186,
				"y": -2.8049899199,
				"z": 3.3947629899,
				"element": "H" 
			},
			{
				"x": 1.6997637587,
				"y": -0.2124094788,
				"z": -1.4027164907,
				"element": "H" 
			},
			{
				"x": 0.5072325215,
				"y": 1.069650051,
				"z": -3.1752695481,
				"element": "H" 
			},
			{
				"x": -1.2229613083,
				"y": 2.7509254198,
				"z": -2.5475551941,
				"element": "H" 
			}
		],
		 "valence_orbital": [ 
			{
				"type": "occ",
				"energy": -0.30492,
				"method": "rhf"
			},
			{
				"type": "occ",
				"energy": -0.29508,
				"method": "rhf"
			},
			{
				"type": "occ",
				"energy": -0.27894,
				"method": "rhf"
			},
			{
				"type": "occ",
				"energy": -0.25526,
				"method": "rhf"
			},
			{
				"type": "occ",
				"energy": -0.22503,
				"method": "rhf"
			},
			{
				"type": "unocc",
				"energy": -0.08913,
				"method": "rhf"
			},
			{
				"type": "unocc",
				"energy": -0.01494,
				"method": "rhf"
			},
			{
				"type": "unocc",
				"energy": 0.00476,
				"method": "rhf"
			},
			{
				"type": "unocc",
				"energy": 0.02967,
				"method": "rhf"
			},
			{
				"type": "unocc",
				"energy": 0.06603,
				"method": "rhf"
			}
		],
		"cosmo_sigma_profile": { 
			"-0.025": 0.0,
			"-0.024": 0.0,
			"-0.023": 0.0,
			"-0.022": 0.0,
			"-0.021": 0.0,
			"-0.02": 0.0,
			"-0.019": 0.0,
			"-0.018": 0.85843888785,
			"-0.017": 1.90155845071,
			"-0.016": 0.558404275036,
			"-0.015": 0.894435264887,
			"-0.014": 1.04856319143,
			"-0.013": 1.22681359311,
			"-0.012": 1.17422392312,
			"-0.011": 0.476241298851,
			"-0.01": 1.94095328545,
			"-0.009": 3.1598200143,
			"-0.008": 2.88205212618,
			"-0.007": 5.76156464206,
			"-0.006": 14.8586410339,
			"-0.005": 23.8888834389,
			"-0.004": 28.2997180728,
			"-0.003": 20.2792741844,
			"-0.002": 11.6942225954,
			"-0.001": 12.0371301441,
			"0.0": 12.5807552557,
			"0.001": 12.2436893834,
			"0.002": 11.5099574008,
			"0.003": 15.0053436226,
			"0.004": 13.7969756125,
			"0.005": 12.3956804451,
			"0.006": 7.67623883219,
			"0.007": 6.46400389489,
			"0.008": 7.03830318737,
			"0.009": 10.3274872917,
			"0.01": 14.7018323391,
			"0.011": 5.63073022056,
			"0.012": 0.0712134726363,
			"0.013": 0.0,
			"0.014": 0.0,
			"0.015": 0.0,
			"0.016": 0.0,
			"0.017": 0.0,
			"0.018": 0.0,
			"0.019": 0.0,
			"0.02": 0.0,
			"0.021": 0.0,
			"0.022": 0.0,
			"0.023": 0.0,
			"0.024": 0.0,
			"0.025": 0.0
		}
	}
}
