{
	 "smiles": "CC1=CC(=C(O)C(C)=C1CC1=NCCN1)C(C)(C)C", 
	 "Tm": 455.15, 
	 "num_atms": 43, 
	 "gaussian": { 
		 "optdone": 1, 
		 "sigma_profile": "yes", 
		 "theory": "DFT", 
		 "functional": "B3LYP", 
		 "basiset": "6-31G**", 
		 "properties": { 
			 "R2extent": 6263.8445, 
			 "electric_dipole_moment_norm": 1.2350411896, 
			 "electric_quadrupole_moment_norm": 13.0710945586, 
			 "total_energy": -808.909677447, 
			 "HOMO_LUMO_gap": 0.2085, 
			 "cosmo_polarized_energy": -11.94, 
			 "cosmo_cavitation_energy": 41.37, 
			 "cosmo_dispersion_energy": -28.99, 
			 "cosmo_repulsion_energy": 2.25, 
			 "cosmo_total_nonelectrostatic_energy": 14.63, 
			 "SMD_solvation_energy": 2.88 
		},
		"coords": [
			{
				"x": 0.4580544477,
				"y": 2.0119637957,
				"z": 2.0487342488,
				"element": "C" 
			},
			{
				"x": 0.0516025919,
				"y": 0.9032797925,
				"z": 1.0975366351,
				"element": "C" 
			},
			{
				"x": -0.027201946,
				"y": -0.408224312,
				"z": 1.5810890124,
				"element": "C" 
			},
			{
				"x": -0.4181408928,
				"y": -1.5037914647,
				"z": 0.8061284097,
				"element": "C" 
			},
			{
				"x": -0.7339949363,
				"y": -1.2227325585,
				"z": -0.5393189344,
				"element": "C" 
			},
			{
				"x": -1.1329037997,
				"y": -2.2684435416,
				"z": -1.3386691646,
				"element": "O" 
			},
			{
				"x": -0.6452773136,
				"y": 0.0738554433,
				"z": -1.0802057336,
				"element": "C" 
			},
			{
				"x": -0.9730669437,
				"y": 0.2605002478,
				"z": -2.5495871866,
				"element": "C" 
			},
			{
				"x": -0.2670060503,
				"y": 1.1485625857,
				"z": -0.2509990105,
				"element": "C" 
			},
			{
				"x": -0.1961495093,
				"y": 2.5622053248,
				"z": -0.8140488025,
				"element": "C" 
			},
			{
				"x": 1.0404461255,
				"y": 2.8270114391,
				"z": -1.6372942505,
				"element": "C" 
			},
			{
				"x": 1.0171130235,
				"y": 3.3367506385,
				"z": -2.8160478498,
				"element": "N" 
			},
			{
				"x": 2.4249897394,
				"y": 3.4811532918,
				"z": -3.2301198338,
				"element": "C" 
			},
			{
				"x": 3.2543821475,
				"y": 2.6573778078,
				"z": -2.2064538988,
				"element": "C" 
			},
			{
				"x": 2.2990350201,
				"y": 2.5662898155,
				"z": -1.091358121,
				"element": "N" 
			},
			{
				"x": -0.5016291853,
				"y": -2.9295141315,
				"z": 1.3906685529,
				"element": "C" 
			},
			{
				"x": -0.096848927,
				"y": -2.9653957832,
				"z": 2.8785213588,
				"element": "C" 
			},
			{
				"x": -1.9537074697,
				"y": -3.4597926752,
				"z": 1.2927095498,
				"element": "C" 
			},
			{
				"x": 0.4584036816,
				"y": -3.8750105968,
				"z": 0.6267194197,
				"element": "C" 
			},
			{
				"x": 0.7502679281,
				"y": 1.5961717867,
				"z": 3.0167937166,
				"element": "H" 
			},
			{
				"x": -0.3631665305,
				"y": 2.7158809493,
				"z": 2.234270936,
				"element": "H" 
			},
			{
				"x": 1.3029719684,
				"y": 2.600647822,
				"z": 1.6743390676,
				"element": "H" 
			},
			{
				"x": 0.2241953398,
				"y": -0.5679233323,
				"z": 2.6229139212,
				"element": "H" 
			},
			{
				"x": -1.3807422188,
				"y": -1.9274566802,
				"z": -2.2063591567,
				"element": "H" 
			},
			{
				"x": -0.6650379698,
				"y": 1.2350475835,
				"z": -2.9274902381,
				"element": "H" 
			},
			{
				"x": -0.4507846296,
				"y": -0.4798185631,
				"z": -3.1717213333,
				"element": "H" 
			},
			{
				"x": -2.0497807545,
				"y": 0.1571249989,
				"z": -2.7476653425,
				"element": "H" 
			},
			{
				"x": -1.0568063704,
				"y": 2.7883889224,
				"z": -1.4464812257,
				"element": "H" 
			},
			{
				"x": -0.2141929676,
				"y": 3.2854098164,
				"z": 0.0064729821,
				"element": "H" 
			},
			{
				"x": 2.6999854856,
				"y": 4.5441021865,
				"z": -3.1960111145,
				"element": "H" 
			},
			{
				"x": 2.5656301169,
				"y": 3.1431584764,
				"z": -4.2615735213,
				"element": "H" 
			},
			{
				"x": 4.1811858807,
				"y": 3.1531314289,
				"z": -1.9037063451,
				"element": "H" 
			},
			{
				"x": 3.5084201663,
				"y": 1.6618624991,
				"z": -2.5985378241,
				"element": "H" 
			},
			{
				"x": 2.3615429352,
				"y": 1.7598415558,
				"z": -0.4814888605,
				"element": "H" 
			},
			{
				"x": -0.7545295431,
				"y": -2.3488696081,
				"z": 3.5002410906,
				"element": "H" 
			},
			{
				"x": -0.1686598064,
				"y": -3.9942786184,
				"z": 3.245615343,
				"element": "H" 
			},
			{
				"x": 0.9350517685,
				"y": -2.6329995973,
				"z": 3.0337454952,
				"element": "H" 
			},
			{
				"x": -2.0126088374,
				"y": -4.4689204871,
				"z": 1.7169065815,
				"element": "H" 
			},
			{
				"x": -2.2981820639,
				"y": -3.5022251538,
				"z": 0.2589286374,
				"element": "H" 
			},
			{
				"x": -2.637756528,
				"y": -2.8176717105,
				"z": 1.8582920064,
				"element": "H" 
			},
			{
				"x": 1.4943355424,
				"y": -3.5306036415,
				"z": 0.7198696457,
				"element": "H" 
			},
			{
				"x": 0.4020128053,
				"y": -4.8853456884,
				"z": 1.0482858343,
				"element": "H" 
			},
			{
				"x": 0.2096484796,
				"y": -3.932400064,
				"z": -0.4335446968,
				"element": "H" 
			}
		],
		 "valence_orbital": [ 
			{
				"type": "occ",
				"energy": -0.303,
				"method": "rhf"
			},
			{
				"type": "occ",
				"energy": -0.25628,
				"method": "rhf"
			},
			{
				"type": "occ",
				"energy": -0.23302,
				"method": "rhf"
			},
			{
				"type": "occ",
				"energy": -0.21648,
				"method": "rhf"
			},
			{
				"type": "occ",
				"energy": -0.20894,
				"method": "rhf"
			},
			{
				"type": "unocc",
				"energy": -0.00044,
				"method": "rhf"
			},
			{
				"type": "unocc",
				"energy": 0.01083,
				"method": "rhf"
			},
			{
				"type": "unocc",
				"energy": 0.03705,
				"method": "rhf"
			},
			{
				"type": "unocc",
				"energy": 0.06946,
				"method": "rhf"
			},
			{
				"type": "unocc",
				"energy": 0.08626,
				"method": "rhf"
			}
		],
		"cosmo_sigma_profile": { 
			"-0.025": 0.0,
			"-0.024": 0.0,
			"-0.023": 0.0,
			"-0.022": 0.0,
			"-0.021": 0.0,
			"-0.02": 0.0,
			"-0.019": 0.0,
			"-0.018": 0.0,
			"-0.017": 0.0,
			"-0.016": 0.0301406993928,
			"-0.015": 0.462643677622,
			"-0.014": 1.01519153622,
			"-0.013": 1.05495674782,
			"-0.012": 0.791375314191,
			"-0.011": 1.46896631008,
			"-0.01": 1.65899466473,
			"-0.009": 2.45421894514,
			"-0.008": 2.02374047103,
			"-0.007": 2.16638750151,
			"-0.006": 3.67030063466,
			"-0.005": 8.26228078175,
			"-0.004": 22.4291700876,
			"-0.003": 31.3640595121,
			"-0.002": 45.005916661,
			"-0.001": 37.5840594804,
			"0.0": 33.9687269135,
			"0.001": 31.839579861,
			"0.002": 27.2355575931,
			"0.003": 13.7689348969,
			"0.004": 13.0929065729,
			"0.005": 11.2935548024,
			"0.006": 10.3540695146,
			"0.007": 5.59893183865,
			"0.008": 2.4562500149,
			"0.009": 1.4581196979,
			"0.01": 1.73728316962,
			"0.011": 1.75227929754,
			"0.012": 0.994551799533,
			"0.013": 0.952617858427,
			"0.014": 0.594167169834,
			"0.015": 0.906055701413,
			"0.016": 0.560566739805,
			"0.017": 1.03298398904,
			"0.018": 0.6847542233,
			"0.019": 0.551738713262,
			"0.02": 0.0102977772614,
			"0.021": 0.0,
			"0.022": 0.0,
			"0.023": 0.0,
			"0.024": 0.0,
			"0.025": 0.0
		}
	}
}
