{
	 "smiles": "NC(CP(O)(O)=O)C(O)=O", 
	 "Tm": 501.15, 
	 "num_atms": 18, 
	 "gaussian": { 
		 "optdone": 1, 
		 "sigma_profile": "yes", 
		 "theory": "DFT", 
		 "functional": "B3LYP", 
		 "basiset": "6-31G**", 
		 "properties": { 
			 "R2extent": 2241.09, 
			 "electric_dipole_moment_norm": 2.58459186333, 
			 "electric_quadrupole_moment_norm": 11.8264419497, 
			 "total_energy": -891.448645727, 
			 "HOMO_LUMO_gap": 0.2343, 
			 "cosmo_polarized_energy": -22.13, 
			 "cosmo_cavitation_energy": 22.9, 
			 "cosmo_dispersion_energy": -17.43, 
			 "cosmo_repulsion_energy": 1.41, 
			 "cosmo_total_nonelectrostatic_energy": 6.88, 
			 "SMD_solvation_energy": 5.9 
		},
		"coords": [
			{
				"x": 1.6564419664,
				"y": -2.4650573743,
				"z": -2.0852974322,
				"element": "N" 
			},
			{
				"x": 1.7156934262,
				"y": -1.0123576422,
				"z": -2.1728230209,
				"element": "C" 
			},
			{
				"x": 1.7753563077,
				"y": -0.3857997489,
				"z": -0.764611601,
				"element": "C" 
			},
			{
				"x": 0.198011692,
				"y": -0.5022095304,
				"z": 0.1558166847,
				"element": "P" 
			},
			{
				"x": 0.6477043933,
				"y": -0.5221787506,
				"z": 1.7092114206,
				"element": "O" 
			},
			{
				"x": -0.4705152018,
				"y": 0.9676676872,
				"z": 0.056900208,
				"element": "O" 
			},
			{
				"x": -0.6566351806,
				"y": -1.6482253891,
				"z": -0.2664686478,
				"element": "O" 
			},
			{
				"x": 0.6356276534,
				"y": -0.4432996345,
				"z": -3.107992413,
				"element": "C" 
			},
			{
				"x": 0.1756455322,
				"y": 0.8026010229,
				"z": -2.7607418428,
				"element": "O" 
			},
			{
				"x": 0.2448690267,
				"y": -0.9978345471,
				"z": -4.1057109146,
				"element": "O" 
			},
			{
				"x": 1.5881081919,
				"y": -2.8467112609,
				"z": -3.0258406932,
				"element": "H" 
			},
			{
				"x": 0.7929540499,
				"y": -2.716301403,
				"z": -1.6025322589,
				"element": "H" 
			},
			{
				"x": 2.6588676134,
				"y": -0.7455687991,
				"z": -2.6733367837,
				"element": "H" 
			},
			{
				"x": 2.0851613618,
				"y": 0.6615336415,
				"z": -0.8050063919,
				"element": "H" 
			},
			{
				"x": 2.528369095,
				"y": -0.9413445908,
				"z": -0.1995527508,
				"element": "H" 
			},
			{
				"x": 0.0916994441,
				"y": -1.1389772475,
				"z": 2.2069197342,
				"element": "H" 
			},
			{
				"x": -0.5514229812,
				"y": 1.2106133691,
				"z": -0.8813932862,
				"element": "H" 
			},
			{
				"x": -0.4517363905,
				"y": 1.0529501975,
				"z": -3.4623400104,
				"element": "H" 
			}
		],
		 "valence_orbital": [ 
			{
				"type": "occ",
				"energy": -0.33141,
				"method": "rhf"
			},
			{
				"type": "occ",
				"energy": -0.30072,
				"method": "rhf"
			},
			{
				"type": "occ",
				"energy": -0.29513,
				"method": "rhf"
			},
			{
				"type": "occ",
				"energy": -0.29086,
				"method": "rhf"
			},
			{
				"type": "occ",
				"energy": -0.25006,
				"method": "rhf"
			},
			{
				"type": "unocc",
				"energy": -0.01576,
				"method": "rhf"
			},
			{
				"type": "unocc",
				"energy": 0.03926,
				"method": "rhf"
			},
			{
				"type": "unocc",
				"energy": 0.05282,
				"method": "rhf"
			},
			{
				"type": "unocc",
				"energy": 0.07732,
				"method": "rhf"
			},
			{
				"type": "unocc",
				"energy": 0.08936,
				"method": "rhf"
			}
		],
		"cosmo_sigma_profile": { 
			"-0.025": 0.0,
			"-0.024": 0.0,
			"-0.023": 0.0,
			"-0.022": 0.0,
			"-0.021": 0.0,
			"-0.02": 0.0787830043554,
			"-0.019": 1.19838772106,
			"-0.018": 2.45077675417,
			"-0.017": 1.22874077693,
			"-0.016": 2.62456465505,
			"-0.015": 1.22285556032,
			"-0.014": 1.31398146057,
			"-0.013": 2.10146226666,
			"-0.012": 2.74518578224,
			"-0.011": 2.60511574297,
			"-0.01": 2.48380025644,
			"-0.009": 2.98562893955,
			"-0.008": 6.38308044124,
			"-0.007": 10.1983930185,
			"-0.006": 10.3142619265,
			"-0.005": 9.68530863389,
			"-0.004": 9.5123662501,
			"-0.003": 8.45655093657,
			"-0.002": 6.01211188441,
			"-0.001": 5.62297720585,
			"0.0": 6.36785754196,
			"0.001": 5.81700701858,
			"0.002": 5.53250748115,
			"0.003": 6.51527751188,
			"0.004": 4.54705920757,
			"0.005": 5.68416016295,
			"0.006": 4.81656763072,
			"0.007": 6.43978032683,
			"0.008": 4.72236390672,
			"0.009": 6.74034162449,
			"0.01": 9.06101846405,
			"0.011": 7.90761989724,
			"0.012": 2.96460884364,
			"0.013": 2.2014762878,
			"0.014": 3.25016890112,
			"0.015": 3.13933802266,
			"0.016": 0.818824404728,
			"0.017": 0.522633241265,
			"0.018": 0.355447038716,
			"0.019": 0.0639572125325,
			"0.02": 0.0,
			"0.021": 0.0,
			"0.022": 0.0,
			"0.023": 0.0,
			"0.024": 0.0,
			"0.025": 0.0
		}
	}
}
