{
	 "smiles": "NC(=O)C1=C(N)SC2=C1C1=C(CCC2)C=CC=C1", 
	 "Tm": 419.15, 
	 "num_atms": 32, 
	 "gaussian": { 
		 "optdone": 1, 
		 "sigma_profile": "yes", 
		 "theory": "DFT", 
		 "functional": "B3LYP", 
		 "basiset": "6-31G**", 
		 "properties": { 
			 "R2extent": 4813.9698, 
			 "electric_dipole_moment_norm": 2.5291826229, 
			 "electric_quadrupole_moment_norm": 11.3789942064, 
			 "total_energy": -1124.87227996, 
			 "HOMO_LUMO_gap": 0.16278, 
			 "cosmo_polarized_energy": -12.69, 
			 "cosmo_cavitation_energy": 34.6, 
			 "cosmo_dispersion_energy": -25.69, 
			 "cosmo_repulsion_energy": 1.93, 
			 "cosmo_total_nonelectrostatic_energy": 10.84, 
			 "SMD_solvation_energy": 5.08 
		},
		"coords": [
			{
				"x": 1.7791809244,
				"y": -0.2444203857,
				"z": 2.0960403616,
				"element": "N" 
			},
			{
				"x": 1.2280531704,
				"y": -1.4620520584,
				"z": 1.8212812149,
				"element": "C" 
			},
			{
				"x": 1.3711934105,
				"y": -2.3929982617,
				"z": 2.6338357679,
				"element": "O" 
			},
			{
				"x": 0.4286917999,
				"y": -1.6169226784,
				"z": 0.5873266476,
				"element": "C" 
			},
			{
				"x": -0.4029226823,
				"y": -2.7324449287,
				"z": 0.4773140079,
				"element": "C" 
			},
			{
				"x": -0.5586717298,
				"y": -3.7371384738,
				"z": 1.3814677615,
				"element": "N" 
			},
			{
				"x": -1.3954065042,
				"y": -2.6624284398,
				"z": -0.9630281564,
				"element": "S" 
			},
			{
				"x": -0.6731399895,
				"y": -1.1379481818,
				"z": -1.4505354878,
				"element": "C" 
			},
			{
				"x": 0.270695244,
				"y": -0.7179306416,
				"z": -0.5501644967,
				"element": "C" 
			},
			{
				"x": 1.0578019373,
				"y": 0.5032217523,
				"z": -0.8712145318,
				"element": "C" 
			},
			{
				"x": 0.3936645022,
				"y": 1.6798982531,
				"z": -1.3005779768,
				"element": "C" 
			},
			{
				"x": -1.1188990608,
				"y": 1.7261105635,
				"z": -1.356299582,
				"element": "C" 
			},
			{
				"x": -1.7361678056,
				"y": 0.9164845479,
				"z": -2.5214217225,
				"element": "C" 
			},
			{
				"x": -1.0465229102,
				"y": -0.4531483661,
				"z": -2.7361566599,
				"element": "C" 
			},
			{
				"x": 1.1578921599,
				"y": 2.7943010976,
				"z": -1.6655389259,
				"element": "C" 
			},
			{
				"x": 2.5520781282,
				"y": 2.7685407175,
				"z": -1.6212226999,
				"element": "C" 
			},
			{
				"x": 3.2074061425,
				"y": 1.6072694906,
				"z": -1.2104485739,
				"element": "C" 
			},
			{
				"x": 2.4642886674,
				"y": 0.4856319962,
				"z": -0.8439270561,
				"element": "C" 
			},
			{
				"x": 1.7537759264,
				"y": 0.5292095861,
				"z": 1.4524522828,
				"element": "H" 
			},
			{
				"x": 2.3404609219,
				"y": -0.182528465,
				"z": 2.931070457,
				"element": "H" 
			},
			{
				"x": -0.9458460603,
				"y": -4.6160537342,
				"z": 1.0766451128,
				"element": "H" 
			},
			{
				"x": 0.1650136428,
				"y": -3.7292733914,
				"z": 2.0999753414,
				"element": "H" 
			},
			{
				"x": -1.4549077715,
				"y": 2.7664422239,
				"z": -1.4238536051,
				"element": "H" 
			},
			{
				"x": -1.5149211945,
				"y": 1.3250160442,
				"z": -0.4165421346,
				"element": "H" 
			},
			{
				"x": -2.8038407065,
				"y": 0.7753130437,
				"z": -2.3147650949,
				"element": "H" 
			},
			{
				"x": -1.6662039175,
				"y": 1.4859428313,
				"z": -3.4563340005,
				"element": "H" 
			},
			{
				"x": -0.129487569,
				"y": -0.2913942885,
				"z": -3.3172213347,
				"element": "H" 
			},
			{
				"x": -1.6868977831,
				"y": -1.0969030264,
				"z": -3.3479205349,
				"element": "H" 
			},
			{
				"x": 0.6468975855,
				"y": 3.699205296,
				"z": -1.9856444461,
				"element": "H" 
			},
			{
				"x": 3.1215909501,
				"y": 3.6477356241,
				"z": -1.9086009526,
				"element": "H" 
			},
			{
				"x": 4.2926167045,
				"y": 1.56871954,
				"z": -1.1838602302,
				"element": "H" 
			},
			{
				"x": 2.9736338668,
				"y": -0.4241572863,
				"z": -0.5413307521,
				"element": "H" 
			}
		],
		 "valence_orbital": [ 
			{
				"type": "occ",
				"energy": -0.25598,
				"method": "rhf"
			},
			{
				"type": "occ",
				"energy": -0.24768,
				"method": "rhf"
			},
			{
				"type": "occ",
				"energy": -0.24456,
				"method": "rhf"
			},
			{
				"type": "occ",
				"energy": -0.2316,
				"method": "rhf"
			},
			{
				"type": "occ",
				"energy": -0.18529,
				"method": "rhf"
			},
			{
				"type": "unocc",
				"energy": -0.02251,
				"method": "rhf"
			},
			{
				"type": "unocc",
				"energy": -0.00571,
				"method": "rhf"
			},
			{
				"type": "unocc",
				"energy": -0.00333,
				"method": "rhf"
			},
			{
				"type": "unocc",
				"energy": 0.01303,
				"method": "rhf"
			},
			{
				"type": "unocc",
				"energy": 0.03539,
				"method": "rhf"
			}
		],
		"cosmo_sigma_profile": { 
			"-0.025": 0.0,
			"-0.024": 0.0,
			"-0.023": 0.0,
			"-0.022": 0.0,
			"-0.021": 0.0,
			"-0.02": 0.0,
			"-0.019": 0.0,
			"-0.018": 0.0,
			"-0.017": 0.0,
			"-0.016": 0.0,
			"-0.015": 0.0322390785451,
			"-0.014": 1.32946668484,
			"-0.013": 2.06365413907,
			"-0.012": 2.84596060656,
			"-0.011": 1.79531435015,
			"-0.01": 2.32697378207,
			"-0.009": 3.4757104039,
			"-0.008": 3.47861777509,
			"-0.007": 3.09369381976,
			"-0.006": 6.85004061067,
			"-0.005": 12.8951765411,
			"-0.004": 16.777261322,
			"-0.003": 23.9896239549,
			"-0.002": 26.9504828304,
			"-0.001": 23.7267832439,
			"0.0": 24.8223646886,
			"0.001": 17.7719526276,
			"0.002": 17.5917655058,
			"0.003": 21.7617439075,
			"0.004": 21.7521181471,
			"0.005": 15.4497419901,
			"0.006": 6.6257695104,
			"0.007": 3.30106744756,
			"0.008": 1.65854211244,
			"0.009": 2.34559429581,
			"0.01": 2.19146191984,
			"0.011": 1.31107517924,
			"0.012": 1.93215325156,
			"0.013": 2.21755770746,
			"0.014": 2.17869270137,
			"0.015": 1.48999256394,
			"0.016": 0.0458293956123,
			"0.017": 0.0,
			"0.018": 0.0,
			"0.019": 0.0,
			"0.02": 0.0,
			"0.021": 0.0,
			"0.022": 0.0,
			"0.023": 0.0,
			"0.024": 0.0,
			"0.025": 0.0
		}
	}
}
