{
	 "smiles": "SC1=NN=C(NCC=C)S1", 
	 "Tm": 407.15, 
	 "num_atms": 17, 
	 "gaussian": { 
		 "optdone": 1, 
		 "sigma_profile": "yes", 
		 "theory": "DFT", 
		 "functional": "B3LYP", 
		 "basiset": "6-31G**", 
		 "properties": { 
			 "R2extent": 3783.9393, 
			 "electric_dipole_moment_norm": 4.69338048958, 
			 "electric_quadrupole_moment_norm": 17.5627273787, 
			 "total_energy": -1155.30939246, 
			 "HOMO_LUMO_gap": 0.19306, 
			 "cosmo_polarized_energy": -14.06, 
			 "cosmo_cavitation_energy": 25.15, 
			 "cosmo_dispersion_energy": -19.36, 
			 "cosmo_repulsion_energy": 1.49, 
			 "cosmo_total_nonelectrostatic_energy": 7.28, 
			 "SMD_solvation_energy": 1.92 
		},
		"coords": [
			{
				"x": -5.0617972596,
				"y": -0.7258132918,
				"z": 1.6577624151,
				"element": "S" 
			},
			{
				"x": -3.697317532,
				"y": -0.059287323,
				"z": 0.7493769817,
				"element": "C" 
			},
			{
				"x": -3.8346215593,
				"y": 0.7240722539,
				"z": -0.2747939499,
				"element": "N" 
			},
			{
				"x": -2.662304973,
				"y": 1.218455529,
				"z": -0.762204238,
				"element": "N" 
			},
			{
				"x": -1.6108995616,
				"y": 0.778181819,
				"z": -0.1056142347,
				"element": "C" 
			},
			{
				"x": -0.3364957405,
				"y": 1.0690825277,
				"z": -0.4923837336,
				"element": "N" 
			},
			{
				"x": 0.804122599,
				"y": 1.0258715896,
				"z": 0.4089669355,
				"element": "C" 
			},
			{
				"x": 2.1203041724,
				"y": 1.0571470315,
				"z": -0.3236520275,
				"element": "C" 
			},
			{
				"x": 2.293638092,
				"y": 0.8671211917,
				"z": -1.6309156699,
				"element": "C" 
			},
			{
				"x": -2.0034302507,
				"y": -0.2723807476,
				"z": 1.2517724061,
				"element": "S" 
			},
			{
				"x": -4.7924127114,
				"y": -2.0292946971,
				"z": 1.4269044069,
				"element": "H" 
			},
			{
				"x": -0.3090549769,
				"y": 1.7855099548,
				"z": -1.2092311346,
				"element": "H" 
			},
			{
				"x": 0.773850013,
				"y": 1.8504578191,
				"z": 1.1408457924,
				"element": "H" 
			},
			{
				"x": 0.744627748,
				"y": 0.098888198,
				"z": 0.9960121187,
				"element": "H" 
			},
			{
				"x": 2.9809660487,
				"y": 1.2536588779,
				"z": 0.3135100712,
				"element": "H" 
			},
			{
				"x": 1.4640681722,
				"y": 0.652001246,
				"z": -2.2977512676,
				"element": "H" 
			},
			{
				"x": 3.2825577196,
				"y": 0.908428021,
				"z": -2.0758048718,
				"element": "H" 
			}
		],
		 "valence_orbital": [ 
			{
				"type": "occ",
				"energy": -0.29588,
				"method": "rhf"
			},
			{
				"type": "occ",
				"energy": -0.27895,
				"method": "rhf"
			},
			{
				"type": "occ",
				"energy": -0.27069,
				"method": "rhf"
			},
			{
				"type": "occ",
				"energy": -0.25901,
				"method": "rhf"
			},
			{
				"type": "occ",
				"energy": -0.22709,
				"method": "rhf"
			},
			{
				"type": "unocc",
				"energy": -0.03403,
				"method": "rhf"
			},
			{
				"type": "unocc",
				"energy": -0.01347,
				"method": "rhf"
			},
			{
				"type": "unocc",
				"energy": 0.00535,
				"method": "rhf"
			},
			{
				"type": "unocc",
				"energy": 0.02316,
				"method": "rhf"
			},
			{
				"type": "unocc",
				"energy": 0.04037,
				"method": "rhf"
			}
		],
		"cosmo_sigma_profile": { 
			"-0.025": 0.0,
			"-0.024": 0.0,
			"-0.023": 0.0,
			"-0.022": 0.0,
			"-0.021": 0.0,
			"-0.02": 0.0,
			"-0.019": 0.0,
			"-0.018": 0.0,
			"-0.017": 0.0,
			"-0.016": 0.0,
			"-0.015": 0.0,
			"-0.014": 0.218980250174,
			"-0.013": 0.845423535013,
			"-0.012": 1.55032010594,
			"-0.011": 3.18870376536,
			"-0.01": 2.38867018307,
			"-0.009": 3.5201351655,
			"-0.008": 3.06379018298,
			"-0.007": 5.54075009901,
			"-0.006": 10.690858568,
			"-0.005": 16.8964943616,
			"-0.004": 13.8383743634,
			"-0.003": 11.3828726159,
			"-0.002": 13.1493882718,
			"-0.001": 15.1094110642,
			"0.0": 16.5974745994,
			"0.001": 13.7098362965,
			"0.002": 13.4852903994,
			"0.003": 10.8442204866,
			"0.004": 9.12522404117,
			"0.005": 7.70983557295,
			"0.006": 6.67381580299,
			"0.007": 4.33448889859,
			"0.008": 3.06901886136,
			"0.009": 2.67089711623,
			"0.01": 3.18948563402,
			"0.011": 2.83387450588,
			"0.012": 3.6629444971,
			"0.013": 2.91282137034,
			"0.014": 2.29452539204,
			"0.015": 1.06195270437,
			"0.016": 0.00901354709165,
			"0.017": 0.0,
			"0.018": 0.0,
			"0.019": 0.0,
			"0.02": 0.0,
			"0.021": 0.0,
			"0.022": 0.0,
			"0.023": 0.0,
			"0.024": 0.0,
			"0.025": 0.0
		}
	}
}
