{
	 "smiles": "ClC1=C(C=CC=C1)N1CCCC(Br)C1=O", 
	 "Tm": 382.15, 
	 "num_atms": 26, 
	 "gaussian": { 
		 "optdone": 1, 
		 "sigma_profile": "yes", 
		 "theory": "DFT", 
		 "functional": "B3LYP", 
		 "basiset": "6-31G**", 
		 "properties": { 
			 "R2extent": 6280.0672, 
			 "electric_dipole_moment_norm": 4.81648692202, 
			 "electric_quadrupole_moment_norm": 19.8332023728, 
			 "total_energy": -3587.37986201, 
			 "HOMO_LUMO_gap": 0.2162, 
			 "cosmo_polarized_energy": -14.38, 
			 "cosmo_cavitation_energy": 32.51, 
			 "cosmo_dispersion_energy": -23.61, 
			 "cosmo_repulsion_energy": 1.85, 
			 "cosmo_total_nonelectrostatic_energy": 10.76, 
			 "SMD_solvation_energy": 4.25 
		},
		"coords": [
			{
				"x": -2.7443402106,
				"y": -0.1874275153,
				"z": -0.9747144181,
				"element": "Cl" 
			},
			{
				"x": -1.8652468682,
				"y": 1.1975383124,
				"z": -0.3405923523,
				"element": "C" 
			},
			{
				"x": -0.4617578548,
				"y": 1.2018108948,
				"z": -0.3177436138,
				"element": "C" 
			},
			{
				"x": 0.1884057277,
				"y": 2.354465844,
				"z": 0.1435546427,
				"element": "C" 
			},
			{
				"x": -0.5354822554,
				"y": 3.4592175487,
				"z": 0.5818285963,
				"element": "C" 
			},
			{
				"x": -1.9312279397,
				"y": 3.4262315271,
				"z": 0.5764198695,
				"element": "C" 
			},
			{
				"x": -2.5987163175,
				"y": 2.2938400487,
				"z": 0.1150559642,
				"element": "C" 
			},
			{
				"x": 0.2990485436,
				"y": 0.071926372,
				"z": -0.7398911906,
				"element": "N" 
			},
			{
				"x": 0.191553893,
				"y": -1.2093045417,
				"z": -0.0180953272,
				"element": "C" 
			},
			{
				"x": 1.5858908608,
				"y": -1.7082343019,
				"z": 0.3812471442,
				"element": "C" 
			},
			{
				"x": 2.5563999556,
				"y": -1.7387470308,
				"z": -0.8308457877,
				"element": "C" 
			},
			{
				"x": 1.8987805756,
				"y": -1.1363909126,
				"z": -2.0843979168,
				"element": "C" 
			},
			{
				"x": 3.2102193983,
				"y": -0.9485243338,
				"z": -3.53140699,
				"element": "Br" 
			},
			{
				"x": 1.2026001206,
				"y": 0.20142342,
				"z": -1.7851700493,
				"element": "C" 
			},
			{
				"x": 1.4002985872,
				"y": 1.2415914133,
				"z": -2.382866423,
				"element": "O" 
			},
			{
				"x": 1.2721543689,
				"y": 2.3699522255,
				"z": 0.1404931668,
				"element": "H" 
			},
			{
				"x": -0.0097490424,
				"y": 4.3418429942,
				"z": 0.9321426267,
				"element": "H" 
			},
			{
				"x": -2.5034990453,
				"y": 4.2810927242,
				"z": 0.9232210369,
				"element": "H" 
			},
			{
				"x": -3.6820298598,
				"y": 2.2552302173,
				"z": 0.0901579437,
				"element": "H" 
			},
			{
				"x": -0.4262868878,
				"y": -1.0439476235,
				"z": 0.8658668414,
				"element": "H" 
			},
			{
				"x": -0.3283513137,
				"y": -1.9530283824,
				"z": -0.6342931864,
				"element": "H" 
			},
			{
				"x": 1.4914034961,
				"y": -2.7037100063,
				"z": 0.8272499242,
				"element": "H" 
			},
			{
				"x": 1.9817169136,
				"y": -1.0455811343,
				"z": 1.1572874369,
				"element": "H" 
			},
			{
				"x": 2.8760276708,
				"y": -2.7581938496,
				"z": -1.061520504,
				"element": "H" 
			},
			{
				"x": 3.4617120094,
				"y": -1.1686037179,
				"z": -0.6073067065,
				"element": "H" 
			},
			{
				"x": 1.1520754742,
				"y": -1.8267701923,
				"z": -2.4847807277,
				"element": "H" 
			}
		],
		 "valence_orbital": [ 
			{
				"type": "occ",
				"energy": -0.27092,
				"method": "rhf"
			},
			{
				"type": "occ",
				"energy": -0.26969,
				"method": "rhf"
			},
			{
				"type": "occ",
				"energy": -0.26087,
				"method": "rhf"
			},
			{
				"type": "occ",
				"energy": -0.25229,
				"method": "rhf"
			},
			{
				"type": "occ",
				"energy": -0.24136,
				"method": "rhf"
			},
			{
				"type": "unocc",
				"energy": -0.02516,
				"method": "rhf"
			},
			{
				"type": "unocc",
				"energy": -0.0183,
				"method": "rhf"
			},
			{
				"type": "unocc",
				"energy": 0.0016,
				"method": "rhf"
			},
			{
				"type": "unocc",
				"energy": 0.01707,
				"method": "rhf"
			},
			{
				"type": "unocc",
				"energy": 0.0232,
				"method": "rhf"
			}
		],
		"cosmo_sigma_profile": { 
			"-0.025": 0.0,
			"-0.024": 0.0,
			"-0.023": 0.0,
			"-0.022": 0.0,
			"-0.021": 0.0,
			"-0.02": 0.0,
			"-0.019": 0.0,
			"-0.018": 0.0,
			"-0.017": 0.0,
			"-0.016": 0.0,
			"-0.015": 0.0,
			"-0.014": 0.0,
			"-0.013": 0.0,
			"-0.012": 0.0,
			"-0.011": 0.0,
			"-0.01": 0.00161179869234,
			"-0.009": 2.53805301966,
			"-0.008": 3.71635190649,
			"-0.007": 7.09784997498,
			"-0.006": 11.8081720022,
			"-0.005": 22.8027421367,
			"-0.004": 30.0279300324,
			"-0.003": 20.2304656881,
			"-0.002": 18.3202561281,
			"-0.001": 18.0543217257,
			"0.0": 14.6498211871,
			"0.001": 16.8268110175,
			"0.002": 18.3620212735,
			"0.003": 18.8947537223,
			"0.004": 19.2603827298,
			"0.005": 11.0661377001,
			"0.006": 7.70804564097,
			"0.007": 2.85710959063,
			"0.008": 1.64796837865,
			"0.009": 2.28459341876,
			"0.01": 2.29473023516,
			"0.011": 2.07135416756,
			"0.012": 3.85927599961,
			"0.013": 5.04088747281,
			"0.014": 1.67414732829,
			"0.015": 0.0267110323275,
			"0.016": 0.0,
			"0.017": 0.0,
			"0.018": 0.0,
			"0.019": 0.0,
			"0.02": 0.0,
			"0.021": 0.0,
			"0.022": 0.0,
			"0.023": 0.0,
			"0.024": 0.0,
			"0.025": 0.0
		}
	}
}
