{
	 "smiles": "FC(F)(F)C(=O)CC(=O)C1=CC=C(C=C1)C#N", 
	 "Tm": 402.15, 
	 "num_atms": 23, 
	 "gaussian": { 
		 "optdone": 1, 
		 "sigma_profile": "yes", 
		 "theory": "DFT", 
		 "functional": "B3LYP", 
		 "basiset": "6-31G**", 
		 "properties": { 
			 "R2extent": 5129.1464, 
			 "electric_dipole_moment_norm": 2.98288728584, 
			 "electric_quadrupole_moment_norm": 18.9701302644, 
			 "total_energy": -927.473185071, 
			 "HOMO_LUMO_gap": 0.17735, 
			 "cosmo_polarized_energy": -13.74, 
			 "cosmo_cavitation_energy": 31.42, 
			 "cosmo_dispersion_energy": -21.0, 
			 "cosmo_repulsion_energy": 1.56, 
			 "cosmo_total_nonelectrostatic_energy": 11.98, 
			 "SMD_solvation_energy": 9.03 
		},
		"coords": [
			{
				"x": 3.4919989554,
				"y": -2.4963844228,
				"z": -1.7890002984,
				"element": "F" 
			},
			{
				"x": 2.5878658569,
				"y": -1.5651071948,
				"z": -2.1548439457,
				"element": "C" 
			},
			{
				"x": 1.3745954237,
				"y": -2.1520908449,
				"z": -2.1990459138,
				"element": "F" 
			},
			{
				"x": 2.8971960992,
				"y": -1.1198687568,
				"z": -3.3705904234,
				"element": "F" 
			},
			{
				"x": 2.5557864532,
				"y": -0.4148062929,
				"z": -1.1169749004,
				"element": "C" 
			},
			{
				"x": 2.719058743,
				"y": 0.725534534,
				"z": -1.4816421453,
				"element": "O" 
			},
			{
				"x": 2.2990347674,
				"y": -0.8363827814,
				"z": 0.3199246469,
				"element": "C" 
			},
			{
				"x": 0.8130894935,
				"y": -1.1322049356,
				"z": 0.632253496,
				"element": "C" 
			},
			{
				"x": 0.463083208,
				"y": -2.2817360406,
				"z": 0.8211839305,
				"element": "O" 
			},
			{
				"x": -0.1546306782,
				"y": 0.0049985107,
				"z": 0.7331436084,
				"element": "C" 
			},
			{
				"x": -1.4832743831,
				"y": -0.3069004477,
				"z": 1.0700829287,
				"element": "C" 
			},
			{
				"x": -2.4346030785,
				"y": 0.6947459835,
				"z": 1.1934551804,
				"element": "C" 
			},
			{
				"x": -2.0656743627,
				"y": 2.0354466231,
				"z": 0.976287332,
				"element": "C" 
			},
			{
				"x": -0.7420391633,
				"y": 2.3548266908,
				"z": 0.6339355498,
				"element": "C" 
			},
			{
				"x": 0.2075011104,
				"y": 1.3439859887,
				"z": 0.5158915768,
				"element": "C" 
			},
			{
				"x": -3.0433442298,
				"y": 3.0773423874,
				"z": 1.1043953231,
				"element": "C" 
			},
			{
				"x": -3.8364462671,
				"y": 3.9214508916,
				"z": 1.2098103995,
				"element": "N" 
			},
			{
				"x": 2.6699980148,
				"y": -0.036915265,
				"z": 0.9660133894,
				"element": "H" 
			},
			{
				"x": 2.8357214182,
				"y": -1.7632885568,
				"z": 0.530140073,
				"element": "H" 
			},
			{
				"x": -1.7434439009,
				"y": -1.3470746981,
				"z": 1.231779969,
				"element": "H" 
			},
			{
				"x": -3.4595914164,
				"y": 0.4558851595,
				"z": 1.4556390984,
				"element": "H" 
			},
			{
				"x": -0.4662789126,
				"y": 3.3894882234,
				"z": 0.462132553,
				"element": "H" 
			},
			{
				"x": 1.2201968491,
				"y": 1.6074552448,
				"z": 0.2328285722,
				"element": "H" 
			}
		],
		 "valence_orbital": [ 
			{
				"type": "occ",
				"energy": -0.34405,
				"method": "rhf"
			},
			{
				"type": "occ",
				"energy": -0.30579,
				"method": "rhf"
			},
			{
				"type": "occ",
				"energy": -0.29345,
				"method": "rhf"
			},
			{
				"type": "occ",
				"energy": -0.28426,
				"method": "rhf"
			},
			{
				"type": "occ",
				"energy": -0.28281,
				"method": "rhf"
			},
			{
				"type": "unocc",
				"energy": -0.10546,
				"method": "rhf"
			},
			{
				"type": "unocc",
				"energy": -0.07641,
				"method": "rhf"
			},
			{
				"type": "unocc",
				"energy": -0.0414,
				"method": "rhf"
			},
			{
				"type": "unocc",
				"energy": -0.01569,
				"method": "rhf"
			},
			{
				"type": "unocc",
				"energy": 0.02318,
				"method": "rhf"
			}
		],
		"cosmo_sigma_profile": { 
			"-0.025": 0.0,
			"-0.024": 0.0,
			"-0.023": 0.0,
			"-0.022": 0.0,
			"-0.021": 0.0,
			"-0.02": 0.0,
			"-0.019": 0.0,
			"-0.018": 0.0,
			"-0.017": 0.0,
			"-0.016": 0.0,
			"-0.015": 0.0,
			"-0.014": 0.0,
			"-0.013": 0.0,
			"-0.012": 0.0,
			"-0.011": 0.0,
			"-0.01": 0.298976053887,
			"-0.009": 5.59999440057,
			"-0.008": 11.0881865931,
			"-0.007": 14.959310787,
			"-0.006": 12.8690558608,
			"-0.005": 12.302495745,
			"-0.004": 11.9474396046,
			"-0.003": 11.9522308474,
			"-0.002": 16.2349678635,
			"-0.001": 17.4852566293,
			"0.0": 25.7054628387,
			"0.001": 28.3618245602,
			"0.002": 23.4297908501,
			"0.003": 7.22129364674,
			"0.004": 6.16043462585,
			"0.005": 5.94327409156,
			"0.006": 6.57908073882,
			"0.007": 7.0381095239,
			"0.008": 8.83745945435,
			"0.009": 7.25802619091,
			"0.01": 6.44930948748,
			"0.011": 4.02332796211,
			"0.012": 2.1556151995,
			"0.013": 0.489012691721,
			"0.014": 0.0,
			"0.015": 0.0,
			"0.016": 0.0,
			"0.017": 0.0,
			"0.018": 0.0,
			"0.019": 0.0,
			"0.02": 0.0,
			"0.021": 0.0,
			"0.022": 0.0,
			"0.023": 0.0,
			"0.024": 0.0,
			"0.025": 0.0
		}
	}
}
