{
	 "smiles": "CS(=O)(=O)C1=CC=C(C=C1)C(N)=S", 
	 "Tm": 490.15, 
	 "num_atms": 22, 
	 "gaussian": { 
		 "optdone": 1, 
		 "sigma_profile": "yes", 
		 "theory": "DFT", 
		 "functional": "B3LYP", 
		 "basiset": "6-31G**", 
		 "properties": { 
			 "R2extent": 4395.4991, 
			 "electric_dipole_moment_norm": 6.85280517307, 
			 "electric_quadrupole_moment_norm": 20.1421465914, 
			 "total_energy": -1311.79274082, 
			 "HOMO_LUMO_gap": 0.13803, 
			 "cosmo_polarized_energy": -25.36, 
			 "cosmo_cavitation_energy": 29.44, 
			 "cosmo_dispersion_energy": -22.27, 
			 "cosmo_repulsion_energy": 1.67, 
			 "cosmo_total_nonelectrostatic_energy": 8.85, 
			 "SMD_solvation_energy": 3.93 
		},
		"coords": [
			{
				"x": -4.4269347099,
				"y": 0.3779563146,
				"z": 0.7601983275,
				"element": "C" 
			},
			{
				"x": -3.6173957503,
				"y": 0.6558819139,
				"z": -0.8337763705,
				"element": "S" 
			},
			{
				"x": -3.745703515,
				"y": 2.0857323016,
				"z": -1.15057587,
				"element": "O" 
			},
			{
				"x": -4.0962700173,
				"y": -0.3813985939,
				"z": -1.7601492131,
				"element": "O" 
			},
			{
				"x": -1.8799135846,
				"y": 0.319858167,
				"z": -0.4859822809,
				"element": "C" 
			},
			{
				"x": -1.3747804872,
				"y": -0.9589056224,
				"z": -0.7182480475,
				"element": "C" 
			},
			{
				"x": -0.0341472396,
				"y": -1.2179447124,
				"z": -0.4393318467,
				"element": "C" 
			},
			{
				"x": 0.8041958716,
				"y": -0.204570908,
				"z": 0.0586617856,
				"element": "C" 
			},
			{
				"x": 0.2786760447,
				"y": 1.0830536687,
				"z": 0.2530505044,
				"element": "C" 
			},
			{
				"x": -1.0606272594,
				"y": 1.3483235447,
				"z": -0.0135634354,
				"element": "C" 
			},
			{
				"x": 2.2413312473,
				"y": -0.4779679543,
				"z": 0.360322003,
				"element": "C" 
			},
			{
				"x": 2.5089267526,
				"y": -1.7412100098,
				"z": 0.7626593979,
				"element": "N" 
			},
			{
				"x": 3.4427280732,
				"y": 0.6621530804,
				"z": 0.183708315,
				"element": "S" 
			},
			{
				"x": -4.0206826853,
				"y": 1.0723985776,
				"z": 1.4968262618,
				"element": "H" 
			},
			{
				"x": -4.2745279998,
				"y": -0.6580172239,
				"z": 1.0658670866,
				"element": "H" 
			},
			{
				"x": -5.4890329317,
				"y": 0.5742721865,
				"z": 0.5989415799,
				"element": "H" 
			},
			{
				"x": -2.0191210136,
				"y": -1.7249058562,
				"z": -1.1364131907,
				"element": "H" 
			},
			{
				"x": 0.3707805525,
				"y": -2.2011560195,
				"z": -0.6586352713,
				"element": "H" 
			},
			{
				"x": 0.9390638088,
				"y": 1.8669007403,
				"z": 0.6067088438,
				"element": "H" 
			},
			{
				"x": -1.467124891,
				"y": 2.3454000015,
				"z": 0.119289422,
				"element": "H" 
			},
			{
				"x": 1.7748653669,
				"y": -2.3682939593,
				"z": 1.0568824939,
				"element": "H" 
			},
			{
				"x": 3.4633943671,
				"y": -1.974159637,
				"z": 0.9958595047,
				"element": "H" 
			}
		],
		 "valence_orbital": [ 
			{
				"type": "occ",
				"energy": -0.29731,
				"method": "rhf"
			},
			{
				"type": "occ",
				"energy": -0.28669,
				"method": "rhf"
			},
			{
				"type": "occ",
				"energy": -0.28509,
				"method": "rhf"
			},
			{
				"type": "occ",
				"energy": -0.24421,
				"method": "rhf"
			},
			{
				"type": "occ",
				"energy": -0.22122,
				"method": "rhf"
			},
			{
				"type": "unocc",
				"energy": -0.08319,
				"method": "rhf"
			},
			{
				"type": "unocc",
				"energy": -0.03615,
				"method": "rhf"
			},
			{
				"type": "unocc",
				"energy": -0.01196,
				"method": "rhf"
			},
			{
				"type": "unocc",
				"energy": 0.05318,
				"method": "rhf"
			},
			{
				"type": "unocc",
				"energy": 0.06788,
				"method": "rhf"
			}
		],
		"cosmo_sigma_profile": { 
			"-0.025": 0.0,
			"-0.024": 0.0,
			"-0.023": 0.0,
			"-0.022": 0.0,
			"-0.021": 0.0,
			"-0.02": 0.0,
			"-0.019": 0.0,
			"-0.018": 0.0,
			"-0.017": 0.0,
			"-0.016": 0.921682813079,
			"-0.015": 2.14931700484,
			"-0.014": 1.99315936848,
			"-0.013": 3.36087400164,
			"-0.012": 2.54144908416,
			"-0.011": 3.05349956892,
			"-0.01": 1.67055791276,
			"-0.009": 4.7070358991,
			"-0.008": 11.3617979194,
			"-0.007": 12.1650320446,
			"-0.006": 13.8095331306,
			"-0.005": 14.0490537012,
			"-0.004": 13.2054273756,
			"-0.003": 10.8074364284,
			"-0.002": 9.26118317872,
			"-0.001": 11.4623431838,
			"0.0": 12.0595637562,
			"0.001": 17.2118102331,
			"0.002": 10.8581263625,
			"0.003": 6.41110562345,
			"0.004": 7.30485516285,
			"0.005": 6.44562339551,
			"0.006": 6.39991349541,
			"0.007": 8.00151026958,
			"0.008": 9.58735276294,
			"0.009": 8.05703764693,
			"0.01": 8.84995984102,
			"0.011": 11.7580613999,
			"0.012": 8.04090030841,
			"0.013": 0.399701867981,
			"0.014": 0.0,
			"0.015": 0.0,
			"0.016": 0.0,
			"0.017": 0.0,
			"0.018": 0.0,
			"0.019": 0.0,
			"0.02": 0.0,
			"0.021": 0.0,
			"0.022": 0.0,
			"0.023": 0.0,
			"0.024": 0.0,
			"0.025": 0.0
		}
	}
}
