{
	 "smiles": "OC1=C2N=CNC2=NC=N1", 
	 "Tm": 523.15, 
	 "num_atms": 14, 
	 "gaussian": { 
		 "optdone": 1, 
		 "sigma_profile": "yes", 
		 "theory": "DFT", 
		 "functional": "B3LYP", 
		 "basiset": "6-31G**", 
		 "properties": { 
			 "R2extent": 2152.1963, 
			 "electric_dipole_moment_norm": 4.55037858645, 
			 "electric_quadrupole_moment_norm": 13.4054109933, 
			 "total_energy": -487.177898983, 
			 "HOMO_LUMO_gap": 0.20989, 
			 "cosmo_polarized_energy": -16.71, 
			 "cosmo_cavitation_energy": 18.82, 
			 "cosmo_dispersion_energy": -14.74, 
			 "cosmo_repulsion_energy": 1.18, 
			 "cosmo_total_nonelectrostatic_energy": 5.26, 
			 "SMD_solvation_energy": -0.86 
		},
		"coords": [
			{
				"x": -0.27494715,
				"y": 1.2301263918,
				"z": 0.4193066534,
				"element": "O" 
			},
			{
				"x": 0.8098775114,
				"y": 0.6361476868,
				"z": 0.9421024232,
				"element": "C" 
			},
			{
				"x": 0.8381012789,
				"y": -0.7291451457,
				"z": 1.2676518558,
				"element": "C" 
			},
			{
				"x": -0.1040025402,
				"y": -1.7380127016,
				"z": 1.16596993,
				"element": "N" 
			},
			{
				"x": 0.5179981277,
				"y": -2.7941364847,
				"z": 1.6311348925,
				"element": "C" 
			},
			{
				"x": 1.8143511798,
				"y": -2.5397585545,
				"z": 2.0330694602,
				"element": "N" 
			},
			{
				"x": 2.0441553324,
				"y": -1.1998604729,
				"z": 1.8050807077,
				"element": "C" 
			},
			{
				"x": 3.1458019145,
				"y": -0.4797790637,
				"z": 2.0301740237,
				"element": "N" 
			},
			{
				"x": 2.9767587796,
				"y": 0.7987974807,
				"z": 1.6745544582,
				"element": "C" 
			},
			{
				"x": 1.8853430518,
				"y": 1.3872672987,
				"z": 1.1507086434,
				"element": "N" 
			},
			{
				"x": -0.967142174,
				"y": 0.556258454,
				"z": 0.3290741464,
				"element": "H" 
			},
			{
				"x": 0.0889893037,
				"y": -3.7844232041,
				"z": 1.7075239967,
				"element": "H" 
			},
			{
				"x": 2.4760088515,
				"y": -3.1963488974,
				"z": 2.4199274615,
				"element": "H" 
			},
			{
				"x": 3.8323065327,
				"y": 1.4524672128,
				"z": 1.8276213472,
				"element": "H" 
			}
		],
		 "valence_orbital": [ 
			{
				"type": "occ",
				"energy": -0.31919,
				"method": "rhf"
			},
			{
				"type": "occ",
				"energy": -0.29307,
				"method": "rhf"
			},
			{
				"type": "occ",
				"energy": -0.27902,
				"method": "rhf"
			},
			{
				"type": "occ",
				"energy": -0.25876,
				"method": "rhf"
			},
			{
				"type": "occ",
				"energy": -0.24363,
				"method": "rhf"
			},
			{
				"type": "unocc",
				"energy": -0.03374,
				"method": "rhf"
			},
			{
				"type": "unocc",
				"energy": -0.00423,
				"method": "rhf"
			},
			{
				"type": "unocc",
				"energy": 0.02889,
				"method": "rhf"
			},
			{
				"type": "unocc",
				"energy": 0.06555,
				"method": "rhf"
			},
			{
				"type": "unocc",
				"energy": 0.08095,
				"method": "rhf"
			}
		],
		"cosmo_sigma_profile": { 
			"-0.025": 0.0,
			"-0.024": 0.0,
			"-0.023": 0.0,
			"-0.022": 0.0,
			"-0.021": 0.0,
			"-0.02": 0.0,
			"-0.019": 0.0,
			"-0.018": 0.438336941594,
			"-0.017": 2.96461539504,
			"-0.016": 1.9306970512,
			"-0.015": 1.52815819408,
			"-0.014": 1.74894904787,
			"-0.013": 1.98742288237,
			"-0.012": 1.86454366019,
			"-0.011": 2.97878527752,
			"-0.01": 3.97095447647,
			"-0.009": 3.06888091587,
			"-0.008": 3.2575440462,
			"-0.007": 5.15689575446,
			"-0.006": 3.50783032979,
			"-0.005": 5.51449997426,
			"-0.004": 3.82001357319,
			"-0.003": 6.25979333258,
			"-0.002": 10.092135494,
			"-0.001": 14.7027788605,
			"0.0": 10.5312252072,
			"0.001": 7.4307098268,
			"0.002": 4.91540671602,
			"0.003": 5.52909903547,
			"0.004": 6.09107587209,
			"0.005": 3.25677378981,
			"0.006": 5.67550306406,
			"0.007": 4.36064477034,
			"0.008": 3.92960175795,
			"0.009": 3.77168320853,
			"0.01": 6.84339269151,
			"0.011": 4.31313010748,
			"0.012": 3.52709864083,
			"0.013": 2.07179264057,
			"0.014": 2.87761584475,
			"0.015": 1.99988735566,
			"0.016": 0.0934105866981,
			"0.017": 0.0,
			"0.018": 0.0,
			"0.019": 0.0,
			"0.02": 0.0,
			"0.021": 0.0,
			"0.022": 0.0,
			"0.023": 0.0,
			"0.024": 0.0,
			"0.025": 0.0
		}
	}
}
