{
	 "smiles": "CC(=O)C1=C(C)ON=C1C1=CC=CC=C1", 
	 "Tm": 329.65, 
	 "num_atms": 26, 
	 "gaussian": { 
		 "optdone": 1, 
		 "sigma_profile": "yes", 
		 "theory": "DFT", 
		 "functional": "B3LYP", 
		 "basiset": "6-31G**", 
		 "properties": { 
			 "R2extent": 3375.3083, 
			 "electric_dipole_moment_norm": 2.12043592216, 
			 "electric_quadrupole_moment_norm": 14.6627386201, 
			 "total_energy": -669.06485514, 
			 "HOMO_LUMO_gap": 0.20782, 
			 "cosmo_polarized_energy": -10.89, 
			 "cosmo_cavitation_energy": 30.49, 
			 "cosmo_dispersion_energy": -21.35, 
			 "cosmo_repulsion_energy": 1.68, 
			 "cosmo_total_nonelectrostatic_energy": 10.81, 
			 "SMD_solvation_energy": 5.72 
		},
		"coords": [
			{
				"x": -1.6723805157,
				"y": -1.2057027166,
				"z": 0.6758676076,
				"element": "C" 
			},
			{
				"x": -0.648236537,
				"y": -0.9995107489,
				"z": 1.7733080611,
				"element": "C" 
			},
			{
				"x": -0.8031073332,
				"y": -1.5046765607,
				"z": 2.8802806727,
				"element": "O" 
			},
			{
				"x": 0.5506202513,
				"y": -0.1790547493,
				"z": 1.5034628455,
				"element": "C" 
			},
			{
				"x": 1.5389598488,
				"y": 0.067900431,
				"z": 2.4350653217,
				"element": "C" 
			},
			{
				"x": 1.7305331166,
				"y": -0.3441624078,
				"z": 3.8509848198,
				"element": "C" 
			},
			{
				"x": 2.4854533524,
				"y": 0.8392867259,
				"z": 1.8905709142,
				"element": "O" 
			},
			{
				"x": 2.152632667,
				"y": 1.1370019038,
				"z": 0.5544663918,
				"element": "N" 
			},
			{
				"x": 1.0078591323,
				"y": 0.5302825848,
				"z": 0.3360826553,
				"element": "C" 
			},
			{
				"x": 0.3837160694,
				"y": 0.65628797,
				"z": -1.0091464169,
				"element": "C" 
			},
			{
				"x": 0.6856241425,
				"y": -0.2680737598,
				"z": -2.0179075296,
				"element": "C" 
			},
			{
				"x": 0.1040288645,
				"y": -0.1455291543,
				"z": -3.2803875036,
				"element": "C" 
			},
			{
				"x": -0.7799837888,
				"y": 0.9020486357,
				"z": -3.5459520779,
				"element": "C" 
			},
			{
				"x": -1.0773118682,
				"y": 1.8310613465,
				"z": -2.5469906833,
				"element": "C" 
			},
			{
				"x": -0.4970858735,
				"y": 1.7108128545,
				"z": -1.2836471528,
				"element": "C" 
			},
			{
				"x": -2.4759725698,
				"y": -1.83253774,
				"z": 1.0641735828,
				"element": "H" 
			},
			{
				"x": -1.2191542301,
				"y": -1.6818904,
				"z": -0.1996602602,
				"element": "H" 
			},
			{
				"x": -2.0793858749,
				"y": -0.2485817769,
				"z": 0.3338094269,
				"element": "H" 
			},
			{
				"x": 0.8887572021,
				"y": -0.0062663043,
				"z": 4.4614922956,
				"element": "H" 
			},
			{
				"x": 1.7475042656,
				"y": -1.4345816041,
				"z": 3.9296305086,
				"element": "H" 
			},
			{
				"x": 2.6626066325,
				"y": 0.071841354,
				"z": 4.2386677763,
				"element": "H" 
			},
			{
				"x": 1.3812388353,
				"y": -1.076272999,
				"z": -1.8122503569,
				"element": "H" 
			},
			{
				"x": 0.3457344237,
				"y": -0.8650950663,
				"z": -4.057130959,
				"element": "H" 
			},
			{
				"x": -1.2316507501,
				"y": 0.9968881338,
				"z": -4.5291047821,
				"element": "H" 
			},
			{
				"x": -1.7569994527,
				"y": 2.6530313545,
				"z": -2.7517265616,
				"element": "H" 
			},
			{
				"x": -0.7192000101,
				"y": 2.4379926934,
				"z": -0.508258596,
				"element": "H" 
			}
		],
		 "valence_orbital": [ 
			{
				"type": "occ",
				"energy": -0.30055,
				"method": "rhf"
			},
			{
				"type": "occ",
				"energy": -0.26503,
				"method": "rhf"
			},
			{
				"type": "occ",
				"energy": -0.26168,
				"method": "rhf"
			},
			{
				"type": "occ",
				"energy": -0.25888,
				"method": "rhf"
			},
			{
				"type": "occ",
				"energy": -0.2506,
				"method": "rhf"
			},
			{
				"type": "unocc",
				"energy": -0.04278,
				"method": "rhf"
			},
			{
				"type": "unocc",
				"energy": -0.01991,
				"method": "rhf"
			},
			{
				"type": "unocc",
				"energy": -0.01894,
				"method": "rhf"
			},
			{
				"type": "unocc",
				"energy": -0.00515,
				"method": "rhf"
			},
			{
				"type": "unocc",
				"energy": 0.08177,
				"method": "rhf"
			}
		],
		"cosmo_sigma_profile": { 
			"-0.025": 0.0,
			"-0.024": 0.0,
			"-0.023": 0.0,
			"-0.022": 0.0,
			"-0.021": 0.0,
			"-0.02": 0.0,
			"-0.019": 0.0,
			"-0.018": 0.0,
			"-0.017": 0.0,
			"-0.016": 0.0,
			"-0.015": 0.0,
			"-0.014": 0.0,
			"-0.013": 0.0,
			"-0.012": 0.0,
			"-0.011": 0.0,
			"-0.01": 0.0,
			"-0.009": 0.0,
			"-0.008": 0.0,
			"-0.007": 2.20174353769,
			"-0.006": 15.75397419,
			"-0.005": 22.9499704016,
			"-0.004": 26.5411654777,
			"-0.003": 23.2547570465,
			"-0.002": 26.0010788466,
			"-0.001": 21.6921338651,
			"0.0": 15.7619039067,
			"0.001": 10.7050543686,
			"0.002": 10.2471390842,
			"0.003": 12.1766846692,
			"0.004": 14.4296423284,
			"0.005": 8.48740837542,
			"0.006": 4.74497723072,
			"0.007": 6.55661540061,
			"0.008": 4.20994627227,
			"0.009": 3.1790865471,
			"0.01": 3.18223153097,
			"0.011": 3.36571930597,
			"0.012": 4.33466702106,
			"0.013": 2.83447628718,
			"0.014": 0.904789119417,
			"0.015": 0.0,
			"0.016": 0.0,
			"0.017": 0.0,
			"0.018": 0.0,
			"0.019": 0.0,
			"0.02": 0.0,
			"0.021": 0.0,
			"0.022": 0.0,
			"0.023": 0.0,
			"0.024": 0.0,
			"0.025": 0.0
		}
	}
}
