{
	 "smiles": "COC1=CC=C(F)C(C#N)=C1F", 
	 "Tm": 345.15, 
	 "num_atms": 17, 
	 "gaussian": { 
		 "optdone": 1, 
		 "sigma_profile": "yes", 
		 "theory": "DFT", 
		 "functional": "B3LYP", 
		 "basiset": "6-31G**", 
		 "properties": { 
			 "R2extent": 2571.011, 
			 "electric_dipole_moment_norm": 7.08924842631, 
			 "electric_quadrupole_moment_norm": 14.9874355115, 
			 "total_energy": -637.464855406, 
			 "HOMO_LUMO_gap": 0.18334, 
			 "cosmo_polarized_energy": -10.96, 
			 "cosmo_cavitation_energy": 23.77, 
			 "cosmo_dispersion_energy": -16.68, 
			 "cosmo_repulsion_energy": 1.29, 
			 "cosmo_total_nonelectrostatic_energy": 8.39, 
			 "SMD_solvation_energy": 7.26 
		},
		"coords": [
			{
				"x": -1.0576015167,
				"y": 1.079063879,
				"z": -2.0251224019,
				"element": "C" 
			},
			{
				"x": -1.3550285861,
				"y": 0.3287671452,
				"z": -0.8549761746,
				"element": "O" 
			},
			{
				"x": -0.3697803179,
				"y": 0.1699466124,
				"z": 0.0644282706,
				"element": "C" 
			},
			{
				"x": 0.9303114976,
				"y": 0.6773220439,
				"z": -0.022485533,
				"element": "C" 
			},
			{
				"x": 1.8649716088,
				"y": 0.446997429,
				"z": 0.9940496597,
				"element": "C" 
			},
			{
				"x": 1.4978972933,
				"y": -0.293406513,
				"z": 2.1013404237,
				"element": "C" 
			},
			{
				"x": 2.3814078119,
				"y": -0.5230170634,
				"z": 3.0837826979,
				"element": "F" 
			},
			{
				"x": 0.2008788584,
				"y": -0.8231441188,
				"z": 2.2307928476,
				"element": "C" 
			},
			{
				"x": -0.1761586837,
				"y": -1.5877399623,
				"z": 3.3756334893,
				"element": "C" 
			},
			{
				"x": -0.4774983803,
				"y": -2.2096128427,
				"z": 4.3102191017,
				"element": "N" 
			},
			{
				"x": -0.7132824171,
				"y": -0.5787388549,
				"z": 1.2018093316,
				"element": "C" 
			},
			{
				"x": -1.9506589521,
				"y": -1.0709234662,
				"z": 1.3012491741,
				"element": "F" 
			},
			{
				"x": -0.7806470568,
				"y": 2.1125085252,
				"z": -1.7811932387,
				"element": "H" 
			},
			{
				"x": -0.2512600944,
				"y": 0.6148010195,
				"z": -2.6069188937,
				"element": "H" 
			},
			{
				"x": -1.9734904527,
				"y": 1.0813182332,
				"z": -2.6163753877,
				"element": "H" 
			},
			{
				"x": 1.227922882,
				"y": 1.2588581014,
				"z": -0.8862407237,
				"element": "H" 
			},
			{
				"x": 2.8728165059,
				"y": 0.8396998324,
				"z": 0.9278073572,
				"element": "H" 
			}
		],
		 "valence_orbital": [ 
			{
				"type": "occ",
				"energy": -0.3594,
				"method": "rhf"
			},
			{
				"type": "occ",
				"energy": -0.33717,
				"method": "rhf"
			},
			{
				"type": "occ",
				"energy": -0.33281,
				"method": "rhf"
			},
			{
				"type": "occ",
				"energy": -0.27446,
				"method": "rhf"
			},
			{
				"type": "occ",
				"energy": -0.24275,
				"method": "rhf"
			},
			{
				"type": "unocc",
				"energy": -0.05941,
				"method": "rhf"
			},
			{
				"type": "unocc",
				"energy": -0.01582,
				"method": "rhf"
			},
			{
				"type": "unocc",
				"energy": 0.02533,
				"method": "rhf"
			},
			{
				"type": "unocc",
				"energy": 0.05418,
				"method": "rhf"
			},
			{
				"type": "unocc",
				"energy": 0.07218,
				"method": "rhf"
			}
		],
		"cosmo_sigma_profile": { 
			"-0.025": 0.0,
			"-0.024": 0.0,
			"-0.023": 0.0,
			"-0.022": 0.0,
			"-0.021": 0.0,
			"-0.02": 0.0,
			"-0.019": 0.0,
			"-0.018": 0.0,
			"-0.017": 0.0,
			"-0.016": 0.0,
			"-0.015": 0.0,
			"-0.014": 0.0,
			"-0.013": 0.0,
			"-0.012": 0.0,
			"-0.011": 0.0,
			"-0.01": 0.0,
			"-0.009": 1.53816372407,
			"-0.008": 5.41825385477,
			"-0.007": 7.30359764374,
			"-0.006": 11.6199299402,
			"-0.005": 9.82176535411,
			"-0.004": 12.3882629131,
			"-0.003": 15.6728008733,
			"-0.002": 17.178919826,
			"-0.001": 15.7655773553,
			"0.0": 13.0344113312,
			"0.001": 11.1727883858,
			"0.002": 15.0944250219,
			"0.003": 19.2673824484,
			"0.004": 6.0695769689,
			"0.005": 4.65089290047,
			"0.006": 4.35129693315,
			"0.007": 5.23340379534,
			"0.008": 5.05202179686,
			"0.009": 4.38995375184,
			"0.01": 2.96144272313,
			"0.011": 2.32770635832,
			"0.012": 1.95481820834,
			"0.013": 0.293660007922,
			"0.014": 0.0,
			"0.015": 0.0,
			"0.016": 0.0,
			"0.017": 0.0,
			"0.018": 0.0,
			"0.019": 0.0,
			"0.02": 0.0,
			"0.021": 0.0,
			"0.022": 0.0,
			"0.023": 0.0,
			"0.024": 0.0,
			"0.025": 0.0
		}
	}
}
