{
	 "smiles": "OC(=O)CC1=CSC(=N1)C1=NC=CC=C1", 
	 "Tm": 417.15, 
	 "num_atms": 23, 
	 "gaussian": { 
		 "optdone": 1, 
		 "sigma_profile": "yes", 
		 "theory": "DFT", 
		 "functional": "B3LYP", 
		 "basiset": "6-31G**", 
		 "properties": { 
			 "R2extent": 4405.0007, 
			 "electric_dipole_moment_norm": 4.06191002608, 
			 "electric_quadrupole_moment_norm": 17.2010097084, 
			 "total_energy": -1044.02398067, 
			 "HOMO_LUMO_gap": 0.16928, 
			 "cosmo_polarized_energy": -19.21, 
			 "cosmo_cavitation_energy": 30.42, 
			 "cosmo_dispersion_energy": -22.49, 
			 "cosmo_repulsion_energy": 1.74, 
			 "cosmo_total_nonelectrostatic_energy": 9.67, 
			 "SMD_solvation_energy": 3.62 
		},
		"coords": [
			{
				"x": -3.8775103707,
				"y": 0.3948660773,
				"z": 0.2040959268,
				"element": "O" 
			},
			{
				"x": -3.7747164075,
				"y": 1.0082581799,
				"z": -0.9978682601,
				"element": "C" 
			},
			{
				"x": -4.4054851747,
				"y": 1.9988467777,
				"z": -1.2862973982,
				"element": "O" 
			},
			{
				"x": -2.8285489972,
				"y": 0.2757445438,
				"z": -1.9389697814,
				"element": "C" 
			},
			{
				"x": -1.5599300762,
				"y": -0.2123926521,
				"z": -1.2961849724,
				"element": "C" 
			},
			{
				"x": -1.1833807666,
				"y": -1.5212776732,
				"z": -1.1558368625,
				"element": "C" 
			},
			{
				"x": 0.3525496557,
				"y": -1.6226218336,
				"z": -0.370756635,
				"element": "S" 
			},
			{
				"x": 0.3789645157,
				"y": 0.1462222726,
				"z": -0.276814011,
				"element": "C" 
			},
			{
				"x": -0.6714360277,
				"y": 0.7114483995,
				"z": -0.8014240734,
				"element": "N" 
			},
			{
				"x": 1.5120184441,
				"y": 0.8717397629,
				"z": 0.3359664413,
				"element": "C" 
			},
			{
				"x": 1.5855851277,
				"y": 2.1884925783,
				"z": 0.0746827267,
				"element": "N" 
			},
			{
				"x": 2.5938938062,
				"y": 2.8752769845,
				"z": 0.6135898144,
				"element": "C" 
			},
			{
				"x": 3.5792032868,
				"y": 2.307519692,
				"z": 1.4259689621,
				"element": "C" 
			},
			{
				"x": 3.49841358,
				"y": 0.9425850258,
				"z": 1.6952801599,
				"element": "C" 
			},
			{
				"x": 2.4483566658,
				"y": 0.2109959626,
				"z": 1.147847082,
				"element": "C" 
			},
			{
				"x": -4.5035139701,
				"y": 0.9280357787,
				"z": 0.7224319541,
				"element": "H" 
			},
			{
				"x": -2.6072023766,
				"y": 0.967703844,
				"z": -2.7550800797,
				"element": "H" 
			},
			{
				"x": -3.3818855353,
				"y": -0.5719235617,
				"z": -2.3594584368,
				"element": "H" 
			},
			{
				"x": -1.7153763631,
				"y": -2.4106957731,
				"z": -1.4625469823,
				"element": "H" 
			},
			{
				"x": 2.6202844126,
				"y": 3.9388067701,
				"z": 0.3815635295,
				"element": "H" 
			},
			{
				"x": 4.3782038322,
				"y": 2.9191301435,
				"z": 1.8324591555,
				"element": "H" 
			},
			{
				"x": 4.2351090474,
				"y": 0.454553424,
				"z": 2.326558938,
				"element": "H" 
			},
			{
				"x": 2.3506036915,
				"y": -0.8494147234,
				"z": 1.3583928025,
				"element": "H" 
			}
		],
		 "valence_orbital": [ 
			{
				"type": "occ",
				"energy": -0.28498,
				"method": "rhf"
			},
			{
				"type": "occ",
				"energy": -0.27556,
				"method": "rhf"
			},
			{
				"type": "occ",
				"energy": -0.26938,
				"method": "rhf"
			},
			{
				"type": "occ",
				"energy": -0.25747,
				"method": "rhf"
			},
			{
				"type": "occ",
				"energy": -0.23113,
				"method": "rhf"
			},
			{
				"type": "unocc",
				"energy": -0.06185,
				"method": "rhf"
			},
			{
				"type": "unocc",
				"energy": -0.02777,
				"method": "rhf"
			},
			{
				"type": "unocc",
				"energy": 0.00485,
				"method": "rhf"
			},
			{
				"type": "unocc",
				"energy": 0.01649,
				"method": "rhf"
			},
			{
				"type": "unocc",
				"energy": 0.01811,
				"method": "rhf"
			}
		],
		"cosmo_sigma_profile": { 
			"-0.025": 0.0,
			"-0.024": 0.0,
			"-0.023": 0.0,
			"-0.022": 0.0,
			"-0.021": 0.0,
			"-0.02": 0.0,
			"-0.019": 0.0637135700277,
			"-0.018": 0.842394953905,
			"-0.017": 0.879431674739,
			"-0.016": 1.06672243218,
			"-0.015": 0.822057161263,
			"-0.014": 0.425600366116,
			"-0.013": 0.46783112631,
			"-0.012": 0.776543118935,
			"-0.011": 1.07763554063,
			"-0.01": 1.14263211708,
			"-0.009": 3.51972087439,
			"-0.008": 7.73328521784,
			"-0.007": 13.5555808815,
			"-0.006": 16.5308196512,
			"-0.005": 13.7552469368,
			"-0.004": 13.5112155769,
			"-0.003": 11.0091301884,
			"-0.002": 13.4820722456,
			"-0.001": 13.9266660354,
			"0.0": 18.9727561696,
			"0.001": 24.3361274735,
			"0.002": 24.7918690776,
			"0.003": 9.76764826307,
			"0.004": 5.87553987779,
			"0.005": 5.42687574476,
			"0.006": 5.6522625825,
			"0.007": 4.98256906722,
			"0.008": 4.85130027398,
			"0.009": 4.74118116149,
			"0.01": 4.13489153563,
			"0.011": 5.6471175252,
			"0.012": 5.04776548327,
			"0.013": 1.31237903913,
			"0.014": 1.69878892962,
			"0.015": 0.954848303205,
			"0.016": 0.777268106278,
			"0.017": 1.19748575893,
			"0.018": 1.2255984565,
			"0.019": 0.524163256536,
			"0.02": 0.0253885919405,
			"0.021": 0.0,
			"0.022": 0.0,
			"0.023": 0.0,
			"0.024": 0.0,
			"0.025": 0.0
		}
	}
}
