{
	 "smiles": "CN1NC(C)=C(C)C1=N", 
	 "Tm": 383.15, 
	 "num_atms": 20, 
	 "gaussian": { 
		 "optdone": 1, 
		 "sigma_profile": "yes", 
		 "theory": "DFT", 
		 "functional": "B3LYP", 
		 "basiset": "6-31G**", 
		 "properties": { 
			 "R2extent": 1470.0804, 
			 "electric_dipole_moment_norm": 3.72707428555, 
			 "electric_quadrupole_moment_norm": 9.74699657536, 
			 "total_energy": -399.484075187, 
			 "HOMO_LUMO_gap": 0.19192, 
			 "cosmo_polarized_energy": -13.33, 
			 "cosmo_cavitation_energy": 22.72, 
			 "cosmo_dispersion_energy": -16.67, 
			 "cosmo_repulsion_energy": 1.38, 
			 "cosmo_total_nonelectrostatic_energy": 7.42, 
			 "SMD_solvation_energy": 2.65 
		},
		"coords": [
			{
				"x": -1.2646516618,
				"y": -1.8125503469,
				"z": 1.2554825061,
				"element": "C" 
			},
			{
				"x": -1.5129032075,
				"y": -0.641348428,
				"z": 0.4281378155,
				"element": "N" 
			},
			{
				"x": -1.5202534706,
				"y": 0.5851455203,
				"z": 1.1666516153,
				"element": "N" 
			},
			{
				"x": -1.0296443572,
				"y": 1.5715453574,
				"z": 0.2877637339,
				"element": "C" 
			},
			{
				"x": -1.1100321977,
				"y": 2.9990271056,
				"z": 0.721556575,
				"element": "C" 
			},
			{
				"x": -0.529331782,
				"y": 1.0117914844,
				"z": -0.8380030614,
				"element": "C" 
			},
			{
				"x": 0.1902383705,
				"y": 1.6309550923,
				"z": -1.9903367469,
				"element": "C" 
			},
			{
				"x": -0.7534946968,
				"y": -0.4329933017,
				"z": -0.7505179804,
				"element": "C" 
			},
			{
				"x": -0.3142243284,
				"y": -1.2958932807,
				"z": -1.5967453065,
				"element": "N" 
			},
			{
				"x": -2.0323959085,
				"y": -1.8819076394,
				"z": 2.0306790235,
				"element": "H" 
			},
			{
				"x": -0.2753366899,
				"y": -1.7897949732,
				"z": 1.7324463958,
				"element": "H" 
			},
			{
				"x": -1.3412237214,
				"y": -2.704935552,
				"z": 0.6307399898,
				"element": "H" 
			},
			{
				"x": -2.4680465383,
				"y": 0.7791657339,
				"z": 1.4929194052,
				"element": "H" 
			},
			{
				"x": -2.1511292783,
				"y": 3.3099692649,
				"z": 0.8787510088,
				"element": "H" 
			},
			{
				"x": -0.5783728259,
				"y": 3.1524317013,
				"z": 1.6672740492,
				"element": "H" 
			},
			{
				"x": -0.6755210793,
				"y": 3.6591505521,
				"z": -0.0309763456,
				"element": "H" 
			},
			{
				"x": 0.3051416067,
				"y": 2.7120156935,
				"z": -1.8732344957,
				"element": "H" 
			},
			{
				"x": 1.184252192,
				"y": 1.1845916027,
				"z": -2.1047813275,
				"element": "H" 
			},
			{
				"x": -0.3434935337,
				"y": 1.4375300997,
				"z": -2.9272980733,
				"element": "H" 
			},
			{
				"x": -0.5853768917,
				"y": -2.248595686,
				"z": -1.3474087809,
				"element": "H" 
			}
		],
		 "valence_orbital": [ 
			{
				"type": "occ",
				"energy": -0.34957,
				"method": "rhf"
			},
			{
				"type": "occ",
				"energy": -0.30538,
				"method": "rhf"
			},
			{
				"type": "occ",
				"energy": -0.25023,
				"method": "rhf"
			},
			{
				"type": "occ",
				"energy": -0.2391,
				"method": "rhf"
			},
			{
				"type": "occ",
				"energy": -0.18855,
				"method": "rhf"
			},
			{
				"type": "unocc",
				"energy": 0.00337,
				"method": "rhf"
			},
			{
				"type": "unocc",
				"energy": 0.07325,
				"method": "rhf"
			},
			{
				"type": "unocc",
				"energy": 0.09497,
				"method": "rhf"
			},
			{
				"type": "unocc",
				"energy": 0.09903,
				"method": "rhf"
			},
			{
				"type": "unocc",
				"energy": 0.1113,
				"method": "rhf"
			}
		],
		"cosmo_sigma_profile": { 
			"-0.025": 0.0,
			"-0.024": 0.0,
			"-0.023": 0.0,
			"-0.022": 0.0,
			"-0.021": 0.0,
			"-0.02": 0.0,
			"-0.019": 0.0,
			"-0.018": 0.0,
			"-0.017": 0.0,
			"-0.016": 0.0,
			"-0.015": 0.0,
			"-0.014": 0.295569328445,
			"-0.013": 1.4444583745,
			"-0.012": 1.05161399617,
			"-0.011": 1.78035519641,
			"-0.01": 1.47846907869,
			"-0.009": 2.64359104843,
			"-0.008": 2.25748127118,
			"-0.007": 4.00069183322,
			"-0.006": 6.66457418652,
			"-0.005": 11.5908113665,
			"-0.004": 12.8509615884,
			"-0.003": 17.8737532003,
			"-0.002": 19.7333646176,
			"-0.001": 17.9904598072,
			"0.0": 13.2573618728,
			"0.001": 10.2001279632,
			"0.002": 7.34770886921,
			"0.003": 6.60218990653,
			"0.004": 7.27402797612,
			"0.005": 4.17889670482,
			"0.006": 3.8989577338,
			"0.007": 2.74653174565,
			"0.008": 2.98550485475,
			"0.009": 2.69667447269,
			"0.01": 2.64510633323,
			"0.011": 1.70778383404,
			"0.012": 1.44196462124,
			"0.013": 1.95128331254,
			"0.014": 1.11083487261,
			"0.015": 1.81433759487,
			"0.016": 0.911999175389,
			"0.017": 0.97411990967,
			"0.018": 1.41478310184,
			"0.019": 1.04445070047,
			"0.02": 0.229998047942,
			"0.021": 0.0,
			"0.022": 0.0,
			"0.023": 0.0,
			"0.024": 0.0,
			"0.025": 0.0
		}
	}
}
