{
	 "smiles": "ClCC1=CSC(=N1)C1=C(Cl)C=CC=C1", 
	 "Tm": 329.15, 
	 "num_atms": 21, 
	 "gaussian": { 
		 "optdone": 1, 
		 "sigma_profile": "yes", 
		 "theory": "DFT", 
		 "functional": "B3LYP", 
		 "basiset": "6-31G**", 
		 "properties": { 
			 "R2extent": 5166.4374, 
			 "electric_dipole_moment_norm": 2.15543132574, 
			 "electric_quadrupole_moment_norm": 17.4118190239, 
			 "total_energy": -1758.60418814, 
			 "HOMO_LUMO_gap": 0.16977, 
			 "cosmo_polarized_energy": -8.6, 
			 "cosmo_cavitation_energy": 30.36, 
			 "cosmo_dispersion_energy": -23.07, 
			 "cosmo_repulsion_energy": 1.78, 
			 "cosmo_total_nonelectrostatic_energy": 9.07, 
			 "SMD_solvation_energy": 3.39 
		},
		"coords": [
			{
				"x": -3.0202744329,
				"y": -1.4097290053,
				"z": -2.6665044474,
				"element": "Cl" 
			},
			{
				"x": -3.0339345727,
				"y": -1.8479465223,
				"z": -0.8861052085,
				"element": "C" 
			},
			{
				"x": -1.6605519025,
				"y": -2.0174826877,
				"z": -0.3304195451,
				"element": "C" 
			},
			{
				"x": -1.024563764,
				"y": -3.2150777831,
				"z": -0.1335266087,
				"element": "C" 
			},
			{
				"x": 0.5427150158,
				"y": -2.9609441605,
				"z": 0.5366419795,
				"element": "S" 
			},
			{
				"x": 0.244260456,
				"y": -1.2150025592,
				"z": 0.5078725694,
				"element": "C" 
			},
			{
				"x": -0.939260267,
				"y": -0.9119132446,
				"z": 0.0333769478,
				"element": "N" 
			},
			{
				"x": 1.1806541614,
				"y": -0.1586212523,
				"z": 0.9420476342,
				"element": "C" 
			},
			{
				"x": 2.4473536514,
				"y": -0.3303537125,
				"z": 1.532534857,
				"element": "C" 
			},
			{
				"x": 3.1279866789,
				"y": -1.922129442,
				"z": 1.851539684,
				"element": "Cl" 
			},
			{
				"x": 3.2390852607,
				"y": 0.7590847528,
				"z": 1.9024412973,
				"element": "C" 
			},
			{
				"x": 2.7859024374,
				"y": 2.0567357847,
				"z": 1.6907773329,
				"element": "C" 
			},
			{
				"x": 1.5338520245,
				"y": 2.2610891558,
				"z": 1.1057478287,
				"element": "C" 
			},
			{
				"x": 0.7535516429,
				"y": 1.1739361523,
				"z": 0.7412966362,
				"element": "C" 
			},
			{
				"x": -3.6165571234,
				"y": -2.7651249747,
				"z": -0.809164007,
				"element": "H" 
			},
			{
				"x": -3.5549559663,
				"y": -1.0304719199,
				"z": -0.3888540261,
				"element": "H" 
			},
			{
				"x": -1.388222664,
				"y": -4.2109011113,
				"z": -0.3458292409,
				"element": "H" 
			},
			{
				"x": 4.2071079259,
				"y": 0.5747268256,
				"z": 2.3544355157,
				"element": "H" 
			},
			{
				"x": 3.4080359805,
				"y": 2.8980568689,
				"z": 1.9800857856,
				"element": "H" 
			},
			{
				"x": 1.1665890923,
				"y": 3.267624572,
				"z": 0.9315332996,
				"element": "H" 
			},
			{
				"x": -0.218373635,
				"y": 1.3170442635,
				"z": 0.2848717157,
				"element": "H" 
			}
		],
		 "valence_orbital": [ 
			{
				"type": "occ",
				"energy": -0.29272,
				"method": "rhf"
			},
			{
				"type": "occ",
				"energy": -0.28358,
				"method": "rhf"
			},
			{
				"type": "occ",
				"energy": -0.28045,
				"method": "rhf"
			},
			{
				"type": "occ",
				"energy": -0.25796,
				"method": "rhf"
			},
			{
				"type": "occ",
				"energy": -0.23383,
				"method": "rhf"
			},
			{
				"type": "unocc",
				"energy": -0.06406,
				"method": "rhf"
			},
			{
				"type": "unocc",
				"energy": -0.02093,
				"method": "rhf"
			},
			{
				"type": "unocc",
				"energy": -0.01523,
				"method": "rhf"
			},
			{
				"type": "unocc",
				"energy": 0.01843,
				"method": "rhf"
			},
			{
				"type": "unocc",
				"energy": 0.02062,
				"method": "rhf"
			}
		],
		"cosmo_sigma_profile": { 
			"-0.025": 0.0,
			"-0.024": 0.0,
			"-0.023": 0.0,
			"-0.022": 0.0,
			"-0.021": 0.0,
			"-0.02": 0.0,
			"-0.019": 0.0,
			"-0.018": 0.0,
			"-0.017": 0.0,
			"-0.016": 0.0,
			"-0.015": 0.0,
			"-0.014": 0.0,
			"-0.013": 0.0,
			"-0.012": 0.0,
			"-0.011": 0.0,
			"-0.01": 1.0920913708,
			"-0.009": 3.44350595524,
			"-0.008": 6.21352701021,
			"-0.007": 10.5549340293,
			"-0.006": 12.1716129639,
			"-0.005": 13.0608498186,
			"-0.004": 11.9194114557,
			"-0.003": 9.97696134887,
			"-0.002": 13.5715591078,
			"-0.001": 15.2178837368,
			"0.0": 21.423453425,
			"0.001": 27.8856665022,
			"0.002": 30.6178652483,
			"0.003": 27.9306392139,
			"0.004": 15.3204656236,
			"0.005": 7.41183044142,
			"0.006": 11.7814962204,
			"0.007": 8.0273494605,
			"0.008": 1.63259473605,
			"0.009": 1.36430263993,
			"0.01": 0.0339303544459,
			"0.011": 0.0,
			"0.012": 0.0,
			"0.013": 0.0,
			"0.014": 0.0,
			"0.015": 0.0,
			"0.016": 0.0,
			"0.017": 0.0,
			"0.018": 0.0,
			"0.019": 0.0,
			"0.02": 0.0,
			"0.021": 0.0,
			"0.022": 0.0,
			"0.023": 0.0,
			"0.024": 0.0,
			"0.025": 0.0
		}
	}
}
