{
	 "smiles": "CC1=CC=C2C(=O)C3=CC=C(C)C=C3C(=O)C2=C1", 
	 "Tm": 436.15, 
	 "num_atms": 30, 
	 "gaussian": { 
		 "optdone": 1, 
		 "sigma_profile": "yes", 
		 "theory": "DFT", 
		 "functional": "B3LYP", 
		 "basiset": "6-31G**", 
		 "properties": { 
			 "R2extent": 5086.8681, 
			 "electric_dipole_moment_norm": 0.486097284502, 
			 "electric_quadrupole_moment_norm": 23.0325689041, 
			 "total_energy": -767.419475393, 
			 "HOMO_LUMO_gap": 0.15391, 
			 "cosmo_polarized_energy": -10.14, 
			 "cosmo_cavitation_energy": 33.94, 
			 "cosmo_dispersion_energy": -24.84, 
			 "cosmo_repulsion_energy": 1.86, 
			 "cosmo_total_nonelectrostatic_energy": 10.96, 
			 "SMD_solvation_energy": 6.42 
		},
		"coords": [
			{
				"x": 2.9675374453,
				"y": 4.0165515235,
				"z": 1.3531457048,
				"element": "C" 
			},
			{
				"x": 2.0618960003,
				"y": 2.8158898207,
				"z": 1.4809327474,
				"element": "C" 
			},
			{
				"x": 1.6487748875,
				"y": 2.3644165933,
				"z": 2.7480624395,
				"element": "C" 
			},
			{
				"x": 0.8199491384,
				"y": 1.257153871,
				"z": 2.881680166,
				"element": "C" 
			},
			{
				"x": 0.3767880736,
				"y": 0.5653137018,
				"z": 1.7475295784,
				"element": "C" 
			},
			{
				"x": -0.5116742142,
				"y": -0.6184886431,
				"z": 1.9157010769,
				"element": "C" 
			},
			{
				"x": -0.8627276419,
				"y": -1.0005676069,
				"z": 3.0284221763,
				"element": "O" 
			},
			{
				"x": -0.9570250931,
				"y": -1.3199760286,
				"z": 0.6793411226,
				"element": "C" 
			},
			{
				"x": -1.7925123733,
				"y": -2.4386521472,
				"z": 0.7883464115,
				"element": "C" 
			},
			{
				"x": -2.2196119361,
				"y": -3.1084178874,
				"z": -0.3517543121,
				"element": "C" 
			},
			{
				"x": -1.8281210174,
				"y": -2.6840748895,
				"z": -1.6350244507,
				"element": "C" 
			},
			{
				"x": -2.3059224218,
				"y": -3.4187581677,
				"z": -2.8638638285,
				"element": "C" 
			},
			{
				"x": -0.9942770921,
				"y": -1.568305057,
				"z": -1.7366089557,
				"element": "C" 
			},
			{
				"x": -0.5562515015,
				"y": -0.8840175994,
				"z": -0.5972066229,
				"element": "C" 
			},
			{
				"x": 0.334053731,
				"y": 0.30188828,
				"z": -0.7647003211,
				"element": "C" 
			},
			{
				"x": 0.6849736944,
				"y": 0.6836739779,
				"z": -1.8767368577,
				"element": "O" 
			},
			{
				"x": 0.7807721228,
				"y": 1.0052375771,
				"z": 0.4733560847,
				"element": "C" 
			},
			{
				"x": 1.6158078096,
				"y": 2.1218645825,
				"z": 0.3540406986,
				"element": "C" 
			},
			{
				"x": 2.5377703341,
				"y": 4.8918579757,
				"z": 1.8529225263,
				"element": "H" 
			},
			{
				"x": 3.1416553386,
				"y": 4.2762706025,
				"z": 0.3061297457,
				"element": "H" 
			},
			{
				"x": 3.9415644103,
				"y": 3.827023143,
				"z": 1.8192022072,
				"element": "H" 
			},
			{
				"x": 1.9847613922,
				"y": 2.8929517701,
				"z": 3.636991697,
				"element": "H" 
			},
			{
				"x": 0.4983437734,
				"y": 0.9051160656,
				"z": 3.85619099,
				"element": "H" 
			},
			{
				"x": -2.0912252742,
				"y": -2.7618455042,
				"z": 1.7799892621,
				"element": "H" 
			},
			{
				"x": -2.8674066333,
				"y": -3.9761617803,
				"z": -0.2526859387,
				"element": "H" 
			},
			{
				"x": -2.0491792912,
				"y": -4.4828277089,
				"z": -2.8140416259,
				"element": "H" 
			},
			{
				"x": -3.3960263067,
				"y": -3.3559612688,
				"z": -2.9617449089,
				"element": "H" 
			},
			{
				"x": -1.8632286841,
				"y": -3.006102729,
				"z": -3.7736722682,
				"element": "H" 
			},
			{
				"x": -0.6650137726,
				"y": -1.2047264257,
				"z": -2.7050588517,
				"element": "H" 
			},
			{
				"x": 1.9070551021,
				"y": 2.4336739591,
				"z": -0.6441856928,
				"element": "H" 
			}
		],
		 "valence_orbital": [ 
			{
				"type": "occ",
				"energy": -0.26483,
				"method": "rhf"
			},
			{
				"type": "occ",
				"energy": -0.26362,
				"method": "rhf"
			},
			{
				"type": "occ",
				"energy": -0.25794,
				"method": "rhf"
			},
			{
				"type": "occ",
				"energy": -0.25313,
				"method": "rhf"
			},
			{
				"type": "occ",
				"energy": -0.25186,
				"method": "rhf"
			},
			{
				"type": "unocc",
				"energy": -0.09795,
				"method": "rhf"
			},
			{
				"type": "unocc",
				"energy": -0.05102,
				"method": "rhf"
			},
			{
				"type": "unocc",
				"energy": -0.01976,
				"method": "rhf"
			},
			{
				"type": "unocc",
				"energy": -0.00545,
				"method": "rhf"
			},
			{
				"type": "unocc",
				"energy": 0.05159,
				"method": "rhf"
			}
		],
		"cosmo_sigma_profile": { 
			"-0.025": 0.0,
			"-0.024": 0.0,
			"-0.023": 0.0,
			"-0.022": 0.0,
			"-0.021": 0.0,
			"-0.02": 0.0,
			"-0.019": 0.0,
			"-0.018": 0.0,
			"-0.017": 0.0,
			"-0.016": 0.0,
			"-0.015": 0.0,
			"-0.014": 0.0,
			"-0.013": 0.0,
			"-0.012": 0.0,
			"-0.011": 0.0,
			"-0.01": 0.0,
			"-0.009": 0.0,
			"-0.008": 0.0,
			"-0.007": 1.96030614759,
			"-0.006": 9.57067985721,
			"-0.005": 22.187911888,
			"-0.004": 26.8050082527,
			"-0.003": 25.3659066553,
			"-0.002": 22.6719968503,
			"-0.001": 29.1269653433,
			"0.0": 26.4772662681,
			"0.001": 25.7494287008,
			"0.002": 30.0788949261,
			"0.003": 14.6681874599,
			"0.004": 3.8356985656,
			"0.005": 4.14154159937,
			"0.006": 3.03453637056,
			"0.007": 3.18937970753,
			"0.008": 3.30200612875,
			"0.009": 3.8206313913,
			"0.01": 4.76556327907,
			"0.011": 7.16506142086,
			"0.012": 3.96889622063,
			"0.013": 0.0,
			"0.014": 0.0,
			"0.015": 0.0,
			"0.016": 0.0,
			"0.017": 0.0,
			"0.018": 0.0,
			"0.019": 0.0,
			"0.02": 0.0,
			"0.021": 0.0,
			"0.022": 0.0,
			"0.023": 0.0,
			"0.024": 0.0,
			"0.025": 0.0
		}
	}
}
