{
	 "smiles": "OC(=O)C1=C(Br)C=CC(=C1)S(=O)(=O)N1CCCCC1", 
	 "Tm": 504.15, 
	 "num_atms": 33, 
	 "gaussian": { 
		 "optdone": 1, 
		 "sigma_profile": "yes", 
		 "theory": "DFT", 
		 "functional": "B3LYP", 
		 "basiset": "6-31G**", 
		 "properties": { 
			 "R2extent": 9006.0275, 
			 "electric_dipole_moment_norm": 5.99131890154, 
			 "electric_quadrupole_moment_norm": 24.7732166402, 
			 "total_energy": -3790.88578646, 
			 "HOMO_LUMO_gap": 0.17537, 
			 "cosmo_polarized_energy": -19.51, 
			 "cosmo_cavitation_energy": 38.67, 
			 "cosmo_dispersion_energy": -28.05, 
			 "cosmo_repulsion_energy": 2.12, 
			 "cosmo_total_nonelectrostatic_energy": 12.73, 
			 "SMD_solvation_energy": 4.43 
		},
		"coords": [
			{
				"x": 4.0166017524,
				"y": -1.8413299226,
				"z": -2.1749805294,
				"element": "O" 
			},
			{
				"x": 3.1161795134,
				"y": -1.4726387893,
				"z": -1.2510115859,
				"element": "C" 
			},
			{
				"x": 2.7993718502,
				"y": -2.241659033,
				"z": -0.372281519,
				"element": "O" 
			},
			{
				"x": 2.522349007,
				"y": -0.0727966832,
				"z": -1.2938946166,
				"element": "C" 
			},
			{
				"x": 2.4986635321,
				"y": 0.8558530901,
				"z": -2.3489191768,
				"element": "C" 
			},
			{
				"x": 3.2776640239,
				"y": 0.5132172614,
				"z": -4.0758674002,
				"element": "Br" 
			},
			{
				"x": 1.8886082166,
				"y": 2.1050270551,
				"z": -2.2162314606,
				"element": "C" 
			},
			{
				"x": 1.2782671739,
				"y": 2.4597335417,
				"z": -1.0176546852,
				"element": "C" 
			},
			{
				"x": 1.2831114209,
				"y": 1.550025419,
				"z": 0.0417873612,
				"element": "C" 
			},
			{
				"x": 1.8997425022,
				"y": 0.3112563644,
				"z": -0.0932414122,
				"element": "C" 
			},
			{
				"x": 0.4569948544,
				"y": 1.9799992297,
				"z": 1.5904272802,
				"element": "S" 
			},
			{
				"x": 1.2120128997,
				"y": 1.3285177909,
				"z": 2.6604312801,
				"element": "O" 
			},
			{
				"x": 0.238554629,
				"y": 3.4277857601,
				"z": 1.5433956709,
				"element": "O" 
			},
			{
				"x": -1.042075843,
				"y": 1.2601050015,
				"z": 1.5497868927,
				"element": "N" 
			},
			{
				"x": -1.126555052,
				"y": -0.1967913664,
				"z": 1.7912546424,
				"element": "C" 
			},
			{
				"x": -2.5993502806,
				"y": -0.5875921358,
				"z": 1.9324202829,
				"element": "C" 
			},
			{
				"x": -3.3985306324,
				"y": -0.3056925855,
				"z": 0.6387226882,
				"element": "C" 
			},
			{
				"x": -2.8068738847,
				"y": 0.8868136192,
				"z": -0.1482775166,
				"element": "C" 
			},
			{
				"x": -2.1368675673,
				"y": 1.8998592979,
				"z": 0.7838591505,
				"element": "C" 
			},
			{
				"x": 4.1638403136,
				"y": -1.1467863644,
				"z": -2.8397577073,
				"element": "H" 
			},
			{
				"x": 1.8988786364,
				"y": 2.7967219898,
				"z": -3.0504314347,
				"element": "H" 
			},
			{
				"x": 0.8247975427,
				"y": 3.4366373175,
				"z": -0.8923248857,
				"element": "H" 
			},
			{
				"x": 1.9322875422,
				"y": -0.3894793078,
				"z": 0.7324979006,
				"element": "H" 
			},
			{
				"x": -0.5707467335,
				"y": -0.4211502408,
				"z": 2.7026976877,
				"element": "H" 
			},
			{
				"x": -0.6676496784,
				"y": -0.7657438187,
				"z": 0.9670747178,
				"element": "H" 
			},
			{
				"x": -3.0229581699,
				"y": -0.025246771,
				"z": 2.7721470918,
				"element": "H" 
			},
			{
				"x": -2.6591312512,
				"y": -1.6467122226,
				"z": 2.2022187345,
				"element": "H" 
			},
			{
				"x": -3.4043654633,
				"y": -1.1936418675,
				"z": -0.0027353287,
				"element": "H" 
			},
			{
				"x": -4.4437532572,
				"y": -0.1047231145,
				"z": 0.8978277619,
				"element": "H" 
			},
			{
				"x": -3.5856689197,
				"y": 1.3921647477,
				"z": -0.7294253223,
				"element": "H" 
			},
			{
				"x": -2.0612403412,
				"y": 0.5310471458,
				"z": -0.869202196,
				"element": "H" 
			},
			{
				"x": -1.7329303397,
				"y": 2.7472330724,
				"z": 0.2268719177,
				"element": "H" 
			},
			{
				"x": -2.8677279969,
				"y": 2.312586519,
				"z": 1.4910157159,
				"element": "H" 
			}
		],
		 "valence_orbital": [ 
			{
				"type": "occ",
				"energy": -0.30664,
				"method": "rhf"
			},
			{
				"type": "occ",
				"energy": -0.29629,
				"method": "rhf"
			},
			{
				"type": "occ",
				"energy": -0.28616,
				"method": "rhf"
			},
			{
				"type": "occ",
				"energy": -0.28323,
				"method": "rhf"
			},
			{
				"type": "occ",
				"energy": -0.25174,
				"method": "rhf"
			},
			{
				"type": "unocc",
				"energy": -0.07637,
				"method": "rhf"
			},
			{
				"type": "unocc",
				"energy": -0.05592,
				"method": "rhf"
			},
			{
				"type": "unocc",
				"energy": -0.03548,
				"method": "rhf"
			},
			{
				"type": "unocc",
				"energy": 0.02282,
				"method": "rhf"
			},
			{
				"type": "unocc",
				"energy": 0.05467,
				"method": "rhf"
			}
		],
		"cosmo_sigma_profile": { 
			"-0.025": 0.0,
			"-0.024": 0.0,
			"-0.023": 0.0,
			"-0.022": 0.0,
			"-0.021": 0.0,
			"-0.02": 0.0,
			"-0.019": 0.0,
			"-0.018": 0.0,
			"-0.017": 0.0,
			"-0.016": 0.0,
			"-0.015": 0.0,
			"-0.014": 0.00626583596726,
			"-0.013": 0.149801932103,
			"-0.012": 0.960533481591,
			"-0.011": 1.71165544687,
			"-0.01": 0.981919554344,
			"-0.009": 2.31639128933,
			"-0.008": 5.05000404528,
			"-0.007": 5.83073843909,
			"-0.006": 8.68959533075,
			"-0.005": 13.0618437529,
			"-0.004": 32.2001287458,
			"-0.003": 41.8159642899,
			"-0.002": 39.4165978284,
			"-0.001": 32.5540211162,
			"0.0": 26.9091830423,
			"0.001": 14.6669702897,
			"0.002": 9.38233761637,
			"0.003": 6.13623823543,
			"0.004": 6.21052328278,
			"0.005": 6.50583575313,
			"0.006": 4.9402093452,
			"0.007": 6.71176947525,
			"0.008": 6.46553416565,
			"0.009": 6.65924551556,
			"0.01": 11.8721003334,
			"0.011": 12.8660323334,
			"0.012": 4.98231106727,
			"0.013": 0.649064846238,
			"0.014": 0.0,
			"0.015": 0.0,
			"0.016": 0.0,
			"0.017": 0.0,
			"0.018": 0.0,
			"0.019": 0.0,
			"0.02": 0.0,
			"0.021": 0.0,
			"0.022": 0.0,
			"0.023": 0.0,
			"0.024": 0.0,
			"0.025": 0.0
		}
	}
}
