{
	 "smiles": "FC1=CC=C(C=C1)N1C(=O)C2C(C1=O)C(=NN2C1=CC=CC=C1)C(=O)C1=CC=CC=C1", 
	 "Tm": 484.15, 
	 "num_atms": 47, 
	 "gaussian": { 
		 "optdone": 1, 
		 "sigma_profile": "yes", 
		 "theory": "DFT", 
		 "functional": "B3LYP", 
		 "basiset": "6-31G**", 
		 "properties": { 
			 "R2extent": 15026.0804, 
			 "electric_dipole_moment_norm": 2.55541580961, 
			 "electric_quadrupole_moment_norm": 12.5171603117, 
			 "total_energy": -1413.94537082, 
			 "HOMO_LUMO_gap": 0.13423, 
			 "cosmo_polarized_energy": -19.62, 
			 "cosmo_cavitation_energy": 52.77, 
			 "cosmo_dispersion_energy": -36.38, 
			 "cosmo_repulsion_energy": 2.67, 
			 "cosmo_total_nonelectrostatic_energy": 19.05, 
			 "SMD_solvation_energy": 9.77 
		},
		"coords": [
			{
				"x": -7.4318884196,
				"y": -0.7302625341,
				"z": -2.0845715016,
				"element": "F" 
			},
			{
				"x": -6.2360190525,
				"y": -0.3323671572,
				"z": -1.6089167051,
				"element": "C" 
			},
			{
				"x": -5.5529018874,
				"y": -1.1597338166,
				"z": -0.7245901776,
				"element": "C" 
			},
			{
				"x": -4.3144288098,
				"y": -0.7490709621,
				"z": -0.2376330202,
				"element": "C" 
			},
			{
				"x": -3.7837863012,
				"y": 0.4838127544,
				"z": -0.6326827024,
				"element": "C" 
			},
			{
				"x": -4.4871708858,
				"y": 1.3059273134,
				"z": -1.5196758984,
				"element": "C" 
			},
			{
				"x": -5.721409569,
				"y": 0.8929936239,
				"z": -2.0165230079,
				"element": "C" 
			},
			{
				"x": -2.5105327809,
				"y": 0.9027200727,
				"z": -0.1251019746,
				"element": "N" 
			},
			{
				"x": -2.1399878676,
				"y": 0.780327489,
				"z": 1.2157278853,
				"element": "C" 
			},
			{
				"x": -2.8450539713,
				"y": 0.3557914595,
				"z": 2.10604378,
				"element": "O" 
			},
			{
				"x": -0.690693601,
				"y": 1.2821219638,
				"z": 1.3642842957,
				"element": "C" 
			},
			{
				"x": -0.3061454788,
				"y": 1.8102541247,
				"z": -0.0279523395,
				"element": "C" 
			},
			{
				"x": -1.5149131827,
				"y": 1.5092077123,
				"z": -0.9237450562,
				"element": "C" 
			},
			{
				"x": -1.6209927879,
				"y": 1.7460996157,
				"z": -2.1016449058,
				"element": "O" 
			},
			{
				"x": 0.8988896608,
				"y": 0.9515956601,
				"z": -0.3666132562,
				"element": "C" 
			},
			{
				"x": 1.1630186197,
				"y": 0.0848455156,
				"z": 0.5601295132,
				"element": "N" 
			},
			{
				"x": 0.2781073998,
				"y": 0.1797433664,
				"z": 1.5757750039,
				"element": "N" 
			},
			{
				"x": 0.6030397382,
				"y": -0.3758160698,
				"z": 2.8363297961,
				"element": "C" 
			},
			{
				"x": 1.8307099633,
				"y": -1.0336964215,
				"z": 3.020344383,
				"element": "C" 
			},
			{
				"x": 2.1427469961,
				"y": -1.5717488912,
				"z": 4.2653148671,
				"element": "C" 
			},
			{
				"x": 1.2555849181,
				"y": -1.4577602749,
				"z": 5.3390334971,
				"element": "C" 
			},
			{
				"x": 0.0391722565,
				"y": -0.8041309775,
				"z": 5.147718377,
				"element": "C" 
			},
			{
				"x": -0.299383668,
				"y": -0.2681496972,
				"z": 3.904399494,
				"element": "C" 
			},
			{
				"x": 1.7628509929,
				"y": 1.2494604237,
				"z": -1.5326041775,
				"element": "C" 
			},
			{
				"x": 1.6349642645,
				"y": 2.3606048131,
				"z": -2.0445174132,
				"element": "O" 
			},
			{
				"x": 2.7711129982,
				"y": 0.2717650798,
				"z": -2.0422582177,
				"element": "C" 
			},
			{
				"x": 2.7709576608,
				"y": -1.094808596,
				"z": -1.7195249214,
				"element": "C" 
			},
			{
				"x": 3.731093069,
				"y": -1.9434464408,
				"z": -2.2702156908,
				"element": "C" 
			},
			{
				"x": 4.6975769925,
				"y": -1.4404371259,
				"z": -3.14285299,
				"element": "C" 
			},
			{
				"x": 4.6998913462,
				"y": -0.0818192346,
				"z": -3.4736610411,
				"element": "C" 
			},
			{
				"x": 3.7396562093,
				"y": 0.7663484557,
				"z": -2.9324152619,
				"element": "C" 
			},
			{
				"x": -5.9879159515,
				"y": -2.1082031784,
				"z": -0.4303142081,
				"element": "H" 
			},
			{
				"x": -3.7706311623,
				"y": -1.3778852382,
				"z": 0.4560684506,
				"element": "H" 
			},
			{
				"x": -4.0672962383,
				"y": 2.2529356346,
				"z": -1.8331491727,
				"element": "H" 
			},
			{
				"x": -6.2839290497,
				"y": 1.5087466426,
				"z": -2.7092464474,
				"element": "H" 
			},
			{
				"x": -0.6396178601,
				"y": 1.9998076283,
				"z": 2.189328551,
				"element": "H" 
			},
			{
				"x": -0.0719814017,
				"y": 2.8748479959,
				"z": -0.1047168691,
				"element": "H" 
			},
			{
				"x": 2.5255455653,
				"y": -1.1077511586,
				"z": 2.1934928728,
				"element": "H" 
			},
			{
				"x": 3.0956010135,
				"y": -2.0763923266,
				"z": 4.3974214418,
				"element": "H" 
			},
			{
				"x": 1.5092014582,
				"y": -1.8761229066,
				"z": 6.3080936042,
				"element": "H" 
			},
			{
				"x": -0.6676529542,
				"y": -0.7152913417,
				"z": 5.967599979,
				"element": "H" 
			},
			{
				"x": -1.2700020446,
				"y": 0.1905538618,
				"z": 3.7582807139,
				"element": "H" 
			},
			{
				"x": 2.0242818999,
				"y": -1.4925739308,
				"z": -1.0440900183,
				"element": "H" 
			},
			{
				"x": 3.7213566703,
				"y": -3.0002126975,
				"z": -2.0197617884,
				"element": "H" 
			},
			{
				"x": 5.4445730357,
				"y": -2.105027764,
				"z": -3.5678616561,
				"element": "H" 
			},
			{
				"x": 5.4482344485,
				"y": 0.3116831575,
				"z": -4.1553791093,
				"element": "H" 
			},
			{
				"x": 3.7143677487,
				"y": 1.8211143775,
				"z": -3.1838669773,
				"element": "H" 
			}
		],
		 "valence_orbital": [ 
			{
				"type": "occ",
				"energy": -0.25842,
				"method": "rhf"
			},
			{
				"type": "occ",
				"energy": -0.25621,
				"method": "rhf"
			},
			{
				"type": "occ",
				"energy": -0.25504,
				"method": "rhf"
			},
			{
				"type": "occ",
				"energy": -0.24724,
				"method": "rhf"
			},
			{
				"type": "occ",
				"energy": -0.21417,
				"method": "rhf"
			},
			{
				"type": "unocc",
				"energy": -0.07994,
				"method": "rhf"
			},
			{
				"type": "unocc",
				"energy": -0.04611,
				"method": "rhf"
			},
			{
				"type": "unocc",
				"energy": -0.03204,
				"method": "rhf"
			},
			{
				"type": "unocc",
				"energy": -0.02117,
				"method": "rhf"
			},
			{
				"type": "unocc",
				"energy": -0.02008,
				"method": "rhf"
			}
		],
		"cosmo_sigma_profile": { 
			"-0.025": 0.0,
			"-0.024": 0.0,
			"-0.023": 0.0,
			"-0.022": 0.0,
			"-0.021": 0.0,
			"-0.02": 0.0,
			"-0.019": 0.0,
			"-0.018": 0.0,
			"-0.017": 0.0,
			"-0.016": 0.0,
			"-0.015": 0.0,
			"-0.014": 0.0,
			"-0.013": 0.0,
			"-0.012": 0.175540593904,
			"-0.011": 1.090020576,
			"-0.01": 4.24165409356,
			"-0.009": 7.3603356674,
			"-0.008": 7.70024503444,
			"-0.007": 13.8571939675,
			"-0.006": 24.6778939719,
			"-0.005": 29.4660568541,
			"-0.004": 30.150957853,
			"-0.003": 26.9047358699,
			"-0.002": 21.7841467064,
			"-0.001": 24.1916597763,
			"0.0": 30.0600500771,
			"0.001": 30.643918979,
			"0.002": 35.6070925941,
			"0.003": 36.5594790058,
			"0.004": 38.4810857082,
			"0.005": 19.3638312416,
			"0.006": 7.12146151338,
			"0.007": 4.69876191553,
			"0.008": 5.9845253221,
			"0.009": 6.26708879207,
			"0.01": 8.76955924685,
			"0.011": 6.86841219266,
			"0.012": 3.74627943035,
			"0.013": 0.0,
			"0.014": 0.0,
			"0.015": 0.0,
			"0.016": 0.0,
			"0.017": 0.0,
			"0.018": 0.0,
			"0.019": 0.0,
			"0.02": 0.0,
			"0.021": 0.0,
			"0.022": 0.0,
			"0.023": 0.0,
			"0.024": 0.0,
			"0.025": 0.0
		}
	}
}
