{
	 "smiles": "O=C(NC1=NC=CC=N1)C1CCNCC1", 
	 "Tm": 420.15, 
	 "num_atms": 29, 
	 "gaussian": { 
		 "optdone": 1, 
		 "sigma_profile": "yes", 
		 "theory": "DFT", 
		 "functional": "B3LYP", 
		 "basiset": "6-31G**", 
		 "properties": { 
			 "R2extent": 3912.0181, 
			 "electric_dipole_moment_norm": 5.29966903967, 
			 "electric_quadrupole_moment_norm": 13.5650222849, 
			 "total_energy": -683.731543573, 
			 "HOMO_LUMO_gap": 0.15894, 
			 "cosmo_polarized_energy": -12.75, 
			 "cosmo_cavitation_energy": 30.82, 
			 "cosmo_dispersion_energy": -22.5, 
			 "cosmo_repulsion_energy": 1.76, 
			 "cosmo_total_nonelectrostatic_energy": 10.08, 
			 "SMD_solvation_energy": 2.3 
		},
		"coords": [
			{
				"x": -3.2537537679,
				"y": 1.9902919865,
				"z": 0.7364161251,
				"element": "O" 
			},
			{
				"x": -2.4261806715,
				"y": 1.1900098486,
				"z": 0.3267293103,
				"element": "C" 
			},
			{
				"x": -2.7847940543,
				"y": -0.1671207386,
				"z": 0.4448486635,
				"element": "N" 
			},
			{
				"x": -2.2366441549,
				"y": -1.4088728807,
				"z": 0.1701423483,
				"element": "C" 
			},
			{
				"x": -3.056905397,
				"y": -2.4288874251,
				"z": 0.5039738224,
				"element": "N" 
			},
			{
				"x": -2.5978596268,
				"y": -3.654787421,
				"z": 0.2646345036,
				"element": "C" 
			},
			{
				"x": -1.3434255207,
				"y": -3.8970247007,
				"z": -0.2993076037,
				"element": "C" 
			},
			{
				"x": -0.5880350401,
				"y": -2.7687695898,
				"z": -0.5985989142,
				"element": "C" 
			},
			{
				"x": -1.0172213451,
				"y": -1.5222584629,
				"z": -0.3704685879,
				"element": "N" 
			},
			{
				"x": -1.1052054554,
				"y": 1.6650829408,
				"z": -0.2602484953,
				"element": "C" 
			},
			{
				"x": 0.1238229016,
				"y": 1.2972492535,
				"z": 0.5995237294,
				"element": "C" 
			},
			{
				"x": 1.3728724553,
				"y": 2.0583350142,
				"z": 0.0984830513,
				"element": "C" 
			},
			{
				"x": 1.2604531895,
				"y": 2.3613324336,
				"z": -1.3354448826,
				"element": "N" 
			},
			{
				"x": 0.6109377112,
				"y": 1.2908365726,
				"z": -2.0915329055,
				"element": "C" 
			},
			{
				"x": -0.89109667,
				"y": 1.2892320806,
				"z": -1.7547276323,
				"element": "C" 
			},
			{
				"x": -3.7073438689,
				"y": -0.2481745622,
				"z": 0.8584549314,
				"element": "H" 
			},
			{
				"x": -3.2606993993,
				"y": -4.4753238452,
				"z": 0.5349783338,
				"element": "H" 
			},
			{
				"x": -0.9813153756,
				"y": -4.9000600149,
				"z": -0.490041398,
				"element": "H" 
			},
			{
				"x": 0.4036992602,
				"y": -2.8558048214,
				"z": -1.0388826058,
				"element": "H" 
			},
			{
				"x": -1.2150822296,
				"y": 2.7509131841,
				"z": -0.2078400636,
				"element": "H" 
			},
			{
				"x": -0.0588548438,
				"y": 1.5506489333,
				"z": 1.6494358907,
				"element": "H" 
			},
			{
				"x": 0.2894774415,
				"y": 0.2203372316,
				"z": 0.547147345,
				"element": "H" 
			},
			{
				"x": 1.4767880528,
				"y": 3.0080605455,
				"z": 0.6386101299,
				"element": "H" 
			},
			{
				"x": 2.2654351437,
				"y": 1.4533473657,
				"z": 0.3400166821,
				"element": "H" 
			},
			{
				"x": 2.1751957625,
				"y": 2.5734399495,
				"z": -1.7196962033,
				"element": "H" 
			},
			{
				"x": 1.0375416572,
				"y": 0.2918436693,
				"z": -1.8833287517,
				"element": "H" 
			},
			{
				"x": 0.7537226935,
				"y": 1.4801587269,
				"z": -3.1605821866,
				"element": "H" 
			},
			{
				"x": -1.4107194742,
				"y": 2.0308136271,
				"z": -2.3701112809,
				"element": "H" 
			},
			{
				"x": -1.310709374,
				"y": 0.3084510992,
				"z": -1.9863833553,
				"element": "H" 
			}
		],
		 "valence_orbital": [ 
			{
				"type": "occ",
				"energy": -0.30933,
				"method": "rhf"
			},
			{
				"type": "occ",
				"energy": -0.26114,
				"method": "rhf"
			},
			{
				"type": "occ",
				"energy": -0.25191,
				"method": "rhf"
			},
			{
				"type": "occ",
				"energy": -0.24717,
				"method": "rhf"
			},
			{
				"type": "occ",
				"energy": -0.20925,
				"method": "rhf"
			},
			{
				"type": "unocc",
				"energy": -0.05031,
				"method": "rhf"
			},
			{
				"type": "unocc",
				"energy": -0.03536,
				"method": "rhf"
			},
			{
				"type": "unocc",
				"energy": 0.03068,
				"method": "rhf"
			},
			{
				"type": "unocc",
				"energy": 0.07988,
				"method": "rhf"
			},
			{
				"type": "unocc",
				"energy": 0.09422,
				"method": "rhf"
			}
		],
		"cosmo_sigma_profile": { 
			"-0.025": 0.0,
			"-0.024": 0.0,
			"-0.023": 0.0,
			"-0.022": 0.0,
			"-0.021": 0.0,
			"-0.02": 0.0,
			"-0.019": 0.0,
			"-0.018": 0.0,
			"-0.017": 0.0,
			"-0.016": 0.0,
			"-0.015": 0.0,
			"-0.014": 0.0,
			"-0.013": 0.274114559946,
			"-0.012": 0.518772450117,
			"-0.011": 0.702354908692,
			"-0.01": 1.38993179911,
			"-0.009": 1.93757836692,
			"-0.008": 5.24445282442,
			"-0.007": 9.53771031928,
			"-0.006": 8.62974755677,
			"-0.005": 7.4393310511,
			"-0.004": 10.3225275977,
			"-0.003": 17.4803868377,
			"-0.002": 31.472623765,
			"-0.001": 34.4040442889,
			"0.0": 36.4678734291,
			"0.001": 19.5737924639,
			"0.002": 8.65682590752,
			"0.003": 6.46996140039,
			"0.004": 5.42414696199,
			"0.005": 3.82237461852,
			"0.006": 4.26135051484,
			"0.007": 2.80295216595,
			"0.008": 2.4239843652,
			"0.009": 2.67368684529,
			"0.01": 3.0742669514,
			"0.011": 3.65157617738,
			"0.012": 6.11052126253,
			"0.013": 4.68878517875,
			"0.014": 1.44932905335,
			"0.015": 0.538997150541,
			"0.016": 0.47237909362,
			"0.017": 0.396537027196,
			"0.018": 0.237328146809,
			"0.019": 0.0,
			"0.02": 0.0,
			"0.021": 0.0,
			"0.022": 0.0,
			"0.023": 0.0,
			"0.024": 0.0,
			"0.025": 0.0
		}
	}
}
