{
	 "smiles": "CCC1CCCCC1NC(=O)C1=CC(F)=NC=C1", 
	 "Tm": 343.15, 
	 "num_atms": 37, 
	 "gaussian": { 
		 "optdone": 1, 
		 "sigma_profile": "yes", 
		 "theory": "DFT", 
		 "functional": "B3LYP", 
		 "basiset": "6-31G**", 
		 "properties": { 
			 "R2extent": 6294.1335, 
			 "electric_dipole_moment_norm": 5.22151865361, 
			 "electric_quadrupole_moment_norm": 14.2556902877, 
			 "total_energy": -829.529749719, 
			 "HOMO_LUMO_gap": 0.19353, 
			 "cosmo_polarized_energy": -13.62, 
			 "cosmo_cavitation_energy": 37.65, 
			 "cosmo_dispersion_energy": -26.01, 
			 "cosmo_repulsion_energy": 1.98, 
			 "cosmo_total_nonelectrostatic_energy": 13.62, 
			 "SMD_solvation_energy": 4.91 
		},
		"coords": [
			{
				"x": -0.0320151077,
				"y": 0.6443569026,
				"z": -1.6324512649,
				"element": "C" 
			},
			{
				"x": -0.4843769043,
				"y": 1.8431461169,
				"z": -0.7845491954,
				"element": "C" 
			},
			{
				"x": -1.6783563081,
				"y": 1.6403156764,
				"z": 0.1814250757,
				"element": "C" 
			},
			{
				"x": -2.9079176789,
				"y": 0.9369005974,
				"z": -0.4646789366,
				"element": "C" 
			},
			{
				"x": -3.0487831649,
				"y": -0.5318208895,
				"z": -0.0393431795,
				"element": "C" 
			},
			{
				"x": -3.2413360055,
				"y": -0.6563306863,
				"z": 1.4918977167,
				"element": "C" 
			},
			{
				"x": -2.5578415782,
				"y": 0.4966091258,
				"z": 2.2672125254,
				"element": "C" 
			},
			{
				"x": -1.2936472043,
				"y": 1.012892222,
				"z": 1.5621495122,
				"element": "C" 
			},
			{
				"x": -0.2767585627,
				"y": -0.0439725184,
				"z": 1.518468329,
				"element": "N" 
			},
			{
				"x": 1.0225738524,
				"y": 0.1693946825,
				"z": 1.8721949751,
				"element": "C" 
			},
			{
				"x": 1.466282164,
				"y": 1.2673194609,
				"z": 2.199120609,
				"element": "O" 
			},
			{
				"x": 1.9257120602,
				"y": -1.04246404,
				"z": 1.8286946257,
				"element": "C" 
			},
			{
				"x": 3.2959475628,
				"y": -0.8126271133,
				"z": 1.7169331021,
				"element": "C" 
			},
			{
				"x": 4.1292588434,
				"y": -1.9282631595,
				"z": 1.6772960342,
				"element": "C" 
			},
			{
				"x": 5.4491666196,
				"y": -1.7276534307,
				"z": 1.5544983521,
				"element": "F" 
			},
			{
				"x": 3.7394647342,
				"y": -3.1844512134,
				"z": 1.7504587346,
				"element": "N" 
			},
			{
				"x": 2.4209994204,
				"y": -3.3940047138,
				"z": 1.8787095023,
				"element": "C" 
			},
			{
				"x": 1.478546771,
				"y": -2.3699196426,
				"z": 1.9200895147,
				"element": "C" 
			},
			{
				"x": 0.3514196607,
				"y": -0.1797152383,
				"z": -1.0261353795,
				"element": "H" 
			},
			{
				"x": -0.843523533,
				"y": 0.2533601947,
				"z": -2.2554205345,
				"element": "H" 
			},
			{
				"x": 0.7727020714,
				"y": 0.9495792283,
				"z": -2.3095382198,
				"element": "H" 
			},
			{
				"x": 0.3669267331,
				"y": 2.2190090852,
				"z": -0.2046612289,
				"element": "H" 
			},
			{
				"x": -0.7615805883,
				"y": 2.6511029441,
				"z": -1.4743550807,
				"element": "H" 
			},
			{
				"x": -2.0056437869,
				"y": 2.6541274161,
				"z": 0.4475661218,
				"element": "H" 
			},
			{
				"x": -2.8540283393,
				"y": 1.0123979812,
				"z": -1.5561134169,
				"element": "H" 
			},
			{
				"x": -3.8242658695,
				"y": 1.4671644429,
				"z": -0.1756540077,
				"element": "H" 
			},
			{
				"x": -3.8882950898,
				"y": -1.0029702305,
				"z": -0.5623448999,
				"element": "H" 
			},
			{
				"x": -2.1558201558,
				"y": -1.0844553526,
				"z": -0.3602816579,
				"element": "H" 
			},
			{
				"x": -4.3102079064,
				"y": -0.6569845678,
				"z": 1.7327158877,
				"element": "H" 
			},
			{
				"x": -2.8607991741,
				"y": -1.6254591253,
				"z": 1.8374798036,
				"element": "H" 
			},
			{
				"x": -2.3193100094,
				"y": 0.1858226959,
				"z": 3.2896981619,
				"element": "H" 
			},
			{
				"x": -3.2506128874,
				"y": 1.3423474957,
				"z": 2.3514590626,
				"element": "H" 
			},
			{
				"x": -0.8271649966,
				"y": 1.7977001614,
				"z": 2.1612922996,
				"element": "H" 
			},
			{
				"x": -0.5351864563,
				"y": -0.9502224445,
				"z": 1.1606675145,
				"element": "H" 
			},
			{
				"x": 3.6861117624,
				"y": 0.1963065273,
				"z": 1.6696521134,
				"element": "H" 
			},
			{
				"x": 2.1095396122,
				"y": -4.433343334,
				"z": 1.9559556013,
				"element": "H" 
			},
			{
				"x": 0.4307194394,
				"y": -2.6142952568,
				"z": 2.0594918271,
				"element": "H" 
			}
		],
		 "valence_orbital": [ 
			{
				"type": "occ",
				"energy": -0.29753,
				"method": "rhf"
			},
			{
				"type": "occ",
				"energy": -0.28442,
				"method": "rhf"
			},
			{
				"type": "occ",
				"energy": -0.26715,
				"method": "rhf"
			},
			{
				"type": "occ",
				"energy": -0.26214,
				"method": "rhf"
			},
			{
				"type": "occ",
				"energy": -0.25247,
				"method": "rhf"
			},
			{
				"type": "unocc",
				"energy": -0.05894,
				"method": "rhf"
			},
			{
				"type": "unocc",
				"energy": -0.02052,
				"method": "rhf"
			},
			{
				"type": "unocc",
				"energy": 0.04379,
				"method": "rhf"
			},
			{
				"type": "unocc",
				"energy": 0.0496,
				"method": "rhf"
			},
			{
				"type": "unocc",
				"energy": 0.06969,
				"method": "rhf"
			}
		],
		"cosmo_sigma_profile": { 
			"-0.025": 0.0,
			"-0.024": 0.0,
			"-0.023": 0.0,
			"-0.022": 0.0,
			"-0.021": 0.0,
			"-0.02": 0.0,
			"-0.019": 0.0,
			"-0.018": 0.0,
			"-0.017": 0.0,
			"-0.016": 0.0,
			"-0.015": 0.0,
			"-0.014": 0.0191548829299,
			"-0.013": 0.606204309451,
			"-0.012": 1.06344604511,
			"-0.011": 1.28000536598,
			"-0.01": 1.24111471289,
			"-0.009": 2.52405237171,
			"-0.008": 4.28320954194,
			"-0.007": 7.0966994592,
			"-0.006": 6.24289902421,
			"-0.005": 5.71755751973,
			"-0.004": 6.46564636818,
			"-0.003": 23.0358809372,
			"-0.002": 41.6819796511,
			"-0.001": 45.182627742,
			"0.0": 45.9207345848,
			"0.001": 35.7048332718,
			"0.002": 13.6275666031,
			"0.003": 9.2120603124,
			"0.004": 10.59763203,
			"0.005": 5.60708443016,
			"0.006": 3.22679938453,
			"0.007": 3.4183960338,
			"0.008": 3.09388296478,
			"0.009": 2.96516565661,
			"0.01": 2.09347669951,
			"0.011": 2.27369637401,
			"0.012": 3.3255833218,
			"0.013": 4.90225713657,
			"0.014": 2.50830676552,
			"0.015": 0.150407985006,
			"0.016": 0.0,
			"0.017": 0.0,
			"0.018": 0.0,
			"0.019": 0.0,
			"0.02": 0.0,
			"0.021": 0.0,
			"0.022": 0.0,
			"0.023": 0.0,
			"0.024": 0.0,
			"0.025": 0.0
		}
	}
}
