{
	 "smiles": "CC1=CC=C(C=C1)S(=O)(=O)C#N", 
	 "Tm": 321.15, 
	 "num_atms": 19, 
	 "gaussian": { 
		 "optdone": 1, 
		 "sigma_profile": "yes", 
		 "theory": "DFT", 
		 "functional": "B3LYP", 
		 "basiset": "6-31G**", 
		 "properties": { 
			 "R2extent": 2593.2504, 
			 "electric_dipole_moment_norm": 6.63148635074, 
			 "electric_quadrupole_moment_norm": 9.37219466027, 
			 "total_energy": -912.343355802, 
			 "HOMO_LUMO_gap": 0.21395, 
			 "cosmo_polarized_energy": -10.9, 
			 "cosmo_cavitation_energy": 26.12, 
			 "cosmo_dispersion_energy": -18.88, 
			 "cosmo_repulsion_energy": 1.47, 
			 "cosmo_total_nonelectrostatic_energy": 8.71, 
			 "SMD_solvation_energy": 6.14 
		},
		"coords": [
			{
				"x": 1.0091568799,
				"y": -0.618501269,
				"z": -4.1055235037,
				"element": "C" 
			},
			{
				"x": 0.4995341022,
				"y": -0.212727511,
				"z": -2.7449419493,
				"element": "C" 
			},
			{
				"x": 1.3932095238,
				"y": 0.1482719707,
				"z": -1.7245098547,
				"element": "C" 
			},
			{
				"x": 0.9366146238,
				"y": 0.4956848572,
				"z": -0.4563461993,
				"element": "C" 
			},
			{
				"x": -0.4392670678,
				"y": 0.4807176279,
				"z": -0.2131039026,
				"element": "C" 
			},
			{
				"x": -1.3574119025,
				"y": 0.1366671786,
				"z": -1.2086337606,
				"element": "C" 
			},
			{
				"x": -0.8767015996,
				"y": -0.2069341025,
				"z": -2.4688954385,
				"element": "C" 
			},
			{
				"x": -1.0385834474,
				"y": 0.9325968487,
				"z": 1.3987072782,
				"element": "S" 
			},
			{
				"x": -2.4357950468,
				"y": 1.3454703545,
				"z": 1.3064106688,
				"element": "O" 
			},
			{
				"x": -0.0282895226,
				"y": 1.7228501265,
				"z": 2.0958381042,
				"element": "O" 
			},
			{
				"x": -1.0603909233,
				"y": -0.6524965614,
				"z": 2.2230178486,
				"element": "C" 
			},
			{
				"x": -1.0818066183,
				"y": -1.6742548135,
				"z": 2.7768284225,
				"element": "N" 
			},
			{
				"x": 1.9529249084,
				"y": -0.1207854847,
				"z": -4.3447334545,
				"element": "H" 
			},
			{
				"x": 1.1908220866,
				"y": -1.6997180213,
				"z": -4.1433095356,
				"element": "H" 
			},
			{
				"x": 0.2863565254,
				"y": -0.3817232018,
				"z": -4.8911005952,
				"element": "H" 
			},
			{
				"x": 2.4601548043,
				"y": 0.1628570274,
				"z": -1.9281762169,
				"element": "H" 
			},
			{
				"x": 1.6256124335,
				"y": 0.7889283827,
				"z": 0.3282231864,
				"element": "H" 
			},
			{
				"x": -2.4213266871,
				"y": 0.1555725432,
				"z": -0.9989025371,
				"element": "H" 
			},
			{
				"x": -1.5808130723,
				"y": -0.4694759521,
				"z": -3.2533485608,
				"element": "H" 
			}
		],
		 "valence_orbital": [ 
			{
				"type": "occ",
				"energy": -0.34298,
				"method": "rhf"
			},
			{
				"type": "occ",
				"energy": -0.33094,
				"method": "rhf"
			},
			{
				"type": "occ",
				"energy": -0.32902,
				"method": "rhf"
			},
			{
				"type": "occ",
				"energy": -0.28887,
				"method": "rhf"
			},
			{
				"type": "occ",
				"energy": -0.28499,
				"method": "rhf"
			},
			{
				"type": "unocc",
				"energy": -0.07104,
				"method": "rhf"
			},
			{
				"type": "unocc",
				"energy": -0.04085,
				"method": "rhf"
			},
			{
				"type": "unocc",
				"energy": -0.01799,
				"method": "rhf"
			},
			{
				"type": "unocc",
				"energy": -0.01102,
				"method": "rhf"
			},
			{
				"type": "unocc",
				"energy": 0.01928,
				"method": "rhf"
			}
		],
		"cosmo_sigma_profile": { 
			"-0.025": 0.0,
			"-0.024": 0.0,
			"-0.023": 0.0,
			"-0.022": 0.0,
			"-0.021": 0.0,
			"-0.02": 0.0,
			"-0.019": 0.0,
			"-0.018": 0.0,
			"-0.017": 0.0,
			"-0.016": 0.0,
			"-0.015": 0.0,
			"-0.014": 0.0,
			"-0.013": 0.0,
			"-0.012": 0.0,
			"-0.011": 0.0,
			"-0.01": 0.0,
			"-0.009": 0.270612825461,
			"-0.008": 3.30263193186,
			"-0.007": 10.0909697926,
			"-0.006": 13.083314863,
			"-0.005": 15.5452222186,
			"-0.004": 13.4798419076,
			"-0.003": 16.2437107035,
			"-0.002": 17.1975087839,
			"-0.001": 18.4369439191,
			"0.0": 17.9232674708,
			"0.001": 15.0474882453,
			"0.002": 15.5568899417,
			"0.003": 6.03614877357,
			"0.004": 6.03646135549,
			"0.005": 5.55547338429,
			"0.006": 6.31674872027,
			"0.007": 6.4246374007,
			"0.008": 11.0165238497,
			"0.009": 10.8923493967,
			"0.01": 2.24811841751,
			"0.011": 0.0540974871987,
			"0.012": 0.0,
			"0.013": 0.0,
			"0.014": 0.0,
			"0.015": 0.0,
			"0.016": 0.0,
			"0.017": 0.0,
			"0.018": 0.0,
			"0.019": 0.0,
			"0.02": 0.0,
			"0.021": 0.0,
			"0.022": 0.0,
			"0.023": 0.0,
			"0.024": 0.0,
			"0.025": 0.0
		}
	}
}
