{
	 "smiles": "CCOC1=CC(CC(=O)N[C@@H](CC(C)C)C2=CC=CC=C2N2CCCCC2)=CC=C1C(O)=O", 
	 "Tm": 403.65, 
	 "num_atms": 69, 
	 "gaussian": { 
		 "optdone": 1, 
		 "sigma_profile": "yes", 
		 "theory": "DFT", 
		 "functional": "B3LYP", 
		 "basiset": "6-31G**", 
		 "properties": { 
			 "R2extent": 19076.0829, 
			 "electric_dipole_moment_norm": 7.08764318303, 
			 "electric_quadrupole_moment_norm": 60.5382212658, 
			 "total_energy": -1461.00779861, 
			 "HOMO_LUMO_gap": 0.16783, 
			 "cosmo_polarized_energy": -23.4, 
			 "cosmo_cavitation_energy": 67.78, 
			 "cosmo_dispersion_energy": -42.55, 
			 "cosmo_repulsion_energy": 3.26, 
			 "cosmo_total_nonelectrostatic_energy": 28.49, 
			 "SMD_solvation_energy": 11.69 
		},
		"coords": [
			{
				"x": 1.5011669033,
				"y": -2.4378219067,
				"z": 3.8181089973,
				"element": "C" 
			},
			{
				"x": 2.9395098518,
				"y": -2.9012211246,
				"z": 3.6268839382,
				"element": "C" 
			},
			{
				"x": 3.1181178958,
				"y": -3.7019108752,
				"z": 2.441454844,
				"element": "O" 
			},
			{
				"x": 3.1585691472,
				"y": -3.126715193,
				"z": 1.1928266943,
				"element": "C" 
			},
			{
				"x": 3.1279695155,
				"y": -1.7448972965,
				"z": 1.0029141624,
				"element": "C" 
			},
			{
				"x": 3.1591347506,
				"y": -1.201762535,
				"z": -0.2866379151,
				"element": "C" 
			},
			{
				"x": 3.0877548872,
				"y": 0.3020297062,
				"z": -0.4681945772,
				"element": "C" 
			},
			{
				"x": 1.8259211575,
				"y": 0.9104480216,
				"z": 0.1633208967,
				"element": "C" 
			},
			{
				"x": 1.608095955,
				"y": 0.8339622666,
				"z": 1.3717538256,
				"element": "O" 
			},
			{
				"x": 0.9878497791,
				"y": 1.5440998009,
				"z": -0.6982846793,
				"element": "N" 
			},
			{
				"x": -0.3066003037,
				"y": 2.095593846,
				"z": -0.2615144748,
				"element": "C" 
			},
			{
				"x": -0.1857522128,
				"y": 3.4464221501,
				"z": 0.4973068269,
				"element": "C" 
			},
			{
				"x": 0.2388195917,
				"y": 4.727727967,
				"z": -0.2478630334,
				"element": "C" 
			},
			{
				"x": -0.0342129523,
				"y": 5.9481759675,
				"z": 0.6483693782,
				"element": "C" 
			},
			{
				"x": 1.7123104675,
				"y": 4.7247072121,
				"z": -0.6870915369,
				"element": "C" 
			},
			{
				"x": -1.2834672298,
				"y": 2.1268102215,
				"z": -1.4272363717,
				"element": "C" 
			},
			{
				"x": -0.9208637989,
				"y": 2.6913664971,
				"z": -2.6592209903,
				"element": "C" 
			},
			{
				"x": -1.8189495535,
				"y": 2.7736310452,
				"z": -3.7235477165,
				"element": "C" 
			},
			{
				"x": -3.1148941747,
				"y": 2.2860018154,
				"z": -3.5651398454,
				"element": "C" 
			},
			{
				"x": -3.4894086358,
				"y": 1.7059316476,
				"z": -2.3545202635,
				"element": "C" 
			},
			{
				"x": -2.5945888044,
				"y": 1.6176488241,
				"z": -1.2755468794,
				"element": "C" 
			},
			{
				"x": -2.9751468069,
				"y": 1.0055690479,
				"z": -0.0411448154,
				"element": "N" 
			},
			{
				"x": -4.2917763954,
				"y": 1.3753752609,
				"z": 0.5229334871,
				"element": "C" 
			},
			{
				"x": -5.2941059871,
				"y": 0.213729985,
				"z": 0.5321250126,
				"element": "C" 
			},
			{
				"x": -4.7543557879,
				"y": -0.9722696415,
				"z": 1.3638926524,
				"element": "C" 
			},
			{
				"x": -3.209031906,
				"y": -1.0445073327,
				"z": 1.307645343,
				"element": "C" 
			},
			{
				"x": -2.6685336638,
				"y": -0.438109683,
				"z": 0.0119899022,
				"element": "C" 
			},
			{
				"x": 3.2423154852,
				"y": -2.059291721,
				"z": -1.3884471063,
				"element": "C" 
			},
			{
				"x": 3.2898521099,
				"y": -3.4353814369,
				"z": -1.1937135323,
				"element": "C" 
			},
			{
				"x": 3.245625593,
				"y": -4.002475564,
				"z": 0.0851666957,
				"element": "C" 
			},
			{
				"x": 3.2922427935,
				"y": -5.5081346958,
				"z": 0.149419502,
				"element": "C" 
			},
			{
				"x": 3.2415056783,
				"y": -6.0869881647,
				"z": 1.3639084449,
				"element": "O" 
			},
			{
				"x": 3.3700799181,
				"y": -6.1873569664,
				"z": -0.8528331454,
				"element": "O" 
			},
			{
				"x": 1.4095420889,
				"y": -1.9366812574,
				"z": 4.7874276171,
				"element": "H" 
			},
			{
				"x": 0.8216130949,
				"y": -3.2950368594,
				"z": 3.8102223004,
				"element": "H" 
			},
			{
				"x": 1.1891269399,
				"y": -1.7323566773,
				"z": 3.0444658257,
				"element": "H" 
			},
			{
				"x": 3.2424346982,
				"y": -3.5690606852,
				"z": 4.4370210692,
				"element": "H" 
			},
			{
				"x": 3.6426626911,
				"y": -2.0617150754,
				"z": 3.6072574599,
				"element": "H" 
			},
			{
				"x": 3.0344559512,
				"y": -1.0647228318,
				"z": 1.8379190033,
				"element": "H" 
			},
			{
				"x": 3.9365355079,
				"y": 0.7780469837,
				"z": 0.0374771602,
				"element": "H" 
			},
			{
				"x": 3.1648692275,
				"y": 0.5529949839,
				"z": -1.5306509267,
				"element": "H" 
			},
			{
				"x": 1.1723926668,
				"y": 1.480120403,
				"z": -1.68760513,
				"element": "H" 
			},
			{
				"x": -0.6943213831,
				"y": 1.4023086521,
				"z": 0.485726239,
				"element": "H" 
			},
			{
				"x": 0.4956068068,
				"y": 3.2715115408,
				"z": 1.3389631456,
				"element": "H" 
			},
			{
				"x": -1.1770460156,
				"y": 3.616812743,
				"z": 0.9365113532,
				"element": "H" 
			},
			{
				"x": -0.3877547089,
				"y": 4.8339567538,
				"z": -1.143234117,
				"element": "H" 
			},
			{
				"x": 0.5474225323,
				"y": 5.8915560936,
				"z": 1.5767029903,
				"element": "H" 
			},
			{
				"x": -1.0924836253,
				"y": 6.0148666814,
				"z": 0.9229699881,
				"element": "H" 
			},
			{
				"x": 0.2405868519,
				"y": 6.8797488394,
				"z": 0.1416344481,
				"element": "H" 
			},
			{
				"x": 2.3748846015,
				"y": 4.6018949714,
				"z": 0.1783491727,
				"element": "H" 
			},
			{
				"x": 1.9401040822,
				"y": 3.9160151757,
				"z": -1.3866153927,
				"element": "H" 
			},
			{
				"x": 1.9737853853,
				"y": 5.6713297243,
				"z": -1.1732652092,
				"element": "H" 
			},
			{
				"x": 0.0786823942,
				"y": 3.0993390761,
				"z": -2.78835456,
				"element": "H" 
			},
			{
				"x": -1.5091954408,
				"y": 3.2227380622,
				"z": -4.6624969341,
				"element": "H" 
			},
			{
				"x": -3.827842878,
				"y": 2.3428169561,
				"z": -4.3827865909,
				"element": "H" 
			},
			{
				"x": -4.4916871691,
				"y": 1.303194457,
				"z": -2.2416787062,
				"element": "H" 
			},
			{
				"x": -4.6868052894,
				"y": 2.2262320831,
				"z": -0.0391330383,
				"element": "H" 
			},
			{
				"x": -4.1496324615,
				"y": 1.7271525622,
				"z": 1.5558825577,
				"element": "H" 
			},
			{
				"x": -6.2554468488,
				"y": 0.558882675,
				"z": 0.9291215111,
				"element": "H" 
			},
			{
				"x": -5.4822059985,
				"y": -0.1081157889,
				"z": -0.4994680168,
				"element": "H" 
			},
			{
				"x": -5.0761022335,
				"y": -0.8758020078,
				"z": 2.4070395909,
				"element": "H" 
			},
			{
				"x": -5.1905882781,
				"y": -1.90612664,
				"z": 0.9917946435,
				"element": "H" 
			},
			{
				"x": -2.8665986971,
				"y": -2.0807032987,
				"z": 1.3962877594,
				"element": "H" 
			},
			{
				"x": -2.7712328637,
				"y": -0.4952062498,
				"z": 2.1494034819,
				"element": "H" 
			},
			{
				"x": -3.095393013,
				"y": -0.9742185595,
				"z": -0.8553861832,
				"element": "H" 
			},
			{
				"x": -1.5819279345,
				"y": -0.5683789365,
				"z": -0.0476813683,
				"element": "H" 
			},
			{
				"x": 3.2692361199,
				"y": -1.652791052,
				"z": -2.3954814107,
				"element": "H" 
			},
			{
				"x": 3.357009045,
				"y": -4.1209256187,
				"z": -2.0314405348,
				"element": "H" 
			},
			{
				"x": 3.1804608861,
				"y": -5.393565025,
				"z": 2.0490170811,
				"element": "H" 
			}
		],
		 "valence_orbital": [ 
			{
				"type": "occ",
				"energy": -0.25432,
				"method": "rhf"
			},
			{
				"type": "occ",
				"energy": -0.25273,
				"method": "rhf"
			},
			{
				"type": "occ",
				"energy": -0.24811,
				"method": "rhf"
			},
			{
				"type": "occ",
				"energy": -0.23281,
				"method": "rhf"
			},
			{
				"type": "occ",
				"energy": -0.20628,
				"method": "rhf"
			},
			{
				"type": "unocc",
				"energy": -0.03845,
				"method": "rhf"
			},
			{
				"type": "unocc",
				"energy": -0.014,
				"method": "rhf"
			},
			{
				"type": "unocc",
				"energy": -0.01027,
				"method": "rhf"
			},
			{
				"type": "unocc",
				"energy": 0.00035,
				"method": "rhf"
			},
			{
				"type": "unocc",
				"energy": 0.02179,
				"method": "rhf"
			}
		],
		"cosmo_sigma_profile": { 
			"-0.025": 0.0,
			"-0.024": 0.0,
			"-0.023": 0.0,
			"-0.022": 0.0,
			"-0.021": 0.0,
			"-0.02": 0.0,
			"-0.019": 0.0,
			"-0.018": 0.0,
			"-0.017": 0.0,
			"-0.016": 0.0,
			"-0.015": 0.0,
			"-0.014": 0.104114755765,
			"-0.013": 0.933870518115,
			"-0.012": 1.16739483824,
			"-0.011": 1.25139727587,
			"-0.01": 1.8609188596,
			"-0.009": 2.77857542526,
			"-0.008": 2.52977703895,
			"-0.007": 6.71436392057,
			"-0.006": 14.9713144572,
			"-0.005": 26.5085960225,
			"-0.004": 32.6796957422,
			"-0.003": 42.6668598744,
			"-0.002": 63.2741387263,
			"-0.001": 74.1322606168,
			"0.0": 62.2748191781,
			"0.001": 54.147062467,
			"0.002": 36.3473115596,
			"0.003": 22.9941701791,
			"0.004": 18.1424430554,
			"0.005": 13.5984859837,
			"0.006": 10.0154602956,
			"0.007": 5.60630674376,
			"0.008": 4.62750881314,
			"0.009": 4.5773886753,
			"0.01": 4.45637659203,
			"0.011": 6.09476059499,
			"0.012": 7.56842369477,
			"0.013": 5.75122133069,
			"0.014": 2.97252258122,
			"0.015": 0.0190160317683,
			"0.016": 0.0,
			"0.017": 0.0,
			"0.018": 0.0,
			"0.019": 0.0,
			"0.02": 0.0,
			"0.021": 0.0,
			"0.022": 0.0,
			"0.023": 0.0,
			"0.024": 0.0,
			"0.025": 0.0
		}
	}
}
