{
	 "smiles": "CC1=C(CC2=CC=CC=C2)N=C(N)S1", 
	 "Tm": 349.15, 
	 "num_atms": 26, 
	 "gaussian": { 
		 "optdone": 1, 
		 "sigma_profile": "yes", 
		 "theory": "DFT", 
		 "functional": "B3LYP", 
		 "basiset": "6-31G**", 
		 "properties": { 
			 "R2extent": 4206.363, 
			 "electric_dipole_moment_norm": 1.81068036108, 
			 "electric_quadrupole_moment_norm": 13.6813772808, 
			 "total_energy": -934.10065092, 
			 "HOMO_LUMO_gap": 0.19915, 
			 "cosmo_polarized_energy": -11.39, 
			 "cosmo_cavitation_energy": 31.22, 
			 "cosmo_dispersion_energy": -22.73, 
			 "cosmo_repulsion_energy": 1.77, 
			 "cosmo_total_nonelectrostatic_energy": 10.26, 
			 "SMD_solvation_energy": 3.73 
		},
		"coords": [
			{
				"x": 2.5856944219,
				"y": -0.7150096365,
				"z": 0.6369322436,
				"element": "C" 
			},
			{
				"x": 2.0047611765,
				"y": 0.5735769439,
				"z": 1.1321604386,
				"element": "C" 
			},
			{
				"x": 1.0822382737,
				"y": 1.4092290289,
				"z": 0.5687888387,
				"element": "C" 
			},
			{
				"x": 0.3930840454,
				"y": 1.2121054856,
				"z": -0.7620187608,
				"element": "C" 
			},
			{
				"x": -1.0082410577,
				"y": 0.6245411603,
				"z": -0.6554646529,
				"element": "C" 
			},
			{
				"x": -1.3195587188,
				"y": -0.5938959501,
				"z": -1.2695641021,
				"element": "C" 
			},
			{
				"x": -2.605604626,
				"y": -1.1328936931,
				"z": -1.1844621068,
				"element": "C" 
			},
			{
				"x": -3.600719909,
				"y": -0.4570448612,
				"z": -0.478654767,
				"element": "C" 
			},
			{
				"x": -3.3001544772,
				"y": 0.7596457277,
				"z": 0.1395527619,
				"element": "C" 
			},
			{
				"x": -2.0162248541,
				"y": 1.2964359821,
				"z": 0.0517833337,
				"element": "C" 
			},
			{
				"x": 0.7520410467,
				"y": 2.5452478847,
				"z": 1.2983212648,
				"element": "N" 
			},
			{
				"x": 1.4005447195,
				"y": 2.5880221716,
				"z": 2.4231521711,
				"element": "C" 
			},
			{
				"x": 1.221246622,
				"y": 3.5644398854,
				"z": 3.3806250272,
				"element": "N" 
			},
			{
				"x": 2.4926007521,
				"y": 1.2290521453,
				"z": 2.6992361503,
				"element": "S" 
			},
			{
				"x": 2.2172286434,
				"y": -0.9343959314,
				"z": -0.3680456541,
				"element": "H" 
			},
			{
				"x": 2.3106427326,
				"y": -1.5612641325,
				"z": 1.2778286531,
				"element": "H" 
			},
			{
				"x": 3.6806088983,
				"y": -0.680700485,
				"z": 0.5901419459,
				"element": "H" 
			},
			{
				"x": 0.3392638221,
				"y": 2.192942632,
				"z": -1.2496498076,
				"element": "H" 
			},
			{
				"x": 1.001432513,
				"y": 0.5727695259,
				"z": -1.4080427417,
				"element": "H" 
			},
			{
				"x": -0.5496322507,
				"y": -1.1260434592,
				"z": -1.8239115015,
				"element": "H" 
			},
			{
				"x": -2.8271947063,
				"y": -2.079729694,
				"z": -1.6695062272,
				"element": "H" 
			},
			{
				"x": -4.6019791509,
				"y": -0.8730573009,
				"z": -0.4104449949,
				"element": "H" 
			},
			{
				"x": -4.0694988992,
				"y": 1.2927547437,
				"z": 0.6917405588,
				"element": "H" 
			},
			{
				"x": -1.7793727259,
				"y": 2.2365164552,
				"z": 0.5409850023,
				"element": "H" 
			},
			{
				"x": 2.0274109549,
				"y": 3.7996244392,
				"z": 3.9423576762,
				"element": "H" 
			},
			{
				"x": 0.7288827535,
				"y": 4.3723309325,
				"z": 3.0210592504,
				"element": "H" 
			}
		],
		 "valence_orbital": [ 
			{
				"type": "occ",
				"energy": -0.26656,
				"method": "rhf"
			},
			{
				"type": "occ",
				"energy": -0.26431,
				"method": "rhf"
			},
			{
				"type": "occ",
				"energy": -0.23925,
				"method": "rhf"
			},
			{
				"type": "occ",
				"energy": -0.23259,
				"method": "rhf"
			},
			{
				"type": "occ",
				"energy": -0.19975,
				"method": "rhf"
			},
			{
				"type": "unocc",
				"energy": -0.0006,
				"method": "rhf"
			},
			{
				"type": "unocc",
				"energy": 0.00669,
				"method": "rhf"
			},
			{
				"type": "unocc",
				"energy": 0.00985,
				"method": "rhf"
			},
			{
				"type": "unocc",
				"energy": 0.0172,
				"method": "rhf"
			},
			{
				"type": "unocc",
				"energy": 0.06643,
				"method": "rhf"
			}
		],
		"cosmo_sigma_profile": { 
			"-0.025": 0.0,
			"-0.024": 0.0,
			"-0.023": 0.0,
			"-0.022": 0.0,
			"-0.021": 0.0,
			"-0.02": 0.0,
			"-0.019": 0.0,
			"-0.018": 0.0,
			"-0.017": 0.0,
			"-0.016": 0.0,
			"-0.015": 0.157145028495,
			"-0.014": 1.50217023841,
			"-0.013": 2.15593307636,
			"-0.012": 2.76403584944,
			"-0.011": 2.51509999869,
			"-0.01": 2.53714518281,
			"-0.009": 2.14315641907,
			"-0.008": 1.62880376261,
			"-0.007": 1.9083345262,
			"-0.006": 5.76674359172,
			"-0.005": 14.3676185528,
			"-0.004": 18.7752351233,
			"-0.003": 21.8426471392,
			"-0.002": 19.4855360843,
			"-0.001": 20.4837194373,
			"0.0": 18.5725592586,
			"0.001": 14.2982132246,
			"0.002": 14.6256620262,
			"0.003": 18.0125188509,
			"0.004": 18.9981304045,
			"0.005": 18.0289747241,
			"0.006": 14.2448629362,
			"0.007": 6.33297871688,
			"0.008": 2.3498671112,
			"0.009": 1.95368054568,
			"0.01": 0.769057112864,
			"0.011": 1.50150814443,
			"0.012": 1.55828201345,
			"0.013": 0.201234710744,
			"0.014": 0.707909653266,
			"0.015": 0.125238839673,
			"0.016": 0.0,
			"0.017": 0.0,
			"0.018": 0.0,
			"0.019": 0.0,
			"0.02": 0.0,
			"0.021": 0.0,
			"0.022": 0.0,
			"0.023": 0.0,
			"0.024": 0.0,
			"0.025": 0.0
		}
	}
}
