{
	 "smiles": "OC(=O)CC1=CC=C(C=C1)N1C=CC=C1", 
	 "Tm": 445.15, 
	 "num_atms": 26, 
	 "gaussian": { 
		 "optdone": 1, 
		 "sigma_profile": "yes", 
		 "theory": "DFT", 
		 "functional": "B3LYP", 
		 "basiset": "6-31G**", 
		 "properties": { 
			 "R2extent": 4483.0135, 
			 "electric_dipole_moment_norm": 1.887398286, 
			 "electric_quadrupole_moment_norm": 6.81210434594, 
			 "total_energy": -669.108597016, 
			 "HOMO_LUMO_gap": 0.18773, 
			 "cosmo_polarized_energy": -12.16, 
			 "cosmo_cavitation_energy": 30.75, 
			 "cosmo_dispersion_energy": -22.11, 
			 "cosmo_repulsion_energy": 1.72, 
			 "cosmo_total_nonelectrostatic_energy": 10.35, 
			 "SMD_solvation_energy": 6.96 
		},
		"coords": [
			{
				"x": -2.6959365782,
				"y": 3.3192734568,
				"z": -1.0210751025,
				"element": "O" 
			},
			{
				"x": -1.427691398,
				"y": 3.3896908021,
				"z": -0.5557749144,
				"element": "C" 
			},
			{
				"x": -0.5528098859,
				"y": 4.0043089075,
				"z": -1.1260672534,
				"element": "O" 
			},
			{
				"x": -1.2422273283,
				"y": 2.5935060958,
				"z": 0.7240346434,
				"element": "C" 
			},
			{
				"x": -0.5628364497,
				"y": 1.2599041357,
				"z": 0.4532470628,
				"element": "C" 
			},
			{
				"x": -1.2020461971,
				"y": 0.0541250733,
				"z": 0.7580742723,
				"element": "C" 
			},
			{
				"x": -0.5832209202,
				"y": -1.1709582047,
				"z": 0.5144106469,
				"element": "C" 
			},
			{
				"x": 0.705673445,
				"y": -1.2088382783,
				"z": -0.029563563,
				"element": "C" 
			},
			{
				"x": 1.3563799426,
				"y": -0.0053177076,
				"z": -0.3349032576,
				"element": "C" 
			},
			{
				"x": 0.7222609975,
				"y": 1.2116114072,
				"z": -0.1041879607,
				"element": "C" 
			},
			{
				"x": 1.3456808349,
				"y": -2.4488414249,
				"z": -0.2689457771,
				"element": "N" 
			},
			{
				"x": 1.2258467569,
				"y": -3.586016871,
				"z": 0.5132801587,
				"element": "C" 
			},
			{
				"x": 1.9973465237,
				"y": -4.5780114799,
				"z": -0.0439707957,
				"element": "C" 
			},
			{
				"x": 2.6083086093,
				"y": -4.0367760301,
				"z": -1.2137182524,
				"element": "C" 
			},
			{
				"x": 2.1960518788,
				"y": -2.7301542017,
				"z": -1.3258745023,
				"element": "C" 
			},
			{
				"x": -2.7087569749,
				"y": 3.825853983,
				"z": -1.8512709508,
				"element": "H" 
			},
			{
				"x": -0.6213536113,
				"y": 3.2047828986,
				"z": 1.3874655696,
				"element": "H" 
			},
			{
				"x": -2.2106018091,
				"y": 2.4356455281,
				"z": 1.2029590837,
				"element": "H" 
			},
			{
				"x": -2.2038391224,
				"y": 0.0672918725,
				"z": 1.1790643141,
				"element": "H" 
			},
			{
				"x": -1.1078795179,
				"y": -2.0973888248,
				"z": 0.7223329599,
				"element": "H" 
			},
			{
				"x": 2.3664445621,
				"y": -0.0258549091,
				"z": -0.7301712553,
				"element": "H" 
			},
			{
				"x": 1.2287934836,
				"y": 2.1385427621,
				"z": -0.355242734,
				"element": "H" 
			},
			{
				"x": 0.6431396992,
				"y": -3.5683197683,
				"z": 1.4213150113,
				"element": "H" 
			},
			{
				"x": 2.1195342747,
				"y": -5.5773291962,
				"z": 0.3498079683,
				"element": "H" 
			},
			{
				"x": 3.2662098377,
				"y": -4.550918024,
				"z": -1.9003230873,
				"element": "H" 
			},
			{
				"x": 2.389028947,
				"y": -1.9899120023,
				"z": -2.0869022848,
				"element": "H" 
			}
		],
		 "valence_orbital": [ 
			{
				"type": "occ",
				"energy": -0.28474,
				"method": "rhf"
			},
			{
				"type": "occ",
				"energy": -0.27018,
				"method": "rhf"
			},
			{
				"type": "occ",
				"energy": -0.26109,
				"method": "rhf"
			},
			{
				"type": "occ",
				"energy": -0.21783,
				"method": "rhf"
			},
			{
				"type": "occ",
				"energy": -0.20973,
				"method": "rhf"
			},
			{
				"type": "unocc",
				"energy": -0.022,
				"method": "rhf"
			},
			{
				"type": "unocc",
				"energy": -0.01347,
				"method": "rhf"
			},
			{
				"type": "unocc",
				"energy": 0.00855,
				"method": "rhf"
			},
			{
				"type": "unocc",
				"energy": 0.04964,
				"method": "rhf"
			},
			{
				"type": "unocc",
				"energy": 0.07473,
				"method": "rhf"
			}
		],
		"cosmo_sigma_profile": { 
			"-0.025": 0.0,
			"-0.024": 0.0,
			"-0.023": 0.0,
			"-0.022": 0.0,
			"-0.021": 0.0,
			"-0.02": 0.0,
			"-0.019": 0.0560198110812,
			"-0.018": 0.846666132627,
			"-0.017": 0.954933752787,
			"-0.016": 0.549880842652,
			"-0.015": 0.94507459881,
			"-0.014": 1.11239448107,
			"-0.013": 0.243545100412,
			"-0.012": 0.314221987864,
			"-0.011": 0.965672479274,
			"-0.01": 0.71055268602,
			"-0.009": 0.526861498618,
			"-0.008": 1.16467855943,
			"-0.007": 9.40582299898,
			"-0.006": 17.0251744784,
			"-0.005": 17.222488919,
			"-0.004": 18.0019257796,
			"-0.003": 17.1514743156,
			"-0.002": 17.1471721677,
			"-0.001": 12.8307492896,
			"0.0": 15.7464232538,
			"0.001": 14.8122395107,
			"0.002": 15.746899992,
			"0.003": 15.9262854796,
			"0.004": 18.4494864665,
			"0.005": 10.7815587859,
			"0.006": 7.48221113406,
			"0.007": 7.81115112085,
			"0.008": 7.93854447959,
			"0.009": 3.9362274989,
			"0.01": 2.46935875658,
			"0.011": 3.42757799317,
			"0.012": 3.80936218781,
			"0.013": 0.130478956007,
			"0.014": 0.0,
			"0.015": 0.0,
			"0.016": 0.0,
			"0.017": 0.0,
			"0.018": 0.0,
			"0.019": 0.0,
			"0.02": 0.0,
			"0.021": 0.0,
			"0.022": 0.0,
			"0.023": 0.0,
			"0.024": 0.0,
			"0.025": 0.0
		}
	}
}
