{
	 "smiles": "NCCOC1=CC=CC=C1Cl", 
	 "Tm": 313.15, 
	 "num_atms": 21, 
	 "gaussian": { 
		 "optdone": 1, 
		 "sigma_profile": "yes", 
		 "theory": "DFT", 
		 "functional": "B3LYP", 
		 "basiset": "6-31G**", 
		 "properties": { 
			 "R2extent": 2412.0806, 
			 "electric_dipole_moment_norm": 4.14597371675, 
			 "electric_quadrupole_moment_norm": 9.59569304271, 
			 "total_energy": -901.025568739, 
			 "HOMO_LUMO_gap": 0.21709, 
			 "cosmo_polarized_energy": -9.67, 
			 "cosmo_cavitation_energy": 25.92, 
			 "cosmo_dispersion_energy": -19.25, 
			 "cosmo_repulsion_energy": 1.59, 
			 "cosmo_total_nonelectrostatic_energy": 8.25, 
			 "SMD_solvation_energy": 4.05 
		},
		"coords": [
			{
				"x": 2.1251608771,
				"y": -1.9681620291,
				"z": -2.1084036673,
				"element": "N" 
			},
			{
				"x": 2.0823849898,
				"y": -0.5168420268,
				"z": -2.3125055951,
				"element": "C" 
			},
			{
				"x": 1.6217934163,
				"y": 0.2406823118,
				"z": -1.0665398365,
				"element": "C" 
			},
			{
				"x": 0.1984230502,
				"y": 0.237616157,
				"z": -0.9111813331,
				"element": "O" 
			},
			{
				"x": -0.3814135081,
				"y": -0.4885633858,
				"z": 0.086269786,
				"element": "C" 
			},
			{
				"x": 0.0192092113,
				"y": -1.7858268466,
				"z": 0.4297287361,
				"element": "C" 
			},
			{
				"x": -0.6372567507,
				"y": -2.4797279936,
				"z": 1.4461932587,
				"element": "C" 
			},
			{
				"x": -1.7097394718,
				"y": -1.8986745379,
				"z": 2.1233053851,
				"element": "C" 
			},
			{
				"x": -2.1295931876,
				"y": -0.6136772277,
				"z": 1.7774379932,
				"element": "C" 
			},
			{
				"x": -1.4665205898,
				"y": 0.0863423907,
				"z": 0.7715340573,
				"element": "C" 
			},
			{
				"x": -1.9930446808,
				"y": 1.7095896318,
				"z": 0.361038999,
				"element": "Cl" 
			},
			{
				"x": 2.0869262612,
				"y": -2.4563805916,
				"z": -2.9979122344,
				"element": "H" 
			},
			{
				"x": 3.0006485104,
				"y": -2.2368608424,
				"z": -1.6667171612,
				"element": "H" 
			},
			{
				"x": 3.051321696,
				"y": -0.0886402641,
				"z": -2.6226374759,
				"element": "H" 
			},
			{
				"x": 1.3685058455,
				"y": -0.2951320489,
				"z": -3.1123385685,
				"element": "H" 
			},
			{
				"x": 1.9038174098,
				"y": 1.295299394,
				"z": -1.1692933756,
				"element": "H" 
			},
			{
				"x": 2.105821478,
				"y": -0.1554219977,
				"z": -0.1651746065,
				"element": "H" 
			},
			{
				"x": 0.8128683201,
				"y": -2.2443534585,
				"z": -0.1524250122,
				"element": "H" 
			},
			{
				"x": -0.3157452746,
				"y": -3.4866429262,
				"z": 1.6966225907,
				"element": "H" 
			},
			{
				"x": -2.225159098,
				"y": -2.4392751335,
				"z": 2.911077815,
				"element": "H" 
			},
			{
				"x": -2.9623085042,
				"y": -0.142048575,
				"z": 2.2880202453,
				"element": "H" 
			}
		],
		 "valence_orbital": [ 
			{
				"type": "occ",
				"energy": -0.30017,
				"method": "rhf"
			},
			{
				"type": "occ",
				"energy": -0.29244,
				"method": "rhf"
			},
			{
				"type": "occ",
				"energy": -0.25072,
				"method": "rhf"
			},
			{
				"type": "occ",
				"energy": -0.23854,
				"method": "rhf"
			},
			{
				"type": "occ",
				"energy": -0.21772,
				"method": "rhf"
			},
			{
				"type": "unocc",
				"energy": -0.00063,
				"method": "rhf"
			},
			{
				"type": "unocc",
				"energy": 0.00918,
				"method": "rhf"
			},
			{
				"type": "unocc",
				"energy": 0.04337,
				"method": "rhf"
			},
			{
				"type": "unocc",
				"energy": 0.0696,
				"method": "rhf"
			},
			{
				"type": "unocc",
				"energy": 0.1123,
				"method": "rhf"
			}
		],
		"cosmo_sigma_profile": { 
			"-0.025": 0.0,
			"-0.024": 0.0,
			"-0.023": 0.0,
			"-0.022": 0.0,
			"-0.021": 0.0,
			"-0.02": 0.0,
			"-0.019": 0.0,
			"-0.018": 0.0,
			"-0.017": 0.0,
			"-0.016": 0.0,
			"-0.015": 0.0,
			"-0.014": 0.0,
			"-0.013": 0.0,
			"-0.012": 0.0,
			"-0.011": 0.186271598021,
			"-0.01": 2.21090659304,
			"-0.009": 3.00012128913,
			"-0.008": 3.30009414089,
			"-0.007": 4.08172972207,
			"-0.006": 9.49994176756,
			"-0.005": 14.3262035932,
			"-0.004": 19.1297862294,
			"-0.003": 18.1705022675,
			"-0.002": 15.0135840179,
			"-0.001": 13.1251271103,
			"0.0": 8.97748644971,
			"0.001": 10.5864540394,
			"0.002": 14.3917916907,
			"0.003": 15.2741341471,
			"0.004": 18.3632140994,
			"0.005": 17.5858415755,
			"0.006": 5.39312028711,
			"0.007": 3.03033774311,
			"0.008": 3.48520589493,
			"0.009": 2.88708036236,
			"0.01": 2.30244573747,
			"0.011": 1.96818737201,
			"0.012": 0.961283738097,
			"0.013": 0.0506802679729,
			"0.014": 0.0,
			"0.015": 0.0,
			"0.016": 0.0,
			"0.017": 0.0,
			"0.018": 0.0,
			"0.019": 0.0,
			"0.02": 0.0,
			"0.021": 0.0,
			"0.022": 0.0,
			"0.023": 0.0,
			"0.024": 0.0,
			"0.025": 0.0
		}
	}
}
