{
	 "smiles": "COC1=CC(NS(C)(=O)=O)=CC=C1NC1=C2C=CC=CC2=NC2=CC=CC=C12", 
	 "Tm": 508.15, 
	 "num_atms": 47, 
	 "gaussian": { 
		 "optdone": 1, 
		 "sigma_profile": "yes", 
		 "theory": "DFT", 
		 "functional": "B3LYP", 
		 "basiset": "6-31G**", 
		 "properties": { 
			 "R2extent": 13830.6342, 
			 "electric_dipole_moment_norm": 3.76324534677, 
			 "electric_quadrupole_moment_norm": 36.2340548628, 
			 "total_energy": -1599.72478151, 
			 "HOMO_LUMO_gap": 0.12372, 
			 "cosmo_polarized_energy": -26.63, 
			 "cosmo_cavitation_energy": 51.83, 
			 "cosmo_dispersion_energy": -35.06, 
			 "cosmo_repulsion_energy": 2.59, 
			 "cosmo_total_nonelectrostatic_energy": 19.36, 
			 "SMD_solvation_energy": 6.92 
		},
		"coords": [
			{
				"x": -1.2102759817,
				"y": -0.2296985377,
				"z": -2.1037359404,
				"element": "C" 
			},
			{
				"x": -0.8545002287,
				"y": -0.5258571145,
				"z": -0.749992553,
				"element": "O" 
			},
			{
				"x": -1.275261013,
				"y": 0.4033924174,
				"z": 0.1720802474,
				"element": "C" 
			},
			{
				"x": -2.509276662,
				"y": 0.2317724266,
				"z": 0.79671407,
				"element": "C" 
			},
			{
				"x": -2.9762000045,
				"y": 1.1501237805,
				"z": 1.7409224872,
				"element": "C" 
			},
			{
				"x": -4.2598686065,
				"y": 0.9236816486,
				"z": 2.3440044732,
				"element": "N" 
			},
			{
				"x": -4.3258251074,
				"y": 0.2355845456,
				"z": 3.9146704015,
				"element": "S" 
			},
			{
				"x": -4.3822937632,
				"y": -1.5213931117,
				"z": 3.5369546667,
				"element": "C" 
			},
			{
				"x": -3.0882162608,
				"y": 0.4894700141,
				"z": 4.6568446072,
				"element": "O" 
			},
			{
				"x": -5.6257203967,
				"y": 0.6595811354,
				"z": 4.4431478871,
				"element": "O" 
			},
			{
				"x": -2.1874412104,
				"y": 2.2618014633,
				"z": 2.0568958079,
				"element": "C" 
			},
			{
				"x": -0.9496562469,
				"y": 2.4318240729,
				"z": 1.4472373215,
				"element": "C" 
			},
			{
				"x": -0.4608524287,
				"y": 1.5088985147,
				"z": 0.5061950676,
				"element": "C" 
			},
			{
				"x": 0.777126329,
				"y": 1.752105874,
				"z": -0.103348186,
				"element": "N" 
			},
			{
				"x": 1.7256778093,
				"y": 0.8543494493,
				"z": -0.6128759136,
				"element": "C" 
			},
			{
				"x": 2.1436787798,
				"y": -0.2985221189,
				"z": 0.0937814066,
				"element": "C" 
			},
			{
				"x": 1.6663292111,
				"y": -0.6567403173,
				"z": 1.3914141909,
				"element": "C" 
			},
			{
				"x": 2.1155644254,
				"y": -1.7895689397,
				"z": 2.0199141044,
				"element": "C" 
			},
			{
				"x": 3.0693675341,
				"y": -2.6385250921,
				"z": 1.3906319075,
				"element": "C" 
			},
			{
				"x": 3.5747081963,
				"y": -2.3142729966,
				"z": 0.1603937881,
				"element": "C" 
			},
			{
				"x": 3.1525201114,
				"y": -1.1295417108,
				"z": -0.5218001068,
				"element": "C" 
			},
			{
				"x": 3.7522541472,
				"y": -0.840867899,
				"z": -1.6891723694,
				"element": "N" 
			},
			{
				"x": 3.3827180177,
				"y": 0.280875742,
				"z": -2.325804233,
				"element": "C" 
			},
			{
				"x": 4.0420740176,
				"y": 0.6009462776,
				"z": -3.5547675255,
				"element": "C" 
			},
			{
				"x": 3.6952147187,
				"y": 1.7126177408,
				"z": -4.2760214344,
				"element": "C" 
			},
			{
				"x": 2.6514475526,
				"y": 2.5664492268,
				"z": -3.8205859196,
				"element": "C" 
			},
			{
				"x": 1.9967297222,
				"y": 2.2975802319,
				"z": -2.6448377121,
				"element": "C" 
			},
			{
				"x": 2.3498024253,
				"y": 1.1663195225,
				"z": -1.8461147813,
				"element": "C" 
			},
			{
				"x": -2.2995946141,
				"y": -0.1632739052,
				"z": -2.2197466267,
				"element": "H" 
			},
			{
				"x": -0.8285978604,
				"y": -1.0540446164,
				"z": -2.7084853665,
				"element": "H" 
			},
			{
				"x": -0.7529375135,
				"y": 0.7071756406,
				"z": -2.4429924557,
				"element": "H" 
			},
			{
				"x": -3.120229092,
				"y": -0.6193671596,
				"z": 0.5143805021,
				"element": "H" 
			},
			{
				"x": -4.8582934462,
				"y": 1.7462129716,
				"z": 2.3853316002,
				"element": "H" 
			},
			{
				"x": -4.4094720662,
				"y": -2.0482481781,
				"z": 4.4922854904,
				"element": "H" 
			},
			{
				"x": -3.4805846911,
				"y": -1.7895876397,
				"z": 2.9848070133,
				"element": "H" 
			},
			{
				"x": -5.2796373384,
				"y": -1.7251537473,
				"z": 2.9534192078,
				"element": "H" 
			},
			{
				"x": -2.5277956498,
				"y": 2.9729063577,
				"z": 2.80253263,
				"element": "H" 
			},
			{
				"x": -0.3272220511,
				"y": 3.2802575071,
				"z": 1.7188455952,
				"element": "H" 
			},
			{
				"x": 1.0028440904,
				"y": 2.7280805449,
				"z": -0.2264833152,
				"element": "H" 
			},
			{
				"x": 0.9497763652,
				"y": -0.0175657292,
				"z": 1.8919829992,
				"element": "H" 
			},
			{
				"x": 1.7465803717,
				"y": -2.0388280799,
				"z": 3.0104045714,
				"element": "H" 
			},
			{
				"x": 3.4053035258,
				"y": -3.5370995238,
				"z": 1.9003517837,
				"element": "H" 
			},
			{
				"x": 4.319989503,
				"y": -2.9258893665,
				"z": -0.337268601,
				"element": "H" 
			},
			{
				"x": 4.8224787337,
				"y": -0.0778602352,
				"z": -3.8827171567,
				"element": "H" 
			},
			{
				"x": 4.205799229,
				"y": 1.9417642605,
				"z": -5.2069502387,
				"element": "H" 
			},
			{
				"x": 2.3648891614,
				"y": 3.4285783904,
				"z": -4.4156501738,
				"element": "H" 
			},
			{
				"x": 1.1804782551,
				"y": 2.9410562621,
				"z": -2.3310932187,
				"element": "H" 
			}
		],
		 "valence_orbital": [ 
			{
				"type": "occ",
				"energy": -0.25718,
				"method": "rhf"
			},
			{
				"type": "occ",
				"energy": -0.24973,
				"method": "rhf"
			},
			{
				"type": "occ",
				"energy": -0.24354,
				"method": "rhf"
			},
			{
				"type": "occ",
				"energy": -0.22835,
				"method": "rhf"
			},
			{
				"type": "occ",
				"energy": -0.19653,
				"method": "rhf"
			},
			{
				"type": "unocc",
				"energy": -0.07281,
				"method": "rhf"
			},
			{
				"type": "unocc",
				"energy": -0.022,
				"method": "rhf"
			},
			{
				"type": "unocc",
				"energy": -0.0171,
				"method": "rhf"
			},
			{
				"type": "unocc",
				"energy": -0.01565,
				"method": "rhf"
			},
			{
				"type": "unocc",
				"energy": 0.00385,
				"method": "rhf"
			}
		],
		"cosmo_sigma_profile": { 
			"-0.025": 0.0,
			"-0.024": 0.0,
			"-0.023": 0.0,
			"-0.022": 0.0,
			"-0.021": 0.0,
			"-0.02": 0.0,
			"-0.019": 0.0,
			"-0.018": 0.0,
			"-0.017": 0.0,
			"-0.016": 0.0,
			"-0.015": 0.677537161229,
			"-0.014": 1.952644602,
			"-0.013": 2.47207668874,
			"-0.012": 2.03039714159,
			"-0.011": 3.10077993473,
			"-0.01": 3.12776402666,
			"-0.009": 4.92434044327,
			"-0.008": 7.77055428408,
			"-0.007": 10.9354997217,
			"-0.006": 22.4127102408,
			"-0.005": 30.9815401525,
			"-0.004": 35.2182161756,
			"-0.003": 31.6085865235,
			"-0.002": 25.764623531,
			"-0.001": 23.529708239,
			"0.0": 20.424487534,
			"0.001": 23.6075425626,
			"0.002": 29.2050876049,
			"0.003": 29.7797854946,
			"0.004": 30.5871809142,
			"0.005": 14.4057916046,
			"0.006": 6.99660888414,
			"0.007": 5.91057704435,
			"0.008": 6.84321769414,
			"0.009": 7.25978278325,
			"0.01": 8.19428934099,
			"0.011": 14.5134267063,
			"0.012": 7.11501274684,
			"0.013": 0.838642387155,
			"0.014": 0.688563701898,
			"0.015": 0.841588544004,
			"0.016": 0.618212345828,
			"0.017": 0.00557272771832,
			"0.018": 0.0,
			"0.019": 0.0,
			"0.02": 0.0,
			"0.021": 0.0,
			"0.022": 0.0,
			"0.023": 0.0,
			"0.024": 0.0,
			"0.025": 0.0
		}
	}
}
