{
	 "smiles": "NC1=CC=C(C=C1)S(=O)(=O)C1=CC=C(N)C=C1", 
	 "Tm": 449.15, 
	 "num_atms": 29, 
	 "gaussian": { 
		 "optdone": 1, 
		 "sigma_profile": "yes", 
		 "theory": "DFT", 
		 "functional": "B3LYP", 
		 "basiset": "6-31G**", 
		 "properties": { 
			 "R2extent": 5825.5457, 
			 "electric_dipole_moment_norm": 7.67021176957, 
			 "electric_quadrupole_moment_norm": 38.3826873009, 
			 "total_energy": -1122.5905915, 
			 "HOMO_LUMO_gap": 0.18369, 
			 "cosmo_polarized_energy": -25.81, 
			 "cosmo_cavitation_energy": 34.8, 
			 "cosmo_dispersion_energy": -25.35, 
			 "cosmo_repulsion_energy": 1.93, 
			 "cosmo_total_nonelectrostatic_energy": 11.38, 
			 "SMD_solvation_energy": 5.15 
		},
		"coords": [
			{
				"x": -3.1681591758,
				"y": 4.2988344927,
				"z": 1.7617920556,
				"element": "N" 
			},
			{
				"x": -2.3661844132,
				"y": 3.669511344,
				"z": 0.8208017657,
				"element": "C" 
			},
			{
				"x": -2.9064555429,
				"y": 2.7041476439,
				"z": -0.0515806372,
				"element": "C" 
			},
			{
				"x": -2.0935604459,
				"y": 2.0376117828,
				"z": -0.9591478533,
				"element": "C" 
			},
			{
				"x": -0.7260713065,
				"y": 2.3226033433,
				"z": -1.0102688602,
				"element": "C" 
			},
			{
				"x": -0.1757005783,
				"y": 3.2847773052,
				"z": -0.1586825562,
				"element": "C" 
			},
			{
				"x": -0.9877676425,
				"y": 3.9518270972,
				"z": 0.7492552334,
				"element": "C" 
			},
			{
				"x": 0.3205686376,
				"y": 1.467529109,
				"z": -2.1858188193,
				"element": "S" 
			},
			{
				"x": -0.5483052412,
				"y": 1.0065725845,
				"z": -3.2839598762,
				"element": "O" 
			},
			{
				"x": 1.4889524627,
				"y": 2.3315941352,
				"z": -2.433988327,
				"element": "O" 
			},
			{
				"x": 0.9140802359,
				"y": 0.0086382201,
				"z": -1.3342643243,
				"element": "C" 
			},
			{
				"x": 2.1062706391,
				"y": 0.0634774097,
				"z": -0.6064340045,
				"element": "C" 
			},
			{
				"x": 2.5644214339,
				"y": -1.0663873937,
				"z": 0.0583070137,
				"element": "C" 
			},
			{
				"x": 1.8391137294,
				"y": -2.273273415,
				"z": 0.0052105601,
				"element": "C" 
			},
			{
				"x": 2.3214927076,
				"y": -3.4141558436,
				"z": 0.6273088458,
				"element": "N" 
			},
			{
				"x": 0.6455685219,
				"y": -2.314392532,
				"z": -0.7425817307,
				"element": "C" 
			},
			{
				"x": 0.1883665535,
				"y": -1.1838893191,
				"z": -1.4068908968,
				"element": "C" 
			},
			{
				"x": -2.82691013,
				"y": 5.1775880325,
				"z": 2.1238426327,
				"element": "H" 
			},
			{
				"x": -4.1591213511,
				"y": 4.3111100316,
				"z": 1.5679368282,
				"element": "H" 
			},
			{
				"x": -3.9707966234,
				"y": 2.4862776822,
				"z": -0.015613496,
				"element": "H" 
			},
			{
				"x": -2.5162521638,
				"y": 1.3147597682,
				"z": -1.6487293684,
				"element": "H" 
			},
			{
				"x": 0.8800123729,
				"y": 3.5233591635,
				"z": -0.2312411021,
				"element": "H" 
			},
			{
				"x": -0.5606040954,
				"y": 4.7038094581,
				"z": 1.4077661964,
				"element": "H" 
			},
			{
				"x": 2.6778034646,
				"y": 0.985151774,
				"z": -0.5827661179,
				"element": "H" 
			},
			{
				"x": 3.4973148344,
				"y": -1.026900152,
				"z": 0.6147793642,
				"element": "H" 
			},
			{
				"x": 2.984287564,
				"y": -3.2748711775,
				"z": 1.3757835508,
				"element": "H" 
			},
			{
				"x": 1.6497177411,
				"y": -4.1427692197,
				"z": 0.8190142343,
				"element": "H" 
			},
			{
				"x": 0.0872789745,
				"y": -3.2447049907,
				"z": -0.8084688022,
				"element": "H" 
			},
			{
				"x": -0.7187611632,
				"y": -1.2238363343,
				"z": -2.0003615086,
				"element": "H" 
			}
		],
		 "valence_orbital": [ 
			{
				"type": "occ",
				"energy": -0.26893,
				"method": "rhf"
			},
			{
				"type": "occ",
				"energy": -0.26085,
				"method": "rhf"
			},
			{
				"type": "occ",
				"energy": -0.25738,
				"method": "rhf"
			},
			{
				"type": "occ",
				"energy": -0.22564,
				"method": "rhf"
			},
			{
				"type": "occ",
				"energy": -0.2081,
				"method": "rhf"
			},
			{
				"type": "unocc",
				"energy": -0.02441,
				"method": "rhf"
			},
			{
				"type": "unocc",
				"energy": -0.01323,
				"method": "rhf"
			},
			{
				"type": "unocc",
				"energy": -0.00342,
				"method": "rhf"
			},
			{
				"type": "unocc",
				"energy": 0.00705,
				"method": "rhf"
			},
			{
				"type": "unocc",
				"energy": 0.06442,
				"method": "rhf"
			}
		],
		"cosmo_sigma_profile": { 
			"-0.025": 0.0,
			"-0.024": 0.0,
			"-0.023": 0.0,
			"-0.022": 0.0,
			"-0.021": 0.0,
			"-0.02": 0.0,
			"-0.019": 0.0,
			"-0.018": 0.0,
			"-0.017": 0.0,
			"-0.016": 0.0,
			"-0.015": 0.0,
			"-0.014": 0.270862106105,
			"-0.013": 4.95665613868,
			"-0.012": 5.67630080962,
			"-0.011": 6.28413122032,
			"-0.01": 6.80560775276,
			"-0.009": 5.70645050371,
			"-0.008": 5.91000301584,
			"-0.007": 9.28293088877,
			"-0.006": 16.0386859199,
			"-0.005": 14.5426028159,
			"-0.004": 16.8177347676,
			"-0.003": 11.7844025213,
			"-0.002": 11.0193189562,
			"-0.001": 11.7920346433,
			"0.0": 12.0528635678,
			"0.001": 11.6606902338,
			"0.002": 17.5435547704,
			"0.003": 20.6414375366,
			"0.004": 31.74502746,
			"0.005": 11.9446323981,
			"0.006": 4.14668743667,
			"0.007": 4.06507904189,
			"0.008": 5.763809202,
			"0.009": 4.3296932492,
			"0.01": 5.03863714484,
			"0.011": 7.43586613231,
			"0.012": 9.74506243334,
			"0.013": 4.36186001723,
			"0.014": 0.0,
			"0.015": 0.0,
			"0.016": 0.0,
			"0.017": 0.0,
			"0.018": 0.0,
			"0.019": 0.0,
			"0.02": 0.0,
			"0.021": 0.0,
			"0.022": 0.0,
			"0.023": 0.0,
			"0.024": 0.0,
			"0.025": 0.0
		}
	}
}
