{
	 "smiles": "COC(=O)[C@H](CSSC[C@H](N1C(=O)[C@H]2[C@@H]3C[C@@H](C=C3)[C@H]2C1=O)C(=O)OC)N1C(=O)[C@H]2[C@@H]3C[C@@H](C=C3)[C@H]2C1=O", 
	 "Tm": 373.15, 
	 "num_atms": 66, 
	 "gaussian": { 
		 "optdone": 1, 
		 "sigma_profile": "yes", 
		 "theory": "DFT", 
		 "functional": "B3LYP", 
		 "basiset": "6-31G**", 
		 "properties": { 
			 "R2extent": 22773.2068, 
			 "electric_dipole_moment_norm": 4.92654642625, 
			 "electric_quadrupole_moment_norm": 35.9072877533, 
			 "total_energy": -2515.30290686, 
			 "HOMO_LUMO_gap": 0.1937, 
			 "cosmo_polarized_energy": -31.61, 
			 "cosmo_cavitation_energy": 69.11, 
			 "cosmo_dispersion_energy": -43.43, 
			 "cosmo_repulsion_energy": 3.14, 
			 "cosmo_total_nonelectrostatic_energy": 28.83, 
			 "SMD_solvation_energy": 13.41 
		},
		"coords": [
			{
				"x": -5.2478310639,
				"y": -1.3583001938,
				"z": 3.6631596472,
				"element": "C" 
			},
			{
				"x": -4.06934221,
				"y": -0.7533542262,
				"z": 3.0992239701,
				"element": "O" 
			},
			{
				"x": -3.0495467728,
				"y": -1.599985421,
				"z": 2.8710569214,
				"element": "C" 
			},
			{
				"x": -3.0924706092,
				"y": -2.792890249,
				"z": 3.06149984,
				"element": "O" 
			},
			{
				"x": -1.8468529288,
				"y": -0.8721802501,
				"z": 2.2579647719,
				"element": "C" 
			},
			{
				"x": -0.5921142311,
				"y": -1.7664435068,
				"z": 2.2557521498,
				"element": "C" 
			},
			{
				"x": -0.4293319093,
				"y": -2.8448337292,
				"z": 0.7721184266,
				"element": "S" 
			},
			{
				"x": 0.4535272485,
				"y": -1.5515331907,
				"z": -0.6092795408,
				"element": "S" 
			},
			{
				"x": -1.0273274898,
				"y": -0.9414822003,
				"z": -1.5540656427,
				"element": "C" 
			},
			{
				"x": -0.6577069876,
				"y": -0.1853312816,
				"z": -2.8460806072,
				"element": "C" 
			},
			{
				"x": 0.0831441256,
				"y": -0.9682085282,
				"z": -3.839173567,
				"element": "N" 
			},
			{
				"x": 0.7641383664,
				"y": -0.3114589864,
				"z": -4.8773699474,
				"element": "C" 
			},
			{
				"x": 0.751447629,
				"y": 0.8929000476,
				"z": -5.0364335823,
				"element": "O" 
			},
			{
				"x": 1.4557894006,
				"y": -1.3535743311,
				"z": -5.7310518058,
				"element": "C" 
			},
			{
				"x": 3.0275133256,
				"y": -1.4355424708,
				"z": -5.5632489051,
				"element": "C" 
			},
			{
				"x": 3.2259000281,
				"y": -2.9335833493,
				"z": -5.9052616498,
				"element": "C" 
			},
			{
				"x": 2.3203172241,
				"y": -3.424649717,
				"z": -4.7479682706,
				"element": "C" 
			},
			{
				"x": 2.9112929445,
				"y": -2.6356413172,
				"z": -3.5901636148,
				"element": "C" 
			},
			{
				"x": 3.3269295045,
				"y": -1.4555061866,
				"z": -4.0719982038,
				"element": "C" 
			},
			{
				"x": 0.9720075416,
				"y": -2.7098425516,
				"z": -5.1695983249,
				"element": "C" 
			},
			{
				"x": 0.0271516133,
				"y": -2.3616383251,
				"z": -4.0301582913,
				"element": "C" 
			},
			{
				"x": -0.6783647836,
				"y": -3.1344323172,
				"z": -3.4157862558,
				"element": "O" 
			},
			{
				"x": 0.1446258091,
				"y": 1.0631365802,
				"z": -2.4425607645,
				"element": "C" 
			},
			{
				"x": 1.3089281155,
				"y": 1.0577068329,
				"z": -2.1117497622,
				"element": "O" 
			},
			{
				"x": -0.6759702747,
				"y": 2.1213684508,
				"z": -2.3787319678,
				"element": "O" 
			},
			{
				"x": -0.1094948927,
				"y": 3.319528041,
				"z": -1.8192207525,
				"element": "C" 
			},
			{
				"x": -1.6073994946,
				"y": 0.4169421398,
				"z": 2.8983494586,
				"element": "N" 
			},
			{
				"x": -1.4543128347,
				"y": 0.5763196139,
				"z": 4.2800707139,
				"element": "C" 
			},
			{
				"x": -1.5590546589,
				"y": -0.3312209361,
				"z": 5.0797409465,
				"element": "O" 
			},
			{
				"x": -1.1398450904,
				"y": 2.0386909059,
				"z": 4.546690602,
				"element": "C" 
			},
			{
				"x": 0.3059631471,
				"y": 2.3312603812,
				"z": 5.1082195652,
				"element": "C" 
			},
			{
				"x": 0.5051527551,
				"y": 3.7598697418,
				"z": 4.5411641055,
				"element": "C" 
			},
			{
				"x": 0.3426716846,
				"y": 3.309705378,
				"z": 3.066926277,
				"element": "C" 
			},
			{
				"x": 1.3166841903,
				"y": 2.1391694416,
				"z": 3.0338595151,
				"element": "C" 
			},
			{
				"x": 1.2951491629,
				"y": 1.5607205625,
				"z": 4.2437840744,
				"element": "C" 
			},
			{
				"x": -1.1145823779,
				"y": 2.7086766592,
				"z": 3.148391393,
				"element": "C" 
			},
			{
				"x": -1.4156766286,
				"y": 1.5902033043,
				"z": 2.1656638438,
				"element": "C" 
			},
			{
				"x": -1.4807472056,
				"y": 1.660665841,
				"z": 0.9520258105,
				"element": "O" 
			},
			{
				"x": -5.6346356397,
				"y": -2.1346264508,
				"z": 2.9989870315,
				"element": "H" 
			},
			{
				"x": -5.9695855891,
				"y": -0.549098858,
				"z": 3.7712069964,
				"element": "H" 
			},
			{
				"x": -5.0169314996,
				"y": -1.8015838454,
				"z": 4.6344994048,
				"element": "H" 
			},
			{
				"x": -2.1208142811,
				"y": -0.6170914625,
				"z": 1.2303657027,
				"element": "H" 
			},
			{
				"x": -0.6113025909,
				"y": -2.4434940136,
				"z": 3.1123429599,
				"element": "H" 
			},
			{
				"x": 0.3019926439,
				"y": -1.1444448301,
				"z": 2.3135661845,
				"element": "H" 
			},
			{
				"x": -1.6392956497,
				"y": -1.809178492,
				"z": -1.7897033613,
				"element": "H" 
			},
			{
				"x": -1.5759509109,
				"y": -0.2332034995,
				"z": -0.9287981813,
				"element": "H" 
			},
			{
				"x": -1.598374404,
				"y": 0.1560861949,
				"z": -3.2922268694,
				"element": "H" 
			},
			{
				"x": 1.197008757,
				"y": -1.1868639714,
				"z": -6.7801637453,
				"element": "H" 
			},
			{
				"x": 3.5637736663,
				"y": -0.6984342965,
				"z": -6.1617405382,
				"element": "H" 
			},
			{
				"x": 2.8593252615,
				"y": -3.2107619686,
				"z": -6.9006303832,
				"element": "H" 
			},
			{
				"x": 4.2641031192,
				"y": -3.2564720947,
				"z": -5.7915985175,
				"element": "H" 
			},
			{
				"x": 2.2113180659,
				"y": -4.4999746753,
				"z": -4.6043587278,
				"element": "H" 
			},
			{
				"x": 2.8652034846,
				"y": -2.9390324942,
				"z": -2.5509347947,
				"element": "H" 
			},
			{
				"x": 3.6789658963,
				"y": -0.6038570083,
				"z": -3.5017241964,
				"element": "H" 
			},
			{
				"x": 0.4324445934,
				"y": -3.3247575144,
				"z": -5.8948871366,
				"element": "H" 
			},
			{
				"x": -0.019901296,
				"y": 3.2048584235,
				"z": -0.7364879632,
				"element": "H" 
			},
			{
				"x": 0.8681606968,
				"y": 3.5214182767,
				"z": -2.2602056873,
				"element": "H" 
			},
			{
				"x": -0.8146519287,
				"y": 4.1158725807,
				"z": -2.0570809047,
				"element": "H" 
			},
			{
				"x": -1.8985362136,
				"y": 2.4500756052,
				"z": 5.2184548533,
				"element": "H" 
			},
			{
				"x": 0.3903171494,
				"y": 2.1930424759,
				"z": 6.1862848927,
				"element": "H" 
			},
			{
				"x": -0.2581706412,
				"y": 4.4745293588,
				"z": 4.8699583669,
				"element": "H" 
			},
			{
				"x": 1.5001228009,
				"y": 4.1609211474,
				"z": 4.7507647974,
				"element": "H" 
			},
			{
				"x": 0.4609756297,
				"y": 4.0639307481,
				"z": 2.2884078874,
				"element": "H" 
			},
			{
				"x": 1.8403699879,
				"y": 1.7980822249,
				"z": 2.1477472463,
				"element": "H" 
			},
			{
				"x": 1.801955951,
				"y": 0.6521267064,
				"z": 4.5488229575,
				"element": "H" 
			},
			{
				"x": -1.8595484317,
				"y": 3.500101076,
				"z": 3.0255711493,
				"element": "H" 
			}
		],
		 "valence_orbital": [ 
			{
				"type": "occ",
				"energy": -0.26193,
				"method": "rhf"
			},
			{
				"type": "occ",
				"energy": -0.25295,
				"method": "rhf"
			},
			{
				"type": "occ",
				"energy": -0.24392,
				"method": "rhf"
			},
			{
				"type": "occ",
				"energy": -0.23573,
				"method": "rhf"
			},
			{
				"type": "occ",
				"energy": -0.22644,
				"method": "rhf"
			},
			{
				"type": "unocc",
				"energy": -0.03274,
				"method": "rhf"
			},
			{
				"type": "unocc",
				"energy": -0.02024,
				"method": "rhf"
			},
			{
				"type": "unocc",
				"energy": -0.01403,
				"method": "rhf"
			},
			{
				"type": "unocc",
				"energy": -0.00495,
				"method": "rhf"
			},
			{
				"type": "unocc",
				"energy": 0.00172,
				"method": "rhf"
			}
		],
		"cosmo_sigma_profile": { 
			"-0.025": 0.0,
			"-0.024": 0.0,
			"-0.023": 0.0,
			"-0.022": 0.0,
			"-0.021": 0.0,
			"-0.02": 0.0,
			"-0.019": 0.0,
			"-0.018": 0.0,
			"-0.017": 0.0,
			"-0.016": 0.0,
			"-0.015": 0.0,
			"-0.014": 0.0,
			"-0.013": 0.0,
			"-0.012": 0.0,
			"-0.011": 0.0,
			"-0.01": 0.0181065383202,
			"-0.009": 1.89858754652,
			"-0.008": 5.30540041687,
			"-0.007": 21.3414231159,
			"-0.006": 36.9306219578,
			"-0.005": 44.4955951758,
			"-0.004": 55.6702223797,
			"-0.003": 54.2690124994,
			"-0.002": 41.8632721182,
			"-0.001": 36.0443520147,
			"0.0": 32.505468749,
			"0.001": 25.8040179437,
			"0.002": 26.9663986235,
			"0.003": 25.9581982586,
			"0.004": 22.8797618668,
			"0.005": 22.7772432368,
			"0.006": 19.5690092239,
			"0.007": 13.7582691903,
			"0.008": 13.5468258889,
			"0.009": 11.5169254318,
			"0.01": 12.5760682448,
			"0.011": 14.8535838346,
			"0.012": 7.00976329602,
			"0.013": 0.889556330323,
			"0.014": 0.0,
			"0.015": 0.0,
			"0.016": 0.0,
			"0.017": 0.0,
			"0.018": 0.0,
			"0.019": 0.0,
			"0.02": 0.0,
			"0.021": 0.0,
			"0.022": 0.0,
			"0.023": 0.0,
			"0.024": 0.0,
			"0.025": 0.0
		}
	}
}
