{
	 "smiles": "CC1=CC(C)=C(OCCCC(O)=O)C=C1", 
	 "Tm": 400.15, 
	 "num_atms": 31, 
	 "gaussian": { 
		 "optdone": 1, 
		 "sigma_profile": "yes", 
		 "theory": "DFT", 
		 "functional": "B3LYP", 
		 "basiset": "6-31G**", 
		 "properties": { 
			 "R2extent": 4914.439, 
			 "electric_dipole_moment_norm": 2.3031928317, 
			 "electric_quadrupole_moment_norm": 15.4587468506, 
			 "total_energy": -692.616049021, 
			 "HOMO_LUMO_gap": 0.21185, 
			 "cosmo_polarized_energy": -11.93, 
			 "cosmo_cavitation_energy": 34.16, 
			 "cosmo_dispersion_energy": -23.86, 
			 "cosmo_repulsion_energy": 1.91, 
			 "cosmo_total_nonelectrostatic_energy": 12.22, 
			 "SMD_solvation_energy": 7.12 
		},
		"coords": [
			{
				"x": 2.9100368481,
				"y": -1.5423665483,
				"z": 2.8818159144,
				"element": "C" 
			},
			{
				"x": 1.7961380221,
				"y": -1.0842215634,
				"z": 1.9694355737,
				"element": "C" 
			},
			{
				"x": 1.815419421,
				"y": -1.395723939,
				"z": 0.5998863495,
				"element": "C" 
			},
			{
				"x": 0.8125558739,
				"y": -0.9929597445,
				"z": -0.2789711136,
				"element": "C" 
			},
			{
				"x": 0.8501681183,
				"y": -1.3448016013,
				"z": -1.744425747,
				"element": "C" 
			},
			{
				"x": -0.2649537169,
				"y": -0.2400046367,
				"z": 0.237355022,
				"element": "C" 
			},
			{
				"x": -1.2220224361,
				"y": 0.1043551959,
				"z": -0.6856302458,
				"element": "O" 
			},
			{
				"x": -2.3480427181,
				"y": 0.8874460818,
				"z": -0.2917242138,
				"element": "C" 
			},
			{
				"x": -2.0375871526,
				"y": 2.3851130544,
				"z": -0.2162950577,
				"element": "C" 
			},
			{
				"x": -1.5158194982,
				"y": 2.9685190052,
				"z": -1.536571841,
				"element": "C" 
			},
			{
				"x": -2.4835837541,
				"y": 2.9631455272,
				"z": -2.7037560135,
				"element": "C" 
			},
			{
				"x": -3.7831222072,
				"y": 3.0419707874,
				"z": -2.3117688326,
				"element": "O" 
			},
			{
				"x": -2.1658295376,
				"y": 2.930147044,
				"z": -3.8711199573,
				"element": "O" 
			},
			{
				"x": -0.3076817363,
				"y": 0.0847780518,
				"z": 1.594129862,
				"element": "C" 
			},
			{
				"x": 0.7183622473,
				"y": -0.339901807,
				"z": 2.4460298706,
				"element": "C" 
			},
			{
				"x": 2.7311669508,
				"y": -1.230751978,
				"z": 3.914918616,
				"element": "H" 
			},
			{
				"x": 3.8787379086,
				"y": -1.1303954722,
				"z": 2.574395386,
				"element": "H" 
			},
			{
				"x": 3.011325729,
				"y": -2.6341445406,
				"z": 2.877397435,
				"element": "H" 
			},
			{
				"x": 2.6447548665,
				"y": -1.9775870523,
				"z": 0.2016195335,
				"element": "H" 
			},
			{
				"x": -0.0338662393,
				"y": -1.9216600541,
				"z": -2.037530893,
				"element": "H" 
			},
			{
				"x": 0.8539463014,
				"y": -0.4467887302,
				"z": -2.3722960597,
				"element": "H" 
			},
			{
				"x": 1.7405940645,
				"y": -1.93330268,
				"z": -1.9808663949,
				"element": "H" 
			},
			{
				"x": -2.7567554025,
				"y": 0.5249808871,
				"z": 0.6595967349,
				"element": "H" 
			},
			{
				"x": -3.1006092032,
				"y": 0.7005865326,
				"z": -1.0632108673,
				"element": "H" 
			},
			{
				"x": -1.2877536702,
				"y": 2.5664611446,
				"z": 0.5606507496,
				"element": "H" 
			},
			{
				"x": -2.951045295,
				"y": 2.9066979404,
				"z": 0.088470914,
				"element": "H" 
			},
			{
				"x": -1.226629944,
				"y": 4.0167429322,
				"z": -1.3848522174,
				"element": "H" 
			},
			{
				"x": -0.6189005882,
				"y": 2.4430895652,
				"z": -1.8720792585,
				"element": "H" 
			},
			{
				"x": -4.3050285193,
				"y": 3.0614036145,
				"z": -3.1318163736,
				"element": "H" 
			},
			{
				"x": -1.1262725843,
				"y": 0.6638780252,
				"z": 2.0050900368,
				"element": "H" 
			},
			{
				"x": 0.6683978518,
				"y": -0.077805042,
				"z": 3.5000230884,
				"element": "H" 
			}
		],
		 "valence_orbital": [ 
			{
				"type": "occ",
				"energy": -0.31276,
				"method": "rhf"
			},
			{
				"type": "occ",
				"energy": -0.3041,
				"method": "rhf"
			},
			{
				"type": "occ",
				"energy": -0.27321,
				"method": "rhf"
			},
			{
				"type": "occ",
				"energy": -0.23758,
				"method": "rhf"
			},
			{
				"type": "occ",
				"energy": -0.20594,
				"method": "rhf"
			},
			{
				"type": "unocc",
				"energy": 0.00591,
				"method": "rhf"
			},
			{
				"type": "unocc",
				"energy": 0.00747,
				"method": "rhf"
			},
			{
				"type": "unocc",
				"energy": 0.0187,
				"method": "rhf"
			},
			{
				"type": "unocc",
				"energy": 0.07023,
				"method": "rhf"
			},
			{
				"type": "unocc",
				"energy": 0.0944,
				"method": "rhf"
			}
		],
		"cosmo_sigma_profile": { 
			"-0.025": 0.0,
			"-0.024": 0.0,
			"-0.023": 0.0,
			"-0.022": 0.0,
			"-0.021": 0.0,
			"-0.02": 0.0,
			"-0.019": 0.0,
			"-0.018": 0.386366011319,
			"-0.017": 1.19112521707,
			"-0.016": 0.563070398126,
			"-0.015": 1.08039218982,
			"-0.014": 0.564379372908,
			"-0.013": 0.757169182831,
			"-0.012": 0.633782819836,
			"-0.011": 0.557714654999,
			"-0.01": 0.5352801892,
			"-0.009": 0.909657621732,
			"-0.008": 0.848616656468,
			"-0.007": 3.29350907079,
			"-0.006": 6.31196544663,
			"-0.005": 11.3150853232,
			"-0.004": 26.2380656369,
			"-0.003": 30.4352824115,
			"-0.002": 28.1432738941,
			"-0.001": 24.1031073513,
			"0.0": 25.5752209629,
			"0.001": 20.0769230395,
			"0.002": 13.0144026059,
			"0.003": 11.9177633668,
			"0.004": 11.5179785438,
			"0.005": 10.6576509223,
			"0.006": 10.7094111368,
			"0.007": 8.05986691616,
			"0.008": 4.27375378534,
			"0.009": 2.62377073935,
			"0.01": 2.16004119712,
			"0.011": 3.0284073985,
			"0.012": 5.18396284552,
			"0.013": 1.53948364725,
			"0.014": 0.0151915890172,
			"0.015": 0.0,
			"0.016": 0.0,
			"0.017": 0.0,
			"0.018": 0.0,
			"0.019": 0.0,
			"0.02": 0.0,
			"0.021": 0.0,
			"0.022": 0.0,
			"0.023": 0.0,
			"0.024": 0.0,
			"0.025": 0.0
		}
	}
}
