{
	 "smiles": "O=C(N1CCOCC1)C1=CC=C(C=C1)C#N", 
	 "Tm": 418.15, 
	 "num_atms": 28, 
	 "gaussian": { 
		 "optdone": 1, 
		 "sigma_profile": "yes", 
		 "theory": "DFT", 
		 "functional": "B3LYP", 
		 "basiset": "6-31G**", 
		 "properties": { 
			 "R2extent": 4938.683, 
			 "electric_dipole_moment_norm": 3.95806676674, 
			 "electric_quadrupole_moment_norm": 25.4724468988, 
			 "total_energy": -724.431127805, 
			 "HOMO_LUMO_gap": 0.18091, 
			 "cosmo_polarized_energy": -17.25, 
			 "cosmo_cavitation_energy": 32.17, 
			 "cosmo_dispersion_energy": -22.89, 
			 "cosmo_repulsion_energy": 1.78, 
			 "cosmo_total_nonelectrostatic_energy": 11.06, 
			 "SMD_solvation_energy": 6.44 
		},
		"coords": [
			{
				"x": 1.4485427637,
				"y": -1.2706020315,
				"z": 0.8905876965,
				"element": "O" 
			},
			{
				"x": 0.7392869244,
				"y": -0.2895798397,
				"z": 0.6740518725,
				"element": "C" 
			},
			{
				"x": -0.0880681257,
				"y": 0.2196291448,
				"z": 1.6435502961,
				"element": "N" 
			},
			{
				"x": -0.0513764276,
				"y": -0.4539115733,
				"z": 2.9515314049,
				"element": "C" 
			},
			{
				"x": -0.8132582543,
				"y": 0.3779443674,
				"z": 3.9749668007,
				"element": "C" 
			},
			{
				"x": -2.1814514532,
				"y": 0.5832374666,
				"z": 3.6246380786,
				"element": "O" 
			},
			{
				"x": -2.4357721874,
				"y": 0.5999373773,
				"z": 2.2252440985,
				"element": "C" 
			},
			{
				"x": -1.2417483651,
				"y": 1.1007079543,
				"z": 1.4129321542,
				"element": "C" 
			},
			{
				"x": 0.8008605433,
				"y": 0.3928647938,
				"z": -0.668933094,
				"element": "C" 
			},
			{
				"x": 0.9554766406,
				"y": -0.4249342548,
				"z": -1.7977531695,
				"element": "C" 
			},
			{
				"x": 1.0897726676,
				"y": 0.1321566433,
				"z": -3.063212848,
				"element": "C" 
			},
			{
				"x": 1.1009716101,
				"y": 1.5304236851,
				"z": -3.2131215419,
				"element": "C" 
			},
			{
				"x": 0.9803640153,
				"y": 2.3560854746,
				"z": -2.0836831326,
				"element": "C" 
			},
			{
				"x": 0.8269873359,
				"y": 1.786054364,
				"z": -0.8230364579,
				"element": "C" 
			},
			{
				"x": 1.2434597825,
				"y": 2.1139648719,
				"z": -4.5155814424,
				"element": "C" 
			},
			{
				"x": 1.3556382072,
				"y": 2.5883232769,
				"z": -5.571753234,
				"element": "N" 
			},
			{
				"x": 0.9913939225,
				"y": -0.5770157707,
				"z": 3.2551763837,
				"element": "H" 
			},
			{
				"x": -0.4806074254,
				"y": -1.461596869,
				"z": 2.8756327604,
				"element": "H" 
			},
			{
				"x": -0.3092565733,
				"y": 1.3479119313,
				"z": 4.1083472402,
				"element": "H" 
			},
			{
				"x": -0.8073254987,
				"y": -0.1333500658,
				"z": 4.942518016,
				"element": "H" 
			},
			{
				"x": -3.2941767739,
				"y": 1.2605675524,
				"z": 2.0636403009,
				"element": "H" 
			},
			{
				"x": -2.7147302541,
				"y": -0.4056401319,
				"z": 1.8737490746,
				"element": "H" 
			},
			{
				"x": -1.013962241,
				"y": 2.1349162905,
				"z": 1.7053844998,
				"element": "H" 
			},
			{
				"x": -1.4998565111,
				"y": 1.105317187,
				"z": 0.3520477873,
				"element": "H" 
			},
			{
				"x": 0.9801950411,
				"y": -1.5005643427,
				"z": -1.661562985,
				"element": "H" 
			},
			{
				"x": 1.1952584612,
				"y": -0.5015873375,
				"z": -3.9372355708,
				"element": "H" 
			},
			{
				"x": 1.0119808804,
				"y": 3.4340454401,
				"z": -2.2009188084,
				"element": "H" 
			},
			{
				"x": 0.7521012951,
				"y": 2.4314943954,
				"z": 0.0457938198,
				"element": "H" 
			}
		],
		 "valence_orbital": [ 
			{
				"type": "occ",
				"energy": -0.28483,
				"method": "rhf"
			},
			{
				"type": "occ",
				"energy": -0.27854,
				"method": "rhf"
			},
			{
				"type": "occ",
				"energy": -0.26874,
				"method": "rhf"
			},
			{
				"type": "occ",
				"energy": -0.25747,
				"method": "rhf"
			},
			{
				"type": "occ",
				"energy": -0.25212,
				"method": "rhf"
			},
			{
				"type": "unocc",
				"energy": -0.07121,
				"method": "rhf"
			},
			{
				"type": "unocc",
				"energy": -0.03262,
				"method": "rhf"
			},
			{
				"type": "unocc",
				"energy": 0.01676,
				"method": "rhf"
			},
			{
				"type": "unocc",
				"energy": 0.03137,
				"method": "rhf"
			},
			{
				"type": "unocc",
				"energy": 0.0644,
				"method": "rhf"
			}
		],
		"cosmo_sigma_profile": { 
			"-0.025": 0.0,
			"-0.024": 0.0,
			"-0.023": 0.0,
			"-0.022": 0.0,
			"-0.021": 0.0,
			"-0.02": 0.0,
			"-0.019": 0.0,
			"-0.018": 0.0,
			"-0.017": 0.0,
			"-0.016": 0.0,
			"-0.015": 0.0,
			"-0.014": 0.0,
			"-0.013": 0.0,
			"-0.012": 0.0,
			"-0.011": 0.0,
			"-0.01": 0.0,
			"-0.009": 0.503211378237,
			"-0.008": 5.09285031761,
			"-0.007": 9.923420499,
			"-0.006": 18.2263758942,
			"-0.005": 27.9096141701,
			"-0.004": 30.3953505838,
			"-0.003": 21.8378948322,
			"-0.002": 17.229129473,
			"-0.001": 16.9412929789,
			"0.0": 14.1265857057,
			"0.001": 16.5527566938,
			"0.002": 11.0685027761,
			"0.003": 5.71466690117,
			"0.004": 5.23247288632,
			"0.005": 5.23915145663,
			"0.006": 5.07882178598,
			"0.007": 6.50873231771,
			"0.008": 5.77939653248,
			"0.009": 5.86742783279,
			"0.01": 4.5148789406,
			"0.011": 6.83832373198,
			"0.012": 5.43041861034,
			"0.013": 7.16803224032,
			"0.014": 3.00914885064,
			"0.015": 0.089890046413,
			"0.016": 0.0,
			"0.017": 0.0,
			"0.018": 0.0,
			"0.019": 0.0,
			"0.02": 0.0,
			"0.021": 0.0,
			"0.022": 0.0,
			"0.023": 0.0,
			"0.024": 0.0,
			"0.025": 0.0
		}
	}
}
