{
	 "smiles": "CC(=O)C1=CC=C(NC1=O)C(F)(F)F", 
	 "Tm": 361.15, 
	 "num_atms": 20, 
	 "gaussian": { 
		 "optdone": 1, 
		 "sigma_profile": "yes", 
		 "theory": "DFT", 
		 "functional": "B3LYP", 
		 "basiset": "6-31G**", 
		 "properties": { 
			 "R2extent": 4372.0889, 
			 "electric_dipole_moment_norm": 2.72176426055, 
			 "electric_quadrupole_moment_norm": 7.13310499993, 
			 "total_energy": -813.197412866, 
			 "HOMO_LUMO_gap": 0.15493, 
			 "cosmo_polarized_energy": -12.53, 
			 "cosmo_cavitation_energy": 26.4, 
			 "cosmo_dispersion_energy": -18.84, 
			 "cosmo_repulsion_energy": 1.41, 
			 "cosmo_total_nonelectrostatic_energy": 8.97, 
			 "SMD_solvation_energy": 7.04 
		},
		"coords": [
			{
				"x": 2.4098095936,
				"y": -0.8210163172,
				"z": -1.3279669134,
				"element": "C" 
			},
			{
				"x": 1.2743299525,
				"y": -1.6464726606,
				"z": -0.7729249118,
				"element": "C" 
			},
			{
				"x": 0.971264478,
				"y": -2.7222896913,
				"z": -1.2700954498,
				"element": "O" 
			},
			{
				"x": 0.4904211492,
				"y": -1.1464652353,
				"z": 0.4144158561,
				"element": "C" 
			},
			{
				"x": -0.5356055531,
				"y": -1.9396176333,
				"z": 0.8744024315,
				"element": "C" 
			},
			{
				"x": -1.347304653,
				"y": -1.5832764035,
				"z": 1.9802972503,
				"element": "C" 
			},
			{
				"x": -1.0839355909,
				"y": -0.396279101,
				"z": 2.6027347145,
				"element": "C" 
			},
			{
				"x": -0.0745645821,
				"y": 0.4016644801,
				"z": 2.1650325317,
				"element": "N" 
			},
			{
				"x": 0.7895664028,
				"y": 0.123238468,
				"z": 1.0778955766,
				"element": "C" 
			},
			{
				"x": 1.6696473391,
				"y": 0.9329056798,
				"z": 0.8088938842,
				"element": "O" 
			},
			{
				"x": -1.9067490186,
				"y": 0.1410259985,
				"z": 3.7489531563,
				"element": "C" 
			},
			{
				"x": -2.7860115578,
				"y": 1.0677036339,
				"z": 3.3184208994,
				"element": "F" 
			},
			{
				"x": -2.5949982702,
				"y": -0.8342883057,
				"z": 4.3585546118,
				"element": "F" 
			},
			{
				"x": -1.1124993024,
				"y": 0.7418121656,
				"z": 4.6633909484,
				"element": "F" 
			},
			{
				"x": 3.1695333226,
				"y": -0.6418253843,
				"z": -0.5616076299,
				"element": "H" 
			},
			{
				"x": 2.0589311533,
				"y": 0.1711781096,
				"z": -1.6265845722,
				"element": "H" 
			},
			{
				"x": 2.8375036327,
				"y": -1.3518894445,
				"z": -2.1794799583,
				"element": "H" 
			},
			{
				"x": -0.7070572806,
				"y": -2.8733435684,
				"z": 0.3464784615,
				"element": "H" 
			},
			{
				"x": -2.1492352399,
				"y": -2.218950634,
				"z": 2.3298783803,
				"element": "H" 
			},
			{
				"x": 0.1415540248,
				"y": 1.2635858437,
				"z": 2.654210733,
				"element": "H" 
			}
		],
		 "valence_orbital": [ 
			{
				"type": "occ",
				"energy": -0.36199,
				"method": "rhf"
			},
			{
				"type": "occ",
				"energy": -0.32203,
				"method": "rhf"
			},
			{
				"type": "occ",
				"energy": -0.27475,
				"method": "rhf"
			},
			{
				"type": "occ",
				"energy": -0.25488,
				"method": "rhf"
			},
			{
				"type": "occ",
				"energy": -0.24705,
				"method": "rhf"
			},
			{
				"type": "unocc",
				"energy": -0.09212,
				"method": "rhf"
			},
			{
				"type": "unocc",
				"energy": -0.01723,
				"method": "rhf"
			},
			{
				"type": "unocc",
				"energy": 0.00356,
				"method": "rhf"
			},
			{
				"type": "unocc",
				"energy": 0.06772,
				"method": "rhf"
			},
			{
				"type": "unocc",
				"energy": 0.10318,
				"method": "rhf"
			}
		],
		"cosmo_sigma_profile": { 
			"-0.025": 0.0,
			"-0.024": 0.0,
			"-0.023": 0.0,
			"-0.022": 0.0,
			"-0.021": 0.0,
			"-0.02": 0.0,
			"-0.019": 0.0,
			"-0.018": 0.0,
			"-0.017": 0.169936768105,
			"-0.016": 0.766895131311,
			"-0.015": 1.04142225984,
			"-0.014": 0.630512834199,
			"-0.013": 1.01236390541,
			"-0.012": 0.730065736295,
			"-0.011": 1.23183000087,
			"-0.01": 0.931271043086,
			"-0.009": 1.82539679734,
			"-0.008": 3.44893101118,
			"-0.007": 4.86078794511,
			"-0.006": 5.44732281243,
			"-0.005": 10.5567697221,
			"-0.004": 15.2709393109,
			"-0.003": 18.3359568441,
			"-0.002": 18.8780765467,
			"-0.001": 21.0450219722,
			"0.0": 20.2778480075,
			"0.001": 21.1018675816,
			"0.002": 23.251765006,
			"0.003": 3.91757500954,
			"0.004": 3.06031907432,
			"0.005": 2.19604081613,
			"0.006": 3.39953290204,
			"0.007": 3.46352891519,
			"0.008": 2.3189562924,
			"0.009": 2.74971712704,
			"0.01": 3.82932951837,
			"0.011": 4.74497171362,
			"0.012": 5.64448545968,
			"0.013": 5.10895118741,
			"0.014": 0.423564399024,
			"0.015": 0.0,
			"0.016": 0.0,
			"0.017": 0.0,
			"0.018": 0.0,
			"0.019": 0.0,
			"0.02": 0.0,
			"0.021": 0.0,
			"0.022": 0.0,
			"0.023": 0.0,
			"0.024": 0.0,
			"0.025": 0.0
		}
	}
}
