{
	 "smiles": "CC1=NC(=NO1)C1=CC(CBr)=CC=C1", 
	 "Tm": 344.65, 
	 "num_atms": 23, 
	 "gaussian": { 
		 "optdone": 1, 
		 "sigma_profile": "yes", 
		 "theory": "DFT", 
		 "functional": "B3LYP", 
		 "basiset": "6-31G**", 
		 "properties": { 
			 "R2extent": 6346.4161, 
			 "electric_dipole_moment_norm": 2.3207734185, 
			 "electric_quadrupole_moment_norm": 23.9621652709, 
			 "total_energy": -3142.59882223, 
			 "HOMO_LUMO_gap": 0.19275, 
			 "cosmo_polarized_energy": -10.77, 
			 "cosmo_cavitation_energy": 30.41, 
			 "cosmo_dispersion_energy": -22.5, 
			 "cosmo_repulsion_energy": 1.79, 
			 "cosmo_total_nonelectrostatic_energy": 9.7, 
			 "SMD_solvation_energy": 2.59 
		},
		"coords": [
			{
				"x": 4.3908560473,
				"y": -1.1559407925,
				"z": -1.381056152,
				"element": "C" 
			},
			{
				"x": 2.9391376623,
				"y": -0.8403883429,
				"z": -1.3052259954,
				"element": "C" 
			},
			{
				"x": 2.2836340091,
				"y": -0.2557472812,
				"z": -0.3470809516,
				"element": "N" 
			},
			{
				"x": 0.9895014135,
				"y": -0.2381602633,
				"z": -0.8351192816,
				"element": "C" 
			},
			{
				"x": 0.8539576905,
				"y": -0.7814244055,
				"z": -2.0245038121,
				"element": "N" 
			},
			{
				"x": 2.1586716269,
				"y": -1.1872994003,
				"z": -2.3454410034,
				"element": "O" 
			},
			{
				"x": -0.1377568802,
				"y": 0.3383814605,
				"z": -0.0889925708,
				"element": "C" 
			},
			{
				"x": 0.0875980122,
				"y": 0.9080066891,
				"z": 1.169583639,
				"element": "C" 
			},
			{
				"x": -0.9693189088,
				"y": 1.4580315078,
				"z": 1.9028995587,
				"element": "C" 
			},
			{
				"x": -0.7226878424,
				"y": 2.0469680411,
				"z": 3.2541045375,
				"element": "C" 
			},
			{
				"x": -0.3851922792,
				"y": 4.0236523502,
				"z": 3.1730553148,
				"element": "Br" 
			},
			{
				"x": -2.2608031523,
				"y": 1.4355608146,
				"z": 1.359013808,
				"element": "C" 
			},
			{
				"x": -2.4897311149,
				"y": 0.8699249602,
				"z": 0.1043543967,
				"element": "C" 
			},
			{
				"x": -1.4360351103,
				"y": 0.321412469,
				"z": -0.6220285543,
				"element": "C" 
			},
			{
				"x": 4.8795896695,
				"y": -0.8146780905,
				"z": -0.4686393133,
				"element": "H" 
			},
			{
				"x": 4.5455373759,
				"y": -2.2332340807,
				"z": -1.4948677239,
				"element": "H" 
			},
			{
				"x": 4.8474657391,
				"y": -0.6612747031,
				"z": -2.2437514335,
				"element": "H" 
			},
			{
				"x": 1.0970880782,
				"y": 0.917346924,
				"z": 1.567943139,
				"element": "H" 
			},
			{
				"x": -1.5800458083,
				"y": 1.9520927142,
				"z": 3.9180073066,
				"element": "H" 
			},
			{
				"x": 0.1673081243,
				"y": 1.6423424581,
				"z": 3.7320436942,
				"element": "H" 
			},
			{
				"x": -3.0861619285,
				"y": 1.8662346472,
				"z": 1.9196836706,
				"element": "H" 
			},
			{
				"x": -3.4943128983,
				"y": 0.8549842632,
				"z": -0.3073528676,
				"element": "H" 
			},
			{
				"x": -1.6064995255,
				"y": -0.1220919391,
				"z": -1.5972294055,
				"element": "H" 
			}
		],
		 "valence_orbital": [ 
			{
				"type": "occ",
				"energy": -0.29833,
				"method": "rhf"
			},
			{
				"type": "occ",
				"energy": -0.27402,
				"method": "rhf"
			},
			{
				"type": "occ",
				"energy": -0.27025,
				"method": "rhf"
			},
			{
				"type": "occ",
				"energy": -0.25739,
				"method": "rhf"
			},
			{
				"type": "occ",
				"energy": -0.24645,
				"method": "rhf"
			},
			{
				"type": "unocc",
				"energy": -0.0537,
				"method": "rhf"
			},
			{
				"type": "unocc",
				"energy": -0.03312,
				"method": "rhf"
			},
			{
				"type": "unocc",
				"energy": -0.01035,
				"method": "rhf"
			},
			{
				"type": "unocc",
				"energy": 0.02273,
				"method": "rhf"
			},
			{
				"type": "unocc",
				"energy": 0.06914,
				"method": "rhf"
			}
		],
		"cosmo_sigma_profile": { 
			"-0.025": 0.0,
			"-0.024": 0.0,
			"-0.023": 0.0,
			"-0.022": 0.0,
			"-0.021": 0.0,
			"-0.02": 0.0,
			"-0.019": 0.0,
			"-0.018": 0.0,
			"-0.017": 0.0,
			"-0.016": 0.0,
			"-0.015": 0.0,
			"-0.014": 0.0,
			"-0.013": 0.0,
			"-0.012": 0.0,
			"-0.011": 0.0,
			"-0.01": 0.0,
			"-0.009": 0.0180077143104,
			"-0.008": 4.91532825357,
			"-0.007": 14.8105036377,
			"-0.006": 16.64726635,
			"-0.005": 17.3294825321,
			"-0.004": 18.2574732028,
			"-0.003": 17.53654465,
			"-0.002": 14.8826545859,
			"-0.001": 12.852752714,
			"0.0": 14.3406981906,
			"0.001": 17.5642751097,
			"0.002": 16.4619633542,
			"0.003": 20.1079544212,
			"0.004": 13.2275786847,
			"0.005": 10.5428116624,
			"0.006": 17.2329659776,
			"0.007": 9.08676978118,
			"0.008": 2.20957471055,
			"0.009": 2.87032725222,
			"0.01": 2.49866759528,
			"0.011": 1.42491606939,
			"0.012": 2.03370585552,
			"0.013": 0.229914404005,
			"0.014": 0.0,
			"0.015": 0.0,
			"0.016": 0.0,
			"0.017": 0.0,
			"0.018": 0.0,
			"0.019": 0.0,
			"0.02": 0.0,
			"0.021": 0.0,
			"0.022": 0.0,
			"0.023": 0.0,
			"0.024": 0.0,
			"0.025": 0.0
		}
	}
}
