{
	 "smiles": "CN1C=C(C=N1)C(C)=NO", 
	 "Tm": 418.15, 
	 "num_atms": 19, 
	 "gaussian": { 
		 "optdone": 1, 
		 "sigma_profile": "yes", 
		 "theory": "DFT", 
		 "functional": "B3LYP", 
		 "basiset": "6-31G**", 
		 "properties": { 
			 "R2extent": 1969.3233, 
			 "electric_dipole_moment_norm": 2.09570071098, 
			 "electric_quadrupole_moment_norm": 8.76225796641, 
			 "total_energy": -473.466523659, 
			 "HOMO_LUMO_gap": 0.20798, 
			 "cosmo_polarized_energy": -11.29, 
			 "cosmo_cavitation_energy": 23.0, 
			 "cosmo_dispersion_energy": -17.04, 
			 "cosmo_repulsion_energy": 1.39, 
			 "cosmo_total_nonelectrostatic_energy": 7.35, 
			 "SMD_solvation_energy": 3.68 
		},
		"coords": [
			{
				"x": -0.6522417491,
				"y": 0.0345018902,
				"z": -3.1817293888,
				"element": "C" 
			},
			{
				"x": -0.1240101379,
				"y": 0.4233163104,
				"z": -1.8877262341,
				"element": "N" 
			},
			{
				"x": -0.7952371998,
				"y": 0.9590976536,
				"z": -0.8428905236,
				"element": "C" 
			},
			{
				"x": 0.1342714364,
				"y": 1.1611431987,
				"z": 0.1790752291,
				"element": "C" 
			},
			{
				"x": 1.3531995936,
				"y": 0.6952629913,
				"z": -0.3903405823,
				"element": "C" 
			},
			{
				"x": 1.1962216716,
				"y": 0.2526461577,
				"z": -1.6321233638,
				"element": "N" 
			},
			{
				"x": -0.0335655865,
				"y": 1.7091656568,
				"z": 1.5217022972,
				"element": "C" 
			},
			{
				"x": 1.1836801412,
				"y": 1.8015104178,
				"z": 2.4109673483,
				"element": "C" 
			},
			{
				"x": -1.1206332505,
				"y": 2.139650281,
				"z": 2.0681133695,
				"element": "N" 
			},
			{
				"x": -2.2379820255,
				"y": 2.0396261466,
				"z": 1.2119979827,
				"element": "O" 
			},
			{
				"x": -0.1503509462,
				"y": 0.5944845819,
				"z": -3.9749804222,
				"element": "H" 
			},
			{
				"x": -0.4920380581,
				"y": -1.034094516,
				"z": -3.3470161561,
				"element": "H" 
			},
			{
				"x": -1.7215886419,
				"y": 0.2493386072,
				"z": -3.2063437873,
				"element": "H" 
			},
			{
				"x": -1.8518962411,
				"y": 1.1600852051,
				"z": -0.8791875054,
				"element": "H" 
			},
			{
				"x": 2.3350336269,
				"y": 0.6690707492,
				"z": 0.0626893665,
				"element": "H" 
			},
			{
				"x": 0.9023836504,
				"y": 2.227563763,
				"z": 3.3749405756,
				"element": "H" 
			},
			{
				"x": 1.9551065788,
				"y": 2.4335764886,
				"z": 1.9567106894,
				"element": "H" 
			},
			{
				"x": 1.6247726962,
				"y": 0.8121618049,
				"z": 2.5771147841,
				"element": "H" 
			},
			{
				"x": -2.9418255584,
				"y": 2.3958926121,
				"z": 1.7685263213,
				"element": "H" 
			}
		],
		 "valence_orbital": [ 
			{
				"type": "occ",
				"energy": -0.28898,
				"method": "rhf"
			},
			{
				"type": "occ",
				"energy": -0.27664,
				"method": "rhf"
			},
			{
				"type": "occ",
				"energy": -0.26502,
				"method": "rhf"
			},
			{
				"type": "occ",
				"energy": -0.25277,
				"method": "rhf"
			},
			{
				"type": "occ",
				"energy": -0.21762,
				"method": "rhf"
			},
			{
				"type": "unocc",
				"energy": -0.00964,
				"method": "rhf"
			},
			{
				"type": "unocc",
				"energy": 0.02221,
				"method": "rhf"
			},
			{
				"type": "unocc",
				"energy": 0.08021,
				"method": "rhf"
			},
			{
				"type": "unocc",
				"energy": 0.09699,
				"method": "rhf"
			},
			{
				"type": "unocc",
				"energy": 0.11394,
				"method": "rhf"
			}
		],
		"cosmo_sigma_profile": { 
			"-0.025": 0.0,
			"-0.024": 0.0,
			"-0.023": 0.0,
			"-0.022": 0.0,
			"-0.021": 0.0,
			"-0.02": 0.0,
			"-0.019": 0.0,
			"-0.018": 0.0,
			"-0.017": 0.577566543661,
			"-0.016": 0.930078483792,
			"-0.015": 1.10937228765,
			"-0.014": 0.58558284486,
			"-0.013": 0.832945448192,
			"-0.012": 0.403253277695,
			"-0.011": 0.477621081153,
			"-0.01": 0.937519832583,
			"-0.009": 1.61286227851,
			"-0.008": 3.19911016611,
			"-0.007": 5.22184701213,
			"-0.006": 9.73700205863,
			"-0.005": 12.7942066762,
			"-0.004": 17.1762408974,
			"-0.003": 17.1107473188,
			"-0.002": 11.0709622813,
			"-0.001": 11.1099231113,
			"0.0": 10.9640543561,
			"0.001": 7.47731102176,
			"0.002": 7.71893985266,
			"0.003": 10.5165024124,
			"0.004": 11.8673647711,
			"0.005": 5.85023644486,
			"0.006": 6.47754745928,
			"0.007": 6.28713803896,
			"0.008": 4.20430861722,
			"0.009": 3.96897334879,
			"0.01": 2.46063008495,
			"0.011": 2.64273157824,
			"0.012": 2.0221502882,
			"0.013": 1.72298400012,
			"0.014": 1.5781063825,
			"0.015": 1.0943977518,
			"0.016": 0.43659005405,
			"0.017": 0.0,
			"0.018": 0.0,
			"0.019": 0.0,
			"0.02": 0.0,
			"0.021": 0.0,
			"0.022": 0.0,
			"0.023": 0.0,
			"0.024": 0.0,
			"0.025": 0.0
		}
	}
}
