{
	 "smiles": "COC1=CC=C(C=C1)C(=O)C(C#N)=C(SC)SC", 
	 "Tm": 334.15, 
	 "num_atms": 31, 
	 "gaussian": { 
		 "optdone": 1, 
		 "sigma_profile": "yes", 
		 "theory": "DFT", 
		 "functional": "B3LYP", 
		 "basiset": "6-31G**", 
		 "properties": { 
			 "R2extent": 6887.5095, 
			 "electric_dipole_moment_norm": 8.48907148927, 
			 "electric_quadrupole_moment_norm": 16.8170209345, 
			 "total_energy": -1504.73493412, 
			 "HOMO_LUMO_gap": 0.16159, 
			 "cosmo_polarized_energy": -18.6, 
			 "cosmo_cavitation_energy": 39.39, 
			 "cosmo_dispersion_energy": -26.78, 
			 "cosmo_repulsion_energy": 2.02, 
			 "cosmo_total_nonelectrostatic_energy": 14.62, 
			 "SMD_solvation_energy": 9.48 
		},
		"coords": [
			{
				"x": 0.0104926078,
				"y": 0.3451095698,
				"z": -4.5413977233,
				"element": "C" 
			},
			{
				"x": 0.2584557654,
				"y": 1.55394858,
				"z": -3.8354190698,
				"element": "O" 
			},
			{
				"x": 0.4111736413,
				"y": 1.5021769669,
				"z": -2.4880890687,
				"element": "C" 
			},
			{
				"x": 0.3347656749,
				"y": 0.3298995496,
				"z": -1.7223215119,
				"element": "C" 
			},
			{
				"x": 0.5059120161,
				"y": 0.4011927425,
				"z": -0.3402537621,
				"element": "C" 
			},
			{
				"x": 0.7555273868,
				"y": 1.6220963242,
				"z": 0.2986076297,
				"element": "C" 
			},
			{
				"x": 0.841093755,
				"y": 2.7886382407,
				"z": -0.4874360755,
				"element": "C" 
			},
			{
				"x": 0.6663580269,
				"y": 2.7345620893,
				"z": -1.8575277519,
				"element": "C" 
			},
			{
				"x": 0.9876141653,
				"y": 1.7459300591,
				"z": 1.7594494898,
				"element": "C" 
			},
			{
				"x": 1.4099117283,
				"y": 2.7706055348,
				"z": 2.2703519763,
				"element": "O" 
			},
			{
				"x": 0.7652887789,
				"y": 0.5242822884,
				"z": 2.6570661852,
				"element": "C" 
			},
			{
				"x": 1.9418951462,
				"y": 0.0583973277,
				"z": 3.3121646743,
				"element": "C" 
			},
			{
				"x": 2.9173936737,
				"y": -0.3153609359,
				"z": 3.8290835808,
				"element": "N" 
			},
			{
				"x": -0.4705670778,
				"y": 0.0108056907,
				"z": 2.930872224,
				"element": "C" 
			},
			{
				"x": -1.8927375123,
				"y": 0.9792528363,
				"z": 2.4833380685,
				"element": "S" 
			},
			{
				"x": -2.9744884257,
				"y": -0.20828225,
				"z": 1.6037602125,
				"element": "C" 
			},
			{
				"x": -0.8396737938,
				"y": -1.4187052729,
				"z": 3.9097052859,
				"element": "S" 
			},
			{
				"x": 0.4619826444,
				"y": -2.6435291812,
				"z": 3.5044355574,
				"element": "C" 
			},
			{
				"x": 0.8357523228,
				"y": -0.3674274593,
				"z": -4.4211871729,
				"element": "H" 
			},
			{
				"x": -0.9251167473,
				"y": -0.1263700899,
				"z": -4.2159985666,
				"element": "H" 
			},
			{
				"x": -0.0738698157,
				"y": 0.6242998609,
				"z": -5.5922457336,
				"element": "H" 
			},
			{
				"x": 0.1537459416,
				"y": -0.6307115764,
				"z": -2.1891838251,
				"element": "H" 
			},
			{
				"x": 0.4581625439,
				"y": -0.5119747845,
				"z": 0.2435888941,
				"element": "H" 
			},
			{
				"x": 1.0471557122,
				"y": 3.7302421048,
				"z": 0.01003551,
				"element": "H" 
			},
			{
				"x": 0.7242577193,
				"y": 3.6261313495,
				"z": -2.4730236348,
				"element": "H" 
			},
			{
				"x": -2.5509750961,
				"y": -0.4580343136,
				"z": 0.6289831811,
				"element": "H" 
			},
			{
				"x": -3.1323832916,
				"y": -1.1078403482,
				"z": 2.1982910622,
				"element": "H" 
			},
			{
				"x": -3.9262227212,
				"y": 0.3089293116,
				"z": 1.464450766,
				"element": "H" 
			},
			{
				"x": 0.5978639157,
				"y": -2.7098695716,
				"z": 2.4232575188,
				"element": "H" 
			},
			{
				"x": 0.0744375858,
				"y": -3.5948894998,
				"z": 3.8759346732,
				"element": "H" 
			},
			{
				"x": 1.408793729,
				"y": -2.4114051436,
				"z": 3.9894074063,
				"element": "H" 
			}
		],
		 "valence_orbital": [ 
			{
				"type": "occ",
				"energy": -0.26911,
				"method": "rhf"
			},
			{
				"type": "occ",
				"energy": -0.26381,
				"method": "rhf"
			},
			{
				"type": "occ",
				"energy": -0.25701,
				"method": "rhf"
			},
			{
				"type": "occ",
				"energy": -0.23914,
				"method": "rhf"
			},
			{
				"type": "occ",
				"energy": -0.23374,
				"method": "rhf"
			},
			{
				"type": "unocc",
				"energy": -0.07215,
				"method": "rhf"
			},
			{
				"type": "unocc",
				"energy": -0.05544,
				"method": "rhf"
			},
			{
				"type": "unocc",
				"energy": -0.01732,
				"method": "rhf"
			},
			{
				"type": "unocc",
				"energy": 0.011,
				"method": "rhf"
			},
			{
				"type": "unocc",
				"energy": 0.02161,
				"method": "rhf"
			}
		],
		"cosmo_sigma_profile": { 
			"-0.025": 0.0,
			"-0.024": 0.0,
			"-0.023": 0.0,
			"-0.022": 0.0,
			"-0.021": 0.0,
			"-0.02": 0.0,
			"-0.019": 0.0,
			"-0.018": 0.0,
			"-0.017": 0.0,
			"-0.016": 0.0,
			"-0.015": 0.0,
			"-0.014": 0.0,
			"-0.013": 0.0,
			"-0.012": 0.0,
			"-0.011": 0.0,
			"-0.01": 0.0,
			"-0.009": 0.00581184298974,
			"-0.008": 2.72976255271,
			"-0.007": 11.4859355721,
			"-0.006": 22.8829066219,
			"-0.005": 27.2056777076,
			"-0.004": 27.9868842379,
			"-0.003": 29.1984911002,
			"-0.002": 23.8286359097,
			"-0.001": 19.2702589628,
			"0.0": 16.1645236819,
			"0.001": 19.6618078036,
			"0.002": 22.8120591488,
			"0.003": 26.4366419512,
			"0.004": 15.7772367854,
			"0.005": 11.7684882124,
			"0.006": 6.38379872633,
			"0.007": 5.78673636976,
			"0.008": 5.99511820722,
			"0.009": 5.88521163366,
			"0.01": 5.88061106288,
			"0.011": 6.62252171891,
			"0.012": 3.85431542722,
			"0.013": 1.00799375476,
			"0.014": 0.0,
			"0.015": 0.0,
			"0.016": 0.0,
			"0.017": 0.0,
			"0.018": 0.0,
			"0.019": 0.0,
			"0.02": 0.0,
			"0.021": 0.0,
			"0.022": 0.0,
			"0.023": 0.0,
			"0.024": 0.0,
			"0.025": 0.0
		}
	}
}
