{
	 "smiles": "CC1=CC=C(C=C1)C1=C(C=CC=C1)C(O)=O", 
	 "Tm": 420.15, 
	 "num_atms": 28, 
	 "gaussian": { 
		 "optdone": 1, 
		 "sigma_profile": "yes", 
		 "theory": "DFT", 
		 "functional": "B3LYP", 
		 "basiset": "6-31G**", 
		 "properties": { 
			 "R2extent": 4293.711, 
			 "electric_dipole_moment_norm": 1.23807866471, 
			 "electric_quadrupole_moment_norm": 8.96737946783, 
			 "total_energy": -691.195362825, 
			 "HOMO_LUMO_gap": 0.17518, 
			 "cosmo_polarized_energy": -11.61, 
			 "cosmo_cavitation_energy": 32.09, 
			 "cosmo_dispersion_energy": -22.94, 
			 "cosmo_repulsion_energy": 1.8, 
			 "cosmo_total_nonelectrostatic_energy": 10.94, 
			 "SMD_solvation_energy": 6.41 
		},
		"coords": [
			{
				"x": 1.3060945112,
				"y": 1.3235665981,
				"z": 4.731155637,
				"element": "C" 
			},
			{
				"x": 0.9895223431,
				"y": 1.2270367807,
				"z": 3.2575213788,
				"element": "C" 
			},
			{
				"x": 1.9870230202,
				"y": 1.4290329891,
				"z": 2.2920972947,
				"element": "C" 
			},
			{
				"x": 1.7114415778,
				"y": 1.3099333787,
				"z": 0.934141483,
				"element": "C" 
			},
			{
				"x": 0.4203137807,
				"y": 0.9889075389,
				"z": 0.487758249,
				"element": "C" 
			},
			{
				"x": -0.5819614459,
				"y": 0.8024362042,
				"z": 1.4488426488,
				"element": "C" 
			},
			{
				"x": -0.2984931048,
				"y": 0.9141688657,
				"z": 2.8102042176,
				"element": "C" 
			},
			{
				"x": 0.0860728606,
				"y": 0.9458400276,
				"z": -0.9640501405,
				"element": "C" 
			},
			{
				"x": 0.7647225277,
				"y": 0.1524059879,
				"z": -1.9216518823,
				"element": "C" 
			},
			{
				"x": 0.4250180376,
				"y": 0.2523216156,
				"z": -3.2810892061,
				"element": "C" 
			},
			{
				"x": -0.5934271003,
				"y": 1.0987345339,
				"z": -3.7081624652,
				"element": "C" 
			},
			{
				"x": -1.284551618,
				"y": 1.864457225,
				"z": -2.7692840977,
				"element": "C" 
			},
			{
				"x": -0.9394180638,
				"y": 1.7894517066,
				"z": -1.4213508454,
				"element": "C" 
			},
			{
				"x": 1.7696447668,
				"y": -0.8756945211,
				"z": -1.5191029717,
				"element": "C" 
			},
			{
				"x": 2.5907993754,
				"y": -1.2260762683,
				"z": -2.5483357709,
				"element": "O" 
			},
			{
				"x": 1.8680624726,
				"y": -1.3987638954,
				"z": -0.4290522474,
				"element": "O" 
			},
			{
				"x": 1.9961944993,
				"y": 2.1475767193,
				"z": 4.9401312624,
				"element": "H" 
			},
			{
				"x": 1.7821695018,
				"y": 0.4043627662,
				"z": 5.0950992412,
				"element": "H" 
			},
			{
				"x": 0.4015934227,
				"y": 1.4805820553,
				"z": 5.3260377412,
				"element": "H" 
			},
			{
				"x": 2.9942347362,
				"y": 1.687282436,
				"z": 2.6106707424,
				"element": "H" 
			},
			{
				"x": 2.5014349503,
				"y": 1.4825478992,
				"z": 0.2091742485,
				"element": "H" 
			},
			{
				"x": -1.5890990659,
				"y": 0.5514336553,
				"z": 1.1278273482,
				"element": "H" 
			},
			{
				"x": -1.092894753,
				"y": 0.7544131123,
				"z": 3.5353013414,
				"element": "H" 
			},
			{
				"x": 0.9584567998,
				"y": -0.361329848,
				"z": -3.9973705117,
				"element": "H" 
			},
			{
				"x": -0.8469652359,
				"y": 1.1558157372,
				"z": -4.7623331476,
				"element": "H" 
			},
			{
				"x": -2.0827001235,
				"y": 2.5303872981,
				"z": -3.0850696863,
				"element": "H" 
			},
			{
				"x": -1.4534619184,
				"y": 2.4146525504,
				"z": -0.6977819284,
				"element": "H" 
			},
			{
				"x": 3.1572732456,
				"y": -1.9303831484,
				"z": -2.1925279331,
				"element": "H" 
			}
		],
		 "valence_orbital": [ 
			{
				"type": "occ",
				"energy": -0.2768,
				"method": "rhf"
			},
			{
				"type": "occ",
				"energy": -0.2612,
				"method": "rhf"
			},
			{
				"type": "occ",
				"energy": -0.25837,
				"method": "rhf"
			},
			{
				"type": "occ",
				"energy": -0.2423,
				"method": "rhf"
			},
			{
				"type": "occ",
				"energy": -0.22185,
				"method": "rhf"
			},
			{
				"type": "unocc",
				"energy": -0.04667,
				"method": "rhf"
			},
			{
				"type": "unocc",
				"energy": -0.01632,
				"method": "rhf"
			},
			{
				"type": "unocc",
				"energy": 0.00565,
				"method": "rhf"
			},
			{
				"type": "unocc",
				"energy": 0.01858,
				"method": "rhf"
			},
			{
				"type": "unocc",
				"energy": 0.05377,
				"method": "rhf"
			}
		],
		"cosmo_sigma_profile": { 
			"-0.025": 0.0,
			"-0.024": 0.0,
			"-0.023": 0.0,
			"-0.022": 0.0,
			"-0.021": 0.0,
			"-0.02": 0.0,
			"-0.019": 0.0,
			"-0.018": 0.53503432269,
			"-0.017": 1.03126506486,
			"-0.016": 0.414744742921,
			"-0.015": 1.08521219862,
			"-0.014": 0.832250903907,
			"-0.013": 0.798296082407,
			"-0.012": 0.580904345495,
			"-0.011": 0.671950980011,
			"-0.01": 0.504729540605,
			"-0.009": 0.38676145257,
			"-0.008": 0.497717551266,
			"-0.007": 2.46057430074,
			"-0.006": 9.26443577216,
			"-0.005": 17.0994168372,
			"-0.004": 23.9748591245,
			"-0.003": 23.4080856393,
			"-0.002": 20.8268942011,
			"-0.001": 20.1939816673,
			"0.0": 21.3046114563,
			"0.001": 17.8632438715,
			"0.002": 17.9211536175,
			"0.003": 18.7318556229,
			"0.004": 16.8254391185,
			"0.005": 9.28294468244,
			"0.006": 8.09586282287,
			"0.007": 3.25524228941,
			"0.008": 3.22286902398,
			"0.009": 2.71774975367,
			"0.01": 2.34654517345,
			"0.011": 3.15657037596,
			"0.012": 5.04578069944,
			"0.013": 1.54808262845,
			"0.014": 0.0,
			"0.015": 0.0,
			"0.016": 0.0,
			"0.017": 0.0,
			"0.018": 0.0,
			"0.019": 0.0,
			"0.02": 0.0,
			"0.021": 0.0,
			"0.022": 0.0,
			"0.023": 0.0,
			"0.024": 0.0,
			"0.025": 0.0
		}
	}
}
