{
	 "smiles": "CCCC(NC(=O)C1=CC=CC=C1)C(N)=S", 
	 "Tm": 476.15, 
	 "num_atms": 32, 
	 "gaussian": { 
		 "optdone": 1, 
		 "sigma_profile": "yes", 
		 "theory": "DFT", 
		 "functional": "B3LYP", 
		 "basiset": "6-31G**", 
		 "properties": { 
			 "R2extent": 5339.2574, 
			 "electric_dipole_moment_norm": 6.81797422406, 
			 "electric_quadrupole_moment_norm": 12.8578835797, 
			 "total_energy": -1049.86943168, 
			 "HOMO_LUMO_gap": 0.15288, 
			 "cosmo_polarized_energy": -22.52, 
			 "cosmo_cavitation_energy": 36.63, 
			 "cosmo_dispersion_energy": -25.36, 
			 "cosmo_repulsion_energy": 1.97, 
			 "cosmo_total_nonelectrostatic_energy": 13.25, 
			 "SMD_solvation_energy": 5.74 
		},
		"coords": [
			{
				"x": 2.4208671099,
				"y": -2.2718115502,
				"z": 0.9692309561,
				"element": "C" 
			},
			{
				"x": 3.1077923561,
				"y": -1.0202423631,
				"z": 1.5314224465,
				"element": "C" 
			},
			{
				"x": 2.203042031,
				"y": 0.1799536695,
				"z": 1.8637502268,
				"element": "C" 
			},
			{
				"x": 1.6224572757,
				"y": 0.9473336029,
				"z": 0.6573445902,
				"element": "C" 
			},
			{
				"x": 0.5477444063,
				"y": 0.1896676183,
				"z": 0.0082051691,
				"element": "N" 
			},
			{
				"x": 0.5037864301,
				"y": 0.0537073728,
				"z": -1.3689861974,
				"element": "C" 
			},
			{
				"x": 1.2494114357,
				"y": 0.6886638639,
				"z": -2.1046222855,
				"element": "O" 
			},
			{
				"x": -0.5166918336,
				"y": -0.9075361467,
				"z": -1.9103898343,
				"element": "C" 
			},
			{
				"x": -1.6206216671,
				"y": -1.3678096644,
				"z": -1.1770530608,
				"element": "C" 
			},
			{
				"x": -2.5270617246,
				"y": -2.258161587,
				"z": -1.752755461,
				"element": "C" 
			},
			{
				"x": -2.3389262375,
				"y": -2.6968247876,
				"z": -3.0647625227,
				"element": "C" 
			},
			{
				"x": -1.2478986182,
				"y": -2.2333006003,
				"z": -3.8046776145,
				"element": "C" 
			},
			{
				"x": -0.3462298791,
				"y": -1.33895573,
				"z": -3.2333959994,
				"element": "C" 
			},
			{
				"x": 1.1781990071,
				"y": 2.3740530148,
				"z": 1.0533774648,
				"element": "C" 
			},
			{
				"x": -0.1030129492,
				"y": 2.6609518467,
				"z": 0.792581314,
				"element": "N" 
			},
			{
				"x": 2.2332527746,
				"y": 3.4694441281,
				"z": 1.7335138411,
				"element": "S" 
			},
			{
				"x": 2.0088294123,
				"y": -2.1111721359,
				"z": -0.0306823113,
				"element": "H" 
			},
			{
				"x": 1.6044450845,
				"y": -2.6045408852,
				"z": 1.6228711309,
				"element": "H" 
			},
			{
				"x": 3.1330130902,
				"y": -3.1000767818,
				"z": 0.8952334328,
				"element": "H" 
			},
			{
				"x": 3.8936850668,
				"y": -0.6900877021,
				"z": 0.8400234472,
				"element": "H" 
			},
			{
				"x": 3.6229890021,
				"y": -1.2979718017,
				"z": 2.4593482373,
				"element": "H" 
			},
			{
				"x": 1.375909605,
				"y": -0.1367833608,
				"z": 2.5178318021,
				"element": "H" 
			},
			{
				"x": 2.7852505413,
				"y": 0.9051727506,
				"z": 2.4366820553,
				"element": "H" 
			},
			{
				"x": 2.4042970172,
				"y": 1.092591575,
				"z": -0.09542155,
				"element": "H" 
			},
			{
				"x": 0.1258307036,
				"y": -0.5468306723,
				"z": 0.5559830848,
				"element": "H" 
			},
			{
				"x": -1.8021935644,
				"y": -1.0139366883,
				"z": -0.1658220529,
				"element": "H" 
			},
			{
				"x": -3.3827030986,
				"y": -2.6028374283,
				"z": -1.179686864,
				"element": "H" 
			},
			{
				"x": -3.0442651699,
				"y": -3.3917928093,
				"z": -3.5110708396,
				"element": "H" 
			},
			{
				"x": -1.1027980463,
				"y": -2.5675892317,
				"z": -4.8276882056,
				"element": "H" 
			},
			{
				"x": 0.501125211,
				"y": -0.9561270668,
				"z": -3.7918015715,
				"element": "H" 
			},
			{
				"x": -0.4408113183,
				"y": 3.5965012507,
				"z": 0.962964146,
				"element": "H" 
			},
			{
				"x": -0.6827134536,
				"y": 1.9848483001,
				"z": 0.3143530254,
				"element": "H" 
			}
		],
		 "valence_orbital": [ 
			{
				"type": "occ",
				"energy": -0.27201,
				"method": "rhf"
			},
			{
				"type": "occ",
				"energy": -0.26981,
				"method": "rhf"
			},
			{
				"type": "occ",
				"energy": -0.26236,
				"method": "rhf"
			},
			{
				"type": "occ",
				"energy": -0.22527,
				"method": "rhf"
			},
			{
				"type": "occ",
				"energy": -0.20342,
				"method": "rhf"
			},
			{
				"type": "unocc",
				"energy": -0.05054,
				"method": "rhf"
			},
			{
				"type": "unocc",
				"energy": -0.0256,
				"method": "rhf"
			},
			{
				"type": "unocc",
				"energy": -0.02038,
				"method": "rhf"
			},
			{
				"type": "unocc",
				"energy": 0.04519,
				"method": "rhf"
			},
			{
				"type": "unocc",
				"energy": 0.0547,
				"method": "rhf"
			}
		],
		"cosmo_sigma_profile": { 
			"-0.025": 0.0,
			"-0.024": 0.0,
			"-0.023": 0.0,
			"-0.022": 0.0,
			"-0.021": 0.0,
			"-0.02": 0.0,
			"-0.019": 0.0,
			"-0.018": 0.0,
			"-0.017": 0.0,
			"-0.016": 0.0,
			"-0.015": 1.00572761164,
			"-0.014": 1.67131017934,
			"-0.013": 2.98125388002,
			"-0.012": 4.09047848866,
			"-0.011": 3.28914601728,
			"-0.01": 3.67062525629,
			"-0.009": 4.11292147604,
			"-0.008": 4.76304925422,
			"-0.007": 5.71720431692,
			"-0.006": 11.506982109,
			"-0.005": 13.8107351513,
			"-0.004": 17.1288550458,
			"-0.003": 21.0726669559,
			"-0.002": 24.4335459926,
			"-0.001": 24.0687160803,
			"0.0": 24.0156543667,
			"0.001": 21.5343030852,
			"0.002": 15.0906732646,
			"0.003": 14.5262677625,
			"0.004": 17.8166596294,
			"0.005": 8.19285703985,
			"0.006": 5.53236508291,
			"0.007": 5.80283356905,
			"0.008": 6.40329737006,
			"0.009": 7.7201634509,
			"0.01": 6.66247470007,
			"0.011": 5.59852749744,
			"0.012": 4.74098267712,
			"0.013": 4.51804215739,
			"0.014": 0.526159420543,
			"0.015": 0.0,
			"0.016": 0.0,
			"0.017": 0.0,
			"0.018": 0.0,
			"0.019": 0.0,
			"0.02": 0.0,
			"0.021": 0.0,
			"0.022": 0.0,
			"0.023": 0.0,
			"0.024": 0.0,
			"0.025": 0.0
		}
	}
}
