{
	 "smiles": "C1CN2CCN3CCN1C23", 
	 "Tm": 258.5, 
	 "num_atms": 23, 
	 "gaussian": { 
		 "optdone": 1, 
		 "sigma_profile": "yes", 
		 "theory": "DFT", 
		 "functional": "B3LYP", 
		 "basiset": "6-31G**", 
		 "properties": { 
			 "R2extent": 1872.2215, 
			 "electric_dipole_moment_norm": 2.18840393209, 
			 "electric_quadrupole_moment_norm": 5.14146228519, 
			 "total_energy": -438.719160505, 
			 "HOMO_LUMO_gap": 0.27826, 
			 "cosmo_polarized_energy": -9.4, 
			 "cosmo_cavitation_energy": 22.89, 
			 "cosmo_dispersion_energy": -17.88, 
			 "cosmo_repulsion_energy": 1.44, 
			 "cosmo_total_nonelectrostatic_energy": 6.45, 
			 "SMD_solvation_energy": -7.0 
		},
		"coords": [
			{
				"x": -1.6877937809,
				"y": 0.5946799835,
				"z": 2.7760976814,
				"element": "C" 
			},
			{
				"x": -0.6609886534,
				"y": -0.4350879539,
				"z": 3.4901672294,
				"element": "C" 
			},
			{
				"x": 0.154986374,
				"y": -0.9399797447,
				"z": 2.3583692854,
				"element": "N" 
			},
			{
				"x": 1.6209264793,
				"y": -1.1405001054,
				"z": 2.2465013116,
				"element": "C" 
			},
			{
				"x": 1.967047385,
				"y": -0.5349924813,
				"z": 0.7842177136,
				"element": "C" 
			},
			{
				"x": 0.6460196475,
				"y": -0.0809524128,
				"z": 0.2837230677,
				"element": "N" 
			},
			{
				"x": 0.260435619,
				"y": 1.1768072995,
				"z": -0.4026475199,
				"element": "C" 
			},
			{
				"x": -1.1124868662,
				"y": 1.6010920806,
				"z": 0.3454911244,
				"element": "C" 
			},
			{
				"x": -1.3017177704,
				"y": 0.5211349711,
				"z": 1.3452864917,
				"element": "N" 
			},
			{
				"x": 0.045527475,
				"y": 0.1793817764,
				"z": 1.5226634232,
				"element": "C" 
			},
			{
				"x": -1.5475926702,
				"y": 1.5983094774,
				"z": 3.2092592284,
				"element": "H" 
			},
			{
				"x": -2.7296473508,
				"y": 0.2981309988,
				"z": 2.9223214265,
				"element": "H" 
			},
			{
				"x": -0.0666594619,
				"y": 0.1132717204,
				"z": 4.238913053,
				"element": "H" 
			},
			{
				"x": -1.1864793982,
				"y": -1.2494306379,
				"z": 3.9956235124,
				"element": "H" 
			},
			{
				"x": 1.8841971472,
				"y": -2.1986938321,
				"z": 2.3219807373,
				"element": "H" 
			},
			{
				"x": 2.191258128,
				"y": -0.5848096801,
				"z": 3.0083909072,
				"element": "H" 
			},
			{
				"x": 2.4044341901,
				"y": -1.2886628963,
				"z": 0.1243302043,
				"element": "H" 
			},
			{
				"x": 2.6903107739,
				"y": 0.288489952,
				"z": 0.8996034921,
				"element": "H" 
			},
			{
				"x": 1.0017084317,
				"y": 1.9822154261,
				"z": -0.2746417928,
				"element": "H" 
			},
			{
				"x": 0.1079629013,
				"y": 1.014915765,
				"z": -1.4728434147,
				"element": "H" 
			},
			{
				"x": -0.9783047299,
				"y": 2.5941769223,
				"z": 0.8040980904,
				"element": "H" 
			},
			{
				"x": -1.9554658721,
				"y": 1.6524379411,
				"z": -0.3484367271,
				"element": "H" 
			},
			{
				"x": 0.588722002,
				"y": 1.0640654303,
				"z": 2.0175314746,
				"element": "H" 
			}
		],
		 "valence_orbital": [ 
			{
				"type": "occ",
				"energy": -0.31969,
				"method": "rhf"
			},
			{
				"type": "occ",
				"energy": -0.31969,
				"method": "rhf"
			},
			{
				"type": "occ",
				"energy": -0.21412,
				"method": "rhf"
			},
			{
				"type": "occ",
				"energy": -0.21412,
				"method": "rhf"
			},
			{
				"type": "occ",
				"energy": -0.21213,
				"method": "rhf"
			},
			{
				"type": "unocc",
				"energy": 0.06613,
				"method": "rhf"
			},
			{
				"type": "unocc",
				"energy": 0.1044,
				"method": "rhf"
			},
			{
				"type": "unocc",
				"energy": 0.1044,
				"method": "rhf"
			},
			{
				"type": "unocc",
				"energy": 0.1204,
				"method": "rhf"
			},
			{
				"type": "unocc",
				"energy": 0.12868,
				"method": "rhf"
			}
		],
		"cosmo_sigma_profile": { 
			"-0.025": 0.0,
			"-0.024": 0.0,
			"-0.023": 0.0,
			"-0.022": 0.0,
			"-0.021": 0.0,
			"-0.02": 0.0,
			"-0.019": 0.0,
			"-0.018": 0.0,
			"-0.017": 0.0,
			"-0.016": 0.0,
			"-0.015": 0.0,
			"-0.014": 0.0,
			"-0.013": 0.0,
			"-0.012": 0.0,
			"-0.011": 0.0,
			"-0.01": 0.0,
			"-0.009": 0.0,
			"-0.008": 0.0,
			"-0.007": 0.0,
			"-0.006": 0.0,
			"-0.005": 1.54879109743,
			"-0.004": 15.9001488195,
			"-0.003": 41.3467573577,
			"-0.002": 39.6213955045,
			"-0.001": 29.2558881631,
			"0.0": 14.6420179411,
			"0.001": 4.89565360146,
			"0.002": 3.14779503901,
			"0.003": 2.26829742994,
			"0.004": 1.90978561911,
			"0.005": 1.46796445836,
			"0.006": 1.39200070734,
			"0.007": 1.68377254947,
			"0.008": 1.52456051079,
			"0.009": 1.67793285115,
			"0.01": 1.6432044872,
			"0.011": 1.00376618896,
			"0.012": 1.0585708518,
			"0.013": 1.14872645229,
			"0.014": 1.76250458404,
			"0.015": 1.35293090019,
			"0.016": 1.46558759989,
			"0.017": 1.87696068862,
			"0.018": 2.27445813897,
			"0.019": 1.43400337399,
			"0.02": 0.0245907940357,
			"0.021": 0.0,
			"0.022": 0.0,
			"0.023": 0.0,
			"0.024": 0.0,
			"0.025": 0.0
		}
	}
}
