{
	 "smiles": "C=C", 
	 "Tm": 104.15, 
	 "num_atms": 6, 
	 "gaussian": { 
		 "optdone": 1, 
		 "sigma_profile": "yes", 
		 "theory": "DFT", 
		 "functional": "B3LYP", 
		 "basiset": "6-31G**", 
		 "properties": { 
			 "R2extent": 189.3733, 
			 "electric_dipole_moment_norm": 0.0, 
			 "electric_quadrupole_moment_norm": 2.26937273051, 
			 "total_energy": -78.5919848237, 
			 "HOMO_LUMO_gap": 0.28461, 
			 "cosmo_polarized_energy": -1.36, 
			 "cosmo_cavitation_energy": 9.14, 
			 "cosmo_dispersion_energy": -6.47, 
			 "cosmo_repulsion_energy": 0.65, 
			 "cosmo_total_nonelectrostatic_energy": 3.33, 
			 "SMD_solvation_energy": 3.27 
		},
		"coords": [
			{
				"x": 0.3040057681,
				"y": 1.3997218174,
				"z": 0.5543644555,
				"element": "C" 
			},
			{
				"x": -0.7067062108,
				"y": 1.2987719844,
				"z": -0.3052961588,
				"element": "C" 
			},
			{
				"x": 0.1436396059,
				"y": 1.643301117,
				"z": 1.6013504275,
				"element": "H" 
			},
			{
				"x": 1.3348845894,
				"y": 1.2431057217,
				"z": 0.247788266,
				"element": "H" 
			},
			{
				"x": -1.73758455,
				"y": 1.4553965378,
				"z": 0.0012782443,
				"element": "H" 
			},
			{
				"x": -0.5463392025,
				"y": 1.0552028217,
				"z": -1.3522852346,
				"element": "H" 
			}
		],
		 "valence_orbital": [ 
			{
				"type": "occ",
				"energy": -0.57636,
				"method": "rhf"
			},
			{
				"type": "occ",
				"energy": -0.4638,
				"method": "rhf"
			},
			{
				"type": "occ",
				"energy": -0.4157,
				"method": "rhf"
			},
			{
				"type": "occ",
				"energy": -0.35178,
				"method": "rhf"
			},
			{
				"type": "occ",
				"energy": -0.26731,
				"method": "rhf"
			},
			{
				"type": "unocc",
				"energy": 0.0173,
				"method": "rhf"
			},
			{
				"type": "unocc",
				"energy": 0.12246,
				"method": "rhf"
			},
			{
				"type": "unocc",
				"energy": 0.14057,
				"method": "rhf"
			},
			{
				"type": "unocc",
				"energy": 0.15826,
				"method": "rhf"
			},
			{
				"type": "unocc",
				"energy": 0.2444,
				"method": "rhf"
			}
		],
		"cosmo_sigma_profile": { 
			"-0.025": 0.0,
			"-0.024": 0.0,
			"-0.023": 0.0,
			"-0.022": 0.0,
			"-0.021": 0.0,
			"-0.02": 0.0,
			"-0.019": 0.0,
			"-0.018": 0.0,
			"-0.017": 0.0,
			"-0.016": 0.0,
			"-0.015": 0.0,
			"-0.014": 0.0,
			"-0.013": 0.0,
			"-0.012": 0.0,
			"-0.011": 0.0,
			"-0.01": 0.0,
			"-0.009": 0.0,
			"-0.008": 0.0,
			"-0.007": 0.0,
			"-0.006": 0.541821109039,
			"-0.005": 5.65962639816,
			"-0.004": 7.02054725306,
			"-0.003": 6.32923935332,
			"-0.002": 9.17271455978,
			"-0.001": 8.01816784611,
			"0.0": 7.24557190303,
			"0.001": 5.83482827304,
			"0.002": 4.51097738308,
			"0.003": 4.19004457647,
			"0.004": 4.20421473198,
			"0.005": 3.36127958645,
			"0.006": 2.96481862443,
			"0.007": 2.78006550191,
			"0.008": 0.861154364128,
			"0.009": 0.0,
			"0.01": 0.0,
			"0.011": 0.0,
			"0.012": 0.0,
			"0.013": 0.0,
			"0.014": 0.0,
			"0.015": 0.0,
			"0.016": 0.0,
			"0.017": 0.0,
			"0.018": 0.0,
			"0.019": 0.0,
			"0.02": 0.0,
			"0.021": 0.0,
			"0.022": 0.0,
			"0.023": 0.0,
			"0.024": 0.0,
			"0.025": 0.0
		}
	}
}
