{
	 "smiles": "COC1=CC=C(NC(=S)C2=CC(=C(O)C(=C2)C(C)(C)C)C(C)(C)C)C=C1", 
	 "Tm": 401.15, 
	 "num_atms": 55, 
	 "gaussian": { 
		 "optdone": 1, 
		 "sigma_profile": "yes", 
		 "theory": "DFT", 
		 "functional": "B3LYP", 
		 "basiset": "6-31G**", 
		 "properties": { 
			 "R2extent": 11435.6968, 
			 "electric_dipole_moment_norm": 6.7595667228, 
			 "electric_quadrupole_moment_norm": 10.278991235, 
			 "total_energy": -1459.21832231, 
			 "HOMO_LUMO_gap": 0.14388, 
			 "cosmo_polarized_energy": -17.97, 
			 "cosmo_cavitation_energy": 55.32, 
			 "cosmo_dispersion_energy": -35.89, 
			 "cosmo_repulsion_energy": 2.71, 
			 "cosmo_total_nonelectrostatic_energy": 22.14, 
			 "SMD_solvation_energy": 9.36 
		},
		"coords": [
			{
				"x": 2.1773722778,
				"y": -2.9985736284,
				"z": 4.7866288552,
				"element": "C" 
			},
			{
				"x": 2.9006398,
				"y": -3.0368154227,
				"z": 3.5664166186,
				"element": "O" 
			},
			{
				"x": 2.2249098043,
				"y": -2.7906705371,
				"z": 2.4072327854,
				"element": "C" 
			},
			{
				"x": 0.8602844677,
				"y": -2.4859108859,
				"z": 2.3262672552,
				"element": "C" 
			},
			{
				"x": 0.2660908018,
				"y": -2.2598514136,
				"z": 1.0833400637,
				"element": "C" 
			},
			{
				"x": 1.0257345204,
				"y": -2.3069962759,
				"z": -0.0886962535,
				"element": "C" 
			},
			{
				"x": 0.4555230088,
				"y": -2.1190592063,
				"z": -1.379497964,
				"element": "N" 
			},
			{
				"x": -0.5797187385,
				"y": -1.3241227579,
				"z": -1.7818490935,
				"element": "C" 
			},
			{
				"x": -1.3844648508,
				"y": -1.6886932167,
				"z": -3.2053292142,
				"element": "S" 
			},
			{
				"x": -0.9007541153,
				"y": -0.1225603259,
				"z": -0.9736350568,
				"element": "C" 
			},
			{
				"x": 0.1147817584,
				"y": 0.6533819726,
				"z": -0.4028647475,
				"element": "C" 
			},
			{
				"x": -0.1541795822,
				"y": 1.8249030343,
				"z": 0.3077491894,
				"element": "C" 
			},
			{
				"x": -1.5160384723,
				"y": 2.1944382452,
				"z": 0.4520185076,
				"element": "C" 
			},
			{
				"x": -1.8816054421,
				"y": 3.3146485957,
				"z": 1.1532078276,
				"element": "O" 
			},
			{
				"x": -2.5765973816,
				"y": 1.44233586,
				"z": -0.1140889037,
				"element": "C" 
			},
			{
				"x": -2.228488161,
				"y": 0.2980803801,
				"z": -0.8305525103,
				"element": "C" 
			},
			{
				"x": -4.0561161369,
				"y": 1.8653997417,
				"z": 0.0415350375,
				"element": "C" 
			},
			{
				"x": -4.2858683617,
				"y": 3.2602888656,
				"z": -0.5922302537,
				"element": "C" 
			},
			{
				"x": -4.4563568024,
				"y": 1.8868140862,
				"z": 1.537910931,
				"element": "C" 
			},
			{
				"x": -5.0063740906,
				"y": 0.8801020664,
				"z": -0.6709261693,
				"element": "C" 
			},
			{
				"x": 1.0019017873,
				"y": 2.6634245591,
				"z": 0.9102702386,
				"element": "C" 
			},
			{
				"x": 0.8962133336,
				"y": 2.7053131914,
				"z": 2.4595423954,
				"element": "C" 
			},
			{
				"x": 2.3829551965,
				"y": 2.0499977443,
				"z": 0.5931573616,
				"element": "C" 
			},
			{
				"x": 1.0207150217,
				"y": 4.0955070502,
				"z": 0.3091503277,
				"element": "C" 
			},
			{
				"x": 2.3923126215,
				"y": -2.6152431104,
				"z": -0.0008020675,
				"element": "C" 
			},
			{
				"x": 2.9851165801,
				"y": -2.8610274971,
				"z": 1.2302421638,
				"element": "C" 
			},
			{
				"x": 1.7416448351,
				"y": -2.007552272,
				"z": 4.9688863454,
				"element": "H" 
			},
			{
				"x": 1.3780279957,
				"y": -3.7504507395,
				"z": 4.8077024048,
				"element": "H" 
			},
			{
				"x": 2.9002300991,
				"y": -3.2219826125,
				"z": 5.5726027102,
				"element": "H" 
			},
			{
				"x": 0.244823602,
				"y": -2.4403332942,
				"z": 3.2167166059,
				"element": "H" 
			},
			{
				"x": -0.7949437873,
				"y": -2.0450948824,
				"z": 1.0297891123,
				"element": "H" 
			},
			{
				"x": 0.6969420181,
				"y": -2.8204794679,
				"z": -2.0709824518,
				"element": "H" 
			},
			{
				"x": 1.1390924073,
				"y": 0.3385128181,
				"z": -0.5412825446,
				"element": "H" 
			},
			{
				"x": -1.097283106,
				"y": 3.762137229,
				"z": 1.4851351748,
				"element": "H" 
			},
			{
				"x": -2.9917498942,
				"y": -0.3038338394,
				"z": -1.3037630654,
				"element": "H" 
			},
			{
				"x": -5.3412794671,
				"y": 3.5407538008,
				"z": -0.4983724423,
				"element": "H" 
			},
			{
				"x": -3.6841092503,
				"y": 4.0313691136,
				"z": -0.1106979887,
				"element": "H" 
			},
			{
				"x": -4.0375662045,
				"y": 3.2435362429,
				"z": -1.6588517257,
				"element": "H" 
			},
			{
				"x": -5.5117092663,
				"y": 2.1660468315,
				"z": 1.6358211534,
				"element": "H" 
			},
			{
				"x": -3.8607861577,
				"y": 2.5987111244,
				"z": 2.1098447113,
				"element": "H" 
			},
			{
				"x": -4.3312624854,
				"y": 0.894092661,
				"z": 1.9845176598,
				"element": "H" 
			},
			{
				"x": -6.0383239996,
				"y": 1.2195324115,
				"z": -0.536092537,
				"element": "H" 
			},
			{
				"x": -4.9378480192,
				"y": -0.1320220581,
				"z": -0.2586770292,
				"element": "H" 
			},
			{
				"x": -4.8155195101,
				"y": 0.8258520564,
				"z": -1.747328319,
				"element": "H" 
			},
			{
				"x": -0.0401622001,
				"y": 3.1253586126,
				"z": 2.8405118631,
				"element": "H" 
			},
			{
				"x": 0.9708705515,
				"y": 1.6921229054,
				"z": 2.8661866691,
				"element": "H" 
			},
			{
				"x": 1.7140231786,
				"y": 3.301721341,
				"z": 2.8781869163,
				"element": "H" 
			},
			{
				"x": 2.4900897024,
				"y": 1.0423481986,
				"z": 1.0055117478,
				"element": "H" 
			},
			{
				"x": 3.1644738552,
				"y": 2.6739029278,
				"z": 1.0384408079,
				"element": "H" 
			},
			{
				"x": 2.5718906347,
				"y": 2.0049379714,
				"z": -0.4837068056,
				"element": "H" 
			},
			{
				"x": 0.1003341725,
				"y": 4.6679123299,
				"z": 0.46207434,
				"element": "H" 
			},
			{
				"x": 1.8399600866,
				"y": 4.6768301703,
				"z": 0.7456844096,
				"element": "H" 
			},
			{
				"x": 1.177609692,
				"y": 4.0460817438,
				"z": -0.7725644853,
				"element": "H" 
			},
			{
				"x": 2.9903268625,
				"y": -2.6563375967,
				"z": -0.907027448,
				"element": "H" 
			},
			{
				"x": 4.0399148096,
				"y": -3.1029848424,
				"z": 1.3063368868,
				"element": "H" 
			}
		],
		 "valence_orbital": [ 
			{
				"type": "occ",
				"energy": -0.25041,
				"method": "rhf"
			},
			{
				"type": "occ",
				"energy": -0.24427,
				"method": "rhf"
			},
			{
				"type": "occ",
				"energy": -0.21686,
				"method": "rhf"
			},
			{
				"type": "occ",
				"energy": -0.20654,
				"method": "rhf"
			},
			{
				"type": "occ",
				"energy": -0.19543,
				"method": "rhf"
			},
			{
				"type": "unocc",
				"energy": -0.05155,
				"method": "rhf"
			},
			{
				"type": "unocc",
				"energy": -0.01672,
				"method": "rhf"
			},
			{
				"type": "unocc",
				"energy": -0.00134,
				"method": "rhf"
			},
			{
				"type": "unocc",
				"energy": 0.00658,
				"method": "rhf"
			},
			{
				"type": "unocc",
				"energy": 0.03353,
				"method": "rhf"
			}
		],
		"cosmo_sigma_profile": { 
			"-0.025": 0.0,
			"-0.024": 0.0,
			"-0.023": 0.0,
			"-0.022": 0.0,
			"-0.021": 0.0,
			"-0.02": 0.0,
			"-0.019": 0.0,
			"-0.018": 0.0,
			"-0.017": 0.0,
			"-0.016": 0.0,
			"-0.015": 0.203772240402,
			"-0.014": 1.31850875723,
			"-0.013": 1.85127008353,
			"-0.012": 1.13210063139,
			"-0.011": 1.92919813072,
			"-0.01": 1.73827912687,
			"-0.009": 2.31896286406,
			"-0.008": 1.89142126506,
			"-0.007": 5.29203892564,
			"-0.006": 12.0761116068,
			"-0.005": 17.9113474069,
			"-0.004": 24.1858270613,
			"-0.003": 42.6923081976,
			"-0.002": 48.3585376632,
			"-0.001": 47.2228875782,
			"0.0": 47.1545618029,
			"0.001": 43.6744200436,
			"0.002": 32.7970583172,
			"0.003": 28.3430239934,
			"0.004": 21.6911251903,
			"0.005": 10.4447634439,
			"0.006": 7.45726021369,
			"0.007": 6.33387971292,
			"0.008": 7.06416260781,
			"0.009": 8.27007150867,
			"0.01": 6.29596021169,
			"0.011": 3.7423105747,
			"0.012": 2.81847120507,
			"0.013": 0.431337926357,
			"0.014": 0.0,
			"0.015": 0.0,
			"0.016": 0.0,
			"0.017": 0.0,
			"0.018": 0.0,
			"0.019": 0.0,
			"0.02": 0.0,
			"0.021": 0.0,
			"0.022": 0.0,
			"0.023": 0.0,
			"0.024": 0.0,
			"0.025": 0.0
		}
	}
}
