{
	 "smiles": "FC1=C(C(Cl)C#N)C(Cl)=CC=C1", 
	 "Tm": 323.15, 
	 "num_atms": 16, 
	 "gaussian": { 
		 "optdone": 1, 
		 "sigma_profile": "yes", 
		 "theory": "DFT", 
		 "functional": "B3LYP", 
		 "basiset": "6-31G**", 
		 "properties": { 
			 "R2extent": 3056.8207, 
			 "electric_dipole_moment_norm": 5.14298395681, 
			 "electric_quadrupole_moment_norm": 12.077101938, 
			 "total_energy": -1382.19908335, 
			 "HOMO_LUMO_gap": 0.20024, 
			 "cosmo_polarized_energy": -9.64, 
			 "cosmo_cavitation_energy": 25.3, 
			 "cosmo_dispersion_energy": -17.8, 
			 "cosmo_repulsion_energy": 1.4, 
			 "cosmo_total_nonelectrostatic_energy": 8.9, 
			 "SMD_solvation_energy": 5.5 
		},
		"coords": [
			{
				"x": 0.9477230308,
				"y": -1.0576723638,
				"z": 1.1580601438,
				"element": "F" 
			},
			{
				"x": 0.1304239844,
				"y": -0.2008704956,
				"z": 0.5091281215,
				"element": "C" 
			},
			{
				"x": 0.3730263563,
				"y": 0.046991946,
				"z": -0.8488377294,
				"element": "C" 
			},
			{
				"x": 1.5322559732,
				"y": -0.6647126706,
				"z": -1.5007900105,
				"element": "C" 
			},
			{
				"x": 0.9748901781,
				"y": -1.9868301314,
				"z": -2.6495043262,
				"element": "Cl" 
			},
			{
				"x": 2.4810062853,
				"y": 0.2147389418,
				"z": -2.1846568796,
				"element": "C" 
			},
			{
				"x": 3.2809538895,
				"y": 0.8981064133,
				"z": -2.6739978889,
				"element": "N" 
			},
			{
				"x": -0.5049762036,
				"y": 0.9395092262,
				"z": -1.4899386885,
				"element": "C" 
			},
			{
				"x": -0.3176353861,
				"y": 1.3029590053,
				"z": -3.1879309096,
				"element": "Cl" 
			},
			{
				"x": -1.5525683213,
				"y": 1.5494938785,
				"z": -0.8001121798,
				"element": "C" 
			},
			{
				"x": -1.7453742902,
				"y": 1.272542437,
				"z": 0.552995021,
				"element": "C" 
			},
			{
				"x": -0.9017920162,
				"y": 0.389394737,
				"z": 1.2230780833,
				"element": "C" 
			},
			{
				"x": 2.0818472498,
				"y": -1.1997908312,
				"z": -0.7265361332,
				"element": "H" 
			},
			{
				"x": -2.2081241971,
				"y": 2.2323523964,
				"z": -1.3273816868,
				"element": "H" 
			},
			{
				"x": -2.5612946549,
				"y": 1.7491474371,
				"z": 1.0867878049,
				"element": "H" 
			},
			{
				"x": -1.026061878,
				"y": 0.151640074,
				"z": 2.2730372581,
				"element": "H" 
			}
		],
		 "valence_orbital": [ 
			{
				"type": "occ",
				"energy": -0.3333,
				"method": "rhf"
			},
			{
				"type": "occ",
				"energy": -0.32207,
				"method": "rhf"
			},
			{
				"type": "occ",
				"energy": -0.31119,
				"method": "rhf"
			},
			{
				"type": "occ",
				"energy": -0.28392,
				"method": "rhf"
			},
			{
				"type": "occ",
				"energy": -0.27006,
				"method": "rhf"
			},
			{
				"type": "unocc",
				"energy": -0.06982,
				"method": "rhf"
			},
			{
				"type": "unocc",
				"energy": -0.03485,
				"method": "rhf"
			},
			{
				"type": "unocc",
				"energy": -0.01542,
				"method": "rhf"
			},
			{
				"type": "unocc",
				"energy": 0.00278,
				"method": "rhf"
			},
			{
				"type": "unocc",
				"energy": 0.03035,
				"method": "rhf"
			}
		],
		"cosmo_sigma_profile": { 
			"-0.025": 0.0,
			"-0.024": 0.0,
			"-0.023": 0.0,
			"-0.022": 0.0,
			"-0.021": 0.0,
			"-0.02": 0.0,
			"-0.019": 0.0,
			"-0.018": 0.0,
			"-0.017": 0.0,
			"-0.016": 0.0,
			"-0.015": 0.0,
			"-0.014": 0.0,
			"-0.013": 0.0453972180863,
			"-0.012": 1.03508344008,
			"-0.011": 1.22069724714,
			"-0.01": 1.60964295263,
			"-0.009": 2.0805746748,
			"-0.008": 8.21589104688,
			"-0.007": 8.73781646431,
			"-0.006": 7.80418343072,
			"-0.005": 6.63337090664,
			"-0.004": 7.99298832432,
			"-0.003": 10.0363686538,
			"-0.002": 13.8589637005,
			"-0.001": 17.0678364445,
			"0.0": 19.9110933678,
			"0.001": 21.9022495321,
			"0.002": 20.2198843643,
			"0.003": 20.9757109567,
			"0.004": 15.5412764325,
			"0.005": 6.01454706669,
			"0.006": 3.2273512755,
			"0.007": 3.31418003583,
			"0.008": 3.17307723323,
			"0.009": 2.93512691295,
			"0.01": 2.43609801991,
			"0.011": 2.2111874084,
			"0.012": 1.0681016238,
			"0.013": 0.0,
			"0.014": 0.0,
			"0.015": 0.0,
			"0.016": 0.0,
			"0.017": 0.0,
			"0.018": 0.0,
			"0.019": 0.0,
			"0.02": 0.0,
			"0.021": 0.0,
			"0.022": 0.0,
			"0.023": 0.0,
			"0.024": 0.0,
			"0.025": 0.0
		}
	}
}
