{
	 "smiles": "COC1=C(OCCCl)C=CC(=C1)C#N", 
	 "Tm": 369.15, 
	 "num_atms": 24, 
	 "gaussian": { 
		 "optdone": 1, 
		 "sigma_profile": "yes", 
		 "theory": "DFT", 
		 "functional": "B3LYP", 
		 "basiset": "6-31G**", 
		 "properties": { 
			 "R2extent": 4775.3319, 
			 "electric_dipole_moment_norm": 4.89630151339, 
			 "electric_quadrupole_moment_norm": 27.3022528299, 
			 "total_energy": -1052.43877557, 
			 "HOMO_LUMO_gap": 0.20133, 
			 "cosmo_polarized_energy": -13.5, 
			 "cosmo_cavitation_energy": 31.27, 
			 "cosmo_dispersion_energy": -21.45, 
			 "cosmo_repulsion_energy": 1.72, 
			 "cosmo_total_nonelectrostatic_energy": 11.54, 
			 "SMD_solvation_energy": 7.32 
		},
		"coords": [
			{
				"x": 1.2861639112,
				"y": 0.1461666403,
				"z": 2.0242011992,
				"element": "C" 
			},
			{
				"x": 0.0618971778,
				"y": -0.5972531946,
				"z": 1.930194653,
				"element": "O" 
			},
			{
				"x": -1.0323143058,
				"y": 0.1512089516,
				"z": 1.5643961215,
				"element": "C" 
			},
			{
				"x": -1.2006369498,
				"y": 0.5938158642,
				"z": 0.2366403984,
				"element": "C" 
			},
			{
				"x": -0.2591183949,
				"y": 0.3391001658,
				"z": -0.7284991789,
				"element": "O" 
			},
			{
				"x": -0.1007710039,
				"y": -1.0364198687,
				"z": -1.102636159,
				"element": "C" 
			},
			{
				"x": 0.8093374002,
				"y": -1.0994784035,
				"z": -2.3090798565,
				"element": "C" 
			},
			{
				"x": 0.0470918155,
				"y": -0.3951714523,
				"z": -3.7944799793,
				"element": "Cl" 
			},
			{
				"x": -2.3246639341,
				"y": 1.3484080877,
				"z": -0.1072797283,
				"element": "C" 
			},
			{
				"x": -3.2911335138,
				"y": 1.6530814374,
				"z": 0.846003373,
				"element": "C" 
			},
			{
				"x": -3.14026746,
				"y": 1.1882403827,
				"z": 2.1629893081,
				"element": "C" 
			},
			{
				"x": -2.0041863426,
				"y": 0.4415560673,
				"z": 2.5174429539,
				"element": "C" 
			},
			{
				"x": -4.1368069914,
				"y": 1.4832333215,
				"z": 3.1504623398,
				"element": "C" 
			},
			{
				"x": -4.9456254801,
				"y": 1.7237794804,
				"z": 3.9514119366,
				"element": "N" 
			},
			{
				"x": 1.550238373,
				"y": 0.599724335,
				"z": 1.0632740574,
				"element": "H" 
			},
			{
				"x": 1.2055736982,
				"y": 0.9293012094,
				"z": 2.7873961881,
				"element": "H" 
			},
			{
				"x": 2.0552716651,
				"y": -0.5694834219,
				"z": 2.3200631753,
				"element": "H" 
			},
			{
				"x": 0.3559696028,
				"y": -1.6033416951,
				"z": -0.2815724443,
				"element": "H" 
			},
			{
				"x": -1.0785457028,
				"y": -1.477139433,
				"z": -1.330633845,
				"element": "H" 
			},
			{
				"x": 1.7289899426,
				"y": -0.5399847857,
				"z": -2.1319842573,
				"element": "H" 
			},
			{
				"x": 1.0522033082,
				"y": -2.1381190044,
				"z": -2.539364253,
				"element": "H" 
			},
			{
				"x": -2.4219655605,
				"y": 1.6823195935,
				"z": -1.1348328746,
				"element": "H" 
			},
			{
				"x": -4.165689521,
				"y": 2.2347262184,
				"z": 0.5764277595,
				"element": "H" 
			},
			{
				"x": -1.8665117339,
				"y": 0.0838295039,
				"z": 3.5317591124,
				"element": "H" 
			}
		],
		 "valence_orbital": [ 
			{
				"type": "occ",
				"energy": -0.30585,
				"method": "rhf"
			},
			{
				"type": "occ",
				"energy": -0.30267,
				"method": "rhf"
			},
			{
				"type": "occ",
				"energy": -0.28774,
				"method": "rhf"
			},
			{
				"type": "occ",
				"energy": -0.27043,
				"method": "rhf"
			},
			{
				"type": "occ",
				"energy": -0.25276,
				"method": "rhf"
			},
			{
				"type": "unocc",
				"energy": -0.05143,
				"method": "rhf"
			},
			{
				"type": "unocc",
				"energy": -0.02606,
				"method": "rhf"
			},
			{
				"type": "unocc",
				"energy": 0.01606,
				"method": "rhf"
			},
			{
				"type": "unocc",
				"energy": 0.03615,
				"method": "rhf"
			},
			{
				"type": "unocc",
				"energy": 0.06213,
				"method": "rhf"
			}
		],
		"cosmo_sigma_profile": { 
			"-0.025": 0.0,
			"-0.024": 0.0,
			"-0.023": 0.0,
			"-0.022": 0.0,
			"-0.021": 0.0,
			"-0.02": 0.0,
			"-0.019": 0.0,
			"-0.018": 0.0,
			"-0.017": 0.0,
			"-0.016": 0.0,
			"-0.015": 0.0,
			"-0.014": 0.0,
			"-0.013": 0.0,
			"-0.012": 0.0,
			"-0.011": 0.0,
			"-0.01": 0.0,
			"-0.009": 0.601909629943,
			"-0.008": 7.46250522905,
			"-0.007": 12.0921481032,
			"-0.006": 17.2779515226,
			"-0.005": 17.8145334831,
			"-0.004": 18.6704172259,
			"-0.003": 23.0384686617,
			"-0.002": 17.2433109518,
			"-0.001": 15.7453229562,
			"0.0": 16.4774784067,
			"0.001": 18.4074209833,
			"0.002": 13.9702924417,
			"0.003": 9.49293006336,
			"0.004": 7.41764448929,
			"0.005": 9.88311976731,
			"0.006": 14.5096039185,
			"0.007": 7.93792310023,
			"0.008": 6.26405869791,
			"0.009": 5.45125090032,
			"0.01": 4.82398058616,
			"0.011": 3.68448728861,
			"0.012": 2.34781637154,
			"0.013": 1.6138145153,
			"0.014": 0.11037169617,
			"0.015": 0.0,
			"0.016": 0.0,
			"0.017": 0.0,
			"0.018": 0.0,
			"0.019": 0.0,
			"0.02": 0.0,
			"0.021": 0.0,
			"0.022": 0.0,
			"0.023": 0.0,
			"0.024": 0.0,
			"0.025": 0.0
		}
	}
}
