{
	 "smiles": "NC(=O)C1=C(N)C=CC(Br)=C1", 
	 "Tm": 457.15, 
	 "num_atms": 18, 
	 "gaussian": { 
		 "optdone": 1, 
		 "sigma_profile": "yes", 
		 "theory": "DFT", 
		 "functional": "B3LYP", 
		 "basiset": "6-31G**", 
		 "properties": { 
			 "R2extent": 3803.3224, 
			 "electric_dipole_moment_norm": 1.15453902489, 
			 "electric_quadrupole_moment_norm": 19.9660344515, 
			 "total_energy": -3027.1235597, 
			 "HOMO_LUMO_gap": 0.16117, 
			 "cosmo_polarized_energy": -12.99, 
			 "cosmo_cavitation_energy": 24.27, 
			 "cosmo_dispersion_energy": -18.8, 
			 "cosmo_repulsion_energy": 1.52, 
			 "cosmo_total_nonelectrostatic_energy": 6.98, 
			 "SMD_solvation_energy": 3.53 
		},
		"coords": [
			{
				"x": 0.8678351819,
				"y": -1.4780842749,
				"z": -2.7968981599,
				"element": "N" 
			},
			{
				"x": 1.2526038546,
				"y": -1.233685796,
				"z": -1.5010812046,
				"element": "C" 
			},
			{
				"x": 2.4460262159,
				"y": -1.3107926266,
				"z": -1.1877449068,
				"element": "O" 
			},
			{
				"x": 0.1748859478,
				"y": -0.9096429592,
				"z": -0.5240788722,
				"element": "C" 
			},
			{
				"x": 0.5052245717,
				"y": -0.3311195986,
				"z": 0.7371017745,
				"element": "C" 
			},
			{
				"x": 1.7951333119,
				"y": -0.0370283367,
				"z": 1.0794629975,
				"element": "N" 
			},
			{
				"x": -0.5527936388,
				"y": -0.0214279159,
				"z": 1.6235974143,
				"element": "C" 
			},
			{
				"x": -1.8731054109,
				"y": -0.2883078819,
				"z": 1.3051016075,
				"element": "C" 
			},
			{
				"x": -2.1815005094,
				"y": -0.8836946078,
				"z": 0.0776383237,
				"element": "C" 
			},
			{
				"x": -4.0008536297,
				"y": -1.2900247408,
				"z": -0.3534847726,
				"element": "Br" 
			},
			{
				"x": -1.1714529697,
				"y": -1.1898060258,
				"z": -0.8188599128,
				"element": "C" 
			},
			{
				"x": 0.0099954369,
				"y": -1.0922179727,
				"z": -3.1580528519,
				"element": "H" 
			},
			{
				"x": 1.6302207205,
				"y": -1.5850271823,
				"z": -3.4504609642,
				"element": "H" 
			},
			{
				"x": 2.5137403865,
				"y": -0.4788628974,
				"z": 0.515943294,
				"element": "H" 
			},
			{
				"x": 1.9925846146,
				"y": 0.1752785143,
				"z": 2.0440729346,
				"element": "H" 
			},
			{
				"x": -0.3147752803,
				"y": 0.4344004922,
				"z": 2.5811286418,
				"element": "H" 
			},
			{
				"x": -2.6631629483,
				"y": -0.0471832037,
				"z": 2.0076737941,
				"element": "H" 
			},
			{
				"x": -1.4271058551,
				"y": -1.6894729862,
				"z": -1.745859137,
				"element": "H" 
			}
		],
		 "valence_orbital": [ 
			{
				"type": "occ",
				"energy": -0.28313,
				"method": "rhf"
			},
			{
				"type": "occ",
				"energy": -0.27831,
				"method": "rhf"
			},
			{
				"type": "occ",
				"energy": -0.26659,
				"method": "rhf"
			},
			{
				"type": "occ",
				"energy": -0.25978,
				"method": "rhf"
			},
			{
				"type": "occ",
				"energy": -0.20433,
				"method": "rhf"
			},
			{
				"type": "unocc",
				"energy": -0.04316,
				"method": "rhf"
			},
			{
				"type": "unocc",
				"energy": 0.00083,
				"method": "rhf"
			},
			{
				"type": "unocc",
				"energy": 0.00948,
				"method": "rhf"
			},
			{
				"type": "unocc",
				"energy": 0.05057,
				"method": "rhf"
			},
			{
				"type": "unocc",
				"energy": 0.08169,
				"method": "rhf"
			}
		],
		"cosmo_sigma_profile": { 
			"-0.025": 0.0,
			"-0.024": 0.0,
			"-0.023": 0.0,
			"-0.022": 0.0,
			"-0.021": 0.0,
			"-0.02": 0.0,
			"-0.019": 0.0,
			"-0.018": 0.0,
			"-0.017": 0.0,
			"-0.016": 0.0,
			"-0.015": 0.116897431027,
			"-0.014": 1.78491773666,
			"-0.013": 3.35231342498,
			"-0.012": 4.25690087587,
			"-0.011": 4.29918533543,
			"-0.01": 3.35701027368,
			"-0.009": 4.14843412417,
			"-0.008": 4.6219807901,
			"-0.007": 6.31989097046,
			"-0.006": 6.86362758164,
			"-0.005": 7.19170903269,
			"-0.004": 7.52596364952,
			"-0.003": 7.88689683725,
			"-0.002": 7.69477844494,
			"-0.001": 8.18530566804,
			"0.0": 10.7823169901,
			"0.001": 12.0146567432,
			"0.002": 17.5810224013,
			"0.003": 22.1709620415,
			"0.004": 21.1223348287,
			"0.005": 14.3281785311,
			"0.006": 3.88178352791,
			"0.007": 2.57692181955,
			"0.008": 2.77424385279,
			"0.009": 2.19241392491,
			"0.01": 1.91807303473,
			"0.011": 2.2472271959,
			"0.012": 2.08640896658,
			"0.013": 2.24359540153,
			"0.014": 1.35425448253,
			"0.015": 0.0123724052976,
			"0.016": 0.0,
			"0.017": 0.0,
			"0.018": 0.0,
			"0.019": 0.0,
			"0.02": 0.0,
			"0.021": 0.0,
			"0.022": 0.0,
			"0.023": 0.0,
			"0.024": 0.0,
			"0.025": 0.0
		}
	}
}
