{
	 "smiles": "OC(=O)C1=C(SC2=CC=CC=C2)N=CC=C1", 
	 "Tm": 439.15, 
	 "num_atms": 25, 
	 "gaussian": { 
		 "optdone": 1, 
		 "sigma_profile": "yes", 
		 "theory": "DFT", 
		 "functional": "B3LYP", 
		 "basiset": "6-31G**", 
		 "properties": { 
			 "R2extent": 4707.0021, 
			 "electric_dipole_moment_norm": 1.69601642976, 
			 "electric_quadrupole_moment_norm": 3.76734193033, 
			 "total_energy": -1066.09190104, 
			 "HOMO_LUMO_gap": 0.16862, 
			 "cosmo_polarized_energy": -12.88, 
			 "cosmo_cavitation_energy": 31.68, 
			 "cosmo_dispersion_energy": -23.24, 
			 "cosmo_repulsion_energy": 1.78, 
			 "cosmo_total_nonelectrostatic_energy": 10.22, 
			 "SMD_solvation_energy": 5.68 
		},
		"coords": [
			{
				"x": -0.972153032,
				"y": 3.6220944922,
				"z": 1.3818168887,
				"element": "O" 
			},
			{
				"x": -2.1188080181,
				"y": 3.0464118709,
				"z": 0.9611408491,
				"element": "C" 
			},
			{
				"x": -3.2049679069,
				"y": 3.5560156289,
				"z": 1.1628172234,
				"element": "O" 
			},
			{
				"x": -1.923649497,
				"y": 1.7574213562,
				"z": 0.2437063749,
				"element": "C" 
			},
			{
				"x": -0.693232352,
				"y": 1.099880249,
				"z": -0.0304135894,
				"element": "C" 
			},
			{
				"x": 0.8916012866,
				"y": 1.7763766632,
				"z": 0.4832863307,
				"element": "S" 
			},
			{
				"x": 2.0351411145,
				"y": 0.5363199097,
				"z": -0.1301912839,
				"element": "C" 
			},
			{
				"x": 2.6090095774,
				"y": 0.6827012958,
				"z": -1.3980825409,
				"element": "C" 
			},
			{
				"x": 3.5679306387,
				"y": -0.2305875834,
				"z": -1.8376032132,
				"element": "C" 
			},
			{
				"x": 3.9593544253,
				"y": -1.2870721391,
				"z": -1.0127120654,
				"element": "C" 
			},
			{
				"x": 3.3915981748,
				"y": -1.429447564,
				"z": 0.2550950431,
				"element": "C" 
			},
			{
				"x": 2.4324568075,
				"y": -0.5186035585,
				"z": 0.6990288847,
				"element": "C" 
			},
			{
				"x": -0.6510152332,
				"y": -0.0622983623,
				"z": -0.6881687936,
				"element": "N" 
			},
			{
				"x": -1.788505506,
				"y": -0.6247517486,
				"z": -1.1005406503,
				"element": "C" 
			},
			{
				"x": -3.048029512,
				"y": -0.0669542975,
				"z": -0.8854864809,
				"element": "C" 
			},
			{
				"x": -3.1000535359,
				"y": 1.1402984316,
				"z": -0.2029177954,
				"element": "C" 
			},
			{
				"x": -1.2283054518,
				"y": 4.4457253914,
				"z": 1.8295516638,
				"element": "H" 
			},
			{
				"x": 2.3029862722,
				"y": 1.5077662939,
				"z": -2.0331669254,
				"element": "H" 
			},
			{
				"x": 4.0105657979,
				"y": -0.11504089,
				"z": -2.8228417336,
				"element": "H" 
			},
			{
				"x": 4.7087246322,
				"y": -1.9950342361,
				"z": -1.3551409983,
				"element": "H" 
			},
			{
				"x": 3.6969017608,
				"y": -2.2480904641,
				"z": 0.900527151,
				"element": "H" 
			},
			{
				"x": 1.9900081985,
				"y": -0.6218324825,
				"z": 1.6845682357,
				"element": "H" 
			},
			{
				"x": -1.6816115841,
				"y": -1.5703886265,
				"z": -1.629811047,
				"element": "H" 
			},
			{
				"x": -3.9466474127,
				"y": -0.5603836261,
				"z": -1.2391675254,
				"element": "H" 
			},
			{
				"x": -4.0393996449,
				"y": 1.641273996,
				"z": 0.0058059975,
				"element": "H" 
			}
		],
		 "valence_orbital": [ 
			{
				"type": "occ",
				"energy": -0.28818,
				"method": "rhf"
			},
			{
				"type": "occ",
				"energy": -0.261,
				"method": "rhf"
			},
			{
				"type": "occ",
				"energy": -0.25367,
				"method": "rhf"
			},
			{
				"type": "occ",
				"energy": -0.24983,
				"method": "rhf"
			},
			{
				"type": "occ",
				"energy": -0.22737,
				"method": "rhf"
			},
			{
				"type": "unocc",
				"energy": -0.05875,
				"method": "rhf"
			},
			{
				"type": "unocc",
				"energy": -0.02558,
				"method": "rhf"
			},
			{
				"type": "unocc",
				"energy": -0.01865,
				"method": "rhf"
			},
			{
				"type": "unocc",
				"energy": -0.00339,
				"method": "rhf"
			},
			{
				"type": "unocc",
				"energy": 0.04626,
				"method": "rhf"
			}
		],
		"cosmo_sigma_profile": { 
			"-0.025": 0.0,
			"-0.024": 0.0,
			"-0.023": 0.0,
			"-0.022": 0.0,
			"-0.021": 0.0,
			"-0.02": 0.0,
			"-0.019": 0.438194372105,
			"-0.018": 0.915626329766,
			"-0.017": 0.897244559915,
			"-0.016": 0.831148493852,
			"-0.015": 1.03163245785,
			"-0.014": 0.246455652366,
			"-0.013": 0.581080184496,
			"-0.012": 0.965589375167,
			"-0.011": 0.787128027118,
			"-0.01": 0.305922287896,
			"-0.009": 0.612951639773,
			"-0.008": 1.74202159229,
			"-0.007": 8.11996499923,
			"-0.006": 16.7170575981,
			"-0.005": 16.7099950873,
			"-0.004": 17.4268754588,
			"-0.003": 14.7887169307,
			"-0.002": 14.5777289513,
			"-0.001": 17.2789035756,
			"0.0": 24.2041574447,
			"0.001": 24.117382284,
			"0.002": 17.3301840713,
			"0.003": 13.5934534849,
			"0.004": 14.6119709574,
			"0.005": 11.2611102684,
			"0.006": 7.03482055857,
			"0.007": 6.21136129894,
			"0.008": 6.79715923703,
			"0.009": 3.95851527041,
			"0.01": 2.81629039499,
			"0.011": 6.01100680358,
			"0.012": 2.97952892255,
			"0.013": 0.598432572439,
			"0.014": 0.0363723231074,
			"0.015": 0.0,
			"0.016": 0.0,
			"0.017": 0.0,
			"0.018": 0.0,
			"0.019": 0.0,
			"0.02": 0.0,
			"0.021": 0.0,
			"0.022": 0.0,
			"0.023": 0.0,
			"0.024": 0.0,
			"0.025": 0.0
		}
	}
}
