{
	 "smiles": "CC1=CC(=CN=C1N)[N+]([O-])=O", 
	 "Tm": 532.65, 
	 "num_atms": 18, 
	 "gaussian": { 
		 "optdone": 1, 
		 "sigma_profile": "yes", 
		 "theory": "DFT", 
		 "functional": "B3LYP", 
		 "basiset": "6-31G**", 
		 "properties": { 
			 "R2extent": 2213.368, 
			 "electric_dipole_moment_norm": 6.81030226275, 
			 "electric_quadrupole_moment_norm": 6.98520514516, 
			 "total_energy": -547.473887636, 
			 "HOMO_LUMO_gap": 0.16009, 
			 "cosmo_polarized_energy": -14.55, 
			 "cosmo_cavitation_energy": 22.76, 
			 "cosmo_dispersion_energy": -16.98, 
			 "cosmo_repulsion_energy": 1.36, 
			 "cosmo_total_nonelectrostatic_energy": 7.15, 
			 "SMD_solvation_energy": 4.89 
		},
		"coords": [
			{
				"x": -1.3012454705,
				"y": 2.1226931165,
				"z": 1.9634803438,
				"element": "C" 
			},
			{
				"x": -0.2989245162,
				"y": 1.2127465924,
				"z": 1.303373208,
				"element": "C" 
			},
			{
				"x": -0.0971898705,
				"y": -0.0910692465,
				"z": 1.7163969067,
				"element": "C" 
			},
			{
				"x": 0.8598419577,
				"y": -0.8792758592,
				"z": 1.0658366993,
				"element": "C" 
			},
			{
				"x": 1.5942143451,
				"y": -0.3396221423,
				"z": 0.0118571377,
				"element": "C" 
			},
			{
				"x": 1.4179580724,
				"y": 0.9096898084,
				"z": -0.4103127941,
				"element": "N" 
			},
			{
				"x": 0.4998770778,
				"y": 1.6714477248,
				"z": 0.2143175829,
				"element": "C" 
			},
			{
				"x": 0.3928971093,
				"y": 2.9550672007,
				"z": -0.2406891808,
				"element": "N" 
			},
			{
				"x": 1.0837819793,
				"y": -2.25034164,
				"z": 1.4868840996,
				"element": "N" 
			},
			{
				"x": 0.4053074394,
				"y": -2.6807426116,
				"z": 2.4240397725,
				"element": "O" 
			},
			{
				"x": 1.938013823,
				"y": -2.9056816692,
				"z": 0.8846173869,
				"element": "O" 
			},
			{
				"x": -2.0844795917,
				"y": 2.4431936096,
				"z": 1.2629687784,
				"element": "H" 
			},
			{
				"x": -1.7963596809,
				"y": 1.6194406556,
				"z": 2.7970280983,
				"element": "H" 
			},
			{
				"x": -0.8227106509,
				"y": 3.0290305911,
				"z": 2.3552323506,
				"element": "H" 
			},
			{
				"x": -0.6629526933,
				"y": -0.5174076552,
				"z": 2.5369893737,
				"element": "H" 
			},
			{
				"x": 2.3375717272,
				"y": -0.9441521769,
				"z": -0.4979292148,
				"element": "H" 
			},
			{
				"x": 0.885512752,
				"y": 3.1652108385,
				"z": -1.0957533264,
				"element": "H" 
			},
			{
				"x": -0.4159138091,
				"y": 3.5106728632,
				"z": -0.0180372225,
				"element": "H" 
			}
		],
		 "valence_orbital": [ 
			{
				"type": "occ",
				"energy": -0.3011,
				"method": "rhf"
			},
			{
				"type": "occ",
				"energy": -0.29308,
				"method": "rhf"
			},
			{
				"type": "occ",
				"energy": -0.28047,
				"method": "rhf"
			},
			{
				"type": "occ",
				"energy": -0.27438,
				"method": "rhf"
			},
			{
				"type": "occ",
				"energy": -0.23685,
				"method": "rhf"
			},
			{
				"type": "unocc",
				"energy": -0.07676,
				"method": "rhf"
			},
			{
				"type": "unocc",
				"energy": -0.0334,
				"method": "rhf"
			},
			{
				"type": "unocc",
				"energy": 0.01297,
				"method": "rhf"
			},
			{
				"type": "unocc",
				"energy": 0.05731,
				"method": "rhf"
			},
			{
				"type": "unocc",
				"energy": 0.0997,
				"method": "rhf"
			}
		],
		"cosmo_sigma_profile": { 
			"-0.025": 0.0,
			"-0.024": 0.0,
			"-0.023": 0.0,
			"-0.022": 0.0,
			"-0.021": 0.0,
			"-0.02": 0.0,
			"-0.019": 0.0,
			"-0.018": 0.0,
			"-0.017": 0.0,
			"-0.016": 0.0,
			"-0.015": 0.031977072072,
			"-0.014": 1.59308222346,
			"-0.013": 2.18199401536,
			"-0.012": 2.54001677328,
			"-0.011": 2.56449120952,
			"-0.01": 2.42083093893,
			"-0.009": 2.43404888853,
			"-0.008": 2.94995725302,
			"-0.007": 4.70580473152,
			"-0.006": 6.72046902225,
			"-0.005": 10.6399700389,
			"-0.004": 9.54826940815,
			"-0.003": 12.1881612388,
			"-0.002": 12.0059552035,
			"-0.001": 20.1208737907,
			"0.0": 17.8791543002,
			"0.001": 10.5739724478,
			"0.002": 5.54209990222,
			"0.003": 4.90507441682,
			"0.004": 5.24655769275,
			"0.005": 4.97456902228,
			"0.006": 4.21536627156,
			"0.007": 6.07402934103,
			"0.008": 11.2751115833,
			"0.009": 7.17673360038,
			"0.01": 5.21608148477,
			"0.011": 3.22216276133,
			"0.012": 1.05123172196,
			"0.013": 0.510342994059,
			"0.014": 0.7010645776,
			"0.015": 0.0777766699628,
			"0.016": 0.0,
			"0.017": 0.0,
			"0.018": 0.0,
			"0.019": 0.0,
			"0.02": 0.0,
			"0.021": 0.0,
			"0.022": 0.0,
			"0.023": 0.0,
			"0.024": 0.0,
			"0.025": 0.0
		}
	}
}
