{
	 "smiles": "OC(=O)C=CC1=CC2=C(OCCO2)C(Br)=C1", 
	 "Tm": 541.15, 
	 "num_atms": 25, 
	 "gaussian": { 
		 "optdone": 1, 
		 "sigma_profile": "yes", 
		 "theory": "DFT", 
		 "functional": "B3LYP", 
		 "basiset": "6-31G**", 
		 "properties": { 
			 "R2extent": 7237.6358, 
			 "electric_dipole_moment_norm": 5.01552312027, 
			 "electric_quadrupole_moment_norm": 7.25581657706, 
			 "total_energy": -3296.86461341, 
			 "HOMO_LUMO_gap": 0.15537, 
			 "cosmo_polarized_energy": -14.75, 
			 "cosmo_cavitation_energy": 31.84, 
			 "cosmo_dispersion_energy": -23.81, 
			 "cosmo_repulsion_energy": 1.87, 
			 "cosmo_total_nonelectrostatic_energy": 9.9, 
			 "SMD_solvation_energy": 5.99 
		},
		"coords": [
			{
				"x": 4.5718573101,
				"y": -0.8166646738,
				"z": 1.4292291954,
				"element": "O" 
			},
			{
				"x": 4.5576449713,
				"y": -0.1779717925,
				"z": 2.627421648,
				"element": "C" 
			},
			{
				"x": 5.5530813657,
				"y": -0.1179949683,
				"z": 3.3255782735,
				"element": "O" 
			},
			{
				"x": 3.2884383992,
				"y": 0.4737534635,
				"z": 3.0015217583,
				"element": "C" 
			},
			{
				"x": 2.0473059044,
				"y": 0.4660928925,
				"z": 2.4643651557,
				"element": "C" 
			},
			{
				"x": 1.3958833518,
				"y": -0.2469848062,
				"z": 1.3588060159,
				"element": "C" 
			},
			{
				"x": 0.2332326708,
				"y": 0.3394515104,
				"z": 0.8271000055,
				"element": "C" 
			},
			{
				"x": -0.472320715,
				"y": -0.2640660941,
				"z": -0.2065002854,
				"element": "C" 
			},
			{
				"x": -0.0448178995,
				"y": -1.4971115071,
				"z": -0.7344161486,
				"element": "C" 
			},
			{
				"x": -0.7034502809,
				"y": -2.115291479,
				"z": -1.7538561266,
				"element": "O" 
			},
			{
				"x": -1.6322979535,
				"y": -1.2779743594,
				"z": -2.4494053686,
				"element": "C" 
			},
			{
				"x": -2.4505747212,
				"y": -0.4707335737,
				"z": -1.4567719587,
				"element": "C" 
			},
			{
				"x": -1.590432699,
				"y": 0.3705635111,
				"z": -0.6875816919,
				"element": "O" 
			},
			{
				"x": 1.0862111634,
				"y": -2.1016735366,
				"z": -0.169130456,
				"element": "C" 
			},
			{
				"x": 1.6512893644,
				"y": -3.796575643,
				"z": -0.8338924723,
				"element": "Br" 
			},
			{
				"x": 1.799739913,
				"y": -1.4980183516,
				"z": 0.8564913089,
				"element": "C" 
			},
			{
				"x": 5.4773053861,
				"y": -1.1555661178,
				"z": 1.329324097,
				"element": "H" 
			},
			{
				"x": 3.4367316936,
				"y": 1.0990456721,
				"z": 3.8763689759,
				"element": "H" 
			},
			{
				"x": 1.3595058092,
				"y": 1.1485647194,
				"z": 2.9644031218,
				"element": "H" 
			},
			{
				"x": -0.1386110815,
				"y": 1.2846562996,
				"z": 1.2100160127,
				"element": "H" 
			},
			{
				"x": -2.2621462141,
				"y": -1.9470213625,
				"z": -3.0400109091,
				"element": "H" 
			},
			{
				"x": -1.0873000648,
				"y": -0.6057512564,
				"z": -3.1246011489,
				"element": "H" 
			},
			{
				"x": -3.1551172638,
				"y": 0.1902677463,
				"z": -1.9670997288,
				"element": "H" 
			},
			{
				"x": -3.0075644688,
				"y": -1.1447701532,
				"z": -0.7920417277,
				"element": "H" 
			},
			{
				"x": 2.6675060592,
				"y": -1.9966261395,
				"z": 1.2591824541,
				"element": "H" 
			}
		],
		 "valence_orbital": [ 
			{
				"type": "occ",
				"energy": -0.28353,
				"method": "rhf"
			},
			{
				"type": "occ",
				"energy": -0.27651,
				"method": "rhf"
			},
			{
				"type": "occ",
				"energy": -0.27152,
				"method": "rhf"
			},
			{
				"type": "occ",
				"energy": -0.23635,
				"method": "rhf"
			},
			{
				"type": "occ",
				"energy": -0.22099,
				"method": "rhf"
			},
			{
				"type": "unocc",
				"energy": -0.06562,
				"method": "rhf"
			},
			{
				"type": "unocc",
				"energy": -0.01261,
				"method": "rhf"
			},
			{
				"type": "unocc",
				"energy": 0.00614,
				"method": "rhf"
			},
			{
				"type": "unocc",
				"energy": 0.01667,
				"method": "rhf"
			},
			{
				"type": "unocc",
				"energy": 0.07384,
				"method": "rhf"
			}
		],
		"cosmo_sigma_profile": { 
			"-0.025": 0.0,
			"-0.024": 0.0,
			"-0.023": 0.0,
			"-0.022": 0.0,
			"-0.021": 0.0,
			"-0.02": 0.0,
			"-0.019": 0.0,
			"-0.018": 0.439488013911,
			"-0.017": 1.23950850224,
			"-0.016": 0.530988945023,
			"-0.015": 0.819253608507,
			"-0.014": 0.564530877745,
			"-0.013": 0.819371015557,
			"-0.012": 0.400212850066,
			"-0.011": 0.988833055899,
			"-0.01": 0.888789576968,
			"-0.009": 0.562138096297,
			"-0.008": 4.54862807329,
			"-0.007": 16.0424210925,
			"-0.006": 19.3915870419,
			"-0.005": 15.2557898831,
			"-0.004": 13.3964883555,
			"-0.003": 12.4814668635,
			"-0.002": 12.6901283714,
			"-0.001": 13.818736868,
			"0.0": 15.6544194646,
			"0.001": 19.4124666815,
			"0.002": 25.4256376865,
			"0.003": 21.3953246687,
			"0.004": 13.8439286585,
			"0.005": 11.0034499324,
			"0.006": 5.96474618107,
			"0.007": 5.92544289477,
			"0.008": 5.27409529951,
			"0.009": 5.12883488298,
			"0.01": 3.21703236308,
			"0.011": 3.34087616821,
			"0.012": 5.20168218832,
			"0.013": 1.94056703975,
			"0.014": 0.057814358852,
			"0.015": 0.0,
			"0.016": 0.0,
			"0.017": 0.0,
			"0.018": 0.0,
			"0.019": 0.0,
			"0.02": 0.0,
			"0.021": 0.0,
			"0.022": 0.0,
			"0.023": 0.0,
			"0.024": 0.0,
			"0.025": 0.0
		}
	}
}
