{
	 "smiles": "OC1CN(C1)C(C1=CC=CC=C1)C1=CC=CC=C1", 
	 "Tm": 381.15, 
	 "num_atms": 35, 
	 "gaussian": { 
		 "optdone": 1, 
		 "sigma_profile": "yes", 
		 "theory": "DFT", 
		 "functional": "B3LYP", 
		 "basiset": "6-31G**", 
		 "properties": { 
			 "R2extent": 4854.6374, 
			 "electric_dipole_moment_norm": 1.42738522131, 
			 "electric_quadrupole_moment_norm": 10.5574456281, 
			 "total_energy": -749.873648715, 
			 "HOMO_LUMO_gap": 0.2077, 
			 "cosmo_polarized_energy": -10.79, 
			 "cosmo_cavitation_energy": 36.72, 
			 "cosmo_dispersion_energy": -25.56, 
			 "cosmo_repulsion_energy": 2.01, 
			 "cosmo_total_nonelectrostatic_energy": 13.17, 
			 "SMD_solvation_energy": 4.68 
		},
		"coords": [
			{
				"x": 3.5492530485,
				"y": 1.4683229437,
				"z": -1.6300544593,
				"element": "O" 
			},
			{
				"x": 2.4612179419,
				"y": 2.1236411296,
				"z": -1.0230720331,
				"element": "C" 
			},
			{
				"x": 2.2409813053,
				"y": 1.9507334534,
				"z": 0.5048099176,
				"element": "C" 
			},
			{
				"x": 0.8132496389,
				"y": 1.7176426467,
				"z": 0.2146657849,
				"element": "N" 
			},
			{
				"x": 1.1244610075,
				"y": 1.37999997,
				"z": -1.1938189348,
				"element": "C" 
			},
			{
				"x": 0.0023297744,
				"y": 0.8583662163,
				"z": 1.0896989608,
				"element": "C" 
			},
			{
				"x": -1.4910485266,
				"y": 1.0251126477,
				"z": 0.7860828693,
				"element": "C" 
			},
			{
				"x": -2.4305938958,
				"y": 0.1084343401,
				"z": 1.2807480967,
				"element": "C" 
			},
			{
				"x": -3.795955443,
				"y": 0.2954934763,
				"z": 1.0635868944,
				"element": "C" 
			},
			{
				"x": -4.2487987211,
				"y": 1.4028951638,
				"z": 0.3439073083,
				"element": "C" 
			},
			{
				"x": -3.3232697644,
				"y": 2.3246093749,
				"z": -0.1461739032,
				"element": "C" 
			},
			{
				"x": -1.9574820882,
				"y": 2.1399301236,
				"z": 0.0778278919,
				"element": "C" 
			},
			{
				"x": 0.4739102813,
				"y": -0.595432796,
				"z": 1.1335311523,
				"element": "C" 
			},
			{
				"x": 0.1406350257,
				"y": -1.5147413047,
				"z": 0.1255380897,
				"element": "C" 
			},
			{
				"x": 0.6509110794,
				"y": -2.8129730636,
				"z": 0.1445067764,
				"element": "C" 
			},
			{
				"x": 1.5023738175,
				"y": -3.2200779549,
				"z": 1.1742882042,
				"element": "C" 
			},
			{
				"x": 1.8368241207,
				"y": -2.3201459252,
				"z": 2.1863227288,
				"element": "C" 
			},
			{
				"x": 1.3263075031,
				"y": -1.0204129569,
				"z": 2.161845098,
				"element": "C" 
			},
			{
				"x": 4.3411777542,
				"y": 2.0040633357,
				"z": -1.4949992536,
				"element": "H" 
			},
			{
				"x": 2.3929070471,
				"y": 3.175800921,
				"z": -1.3296391123,
				"element": "H" 
			},
			{
				"x": 2.7838724216,
				"y": 1.0596019282,
				"z": 0.8562116322,
				"element": "H" 
			},
			{
				"x": 2.4412362194,
				"y": 2.7960462201,
				"z": 1.1755393148,
				"element": "H" 
			},
			{
				"x": 0.4032987009,
				"y": 1.7497414545,
				"z": -1.9304985511,
				"element": "H" 
			},
			{
				"x": 1.3225519372,
				"y": 0.3137075283,
				"z": -1.3731720259,
				"element": "H" 
			},
			{
				"x": 0.1662789124,
				"y": 1.2702535745,
				"z": 2.0968804105,
				"element": "H" 
			},
			{
				"x": -2.0918628034,
				"y": -0.7595182022,
				"z": 1.8382000741,
				"element": "H" 
			},
			{
				"x": -4.5060515373,
				"y": -0.4273562532,
				"z": 1.4560722056,
				"element": "H" 
			},
			{
				"x": -5.3115662191,
				"y": 1.5461467642,
				"z": 0.169828992,
				"element": "H" 
			},
			{
				"x": -3.6631644859,
				"y": 3.193784511,
				"z": -0.7030615766,
				"element": "H" 
			},
			{
				"x": -1.2365151609,
				"y": 2.8649097074,
				"z": -0.2832218338,
				"element": "H" 
			},
			{
				"x": -0.5409187552,
				"y": -1.2169414538,
				"z": -0.6657872161,
				"element": "H" 
			},
			{
				"x": 0.3792740516,
				"y": -3.5095088379,
				"z": -0.6438742724,
				"element": "H" 
			},
			{
				"x": 1.8962968902,
				"y": -4.2322685755,
				"z": 1.1897871117,
				"element": "H" 
			},
			{
				"x": 2.4908526547,
				"y": -2.6286478465,
				"z": 2.997235767,
				"element": "H" 
			},
			{
				"x": 1.5853262673,
				"y": -0.3267122607,
				"z": 2.9586578911,
				"element": "H" 
			}
		],
		 "valence_orbital": [ 
			{
				"type": "occ",
				"energy": -0.24933,
				"method": "rhf"
			},
			{
				"type": "occ",
				"energy": -0.24821,
				"method": "rhf"
			},
			{
				"type": "occ",
				"energy": -0.24017,
				"method": "rhf"
			},
			{
				"type": "occ",
				"energy": -0.23282,
				"method": "rhf"
			},
			{
				"type": "occ",
				"energy": -0.2125,
				"method": "rhf"
			},
			{
				"type": "unocc",
				"energy": -0.0048,
				"method": "rhf"
			},
			{
				"type": "unocc",
				"energy": -0.00101,
				"method": "rhf"
			},
			{
				"type": "unocc",
				"energy": 0.00415,
				"method": "rhf"
			},
			{
				"type": "unocc",
				"energy": 0.01122,
				"method": "rhf"
			},
			{
				"type": "unocc",
				"energy": 0.07292,
				"method": "rhf"
			}
		],
		"cosmo_sigma_profile": { 
			"-0.025": 0.0,
			"-0.024": 0.0,
			"-0.023": 0.0,
			"-0.022": 0.0,
			"-0.021": 0.0,
			"-0.02": 0.0,
			"-0.019": 0.0,
			"-0.018": 0.0,
			"-0.017": 0.0,
			"-0.016": 0.687761224745,
			"-0.015": 1.30347750613,
			"-0.014": 0.856021346394,
			"-0.013": 0.952257404846,
			"-0.012": 0.804122979054,
			"-0.011": 0.738607613468,
			"-0.01": 1.02730880607,
			"-0.009": 0.9142226195,
			"-0.008": 0.822796801566,
			"-0.007": 0.92459004177,
			"-0.006": 5.39313053326,
			"-0.005": 20.3847933798,
			"-0.004": 25.0554539112,
			"-0.003": 31.2871676832,
			"-0.002": 29.3278653796,
			"-0.001": 28.9867457468,
			"0.0": 21.7408743957,
			"0.001": 16.695002007,
			"0.002": 17.872037587,
			"0.003": 17.7837094012,
			"0.004": 17.1089540312,
			"0.005": 17.2078589192,
			"0.006": 15.6035508441,
			"0.007": 4.71728454584,
			"0.008": 1.74870916736,
			"0.009": 2.23286413591,
			"0.01": 1.75941573899,
			"0.011": 1.87277795215,
			"0.012": 1.0811862171,
			"0.013": 2.15646962821,
			"0.014": 1.40822511552,
			"0.015": 0.0,
			"0.016": 0.0,
			"0.017": 0.0,
			"0.018": 0.0,
			"0.019": 0.0,
			"0.02": 0.0,
			"0.021": 0.0,
			"0.022": 0.0,
			"0.023": 0.0,
			"0.024": 0.0,
			"0.025": 0.0
		}
	}
}
