{
	 "smiles": "CC(=CC(O)=O)C1=C(Cl)C=CC=C1", 
	 "Tm": 349.15, 
	 "num_atms": 22, 
	 "gaussian": { 
		 "optdone": 1, 
		 "sigma_profile": "yes", 
		 "theory": "DFT", 
		 "functional": "B3LYP", 
		 "basiset": "6-31G**", 
		 "properties": { 
			 "R2extent": 2833.7922, 
			 "electric_dipole_moment_norm": 3.28619883756, 
			 "electric_quadrupole_moment_norm": 11.3207573382, 
			 "total_energy": -997.127994178, 
			 "HOMO_LUMO_gap": 0.20256, 
			 "cosmo_polarized_energy": -11.2, 
			 "cosmo_cavitation_energy": 28.4, 
			 "cosmo_dispersion_energy": -19.71, 
			 "cosmo_repulsion_energy": 1.59, 
			 "cosmo_total_nonelectrostatic_energy": 10.29, 
			 "SMD_solvation_energy": 6.24 
		},
		"coords": [
			{
				"x": 1.0823626761,
				"y": -1.6231180852,
				"z": 0.133061396,
				"element": "C" 
			},
			{
				"x": 0.8467745896,
				"y": -0.1318384562,
				"z": 0.1001794737,
				"element": "C" 
			},
			{
				"x": 1.8137166378,
				"y": 0.7009427668,
				"z": -0.3279890097,
				"element": "C" 
			},
			{
				"x": 1.7963581573,
				"y": 2.1720495368,
				"z": -0.4628691134,
				"element": "C" 
			},
			{
				"x": 0.6147639882,
				"y": 2.7695823209,
				"z": -0.1747113574,
				"element": "O" 
			},
			{
				"x": 2.7703702328,
				"y": 2.8095844951,
				"z": -0.8178822181,
				"element": "O" 
			},
			{
				"x": -0.4850401072,
				"y": 0.299469779,
				"z": 0.6264516834,
				"element": "C" 
			},
			{
				"x": -1.6584840911,
				"y": 0.2314233923,
				"z": -0.1364734317,
				"element": "C" 
			},
			{
				"x": -1.5856547566,
				"y": -0.270807496,
				"z": -1.8237098412,
				"element": "Cl" 
			},
			{
				"x": -2.9014802987,
				"y": 0.5718149884,
				"z": 0.3965782251,
				"element": "C" 
			},
			{
				"x": -2.9892087934,
				"y": 0.9816106476,
				"z": 1.7260009659,
				"element": "C" 
			},
			{
				"x": -1.8372962724,
				"y": 1.0526507867,
				"z": 2.5103937352,
				"element": "C" 
			},
			{
				"x": -0.6025131758,
				"y": 0.7136658496,
				"z": 1.9618244468,
				"element": "C" 
			},
			{
				"x": 2.0693973369,
				"y": -1.8861873501,
				"z": -0.2549124116,
				"element": "H" 
			},
			{
				"x": 0.9937835942,
				"y": -1.9999916335,
				"z": 1.1592695259,
				"element": "H" 
			},
			{
				"x": 0.3218156558,
				"y": -2.1423117596,
				"z": -0.4604663178,
				"element": "H" 
			},
			{
				"x": 2.7636913461,
				"y": 0.2815582031,
				"z": -0.6453670096,
				"element": "H" 
			},
			{
				"x": 0.7644326047,
				"y": 3.7182878787,
				"z": -0.3227075794,
				"element": "H" 
			},
			{
				"x": -3.7849608045,
				"y": 0.5150295216,
				"z": -0.2296482032,
				"element": "H" 
			},
			{
				"x": -3.9565847925,
				"y": 1.2445500225,
				"z": 2.1431322159,
				"element": "H" 
			},
			{
				"x": -1.8985025723,
				"y": 1.3727729695,
				"z": 3.5460039328,
				"element": "H" 
			},
			{
				"x": 0.297158845,
				"y": 0.772261622,
				"z": 2.5671408924,
				"element": "H" 
			}
		],
		 "valence_orbital": [ 
			{
				"type": "occ",
				"energy": -0.31339,
				"method": "rhf"
			},
			{
				"type": "occ",
				"energy": -0.27234,
				"method": "rhf"
			},
			{
				"type": "occ",
				"energy": -0.26971,
				"method": "rhf"
			},
			{
				"type": "occ",
				"energy": -0.26101,
				"method": "rhf"
			},
			{
				"type": "occ",
				"energy": -0.24901,
				"method": "rhf"
			},
			{
				"type": "unocc",
				"energy": -0.04645,
				"method": "rhf"
			},
			{
				"type": "unocc",
				"energy": -0.01687,
				"method": "rhf"
			},
			{
				"type": "unocc",
				"energy": -0.01557,
				"method": "rhf"
			},
			{
				"type": "unocc",
				"energy": 0.02761,
				"method": "rhf"
			},
			{
				"type": "unocc",
				"energy": 0.08235,
				"method": "rhf"
			}
		],
		"cosmo_sigma_profile": { 
			"-0.025": 0.0,
			"-0.024": 0.0,
			"-0.023": 0.0,
			"-0.022": 0.0,
			"-0.021": 0.0,
			"-0.02": 0.0,
			"-0.019": 0.0,
			"-0.018": 0.455977750841,
			"-0.017": 0.939174393454,
			"-0.016": 0.653939575323,
			"-0.015": 0.797510676903,
			"-0.014": 1.02111116486,
			"-0.013": 0.529902947306,
			"-0.012": 0.530467273679,
			"-0.011": 0.861663369825,
			"-0.01": 0.864387273354,
			"-0.009": 0.247003717367,
			"-0.008": 0.692409724813,
			"-0.007": 4.74015711952,
			"-0.006": 13.5913475125,
			"-0.005": 14.8411245654,
			"-0.004": 16.2113016184,
			"-0.003": 13.8852211326,
			"-0.002": 17.7220173907,
			"-0.001": 20.7607969117,
			"0.0": 17.0328453032,
			"0.001": 15.8319222619,
			"0.002": 17.3954075444,
			"0.003": 16.0578644364,
			"0.004": 18.5201122803,
			"0.005": 9.46007326016,
			"0.006": 4.03620507943,
			"0.007": 3.73435067793,
			"0.008": 2.79552829486,
			"0.009": 2.00896684224,
			"0.01": 2.04834744363,
			"0.011": 2.4003686166,
			"0.012": 5.44334602945,
			"0.013": 2.27451891356,
			"0.014": 0.0820462655499,
			"0.015": 0.0,
			"0.016": 0.0,
			"0.017": 0.0,
			"0.018": 0.0,
			"0.019": 0.0,
			"0.02": 0.0,
			"0.021": 0.0,
			"0.022": 0.0,
			"0.023": 0.0,
			"0.024": 0.0,
			"0.025": 0.0
		}
	}
}
