{
	 "smiles": "COC(=O)C1=CC=C(C(OC)=C1)[N+]([O-])=O", 
	 "Tm": 358.15, 
	 "num_atms": 24, 
	 "gaussian": { 
		 "optdone": 1, 
		 "sigma_profile": "yes", 
		 "theory": "DFT", 
		 "functional": "B3LYP", 
		 "basiset": "6-31G**", 
		 "properties": { 
			 "R2extent": 4051.2565, 
			 "electric_dipole_moment_norm": 4.71723998648, 
			 "electric_quadrupole_moment_norm": 18.7650973182, 
			 "total_energy": -779.140351322, 
			 "HOMO_LUMO_gap": 0.15923, 
			 "cosmo_polarized_energy": -13.31, 
			 "cosmo_cavitation_energy": 29.71, 
			 "cosmo_dispersion_energy": -21.48, 
			 "cosmo_repulsion_energy": 1.69, 
			 "cosmo_total_nonelectrostatic_energy": 9.93, 
			 "SMD_solvation_energy": 9.89 
		},
		"coords": [
			{
				"x": 3.8122832714,
				"y": 1.2687419281,
				"z": 3.2367917449,
				"element": "C" 
			},
			{
				"x": 2.5743804587,
				"y": 1.1907212363,
				"z": 2.5097339156,
				"element": "O" 
			},
			{
				"x": 2.3250841358,
				"y": 0.0032344467,
				"z": 1.9222163303,
				"element": "C" 
			},
			{
				"x": 3.0777553734,
				"y": -0.9489188575,
				"z": 1.9872737122,
				"element": "O" 
			},
			{
				"x": 1.0229791384,
				"y": -0.0047030195,
				"z": 1.1859806936,
				"element": "C" 
			},
			{
				"x": 0.1782474633,
				"y": 1.1103999556,
				"z": 1.1416466797,
				"element": "C" 
			},
			{
				"x": -1.0163800172,
				"y": 1.019287388,
				"z": 0.4384694889,
				"element": "C" 
			},
			{
				"x": -1.358979643,
				"y": -0.1560454617,
				"z": -0.228123573,
				"element": "C" 
			},
			{
				"x": -0.5219851106,
				"y": -1.2973529341,
				"z": -0.185132809,
				"element": "C" 
			},
			{
				"x": -0.9277040492,
				"y": -2.4236498166,
				"z": -0.8009613835,
				"element": "O" 
			},
			{
				"x": -0.1096027778,
				"y": -3.5872160807,
				"z": -0.7101994084,
				"element": "C" 
			},
			{
				"x": 0.6728079621,
				"y": -1.1926384547,
				"z": 0.5387001347,
				"element": "C" 
			},
			{
				"x": -2.6223958931,
				"y": -0.1469820136,
				"z": -0.9792976879,
				"element": "N" 
			},
			{
				"x": -3.5066155836,
				"y": 0.6090210799,
				"z": -0.5694138274,
				"element": "O" 
			},
			{
				"x": -2.7139272698,
				"y": -0.8595689442,
				"z": -1.973929323,
				"element": "O" 
			},
			{
				"x": 3.8296975114,
				"y": 0.5315439094,
				"z": 4.0431062221,
				"element": "H" 
			},
			{
				"x": 3.8522067434,
				"y": 2.2803404662,
				"z": 3.6395537869,
				"element": "H" 
			},
			{
				"x": 4.6591745621,
				"y": 1.0847324141,
				"z": 2.5713550158,
				"element": "H" 
			},
			{
				"x": 0.4539304805,
				"y": 2.0261734284,
				"z": 1.6485718522,
				"element": "H" 
			},
			{
				"x": -1.7078654255,
				"y": 1.8512712412,
				"z": 0.3876274227,
				"element": "H" 
			},
			{
				"x": 0.873579175,
				"y": -3.420821295,
				"z": -1.1650802787,
				"element": "H" 
			},
			{
				"x": -0.6412299796,
				"y": -4.358493056,
				"z": -1.2673197704,
				"element": "H" 
			},
			{
				"x": 0.0183196143,
				"y": -3.9078416647,
				"z": 0.3303070598,
				"element": "H" 
			},
			{
				"x": 1.3560398598,
				"y": -2.0279358957,
				"z": 0.617424002,
				"element": "H" 
			}
		],
		 "valence_orbital": [ 
			{
				"type": "occ",
				"energy": -0.30121,
				"method": "rhf"
			},
			{
				"type": "occ",
				"energy": -0.29297,
				"method": "rhf"
			},
			{
				"type": "occ",
				"energy": -0.28948,
				"method": "rhf"
			},
			{
				"type": "occ",
				"energy": -0.27428,
				"method": "rhf"
			},
			{
				"type": "occ",
				"energy": -0.25027,
				"method": "rhf"
			},
			{
				"type": "unocc",
				"energy": -0.09104,
				"method": "rhf"
			},
			{
				"type": "unocc",
				"energy": -0.0364,
				"method": "rhf"
			},
			{
				"type": "unocc",
				"energy": -0.01852,
				"method": "rhf"
			},
			{
				"type": "unocc",
				"energy": 0.04754,
				"method": "rhf"
			},
			{
				"type": "unocc",
				"energy": 0.07406,
				"method": "rhf"
			}
		],
		"cosmo_sigma_profile": { 
			"-0.025": 0.0,
			"-0.024": 0.0,
			"-0.023": 0.0,
			"-0.022": 0.0,
			"-0.021": 0.0,
			"-0.02": 0.0,
			"-0.019": 0.0,
			"-0.018": 0.0,
			"-0.017": 0.0,
			"-0.016": 0.0,
			"-0.015": 0.0,
			"-0.014": 0.0,
			"-0.013": 0.0,
			"-0.012": 0.0,
			"-0.011": 0.0,
			"-0.01": 0.0,
			"-0.009": 0.0,
			"-0.008": 1.76911005051,
			"-0.007": 11.5582087914,
			"-0.006": 20.521554551,
			"-0.005": 18.8043706437,
			"-0.004": 24.0984610695,
			"-0.003": 17.789475326,
			"-0.002": 15.8137991006,
			"-0.001": 17.3812474584,
			"0.0": 18.4913828429,
			"0.001": 16.2893424935,
			"0.002": 8.28136577964,
			"0.003": 7.25477017334,
			"0.004": 6.52275129872,
			"0.005": 6.15997037377,
			"0.006": 5.80704584752,
			"0.007": 7.59647703022,
			"0.008": 11.2402035356,
			"0.009": 8.46747530852,
			"0.01": 6.0823707298,
			"0.011": 5.36925614714,
			"0.012": 2.21827208833,
			"0.013": 0.0,
			"0.014": 0.0,
			"0.015": 0.0,
			"0.016": 0.0,
			"0.017": 0.0,
			"0.018": 0.0,
			"0.019": 0.0,
			"0.02": 0.0,
			"0.021": 0.0,
			"0.022": 0.0,
			"0.023": 0.0,
			"0.024": 0.0,
			"0.025": 0.0
		}
	}
}
