{
	 "smiles": "[O-][N+](=O)C1=CC=C(CC(C#N)C2=CC=CC=C2)C=C1", 
	 "Tm": 407.15, 
	 "num_atms": 31, 
	 "gaussian": { 
		 "optdone": 1, 
		 "sigma_profile": "yes", 
		 "theory": "DFT", 
		 "functional": "B3LYP", 
		 "basiset": "6-31G**", 
		 "properties": { 
			 "R2extent": 6111.8932, 
			 "electric_dipole_moment_norm": 6.40420312373, 
			 "electric_quadrupole_moment_norm": 19.91742561, 
			 "total_energy": -838.6668156, 
			 "HOMO_LUMO_gap": 0.174, 
			 "cosmo_polarized_energy": -16.41, 
			 "cosmo_cavitation_energy": 36.77, 
			 "cosmo_dispersion_energy": -24.41, 
			 "cosmo_repulsion_energy": 1.88, 
			 "cosmo_total_nonelectrostatic_energy": 14.24, 
			 "SMD_solvation_energy": 9.27 
		},
		"coords": [
			{
				"x": -3.8228819389,
				"y": -1.6728314638,
				"z": -4.1375444621,
				"element": "O" 
			},
			{
				"x": -3.2698761652,
				"y": -0.6624584036,
				"z": -3.7047839695,
				"element": "N" 
			},
			{
				"x": -3.7106194885,
				"y": 0.4812425051,
				"z": -3.8180032828,
				"element": "O" 
			},
			{
				"x": -1.9891740968,
				"y": -0.8333959023,
				"z": -3.0005560161,
				"element": "C" 
			},
			{
				"x": -1.4647936368,
				"y": -2.1155349237,
				"z": -2.8514215657,
				"element": "C" 
			},
			{
				"x": -0.2493061616,
				"y": -2.2664991248,
				"z": -2.1901347295,
				"element": "C" 
			},
			{
				"x": 0.4375576023,
				"y": -1.1540783969,
				"z": -1.6783408679,
				"element": "C" 
			},
			{
				"x": 1.7543806611,
				"y": -1.3276137091,
				"z": -0.9570951477,
				"element": "C" 
			},
			{
				"x": 1.63925914,
				"y": -1.6246219721,
				"z": 0.580915179,
				"element": "C" 
			},
			{
				"x": 0.9728688001,
				"y": -2.9152871428,
				"z": 0.8044858022,
				"element": "C" 
			},
			{
				"x": 0.4525977368,
				"y": -3.9425844867,
				"z": 0.9519875814,
				"element": "N" 
			},
			{
				"x": 0.9964178892,
				"y": -0.484981412,
				"z": 1.3672715462,
				"element": "C" 
			},
			{
				"x": -0.364992616,
				"y": -0.4762786447,
				"z": 1.6900419692,
				"element": "C" 
			},
			{
				"x": -0.9197723622,
				"y": 0.6069559951,
				"z": 2.3741970422,
				"element": "C" 
			},
			{
				"x": -0.1225593157,
				"y": 1.6922309111,
				"z": 2.7395964172,
				"element": "C" 
			},
			{
				"x": 1.2373957908,
				"y": 1.6891594801,
				"z": 2.4220291623,
				"element": "C" 
			},
			{
				"x": 1.7926090911,
				"y": 0.6051925414,
				"z": 1.7423958373,
				"element": "C" 
			},
			{
				"x": -0.1219001611,
				"y": 0.1220985602,
				"z": -1.8460743824,
				"element": "C" 
			},
			{
				"x": -1.3347470242,
				"y": 0.2929605398,
				"z": -2.5068689323,
				"element": "C" 
			},
			{
				"x": -2.0053633766,
				"y": -2.9636382145,
				"z": -3.2522913339,
				"element": "H" 
			},
			{
				"x": 0.1683744705,
				"y": -3.2607376928,
				"z": -2.0663435826,
				"element": "H" 
			},
			{
				"x": 2.3548407298,
				"y": -0.4181612925,
				"z": -1.0547772218,
				"element": "H" 
			},
			{
				"x": 2.3240981865,
				"y": -2.1444237279,
				"z": -1.4123666273,
				"element": "H" 
			},
			{
				"x": 2.6683505765,
				"y": -1.7464387383,
				"z": 0.9427035318,
				"element": "H" 
			},
			{
				"x": -0.9902208425,
				"y": -1.320911896,
				"z": 1.4170784991,
				"element": "H" 
			},
			{
				"x": -1.9769219817,
				"y": 0.5990160751,
				"z": 2.622487729,
				"element": "H" 
			},
			{
				"x": -0.5558015932,
				"y": 2.5325245644,
				"z": 3.2738916882,
				"element": "H" 
			},
			{
				"x": 1.8679272407,
				"y": 2.5249863328,
				"z": 2.7108335636,
				"element": "H" 
			},
			{
				"x": 2.8547142982,
				"y": 0.6038760939,
				"z": 1.5071650688,
				"element": "H" 
			},
			{
				"x": 0.3985531903,
				"y": 0.9911079784,
				"z": -1.4552187998,
				"element": "H" 
			},
			{
				"x": -1.7769146432,
				"y": 1.2712255671,
				"z": -2.6470596961,
				"element": "H" 
			}
		],
		 "valence_orbital": [ 
			{
				"type": "occ",
				"energy": -0.28993,
				"method": "rhf"
			},
			{
				"type": "occ",
				"energy": -0.27943,
				"method": "rhf"
			},
			{
				"type": "occ",
				"energy": -0.27881,
				"method": "rhf"
			},
			{
				"type": "occ",
				"energy": -0.26682,
				"method": "rhf"
			},
			{
				"type": "occ",
				"energy": -0.26332,
				"method": "rhf"
			},
			{
				"type": "unocc",
				"energy": -0.08932,
				"method": "rhf"
			},
			{
				"type": "unocc",
				"energy": -0.03063,
				"method": "rhf"
			},
			{
				"type": "unocc",
				"energy": -0.02403,
				"method": "rhf"
			},
			{
				"type": "unocc",
				"energy": -0.0199,
				"method": "rhf"
			},
			{
				"type": "unocc",
				"energy": -0.0039,
				"method": "rhf"
			}
		],
		"cosmo_sigma_profile": { 
			"-0.025": 0.0,
			"-0.024": 0.0,
			"-0.023": 0.0,
			"-0.022": 0.0,
			"-0.021": 0.0,
			"-0.02": 0.0,
			"-0.019": 0.0,
			"-0.018": 0.0,
			"-0.017": 0.0,
			"-0.016": 0.0,
			"-0.015": 0.0,
			"-0.014": 0.0,
			"-0.013": 0.0,
			"-0.012": 0.0,
			"-0.011": 0.0,
			"-0.01": 0.000631587345958,
			"-0.009": 3.15032343569,
			"-0.008": 5.4944142384,
			"-0.007": 12.0179821235,
			"-0.006": 24.0121953326,
			"-0.005": 23.2546034778,
			"-0.004": 22.5956313615,
			"-0.003": 18.8952451221,
			"-0.002": 17.9573987484,
			"-0.001": 19.3122959969,
			"0.0": 19.590907195,
			"0.001": 21.2288606309,
			"0.002": 19.4097534653,
			"0.003": 14.8927834846,
			"0.004": 13.9163907389,
			"0.005": 12.2477251981,
			"0.006": 5.84659661608,
			"0.007": 10.3396279433,
			"0.008": 10.7828977062,
			"0.009": 7.31365562607,
			"0.01": 5.67472726248,
			"0.011": 2.87444002888,
			"0.012": 2.34485308194,
			"0.013": 1.59006290514,
			"0.014": 0.0677798189825,
			"0.015": 0.0,
			"0.016": 0.0,
			"0.017": 0.0,
			"0.018": 0.0,
			"0.019": 0.0,
			"0.02": 0.0,
			"0.021": 0.0,
			"0.022": 0.0,
			"0.023": 0.0,
			"0.024": 0.0,
			"0.025": 0.0
		}
	}
}
