{
	 "smiles": "OC1CN(C1)C1=NC=C(C=C1)C(F)(F)F", 
	 "Tm": 410.15, 
	 "num_atms": 24, 
	 "gaussian": { 
		 "optdone": 1, 
		 "sigma_profile": "yes", 
		 "theory": "DFT", 
		 "functional": "B3LYP", 
		 "basiset": "6-31G**", 
		 "properties": { 
			 "R2extent": 4977.5366, 
			 "electric_dipole_moment_norm": 3.2363460399, 
			 "electric_quadrupole_moment_norm": 10.5358333444, 
			 "total_energy": -832.596667751, 
			 "HOMO_LUMO_gap": 0.18887, 
			 "cosmo_polarized_energy": -11.63, 
			 "cosmo_cavitation_energy": 29.5, 
			 "cosmo_dispersion_energy": -21.16, 
			 "cosmo_repulsion_energy": 1.6, 
			 "cosmo_total_nonelectrostatic_energy": 9.94, 
			 "SMD_solvation_energy": 3.65 
		},
		"coords": [
			{
				"x": -1.5669366706,
				"y": -3.0306144056,
				"z": -3.7230304446,
				"element": "O" 
			},
			{
				"x": -1.4787144778,
				"y": -1.7373093225,
				"z": -3.1865770223,
				"element": "C" 
			},
			{
				"x": -1.5585434768,
				"y": -1.5952231274,
				"z": -1.6331072985,
				"element": "C" 
			},
			{
				"x": -0.1908540973,
				"y": -1.0685830109,
				"z": -1.6506425679,
				"element": "N" 
			},
			{
				"x": -0.0665987765,
				"y": -1.0788147985,
				"z": -3.1119863319,
				"element": "C" 
			},
			{
				"x": 0.4256005353,
				"y": -0.2222245632,
				"z": -0.7758870104,
				"element": "C" 
			},
			{
				"x": 1.4925671714,
				"y": 0.4490017083,
				"z": -1.2516824913,
				"element": "N" 
			},
			{
				"x": 2.1341218537,
				"y": 1.2695083315,
				"z": -0.4180300553,
				"element": "C" 
			},
			{
				"x": 1.7629379375,
				"y": 1.4780196568,
				"z": 0.9103120966,
				"element": "C" 
			},
			{
				"x": 0.6466982064,
				"y": 0.7795678654,
				"z": 1.3957510882,
				"element": "C" 
			},
			{
				"x": -0.035468905,
				"y": -0.0797876126,
				"z": 0.5563595659,
				"element": "C" 
			},
			{
				"x": 2.5508455708,
				"y": 2.3759461431,
				"z": 1.8099870858,
				"element": "C" 
			},
			{
				"x": 3.4052966614,
				"y": 1.6848101112,
				"z": 2.6049915662,
				"element": "F" 
			},
			{
				"x": 1.7456026749,
				"y": 3.0806947298,
				"z": 2.6416102604,
				"element": "F" 
			},
			{
				"x": 3.296435273,
				"y": 3.2640721708,
				"z": 1.1152108055,
				"element": "F" 
			},
			{
				"x": -0.8883350449,
				"y": -3.5814393616,
				"z": -3.3090329328,
				"element": "H" 
			},
			{
				"x": -2.2205316828,
				"y": -1.1407054657,
				"z": -3.720659452,
				"element": "H" 
			},
			{
				"x": -1.6792778782,
				"y": -2.5459678595,
				"z": -1.0970766377,
				"element": "H" 
			},
			{
				"x": -2.3102051213,
				"y": -0.8831672049,
				"z": -1.2652671364,
				"element": "H" 
			},
			{
				"x": 0.0222501721,
				"y": -0.0801819578,
				"z": -3.5544278672,
				"element": "H" 
			},
			{
				"x": 0.7514778328,
				"y": -1.7025624133,
				"z": -3.4930105873,
				"element": "H" 
			},
			{
				"x": 2.9876906853,
				"y": 1.8003624045,
				"z": -0.8327383132,
				"element": "H" 
			},
			{
				"x": 0.3193710455,
				"y": 0.9213307183,
				"z": 2.4210432616,
				"element": "H" 
			},
			{
				"x": -0.8991294889,
				"y": -0.6350327361,
				"z": 0.9053904185,
				"element": "H" 
			}
		],
		 "valence_orbital": [ 
			{
				"type": "occ",
				"energy": -0.30968,
				"method": "rhf"
			},
			{
				"type": "occ",
				"energy": -0.29106,
				"method": "rhf"
			},
			{
				"type": "occ",
				"energy": -0.28279,
				"method": "rhf"
			},
			{
				"type": "occ",
				"energy": -0.26571,
				"method": "rhf"
			},
			{
				"type": "occ",
				"energy": -0.21712,
				"method": "rhf"
			},
			{
				"type": "unocc",
				"energy": -0.02825,
				"method": "rhf"
			},
			{
				"type": "unocc",
				"energy": -0.0145,
				"method": "rhf"
			},
			{
				"type": "unocc",
				"energy": 0.06252,
				"method": "rhf"
			},
			{
				"type": "unocc",
				"energy": 0.08746,
				"method": "rhf"
			},
			{
				"type": "unocc",
				"energy": 0.098,
				"method": "rhf"
			}
		],
		"cosmo_sigma_profile": { 
			"-0.025": 0.0,
			"-0.024": 0.0,
			"-0.023": 0.0,
			"-0.022": 0.0,
			"-0.021": 0.0,
			"-0.02": 0.0,
			"-0.019": 0.0,
			"-0.018": 0.0,
			"-0.017": 0.0194081512858,
			"-0.016": 0.741194370046,
			"-0.015": 1.07538223593,
			"-0.014": 0.934214453992,
			"-0.013": 0.792691524841,
			"-0.012": 0.964087018142,
			"-0.011": 0.918580327489,
			"-0.01": 0.958354996574,
			"-0.009": 1.11887214307,
			"-0.008": 1.85656236146,
			"-0.007": 4.96837809672,
			"-0.006": 11.1314660158,
			"-0.005": 21.9496436607,
			"-0.004": 18.8150212513,
			"-0.003": 13.4895010655,
			"-0.002": 13.4185202276,
			"-0.001": 10.4556513921,
			"0.0": 12.576800971,
			"0.001": 17.8455898218,
			"0.002": 24.5184319937,
			"0.003": 36.6904077923,
			"0.004": 12.1335459384,
			"0.005": 4.12306669394,
			"0.006": 3.42379051271,
			"0.007": 2.71745416804,
			"0.008": 2.62351327141,
			"0.009": 2.22584182396,
			"0.01": 2.40590014742,
			"0.011": 1.84394345307,
			"0.012": 3.23473137778,
			"0.013": 2.86842687522,
			"0.014": 1.46515472705,
			"0.015": 0.216312307821,
			"0.016": 0.0,
			"0.017": 0.0,
			"0.018": 0.0,
			"0.019": 0.0,
			"0.02": 0.0,
			"0.021": 0.0,
			"0.022": 0.0,
			"0.023": 0.0,
			"0.024": 0.0,
			"0.025": 0.0
		}
	}
}
