{
	 "smiles": "CCC1=C(C(O)=O)C(=O)C=NN1C1=CC=C(Cl)C=C1", 
	 "Tm": 542.15, 
	 "num_atms": 30, 
	 "gaussian": { 
		 "optdone": 1, 
		 "sigma_profile": "yes", 
		 "theory": "DFT", 
		 "functional": "B3LYP", 
		 "basiset": "6-31G**", 
		 "properties": { 
			 "R2extent": 6855.6843, 
			 "electric_dipole_moment_norm": 6.16213539773, 
			 "electric_quadrupole_moment_norm": 31.2274461508, 
			 "total_energy": -1297.36993879, 
			 "HOMO_LUMO_gap": 0.18218, 
			 "cosmo_polarized_energy": -17.43, 
			 "cosmo_cavitation_energy": 35.74, 
			 "cosmo_dispersion_energy": -25.62, 
			 "cosmo_repulsion_energy": 1.95, 
			 "cosmo_total_nonelectrostatic_energy": 12.07, 
			 "SMD_solvation_energy": 6.82 
		},
		"coords": [
			{
				"x": 1.4083851,
				"y": 1.0259134383,
				"z": -2.3198877827,
				"element": "C" 
			},
			{
				"x": 1.4493373345,
				"y": 1.3617178018,
				"z": -0.8162467106,
				"element": "C" 
			},
			{
				"x": 0.0731781074,
				"y": 1.4417206132,
				"z": -0.1953448246,
				"element": "C" 
			},
			{
				"x": -0.7468464375,
				"y": 2.5663022737,
				"z": -0.2426686418,
				"element": "C" 
			},
			{
				"x": -0.3148116298,
				"y": 3.8490674906,
				"z": -0.9230345652,
				"element": "C" 
			},
			{
				"x": -1.1822326779,
				"y": 4.8512529367,
				"z": -0.829912447,
				"element": "O" 
			},
			{
				"x": 0.7409865554,
				"y": 3.9733213139,
				"z": -1.5189362133,
				"element": "O" 
			},
			{
				"x": -2.0478358851,
				"y": 2.5159178121,
				"z": 0.3976568049,
				"element": "C" 
			},
			{
				"x": -2.8611816335,
				"y": 3.467515736,
				"z": 0.4470872616,
				"element": "O" 
			},
			{
				"x": -2.3790155774,
				"y": 1.2401250336,
				"z": 1.0126189002,
				"element": "C" 
			},
			{
				"x": -1.601367335,
				"y": 0.2032656028,
				"z": 1.038289839,
				"element": "N" 
			},
			{
				"x": -0.3876522655,
				"y": 0.3117139704,
				"z": 0.4417658578,
				"element": "N" 
			},
			{
				"x": 0.3787764146,
				"y": -0.9135253541,
				"z": 0.5579555652,
				"element": "C" 
			},
			{
				"x": 1.1900875816,
				"y": -1.1135847832,
				"z": 1.6750316817,
				"element": "C" 
			},
			{
				"x": 1.8918313382,
				"y": -2.3094099766,
				"z": 1.8156225005,
				"element": "C" 
			},
			{
				"x": 1.7620737695,
				"y": -3.295282,
				"z": 0.8357032531,
				"element": "C" 
			},
			{
				"x": 2.6425370469,
				"y": -4.7997456669,
				"z": 1.0085341637,
				"element": "Cl" 
			},
			{
				"x": 0.9400596622,
				"y": -3.1063202229,
				"z": -0.2757016548,
				"element": "C" 
			},
			{
				"x": 0.2422857016,
				"y": -1.9065627757,
				"z": -0.4108285991,
				"element": "C" 
			},
			{
				"x": 2.4296598411,
				"y": 0.9808619736,
				"z": -2.7084823917,
				"element": "H" 
			},
			{
				"x": 0.873358191,
				"y": 1.8044817193,
				"z": -2.8655266073,
				"element": "H" 
			},
			{
				"x": 0.9324333888,
				"y": 0.0590071794,
				"z": -2.5098269751,
				"element": "H" 
			},
			{
				"x": 1.9221661926,
				"y": 2.3354235621,
				"z": -0.6976166247,
				"element": "H" 
			},
			{
				"x": 2.0416357887,
				"y": 0.6142967014,
				"z": -0.2854186002,
				"element": "H" 
			},
			{
				"x": -1.9936400066,
				"y": 4.5384712879,
				"z": -0.3243777419,
				"element": "H" 
			},
			{
				"x": -3.3458245202,
				"y": 1.1339643315,
				"z": 1.4969368317,
				"element": "H" 
			},
			{
				"x": 1.2704749449,
				"y": -0.3389380962,
				"z": 2.4306009976,
				"element": "H" 
			},
			{
				"x": 2.5284709086,
				"y": -2.4779635674,
				"z": 2.676560217,
				"element": "H" 
			},
			{
				"x": 0.8437128773,
				"y": -3.8875589016,
				"z": -1.0208790754,
				"element": "H" 
			},
			{
				"x": -0.4141427763,
				"y": -1.7481494336,
				"z": -1.2597744185,
				"element": "H" 
			}
		],
		 "valence_orbital": [ 
			{
				"type": "occ",
				"energy": -0.29535,
				"method": "rhf"
			},
			{
				"type": "occ",
				"energy": -0.27729,
				"method": "rhf"
			},
			{
				"type": "occ",
				"energy": -0.27023,
				"method": "rhf"
			},
			{
				"type": "occ",
				"energy": -0.26031,
				"method": "rhf"
			},
			{
				"type": "occ",
				"energy": -0.2592,
				"method": "rhf"
			},
			{
				"type": "unocc",
				"energy": -0.07702,
				"method": "rhf"
			},
			{
				"type": "unocc",
				"energy": -0.05956,
				"method": "rhf"
			},
			{
				"type": "unocc",
				"energy": -0.05003,
				"method": "rhf"
			},
			{
				"type": "unocc",
				"energy": -0.0457,
				"method": "rhf"
			},
			{
				"type": "unocc",
				"energy": 0.00588,
				"method": "rhf"
			}
		],
		"cosmo_sigma_profile": { 
			"-0.025": 0.0,
			"-0.024": 0.0,
			"-0.023": 0.0,
			"-0.022": 0.0,
			"-0.021": 0.0,
			"-0.02": 0.0,
			"-0.019": 0.0,
			"-0.018": 0.0,
			"-0.017": 0.0,
			"-0.016": 0.0,
			"-0.015": 0.0,
			"-0.014": 0.0,
			"-0.013": 0.0,
			"-0.012": 0.0,
			"-0.011": 0.0,
			"-0.01": 0.126662823132,
			"-0.009": 2.95041733524,
			"-0.008": 12.053671769,
			"-0.007": 13.0689590705,
			"-0.006": 12.4674118047,
			"-0.005": 13.0628703387,
			"-0.004": 20.1548367201,
			"-0.003": 28.5254233618,
			"-0.002": 25.6326562491,
			"-0.001": 21.1356729195,
			"0.0": 24.2326496954,
			"0.001": 24.2386233824,
			"0.002": 16.4880846822,
			"0.003": 12.5334884668,
			"0.004": 14.2526605678,
			"0.005": 6.57558904752,
			"0.006": 3.65209754717,
			"0.007": 5.14466046828,
			"0.008": 5.57849639146,
			"0.009": 4.21795454654,
			"0.01": 4.9382984154,
			"0.011": 6.71045091967,
			"0.012": 6.12673170939,
			"0.013": 3.96003758927,
			"0.014": 1.33219922074,
			"0.015": 0.011035102086,
			"0.016": 0.0,
			"0.017": 0.0,
			"0.018": 0.0,
			"0.019": 0.0,
			"0.02": 0.0,
			"0.021": 0.0,
			"0.022": 0.0,
			"0.023": 0.0,
			"0.024": 0.0,
			"0.025": 0.0
		}
	}
}
