{
	 "smiles": "CC1=CC=C2C=CC3=CC=C(C)N=C3C2=N1", 
	 "Tm": 433.15, 
	 "num_atms": 28, 
	 "gaussian": { 
		 "optdone": 1, 
		 "sigma_profile": "yes", 
		 "theory": "DFT", 
		 "functional": "B3LYP", 
		 "basiset": "6-31G**", 
		 "properties": { 
			 "R2extent": 3735.918, 
			 "electric_dipole_moment_norm": 2.18989834239, 
			 "electric_quadrupole_moment_norm": 11.6313077033, 
			 "total_energy": -650.256711016, 
			 "HOMO_LUMO_gap": 0.1759, 
			 "cosmo_polarized_energy": -13.6, 
			 "cosmo_cavitation_energy": 31.55, 
			 "cosmo_dispersion_energy": -23.3, 
			 "cosmo_repulsion_energy": 1.8, 
			 "cosmo_total_nonelectrostatic_energy": 10.04, 
			 "SMD_solvation_energy": 2.63 
		},
		"coords": [
			{
				"x": -0.9436885935,
				"y": -2.6143738136,
				"z": 3.3191040914,
				"element": "C" 
			},
			{
				"x": -1.1245153058,
				"y": -2.1097952806,
				"z": 1.9083587728,
				"element": "C" 
			},
			{
				"x": -2.1848410213,
				"y": -2.5990444746,
				"z": 1.1019735064,
				"element": "C" 
			},
			{
				"x": -2.3252130991,
				"y": -2.1211476615,
				"z": -0.180271268,
				"element": "C" 
			},
			{
				"x": -1.4157623809,
				"y": -1.1557776439,
				"z": -0.6705377095,
				"element": "C" 
			},
			{
				"x": -1.509070311,
				"y": -0.6195910053,
				"z": -1.9961718119,
				"element": "C" 
			},
			{
				"x": -0.6157154959,
				"y": 0.3096095846,
				"z": -2.4362583175,
				"element": "C" 
			},
			{
				"x": 0.4390137346,
				"y": 0.7734387764,
				"z": -1.5842491369,
				"element": "C" 
			},
			{
				"x": 1.3837738812,
				"y": 1.7366481751,
				"z": -2.0074162191,
				"element": "C" 
			},
			{
				"x": 2.3745135483,
				"y": 2.1432487014,
				"z": -1.1440881668,
				"element": "C" 
			},
			{
				"x": 2.4264197546,
				"y": 1.5837977973,
				"z": 0.159065267,
				"element": "C" 
			},
			{
				"x": 3.5010186977,
				"y": 2.0092024646,
				"z": 1.1295226558,
				"element": "C" 
			},
			{
				"x": 1.5523890754,
				"y": 0.6796688082,
				"z": 0.578799112,
				"element": "N" 
			},
			{
				"x": 0.571532722,
				"y": 0.2695384091,
				"z": -0.2595300129,
				"element": "C" 
			},
			{
				"x": -0.3848221546,
				"y": -0.7252535111,
				"z": 0.2115843882,
				"element": "C" 
			},
			{
				"x": -0.2595298107,
				"y": -1.2051321376,
				"z": 1.471386301,
				"element": "N" 
			},
			{
				"x": -0.0820423061,
				"y": -2.1243539336,
				"z": 3.7741577712,
				"element": "H" 
			},
			{
				"x": -1.8317508074,
				"y": -2.4108745521,
				"z": 3.9292046635,
				"element": "H" 
			},
			{
				"x": -0.7848431791,
				"y": -3.6991916387,
				"z": 3.3341980674,
				"element": "H" 
			},
			{
				"x": -2.8712066967,
				"y": -3.3407267008,
				"z": 1.5004683244,
				"element": "H" 
			},
			{
				"x": -3.126668989,
				"y": -2.4750156672,
				"z": -0.824394632,
				"element": "H" 
			},
			{
				"x": -2.3088033818,
				"y": -0.970692081,
				"z": -2.6434238688,
				"element": "H" 
			},
			{
				"x": -0.6874935513,
				"y": 0.7156681065,
				"z": -3.4421132149,
				"element": "H" 
			},
			{
				"x": 1.3155794001,
				"y": 2.1453944787,
				"z": -3.0127661415,
				"element": "H" 
			},
			{
				"x": 3.1113643099,
				"y": 2.8818177803,
				"z": -1.4466580104,
				"element": "H" 
			},
			{
				"x": 3.4534372496,
				"y": 3.0870162431,
				"z": 1.3253405039,
				"element": "H" 
			},
			{
				"x": 4.5004758651,
				"y": 1.7986229041,
				"z": 0.7307347887,
				"element": "H" 
			},
			{
				"x": 3.3755488457,
				"y": 1.4727978724,
				"z": 2.0708802962,
				"element": "H" 
			}
		],
		 "valence_orbital": [ 
			{
				"type": "occ",
				"energy": -0.28216,
				"method": "rhf"
			},
			{
				"type": "occ",
				"energy": -0.24892,
				"method": "rhf"
			},
			{
				"type": "occ",
				"energy": -0.23498,
				"method": "rhf"
			},
			{
				"type": "occ",
				"energy": -0.23297,
				"method": "rhf"
			},
			{
				"type": "occ",
				"energy": -0.22018,
				"method": "rhf"
			},
			{
				"type": "unocc",
				"energy": -0.04428,
				"method": "rhf"
			},
			{
				"type": "unocc",
				"energy": -0.0439,
				"method": "rhf"
			},
			{
				"type": "unocc",
				"energy": 0.00128,
				"method": "rhf"
			},
			{
				"type": "unocc",
				"energy": 0.02482,
				"method": "rhf"
			},
			{
				"type": "unocc",
				"energy": 0.06823,
				"method": "rhf"
			}
		],
		"cosmo_sigma_profile": { 
			"-0.025": 0.0,
			"-0.024": 0.0,
			"-0.023": 0.0,
			"-0.022": 0.0,
			"-0.021": 0.0,
			"-0.02": 0.0,
			"-0.019": 0.0,
			"-0.018": 0.0,
			"-0.017": 0.0,
			"-0.016": 0.0,
			"-0.015": 0.0,
			"-0.014": 0.0,
			"-0.013": 0.0,
			"-0.012": 0.0,
			"-0.011": 0.0,
			"-0.01": 0.0,
			"-0.009": 0.0,
			"-0.008": 0.140725427504,
			"-0.007": 8.31595120352,
			"-0.006": 14.6916605782,
			"-0.005": 15.9462630617,
			"-0.004": 23.6493328228,
			"-0.003": 20.8413017829,
			"-0.002": 19.1468778101,
			"-0.001": 20.2960073749,
			"0.0": 21.4724724712,
			"0.001": 24.5481408779,
			"0.002": 31.6128908257,
			"0.003": 19.6770777761,
			"0.004": 7.50690928039,
			"0.005": 2.94578967467,
			"0.006": 3.06248686315,
			"0.007": 2.08571659553,
			"0.008": 2.41336232208,
			"0.009": 1.4186445514,
			"0.01": 1.61092046209,
			"0.011": 1.53579169961,
			"0.012": 0.965569712521,
			"0.013": 0.871995988378,
			"0.014": 1.37518831987,
			"0.015": 1.39585174076,
			"0.016": 0.856243338794,
			"0.017": 0.666220130986,
			"0.018": 0.512075430527,
			"0.019": 0.710953934897,
			"0.02": 0.962864215877,
			"0.021": 0.644493083713,
			"0.022": 0.480640863426,
			"0.023": 0.0458534579496,
			"0.024": 0.0,
			"0.025": 0.0
		}
	}
}
