{
	 "smiles": "COC1=CC=C(OCC2CO2)C=C1", 
	 "Tm": 320.15, 
	 "num_atms": 25, 
	 "gaussian": { 
		 "optdone": 1, 
		 "sigma_profile": "yes", 
		 "theory": "DFT", 
		 "functional": "B3LYP", 
		 "basiset": "6-31G**", 
		 "properties": { 
			 "R2extent": 3912.1684, 
			 "electric_dipole_moment_norm": 2.08161440714, 
			 "electric_quadrupole_moment_norm": 4.56543971486, 
			 "total_energy": -613.889482195, 
			 "HOMO_LUMO_gap": 0.19425, 
			 "cosmo_polarized_energy": -10.04, 
			 "cosmo_cavitation_energy": 28.76, 
			 "cosmo_dispersion_energy": -21.15, 
			 "cosmo_repulsion_energy": 1.68, 
			 "cosmo_total_nonelectrostatic_energy": 9.29, 
			 "SMD_solvation_energy": 5.88 
		},
		"coords": [
			{
				"x": -1.9377686901,
				"y": -4.1617545715,
				"z": -1.9169257199,
				"element": "C" 
			},
			{
				"x": -1.154398422,
				"y": -3.1412358244,
				"z": -2.5092771346,
				"element": "O" 
			},
			{
				"x": -0.947778617,
				"y": -1.9922027256,
				"z": -1.7930798246,
				"element": "C" 
			},
			{
				"x": -0.1677263948,
				"y": -1.0128880566,
				"z": -2.4163444635,
				"element": "C" 
			},
			{
				"x": 0.1093701915,
				"y": 0.1949075888,
				"z": -1.7788201651,
				"element": "C" 
			},
			{
				"x": -0.3998975612,
				"y": 0.4430648158,
				"z": -0.4968406314,
				"element": "C" 
			},
			{
				"x": -0.2041176472,
				"y": 1.5948566607,
				"z": 0.2283195467,
				"element": "O" 
			},
			{
				"x": 0.5128078036,
				"y": 2.6780534398,
				"z": -0.3524752326,
				"element": "C" 
			},
			{
				"x": 2.0126452349,
				"y": 2.5134435556,
				"z": -0.2128572215,
				"element": "C" 
			},
			{
				"x": 2.73490931,
				"y": 3.118796487,
				"z": 0.9131317746,
				"element": "C" 
			},
			{
				"x": 2.7653105032,
				"y": 3.7189675759,
				"z": -0.389989682,
				"element": "O" 
			},
			{
				"x": -1.1788258371,
				"y": -0.5360804607,
				"z": 0.125970854,
				"element": "C" 
			},
			{
				"x": -1.4533809623,
				"y": -1.7461273653,
				"z": -0.5100092488,
				"element": "C" 
			},
			{
				"x": -2.960276052,
				"y": -3.8206814269,
				"z": -1.7058789191,
				"element": "H" 
			},
			{
				"x": -1.4879366866,
				"y": -4.5332179386,
				"z": -0.9862723273,
				"element": "H" 
			},
			{
				"x": -1.9762440875,
				"y": -4.9750840779,
				"z": -2.6436124875,
				"element": "H" 
			},
			{
				"x": 0.2223891763,
				"y": -1.214857607,
				"z": -3.408590536,
				"element": "H" 
			},
			{
				"x": 0.7231521605,
				"y": 0.9254600163,
				"z": -2.2928991093,
				"element": "H" 
			},
			{
				"x": 0.2343096298,
				"y": 2.8178880744,
				"z": -1.4049871105,
				"element": "H" 
			},
			{
				"x": 0.2015154637,
				"y": 3.5731700226,
				"z": 0.1933727872,
				"element": "H" 
			},
			{
				"x": 2.4456249326,
				"y": 1.6311315847,
				"z": -0.6864908607,
				"element": "H" 
			},
			{
				"x": 2.1792988767,
				"y": 3.6715851733,
				"z": 1.6708670466,
				"element": "H" 
			},
			{
				"x": 3.6752146675,
				"y": 2.6826443316,
				"z": 1.2487636633,
				"element": "H" 
			},
			{
				"x": -1.5693666955,
				"y": -0.3330168133,
				"z": 1.117852438,
				"element": "H" 
			},
			{
				"x": -2.0616302968,
				"y": -2.4822224586,
				"z": 0.002272564,
				"element": "H" 
			}
		],
		 "valence_orbital": [ 
			{
				"type": "occ",
				"energy": -0.30654,
				"method": "rhf"
			},
			{
				"type": "occ",
				"energy": -0.2929,
				"method": "rhf"
			},
			{
				"type": "occ",
				"energy": -0.27072,
				"method": "rhf"
			},
			{
				"type": "occ",
				"energy": -0.25194,
				"method": "rhf"
			},
			{
				"type": "occ",
				"energy": -0.19836,
				"method": "rhf"
			},
			{
				"type": "unocc",
				"energy": -0.00411,
				"method": "rhf"
			},
			{
				"type": "unocc",
				"energy": 0.02514,
				"method": "rhf"
			},
			{
				"type": "unocc",
				"energy": 0.07871,
				"method": "rhf"
			},
			{
				"type": "unocc",
				"energy": 0.0946,
				"method": "rhf"
			},
			{
				"type": "unocc",
				"energy": 0.10213,
				"method": "rhf"
			}
		],
		"cosmo_sigma_profile": { 
			"-0.025": 0.0,
			"-0.024": 0.0,
			"-0.023": 0.0,
			"-0.022": 0.0,
			"-0.021": 0.0,
			"-0.02": 0.0,
			"-0.019": 0.0,
			"-0.018": 0.0,
			"-0.017": 0.0,
			"-0.016": 0.0,
			"-0.015": 0.0,
			"-0.014": 0.0,
			"-0.013": 0.0,
			"-0.012": 0.0,
			"-0.011": 0.0,
			"-0.01": 0.0,
			"-0.009": 0.0194047762194,
			"-0.008": 1.19676288397,
			"-0.007": 5.80550679359,
			"-0.006": 18.7346117429,
			"-0.005": 24.9643037871,
			"-0.004": 23.333558957,
			"-0.003": 23.4375475751,
			"-0.002": 14.5737340435,
			"-0.001": 10.5760615825,
			"0.0": 10.135085433,
			"0.001": 10.0814732329,
			"0.002": 9.33868373852,
			"0.003": 10.3641147992,
			"0.004": 15.9701846306,
			"0.005": 16.5715875948,
			"0.006": 8.50389260456,
			"0.007": 3.71685614232,
			"0.008": 3.82234808615,
			"0.009": 4.47744511012,
			"0.01": 5.45567633736,
			"0.011": 4.6440310297,
			"0.012": 2.15306525297,
			"0.013": 0.134387972116,
			"0.014": 0.0,
			"0.015": 0.0,
			"0.016": 0.0,
			"0.017": 0.0,
			"0.018": 0.0,
			"0.019": 0.0,
			"0.02": 0.0,
			"0.021": 0.0,
			"0.022": 0.0,
			"0.023": 0.0,
			"0.024": 0.0,
			"0.025": 0.0
		}
	}
}
