{
	 "smiles": "OC(=O)C1=C(O)C=C(NS(=O)(=O)C2=CC(=C(Cl)C=C2)[N+]([O-])=O)C=C1", 
	 "Tm": 516.15, 
	 "num_atms": 33, 
	 "gaussian": { 
		 "optdone": 1, 
		 "sigma_profile": "yes", 
		 "theory": "DFT", 
		 "functional": "B3LYP", 
		 "basiset": "6-31G**", 
		 "properties": { 
			 "R2extent": 13480.8208, 
			 "electric_dipole_moment_norm": 6.07485632917, 
			 "electric_quadrupole_moment_norm": 26.0725343018, 
			 "total_energy": -1995.07087525, 
			 "HOMO_LUMO_gap": 0.13835, 
			 "cosmo_polarized_energy": -29.28, 
			 "cosmo_cavitation_energy": 43.01, 
			 "cosmo_dispersion_energy": -30.78, 
			 "cosmo_repulsion_energy": 2.28, 
			 "cosmo_total_nonelectrostatic_energy": 14.51, 
			 "SMD_solvation_energy": 9.72 
		},
		"coords": [
			{
				"x": 4.6914724938,
				"y": 2.1547753739,
				"z": 1.6123123183,
				"element": "O" 
			},
			{
				"x": 3.9788051115,
				"y": 0.9731146762,
				"z": 1.7234358245,
				"element": "C" 
			},
			{
				"x": 4.3052731529,
				"y": 0.1613353971,
				"z": 2.5518801425,
				"element": "O" 
			},
			{
				"x": 2.8581108422,
				"y": 0.8008876666,
				"z": 0.7619717406,
				"element": "C" 
			},
			{
				"x": 2.8114648465,
				"y": 1.4103129011,
				"z": -0.5112459725,
				"element": "C" 
			},
			{
				"x": 3.7975154029,
				"y": 2.214614152,
				"z": -1.0047240902,
				"element": "O" 
			},
			{
				"x": 1.7141353898,
				"y": 1.2031480199,
				"z": -1.3473241953,
				"element": "C" 
			},
			{
				"x": 0.6600518173,
				"y": 0.378190221,
				"z": -0.9443171892,
				"element": "C" 
			},
			{
				"x": -0.3903016495,
				"y": 0.1704675199,
				"z": -1.8625779578,
				"element": "N" 
			},
			{
				"x": -2.0056331964,
				"y": -0.1959390041,
				"z": -1.4952549039,
				"element": "S" 
			},
			{
				"x": -2.3490200112,
				"y": 0.255373665,
				"z": -0.1501028059,
				"element": "O" 
			},
			{
				"x": -2.7219295006,
				"y": 0.2516119596,
				"z": -2.6893755027,
				"element": "O" 
			},
			{
				"x": -2.028434177,
				"y": -1.991879697,
				"z": -1.4761142636,
				"element": "C" 
			},
			{
				"x": -2.2987985484,
				"y": -2.6525270914,
				"z": -0.286278317,
				"element": "C" 
			},
			{
				"x": -2.3661450708,
				"y": -4.0466815406,
				"z": -0.2786284589,
				"element": "C" 
			},
			{
				"x": -2.1422800823,
				"y": -4.7813554824,
				"z": -1.4525180339,
				"element": "C" 
			},
			{
				"x": -2.1266623898,
				"y": -6.515422857,
				"z": -1.5133725743,
				"element": "Cl" 
			},
			{
				"x": -1.8655669549,
				"y": -4.0898768208,
				"z": -2.6404843319,
				"element": "C" 
			},
			{
				"x": -1.821700639,
				"y": -2.702176228,
				"z": -2.6622484024,
				"element": "C" 
			},
			{
				"x": -2.6867330759,
				"y": -4.6712649197,
				"z": 1.0205324274,
				"element": "N" 
			},
			{
				"x": -3.3437665928,
				"y": -5.7047790231,
				"z": 1.0152469258,
				"element": "O" 
			},
			{
				"x": -2.2872636387,
				"y": -4.0797633061,
				"z": 2.0218707994,
				"element": "O" 
			},
			{
				"x": 0.7104108639,
				"y": -0.2668984273,
				"z": 0.3042917694,
				"element": "C" 
			},
			{
				"x": 1.8041863021,
				"y": -0.0531155318,
				"z": 1.1259004195,
				"element": "C" 
			},
			{
				"x": 4.1147886365,
				"y": 2.849890885,
				"z": 1.2580868157,
				"element": "H" 
			},
			{
				"x": 4.6025178048,
				"y": 2.1070100181,
				"z": -0.4743829604,
				"element": "H" 
			},
			{
				"x": 1.713389067,
				"y": 1.6844277623,
				"z": -2.3202564513,
				"element": "H" 
			},
			{
				"x": -0.3715271107,
				"y": 0.742405353,
				"z": -2.7005959513,
				"element": "H" 
			},
			{
				"x": -2.4694959603,
				"y": -2.1051664532,
				"z": 0.632743747,
				"element": "H" 
			},
			{
				"x": -1.6873108026,
				"y": -4.6598855314,
				"z": -3.5449605558,
				"element": "H" 
			},
			{
				"x": -1.6288254301,
				"y": -2.176742518,
				"z": -3.591050584,
				"element": "H" 
			},
			{
				"x": -0.0909957536,
				"y": -0.9144403019,
				"z": 0.6323288229,
				"element": "H" 
			},
			{
				"x": 1.8657688534,
				"y": -0.5449508369,
				"z": 2.0909117495,
				"element": "H" 
			}
		],
		 "valence_orbital": [ 
			{
				"type": "occ",
				"energy": -0.30256,
				"method": "rhf"
			},
			{
				"type": "occ",
				"energy": -0.29719,
				"method": "rhf"
			},
			{
				"type": "occ",
				"energy": -0.28919,
				"method": "rhf"
			},
			{
				"type": "occ",
				"energy": -0.26243,
				"method": "rhf"
			},
			{
				"type": "occ",
				"energy": -0.24941,
				"method": "rhf"
			},
			{
				"type": "unocc",
				"energy": -0.11106,
				"method": "rhf"
			},
			{
				"type": "unocc",
				"energy": -0.07689,
				"method": "rhf"
			},
			{
				"type": "unocc",
				"energy": -0.05786,
				"method": "rhf"
			},
			{
				"type": "unocc",
				"energy": -0.04481,
				"method": "rhf"
			},
			{
				"type": "unocc",
				"energy": -0.02211,
				"method": "rhf"
			}
		],
		"cosmo_sigma_profile": { 
			"-0.025": 0.0,
			"-0.024": 0.0,
			"-0.023": 0.0,
			"-0.022": 0.0,
			"-0.021": 0.0,
			"-0.02": 0.0,
			"-0.019": 0.312456680945,
			"-0.018": 0.845438288938,
			"-0.017": 1.05189480508,
			"-0.016": 1.74284841471,
			"-0.015": 2.49565171055,
			"-0.014": 4.11211173028,
			"-0.013": 3.50849232589,
			"-0.012": 2.6841296829,
			"-0.011": 2.04424671076,
			"-0.01": 5.94202403326,
			"-0.009": 8.90351184571,
			"-0.008": 9.1318254142,
			"-0.007": 12.0426080289,
			"-0.006": 13.4573688737,
			"-0.005": 14.8279475378,
			"-0.004": 18.7363515587,
			"-0.003": 21.3206746248,
			"-0.002": 22.3945926047,
			"-0.001": 20.0220337801,
			"0.0": 15.3558752297,
			"0.001": 19.8928812408,
			"0.002": 27.2572092692,
			"0.003": 17.1622110116,
			"0.004": 10.3488352006,
			"0.005": 10.1909675055,
			"0.006": 14.5530797025,
			"0.007": 17.165002358,
			"0.008": 11.5027288227,
			"0.009": 15.4737860238,
			"0.01": 13.0012414778,
			"0.011": 7.25300651037,
			"0.012": 3.20415554378,
			"0.013": 0.479696210621,
			"0.014": 0.0,
			"0.015": 0.0,
			"0.016": 0.0,
			"0.017": 0.0,
			"0.018": 0.0,
			"0.019": 0.0,
			"0.02": 0.0,
			"0.021": 0.0,
			"0.022": 0.0,
			"0.023": 0.0,
			"0.024": 0.0,
			"0.0": 0.0
		}
	}
}
