{
	 "smiles": "CC1=NN2C(=C1)N=CC(=C2N)S(C)(=O)=O", 
	 "Tm": 482.15, 
	 "num_atms": 25, 
	 "gaussian": { 
		 "optdone": 1, 
		 "sigma_profile": "yes", 
		 "theory": "DFT", 
		 "functional": "B3LYP", 
		 "basiset": "6-31G**", 
		 "properties": { 
			 "R2extent": 4391.2423, 
			 "electric_dipole_moment_norm": 4.39486268045, 
			 "electric_quadrupole_moment_norm": 19.5854309935, 
			 "total_energy": -1078.45239867, 
			 "HOMO_LUMO_gap": 0.18446, 
			 "cosmo_polarized_energy": -17.13, 
			 "cosmo_cavitation_energy": 30.05, 
			 "cosmo_dispersion_energy": -22.89, 
			 "cosmo_repulsion_energy": 1.73, 
			 "cosmo_total_nonelectrostatic_energy": 8.89, 
			 "SMD_solvation_energy": 2.58 
		},
		"coords": [
			{
				"x": 0.7145974096,
				"y": 1.5489086017,
				"z": 3.5314797873,
				"element": "C" 
			},
			{
				"x": 0.4152955981,
				"y": 1.1908580861,
				"z": 2.1089504496,
				"element": "C" 
			},
			{
				"x": 1.1361943581,
				"y": 0.2383589094,
				"z": 1.4995370449,
				"element": "N" 
			},
			{
				"x": 0.6046863169,
				"y": 0.1750786468,
				"z": 0.2491610791,
				"element": "N" 
			},
			{
				"x": -0.4468999,
				"y": 1.0840629823,
				"z": 0.0510617431,
				"element": "C" 
			},
			{
				"x": -0.5736562472,
				"y": 1.7449737435,
				"z": 1.2648176714,
				"element": "C" 
			},
			{
				"x": -1.0864476512,
				"y": 1.1839007448,
				"z": -1.1396096615,
				"element": "N" 
			},
			{
				"x": -0.6686187562,
				"y": 0.3724220038,
				"z": -2.0880629827,
				"element": "C" 
			},
			{
				"x": 0.3754090242,
				"y": -0.5829454679,
				"z": -1.9433008636,
				"element": "C" 
			},
			{
				"x": 1.0551559663,
				"y": -0.676774061,
				"z": -0.7172477566,
				"element": "C" 
			},
			{
				"x": 2.0592098966,
				"y": -1.5024348057,
				"z": -0.3836413331,
				"element": "N" 
			},
			{
				"x": 0.7855968661,
				"y": -1.6447693825,
				"z": -3.3006886929,
				"element": "S" 
			},
			{
				"x": -0.2786187742,
				"y": -3.0908533902,
				"z": -3.0936691656,
				"element": "C" 
			},
			{
				"x": 2.1777510555,
				"y": -2.1110164892,
				"z": -3.1051460568,
				"element": "O" 
			},
			{
				"x": 0.3899760795,
				"y": -0.9808078202,
				"z": -4.5485016475,
				"element": "O" 
			},
			{
				"x": 1.5414301527,
				"y": 0.9421940927,
				"z": 3.9062243801,
				"element": "H" 
			},
			{
				"x": 0.9880740198,
				"y": 2.6055814631,
				"z": 3.6212317772,
				"element": "H" 
			},
			{
				"x": -0.1587483057,
				"y": 1.3822097358,
				"z": 4.1709988684,
				"element": "H" 
			},
			{
				"x": -1.2837367218,
				"y": 2.5240605656,
				"z": 1.4941561831,
				"element": "H" 
			},
			{
				"x": -1.1535419045,
				"y": 0.4509202171,
				"z": -3.0586258896,
				"element": "H" 
			},
			{
				"x": 2.5523626802,
				"y": -1.963232213,
				"z": -1.140194578,
				"element": "H" 
			},
			{
				"x": 2.489576325,
				"y": -1.3408508676,
				"z": 0.517184081,
				"element": "H" 
			},
			{
				"x": -0.0704298252,
				"y": -3.5518256653,
				"z": -2.1267386643,
				"element": "H" 
			},
			{
				"x": -0.0302933514,
				"y": -3.7778620643,
				"z": -3.905461618,
				"element": "H" 
			},
			{
				"x": -1.3209243112,
				"y": -2.7771575659,
				"z": -3.1644141549,
				"element": "H" 
			}
		],
		 "valence_orbital": [ 
			{
				"type": "occ",
				"energy": -0.30282,
				"method": "rhf"
			},
			{
				"type": "occ",
				"energy": -0.28304,
				"method": "rhf"
			},
			{
				"type": "occ",
				"energy": -0.27031,
				"method": "rhf"
			},
			{
				"type": "occ",
				"energy": -0.26556,
				"method": "rhf"
			},
			{
				"type": "occ",
				"energy": -0.22347,
				"method": "rhf"
			},
			{
				"type": "unocc",
				"energy": -0.03901,
				"method": "rhf"
			},
			{
				"type": "unocc",
				"energy": -0.0319,
				"method": "rhf"
			},
			{
				"type": "unocc",
				"energy": 0.04689,
				"method": "rhf"
			},
			{
				"type": "unocc",
				"energy": 0.06231,
				"method": "rhf"
			},
			{
				"type": "unocc",
				"energy": 0.06883,
				"method": "rhf"
			}
		],
		"cosmo_sigma_profile": { 
			"-0.025": 0.0,
			"-0.024": 0.0,
			"-0.023": 0.0,
			"-0.022": 0.0,
			"-0.021": 0.0,
			"-0.02": 0.0,
			"-0.019": 0.0,
			"-0.018": 0.0,
			"-0.017": 0.0,
			"-0.016": 0.0,
			"-0.015": 0.0153059944164,
			"-0.014": 0.539179454724,
			"-0.013": 0.946400889543,
			"-0.012": 1.28769120457,
			"-0.011": 1.91508159709,
			"-0.01": 1.43141527406,
			"-0.009": 4.3808426207,
			"-0.008": 8.1704540903,
			"-0.007": 10.8132414756,
			"-0.006": 10.6654962228,
			"-0.005": 14.6456738765,
			"-0.004": 20.5518169115,
			"-0.003": 19.8880184146,
			"-0.002": 18.1424740578,
			"-0.001": 16.1299093249,
			"0.0": 16.4348914457,
			"0.001": 9.6294896112,
			"0.002": 10.1280758398,
			"0.003": 12.304757298,
			"0.004": 9.80560662433,
			"0.005": 5.56992625754,
			"0.006": 5.80736952885,
			"0.007": 4.14033619215,
			"0.008": 5.4918090434,
			"0.009": 6.86121987011,
			"0.01": 7.35446221556,
			"0.011": 8.30592775185,
			"0.012": 5.90607094946,
			"0.013": 1.28930499956,
			"0.014": 0.725750182572,
			"0.015": 0.735011625736,
			"0.016": 0.227919907157,
			"0.017": 0.0,
			"0.018": 0.0,
			"0.019": 0.0,
			"0.02": 0.0,
			"0.021": 0.0,
			"0.022": 0.0,
			"0.023": 0.0,
			"0.024": 0.0,
			"0.025": 0.0
		}
	}
}
