{
	 "smiles": "CCOC1=C(C=CC(F)=C1)[N+]([O-])=O", 
	 "Tm": 305.15, 
	 "num_atms": 21, 
	 "gaussian": { 
		 "optdone": 1, 
		 "sigma_profile": "yes", 
		 "theory": "DFT", 
		 "functional": "B3LYP", 
		 "basiset": "6-31G**", 
		 "properties": { 
			 "R2extent": 3691.1113, 
			 "electric_dipole_moment_norm": 4.42929555234, 
			 "electric_quadrupole_moment_norm": 20.3787011833, 
			 "total_energy": -689.816365846, 
			 "HOMO_LUMO_gap": 0.17324, 
			 "cosmo_polarized_energy": -11.18, 
			 "cosmo_cavitation_energy": 26.39, 
			 "cosmo_dispersion_energy": -19.01, 
			 "cosmo_repulsion_energy": 1.5, 
			 "cosmo_total_nonelectrostatic_energy": 8.88, 
			 "SMD_solvation_energy": 7.77 
		},
		"coords": [
			{
				"x": -1.9432169597,
				"y": 2.1753091383,
				"z": 0.8795017831,
				"element": "C" 
			},
			{
				"x": -1.0962074373,
				"y": 1.010578294,
				"z": 0.4013897859,
				"element": "C" 
			},
			{
				"x": 0.2293692591,
				"y": 1.5151850647,
				"z": 0.182490503,
				"element": "O" 
			},
			{
				"x": 1.1953734757,
				"y": 0.6821879732,
				"z": -0.2362449599,
				"element": "C" 
			},
			{
				"x": 2.5156976313,
				"y": 1.1771403027,
				"z": -0.4030797701,
				"element": "C" 
			},
			{
				"x": 3.5542448013,
				"y": 0.3292147559,
				"z": -0.7920419871,
				"element": "C" 
			},
			{
				"x": 3.3283593865,
				"y": -1.015994528,
				"z": -1.0501022087,
				"element": "C" 
			},
			{
				"x": 2.0303101255,
				"y": -1.4888655518,
				"z": -0.8920370044,
				"element": "C" 
			},
			{
				"x": 1.7748288632,
				"y": -2.7862719256,
				"z": -1.1313355113,
				"element": "F" 
			},
			{
				"x": 0.9747728908,
				"y": -0.6812354311,
				"z": -0.4898093328,
				"element": "C" 
			},
			{
				"x": 2.8614335552,
				"y": 2.5850523823,
				"z": -0.1863220419,
				"element": "N" 
			},
			{
				"x": 4.0529725679,
				"y": 2.8442357514,
				"z": 0.0096501602,
				"element": "O" 
			},
			{
				"x": 1.9672554853,
				"y": 3.4257359214,
				"z": -0.2312531928,
				"element": "O" 
			},
			{
				"x": -1.9588995481,
				"y": 2.9715626618,
				"z": 0.1311118128,
				"element": "H" 
			},
			{
				"x": -2.9694585788,
				"y": 1.8395808229,
				"z": 1.0566095527,
				"element": "H" 
			},
			{
				"x": -1.5440714777,
				"y": 2.5854799419,
				"z": 1.8106911446,
				"element": "H" 
			},
			{
				"x": -1.0653743062,
				"y": 0.207166697,
				"z": 1.1494065434,
				"element": "H" 
			},
			{
				"x": -1.4887593276,
				"y": 0.5936925644,
				"z": -0.5354263854,
				"element": "H" 
			},
			{
				"x": 4.5433633897,
				"y": 0.7590775138,
				"z": -0.8864350556,
				"element": "H" 
			},
			{
				"x": 4.1215984672,
				"y": -1.6831934446,
				"z": -1.3642487578,
				"element": "H" 
			},
			{
				"x": -0.0029922634,
				"y": -1.1285389047,
				"z": -0.3770150779,
				"element": "H" 
			}
		],
		 "valence_orbital": [ 
			{
				"type": "occ",
				"energy": -0.29802,
				"method": "rhf"
			},
			{
				"type": "occ",
				"energy": -0.29616,
				"method": "rhf"
			},
			{
				"type": "occ",
				"energy": -0.28342,
				"method": "rhf"
			},
			{
				"type": "occ",
				"energy": -0.27054,
				"method": "rhf"
			},
			{
				"type": "occ",
				"energy": -0.25049,
				"method": "rhf"
			},
			{
				"type": "unocc",
				"energy": -0.07725,
				"method": "rhf"
			},
			{
				"type": "unocc",
				"energy": -0.0216,
				"method": "rhf"
			},
			{
				"type": "unocc",
				"energy": 0.00391,
				"method": "rhf"
			},
			{
				"type": "unocc",
				"energy": 0.06749,
				"method": "rhf"
			},
			{
				"type": "unocc",
				"energy": 0.08539,
				"method": "rhf"
			}
		],
		"cosmo_sigma_profile": { 
			"-0.025": 0.0,
			"-0.024": 0.0,
			"-0.023": 0.0,
			"-0.022": 0.0,
			"-0.021": 0.0,
			"-0.02": 0.0,
			"-0.019": 0.0,
			"-0.018": 0.0,
			"-0.017": 0.0,
			"-0.016": 0.0,
			"-0.015": 0.0,
			"-0.014": 0.0,
			"-0.013": 0.0,
			"-0.012": 0.0,
			"-0.011": 0.0,
			"-0.01": 0.00141181466896,
			"-0.009": 1.40711148033,
			"-0.008": 5.06401291301,
			"-0.007": 5.86540671079,
			"-0.006": 11.3730304073,
			"-0.005": 14.136965716,
			"-0.004": 17.0444134031,
			"-0.003": 14.9150011248,
			"-0.002": 15.0681098389,
			"-0.001": 23.8749852856,
			"0.0": 23.6596733479,
			"0.001": 13.3219701314,
			"0.002": 8.82303828146,
			"0.003": 11.2490982635,
			"0.004": 7.65299843878,
			"0.005": 2.54383101039,
			"0.006": 4.30560534737,
			"0.007": 4.77053007531,
			"0.008": 8.89962518194,
			"0.009": 8.22796461625,
			"0.01": 5.3812720426,
			"0.011": 2.5516934197,
			"0.012": 0.539741763519,
			"0.013": 0.00146810531657,
			"0.014": 0.0,
			"0.015": 0.0,
			"0.016": 0.0,
			"0.017": 0.0,
			"0.018": 0.0,
			"0.019": 0.0,
			"0.02": 0.0,
			"0.021": 0.0,
			"0.022": 0.0,
			"0.023": 0.0,
			"0.024": 0.0,
			"0.025": 0.0
		}
	}
}
