{
	 "smiles": "COC1=CC(C=C2SC(=S)N(CNC3=CC=C(C=C3)[N+]([O-])=O)C2=O)=CC=C1O", 
	 "Tm": 468.15, 
	 "num_atms": 43, 
	 "gaussian": { 
		 "optdone": 1, 
		 "sigma_profile": "yes", 
		 "theory": "DFT", 
		 "functional": "B3LYP", 
		 "basiset": "6-31G**", 
		 "properties": { 
			 "R2extent": 19113.3428, 
			 "electric_dipole_moment_norm": 10.2343463548, 
			 "electric_quadrupole_moment_norm": 43.1644690249, 
			 "total_energy": -2031.59303654, 
			 "HOMO_LUMO_gap": 0.11786, 
			 "cosmo_polarized_energy": -25.42, 
			 "cosmo_cavitation_energy": 52.04, 
			 "cosmo_dispersion_energy": -37.47, 
			 "cosmo_repulsion_energy": 2.71, 
			 "cosmo_total_nonelectrostatic_energy": 17.28, 
			 "SMD_solvation_energy": 10.39 
		},
		"coords": [
			{
				"x": -6.4882256075,
				"y": 0.3376236836,
				"z": 2.374618827,
				"element": "C" 
			},
			{
				"x": -6.1432891117,
				"y": 0.8508257782,
				"z": 1.0820322736,
				"element": "O" 
			},
			{
				"x": -4.824815479,
				"y": 1.1593207999,
				"z": 0.8809038993,
				"element": "C" 
			},
			{
				"x": -4.1163663654,
				"y": 0.473381614,
				"z": -0.0932905264,
				"element": "C" 
			},
			{
				"x": -2.771050213,
				"y": 0.7804066162,
				"z": -0.4143361538,
				"element": "C" 
			},
			{
				"x": -2.1704826309,
				"y": -0.0232908078,
				"z": -1.4614092234,
				"element": "C" 
			},
			{
				"x": -0.9388038683,
				"y": -0.0975729982,
				"z": -2.0461813542,
				"element": "C" 
			},
			{
				"x": -0.6521024257,
				"y": -1.2859963803,
				"z": -3.3480035909,
				"element": "S" 
			},
			{
				"x": 1.0322660391,
				"y": -0.8132033562,
				"z": -3.545556199,
				"element": "C" 
			},
			{
				"x": 2.0295608173,
				"y": -1.4825268159,
				"z": -4.6814491286,
				"element": "S" 
			},
			{
				"x": 1.3362645987,
				"y": 0.1759535633,
				"z": -2.6356273124,
				"element": "N" 
			},
			{
				"x": 2.6669136699,
				"y": 0.8365644278,
				"z": -2.5345269407,
				"element": "C" 
			},
			{
				"x": 3.2675826528,
				"y": 0.7509386016,
				"z": -1.2394576313,
				"element": "N" 
			},
			{
				"x": 3.8990600168,
				"y": -0.3700497521,
				"z": -0.7206408136,
				"element": "C" 
			},
			{
				"x": 4.2251612701,
				"y": -0.3751458131,
				"z": 0.6544199398,
				"element": "C" 
			},
			{
				"x": 4.8951502854,
				"y": -1.4440553558,
				"z": 1.2231363544,
				"element": "C" 
			},
			{
				"x": 5.2506886047,
				"y": -2.5311712999,
				"z": 0.4204750733,
				"element": "C" 
			},
			{
				"x": 4.9362158806,
				"y": -2.5527641169,
				"z": -0.9383478791,
				"element": "C" 
			},
			{
				"x": 4.2618103502,
				"y": -1.481611656,
				"z": -1.5088376328,
				"element": "C" 
			},
			{
				"x": 5.9543265301,
				"y": -3.6603860255,
				"z": 1.0150586104,
				"element": "N" 
			},
			{
				"x": 6.2562253347,
				"y": -4.6041878043,
				"z": 0.280365207,
				"element": "O" 
			},
			{
				"x": 6.2092766124,
				"y": -3.6091094366,
				"z": 2.2216749484,
				"element": "O" 
			},
			{
				"x": 0.3039739223,
				"y": 0.653087471,
				"z": -1.8066760933,
				"element": "C" 
			},
			{
				"x": 0.5092582784,
				"y": 1.5772354356,
				"z": -1.0244879917,
				"element": "O" 
			},
			{
				"x": -2.1464346478,
				"y": 1.8215004015,
				"z": 0.3060589622,
				"element": "C" 
			},
			{
				"x": -2.8490749004,
				"y": 2.5137154369,
				"z": 1.2825961237,
				"element": "C" 
			},
			{
				"x": -4.1830714211,
				"y": 2.2076264124,
				"z": 1.5780441229,
				"element": "C" 
			},
			{
				"x": -4.9056867606,
				"y": 2.8860642942,
				"z": 2.50665698,
				"element": "O" 
			},
			{
				"x": -7.5512097876,
				"y": 0.0953121386,
				"z": 2.3259258628,
				"element": "H" 
			},
			{
				"x": -6.3172683344,
				"y": 1.0775509657,
				"z": 3.1612333192,
				"element": "H" 
			},
			{
				"x": -5.919135987,
				"y": -0.5741036908,
				"z": 2.595852866,
				"element": "H" 
			},
			{
				"x": -4.6414974358,
				"y": -0.3178879868,
				"z": -0.6199360113,
				"element": "H" 
			},
			{
				"x": -2.8811375839,
				"y": -0.7408457455,
				"z": -1.8719884525,
				"element": "H" 
			},
			{
				"x": 2.512792161,
				"y": 1.8916302332,
				"z": -2.7688031802,
				"element": "H" 
			},
			{
				"x": 3.2912476197,
				"y": 0.3854784583,
				"z": -3.3042691141,
				"element": "H" 
			},
			{
				"x": 2.8308249377,
				"y": 1.3564749625,
				"z": -0.557913517,
				"element": "H" 
			},
			{
				"x": 3.9505846731,
				"y": 0.4777633419,
				"z": 1.2692857765,
				"element": "H" 
			},
			{
				"x": 5.149704709,
				"y": -1.4563897511,
				"z": 2.2755416185,
				"element": "H" 
			},
			{
				"x": 5.2173955458,
				"y": -3.4136513184,
				"z": -1.5321563568,
				"element": "H" 
			},
			{
				"x": 4.006271612,
				"y": -1.5223567694,
				"z": -2.5615699496,
				"element": "H" 
			},
			{
				"x": -1.1196828502,
				"y": 2.0804985459,
				"z": 0.0889123117,
				"element": "H" 
			},
			{
				"x": -2.3607601401,
				"y": 3.3211940704,
				"z": 1.8248205443,
				"element": "H" 
			},
			{
				"x": -4.3565605712,
				"y": 3.580759628,
				"z": 2.8946514319,
				"element": "H" 
			}
		],
		 "valence_orbital": [ 
			{
				"type": "occ",
				"energy": -0.2694,
				"method": "rhf"
			},
			{
				"type": "occ",
				"energy": -0.2565,
				"method": "rhf"
			},
			{
				"type": "occ",
				"energy": -0.24277,
				"method": "rhf"
			},
			{
				"type": "occ",
				"energy": -0.22768,
				"method": "rhf"
			},
			{
				"type": "occ",
				"energy": -0.22361,
				"method": "rhf"
			},
			{
				"type": "unocc",
				"energy": -0.10575,
				"method": "rhf"
			},
			{
				"type": "unocc",
				"energy": -0.07069,
				"method": "rhf"
			},
			{
				"type": "unocc",
				"energy": -0.04934,
				"method": "rhf"
			},
			{
				"type": "unocc",
				"energy": -0.02187,
				"method": "rhf"
			},
			{
				"type": "unocc",
				"energy": -0.01825,
				"method": "rhf"
			}
		],
		"cosmo_sigma_profile": { 
			"-0.025": 0.0,
			"-0.024": 0.0,
			"-0.023": 0.0,
			"-0.022": 0.0,
			"-0.021": 0.0,
			"-0.02": 0.0,
			"-0.019": 0.859330795044,
			"-0.018": 1.03835005709,
			"-0.017": 0.69603801297,
			"-0.016": 1.4846023854,
			"-0.015": 1.05033746913,
			"-0.014": 0.869496657652,
			"-0.013": 1.50250999681,
			"-0.012": 1.71613794954,
			"-0.011": 1.96772048748,
			"-0.01": 3.45649767566,
			"-0.009": 7.01102489097,
			"-0.008": 9.26935648441,
			"-0.007": 12.8865808234,
			"-0.006": 16.1627605723,
			"-0.005": 21.0564694886,
			"-0.004": 21.6609508174,
			"-0.003": 27.3257848565,
			"-0.002": 27.5920774871,
			"-0.001": 24.2695007944,
			"0.0": 35.416003119,
			"0.001": 36.4282754225,
			"0.002": 41.5923815403,
			"0.003": 34.8178825648,
			"0.004": 15.6601482093,
			"0.005": 12.3827593828,
			"0.006": 13.6712863174,
			"0.007": 11.6690099428,
			"0.008": 15.5412426163,
			"0.009": 11.9525076431,
			"0.01": 7.04720996607,
			"0.011": 4.39602380145,
			"0.012": 0.436975519318,
			"0.013": 0.0,
			"0.014": 0.0,
			"0.015": 0.0,
			"0.016": 0.0,
			"0.017": 0.0,
			"0.018": 0.0,
			"0.019": 0.0,
			"0.02": 0.0,
			"0.021": 0.0,
			"0.022": 0.0,
			"0.023": 0.0,
			"0.024": 0.0,
			"0.025": 0.0
		}
	}
}
