{
	 "smiles": "ClCC1=NC2=C(C(=CS2)C2=C(Cl)C=CC=C2)C(=O)N1", 
	 "Tm": 441.15, 
	 "num_atms": 27, 
	 "gaussian": { 
		 "optdone": 1, 
		 "sigma_profile": "yes", 
		 "theory": "DFT", 
		 "functional": "B3LYP", 
		 "basiset": "6-31G**", 
		 "properties": { 
			 "R2extent": 8941.2292, 
			 "electric_dipole_moment_norm": 2.72573438361, 
			 "electric_quadrupole_moment_norm": 14.546739677, 
			 "total_energy": -2003.52331656, 
			 "HOMO_LUMO_gap": 0.16701, 
			 "cosmo_polarized_energy": -15.95, 
			 "cosmo_cavitation_energy": 36.96, 
			 "cosmo_dispersion_energy": -26.94, 
			 "cosmo_repulsion_energy": 2.05, 
			 "cosmo_total_nonelectrostatic_energy": 12.07, 
			 "SMD_solvation_energy": 4.2 
		},
		"coords": [
			{
				"x": 0.8032105055,
				"y": 4.2809755428,
				"z": 2.6026346142,
				"element": "Cl" 
			},
			{
				"x": -0.2796400562,
				"y": 2.9890055645,
				"z": 3.2754074326,
				"element": "C" 
			},
			{
				"x": 0.0670987938,
				"y": 1.6100409895,
				"z": 2.780251489,
				"element": "C" 
			},
			{
				"x": 0.0438382531,
				"y": 0.6319293245,
				"z": 3.6403055521,
				"element": "N" 
			},
			{
				"x": 0.2843810396,
				"y": -0.6019260825,
				"z": 3.1095682087,
				"element": "C" 
			},
			{
				"x": 0.5663239239,
				"y": -0.9001845684,
				"z": 1.7782710355,
				"element": "C" 
			},
			{
				"x": 0.7705402846,
				"y": -2.3059208708,
				"z": 1.545947241,
				"element": "C" 
			},
			{
				"x": 0.6225581328,
				"y": -3.0230960242,
				"z": 2.7033675296,
				"element": "C" 
			},
			{
				"x": 0.2572774012,
				"y": -2.0415642982,
				"z": 4.0946872866,
				"element": "S" 
			},
			{
				"x": 1.0684460732,
				"y": -2.9480689677,
				"z": 0.2393203011,
				"element": "C" 
			},
			{
				"x": 2.2911579951,
				"y": -2.7841231362,
				"z": -0.4322055432,
				"element": "C" 
			},
			{
				"x": 3.5659565984,
				"y": -1.8009020521,
				"z": 0.2712004119,
				"element": "Cl" 
			},
			{
				"x": 2.5454649318,
				"y": -3.4166163644,
				"z": -1.6476837372,
				"element": "C" 
			},
			{
				"x": 1.5729367678,
				"y": -4.2396810259,
				"z": -2.2150399885,
				"element": "C" 
			},
			{
				"x": 0.3553742889,
				"y": -4.431566738,
				"z": -1.5630788091,
				"element": "C" 
			},
			{
				"x": 0.112816012,
				"y": -3.79061177,
				"z": -0.3494508223,
				"element": "C" 
			},
			{
				"x": 0.5805520584,
				"y": 0.192589912,
				"z": 0.8172543122,
				"element": "C" 
			},
			{
				"x": 0.775270448,
				"y": 0.147333992,
				"z": -0.3858245736,
				"element": "O" 
			},
			{
				"x": 0.3131839232,
				"y": 1.4360045557,
				"z": 1.4495084126,
				"element": "N" 
			},
			{
				"x": -1.2956995761,
				"y": 3.264996787,
				"z": 2.9830777607,
				"element": "H" 
			},
			{
				"x": -0.1925700997,
				"y": 2.9996793504,
				"z": 4.3596829893,
				"element": "H" 
			},
			{
				"x": 0.734722944,
				"y": -4.0923913844,
				"z": 2.818943404,
				"element": "H" 
			},
			{
				"x": 3.5012091138,
				"y": -3.2653582112,
				"z": -2.1368974362,
				"element": "H" 
			},
			{
				"x": 1.7732199161,
				"y": -4.7297000625,
				"z": -3.1631255806,
				"element": "H" 
			},
			{
				"x": -0.4050547878,
				"y": -5.0731913865,
				"z": -1.9974584099,
				"element": "H" 
			},
			{
				"x": -0.837556834,
				"y": -3.9250191572,
				"z": 0.1580568153,
				"element": "H" 
			},
			{
				"x": 0.364381949,
				"y": 2.2439660818,
				"z": 0.8380801044,
				"element": "H" 
			}
		],
		 "valence_orbital": [ 
			{
				"type": "occ",
				"energy": -0.27409,
				"method": "rhf"
			},
			{
				"type": "occ",
				"energy": -0.26722,
				"method": "rhf"
			},
			{
				"type": "occ",
				"energy": -0.25447,
				"method": "rhf"
			},
			{
				"type": "occ",
				"energy": -0.24285,
				"method": "rhf"
			},
			{
				"type": "occ",
				"energy": -0.22839,
				"method": "rhf"
			},
			{
				"type": "unocc",
				"energy": -0.06138,
				"method": "rhf"
			},
			{
				"type": "unocc",
				"energy": -0.02436,
				"method": "rhf"
			},
			{
				"type": "unocc",
				"energy": -0.01331,
				"method": "rhf"
			},
			{
				"type": "unocc",
				"energy": -0.01047,
				"method": "rhf"
			},
			{
				"type": "unocc",
				"energy": 0.00312,
				"method": "rhf"
			}
		],
		"cosmo_sigma_profile": { 
			"-0.025": 0.0,
			"-0.024": 0.0,
			"-0.023": 0.0,
			"-0.022": 0.0,
			"-0.021": 0.0,
			"-0.02": 0.0,
			"-0.019": 0.0,
			"-0.018": 0.0,
			"-0.017": 0.0,
			"-0.016": 0.0,
			"-0.015": 0.362603743218,
			"-0.014": 0.885937217015,
			"-0.013": 0.973639948948,
			"-0.012": 0.78080544082,
			"-0.011": 1.62114224836,
			"-0.01": 4.00711334179,
			"-0.009": 6.88522617519,
			"-0.008": 6.2455424411,
			"-0.007": 8.90359902797,
			"-0.006": 14.8026108973,
			"-0.005": 15.711555654,
			"-0.004": 16.2313095669,
			"-0.003": 15.3183379739,
			"-0.002": 18.5212105453,
			"-0.001": 17.7548340067,
			"0.0": 25.4911314627,
			"0.001": 29.1583135403,
			"0.002": 27.4539579704,
			"0.003": 24.6379015636,
			"0.004": 23.4217982709,
			"0.005": 17.4269955961,
			"0.006": 3.64961392032,
			"0.007": 2.78048534068,
			"0.008": 3.8087746464,
			"0.009": 2.87703229438,
			"0.01": 2.93808337365,
			"0.011": 3.36620333181,
			"0.012": 4.7408790862,
			"0.013": 3.28212791822,
			"0.014": 0.116144709835,
			"0.015": 0.0,
			"0.016": 0.0,
			"0.017": 0.0,
			"0.018": 0.0,
			"0.019": 0.0,
			"0.02": 0.0,
			"0.021": 0.0,
			"0.022": 0.0,
			"0.023": 0.0,
			"0.024": 0.0,
			"0.025": 0.0
		}
	}
}
