{
	 "smiles": "CC1=CC(=CC=C1)N1N=C(C=C1N)C1=CC=CO1", 
	 "Tm": 356.15, 
	 "num_atms": 31, 
	 "gaussian": { 
		 "optdone": 1, 
		 "sigma_profile": "yes", 
		 "theory": "DFT", 
		 "functional": "B3LYP", 
		 "basiset": "6-31G**", 
		 "properties": { 
			 "R2extent": 6448.9746, 
			 "electric_dipole_moment_norm": 2.73884854273, 
			 "electric_quadrupole_moment_norm": 14.2514305359, 
			 "total_energy": -780.768063837, 
			 "HOMO_LUMO_gap": 0.16827, 
			 "cosmo_polarized_energy": -13.88, 
			 "cosmo_cavitation_energy": 35.54, 
			 "cosmo_dispersion_energy": -25.84, 
			 "cosmo_repulsion_energy": 1.99, 
			 "cosmo_total_nonelectrostatic_energy": 11.69, 
			 "SMD_solvation_energy": 6.25 
		},
		"coords": [
			{
				"x": 2.7749229834,
				"y": 1.6119244947,
				"z": -4.0599922915,
				"element": "C" 
			},
			{
				"x": 2.7104649536,
				"y": 2.1657174542,
				"z": -2.6556148558,
				"element": "C" 
			},
			{
				"x": 2.0921773784,
				"y": 1.4398507875,
				"z": -1.6350739111,
				"element": "C" 
			},
			{
				"x": 2.0015291578,
				"y": 1.963351532,
				"z": -0.3389655562,
				"element": "C" 
			},
			{
				"x": 2.5231777175,
				"y": 3.2308793598,
				"z": -0.0514826187,
				"element": "C" 
			},
			{
				"x": 3.1581376417,
				"y": 3.9469760474,
				"z": -1.0675571177,
				"element": "C" 
			},
			{
				"x": 3.2553106088,
				"y": 3.4234827893,
				"z": -2.3548958209,
				"element": "C" 
			},
			{
				"x": 1.3553836845,
				"y": 1.1941955079,
				"z": 0.6632952534,
				"element": "N" 
			},
			{
				"x": 0.3142139316,
				"y": 0.3734422034,
				"z": 0.3108825857,
				"element": "N" 
			},
			{
				"x": -0.0326283236,
				"y": -0.2364020348,
				"z": 1.443092145,
				"element": "C" 
			},
			{
				"x": 0.7828968628,
				"y": 0.1584051083,
				"z": 2.5356015726,
				"element": "C" 
			},
			{
				"x": 1.670424837,
				"y": 1.0693938786,
				"z": 1.9970387897,
				"element": "C" 
			},
			{
				"x": 2.6866033983,
				"y": 1.801835812,
				"z": 2.6077811191,
				"element": "N" 
			},
			{
				"x": -1.1321637541,
				"y": -1.1799821528,
				"z": 1.4637193461,
				"element": "C" 
			},
			{
				"x": -1.99585048,
				"y": -1.6412055651,
				"z": 0.5066090246,
				"element": "C" 
			},
			{
				"x": -2.8649386024,
				"y": -2.5707304889,
				"z": 1.1591759691,
				"element": "C" 
			},
			{
				"x": -2.4713825025,
				"y": -2.6104007466,
				"z": 2.4630554874,
				"element": "C" 
			},
			{
				"x": -1.4172607056,
				"y": -1.770027352,
				"z": 2.6676612058,
				"element": "O" 
			},
			{
				"x": 2.6938973619,
				"y": 0.5214168241,
				"z": -4.064918263,
				"element": "H" 
			},
			{
				"x": 1.9548554731,
				"y": 2.0036949275,
				"z": -4.674490352,
				"element": "H" 
			},
			{
				"x": 3.7111748041,
				"y": 1.8868581267,
				"z": -4.5557896124,
				"element": "H" 
			},
			{
				"x": 1.6613814624,
				"y": 0.4640208483,
				"z": -1.8283541778,
				"element": "H" 
			},
			{
				"x": 2.411265983,
				"y": 3.6572911341,
				"z": 0.9385837402,
				"element": "H" 
			},
			{
				"x": 3.5671047497,
				"y": 4.9295339221,
				"z": -0.8498552188,
				"element": "H" 
			},
			{
				"x": 3.7508531023,
				"y": 3.994530785,
				"z": -3.1357401166,
				"element": "H" 
			},
			{
				"x": 0.7311985147,
				"y": -0.1827103714,
				"z": 3.557797319,
				"element": "H" 
			},
			{
				"x": 3.500171784,
				"y": 1.9441044151,
				"z": 2.0192991447,
				"element": "H" 
			},
			{
				"x": 2.9547851989,
				"y": 1.400280109,
				"z": 3.4972984789,
				"element": "H" 
			},
			{
				"x": -2.000902847,
				"y": -1.3428015682,
				"z": -0.5308804358,
				"element": "H" 
			},
			{
				"x": -3.6744526342,
				"y": -3.1325206109,
				"z": 0.7154656423,
				"element": "H" 
			},
			{
				"x": -2.8151517398,
				"y": -3.1524051762,
				"z": 3.3301535248,
				"element": "H" 
			}
		],
		 "valence_orbital": [ 
			{
				"type": "occ",
				"energy": -0.26763,
				"method": "rhf"
			},
			{
				"type": "occ",
				"energy": -0.24676,
				"method": "rhf"
			},
			{
				"type": "occ",
				"energy": -0.23784,
				"method": "rhf"
			},
			{
				"type": "occ",
				"energy": -0.21143,
				"method": "rhf"
			},
			{
				"type": "occ",
				"energy": -0.18913,
				"method": "rhf"
			},
			{
				"type": "unocc",
				"energy": -0.02086,
				"method": "rhf"
			},
			{
				"type": "unocc",
				"energy": -0.00448,
				"method": "rhf"
			},
			{
				"type": "unocc",
				"energy": 0.00787,
				"method": "rhf"
			},
			{
				"type": "unocc",
				"energy": 0.05357,
				"method": "rhf"
			},
			{
				"type": "unocc",
				"energy": 0.07224,
				"method": "rhf"
			}
		],
		"cosmo_sigma_profile": { 
			"-0.025": 0.0,
			"-0.024": 0.0,
			"-0.023": 0.0,
			"-0.022": 0.0,
			"-0.021": 0.0,
			"-0.02": 0.0,
			"-0.019": 0.0,
			"-0.018": 0.0,
			"-0.017": 0.0,
			"-0.016": 0.0,
			"-0.015": 0.0,
			"-0.014": 0.376311201037,
			"-0.013": 1.70628750088,
			"-0.012": 2.57863241496,
			"-0.011": 2.81609491571,
			"-0.01": 2.20982995889,
			"-0.009": 3.88400159686,
			"-0.008": 4.35326585491,
			"-0.007": 6.88890478735,
			"-0.006": 10.2896395206,
			"-0.005": 14.9292789068,
			"-0.004": 21.6512403575,
			"-0.003": 19.7088489478,
			"-0.002": 18.5976150525,
			"-0.001": 17.8886495369,
			"0.0": 21.2259207363,
			"0.001": 15.8031813802,
			"0.002": 17.0037608928,
			"0.003": 25.9005842457,
			"0.004": 25.1817976149,
			"0.005": 25.6263408689,
			"0.006": 9.18868252889,
			"0.007": 5.12107205506,
			"0.008": 2.72861193415,
			"0.009": 2.18696954284,
			"0.01": 2.49626280101,
			"0.011": 1.24133104332,
			"0.012": 1.38507494797,
			"0.013": 1.0831143507,
			"0.014": 0.395964281563,
			"0.015": 0.114403264011,
			"0.016": 0.0,
			"0.017": 0.0,
			"0.018": 0.0,
			"0.019": 0.0,
			"0.02": 0.0,
			"0.021": 0.0,
			"0.022": 0.0,
			"0.023": 0.0,
			"0.024": 0.0,
			"0.025": 0.0
		}
	}
}
