{
	 "smiles": "CC(=O)OC1C2CC(OC(C)=O)C3C1(C(CC1C4(C)CCCC31C(=O)OC4)OC(C)=O)C(=O)C2=C", 
	 "Tm": 508.15, 
	 "num_atms": 67, 
	 "gaussian": { 
		 "optdone": 1, 
		 "sigma_profile": "yes", 
		 "theory": "DFT", 
		 "functional": "B3LYP", 
		 "basiset": "6-31G**", 
		 "properties": { 
			 "R2extent": 13437.1266, 
			 "electric_dipole_moment_norm": 3.60856341776, 
			 "electric_quadrupole_moment_norm": 20.5360549179, 
			 "total_energy": -1687.10386091, 
			 "HOMO_LUMO_gap": 0.18614, 
			 "cosmo_polarized_energy": -25.16, 
			 "cosmo_cavitation_energy": 61.89, 
			 "cosmo_dispersion_energy": -37.54, 
			 "cosmo_repulsion_energy": 2.76, 
			 "cosmo_total_nonelectrostatic_energy": 27.1, 
			 "SMD_solvation_energy": 14.06 
		},
		"coords": [
			{
				"x": -0.8557043542,
				"y": 4.8319998859,
				"z": 3.1531568176,
				"element": "C" 
			},
			{
				"x": -1.5638693298,
				"y": 3.6075265142,
				"z": 2.6288054261,
				"element": "C" 
			},
			{
				"x": -2.7107811875,
				"y": 3.2959064243,
				"z": 2.8608048776,
				"element": "O" 
			},
			{
				"x": -0.7306998541,
				"y": 2.8687204346,
				"z": 1.8489265441,
				"element": "O" 
			},
			{
				"x": -1.2659507542,
				"y": 1.6368867299,
				"z": 1.3166107766,
				"element": "C" 
			},
			{
				"x": -2.0612757763,
				"y": 1.8918228759,
				"z": 0.0188507266,
				"element": "C" 
			},
			{
				"x": -2.7124578485,
				"y": 0.5548620975,
				"z": -0.4147589127,
				"element": "C" 
			},
			{
				"x": -1.6951567938,
				"y": -0.5834161425,
				"z": -0.6317892821,
				"element": "C" 
			},
			{
				"x": -0.9654915184,
				"y": -0.3757241924,
				"z": -1.8748315083,
				"element": "O" 
			},
			{
				"x": -1.6093278621,
				"y": -0.6613700411,
				"z": -3.0368105597,
				"element": "C" 
			},
			{
				"x": -0.7374579745,
				"y": -0.3266495209,
				"z": -4.2215563382,
				"element": "C" 
			},
			{
				"x": -2.7301733292,
				"y": -1.1175774667,
				"z": -3.087446291,
				"element": "O" 
			},
			{
				"x": -0.6821307128,
				"y": -0.6464130759,
				"z": 0.525043091,
				"element": "C" 
			},
			{
				"x": -0.0798622225,
				"y": 0.7895686871,
				"z": 0.802701695,
				"element": "C" 
			},
			{
				"x": 1.1035507967,
				"y": 0.6952564488,
				"z": 1.7601232229,
				"element": "C" 
			},
			{
				"x": 2.2538516924,
				"y": -0.1347678227,
				"z": 1.1841119682,
				"element": "C" 
			},
			{
				"x": 1.8275032627,
				"y": -1.3149464611,
				"z": 0.2689719417,
				"element": "C" 
			},
			{
				"x": 2.8052423148,
				"y": -2.51833666,
				"z": 0.3738600296,
				"element": "C" 
			},
			{
				"x": 4.2646574022,
				"y": -2.099128369,
				"z": 0.1138376178,
				"element": "C" 
			},
			{
				"x": 2.4263587678,
				"y": -3.600726878,
				"z": -0.665173912,
				"element": "C" 
			},
			{
				"x": 0.9887096084,
				"y": -4.1040354765,
				"z": -0.5187925885,
				"element": "C" 
			},
			{
				"x": 0.0087261834,
				"y": -2.9264889084,
				"z": -0.5094204725,
				"element": "C" 
			},
			{
				"x": 0.3787571863,
				"y": -1.8167521244,
				"z": 0.5280654304,
				"element": "C" 
			},
			{
				"x": 0.28848953,
				"y": -2.5415749298,
				"z": 1.890793633,
				"element": "C" 
			},
			{
				"x": -0.7490794549,
				"y": -2.6755854911,
				"z": 2.5023011083,
				"element": "O" 
			},
			{
				"x": 1.3907028216,
				"y": -3.1593808753,
				"z": 2.3768201529,
				"element": "O" 
			},
			{
				"x": 2.7159094369,
				"y": -3.0780485244,
				"z": 1.8028659637,
				"element": "C" 
			},
			{
				"x": 0.5634605087,
				"y": 0.0685773672,
				"z": 2.9566404299,
				"element": "O" 
			},
			{
				"x": 1.2188299121,
				"y": 0.2673440726,
				"z": 4.1291100101,
				"element": "C" 
			},
			{
				"x": 0.5183876593,
				"y": -0.4615842977,
				"z": 5.2491085897,
				"element": "C" 
			},
			{
				"x": 2.2186614922,
				"y": 0.9446699315,
				"z": 4.2306272584,
				"element": "O" 
			},
			{
				"x": 0.2856486355,
				"y": 1.5839607272,
				"z": -0.4886675064,
				"element": "C" 
			},
			{
				"x": 1.3796062443,
				"y": 1.6632821679,
				"z": -1.0126246924,
				"element": "O" 
			},
			{
				"x": -0.9545862337,
				"y": 2.3152845066,
				"z": -0.9219336381,
				"element": "C" 
			},
			{
				"x": -0.961308264,
				"y": 3.2063234996,
				"z": -1.9149948035,
				"element": "C" 
			},
			{
				"x": -0.4472321718,
				"y": 5.4156060625,
				"z": 2.3232747777,
				"element": "H" 
			},
			{
				"x": -0.0140333003,
				"y": 4.5317624344,
				"z": 3.7848277019,
				"element": "H" 
			},
			{
				"x": -1.5549358479,
				"y": 5.4363771885,
				"z": 3.7299162377,
				"element": "H" 
			},
			{
				"x": -1.8521310829,
				"y": 1.1441856965,
				"z": 2.0924773043,
				"element": "H" 
			},
			{
				"x": -2.8327923675,
				"y": 2.6526176481,
				"z": 0.1564917943,
				"element": "H" 
			},
			{
				"x": -3.4172657864,
				"y": 0.2365087527,
				"z": 0.3628263922,
				"element": "H" 
			},
			{
				"x": -3.2920420358,
				"y": 0.6883001651,
				"z": -1.3310009197,
				"element": "H" 
			},
			{
				"x": -2.243411749,
				"y": -1.5219188541,
				"z": -0.7255012012,
				"element": "H" 
			},
			{
				"x": -1.2550723511,
				"y": -0.5956948633,
				"z": -5.1417121193,
				"element": "H" 
			},
			{
				"x": -0.5111262481,
				"y": 0.744051652,
				"z": -4.2168170383,
				"element": "H" 
			},
			{
				"x": 0.2161361109,
				"y": -0.8582413233,
				"z": -4.1560848129,
				"element": "H" 
			},
			{
				"x": -1.3091801455,
				"y": -0.8642145506,
				"z": 1.3949059838,
				"element": "H" 
			},
			{
				"x": 1.4637982599,
				"y": 1.6864546508,
				"z": 2.0370119478,
				"element": "H" 
			},
			{
				"x": 2.8555000847,
				"y": -0.4666356538,
				"z": 2.0330587905,
				"element": "H" 
			},
			{
				"x": 2.8826122265,
				"y": 0.5398443236,
				"z": 0.6011432649,
				"element": "H" 
			},
			{
				"x": 1.8509337118,
				"y": -0.9478775879,
				"z": -0.764108664,
				"element": "H" 
			},
			{
				"x": 4.9348392166,
				"y": -2.9622680745,
				"z": 0.1990060824,
				"element": "H" 
			},
			{
				"x": 4.3707085235,
				"y": -1.6973829114,
				"z": -0.8991760241,
				"element": "H" 
			},
			{
				"x": 4.6140811264,
				"y": -1.3369653019,
				"z": 0.8151076175,
				"element": "H" 
			},
			{
				"x": 2.5588672165,
				"y": -3.170012111,
				"z": -1.6672811708,
				"element": "H" 
			},
			{
				"x": 3.1346494271,
				"y": -4.4357294246,
				"z": -0.5902345236,
				"element": "H" 
			},
			{
				"x": 0.7381233078,
				"y": -4.7745579669,
				"z": -1.3487980709,
				"element": "H" 
			},
			{
				"x": 0.8844310737,
				"y": -4.6993984714,
				"z": 0.39540274,
				"element": "H" 
			},
			{
				"x": 0.0041961735,
				"y": -2.4663924457,
				"z": -1.5003957705,
				"element": "H" 
			},
			{
				"x": -1.0042177596,
				"y": -3.2863641535,
				"z": -0.3042846362,
				"element": "H" 
			},
			{
				"x": 3.3085032383,
				"y": -2.4730624355,
				"z": 2.4965356116,
				"element": "H" 
			},
			{
				"x": 3.1107909054,
				"y": -4.0987583933,
				"z": 1.8426181312,
				"element": "H" 
			},
			{
				"x": 1.1441223786,
				"y": -0.4459981152,
				"z": 6.1411908957,
				"element": "H" 
			},
			{
				"x": -0.4351813453,
				"y": 0.0312928633,
				"z": 5.4654845601,
				"element": "H" 
			},
			{
				"x": 0.2908183544,
				"y": -1.4874432283,
				"z": 4.947304083,
				"element": "H" 
			},
			{
				"x": -1.8545098784,
				"y": 3.7559087954,
				"z": -2.1975897302,
				"element": "H" 
			},
			{
				"x": -0.0451192508,
				"y": 3.4075205203,
				"z": -2.4634360406,
				"element": "H" 
			}
		],
		 "valence_orbital": [ 
			{
				"type": "occ",
				"energy": -0.27773,
				"method": "rhf"
			},
			{
				"type": "occ",
				"energy": -0.27293,
				"method": "rhf"
			},
			{
				"type": "occ",
				"energy": -0.27106,
				"method": "rhf"
			},
			{
				"type": "occ",
				"energy": -0.26233,
				"method": "rhf"
			},
			{
				"type": "occ",
				"energy": -0.25067,
				"method": "rhf"
			},
			{
				"type": "unocc",
				"energy": -0.06453,
				"method": "rhf"
			},
			{
				"type": "unocc",
				"energy": 0.00233,
				"method": "rhf"
			},
			{
				"type": "unocc",
				"energy": 0.00436,
				"method": "rhf"
			},
			{
				"type": "unocc",
				"energy": 0.00706,
				"method": "rhf"
			},
			{
				"type": "unocc",
				"energy": 0.01549,
				"method": "rhf"
			}
		],
		"cosmo_sigma_profile": { 
			"-0.025": 0.0,
			"-0.024": 0.0,
			"-0.023": 0.0,
			"-0.022": 0.0,
			"-0.021": 0.0,
			"-0.02": 0.0,
			"-0.019": 0.0,
			"-0.018": 0.0,
			"-0.017": 0.0,
			"-0.016": 0.0,
			"-0.015": 0.0,
			"-0.014": 0.0,
			"-0.013": 0.0,
			"-0.012": 0.0,
			"-0.011": 0.0,
			"-0.01": 0.0,
			"-0.009": 0.253641420864,
			"-0.008": 1.11354001497,
			"-0.007": 7.91582277305,
			"-0.006": 26.3548859762,
			"-0.005": 37.0424745566,
			"-0.004": 47.0926455514,
			"-0.003": 64.2713870583,
			"-0.002": 65.8622893874,
			"-0.001": 48.143129615,
			"0.0": 32.0642037436,
			"0.001": 20.3791874244,
			"0.002": 15.0159220125,
			"0.003": 13.6299476416,
			"0.004": 11.4772976696,
			"0.005": 12.379599617,
			"0.006": 9.6270570554,
			"0.007": 6.80894340422,
			"0.008": 8.39407125736,
			"0.009": 8.23232161184,
			"0.01": 10.8174796039,
			"0.011": 14.7772546924,
			"0.012": 16.4850085989,
			"0.013": 4.16194384792,
			"0.014": 0.308442129528,
			"0.015": 0.0,
			"0.016": 0.0,
			"0.017": 0.0,
			"0.018": 0.0,
			"0.019": 0.0,
			"0.02": 0.0,
			"0.021": 0.0,
			"0.022": 0.0,
			"0.023": 0.0,
			"0.024": 0.0,
			"0.025": 0.0
		}
	}
}
