{
	 "smiles": "CCCC1CCCCN1", 
	 "Tm": 271.15, 
	 "num_atms": 26, 
	 "gaussian": { 
		 "optdone": 1, 
		 "sigma_profile": "yes", 
		 "theory": "DFT", 
		 "functional": "B3LYP", 
		 "basiset": "6-31G**", 
		 "properties": { 
			 "R2extent": 1581.5147, 
			 "electric_dipole_moment_norm": 1.17148189913, 
			 "electric_quadrupole_moment_norm": 2.90208871332, 
			 "total_energy": -369.851679789, 
			 "HOMO_LUMO_gap": 0.27958, 
			 "cosmo_polarized_energy": -3.29, 
			 "cosmo_cavitation_energy": 25.24, 
			 "cosmo_dispersion_energy": -18.75, 
			 "cosmo_repulsion_energy": 1.55, 
			 "cosmo_total_nonelectrostatic_energy": 8.05, 
			 "SMD_solvation_energy": 2.33 
		},
		"coords": [
			{
				"x": -0.6467059446,
				"y": -2.6564298567,
				"z": 1.9900499305,
				"element": "C" 
			},
			{
				"x": -0.6297972782,
				"y": -2.4826923497,
				"z": 0.465336345,
				"element": "C" 
			},
			{
				"x": -1.2438881954,
				"y": -1.1667008724,
				"z": -0.0519558128,
				"element": "C" 
			},
			{
				"x": -0.2867141484,
				"y": 0.0356295261,
				"z": -0.1929204783,
				"element": "C" 
			},
			{
				"x": 0.3818433686,
				"y": 0.5074519144,
				"z": 1.1048872307,
				"element": "C" 
			},
			{
				"x": 1.1246110863,
				"y": 1.8477494998,
				"z": 0.890068257,
				"element": "C" 
			},
			{
				"x": 1.7336816954,
				"y": 1.9403512495,
				"z": -0.530949326,
				"element": "C" 
			},
			{
				"x": 1.990028143,
				"y": 0.5332102095,
				"z": -1.0879210021,
				"element": "C" 
			},
			{
				"x": 0.7689853848,
				"y": -0.2869846664,
				"z": -1.17497476,
				"element": "N" 
			},
			{
				"x": -0.0613038424,
				"y": -1.888514949,
				"z": 2.5039820961,
				"element": "H" 
			},
			{
				"x": -1.670006947,
				"y": -2.6045917907,
				"z": 2.3809360194,
				"element": "H" 
			},
			{
				"x": -0.2340273365,
				"y": -3.629913451,
				"z": 2.2772966057,
				"element": "H" 
			},
			{
				"x": 0.3936047603,
				"y": -2.5580394944,
				"z": 0.0802637129,
				"element": "H" 
			},
			{
				"x": -1.1819204341,
				"y": -3.3214358397,
				"z": 0.0229363695,
				"element": "H" 
			},
			{
				"x": -2.0909508941,
				"y": -0.8682525179,
				"z": 0.5819864194,
				"element": "H" 
			},
			{
				"x": -1.6689523082,
				"y": -1.3457522261,
				"z": -1.0492586848,
				"element": "H" 
			},
			{
				"x": -0.9123922556,
				"y": 0.8800944724,
				"z": -0.5427342024,
				"element": "H" 
			},
			{
				"x": 1.0882982326,
				"y": -0.2617871063,
				"z": 1.4372750224,
				"element": "H" 
			},
			{
				"x": -0.3679122641,
				"y": 0.609977094,
				"z": 1.8965151267,
				"element": "H" 
			},
			{
				"x": 1.9114504205,
				"y": 1.9492497521,
				"z": 1.6464820859,
				"element": "H" 
			},
			{
				"x": 0.4347396108,
				"y": 2.6848007832,
				"z": 1.0494570617,
				"element": "H" 
			},
			{
				"x": 2.6621801919,
				"y": 2.5230842037,
				"z": -0.5193559741,
				"element": "H" 
			},
			{
				"x": 1.0450632784,
				"y": 2.4658676593,
				"z": -1.2046603446,
				"element": "H" 
			},
			{
				"x": 2.4423675459,
				"y": 0.5817639506,
				"z": -2.0842539928,
				"element": "H" 
			},
			{
				"x": 2.7237898166,
				"y": 0.0241245067,
				"z": -0.4465680602,
				"element": "H" 
			},
			{
				"x": 0.3796283134,
				"y": -0.2209597012,
				"z": -2.1102196447,
				"element": "H" 
			}
		],
		 "valence_orbital": [ 
			{
				"type": "occ",
				"energy": -0.31816,
				"method": "rhf"
			},
			{
				"type": "occ",
				"energy": -0.3106,
				"method": "rhf"
			},
			{
				"type": "occ",
				"energy": -0.30157,
				"method": "rhf"
			},
			{
				"type": "occ",
				"energy": -0.29299,
				"method": "rhf"
			},
			{
				"type": "occ",
				"energy": -0.20613,
				"method": "rhf"
			},
			{
				"type": "unocc",
				"energy": 0.07345,
				"method": "rhf"
			},
			{
				"type": "unocc",
				"energy": 0.10015,
				"method": "rhf"
			},
			{
				"type": "unocc",
				"energy": 0.10795,
				"method": "rhf"
			},
			{
				"type": "unocc",
				"energy": 0.12603,
				"method": "rhf"
			},
			{
				"type": "unocc",
				"energy": 0.13751,
				"method": "rhf"
			}
		],
		"cosmo_sigma_profile": { 
			"-0.025": 0.0,
			"-0.024": 0.0,
			"-0.023": 0.0,
			"-0.022": 0.0,
			"-0.021": 0.0,
			"-0.02": 0.0,
			"-0.019": 0.0,
			"-0.018": 0.0,
			"-0.017": 0.0,
			"-0.016": 0.0,
			"-0.015": 0.0,
			"-0.014": 0.0,
			"-0.013": 0.0,
			"-0.012": 0.0,
			"-0.011": 0.0,
			"-0.01": 0.0948461456907,
			"-0.009": 0.873140623298,
			"-0.008": 1.341838974,
			"-0.007": 1.48338900035,
			"-0.006": 0.935576405461,
			"-0.005": 1.96874466315,
			"-0.004": 2.77170057649,
			"-0.003": 6.33923376216,
			"-0.002": 26.269825915,
			"-0.001": 44.8576372101,
			"0.0": 41.4718627062,
			"0.001": 30.5051160163,
			"0.002": 19.3884439426,
			"0.003": 2.73385715878,
			"0.004": 2.41086155259,
			"0.005": 1.18175379093,
			"0.006": 1.12423291873,
			"0.007": 1.23406068021,
			"0.008": 0.987055796383,
			"0.009": 0.538838925059,
			"0.01": 0.610165592121,
			"0.011": 0.975092771919,
			"0.012": 0.757601254602,
			"0.013": 0.883250871234,
			"0.014": 0.505451126352,
			"0.015": 0.478461678023,
			"0.016": 0.110213586248,
			"0.017": 0.0,
			"0.018": 0.0,
			"0.019": 0.0,
			"0.02": 0.0,
			"0.021": 0.0,
			"0.022": 0.0,
			"0.023": 0.0,
			"0.024": 0.0,
			"0.025": 0.0
		}
	}
}
