{
	 "smiles": "CS(=O)(=O)C1=CC=C(C=O)C=C1", 
	 "Tm": 431.15, 
	 "num_atms": 20, 
	 "gaussian": { 
		 "optdone": 1, 
		 "sigma_profile": "yes", 
		 "theory": "DFT", 
		 "functional": "B3LYP", 
		 "basiset": "6-31G**", 
		 "properties": { 
			 "R2extent": 2873.4249, 
			 "electric_dipole_moment_norm": 3.94892954229, 
			 "electric_quadrupole_moment_norm": 18.6530607698, 
			 "total_energy": -933.456132128, 
			 "HOMO_LUMO_gap": 0.18256, 
			 "cosmo_polarized_energy": -17.54, 
			 "cosmo_cavitation_energy": 26.23, 
			 "cosmo_dispersion_energy": -19.3, 
			 "cosmo_repulsion_energy": 1.48, 
			 "cosmo_total_nonelectrostatic_energy": 8.41, 
			 "SMD_solvation_energy": 5.38 
		},
		"coords": [
			{
				"x": 2.6636289373,
				"y": 0.8893845673,
				"z": 1.4591235587,
				"element": "C" 
			},
			{
				"x": 2.3891660968,
				"y": 0.3709554916,
				"z": -0.2518730863,
				"element": "S" 
			},
			{
				"x": 2.499420287,
				"y": 1.5655427965,
				"z": -1.1022932152,
				"element": "O" 
			},
			{
				"x": 3.2148522766,
				"y": -0.8213133166,
				"z": -0.4930383165,
				"element": "O" 
			},
			{
				"x": 0.6586707838,
				"y": -0.1485094381,
				"z": -0.2590435638,
				"element": "C" 
			},
			{
				"x": 0.3435282126,
				"y": -1.4726934404,
				"z": 0.0656507379,
				"element": "C" 
			},
			{
				"x": -0.9898921792,
				"y": -1.8665885547,
				"z": 0.0634757422,
				"element": "C" 
			},
			{
				"x": -1.993270476,
				"y": -0.9433518489,
				"z": -0.2685647966,
				"element": "C" 
			},
			{
				"x": -3.4178630452,
				"y": -1.365658334,
				"z": -0.2702161787,
				"element": "C" 
			},
			{
				"x": -3.7990761693,
				"y": -2.4828378329,
				"z": 0.0161642866,
				"element": "O" 
			},
			{
				"x": -1.6576173227,
				"y": 0.3735725761,
				"z": -0.6066818334,
				"element": "C" 
			},
			{
				"x": -0.3239875528,
				"y": 0.7800052065,
				"z": -0.6050933313,
				"element": "C" 
			},
			{
				"x": 3.7056953614,
				"y": 1.2113571132,
				"z": 1.514024201,
				"element": "H" 
			},
			{
				"x": 2.4928897432,
				"y": 0.0418618348,
				"z": 2.1242704477,
				"element": "H" 
			},
			{
				"x": 1.9965896042,
				"y": 1.7195437064,
				"z": 1.6951966769,
				"element": "H" 
			},
			{
				"x": 1.1387246882,
				"y": -2.1750819304,
				"z": 0.2923843513,
				"element": "H" 
			},
			{
				"x": -1.2800826611,
				"y": -2.8835168333,
				"z": 0.3070948097,
				"element": "H" 
			},
			{
				"x": -4.1385138552,
				"y": -0.5691488538,
				"z": -0.5579368732,
				"element": "H" 
			},
			{
				"x": -2.4414730893,
				"y": 1.0770731339,
				"z": -0.8765212437,
				"element": "H" 
			},
			{
				"x": -0.0378896404,
				"y": 1.788203957,
				"z": -0.8848223731,
				"element": "H" 
			}
		],
		 "valence_orbital": [ 
			{
				"type": "occ",
				"energy": -0.30468,
				"method": "rhf"
			},
			{
				"type": "occ",
				"energy": -0.29951,
				"method": "rhf"
			},
			{
				"type": "occ",
				"energy": -0.28959,
				"method": "rhf"
			},
			{
				"type": "occ",
				"energy": -0.28732,
				"method": "rhf"
			},
			{
				"type": "occ",
				"energy": -0.27303,
				"method": "rhf"
			},
			{
				"type": "unocc",
				"energy": -0.09047,
				"method": "rhf"
			},
			{
				"type": "unocc",
				"energy": -0.03825,
				"method": "rhf"
			},
			{
				"type": "unocc",
				"energy": 0.00245,
				"method": "rhf"
			},
			{
				"type": "unocc",
				"energy": 0.05598,
				"method": "rhf"
			},
			{
				"type": "unocc",
				"energy": 0.07305,
				"method": "rhf"
			}
		],
		"cosmo_sigma_profile": { 
			"-0.025": 0.0,
			"-0.024": 0.0,
			"-0.023": 0.0,
			"-0.022": 0.0,
			"-0.021": 0.0,
			"-0.02": 0.0,
			"-0.019": 0.0,
			"-0.018": 0.0,
			"-0.017": 0.0,
			"-0.016": 0.0,
			"-0.015": 0.0,
			"-0.014": 0.0,
			"-0.013": 0.0,
			"-0.012": 0.0,
			"-0.011": 0.0,
			"-0.01": 0.136192227594,
			"-0.009": 5.00656031013,
			"-0.008": 13.1375337129,
			"-0.007": 15.5485647433,
			"-0.006": 15.4447073093,
			"-0.005": 14.9318278154,
			"-0.004": 15.0479047701,
			"-0.003": 10.9068313322,
			"-0.002": 9.77404336421,
			"-0.001": 11.5055643218,
			"0.0": 14.3631452087,
			"0.001": 17.5500428556,
			"0.002": 6.45376795212,
			"0.003": 4.34225192227,
			"0.004": 4.61202848354,
			"0.005": 2.88236629647,
			"0.006": 3.10093929534,
			"0.007": 4.86409103971,
			"0.008": 4.78515194067,
			"0.009": 5.22703772074,
			"0.01": 9.06073653696,
			"0.011": 12.6279899061,
			"0.012": 8.47342174233,
			"0.013": 0.401434104585,
			"0.014": 0.0,
			"0.015": 0.0,
			"0.016": 0.0,
			"0.017": 0.0,
			"0.018": 0.0,
			"0.019": 0.0,
			"0.02": 0.0,
			"0.021": 0.0,
			"0.022": 0.0,
			"0.023": 0.0,
			"0.024": 0.0,
			"0.025": 0.0
		}
	}
}
