{
	 "smiles": "NC1=C2CN(CC2=CC=C1)C1=NC=CS1", 
	 "Tm": 393.15, 
	 "num_atms": 26, 
	 "gaussian": { 
		 "optdone": 1, 
		 "sigma_profile": "yes", 
		 "theory": "DFT", 
		 "functional": "B3LYP", 
		 "basiset": "6-31G**", 
		 "properties": { 
			 "R2extent": 4544.16, 
			 "electric_dipole_moment_norm": 3.24668167365, 
			 "electric_quadrupole_moment_norm": 13.2767987395, 
			 "total_energy": -988.234520021, 
			 "HOMO_LUMO_gap": 0.19062, 
			 "cosmo_polarized_energy": -12.7, 
			 "cosmo_cavitation_energy": 30.72, 
			 "cosmo_dispersion_energy": -23.41, 
			 "cosmo_repulsion_energy": 1.77, 
			 "cosmo_total_nonelectrostatic_energy": 9.07, 
			 "SMD_solvation_energy": 2.58 
		},
		"coords": [
			{
				"x": -0.3738305177,
				"y": -2.9469538422,
				"z": 3.3579291774,
				"element": "N" 
			},
			{
				"x": -1.1909476857,
				"y": -2.2847823775,
				"z": 2.4388013918,
				"element": "C" 
			},
			{
				"x": -0.6406910601,
				"y": -1.475772065,
				"z": 1.4345398493,
				"element": "C" 
			},
			{
				"x": 0.8131507591,
				"y": -1.1572799868,
				"z": 1.1989803648,
				"element": "C" 
			},
			{
				"x": 0.7526529121,
				"y": -0.2808269524,
				"z": 0.0339883923,
				"element": "N" 
			},
			{
				"x": -0.6042580042,
				"y": -0.0483708665,
				"z": -0.4726595707,
				"element": "C" 
			},
			{
				"x": -1.4479995518,
				"y": -0.8552450125,
				"z": 0.4821063391,
				"element": "C" 
			},
			{
				"x": -2.8311826789,
				"y": -1.0205765262,
				"z": 0.4880828061,
				"element": "C" 
			},
			{
				"x": -3.3866099976,
				"y": -1.8309684217,
				"z": 1.4823690809,
				"element": "C" 
			},
			{
				"x": -2.5874398409,
				"y": -2.4510884013,
				"z": 2.4431707459,
				"element": "C" 
			},
			{
				"x": 1.832655791,
				"y": 0.2819484873,
				"z": -0.5595395812,
				"element": "C" 
			},
			{
				"x": 1.7679595853,
				"y": 1.0667872486,
				"z": -1.6066470877,
				"element": "N" 
			},
			{
				"x": 3.0307147074,
				"y": 1.4787988306,
				"z": -1.9714912807,
				"element": "C" 
			},
			{
				"x": 4.0747284788,
				"y": 1.0279053669,
				"z": -1.2258793665,
				"element": "C" 
			},
			{
				"x": 3.4771998182,
				"y": -0.0070259392,
				"z": 0.0561627489,
				"element": "S" 
			},
			{
				"x": 0.49263573,
				"y": -2.4788682963,
				"z": 3.5870474569,
				"element": "H" 
			},
			{
				"x": -0.8485581252,
				"y": -3.2742896515,
				"z": 4.188396931,
				"element": "H" 
			},
			{
				"x": 1.2861522434,
				"y": -0.6445570823,
				"z": 2.0554844736,
				"element": "H" 
			},
			{
				"x": 1.4140935186,
				"y": -2.0592112651,
				"z": 0.9958597353,
				"element": "H" 
			},
			{
				"x": -0.6936489805,
				"y": -0.3832600493,
				"z": -1.5150099301,
				"element": "H" 
			},
			{
				"x": -0.845462687,
				"y": 1.0232603249,
				"z": -0.4622601157,
				"element": "H" 
			},
			{
				"x": -3.4604477481,
				"y": -0.5391640291,
				"z": -0.2540346398,
				"element": "H" 
			},
			{
				"x": -4.4620505189,
				"y": -1.9809276893,
				"z": 1.5162138421,
				"element": "H" 
			},
			{
				"x": -3.044808832,
				"y": -3.074981174,
				"z": 3.2072417875,
				"element": "H" 
			},
			{
				"x": 3.1347215402,
				"y": 2.1368580154,
				"z": -2.827351245,
				"element": "H" 
			},
			{
				"x": 5.1308711443,
				"y": 1.2237913544,
				"z": -1.3353023056,
				"element": "H" 
			}
		],
		 "valence_orbital": [ 
			{
				"type": "occ",
				"energy": -0.26372,
				"method": "rhf"
			},
			{
				"type": "occ",
				"energy": -0.26169,
				"method": "rhf"
			},
			{
				"type": "occ",
				"energy": -0.24041,
				"method": "rhf"
			},
			{
				"type": "occ",
				"energy": -0.21028,
				"method": "rhf"
			},
			{
				"type": "occ",
				"energy": -0.19058,
				"method": "rhf"
			},
			{
				"type": "unocc",
				"energy": 4e-05,
				"method": "rhf"
			},
			{
				"type": "unocc",
				"energy": 0.00269,
				"method": "rhf"
			},
			{
				"type": "unocc",
				"energy": 0.01613,
				"method": "rhf"
			},
			{
				"type": "unocc",
				"energy": 0.0233,
				"method": "rhf"
			},
			{
				"type": "unocc",
				"energy": 0.06366,
				"method": "rhf"
			}
		],
		"cosmo_sigma_profile": { 
			"-0.025": 0.0,
			"-0.024": 0.0,
			"-0.023": 0.0,
			"-0.022": 0.0,
			"-0.021": 0.0,
			"-0.02": 0.0,
			"-0.019": 0.0,
			"-0.018": 0.0,
			"-0.017": 0.0,
			"-0.016": 0.0,
			"-0.015": 0.0,
			"-0.014": 0.0,
			"-0.013": 0.282756568787,
			"-0.012": 2.90260134177,
			"-0.011": 2.72544242543,
			"-0.01": 3.14998364075,
			"-0.009": 3.76044926317,
			"-0.008": 4.49865692896,
			"-0.007": 5.3029770775,
			"-0.006": 8.64994872829,
			"-0.005": 18.3222462733,
			"-0.004": 20.3368488142,
			"-0.003": 18.2236847318,
			"-0.002": 15.6936808995,
			"-0.001": 14.6581751459,
			"0.0": 13.8236093764,
			"0.001": 14.4292210035,
			"0.002": 16.8046262766,
			"0.003": 14.9694732883,
			"0.004": 16.0030850044,
			"0.005": 17.3688549397,
			"0.006": 13.8566656346,
			"0.007": 6.65088897357,
			"0.008": 2.62029838753,
			"0.009": 2.67738281871,
			"0.01": 1.58166686078,
			"0.011": 1.46784595213,
			"0.012": 1.59381239452,
			"0.013": 1.59411486392,
			"0.014": 1.69218901963,
			"0.015": 0.843096154414,
			"0.016": 0.237254363963,
			"0.017": 0.0,
			"0.018": 0.0,
			"0.019": 0.0,
			"0.02": 0.0,
			"0.021": 0.0,
			"0.022": 0.0,
			"0.023": 0.0,
			"0.024": 0.0,
			"0.025": 0.0
		}
	}
}
