{
	 "smiles": "CC1=C(NC(=O)C2=CC=C(Br)C=C2)C=C(C=C1)C(O)=O", 
	 "Tm": 583.15, 
	 "num_atms": 32, 
	 "gaussian": { 
		 "optdone": 1, 
		 "sigma_profile": "yes", 
		 "theory": "DFT", 
		 "functional": "B3LYP", 
		 "basiset": "6-31G**", 
		 "properties": { 
			 "R2extent": 13694.4142, 
			 "electric_dipole_moment_norm": 5.20016481085, 
			 "electric_quadrupole_moment_norm": 33.4199009342, 
			 "total_energy": -3430.68900011, 
			 "HOMO_LUMO_gap": 0.18515, 
			 "cosmo_polarized_energy": -23.97, 
			 "cosmo_cavitation_energy": 39.61, 
			 "cosmo_dispersion_energy": -28.69, 
			 "cosmo_repulsion_energy": 2.18, 
			 "cosmo_total_nonelectrostatic_energy": 13.1, 
			 "SMD_solvation_energy": 7.15 
		},
		"coords": [
			{
				"x": 2.873723836,
				"y": -0.7608289341,
				"z": -0.7157663372,
				"element": "C" 
			},
			{
				"x": 2.1411493382,
				"y": -0.5806734508,
				"z": 0.5858640494,
				"element": "C" 
			},
			{
				"x": 0.7343284046,
				"y": -0.5070042558,
				"z": 0.6533524519,
				"element": "C" 
			},
			{
				"x": -0.0706785025,
				"y": -0.5862951395,
				"z": -0.5174546015,
				"element": "N" 
			},
			{
				"x": -0.0114887526,
				"y": 0.3165375457,
				"z": -1.5678493208,
				"element": "C" 
			},
			{
				"x": 0.7989383198,
				"y": 1.2320877983,
				"z": -1.6102266685,
				"element": "O" 
			},
			{
				"x": -1.0165697304,
				"y": 0.0957532056,
				"z": -2.6610750038,
				"element": "C" 
			},
			{
				"x": -1.645376051,
				"y": -1.1337947447,
				"z": -2.9035863353,
				"element": "C" 
			},
			{
				"x": -2.5641640523,
				"y": -1.2705758965,
				"z": -3.9433511644,
				"element": "C" 
			},
			{
				"x": -2.8528254415,
				"y": -0.1657461166,
				"z": -4.7435047002,
				"element": "C" 
			},
			{
				"x": -4.1145839089,
				"y": -0.3437456845,
				"z": -6.1627837253,
				"element": "Br" 
			},
			{
				"x": -2.2282313272,
				"y": 1.0641594719,
				"z": -4.5298032536,
				"element": "C" 
			},
			{
				"x": -1.3073886588,
				"y": 1.1851636291,
				"z": -3.4935760173,
				"element": "C" 
			},
			{
				"x": 0.0882653411,
				"y": -0.4078088266,
				"z": 1.8900032931,
				"element": "C" 
			},
			{
				"x": 0.8165301447,
				"y": -0.360598755,
				"z": 3.0835566649,
				"element": "C" 
			},
			{
				"x": 2.2146288058,
				"y": -0.3799973549,
				"z": 3.0217941736,
				"element": "C" 
			},
			{
				"x": 2.8518428732,
				"y": -0.4971791628,
				"z": 1.7926824779,
				"element": "C" 
			},
			{
				"x": 0.1722776438,
				"y": -0.2405044475,
				"z": 4.4303893689,
				"element": "C" 
			},
			{
				"x": -1.1313989339,
				"y": -0.6250734725,
				"z": 4.5228144469,
				"element": "O" 
			},
			{
				"x": 0.7494497625,
				"y": 0.1702539852,
				"z": 5.4090461967,
				"element": "O" 
			},
			{
				"x": 3.9014407966,
				"y": -1.0872508851,
				"z": -0.5387578077,
				"element": "H" 
			},
			{
				"x": 2.3771533358,
				"y": -1.5054576224,
				"z": -1.3469331424,
				"element": "H" 
			},
			{
				"x": 2.8894708391,
				"y": 0.1754827453,
				"z": -1.2816663505,
				"element": "H" 
			},
			{
				"x": -0.9404208275,
				"y": -1.0905794878,
				"z": -0.41738565,
				"element": "H" 
			},
			{
				"x": -1.3971319861,
				"y": -2.0090520871,
				"z": -2.3101958875,
				"element": "H" 
			},
			{
				"x": -3.04225229,
				"y": -2.2239155551,
				"z": -4.136516699,
				"element": "H" 
			},
			{
				"x": -2.4589124078,
				"y": 1.9102474452,
				"z": -5.166835852,
				"element": "H" 
			},
			{
				"x": -0.7970715391,
				"y": 2.1248874164,
				"z": -3.3118852284,
				"element": "H" 
			},
			{
				"x": -0.9953640845,
				"y": -0.3082846853,
				"z": 1.8945530319,
				"element": "H" 
			},
			{
				"x": 2.7778993897,
				"y": -0.3153011661,
				"z": 3.9460917645,
				"element": "H" 
			},
			{
				"x": 3.9367838054,
				"y": -0.5422688317,
				"z": 1.7573900231,
				"element": "H" 
			},
			{
				"x": -1.3974241422,
				"y": -1.0889366801,
				"z": 3.7173158024,
				"element": "H" 
			}
		],
		 "valence_orbital": [ 
			{
				"type": "occ",
				"energy": -0.277,
				"method": "rhf"
			},
			{
				"type": "occ",
				"energy": -0.2748,
				"method": "rhf"
			},
			{
				"type": "occ",
				"energy": -0.26538,
				"method": "rhf"
			},
			{
				"type": "occ",
				"energy": -0.25944,
				"method": "rhf"
			},
			{
				"type": "occ",
				"energy": -0.2477,
				"method": "rhf"
			},
			{
				"type": "unocc",
				"energy": -0.06255,
				"method": "rhf"
			},
			{
				"type": "unocc",
				"energy": -0.05121,
				"method": "rhf"
			},
			{
				"type": "unocc",
				"energy": -0.03349,
				"method": "rhf"
			},
			{
				"type": "unocc",
				"energy": -0.02245,
				"method": "rhf"
			},
			{
				"type": "unocc",
				"energy": -0.00635,
				"method": "rhf"
			}
		],
		"cosmo_sigma_profile": { 
			"-0.025": 0.0,
			"-0.024": 0.0,
			"-0.023": 0.0,
			"-0.022": 0.0,
			"-0.021": 0.0,
			"-0.02": 0.0,
			"-0.019": 0.25827190275,
			"-0.018": 0.837613392647,
			"-0.017": 1.17022175992,
			"-0.016": 0.910020057408,
			"-0.015": 1.67039658311,
			"-0.014": 2.17699830529,
			"-0.013": 2.78850153776,
			"-0.012": 2.9741295682,
			"-0.011": 2.97679864958,
			"-0.01": 2.96080609476,
			"-0.009": 3.67522110243,
			"-0.008": 4.00020764513,
			"-0.007": 9.08303849153,
			"-0.006": 11.8973121718,
			"-0.005": 16.1067292636,
			"-0.004": 15.1375648503,
			"-0.003": 18.6413538836,
			"-0.002": 20.4398247866,
			"-0.001": 23.9090369339,
			"0.0": 25.8625974315,
			"0.001": 27.1998094322,
			"0.002": 33.1796891098,
			"0.003": 23.7762830753,
			"0.004": 19.0949930141,
			"0.005": 5.79655672412,
			"0.006": 4.8544416373,
			"0.007": 4.33548725,
			"0.008": 4.43578824911,
			"0.009": 4.62153757051,
			"0.01": 6.43348456998,
			"0.011": 7.32497551941,
			"0.012": 7.88076574133,
			"0.013": 4.15028509233,
			"0.014": 0.0945577176086,
			"0.015": 0.0,
			"0.016": 0.0,
			"0.017": 0.0,
			"0.018": 0.0,
			"0.019": 0.0,
			"0.02": 0.0,
			"0.021": 0.0,
			"0.022": 0.0,
			"0.023": 0.0,
			"0.024": 0.0,
			"0.025": 0.0
		}
	}
}
