{
	 "smiles": "FC1=C(NC(=O)CC(=O)NC2=C(F)C=CC=C2)C=CC=C1", 
	 "Tm": 432.15, 
	 "num_atms": 33, 
	 "gaussian": { 
		 "optdone": 1, 
		 "sigma_profile": "yes", 
		 "theory": "DFT", 
		 "functional": "B3LYP", 
		 "basiset": "6-31G**", 
		 "properties": { 
			 "R2extent": 8443.8131, 
			 "electric_dipole_moment_norm": 2.16026049124, 
			 "electric_quadrupole_moment_norm": 20.3086332854, 
			 "total_energy": -1038.48500137, 
			 "HOMO_LUMO_gap": 0.18907, 
			 "cosmo_polarized_energy": -12.92, 
			 "cosmo_cavitation_energy": 38.64, 
			 "cosmo_dispersion_energy": -27.42, 
			 "cosmo_repulsion_energy": 2.02, 
			 "cosmo_total_nonelectrostatic_energy": 13.24, 
			 "SMD_solvation_energy": 8.2 
		},
		"coords": [
			{
				"x": 4.6416336546,
				"y": 2.4284826235,
				"z": -0.4352550295,
				"element": "F" 
			},
			{
				"x": 4.5720606074,
				"y": 1.1175995516,
				"z": -0.1011127398,
				"element": "C" 
			},
			{
				"x": 3.2974044889,
				"y": 0.5487596305,
				"z": 0.0339099293,
				"element": "C" 
			},
			{
				"x": 2.1891455615,
				"y": 1.3880759322,
				"z": -0.2092004465,
				"element": "N" 
			},
			{
				"x": 0.935085026,
				"y": 1.4360546763,
				"z": 0.3467010063,
				"element": "C" 
			},
			{
				"x": 0.0979366611,
				"y": 2.2271450178,
				"z": -0.0825995317,
				"element": "O" 
			},
			{
				"x": 0.5865522867,
				"y": 0.5048018468,
				"z": 1.4960987192,
				"element": "C" 
			},
			{
				"x": -0.3641208857,
				"y": -0.6192303656,
				"z": 1.0483642688,
				"element": "C" 
			},
			{
				"x": -0.0857695387,
				"y": -1.7982744218,
				"z": 1.2354201361,
				"element": "O" 
			},
			{
				"x": -1.5055087841,
				"y": -0.156870517,
				"z": 0.4557643175,
				"element": "N" 
			},
			{
				"x": -2.5785063245,
				"y": -0.9096082352,
				"z": -0.0526691229,
				"element": "C" 
			},
			{
				"x": -3.6230017384,
				"y": -0.1931632031,
				"z": -0.6554950065,
				"element": "C" 
			},
			{
				"x": -3.5086375999,
				"y": 1.1582698698,
				"z": -0.7051983793,
				"element": "F" 
			},
			{
				"x": -4.7422069478,
				"y": -0.8064263103,
				"z": -1.18939643,
				"element": "C" 
			},
			{
				"x": -4.8398930151,
				"y": -2.1988609649,
				"z": -1.1252416223,
				"element": "C" 
			},
			{
				"x": -3.8160322569,
				"y": -2.9354515959,
				"z": -0.52935467,
				"element": "C" 
			},
			{
				"x": -2.6898871585,
				"y": -2.3062956118,
				"z": 0.0058417609,
				"element": "C" 
			},
			{
				"x": 3.2201537556,
				"y": -0.8193506706,
				"z": 0.3315853253,
				"element": "C" 
			},
			{
				"x": 4.3885184976,
				"y": -1.5570177158,
				"z": 0.5355624381,
				"element": "C" 
			},
			{
				"x": 5.6433132698,
				"y": -0.9607134938,
				"z": 0.4091876744,
				"element": "C" 
			},
			{
				"x": 5.7380968291,
				"y": 0.3923786161,
				"z": 0.0755602755,
				"element": "C" 
			},
			{
				"x": 2.3477915482,
				"y": 2.1487988387,
				"z": -0.8602222953,
				"element": "H" 
			},
			{
				"x": 0.0697220052,
				"y": 1.1282110447,
				"z": 2.2328090877,
				"element": "H" 
			},
			{
				"x": 1.4489590314,
				"y": 0.0405243315,
				"z": 1.9684320556,
				"element": "H" 
			},
			{
				"x": -1.5378988161,
				"y": 0.8437650717,
				"z": 0.2725572835,
				"element": "H" 
			},
			{
				"x": -5.5129236905,
				"y": -0.1922389557,
				"z": -1.6422887494,
				"element": "H" 
			},
			{
				"x": -5.7105384728,
				"y": -2.6978256992,
				"z": -1.5385900593,
				"element": "H" 
			},
			{
				"x": -3.8872060584,
				"y": -4.0175229232,
				"z": -0.4767708154,
				"element": "H" 
			},
			{
				"x": -1.8934047319,
				"y": -2.8733920457,
				"z": 0.466328033,
				"element": "H" 
			},
			{
				"x": 2.2573688833,
				"y": -1.3142890345,
				"z": 0.3985605024,
				"element": "H" 
			},
			{
				"x": 4.3084445998,
				"y": -2.61223888,
				"z": 0.7759454021,
				"element": "H" 
			},
			{
				"x": 6.5467813395,
				"y": -1.5431674031,
				"z": 0.5578854957,
				"element": "H" 
			},
			{
				"x": 6.6929679734,
				"y": 0.8928709959,
				"z": -0.0427188134,
				"element": "H" 
			}
		],
		 "valence_orbital": [ 
			{
				"type": "occ",
				"energy": -0.26362,
				"method": "rhf"
			},
			{
				"type": "occ",
				"energy": -0.26158,
				"method": "rhf"
			},
			{
				"type": "occ",
				"energy": -0.25013,
				"method": "rhf"
			},
			{
				"type": "occ",
				"energy": -0.23874,
				"method": "rhf"
			},
			{
				"type": "occ",
				"energy": -0.22349,
				"method": "rhf"
			},
			{
				"type": "unocc",
				"energy": -0.03442,
				"method": "rhf"
			},
			{
				"type": "unocc",
				"energy": -0.01911,
				"method": "rhf"
			},
			{
				"type": "unocc",
				"energy": -0.01445,
				"method": "rhf"
			},
			{
				"type": "unocc",
				"energy": 0.00068,
				"method": "rhf"
			},
			{
				"type": "unocc",
				"energy": 0.01546,
				"method": "rhf"
			}
		],
		"cosmo_sigma_profile": { 
			"-0.025": 0.0,
			"-0.024": 0.0,
			"-0.023": 0.0,
			"-0.022": 0.0,
			"-0.021": 0.0,
			"-0.02": 0.0,
			"-0.019": 0.0,
			"-0.018": 0.0,
			"-0.017": 0.0,
			"-0.016": 0.0,
			"-0.015": 0.0,
			"-0.014": 0.348491373888,
			"-0.013": 0.99603324002,
			"-0.012": 0.876165836222,
			"-0.011": 0.307677002528,
			"-0.01": 1.0488409699,
			"-0.009": 1.01850505898,
			"-0.008": 5.99509748416,
			"-0.007": 9.75724338465,
			"-0.006": 17.5052113778,
			"-0.005": 20.5238556562,
			"-0.004": 23.2786857308,
			"-0.003": 18.2454981482,
			"-0.002": 19.678081692,
			"-0.001": 20.5846223851,
			"0.0": 25.262103013,
			"0.001": 26.9797865615,
			"0.002": 24.5081718691,
			"0.003": 30.4473316002,
			"0.004": 29.0477464273,
			"0.005": 9.19029462277,
			"0.006": 3.08316630672,
			"0.007": 1.44237753103,
			"0.008": 2.14143139297,
			"0.009": 3.24717122015,
			"0.01": 4.04773021321,
			"0.011": 3.45429954097,
			"0.012": 5.87397546295,
			"0.013": 2.03647490138,
			"0.014": 0.0196565432693,
			"0.015": 0.0,
			"0.016": 0.0,
			"0.017": 0.0,
			"0.018": 0.0,
			"0.019": 0.0,
			"0.02": 0.0,
			"0.021": 0.0,
			"0.022": 0.0,
			"0.023": 0.0,
			"0.024": 0.0,
			"0.0": 0.0
		}
	}
}
