{
	 "smiles": "CC1=CC(=CC=C1N=C=O)[N+]([O-])=O", 
	 "Tm": 356.15, 
	 "num_atms": 19, 
	 "gaussian": { 
		 "optdone": 1, 
		 "sigma_profile": "yes", 
		 "theory": "DFT", 
		 "functional": "B3LYP", 
		 "basiset": "6-31G**", 
		 "properties": { 
			 "R2extent": 3599.8562, 
			 "electric_dipole_moment_norm": 3.12692035236, 
			 "electric_quadrupole_moment_norm": 20.533502913, 
			 "total_energy": -643.548841473, 
			 "HOMO_LUMO_gap": 0.1664, 
			 "cosmo_polarized_energy": -9.32, 
			 "cosmo_cavitation_energy": 25.68, 
			 "cosmo_dispersion_energy": -18.27, 
			 "cosmo_repulsion_energy": 1.45, 
			 "cosmo_total_nonelectrostatic_energy": 8.86, 
			 "SMD_solvation_energy": 9.27 
		},
		"coords": [
			{
				"x": 1.5323041074,
				"y": 1.3462823211,
				"z": -0.5622195262,
				"element": "C" 
			},
			{
				"x": 0.2341672664,
				"y": 0.6501457978,
				"z": -0.8778626526,
				"element": "C" 
			},
			{
				"x": 0.2095113721,
				"y": -0.5978010743,
				"z": -1.4991448745,
				"element": "C" 
			},
			{
				"x": -1.0054700067,
				"y": -1.2199948538,
				"z": -1.7801297837,
				"element": "C" 
			},
			{
				"x": -2.2268443681,
				"y": -0.6325098609,
				"z": -1.4582036689,
				"element": "C" 
			},
			{
				"x": -2.218531073,
				"y": 0.6098480849,
				"z": -0.8392552615,
				"element": "C" 
			},
			{
				"x": -1.001875178,
				"y": 1.2490015371,
				"z": -0.549775822,
				"element": "C" 
			},
			{
				"x": -0.9706104332,
				"y": 2.4965729712,
				"z": 0.0710574303,
				"element": "N" 
			},
			{
				"x": -1.7314579847,
				"y": 3.3333010287,
				"z": 0.5068815772,
				"element": "C" 
			},
			{
				"x": -2.3539314433,
				"y": 4.2199359648,
				"z": 0.9640645233,
				"element": "O" 
			},
			{
				"x": -0.9978643626,
				"y": -2.5341588307,
				"z": -2.4351529397,
				"element": "N" 
			},
			{
				"x": -2.0859414691,
				"y": -3.0598083208,
				"z": -2.6711045064,
				"element": "O" 
			},
			{
				"x": 0.0948643959,
				"y": -3.0308603041,
				"z": -2.7087929585,
				"element": "O" 
			},
			{
				"x": 2.3851526277,
				"y": 0.743594264,
				"z": -0.8819826931,
				"element": "H" 
			},
			{
				"x": 1.5903999873,
				"y": 2.3191677061,
				"z": -1.061807367,
				"element": "H" 
			},
			{
				"x": 1.6275094904,
				"y": 1.5368945937,
				"z": 0.5120167705,
				"element": "H" 
			},
			{
				"x": 1.1300089993,
				"y": -1.0997854562,
				"z": -1.7712435713,
				"element": "H" 
			},
			{
				"x": -3.1497702632,
				"y": -1.147227756,
				"z": -1.6927257763,
				"element": "H" 
			},
			{
				"x": -3.1530216645,
				"y": 1.0949021874,
				"z": -0.5753188994,
				"element": "H" 
			}
		],
		 "valence_orbital": [ 
			{
				"type": "occ",
				"energy": -0.31159,
				"method": "rhf"
			},
			{
				"type": "occ",
				"energy": -0.30939,
				"method": "rhf"
			},
			{
				"type": "occ",
				"energy": -0.29257,
				"method": "rhf"
			},
			{
				"type": "occ",
				"energy": -0.28169,
				"method": "rhf"
			},
			{
				"type": "occ",
				"energy": -0.26095,
				"method": "rhf"
			},
			{
				"type": "unocc",
				"energy": -0.09455,
				"method": "rhf"
			},
			{
				"type": "unocc",
				"energy": -0.03416,
				"method": "rhf"
			},
			{
				"type": "unocc",
				"energy": -0.02051,
				"method": "rhf"
			},
			{
				"type": "unocc",
				"energy": -0.00833,
				"method": "rhf"
			},
			{
				"type": "unocc",
				"energy": 0.06363,
				"method": "rhf"
			}
		],
		"cosmo_sigma_profile": { 
			"-0.025": 0.0,
			"-0.024": 0.0,
			"-0.023": 0.0,
			"-0.022": 0.0,
			"-0.021": 0.0,
			"-0.02": 0.0,
			"-0.019": 0.0,
			"-0.018": 0.0,
			"-0.017": 0.0,
			"-0.016": 0.0,
			"-0.015": 0.0,
			"-0.014": 0.0,
			"-0.013": 0.0,
			"-0.012": 0.0,
			"-0.011": 0.0,
			"-0.01": 0.236457625943,
			"-0.009": 2.68059491359,
			"-0.008": 3.54976160105,
			"-0.007": 6.64078433972,
			"-0.006": 8.87934878872,
			"-0.005": 10.6916158601,
			"-0.004": 14.135411519,
			"-0.003": 16.9962538226,
			"-0.002": 17.9666696811,
			"-0.001": 25.4449811615,
			"0.0": 21.0853542409,
			"0.001": 17.8242409937,
			"0.002": 8.87776742557,
			"0.003": 4.59775563944,
			"0.004": 5.13056063529,
			"0.005": 5.3934194586,
			"0.006": 7.64356336724,
			"0.007": 13.5625356381,
			"0.008": 7.8786016288,
			"0.009": 4.77005909986,
			"0.01": 2.84813318394,
			"0.011": 0.41075462823,
			"0.012": 0.0,
			"0.013": 0.0,
			"0.014": 0.0,
			"0.015": 0.0,
			"0.016": 0.0,
			"0.017": 0.0,
			"0.018": 0.0,
			"0.019": 0.0,
			"0.02": 0.0,
			"0.021": 0.0,
			"0.022": 0.0,
			"0.023": 0.0,
			"0.024": 0.0,
			"0.025": 0.0
		}
	}
}
