{
	 "smiles": "CN(C1CCCCC1)C(=O)C1=C(Cl)C=C(N)C=C1", 
	 "Tm": 446.15, 
	 "num_atms": 37, 
	 "gaussian": { 
		 "optdone": 1, 
		 "sigma_profile": "yes", 
		 "theory": "DFT", 
		 "functional": "B3LYP", 
		 "basiset": "6-31G**", 
		 "properties": { 
			 "R2extent": 5721.6723, 
			 "electric_dipole_moment_norm": 5.38356053463, 
			 "electric_quadrupole_moment_norm": 26.0610926095, 
			 "total_energy": -1189.87896346, 
			 "HOMO_LUMO_gap": 0.19836, 
			 "cosmo_polarized_energy": -16.46, 
			 "cosmo_cavitation_energy": 39.01, 
			 "cosmo_dispersion_energy": -27.04, 
			 "cosmo_repulsion_energy": 2.11, 
			 "cosmo_total_nonelectrostatic_energy": 14.07, 
			 "SMD_solvation_energy": 6.11 
		},
		"coords": [
			{
				"x": -0.7659609965,
				"y": 2.3541043877,
				"z": -2.8683019062,
				"element": "C" 
			},
			{
				"x": -0.4806176278,
				"y": 1.5738747238,
				"z": -1.6661188515,
				"element": "N" 
			},
			{
				"x": -0.6421835874,
				"y": 0.1112276427,
				"z": -1.7177160446,
				"element": "C" 
			},
			{
				"x": 0.3758896221,
				"y": -0.5456041934,
				"z": -2.6779400397,
				"element": "C" 
			},
			{
				"x": 0.0345741448,
				"y": -2.0288322119,
				"z": -2.8788936177,
				"element": "C" 
			},
			{
				"x": -1.3364087731,
				"y": -2.2146584169,
				"z": -3.5819792364,
				"element": "C" 
			},
			{
				"x": -2.242220381,
				"y": -0.9734342475,
				"z": -3.4337422492,
				"element": "C" 
			},
			{
				"x": -2.102735597,
				"y": -0.3291402009,
				"z": -2.0464022096,
				"element": "C" 
			},
			{
				"x": 0.2006213386,
				"y": 2.2341346938,
				"z": -0.6733936879,
				"element": "C" 
			},
			{
				"x": 0.5716541637,
				"y": 3.3991868216,
				"z": -0.8053622789,
				"element": "O" 
			},
			{
				"x": 0.531880696,
				"y": 1.5033272683,
				"z": 0.6081220499,
				"element": "C" 
			},
			{
				"x": -0.3930510664,
				"y": 1.0747905489,
				"z": 1.5685379992,
				"element": "C" 
			},
			{
				"x": -2.1253781719,
				"y": 1.2607097502,
				"z": 1.2927730028,
				"element": "Cl" 
			},
			{
				"x": -0.0020971649,
				"y": 0.5116915172,
				"z": 2.7803125044,
				"element": "C" 
			},
			{
				"x": 1.3613650249,
				"y": 0.3596591214,
				"z": 3.0796869939,
				"element": "C" 
			},
			{
				"x": 1.7620768505,
				"y": -0.1575734633,
				"z": 4.3060152734,
				"element": "N" 
			},
			{
				"x": 2.3069687864,
				"y": 0.8044319885,
				"z": 2.1377309883,
				"element": "C" 
			},
			{
				"x": 1.8894301185,
				"y": 1.3751719013,
				"z": 0.9443513067,
				"element": "C" 
			},
			{
				"x": -1.6147857606,
				"y": 1.9165400818,
				"z": -3.3968541988,
				"element": "H" 
			},
			{
				"x": -1.0053296228,
				"y": 3.3764659406,
				"z": -2.5767286416,
				"element": "H" 
			},
			{
				"x": 0.0936183079,
				"y": 2.395435512,
				"z": -3.5491091023,
				"element": "H" 
			},
			{
				"x": -0.4053284393,
				"y": -0.2458889173,
				"z": -0.7151359082,
				"element": "H" 
			},
			{
				"x": 1.384148504,
				"y": -0.4269111465,
				"z": -2.2651402745,
				"element": "H" 
			},
			{
				"x": 0.3733041929,
				"y": -0.0319915297,
				"z": -3.647019559,
				"element": "H" 
			},
			{
				"x": 0.0180477152,
				"y": -2.5169667663,
				"z": -1.8953872976,
				"element": "H" 
			},
			{
				"x": 0.8264983257,
				"y": -2.5265134262,
				"z": -3.4487114142,
				"element": "H" 
			},
			{
				"x": -1.1887146905,
				"y": -2.4258526004,
				"z": -4.6474063246,
				"element": "H" 
			},
			{
				"x": -1.8432390155,
				"y": -3.0927517662,
				"z": -3.1646080998,
				"element": "H" 
			},
			{
				"x": -3.287697868,
				"y": -1.2468965303,
				"z": -3.615697991,
				"element": "H" 
			},
			{
				"x": -1.9848472291,
				"y": -0.2393835333,
				"z": -4.2073835628,
				"element": "H" 
			},
			{
				"x": -2.4261556152,
				"y": -1.0522331833,
				"z": -1.2884261415,
				"element": "H" 
			},
			{
				"x": -2.773802014,
				"y": 0.5286706812,
				"z": -1.9427871253,
				"element": "H" 
			},
			{
				"x": -0.7576273126,
				"y": 0.2081067103,
				"z": 3.4975350291,
				"element": "H" 
			},
			{
				"x": 1.0885043943,
				"y": -0.7362828889,
				"z": 4.7868033268,
				"element": "H" 
			},
			{
				"x": 2.6977419718,
				"y": -0.5357406446,
				"z": 4.3408884167,
				"element": "H" 
			},
			{
				"x": 3.3676856914,
				"y": 0.7171195914,
				"z": 2.3568981299,
				"element": "H" 
			},
			{
				"x": 2.6277710848,
				"y": 1.7451067843,
				"z": 0.2396907416,
				"element": "H" 
			}
		],
		 "valence_orbital": [ 
			{
				"type": "occ",
				"energy": -0.30186,
				"method": "rhf"
			},
			{
				"type": "occ",
				"energy": -0.24857,
				"method": "rhf"
			},
			{
				"type": "occ",
				"energy": -0.24308,
				"method": "rhf"
			},
			{
				"type": "occ",
				"energy": -0.22503,
				"method": "rhf"
			},
			{
				"type": "occ",
				"energy": -0.20932,
				"method": "rhf"
			},
			{
				"type": "unocc",
				"energy": -0.01096,
				"method": "rhf"
			},
			{
				"type": "unocc",
				"energy": -0.00546,
				"method": "rhf"
			},
			{
				"type": "unocc",
				"energy": 0.03129,
				"method": "rhf"
			},
			{
				"type": "unocc",
				"energy": 0.04378,
				"method": "rhf"
			},
			{
				"type": "unocc",
				"energy": 0.07217,
				"method": "rhf"
			}
		],
		"cosmo_sigma_profile": { 
			"-0.025": 0.0,
			"-0.024": 0.0,
			"-0.023": 0.0,
			"-0.022": 0.0,
			"-0.021": 0.0,
			"-0.02": 0.0,
			"-0.019": 0.0,
			"-0.018": 0.0,
			"-0.017": 0.0,
			"-0.016": 0.0,
			"-0.015": 0.0,
			"-0.014": 0.0288971726652,
			"-0.013": 1.82721915366,
			"-0.012": 3.17270172843,
			"-0.011": 3.76568376874,
			"-0.01": 2.76027458132,
			"-0.009": 2.81546885507,
			"-0.008": 3.33362644373,
			"-0.007": 4.89815617994,
			"-0.006": 5.94528244811,
			"-0.005": 5.95177685236,
			"-0.004": 15.2558866935,
			"-0.003": 27.7591973645,
			"-0.002": 36.4514057235,
			"-0.001": 40.6334562727,
			"0.0": 33.6991581509,
			"0.001": 25.9029537153,
			"0.002": 18.2910070677,
			"0.003": 16.9656921061,
			"0.004": 18.8404441676,
			"0.005": 11.0241275659,
			"0.006": 3.18029148317,
			"0.007": 2.98021618171,
			"0.008": 1.92128215254,
			"0.009": 2.01006319002,
			"0.01": 2.65934206875,
			"0.011": 2.44870679015,
			"0.012": 2.18099313546,
			"0.013": 3.16078953037,
			"0.014": 5.56402197019,
			"0.015": 1.46211858979,
			"0.016": 0.131774796124,
			"0.017": 0.0,
			"0.018": 0.0,
			"0.019": 0.0,
			"0.02": 0.0,
			"0.021": 0.0,
			"0.022": 0.0,
			"0.023": 0.0,
			"0.024": 0.0,
			"0.025": 0.0
		}
	}
}
