{
	 "smiles": "COC1=CC=C(C=C1)C1=NN=C2SC(NN12)C1=CC=CC=C1OC", 
	 "Tm": 439.15, 
	 "num_atms": 40, 
	 "gaussian": { 
		 "optdone": 1, 
		 "sigma_profile": "yes", 
		 "theory": "DFT", 
		 "functional": "B3LYP", 
		 "basiset": "6-31G**", 
		 "properties": { 
			 "R2extent": 9957.2393, 
			 "electric_dipole_moment_norm": 7.07758374376, 
			 "electric_quadrupole_moment_norm": 25.9496486487, 
			 "total_energy": -1424.99718735, 
			 "HOMO_LUMO_gap": 0.16343, 
			 "cosmo_polarized_energy": -24.48, 
			 "cosmo_cavitation_energy": 45.03, 
			 "cosmo_dispersion_energy": -31.49, 
			 "cosmo_repulsion_energy": 2.31, 
			 "cosmo_total_nonelectrostatic_energy": 15.85, 
			 "SMD_solvation_energy": 5.97 
		},
		"coords": [
			{
				"x": 0.9256387305,
				"y": -5.7590963585,
				"z": 0.9367353063,
				"element": "C" 
			},
			{
				"x": -0.3572491434,
				"y": -5.3760733563,
				"z": 0.4673757711,
				"element": "O" 
			},
			{
				"x": -0.7144257625,
				"y": -4.0636519929,
				"z": 0.5597288476,
				"element": "C" 
			},
			{
				"x": -1.9966638647,
				"y": -3.7458602557,
				"z": 0.0798784226,
				"element": "C" 
			},
			{
				"x": -2.4590851802,
				"y": -2.4425713362,
				"z": 0.1321493438,
				"element": "C" 
			},
			{
				"x": -1.6558547682,
				"y": -1.4127142397,
				"z": 0.6636937836,
				"element": "C" 
			},
			{
				"x": -0.377472004,
				"y": -1.7377017915,
				"z": 1.1346311437,
				"element": "C" 
			},
			{
				"x": 0.0949866229,
				"y": -3.051356205,
				"z": 1.0868890575,
				"element": "C" 
			},
			{
				"x": -2.1885593545,
				"y": -0.0503687864,
				"z": 0.6796012028,
				"element": "C" 
			},
			{
				"x": -3.3016493883,
				"y": 0.3386498063,
				"z": 0.0759281158,
				"element": "N" 
			},
			{
				"x": -3.4864274862,
				"y": 1.7004650108,
				"z": 0.2837546217,
				"element": "N" 
			},
			{
				"x": -2.4913387274,
				"y": 2.0861870556,
				"z": 1.0380934828,
				"element": "C" 
			},
			{
				"x": -1.8783342317,
				"y": 3.6139700007,
				"z": 1.6547996837,
				"element": "S" 
			},
			{
				"x": -0.1933118372,
				"y": 2.7502867949,
				"z": 1.9366093784,
				"element": "C" 
			},
			{
				"x": -0.4803496406,
				"y": 1.301195137,
				"z": 2.0498962745,
				"element": "N" 
			},
			{
				"x": -1.6646720182,
				"y": 1.0403795822,
				"z": 1.3374001891,
				"element": "N" 
			},
			{
				"x": 0.8705604659,
				"y": 3.1432483594,
				"z": 0.9415848533,
				"element": "C" 
			},
			{
				"x": 1.9576570057,
				"y": 3.8896323787,
				"z": 1.4052526442,
				"element": "C" 
			},
			{
				"x": 2.976111772,
				"y": 4.3180990604,
				"z": 0.5520446313,
				"element": "C" 
			},
			{
				"x": 2.9064788912,
				"y": 3.9916561466,
				"z": -0.7992823597,
				"element": "C" 
			},
			{
				"x": 1.8338756893,
				"y": 3.2471684728,
				"z": -1.2953985537,
				"element": "C" 
			},
			{
				"x": 0.8161662626,
				"y": 2.8218851028,
				"z": -0.4348293614,
				"element": "C" 
			},
			{
				"x": -0.257963931,
				"y": 2.098830518,
				"z": -0.8342663358,
				"element": "O" 
			},
			{
				"x": -0.456991628,
				"y": 1.8307514641,
				"z": -2.2180810652,
				"element": "C" 
			},
			{
				"x": 1.7274017432,
				"y": -5.2537062226,
				"z": 0.3829707622,
				"element": "H" 
			},
			{
				"x": 0.9986316523,
				"y": -6.8349975929,
				"z": 0.7709505896,
				"element": "H" 
			},
			{
				"x": 1.0440532701,
				"y": -5.5503750245,
				"z": 2.0078726097,
				"element": "H" 
			},
			{
				"x": -2.609800707,
				"y": -4.5442730389,
				"z": -0.3251040932,
				"element": "H" 
			},
			{
				"x": -3.4477144752,
				"y": -2.1924209006,
				"z": -0.236859774,
				"element": "H" 
			},
			{
				"x": 0.2651888129,
				"y": -0.9587146302,
				"z": 1.530072554,
				"element": "H" 
			},
			{
				"x": 1.0898030351,
				"y": -3.2678409365,
				"z": 1.45770291,
				"element": "H" 
			},
			{
				"x": 0.141400437,
				"y": 3.0807998889,
				"z": 2.9210596341,
				"element": "H" 
			},
			{
				"x": -0.686211609,
				"y": 1.1005759154,
				"z": 3.0296991953,
				"element": "H" 
			},
			{
				"x": 2.0048666334,
				"y": 4.1432762752,
				"z": 2.4618587208,
				"element": "H" 
			},
			{
				"x": 3.8078315421,
				"y": 4.8962653024,
				"z": 0.9410211159,
				"element": "H" 
			},
			{
				"x": 3.6880980181,
				"y": 4.3137923534,
				"z": -1.4812778563,
				"element": "H" 
			},
			{
				"x": 1.7942369175,
				"y": 3.000559292,
				"z": -2.3494250871,
				"element": "H" 
			},
			{
				"x": -0.5100106514,
				"y": 2.7594605144,
				"z": -2.7983134361,
				"element": "H" 
			},
			{
				"x": -1.4110772224,
				"y": 1.3072627633,
				"z": -2.2773234426,
				"element": "H" 
			},
			{
				"x": 0.3399761295,
				"y": 1.1928254733,
				"z": -2.6190934802,
				"element": "H" 
			}
		],
		 "valence_orbital": [ 
			{
				"type": "occ",
				"energy": -0.25301,
				"method": "rhf"
			},
			{
				"type": "occ",
				"energy": -0.24328,
				"method": "rhf"
			},
			{
				"type": "occ",
				"energy": -0.2368,
				"method": "rhf"
			},
			{
				"type": "occ",
				"energy": -0.22961,
				"method": "rhf"
			},
			{
				"type": "occ",
				"energy": -0.19813,
				"method": "rhf"
			},
			{
				"type": "unocc",
				"energy": -0.0347,
				"method": "rhf"
			},
			{
				"type": "unocc",
				"energy": -0.01752,
				"method": "rhf"
			},
			{
				"type": "unocc",
				"energy": -0.0023,
				"method": "rhf"
			},
			{
				"type": "unocc",
				"energy": -0.00217,
				"method": "rhf"
			},
			{
				"type": "unocc",
				"energy": 0.00687,
				"method": "rhf"
			}
		],
		"cosmo_sigma_profile": { 
			"-0.025": 0.0,
			"-0.024": 0.0,
			"-0.023": 0.0,
			"-0.022": 0.0,
			"-0.021": 0.0,
			"-0.02": 0.0,
			"-0.019": 0.0,
			"-0.018": 0.0,
			"-0.017": 0.0,
			"-0.016": 0.264727867499,
			"-0.015": 1.93465944485,
			"-0.014": 2.00336794145,
			"-0.013": 1.46502248947,
			"-0.012": 1.67953022601,
			"-0.011": 1.62538207675,
			"-0.01": 3.63679868767,
			"-0.009": 3.31750147398,
			"-0.008": 2.77444448561,
			"-0.007": 5.92080655111,
			"-0.006": 21.4171134469,
			"-0.005": 31.1008448461,
			"-0.004": 31.7997019737,
			"-0.003": 28.798906245,
			"-0.002": 19.7697905681,
			"-0.001": 15.3405552831,
			"0.0": 18.3506366598,
			"0.001": 23.688227732,
			"0.002": 25.072487676,
			"0.003": 26.9723440903,
			"0.004": 32.0061738696,
			"0.005": 22.0247413626,
			"0.006": 10.4311809093,
			"0.007": 5.69459552112,
			"0.008": 3.54136606234,
			"0.009": 2.8334545393,
			"0.01": 3.14051580155,
			"0.011": 1.71828920648,
			"0.012": 2.00546538837,
			"0.013": 3.24140360428,
			"0.014": 3.87942256332,
			"0.015": 2.29774362084,
			"0.016": 2.02149601229,
			"0.017": 0.538883465312,
			"0.018": 0.0,
			"0.019": 0.0,
			"0.02": 0.0,
			"0.021": 0.0,
			"0.022": 0.0,
			"0.023": 0.0,
			"0.024": 0.0,
			"0.025": 0.0
		}
	}
}
