{
	 "smiles": "CC(C)(C)C1=NN(C(=O)C1=CCl)C1=CC=CC=C1", 
	 "Tm": 363.15, 
	 "num_atms": 33, 
	 "gaussian": { 
		 "optdone": 1, 
		 "sigma_profile": "yes", 
		 "theory": "DFT", 
		 "functional": "B3LYP", 
		 "basiset": "6-31G**", 
		 "properties": { 
			 "R2extent": 6169.4308, 
			 "electric_dipole_moment_norm": 3.72707105513, 
			 "electric_quadrupole_moment_norm": 14.587686271, 
			 "total_energy": -1187.42381007, 
			 "HOMO_LUMO_gap": 0.11998, 
			 "cosmo_polarized_energy": -10.8, 
			 "cosmo_cavitation_energy": 37.29, 
			 "cosmo_dispersion_energy": -26.49, 
			 "cosmo_repulsion_energy": 2.03, 
			 "cosmo_total_nonelectrostatic_energy": 12.83, 
			 "SMD_solvation_energy": 6.58 
		},
		"coords": [
			{
				"x": -0.0511677945,
				"y": 3.6699489128,
				"z": 0.3227844227,
				"element": "C" 
			},
			{
				"x": 0.479279882,
				"y": 2.5058578141,
				"z": 1.1946572146,
				"element": "C" 
			},
			{
				"x": 1.7795130826,
				"y": 2.9326585835,
				"z": 1.918413175,
				"element": "C" 
			},
			{
				"x": -0.5837107115,
				"y": 2.1666625727,
				"z": 2.257396785,
				"element": "C" 
			},
			{
				"x": 0.7469385725,
				"y": 1.2862477547,
				"z": 0.3242998101,
				"element": "C" 
			},
			{
				"x": 0.1151372752,
				"y": 0.1727008624,
				"z": 0.5361095084,
				"element": "N" 
			},
			{
				"x": 0.5305802471,
				"y": -0.7837416463,
				"z": -0.3822890086,
				"element": "N" 
			},
			{
				"x": 1.4940585361,
				"y": -0.2868782976,
				"z": -1.2596028657,
				"element": "C" 
			},
			{
				"x": 2.049326343,
				"y": -0.8791369752,
				"z": -2.1707647259,
				"element": "O" 
			},
			{
				"x": 1.6730065683,
				"y": 1.1338496986,
				"z": -0.8096156431,
				"element": "C" 
			},
			{
				"x": 2.5057236371,
				"y": 2.0422740349,
				"z": -1.3466737065,
				"element": "C" 
			},
			{
				"x": 3.5573761834,
				"y": 1.7633683444,
				"z": -2.6832450216,
				"element": "Cl" 
			},
			{
				"x": -0.0398857041,
				"y": -2.0828240908,
				"z": -0.3262767536,
				"element": "C" 
			},
			{
				"x": 0.3500896792,
				"y": -3.080494081,
				"z": -1.2333447622,
				"element": "C" 
			},
			{
				"x": -0.2318280705,
				"y": -4.3451313206,
				"z": -1.1482291721,
				"element": "C" 
			},
			{
				"x": -1.1925288614,
				"y": -4.6329750087,
				"z": -0.1784978832,
				"element": "C" 
			},
			{
				"x": -1.5730222688,
				"y": -3.6334459408,
				"z": 0.7185415049,
				"element": "C" 
			},
			{
				"x": -1.00533162,
				"y": -2.3631612662,
				"z": 0.6523403776,
				"element": "C" 
			},
			{
				"x": -0.2644377653,
				"y": 4.5381521504,
				"z": 0.9550157967,
				"element": "H" 
			},
			{
				"x": 0.6637535288,
				"y": 3.9867691607,
				"z": -0.4416993048,
				"element": "H" 
			},
			{
				"x": -0.9780670606,
				"y": 3.3855077822,
				"z": -0.1849495511,
				"element": "H" 
			},
			{
				"x": 2.5766511169,
				"y": 3.2160720818,
				"z": 1.2254633584,
				"element": "H" 
			},
			{
				"x": 2.1583632916,
				"y": 2.1223695841,
				"z": 2.5490769172,
				"element": "H" 
			},
			{
				"x": 1.5787092892,
				"y": 3.7960763372,
				"z": 2.5611835998,
				"element": "H" 
			},
			{
				"x": -0.7706641194,
				"y": 3.0484003548,
				"z": 2.8787362375,
				"element": "H" 
			},
			{
				"x": -1.5263213924,
				"y": 1.8623890247,
				"z": 1.7953765279,
				"element": "H" 
			},
			{
				"x": -0.2536653689,
				"y": 1.3503422835,
				"z": 2.9048846286,
				"element": "H" 
			},
			{
				"x": 2.5827320907,
				"y": 3.0533577397,
				"z": -0.9683383537,
				"element": "H" 
			},
			{
				"x": 1.0939974961,
				"y": -2.8618581186,
				"z": -1.986198818,
				"element": "H" 
			},
			{
				"x": 0.075715711,
				"y": -5.1114428183,
				"z": -1.854123184,
				"element": "H" 
			},
			{
				"x": -1.6384996536,
				"y": -5.6213769983,
				"z": -0.122079602,
				"element": "H" 
			},
			{
				"x": -2.3196128501,
				"y": -3.8391257608,
				"z": 1.4804783684,
				"element": "H" 
			},
			{
				"x": -1.2985092897,
				"y": -1.5866127539,
				"z": 1.3464701234,
				"element": "H" 
			}
		],
		 "valence_orbital": [ 
			{
				"type": "occ",
				"energy": -0.30623,
				"method": "rhf"
			},
			{
				"type": "occ",
				"energy": -0.26454,
				"method": "rhf"
			},
			{
				"type": "occ",
				"energy": -0.25814,
				"method": "rhf"
			},
			{
				"type": "occ",
				"energy": -0.24574,
				"method": "rhf"
			},
			{
				"type": "occ",
				"energy": -0.21195,
				"method": "rhf"
			},
			{
				"type": "unocc",
				"energy": -0.09197,
				"method": "rhf"
			},
			{
				"type": "unocc",
				"energy": -0.0105,
				"method": "rhf"
			},
			{
				"type": "unocc",
				"energy": 0.00436,
				"method": "rhf"
			},
			{
				"type": "unocc",
				"energy": 0.02254,
				"method": "rhf"
			},
			{
				"type": "unocc",
				"energy": 0.04625,
				"method": "rhf"
			}
		],
		"cosmo_sigma_profile": { 
			"-0.025": 0.0,
			"-0.024": 0.0,
			"-0.023": 0.0,
			"-0.022": 0.0,
			"-0.021": 0.0,
			"-0.02": 0.0,
			"-0.019": 0.0,
			"-0.018": 0.0,
			"-0.017": 0.0,
			"-0.016": 0.0,
			"-0.015": 0.0,
			"-0.014": 0.0,
			"-0.013": 0.0,
			"-0.012": 0.181626590394,
			"-0.011": 1.37923160896,
			"-0.01": 2.5637923698,
			"-0.009": 1.51970407175,
			"-0.008": 1.70264206172,
			"-0.007": 1.8211334661,
			"-0.006": 5.85982952868,
			"-0.005": 9.95643263707,
			"-0.004": 20.8214340104,
			"-0.003": 34.1373386635,
			"-0.002": 34.0842833844,
			"-0.001": 33.3705281713,
			"0.0": 29.6571429938,
			"0.001": 27.6998826662,
			"0.002": 21.4785843094,
			"0.003": 19.4006205971,
			"0.004": 14.1563456215,
			"0.005": 14.6636586945,
			"0.006": 9.13665124278,
			"0.007": 3.13144376394,
			"0.008": 1.26794997292,
			"0.009": 2.45667850228,
			"0.01": 2.3424300084,
			"0.011": 3.33421852865,
			"0.012": 2.58187068798,
			"0.013": 0.0521988564694,
			"0.014": 0.0,
			"0.015": 0.0,
			"0.016": 0.0,
			"0.017": 0.0,
			"0.018": 0.0,
			"0.019": 0.0,
			"0.02": 0.0,
			"0.021": 0.0,
			"0.022": 0.0,
			"0.023": 0.0,
			"0.024": 0.0,
			"0.025": 0.0
		}
	}
}
