{
	 "smiles": "FC(F)(F)C1(CCC2(CC1)OCCO2)NCC1=CC=CC=C1", 
	 "Tm": 357.15, 
	 "num_atms": 42, 
	 "gaussian": { 
		 "optdone": 1, 
		 "sigma_profile": "yes", 
		 "theory": "DFT", 
		 "functional": "B3LYP", 
		 "basiset": "6-31G**", 
		 "properties": { 
			 "R2extent": 7533.963, 
			 "electric_dipole_moment_norm": 2.35707243419, 
			 "electric_quadrupole_moment_norm": 10.4147267329, 
			 "total_energy": -1126.47057069, 
			 "HOMO_LUMO_gap": 0.2289, 
			 "cosmo_polarized_energy": -10.6, 
			 "cosmo_cavitation_energy": 43.03, 
			 "cosmo_dispersion_energy": -29.03, 
			 "cosmo_repulsion_energy": 2.13, 
			 "cosmo_total_nonelectrostatic_energy": 16.13, 
			 "SMD_solvation_energy": 7.46 
		},
		"coords": [
			{
				"x": -0.7101030438,
				"y": -3.5349996259,
				"z": 1.463297324,
				"element": "F" 
			},
			{
				"x": -0.7881376033,
				"y": -2.188602733,
				"z": 1.596489062,
				"element": "C" 
			},
			{
				"x": -2.1026006032,
				"y": -1.8676991334,
				"z": 1.5253018657,
				"element": "F" 
			},
			{
				"x": -0.3762965428,
				"y": -1.8853427967,
				"z": 2.8506286243,
				"element": "F" 
			},
			{
				"x": 0.0509448107,
				"y": -1.4474641929,
				"z": 0.5365195212,
				"element": "C" 
			},
			{
				"x": -0.505082108,
				"y": -1.7877921167,
				"z": -0.885541928,
				"element": "C" 
			},
			{
				"x": 0.5337927434,
				"y": -2.4483909036,
				"z": -1.803116388,
				"element": "C" 
			},
			{
				"x": 1.8235639596,
				"y": -1.626285545,
				"z": -1.8654029983,
				"element": "C" 
			},
			{
				"x": 2.4138810619,
				"y": -1.3966100593,
				"z": -0.4547406479,
				"element": "C" 
			},
			{
				"x": 1.517066655,
				"y": -1.930094329,
				"z": 0.671120438,
				"element": "C" 
			},
			{
				"x": 1.5204738007,
				"y": -0.3760424413,
				"z": -2.5153636256,
				"element": "O" 
			},
			{
				"x": 2.4223369645,
				"y": -0.2065995956,
				"z": -3.6046333221,
				"element": "C" 
			},
			{
				"x": 2.7856226262,
				"y": -1.6447665212,
				"z": -3.9589275463,
				"element": "C" 
			},
			{
				"x": 2.8073169992,
				"y": -2.2675775713,
				"z": -2.6790291256,
				"element": "O" 
			},
			{
				"x": 0.0550482974,
				"y": -0.0023753887,
				"z": 0.7656243257,
				"element": "N" 
			},
			{
				"x": -1.1910534367,
				"y": 0.7704015582,
				"z": 0.750289364,
				"element": "C" 
			},
			{
				"x": -0.9014946649,
				"y": 2.2492372007,
				"z": 0.5679955321,
				"element": "C" 
			},
			{
				"x": -1.5391988534,
				"y": 3.2036223604,
				"z": 1.3672287929,
				"element": "C" 
			},
			{
				"x": -1.3012322593,
				"y": 4.5675491325,
				"z": 1.1793336025,
				"element": "C" 
			},
			{
				"x": -0.414969135,
				"y": 4.9904891482,
				"z": 0.1887997757,
				"element": "C" 
			},
			{
				"x": 0.2307405419,
				"y": 4.0427692414,
				"z": -0.6108522025,
				"element": "C" 
			},
			{
				"x": -0.008549796,
				"y": 2.6819951869,
				"z": -0.4232467697,
				"element": "C" 
			},
			{
				"x": -1.3874187725,
				"y": -2.4290123984,
				"z": -0.813986833,
				"element": "H" 
			},
			{
				"x": -0.8246166168,
				"y": -0.8569849968,
				"z": -1.3577274735,
				"element": "H" 
			},
			{
				"x": 0.1258909729,
				"y": -2.5494786849,
				"z": -2.813533121,
				"element": "H" 
			},
			{
				"x": 0.7843163313,
				"y": -3.4547212604,
				"z": -1.4507918354,
				"element": "H" 
			},
			{
				"x": 2.5690222768,
				"y": -0.3225630956,
				"z": -0.3326983374,
				"element": "H" 
			},
			{
				"x": 3.3889545561,
				"y": -1.88972668,
				"z": -0.4086559834,
				"element": "H" 
			},
			{
				"x": 1.9119175099,
				"y": -1.6182231701,
				"z": 1.6445025211,
				"element": "H" 
			},
			{
				"x": 1.5269578443,
				"y": -3.023708307,
				"z": 0.6766592074,
				"element": "H" 
			},
			{
				"x": 3.3115256076,
				"y": 0.3631172898,
				"z": -3.297098425,
				"element": "H" 
			},
			{
				"x": 1.9092288575,
				"y": 0.3350095564,
				"z": -4.4044859135,
				"element": "H" 
			},
			{
				"x": 3.7720220417,
				"y": -1.7600422002,
				"z": -4.4156137967,
				"element": "H" 
			},
			{
				"x": 2.0292178314,
				"y": -2.0994668189,
				"z": -4.6156344039,
				"element": "H" 
			},
			{
				"x": 0.5748651135,
				"y": 0.2105616733,
				"z": 1.6118886583,
				"element": "H" 
			},
			{
				"x": -1.8070662547,
				"y": 0.6266145537,
				"z": 1.6507076254,
				"element": "H" 
			},
			{
				"x": -1.8010711505,
				"y": 0.4168440401,
				"z": -0.088283565,
				"element": "H" 
			},
			{
				"x": -2.2270271696,
				"y": 2.8771649095,
				"z": 2.1441257768,
				"element": "H" 
			},
			{
				"x": -1.803157301,
				"y": 5.2959811315,
				"z": 1.8102965736,
				"element": "H" 
			},
			{
				"x": -0.2248257704,
				"y": 6.0500984952,
				"z": 0.0420568799,
				"element": "H" 
			},
			{
				"x": 0.9235885738,
				"y": 4.3669320628,
				"z": -1.3829339984,
				"element": "H" 
			},
			{
				"x": 0.4985051048,
				"y": 1.9401830254,
				"z": -1.0337672303,
				"element": "H" 
			}
		],
		 "valence_orbital": [ 
			{
				"type": "occ",
				"energy": -0.26919,
				"method": "rhf"
			},
			{
				"type": "occ",
				"energy": -0.25069,
				"method": "rhf"
			},
			{
				"type": "occ",
				"energy": -0.24288,
				"method": "rhf"
			},
			{
				"type": "occ",
				"energy": -0.24025,
				"method": "rhf"
			},
			{
				"type": "occ",
				"energy": -0.22488,
				"method": "rhf"
			},
			{
				"type": "unocc",
				"energy": 0.00402,
				"method": "rhf"
			},
			{
				"type": "unocc",
				"energy": 0.00728,
				"method": "rhf"
			},
			{
				"type": "unocc",
				"energy": 0.07922,
				"method": "rhf"
			},
			{
				"type": "unocc",
				"energy": 0.09145,
				"method": "rhf"
			},
			{
				"type": "unocc",
				"energy": 0.09748,
				"method": "rhf"
			}
		],
		"cosmo_sigma_profile": { 
			"-0.025": 0.0,
			"-0.024": 0.0,
			"-0.023": 0.0,
			"-0.022": 0.0,
			"-0.021": 0.0,
			"-0.02": 0.0,
			"-0.019": 0.0,
			"-0.018": 0.0,
			"-0.017": 0.0,
			"-0.016": 0.0,
			"-0.015": 0.0,
			"-0.014": 0.0,
			"-0.013": 0.0,
			"-0.012": 0.0,
			"-0.011": 0.0625636775715,
			"-0.01": 0.97780217936,
			"-0.009": 1.29666382167,
			"-0.008": 0.780770987189,
			"-0.007": 1.450731002,
			"-0.006": 7.22865877835,
			"-0.005": 23.6140482985,
			"-0.004": 36.6957129647,
			"-0.003": 36.2399066403,
			"-0.002": 33.9877559429,
			"-0.001": 31.6928679625,
			"0.0": 22.0784424656,
			"0.001": 19.2694560404,
			"0.002": 21.9149435782,
			"0.003": 36.594090991,
			"0.004": 17.8519501123,
			"0.005": 12.445009815,
			"0.006": 13.7116766794,
			"0.007": 7.92190887899,
			"0.008": 3.03849638881,
			"0.009": 2.76994849417,
			"0.01": 2.36536832871,
			"0.011": 1.50504816838,
			"0.012": 1.57551742173,
			"0.013": 0.325951065292,
			"0.014": 0.0,
			"0.015": 0.0,
			"0.016": 0.0,
			"0.017": 0.0,
			"0.018": 0.0,
			"0.019": 0.0,
			"0.02": 0.0,
			"0.021": 0.0,
			"0.022": 0.0,
			"0.023": 0.0,
			"0.024": 0.0,
			"0.025": 0.0
		}
	}
}
