{
	 "smiles": "CC1=C(C(O)=O)C(O)=NC=C1", 
	 "Tm": 503.15, 
	 "num_atms": 18, 
	 "gaussian": { 
		 "optdone": 1, 
		 "sigma_profile": "yes", 
		 "theory": "DFT", 
		 "functional": "B3LYP", 
		 "basiset": "6-31G**", 
		 "properties": { 
			 "R2extent": 1975.1788, 
			 "electric_dipole_moment_norm": 4.35803880891, 
			 "electric_quadrupole_moment_norm": 12.2258496077, 
			 "total_energy": -551.408397383, 
			 "HOMO_LUMO_gap": 0.20184, 
			 "cosmo_polarized_energy": -12.79, 
			 "cosmo_cavitation_energy": 21.83, 
			 "cosmo_dispersion_energy": -16.82, 
			 "cosmo_repulsion_energy": 1.33, 
			 "cosmo_total_nonelectrostatic_energy": 6.34, 
			 "SMD_solvation_energy": 4.03 
		},
		"coords": [
			{
				"x": -1.1591943242,
				"y": 0.8201668259,
				"z": -0.426972466,
				"element": "C" 
			},
			{
				"x": 0.2067323704,
				"y": 0.1954400854,
				"z": -0.5473553471,
				"element": "C" 
			},
			{
				"x": 0.9714688159,
				"y": -0.2528444213,
				"z": 0.5584670687,
				"element": "C" 
			},
			{
				"x": 0.4404271655,
				"y": -0.1241844954,
				"z": 1.9649905998,
				"element": "C" 
			},
			{
				"x": 1.2072655125,
				"y": -0.5665549854,
				"z": 2.9782387037,
				"element": "O" 
			},
			{
				"x": -0.6463684954,
				"y": 0.3594739669,
				"z": 2.2058881845,
				"element": "O" 
			},
			{
				"x": 2.2332334504,
				"y": -0.813542608,
				"z": 0.2515440623,
				"element": "C" 
			},
			{
				"x": 3.0290312646,
				"y": -1.2684431369,
				"z": 1.2641042951,
				"element": "O" 
			},
			{
				"x": 2.7511378177,
				"y": -0.9525875372,
				"z": -0.9596447528,
				"element": "N" 
			},
			{
				"x": 2.0119403873,
				"y": -0.5225477879,
				"z": -1.9893143975,
				"element": "C" 
			},
			{
				"x": 0.7578003027,
				"y": 0.0469946224,
				"z": -1.829594894,
				"element": "C" 
			},
			{
				"x": -1.5386662335,
				"y": 1.0795389112,
				"z": -1.4186508711,
				"element": "H" 
			},
			{
				"x": -1.1316990112,
				"y": 1.7161834811,
				"z": 0.1972308964,
				"element": "H" 
			},
			{
				"x": -1.8620773449,
				"y": 0.1445795394,
				"z": 0.0657139421,
				"element": "H" 
			},
			{
				"x": 2.0497465022,
				"y": -0.9304226952,
				"z": 2.6519407349,
				"element": "H" 
			},
			{
				"x": 3.8368199394,
				"y": -1.6088356799,
				"z": 0.8465303069,
				"element": "H" 
			},
			{
				"x": 2.450728327,
				"y": -0.6435761716,
				"z": -2.9771840259,
				"element": "H" 
			},
			{
				"x": 0.1996735537,
				"y": 0.3793620864,
				"z": -2.6982320399,
				"element": "H" 
			}
		],
		 "valence_orbital": [ 
			{
				"type": "occ",
				"energy": -0.30545,
				"method": "rhf"
			},
			{
				"type": "occ",
				"energy": -0.30188,
				"method": "rhf"
			},
			{
				"type": "occ",
				"energy": -0.29015,
				"method": "rhf"
			},
			{
				"type": "occ",
				"energy": -0.26139,
				"method": "rhf"
			},
			{
				"type": "occ",
				"energy": -0.26093,
				"method": "rhf"
			},
			{
				"type": "unocc",
				"energy": -0.05909,
				"method": "rhf"
			},
			{
				"type": "unocc",
				"energy": -0.02278,
				"method": "rhf"
			},
			{
				"type": "unocc",
				"energy": 0.04697,
				"method": "rhf"
			},
			{
				"type": "unocc",
				"energy": 0.06058,
				"method": "rhf"
			},
			{
				"type": "unocc",
				"energy": 0.09926,
				"method": "rhf"
			}
		],
		"cosmo_sigma_profile": { 
			"-0.025": 0.0,
			"-0.024": 0.0,
			"-0.023": 0.0,
			"-0.022": 0.0,
			"-0.021": 0.0,
			"-0.02": 0.0,
			"-0.019": 0.194167292664,
			"-0.018": 0.603543734486,
			"-0.017": 0.770051068423,
			"-0.016": 0.813592368547,
			"-0.015": 0.836396213767,
			"-0.014": 0.530621407644,
			"-0.013": 0.507087322661,
			"-0.012": 0.829490273728,
			"-0.011": 0.860674143977,
			"-0.01": 0.805277863285,
			"-0.009": 0.810799444445,
			"-0.008": 2.44411592413,
			"-0.007": 6.06965008427,
			"-0.006": 7.43344018635,
			"-0.005": 9.23533231868,
			"-0.004": 10.885910753,
			"-0.003": 11.7131242825,
			"-0.002": 16.3244379771,
			"-0.001": 20.4380717967,
			"0.0": 18.4416178785,
			"0.001": 12.2184270687,
			"0.002": 8.73848908701,
			"0.003": 4.20574177698,
			"0.004": 3.73698945467,
			"0.005": 3.17901390797,
			"0.006": 3.69224854166,
			"0.007": 3.27145079515,
			"0.008": 2.90186381476,
			"0.009": 3.37670491546,
			"0.01": 4.36174843224,
			"0.011": 5.41789659521,
			"0.012": 5.14905859032,
			"0.013": 2.74392441785,
			"0.014": 0.854436322243,
			"0.015": 0.0,
			"0.016": 0.0,
			"0.017": 0.0,
			"0.018": 0.0,
			"0.019": 0.0,
			"0.02": 0.0,
			"0.021": 0.0,
			"0.022": 0.0,
			"0.023": 0.0,
			"0.024": 0.0,
			"0.025": 0.0
		}
	}
}
