{
	 "smiles": "CC1=CC(C)=C(CCNC(=O)CCl)C(C)=C1", 
	 "Tm": 417.15, 
	 "num_atms": 34, 
	 "gaussian": { 
		 "optdone": 1, 
		 "sigma_profile": "yes", 
		 "theory": "DFT", 
		 "functional": "B3LYP", 
		 "basiset": "6-31G**", 
		 "properties": { 
			 "R2extent": 5390.5089, 
			 "electric_dipole_moment_norm": 3.57391976547, 
			 "electric_quadrupole_moment_norm": 13.8803164128, 
			 "total_energy": -1096.43519923, 
			 "HOMO_LUMO_gap": 0.2106, 
			 "cosmo_polarized_energy": -12.24, 
			 "cosmo_cavitation_energy": 37.24, 
			 "cosmo_dispersion_energy": -25.63, 
			 "cosmo_repulsion_energy": 2.0, 
			 "cosmo_total_nonelectrostatic_energy": 13.61, 
			 "SMD_solvation_energy": 6.44 
		},
		"coords": [
			{
				"x": 1.0203224351,
				"y": 3.9789169159,
				"z": 2.763137011,
				"element": "C" 
			},
			{
				"x": 0.4499660419,
				"y": 2.6595731538,
				"z": 2.2982594334,
				"element": "C" 
			},
			{
				"x": 1.2376547754,
				"y": 1.73473453,
				"z": 1.6102853269,
				"element": "C" 
			},
			{
				"x": 0.7393816941,
				"y": 0.4940944577,
				"z": 1.1930650363,
				"element": "C" 
			},
			{
				"x": 1.6823948764,
				"y": -0.4649902972,
				"z": 0.4943754609,
				"element": "C" 
			},
			{
				"x": -0.608843978,
				"y": 0.1633789681,
				"z": 1.4604115142,
				"element": "C" 
			},
			{
				"x": -1.1933845713,
				"y": -1.1547503666,
				"z": 0.9816222723,
				"element": "C" 
			},
			{
				"x": -2.0040565004,
				"y": -1.0441055204,
				"z": -0.3312458237,
				"element": "C" 
			},
			{
				"x": -1.2236356401,
				"y": -0.5207658726,
				"z": -1.4443919304,
				"element": "N" 
			},
			{
				"x": -0.8719076908,
				"y": -1.1032786628,
				"z": -2.6257382719,
				"element": "C" 
			},
			{
				"x": -0.182287161,
				"y": -0.5264623009,
				"z": -3.457305316,
				"element": "O" 
			},
			{
				"x": -1.3977187696,
				"y": -2.5092507499,
				"z": -2.9266785272,
				"element": "C" 
			},
			{
				"x": -0.6281184583,
				"y": -3.788340666,
				"z": -1.886649484,
				"element": "Cl" 
			},
			{
				"x": -1.4136540291,
				"y": 1.0815091601,
				"z": 2.1736524128,
				"element": "C" 
			},
			{
				"x": -2.8476646349,
				"y": 0.7663821372,
				"z": 2.5457977612,
				"element": "C" 
			},
			{
				"x": -0.8737038826,
				"y": 2.3080431884,
				"z": 2.5739285155,
				"element": "C" 
			},
			{
				"x": 1.4465364605,
				"y": 3.8942692257,
				"z": 3.770838452,
				"element": "H" 
			},
			{
				"x": 1.8200059392,
				"y": 4.3246609198,
				"z": 2.1011677606,
				"element": "H" 
			},
			{
				"x": 0.2514919897,
				"y": 4.7567323473,
				"z": 2.8011651162,
				"element": "H" 
			},
			{
				"x": 2.2749763505,
				"y": 1.9802248148,
				"z": 1.3930535113,
				"element": "H" 
			},
			{
				"x": 2.6726738908,
				"y": -0.0154696931,
				"z": 0.385689964,
				"element": "H" 
			},
			{
				"x": 1.3355433514,
				"y": -0.7467142255,
				"z": -0.5040930256,
				"element": "H" 
			},
			{
				"x": 1.8060445017,
				"y": -1.3943480759,
				"z": 1.0632591099,
				"element": "H" 
			},
			{
				"x": -0.4050231234,
				"y": -1.8955190029,
				"z": 0.829476053,
				"element": "H" 
			},
			{
				"x": -1.8669893676,
				"y": -1.5685604145,
				"z": 1.7409766348,
				"element": "H" 
			},
			{
				"x": -2.3830153204,
				"y": -2.0318850506,
				"z": -0.5969312062,
				"element": "H" 
			},
			{
				"x": -2.874401513,
				"y": -0.3944699975,
				"z": -0.1785068844,
				"element": "H" 
			},
			{
				"x": -0.8246907629,
				"y": 0.4030495986,
				"z": -1.3254034708,
				"element": "H" 
			},
			{
				"x": -2.4770190517,
				"y": -2.5965703098,
				"z": -2.7887439567,
				"element": "H" 
			},
			{
				"x": -1.1292068836,
				"y": -2.7357651089,
				"z": -3.9555379832,
				"element": "H" 
			},
			{
				"x": -2.9215856623,
				"y": -0.1530323655,
				"z": 3.1388433971,
				"element": "H" 
			},
			{
				"x": -3.2765719687,
				"y": 1.5755053693,
				"z": 3.1424777803,
				"element": "H" 
			},
			{
				"x": -3.4929005294,
				"y": 0.6315390214,
				"z": 1.670466891,
				"element": "H" 
			},
			{
				"x": -1.5057128074,
				"y": 3.0059648725,
				"z": 3.1192764655,
				"element": "H" 
			}
		],
		 "valence_orbital": [ 
			{
				"type": "occ",
				"energy": -0.30654,
				"method": "rhf"
			},
			{
				"type": "occ",
				"energy": -0.25679,
				"method": "rhf"
			},
			{
				"type": "occ",
				"energy": -0.25405,
				"method": "rhf"
			},
			{
				"type": "occ",
				"energy": -0.2366,
				"method": "rhf"
			},
			{
				"type": "occ",
				"energy": -0.22916,
				"method": "rhf"
			},
			{
				"type": "unocc",
				"energy": -0.01856,
				"method": "rhf"
			},
			{
				"type": "unocc",
				"energy": -0.0043,
				"method": "rhf"
			},
			{
				"type": "unocc",
				"energy": 0.00367,
				"method": "rhf"
			},
			{
				"type": "unocc",
				"energy": 0.05417,
				"method": "rhf"
			},
			{
				"type": "unocc",
				"energy": 0.07883,
				"method": "rhf"
			}
		],
		"cosmo_sigma_profile": { 
			"-0.025": 0.0,
			"-0.024": 0.0,
			"-0.023": 0.0,
			"-0.022": 0.0,
			"-0.021": 0.0,
			"-0.02": 0.0,
			"-0.019": 0.0,
			"-0.018": 0.0,
			"-0.017": 0.0,
			"-0.016": 0.0,
			"-0.015": 0.0,
			"-0.014": 0.0,
			"-0.013": 0.0,
			"-0.012": 0.104359927775,
			"-0.011": 0.400162547899,
			"-0.01": 0.848836327135,
			"-0.009": 2.8500931585,
			"-0.008": 5.64351456602,
			"-0.007": 4.66747071556,
			"-0.006": 6.72973661565,
			"-0.005": 12.7807728176,
			"-0.004": 28.1785900468,
			"-0.003": 31.2456323934,
			"-0.002": 25.1540995806,
			"-0.001": 28.8386668007,
			"0.0": 35.5277703336,
			"0.001": 26.0581371184,
			"0.002": 16.5995060307,
			"0.003": 11.9854719684,
			"0.004": 12.319697986,
			"0.005": 13.0020185955,
			"0.006": 10.4577582102,
			"0.007": 4.82671613396,
			"0.008": 1.20307502221,
			"0.009": 1.18285268093,
			"0.01": 1.52550360922,
			"0.011": 1.50164777992,
			"0.012": 2.18105486778,
			"0.013": 5.03596497668,
			"0.014": 3.69330161926,
			"0.015": 0.0814783546288,
			"0.016": 0.0,
			"0.017": 0.0,
			"0.018": 0.0,
			"0.019": 0.0,
			"0.02": 0.0,
			"0.021": 0.0,
			"0.022": 0.0,
			"0.023": 0.0,
			"0.024": 0.0,
			"0.025": 0.0
		}
	}
}
