{
	 "smiles": "COC1=CC=C(C=C1)C1C2=C(NN=C2C(F)(F)F)OC(N)=C1C#N", 
	 "Tm": 477.15, 
	 "num_atms": 35, 
	 "gaussian": { 
		 "optdone": 1, 
		 "sigma_profile": "yes", 
		 "theory": "DFT", 
		 "functional": "B3LYP", 
		 "basiset": "6-31G**", 
		 "properties": { 
			 "R2extent": 8030.5439, 
			 "electric_dipole_moment_norm": 6.2810347587, 
			 "electric_quadrupole_moment_norm": 28.7407976972, 
			 "total_energy": -1247.13252975, 
			 "HOMO_LUMO_gap": 0.18809, 
			 "cosmo_polarized_energy": -24.79, 
			 "cosmo_cavitation_energy": 41.93, 
			 "cosmo_dispersion_energy": -28.05, 
			 "cosmo_repulsion_energy": 2.1, 
			 "cosmo_total_nonelectrostatic_energy": 15.98, 
			 "SMD_solvation_energy": 9.48 
		},
		"coords": [
			{
				"x": -3.8219493585,
				"y": 3.592533666,
				"z": 0.11647229,
				"element": "C" 
			},
			{
				"x": -2.7851225944,
				"y": 3.345541028,
				"z": -0.8192147198,
				"element": "O" 
			},
			{
				"x": -1.9213908702,
				"y": 2.3190087805,
				"z": -0.5717027158,
				"element": "C" 
			},
			{
				"x": -1.9808955316,
				"y": 1.4801902647,
				"z": 0.5490982238,
				"element": "C" 
			},
			{
				"x": -1.0410129993,
				"y": 0.4591863156,
				"z": 0.6950729941,
				"element": "C" 
			},
			{
				"x": -0.0363038651,
				"y": 0.2509308445,
				"z": -0.2524187363,
				"element": "C" 
			},
			{
				"x": 0.0089882151,
				"y": 1.0988326429,
				"z": -1.3667723926,
				"element": "C" 
			},
			{
				"x": -0.9183117785,
				"y": 2.1205374225,
				"z": -1.5302210749,
				"element": "C" 
			},
			{
				"x": 0.9983896435,
				"y": -0.8638915339,
				"z": -0.0847305812,
				"element": "C" 
			},
			{
				"x": 1.8827615604,
				"y": -0.6788940638,
				"z": 1.1196432409,
				"element": "C" 
			},
			{
				"x": 1.9522252018,
				"y": -1.6134817528,
				"z": 2.1199120995,
				"element": "C" 
			},
			{
				"x": 2.8167823911,
				"y": -1.1824431892,
				"z": 3.0669549587,
				"element": "N" 
			},
			{
				"x": 3.3470208767,
				"y": 0.0194824416,
				"z": 2.7386094888,
				"element": "N" 
			},
			{
				"x": 2.7862006148,
				"y": 0.3192537341,
				"z": 1.5694774233,
				"element": "C" 
			},
			{
				"x": 3.1081856692,
				"y": 1.6168704923,
				"z": 0.893693404,
				"element": "C" 
			},
			{
				"x": 4.2814538034,
				"y": 2.1224068196,
				"z": 1.303683358,
				"element": "F" 
			},
			{
				"x": 2.1580994001,
				"y": 2.5481899589,
				"z": 1.1193926513,
				"element": "F" 
			},
			{
				"x": 3.1748955846,
				"y": 1.4386855864,
				"z": -0.4495182423,
				"element": "F" 
			},
			{
				"x": 1.316393475,
				"y": -2.8101314791,
				"z": 2.2043904369,
				"element": "O" 
			},
			{
				"x": 0.5305965646,
				"y": -3.1023740059,
				"z": 1.1111546338,
				"element": "C" 
			},
			{
				"x": 0.0237961216,
				"y": -4.3651371973,
				"z": 1.23126989,
				"element": "N" 
			},
			{
				"x": 0.3504800887,
				"y": -2.2499410741,
				"z": 0.0567071056,
				"element": "C" 
			},
			{
				"x": -0.5060140382,
				"y": -2.7114262899,
				"z": -0.9777797759,
				"element": "C" 
			},
			{
				"x": -1.2133524831,
				"y": -3.1344577731,
				"z": -1.8039526593,
				"element": "N" 
			},
			{
				"x": -4.3837223016,
				"y": 4.4427943328,
				"z": -0.27339338,
				"element": "H" 
			},
			{
				"x": -4.4948574718,
				"y": 2.7306141469,
				"z": 0.2135150266,
				"element": "H" 
			},
			{
				"x": -3.4226729059,
				"y": 3.8485004207,
				"z": 1.1065284487,
				"element": "H" 
			},
			{
				"x": -2.7468146725,
				"y": 1.6106839561,
				"z": 1.3043145795,
				"element": "H" 
			},
			{
				"x": -1.0998852209,
				"y": -0.1878149083,
				"z": 1.5666355669,
				"element": "H" 
			},
			{
				"x": 0.7841561338,
				"y": 0.9600507791,
				"z": -2.1154094672,
				"element": "H" 
			},
			{
				"x": -0.8868459774,
				"y": 2.7782441828,
				"z": -2.39248171,
				"element": "H" 
			},
			{
				"x": 1.6199389014,
				"y": -0.8619024875,
				"z": -0.9895340463,
				"element": "H" 
			},
			{
				"x": 3.1034557769,
				"y": -1.6471687095,
				"z": 3.9147415847,
				"element": "H" 
			},
			{
				"x": -0.0790417868,
				"y": -4.7185199674,
				"z": 2.1714526774,
				"element": "H" 
			},
			{
				"x": -0.7043261667,
				"y": -4.6201533843,
				"z": 0.5787094193,
				"element": "H" 
			}
		],
		 "valence_orbital": [ 
			{
				"type": "occ",
				"energy": -0.28408,
				"method": "rhf"
			},
			{
				"type": "occ",
				"energy": -0.25724,
				"method": "rhf"
			},
			{
				"type": "occ",
				"energy": -0.24971,
				"method": "rhf"
			},
			{
				"type": "occ",
				"energy": -0.22875,
				"method": "rhf"
			},
			{
				"type": "occ",
				"energy": -0.21471,
				"method": "rhf"
			},
			{
				"type": "unocc",
				"energy": -0.02662,
				"method": "rhf"
			},
			{
				"type": "unocc",
				"energy": -0.00519,
				"method": "rhf"
			},
			{
				"type": "unocc",
				"energy": -0.00191,
				"method": "rhf"
			},
			{
				"type": "unocc",
				"energy": 0.01334,
				"method": "rhf"
			},
			{
				"type": "unocc",
				"energy": 0.02681,
				"method": "rhf"
			}
		],
		"cosmo_sigma_profile": { 
			"-0.025": 0.0,
			"-0.024": 0.0,
			"-0.023": 0.0,
			"-0.022": 0.0,
			"-0.021": 0.0,
			"-0.02": 0.0,
			"-0.019": 0.0647401222663,
			"-0.018": 1.7784838485,
			"-0.017": 1.21004420531,
			"-0.016": 1.57105887117,
			"-0.015": 2.77379729632,
			"-0.014": 2.62368271679,
			"-0.013": 2.3983012346,
			"-0.012": 4.14593429571,
			"-0.011": 2.86477688574,
			"-0.01": 2.30487333876,
			"-0.009": 2.59418860357,
			"-0.008": 2.67613427662,
			"-0.007": 3.05842061186,
			"-0.006": 14.9335526523,
			"-0.005": 22.0343834204,
			"-0.004": 21.0452300575,
			"-0.003": 23.0645935009,
			"-0.002": 18.8461334839,
			"-0.001": 18.5273961477,
			"0.0": 20.3506346989,
			"0.001": 20.0160955336,
			"0.002": 29.4120332548,
			"0.003": 35.6470316612,
			"0.004": 20.7395327814,
			"0.005": 17.1684825588,
			"0.006": 7.56457018268,
			"0.007": 4.57158655461,
			"0.008": 6.20576303269,
			"0.009": 6.22933530416,
			"0.01": 5.9655604608,
			"0.011": 4.35433675017,
			"0.012": 4.19436404341,
			"0.013": 3.22347587348,
			"0.014": 1.89484790136,
			"0.015": 0.0,
			"0.016": 0.0,
			"0.017": 0.0,
			"0.018": 0.0,
			"0.019": 0.0,
			"0.02": 0.0,
			"0.021": 0.0,
			"0.022": 0.0,
			"0.023": 0.0,
			"0.024": 0.0,
			"0.025": 0.0
		}
	}
}
