{
	 "smiles": "CNC1CC2OC(C)(C1OC)N1C3=C(C=CC=C3)C3=C1C1=C(C4=C(C=CC=C4)N21)C1=C3CNC1=O", 
	 "Tm": 543.15, 
	 "num_atms": 61, 
	 "gaussian": { 
		 "optdone": 1, 
		 "sigma_profile": "yes", 
		 "theory": "DFT", 
		 "functional": "B3LYP", 
		 "basiset": "6-31G**", 
		 "properties": { 
			 "R2extent": 15269.0585, 
			 "electric_dipole_moment_norm": 8.35657792461, 
			 "electric_quadrupole_moment_norm": 28.9076136594, 
			 "total_energy": -1527.35225996, 
			 "HOMO_LUMO_gap": 0.15074, 
			 "cosmo_polarized_energy": -26.0, 
			 "cosmo_cavitation_energy": 57.69, 
			 "cosmo_dispersion_energy": -39.85, 
			 "cosmo_repulsion_energy": 2.85, 
			 "cosmo_total_nonelectrostatic_energy": 20.69, 
			 "SMD_solvation_energy": 6.81 
		},
		"coords": [
			{
				"x": 2.4506043333,
				"y": 1.5659436236,
				"z": -4.9599678902,
				"element": "C" 
			},
			{
				"x": 2.4206864189,
				"y": 0.6658434374,
				"z": -3.8104070023,
				"element": "N" 
			},
			{
				"x": 1.1004599456,
				"y": 0.1029840546,
				"z": -3.5222791766,
				"element": "C" 
			},
			{
				"x": 0.1778347346,
				"y": 1.1390100325,
				"z": -2.8798939056,
				"element": "C" 
			},
			{
				"x": 0.8191451967,
				"y": 1.6767690109,
				"z": -1.5954229765,
				"element": "C" 
			},
			{
				"x": 1.5405684051,
				"y": 0.6759122701,
				"z": -0.8848287105,
				"element": "O" 
			},
			{
				"x": 1.2028085311,
				"y": -0.6857745422,
				"z": -1.0276026176,
				"element": "C" 
			},
			{
				"x": 2.3346915689,
				"y": -1.3895801529,
				"z": -0.2660310638,
				"element": "C" 
			},
			{
				"x": 1.2090317617,
				"y": -1.1026918246,
				"z": -2.5551726492,
				"element": "C" 
			},
			{
				"x": 0.1464040829,
				"y": -2.0082815064,
				"z": -2.7808449485,
				"element": "O" 
			},
			{
				"x": 0.3523127248,
				"y": -2.9151053397,
				"z": -3.8489711534,
				"element": "C" 
			},
			{
				"x": -0.1113835298,
				"y": -0.9546615959,
				"z": -0.3639812766,
				"element": "N" 
			},
			{
				"x": -0.5590182824,
				"y": -2.2078429324,
				"z": 0.0924659253,
				"element": "C" 
			},
			{
				"x": -1.6432691053,
				"y": -2.0179846734,
				"z": 0.9912102808,
				"element": "C" 
			},
			{
				"x": -2.2679507425,
				"y": -3.1221043758,
				"z": 1.5886640139,
				"element": "C" 
			},
			{
				"x": -1.8146238531,
				"y": -4.4023194874,
				"z": 1.294517297,
				"element": "C" 
			},
			{
				"x": -0.7515395814,
				"y": -4.583888627,
				"z": 0.3951761193,
				"element": "C" 
			},
			{
				"x": -0.1222268394,
				"y": -3.5030246499,
				"z": -0.2166743703,
				"element": "C" 
			},
			{
				"x": -1.8768946474,
				"y": -0.5985743037,
				"z": 1.0790090578,
				"element": "C" 
			},
			{
				"x": -0.9200106854,
				"y": 0.0233739914,
				"z": 0.2373671077,
				"element": "C" 
			},
			{
				"x": -0.9512134356,
				"y": 1.4219509312,
				"z": 0.0997951917,
				"element": "C" 
			},
			{
				"x": -1.8813797712,
				"y": 2.2213308437,
				"z": 0.8100893336,
				"element": "C" 
			},
			{
				"x": -1.6161781747,
				"y": 3.5913270096,
				"z": 0.4251123944,
				"element": "C" 
			},
			{
				"x": -0.5414298191,
				"y": 3.5578118161,
				"z": -0.5077430313,
				"element": "C" 
			},
			{
				"x": -0.036659632,
				"y": 4.7234151715,
				"z": -1.0930612495,
				"element": "C" 
			},
			{
				"x": -0.6172082369,
				"y": 5.9333547878,
				"z": -0.7210146768,
				"element": "C" 
			},
			{
				"x": -1.6770208448,
				"y": 5.9847926487,
				"z": 0.2031463927,
				"element": "C" 
			},
			{
				"x": -2.1835533377,
				"y": 4.8247617605,
				"z": 0.7803718948,
				"element": "C" 
			},
			{
				"x": -0.1530718296,
				"y": 2.2363352668,
				"z": -0.6849081328,
				"element": "N" 
			},
			{
				"x": -2.8046277198,
				"y": 1.576010245,
				"z": 1.6602247855,
				"element": "C" 
			},
			{
				"x": -2.8024359291,
				"y": 0.1914085457,
				"z": 1.7812482614,
				"element": "C" 
			},
			{
				"x": -3.8960620472,
				"y": -0.2360542446,
				"z": 2.7322994526,
				"element": "C" 
			},
			{
				"x": -4.47985549,
				"y": 1.0387247566,
				"z": 3.1073031191,
				"element": "N" 
			},
			{
				"x": -3.8857393316,
				"y": 2.1352005288,
				"z": 2.515270276,
				"element": "C" 
			},
			{
				"x": -4.2213408518,
				"y": 3.3005478796,
				"z": 2.6942686931,
				"element": "O" 
			},
			{
				"x": 1.9190848239,
				"y": 2.4955853245,
				"z": -4.7320982236,
				"element": "H" 
			},
			{
				"x": 3.4876543747,
				"y": 1.833215101,
				"z": -5.1812029133,
				"element": "H" 
			},
			{
				"x": 1.9988037814,
				"y": 1.1421677275,
				"z": -5.8755122864,
				"element": "H" 
			},
			{
				"x": 3.0773457159,
				"y": -0.0931724063,
				"z": -3.9711772593,
				"element": "H" 
			},
			{
				"x": 0.6103982944,
				"y": -0.2721547954,
				"z": -4.4398222413,
				"element": "H" 
			},
			{
				"x": -0.0389701566,
				"y": 1.9784917279,
				"z": -3.546893399,
				"element": "H" 
			},
			{
				"x": -0.7788743863,
				"y": 0.657943484,
				"z": -2.6541318629,
				"element": "H" 
			},
			{
				"x": 1.5562877252,
				"y": 2.4464572576,
				"z": -1.8321282915,
				"element": "H" 
			},
			{
				"x": 3.2857275977,
				"y": -1.0711424984,
				"z": -0.699538932,
				"element": "H" 
			},
			{
				"x": 2.2638484086,
				"y": -2.4748752083,
				"z": -0.3204704742,
				"element": "H" 
			},
			{
				"x": 2.307821606,
				"y": -1.0842343608,
				"z": 0.7820819852,
				"element": "H" 
			},
			{
				"x": 2.1692581108,
				"y": -1.6123264249,
				"z": -2.7393205226,
				"element": "H" 
			},
			{
				"x": -0.523185191,
				"y": -3.5666811981,
				"z": -3.8796449808,
				"element": "H" 
			},
			{
				"x": 1.2513760139,
				"y": -3.5298481642,
				"z": -3.688239154,
				"element": "H" 
			},
			{
				"x": 0.4475520882,
				"y": -2.4084681327,
				"z": -4.819830391,
				"element": "H" 
			},
			{
				"x": -3.098030455,
				"y": -2.9789151095,
				"z": 2.2736750271,
				"element": "H" 
			},
			{
				"x": -2.288574012,
				"y": -5.2654381529,
				"z": 1.7520074508,
				"element": "H" 
			},
			{
				"x": -0.4157768381,
				"y": -5.5895591635,
				"z": 0.158625998,
				"element": "H" 
			},
			{
				"x": 0.6630441212,
				"y": -3.677429158,
				"z": -0.93880776,
				"element": "H" 
			},
			{
				"x": 0.7779400375,
				"y": 4.6953037411,
				"z": -1.8104234157,
				"element": "H" 
			},
			{
				"x": -0.2424157126,
				"y": 6.855195376,
				"z": -1.1570859986,
				"element": "H" 
			},
			{
				"x": -2.106218546,
				"y": 6.9466589804,
				"z": 0.4674977676,
				"element": "H" 
			},
			{
				"x": -3.0014858197,
				"y": 4.8448605566,
				"z": 1.4924313076,
				"element": "H" 
			},
			{
				"x": -4.629691733,
				"y": -0.8953635179,
				"z": 2.2452323565,
				"element": "H" 
			},
			{
				"x": -3.4966247377,
				"y": -0.7760157644,
				"z": 3.6034550157,
				"element": "H" 
			},
			{
				"x": -5.2488490972,
				"y": 1.1487244223,
				"z": 3.7485864326,
				"element": "H" 
			}
		],
		 "valence_orbital": [ 
			{
				"type": "occ",
				"energy": -0.23892,
				"method": "rhf"
			},
			{
				"type": "occ",
				"energy": -0.23344,
				"method": "rhf"
			},
			{
				"type": "occ",
				"energy": -0.21593,
				"method": "rhf"
			},
			{
				"type": "occ",
				"energy": -0.19381,
				"method": "rhf"
			},
			{
				"type": "occ",
				"energy": -0.18237,
				"method": "rhf"
			},
			{
				"type": "unocc",
				"energy": -0.03163,
				"method": "rhf"
			},
			{
				"type": "unocc",
				"energy": -0.01393,
				"method": "rhf"
			},
			{
				"type": "unocc",
				"energy": 0.01007,
				"method": "rhf"
			},
			{
				"type": "unocc",
				"energy": 0.0243,
				"method": "rhf"
			},
			{
				"type": "unocc",
				"energy": 0.03689,
				"method": "rhf"
			}
		],
		"cosmo_sigma_profile": { 
			"-0.025": 0.0,
			"-0.024": 0.0,
			"-0.023": 0.0,
			"-0.022": 0.0,
			"-0.021": 0.0,
			"-0.02": 0.0,
			"-0.019": 0.0,
			"-0.018": 0.0,
			"-0.017": 0.0,
			"-0.016": 0.0,
			"-0.015": 0.0,
			"-0.014": 1.14696135134,
			"-0.013": 1.00856598601,
			"-0.012": 1.35206121681,
			"-0.011": 1.45472119839,
			"-0.01": 2.52664885871,
			"-0.009": 3.01516215417,
			"-0.008": 4.273433561,
			"-0.007": 6.64053119494,
			"-0.006": 22.0125360538,
			"-0.005": 36.2265672878,
			"-0.004": 42.3839375829,
			"-0.003": 41.5782242846,
			"-0.002": 40.9310046076,
			"-0.001": 34.0288135044,
			"0.0": 27.9879212037,
			"0.001": 20.6227697388,
			"0.002": 22.8437419933,
			"0.003": 31.4195457608,
			"0.004": 33.7254166529,
			"0.005": 23.660052184,
			"0.006": 21.9626453696,
			"0.007": 7.74866150881,
			"0.008": 4.8504173128,
			"0.009": 4.70896445303,
			"0.01": 4.25280471425,
			"0.011": 3.59396692106,
			"0.012": 2.29213844968,
			"0.013": 3.41292409563,
			"0.014": 3.72357452559,
			"0.015": 1.86928043911,
			"0.016": 0.109245350665,
			"0.017": 0.0,
			"0.018": 0.0,
			"0.019": 0.0,
			"0.02": 0.0,
			"0.021": 0.0,
			"0.022": 0.0,
			"0.023": 0.0,
			"0.024": 0.0,
			"0.025": 0.0
		}
	}
}
