{
	 "smiles": "CCN(CC)C(=S)SSC(=S)N(CC)CC", 
	 "Tm": 343.95, 
	 "num_atms": 36, 
	 "gaussian": { 
		 "optdone": 1, 
		 "sigma_profile": "yes", 
		 "theory": "DFT", 
		 "functional": "B3LYP", 
		 "basiset": "6-31G**", 
		 "properties": { 
			 "R2extent": 7312.4879, 
			 "electric_dipole_moment_norm": 0.648917221223, 
			 "electric_quadrupole_moment_norm": 29.865575413, 
			 "total_energy": -2095.38391206, 
			 "HOMO_LUMO_gap": 0.17295, 
			 "cosmo_polarized_energy": -16.68, 
			 "cosmo_cavitation_energy": 42.97, 
			 "cosmo_dispersion_energy": -29.99, 
			 "cosmo_repulsion_energy": 2.23, 
			 "cosmo_total_nonelectrostatic_energy": 15.2, 
			 "SMD_solvation_energy": 5.38 
		},
		"coords": [
			{
				"x": -4.4112225789,
				"y": -1.5243728863,
				"z": 1.9834756257,
				"element": "C" 
			},
			{
				"x": -3.4810573358,
				"y": -1.6535906841,
				"z": 0.7733286392,
				"element": "C" 
			},
			{
				"x": -3.4852690643,
				"y": -0.4632317306,
				"z": -0.0989509497,
				"element": "N" 
			},
			{
				"x": -4.5124442734,
				"y": -0.4714504069,
				"z": -1.1592369525,
				"element": "C" 
			},
			{
				"x": -4.0284357541,
				"y": -1.1461107437,
				"z": -2.4439593119,
				"element": "C" 
			},
			{
				"x": -2.6098504321,
				"y": 0.5603757949,
				"z": -0.0073408185,
				"element": "C" 
			},
			{
				"x": -2.5014356456,
				"y": 1.8413290045,
				"z": -1.0567906857,
				"element": "S" 
			},
			{
				"x": -1.5489047218,
				"y": 0.4118618271,
				"z": 1.508762213,
				"element": "S" 
			},
			{
				"x": -0.1032329525,
				"y": 1.8232840969,
				"z": 1.2602734623,
				"element": "S" 
			},
			{
				"x": 1.2226704831,
				"y": 0.9587740365,
				"z": 0.2858419018,
				"element": "C" 
			},
			{
				"x": 1.1117718683,
				"y": -0.6324325287,
				"z": -0.1715634146,
				"element": "S" 
			},
			{
				"x": 2.2502866451,
				"y": 1.7893044148,
				"z": 0.0105789387,
				"element": "N" 
			},
			{
				"x": 2.3060597021,
				"y": 3.2084124955,
				"z": 0.4114226746,
				"element": "C" 
			},
			{
				"x": 1.6984770804,
				"y": 4.1509072893,
				"z": -0.6316840128,
				"element": "C" 
			},
			{
				"x": 3.4024597197,
				"y": 1.3163769807,
				"z": -0.7814574911,
				"element": "C" 
			},
			{
				"x": 4.5074324493,
				"y": 0.7184298629,
				"z": 0.0907014405,
				"element": "C" 
			},
			{
				"x": -4.097414933,
				"y": -0.7083936157,
				"z": 2.6399342212,
				"element": "H" 
			},
			{
				"x": -5.443805062,
				"y": -1.3351051989,
				"z": 1.6737290086,
				"element": "H" 
			},
			{
				"x": -4.3970418239,
				"y": -2.4532767233,
				"z": 2.5626623886,
				"element": "H" 
			},
			{
				"x": -3.7889160382,
				"y": -2.4987575987,
				"z": 0.1498169545,
				"element": "H" 
			},
			{
				"x": -2.45529553,
				"y": -1.8586236896,
				"z": 1.0881311478,
				"element": "H" 
			},
			{
				"x": -4.7963490766,
				"y": 0.5630662746,
				"z": -1.356997198,
				"element": "H" 
			},
			{
				"x": -5.3840113251,
				"y": -0.9946027819,
				"z": -0.7514485459,
				"element": "H" 
			},
			{
				"x": -3.7259150659,
				"y": -2.1832912811,
				"z": -2.2661467231,
				"element": "H" 
			},
			{
				"x": -3.1788940093,
				"y": -0.6012601099,
				"z": -2.8611510088,
				"element": "H" 
			},
			{
				"x": -4.8348163703,
				"y": -1.1522486591,
				"z": -3.1846026463,
				"element": "H" 
			},
			{
				"x": 1.8158370818,
				"y": 3.3334143489,
				"z": 1.3804704291,
				"element": "H" 
			},
			{
				"x": 3.361730036,
				"y": 3.4460195521,
				"z": 0.5759612665,
				"element": "H" 
			},
			{
				"x": 1.7924257617,
				"y": 5.1882543636,
				"z": -0.294341078,
				"element": "H" 
			},
			{
				"x": 2.2136956819,
				"y": 4.0600011987,
				"z": -1.5929739537,
				"element": "H" 
			},
			{
				"x": 0.639140176,
				"y": 3.9314166079,
				"z": -0.7863720451,
				"element": "H" 
			},
			{
				"x": 3.0374273679,
				"y": 0.5766702893,
				"z": -1.4951688655,
				"element": "H" 
			},
			{
				"x": 3.7762569867,
				"y": 2.1789285505,
				"z": -1.3429021794,
				"element": "H" 
			},
			{
				"x": 5.3505442425,
				"y": 0.4111970643,
				"z": -0.5365794985,
				"element": "H" 
			},
			{
				"x": 4.8783456728,
				"y": 1.4425777037,
				"z": 0.8237433558,
				"element": "H" 
			},
			{
				"x": 4.1366510376,
				"y": -0.1602531184,
				"z": 0.6235337112,
				"element": "H" 
			}
		],
		 "valence_orbital": [ 
			{
				"type": "occ",
				"energy": -0.24916,
				"method": "rhf"
			},
			{
				"type": "occ",
				"energy": -0.22284,
				"method": "rhf"
			},
			{
				"type": "occ",
				"energy": -0.21858,
				"method": "rhf"
			},
			{
				"type": "occ",
				"energy": -0.20884,
				"method": "rhf"
			},
			{
				"type": "occ",
				"energy": -0.20441,
				"method": "rhf"
			},
			{
				"type": "unocc",
				"energy": -0.03146,
				"method": "rhf"
			},
			{
				"type": "unocc",
				"energy": -0.02451,
				"method": "rhf"
			},
			{
				"type": "unocc",
				"energy": -0.0224,
				"method": "rhf"
			},
			{
				"type": "unocc",
				"energy": 0.03169,
				"method": "rhf"
			},
			{
				"type": "unocc",
				"energy": 0.03329,
				"method": "rhf"
			}
		],
		"cosmo_sigma_profile": { 
			"-0.025": 0.0,
			"-0.024": 0.0,
			"-0.023": 0.0,
			"-0.022": 0.0,
			"-0.021": 0.0,
			"-0.02": 0.0,
			"-0.019": 0.0,
			"-0.018": 0.0,
			"-0.017": 0.0,
			"-0.016": 0.0,
			"-0.015": 0.0,
			"-0.014": 0.0,
			"-0.013": 0.0,
			"-0.012": 0.0,
			"-0.011": 0.0,
			"-0.01": 0.0,
			"-0.009": 0.0,
			"-0.008": 0.0263932759573,
			"-0.007": 5.64409258972,
			"-0.006": 16.2216394031,
			"-0.005": 21.6536430647,
			"-0.004": 36.7013409305,
			"-0.003": 33.5018613751,
			"-0.002": 32.705296221,
			"-0.001": 32.4085047827,
			"0.0": 40.1372751413,
			"0.001": 21.477261483,
			"0.002": 13.9617011073,
			"0.003": 12.8027146678,
			"0.004": 12.7846600514,
			"0.005": 13.9056366401,
			"0.006": 13.4385335554,
			"0.007": 13.0669886774,
			"0.008": 15.2828435749,
			"0.009": 6.83462138946,
			"0.01": 2.36927791913,
			"0.011": 0.186535638063,
			"0.012": 0.0,
			"0.013": 0.0,
			"0.014": 0.0,
			"0.015": 0.0,
			"0.016": 0.0,
			"0.017": 0.0,
			"0.018": 0.0,
			"0.019": 0.0,
			"0.02": 0.0,
			"0.021": 0.0,
			"0.022": 0.0,
			"0.023": 0.0,
			"0.024": 0.0,
			"0.025": 0.0
		}
	}
}
