{
	 "smiles": "CCNCC(O)C1=CC=CC(O)=C1", 
	 "Tm": 421.15, 
	 "num_atms": 28, 
	 "gaussian": { 
		 "optdone": 1, 
		 "sigma_profile": "yes", 
		 "theory": "DFT", 
		 "functional": "B3LYP", 
		 "basiset": "6-31G**", 
		 "properties": { 
			 "R2extent": 3458.7056, 
			 "electric_dipole_moment_norm": 3.10839926329, 
			 "electric_quadrupole_moment_norm": 11.7952804324, 
			 "total_energy": -595.294596903, 
			 "HOMO_LUMO_gap": 0.21567, 
			 "cosmo_polarized_energy": -12.61, 
			 "cosmo_cavitation_energy": 30.33, 
			 "cosmo_dispersion_energy": -21.76, 
			 "cosmo_repulsion_energy": 1.75, 
			 "cosmo_total_nonelectrostatic_energy": 10.32, 
			 "SMD_solvation_energy": 4.56 
		},
		"coords": [
			{
				"x": -2.5971878634,
				"y": 2.534830399,
				"z": -2.6041656315,
				"element": "C" 
			},
			{
				"x": -1.0898770219,
				"y": 2.4005559118,
				"z": -2.3831397271,
				"element": "C" 
			},
			{
				"x": -0.7547296654,
				"y": 1.3652177921,
				"z": -1.3973297258,
				"element": "N" 
			},
			{
				"x": -0.9404283531,
				"y": 1.7445707214,
				"z": 0.0038496091,
				"element": "C" 
			},
			{
				"x": -0.7963550517,
				"y": 0.4745768981,
				"z": 0.8734205914,
				"element": "C" 
			},
			{
				"x": -1.6624169548,
				"y": -0.5196644601,
				"z": 0.3615691868,
				"element": "O" 
			},
			{
				"x": 0.6589363334,
				"y": 0.0079104361,
				"z": 0.9545661679,
				"element": "C" 
			},
			{
				"x": 1.0681526941,
				"y": -1.186399813,
				"z": 0.3572905463,
				"element": "C" 
			},
			{
				"x": 2.4090362815,
				"y": -1.5788582084,
				"z": 0.4280875656,
				"element": "C" 
			},
			{
				"x": 3.3505322146,
				"y": -0.7988005696,
				"z": 1.091635907,
				"element": "C" 
			},
			{
				"x": 2.9404278989,
				"y": 0.3937984433,
				"z": 1.7007477541,
				"element": "C" 
			},
			{
				"x": 3.8946809634,
				"y": 1.1265207568,
				"z": 2.3519511025,
				"element": "O" 
			},
			{
				"x": 1.604005615,
				"y": 0.7932673402,
				"z": 1.6305182478,
				"element": "C" 
			},
			{
				"x": -3.1177592079,
				"y": 2.856957954,
				"z": -1.6968550853,
				"element": "H" 
			},
			{
				"x": -2.802499657,
				"y": 3.2783374752,
				"z": -3.3812471755,
				"element": "H" 
			},
			{
				"x": -3.0244757557,
				"y": 1.577382533,
				"z": -2.9167615962,
				"element": "H" 
			},
			{
				"x": -0.6673619121,
				"y": 3.3836214656,
				"z": -2.1080663062,
				"element": "H" 
			},
			{
				"x": -0.6166999134,
				"y": 2.1112796207,
				"z": -3.3282321767,
				"element": "H" 
			},
			{
				"x": 0.211961999,
				"y": 1.0752197356,
				"z": -1.5261586279,
				"element": "H" 
			},
			{
				"x": -0.2475975893,
				"y": 2.533538964,
				"z": 0.3414452837,
				"element": "H" 
			},
			{
				"x": -1.9594796528,
				"y": 2.1249781031,
				"z": 0.1262304564,
				"element": "H" 
			},
			{
				"x": -1.1375683338,
				"y": 0.7128756346,
				"z": 1.8898505545,
				"element": "H" 
			},
			{
				"x": -1.6761396775,
				"y": -0.3468210239,
				"z": -0.5983415007,
				"element": "H" 
			},
			{
				"x": 0.3281194962,
				"y": -1.8076674148,
				"z": -0.1331974301,
				"element": "H" 
			},
			{
				"x": 2.7218205355,
				"y": -2.5102053033,
				"z": -0.0361595004,
				"element": "H" 
			},
			{
				"x": 4.3926370823,
				"y": -1.0928999553,
				"z": 1.1589037769,
				"element": "H" 
			},
			{
				"x": 3.481184052,
				"y": 1.9082800059,
				"z": 2.7403128698,
				"element": "H" 
			},
			{
				"x": 1.2957814439,
				"y": 1.7190965577,
				"z": 2.1162748638,
				"element": "H" 
			}
		],
		 "valence_orbital": [ 
			{
				"type": "occ",
				"energy": -0.31262,
				"method": "rhf"
			},
			{
				"type": "occ",
				"energy": -0.26297,
				"method": "rhf"
			},
			{
				"type": "occ",
				"energy": -0.24276,
				"method": "rhf"
			},
			{
				"type": "occ",
				"energy": -0.23849,
				"method": "rhf"
			},
			{
				"type": "occ",
				"energy": -0.21794,
				"method": "rhf"
			},
			{
				"type": "unocc",
				"energy": -0.00227,
				"method": "rhf"
			},
			{
				"type": "unocc",
				"energy": 0.01787,
				"method": "rhf"
			},
			{
				"type": "unocc",
				"energy": 0.07074,
				"method": "rhf"
			},
			{
				"type": "unocc",
				"energy": 0.08265,
				"method": "rhf"
			},
			{
				"type": "unocc",
				"energy": 0.10031,
				"method": "rhf"
			}
		],
		"cosmo_sigma_profile": { 
			"-0.025": 0.0,
			"-0.024": 0.0,
			"-0.023": 0.0,
			"-0.022": 0.0,
			"-0.021": 0.0,
			"-0.02": 0.0,
			"-0.019": 0.0,
			"-0.018": 0.148646550858,
			"-0.017": 1.05987793615,
			"-0.016": 1.099811767,
			"-0.015": 0.760849867275,
			"-0.014": 1.05512282031,
			"-0.013": 0.832836709938,
			"-0.012": 0.991702880204,
			"-0.011": 0.92149023621,
			"-0.01": 1.48804046061,
			"-0.009": 1.39012153049,
			"-0.008": 2.48134772133,
			"-0.007": 2.57256822149,
			"-0.006": 5.06801034007,
			"-0.005": 11.2940497392,
			"-0.004": 18.437900247,
			"-0.003": 21.0706943165,
			"-0.002": 27.8361476563,
			"-0.001": 25.5154127519,
			"0.0": 19.4779477831,
			"0.001": 16.0798777256,
			"0.002": 12.1412585968,
			"0.003": 8.99026071591,
			"0.004": 11.2666945879,
			"0.005": 12.3487860547,
			"0.006": 10.0718879897,
			"0.007": 3.61034323557,
			"0.008": 3.79948540418,
			"0.009": 2.63047889256,
			"0.01": 2.3809599889,
			"0.011": 3.08956134924,
			"0.012": 2.74937736472,
			"0.013": 1.41528952087,
			"0.014": 1.68397178049,
			"0.015": 1.37535117304,
			"0.016": 0.0,
			"0.017": 0.0,
			"0.018": 0.0,
			"0.019": 0.0,
			"0.02": 0.0,
			"0.021": 0.0,
			"0.022": 0.0,
			"0.023": 0.0,
			"0.024": 0.0,
			"0.025": 0.0
		}
	}
}
