{
	 "smiles": "BrCC(=O)C1=CSC2=CC=CC=C12", 
	 "Tm": 411.15, 
	 "num_atms": 20, 
	 "gaussian": { 
		 "optdone": 1, 
		 "sigma_profile": "yes", 
		 "theory": "DFT", 
		 "functional": "B3LYP", 
		 "basiset": "6-31G**", 
		 "properties": { 
			 "R2extent": 4151.6008, 
			 "electric_dipole_moment_norm": 3.16087807262, 
			 "electric_quadrupole_moment_norm": 5.52162198815, 
			 "total_energy": -3430.0927784, 
			 "HOMO_LUMO_gap": 0.15721, 
			 "cosmo_polarized_energy": -8.85, 
			 "cosmo_cavitation_energy": 27.69, 
			 "cosmo_dispersion_energy": -21.2, 
			 "cosmo_repulsion_energy": 1.61, 
			 "cosmo_total_nonelectrostatic_energy": 8.09, 
			 "SMD_solvation_energy": 3.81 
		},
		"coords": [
			{
				"x": 0.3858981946,
				"y": -0.4575141312,
				"z": 3.6335432298,
				"element": "Br" 
			},
			{
				"x": -0.9958312952,
				"y": -1.0955450719,
				"z": 2.3648837092,
				"element": "C" 
			},
			{
				"x": -1.2670045714,
				"y": -0.0360257001,
				"z": 1.3049660107,
				"element": "C" 
			},
			{
				"x": -2.234512249,
				"y": 0.6953998567,
				"z": 1.4623686302,
				"element": "O" 
			},
			{
				"x": -0.4232716773,
				"y": 0.0619696625,
				"z": 0.0836762016,
				"element": "C" 
			},
			{
				"x": -0.8571743955,
				"y": 0.9139845036,
				"z": -0.9007805099,
				"element": "C" 
			},
			{
				"x": 0.1119644859,
				"y": 0.9100437436,
				"z": -2.3246503957,
				"element": "S" 
			},
			{
				"x": 1.1929782074,
				"y": -0.2862380473,
				"z": -1.6228649619,
				"element": "C" 
			},
			{
				"x": 2.3216856498,
				"y": -0.8277042792,
				"z": -2.2442961151,
				"element": "C" 
			},
			{
				"x": 3.0798498927,
				"y": -1.7560577671,
				"z": -1.5424589186,
				"element": "C" 
			},
			{
				"x": 2.7172010906,
				"y": -2.1204080783,
				"z": -0.2357419371,
				"element": "C" 
			},
			{
				"x": 1.5964138519,
				"y": -1.5778680647,
				"z": 0.3795463015,
				"element": "C" 
			},
			{
				"x": 0.790243005,
				"y": -0.6488133742,
				"z": -0.3101996629,
				"element": "C" 
			},
			{
				"x": -0.6368973854,
				"y": -2.042001286,
				"z": 1.9633809891,
				"element": "H" 
			},
			{
				"x": -1.8977676157,
				"y": -1.2304703431,
				"z": 2.9566457414,
				"element": "H" 
			},
			{
				"x": -1.7382837145,
				"y": 1.5368023894,
				"z": -0.8306518941,
				"element": "H" 
			},
			{
				"x": 2.5982169596,
				"y": -0.5268299941,
				"z": -3.2500906573,
				"element": "H" 
			},
			{
				"x": 3.9607350699,
				"y": -2.1924555335,
				"z": -2.0031353535,
				"element": "H" 
			},
			{
				"x": 3.328213883,
				"y": -2.8324878625,
				"z": 0.3106896097,
				"element": "H" 
			},
			{
				"x": 1.3785426137,
				"y": -1.8497806227,
				"z": 1.4040699829,
				"element": "H" 
			}
		],
		 "valence_orbital": [ 
			{
				"type": "occ",
				"energy": -0.29411,
				"method": "rhf"
			},
			{
				"type": "occ",
				"energy": -0.28229,
				"method": "rhf"
			},
			{
				"type": "occ",
				"energy": -0.26044,
				"method": "rhf"
			},
			{
				"type": "occ",
				"energy": -0.25091,
				"method": "rhf"
			},
			{
				"type": "occ",
				"energy": -0.23296,
				"method": "rhf"
			},
			{
				"type": "unocc",
				"energy": -0.07575,
				"method": "rhf"
			},
			{
				"type": "unocc",
				"energy": -0.03134,
				"method": "rhf"
			},
			{
				"type": "unocc",
				"energy": -0.01419,
				"method": "rhf"
			},
			{
				"type": "unocc",
				"energy": 0.00414,
				"method": "rhf"
			},
			{
				"type": "unocc",
				"energy": 0.01015,
				"method": "rhf"
			}
		],
		"cosmo_sigma_profile": { 
			"-0.025": 0.0,
			"-0.024": 0.0,
			"-0.023": 0.0,
			"-0.022": 0.0,
			"-0.021": 0.0,
			"-0.02": 0.0,
			"-0.019": 0.0,
			"-0.018": 0.0,
			"-0.017": 0.0,
			"-0.016": 0.0,
			"-0.015": 0.0,
			"-0.014": 0.0,
			"-0.013": 0.0,
			"-0.012": 0.0,
			"-0.011": 0.0,
			"-0.01": 0.27507527748,
			"-0.009": 3.19202802697,
			"-0.008": 7.02629653521,
			"-0.007": 9.76246968568,
			"-0.006": 12.7535470227,
			"-0.005": 13.1724957738,
			"-0.004": 13.5855202727,
			"-0.003": 9.70811181501,
			"-0.002": 12.3000428225,
			"-0.001": 12.7484347154,
			"0.0": 17.5808649454,
			"0.001": 24.0554692845,
			"0.002": 23.2236397311,
			"0.003": 21.701227216,
			"0.004": 20.9005570196,
			"0.005": 11.7304057891,
			"0.006": 1.37575738197,
			"0.007": 1.828685223,
			"0.008": 1.43640018874,
			"0.009": 2.08009941892,
			"0.01": 2.10422991892,
			"0.011": 3.94052322609,
			"0.012": 1.89726978465,
			"0.013": 0.0721686595166,
			"0.014": 0.0,
			"0.015": 0.0,
			"0.016": 0.0,
			"0.017": 0.0,
			"0.018": 0.0,
			"0.019": 0.0,
			"0.02": 0.0,
			"0.021": 0.0,
			"0.022": 0.0,
			"0.023": 0.0,
			"0.024": 0.0,
			"0.025": 0.0
		}
	}
}
