{
	 "smiles": "OC(CCC(=O)C1=CC=CC=C1)C1=CC=CC=C1", 
	 "Tm": 368.15, 
	 "num_atms": 34, 
	 "gaussian": { 
		 "optdone": 1, 
		 "sigma_profile": "yes", 
		 "theory": "DFT", 
		 "functional": "B3LYP", 
		 "basiset": "6-31G**", 
		 "properties": { 
			 "R2extent": 4987.3115, 
			 "electric_dipole_moment_norm": 3.91078074814, 
			 "electric_quadrupole_moment_norm": 15.5666064507, 
			 "total_energy": -769.786604307, 
			 "HOMO_LUMO_gap": 0.1816, 
			 "cosmo_polarized_energy": -16.85, 
			 "cosmo_cavitation_energy": 36.92, 
			 "cosmo_dispersion_energy": -24.7, 
			 "cosmo_repulsion_energy": 1.93, 
			 "cosmo_total_nonelectrostatic_energy": 14.15, 
			 "SMD_solvation_energy": 6.29 
		},
		"coords": [
			{
				"x": -2.0775326421,
				"y": -2.8687006601,
				"z": 0.7326800576,
				"element": "O" 
			},
			{
				"x": -1.1570211768,
				"y": -2.0379682969,
				"z": 0.031387687,
				"element": "C" 
			},
			{
				"x": -1.7726692495,
				"y": -0.6491566495,
				"z": -0.2628817688,
				"element": "C" 
			},
			{
				"x": -2.3062540934,
				"y": 0.1082952127,
				"z": 0.9736398077,
				"element": "C" 
			},
			{
				"x": -1.2737432348,
				"y": 0.844273928,
				"z": 1.8252977668,
				"element": "C" 
			},
			{
				"x": -1.0872999292,
				"y": 0.5218527965,
				"z": 2.9884912372,
				"element": "O" 
			},
			{
				"x": -0.5139458719,
				"y": 1.9997204823,
				"z": 1.2344384615,
				"element": "C" 
			},
			{
				"x": 0.5916656408,
				"y": 2.488063699,
				"z": 1.9491076476,
				"element": "C" 
			},
			{
				"x": 1.3246110187,
				"y": 3.5683333144,
				"z": 1.4676683273,
				"element": "C" 
			},
			{
				"x": 0.9561441009,
				"y": 4.1852268658,
				"z": 0.2679606193,
				"element": "C" 
			},
			{
				"x": -0.1468642119,
				"y": 3.714950811,
				"z": -0.4465492971,
				"element": "C" 
			},
			{
				"x": -0.8759166117,
				"y": 2.625318821,
				"z": 0.0314821912,
				"element": "C" 
			},
			{
				"x": 0.1392054544,
				"y": -1.9803128814,
				"z": 0.8220278035,
				"element": "C" 
			},
			{
				"x": 1.296537038,
				"y": -1.4818183159,
				"z": 0.2086137019,
				"element": "C" 
			},
			{
				"x": 2.5003117822,
				"y": -1.4107373986,
				"z": 0.9086547903,
				"element": "C" 
			},
			{
				"x": 2.5627994546,
				"y": -1.8449186745,
				"z": 2.2346455911,
				"element": "C" 
			},
			{
				"x": 1.4158952371,
				"y": -2.3492970503,
				"z": 2.8486108284,
				"element": "C" 
			},
			{
				"x": 0.2105647727,
				"y": -2.4189220459,
				"z": 2.1477246437,
				"element": "C" 
			},
			{
				"x": -2.8819489029,
				"y": -2.931978953,
				"z": 0.2025402016,
				"element": "H" 
			},
			{
				"x": -0.9244528534,
				"y": -2.4880798139,
				"z": -0.9488577061,
				"element": "H" 
			},
			{
				"x": -2.6113145459,
				"y": -0.8050419285,
				"z": -0.9567068524,
				"element": "H" 
			},
			{
				"x": -1.0394268798,
				"y": -0.0457846697,
				"z": -0.80790892,
				"element": "H" 
			},
			{
				"x": -2.8148346878,
				"y": -0.5939987086,
				"z": 1.637830802,
				"element": "H" 
			},
			{
				"x": -3.0497617011,
				"y": 0.8425229116,
				"z": 0.6377086191,
				"element": "H" 
			},
			{
				"x": 0.8526489381,
				"y": 1.9977797186,
				"z": 2.8808136948,
				"element": "H" 
			},
			{
				"x": 2.1820654935,
				"y": 3.9336857625,
				"z": 2.0255718638,
				"element": "H" 
			},
			{
				"x": 1.5256885747,
				"y": 5.0310313433,
				"z": -0.1069181561,
				"element": "H" 
			},
			{
				"x": -0.4409917597,
				"y": 4.196968775,
				"z": -1.3744531588,
				"element": "H" 
			},
			{
				"x": -1.7359846187,
				"y": 2.277001839,
				"z": -0.5313857654,
				"element": "H" 
			},
			{
				"x": 1.2599223246,
				"y": -1.1532126656,
				"z": -0.8280352541,
				"element": "H" 
			},
			{
				"x": 3.3884941226,
				"y": -1.0227789392,
				"z": 0.4177318117,
				"element": "H" 
			},
			{
				"x": 3.4995370555,
				"y": -1.7934786269,
				"z": 2.782493428,
				"element": "H" 
			},
			{
				"x": 1.4559404456,
				"y": -2.6889871735,
				"z": 3.879720279,
				"element": "H" 
			},
			{
				"x": -0.6805684834,
				"y": -2.8093528285,
				"z": 2.6237550168,
				"element": "H" 
			}
		],
		 "valence_orbital": [ 
			{
				"type": "occ",
				"energy": -0.25771,
				"method": "rhf"
			},
			{
				"type": "occ",
				"energy": -0.25513,
				"method": "rhf"
			},
			{
				"type": "occ",
				"energy": -0.24006,
				"method": "rhf"
			},
			{
				"type": "occ",
				"energy": -0.23669,
				"method": "rhf"
			},
			{
				"type": "occ",
				"energy": -0.23159,
				"method": "rhf"
			},
			{
				"type": "unocc",
				"energy": -0.04999,
				"method": "rhf"
			},
			{
				"type": "unocc",
				"energy": -0.00699,
				"method": "rhf"
			},
			{
				"type": "unocc",
				"energy": 0.00425,
				"method": "rhf"
			},
			{
				"type": "unocc",
				"energy": 0.01133,
				"method": "rhf"
			},
			{
				"type": "unocc",
				"energy": 0.04205,
				"method": "rhf"
			}
		],
		"cosmo_sigma_profile": { 
			"-0.025": 0.0,
			"-0.024": 0.0,
			"-0.023": 0.0,
			"-0.022": 0.0,
			"-0.021": 0.0,
			"-0.02": 0.0,
			"-0.019": 0.0,
			"-0.018": 0.0,
			"-0.017": 0.0,
			"-0.016": 0.408981563738,
			"-0.015": 1.10449193428,
			"-0.014": 0.871881888946,
			"-0.013": 0.92454618368,
			"-0.012": 0.780388639529,
			"-0.011": 1.28354927422,
			"-0.01": 1.12154046344,
			"-0.009": 0.977612004621,
			"-0.008": 0.86729906829,
			"-0.007": 4.31779766506,
			"-0.006": 14.676983096,
			"-0.005": 26.2772439175,
			"-0.004": 31.2169136923,
			"-0.003": 25.8100598832,
			"-0.002": 20.9084060683,
			"-0.001": 18.6416900659,
			"0.0": 15.0957686039,
			"0.001": 14.2131949614,
			"0.002": 15.6019336826,
			"0.003": 19.422611301,
			"0.004": 24.1567207336,
			"0.005": 14.4989180749,
			"0.006": 11.0828888697,
			"0.007": 5.29519518729,
			"0.008": 3.99773556033,
			"0.009": 4.38296302892,
			"0.01": 4.04303771979,
			"0.011": 3.80792998169,
			"0.012": 4.37703386496,
			"0.013": 2.16042943507,
			"0.014": 0.296556649734,
			"0.015": 0.0,
			"0.016": 0.0,
			"0.017": 0.0,
			"0.018": 0.0,
			"0.019": 0.0,
			"0.02": 0.0,
			"0.021": 0.0,
			"0.022": 0.0,
			"0.023": 0.0,
			"0.024": 0.0,
			"0.025": 0.0
		}
	}
}
