{
	 "smiles": "O=CC1=CC=C(OC2=CC=CN=C2)O1", 
	 "Tm": 345.65, 
	 "num_atms": 21, 
	 "gaussian": { 
		 "optdone": 1, 
		 "sigma_profile": "yes", 
		 "theory": "DFT", 
		 "functional": "B3LYP", 
		 "basiset": "6-31G**", 
		 "properties": { 
			 "R2extent": 4076.906, 
			 "electric_dipole_moment_norm": 4.96786474655, 
			 "electric_quadrupole_moment_norm": 19.2977125543, 
			 "total_energy": -665.644752036, 
			 "HOMO_LUMO_gap": 0.16936, 
			 "cosmo_polarized_energy": -12.34, 
			 "cosmo_cavitation_energy": 27.33, 
			 "cosmo_dispersion_energy": -19.76, 
			 "cosmo_repulsion_energy": 1.55, 
			 "cosmo_total_nonelectrostatic_energy": 9.12, 
			 "SMD_solvation_energy": 5.43 
		},
		"coords": [
			{
				"x": 4.7368102878,
				"y": 0.7845516536,
				"z": -0.651265649,
				"element": "O" 
			},
			{
				"x": 3.823656058,
				"y": 0.0693312854,
				"z": -0.2690071181,
				"element": "C" 
			},
			{
				"x": 2.5424253731,
				"y": 0.5777057137,
				"z": 0.1778097603,
				"element": "C" 
			},
			{
				"x": 2.0222563482,
				"y": 1.8413696874,
				"z": 0.3062390452,
				"element": "C" 
			},
			{
				"x": 0.7008850146,
				"y": 1.7076848865,
				"z": 0.8107424718,
				"element": "C" 
			},
			{
				"x": 0.5104870874,
				"y": 0.3521410425,
				"z": 0.9501687739,
				"element": "C" 
			},
			{
				"x": -0.4910418732,
				"y": -0.4198357575,
				"z": 1.4077535357,
				"element": "O" 
			},
			{
				"x": -1.7589330885,
				"y": 0.1366882652,
				"z": 1.5400143034,
				"element": "C" 
			},
			{
				"x": -2.4122635759,
				"y": -0.0102263292,
				"z": 2.7590094197,
				"element": "C" 
			},
			{
				"x": -3.7129275209,
				"y": 0.480014556,
				"z": 2.8595599497,
				"element": "C" 
			},
			{
				"x": -4.2877161621,
				"y": 1.0911591808,
				"z": 1.7436763624,
				"element": "C" 
			},
			{
				"x": -3.6577335373,
				"y": 1.2258082712,
				"z": 0.5694009638,
				"element": "N" 
			},
			{
				"x": -2.4138359549,
				"y": 0.749866094,
				"z": 0.4689932355,
				"element": "C" 
			},
			{
				"x": 1.5889111228,
				"y": -0.3494196264,
				"z": 0.5801107777,
				"element": "O" 
			},
			{
				"x": 3.9119793193,
				"y": -1.0371566149,
				"z": -0.236353767,
				"element": "H" 
			},
			{
				"x": 2.5466832323,
				"y": 2.7544837077,
				"z": 0.0646673478,
				"element": "H" 
			},
			{
				"x": -0.0076842608,
				"y": 2.4870869076,
				"z": 1.0422857324,
				"element": "H" 
			},
			{
				"x": -1.9090709254,
				"y": -0.497430774,
				"z": 3.5876136614,
				"element": "H" 
			},
			{
				"x": -4.269753807,
				"y": 0.3915340909,
				"z": 3.7868201397,
				"element": "H" 
			},
			{
				"x": -5.3004848712,
				"y": 1.4851377962,
				"z": 1.7918531647,
				"element": "H" 
			},
			{
				"x": -1.9156482666,
				"y": 0.8549059632,
				"z": -0.4921921112,
				"element": "H" 
			}
		],
		 "valence_orbital": [ 
			{
				"type": "occ",
				"energy": -0.30405,
				"method": "rhf"
			},
			{
				"type": "occ",
				"energy": -0.27911,
				"method": "rhf"
			},
			{
				"type": "occ",
				"energy": -0.27532,
				"method": "rhf"
			},
			{
				"type": "occ",
				"energy": -0.25292,
				"method": "rhf"
			},
			{
				"type": "occ",
				"energy": -0.22789,
				"method": "rhf"
			},
			{
				"type": "unocc",
				"energy": -0.05853,
				"method": "rhf"
			},
			{
				"type": "unocc",
				"energy": -0.04443,
				"method": "rhf"
			},
			{
				"type": "unocc",
				"energy": -0.03088,
				"method": "rhf"
			},
			{
				"type": "unocc",
				"energy": 0.03751,
				"method": "rhf"
			},
			{
				"type": "unocc",
				"energy": 0.07602,
				"method": "rhf"
			}
		],
		"cosmo_sigma_profile": { 
			"-0.025": 0.0,
			"-0.024": 0.0,
			"-0.023": 0.0,
			"-0.022": 0.0,
			"-0.021": 0.0,
			"-0.02": 0.0,
			"-0.019": 0.0,
			"-0.018": 0.0,
			"-0.017": 0.0,
			"-0.016": 0.0,
			"-0.015": 0.0,
			"-0.014": 0.0,
			"-0.013": 0.0,
			"-0.012": 0.0,
			"-0.011": 0.0,
			"-0.01": 0.00781052491255,
			"-0.009": 1.74069269839,
			"-0.008": 6.59043924401,
			"-0.007": 12.3715598258,
			"-0.006": 15.7864166853,
			"-0.005": 13.971135091,
			"-0.004": 14.4593706175,
			"-0.003": 14.0900338554,
			"-0.002": 15.1342807875,
			"-0.001": 17.0008751203,
			"0.0": 18.8626964561,
			"0.001": 20.8684175623,
			"0.002": 15.8824760307,
			"0.003": 7.8936611506,
			"0.004": 5.79534438286,
			"0.005": 7.17093764962,
			"0.006": 5.2089555033,
			"0.007": 3.87462170616,
			"0.008": 2.69159063187,
			"0.009": 2.71593914139,
			"0.01": 3.5659132003,
			"0.011": 4.2072126102,
			"0.012": 5.52504174962,
			"0.013": 2.97239970807,
			"0.014": 1.38802058406,
			"0.015": 0.770265474649,
			"0.016": 0.450840852647,
			"0.017": 0.00769580439194,
			"0.018": 0.0,
			"0.019": 0.0,
			"0.02": 0.0,
			"0.021": 0.0,
			"0.022": 0.0,
			"0.023": 0.0,
			"0.024": 0.0,
			"0.025": 0.0
		}
	}
}
