{
	 "smiles": "ClC(Cl)C(C1=CC=C(Cl)C=C1)C1=CC=C(Cl)C=C1", 
	 "Tm": 382.15, 
	 "num_atms": 28, 
	 "gaussian": { 
		 "optdone": 1, 
		 "sigma_profile": "yes", 
		 "theory": "DFT", 
		 "functional": "B3LYP", 
		 "basiset": "6-31G**", 
		 "properties": { 
			 "R2extent": 8544.6173, 
			 "electric_dipole_moment_norm": 1.90419851119, 
			 "electric_quadrupole_moment_norm": 12.8676027954, 
			 "total_energy": -2380.28688719, 
			 "HOMO_LUMO_gap": 0.21435, 
			 "cosmo_polarized_energy": -9.46, 
			 "cosmo_cavitation_energy": 38.64, 
			 "cosmo_dispersion_energy": -27.32, 
			 "cosmo_repulsion_energy": 2.14, 
			 "cosmo_total_nonelectrostatic_energy": 13.45, 
			 "SMD_solvation_energy": 5.09 
		},
		"coords": [
			{
				"x": -2.3022403055,
				"y": 0.9268973833,
				"z": -3.4498955127,
				"element": "Cl" 
			},
			{
				"x": -2.2605346021,
				"y": 1.1471578821,
				"z": -1.6550643222,
				"element": "C" 
			},
			{
				"x": -1.3856709659,
				"y": 2.6765810968,
				"z": -1.2629392358,
				"element": "Cl" 
			},
			{
				"x": -1.6932334433,
				"y": -0.1122378854,
				"z": -0.9568454393,
				"element": "C" 
			},
			{
				"x": -2.1320495661,
				"y": -0.249765041,
				"z": 0.5049268703,
				"element": "C" 
			},
			{
				"x": -2.6022129514,
				"y": 0.8007797908,
				"z": 1.3011575009,
				"element": "C" 
			},
			{
				"x": -2.9997603991,
				"y": 0.5827957064,
				"z": 2.6237675365,
				"element": "C" 
			},
			{
				"x": -2.9242040091,
				"y": -0.6988538652,
				"z": 3.1588360678,
				"element": "C" 
			},
			{
				"x": -3.422415169,
				"y": -0.9805478886,
				"z": 4.8193090151,
				"element": "Cl" 
			},
			{
				"x": -2.457036259,
				"y": -1.7659526529,
				"z": 2.3896979894,
				"element": "C" 
			},
			{
				"x": -2.0679008492,
				"y": -1.5318445173,
				"z": 1.0747446935,
				"element": "C" 
			},
			{
				"x": -0.1921856943,
				"y": -0.314455481,
				"z": -1.1503598613,
				"element": "C" 
			},
			{
				"x": 0.2791864907,
				"y": -1.0786255299,
				"z": -2.225116474,
				"element": "C" 
			},
			{
				"x": 1.6450792206,
				"y": -1.2765924009,
				"z": -2.4276664868,
				"element": "C" 
			},
			{
				"x": 2.550683901,
				"y": -0.7032089675,
				"z": -1.5377407079,
				"element": "C" 
			},
			{
				"x": 4.2740327089,
				"y": -0.9501931592,
				"z": -1.7765696606,
				"element": "Cl" 
			},
			{
				"x": 2.1095464236,
				"y": 0.055664281,
				"z": -0.4539938071,
				"element": "C" 
			},
			{
				"x": 0.7414785657,
				"y": 0.2419921849,
				"z": -0.2659655276,
				"element": "C" 
			},
			{
				"x": -3.2952642727,
				"y": 1.3105753003,
				"z": -1.3601010699,
				"element": "H" 
			},
			{
				"x": -2.192614625,
				"y": -0.9297009254,
				"z": -1.490790929,
				"element": "H" 
			},
			{
				"x": -2.6587822645,
				"y": 1.8103001754,
				"z": 0.9109562362,
				"element": "H" 
			},
			{
				"x": -3.3623988746,
				"y": 1.4058166172,
				"z": 3.229511459,
				"element": "H" 
			},
			{
				"x": -2.4036981463,
				"y": -2.7621975068,
				"z": 2.8144780418,
				"element": "H" 
			},
			{
				"x": -1.7017141284,
				"y": -2.3634259753,
				"z": 0.478535332,
				"element": "H" 
			},
			{
				"x": -0.426414425,
				"y": -1.5257022779,
				"z": -2.9189206604,
				"element": "H" 
			},
			{
				"x": 2.0011003086,
				"y": -1.8709330732,
				"z": -3.2616925879,
				"element": "H" 
			},
			{
				"x": 2.8263372436,
				"y": 0.4896541764,
				"z": 0.2341360009,
				"element": "H" 
			},
			{
				"x": 0.3999860878,
				"y": 0.8210225528,
				"z": 0.585405539,
				"element": "H" 
			}
		],
		 "valence_orbital": [ 
			{
				"type": "occ",
				"energy": -0.31035,
				"method": "rhf"
			},
			{
				"type": "occ",
				"energy": -0.27522,
				"method": "rhf"
			},
			{
				"type": "occ",
				"energy": -0.2679,
				"method": "rhf"
			},
			{
				"type": "occ",
				"energy": -0.25862,
				"method": "rhf"
			},
			{
				"type": "occ",
				"energy": -0.24512,
				"method": "rhf"
			},
			{
				"type": "unocc",
				"energy": -0.03077,
				"method": "rhf"
			},
			{
				"type": "unocc",
				"energy": -0.03035,
				"method": "rhf"
			},
			{
				"type": "unocc",
				"energy": -0.0218,
				"method": "rhf"
			},
			{
				"type": "unocc",
				"energy": -0.01836,
				"method": "rhf"
			},
			{
				"type": "unocc",
				"energy": -0.0133,
				"method": "rhf"
			}
		],
		"cosmo_sigma_profile": { 
			"-0.025": 0.0,
			"-0.024": 0.0,
			"-0.023": 0.0,
			"-0.022": 0.0,
			"-0.021": 0.0,
			"-0.02": 0.0,
			"-0.019": 0.0,
			"-0.018": 0.0,
			"-0.017": 0.0,
			"-0.016": 0.0,
			"-0.015": 0.0,
			"-0.014": 0.0,
			"-0.013": 0.0,
			"-0.012": 0.0,
			"-0.011": 0.311728529198,
			"-0.01": 1.74024010669,
			"-0.009": 2.51514988243,
			"-0.008": 4.16640816284,
			"-0.007": 14.3806464564,
			"-0.006": 17.668119919,
			"-0.005": 17.1574580109,
			"-0.004": 12.5167012211,
			"-0.003": 14.7452296094,
			"-0.002": 16.4837862623,
			"-0.001": 20.4276848497,
			"0.0": 21.878928593,
			"0.001": 29.3513285761,
			"0.002": 38.3707080095,
			"0.003": 40.7193777933,
			"0.004": 40.782944046,
			"0.005": 24.7548089824,
			"0.006": 0.164113329727,
			"0.007": 0.0,
			"0.008": 0.0,
			"0.009": 0.0,
			"0.01": 0.0,
			"0.011": 0.0,
			"0.012": 0.0,
			"0.013": 0.0,
			"0.014": 0.0,
			"0.015": 0.0,
			"0.016": 0.0,
			"0.017": 0.0,
			"0.018": 0.0,
			"0.019": 0.0,
			"0.02": 0.0,
			"0.021": 0.0,
			"0.022": 0.0,
			"0.023": 0.0,
			"0.024": 0.0,
			"0.025": 0.0
		}
	}
}
