{
	 "smiles": "COC(=O)C1=CC(NCC2=C(C)N=CN2)=C(C)C=C1", 
	 "Tm": 454.15, 
	 "num_atms": 36, 
	 "gaussian": { 
		 "optdone": 1, 
		 "sigma_profile": "yes", 
		 "theory": "DFT", 
		 "functional": "B3LYP", 
		 "basiset": "6-31G**", 
		 "properties": { 
			 "R2extent": 6190.6593, 
			 "electric_dipole_moment_norm": 1.73004925074, 
			 "electric_quadrupole_moment_norm": 24.75405383, 
			 "total_energy": -858.460220774, 
			 "HOMO_LUMO_gap": 0.16002, 
			 "cosmo_polarized_energy": -18.39, 
			 "cosmo_cavitation_energy": 39.39, 
			 "cosmo_dispersion_energy": -27.48, 
			 "cosmo_repulsion_energy": 2.15, 
			 "cosmo_total_nonelectrostatic_energy": 14.06, 
			 "SMD_solvation_energy": 5.75 
		},
		"coords": [
			{
				"x": -2.466315364,
				"y": 2.7700414679,
				"z": -3.1283937975,
				"element": "C" 
			},
			{
				"x": -1.8044262464,
				"y": 2.2077721416,
				"z": -1.9856048148,
				"element": "O" 
			},
			{
				"x": -2.607578862,
				"y": 1.9541794827,
				"z": -0.9221964603,
				"element": "C" 
			},
			{
				"x": -3.8036880719,
				"y": 2.1708586096,
				"z": -0.9355134913,
				"element": "O" 
			},
			{
				"x": -1.8624432417,
				"y": 1.3833379924,
				"z": 0.2346611937,
				"element": "C" 
			},
			{
				"x": -0.4728798525,
				"y": 1.1982584943,
				"z": 0.1981241873,
				"element": "C" 
			},
			{
				"x": 0.2120052224,
				"y": 0.6550083569,
				"z": 1.2982310738,
				"element": "C" 
			},
			{
				"x": 1.5982402269,
				"y": 0.5065931092,
				"z": 1.3119954745,
				"element": "N" 
			},
			{
				"x": 2.4124463383,
				"y": 0.515498842,
				"z": 0.0929092975,
				"element": "C" 
			},
			{
				"x": 2.3745053803,
				"y": -0.7442337637,
				"z": -0.7221138905,
				"element": "C" 
			},
			{
				"x": 3.3573152785,
				"y": -1.649570293,
				"z": -1.0732638473,
				"element": "C" 
			},
			{
				"x": 4.8204156878,
				"y": -1.6291472245,
				"z": -0.7521978951,
				"element": "C" 
			},
			{
				"x": 2.8192936449,
				"y": -2.6716007386,
				"z": -1.8322385105,
				"element": "N" 
			},
			{
				"x": 1.5379769078,
				"y": -2.3973243158,
				"z": -1.9371734967,
				"element": "C" 
			},
			{
				"x": 1.2105812434,
				"y": -1.2416082413,
				"z": -1.2930701155,
				"element": "N" 
			},
			{
				"x": -0.5304387263,
				"y": 0.2940224904,
				"z": 2.4571904263,
				"element": "C" 
			},
			{
				"x": 0.1721206171,
				"y": -0.276417928,
				"z": 3.6631658094,
				"element": "C" 
			},
			{
				"x": -1.9121242751,
				"y": 0.4888339749,
				"z": 2.4630961782,
				"element": "C" 
			},
			{
				"x": -2.5908153501,
				"y": 1.026108689,
				"z": 1.3707723067,
				"element": "C" 
			},
			{
				"x": -2.9302231061,
				"y": 3.7262316756,
				"z": -2.8734389718,
				"element": "H" 
			},
			{
				"x": -3.2408781722,
				"y": 2.0930879243,
				"z": -3.4977316342,
				"element": "H" 
			},
			{
				"x": -1.6893388738,
				"y": 2.9099534036,
				"z": -3.8801136121,
				"element": "H" 
			},
			{
				"x": 0.0625289119,
				"y": 1.508182335,
				"z": -0.6902926272,
				"element": "H" 
			},
			{
				"x": 1.9287767228,
				"y": -0.1645159376,
				"z": 1.9912960135,
				"element": "H" 
			},
			{
				"x": 3.4482180363,
				"y": 0.6921995434,
				"z": 0.3957301,
				"element": "H" 
			},
			{
				"x": 2.126505077,
				"y": 1.39058532,
				"z": -0.5004917476,
				"element": "H" 
			},
			{
				"x": 5.0795797645,
				"y": -0.8144687163,
				"z": -0.0696680002,
				"element": "H" 
			},
			{
				"x": 5.1261721204,
				"y": -2.5727500498,
				"z": -0.288222004,
				"element": "H" 
			},
			{
				"x": 5.4213822235,
				"y": -1.5091813767,
				"z": -1.6606933925,
				"element": "H" 
			},
			{
				"x": 0.8040394484,
				"y": -2.9943315228,
				"z": -2.4619720751,
				"element": "H" 
			},
			{
				"x": 0.2892334382,
				"y": -0.8393937251,
				"z": -1.1927473541,
				"element": "H" 
			},
			{
				"x": -0.5328649017,
				"y": -0.4532047623,
				"z": 4.4786385145,
				"element": "H" 
			},
			{
				"x": 0.9514114849,
				"y": 0.4020042551,
				"z": 4.0330369008,
				"element": "H" 
			},
			{
				"x": 0.658717969,
				"y": -1.2369983856,
				"z": 3.4413858325,
				"element": "H" 
			},
			{
				"x": -2.4697299287,
				"y": 0.2098630933,
				"z": 3.3535815836,
				"element": "H" 
			},
			{
				"x": -3.6643207717,
				"y": 1.17322578,
				"z": 1.3823228458,
				"element": "H" 
			}
		],
		 "valence_orbital": [ 
			{
				"type": "occ",
				"energy": -0.26896,
				"method": "rhf"
			},
			{
				"type": "occ",
				"energy": -0.26088,
				"method": "rhf"
			},
			{
				"type": "occ",
				"energy": -0.25482,
				"method": "rhf"
			},
			{
				"type": "occ",
				"energy": -0.2218,
				"method": "rhf"
			},
			{
				"type": "occ",
				"energy": -0.20433,
				"method": "rhf"
			},
			{
				"type": "unocc",
				"energy": -0.04431,
				"method": "rhf"
			},
			{
				"type": "unocc",
				"energy": 0.00015,
				"method": "rhf"
			},
			{
				"type": "unocc",
				"energy": 0.02764,
				"method": "rhf"
			},
			{
				"type": "unocc",
				"energy": 0.06077,
				"method": "rhf"
			},
			{
				"type": "unocc",
				"energy": 0.06599,
				"method": "rhf"
			}
		],
		"cosmo_sigma_profile": { 
			"-0.025": 0.0,
			"-0.024": 0.0,
			"-0.023": 0.0,
			"-0.022": 0.0,
			"-0.021": 0.0,
			"-0.02": 0.0,
			"-0.019": 0.0,
			"-0.018": 0.0,
			"-0.017": 0.0,
			"-0.016": 0.0,
			"-0.015": 0.0,
			"-0.014": 0.258835153228,
			"-0.013": 0.864573798536,
			"-0.012": 0.983306809094,
			"-0.011": 2.27594696146,
			"-0.01": 1.35243239736,
			"-0.009": 3.6829759076,
			"-0.008": 7.87233022875,
			"-0.007": 7.43475619134,
			"-0.006": 14.2793276782,
			"-0.005": 20.3462617361,
			"-0.004": 26.0354501923,
			"-0.003": 27.897650796,
			"-0.002": 24.4564211895,
			"-0.001": 24.6102275821,
			"0.0": 24.6701834791,
			"0.001": 19.0674396591,
			"0.002": 16.2568960314,
			"0.003": 16.023372443,
			"0.004": 17.6826848623,
			"0.005": 15.6538088492,
			"0.006": 7.52965489741,
			"0.007": 3.4361131664,
			"0.008": 4.61384725822,
			"0.009": 3.80596652446,
			"0.01": 3.26425344533,
			"0.011": 4.71323862108,
			"0.012": 5.90193434219,
			"0.013": 1.63775500065,
			"0.014": 1.48197259099,
			"0.015": 0.693775539414,
			"0.016": 1.34131937356,
			"0.017": 0.943168657752,
			"0.018": 0.89085441387,
			"0.019": 0.414477428017,
			"0.02": 0.0,
			"0.021": 0.0,
			"0.022": 0.0,
			"0.023": 0.0,
			"0.024": 0.0,
			"0.025": 0.0
		}
	}
}
