{
	 "smiles": "OC1=CC=C(C=C1)C(=O)C1=CC=C(O)C=C1", 
	 "Tm": 496.15, 
	 "num_atms": 26, 
	 "gaussian": { 
		 "optdone": 1, 
		 "sigma_profile": "yes", 
		 "theory": "DFT", 
		 "functional": "B3LYP", 
		 "basiset": "6-31G**", 
		 "properties": { 
			 "R2extent": 4897.5308, 
			 "electric_dipole_moment_norm": 5.36500155825, 
			 "electric_quadrupole_moment_norm": 9.09182272209, 
			 "total_energy": -727.078016391, 
			 "HOMO_LUMO_gap": 0.17607, 
			 "cosmo_polarized_energy": -19.38, 
			 "cosmo_cavitation_energy": 30.92, 
			 "cosmo_dispersion_energy": -22.67, 
			 "cosmo_repulsion_energy": 1.75, 
			 "cosmo_total_nonelectrostatic_energy": 10.0, 
			 "SMD_solvation_energy": 6.38 
		},
		"coords": [
			{
				"x": -1.3447750178,
				"y": 3.7618651192,
				"z": 3.424386735,
				"element": "O" 
			},
			{
				"x": -1.1601783108,
				"y": 2.6910471612,
				"z": 2.6038349748,
				"element": "C" 
			},
			{
				"x": -0.1439121111,
				"y": 1.7501059037,
				"z": 2.8051053836,
				"element": "C" 
			},
			{
				"x": -0.0005280063,
				"y": 0.6831216191,
				"z": 1.9204545975,
				"element": "C" 
			},
			{
				"x": -0.8695359931,
				"y": 0.5300158324,
				"z": 0.8298328015,
				"element": "C" 
			},
			{
				"x": -1.9031652693,
				"y": 1.4705751102,
				"z": 0.6623977159,
				"element": "C" 
			},
			{
				"x": -2.0443606941,
				"y": 2.5467063422,
				"z": 1.5243435591,
				"element": "C" 
			},
			{
				"x": -0.8223007127,
				"y": -0.6312154944,
				"z": -0.1122148103,
				"element": "C" 
			},
			{
				"x": -1.8514147713,
				"y": -1.0003927012,
				"z": -0.6741467527,
				"element": "O" 
			},
			{
				"x": 0.4637087675,
				"y": -1.3479177533,
				"z": -0.3780429458,
				"element": "C" 
			},
			{
				"x": 1.72449229,
				"y": -0.7370706096,
				"z": -0.3050099343,
				"element": "C" 
			},
			{
				"x": 2.8805455145,
				"y": -1.4404959489,
				"z": -0.6372234053,
				"element": "C" 
			},
			{
				"x": 2.7914270152,
				"y": -2.777609228,
				"z": -1.0407958957,
				"element": "C" 
			},
			{
				"x": 3.8837685382,
				"y": -3.5224728133,
				"z": -1.366349424,
				"element": "O" 
			},
			{
				"x": 1.5374694475,
				"y": -3.4002343437,
				"z": -1.1294432202,
				"element": "C" 
			},
			{
				"x": 0.393339469,
				"y": -2.6841694187,
				"z": -0.8145743079,
				"element": "C" 
			},
			{
				"x": -0.6842303,
				"y": 3.7429860352,
				"z": 4.1293968587,
				"element": "H" 
			},
			{
				"x": 0.527339476,
				"y": 1.847802036,
				"z": 3.6558818562,
				"element": "H" 
			},
			{
				"x": 0.7769333217,
				"y": -0.0510508621,
				"z": 2.1024788758,
				"element": "H" 
			},
			{
				"x": -2.5931669503,
				"y": 1.3305640367,
				"z": -0.1629681493,
				"element": "H" 
			},
			{
				"x": -2.830710079,
				"y": 3.2821667322,
				"z": 1.3905199001,
				"element": "H" 
			},
			{
				"x": 1.8068978569,
				"y": 0.3053354893,
				"z": -0.0165815697,
				"element": "H" 
			},
			{
				"x": 3.8504772176,
				"y": -0.9495036613,
				"z": -0.5913145542,
				"element": "H" 
			},
			{
				"x": 4.6791942657,
				"y": -2.9813524655,
				"z": -1.2757910049,
				"element": "H" 
			},
			{
				"x": 1.4890260725,
				"y": -4.4348962191,
				"z": -1.4523748773,
				"element": "H" 
			},
			{
				"x": -0.5859410366,
				"y": -3.1429098984,
				"z": -0.9012024065,
				"element": "H" 
			}
		],
		 "valence_orbital": [ 
			{
				"type": "occ",
				"energy": -0.26167,
				"method": "rhf"
			},
			{
				"type": "occ",
				"energy": -0.25967,
				"method": "rhf"
			},
			{
				"type": "occ",
				"energy": -0.24429,
				"method": "rhf"
			},
			{
				"type": "occ",
				"energy": -0.22955,
				"method": "rhf"
			},
			{
				"type": "occ",
				"energy": -0.22741,
				"method": "rhf"
			},
			{
				"type": "unocc",
				"energy": -0.05134,
				"method": "rhf"
			},
			{
				"type": "unocc",
				"energy": -0.01353,
				"method": "rhf"
			},
			{
				"type": "unocc",
				"energy": -0.00588,
				"method": "rhf"
			},
			{
				"type": "unocc",
				"energy": 0.00265,
				"method": "rhf"
			},
			{
				"type": "unocc",
				"energy": 0.06167,
				"method": "rhf"
			}
		],
		"cosmo_sigma_profile": { 
			"-0.025": 0.0,
			"-0.024": 0.0,
			"-0.023": 0.0,
			"-0.022": 0.0,
			"-0.021": 0.0,
			"-0.02": 0.0,
			"-0.019": 0.134244679022,
			"-0.018": 1.83265030888,
			"-0.017": 2.51083782619,
			"-0.016": 2.22632792803,
			"-0.015": 2.41766285599,
			"-0.014": 1.61533022936,
			"-0.013": 1.09168916793,
			"-0.012": 1.67817249825,
			"-0.011": 3.11718595464,
			"-0.01": 2.43911778596,
			"-0.009": 1.47006137021,
			"-0.008": 2.44294809548,
			"-0.007": 5.27177323342,
			"-0.006": 10.8934907589,
			"-0.005": 14.0971196748,
			"-0.004": 14.9073412352,
			"-0.003": 12.5016737729,
			"-0.002": 12.0177158243,
			"-0.001": 13.4571201574,
			"0.0": 13.6374090836,
			"0.001": 15.1205499758,
			"0.002": 19.7314757852,
			"0.003": 24.5922791898,
			"0.004": 25.578410251,
			"0.005": 6.64887614916,
			"0.006": 4.85640375902,
			"0.007": 4.59553903342,
			"0.008": 4.59606006806,
			"0.009": 4.93071042809,
			"0.01": 5.09454963998,
			"0.011": 4.88302029748,
			"0.012": 3.22492208504,
			"0.013": 3.74380041081,
			"0.014": 0.23646879176,
			"0.015": 0.0,
			"0.016": 0.0,
			"0.017": 0.0,
			"0.018": 0.0,
			"0.019": 0.0,
			"0.02": 0.0,
			"0.021": 0.0,
			"0.022": 0.0,
			"0.023": 0.0,
			"0.024": 0.0,
			"0.025": 0.0
		}
	}
}
