{
	 "smiles": "CC(C)(C)OC(=O)NC(CN)CN", 
	 "Tm": 332.15, 
	 "num_atms": 32, 
	 "gaussian": { 
		 "optdone": 1, 
		 "sigma_profile": "yes", 
		 "theory": "DFT", 
		 "functional": "B3LYP", 
		 "basiset": "6-31G**", 
		 "properties": { 
			 "R2extent": 3383.7576, 
			 "electric_dipole_moment_norm": 3.30685867403, 
			 "electric_quadrupole_moment_norm": 16.638170534, 
			 "total_energy": -631.041226394, 
			 "HOMO_LUMO_gap": 0.28055, 
			 "cosmo_polarized_energy": -13.36, 
			 "cosmo_cavitation_energy": 33.15, 
			 "cosmo_dispersion_energy": -23.09, 
			 "cosmo_repulsion_energy": 1.9, 
			 "cosmo_total_nonelectrostatic_energy": 11.96, 
			 "SMD_solvation_energy": 4.06 
		},
		"coords": [
			{
				"x": -2.3240321769,
				"y": 2.8175168236,
				"z": 0.1339780279,
				"element": "C" 
			},
			{
				"x": -1.718422257,
				"y": 1.82874362,
				"z": -0.8663729582,
				"element": "C" 
			},
			{
				"x": -0.9686154147,
				"y": 2.5722816535,
				"z": -1.9776488735,
				"element": "C" 
			},
			{
				"x": -2.7969925475,
				"y": 0.8921138681,
				"z": -1.4226333069,
				"element": "C" 
			},
			{
				"x": -0.7714015285,
				"y": 1.0743434172,
				"z": -0.0357374613,
				"element": "O" 
			},
			{
				"x": -0.0251277388,
				"y": 0.0696796257,
				"z": -0.5648244089,
				"element": "C" 
			},
			{
				"x": -0.0331883514,
				"y": -0.2938067941,
				"z": -1.734555464,
				"element": "O" 
			},
			{
				"x": 0.7382753505,
				"y": -0.4910476048,
				"z": 0.4136635365,
				"element": "N" 
			},
			{
				"x": 1.7626666398,
				"y": -1.4878314669,
				"z": 0.1401149917,
				"element": "C" 
			},
			{
				"x": 1.2626032076,
				"y": -2.9227227676,
				"z": 0.4367989656,
				"element": "C" 
			},
			{
				"x": 0.0453405501,
				"y": -3.3290781389,
				"z": -0.2588608858,
				"element": "N" 
			},
			{
				"x": 3.0291115051,
				"y": -1.1244529456,
				"z": 0.9361029408,
				"element": "C" 
			},
			{
				"x": 2.7075122376,
				"y": -0.9054821689,
				"z": 2.3543835673,
				"element": "N" 
			},
			{
				"x": -2.8223645797,
				"y": 2.2850821804,
				"z": 0.9493921217,
				"element": "H" 
			},
			{
				"x": -1.5466115227,
				"y": 3.455615924,
				"z": 0.5642978614,
				"element": "H" 
			},
			{
				"x": -3.0598298445,
				"y": 3.4554085552,
				"z": -0.3648836417,
				"element": "H" 
			},
			{
				"x": -0.51569132,
				"y": 1.8699197352,
				"z": -2.6776407354,
				"element": "H" 
			},
			{
				"x": -1.6633086785,
				"y": 3.2198937268,
				"z": -2.5227259184,
				"element": "H" 
			},
			{
				"x": -0.1831235416,
				"y": 3.2025096999,
				"z": -1.5482519268,
				"element": "H" 
			},
			{
				"x": -3.2848438542,
				"y": 0.3487602395,
				"z": -0.606853481,
				"element": "H" 
			},
			{
				"x": -2.3663674708,
				"y": 0.1732699048,
				"z": -2.1200272133,
				"element": "H" 
			},
			{
				"x": -3.5612161052,
				"y": 1.4777931889,
				"z": -1.9440612217,
				"element": "H" 
			},
			{
				"x": 0.7503106362,
				"y": -0.077302776,
				"z": 1.3374652535,
				"element": "H" 
			},
			{
				"x": 1.9909935677,
				"y": -1.4274725141,
				"z": -0.9298891152,
				"element": "H" 
			},
			{
				"x": 1.0814662013,
				"y": -3.0330984161,
				"z": 1.5140760142,
				"element": "H" 
			},
			{
				"x": 2.0667049203,
				"y": -3.6252106717,
				"z": 0.1780802072,
				"element": "H" 
			},
			{
				"x": -0.7187865739,
				"y": -2.729033052,
				"z": 0.0437788257,
				"element": "H" 
			},
			{
				"x": 0.1466645999,
				"y": -3.1411488853,
				"z": -1.2548255057,
				"element": "H" 
			},
			{
				"x": 3.7929941158,
				"y": -1.9002800451,
				"z": 0.7633549966,
				"element": "H" 
			},
			{
				"x": 3.428863216,
				"y": -0.1850812707,
				"z": 0.5400933395,
				"element": "H" 
			},
			{
				"x": 2.611281252,
				"y": -1.7915621348,
				"z": 2.8427006005,
				"element": "H" 
			},
			{
				"x": 3.4611355064,
				"y": -0.4034205101,
				"z": 2.8138108675,
				"element": "H" 
			}
		],
		 "valence_orbital": [ 
			{
				"type": "occ",
				"energy": -0.28033,
				"method": "rhf"
			},
			{
				"type": "occ",
				"energy": -0.26192,
				"method": "rhf"
			},
			{
				"type": "occ",
				"energy": -0.25511,
				"method": "rhf"
			},
			{
				"type": "occ",
				"energy": -0.24758,
				"method": "rhf"
			},
			{
				"type": "occ",
				"energy": -0.21955,
				"method": "rhf"
			},
			{
				"type": "unocc",
				"energy": 0.061,
				"method": "rhf"
			},
			{
				"type": "unocc",
				"energy": 0.06576,
				"method": "rhf"
			},
			{
				"type": "unocc",
				"energy": 0.0891,
				"method": "rhf"
			},
			{
				"type": "unocc",
				"energy": 0.10744,
				"method": "rhf"
			},
			{
				"type": "unocc",
				"energy": 0.10951,
				"method": "rhf"
			}
		],
		"cosmo_sigma_profile": { 
			"-0.025": 0.0,
			"-0.024": 0.0,
			"-0.023": 0.0,
			"-0.022": 0.0,
			"-0.021": 0.0,
			"-0.02": 0.0,
			"-0.019": 0.0,
			"-0.018": 0.0,
			"-0.017": 0.0,
			"-0.016": 0.0,
			"-0.015": 0.0,
			"-0.014": 0.0,
			"-0.013": 0.0,
			"-0.012": 0.0,
			"-0.011": 0.134008813461,
			"-0.01": 2.08027433836,
			"-0.009": 3.02010804811,
			"-0.008": 4.55770427356,
			"-0.007": 6.12112013377,
			"-0.006": 5.36045952811,
			"-0.005": 6.66763930053,
			"-0.004": 20.7715363834,
			"-0.003": 36.1563333059,
			"-0.002": 27.6471859818,
			"-0.001": 25.0319271829,
			"0.0": 28.2242793932,
			"0.001": 26.4699067432,
			"0.002": 10.9534337846,
			"0.003": 6.62795678089,
			"0.004": 5.9829736924,
			"0.005": 5.78544729509,
			"0.006": 4.84256639877,
			"0.007": 4.67562001835,
			"0.008": 4.34833673776,
			"0.009": 3.32185675251,
			"0.01": 2.45622493759,
			"0.011": 2.08589261886,
			"0.012": 3.14247961763,
			"0.013": 3.04287169777,
			"0.014": 2.01837670102,
			"0.015": 0.598973667765,
			"0.016": 0.758034641852,
			"0.017": 0.570451655598,
			"0.018": 0.936795330524,
			"0.019": 0.53836582638,
			"0.02": 0.384838785449,
			"0.021": 0.0,
			"0.022": 0.0,
			"0.023": 0.0,
			"0.024": 0.0,
			"0.025": 0.0
		}
	}
}
