{
	 "smiles": "COC(=O)C1=CC=CC=C1NC(=O)CCC(O)=O", 
	 "Tm": 398.0, 
	 "num_atms": 31, 
	 "gaussian": { 
		 "optdone": 1, 
		 "sigma_profile": "yes", 
		 "theory": "DFT", 
		 "functional": "B3LYP", 
		 "basiset": "6-31G**", 
		 "properties": { 
			 "R2extent": 5278.7291, 
			 "electric_dipole_moment_norm": 3.71323482829, 
			 "electric_quadrupole_moment_norm": 13.8184406287, 
			 "total_energy": -896.037893603, 
			 "HOMO_LUMO_gap": 0.17057, 
			 "cosmo_polarized_energy": -14.56, 
			 "cosmo_cavitation_energy": 34.77, 
			 "cosmo_dispersion_energy": -24.54, 
			 "cosmo_repulsion_energy": 1.88, 
			 "cosmo_total_nonelectrostatic_energy": 12.11, 
			 "SMD_solvation_energy": 8.54 
		},
		"coords": [
			{
				"x": 1.801426849,
				"y": 2.2107631927,
				"z": -2.0604303099,
				"element": "C" 
			},
			{
				"x": 0.5610465079,
				"y": 1.9746100081,
				"z": -1.3761610314,
				"element": "O" 
			},
			{
				"x": 0.5305925334,
				"y": 0.8994667592,
				"z": -0.5667143142,
				"element": "C" 
			},
			{
				"x": 1.5147550377,
				"y": 0.1727822296,
				"z": -0.4370464306,
				"element": "O" 
			},
			{
				"x": -0.7717818067,
				"y": 0.7134893169,
				"z": 0.10962818,
				"element": "C" 
			},
			{
				"x": -1.830100977,
				"y": 1.5879901966,
				"z": -0.2019322684,
				"element": "C" 
			},
			{
				"x": -3.0670247867,
				"y": 1.4763314561,
				"z": 0.4136107764,
				"element": "C" 
			},
			{
				"x": -3.258906355,
				"y": 0.4728732767,
				"z": 1.3675699999,
				"element": "C" 
			},
			{
				"x": -2.2383439753,
				"y": -0.4098750127,
				"z": 1.6992368796,
				"element": "C" 
			},
			{
				"x": -0.978048568,
				"y": -0.3135995996,
				"z": 1.0786969486,
				"element": "C" 
			},
			{
				"x": 0.0614429128,
				"y": -1.2012610319,
				"z": 1.3861281884,
				"element": "N" 
			},
			{
				"x": 0.1190550419,
				"y": -2.1279632828,
				"z": 2.4134022121,
				"element": "C" 
			},
			{
				"x": -0.7903864633,
				"y": -2.3512688311,
				"z": 3.2004231501,
				"element": "O" 
			},
			{
				"x": 1.4537691384,
				"y": -2.8668069422,
				"z": 2.5230965146,
				"element": "C" 
			},
			{
				"x": 2.5456853416,
				"y": -2.0441664213,
				"z": 3.2484261416,
				"element": "C" 
			},
			{
				"x": 2.996887852,
				"y": -0.8328925985,
				"z": 2.4564713305,
				"element": "C" 
			},
			{
				"x": 3.3442943864,
				"y": -1.1856093257,
				"z": 1.1933387746,
				"element": "O" 
			},
			{
				"x": 3.032256569,
				"y": 0.3070383236,
				"z": 2.859051282,
				"element": "O" 
			},
			{
				"x": 2.0731420147,
				"y": 1.3498174692,
				"z": -2.6757482822,
				"element": "H" 
			},
			{
				"x": 2.603752429,
				"y": 2.4058352084,
				"z": -1.3444134428,
				"element": "H" 
			},
			{
				"x": 1.6266996304,
				"y": 3.0877504155,
				"z": -2.6829594614,
				"element": "H" 
			},
			{
				"x": -1.6559876678,
				"y": 2.3613765256,
				"z": -0.9395602023,
				"element": "H" 
			},
			{
				"x": -3.8695780143,
				"y": 2.1605253151,
				"z": 0.1580095514,
				"element": "H" 
			},
			{
				"x": -4.2202336381,
				"y": 0.3710408221,
				"z": 1.8634139538,
				"element": "H" 
			},
			{
				"x": -2.387835916,
				"y": -1.1791166549,
				"z": 2.4418277632,
				"element": "H" 
			},
			{
				"x": 0.8875604341,
				"y": -1.0826896006,
				"z": 0.8025013177,
				"element": "H" 
			},
			{
				"x": 1.2467053508,
				"y": -3.7702651094,
				"z": 3.0998447581,
				"element": "H" 
			},
			{
				"x": 1.8212453438,
				"y": -3.1606818411,
				"z": 1.5355267897,
				"element": "H" 
			},
			{
				"x": 3.4170685441,
				"y": -2.6903705235,
				"z": 3.4079999658,
				"element": "H" 
			},
			{
				"x": 2.1971485547,
				"y": -1.6973931835,
				"z": 4.2232122843,
				"element": "H" 
			},
			{
				"x": 3.4159936963,
				"y": -0.3682305567,
				"z": 0.670748981,
				"element": "H" 
			}
		],
		 "valence_orbital": [ 
			{
				"type": "occ",
				"energy": -0.29561,
				"method": "rhf"
			},
			{
				"type": "occ",
				"energy": -0.27082,
				"method": "rhf"
			},
			{
				"type": "occ",
				"energy": -0.26358,
				"method": "rhf"
			},
			{
				"type": "occ",
				"energy": -0.25242,
				"method": "rhf"
			},
			{
				"type": "occ",
				"energy": -0.2284,
				"method": "rhf"
			},
			{
				"type": "unocc",
				"energy": -0.05783,
				"method": "rhf"
			},
			{
				"type": "unocc",
				"energy": -0.01636,
				"method": "rhf"
			},
			{
				"type": "unocc",
				"energy": 0.00577,
				"method": "rhf"
			},
			{
				"type": "unocc",
				"energy": 0.03626,
				"method": "rhf"
			},
			{
				"type": "unocc",
				"energy": 0.04677,
				"method": "rhf"
			}
		],
		"cosmo_sigma_profile": { 
			"-0.025": 0.0,
			"-0.024": 0.0,
			"-0.023": 0.0,
			"-0.022": 0.0,
			"-0.021": 0.0,
			"-0.02": 0.0,
			"-0.019": 0.0,
			"-0.018": 0.0,
			"-0.017": 0.0,
			"-0.016": 0.0,
			"-0.015": 0.239605258353,
			"-0.014": 0.439158105681,
			"-0.013": 0.517792526652,
			"-0.012": 0.166210936476,
			"-0.011": 0.860479683312,
			"-0.01": 0.725310039517,
			"-0.009": 0.49192354831,
			"-0.008": 0.89744523426,
			"-0.007": 6.75398726682,
			"-0.006": 19.5440447097,
			"-0.005": 22.9108752442,
			"-0.004": 26.4733962828,
			"-0.003": 26.7054771,
			"-0.002": 21.1570569951,
			"-0.001": 14.5125237578,
			"0.0": 19.4167157339,
			"0.001": 19.1603775157,
			"0.002": 16.7082888221,
			"0.003": 19.6686114987,
			"0.004": 14.6196303471,
			"0.005": 6.4342345289,
			"0.006": 3.95666566507,
			"0.007": 5.35148389691,
			"0.008": 4.88159014492,
			"0.009": 4.49285629112,
			"0.01": 3.72429062314,
			"0.011": 5.93894001967,
			"0.012": 7.1463534645,
			"0.013": 2.60814726175,
			"0.014": 0.448756087547,
			"0.015": 0.0,
			"0.016": 0.0,
			"0.017": 0.0,
			"0.018": 0.0,
			"0.019": 0.0,
			"0.02": 0.0,
			"0.021": 0.0,
			"0.022": 0.0,
			"0.023": 0.0,
			"0.024": 0.0,
			"0.025": 0.0
		}
	}
}
