{
	 "smiles": "CCOC(=O)C1=C(N)N(N=C1SC)C(N)=O", 
	 "Tm": 428.15, 
	 "num_atms": 28, 
	 "gaussian": { 
		 "optdone": 1, 
		 "sigma_profile": "yes", 
		 "theory": "DFT", 
		 "functional": "B3LYP", 
		 "basiset": "6-31G**", 
		 "properties": { 
			 "R2extent": 4782.424, 
			 "electric_dipole_moment_norm": 2.96222989992, 
			 "electric_quadrupole_moment_norm": 25.4350264136, 
			 "total_energy": -1154.97323691, 
			 "HOMO_LUMO_gap": 0.18497, 
			 "cosmo_polarized_energy": -21.34, 
			 "cosmo_cavitation_energy": 33.95, 
			 "cosmo_dispersion_energy": -24.95, 
			 "cosmo_repulsion_energy": 1.95, 
			 "cosmo_total_nonelectrostatic_energy": 10.95, 
			 "SMD_solvation_energy": 7.5 
		},
		"coords": [
			{
				"x": -0.057262442,
				"y": 3.0619900189,
				"z": -3.2795914368,
				"element": "C" 
			},
			{
				"x": -0.3709280533,
				"y": 3.0060873925,
				"z": -1.7969492448,
				"element": "C" 
			},
			{
				"x": -0.1543620948,
				"y": 1.6443486672,
				"z": -1.3597130156,
				"element": "O" 
			},
			{
				"x": -0.3701636852,
				"y": 1.3941643698,
				"z": -0.0550622356,
				"element": "C" 
			},
			{
				"x": -0.7289932845,
				"y": 2.2594242206,
				"z": 0.7427365647,
				"element": "O" 
			},
			{
				"x": -0.1417942739,
				"y": 0.0069339075,
				"z": 0.3070276487,
				"element": "C" 
			},
			{
				"x": -0.3341093458,
				"y": -0.4688903078,
				"z": 1.6032705935,
				"element": "C" 
			},
			{
				"x": -0.6611045905,
				"y": 0.2518507053,
				"z": 2.7241612215,
				"element": "N" 
			},
			{
				"x": -0.0763333486,
				"y": -1.8185744045,
				"z": 1.5711980708,
				"element": "N" 
			},
			{
				"x": 0.2538542304,
				"y": -2.2460397937,
				"z": 0.2905659376,
				"element": "N" 
			},
			{
				"x": 0.2256038684,
				"y": -1.1590492278,
				"z": -0.4507407016,
				"element": "C" 
			},
			{
				"x": 0.6017057395,
				"y": -1.2090354931,
				"z": -2.1709728937,
				"element": "S" 
			},
			{
				"x": 0.9440401832,
				"y": -2.9940666982,
				"z": -2.3556858952,
				"element": "C" 
			},
			{
				"x": -0.106412411,
				"y": -2.7967278317,
				"z": 2.6118959197,
				"element": "C" 
			},
			{
				"x": -0.1026406879,
				"y": -2.2460981312,
				"z": 3.8787673807,
				"element": "N" 
			},
			{
				"x": -0.1655728204,
				"y": -3.9812242602,
				"z": 2.3804109965,
				"element": "O" 
			},
			{
				"x": -0.2102672755,
				"y": 4.0800362404,
				"z": -3.6513381576,
				"element": "H" 
			},
			{
				"x": 0.981098423,
				"y": 2.7766625909,
				"z": -3.4698071434,
				"element": "H" 
			},
			{
				"x": -0.7080318609,
				"y": 2.3867247603,
				"z": -3.8419519835,
				"element": "H" 
			},
			{
				"x": 0.2740967116,
				"y": 3.6697698276,
				"z": -1.2127311999,
				"element": "H" 
			},
			{
				"x": -1.4083111604,
				"y": 3.2828299325,
				"z": -1.5840634237,
				"element": "H" 
			},
			{
				"x": -0.9032787974,
				"y": 1.2081345142,
				"z": 2.4648451884,
				"element": "H" 
			},
			{
				"x": -1.2974846151,
				"y": -0.1989153106,
				"z": 3.3703479259,
				"element": "H" 
			},
			{
				"x": 0.0691163036,
				"y": -3.5837862073,
				"z": -2.0804680962,
				"element": "H" 
			},
			{
				"x": 1.7896714428,
				"y": -3.2911605835,
				"z": -1.7346079951,
				"element": "H" 
			},
			{
				"x": 1.1817436676,
				"y": -3.1414632108,
				"z": -3.4111199938,
				"element": "H" 
			},
			{
				"x": 0.3849802156,
				"y": -1.3703113795,
				"z": 4.0240150173,
				"element": "H" 
			},
			{
				"x": 0.0176399615,
				"y": -2.9434143076,
				"z": 4.6004609514,
				"element": "H" 
			}
		],
		 "valence_orbital": [ 
			{
				"type": "occ",
				"energy": -0.29322,
				"method": "rhf"
			},
			{
				"type": "occ",
				"energy": -0.28136,
				"method": "rhf"
			},
			{
				"type": "occ",
				"energy": -0.27432,
				"method": "rhf"
			},
			{
				"type": "occ",
				"energy": -0.23444,
				"method": "rhf"
			},
			{
				"type": "occ",
				"energy": -0.21441,
				"method": "rhf"
			},
			{
				"type": "unocc",
				"energy": -0.02944,
				"method": "rhf"
			},
			{
				"type": "unocc",
				"energy": -2e-05,
				"method": "rhf"
			},
			{
				"type": "unocc",
				"energy": 0.04199,
				"method": "rhf"
			},
			{
				"type": "unocc",
				"energy": 0.05409,
				"method": "rhf"
			},
			{
				"type": "unocc",
				"energy": 0.07328,
				"method": "rhf"
			}
		],
		"cosmo_sigma_profile": { 
			"-0.025": 0.0,
			"-0.024": 0.0,
			"-0.023": 0.0,
			"-0.022": 0.0,
			"-0.021": 0.0,
			"-0.02": 0.0,
			"-0.019": 0.0,
			"-0.018": 0.0,
			"-0.017": 0.0,
			"-0.016": 0.0,
			"-0.015": 0.582474382816,
			"-0.014": 2.06171653947,
			"-0.013": 2.85158846313,
			"-0.012": 4.34073915714,
			"-0.011": 3.45374303158,
			"-0.01": 5.10520070725,
			"-0.009": 3.45355876344,
			"-0.008": 4.26529473274,
			"-0.007": 5.62373633897,
			"-0.006": 7.31263365783,
			"-0.005": 14.6263346909,
			"-0.004": 20.1273825561,
			"-0.003": 21.6712828936,
			"-0.002": 23.2028583787,
			"-0.001": 23.0454302774,
			"0.0": 18.7381130469,
			"0.001": 15.2356938302,
			"0.002": 12.1928086909,
			"0.003": 11.3439542141,
			"0.004": 8.84535933724,
			"0.005": 10.4244796074,
			"0.006": 8.97791444594,
			"0.007": 9.26871679791,
			"0.008": 6.54160831226,
			"0.009": 3.5209711987,
			"0.01": 3.79262614512,
			"0.011": 5.01691064428,
			"0.012": 8.05705930961,
			"0.013": 3.36046686153,
			"0.014": 0.87407798429,
			"0.015": 1.43056072563,
			"0.016": 0.958871234222,
			"0.017": 0.461507980611,
			"0.018": 0.0,
			"0.019": 0.0,
			"0.02": 0.0,
			"0.021": 0.0,
			"0.022": 0.0,
			"0.023": 0.0,
			"0.024": 0.0,
			"0.025": 0.0
		}
	}
}
