{
	 "smiles": "CC1=C(CNC(=O)CCl)C(C)=NO1", 
	 "Tm": 353.15, 
	 "num_atms": 24, 
	 "gaussian": { 
		 "optdone": 1, 
		 "sigma_profile": "yes", 
		 "theory": "DFT", 
		 "functional": "B3LYP", 
		 "basiset": "6-31G**", 
		 "properties": { 
			 "R2extent": 4005.4235, 
			 "electric_dipole_moment_norm": 2.74448918744, 
			 "electric_quadrupole_moment_norm": 10.2061920774, 
			 "total_energy": -1031.60540708, 
			 "HOMO_LUMO_gap": 0.24089, 
			 "cosmo_polarized_energy": -14.83, 
			 "cosmo_cavitation_energy": 29.82, 
			 "cosmo_dispersion_energy": -21.14, 
			 "cosmo_repulsion_energy": 1.72, 
			 "cosmo_total_nonelectrostatic_energy": 10.4, 
			 "SMD_solvation_energy": 4.88 
		},
		"coords": [
			{
				"x": -1.5002296831,
				"y": 1.4424158296,
				"z": -1.8084974857,
				"element": "C" 
			},
			{
				"x": -0.6974410401,
				"y": 0.221770116,
				"z": -1.51505952,
				"element": "C" 
			},
			{
				"x": 0.6309713224,
				"y": 0.0042645116,
				"z": -1.2650682394,
				"element": "C" 
			},
			{
				"x": 1.7440892017,
				"y": 1.0115012467,
				"z": -1.2010322794,
				"element": "C" 
			},
			{
				"x": 2.0294429352,
				"y": 1.5217435746,
				"z": 0.1437820297,
				"element": "N" 
			},
			{
				"x": 1.4517500939,
				"y": 2.6505171953,
				"z": 0.608150919,
				"element": "C" 
			},
			{
				"x": 0.6915990183,
				"y": 3.3667511257,
				"z": -0.0380868655,
				"element": "O" 
			},
			{
				"x": 1.7698274068,
				"y": 3.0931887491,
				"z": 2.0379290873,
				"element": "C" 
			},
			{
				"x": 2.9138761498,
				"y": 2.0457217077,
				"z": 2.9830438202,
				"element": "Cl" 
			},
			{
				"x": 0.7146801746,
				"y": -1.4147164247,
				"z": -1.0811719896,
				"element": "C" 
			},
			{
				"x": 1.9238814792,
				"y": -2.2459026825,
				"z": -0.7785548644,
				"element": "C" 
			},
			{
				"x": -0.4574915883,
				"y": -1.9926450079,
				"z": -1.2118542615,
				"element": "N" 
			},
			{
				"x": -1.3578289251,
				"y": -0.9536727714,
				"z": -1.4878926038,
				"element": "O" 
			},
			{
				"x": -0.9576834513,
				"y": 2.334586342,
				"z": -1.4889335206,
				"element": "H" 
			},
			{
				"x": -2.4555745697,
				"y": 1.4005495309,
				"z": -1.2772037271,
				"element": "H" 
			},
			{
				"x": -1.7222222604,
				"y": 1.5189684081,
				"z": -2.879372406,
				"element": "H" 
			},
			{
				"x": 1.504115553,
				"y": 1.8813683671,
				"z": -1.815615302,
				"element": "H" 
			},
			{
				"x": 2.6697236919,
				"y": 0.5762849271,
				"z": -1.5911026612,
				"element": "H" 
			},
			{
				"x": 2.5931520709,
				"y": 0.973561028,
				"z": 0.7779529341,
				"element": "H" 
			},
			{
				"x": 0.8363013496,
				"y": 3.1361750254,
				"z": 2.5993682687,
				"element": "H" 
			},
			{
				"x": 2.2041622516,
				"y": 4.0922145661,
				"z": 1.9986031335,
				"element": "H" 
			},
			{
				"x": 1.6498584133,
				"y": -3.3023585257,
				"z": -0.752331482,
				"element": "H" 
			},
			{
				"x": 2.7009330859,
				"y": -2.10798808,
				"z": -1.5385886298,
				"element": "H" 
			},
			{
				"x": 2.3584073201,
				"y": -1.9799987589,
				"z": 0.1917356456,
				"element": "H" 
			}
		],
		 "valence_orbital": [ 
			{
				"type": "occ",
				"energy": -0.29731,
				"method": "rhf"
			},
			{
				"type": "occ",
				"energy": -0.28519,
				"method": "rhf"
			},
			{
				"type": "occ",
				"energy": -0.2746,
				"method": "rhf"
			},
			{
				"type": "occ",
				"energy": -0.26874,
				"method": "rhf"
			},
			{
				"type": "occ",
				"energy": -0.24761,
				"method": "rhf"
			},
			{
				"type": "unocc",
				"energy": -0.00672,
				"method": "rhf"
			},
			{
				"type": "unocc",
				"energy": 0.007,
				"method": "rhf"
			},
			{
				"type": "unocc",
				"energy": 0.00864,
				"method": "rhf"
			},
			{
				"type": "unocc",
				"energy": 0.04411,
				"method": "rhf"
			},
			{
				"type": "unocc",
				"energy": 0.0725,
				"method": "rhf"
			}
		],
		"cosmo_sigma_profile": { 
			"-0.025": 0.0,
			"-0.024": 0.0,
			"-0.023": 0.0,
			"-0.022": 0.0,
			"-0.021": 0.0,
			"-0.02": 0.0,
			"-0.019": 0.0,
			"-0.018": 0.0,
			"-0.017": 0.0,
			"-0.016": 0.0,
			"-0.015": 0.0,
			"-0.014": 0.0,
			"-0.013": 0.0,
			"-0.012": 0.689424303025,
			"-0.011": 1.1418366035,
			"-0.01": 1.34907879239,
			"-0.009": 4.38012512961,
			"-0.008": 6.42138951699,
			"-0.007": 6.62331511167,
			"-0.006": 14.0486544386,
			"-0.005": 18.0263879779,
			"-0.004": 17.3157025204,
			"-0.003": 17.6539674213,
			"-0.002": 19.8495705974,
			"-0.001": 20.8699095719,
			"0.0": 15.1615150085,
			"0.001": 14.8292816075,
			"0.002": 12.4080650229,
			"0.003": 9.42023247051,
			"0.004": 9.7234214391,
			"0.005": 9.61747122069,
			"0.006": 6.79417345533,
			"0.007": 4.2393848773,
			"0.008": 4.67854574428,
			"0.009": 6.40278765255,
			"0.01": 3.13143831257,
			"0.011": 2.71357462233,
			"0.012": 3.91100827244,
			"0.013": 3.78938760222,
			"0.014": 2.52977811037,
			"0.015": 0.761236426798,
			"0.016": 0.0337757319868,
			"0.017": 0.0,
			"0.018": 0.0,
			"0.019": 0.0,
			"0.02": 0.0,
			"0.021": 0.0,
			"0.022": 0.0,
			"0.023": 0.0,
			"0.024": 0.0,
			"0.025": 0.0
		}
	}
}
