{
	 "smiles": "[CH:1]1=[CH:1][CH:1]=[C:1]([CH:1]=[CH:1]1)C(C1=CC=CC=C1)C1=CC=CC=C1", 
	 "Tm": 366.65, 
	 "num_atms": 35, 
	 "gaussian": { 
		 "optdone": 1, 
		 "sigma_profile": "yes", 
		 "theory": "DFT", 
		 "functional": "B3LYP", 
		 "basiset": "6-31G**", 
		 "properties": { 
			 "R2extent": 5155.012, 
			 "electric_dipole_moment_norm": 0.0781161314966, 
			 "electric_quadrupole_moment_norm": 1.17468710302, 
			 "total_energy": -733.670475235, 
			 "HOMO_LUMO_gap": 0.21959, 
			 "cosmo_polarized_energy": -7.02, 
			 "cosmo_cavitation_energy": 37.95, 
			 "cosmo_dispersion_energy": -26.02, 
			 "cosmo_repulsion_energy": 2.02, 
			 "cosmo_total_nonelectrostatic_energy": 13.96, 
			 "SMD_solvation_energy": 6.2 
		},
		"coords": [
			{
				"x": 4.5433448837,
				"y": -0.7746649527,
				"z": 0.4080991002,
				"element": "C" 
			},
			{
				"x": 3.9422180935,
				"y": -1.2595350038,
				"z": -0.755920399,
				"element": "C" 
			},
			{
				"x": 2.6240027625,
				"y": -0.9188684406,
				"z": -1.0554479771,
				"element": "C" 
			},
			{
				"x": 1.8800035252,
				"y": -0.0884249613,
				"z": -0.2042758996,
				"element": "C" 
			},
			{
				"x": 2.4945096124,
				"y": 0.3949761728,
				"z": 0.9574923584,
				"element": "C" 
			},
			{
				"x": 3.8143988958,
				"y": 0.0523566029,
				"z": 1.2625758357,
				"element": "C" 
			},
			{
				"x": 0.426162148,
				"y": 0.2341766992,
				"z": -0.5646870011,
				"element": "C" 
			},
			{
				"x": -0.0257905455,
				"y": 1.6031105738,
				"z": -0.0454285589,
				"element": "C" 
			},
			{
				"x": -0.7784950489,
				"y": 1.7554832793,
				"z": 1.1255073707,
				"element": "C" 
			},
			{
				"x": -1.1452612375,
				"y": 3.0255518131,
				"z": 1.5783676122,
				"element": "C" 
			},
			{
				"x": -0.7701756545,
				"y": 4.1637382982,
				"z": 0.8647492821,
				"element": "C" 
			},
			{
				"x": -0.0227243238,
				"y": 4.0238767361,
				"z": -0.3070847909,
				"element": "C" 
			},
			{
				"x": 0.3447203284,
				"y": 2.7556036552,
				"z": -0.7541102504,
				"element": "C" 
			},
			{
				"x": -0.5432107861,
				"y": -0.8930980948,
				"z": -0.194054581,
				"element": "C" 
			},
			{
				"x": -1.7118933989,
				"y": -1.0618616488,
				"z": -0.9512907278,
				"element": "C" 
			},
			{
				"x": -2.634848277,
				"y": -2.0582466624,
				"z": -0.6369471709,
				"element": "C" 
			},
			{
				"x": -2.4055463795,
				"y": -2.90779358,
				"z": 0.4480026224,
				"element": "C" 
			},
			{
				"x": -1.2470636227,
				"y": -2.7506005236,
				"z": 1.2086837964,
				"element": "C" 
			},
			{
				"x": -0.3221174814,
				"y": -1.753289389,
				"z": 0.888603767,
				"element": "C" 
			},
			{
				"x": 5.5712173467,
				"y": -1.035860813,
				"z": 0.6430601877,
				"element": "H" 
			},
			{
				"x": 4.5009997316,
				"y": -1.9003333709,
				"z": -1.4324807496,
				"element": "H" 
			},
			{
				"x": 2.1611942763,
				"y": -1.3037288208,
				"z": -1.9613074227,
				"element": "H" 
			},
			{
				"x": 1.942712066,
				"y": 1.0525570218,
				"z": 1.6218317182,
				"element": "H" 
			},
			{
				"x": 4.2732446251,
				"y": 0.439449258,
				"z": 2.1682776174,
				"element": "H" 
			},
			{
				"x": 0.397957163,
				"y": 0.3052012619,
				"z": -1.6595800057,
				"element": "H" 
			},
			{
				"x": -1.0901745991,
				"y": 0.8762775104,
				"z": 1.6805253693,
				"element": "H" 
			},
			{
				"x": -1.7308992368,
				"y": 3.121869486,
				"z": 2.4885472927,
				"element": "H" 
			},
			{
				"x": -1.0605677985,
				"y": 5.1503401751,
				"z": 1.2143845481,
				"element": "H" 
			},
			{
				"x": 0.2712778242,
				"y": 4.9023233522,
				"z": -0.8749664367,
				"element": "H" 
			},
			{
				"x": 0.9304848815,
				"y": 2.6547812446,
				"z": -1.6649302926,
				"element": "H" 
			},
			{
				"x": -1.899345935,
				"y": -0.401312258,
				"z": -1.7947456289,
				"element": "H" 
			},
			{
				"x": -3.5308847413,
				"y": -2.1736610694,
				"z": -1.2405945072,
				"element": "H" 
			},
			{
				"x": -3.1212698565,
				"y": -3.6870084123,
				"z": 0.6940094839,
				"element": "H" 
			},
			{
				"x": -1.0557382196,
				"y": -3.4087467417,
				"z": 2.0518420867,
				"element": "H" 
			},
			{
				"x": 0.5836589786,
				"y": -1.6513383974,
				"z": 1.4779923512,
				"element": "H" 
			}
		],
		 "valence_orbital": [ 
			{
				"type": "occ",
				"energy": -0.25017,
				"method": "rhf"
			},
			{
				"type": "occ",
				"energy": -0.24937,
				"method": "rhf"
			},
			{
				"type": "occ",
				"energy": -0.24129,
				"method": "rhf"
			},
			{
				"type": "occ",
				"energy": -0.24126,
				"method": "rhf"
			},
			{
				"type": "occ",
				"energy": -0.22809,
				"method": "rhf"
			},
			{
				"type": "unocc",
				"energy": -0.0085,
				"method": "rhf"
			},
			{
				"type": "unocc",
				"energy": -0.00537,
				"method": "rhf"
			},
			{
				"type": "unocc",
				"energy": -0.00533,
				"method": "rhf"
			},
			{
				"type": "unocc",
				"energy": 0.0096,
				"method": "rhf"
			},
			{
				"type": "unocc",
				"energy": 0.00967,
				"method": "rhf"
			}
		],
		"cosmo_sigma_profile": { 
			"-0.025": 0.0,
			"-0.024": 0.0,
			"-0.023": 0.0,
			"-0.022": 0.0,
			"-0.021": 0.0,
			"-0.02": 0.0,
			"-0.019": 0.0,
			"-0.018": 0.0,
			"-0.017": 0.0,
			"-0.016": 0.0,
			"-0.015": 0.0,
			"-0.014": 0.0,
			"-0.013": 0.0,
			"-0.012": 0.0,
			"-0.011": 0.0,
			"-0.01": 0.0,
			"-0.009": 0.0,
			"-0.008": 0.0,
			"-0.007": 0.0,
			"-0.006": 6.64871382498,
			"-0.005": 30.5659631576,
			"-0.004": 31.08350298,
			"-0.003": 33.9755643105,
			"-0.002": 22.5774611867,
			"-0.001": 26.2161190085,
			"0.0": 17.8390337278,
			"0.001": 19.6167684053,
			"0.002": 19.64075598,
			"0.003": 21.9863743945,
			"0.004": 26.6977952618,
			"0.005": 24.3434355868,
			"0.006": 20.0502303183,
			"0.007": 2.31330177525,
			"0.008": 0.0,
			"0.009": 0.0,
			"0.01": 0.0,
			"0.011": 0.0,
			"0.012": 0.0,
			"0.013": 0.0,
			"0.014": 0.0,
			"0.015": 0.0,
			"0.016": 0.0,
			"0.017": 0.0,
			"0.018": 0.0,
			"0.019": 0.0,
			"0.02": 0.0,
			"0.021": 0.0,
			"0.022": 0.0,
			"0.023": 0.0,
			"0.024": 0.0,
			"0.025": 0.0
		}
	}
}
