{
	 "smiles": "CCOC(=O)C1=C(C)NC2=C1C=C(O)C=C2", 
	 "Tm": 481.15, 
	 "num_atms": 29, 
	 "gaussian": { 
		 "optdone": 1, 
		 "sigma_profile": "yes", 
		 "theory": "DFT", 
		 "functional": "B3LYP", 
		 "basiset": "6-31G**", 
		 "properties": { 
			 "R2extent": 4822.7084, 
			 "electric_dipole_moment_norm": 1.21565481943, 
			 "electric_quadrupole_moment_norm": 19.0978757295, 
			 "total_energy": -745.568454322, 
			 "HOMO_LUMO_gap": 0.18291, 
			 "cosmo_polarized_energy": -17.16, 
			 "cosmo_cavitation_energy": 32.97, 
			 "cosmo_dispersion_energy": -23.71, 
			 "cosmo_repulsion_energy": 1.86, 
			 "cosmo_total_nonelectrostatic_energy": 11.11, 
			 "SMD_solvation_energy": 6.53 
		},
		"coords": [
			{
				"x": 4.0635990808,
				"y": -2.5405753798,
				"z": 1.9790966338,
				"element": "C" 
			},
			{
				"x": 3.5534311064,
				"y": -1.1358656247,
				"z": 1.7152928269,
				"element": "C" 
			},
			{
				"x": 2.3138428875,
				"y": -1.2517757284,
				"z": 0.9881977454,
				"element": "O" 
			},
			{
				"x": 1.7125399696,
				"y": -0.073218682,
				"z": 0.6650804232,
				"element": "C" 
			},
			{
				"x": 2.1917501944,
				"y": 1.009305519,
				"z": 0.9709480651,
				"element": "O" 
			},
			{
				"x": 0.4671515548,
				"y": -0.2644790119,
				"z": -0.0673252034,
				"element": "C" 
			},
			{
				"x": -0.3187745173,
				"y": 0.8012457771,
				"z": -0.5017612622,
				"element": "C" 
			},
			{
				"x": -0.1188135458,
				"y": 2.2739932179,
				"z": -0.3502039465,
				"element": "C" 
			},
			{
				"x": -1.4102580282,
				"y": 0.2959948768,
				"z": -1.151828702,
				"element": "N" 
			},
			{
				"x": -1.3709980372,
				"y": -1.0939004274,
				"z": -1.161617226,
				"element": "C" 
			},
			{
				"x": -0.1915044073,
				"y": -1.48498074,
				"z": -0.4811528712,
				"element": "C" 
			},
			{
				"x": 0.0921345333,
				"y": -2.8543667584,
				"z": -0.3474515302,
				"element": "C" 
			},
			{
				"x": -0.7975257453,
				"y": -3.7776587494,
				"z": -0.8893670864,
				"element": "C" 
			},
			{
				"x": -0.5926922963,
				"y": -5.1311860755,
				"z": -0.8013314142,
				"element": "O" 
			},
			{
				"x": -1.9671521743,
				"y": -3.3680939047,
				"z": -1.5637129575,
				"element": "C" 
			},
			{
				"x": -2.2637287219,
				"y": -2.0191082953,
				"z": -1.7054024417,
				"element": "C" 
			},
			{
				"x": 3.3451623599,
				"y": -3.1128776201,
				"z": 2.5736900875,
				"element": "H" 
			},
			{
				"x": 5.0074698949,
				"y": -2.496935822,
				"z": 2.5316891001,
				"element": "H" 
			},
			{
				"x": 4.2406693895,
				"y": -3.0754534206,
				"z": 1.041135183,
				"element": "H" 
			},
			{
				"x": 3.3731978277,
				"y": -0.5855089482,
				"z": 2.6444854383,
				"element": "H" 
			},
			{
				"x": 4.2623107165,
				"y": -0.5483647881,
				"z": 1.1227532426,
				"element": "H" 
			},
			{
				"x": -0.0555933704,
				"y": 2.550639093,
				"z": 0.7057395863,
				"element": "H" 
			},
			{
				"x": 0.8267536446,
				"y": 2.5859616848,
				"z": -0.8019969791,
				"element": "H" 
			},
			{
				"x": -0.9370697033,
				"y": 2.8323384653,
				"z": -0.8159592996,
				"element": "H" 
			},
			{
				"x": -2.1366231055,
				"y": 0.8609269776,
				"z": -1.5633041796,
				"element": "H" 
			},
			{
				"x": 0.9899012126,
				"y": -3.1765447761,
				"z": 0.1699877735,
				"element": "H" 
			},
			{
				"x": 0.2314821726,
				"y": -5.2879108583,
				"z": -0.3229242467,
				"element": "H" 
			},
			{
				"x": -2.6243160851,
				"y": -4.1313017388,
				"z": -1.9659064259,
				"element": "H" 
			},
			{
				"x": -3.1638468073,
				"y": -1.7017982618,
				"z": -2.2242503333,
				"element": "H" 
			}
		],
		 "valence_orbital": [ 
			{
				"type": "occ",
				"energy": -0.28576,
				"method": "rhf"
			},
			{
				"type": "occ",
				"energy": -0.27468,
				"method": "rhf"
			},
			{
				"type": "occ",
				"energy": -0.25731,
				"method": "rhf"
			},
			{
				"type": "occ",
				"energy": -0.20657,
				"method": "rhf"
			},
			{
				"type": "occ",
				"energy": -0.20123,
				"method": "rhf"
			},
			{
				"type": "unocc",
				"energy": -0.01832,
				"method": "rhf"
			},
			{
				"type": "unocc",
				"energy": 0.00712,
				"method": "rhf"
			},
			{
				"type": "unocc",
				"energy": 0.03961,
				"method": "rhf"
			},
			{
				"type": "unocc",
				"energy": 0.07041,
				"method": "rhf"
			},
			{
				"type": "unocc",
				"energy": 0.08182,
				"method": "rhf"
			}
		],
		"cosmo_sigma_profile": { 
			"-0.025": 0.0,
			"-0.024": 0.0,
			"-0.023": 0.0,
			"-0.022": 0.0,
			"-0.021": 0.0,
			"-0.02": 0.0,
			"-0.019": 0.0,
			"-0.018": 0.0,
			"-0.017": 0.58636098362,
			"-0.016": 2.27867345679,
			"-0.015": 2.26664642045,
			"-0.014": 2.20887516968,
			"-0.013": 2.51888476103,
			"-0.012": 2.18139161643,
			"-0.011": 2.77819670429,
			"-0.01": 2.40422042875,
			"-0.009": 1.98126592334,
			"-0.008": 2.54131785531,
			"-0.007": 3.76811031329,
			"-0.006": 4.96340189279,
			"-0.005": 9.77066462433,
			"-0.004": 20.030974141,
			"-0.003": 22.8429701679,
			"-0.002": 21.4083819582,
			"-0.001": 20.9467386962,
			"0.0": 19.4062377478,
			"0.001": 13.5955966943,
			"0.002": 13.4962102487,
			"0.003": 14.2966257949,
			"0.004": 17.4656374024,
			"0.005": 19.5948521036,
			"0.006": 12.5774398496,
			"0.007": 4.60880715988,
			"0.008": 3.0914985281,
			"0.009": 2.79679806947,
			"0.01": 2.87053397837,
			"0.011": 3.28665746446,
			"0.012": 4.30911793584,
			"0.013": 3.33585705712,
			"0.014": 0.753367604991,
			"0.015": 0.0,
			"0.016": 0.0,
			"0.017": 0.0,
			"0.018": 0.0,
			"0.019": 0.0,
			"0.02": 0.0,
			"0.021": 0.0,
			"0.022": 0.0,
			"0.023": 0.0,
			"0.024": 0.0,
			"0.025": 0.0
		}
	}
}
