{
	 "smiles": "NC1=C(C=CC=C1)C(=O)NC1=CC=NC=C1", 
	 "Tm": 418.15, 
	 "num_atms": 27, 
	 "gaussian": { 
		 "optdone": 1, 
		 "sigma_profile": "yes", 
		 "theory": "DFT", 
		 "functional": "B3LYP", 
		 "basiset": "6-31G**", 
		 "properties": { 
			 "R2extent": 4724.6976, 
			 "electric_dipole_moment_norm": 2.21176782688, 
			 "electric_quadrupole_moment_norm": 17.5874466444, 
			 "total_energy": -703.401063415, 
			 "HOMO_LUMO_gap": 0.15719, 
			 "cosmo_polarized_energy": -14.29, 
			 "cosmo_cavitation_energy": 30.84, 
			 "cosmo_dispersion_energy": -22.45, 
			 "cosmo_repulsion_energy": 1.74, 
			 "cosmo_total_nonelectrostatic_energy": 10.13, 
			 "SMD_solvation_energy": 4.18 
		},
		"coords": [
			{
				"x": -1.3652811301,
				"y": -3.4739029826,
				"z": 3.3189548706,
				"element": "N" 
			},
			{
				"x": -1.7356724159,
				"y": -2.2514076393,
				"z": 2.8178624528,
				"element": "C" 
			},
			{
				"x": -0.8363919882,
				"y": -1.4490003573,
				"z": 2.0540964271,
				"element": "C" 
			},
			{
				"x": -1.2658293827,
				"y": -0.1906631884,
				"z": 1.5894985766,
				"element": "C" 
			},
			{
				"x": -2.5541115592,
				"y": 0.2707542807,
				"z": 1.8123246219,
				"element": "C" 
			},
			{
				"x": -3.4518074998,
				"y": -0.5454659328,
				"z": 2.515305491,
				"element": "C" 
			},
			{
				"x": -3.0534095205,
				"y": -1.7778722366,
				"z": 3.006995204,
				"element": "C" 
			},
			{
				"x": 0.5602017246,
				"y": -1.8991648057,
				"z": 1.8556090524,
				"element": "C" 
			},
			{
				"x": 1.141516671,
				"y": -2.6507918154,
				"z": 2.6441517816,
				"element": "O" 
			},
			{
				"x": 1.3058996159,
				"y": -1.398434831,
				"z": 0.78505013,
				"element": "N" 
			},
			{
				"x": 0.9552896317,
				"y": -1.0858730948,
				"z": -0.5402314973,
				"element": "C" 
			},
			{
				"x": 1.8963539848,
				"y": -0.41194014,
				"z": -1.3337605809,
				"element": "C" 
			},
			{
				"x": 1.5847706149,
				"y": -0.1325240426,
				"z": -2.6610507452,
				"element": "C" 
			},
			{
				"x": 0.4253918976,
				"y": -0.458967429,
				"z": -3.2467807767,
				"element": "N" 
			},
			{
				"x": -0.4615791825,
				"y": -1.1057902067,
				"z": -2.4790836459,
				"element": "C" 
			},
			{
				"x": -0.2565896384,
				"y": -1.4500599372,
				"z": -1.1446694959,
				"element": "C" 
			},
			{
				"x": -0.3687069613,
				"y": -3.6112646433,
				"z": 3.4369347813,
				"element": "H" 
			},
			{
				"x": -1.9700604892,
				"y": -3.8858673241,
				"z": 4.0123939394,
				"element": "H" 
			},
			{
				"x": -0.5593183279,
				"y": 0.4363439225,
				"z": 1.0570852471,
				"element": "H" 
			},
			{
				"x": -2.8585572145,
				"y": 1.2473621606,
				"z": 1.451561685,
				"element": "H" 
			},
			{
				"x": -4.4688875841,
				"y": -0.2067481032,
				"z": 2.6930704667,
				"element": "H" 
			},
			{
				"x": -3.7522005398,
				"y": -2.394444175,
				"z": 3.5668277229,
				"element": "H" 
			},
			{
				"x": 2.2882011841,
				"y": -1.606755542,
				"z": 0.9245530482,
				"element": "H" 
			},
			{
				"x": 2.8517668171,
				"y": -0.1067116025,
				"z": -0.9165427334,
				"element": "H" 
			},
			{
				"x": 2.3087743309,
				"y": 0.389366079,
				"z": -3.2846785971,
				"element": "H" 
			},
			{
				"x": -1.3987083072,
				"y": -1.381368133,
				"z": -2.9599267141,
				"element": "H" 
			},
			{
				"x": -1.0180547311,
				"y": -1.9917082801,
				"z": -0.5985507122,
				"element": "H" 
			}
		],
		 "valence_orbital": [ 
			{
				"type": "occ",
				"energy": -0.26599,
				"method": "rhf"
			},
			{
				"type": "occ",
				"energy": -0.25713,
				"method": "rhf"
			},
			{
				"type": "occ",
				"energy": -0.25323,
				"method": "rhf"
			},
			{
				"type": "occ",
				"energy": -0.24134,
				"method": "rhf"
			},
			{
				"type": "occ",
				"energy": -0.20902,
				"method": "rhf"
			},
			{
				"type": "unocc",
				"energy": -0.05183,
				"method": "rhf"
			},
			{
				"type": "unocc",
				"energy": -0.0172,
				"method": "rhf"
			},
			{
				"type": "unocc",
				"energy": -0.01007,
				"method": "rhf"
			},
			{
				"type": "unocc",
				"energy": 0.00972,
				"method": "rhf"
			},
			{
				"type": "unocc",
				"energy": 0.05,
				"method": "rhf"
			}
		],
		"cosmo_sigma_profile": { 
			"-0.025": 0.0,
			"-0.024": 0.0,
			"-0.023": 0.0,
			"-0.022": 0.0,
			"-0.021": 0.0,
			"-0.02": 0.0,
			"-0.019": 0.0,
			"-0.018": 0.0,
			"-0.017": 0.0,
			"-0.016": 0.0,
			"-0.015": 0.224739233571,
			"-0.014": 1.06922539616,
			"-0.013": 1.93583056691,
			"-0.012": 2.54577804368,
			"-0.011": 2.73856927587,
			"-0.01": 2.36753237894,
			"-0.009": 3.11788669798,
			"-0.008": 3.92059307396,
			"-0.007": 6.27277330094,
			"-0.006": 14.355959532,
			"-0.005": 17.7556707976,
			"-0.004": 17.1659887804,
			"-0.003": 14.0211831115,
			"-0.002": 12.6181257699,
			"-0.001": 15.9016255954,
			"0.0": 14.3042910541,
			"0.001": 16.7181712733,
			"0.002": 21.2555874513,
			"0.003": 21.2815275768,
			"0.004": 12.7913709469,
			"0.005": 11.5924812723,
			"0.006": 6.10774770607,
			"0.007": 3.11540974876,
			"0.008": 3.44408458349,
			"0.009": 3.83685243578,
			"0.01": 3.11056256408,
			"0.011": 4.02140396186,
			"0.012": 3.80143356207,
			"0.013": 1.7580609058,
			"0.014": 1.15214540716,
			"0.015": 0.960318398327,
			"0.016": 0.993557921148,
			"0.017": 0.563581920947,
			"0.018": 0.0537165219791,
			"0.019": 0.0,
			"0.02": 0.0,
			"0.021": 0.0,
			"0.022": 0.0,
			"0.023": 0.0,
			"0.024": 0.0,
			"0.025": 0.0
		}
	}
}
