{
	 "smiles": "CC(C)CC1NC(=O)NC1=O", 
	 "Tm": 489.15, 
	 "num_atms": 23, 
	 "gaussian": { 
		 "optdone": 1, 
		 "sigma_profile": "yes", 
		 "theory": "DFT", 
		 "functional": "B3LYP", 
		 "basiset": "6-31G**", 
		 "properties": { 
			 "R2extent": 2643.6853, 
			 "electric_dipole_moment_norm": 2.84834196332, 
			 "electric_quadrupole_moment_norm": 10.1560666835, 
			 "total_energy": -533.981215628, 
			 "HOMO_LUMO_gap": 0.25213, 
			 "cosmo_polarized_energy": -15.44, 
			 "cosmo_cavitation_energy": 26.12, 
			 "cosmo_dispersion_energy": -18.72, 
			 "cosmo_repulsion_energy": 1.54, 
			 "cosmo_total_nonelectrostatic_energy": 8.95, 
			 "SMD_solvation_energy": 5.49 
		},
		"coords": [
			{
				"x": 1.6622815103,
				"y": 0.5607119589,
				"z": -1.2516309468,
				"element": "C" 
			},
			{
				"x": 0.1532432544,
				"y": 0.3897329864,
				"z": -1.0179088113,
				"element": "C" 
			},
			{
				"x": -0.6082432497,
				"y": 0.4291356746,
				"z": -2.3515303814,
				"element": "C" 
			},
			{
				"x": -0.1863353462,
				"y": -0.9086342946,
				"z": -0.2600180254,
				"element": "C" 
			},
			{
				"x": 0.366763195,
				"y": -0.9962961535,
				"z": 1.1691102322,
				"element": "C" 
			},
			{
				"x": -0.2200530051,
				"y": -0.0502452669,
				"z": 2.1110111861,
				"element": "N" 
			},
			{
				"x": -0.720947504,
				"y": -0.6465432681,
				"z": 3.2429712316,
				"element": "C" 
			},
			{
				"x": -1.1862959785,
				"y": -0.122588645,
				"z": 4.2328951309,
				"element": "O" 
			},
			{
				"x": -0.5924428832,
				"y": -2.0352061307,
				"z": 3.0203651455,
				"element": "N" 
			},
			{
				"x": 0.0217439425,
				"y": -2.3456647939,
				"z": 1.8253037025,
				"element": "C" 
			},
			{
				"x": 0.2404116609,
				"y": -3.4498592334,
				"z": 1.3739961891,
				"element": "O" 
			},
			{
				"x": 2.0617959893,
				"y": -0.2719399415,
				"z": -1.8428407906,
				"element": "H" 
			},
			{
				"x": 1.8673399981,
				"y": 1.4856619247,
				"z": -1.8005130208,
				"element": "H" 
			},
			{
				"x": 2.2311995453,
				"y": 0.6062359328,
				"z": -0.3167696983,
				"element": "H" 
			},
			{
				"x": -0.199845126,
				"y": 1.238160194,
				"z": -0.412102963,
				"element": "H" 
			},
			{
				"x": -0.3046564531,
				"y": -0.4022421329,
				"z": -2.9989473111,
				"element": "H" 
			},
			{
				"x": -1.6897682541,
				"y": 0.3536969844,
				"z": -2.1969799471,
				"element": "H" 
			},
			{
				"x": -0.4097613302,
				"y": 1.3606706554,
				"z": -2.8916874032,
				"element": "H" 
			},
			{
				"x": 0.1998968547,
				"y": -1.7755296318,
				"z": -0.8105249261,
				"element": "H" 
			},
			{
				"x": -1.2759555813,
				"y": -1.0231339901,
				"z": -0.2075801452,
				"element": "H" 
			},
			{
				"x": 1.4626110016,
				"y": -0.9129896588,
				"z": 1.1544269322,
				"element": "H" 
			},
			{
				"x": -0.0271365997,
				"y": 0.9387541367,
				"z": 2.1204661181,
				"element": "H" 
			},
			{
				"x": -0.9405456409,
				"y": -2.7190873067,
				"z": 3.6766885022,
				"element": "H" 
			}
		],
		 "valence_orbital": [ 
			{
				"type": "occ",
				"energy": -0.33621,
				"method": "rhf"
			},
			{
				"type": "occ",
				"energy": -0.29062,
				"method": "rhf"
			},
			{
				"type": "occ",
				"energy": -0.2893,
				"method": "rhf"
			},
			{
				"type": "occ",
				"energy": -0.26944,
				"method": "rhf"
			},
			{
				"type": "occ",
				"energy": -0.26185,
				"method": "rhf"
			},
			{
				"type": "unocc",
				"energy": -0.00972,
				"method": "rhf"
			},
			{
				"type": "unocc",
				"energy": 0.0553,
				"method": "rhf"
			},
			{
				"type": "unocc",
				"energy": 0.06301,
				"method": "rhf"
			},
			{
				"type": "unocc",
				"energy": 0.09023,
				"method": "rhf"
			},
			{
				"type": "unocc",
				"energy": 0.09841,
				"method": "rhf"
			}
		],
		"cosmo_sigma_profile": { 
			"-0.025": 0.0,
			"-0.024": 0.0,
			"-0.023": 0.0,
			"-0.022": 0.0,
			"-0.021": 0.0,
			"-0.02": 0.0,
			"-0.019": 0.0,
			"-0.018": 0.0,
			"-0.017": 0.264001664096,
			"-0.016": 1.22132591956,
			"-0.015": 1.98891852807,
			"-0.014": 1.39938446872,
			"-0.013": 1.94838452538,
			"-0.012": 1.67180215095,
			"-0.011": 1.5845118138,
			"-0.01": 2.15876963994,
			"-0.009": 2.42821093285,
			"-0.008": 2.56949446908,
			"-0.007": 6.2145244238,
			"-0.006": 6.05119058928,
			"-0.005": 6.19497825553,
			"-0.004": 8.75854716171,
			"-0.003": 18.1581169322,
			"-0.002": 24.7128600989,
			"-0.001": 23.5434302207,
			"0.0": 19.2434914147,
			"0.001": 17.993278936,
			"0.002": 8.95115919949,
			"0.003": 3.80426632168,
			"0.004": 3.70778970875,
			"0.005": 2.31634829325,
			"0.006": 1.78655488698,
			"0.007": 2.81918687582,
			"0.008": 2.42862409938,
			"0.009": 2.09978223791,
			"0.01": 4.01949235987,
			"0.011": 4.82515808055,
			"0.012": 9.26227908477,
			"0.013": 8.24640350054,
			"0.014": 1.2582625027,
			"0.015": 0.0,
			"0.016": 0.0,
			"0.017": 0.0,
			"0.018": 0.0,
			"0.019": 0.0,
			"0.02": 0.0,
			"0.021": 0.0,
			"0.022": 0.0,
			"0.023": 0.0,
			"0.024": 0.0,
			"0.025": 0.0
		}
	}
}
