{
	 "smiles": "OC(=O)CCCN1N=NC(=N1)C1=CC=CC=C1", 
	 "Tm": 357.15, 
	 "num_atms": 29, 
	 "gaussian": { 
		 "optdone": 1, 
		 "sigma_profile": "yes", 
		 "theory": "DFT", 
		 "functional": "B3LYP", 
		 "basiset": "6-31G**", 
		 "properties": { 
			 "R2extent": 6131.0564, 
			 "electric_dipole_moment_norm": 2.08197055935, 
			 "electric_quadrupole_moment_norm": 28.9288685565, 
			 "total_energy": -795.830862066, 
			 "HOMO_LUMO_gap": 0.199, 
			 "cosmo_polarized_energy": -20.72, 
			 "cosmo_cavitation_energy": 34.56, 
			 "cosmo_dispersion_energy": -24.63, 
			 "cosmo_repulsion_energy": 1.93, 
			 "cosmo_total_nonelectrostatic_energy": 11.85, 
			 "SMD_solvation_energy": 4.43 
		},
		"coords": [
			{
				"x": 4.1339702516,
				"y": 3.7903856875,
				"z": -0.3820836451,
				"element": "O" 
			},
			{
				"x": 2.9521594481,
				"y": 3.923011003,
				"z": 0.2761172734,
				"element": "C" 
			},
			{
				"x": 2.3486150899,
				"y": 4.965447119,
				"z": 0.2346354638,
				"element": "O" 
			},
			{
				"x": 2.4945909,
				"y": 2.6916732568,
				"z": 1.0485947665,
				"element": "C" 
			},
			{
				"x": 1.1065776848,
				"y": 2.878805756,
				"z": 1.6637733783,
				"element": "C" 
			},
			{
				"x": 0.6537861284,
				"y": 1.6878805514,
				"z": 2.5144252194,
				"element": "C" 
			},
			{
				"x": 0.5089908127,
				"y": 0.4610905197,
				"z": 1.7342323801,
				"element": "N" 
			},
			{
				"x": 1.4505042888,
				"y": -0.4808410485,
				"z": 1.6910282489,
				"element": "N" 
			},
			{
				"x": 1.0178998798,
				"y": -1.3886982857,
				"z": 0.8529466045,
				"element": "N" 
			},
			{
				"x": -0.1942109224,
				"y": -0.9582347208,
				"z": 0.4018429982,
				"element": "C" 
			},
			{
				"x": -0.5323945085,
				"y": 0.2159347044,
				"z": 0.9459189674,
				"element": "N" 
			},
			{
				"x": -1.0218489496,
				"y": -1.6965404278,
				"z": -0.5573547186,
				"element": "C" 
			},
			{
				"x": -2.2561481794,
				"y": -1.1800084327,
				"z": -0.9801902393,
				"element": "C" 
			},
			{
				"x": -3.033616117,
				"y": -1.8886937286,
				"z": -1.8932128839,
				"element": "C" 
			},
			{
				"x": -2.5892370725,
				"y": -3.1158528615,
				"z": -2.3921525955,
				"element": "C" 
			},
			{
				"x": -1.3611223699,
				"y": -3.6327046428,
				"z": -1.9728764725,
				"element": "C" 
			},
			{
				"x": -0.578398272,
				"y": -2.9292145396,
				"z": -1.0597431414,
				"element": "C" 
			},
			{
				"x": 4.4884815558,
				"y": 2.8973085721,
				"z": -0.264506854,
				"element": "H" 
			},
			{
				"x": 3.2397244946,
				"y": 2.4830244963,
				"z": 1.8296324766,
				"element": "H" 
			},
			{
				"x": 2.5128576901,
				"y": 1.8218915112,
				"z": 0.3794792101,
				"element": "H" 
			},
			{
				"x": 0.3718044578,
				"y": 3.0621384136,
				"z": 0.8741916962,
				"element": "H" 
			},
			{
				"x": 1.1078660421,
				"y": 3.7714391774,
				"z": 2.2969272569,
				"element": "H" 
			},
			{
				"x": -0.316099742,
				"y": 1.8899412712,
				"z": 2.9739487067,
				"element": "H" 
			},
			{
				"x": 1.375426727,
				"y": 1.4563184216,
				"z": 3.3015538121,
				"element": "H" 
			},
			{
				"x": -2.595862174,
				"y": -0.2265629433,
				"z": -0.5891462738,
				"element": "H" 
			},
			{
				"x": -3.9878745862,
				"y": -1.4829346069,
				"z": -2.2162712779,
				"element": "H" 
			},
			{
				"x": -3.1974782386,
				"y": -3.6663908646,
				"z": -3.1040095122,
				"element": "H" 
			},
			{
				"x": -1.0119791171,
				"y": -4.5864781971,
				"z": -2.3576024804,
				"element": "H" 
			},
			{
				"x": 0.3763147978,
				"y": -3.3225351617,
				"z": -0.7271983644,
				"element": "H" 
			}
		],
		 "valence_orbital": [ 
			{
				"type": "occ",
				"energy": -0.31275,
				"method": "rhf"
			},
			{
				"type": "occ",
				"energy": -0.29327,
				"method": "rhf"
			},
			{
				"type": "occ",
				"energy": -0.27925,
				"method": "rhf"
			},
			{
				"type": "occ",
				"energy": -0.25661,
				"method": "rhf"
			},
			{
				"type": "occ",
				"energy": -0.24039,
				"method": "rhf"
			},
			{
				"type": "unocc",
				"energy": -0.04139,
				"method": "rhf"
			},
			{
				"type": "unocc",
				"energy": -0.02543,
				"method": "rhf"
			},
			{
				"type": "unocc",
				"energy": -0.00408,
				"method": "rhf"
			},
			{
				"type": "unocc",
				"energy": 0.00362,
				"method": "rhf"
			},
			{
				"type": "unocc",
				"energy": 0.04975,
				"method": "rhf"
			}
		],
		"cosmo_sigma_profile": { 
			"-0.025": 0.0,
			"-0.024": 0.0,
			"-0.023": 0.0,
			"-0.022": 0.0,
			"-0.021": 0.0,
			"-0.02": 0.0383591104354,
			"-0.019": 0.686446076007,
			"-0.018": 0.938115422035,
			"-0.017": 1.31370488273,
			"-0.016": 1.32054686124,
			"-0.015": 0.703250649006,
			"-0.014": 0.93155119277,
			"-0.013": 1.21536993471,
			"-0.012": 1.29747451612,
			"-0.011": 1.45046822699,
			"-0.01": 1.12937011137,
			"-0.009": 1.40848479065,
			"-0.008": 5.50694617009,
			"-0.007": 11.8810026847,
			"-0.006": 17.3399150995,
			"-0.005": 23.5369155689,
			"-0.004": 22.7823191803,
			"-0.003": 14.8336414403,
			"-0.002": 13.7799189171,
			"-0.001": 13.3007662416,
			"0.0": 12.5974792951,
			"0.001": 17.3444710852,
			"0.002": 17.0598152581,
			"0.003": 14.6868311366,
			"0.004": 16.0469398768,
			"0.005": 11.8889365835,
			"0.006": 5.62608301227,
			"0.007": 5.57128556931,
			"0.008": 6.04246559193,
			"0.009": 7.65638932345,
			"0.01": 7.8859899529,
			"0.011": 8.0956890792,
			"0.012": 6.59972738572,
			"0.013": 2.57019991156,
			"0.014": 0.221612411853,
			"0.015": 0.0,
			"0.016": 0.0,
			"0.017": 0.0,
			"0.018": 0.0,
			"0.019": 0.0,
			"0.02": 0.0,
			"0.021": 0.0,
			"0.022": 0.0,
			"0.023": 0.0,
			"0.024": 0.0,
			"0.025": 0.0
		}
	}
}
