{
	 "smiles": "COC1=CC2=C(C=C1)C(O)=CC=N2", 
	 "Tm": 487.15, 
	 "num_atms": 22, 
	 "gaussian": { 
		 "optdone": 1, 
		 "sigma_profile": "yes", 
		 "theory": "DFT", 
		 "functional": "B3LYP", 
		 "basiset": "6-31G**", 
		 "properties": { 
			 "R2extent": 3015.4214, 
			 "electric_dipole_moment_norm": 2.02851255357, 
			 "electric_quadrupole_moment_norm": 8.84225206664, 
			 "total_energy": -591.678830303, 
			 "HOMO_LUMO_gap": 0.17541, 
			 "cosmo_polarized_energy": -12.67, 
			 "cosmo_cavitation_energy": 25.76, 
			 "cosmo_dispersion_energy": -19.58, 
			 "cosmo_repulsion_energy": 1.52, 
			 "cosmo_total_nonelectrostatic_energy": 7.69, 
			 "SMD_solvation_energy": 3.9 
		},
		"coords": [
			{
				"x": 3.6492103826,
				"y": 2.6422104107,
				"z": -0.2550728933,
				"element": "C" 
			},
			{
				"x": 3.2185378103,
				"y": 1.2959212928,
				"z": -0.4008196664,
				"element": "O" 
			},
			{
				"x": 1.8814461298,
				"y": 1.0619399242,
				"z": -0.4990224094,
				"element": "C" 
			},
			{
				"x": 0.8985006828,
				"y": 2.030939169,
				"z": -0.468902495,
				"element": "C" 
			},
			{
				"x": -0.4723098545,
				"y": 1.6730635296,
				"z": -0.5799634865,
				"element": "C" 
			},
			{
				"x": -0.8266077875,
				"y": 0.2921022735,
				"z": -0.7240809913,
				"element": "C" 
			},
			{
				"x": 0.2135171163,
				"y": -0.6767867706,
				"z": -0.7508849718,
				"element": "C" 
			},
			{
				"x": 1.5302974028,
				"y": -0.3089348766,
				"z": -0.6420536849,
				"element": "C" 
			},
			{
				"x": -2.2146127904,
				"y": -0.014145522,
				"z": -0.8315551382,
				"element": "C" 
			},
			{
				"x": -2.6806732974,
				"y": -1.2815273344,
				"z": -0.9720478655,
				"element": "O" 
			},
			{
				"x": -3.1356573598,
				"y": 1.015637926,
				"z": -0.7923814538,
				"element": "C" 
			},
			{
				"x": -2.6637736465,
				"y": 2.3340104156,
				"z": -0.6470420433,
				"element": "C" 
			},
			{
				"x": -1.3919520013,
				"y": 2.6794204223,
				"z": -0.5427715929,
				"element": "N" 
			},
			{
				"x": 3.3517457249,
				"y": 3.2539011038,
				"z": -1.1158318737,
				"element": "H" 
			},
			{
				"x": 3.2488887807,
				"y": 3.094428336,
				"z": 0.6607871862,
				"element": "H" 
			},
			{
				"x": 4.7378055131,
				"y": 2.6054452055,
				"z": -0.1953593822,
				"element": "H" 
			},
			{
				"x": 1.1173073874,
				"y": 3.0855351541,
				"z": -0.3617718566,
				"element": "H" 
			},
			{
				"x": -0.0118871409,
				"y": -1.736199319,
				"z": -0.8586062364,
				"element": "H" 
			},
			{
				"x": 2.3286759659,
				"y": -1.0429742175,
				"z": -0.6617041591,
				"element": "H" 
			},
			{
				"x": -1.945184725,
				"y": -1.9064412799,
				"z": -0.9864449779,
				"element": "H" 
			},
			{
				"x": -4.1949160452,
				"y": 0.8002550172,
				"z": -0.872803609,
				"element": "H" 
			},
			{
				"x": -3.3860582482,
				"y": 3.1493991395,
				"z": -0.6155663989,
				"element": "H" 
			}
		],
		 "valence_orbital": [ 
			{
				"type": "occ",
				"energy": -0.31412,
				"method": "rhf"
			},
			{
				"type": "occ",
				"energy": -0.27077,
				"method": "rhf"
			},
			{
				"type": "occ",
				"energy": -0.24866,
				"method": "rhf"
			},
			{
				"type": "occ",
				"energy": -0.23457,
				"method": "rhf"
			},
			{
				"type": "occ",
				"energy": -0.21547,
				"method": "rhf"
			},
			{
				"type": "unocc",
				"energy": -0.04006,
				"method": "rhf"
			},
			{
				"type": "unocc",
				"energy": -0.00854,
				"method": "rhf"
			},
			{
				"type": "unocc",
				"energy": 0.03019,
				"method": "rhf"
			},
			{
				"type": "unocc",
				"energy": 0.05047,
				"method": "rhf"
			},
			{
				"type": "unocc",
				"energy": 0.10142,
				"method": "rhf"
			}
		],
		"cosmo_sigma_profile": { 
			"-0.025": 0.0,
			"-0.024": 0.0,
			"-0.023": 0.0,
			"-0.022": 0.0,
			"-0.021": 0.0,
			"-0.02": 0.0,
			"-0.019": 0.183921289578,
			"-0.018": 0.638400330012,
			"-0.017": 1.25105804,
			"-0.016": 1.19001142989,
			"-0.015": 0.972333753716,
			"-0.014": 0.549502325037,
			"-0.013": 0.822580843449,
			"-0.012": 1.2814868518,
			"-0.011": 1.10207652207,
			"-0.01": 1.31690302194,
			"-0.009": 0.947683430676,
			"-0.008": 1.01207670116,
			"-0.007": 3.42899244506,
			"-0.006": 12.8647445582,
			"-0.005": 17.8673040353,
			"-0.004": 15.6014342881,
			"-0.003": 13.6062065184,
			"-0.002": 10.1182739124,
			"-0.001": 8.93334481736,
			"0.0": 9.23606039813,
			"0.001": 12.6532820986,
			"0.002": 19.1606423414,
			"0.003": 24.3180475401,
			"0.004": 12.9848391947,
			"0.005": 5.72551620918,
			"0.006": 5.83100340284,
			"0.007": 3.29414846008,
			"0.008": 4.57209883468,
			"0.009": 4.45294084459,
			"0.01": 4.2064802874,
			"0.011": 0.859568065912,
			"0.012": 1.12234149301,
			"0.013": 1.33989108456,
			"0.014": 0.559372829142,
			"0.015": 1.02115418922,
			"0.016": 0.539208130415,
			"0.017": 0.653067654937,
			"0.018": 0.0,
			"0.019": 0.0,
			"0.02": 0.0,
			"0.021": 0.0,
			"0.022": 0.0,
			"0.023": 0.0,
			"0.024": 0.0,
			"0.025": 0.0
		}
	}
}
