{
	 "smiles": "COC1=CC(OCC2=CC=CC=C2)=C(C=C1)C(C)(C)O", 
	 "Tm": 321.15, 
	 "num_atms": 40, 
	 "gaussian": { 
		 "optdone": 1, 
		 "sigma_profile": "yes", 
		 "theory": "DFT", 
		 "functional": "B3LYP", 
		 "basiset": "6-31G**", 
		 "properties": { 
			 "R2extent": 7123.5971, 
			 "electric_dipole_moment_norm": 3.91523272744, 
			 "electric_quadrupole_moment_norm": 8.55205938006, 
			 "total_energy": -885.51652861, 
			 "HOMO_LUMO_gap": 0.18493, 
			 "cosmo_polarized_energy": -13.37, 
			 "cosmo_cavitation_energy": 42.34, 
			 "cosmo_dispersion_energy": -28.68, 
			 "cosmo_repulsion_energy": 2.21, 
			 "cosmo_total_nonelectrostatic_energy": 15.88, 
			 "SMD_solvation_energy": 8.15 
		},
		"coords": [
			{
				"x": -3.3550966381,
				"y": -3.0311457803,
				"z": -1.4237398273,
				"element": "C" 
			},
			{
				"x": -2.5686352985,
				"y": -3.6069439663,
				"z": -0.3961897619,
				"element": "O" 
			},
			{
				"x": -1.4757801964,
				"y": -2.9197683347,
				"z": 0.0540845914,
				"element": "C" 
			},
			{
				"x": -1.0800712084,
				"y": -1.6698697814,
				"z": -0.4389215902,
				"element": "C" 
			},
			{
				"x": 0.0563645068,
				"y": -1.0393119995,
				"z": 0.0880811019,
				"element": "C" 
			},
			{
				"x": 0.4967167052,
				"y": 0.1746035458,
				"z": -0.3806324679,
				"element": "O" 
			},
			{
				"x": -0.2106106889,
				"y": 0.8145764516,
				"z": -1.4470608173,
				"element": "C" 
			},
			{
				"x": 0.5019371608,
				"y": 2.101220128,
				"z": -1.7765685144,
				"element": "C" 
			},
			{
				"x": 1.5939595236,
				"y": 2.1008395435,
				"z": -2.6533177233,
				"element": "C" 
			},
			{
				"x": 2.2722397616,
				"y": 3.2849615736,
				"z": -2.9415434924,
				"element": "C" 
			},
			{
				"x": 1.8631313288,
				"y": 4.4847459271,
				"z": -2.3548735906,
				"element": "C" 
			},
			{
				"x": 0.7758022932,
				"y": 4.4949918303,
				"z": -1.4793964861,
				"element": "C" 
			},
			{
				"x": 0.1005043104,
				"y": 3.3078906343,
				"z": -1.1921237861,
				"element": "C" 
			},
			{
				"x": 0.8118209252,
				"y": -1.6303837057,
				"z": 1.1236072546,
				"element": "C" 
			},
			{
				"x": 0.3906074679,
				"y": -2.8875105572,
				"z": 1.5700336531,
				"element": "C" 
			},
			{
				"x": -0.7311801905,
				"y": -3.5350943899,
				"z": 1.0613173922,
				"element": "C" 
			},
			{
				"x": 2.0638211535,
				"y": -0.9714134759,
				"z": 1.7400704103,
				"element": "C" 
			},
			{
				"x": 3.2086686237,
				"y": -0.9098569742,
				"z": 0.7194125956,
				"element": "C" 
			},
			{
				"x": 1.7558985734,
				"y": 0.4215626869,
				"z": 2.3190117805,
				"element": "C" 
			},
			{
				"x": 2.5774732712,
				"y": -1.790669581,
				"z": 2.8029558474,
				"element": "O" 
			},
			{
				"x": -2.7763300576,
				"y": -2.8802789593,
				"z": -2.3448502443,
				"element": "H" 
			},
			{
				"x": -3.7910613743,
				"y": -2.07154961,
				"z": -1.1149869891,
				"element": "H" 
			},
			{
				"x": -4.1605097553,
				"y": -3.74042172,
				"z": -1.6219592734,
				"element": "H" 
			},
			{
				"x": -1.6468416887,
				"y": -1.1939948982,
				"z": -1.2256794818,
				"element": "H" 
			},
			{
				"x": -1.2462355389,
				"y": 1.0150749662,
				"z": -1.1408548042,
				"element": "H" 
			},
			{
				"x": -0.2361868343,
				"y": 0.1522228921,
				"z": -2.3230670431,
				"element": "H" 
			},
			{
				"x": 1.9121952349,
				"y": 1.1673940061,
				"z": -3.1107493535,
				"element": "H" 
			},
			{
				"x": 3.1165800366,
				"y": 3.2727660998,
				"z": -3.6247228091,
				"element": "H" 
			},
			{
				"x": 2.3883808622,
				"y": 5.4081606054,
				"z": -2.5814214289,
				"element": "H" 
			},
			{
				"x": 0.452996263,
				"y": 5.4257990616,
				"z": -1.022000913,
				"element": "H" 
			},
			{
				"x": -0.7456981911,
				"y": 3.3165192557,
				"z": -0.5095776199,
				"element": "H" 
			},
			{
				"x": 0.9837652433,
				"y": -3.3754336921,
				"z": 2.3348604799,
				"element": "H" 
			},
			{
				"x": -1.0380411023,
				"y": -4.5095255125,
				"z": 1.4253010731,
				"element": "H" 
			},
			{
				"x": 3.467585277,
				"y": -1.9212833387,
				"z": 0.394112223,
				"element": "H" 
			},
			{
				"x": 2.9184011373,
				"y": -0.3181053748,
				"z": -0.15011325,
				"element": "H" 
			},
			{
				"x": 4.0918204835,
				"y": -0.4594134248,
				"z": 1.1829735365,
				"element": "H" 
			},
			{
				"x": 0.956266919,
				"y": 0.353702721,
				"z": 3.0674288566,
				"element": "H" 
			},
			{
				"x": 2.6536395579,
				"y": 0.8131590548,
				"z": 2.8075761839,
				"element": "H" 
			},
			{
				"x": 1.4343524732,
				"y": 1.1198488299,
				"z": 1.5462188129,
				"element": "H" 
			},
			{
				"x": 1.97034967,
				"y": -1.7070647371,
				"z": 3.551205475,
				"element": "H" 
			}
		],
		 "valence_orbital": [ 
			{
				"type": "occ",
				"energy": -0.26137,
				"method": "rhf"
			},
			{
				"type": "occ",
				"energy": -0.25686,
				"method": "rhf"
			},
			{
				"type": "occ",
				"energy": -0.25539,
				"method": "rhf"
			},
			{
				"type": "occ",
				"energy": -0.23159,
				"method": "rhf"
			},
			{
				"type": "occ",
				"energy": -0.19985,
				"method": "rhf"
			},
			{
				"type": "unocc",
				"energy": -0.01492,
				"method": "rhf"
			},
			{
				"type": "unocc",
				"energy": -0.00839,
				"method": "rhf"
			},
			{
				"type": "unocc",
				"energy": 0.01448,
				"method": "rhf"
			},
			{
				"type": "unocc",
				"energy": 0.02042,
				"method": "rhf"
			},
			{
				"type": "unocc",
				"energy": 0.08345,
				"method": "rhf"
			}
		],
		"cosmo_sigma_profile": { 
			"-0.025": 0.0,
			"-0.024": 0.0,
			"-0.023": 0.0,
			"-0.022": 0.0,
			"-0.021": 0.0,
			"-0.02": 0.0,
			"-0.019": 0.0,
			"-0.018": 0.0,
			"-0.017": 0.0,
			"-0.016": 0.0,
			"-0.015": 0.236080875007,
			"-0.014": 0.715451428832,
			"-0.013": 0.723222715804,
			"-0.012": 0.995932269495,
			"-0.011": 1.12565587827,
			"-0.01": 0.641960541934,
			"-0.009": 0.923422622305,
			"-0.008": 0.68159133885,
			"-0.007": 3.08547550144,
			"-0.006": 17.0279012386,
			"-0.005": 29.9884442053,
			"-0.004": 29.2639340027,
			"-0.003": 29.9603258293,
			"-0.002": 21.7471326947,
			"-0.001": 22.1286832311,
			"0.0": 24.6711647332,
			"0.001": 27.0443113261,
			"0.002": 21.8526145127,
			"0.003": 23.535818886,
			"0.004": 22.4448052905,
			"0.005": 22.0059041105,
			"0.006": 15.3823898075,
			"0.007": 3.57010903582,
			"0.008": 2.72901167269,
			"0.009": 3.00308784239,
			"0.01": 2.18867870119,
			"0.011": 2.03514877444,
			"0.012": 1.29663725466,
			"0.013": 1.34239358261,
			"0.014": 1.61980602041,
			"0.015": 0.249411791587,
			"0.016": 0.0,
			"0.017": 0.0,
			"0.018": 0.0,
			"0.019": 0.0,
			"0.02": 0.0,
			"0.021": 0.0,
			"0.022": 0.0,
			"0.023": 0.0,
			"0.024": 0.0,
			"0.025": 0.0
		}
	}
}
