{
	 "smiles": "NC1=NC2=C(S1)C=C(F)C(F)=C2", 
	 "Tm": 445.15, 
	 "num_atms": 16, 
	 "gaussian": { 
		 "optdone": 1, 
		 "sigma_profile": "yes", 
		 "theory": "DFT", 
		 "functional": "B3LYP", 
		 "basiset": "6-31G**", 
		 "properties": { 
			 "R2extent": 2822.2179, 
			 "electric_dipole_moment_norm": 4.29307851081, 
			 "electric_quadrupole_moment_norm": 9.50626334056, 
			 "total_energy": -976.516701655, 
			 "HOMO_LUMO_gap": 0.19371, 
			 "cosmo_polarized_energy": -10.68, 
			 "cosmo_cavitation_energy": 23.42, 
			 "cosmo_dispersion_energy": -17.94, 
			 "cosmo_repulsion_energy": 1.33, 
			 "cosmo_total_nonelectrostatic_energy": 6.81, 
			 "SMD_solvation_energy": 2.82 
		},
		"coords": [
			{
				"x": -2.9113231796,
				"y": -1.4736887999,
				"z": 0.7508502531,
				"element": "N" 
			},
			{
				"x": -1.7997478226,
				"y": -0.6751200678,
				"z": 0.7629118765,
				"element": "C" 
			},
			{
				"x": -1.7153200579,
				"y": 0.4640077595,
				"z": 0.151920499,
				"element": "N" 
			},
			{
				"x": -0.4451024653,
				"y": 1.0000837417,
				"z": 0.2885174495,
				"element": "C" 
			},
			{
				"x": 0.4716756172,
				"y": 0.2335568205,
				"z": 1.0494940624,
				"element": "C" 
			},
			{
				"x": -0.3174401497,
				"y": -1.2434527662,
				"z": 1.5928580989,
				"element": "S" 
			},
			{
				"x": 1.7785793135,
				"y": 0.6613101368,
				"z": 1.2791708996,
				"element": "C" 
			},
			{
				"x": 2.1634400998,
				"y": 1.8762559865,
				"z": 0.729930586,
				"element": "C" 
			},
			{
				"x": 3.4141001953,
				"y": 2.3360679486,
				"z": 0.9187965924,
				"element": "F" 
			},
			{
				"x": 1.2692041948,
				"y": 2.644659624,
				"z": -0.0265095808,
				"element": "C" 
			},
			{
				"x": 1.7015306487,
				"y": 3.813628915,
				"z": -0.5327053803,
				"element": "F" 
			},
			{
				"x": -0.0302441154,
				"y": 2.2240556076,
				"z": -0.2546776908,
				"element": "C" 
			},
			{
				"x": -3.0518122874,
				"y": -2.1024446484,
				"z": 1.5274927224,
				"element": "H" 
			},
			{
				"x": -3.7461067386,
				"y": -1.0102041931,
				"z": 0.4180155405,
				"element": "H" 
			},
			{
				"x": 2.4939438688,
				"y": 0.0894778047,
				"z": 1.8590056736,
				"element": "H" 
			},
			{
				"x": -0.7077771218,
				"y": 2.8326061305,
				"z": -0.8416716021,
				"element": "H" 
			}
		],
		 "valence_orbital": [ 
			{
				"type": "occ",
				"energy": -0.30706,
				"method": "rhf"
			},
			{
				"type": "occ",
				"energy": -0.29453,
				"method": "rhf"
			},
			{
				"type": "occ",
				"energy": -0.28479,
				"method": "rhf"
			},
			{
				"type": "occ",
				"energy": -0.23984,
				"method": "rhf"
			},
			{
				"type": "occ",
				"energy": -0.21603,
				"method": "rhf"
			},
			{
				"type": "unocc",
				"energy": -0.02232,
				"method": "rhf"
			},
			{
				"type": "unocc",
				"energy": -0.0098,
				"method": "rhf"
			},
			{
				"type": "unocc",
				"energy": -0.00706,
				"method": "rhf"
			},
			{
				"type": "unocc",
				"energy": 0.04249,
				"method": "rhf"
			},
			{
				"type": "unocc",
				"energy": 0.05914,
				"method": "rhf"
			}
		],
		"cosmo_sigma_profile": { 
			"-0.025": 0.0,
			"-0.024": 0.0,
			"-0.023": 0.0,
			"-0.022": 0.0,
			"-0.021": 0.0,
			"-0.02": 0.0,
			"-0.019": 0.0,
			"-0.018": 0.0,
			"-0.017": 0.0,
			"-0.016": 0.0983933160818,
			"-0.015": 1.45694820256,
			"-0.014": 2.47877691884,
			"-0.013": 3.0847011942,
			"-0.012": 2.24210815143,
			"-0.011": 2.36650900925,
			"-0.01": 2.41790853211,
			"-0.009": 3.14012000147,
			"-0.008": 4.96344987719,
			"-0.007": 5.24140870923,
			"-0.006": 4.68120670167,
			"-0.005": 4.64468483713,
			"-0.004": 5.06495165523,
			"-0.003": 4.45079444872,
			"-0.002": 6.5896402864,
			"-0.001": 10.1114258133,
			"0.0": 18.669709512,
			"0.001": 21.9016816224,
			"0.002": 22.4259623015,
			"0.003": 20.4292445658,
			"0.004": 26.159398252,
			"0.005": 5.01147282162,
			"0.006": 2.40276330698,
			"0.007": 2.06496155159,
			"0.008": 1.10734114877,
			"0.009": 2.4673936994,
			"0.01": 1.40796904095,
			"0.011": 1.12189142183,
			"0.012": 0.730158419505,
			"0.013": 0.974403348372,
			"0.014": 0.902570301556,
			"0.015": 0.355709174976,
			"0.016": 0.0,
			"0.017": 0.0,
			"0.018": 0.0,
			"0.019": 0.0,
			"0.02": 0.0,
			"0.021": 0.0,
			"0.022": 0.0,
			"0.023": 0.0,
			"0.024": 0.0,
			"0.025": 0.0
		}
	}
}
