{
	 "smiles": "OC(=O)C=C(C1CC1)C1CC1", 
	 "Tm": 408.15, 
	 "num_atms": 23, 
	 "gaussian": { 
		 "optdone": 1, 
		 "sigma_profile": "yes", 
		 "theory": "DFT", 
		 "functional": "B3LYP", 
		 "basiset": "6-31G**", 
		 "properties": { 
			 "R2extent": 2181.3339, 
			 "electric_dipole_moment_norm": 2.18003146078, 
			 "electric_quadrupole_moment_norm": 6.37877463389, 
			 "total_energy": -500.578266492, 
			 "HOMO_LUMO_gap": 0.20112, 
			 "cosmo_polarized_energy": -9.48, 
			 "cosmo_cavitation_energy": 25.82, 
			 "cosmo_dispersion_energy": -18.63, 
			 "cosmo_repulsion_energy": 1.51, 
			 "cosmo_total_nonelectrostatic_energy": 8.71, 
			 "SMD_solvation_energy": 5.05 
		},
		"coords": [
			{
				"x": 0.4456732953,
				"y": -3.3925875649,
				"z": -0.1418852556,
				"element": "O" 
			},
			{
				"x": 0.7921883157,
				"y": -2.2440092539,
				"z": -0.7911896581,
				"element": "C" 
			},
			{
				"x": 1.5428430561,
				"y": -2.2757768521,
				"z": -1.7539758627,
				"element": "O" 
			},
			{
				"x": 0.144850997,
				"y": -1.0870372449,
				"z": -0.1587933309,
				"element": "C" 
			},
			{
				"x": 0.2505201194,
				"y": 0.2115227526,
				"z": -0.5357381262,
				"element": "C" 
			},
			{
				"x": -0.4245927799,
				"y": 1.2852390955,
				"z": 0.2576102711,
				"element": "C" 
			},
			{
				"x": -1.0990803407,
				"y": 1.0655735577,
				"z": 1.5886354175,
				"element": "C" 
			},
			{
				"x": 0.2144323314,
				"y": 1.7951832126,
				"z": 1.5461109658,
				"element": "C" 
			},
			{
				"x": 1.0439743742,
				"y": 0.6420547147,
				"z": -1.7144613963,
				"element": "C" 
			},
			{
				"x": 1.6988112134,
				"y": 2.0148787851,
				"z": -1.7754566156,
				"element": "C" 
			},
			{
				"x": 0.5355132516,
				"y": 1.7207190881,
				"z": -2.6682385103,
				"element": "C" 
			},
			{
				"x": 0.9068804753,
				"y": -4.1040054159,
				"z": -0.6155583291,
				"element": "H" 
			},
			{
				"x": -0.4782511208,
				"y": -1.3466124336,
				"z": 0.6884541029,
				"element": "H" 
			},
			{
				"x": -0.8709960475,
				"y": 2.068238193,
				"z": -0.3505662876,
				"element": "H" 
			},
			{
				"x": -2.0012321853,
				"y": 1.6378822674,
				"z": 1.7817521038,
				"element": "H" 
			},
			{
				"x": -1.1104010192,
				"y": 0.0706669799,
				"z": 2.0200859922,
				"element": "H" 
			},
			{
				"x": 1.0933558514,
				"y": 1.263755036,
				"z": 1.8976188985,
				"element": "H" 
			},
			{
				"x": 0.2321442362,
				"y": 2.8668644264,
				"z": 1.7214872507,
				"element": "H" 
			},
			{
				"x": 1.5881237773,
				"y": -0.1645377523,
				"z": -2.1873113938,
				"element": "H" 
			},
			{
				"x": 2.6933870908,
				"y": 2.0616432684,
				"z": -2.2082571914,
				"element": "H" 
			},
			{
				"x": 1.5415671058,
				"y": 2.6880041886,
				"z": -0.9392106263,
				"element": "H" 
			},
			{
				"x": 0.7134105162,
				"y": 1.5471421272,
				"z": -3.7249231699,
				"element": "H" 
			},
			{
				"x": -0.4147225138,
				"y": 2.2002988245,
				"z": -2.4550892485,
				"element": "H" 
			}
		],
		 "valence_orbital": [ 
			{
				"type": "occ",
				"energy": -0.30468,
				"method": "rhf"
			},
			{
				"type": "occ",
				"energy": -0.30153,
				"method": "rhf"
			},
			{
				"type": "occ",
				"energy": -0.29408,
				"method": "rhf"
			},
			{
				"type": "occ",
				"energy": -0.25895,
				"method": "rhf"
			},
			{
				"type": "occ",
				"energy": -0.23854,
				"method": "rhf"
			},
			{
				"type": "unocc",
				"energy": -0.03742,
				"method": "rhf"
			},
			{
				"type": "unocc",
				"energy": 0.07975,
				"method": "rhf"
			},
			{
				"type": "unocc",
				"energy": 0.09102,
				"method": "rhf"
			},
			{
				"type": "unocc",
				"energy": 0.09447,
				"method": "rhf"
			},
			{
				"type": "unocc",
				"energy": 0.10262,
				"method": "rhf"
			}
		],
		"cosmo_sigma_profile": { 
			"-0.025": 0.0,
			"-0.024": 0.0,
			"-0.023": 0.0,
			"-0.022": 0.0,
			"-0.021": 0.0,
			"-0.02": 0.0,
			"-0.019": 0.0,
			"-0.018": 0.0607541296797,
			"-0.017": 0.863003343007,
			"-0.016": 0.744415143104,
			"-0.015": 0.950931502384,
			"-0.014": 0.636655317589,
			"-0.013": 0.789898479748,
			"-0.012": 0.486825725489,
			"-0.011": 0.291938540061,
			"-0.01": 1.11974596695,
			"-0.009": 0.790162149035,
			"-0.008": 0.578213767409,
			"-0.007": 2.60317961312,
			"-0.006": 5.61977523755,
			"-0.005": 13.5039755822,
			"-0.004": 18.4802949271,
			"-0.003": 17.4016306336,
			"-0.002": 17.4929766513,
			"-0.001": 18.5032083148,
			"0.0": 16.5750556955,
			"0.001": 13.0874225001,
			"0.002": 14.8126351792,
			"0.003": 15.8928294283,
			"0.004": 14.0087694181,
			"0.005": 5.39082681497,
			"0.006": 3.18819924324,
			"0.007": 2.69498595384,
			"0.008": 2.54118068313,
			"0.009": 3.32710489981,
			"0.01": 3.82034061054,
			"0.011": 2.24013396484,
			"0.012": 3.76724424641,
			"0.013": 1.57500865889,
			"0.014": 0.0,
			"0.015": 0.0,
			"0.016": 0.0,
			"0.017": 0.0,
			"0.018": 0.0,
			"0.019": 0.0,
			"0.02": 0.0,
			"0.021": 0.0,
			"0.022": 0.0,
			"0.023": 0.0,
			"0.024": 0.0,
			"0.025": 0.0
		}
	}
}
