{
	 "smiles": "CCOC(=O)CC1=CC=C(N)C=C1", 
	 "Tm": 322.15, 
	 "num_atms": 26, 
	 "gaussian": { 
		 "optdone": 1, 
		 "sigma_profile": "yes", 
		 "theory": "DFT", 
		 "functional": "B3LYP", 
		 "basiset": "6-31G**", 
		 "properties": { 
			 "R2extent": 3637.4337, 
			 "electric_dipole_moment_norm": 2.73632869005, 
			 "electric_quadrupole_moment_norm": 10.4185579228, 
			 "total_energy": -594.120619324, 
			 "HOMO_LUMO_gap": 0.20199, 
			 "cosmo_polarized_energy": -12.57, 
			 "cosmo_cavitation_energy": 30.14, 
			 "cosmo_dispersion_energy": -21.53, 
			 "cosmo_repulsion_energy": 1.77, 
			 "cosmo_total_nonelectrostatic_energy": 10.38, 
			 "SMD_solvation_energy": 6.03 
		},
		"coords": [
			{
				"x": -3.7122294416,
				"y": -0.9381796679,
				"z": 0.8314276291,
				"element": "C" 
			},
			{
				"x": -2.8075138853,
				"y": -0.2691273844,
				"z": -0.1859094496,
				"element": "C" 
			},
			{
				"x": -1.5234139802,
				"y": -0.9322516755,
				"z": -0.1283950067,
				"element": "O" 
			},
			{
				"x": -0.5819943254,
				"y": -0.4632610329,
				"z": -0.9746638887,
				"element": "C" 
			},
			{
				"x": -0.7752106443,
				"y": 0.4402581767,
				"z": -1.7617387472,
				"element": "O" 
			},
			{
				"x": 0.7457449729,
				"y": -1.179268677,
				"z": -0.7884042595,
				"element": "C" 
			},
			{
				"x": 1.6898444319,
				"y": -0.3719356535,
				"z": 0.0886093858,
				"element": "C" 
			},
			{
				"x": 2.1283751506,
				"y": -0.8608602946,
				"z": 1.3233033172,
				"element": "C" 
			},
			{
				"x": 2.9958791868,
				"y": -0.1251146574,
				"z": 2.1279904391,
				"element": "C" 
			},
			{
				"x": 3.4516507795,
				"y": 1.1378308598,
				"z": 1.7174264679,
				"element": "C" 
			},
			{
				"x": 4.368002807,
				"y": 1.8568131976,
				"z": 2.4896435578,
				"element": "N" 
			},
			{
				"x": 3.0074936609,
				"y": 1.6354176041,
				"z": 0.4792832502,
				"element": "C" 
			},
			{
				"x": 2.1430243579,
				"y": 0.891497568,
				"z": -0.316349874,
				"element": "C" 
			},
			{
				"x": -4.6985578764,
				"y": -0.4637704339,
				"z": 0.8209224722,
				"element": "H" 
			},
			{
				"x": -3.8391994093,
				"y": -2.0004892728,
				"z": 0.6034253636,
				"element": "H" 
			},
			{
				"x": -3.298545142,
				"y": -0.8500614774,
				"z": 1.840161675,
				"element": "H" 
			},
			{
				"x": -2.6643424123,
				"y": 0.7951203295,
				"z": 0.0265954842,
				"element": "H" 
			},
			{
				"x": -3.2017663074,
				"y": -0.3494890206,
				"z": -1.2039280453,
				"element": "H" 
			},
			{
				"x": 1.173734588,
				"y": -1.3153317046,
				"z": -1.7872592956,
				"element": "H" 
			},
			{
				"x": 0.5717594305,
				"y": -2.1638958624,
				"z": -0.3485060115,
				"element": "H" 
			},
			{
				"x": 1.7882280875,
				"y": -1.8350630297,
				"z": 1.6660893933,
				"element": "H" 
			},
			{
				"x": 3.3273198871,
				"y": -0.5320188396,
				"z": 3.080436434,
				"element": "H" 
			},
			{
				"x": 4.3630163737,
				"y": 1.6343725969,
				"z": 3.4757296743,
				"element": "H" 
			},
			{
				"x": 4.3675469635,
				"y": 2.8553777916,
				"z": 2.3322563761,
				"element": "H" 
			},
			{
				"x": 3.3493900552,
				"y": 2.6107940199,
				"z": 0.1409787065,
				"element": "H" 
			},
			{
				"x": 1.7995626912,
				"y": 1.3004365399,
				"z": -1.2623250484,
				"element": "H" 
			}
		],
		 "valence_orbital": [ 
			{
				"type": "occ",
				"energy": -0.30057,
				"method": "rhf"
			},
			{
				"type": "occ",
				"energy": -0.29362,
				"method": "rhf"
			},
			{
				"type": "occ",
				"energy": -0.26257,
				"method": "rhf"
			},
			{
				"type": "occ",
				"energy": -0.24323,
				"method": "rhf"
			},
			{
				"type": "occ",
				"energy": -0.19722,
				"method": "rhf"
			},
			{
				"type": "unocc",
				"energy": 0.00477,
				"method": "rhf"
			},
			{
				"type": "unocc",
				"energy": 0.00704,
				"method": "rhf"
			},
			{
				"type": "unocc",
				"energy": 0.03315,
				"method": "rhf"
			},
			{
				"type": "unocc",
				"energy": 0.08349,
				"method": "rhf"
			},
			{
				"type": "unocc",
				"energy": 0.10403,
				"method": "rhf"
			}
		],
		"cosmo_sigma_profile": { 
			"-0.025": 0.0,
			"-0.024": 0.0,
			"-0.023": 0.0,
			"-0.022": 0.0,
			"-0.021": 0.0,
			"-0.02": 0.0,
			"-0.019": 0.0,
			"-0.018": 0.0,
			"-0.017": 0.0,
			"-0.016": 0.0,
			"-0.015": 0.0,
			"-0.014": 0.0,
			"-0.013": 0.225538717621,
			"-0.012": 2.35037237876,
			"-0.011": 2.17041150021,
			"-0.01": 2.44388898848,
			"-0.009": 4.57027885266,
			"-0.008": 2.66176709471,
			"-0.007": 2.33898737355,
			"-0.006": 6.54683086033,
			"-0.005": 17.2394029819,
			"-0.004": 23.5415764996,
			"-0.003": 25.7941495329,
			"-0.002": 19.629614173,
			"-0.001": 16.360741253,
			"0.0": 16.8220930242,
			"0.001": 10.9899492636,
			"0.002": 9.9866577014,
			"0.003": 10.3585895133,
			"0.004": 10.7444114602,
			"0.005": 12.010390169,
			"0.006": 12.2034889732,
			"0.007": 9.27962915918,
			"0.008": 2.60988852174,
			"0.009": 2.52899827685,
			"0.01": 2.88439306678,
			"0.011": 3.12186342676,
			"0.012": 5.26105222834,
			"0.013": 1.53913249813,
			"0.014": 0.917018592423,
			"0.015": 0.226326638254,
			"0.016": 0.0,
			"0.017": 0.0,
			"0.018": 0.0,
			"0.019": 0.0,
			"0.02": 0.0,
			"0.021": 0.0,
			"0.022": 0.0,
			"0.023": 0.0,
			"0.024": 0.0,
			"0.025": 0.0
		}
	}
}
