{
	 "smiles": "CC(=O)C1=C(N)C=CC(=C1)[N+]([O-])=O", 
	 "Tm": 418.15, 
	 "num_atms": 21, 
	 "gaussian": { 
		 "optdone": 1, 
		 "sigma_profile": "yes", 
		 "theory": "DFT", 
		 "functional": "B3LYP", 
		 "basiset": "6-31G**", 
		 "properties": { 
			 "R2extent": 2942.2911, 
			 "electric_dipole_moment_norm": 8.47266058921, 
			 "electric_quadrupole_moment_norm": 12.0395384704, 
			 "total_energy": -644.751155021, 
			 "HOMO_LUMO_gap": 0.1634, 
			 "cosmo_polarized_energy": -20.39, 
			 "cosmo_cavitation_energy": 25.75, 
			 "cosmo_dispersion_energy": -19.05, 
			 "cosmo_repulsion_energy": 1.49, 
			 "cosmo_total_nonelectrostatic_energy": 8.19, 
			 "SMD_solvation_energy": 7.34 
		},
		"coords": [
			{
				"x": 0.7214863119,
				"y": -3.2229308507,
				"z": -1.0011193098,
				"element": "C" 
			},
			{
				"x": 0.711488112,
				"y": -1.7386262602,
				"z": -0.6653990742,
				"element": "C" 
			},
			{
				"x": 1.7168471081,
				"y": -1.0811712722,
				"z": -0.8895372046,
				"element": "O" 
			},
			{
				"x": -0.5099619547,
				"y": -1.0640016809,
				"z": -0.1010738727,
				"element": "C" 
			},
			{
				"x": -1.7061407142,
				"y": -1.6925325489,
				"z": 0.3569036149,
				"element": "C" 
			},
			{
				"x": -1.9123037142,
				"y": -3.0529125277,
				"z": 0.362417169,
				"element": "N" 
			},
			{
				"x": -2.7743051043,
				"y": -0.876155903,
				"z": 0.8083291098,
				"element": "C" 
			},
			{
				"x": -2.6807171419,
				"y": 0.4988130848,
				"z": 0.8314841526,
				"element": "C" 
			},
			{
				"x": -1.4922182116,
				"y": 1.1012175887,
				"z": 0.4012016797,
				"element": "C" 
			},
			{
				"x": -0.4317080555,
				"y": 0.3362750286,
				"z": -0.0514271609,
				"element": "C" 
			},
			{
				"x": -1.3769375622,
				"y": 2.5574199395,
				"z": 0.4300736416,
				"element": "N" 
			},
			{
				"x": -2.3494936769,
				"y": 3.1964127611,
				"z": 0.8405326628,
				"element": "O" 
			},
			{
				"x": -0.3214180636,
				"y": 3.061097979,
				"z": 0.0456181059,
				"element": "O" 
			},
			{
				"x": 1.6035918905,
				"y": -3.4196618901,
				"z": -1.6114046303,
				"element": "H" 
			},
			{
				"x": 0.8134885612,
				"y": -3.8257256889,
				"z": -0.0867798529,
				"element": "H" 
			},
			{
				"x": -0.1789475376,
				"y": -3.5367948968,
				"z": -1.537500543,
				"element": "H" 
			},
			{
				"x": -2.7143510025,
				"y": -3.3855598996,
				"z": 0.8759855442,
				"element": "H" 
			},
			{
				"x": -1.1268187035,
				"y": -3.6799379843,
				"z": 0.3644804398,
				"element": "H" 
			},
			{
				"x": -3.6872578797,
				"y": -1.357457037,
				"z": 1.14886765,
				"element": "H" 
			},
			{
				"x": -3.4981320958,
				"y": 1.1179302213,
				"z": 1.1796041675,
				"element": "H" 
			},
			{
				"x": 0.4818094345,
				"y": 0.8115018371,
				"z": -0.3859562893,
				"element": "H" 
			}
		],
		 "valence_orbital": [ 
			{
				"type": "occ",
				"energy": -0.29832,
				"method": "rhf"
			},
			{
				"type": "occ",
				"energy": -0.28087,
				"method": "rhf"
			},
			{
				"type": "occ",
				"energy": -0.27891,
				"method": "rhf"
			},
			{
				"type": "occ",
				"energy": -0.26145,
				"method": "rhf"
			},
			{
				"type": "occ",
				"energy": -0.24108,
				"method": "rhf"
			},
			{
				"type": "unocc",
				"energy": -0.07768,
				"method": "rhf"
			},
			{
				"type": "unocc",
				"energy": -0.06619,
				"method": "rhf"
			},
			{
				"type": "unocc",
				"energy": -0.00146,
				"method": "rhf"
			},
			{
				"type": "unocc",
				"energy": 0.03038,
				"method": "rhf"
			},
			{
				"type": "unocc",
				"energy": 0.05245,
				"method": "rhf"
			}
		],
		"cosmo_sigma_profile": { 
			"-0.025": 0.0,
			"-0.024": 0.0,
			"-0.023": 0.0,
			"-0.022": 0.0,
			"-0.021": 0.0,
			"-0.02": 0.0,
			"-0.019": 0.0,
			"-0.018": 0.0,
			"-0.017": 0.0,
			"-0.016": 0.0,
			"-0.015": 0.61707850833,
			"-0.014": 2.4762214262,
			"-0.013": 4.12899752779,
			"-0.012": 3.08260839898,
			"-0.011": 2.99592608906,
			"-0.01": 2.8606992767,
			"-0.009": 3.37173140052,
			"-0.008": 3.99177305043,
			"-0.007": 5.29846657672,
			"-0.006": 7.82354341779,
			"-0.005": 10.3971109114,
			"-0.004": 9.42497828945,
			"-0.003": 11.857432377,
			"-0.002": 14.8639010961,
			"-0.001": 15.3515476998,
			"0.0": 15.9795006513,
			"0.001": 19.3891228567,
			"0.002": 9.25570434923,
			"0.003": 6.13213839201,
			"0.004": 4.68095652329,
			"0.005": 5.47371339414,
			"0.006": 4.86729126572,
			"0.007": 5.93484168733,
			"0.008": 12.1943870377,
			"0.009": 7.3266524143,
			"0.01": 6.37733108091,
			"0.011": 5.02570264654,
			"0.012": 3.24835649132,
			"0.013": 1.15020157937,
			"0.014": 0.0341951198347,
			"0.015": 0.0,
			"0.016": 0.0,
			"0.017": 0.0,
			"0.018": 0.0,
			"0.019": 0.0,
			"0.02": 0.0,
			"0.021": 0.0,
			"0.022": 0.0,
			"0.023": 0.0,
			"0.024": 0.0,
			"0.025": 0.0
		}
	}
}
