{
	 "smiles": "O=C1CCCS(=O)(=O)C1", 
	 "Tm": 415.15, 
	 "num_atms": 17, 
	 "gaussian": { 
		 "optdone": 1, 
		 "sigma_profile": "yes", 
		 "theory": "DFT", 
		 "functional": "B3LYP", 
		 "basiset": "6-31G**", 
		 "properties": { 
			 "R2extent": 1896.8013, 
			 "electric_dipole_moment_norm": 5.15434857572, 
			 "electric_quadrupole_moment_norm": 15.0162884788, 
			 "total_energy": -819.146231807, 
			 "HOMO_LUMO_gap": 0.22018, 
			 "cosmo_polarized_energy": -18.97, 
			 "cosmo_cavitation_energy": 21.03, 
			 "cosmo_dispersion_energy": -16.33, 
			 "cosmo_repulsion_energy": 1.29, 
			 "cosmo_total_nonelectrostatic_energy": 5.99, 
			 "SMD_solvation_energy": 3.12 
		},
		"coords": [
			{
				"x": 1.3164404826,
				"y": -1.9545415647,
				"z": -1.2033383669,
				"element": "O" 
			},
			{
				"x": 0.5061504925,
				"y": -1.1741467715,
				"z": -0.753420472,
				"element": "C" 
			},
			{
				"x": 0.8045867061,
				"y": 0.3057582861,
				"z": -0.5511690445,
				"element": "C" 
			},
			{
				"x": -0.2418114204,
				"y": 1.2473542221,
				"z": -1.1862439188,
				"element": "C" 
			},
			{
				"x": -1.6660948977,
				"y": 1.0114076484,
				"z": -0.6756719534,
				"element": "C" 
			},
			{
				"x": -2.2235816892,
				"y": -0.6720018844,
				"z": -1.0715751886,
				"element": "S" 
			},
			{
				"x": -2.1266148802,
				"y": -0.8421413417,
				"z": -2.5294324188,
				"element": "O" 
			},
			{
				"x": -3.4749193267,
				"y": -0.9522676823,
				"z": -0.3555409442,
				"element": "O" 
			},
			{
				"x": -0.8807856948,
				"y": -1.6542139884,
				"z": -0.3162923235,
				"element": "C" 
			},
			{
				"x": 0.8437773514,
				"y": 0.4909093344,
				"z": 0.5327879509,
				"element": "H" 
			},
			{
				"x": 1.7993560562,
				"y": 0.4998375331,
				"z": -0.957997609,
				"element": "H" 
			},
			{
				"x": 0.0363878012,
				"y": 2.2834659594,
				"z": -0.9678048364,
				"element": "H" 
			},
			{
				"x": -0.2328919691,
				"y": 1.1332813126,
				"z": -2.2746739021,
				"element": "H" 
			},
			{
				"x": -1.7567543173,
				"y": 1.1300245753,
				"z": 0.4088142088,
				"element": "H" 
			},
			{
				"x": -2.3939739294,
				"y": 1.66747816,
				"z": -1.1610160355,
				"element": "H" 
			},
			{
				"x": -1.0371295647,
				"y": -2.6899574098,
				"z": -0.6235719212,
				"element": "H" 
			},
			{
				"x": -1.0025412008,
				"y": -1.5639463887,
				"z": 0.7683467752,
				"element": "H" 
			}
		],
		 "valence_orbital": [ 
			{
				"type": "occ",
				"energy": -0.33572,
				"method": "rhf"
			},
			{
				"type": "occ",
				"energy": -0.32287,
				"method": "rhf"
			},
			{
				"type": "occ",
				"energy": -0.3081,
				"method": "rhf"
			},
			{
				"type": "occ",
				"energy": -0.2956,
				"method": "rhf"
			},
			{
				"type": "occ",
				"energy": -0.26898,
				"method": "rhf"
			},
			{
				"type": "unocc",
				"energy": -0.0488,
				"method": "rhf"
			},
			{
				"type": "unocc",
				"energy": 0.05358,
				"method": "rhf"
			},
			{
				"type": "unocc",
				"energy": 0.05463,
				"method": "rhf"
			},
			{
				"type": "unocc",
				"energy": 0.06843,
				"method": "rhf"
			},
			{
				"type": "unocc",
				"energy": 0.08169,
				"method": "rhf"
			}
		],
		"cosmo_sigma_profile": { 
			"-0.025": 0.0,
			"-0.024": 0.0,
			"-0.023": 0.0,
			"-0.022": 0.0,
			"-0.021": 0.0,
			"-0.02": 0.0,
			"-0.019": 0.0,
			"-0.018": 0.0,
			"-0.017": 0.0,
			"-0.016": 0.0,
			"-0.015": 0.0,
			"-0.014": 0.0,
			"-0.013": 0.440589250258,
			"-0.012": 1.28875091426,
			"-0.011": 2.86504358852,
			"-0.01": 4.09220245831,
			"-0.009": 6.76198223991,
			"-0.008": 8.37313750607,
			"-0.007": 8.70228426495,
			"-0.006": 12.4079419452,
			"-0.005": 16.5702955578,
			"-0.004": 13.0984465416,
			"-0.003": 10.3107366212,
			"-0.002": 5.87446775293,
			"-0.001": 3.8329735665,
			"0.0": 3.34752015387,
			"0.001": 3.94607789768,
			"0.002": 3.7442859406,
			"0.003": 4.11492840138,
			"0.004": 2.86223331235,
			"0.005": 2.97729756984,
			"0.006": 3.38383034695,
			"0.007": 4.18940271774,
			"0.008": 4.55366746963,
			"0.009": 5.74911982793,
			"0.01": 8.76042430211,
			"0.011": 15.8049580616,
			"0.012": 7.21141637706,
			"0.013": 0.119780866789,
			"0.014": 0.0,
			"0.015": 0.0,
			"0.016": 0.0,
			"0.017": 0.0,
			"0.018": 0.0,
			"0.019": 0.0,
			"0.02": 0.0,
			"0.021": 0.0,
			"0.022": 0.0,
			"0.023": 0.0,
			"0.024": 0.0,
			"0.025": 0.0
		}
	}
}
