{
	 "smiles": "CN1N=C(C)C2=C1N=CC(C(O)=O)=C2Cl", 
	 "Tm": 542.15, 
	 "num_atms": 23, 
	 "gaussian": { 
		 "optdone": 1, 
		 "sigma_profile": "yes", 
		 "theory": "DFT", 
		 "functional": "B3LYP", 
		 "basiset": "6-31G**", 
		 "properties": { 
			 "R2extent": 3572.6391, 
			 "electric_dipole_moment_norm": 4.60474988463, 
			 "electric_quadrupole_moment_norm": 17.9306008039, 
			 "total_energy": -1122.67412204, 
			 "HOMO_LUMO_gap": 0.17405, 
			 "cosmo_polarized_energy": -13.07, 
			 "cosmo_cavitation_energy": 28.96, 
			 "cosmo_dispersion_energy": -21.7, 
			 "cosmo_repulsion_energy": 1.66, 
			 "cosmo_total_nonelectrostatic_energy": 8.92, 
			 "SMD_solvation_energy": 3.7 
		},
		"coords": [
			{
				"x": 3.4859934762,
				"y": 0.8233096875,
				"z": 1.7664158678,
				"element": "C" 
			},
			{
				"x": 2.3258498107,
				"y": 1.0237754395,
				"z": 0.9200283932,
				"element": "N" 
			},
			{
				"x": 2.1497146256,
				"y": 2.1901655938,
				"z": 0.2378132014,
				"element": "N" 
			},
			{
				"x": 1.020638552,
				"y": 2.0911884429,
				"z": -0.4473170735,
				"element": "C" 
			},
			{
				"x": 0.5586628761,
				"y": 3.2301729567,
				"z": -1.3016717104,
				"element": "C" 
			},
			{
				"x": 0.4199194836,
				"y": 0.8076989462,
				"z": -0.2112112388,
				"element": "C" 
			},
			{
				"x": 1.3107635778,
				"y": 0.1551008654,
				"z": 0.6838710523,
				"element": "C" 
			},
			{
				"x": 1.180869586,
				"y": -1.0763275058,
				"z": 1.1938951819,
				"element": "N" 
			},
			{
				"x": 0.0947184912,
				"y": -1.7159009504,
				"z": 0.7951569454,
				"element": "C" 
			},
			{
				"x": -0.9065289781,
				"y": -1.2090263154,
				"z": -0.0920270534,
				"element": "C" 
			},
			{
				"x": -2.0274677695,
				"y": -2.1863587538,
				"z": -0.3592141409,
				"element": "C" 
			},
			{
				"x": -3.1352572149,
				"y": -1.7683342753,
				"z": -0.999824215,
				"element": "O" 
			},
			{
				"x": -1.9503388313,
				"y": -3.3360715865,
				"z": 0.013411364,
				"element": "O" 
			},
			{
				"x": -0.714641476,
				"y": 0.0833358696,
				"z": -0.5921799312,
				"element": "C" 
			},
			{
				"x": -1.8348929284,
				"y": 0.8633168637,
				"z": -1.7149224199,
				"element": "Cl" 
			},
			{
				"x": 3.5082565845,
				"y": 1.576766587,
				"z": 2.5579321346,
				"element": "H" 
			},
			{
				"x": 3.4081216427,
				"y": -0.1722145346,
				"z": 2.204161193,
				"element": "H" 
			},
			{
				"x": 4.4013103429,
				"y": 0.8977230138,
				"z": 1.1736070623,
				"element": "H" 
			},
			{
				"x": 0.4703757394,
				"y": 2.9352399076,
				"z": -2.3522561262,
				"element": "H" 
			},
			{
				"x": 1.2814006412,
				"y": 4.0451099219,
				"z": -1.2270670278,
				"element": "H" 
			},
			{
				"x": -0.4212036981,
				"y": 3.600415919,
				"z": -0.9834912533,
				"element": "H" 
			},
			{
				"x": -0.0601485049,
				"y": -2.7227646851,
				"z": 1.1696592679,
				"element": "H" 
			},
			{
				"x": -3.0772160288,
				"y": -0.8324214077,
				"z": -1.2482694735,
				"element": "H" 
			}
		],
		 "valence_orbital": [ 
			{
				"type": "occ",
				"energy": -0.31026,
				"method": "rhf"
			},
			{
				"type": "occ",
				"energy": -0.29275,
				"method": "rhf"
			},
			{
				"type": "occ",
				"energy": -0.27749,
				"method": "rhf"
			},
			{
				"type": "occ",
				"energy": -0.27027,
				"method": "rhf"
			},
			{
				"type": "occ",
				"energy": -0.24853,
				"method": "rhf"
			},
			{
				"type": "unocc",
				"energy": -0.07448,
				"method": "rhf"
			},
			{
				"type": "unocc",
				"energy": -0.0436,
				"method": "rhf"
			},
			{
				"type": "unocc",
				"energy": -0.00884,
				"method": "rhf"
			},
			{
				"type": "unocc",
				"energy": 0.02391,
				"method": "rhf"
			},
			{
				"type": "unocc",
				"energy": 0.05214,
				"method": "rhf"
			}
		],
		"cosmo_sigma_profile": { 
			"-0.025": 0.0,
			"-0.024": 0.0,
			"-0.023": 0.0,
			"-0.022": 0.0,
			"-0.021": 0.0,
			"-0.02": 0.0,
			"-0.019": 0.0,
			"-0.018": 0.0,
			"-0.017": 0.0,
			"-0.016": 0.0,
			"-0.015": 0.0,
			"-0.014": 0.0,
			"-0.013": 0.193964841761,
			"-0.012": 1.21326342512,
			"-0.011": 1.37097515547,
			"-0.01": 1.46761900973,
			"-0.009": 1.2494534341,
			"-0.008": 0.671962948742,
			"-0.007": 3.62113389956,
			"-0.006": 10.0637199862,
			"-0.005": 15.2378140369,
			"-0.004": 20.4972632102,
			"-0.003": 26.4877940568,
			"-0.002": 30.6851795468,
			"-0.001": 28.2615753338,
			"0.0": 17.2085758206,
			"0.001": 10.7736652159,
			"0.002": 8.86178047084,
			"0.003": 5.38297009953,
			"0.004": 5.44357085768,
			"0.005": 5.68781151484,
			"0.006": 4.88064128522,
			"0.007": 3.83048002047,
			"0.008": 5.02980782502,
			"0.009": 5.7026962965,
			"0.01": 5.96724631533,
			"0.011": 7.19806265206,
			"0.012": 5.15527610658,
			"0.013": 1.578404812,
			"0.014": 0.748913318735,
			"0.015": 0.0179725236232,
			"0.016": 0.0,
			"0.017": 0.0,
			"0.018": 0.0,
			"0.019": 0.0,
			"0.02": 0.0,
			"0.021": 0.0,
			"0.022": 0.0,
			"0.023": 0.0,
			"0.024": 0.0,
			"0.025": 0.0
		}
	}
}
