{
	 "smiles": "NC1=CC(Cl)=C(S)C=C1", 
	 "Tm": 352.15, 
	 "num_atms": 15, 
	 "gaussian": { 
		 "optdone": 1, 
		 "sigma_profile": "yes", 
		 "theory": "DFT", 
		 "functional": "B3LYP", 
		 "basiset": "6-31G**", 
		 "properties": { 
			 "R2extent": 3166.7358, 
			 "electric_dipole_moment_norm": 3.39609895321, 
			 "electric_quadrupole_moment_norm": 9.29507106267, 
			 "total_energy": -1145.38359731, 
			 "HOMO_LUMO_gap": 0.18684, 
			 "cosmo_polarized_energy": -9.86, 
			 "cosmo_cavitation_energy": 22.19, 
			 "cosmo_dispersion_energy": -17.31, 
			 "cosmo_repulsion_energy": 1.37, 
			 "cosmo_total_nonelectrostatic_energy": 6.25, 
			 "SMD_solvation_energy": 2.98 
		},
		"coords": [
			{
				"x": 1.854638885,
				"y": -0.4811732224,
				"z": -1.3837326866,
				"element": "N" 
			},
			{
				"x": 1.32150146,
				"y": 0.6638872938,
				"z": -0.7946743278,
				"element": "C" 
			},
			{
				"x": 0.6730057013,
				"y": 0.5938204304,
				"z": 0.447213831,
				"element": "C" 
			},
			{
				"x": 0.1832104335,
				"y": 1.7478747902,
				"z": 1.0544133314,
				"element": "C" 
			},
			{
				"x": -0.627984552,
				"y": 1.5589745322,
				"z": 2.6053502537,
				"element": "Cl" 
			},
			{
				"x": 0.3357846723,
				"y": 3.015333529,
				"z": 0.4722540973,
				"element": "C" 
			},
			{
				"x": -0.310253006,
				"y": 4.5430649266,
				"z": 1.1335734233,
				"element": "S" 
			},
			{
				"x": 0.9999574362,
				"y": 3.0680382082,
				"z": -0.7631924746,
				"element": "C" 
			},
			{
				"x": 1.4745410996,
				"y": 1.9259267263,
				"z": -1.3938820366,
				"element": "C" 
			},
			{
				"x": 1.9812476779,
				"y": -0.4325980032,
				"z": -2.3850288928,
				"element": "H" 
			},
			{
				"x": 1.4350322575,
				"y": -1.35433778,
				"z": -1.0963408021,
				"element": "H" 
			},
			{
				"x": 0.5451435196,
				"y": -0.3617322487,
				"z": 0.9452270154,
				"element": "H" 
			},
			{
				"x": -0.2077049104,
				"y": 4.2274202667,
				"z": 2.4385612552,
				"element": "H" 
			},
			{
				"x": 1.147428779,
				"y": 4.0349866921,
				"z": -1.2346441494,
				"element": "H" 
			},
			{
				"x": 1.9855505466,
				"y": 2.0113138588,
				"z": -2.3489978375,
				"element": "H" 
			}
		],
		 "valence_orbital": [ 
			{
				"type": "occ",
				"energy": -0.32194,
				"method": "rhf"
			},
			{
				"type": "occ",
				"energy": -0.31122,
				"method": "rhf"
			},
			{
				"type": "occ",
				"energy": -0.26139,
				"method": "rhf"
			},
			{
				"type": "occ",
				"energy": -0.25073,
				"method": "rhf"
			},
			{
				"type": "occ",
				"energy": -0.20113,
				"method": "rhf"
			},
			{
				"type": "unocc",
				"energy": -0.01429,
				"method": "rhf"
			},
			{
				"type": "unocc",
				"energy": -5e-05,
				"method": "rhf"
			},
			{
				"type": "unocc",
				"energy": 0.01412,
				"method": "rhf"
			},
			{
				"type": "unocc",
				"energy": 0.04702,
				"method": "rhf"
			},
			{
				"type": "unocc",
				"energy": 0.07042,
				"method": "rhf"
			}
		],
		"cosmo_sigma_profile": { 
			"-0.025": 0.0,
			"-0.024": 0.0,
			"-0.023": 0.0,
			"-0.022": 0.0,
			"-0.021": 0.0,
			"-0.02": 0.0,
			"-0.019": 0.0,
			"-0.018": 0.0,
			"-0.017": 0.0,
			"-0.016": 0.0,
			"-0.015": 0.0,
			"-0.014": 0.0,
			"-0.013": 1.41668846682,
			"-0.012": 2.76024318347,
			"-0.011": 3.20938845364,
			"-0.01": 4.1978837428,
			"-0.009": 4.55444897688,
			"-0.008": 4.3128392222,
			"-0.007": 6.19051856076,
			"-0.006": 7.57299638375,
			"-0.005": 7.67485056029,
			"-0.004": 7.58131000304,
			"-0.003": 6.0816170012,
			"-0.002": 8.73437499774,
			"-0.001": 8.54243366547,
			"0.0": 9.42491032864,
			"0.001": 11.3904897655,
			"0.002": 14.1771124566,
			"0.003": 16.7665855186,
			"0.004": 25.1378391667,
			"0.005": 15.1800097338,
			"0.006": 4.29847409735,
			"0.007": 3.65188196642,
			"0.008": 3.45632352651,
			"0.009": 2.08845712562,
			"0.01": 0.847330847973,
			"0.011": 0.869244379976,
			"0.012": 0.399595325124,
			"0.013": 0.790415657076,
			"0.014": 0.29003804915,
			"0.015": 0.0,
			"0.016": 0.0,
			"0.017": 0.0,
			"0.018": 0.0,
			"0.019": 0.0,
			"0.02": 0.0,
			"0.021": 0.0,
			"0.022": 0.0,
			"0.023": 0.0,
			"0.024": 0.0,
			"0.025": 0.0
		}
	}
}
