{
	 "smiles": "COC(=O)C1=C(N)C=CC(C)=C1", 
	 "Tm": 332.15, 
	 "num_atms": 23, 
	 "gaussian": { 
		 "optdone": 1, 
		 "sigma_profile": "yes", 
		 "theory": "DFT", 
		 "functional": "B3LYP", 
		 "basiset": "6-31G**", 
		 "properties": { 
			 "R2extent": 2612.3457, 
			 "electric_dipole_moment_norm": 0.760377360263, 
			 "electric_quadrupole_moment_norm": 9.39560214781, 
			 "total_energy": -554.815231095, 
			 "HOMO_LUMO_gap": 0.16094, 
			 "cosmo_polarized_energy": -8.49, 
			 "cosmo_cavitation_energy": 26.43, 
			 "cosmo_dispersion_energy": -19.75, 
			 "cosmo_repulsion_energy": 1.58, 
			 "cosmo_total_nonelectrostatic_energy": 8.27, 
			 "SMD_solvation_energy": 5.95 
		},
		"coords": [
			{
				"x": -1.264485861,
				"y": 3.5450450059,
				"z": 1.9059857025,
				"element": "C" 
			},
			{
				"x": -0.7620991779,
				"y": 2.4615732515,
				"z": 1.1131964527,
				"element": "O" 
			},
			{
				"x": -0.0631047863,
				"y": 1.5199229477,
				"z": 1.7920035656,
				"element": "C" 
			},
			{
				"x": 0.1125247044,
				"y": 1.6110004296,
				"z": 3.004415135,
				"element": "O" 
			},
			{
				"x": 0.4389340413,
				"y": 0.4354024809,
				"z": 0.9319706757,
				"element": "C" 
			},
			{
				"x": 1.1738515938,
				"y": -0.6434245385,
				"z": 1.5016285402,
				"element": "C" 
			},
			{
				"x": 1.3831276912,
				"y": -0.7577527352,
				"z": 2.847832164,
				"element": "N" 
			},
			{
				"x": 1.6648866848,
				"y": -1.6370411818,
				"z": 0.6222100172,
				"element": "C" 
			},
			{
				"x": 1.4325665624,
				"y": -1.5708950766,
				"z": -0.7388403121,
				"element": "C" 
			},
			{
				"x": 0.6975038399,
				"y": -0.5159743509,
				"z": -1.317078118,
				"element": "C" 
			},
			{
				"x": 0.4504973555,
				"y": -0.4661260897,
				"z": -2.8064776273,
				"element": "C" 
			},
			{
				"x": 0.2183223633,
				"y": 0.4654286733,
				"z": -0.4611884619,
				"element": "C" 
			},
			{
				"x": -1.9438648086,
				"y": 3.1778226175,
				"z": 2.6795403512,
				"element": "H" 
			},
			{
				"x": -0.4460399379,
				"y": 4.0862590071,
				"z": 2.387820628,
				"element": "H" 
			},
			{
				"x": -1.7944630639,
				"y": 4.1956022425,
				"z": 1.2098722124,
				"element": "H" 
			},
			{
				"x": 2.0796963923,
				"y": -1.4077283084,
				"z": 3.1729689889,
				"element": "H" 
			},
			{
				"x": 1.1410491416,
				"y": 0.0410025775,
				"z": 3.4206442935,
				"element": "H" 
			},
			{
				"x": 2.2294512728,
				"y": -2.4678425327,
				"z": 1.03844849,
				"element": "H" 
			},
			{
				"x": 1.8288395554,
				"y": -2.3572815102,
				"z": -1.3779788589,
				"element": "H" 
			},
			{
				"x": 1.3896826637,
				"y": -0.4463872172,
				"z": -3.3725696385,
				"element": "H" 
			},
			{
				"x": -0.1204126874,
				"y": 0.4248491423,
				"z": -3.0827415846,
				"element": "H" 
			},
			{
				"x": -0.1134392768,
				"y": -1.3407424656,
				"z": -3.1530867584,
				"element": "H" 
			},
			{
				"x": -0.3461242626,
				"y": 1.298987631,
				"z": -0.8643758571,
				"element": "H" 
			}
		],
		 "valence_orbital": [ 
			{
				"type": "occ",
				"energy": -0.30213,
				"method": "rhf"
			},
			{
				"type": "occ",
				"energy": -0.29301,
				"method": "rhf"
			},
			{
				"type": "occ",
				"energy": -0.26876,
				"method": "rhf"
			},
			{
				"type": "occ",
				"energy": -0.24927,
				"method": "rhf"
			},
			{
				"type": "occ",
				"energy": -0.19471,
				"method": "rhf"
			},
			{
				"type": "unocc",
				"energy": -0.03377,
				"method": "rhf"
			},
			{
				"type": "unocc",
				"energy": 0.02058,
				"method": "rhf"
			},
			{
				"type": "unocc",
				"energy": 0.06215,
				"method": "rhf"
			},
			{
				"type": "unocc",
				"energy": 0.09765,
				"method": "rhf"
			},
			{
				"type": "unocc",
				"energy": 0.10628,
				"method": "rhf"
			}
		],
		"cosmo_sigma_profile": { 
			"-0.025": 0.0,
			"-0.024": 0.0,
			"-0.023": 0.0,
			"-0.022": 0.0,
			"-0.021": 0.0,
			"-0.02": 0.0,
			"-0.019": 0.0,
			"-0.018": 0.0,
			"-0.017": 0.0,
			"-0.016": 0.0,
			"-0.015": 0.0,
			"-0.014": 0.0277115318646,
			"-0.013": 0.9044140745,
			"-0.012": 1.53298162176,
			"-0.011": 1.11861858124,
			"-0.01": 1.4263396516,
			"-0.009": 1.39605642873,
			"-0.008": 2.2291458713,
			"-0.007": 3.13126399184,
			"-0.006": 6.44947997459,
			"-0.005": 12.5900568975,
			"-0.004": 16.7528222284,
			"-0.003": 21.0822393059,
			"-0.002": 16.737378591,
			"-0.001": 15.6241575703,
			"0.0": 16.5450262142,
			"0.001": 15.0856894149,
			"0.002": 12.3939761265,
			"0.003": 14.4211105371,
			"0.004": 12.9368643689,
			"0.005": 14.5318432971,
			"0.006": 8.40103398588,
			"0.007": 2.99339772866,
			"0.008": 2.62732273617,
			"0.009": 1.99432300831,
			"0.01": 2.22665993252,
			"0.011": 2.41905319076,
			"0.012": 1.56165080842,
			"0.013": 0.261881050119,
			"0.014": 0.0,
			"0.015": 0.0,
			"0.016": 0.0,
			"0.017": 0.0,
			"0.018": 0.0,
			"0.019": 0.0,
			"0.02": 0.0,
			"0.021": 0.0,
			"0.022": 0.0,
			"0.023": 0.0,
			"0.024": 0.0,
			"0.025": 0.0
		}
	}
}
