{
	 "smiles": "NC1CCCC1C(O)=O", 
	 "Tm": 492.15, 
	 "num_atms": 20, 
	 "gaussian": { 
		 "optdone": 1, 
		 "sigma_profile": "yes", 
		 "theory": "DFT", 
		 "functional": "B3LYP", 
		 "basiset": "6-31G**", 
		 "properties": { 
			 "R2extent": 1367.1287, 
			 "electric_dipole_moment_norm": 2.93921525071, 
			 "electric_quadrupole_moment_norm": 9.12823240063, 
			 "total_energy": -440.479875753, 
			 "HOMO_LUMO_gap": 0.25324, 
			 "cosmo_polarized_energy": -11.78, 
			 "cosmo_cavitation_energy": 21.75, 
			 "cosmo_dispersion_energy": -16.25, 
			 "cosmo_repulsion_energy": 1.36, 
			 "cosmo_total_nonelectrostatic_energy": 6.86, 
			 "SMD_solvation_energy": 3.59 
		},
		"coords": [
			{
				"x": -1.6884114508,
				"y": -0.8432441129,
				"z": 0.4254636218,
				"element": "N" 
			},
			{
				"x": -0.7725527334,
				"y": -0.1792710239,
				"z": -0.5064173297,
				"element": "C" 
			},
			{
				"x": -0.4012774122,
				"y": 1.2792580955,
				"z": -0.1556798786,
				"element": "C" 
			},
			{
				"x": 0.6603448729,
				"y": 1.1357695624,
				"z": 0.9470124919,
				"element": "C" 
			},
			{
				"x": 1.5009529818,
				"y": -0.0948844276,
				"z": 0.5181671747,
				"element": "C" 
			},
			{
				"x": 0.627609895,
				"y": -0.878342715,
				"z": -0.5110195476,
				"element": "C" 
			},
			{
				"x": 0.5060107536,
				"y": -2.375069643,
				"z": -0.3099456861,
				"element": "C" 
			},
			{
				"x": 0.5465619745,
				"y": -2.7455104527,
				"z": 0.9969034644,
				"element": "O" 
			},
			{
				"x": 0.3755833885,
				"y": -3.1828808957,
				"z": -1.2027259804,
				"element": "O" 
			},
			{
				"x": -2.5685519633,
				"y": -0.3355079157,
				"z": 0.4659736808,
				"element": "H" 
			},
			{
				"x": -1.3062764216,
				"y": -0.8600629204,
				"z": 1.367756561,
				"element": "H" 
			},
			{
				"x": -1.2273703761,
				"y": -0.2518401615,
				"z": -1.4997723573,
				"element": "H" 
			},
			{
				"x": -1.2749538477,
				"y": 1.866706421,
				"z": 0.148077232,
				"element": "H" 
			},
			{
				"x": 0.0342019798,
				"y": 1.7699666967,
				"z": -1.0363822729,
				"element": "H" 
			},
			{
				"x": 1.2670978838,
				"y": 2.0366931283,
				"z": 1.0752723476,
				"element": "H" 
			},
			{
				"x": 0.1732563691,
				"y": 0.9445006907,
				"z": 1.9106035036,
				"element": "H" 
			},
			{
				"x": 1.7741476638,
				"y": -0.7166948483,
				"z": 1.3724845453,
				"element": "H" 
			},
			{
				"x": 2.433667257,
				"y": 0.2186013873,
				"z": 0.039254523,
				"element": "H" 
			},
			{
				"x": 1.0420998813,
				"y": -0.7610727726,
				"z": -1.5153634966,
				"element": "H" 
			},
			{
				"x": 0.395259304,
				"y": -3.7054140926,
				"z": 0.9997374032,
				"element": "H" 
			}
		],
		 "valence_orbital": [ 
			{
				"type": "occ",
				"energy": -0.33978,
				"method": "rhf"
			},
			{
				"type": "occ",
				"energy": -0.3225,
				"method": "rhf"
			},
			{
				"type": "occ",
				"energy": -0.30506,
				"method": "rhf"
			},
			{
				"type": "occ",
				"energy": -0.26111,
				"method": "rhf"
			},
			{
				"type": "occ",
				"energy": -0.23568,
				"method": "rhf"
			},
			{
				"type": "unocc",
				"energy": 0.01756,
				"method": "rhf"
			},
			{
				"type": "unocc",
				"energy": 0.06309,
				"method": "rhf"
			},
			{
				"type": "unocc",
				"energy": 0.08744,
				"method": "rhf"
			},
			{
				"type": "unocc",
				"energy": 0.09628,
				"method": "rhf"
			},
			{
				"type": "unocc",
				"energy": 0.12134,
				"method": "rhf"
			}
		],
		"cosmo_sigma_profile": { 
			"-0.025": 0.0,
			"-0.024": 0.0,
			"-0.023": 0.0,
			"-0.022": 0.0,
			"-0.021": 0.0,
			"-0.02": 0.0,
			"-0.019": 0.0,
			"-0.018": 0.47580351404,
			"-0.017": 0.756504279411,
			"-0.016": 1.08892464759,
			"-0.015": 0.497031861602,
			"-0.014": 0.668088276715,
			"-0.013": 0.642796651255,
			"-0.012": 0.798287048109,
			"-0.011": 0.478743203568,
			"-0.01": 1.63007614078,
			"-0.009": 1.94299737268,
			"-0.008": 2.94407128306,
			"-0.007": 3.15576220402,
			"-0.006": 4.60350617558,
			"-0.005": 5.38092990216,
			"-0.004": 9.72217748457,
			"-0.003": 22.2399103883,
			"-0.002": 19.4710209528,
			"-0.001": 18.2653404313,
			"0.0": 15.4576289115,
			"0.001": 12.848401536,
			"0.002": 4.38218559495,
			"0.003": 3.03186610201,
			"0.004": 3.01256090742,
			"0.005": 3.74318145549,
			"0.006": 3.96855015116,
			"0.007": 2.94075291704,
			"0.008": 3.12583301469,
			"0.009": 2.51301224987,
			"0.01": 2.2766856424,
			"0.011": 4.24589043482,
			"0.012": 5.97364170334,
			"0.013": 3.04352099769,
			"0.014": 0.942626544865,
			"0.015": 0.458533813849,
			"0.016": 0.647385075806,
			"0.017": 0.63044201223,
			"0.018": 0.0954438033115,
			"0.019": 0.0,
			"0.02": 0.0,
			"0.021": 0.0,
			"0.022": 0.0,
			"0.023": 0.0,
			"0.024": 0.0,
			"0.025": 0.0
		}
	}
}
