{
	 "smiles": "COC1=CC=C(C=C1)C1=NN=C2SC(NN12)C1=CC=CO1", 
	 "Tm": 434.15, 
	 "num_atms": 33, 
	 "gaussian": { 
		 "optdone": 1, 
		 "sigma_profile": "yes", 
		 "theory": "DFT", 
		 "functional": "B3LYP", 
		 "basiset": "6-31G**", 
		 "properties": { 
			 "R2extent": 8044.3817, 
			 "electric_dipole_moment_norm": 7.89208520291, 
			 "electric_quadrupole_moment_norm": 18.4888717054, 
			 "total_energy": -1308.24778504, 
			 "HOMO_LUMO_gap": 0.16493, 
			 "cosmo_polarized_energy": -24.85, 
			 "cosmo_cavitation_energy": 39.52, 
			 "cosmo_dispersion_energy": -28.51, 
			 "cosmo_repulsion_energy": 2.12, 
			 "cosmo_total_nonelectrostatic_energy": 13.13, 
			 "SMD_solvation_energy": 5.44 
		},
		"coords": [
			{
				"x": 4.8847726325,
				"y": -0.0511754694,
				"z": -2.63597751,
				"element": "C" 
			},
			{
				"x": 3.8176194989,
				"y": 0.7681437344,
				"z": -3.0868231478,
				"element": "O" 
			},
			{
				"x": 2.7048122387,
				"y": 0.868635898,
				"z": -2.3067847484,
				"element": "C" 
			},
			{
				"x": 1.6805120711,
				"y": 1.6895617362,
				"z": -2.8093435871,
				"element": "C" 
			},
			{
				"x": 0.5091802433,
				"y": 1.8625751738,
				"z": -2.0934337836,
				"element": "C" 
			},
			{
				"x": 0.3219776235,
				"y": 1.2207963006,
				"z": -0.8520287883,
				"element": "C" 
			},
			{
				"x": 1.345934287,
				"y": 0.4016060062,
				"z": -0.3604741214,
				"element": "C" 
			},
			{
				"x": 2.531158197,
				"y": 0.2232384004,
				"z": -1.077328348,
				"element": "C" 
			},
			{
				"x": -0.9399811456,
				"y": 1.4302904653,
				"z": -0.1437060384,
				"element": "C" 
			},
			{
				"x": -1.9947388276,
				"y": 2.0623372594,
				"z": -0.6332039256,
				"element": "N" 
			},
			{
				"x": -3.0180047559,
				"y": 2.056989718,
				"z": 0.3067852451,
				"element": "N" 
			},
			{
				"x": -2.541274454,
				"y": 1.4409059879,
				"z": 1.354225767,
				"element": "C" 
			},
			{
				"x": -3.1310124694,
				"y": 0.9540319503,
				"z": 2.9397676975,
				"element": "S" 
			},
			{
				"x": -1.6382049836,
				"y": -0.2567408497,
				"z": 3.0024249591,
				"element": "C" 
			},
			{
				"x": -0.5816957439,
				"y": 0.3603755067,
				"z": 2.1807488632,
				"element": "N" 
			},
			{
				"x": -1.2514110987,
				"y": 1.0302554094,
				"z": 1.139204521,
				"element": "N" 
			},
			{
				"x": -2.0010883493,
				"y": -1.6268601515,
				"z": 2.5721121943,
				"element": "C" 
			},
			{
				"x": -2.0571710816,
				"y": -2.8082980408,
				"z": 3.2552861415,
				"element": "C" 
			},
			{
				"x": -2.5014318369,
				"y": -3.7950208312,
				"z": 2.3167727677,
				"element": "C" 
			},
			{
				"x": -2.681907399,
				"y": -3.1377076613,
				"z": 1.1380920018,
				"element": "C" 
			},
			{
				"x": -2.3834318063,
				"y": -1.8160876517,
				"z": 1.2770394852,
				"element": "O" 
			},
			{
				"x": 4.5726106664,
				"y": -1.0975138323,
				"z": -2.5243938605,
				"element": "H" 
			},
			{
				"x": 5.6583314911,
				"y": 0.0124822967,
				"z": -3.4026737754,
				"element": "H" 
			},
			{
				"x": 5.2931172716,
				"y": 0.3046458583,
				"z": -1.6812389598,
				"element": "H" 
			},
			{
				"x": 1.83326282,
				"y": 2.180684306,
				"z": -3.7647225365,
				"element": "H" 
			},
			{
				"x": -0.2849500143,
				"y": 2.4931871285,
				"z": -2.4777587376,
				"element": "H" 
			},
			{
				"x": 1.2179057212,
				"y": -0.1147045801,
				"z": 0.5847148322,
				"element": "H" 
			},
			{
				"x": 3.3023019746,
				"y": -0.4197553156,
				"z": -0.6701396803,
				"element": "H" 
			},
			{
				"x": -1.2969509544,
				"y": -0.293692106,
				"z": 4.03728609,
				"element": "H" 
			},
			{
				"x": -0.1165286544,
				"y": 1.0786712492,
				"z": 2.7405880673,
				"element": "H" 
			},
			{
				"x": -1.8122211165,
				"y": -2.9586571667,
				"z": 4.2972652972,
				"element": "H" 
			},
			{
				"x": -2.6616551391,
				"y": -4.8476058606,
				"z": 2.498737027,
				"element": "H" 
			},
			{
				"x": -2.9985369062,
				"y": -3.4442948688,
				"z": 0.1534805916,
				"element": "H" 
			}
		],
		 "valence_orbital": [ 
			{
				"type": "occ",
				"energy": -0.2551,
				"method": "rhf"
			},
			{
				"type": "occ",
				"energy": -0.24892,
				"method": "rhf"
			},
			{
				"type": "occ",
				"energy": -0.24501,
				"method": "rhf"
			},
			{
				"type": "occ",
				"energy": -0.23717,
				"method": "rhf"
			},
			{
				"type": "occ",
				"energy": -0.20181,
				"method": "rhf"
			},
			{
				"type": "unocc",
				"energy": -0.03688,
				"method": "rhf"
			},
			{
				"type": "unocc",
				"energy": -0.02011,
				"method": "rhf"
			},
			{
				"type": "unocc",
				"energy": -0.00359,
				"method": "rhf"
			},
			{
				"type": "unocc",
				"energy": 0.00742,
				"method": "rhf"
			},
			{
				"type": "unocc",
				"energy": 0.0392,
				"method": "rhf"
			}
		],
		"cosmo_sigma_profile": { 
			"-0.025": 0.0,
			"-0.024": 0.0,
			"-0.023": 0.0,
			"-0.022": 0.0,
			"-0.021": 0.0,
			"-0.02": 0.0,
			"-0.019": 0.0,
			"-0.018": 0.0,
			"-0.017": 0.0,
			"-0.016": 0.696571167733,
			"-0.015": 2.58782962338,
			"-0.014": 1.42111748989,
			"-0.013": 1.65434567627,
			"-0.012": 2.24055846518,
			"-0.011": 3.26508994619,
			"-0.01": 3.64374947505,
			"-0.009": 4.66010736312,
			"-0.008": 6.86528904832,
			"-0.007": 8.75123239042,
			"-0.006": 15.5168804909,
			"-0.005": 20.8826894705,
			"-0.004": 20.7643876498,
			"-0.003": 20.0809113389,
			"-0.002": 16.7252871878,
			"-0.001": 14.4819621432,
			"0.0": 18.1492543841,
			"0.001": 18.2563743185,
			"0.002": 26.4171304279,
			"0.003": 29.0645058971,
			"0.004": 32.1450970777,
			"0.005": 14.4957461497,
			"0.006": 6.93920353361,
			"0.007": 3.61345226362,
			"0.008": 4.26504331881,
			"0.009": 2.83035633785,
			"0.01": 3.22137614051,
			"0.011": 2.48080887315,
			"0.012": 2.75365655097,
			"0.013": 3.37451784134,
			"0.014": 3.45152860117,
			"0.015": 2.53639255202,
			"0.016": 1.50252129436,
			"0.017": 0.213121960934,
			"0.018": 0.0,
			"0.019": 0.0,
			"0.02": 0.0,
			"0.021": 0.0,
			"0.022": 0.0,
			"0.023": 0.0,
			"0.024": 0.0,
			"0.025": 0.0
		}
	}
}
