{
	 "smiles": "OC(=O)C1CCCCC1C(=O)C1=CC=C(F)C=C1", 
	 "Tm": 411.15, 
	 "num_atms": 33, 
	 "gaussian": { 
		 "optdone": 1, 
		 "sigma_profile": "yes", 
		 "theory": "DFT", 
		 "functional": "B3LYP", 
		 "basiset": "6-31G**", 
		 "properties": { 
			 "R2extent": 5535.0295, 
			 "electric_dipole_moment_norm": 2.21734258968, 
			 "electric_quadrupole_moment_norm": 6.77373215739, 
			 "total_energy": -868.068159152, 
			 "HOMO_LUMO_gap": 0.19058, 
			 "cosmo_polarized_energy": -13.42, 
			 "cosmo_cavitation_energy": 35.27, 
			 "cosmo_dispersion_energy": -24.99, 
			 "cosmo_repulsion_energy": 1.91, 
			 "cosmo_total_nonelectrostatic_energy": 12.19, 
			 "SMD_solvation_energy": 7.18 
		},
		"coords": [
			{
				"x": -2.8598655637,
				"y": 0.3269063547,
				"z": -2.9500083679,
				"element": "O" 
			},
			{
				"x": -1.7789903431,
				"y": -0.2375793691,
				"z": -2.3634160254,
				"element": "C" 
			},
			{
				"x": -1.6158677775,
				"y": -1.4397200166,
				"z": -2.3349748484,
				"element": "O" 
			},
			{
				"x": -0.7951457086,
				"y": 0.7893542884,
				"z": -1.8257631186,
				"element": "C" 
			},
			{
				"x": -1.4542888121,
				"y": 2.0665381767,
				"z": -1.2617516323,
				"element": "C" 
			},
			{
				"x": -0.3961447378,
				"y": 3.0501680437,
				"z": -0.7412690313,
				"element": "C" 
			},
			{
				"x": 0.5413368798,
				"y": 2.3866500416,
				"z": 0.2766689249,
				"element": "C" 
			},
			{
				"x": 1.2263634893,
				"y": 1.1524192767,
				"z": -0.3271079665,
				"element": "C" 
			},
			{
				"x": 0.2079012534,
				"y": 0.1098401989,
				"z": -0.8644429046,
				"element": "C" 
			},
			{
				"x": -0.4803344316,
				"y": -0.6121312598,
				"z": 0.2986139221,
				"element": "C" 
			},
			{
				"x": -1.595617452,
				"y": -0.2801138483,
				"z": 0.6809177453,
				"element": "O" 
			},
			{
				"x": 0.251925909,
				"y": -1.7102282703,
				"z": 1.0132376658,
				"element": "C" 
			},
			{
				"x": -0.3648650754,
				"y": -2.267074937,
				"z": 2.1475764984,
				"element": "C" 
			},
			{
				"x": 0.2417198031,
				"y": -3.2892499426,
				"z": 2.8667381038,
				"element": "C" 
			},
			{
				"x": 1.4821875291,
				"y": -3.7567336757,
				"z": 2.4393519175,
				"element": "C" 
			},
			{
				"x": 2.0786619967,
				"y": -4.7466389864,
				"z": 3.1292402767,
				"element": "F" 
			},
			{
				"x": 2.1244926151,
				"y": -3.2342398891,
				"z": 1.3221335632,
				"element": "C" 
			},
			{
				"x": 1.5020270838,
				"y": -2.2095325648,
				"z": 0.6121670411,
				"element": "C" 
			},
			{
				"x": -3.4002566606,
				"y": -0.4124472892,
				"z": -3.2761998713,
				"element": "H" 
			},
			{
				"x": -0.2105429315,
				"y": 1.0951234806,
				"z": -2.7094044421,
				"element": "H" 
			},
			{
				"x": -2.1315857624,
				"y": 1.7864094865,
				"z": -0.4516750207,
				"element": "H" 
			},
			{
				"x": -2.055199245,
				"y": 2.5350071734,
				"z": -2.046545083,
				"element": "H" 
			},
			{
				"x": 0.1997096031,
				"y": 3.431470581,
				"z": -1.5838596331,
				"element": "H" 
			},
			{
				"x": -0.8907335017,
				"y": 3.9194384605,
				"z": -0.2927351794,
				"element": "H" 
			},
			{
				"x": -0.033425274,
				"y": 2.0938292878,
				"z": 1.1644285059,
				"element": "H" 
			},
			{
				"x": 1.3036684508,
				"y": 3.0982260474,
				"z": 0.6149908173,
				"element": "H" 
			},
			{
				"x": 1.8892688739,
				"y": 0.6824033494,
				"z": 0.4074507897,
				"element": "H" 
			},
			{
				"x": 1.862400202,
				"y": 1.4673653052,
				"z": -1.1656943704,
				"element": "H" 
			},
			{
				"x": 0.7510671756,
				"y": -0.6433944054,
				"z": -1.4422095991,
				"element": "H" 
			},
			{
				"x": -1.3321530607,
				"y": -1.8765297616,
				"z": 2.44394481,
				"element": "H" 
			},
			{
				"x": -0.2231425616,
				"y": -3.7281430393,
				"z": 3.742923611,
				"element": "H" 
			},
			{
				"x": 3.0878555983,
				"y": -3.6322015359,
				"z": 1.0229891512,
				"element": "H" 
			},
			{
				"x": 2.0028724364,
				"y": -1.8087907612,
				"z": -0.2618162496,
				"element": "H" 
			}
		],
		 "valence_orbital": [ 
			{
				"type": "occ",
				"energy": -0.30807,
				"method": "rhf"
			},
			{
				"type": "occ",
				"energy": -0.27038,
				"method": "rhf"
			},
			{
				"type": "occ",
				"energy": -0.26902,
				"method": "rhf"
			},
			{
				"type": "occ",
				"energy": -0.25298,
				"method": "rhf"
			},
			{
				"type": "occ",
				"energy": -0.24574,
				"method": "rhf"
			},
			{
				"type": "unocc",
				"energy": -0.05516,
				"method": "rhf"
			},
			{
				"type": "unocc",
				"energy": -0.01852,
				"method": "rhf"
			},
			{
				"type": "unocc",
				"energy": 0.0134,
				"method": "rhf"
			},
			{
				"type": "unocc",
				"energy": 0.04025,
				"method": "rhf"
			},
			{
				"type": "unocc",
				"energy": 0.07313,
				"method": "rhf"
			}
		],
		"cosmo_sigma_profile": { 
			"-0.025": 0.0,
			"-0.024": 0.0,
			"-0.023": 0.0,
			"-0.022": 0.0,
			"-0.021": 0.0,
			"-0.02": 0.0,
			"-0.019": 0.0,
			"-0.018": 0.395038517428,
			"-0.017": 1.03403347075,
			"-0.016": 0.794848417173,
			"-0.015": 0.806753728208,
			"-0.014": 0.838910459455,
			"-0.013": 0.815286083875,
			"-0.012": 0.706042480909,
			"-0.011": 0.738294842822,
			"-0.01": 0.426063530943,
			"-0.009": 0.506718618445,
			"-0.008": 3.85643535547,
			"-0.007": 7.09153021029,
			"-0.006": 11.9457853885,
			"-0.005": 13.2288820702,
			"-0.004": 12.5716119475,
			"-0.003": 21.1181883234,
			"-0.002": 25.1729913947,
			"-0.001": 29.1476062718,
			"0.0": 31.4163635063,
			"0.001": 22.0411527203,
			"0.002": 20.5522191279,
			"0.003": 18.5284410905,
			"0.004": 14.4910662235,
			"0.005": 5.6322886845,
			"0.006": 4.93267562579,
			"0.007": 5.89402115229,
			"0.008": 5.31957830753,
			"0.009": 3.65554198164,
			"0.01": 3.49261488925,
			"0.011": 5.28949503664,
			"0.012": 5.11863904913,
			"0.013": 0.201722752062,
			"0.014": 0.0,
			"0.015": 0.0,
			"0.016": 0.0,
			"0.017": 0.0,
			"0.018": 0.0,
			"0.019": 0.0,
			"0.02": 0.0,
			"0.021": 0.0,
			"0.022": 0.0,
			"0.023": 0.0,
			"0.024": 0.0,
			"0.025": 0.0
		}
	}
}
