{
	 "smiles": "COC1=C(OC(F)F)C=CC(=C1)C#N", 
	 "Tm": 322.15, 
	 "num_atms": 21, 
	 "gaussian": { 
		 "optdone": 1, 
		 "sigma_profile": "yes", 
		 "theory": "DFT", 
		 "functional": "B3LYP", 
		 "basiset": "6-31G**", 
		 "properties": { 
			 "R2extent": 3773.6672, 
			 "electric_dipole_moment_norm": 3.1502966527, 
			 "electric_quadrupole_moment_norm": 22.6295177339, 
			 "total_energy": -752.013206739, 
			 "HOMO_LUMO_gap": 0.19226, 
			 "cosmo_polarized_energy": -11.93, 
			 "cosmo_cavitation_energy": 27.93, 
			 "cosmo_dispersion_energy": -19.17, 
			 "cosmo_repulsion_energy": 1.49, 
			 "cosmo_total_nonelectrostatic_energy": 10.25, 
			 "SMD_solvation_energy": 8.33 
		},
		"coords": [
			{
				"x": 1.3816499112,
				"y": 0.4998491136,
				"z": 1.1206985193,
				"element": "C" 
			},
			{
				"x": 0.0065225146,
				"y": 0.1980552172,
				"z": 0.9017456061,
				"element": "O" 
			},
			{
				"x": -0.3813546099,
				"y": -0.1759639835,
				"z": -0.346554768,
				"element": "C" 
			},
			{
				"x": -1.762865294,
				"y": -0.4152136322,
				"z": -0.5218284015,
				"element": "C" 
			},
			{
				"x": -2.6511796208,
				"y": -0.1860452825,
				"z": 0.5133103772,
				"element": "O" 
			},
			{
				"x": -2.6165469632,
				"y": -1.0736239329,
				"z": 1.5740189807,
				"element": "C" 
			},
			{
				"x": -3.1049465869,
				"y": -2.2819196401,
				"z": 1.1812098491,
				"element": "F" 
			},
			{
				"x": -3.4413599283,
				"y": -0.5721600704,
				"z": 2.5077922469,
				"element": "F" 
			},
			{
				"x": -2.2647710725,
				"y": -0.7987818515,
				"z": -1.7585124195,
				"element": "C" 
			},
			{
				"x": -1.4133995285,
				"y": -0.9541919161,
				"z": -2.8512228284,
				"element": "C" 
			},
			{
				"x": -0.0420241228,
				"y": -0.7247814111,
				"z": -2.6854556137,
				"element": "C" 
			},
			{
				"x": 0.4753676435,
				"y": -0.3369540194,
				"z": -1.434856203,
				"element": "C" 
			},
			{
				"x": 0.8545151208,
				"y": -0.8815911017,
				"z": -3.7937668512,
				"element": "C" 
			},
			{
				"x": 1.5850943737,
				"y": -1.0081420328,
				"z": -4.6901717235,
				"element": "N" 
			},
			{
				"x": 2.0174356407,
				"y": -0.3760388557,
				"z": 0.9440246543,
				"element": "H" 
			},
			{
				"x": 1.4571768252,
				"y": 0.7975532917,
				"z": 2.1666858951,
				"element": "H" 
			},
			{
				"x": 1.7130140241,
				"y": 1.3268409896,
				"z": 0.4819312575,
				"element": "H" 
			},
			{
				"x": -1.614763273,
				"y": -1.2156003043,
				"z": 1.9876105815,
				"element": "H" 
			},
			{
				"x": -3.332265598,
				"y": -0.9666544711,
				"z": -1.8469380591,
				"element": "H" 
			},
			{
				"x": -1.8022089614,
				"y": -1.2525340182,
				"z": -3.8178227069,
				"element": "H" 
			},
			{
				"x": 1.5388095055,
				"y": -0.1618020887,
				"z": -1.3365983927,
				"element": "H" 
			}
		],
		 "valence_orbital": [ 
			{
				"type": "occ",
				"energy": -0.33617,
				"method": "rhf"
			},
			{
				"type": "occ",
				"energy": -0.33288,
				"method": "rhf"
			},
			{
				"type": "occ",
				"energy": -0.32936,
				"method": "rhf"
			},
			{
				"type": "occ",
				"energy": -0.275,
				"method": "rhf"
			},
			{
				"type": "occ",
				"energy": -0.24971,
				"method": "rhf"
			},
			{
				"type": "unocc",
				"energy": -0.05745,
				"method": "rhf"
			},
			{
				"type": "unocc",
				"energy": -0.02412,
				"method": "rhf"
			},
			{
				"type": "unocc",
				"energy": 0.03134,
				"method": "rhf"
			},
			{
				"type": "unocc",
				"energy": 0.06044,
				"method": "rhf"
			},
			{
				"type": "unocc",
				"energy": 0.07402,
				"method": "rhf"
			}
		],
		"cosmo_sigma_profile": { 
			"-0.025": 0.0,
			"-0.024": 0.0,
			"-0.023": 0.0,
			"-0.022": 0.0,
			"-0.021": 0.0,
			"-0.02": 0.0,
			"-0.019": 0.0,
			"-0.018": 0.0,
			"-0.017": 0.0,
			"-0.016": 0.0,
			"-0.015": 0.0,
			"-0.014": 0.0,
			"-0.013": 0.0,
			"-0.012": 0.0,
			"-0.011": 0.0,
			"-0.01": 0.243675167749,
			"-0.009": 3.0847205534,
			"-0.008": 7.42806125548,
			"-0.007": 11.3131319605,
			"-0.006": 16.0090093396,
			"-0.005": 13.7176864614,
			"-0.004": 12.6531977664,
			"-0.003": 12.0887235419,
			"-0.002": 11.8111560652,
			"-0.001": 15.4439613643,
			"0.0": 16.0532235868,
			"0.001": 17.8495362162,
			"0.002": 15.3251903624,
			"0.003": 19.4769712089,
			"0.004": 18.1001695274,
			"0.005": 5.31506854711,
			"0.006": 5.4682027338,
			"0.007": 5.64525108681,
			"0.008": 4.89470280521,
			"0.009": 3.57787950826,
			"0.01": 3.05441442478,
			"0.011": 2.79797880514,
			"0.012": 2.38573630285,
			"0.013": 1.29856731486,
			"0.014": 0.0176467175534,
			"0.015": 0.0,
			"0.016": 0.0,
			"0.017": 0.0,
			"0.018": 0.0,
			"0.019": 0.0,
			"0.02": 0.0,
			"0.021": 0.0,
			"0.022": 0.0,
			"0.023": 0.0,
			"0.024": 0.0,
			"0.025": 0.0
		}
	}
}
