{
	 "smiles": "CC(Cl)C(=O)N1CCN(CC1)S(=O)(=O)C1=CC=C(C)C=C1", 
	 "Tm": 427.15, 
	 "num_atms": 40, 
	 "gaussian": { 
		 "optdone": 1, 
		 "sigma_profile": "yes", 
		 "theory": "DFT", 
		 "functional": "B3LYP", 
		 "basiset": "6-31G**", 
		 "properties": { 
			 "R2extent": 8256.4542, 
			 "electric_dipole_moment_norm": 3.00177450519, 
			 "electric_quadrupole_moment_norm": 38.2232422052, 
			 "total_energy": -1738.43881792, 
			 "HOMO_LUMO_gap": 0.21058, 
			 "cosmo_polarized_energy": -20.49, 
			 "cosmo_cavitation_energy": 44.25, 
			 "cosmo_dispersion_energy": -30.65, 
			 "cosmo_repulsion_energy": 2.33, 
			 "cosmo_total_nonelectrostatic_energy": 15.93, 
			 "SMD_solvation_energy": 4.98 
		},
		"coords": [
			{
				"x": -4.0933315966,
				"y": 3.3220172851,
				"z": -0.1725600938,
				"element": "C" 
			},
			{
				"x": -3.9097510268,
				"y": 1.8456744533,
				"z": -0.5072594602,
				"element": "C" 
			},
			{
				"x": -3.3218248532,
				"y": 1.6333399191,
				"z": -2.2395446973,
				"element": "Cl" 
			},
			{
				"x": -3.0691842187,
				"y": 1.0423927235,
				"z": 0.5029418474,
				"element": "C" 
			},
			{
				"x": -3.6492554649,
				"y": 0.175916651,
				"z": 1.1530378704,
				"element": "O" 
			},
			{
				"x": -1.7495423553,
				"y": 1.3232802221,
				"z": 0.719346913,
				"element": "N" 
			},
			{
				"x": -1.0771724603,
				"y": 0.5046940563,
				"z": 1.7458371583,
				"element": "C" 
			},
			{
				"x": 0.264245225,
				"y": 1.1264262587,
				"z": 2.1237413169,
				"element": "C" 
			},
			{
				"x": 1.1282633268,
				"y": 1.3444417468,
				"z": 0.9515603028,
				"element": "N" 
			},
			{
				"x": 0.4527932872,
				"y": 1.7111360763,
				"z": -0.3060544698,
				"element": "C" 
			},
			{
				"x": -0.9212715802,
				"y": 2.3026206139,
				"z": 0.0097347192,
				"element": "C" 
			},
			{
				"x": 2.5833854488,
				"y": 0.5121377509,
				"z": 0.8224678974,
				"element": "S" 
			},
			{
				"x": 3.3309425403,
				"y": 1.1935368261,
				"z": -0.236182589,
				"element": "O" 
			},
			{
				"x": 3.0936912469,
				"y": 0.3735371652,
				"z": 2.1887205266,
				"element": "O" 
			},
			{
				"x": 2.1969266095,
				"y": -1.1357037232,
				"z": 0.2221733972,
				"element": "C" 
			},
			{
				"x": 1.8988094029,
				"y": -2.1523921339,
				"z": 1.1363912825,
				"element": "C" 
			},
			{
				"x": 1.5550729255,
				"y": -3.4146679192,
				"z": 0.6620816415,
				"element": "C" 
			},
			{
				"x": 1.5053471329,
				"y": -3.6860998083,
				"z": -0.7151512528,
				"element": "C" 
			},
			{
				"x": 1.1376475693,
				"y": -5.0639977863,
				"z": -1.2100508903,
				"element": "C" 
			},
			{
				"x": 1.8221250721,
				"y": -2.6552380206,
				"z": -1.6083958003,
				"element": "C" 
			},
			{
				"x": 2.1696795867,
				"y": -1.3832113395,
				"z": -1.1515866583,
				"element": "C" 
			},
			{
				"x": -4.491450808,
				"y": 3.4041861838,
				"z": 0.8449455852,
				"element": "H" 
			},
			{
				"x": -4.809743256,
				"y": 3.778198134,
				"z": -0.8598425015,
				"element": "H" 
			},
			{
				"x": -3.1603324453,
				"y": 3.8863731823,
				"z": -0.2243353711,
				"element": "H" 
			},
			{
				"x": -4.8712768134,
				"y": 1.3361982698,
				"z": -0.4992064384,
				"element": "H" 
			},
			{
				"x": -0.9385012069,
				"y": -0.5169881875,
				"z": 1.3711021244,
				"element": "H" 
			},
			{
				"x": -1.7270444292,
				"y": 0.4368784672,
				"z": 2.6225380731,
				"element": "H" 
			},
			{
				"x": 0.7899256802,
				"y": 0.4895065374,
				"z": 2.8361938994,
				"element": "H" 
			},
			{
				"x": 0.1053486748,
				"y": 2.08844403,
				"z": 2.6266203283,
				"element": "H" 
			},
			{
				"x": 1.0608461989,
				"y": 2.4453410391,
				"z": -0.8399841152,
				"element": "H" 
			},
			{
				"x": 0.3146326399,
				"y": 0.8380796416,
				"z": -0.9604405162,
				"element": "H" 
			},
			{
				"x": -1.3957757789,
				"y": 2.5739532754,
				"z": -0.9306794184,
				"element": "H" 
			},
			{
				"x": -0.8009040076,
				"y": 3.2161418476,
				"z": 0.6078376606,
				"element": "H" 
			},
			{
				"x": 1.9661180227,
				"y": -1.9579087615,
				"z": 2.2012908991,
				"element": "H" 
			},
			{
				"x": 1.3297692148,
				"y": -4.2068411792,
				"z": 1.3715289239,
				"element": "H" 
			},
			{
				"x": 1.8867881103,
				"y": -5.8045903113,
				"z": -0.9068384197,
				"element": "H" 
			},
			{
				"x": 1.0626280551,
				"y": -5.0918424823,
				"z": -2.3000382271,
				"element": "H" 
			},
			{
				"x": 0.17713287,
				"y": -5.3902020803,
				"z": -0.7965685306,
				"element": "H" 
			},
			{
				"x": 1.8040789161,
				"y": -2.8498973209,
				"z": -2.6772643704,
				"element": "H" 
			},
			{
				"x": 2.4440645447,
				"y": -0.5971713024,
				"z": -1.8464085472,
				"element": "H" 
			}
		],
		 "valence_orbital": [ 
			{
				"type": "occ",
				"energy": -0.27498,
				"method": "rhf"
			},
			{
				"type": "occ",
				"energy": -0.27076,
				"method": "rhf"
			},
			{
				"type": "occ",
				"energy": -0.26067,
				"method": "rhf"
			},
			{
				"type": "occ",
				"energy": -0.25451,
				"method": "rhf"
			},
			{
				"type": "occ",
				"energy": -0.24812,
				"method": "rhf"
			},
			{
				"type": "unocc",
				"energy": -0.03754,
				"method": "rhf"
			},
			{
				"type": "unocc",
				"energy": -0.02375,
				"method": "rhf"
			},
			{
				"type": "unocc",
				"energy": -0.0208,
				"method": "rhf"
			},
			{
				"type": "unocc",
				"energy": 0.0425,
				"method": "rhf"
			},
			{
				"type": "unocc",
				"energy": 0.05523,
				"method": "rhf"
			}
		],
		"cosmo_sigma_profile": { 
			"-0.025": 0.0,
			"-0.024": 0.0,
			"-0.023": 0.0,
			"-0.022": 0.0,
			"-0.021": 0.0,
			"-0.02": 0.0,
			"-0.019": 0.0,
			"-0.018": 0.0,
			"-0.017": 0.0,
			"-0.016": 0.0,
			"-0.015": 0.0,
			"-0.014": 0.0,
			"-0.013": 0.0,
			"-0.012": 0.0,
			"-0.011": 0.0,
			"-0.01": 0.0,
			"-0.009": 0.0,
			"-0.008": 0.421933335261,
			"-0.007": 6.34766254773,
			"-0.006": 27.9640659563,
			"-0.005": 38.9944402292,
			"-0.004": 38.2615202829,
			"-0.003": 31.6819848984,
			"-0.002": 27.3088223463,
			"-0.001": 24.8959026079,
			"0.0": 23.4597132927,
			"0.001": 16.1199731856,
			"0.002": 17.1047941136,
			"0.003": 18.8978187531,
			"0.004": 14.1717962728,
			"0.005": 10.9213623611,
			"0.006": 10.3968608815,
			"0.007": 5.03903602231,
			"0.008": 4.44337135234,
			"0.009": 4.32395144879,
			"0.01": 7.42932834689,
			"0.011": 9.88247944723,
			"0.012": 6.0165580854,
			"0.013": 5.23069779987,
			"0.014": 1.7913713994,
			"0.015": 0.016337159132,
			"0.016": 0.0,
			"0.017": 0.0,
			"0.018": 0.0,
			"0.019": 0.0,
			"0.02": 0.0,
			"0.021": 0.0,
			"0.022": 0.0,
			"0.023": 0.0,
			"0.024": 0.0,
			"0.025": 0.0
		}
	}
}
