{
	 "smiles": "CN(C)C(=O)[C@@H]([C@H](O)C1=CC=CC=C1)C1=CC=CC=C1", 
	 "Tm": 449.5, 
	 "num_atms": 39, 
	 "gaussian": { 
		 "optdone": 1, 
		 "sigma_profile": "yes", 
		 "theory": "DFT", 
		 "functional": "B3LYP", 
		 "basiset": "6-31G**", 
		 "properties": { 
			 "R2extent": 5998.5013, 
			 "electric_dipole_moment_norm": 4.38047700142, 
			 "electric_quadrupole_moment_norm": 15.7658013805, 
			 "total_energy": -864.471159957, 
			 "HOMO_LUMO_gap": 0.22188, 
			 "cosmo_polarized_energy": -13.02, 
			 "cosmo_cavitation_energy": 40.65, 
			 "cosmo_dispersion_energy": -27.33, 
			 "cosmo_repulsion_energy": 2.13, 
			 "cosmo_total_nonelectrostatic_energy": 15.45, 
			 "SMD_solvation_energy": 6.97 
		},
		"coords": [
			{
				"x": -4.3547458912,
				"y": 1.5890251872,
				"z": -1.9157540156,
				"element": "C" 
			},
			{
				"x": -2.9804259354,
				"y": 1.1815846279,
				"z": -1.6448694131,
				"element": "N" 
			},
			{
				"x": -2.3165726416,
				"y": 0.4679895705,
				"z": -2.7266319912,
				"element": "C" 
			},
			{
				"x": -2.4034161657,
				"y": 1.5410332301,
				"z": -0.4606590334,
				"element": "C" 
			},
			{
				"x": -3.0433542742,
				"y": 2.1527735704,
				"z": 0.4066412348,
				"element": "O" 
			},
			{
				"x": -0.9322586459,
				"y": 1.158142744,
				"z": -0.2092668176,
				"element": "C" 
			},
			{
				"x": -0.3441263052,
				"y": 2.0843153526,
				"z": 0.9167412756,
				"element": "C" 
			},
			{
				"x": -0.6494168944,
				"y": 3.4401121899,
				"z": 0.647155057,
				"element": "O" 
			},
			{
				"x": 1.1631944644,
				"y": 1.9425746845,
				"z": 1.0124005087,
				"element": "C" 
			},
			{
				"x": 1.7460038989,
				"y": 1.0234009518,
				"z": 1.8923006235,
				"element": "C" 
			},
			{
				"x": 3.1334556083,
				"y": 0.8819308217,
				"z": 1.9577683735,
				"element": "C" 
			},
			{
				"x": 3.9561334715,
				"y": 1.6639890495,
				"z": 1.1457720104,
				"element": "C" 
			},
			{
				"x": 3.3826026425,
				"y": 2.5901410903,
				"z": 0.2713679915,
				"element": "C" 
			},
			{
				"x": 1.9960349204,
				"y": 2.7285088814,
				"z": 0.2048869781,
				"element": "C" 
			},
			{
				"x": -0.8132657989,
				"y": -0.318483366,
				"z": 0.1430255395,
				"element": "C" 
			},
			{
				"x": -1.6922267953,
				"y": -0.9024545713,
				"z": 1.0684087707,
				"element": "C" 
			},
			{
				"x": -1.5663772609,
				"y": -2.2472198918,
				"z": 1.4179438562,
				"element": "C" 
			},
			{
				"x": -0.560984047,
				"y": -3.0315460569,
				"z": 0.8481281832,
				"element": "C" 
			},
			{
				"x": 0.3203221809,
				"y": -2.4602616791,
				"z": -0.0708748239,
				"element": "C" 
			},
			{
				"x": 0.1955146973,
				"y": -1.1138821922,
				"z": -0.417794323,
				"element": "C" 
			},
			{
				"x": -4.3951499399,
				"y": 2.2160437556,
				"z": -2.8150063193,
				"element": "H" 
			},
			{
				"x": -4.9882012967,
				"y": 0.7088900194,
				"z": -2.0792934129,
				"element": "H" 
			},
			{
				"x": -4.725606683,
				"y": 2.1511659113,
				"z": -1.0612351768,
				"element": "H" 
			},
			{
				"x": -1.4327245459,
				"y": -0.0580453932,
				"z": -2.3739114199,
				"element": "H" 
			},
			{
				"x": -3.0033814074,
				"y": -0.2807780316,
				"z": -3.1361003714,
				"element": "H" 
			},
			{
				"x": -2.0326834883,
				"y": 1.1487851282,
				"z": -3.5406411553,
				"element": "H" 
			},
			{
				"x": -0.3481478007,
				"y": 1.3617387537,
				"z": -1.1126528766,
				"element": "H" 
			},
			{
				"x": -0.7958737898,
				"y": 1.7677866533,
				"z": 1.8673463367,
				"element": "H" 
			},
			{
				"x": -1.6179438652,
				"y": 3.4872808367,
				"z": 0.7102793673,
				"element": "H" 
			},
			{
				"x": 1.1109087672,
				"y": 0.4162228714,
				"z": 2.5315701876,
				"element": "H" 
			},
			{
				"x": 3.5701249835,
				"y": 0.1657553687,
				"z": 2.6483607431,
				"element": "H" 
			},
			{
				"x": 5.0362009073,
				"y": 1.5590231262,
				"z": 1.1996753911,
				"element": "H" 
			},
			{
				"x": 4.0169800411,
				"y": 3.2114918369,
				"z": -0.3551221886,
				"element": "H" 
			},
			{
				"x": 1.5461188757,
				"y": 3.4640228594,
				"z": -0.4537287199,
				"element": "H" 
			},
			{
				"x": -2.4792354536,
				"y": -0.2978775736,
				"z": 1.5109760585,
				"element": "H" 
			},
			{
				"x": -2.2564468304,
				"y": -2.6830530757,
				"z": 2.1350136611,
				"element": "H" 
			},
			{
				"x": -0.4652000298,
				"y": -4.0790387395,
				"z": 1.1190373124,
				"element": "H" 
			},
			{
				"x": 1.1090266465,
				"y": -3.0599847049,
				"z": -0.5163467469,
				"element": "H" 
			},
			{
				"x": 0.8961436812,
				"y": -0.6708037969,
				"z": -1.1209106551,
				"element": "H" 
			}
		],
		 "valence_orbital": [ 
			{
				"type": "occ",
				"energy": -0.25381,
				"method": "rhf"
			},
			{
				"type": "occ",
				"energy": -0.24674,
				"method": "rhf"
			},
			{
				"type": "occ",
				"energy": -0.2417,
				"method": "rhf"
			},
			{
				"type": "occ",
				"energy": -0.238,
				"method": "rhf"
			},
			{
				"type": "occ",
				"energy": -0.23214,
				"method": "rhf"
			},
			{
				"type": "unocc",
				"energy": -0.01026,
				"method": "rhf"
			},
			{
				"type": "unocc",
				"energy": -0.00786,
				"method": "rhf"
			},
			{
				"type": "unocc",
				"energy": 0.00582,
				"method": "rhf"
			},
			{
				"type": "unocc",
				"energy": 0.0089,
				"method": "rhf"
			},
			{
				"type": "unocc",
				"energy": 0.02035,
				"method": "rhf"
			}
		],
		"cosmo_sigma_profile": { 
			"-0.025": 0.0,
			"-0.024": 0.0,
			"-0.023": 0.0,
			"-0.022": 0.0,
			"-0.021": 0.0,
			"-0.02": 0.0,
			"-0.019": 0.0,
			"-0.018": 0.0,
			"-0.017": 0.0,
			"-0.016": 0.0,
			"-0.015": 0.0,
			"-0.014": 0.0,
			"-0.013": 0.0,
			"-0.012": 0.0,
			"-0.011": 0.0,
			"-0.01": 0.0,
			"-0.009": 0.0,
			"-0.008": 0.502715183667,
			"-0.007": 1.57193819141,
			"-0.006": 9.28043666015,
			"-0.005": 30.0605590564,
			"-0.004": 38.1480128856,
			"-0.003": 39.4955107578,
			"-0.002": 33.2170161454,
			"-0.001": 23.1889625181,
			"0.0": 18.8177404972,
			"0.001": 19.6743863516,
			"0.002": 17.9714278533,
			"0.003": 15.8113321433,
			"0.004": 18.340744765,
			"0.005": 19.8373297622,
			"0.006": 13.7798062358,
			"0.007": 3.83595222743,
			"0.008": 2.66404484911,
			"0.009": 2.51563373762,
			"0.01": 2.64903472327,
			"0.011": 2.45606213348,
			"0.012": 3.64623861315,
			"0.013": 3.15023213209,
			"0.014": 1.04904314085,
			"0.015": 0.023759156027,
			"0.016": 0.0,
			"0.017": 0.0,
			"0.018": 0.0,
			"0.019": 0.0,
			"0.02": 0.0,
			"0.021": 0.0,
			"0.022": 0.0,
			"0.023": 0.0,
			"0.024": 0.0,
			"0.025": 0.0
		}
	}
}
