{
	 "smiles": "CC(C)CC(NC(=O)CN)C(O)=O", 
	 "Tm": 507.15, 
	 "num_atms": 29, 
	 "gaussian": { 
		 "optdone": 1, 
		 "sigma_profile": "yes", 
		 "theory": "DFT", 
		 "functional": "B3LYP", 
		 "basiset": "6-31G**", 
		 "properties": { 
			 "R2extent": 3318.0764, 
			 "electric_dipole_moment_norm": 3.08737652547, 
			 "electric_quadrupole_moment_norm": 14.7562586434, 
			 "total_energy": -649.70631358, 
			 "HOMO_LUMO_gap": 0.23436, 
			 "cosmo_polarized_energy": -17.79, 
			 "cosmo_cavitation_energy": 31.78, 
			 "cosmo_dispersion_energy": -21.69, 
			 "cosmo_repulsion_energy": 1.77, 
			 "cosmo_total_nonelectrostatic_energy": 11.86, 
			 "SMD_solvation_energy": 5.53 
		},
		"coords": [
			{
				"x": -2.4774178852,
				"y": 2.4728728301,
				"z": -0.5214777209,
				"element": "C" 
			},
			{
				"x": -0.9920862361,
				"y": 2.3362192013,
				"z": -0.1500894738,
				"element": "C" 
			},
			{
				"x": -0.280148534,
				"y": 3.6925278786,
				"z": -0.2756741815,
				"element": "C" 
			},
			{
				"x": -0.2399614801,
				"y": 1.2841977003,
				"z": -0.9868840386,
				"element": "C" 
			},
			{
				"x": -0.7073078707,
				"y": -0.1878586942,
				"z": -0.8519487908,
				"element": "C" 
			},
			{
				"x": -0.7903820026,
				"y": -0.6535566895,
				"z": 0.5247836956,
				"element": "N" 
			},
			{
				"x": 0.2932736285,
				"y": -1.2003957982,
				"z": 1.1518392698,
				"element": "C" 
			},
			{
				"x": 1.4058003253,
				"y": -1.2387556403,
				"z": 0.6361699096,
				"element": "O" 
			},
			{
				"x": 0.0229282651,
				"y": -1.7956023657,
				"z": 2.5447048919,
				"element": "C" 
			},
			{
				"x": 1.2185812696,
				"y": -2.0981910413,
				"z": 3.3129358089,
				"element": "N" 
			},
			{
				"x": -1.9829639084,
				"y": -0.4538681829,
				"z": -1.6394601766,
				"element": "C" 
			},
			{
				"x": -2.9507050825,
				"y": -1.0771684305,
				"z": -0.9173454135,
				"element": "O" 
			},
			{
				"x": -2.1324234637,
				"y": -0.1532868927,
				"z": -2.8011503537,
				"element": "O" 
			},
			{
				"x": -2.9466929111,
				"y": 3.274486088,
				"z": 0.0590980657,
				"element": "H" 
			},
			{
				"x": -3.0432405615,
				"y": 1.5576844035,
				"z": -0.3193895777,
				"element": "H" 
			},
			{
				"x": -2.5995280066,
				"y": 2.7128774097,
				"z": -1.5837864894,
				"element": "H" 
			},
			{
				"x": -0.9331150675,
				"y": 2.024882294,
				"z": 0.9023762224,
				"element": "H" 
			},
			{
				"x": -0.3095990762,
				"y": 4.05667749,
				"z": -1.309743634,
				"element": "H" 
			},
			{
				"x": 0.77141166,
				"y": 3.6221941112,
				"z": 0.0223925908,
				"element": "H" 
			},
			{
				"x": -0.7586788271,
				"y": 4.4487051266,
				"z": 0.355760815,
				"element": "H" 
			},
			{
				"x": -0.2839033771,
				"y": 1.5445753633,
				"z": -2.0508959199,
				"element": "H" 
			},
			{
				"x": 0.8152760503,
				"y": 1.2925464147,
				"z": -0.6945468403,
				"element": "H" 
			},
			{
				"x": 0.0647313486,
				"y": -0.796308575,
				"z": -1.3394787747,
				"element": "H" 
			},
			{
				"x": -1.7010704003,
				"y": -0.7208253703,
				"z": 0.9545855568,
				"element": "H" 
			},
			{
				"x": -0.6219934061,
				"y": -1.1187335628,
				"z": 3.1185962046,
				"element": "H" 
			},
			{
				"x": -0.5558649265,
				"y": -2.7191388721,
				"z": 2.4013780646,
				"element": "H" 
			},
			{
				"x": 1.8598416245,
				"y": -2.6012531914,
				"z": 2.7016616025,
				"element": "H" 
			},
			{
				"x": 1.7013977608,
				"y": -1.226876865,
				"z": 3.5230765471,
				"element": "H" 
			},
			{
				"x": -3.7035589091,
				"y": -1.1932261394,
				"z": -1.5215878601,
				"element": "H" 
			}
		],
		 "valence_orbital": [ 
			{
				"type": "occ",
				"energy": -0.32306,
				"method": "rhf"
			},
			{
				"type": "occ",
				"energy": -0.29297,
				"method": "rhf"
			},
			{
				"type": "occ",
				"energy": -0.26421,
				"method": "rhf"
			},
			{
				"type": "occ",
				"energy": -0.25849,
				"method": "rhf"
			},
			{
				"type": "occ",
				"energy": -0.23919,
				"method": "rhf"
			},
			{
				"type": "unocc",
				"energy": -0.00483,
				"method": "rhf"
			},
			{
				"type": "unocc",
				"energy": 0.02215,
				"method": "rhf"
			},
			{
				"type": "unocc",
				"energy": 0.05257,
				"method": "rhf"
			},
			{
				"type": "unocc",
				"energy": 0.08264,
				"method": "rhf"
			},
			{
				"type": "unocc",
				"energy": 0.09312,
				"method": "rhf"
			}
		],
		"cosmo_sigma_profile": { 
			"-0.025": 0.0,
			"-0.024": 0.0,
			"-0.023": 0.0,
			"-0.022": 0.0,
			"-0.021": 0.0,
			"-0.02": 0.0,
			"-0.019": 0.328327433215,
			"-0.018": 0.997439791495,
			"-0.017": 0.924367215329,
			"-0.016": 0.581677599005,
			"-0.015": 0.708705103362,
			"-0.014": 0.917840574664,
			"-0.013": 1.3437602372,
			"-0.012": 1.18637683547,
			"-0.011": 1.98992938784,
			"-0.01": 2.34905321628,
			"-0.009": 3.47812769443,
			"-0.008": 4.41730465469,
			"-0.007": 7.33215726477,
			"-0.006": 10.0776854081,
			"-0.005": 11.8428673671,
			"-0.004": 9.04447030996,
			"-0.003": 16.3998055311,
			"-0.002": 28.7031059171,
			"-0.001": 26.3209578626,
			"0.0": 22.57598727,
			"0.001": 23.89444865,
			"0.002": 11.6942363665,
			"0.003": 5.92240458754,
			"0.004": 6.26733852648,
			"0.005": 5.33275176778,
			"0.006": 3.54397925211,
			"0.007": 4.42229209026,
			"0.008": 3.90487769074,
			"0.009": 3.26632614162,
			"0.01": 3.33949518353,
			"0.011": 7.32853145002,
			"0.012": 4.99161815746,
			"0.013": 4.1556094376,
			"0.014": 2.88903777757,
			"0.015": 0.928617014752,
			"0.016": 0.692330585949,
			"0.017": 0.735270423194,
			"0.018": 0.65488705718,
			"0.019": 0.469605134578,
			"0.02": 0.0949808164813,
			"0.021": 0.0,
			"0.022": 0.0,
			"0.023": 0.0,
			"0.024": 0.0,
			"0.025": 0.0
		}
	}
}
