{
	 "smiles": "CCOC1=C(OCC)C=C(CC#N)C(Br)=C1", 
	 "Tm": 342.15, 
	 "num_atms": 30, 
	 "gaussian": { 
		 "optdone": 1, 
		 "sigma_profile": "yes", 
		 "theory": "DFT", 
		 "functional": "B3LYP", 
		 "basiset": "6-31G**", 
		 "properties": { 
			 "R2extent": 6478.8204, 
			 "electric_dipole_moment_norm": 5.34316407197, 
			 "electric_quadrupole_moment_norm": 25.6835962988, 
			 "total_energy": -3242.28453709, 
			 "HOMO_LUMO_gap": 0.21383, 
			 "cosmo_polarized_energy": -12.36, 
			 "cosmo_cavitation_energy": 36.95, 
			 "cosmo_dispersion_energy": -25.11, 
			 "cosmo_repulsion_energy": 2.02, 
			 "cosmo_total_nonelectrostatic_energy": 13.86, 
			 "SMD_solvation_energy": 7.24 
		},
		"coords": [
			{
				"x": 0.8188192279,
				"y": -1.907937426,
				"z": 3.5284689456,
				"element": "C" 
			},
			{
				"x": 0.331611948,
				"y": -0.8624259713,
				"z": 2.5430766474,
				"element": "C" 
			},
			{
				"x": 0.3245021791,
				"y": -1.4679114109,
				"z": 1.2307406122,
				"element": "O" 
			},
			{
				"x": -0.0956954621,
				"y": -0.6544782168,
				"z": 0.2101724859,
				"element": "C" 
			},
			{
				"x": 0.6810342865,
				"y": 0.4280832873,
				"z": -0.2468452047,
				"element": "C" 
			},
			{
				"x": 1.8753390415,
				"y": 0.7600402519,
				"z": 0.3420914675,
				"element": "O" 
			},
			{
				"x": 2.9607182151,
				"y": -0.1622926813,
				"z": 0.0942120702,
				"element": "C" 
			},
			{
				"x": 4.1889600584,
				"y": 0.3700801533,
				"z": 0.8079541459,
				"element": "C" 
			},
			{
				"x": 0.2051202595,
				"y": 1.2111587656,
				"z": -1.2969230765,
				"element": "C" 
			},
			{
				"x": -1.0163663385,
				"y": 0.9486239108,
				"z": -1.9284350767,
				"element": "C" 
			},
			{
				"x": -1.4753390147,
				"y": 1.8379027346,
				"z": -3.0722136133,
				"element": "C" 
			},
			{
				"x": -1.1063756565,
				"y": 1.3084468628,
				"z": -4.3928239841,
				"element": "C" 
			},
			{
				"x": -0.8004167049,
				"y": 0.8969070989,
				"z": -5.4338339634,
				"element": "N" 
			},
			{
				"x": -1.7563578593,
				"y": -0.1498956123,
				"z": -1.4749876628,
				"element": "C" 
			},
			{
				"x": -3.4295217492,
				"y": -0.605562273,
				"z": -2.285434352,
				"element": "Br" 
			},
			{
				"x": -1.3099651824,
				"y": -0.9375101463,
				"z": -0.4156966721,
				"element": "C" 
			},
			{
				"x": 1.8366727855,
				"y": -2.2271566388,
				"z": 3.286176414,
				"element": "H" 
			},
			{
				"x": 0.1697302796,
				"y": -2.7879912243,
				"z": 3.5118750288,
				"element": "H" 
			},
			{
				"x": 0.8187490765,
				"y": -1.4952869994,
				"z": 4.5421661634,
				"element": "H" 
			},
			{
				"x": -0.6886393968,
				"y": -0.5364393366,
				"z": 2.7868838236,
				"element": "H" 
			},
			{
				"x": 0.9820851942,
				"y": 0.0187697311,
				"z": 2.5367316033,
				"element": "H" 
			},
			{
				"x": 2.6849406799,
				"y": -1.1584276194,
				"z": 0.4570408365,
				"element": "H" 
			},
			{
				"x": 3.1304180958,
				"y": -0.2253119202,
				"z": -0.9890236942,
				"element": "H" 
			},
			{
				"x": 4.019028495,
				"y": 0.4267940258,
				"z": 1.8871633109,
				"element": "H" 
			},
			{
				"x": 4.4432938616,
				"y": 1.3707251593,
				"z": 0.4470981973,
				"element": "H" 
			},
			{
				"x": 5.0422217775,
				"y": -0.2910934681,
				"z": 0.627469982,
				"element": "H" 
			},
			{
				"x": 0.819758647,
				"y": 2.0447252555,
				"z": -1.6235521417,
				"element": "H" 
			},
			{
				"x": -1.0273020936,
				"y": 2.8319066108,
				"z": -2.9692951415,
				"element": "H" 
			},
			{
				"x": -2.5622722252,
				"y": 1.9658516375,
				"z": -3.0484147032,
				"element": "H" 
			},
			{
				"x": -1.8947524253,
				"y": -1.7777945404,
				"z": -0.0613424481,
				"element": "H" 
			}
		],
		 "valence_orbital": [ 
			{
				"type": "occ",
				"energy": -0.29993,
				"method": "rhf"
			},
			{
				"type": "occ",
				"energy": -0.29528,
				"method": "rhf"
			},
			{
				"type": "occ",
				"energy": -0.2749,
				"method": "rhf"
			},
			{
				"type": "occ",
				"energy": -0.25886,
				"method": "rhf"
			},
			{
				"type": "occ",
				"energy": -0.23843,
				"method": "rhf"
			},
			{
				"type": "unocc",
				"energy": -0.0246,
				"method": "rhf"
			},
			{
				"type": "unocc",
				"energy": -0.02179,
				"method": "rhf"
			},
			{
				"type": "unocc",
				"energy": -0.00367,
				"method": "rhf"
			},
			{
				"type": "unocc",
				"energy": 0.04271,
				"method": "rhf"
			},
			{
				"type": "unocc",
				"energy": 0.04655,
				"method": "rhf"
			}
		],
		"cosmo_sigma_profile": { 
			"-0.025": 0.0,
			"-0.024": 0.0,
			"-0.023": 0.0,
			"-0.022": 0.0,
			"-0.021": 0.0,
			"-0.02": 0.0,
			"-0.019": 0.0,
			"-0.018": 0.0,
			"-0.017": 0.0,
			"-0.016": 0.0,
			"-0.015": 0.0,
			"-0.014": 0.0,
			"-0.013": 0.0,
			"-0.012": 0.0,
			"-0.011": 0.0,
			"-0.01": 1.01308496312,
			"-0.009": 4.11439446442,
			"-0.008": 5.52519035783,
			"-0.007": 6.52191964438,
			"-0.006": 6.5942653773,
			"-0.005": 9.43308953886,
			"-0.004": 22.6934564385,
			"-0.003": 32.4149347683,
			"-0.002": 32.1670636409,
			"-0.001": 29.8977782902,
			"0.0": 28.7428235248,
			"0.001": 27.6983756325,
			"0.002": 23.2702587893,
			"0.003": 12.8496156501,
			"0.004": 13.1384095005,
			"0.005": 6.17682754965,
			"0.006": 4.74849385864,
			"0.007": 4.68502624825,
			"0.008": 5.62500770205,
			"0.009": 4.95402392227,
			"0.01": 5.29614001371,
			"0.011": 4.14938719858,
			"0.012": 2.84416279258,
			"0.013": 1.72008803238,
			"0.014": 0.145716032908,
			"0.015": 0.0,
			"0.016": 0.0,
			"0.017": 0.0,
			"0.018": 0.0,
			"0.019": 0.0,
			"0.02": 0.0,
			"0.021": 0.0,
			"0.022": 0.0,
			"0.023": 0.0,
			"0.024": 0.0,
			"0.025": 0.0
		}
	}
}
