{
	 "smiles": "BrC1=C2C=CC=CC2=CC2=CC=CC=C12", 
	 "Tm": 373.15, 
	 "num_atms": 24, 
	 "gaussian": { 
		 "optdone": 1, 
		 "sigma_profile": "yes", 
		 "theory": "DFT", 
		 "functional": "B3LYP", 
		 "basiset": "6-31G**", 
		 "properties": { 
			 "R2extent": 5975.2524, 
			 "electric_dipole_moment_norm": 1.68461188705, 
			 "electric_quadrupole_moment_norm": 12.6964837353, 
			 "total_energy": -3110.33371569, 
			 "HOMO_LUMO_gap": 0.12784, 
			 "cosmo_polarized_energy": -5.48, 
			 "cosmo_cavitation_energy": 29.23, 
			 "cosmo_dispersion_energy": -22.41, 
			 "cosmo_repulsion_energy": 1.68, 
			 "cosmo_total_nonelectrostatic_energy": 8.51, 
			 "SMD_solvation_energy": 3.41 
		},
		"coords": [
			{
				"x": 0.15805754,
				"y": -4.1829487539,
				"z": 1.174735887,
				"element": "Br" 
			},
			{
				"x": 0.6402392862,
				"y": -2.4009530302,
				"z": 0.6341741328,
				"element": "C" 
			},
			{
				"x": 0.5115817038,
				"y": -2.0536051659,
				"z": -0.7240393102,
				"element": "C" 
			},
			{
				"x": 0.0424716452,
				"y": -2.9412893617,
				"z": -1.74294447,
				"element": "C" 
			},
			{
				"x": -0.0573796274,
				"y": -2.5346626712,
				"z": -3.0475924337,
				"element": "C" 
			},
			{
				"x": 0.3038070011,
				"y": -1.2118465895,
				"z": -3.4309149225,
				"element": "C" 
			},
			{
				"x": 0.7575490809,
				"y": -0.3292444246,
				"z": -2.4889904999,
				"element": "C" 
			},
			{
				"x": 0.8784764317,
				"y": -0.7085645431,
				"z": -1.1154403732,
				"element": "C" 
			},
			{
				"x": 1.3415889853,
				"y": 0.1912551875,
				"z": -0.1520765693,
				"element": "C" 
			},
			{
				"x": 1.4643278097,
				"y": -0.1669398152,
				"z": 1.192853677,
				"element": "C" 
			},
			{
				"x": 1.9397447266,
				"y": 0.7637228767,
				"z": 2.1690695816,
				"element": "C" 
			},
			{
				"x": 2.0592810478,
				"y": 0.4110231733,
				"z": 3.4856567329,
				"element": "C" 
			},
			{
				"x": 1.7066858626,
				"y": -0.9039789228,
				"z": 3.9024351165,
				"element": "C" 
			},
			{
				"x": 1.2467341401,
				"y": -1.828120617,
				"z": 3.0014246579,
				"element": "C" 
			},
			{
				"x": 1.1053382737,
				"y": -1.5047381563,
				"z": 1.6151994782,
				"element": "C" 
			},
			{
				"x": -0.2356077265,
				"y": -3.9503748677,
				"z": -1.4648612492,
				"element": "H" 
			},
			{
				"x": -0.416789758,
				"y": -3.2297970277,
				"z": -3.8006731318,
				"element": "H" 
			},
			{
				"x": 0.2173075612,
				"y": -0.9094485221,
				"z": -4.4702804119,
				"element": "H" 
			},
			{
				"x": 1.0370760637,
				"y": 0.6838074337,
				"z": -2.7661479485,
				"element": "H" 
			},
			{
				"x": 1.6141474244,
				"y": 1.1985206383,
				"z": -0.4575936732,
				"element": "H" 
			},
			{
				"x": 2.2049358522,
				"y": 1.7636009201,
				"z": 1.8356829066,
				"element": "H" 
			},
			{
				"x": 2.4218344157,
				"y": 1.1285789917,
				"z": 4.2156420422,
				"element": "H" 
			},
			{
				"x": 1.8041353065,
				"y": -1.1768334299,
				"z": 4.9491295961,
				"element": "H" 
			},
			{
				"x": 0.9819569533,
				"y": -2.8249633225,
				"z": 3.3317511845,
				"element": "H" 
			}
		],
		 "valence_orbital": [ 
			{
				"type": "occ",
				"energy": -0.2846,
				"method": "rhf"
			},
			{
				"type": "occ",
				"energy": -0.27301,
				"method": "rhf"
			},
			{
				"type": "occ",
				"energy": -0.26079,
				"method": "rhf"
			},
			{
				"type": "occ",
				"energy": -0.24646,
				"method": "rhf"
			},
			{
				"type": "occ",
				"energy": -0.19831,
				"method": "rhf"
			},
			{
				"type": "unocc",
				"energy": -0.07047,
				"method": "rhf"
			},
			{
				"type": "unocc",
				"energy": -0.0202,
				"method": "rhf"
			},
			{
				"type": "unocc",
				"energy": 0.0014,
				"method": "rhf"
			},
			{
				"type": "unocc",
				"energy": 0.01141,
				"method": "rhf"
			},
			{
				"type": "unocc",
				"energy": 0.03738,
				"method": "rhf"
			}
		],
		"cosmo_sigma_profile": { 
			"-0.025": 0.0,
			"-0.024": 0.0,
			"-0.023": 0.0,
			"-0.022": 0.0,
			"-0.021": 0.0,
			"-0.02": 0.0,
			"-0.019": 0.0,
			"-0.018": 0.0,
			"-0.017": 0.0,
			"-0.016": 0.0,
			"-0.015": 0.0,
			"-0.014": 0.0,
			"-0.013": 0.0,
			"-0.012": 0.0,
			"-0.011": 0.0,
			"-0.01": 0.0,
			"-0.009": 0.0,
			"-0.008": 0.0,
			"-0.007": 3.68231769499,
			"-0.006": 15.3735886798,
			"-0.005": 16.6972089341,
			"-0.004": 19.3375381402,
			"-0.003": 13.5653924101,
			"-0.002": 14.74994489,
			"-0.001": 12.2330042652,
			"0.0": 13.8435795873,
			"0.001": 20.1920703256,
			"0.002": 34.7507803875,
			"0.003": 37.9794781004,
			"0.004": 26.3133738858,
			"0.005": 10.228990572,
			"0.006": 0.0,
			"0.007": 0.0,
			"0.008": 0.0,
			"0.009": 0.0,
			"0.01": 0.0,
			"0.011": 0.0,
			"0.012": 0.0,
			"0.013": 0.0,
			"0.014": 0.0,
			"0.015": 0.0,
			"0.016": 0.0,
			"0.017": 0.0,
			"0.018": 0.0,
			"0.019": 0.0,
			"0.02": 0.0,
			"0.021": 0.0,
			"0.022": 0.0,
			"0.023": 0.0,
			"0.024": 0.0,
			"0.025": 0.0
		}
	}
}
