{
	 "smiles": "O=C1C(SC2=C1C=CC=C2)=C1/SC2=C(C=CC=C2)C1=O", 
	 "Tm": 632.15, 
	 "num_atms": 28, 
	 "gaussian": { 
		 "optdone": 1, 
		 "sigma_profile": "yes", 
		 "theory": "DFT", 
		 "functional": "B3LYP", 
		 "basiset": "6-31G**", 
		 "properties": { 
			 "R2extent": 7654.5541, 
			 "electric_dipole_moment_norm": 0.0, 
			 "electric_quadrupole_moment_norm": 30.4822609588, 
			 "total_energy": -1561.3507473, 
			 "HOMO_LUMO_gap": 0.10321, 
			 "cosmo_polarized_energy": -12.1, 
			 "cosmo_cavitation_energy": 36.01, 
			 "cosmo_dispersion_energy": -27.64, 
			 "cosmo_repulsion_energy": 1.96, 
			 "cosmo_total_nonelectrostatic_energy": 10.33, 
			 "SMD_solvation_energy": 5.94 
		},
		"coords": [
			{
				"x": 2.7311930457,
				"y": -0.2903089403,
				"z": 1.1305845805,
				"element": "O" 
			},
			{
				"x": 2.4876503428,
				"y": -0.017550852,
				"z": -0.040253292,
				"element": "C" 
			},
			{
				"x": 1.0925987535,
				"y": 0.1172284254,
				"z": -0.5686201278,
				"element": "C" 
			},
			{
				"x": 1.0588491579,
				"y": 0.5149357956,
				"z": -2.2878149616,
				"element": "S" 
			},
			{
				"x": 2.8455370984,
				"y": 0.5119910226,
				"z": -2.3457374831,
				"element": "C" 
			},
			{
				"x": 3.4577694091,
				"y": 0.2227387368,
				"z": -1.1183365464,
				"element": "C" 
			},
			{
				"x": 4.8503866943,
				"y": 0.1836176082,
				"z": -1.0043690042,
				"element": "C" 
			},
			{
				"x": 5.6259804132,
				"y": 0.4371210359,
				"z": -2.1323895894,
				"element": "C" 
			},
			{
				"x": 5.0072601128,
				"y": 0.7259586992,
				"z": -3.3578079747,
				"element": "C" 
			},
			{
				"x": 3.61566698,
				"y": 0.7668167237,
				"z": -3.4791901235,
				"element": "C" 
			},
			{
				"x": -0.0053479099,
				"y": -0.0528960518,
				"z": 0.2105429314,
				"element": "C" 
			},
			{
				"x": 0.0284020969,
				"y": -0.4505900471,
				"z": 1.9297403784,
				"element": "S" 
			},
			{
				"x": -1.7582869145,
				"y": -0.4477118085,
				"z": 1.9876475224,
				"element": "C" 
			},
			{
				"x": -2.3705190154,
				"y": -0.158467648,
				"z": 0.7602448399,
				"element": "C" 
			},
			{
				"x": -3.7631368179,
				"y": -0.1194089891,
				"z": 0.6462625975,
				"element": "C" 
			},
			{
				"x": -4.5387311146,
				"y": -0.3729599835,
				"z": 1.7742722408,
				"element": "C" 
			},
			{
				"x": -3.9200108261,
				"y": -0.6617858207,
				"z": 2.999693466,
				"element": "C" 
			},
			{
				"x": -2.5284171252,
				"y": -0.7025856335,
				"z": 3.1210891114,
				"element": "C" 
			},
			{
				"x": -1.4003990697,
				"y": 0.0818887685,
				"z": -0.3178233155,
				"element": "C" 
			},
			{
				"x": -1.6439425639,
				"y": 0.3545805828,
				"z": -1.4886760898,
				"element": "O" 
			},
			{
				"x": 5.296295475,
				"y": -0.0431468685,
				"z": -0.0406768699,
				"element": "H" 
			},
			{
				"x": 6.7090997311,
				"y": 0.4121161035,
				"z": -2.0672758329,
				"element": "H" 
			},
			{
				"x": 5.619732485,
				"y": 0.9225726907,
				"z": -4.2331953983,
				"element": "H" 
			},
			{
				"x": 3.1507577663,
				"y": 0.991737573,
				"z": -4.4341591051,
				"element": "H" 
			},
			{
				"x": -4.2090461581,
				"y": 0.1073501003,
				"z": -0.3174305006,
				"element": "H" 
			},
			{
				"x": -5.6218507223,
				"y": -0.3480006752,
				"z": 1.7091478409,
				"element": "H" 
			},
			{
				"x": -4.5324838038,
				"y": -0.8584386604,
				"z": 3.8750717229,
				"element": "H" 
			},
			{
				"x": -2.0635075206,
				"y": -0.9275018876,
				"z": 4.0760589829,
				"element": "H" 
			}
		],
		 "valence_orbital": [ 
			{
				"type": "occ",
				"energy": -0.27125,
				"method": "rhf"
			},
			{
				"type": "occ",
				"energy": -0.27119,
				"method": "rhf"
			},
			{
				"type": "occ",
				"energy": -0.26039,
				"method": "rhf"
			},
			{
				"type": "occ",
				"energy": -0.24121,
				"method": "rhf"
			},
			{
				"type": "occ",
				"energy": -0.21505,
				"method": "rhf"
			},
			{
				"type": "unocc",
				"energy": -0.11184,
				"method": "rhf"
			},
			{
				"type": "unocc",
				"energy": -0.05213,
				"method": "rhf"
			},
			{
				"type": "unocc",
				"energy": -0.01901,
				"method": "rhf"
			},
			{
				"type": "unocc",
				"energy": -0.0163,
				"method": "rhf"
			},
			{
				"type": "unocc",
				"energy": -0.00397,
				"method": "rhf"
			}
		],
		"cosmo_sigma_profile": { 
			"-0.025": 0.0,
			"-0.024": 0.0,
			"-0.023": 0.0,
			"-0.022": 0.0,
			"-0.021": 0.0,
			"-0.02": 0.0,
			"-0.019": 0.0,
			"-0.018": 0.0,
			"-0.017": 0.0,
			"-0.016": 0.0,
			"-0.015": 0.0,
			"-0.014": 0.0,
			"-0.013": 0.0,
			"-0.012": 0.0,
			"-0.011": 0.0,
			"-0.01": 0.0,
			"-0.009": 0.0,
			"-0.008": 3.9770246002,
			"-0.007": 15.7024236045,
			"-0.006": 17.1731852542,
			"-0.005": 20.9871490468,
			"-0.004": 17.040567034,
			"-0.003": 17.2953045146,
			"-0.002": 18.9210118771,
			"-0.001": 22.9311858038,
			"0.0": 24.4362934284,
			"0.001": 28.7641756625,
			"0.002": 31.6240610573,
			"0.003": 25.807786212,
			"0.004": 10.8896353935,
			"0.005": 8.72633179188,
			"0.006": 4.60173662497,
			"0.007": 4.51243629032,
			"0.008": 5.50563716204,
			"0.009": 4.75036205441,
			"0.01": 6.24934569247,
			"0.011": 5.21438562699,
			"0.012": 0.708321916862,
			"0.013": 0.0,
			"0.014": 0.0,
			"0.015": 0.0,
			"0.016": 0.0,
			"0.017": 0.0,
			"0.018": 0.0,
			"0.019": 0.0,
			"0.02": 0.0,
			"0.021": 0.0,
			"0.022": 0.0,
			"0.023": 0.0,
			"0.024": 0.0,
			"0.025": 0.0
		}
	}
}
