{
	 "smiles": "CC1=C(OC=C1)C(O)=O", 
	 "Tm": 408.15, 
	 "num_atms": 15, 
	 "gaussian": { 
		 "optdone": 1, 
		 "sigma_profile": "yes", 
		 "theory": "DFT", 
		 "functional": "B3LYP", 
		 "basiset": "6-31G**", 
		 "properties": { 
			 "R2extent": 1500.3145, 
			 "electric_dipole_moment_norm": 4.80233611902, 
			 "electric_quadrupole_moment_norm": 8.38430538327, 
			 "total_energy": -457.915304698, 
			 "HOMO_LUMO_gap": 0.20051, 
			 "cosmo_polarized_energy": -11.74, 
			 "cosmo_cavitation_energy": 19.62, 
			 "cosmo_dispersion_energy": -14.58, 
			 "cosmo_repulsion_energy": 1.2, 
			 "cosmo_total_nonelectrostatic_energy": 6.23, 
			 "SMD_solvation_energy": 5.68 
		},
		"coords": [
			{
				"x": 1.6042561064,
				"y": -0.4390914587,
				"z": -0.6983893359,
				"element": "C" 
			},
			{
				"x": 1.2636914536,
				"y": 0.7621917894,
				"z": 0.130289027,
				"element": "C" 
			},
			{
				"x": 0.050368473,
				"y": 1.4019956217,
				"z": 0.205598667,
				"element": "C" 
			},
			{
				"x": 0.1220033459,
				"y": 2.469851737,
				"z": 1.0752174535,
				"element": "O" 
			},
			{
				"x": 1.3932376312,
				"y": 2.5011425416,
				"z": 1.5507559807,
				"element": "C" 
			},
			{
				"x": 2.1295825873,
				"y": 1.4884944125,
				"z": 1.0114535486,
				"element": "C" 
			},
			{
				"x": -1.2310605712,
				"y": 1.1401688687,
				"z": -0.4559844802,
				"element": "C" 
			},
			{
				"x": -2.2422676244,
				"y": 1.9884254711,
				"z": -0.1423625517,
				"element": "O" 
			},
			{
				"x": -1.3915168118,
				"y": 0.2250736571,
				"z": -1.234713974,
				"element": "O" 
			},
			{
				"x": 2.6486759131,
				"y": -0.7267696918,
				"z": -0.5552808934,
				"element": "H" 
			},
			{
				"x": 0.9659926762,
				"y": -1.288313971,
				"z": -0.4377075485,
				"element": "H" 
			},
			{
				"x": 1.4354168765,
				"y": -0.2423782498,
				"z": -1.7610793868,
				"element": "H" 
			},
			{
				"x": 1.6169395477,
				"y": 3.2893999871,
				"z": 2.2531728164,
				"element": "H" 
			},
			{
				"x": 3.1701926517,
				"y": 1.274915899,
				"z": 1.2116706694,
				"element": "H" 
			},
			{
				"x": -1.9258122552,
				"y": 2.649893386,
				"z": 0.4926600081,
				"element": "H" 
			}
		],
		 "valence_orbital": [ 
			{
				"type": "occ",
				"energy": -0.37065,
				"method": "rhf"
			},
			{
				"type": "occ",
				"energy": -0.31226,
				"method": "rhf"
			},
			{
				"type": "occ",
				"energy": -0.2904,
				"method": "rhf"
			},
			{
				"type": "occ",
				"energy": -0.27292,
				"method": "rhf"
			},
			{
				"type": "occ",
				"energy": -0.24583,
				"method": "rhf"
			},
			{
				"type": "unocc",
				"energy": -0.04532,
				"method": "rhf"
			},
			{
				"type": "unocc",
				"energy": 0.03492,
				"method": "rhf"
			},
			{
				"type": "unocc",
				"energy": 0.0825,
				"method": "rhf"
			},
			{
				"type": "unocc",
				"energy": 0.09953,
				"method": "rhf"
			},
			{
				"type": "unocc",
				"energy": 0.11249,
				"method": "rhf"
			}
		],
		"cosmo_sigma_profile": { 
			"-0.025": 0.0,
			"-0.024": 0.0,
			"-0.023": 0.0,
			"-0.022": 0.0,
			"-0.021": 0.0,
			"-0.02": 0.0,
			"-0.019": 0.0,
			"-0.018": 0.0,
			"-0.017": 0.0476507844825,
			"-0.016": 0.50140340531,
			"-0.015": 0.628551803933,
			"-0.014": 0.981964153497,
			"-0.013": 0.501687338092,
			"-0.012": 0.645518244151,
			"-0.011": 0.858859587996,
			"-0.01": 2.83173525268,
			"-0.009": 2.41457214942,
			"-0.008": 4.03219524168,
			"-0.007": 4.32853065188,
			"-0.006": 5.26637005159,
			"-0.005": 9.40945858855,
			"-0.004": 9.40340713476,
			"-0.003": 10.7004406481,
			"-0.002": 9.90718295331,
			"-0.001": 15.8006410463,
			"0.0": 15.7598891101,
			"0.001": 12.2427264062,
			"0.002": 9.85351414615,
			"0.003": 7.4234787065,
			"0.004": 3.28266575516,
			"0.005": 1.92715184532,
			"0.006": 2.59274814571,
			"0.007": 3.03654624617,
			"0.008": 2.54166378832,
			"0.009": 3.05005742561,
			"0.01": 5.02862278828,
			"0.011": 4.18558634389,
			"0.012": 5.02269629827,
			"0.013": 2.25144561271,
			"0.014": 0.297351177877,
			"0.015": 0.0,
			"0.016": 0.0,
			"0.017": 0.0,
			"0.018": 0.0,
			"0.019": 0.0,
			"0.02": 0.0,
			"0.021": 0.0,
			"0.022": 0.0,
			"0.023": 0.0,
			"0.024": 0.0,
			"0.025": 0.0
		}
	}
}
