{
	 "smiles": "CN1C=CN=C1COC1=CC=C(C=C1)C(C)=O", 
	 "Tm": 380.15, 
	 "num_atms": 31, 
	 "gaussian": { 
		 "optdone": 1, 
		 "sigma_profile": "yes", 
		 "theory": "DFT", 
		 "functional": "B3LYP", 
		 "basiset": "6-31G**", 
		 "properties": { 
			 "R2extent": 5370.6753, 
			 "electric_dipole_moment_norm": 4.97919397995, 
			 "electric_quadrupole_moment_norm": 20.1428481283, 
			 "total_energy": -763.762250319, 
			 "HOMO_LUMO_gap": 0.18613, 
			 "cosmo_polarized_energy": -15.71, 
			 "cosmo_cavitation_energy": 35.09, 
			 "cosmo_dispersion_energy": -24.66, 
			 "cosmo_repulsion_energy": 1.9, 
			 "cosmo_total_nonelectrostatic_energy": 12.33, 
			 "SMD_solvation_energy": 5.93 
		},
		"coords": [
			{
				"x": 0.2798067507,
				"y": -3.6063515605,
				"z": 1.3759427555,
				"element": "C" 
			},
			{
				"x": -0.5271859538,
				"y": -3.3719352332,
				"z": 0.186753475,
				"element": "N" 
			},
			{
				"x": -0.4209251822,
				"y": -4.0468873405,
				"z": -1.0115837118,
				"element": "C" 
			},
			{
				"x": -1.3125645427,
				"y": -3.4433149868,
				"z": -1.8641550349,
				"element": "C" 
			},
			{
				"x": -1.9561011984,
				"y": -2.4099454811,
				"z": -1.2294500534,
				"element": "N" 
			},
			{
				"x": -1.4649939134,
				"y": -2.3877719163,
				"z": -0.0019077578,
				"element": "C" 
			},
			{
				"x": -1.8921562736,
				"y": -1.4263933369,
				"z": 1.0615491502,
				"element": "C" 
			},
			{
				"x": -0.8273883776,
				"y": -0.6208446896,
				"z": 1.5894579972,
				"element": "O" 
			},
			{
				"x": -0.3569455308,
				"y": 0.434722969,
				"z": 0.859312021,
				"element": "C" 
			},
			{
				"x": 0.5887797951,
				"y": 1.2394890225,
				"z": 1.5185569884,
				"element": "C" 
			},
			{
				"x": 1.1240934059,
				"y": 2.3435376122,
				"z": 0.8788024089,
				"element": "C" 
			},
			{
				"x": 0.7354594619,
				"y": 2.678908977,
				"z": -0.4318371322,
				"element": "C" 
			},
			{
				"x": -0.2043140785,
				"y": 1.8633705021,
				"z": -1.0757505105,
				"element": "C" 
			},
			{
				"x": -0.7536583411,
				"y": 0.7446121992,
				"z": -0.4483213162,
				"element": "C" 
			},
			{
				"x": 1.3475687392,
				"y": 3.8820643965,
				"z": -1.067938094,
				"element": "C" 
			},
			{
				"x": 0.9318545371,
				"y": 4.2571336516,
				"z": -2.4825585469,
				"element": "C" 
			},
			{
				"x": 2.1705246208,
				"y": 4.5599304761,
				"z": -0.4669383321,
				"element": "O" 
			},
			{
				"x": -0.304429965,
				"y": -3.3928710507,
				"z": 2.2727384705,
				"element": "H" 
			},
			{
				"x": 0.5850443877,
				"y": -4.6542419422,
				"z": 1.4001347025,
				"element": "H" 
			},
			{
				"x": 1.1694202328,
				"y": -2.9699313191,
				"z": 1.383232364,
				"element": "H" 
			},
			{
				"x": 0.2645905129,
				"y": -4.8713535415,
				"z": -1.1380998484,
				"element": "H" 
			},
			{
				"x": -1.5256499669,
				"y": -3.6973034046,
				"z": -2.8931486463,
				"element": "H" 
			},
			{
				"x": -2.2812137667,
				"y": -1.9494632877,
				"z": 1.9412091493,
				"element": "H" 
			},
			{
				"x": -2.6944228501,
				"y": -0.8063267979,
				"z": 0.65044415,
				"element": "H" 
			},
			{
				"x": 0.8754062565,
				"y": 0.9769078033,
				"z": 2.5318614489,
				"element": "H" 
			},
			{
				"x": 1.8519533018,
				"y": 2.9776546619,
				"z": 1.3738833748,
				"element": "H" 
			},
			{
				"x": -0.5196313889,
				"y": 2.0881492505,
				"z": -2.0897130003,
				"element": "H" 
			},
			{
				"x": -1.4521341395,
				"y": 0.1159000046,
				"z": -0.987305461,
				"element": "H" 
			},
			{
				"x": 1.1570791378,
				"y": 3.4489679751,
				"z": -3.1872285762,
				"element": "H" 
			},
			{
				"x": -0.1453154158,
				"y": 4.4488513454,
				"z": -2.5397179335,
				"element": "H" 
			},
			{
				"x": 1.4750497447,
				"y": 5.1553350414,
				"z": -2.7776245008,
				"element": "H" 
			}
		],
		 "valence_orbital": [ 
			{
				"type": "occ",
				"energy": -0.27436,
				"method": "rhf"
			},
			{
				"type": "occ",
				"energy": -0.25579,
				"method": "rhf"
			},
			{
				"type": "occ",
				"energy": -0.2377,
				"method": "rhf"
			},
			{
				"type": "occ",
				"energy": -0.23176,
				"method": "rhf"
			},
			{
				"type": "occ",
				"energy": -0.22737,
				"method": "rhf"
			},
			{
				"type": "unocc",
				"energy": -0.04124,
				"method": "rhf"
			},
			{
				"type": "unocc",
				"energy": -0.00486,
				"method": "rhf"
			},
			{
				"type": "unocc",
				"energy": 0.0074,
				"method": "rhf"
			},
			{
				"type": "unocc",
				"energy": 0.05404,
				"method": "rhf"
			},
			{
				"type": "unocc",
				"energy": 0.05657,
				"method": "rhf"
			}
		],
		"cosmo_sigma_profile": { 
			"-0.025": 0.0,
			"-0.024": 0.0,
			"-0.023": 0.0,
			"-0.022": 0.0,
			"-0.021": 0.0,
			"-0.02": 0.0,
			"-0.019": 0.0,
			"-0.018": 0.0,
			"-0.017": 0.0,
			"-0.016": 0.0,
			"-0.015": 0.0,
			"-0.014": 0.0,
			"-0.013": 0.0,
			"-0.012": 0.0,
			"-0.011": 0.0,
			"-0.01": 0.0,
			"-0.009": 0.663244381013,
			"-0.008": 5.77311144774,
			"-0.007": 10.2237208924,
			"-0.006": 21.3544052111,
			"-0.005": 23.8777454405,
			"-0.004": 23.7419452291,
			"-0.003": 25.3506503778,
			"-0.002": 16.0099711577,
			"-0.001": 19.4703636084,
			"0.0": 16.5840120226,
			"0.001": 13.950365639,
			"0.002": 17.4054149556,
			"0.003": 19.521907111,
			"0.004": 19.7125259371,
			"0.005": 9.07442733212,
			"0.006": 6.80976746185,
			"0.007": 4.78046678945,
			"0.008": 3.57878633197,
			"0.009": 3.26154320316,
			"0.01": 2.95527263401,
			"0.011": 3.32445317655,
			"0.012": 4.83687123234,
			"0.013": 4.01374570382,
			"0.014": 1.3333774307,
			"0.015": 0.514375314551,
			"0.016": 0.849703001143,
			"0.017": 0.59977767602,
			"0.018": 0.115358305151,
			"0.019": 0.0,
			"0.02": 0.0,
			"0.021": 0.0,
			"0.022": 0.0,
			"0.023": 0.0,
			"0.024": 0.0,
			"0.025": 0.0
		}
	}
}
