{
	 "smiles": "CC1=C(C)C(C#N)=C(N)O1", 
	 "Tm": 439.15, 
	 "num_atms": 18, 
	 "gaussian": { 
		 "optdone": 1, 
		 "sigma_profile": "yes", 
		 "theory": "DFT", 
		 "functional": "B3LYP", 
		 "basiset": "6-31G**", 
		 "properties": { 
			 "R2extent": 1760.4074, 
			 "electric_dipole_moment_norm": 4.5436204573, 
			 "electric_quadrupole_moment_norm": 17.8841390385, 
			 "total_energy": -456.271695102, 
			 "HOMO_LUMO_gap": 0.20134, 
			 "cosmo_polarized_energy": -13.08, 
			 "cosmo_cavitation_energy": 23.23, 
			 "cosmo_dispersion_energy": -16.32, 
			 "cosmo_repulsion_energy": 1.36, 
			 "cosmo_total_nonelectrostatic_energy": 8.27, 
			 "SMD_solvation_energy": 6.0 
		},
		"coords": [
			{
				"x": 1.8778013862,
				"y": -0.7188562546,
				"z": 0.5644984276,
				"element": "C" 
			},
			{
				"x": 0.4790227729,
				"y": -0.2213896053,
				"z": 0.4141048548,
				"element": "C" 
			},
			{
				"x": -0.1964012421,
				"y": 0.8729174851,
				"z": 0.8460549586,
				"element": "C" 
			},
			{
				"x": 0.3210474675,
				"y": 2.0048725167,
				"z": 1.6772043702,
				"element": "C" 
			},
			{
				"x": -1.5564741195,
				"y": 0.736887706,
				"z": 0.3449051685,
				"element": "C" 
			},
			{
				"x": -2.6583644136,
				"y": 1.5987486466,
				"z": 0.5378650344,
				"element": "C" 
			},
			{
				"x": -3.5836982358,
				"y": 2.2931005816,
				"z": 0.6900295332,
				"element": "N" 
			},
			{
				"x": -1.5838826701,
				"y": -0.4458795532,
				"z": -0.3657380539,
				"element": "C" 
			},
			{
				"x": -2.5579928908,
				"y": -1.0543821134,
				"z": -1.1126242403,
				"element": "N" 
			},
			{
				"x": -0.3765165749,
				"y": -1.0368947102,
				"z": -0.3368968893,
				"element": "O" 
			},
			{
				"x": 1.9848922987,
				"y": -1.6710727965,
				"z": 0.0396747704,
				"element": "H" 
			},
			{
				"x": 2.6088370168,
				"y": -0.0208604533,
				"z": 0.1411827633,
				"element": "H" 
			},
			{
				"x": 2.1457744474,
				"y": -0.8832578431,
				"z": 1.6143187989,
				"element": "H" 
			},
			{
				"x": 1.3749878728,
				"y": 1.8611482749,
				"z": 1.9290655942,
				"element": "H" 
			},
			{
				"x": 0.2269461482,
				"y": 2.9607648691,
				"z": 1.1495000167,
				"element": "H" 
			},
			{
				"x": -0.2404336658,
				"y": 2.1000112362,
				"z": 2.6135771246,
				"element": "H" 
			},
			{
				"x": -2.4775713166,
				"y": -2.0592968301,
				"z": -1.1900883944,
				"element": "H" 
			},
			{
				"x": -3.4971742811,
				"y": -0.7296611563,
				"z": -0.9275338375,
				"element": "H" 
			}
		],
		 "valence_orbital": [ 
			{
				"type": "occ",
				"energy": -0.34562,
				"method": "rhf"
			},
			{
				"type": "occ",
				"energy": -0.33122,
				"method": "rhf"
			},
			{
				"type": "occ",
				"energy": -0.31534,
				"method": "rhf"
			},
			{
				"type": "occ",
				"energy": -0.26364,
				"method": "rhf"
			},
			{
				"type": "occ",
				"energy": -0.19922,
				"method": "rhf"
			},
			{
				"type": "unocc",
				"energy": 0.00212,
				"method": "rhf"
			},
			{
				"type": "unocc",
				"energy": 0.02857,
				"method": "rhf"
			},
			{
				"type": "unocc",
				"energy": 0.03312,
				"method": "rhf"
			},
			{
				"type": "unocc",
				"energy": 0.07093,
				"method": "rhf"
			},
			{
				"type": "unocc",
				"energy": 0.09646,
				"method": "rhf"
			}
		],
		"cosmo_sigma_profile": { 
			"-0.025": 0.0,
			"-0.024": 0.0,
			"-0.023": 0.0,
			"-0.022": 0.0,
			"-0.021": 0.0,
			"-0.02": 0.0,
			"-0.019": 0.0,
			"-0.018": 0.0,
			"-0.017": 0.0,
			"-0.016": 0.0,
			"-0.015": 0.843218892437,
			"-0.014": 2.69123520679,
			"-0.013": 1.73818154021,
			"-0.012": 2.75521351712,
			"-0.011": 3.32891620404,
			"-0.01": 1.72631088426,
			"-0.009": 1.77923645564,
			"-0.008": 1.97597310734,
			"-0.007": 2.28368327568,
			"-0.006": 1.92650310963,
			"-0.005": 7.33188580796,
			"-0.004": 13.7597038682,
			"-0.003": 16.8319691856,
			"-0.002": 17.4724784255,
			"-0.001": 17.9273608991,
			"0.0": 15.1439411019,
			"0.001": 11.5174511911,
			"0.002": 13.0916216537,
			"0.003": 8.42604050452,
			"0.004": 7.76222399767,
			"0.005": 3.76967849881,
			"0.006": 4.31374150844,
			"0.007": 3.817275713,
			"0.008": 3.605301246,
			"0.009": 3.36783502788,
			"0.01": 4.10579130729,
			"0.011": 3.80623806298,
			"0.012": 3.38659811864,
			"0.013": 2.59014664053,
			"0.014": 1.81841220839,
			"0.015": 0.139538317648,
			"0.016": 0.0,
			"0.017": 0.0,
			"0.018": 0.0,
			"0.019": 0.0,
			"0.02": 0.0,
			"0.021": 0.0,
			"0.022": 0.0,
			"0.023": 0.0,
			"0.024": 0.0,
			"0.025": 0.0
		}
	}
}
