{
	 "smiles": "CC(N)CC1=CC(O)=CC=C1", 
	 "Tm": 319.15, 
	 "num_atms": 24, 
	 "gaussian": { 
		 "optdone": 1, 
		 "sigma_profile": "yes", 
		 "theory": "DFT", 
		 "functional": "B3LYP", 
		 "basiset": "6-31G**", 
		 "properties": { 
			 "R2extent": 2112.8429, 
			 "electric_dipole_moment_norm": 1.38622138924, 
			 "electric_quadrupole_moment_norm": 13.0732233577, 
			 "total_energy": -480.770660255, 
			 "HOMO_LUMO_gap": 0.21707, 
			 "cosmo_polarized_energy": -11.43, 
			 "cosmo_cavitation_energy": 26.34, 
			 "cosmo_dispersion_energy": -18.85, 
			 "cosmo_repulsion_energy": 1.53, 
			 "cosmo_total_nonelectrostatic_energy": 9.01, 
			 "SMD_solvation_energy": 3.48 
		},
		"coords": [
			{
				"x": 1.9030373496,
				"y": -1.007640368,
				"z": -1.4083080167,
				"element": "C" 
			},
			{
				"x": 1.7760756337,
				"y": 0.4554710965,
				"z": -0.9751688735,
				"element": "C" 
			},
			{
				"x": 2.489905175,
				"y": 0.6377317398,
				"z": 0.2922228826,
				"element": "N" 
			},
			{
				"x": 0.2955071327,
				"y": 0.9557329136,
				"z": -0.9765521532,
				"element": "C" 
			},
			{
				"x": -0.6166739714,
				"y": 0.2599676145,
				"z": 0.0090623635,
				"element": "C" 
			},
			{
				"x": -1.3863064843,
				"y": -0.8435709023,
				"z": -0.3856173328,
				"element": "C" 
			},
			{
				"x": -2.2074399449,
				"y": -1.511511634,
				"z": 0.5278046112,
				"element": "C" 
			},
			{
				"x": -2.9732347861,
				"y": -2.5873772514,
				"z": 0.1748029852,
				"element": "O" 
			},
			{
				"x": -2.2724911138,
				"y": -1.0844820265,
				"z": 1.8587600743,
				"element": "C" 
			},
			{
				"x": -1.5144948671,
				"y": 0.0136939302,
				"z": 2.2542148858,
				"element": "C" 
			},
			{
				"x": -0.6937680208,
				"y": 0.6847852227,
				"z": 1.3435607007,
				"element": "C" 
			},
			{
				"x": 2.9576135433,
				"y": -1.2914380424,
				"z": -1.4525776971,
				"element": "H" 
			},
			{
				"x": 1.4541853301,
				"y": -1.1702175948,
				"z": -2.3941944727,
				"element": "H" 
			},
			{
				"x": 1.4018088511,
				"y": -1.6741342225,
				"z": -0.6979061456,
				"element": "H" 
			},
			{
				"x": 2.3002236011,
				"y": 1.0720251366,
				"z": -1.7181267082,
				"element": "H" 
			},
			{
				"x": 2.0096536094,
				"y": 0.125865761,
				"z": 1.0306473496,
				"element": "H" 
			},
			{
				"x": 2.4711914455,
				"y": 1.6175110689,
				"z": 0.5679523196,
				"element": "H" 
			},
			{
				"x": 0.3076052146,
				"y": 2.0315089381,
				"z": -0.7597251771,
				"element": "H" 
			},
			{
				"x": -0.1056740754,
				"y": 0.8478994735,
				"z": -1.9922332064,
				"element": "H" 
			},
			{
				"x": -1.3490327589,
				"y": -1.1817281569,
				"z": -1.4201283449,
				"element": "H" 
			},
			{
				"x": -2.836767513,
				"y": -2.7778699882,
				"z": -0.7623239852,
				"element": "H" 
			},
			{
				"x": -2.9185197534,
				"y": -1.6129120137,
				"z": 2.5516958789,
				"element": "H" 
			},
			{
				"x": -1.569288235,
				"y": 0.3558949761,
				"z": 3.2839512629,
				"element": "H" 
			},
			{
				"x": -0.1256153618,
				"y": 1.5527943292,
				"z": 1.6650867992,
				"element": "H" 
			}
		],
		 "valence_orbital": [ 
			{
				"type": "occ",
				"energy": -0.32408,
				"method": "rhf"
			},
			{
				"type": "occ",
				"energy": -0.31968,
				"method": "rhf"
			},
			{
				"type": "occ",
				"energy": -0.25048,
				"method": "rhf"
			},
			{
				"type": "occ",
				"energy": -0.22696,
				"method": "rhf"
			},
			{
				"type": "occ",
				"energy": -0.22,
				"method": "rhf"
			},
			{
				"type": "unocc",
				"energy": -0.00293,
				"method": "rhf"
			},
			{
				"type": "unocc",
				"energy": 0.01153,
				"method": "rhf"
			},
			{
				"type": "unocc",
				"energy": 0.06967,
				"method": "rhf"
			},
			{
				"type": "unocc",
				"energy": 0.07658,
				"method": "rhf"
			},
			{
				"type": "unocc",
				"energy": 0.10975,
				"method": "rhf"
			}
		],
		"cosmo_sigma_profile": { 
			"-0.025": 0.0,
			"-0.024": 0.0,
			"-0.023": 0.0,
			"-0.022": 0.0,
			"-0.021": 0.0,
			"-0.02": 0.0,
			"-0.019": 0.0,
			"-0.018": 0.148454127681,
			"-0.017": 0.807064863538,
			"-0.016": 1.23423041598,
			"-0.015": 1.07112764835,
			"-0.014": 0.989475728446,
			"-0.013": 0.900398727615,
			"-0.012": 0.935602549803,
			"-0.011": 0.447660323086,
			"-0.01": 1.31591205337,
			"-0.009": 2.29152361821,
			"-0.008": 2.78960691649,
			"-0.007": 2.22021601054,
			"-0.006": 5.08811105892,
			"-0.005": 10.763769962,
			"-0.004": 14.8924477954,
			"-0.003": 21.0342895619,
			"-0.002": 20.5462376761,
			"-0.001": 16.0725240177,
			"0.0": 16.7260890513,
			"0.001": 16.2989396702,
			"0.002": 9.71462672214,
			"0.003": 9.79855306215,
			"0.004": 9.6021176724,
			"0.005": 11.0108127077,
			"0.006": 8.92962138266,
			"0.007": 4.19768645249,
			"0.008": 2.07259282671,
			"0.009": 2.11068433044,
			"0.01": 2.388160423,
			"0.011": 2.97987563554,
			"0.012": 1.97708264592,
			"0.013": 0.294067505447,
			"0.014": 0.548347312483,
			"0.015": 0.889169281494,
			"0.016": 0.720255617896,
			"0.017": 0.446447909281,
			"0.018": 0.322455047246,
			"0.019": 0.950365816799,
			"0.02": 0.140796788657,
			"0.021": 0.0,
			"0.022": 0.0,
			"0.023": 0.0,
			"0.024": 0.0,
			"0.025": 0.0
		}
	}
}
