{
	 "smiles": "CN(C)CCOC(C1=CC=CC=C1)C1=CC=CC=C1", 
	 "Tm": 441.15, 
	 "num_atms": 40, 
	 "gaussian": { 
		 "optdone": 1, 
		 "sigma_profile": "yes", 
		 "theory": "DFT", 
		 "functional": "B3LYP", 
		 "basiset": "6-31G**", 
		 "properties": { 
			 "R2extent": 6777.2481, 
			 "electric_dipole_moment_norm": 1.58119264165, 
			 "electric_quadrupole_moment_norm": 4.54991762233, 
			 "total_energy": -790.418846071, 
			 "HOMO_LUMO_gap": 0.19608, 
			 "cosmo_polarized_energy": -8.51, 
			 "cosmo_cavitation_energy": 42.35, 
			 "cosmo_dispersion_energy": -28.44, 
			 "cosmo_repulsion_energy": 2.24, 
			 "cosmo_total_nonelectrostatic_energy": 16.15, 
			 "SMD_solvation_energy": 4.72 
		},
		"coords": [
			{
				"x": -1.4499159949,
				"y": -1.6186339824,
				"z": -5.0904132607,
				"element": "C" 
			},
			{
				"x": -0.223151275,
				"y": -0.9036811767,
				"z": -4.7771739622,
				"element": "N" 
			},
			{
				"x": -0.182873092,
				"y": 0.4286012036,
				"z": -5.3590218958,
				"element": "C" 
			},
			{
				"x": 0.1802535644,
				"y": -0.9702890372,
				"z": -3.3783740778,
				"element": "C" 
			},
			{
				"x": -0.7308465933,
				"y": -0.2703099234,
				"z": -2.3572346388,
				"element": "C" 
			},
			{
				"x": -0.1413489422,
				"y": -0.4697860079,
				"z": -1.0796041302,
				"element": "O" 
			},
			{
				"x": -0.8750552012,
				"y": 0.0864285297,
				"z": 0.0047140833,
				"element": "C" 
			},
			{
				"x": -0.8199726138,
				"y": 1.6116224562,
				"z": -0.0047462594,
				"element": "C" 
			},
			{
				"x": 0.4184341392,
				"y": 2.2652403169,
				"z": -0.071456986,
				"element": "C" 
			},
			{
				"x": 0.4828364795,
				"y": 3.656806981,
				"z": -0.0786680986,
				"element": "C" 
			},
			{
				"x": -0.690314894,
				"y": 4.4158738247,
				"z": -0.0146191623,
				"element": "C" 
			},
			{
				"x": -1.9263866632,
				"y": 3.7738666241,
				"z": 0.0489875955,
				"element": "C" 
			},
			{
				"x": -1.9884180226,
				"y": 2.3771366169,
				"z": 0.0476492469,
				"element": "C" 
			},
			{
				"x": -0.3323300784,
				"y": -0.5101892914,
				"z": 1.30233927,
				"element": "C" 
			},
			{
				"x": -0.8275741562,
				"y": -0.0606965411,
				"z": 2.53424562,
				"element": "C" 
			},
			{
				"x": -0.3715902758,
				"y": -0.6156697453,
				"z": 3.728738055,
				"element": "C" 
			},
			{
				"x": 0.5933772508,
				"y": -1.6258662853,
				"z": 3.7100164268,
				"element": "C" 
			},
			{
				"x": 1.0919176126,
				"y": -2.0754485271,
				"z": 2.487739534,
				"element": "C" 
			},
			{
				"x": 0.6300647314,
				"y": -1.5247337496,
				"z": 1.2894245149,
				"element": "C" 
			},
			{
				"x": -1.4024808302,
				"y": -2.6315471275,
				"z": -4.6768864243,
				"element": "H" 
			},
			{
				"x": -2.3720001257,
				"y": -1.1394714298,
				"z": -4.7101019997,
				"element": "H" 
			},
			{
				"x": -1.5534567645,
				"y": -1.7047525504,
				"z": -6.178102772,
				"element": "H" 
			},
			{
				"x": -0.2784510657,
				"y": 0.352790865,
				"z": -6.448228339,
				"element": "H" 
			},
			{
				"x": -0.9800451377,
				"y": 1.1093832678,
				"z": -5.0056364272,
				"element": "H" 
			},
			{
				"x": 0.7814980529,
				"y": 0.8981734331,
				"z": -5.1387040884,
				"element": "H" 
			},
			{
				"x": 1.1834636955,
				"y": -0.5368672505,
				"z": -3.285724125,
				"element": "H" 
			},
			{
				"x": 0.2634071117,
				"y": -2.0256287719,
				"z": -3.0912944136,
				"element": "H" 
			},
			{
				"x": -0.8201779616,
				"y": 0.8022794867,
				"z": -2.5793438015,
				"element": "H" 
			},
			{
				"x": -1.7461181687,
				"y": -0.6986515178,
				"z": -2.3736835141,
				"element": "H" 
			},
			{
				"x": -1.9339187185,
				"y": -0.2126649744,
				"z": -0.0902188444,
				"element": "H" 
			},
			{
				"x": 1.326615242,
				"y": 1.6717538394,
				"z": -0.1209236786,
				"element": "H" 
			},
			{
				"x": 1.4481058512,
				"y": 4.1528241866,
				"z": -0.1311116136,
				"element": "H" 
			},
			{
				"x": -0.6383553546,
				"y": 5.5009332711,
				"z": -0.0173824395,
				"element": "H" 
			},
			{
				"x": -2.8427146242,
				"y": 4.3559666252,
				"z": 0.0921111151,
				"element": "H" 
			},
			{
				"x": -2.9546776197,
				"y": 1.8787757161,
				"z": 0.0851183374,
				"element": "H" 
			},
			{
				"x": -1.5678102953,
				"y": 0.7345129846,
				"z": 2.5587123472,
				"element": "H" 
			},
			{
				"x": -0.7666754307,
				"y": -0.2560560942,
				"z": 4.6748434932,
				"element": "H" 
			},
			{
				"x": 0.9523987551,
				"y": -2.0564821305,
				"z": 4.6405272475,
				"element": "H" 
			},
			{
				"x": 1.843277661,
				"y": -2.8601218345,
				"z": 2.462023651,
				"element": "H" 
			},
			{
				"x": 1.0107097527,
				"y": -1.8774222799,
				"z": 0.3386644147,
				"element": "H" 
			}
		],
		 "valence_orbital": [ 
			{
				"type": "occ",
				"energy": -0.25091,
				"method": "rhf"
			},
			{
				"type": "occ",
				"energy": -0.24619,
				"method": "rhf"
			},
			{
				"type": "occ",
				"energy": -0.24166,
				"method": "rhf"
			},
			{
				"type": "occ",
				"energy": -0.23318,
				"method": "rhf"
			},
			{
				"type": "occ",
				"energy": -0.20298,
				"method": "rhf"
			},
			{
				"type": "unocc",
				"energy": -0.0069,
				"method": "rhf"
			},
			{
				"type": "unocc",
				"energy": -0.005,
				"method": "rhf"
			},
			{
				"type": "unocc",
				"energy": 0.00423,
				"method": "rhf"
			},
			{
				"type": "unocc",
				"energy": 0.01214,
				"method": "rhf"
			},
			{
				"type": "unocc",
				"energy": 0.07871,
				"method": "rhf"
			}
		],
		"cosmo_sigma_profile": { 
			"-0.025": 0.0,
			"-0.024": 0.0,
			"-0.023": 0.0,
			"-0.022": 0.0,
			"-0.021": 0.0,
			"-0.02": 0.0,
			"-0.019": 0.0,
			"-0.018": 0.0,
			"-0.017": 0.0,
			"-0.016": 0.0,
			"-0.015": 0.0,
			"-0.014": 0.0,
			"-0.013": 0.0,
			"-0.012": 0.0,
			"-0.011": 0.0,
			"-0.01": 0.0,
			"-0.009": 0.0,
			"-0.008": 0.0,
			"-0.007": 0.0,
			"-0.006": 6.70087562998,
			"-0.005": 18.8319664858,
			"-0.004": 31.4934819802,
			"-0.003": 43.1065326476,
			"-0.002": 38.6716769352,
			"-0.001": 34.4420658468,
			"0.0": 34.3692109378,
			"0.001": 19.1046210987,
			"0.002": 18.4941344998,
			"0.003": 19.2867443268,
			"0.004": 20.2479281519,
			"0.005": 20.6061101679,
			"0.006": 17.2767609655,
			"0.007": 4.09840590578,
			"0.008": 1.7966600706,
			"0.009": 1.45279470778,
			"0.01": 0.455360009644,
			"0.011": 0.443141462382,
			"0.012": 0.801346155444,
			"0.013": 0.622406905622,
			"0.014": 0.529730714999,
			"0.015": 0.365019927292,
			"0.016": 0.336517069953,
			"0.017": 0.00523327656201,
			"0.018": 0.0,
			"0.019": 0.0,
			"0.02": 0.0,
			"0.021": 0.0,
			"0.022": 0.0,
			"0.023": 0.0,
			"0.024": 0.0,
			"0.025": 0.0
		}
	}
}
