{
	 "smiles": "COC(=O)C1=C(C=CC=C1)N1N=CC(Cl)=C(Cl)C1=O", 
	 "Tm": 399.15, 
	 "num_atms": 27, 
	 "gaussian": { 
		 "optdone": 1, 
		 "sigma_profile": "yes", 
		 "theory": "DFT", 
		 "functional": "B3LYP", 
		 "basiset": "6-31G**", 
		 "properties": { 
			 "R2extent": 6906.2241, 
			 "electric_dipole_moment_norm": 3.08003044628, 
			 "electric_quadrupole_moment_norm": 14.9096850336, 
			 "total_energy": -1717.62397348, 
			 "HOMO_LUMO_gap": 0.16165, 
			 "cosmo_polarized_energy": -14.25, 
			 "cosmo_cavitation_energy": 36.14, 
			 "cosmo_dispersion_energy": -25.47, 
			 "cosmo_repulsion_energy": 1.97, 
			 "cosmo_total_nonelectrostatic_energy": 12.64, 
			 "SMD_solvation_energy": 7.3 
		},
		"coords": [
			{
				"x": 3.3567307128,
				"y": 2.9924521561,
				"z": 1.5236369103,
				"element": "C" 
			},
			{
				"x": 2.2849777539,
				"y": 2.1258556713,
				"z": 1.93179916,
				"element": "O" 
			},
			{
				"x": 1.7579413422,
				"y": 1.3665673287,
				"z": 0.948880218,
				"element": "C" 
			},
			{
				"x": 2.1602264176,
				"y": 1.3880790494,
				"z": -0.196496474,
				"element": "O" 
			},
			{
				"x": 0.6659450604,
				"y": 0.4816043422,
				"z": 1.46152429,
				"element": "C" 
			},
			{
				"x": -0.2970480992,
				"y": -0.074084408,
				"z": 0.5998328075,
				"element": "C" 
			},
			{
				"x": -1.2475139084,
				"y": -0.9711142674,
				"z": 1.0827436436,
				"element": "C" 
			},
			{
				"x": -1.2553822544,
				"y": -1.3281251704,
				"z": 2.4303673622,
				"element": "C" 
			},
			{
				"x": -0.3207113095,
				"y": -0.7693867384,
				"z": 3.3012477858,
				"element": "C" 
			},
			{
				"x": 0.6273255367,
				"y": 0.1299996167,
				"z": 2.8173868882,
				"element": "C" 
			},
			{
				"x": -0.3521249783,
				"y": 0.2588015308,
				"z": -0.8010110336,
				"element": "N" 
			},
			{
				"x": -0.2226421005,
				"y": -0.7892453554,
				"z": -1.6314343298,
				"element": "N" 
			},
			{
				"x": -0.2800948745,
				"y": -0.5686046546,
				"z": -2.9130513437,
				"element": "C" 
			},
			{
				"x": -0.4775151099,
				"y": 0.7320199257,
				"z": -3.4724173002,
				"element": "C" 
			},
			{
				"x": -0.5206462165,
				"y": 0.8715075759,
				"z": -5.2033504373,
				"element": "Cl" 
			},
			{
				"x": -0.6290560051,
				"y": 1.7974024946,
				"z": -2.6332083672,
				"element": "C" 
			},
			{
				"x": -0.8904974626,
				"y": 3.4093907617,
				"z": -3.1776055647,
				"element": "Cl" 
			},
			{
				"x": -0.5805348841,
				"y": 1.6055650217,
				"z": -1.1772171599,
				"element": "C" 
			},
			{
				"x": -0.7306782646,
				"y": 2.4854936596,
				"z": -0.3474368443,
				"element": "O" 
			},
			{
				"x": 4.1927445119,
				"y": 2.4108892243,
				"z": 1.1271142221,
				"element": "H" 
			},
			{
				"x": 3.6547864202,
				"y": 3.5317562873,
				"z": 2.4224274142,
				"element": "H" 
			},
			{
				"x": 3.0109585713,
				"y": 3.6864512472,
				"z": 0.7541995106,
				"element": "H" 
			},
			{
				"x": -1.9759846311,
				"y": -1.3824380874,
				"z": 0.3927315948,
				"element": "H" 
			},
			{
				"x": -1.9967983461,
				"y": -2.0317356563,
				"z": 2.7962322738,
				"element": "H" 
			},
			{
				"x": -0.3264369082,
				"y": -1.033430507,
				"z": 4.3541889658,
				"element": "H" 
			},
			{
				"x": 1.3622505443,
				"y": 0.5632841992,
				"z": 3.4850769757,
				"element": "H" 
			},
			{
				"x": -0.1684215183,
				"y": -1.4318552476,
				"z": -3.5594611676,
				"element": "H" 
			}
		],
		 "valence_orbital": [ 
			{
				"type": "occ",
				"energy": -0.27936,
				"method": "rhf"
			},
			{
				"type": "occ",
				"energy": -0.27306,
				"method": "rhf"
			},
			{
				"type": "occ",
				"energy": -0.26962,
				"method": "rhf"
			},
			{
				"type": "occ",
				"energy": -0.26317,
				"method": "rhf"
			},
			{
				"type": "occ",
				"energy": -0.24064,
				"method": "rhf"
			},
			{
				"type": "unocc",
				"energy": -0.07899,
				"method": "rhf"
			},
			{
				"type": "unocc",
				"energy": -0.04932,
				"method": "rhf"
			},
			{
				"type": "unocc",
				"energy": -0.02493,
				"method": "rhf"
			},
			{
				"type": "unocc",
				"energy": -0.01103,
				"method": "rhf"
			},
			{
				"type": "unocc",
				"energy": -0.0061,
				"method": "rhf"
			}
		],
		"cosmo_sigma_profile": { 
			"-0.025": 0.0,
			"-0.024": 0.0,
			"-0.023": 0.0,
			"-0.022": 0.0,
			"-0.021": 0.0,
			"-0.02": 0.0,
			"-0.019": 0.0,
			"-0.018": 0.0,
			"-0.017": 0.0,
			"-0.016": 0.0,
			"-0.015": 0.0,
			"-0.014": 0.0,
			"-0.013": 0.0,
			"-0.012": 0.0,
			"-0.011": 0.0142159069887,
			"-0.01": 1.2499593972,
			"-0.009": 1.93926463311,
			"-0.008": 2.70657702374,
			"-0.007": 10.9775493064,
			"-0.006": 17.9333352989,
			"-0.005": 18.7776742547,
			"-0.004": 23.6023780811,
			"-0.003": 26.3996097818,
			"-0.002": 20.2978810515,
			"-0.001": 19.7871800138,
			"0.0": 18.8795059452,
			"0.001": 22.9579520496,
			"0.002": 31.9475219098,
			"0.003": 23.843778536,
			"0.004": 10.3756252361,
			"0.005": 5.95726234656,
			"0.006": 6.95952631144,
			"0.007": 6.28261874549,
			"0.008": 3.29047133841,
			"0.009": 4.83169553074,
			"0.01": 4.89704408939,
			"0.011": 5.68273620695,
			"0.012": 4.81160213274,
			"0.013": 0.971207215216,
			"0.014": 0.0,
			"0.015": 0.0,
			"0.016": 0.0,
			"0.017": 0.0,
			"0.018": 0.0,
			"0.019": 0.0,
			"0.02": 0.0,
			"0.021": 0.0,
			"0.022": 0.0,
			"0.023": 0.0,
			"0.024": 0.0,
			"0.025": 0.0
		}
	}
}
