{
	 "smiles": "COC(=O)C1=CC=C(I)C(C)=C1", 
	 "Tm": 334.15, 
	 "num_atms": 21, 
	 "gaussian": { 
		 "optdone": 1, 
		 "sigma_profile": "no", 
		 "theory": "DFT", 
		 "functional": "B3LYP", 
		 "basiset": "6-31G**", 
		 "properties": { 
			 "R2extent": 2921.4533, 
			 "electric_dipole_moment_norm": 2.26294453092, 
			 "electric_quadrupole_moment_norm": 7.72899041725, 
			 "total_energy": -510.233594405, 
			 "HOMO_LUMO_gap": 0.19064, 
			 "cosmo_polarized_energy": -89278.56, 
			 "cosmo_cavitation_energy": 28.29, 
			 "cosmo_dispersion_energy": -21.98, 
			 "cosmo_repulsion_energy": 1.71, 
			 "cosmo_total_nonelectrostatic_energy": 8.03, 
			 "SMD_solvation_energy": 5.65 
		},
		"coords": [
			{
				"x": 3.0894002455,
				"y": 1.2983570023,
				"z": 2.0870971335,
				"element": "C" 
			},
			{
				"x": 1.9156452132,
				"y": 0.795745892,
				"z": 1.4298320011,
				"element": "O" 
			},
			{
				"x": 0.744848577,
				"y": 1.3091530993,
				"z": 1.8716777723,
				"element": "C" 
			},
			{
				"x": 0.675306024,
				"y": 2.1367533928,
				"z": 2.7594741255,
				"element": "O" 
			},
			{
				"x": -0.4334010794,
				"y": 0.7486155776,
				"z": 1.1509395133,
				"element": "C" 
			},
			{
				"x": -1.7037026003,
				"y": 1.2037970298,
				"z": 1.5195401162,
				"element": "C" 
			},
			{
				"x": -2.8306393168,
				"y": 0.7074091924,
				"z": 0.8731041519,
				"element": "C" 
			},
			{
				"x": -2.6835057736,
				"y": -0.2434938998,
				"z": -0.1408909848,
				"element": "C" 
			},
			{
				"x": -4.4564910371,
				"y": -0.9509875465,
				"z": -1.0788781757,
				"element": "I" 
			},
			{
				"x": -1.4228784576,
				"y": -0.7237184693,
				"z": -0.5373922086,
				"element": "C" 
			},
			{
				"x": -1.2331766449,
				"y": -1.7483505434,
				"z": -1.6267926873,
				"element": "C" 
			},
			{
				"x": -0.3080165277,
				"y": -0.2034722261,
				"z": 0.1336672173,
				"element": "C" 
			},
			{
				"x": 3.9305955891,
				"y": 0.7887191047,
				"z": 1.6176450268,
				"element": "H" 
			},
			{
				"x": 3.0550030076,
				"y": 1.0786454057,
				"z": 3.1571434275,
				"element": "H" 
			},
			{
				"x": 3.171738183,
				"y": 2.3799553352,
				"z": 1.9535973735,
				"element": "H" 
			},
			{
				"x": -1.7912611926,
				"y": 1.9419677895,
				"z": 2.3092613263,
				"element": "H" 
			},
			{
				"x": -3.817846862,
				"y": 1.0559576263,
				"z": 1.153973909,
				"element": "H" 
			},
			{
				"x": -1.7519597584,
				"y": -2.683606174,
				"z": -1.390168023,
				"element": "H" 
			},
			{
				"x": -0.1724847727,
				"y": -1.9713127604,
				"z": -1.7644729314,
				"element": "H" 
			},
			{
				"x": -1.6357573028,
				"y": -1.3947691238,
				"z": -2.5821633959,
				"element": "H" 
			},
			{
				"x": 0.6811844865,
				"y": -0.5499657041,
				"z": -0.1446946874,
				"element": "H" 
			}
		],
		 "valence_orbital": [ 
			{
				"type": "occ",
				"energy": -0.29924,
				"method": "rhf"
			},
			{
				"type": "occ",
				"energy": -0.27787,
				"method": "rhf"
			},
			{
				"type": "occ",
				"energy": -0.27088,
				"method": "rhf"
			},
			{
				"type": "occ",
				"energy": -0.26196,
				"method": "rhf"
			},
			{
				"type": "occ",
				"energy": -0.24504,
				"method": "rhf"
			},
			{
				"type": "unocc",
				"energy": -0.0544,
				"method": "rhf"
			},
			{
				"type": "unocc",
				"energy": -0.04093,
				"method": "rhf"
			},
			{
				"type": "unocc",
				"energy": -0.01613,
				"method": "rhf"
			},
			{
				"type": "unocc",
				"energy": 0.03844,
				"method": "rhf"
			},
			{
				"type": "unocc",
				"energy": 0.04275,
				"method": "rhf"
			}
		],
		"cosmo_sigma_profile": { 
			"0.0": 0.0,
			"0.0": 0.0,
			"0.0": 0.0,
			"0.0": 0.0,
			"0.0": 0.0,
			"0.0": 0.0,
			"0.0": 0.0,
			"0.0": 0.0,
			"0.0": 0.0,
			"0.0": 0.0,
			"0.0": 0.0,
			"0.0": 0.0,
			"0.0": 0.0,
			"0.0": 0.0,
			"0.0": 0.0,
			"0.0": 0.0,
			"0.0": 0.0,
			"0.0": 0.0,
			"0.0": 0.0,
			"0.0": 0.0,
			"0.0": 0.0,
			"0.0": 0.0,
			"0.0": 0.0,
			"0.0": 0.0,
			"0.0": 0.0,
			"0.0": 0.0,
			"0.0": 0.0,
			"0.0": 0.0,
			"0.0": 0.0,
			"0.0": 0.0,
			"0.0": 0.0,
			"0.0": 0.0,
			"0.0": 0.0,
			"0.0": 0.0,
			"0.0": 0.0,
			"0.0": 0.0,
			"0.0": 0.0,
			"0.0": 0.0,
			"0.0": 0.0,
			"0.0": 0.0,
			"0.0": 0.0,
			"0.0": 0.0,
			"0.0": 0.0,
			"0.0": 0.0,
			"0.0": 0.0,
			"0.0": 0.0,
			"0.0": 0.0,
			"0.0": 0.0,
			"0.0": 0.0,
			"0.0": 0.0,
			"0.0": 0.0
		}
	}
}
