{
	 "smiles": "CC1=CC=C(C=C1I)C(O)=O", 
	 "Tm": 481.15, 
	 "num_atms": 18, 
	 "gaussian": { 
		 "optdone": 1, 
		 "sigma_profile": "no", 
		 "theory": "DFT", 
		 "functional": "B3LYP", 
		 "basiset": "6-31G**", 
		 "properties": { 
			 "R2extent": 2937.4272, 
			 "electric_dipole_moment_norm": 5.29614392742, 
			 "electric_quadrupole_moment_norm": 19.2038015914, 
			 "total_energy": -470.917096104, 
			 "HOMO_LUMO_gap": 0.19423, 
			 "cosmo_polarized_energy": -85489.63, 
			 "cosmo_cavitation_energy": 25.39, 
			 "cosmo_dispersion_energy": -19.99, 
			 "cosmo_repulsion_energy": 1.56, 
			 "cosmo_total_nonelectrostatic_energy": 6.96, 
			 "SMD_solvation_energy": 4.72 
		},
		"coords": [
			{
				"x": -0.6223821645,
				"y": 2.3532375049,
				"z": -0.0796012375,
				"element": "C" 
			},
			{
				"x": -0.02036312,
				"y": 1.1999043398,
				"z": 0.6786963033,
				"element": "C" 
			},
			{
				"x": -0.5210787681,
				"y": 0.8536756163,
				"z": 1.9431039071,
				"element": "C" 
			},
			{
				"x": 0.0079406277,
				"y": -0.1992462889,
				"z": 2.6839381981,
				"element": "C" 
			},
			{
				"x": 1.0705157849,
				"y": -0.9524658182,
				"z": 2.1718894463,
				"element": "C" 
			},
			{
				"x": 1.5739972634,
				"y": -0.643479943,
				"z": 0.9020613757,
				"element": "C" 
			},
			{
				"x": 1.0401351276,
				"y": 0.4193526045,
				"z": 0.1801826046,
				"element": "C" 
			},
			{
				"x": 1.88543799,
				"y": 0.827993729,
				"z": -1.7277491031,
				"element": "I" 
			},
			{
				"x": 1.6886723818,
				"y": -2.1131077363,
				"z": 2.8935805527,
				"element": "C" 
			},
			{
				"x": 1.4987981062,
				"y": -2.1658394155,
				"z": 4.2392282868,
				"element": "O" 
			},
			{
				"x": 2.3279519925,
				"y": -2.9745909114,
				"z": 2.3382941366,
				"element": "O" 
			},
			{
				"x": -1.4296882369,
				"y": 2.8154026836,
				"z": 0.4934119704,
				"element": "H" 
			},
			{
				"x": -1.0278273147,
				"y": 2.0261112153,
				"z": -1.0430900494,
				"element": "H" 
			},
			{
				"x": 0.1286833514,
				"y": 3.120379448,
				"z": -0.2966517978,
				"element": "H" 
			},
			{
				"x": -1.3520443891,
				"y": 1.4253454189,
				"z": 2.3464424847,
				"element": "H" 
			},
			{
				"x": -0.445428244,
				"y": -0.4459590096,
				"z": 3.640768226,
				"element": "H" 
			},
			{
				"x": 2.3802577113,
				"y": -1.2492789224,
				"z": 0.5063349346,
				"element": "H" 
			},
			{
				"x": 1.1234219006,
				"y": -1.3337345149,
				"z": 4.5584597609,
				"element": "H" 
			}
		],
		 "valence_orbital": [ 
			{
				"type": "occ",
				"energy": -0.30992,
				"method": "rhf"
			},
			{
				"type": "occ",
				"energy": -0.28253,
				"method": "rhf"
			},
			{
				"type": "occ",
				"energy": -0.2745,
				"method": "rhf"
			},
			{
				"type": "occ",
				"energy": -0.26875,
				"method": "rhf"
			},
			{
				"type": "occ",
				"energy": -0.25299,
				"method": "rhf"
			},
			{
				"type": "unocc",
				"energy": -0.05876,
				"method": "rhf"
			},
			{
				"type": "unocc",
				"energy": -0.04582,
				"method": "rhf"
			},
			{
				"type": "unocc",
				"energy": -0.0345,
				"method": "rhf"
			},
			{
				"type": "unocc",
				"energy": 0.03679,
				"method": "rhf"
			},
			{
				"type": "unocc",
				"energy": 0.03968,
				"method": "rhf"
			}
		],
		"cosmo_sigma_profile": { 
			"0.0": 0.0,
			"0.0": 0.0,
			"0.0": 0.0,
			"0.0": 0.0,
			"0.0": 0.0,
			"0.0": 0.0,
			"0.0": 0.0,
			"0.0": 0.0,
			"0.0": 0.0,
			"0.0": 0.0,
			"0.0": 0.0,
			"0.0": 0.0,
			"0.0": 0.0,
			"0.0": 0.0,
			"0.0": 0.0,
			"0.0": 0.0,
			"0.0": 0.0,
			"0.0": 0.0,
			"0.0": 0.0,
			"0.0": 0.0,
			"0.0": 0.0,
			"0.0": 0.0,
			"0.0": 0.0,
			"0.0": 0.0,
			"0.0": 0.0,
			"0.0": 0.0,
			"0.0": 0.0,
			"0.0": 0.0,
			"0.0": 0.0,
			"0.0": 0.0,
			"0.0": 0.0,
			"0.0": 0.0,
			"0.0": 0.0,
			"0.0": 0.0,
			"0.0": 0.0,
			"0.0": 0.0,
			"0.0": 0.0,
			"0.0": 0.0,
			"0.0": 0.0,
			"0.0": 0.0,
			"0.0": 0.0,
			"0.0": 0.0,
			"0.0": 0.0,
			"0.0": 0.0,
			"0.0": 0.0,
			"0.0": 0.0,
			"0.0": 0.0,
			"0.0": 0.0,
			"0.0": 0.0,
			"0.0": 0.0,
			"0.0": 0.0
		}
	}
}
