{
	 "smiles": "CC1=C(Cl)N=C2C=CC=CC2=N1", 
	 "Tm": 346.15, 
	 "num_atms": 19, 
	 "gaussian": { 
		 "optdone": 1, 
		 "sigma_profile": "yes", 
		 "theory": "DFT", 
		 "functional": "B3LYP", 
		 "basiset": "6-31G**", 
		 "properties": { 
			 "R2extent": 2662.7694, 
			 "electric_dipole_moment_norm": 1.98435198995, 
			 "electric_quadrupole_moment_norm": 7.50268197047, 
			 "total_energy": -916.882267272, 
			 "HOMO_LUMO_gap": 0.17554, 
			 "cosmo_polarized_energy": -6.22, 
			 "cosmo_cavitation_energy": 24.92, 
			 "cosmo_dispersion_energy": -18.87, 
			 "cosmo_repulsion_energy": 1.49, 
			 "cosmo_total_nonelectrostatic_energy": 7.54, 
			 "SMD_solvation_energy": 1.03 
		},
		"coords": [
			{
				"x": -3.4284209364,
				"y": -0.8839197635,
				"z": -0.9734892716,
				"element": "C" 
			},
			{
				"x": -2.1644259313,
				"y": -0.2932679285,
				"z": -0.4170614694,
				"element": "C" 
			},
			{
				"x": -1.0560687271,
				"y": 0.0900525642,
				"z": -1.2541417461,
				"element": "C" 
			},
			{
				"x": -1.1960139112,
				"y": -0.1465454491,
				"z": -2.9988251098,
				"element": "Cl" 
			},
			{
				"x": 0.050662254,
				"y": 0.6022889304,
				"z": -0.8157610603,
				"element": "N" 
			},
			{
				"x": 0.1569816411,
				"y": 0.784380298,
				"z": 0.5339631803,
				"element": "C" 
			},
			{
				"x": 1.338346876,
				"y": 1.3393986089,
				"z": 1.0830297778,
				"element": "C" 
			},
			{
				"x": 1.4353467247,
				"y": 1.5188829268,
				"z": 2.4461929536,
				"element": "C" 
			},
			{
				"x": 0.3657517477,
				"y": 1.1538882886,
				"z": 3.3025109962,
				"element": "C" 
			},
			{
				"x": -0.7931633792,
				"y": 0.6120504808,
				"z": 2.7896718291,
				"element": "C" 
			},
			{
				"x": -0.9205555648,
				"y": 0.4162112863,
				"z": 1.3920422156,
				"element": "C" 
			},
			{
				"x": -2.0684858507,
				"y": -0.1204369537,
				"z": 0.8847710548,
				"element": "N" 
			},
			{
				"x": -4.1134968069,
				"y": -1.0897759599,
				"z": -0.15037091,
				"element": "H" 
			},
			{
				"x": -3.2250672262,
				"y": -1.8118830062,
				"z": -1.5183685743,
				"element": "H" 
			},
			{
				"x": -3.9064479089,
				"y": -0.1993595853,
				"z": -1.6821742187,
				"element": "H" 
			},
			{
				"x": 2.1413110656,
				"y": 1.6098397687,
				"z": 0.4052386385,
				"element": "H" 
			},
			{
				"x": 2.3383896633,
				"y": 1.9439434638,
				"z": 2.873999757,
				"element": "H" 
			},
			{
				"x": 0.4662994962,
				"y": 1.305148493,
				"z": 4.3731346179,
				"element": "H" 
			},
			{
				"x": -1.6257432258,
				"y": 0.3246035366,
				"z": 3.4234373392,
				"element": "H" 
			}
		],
		 "valence_orbital": [ 
			{
				"type": "occ",
				"energy": -0.32221,
				"method": "rhf"
			},
			{
				"type": "occ",
				"energy": -0.30533,
				"method": "rhf"
			},
			{
				"type": "occ",
				"energy": -0.25989,
				"method": "rhf"
			},
			{
				"type": "occ",
				"energy": -0.25618,
				"method": "rhf"
			},
			{
				"type": "occ",
				"energy": -0.25024,
				"method": "rhf"
			},
			{
				"type": "unocc",
				"energy": -0.0747,
				"method": "rhf"
			},
			{
				"type": "unocc",
				"energy": -0.03196,
				"method": "rhf"
			},
			{
				"type": "unocc",
				"energy": 0.00283,
				"method": "rhf"
			},
			{
				"type": "unocc",
				"energy": 0.03105,
				"method": "rhf"
			},
			{
				"type": "unocc",
				"energy": 0.0681,
				"method": "rhf"
			}
		],
		"cosmo_sigma_profile": { 
			"-0.025": 0.0,
			"-0.024": 0.0,
			"-0.023": 0.0,
			"-0.022": 0.0,
			"-0.021": 0.0,
			"-0.02": 0.0,
			"-0.019": 0.0,
			"-0.018": 0.0,
			"-0.017": 0.0,
			"-0.016": 0.0,
			"-0.015": 0.0,
			"-0.014": 0.0,
			"-0.013": 0.0,
			"-0.012": 0.0,
			"-0.011": 0.0,
			"-0.01": 0.0,
			"-0.009": 0.0,
			"-0.008": 0.00914208892437,
			"-0.007": 4.45750212709,
			"-0.006": 9.39194021294,
			"-0.005": 14.8271359974,
			"-0.004": 16.8076388062,
			"-0.003": 15.49137928,
			"-0.002": 16.6573168564,
			"-0.001": 18.7986163596,
			"0.0": 16.7464578387,
			"0.001": 17.3030994677,
			"0.002": 20.7632025955,
			"0.003": 18.7478564692,
			"0.004": 11.1751628524,
			"0.005": 5.50165499296,
			"0.006": 3.45427715355,
			"0.007": 3.08148094376,
			"0.008": 1.98113871299,
			"0.009": 1.88899385237,
			"0.01": 0.975118146877,
			"0.011": 1.67639345835,
			"0.012": 2.02326227916,
			"0.013": 0.867756829308,
			"0.014": 0.0610567955235,
			"0.015": 0.0,
			"0.016": 0.0,
			"0.017": 0.0,
			"0.018": 0.0,
			"0.019": 0.0,
			"0.02": 0.0,
			"0.021": 0.0,
			"0.022": 0.0,
			"0.023": 0.0,
			"0.024": 0.0,
			"0.025": 0.0
		}
	}
}
