{
	 "smiles": "O=C1NC=C(N2CCOCC2)C(=O)N1", 
	 "Tm": 578.15, 
	 "num_atms": 25, 
	 "gaussian": { 
		 "optdone": 1, 
		 "sigma_profile": "yes", 
		 "theory": "DFT", 
		 "functional": "B3LYP", 
		 "basiset": "6-31G**", 
		 "properties": { 
			 "R2extent": 3701.1549, 
			 "electric_dipole_moment_norm": 3.51024313403, 
			 "electric_quadrupole_moment_norm": 21.3309279147, 
			 "total_energy": -701.405597923, 
			 "HOMO_LUMO_gap": 0.16437, 
			 "cosmo_polarized_energy": -19.48, 
			 "cosmo_cavitation_energy": 27.61, 
			 "cosmo_dispersion_energy": -21.02, 
			 "cosmo_repulsion_energy": 1.65, 
			 "cosmo_total_nonelectrostatic_energy": 8.24, 
			 "SMD_solvation_energy": 5.1 
		},
		"coords": [
			{
				"x": 0.4959872696,
				"y": -2.3501876495,
				"z": 4.068408287,
				"element": "O" 
			},
			{
				"x": 0.309348162,
				"y": -2.0546686992,
				"z": 2.8997447569,
				"element": "C" 
			},
			{
				"x": -0.79625949,
				"y": -2.4356720413,
				"z": 2.17103913,
				"element": "N" 
			},
			{
				"x": -1.0183535989,
				"y": -2.0941227289,
				"z": 0.8426170324,
				"element": "C" 
			},
			{
				"x": -0.1207465248,
				"y": -1.3684698221,
				"z": 0.1156753687,
				"element": "C" 
			},
			{
				"x": -0.2522537586,
				"y": -1.1155149932,
				"z": -1.2475790075,
				"element": "N" 
			},
			{
				"x": -1.3401173204,
				"y": -1.7788388518,
				"z": -1.9549611958,
				"element": "C" 
			},
			{
				"x": -1.290789991,
				"y": -1.4082593273,
				"z": -3.433393582,
				"element": "C" 
			},
			{
				"x": -1.4888769369,
				"y": -0.0161842909,
				"z": -3.650774253,
				"element": "O" 
			},
			{
				"x": -0.9958858098,
				"y": 0.8133896563,
				"z": -2.5984122968,
				"element": "C" 
			},
			{
				"x": 0.161312653,
				"y": 0.1789317984,
				"z": -1.8310908945,
				"element": "C" 
			},
			{
				"x": 1.1240515189,
				"y": -0.938981671,
				"z": 0.7937191498,
				"element": "C" 
			},
			{
				"x": 2.0430454911,
				"y": -0.322477572,
				"z": 0.2714081585,
				"element": "O" 
			},
			{
				"x": 1.1961478229,
				"y": -1.2923527316,
				"z": 2.144981142,
				"element": "N" 
			},
			{
				"x": -1.4657753103,
				"y": -3.0003345454,
				"z": 2.671897938,
				"element": "H" 
			},
			{
				"x": -1.9469306246,
				"y": -2.4636838298,
				"z": 0.4310208776,
				"element": "H" 
			},
			{
				"x": -1.2382005717,
				"y": -2.8665468227,
				"z": -1.8381658747,
				"element": "H" 
			},
			{
				"x": -2.333447152,
				"y": -1.5009224035,
				"z": -1.5554981048,
				"element": "H" 
			},
			{
				"x": -2.0864942084,
				"y": -1.930897008,
				"z": -3.9738487482,
				"element": "H" 
			},
			{
				"x": -0.3273638255,
				"y": -1.7332647221,
				"z": -3.8554570078,
				"element": "H" 
			},
			{
				"x": -1.8127008529,
				"y": 1.0560839726,
				"z": -1.9003718922,
				"element": "H" 
			},
			{
				"x": -0.6644750653,
				"y": 1.7502367779,
				"z": -3.0594751412,
				"element": "H" 
			},
			{
				"x": 0.4934645687,
				"y": 0.8536991167,
				"z": -1.0439026179,
				"element": "H" 
			},
			{
				"x": 1.0168226014,
				"y": 0.0312922808,
				"z": -2.5007991924,
				"element": "H" 
			},
			{
				"x": 2.0442909535,
				"y": -1.0122538926,
				"z": 2.6226179678,
				"element": "H" 
			}
		],
		 "valence_orbital": [ 
			{
				"type": "occ",
				"energy": -0.28592,
				"method": "rhf"
			},
			{
				"type": "occ",
				"energy": -0.28278,
				"method": "rhf"
			},
			{
				"type": "occ",
				"energy": -0.26394,
				"method": "rhf"
			},
			{
				"type": "occ",
				"energy": -0.25395,
				"method": "rhf"
			},
			{
				"type": "occ",
				"energy": -0.19808,
				"method": "rhf"
			},
			{
				"type": "unocc",
				"energy": -0.03371,
				"method": "rhf"
			},
			{
				"type": "unocc",
				"energy": 0.01865,
				"method": "rhf"
			},
			{
				"type": "unocc",
				"energy": 0.05881,
				"method": "rhf"
			},
			{
				"type": "unocc",
				"energy": 0.07715,
				"method": "rhf"
			},
			{
				"type": "unocc",
				"energy": 0.10376,
				"method": "rhf"
			}
		],
		"cosmo_sigma_profile": { 
			"-0.025": 0.0,
			"-0.024": 0.0,
			"-0.023": 0.0,
			"-0.022": 0.0,
			"-0.021": 0.0,
			"-0.02": 0.0,
			"-0.019": 0.0,
			"-0.018": 0.0,
			"-0.017": 0.245230778252,
			"-0.016": 1.71137456545,
			"-0.015": 2.17518936761,
			"-0.014": 2.09903694251,
			"-0.013": 1.53847027267,
			"-0.012": 1.77298629583,
			"-0.011": 2.59922912574,
			"-0.01": 1.87397586848,
			"-0.009": 2.98291747475,
			"-0.008": 3.13831939247,
			"-0.007": 3.51738455279,
			"-0.006": 4.76216111915,
			"-0.005": 14.9163909913,
			"-0.004": 25.3796960814,
			"-0.003": 26.1415986314,
			"-0.002": 18.0862197682,
			"-0.001": 14.4237496034,
			"0.0": 11.4859585678,
			"0.001": 9.39672363005,
			"0.002": 7.1813769271,
			"0.003": 5.03799831037,
			"0.004": 4.25636594217,
			"0.005": 3.77220567521,
			"0.006": 3.26817696668,
			"0.007": 4.72232279613,
			"0.008": 4.26934372356,
			"0.009": 4.73426399138,
			"0.01": 4.86815517316,
			"0.011": 4.40426506261,
			"0.012": 7.0321166845,
			"0.013": 12.2979930844,
			"0.014": 3.17763569149,
			"0.015": 0.0,
			"0.016": 0.0,
			"0.017": 0.0,
			"0.018": 0.0,
			"0.019": 0.0,
			"0.02": 0.0,
			"0.021": 0.0,
			"0.022": 0.0,
			"0.023": 0.0,
			"0.024": 0.0,
			"0.025": 0.0
		}
	}
}
