{
	 "smiles": "CCC(C)C(=O)OC1CCC=C2C=CC(C)C(CCC3CC(O)CC(=O)O3)C12", 
	 "Tm": 425.15, 
	 "num_atms": 62, 
	 "gaussian": { 
		 "optdone": 1, 
		 "sigma_profile": "yes", 
		 "theory": "DFT", 
		 "functional": "B3LYP", 
		 "basiset": "6-31G**", 
		 "properties": { 
			 "R2extent": 13060.58, 
			 "electric_dipole_moment_norm": 6.43381491652, 
			 "electric_quadrupole_moment_norm": 28.5666459375, 
			 "total_energy": -1273.05975317, 
			 "HOMO_LUMO_gap": 0.19918, 
			 "cosmo_polarized_energy": -22.03, 
			 "cosmo_cavitation_energy": 58.62, 
			 "cosmo_dispersion_energy": -37.44, 
			 "cosmo_repulsion_energy": 2.84, 
			 "cosmo_total_nonelectrostatic_energy": 24.02, 
			 "SMD_solvation_energy": 9.8 
		},
		"coords": [
			{
				"x": 3.1486354041,
				"y": 4.1044815233,
				"z": -0.8669896228,
				"element": "C" 
			},
			{
				"x": 1.6856619488,
				"y": 4.4408410351,
				"z": -1.1706189192,
				"element": "C" 
			},
			{
				"x": 0.7368537406,
				"y": 3.2197866509,
				"z": -1.2424333386,
				"element": "C" 
			},
			{
				"x": -0.6639878765,
				"y": 3.6487639372,
				"z": -1.7048443901,
				"element": "C" 
			},
			{
				"x": 0.6457352225,
				"y": 2.5555477227,
				"z": 0.1288881061,
				"element": "C" 
			},
			{
				"x": 0.012690507,
				"y": 3.0180628495,
				"z": 1.058154735,
				"element": "O" 
			},
			{
				"x": 1.3573190924,
				"y": 1.4085871229,
				"z": 0.1728546899,
				"element": "O" 
			},
			{
				"x": 1.5517629026,
				"y": 0.6772537607,
				"z": 1.4275494806,
				"element": "C" 
			},
			{
				"x": 2.2800266053,
				"y": 1.5881635126,
				"z": 2.4295740675,
				"element": "C" 
			},
			{
				"x": 2.743771813,
				"y": 0.8313834664,
				"z": 3.6818376769,
				"element": "C" 
			},
			{
				"x": 1.8079710016,
				"y": -0.2755006557,
				"z": 4.0645986846,
				"element": "C" 
			},
			{
				"x": 0.7466625494,
				"y": -0.6776711431,
				"z": 3.3395599937,
				"element": "C" 
			},
			{
				"x": 0.0821555484,
				"y": -1.9362080645,
				"z": 3.6988512447,
				"element": "C" 
			},
			{
				"x": -0.4729179622,
				"y": -2.7297671263,
				"z": 2.7729804684,
				"element": "C" 
			},
			{
				"x": -0.5004419665,
				"y": -2.3183120972,
				"z": 1.3214817301,
				"element": "C" 
			},
			{
				"x": 0.7543180514,
				"y": -2.819900268,
				"z": 0.575943187,
				"element": "C" 
			},
			{
				"x": -0.738821673,
				"y": -0.7860630695,
				"z": 1.2433707591,
				"element": "C" 
			},
			{
				"x": -1.0076822304,
				"y": -0.2786313741,
				"z": -0.1894339302,
				"element": "C" 
			},
			{
				"x": -2.1770930091,
				"y": -0.997462086,
				"z": -0.8835388224,
				"element": "C" 
			},
			{
				"x": -2.6757213316,
				"y": -0.2831192773,
				"z": -2.1496609559,
				"element": "C" 
			},
			{
				"x": -1.6859826408,
				"y": -0.2371996653,
				"z": -3.3179491309,
				"element": "C" 
			},
			{
				"x": -1.5485416785,
				"y": -1.6023852797,
				"z": -3.9908612742,
				"element": "C" 
			},
			{
				"x": -0.7060714011,
				"y": -1.5601552572,
				"z": -5.1370274234,
				"element": "O" 
			},
			{
				"x": -2.9238434191,
				"y": -2.0425048464,
				"z": -4.4761987607,
				"element": "C" 
			},
			{
				"x": -4.0655432796,
				"y": -1.8429615059,
				"z": -3.4888372849,
				"element": "C" 
			},
			{
				"x": -5.1057065031,
				"y": -2.4493540343,
				"z": -3.5774197374,
				"element": "O" 
			},
			{
				"x": -3.9409823144,
				"y": -0.8870803181,
				"z": -2.5291594955,
				"element": "O" 
			},
			{
				"x": 0.2780385723,
				"y": 0.0755630654,
				"z": 2.0787923705,
				"element": "C" 
			},
			{
				"x": 3.7657778788,
				"y": 5.0081161583,
				"z": -0.8928456219,
				"element": "H" 
			},
			{
				"x": 3.5562687225,
				"y": 3.4004338022,
				"z": -1.6008375176,
				"element": "H" 
			},
			{
				"x": 3.2665286951,
				"y": 3.6544749614,
				"z": 0.1234195607,
				"element": "H" 
			},
			{
				"x": 1.6254246712,
				"y": 4.9605534875,
				"z": -2.1347988485,
				"element": "H" 
			},
			{
				"x": 1.2947317861,
				"y": 5.1353835111,
				"z": -0.4170733236,
				"element": "H" 
			},
			{
				"x": 1.1581303149,
				"y": 2.4910428688,
				"z": -1.9440512486,
				"element": "H" 
			},
			{
				"x": -1.3324852066,
				"y": 2.789772527,
				"z": -1.8202242344,
				"element": "H" 
			},
			{
				"x": -1.1133345271,
				"y": 4.3258313459,
				"z": -0.9736233118,
				"element": "H" 
			},
			{
				"x": -0.6061217316,
				"y": 4.1621328011,
				"z": -2.6694797707,
				"element": "H" 
			},
			{
				"x": 2.2163127521,
				"y": -0.1313916379,
				"z": 1.1088793674,
				"element": "H" 
			},
			{
				"x": 3.1380622209,
				"y": 2.0473748152,
				"z": 1.9271963018,
				"element": "H" 
			},
			{
				"x": 1.5982574974,
				"y": 2.3935046094,
				"z": 2.7097885908,
				"element": "H" 
			},
			{
				"x": 3.7384216976,
				"y": 0.3903928372,
				"z": 3.5136490836,
				"element": "H" 
			},
			{
				"x": 2.8810601201,
				"y": 1.5352733836,
				"z": 4.5142293686,
				"element": "H" 
			},
			{
				"x": 2.0771831056,
				"y": -0.8533145602,
				"z": 4.9482548372,
				"element": "H" 
			},
			{
				"x": 0.1551904941,
				"y": -2.2598295332,
				"z": 4.7352745984,
				"element": "H" 
			},
			{
				"x": -0.8771607568,
				"y": -3.7013080268,
				"z": 3.0484626441,
				"element": "H" 
			},
			{
				"x": -1.3678543196,
				"y": -2.8019234311,
				"z": 0.8560532887,
				"element": "H" 
			},
			{
				"x": 1.6677278132,
				"y": -2.4059504653,
				"z": 1.0136303941,
				"element": "H" 
			},
			{
				"x": 0.7297192597,
				"y": -2.5506208356,
				"z": -0.4859001502,
				"element": "H" 
			},
			{
				"x": 0.82901915,
				"y": -3.9104690805,
				"z": 0.6386141953,
				"element": "H" 
			},
			{
				"x": -1.6861128065,
				"y": -0.6457528524,
				"z": 1.7817461086,
				"element": "H" 
			},
			{
				"x": -1.2523980379,
				"y": 0.7881670873,
				"z": -0.1265314771,
				"element": "H" 
			},
			{
				"x": -0.1023936013,
				"y": -0.3516915172,
				"z": -0.7993572859,
				"element": "H" 
			},
			{
				"x": -1.9101914394,
				"y": -2.0305861395,
				"z": -1.1341580065,
				"element": "H" 
			},
			{
				"x": -3.0329455376,
				"y": -1.0594085873,
				"z": -0.200784655,
				"element": "H" 
			},
			{
				"x": -2.9514033328,
				"y": 0.7418549159,
				"z": -1.8778501094,
				"element": "H" 
			},
			{
				"x": -2.0332812402,
				"y": 0.4790743292,
				"z": -4.0719091107,
				"element": "H" 
			},
			{
				"x": -0.7158742279,
				"y": 0.1210065115,
				"z": -2.9549166596,
				"element": "H" 
			},
			{
				"x": -1.1625989877,
				"y": -2.3371543591,
				"z": -3.2668588853,
				"element": "H" 
			},
			{
				"x": 0.193650069,
				"y": -1.366736689,
				"z": -4.8429646335,
				"element": "H" 
			},
			{
				"x": -3.1691794033,
				"y": -1.4409129094,
				"z": -5.361769832,
				"element": "H" 
			},
			{
				"x": -2.9353446599,
				"y": -3.086962416,
				"z": -4.793976071,
				"element": "H" 
			},
			{
				"x": -0.3004521057,
				"y": 0.9420645098,
				"z": 2.4181483058,
				"element": "H" 
			}
		],
		 "valence_orbital": [ 
			{
				"type": "occ",
				"energy": -0.28224,
				"method": "rhf"
			},
			{
				"type": "occ",
				"energy": -0.27886,
				"method": "rhf"
			},
			{
				"type": "occ",
				"energy": -0.26692,
				"method": "rhf"
			},
			{
				"type": "occ",
				"energy": -0.25939,
				"method": "rhf"
			},
			{
				"type": "occ",
				"energy": -0.21514,
				"method": "rhf"
			},
			{
				"type": "unocc",
				"energy": -0.01596,
				"method": "rhf"
			},
			{
				"type": "unocc",
				"energy": 0.00191,
				"method": "rhf"
			},
			{
				"type": "unocc",
				"energy": 0.01447,
				"method": "rhf"
			},
			{
				"type": "unocc",
				"energy": 0.04421,
				"method": "rhf"
			},
			{
				"type": "unocc",
				"energy": 0.05792,
				"method": "rhf"
			}
		],
		"cosmo_sigma_profile": { 
			"-0.025": 0.0,
			"-0.024": 0.0,
			"-0.023": 0.0,
			"-0.022": 0.0,
			"-0.021": 0.0,
			"-0.02": 0.0,
			"-0.019": 0.0,
			"-0.018": 0.0,
			"-0.017": 0.0,
			"-0.016": 0.616924627573,
			"-0.015": 0.848698624006,
			"-0.014": 1.18449811474,
			"-0.013": 1.12014573363,
			"-0.012": 0.612086946652,
			"-0.011": 1.26309196288,
			"-0.01": 0.709100926796,
			"-0.009": 0.592150346185,
			"-0.008": 2.02529909441,
			"-0.007": 4.04356118223,
			"-0.006": 7.51643266714,
			"-0.005": 18.2237930384,
			"-0.004": 40.2970333104,
			"-0.003": 61.4373422837,
			"-0.002": 63.7656450175,
			"-0.001": 55.0749048595,
			"0.0": 45.2306561329,
			"0.001": 34.3354794003,
			"0.002": 17.8205133253,
			"0.003": 13.2842107275,
			"0.004": 13.6656830468,
			"0.005": 10.1443288738,
			"0.006": 9.93326862686,
			"0.007": 7.95467536347,
			"0.008": 4.37495574479,
			"0.009": 5.51026243594,
			"0.01": 5.34244675517,
			"0.011": 6.48059819688,
			"0.012": 10.4403284807,
			"0.013": 7.84053366996,
			"0.014": 1.89790025292,
			"0.015": 0.0,
			"0.016": 0.0,
			"0.017": 0.0,
			"0.018": 0.0,
			"0.019": 0.0,
			"0.02": 0.0,
			"0.021": 0.0,
			"0.022": 0.0,
			"0.023": 0.0,
			"0.024": 0.0,
			"0.025": 0.0
		}
	}
}
