{
	 "smiles": "OC(=O)C1=CC2=NC=CN=C2S1", 
	 "Tm": 493.15, 
	 "num_atms": 16, 
	 "gaussian": { 
		 "optdone": 1, 
		 "sigma_profile": "yes", 
		 "theory": "DFT", 
		 "functional": "B3LYP", 
		 "basiset": "6-31G**", 
		 "properties": { 
			 "R2extent": 3442.5554, 
			 "electric_dipole_moment_norm": 4.66205150229, 
			 "electric_quadrupole_moment_norm": 15.8983359519, 
			 "total_energy": -927.280619696, 
			 "HOMO_LUMO_gap": 0.1728, 
			 "cosmo_polarized_energy": -16.3, 
			 "cosmo_cavitation_energy": 23.06, 
			 "cosmo_dispersion_energy": -17.96, 
			 "cosmo_repulsion_energy": 1.36, 
			 "cosmo_total_nonelectrostatic_energy": 6.46, 
			 "SMD_solvation_energy": 1.64 
		},
		"coords": [
			{
				"x": -0.6900912669,
				"y": 2.6060420842,
				"z": -1.6840782954,
				"element": "O" 
			},
			{
				"x": -0.9627071247,
				"y": 2.7575896964,
				"z": -0.3655112309,
				"element": "C" 
			},
			{
				"x": -1.0910761593,
				"y": 3.8580666628,
				"z": 0.1172393551,
				"element": "O" 
			},
			{
				"x": -1.0889349267,
				"y": 1.5141388959,
				"z": 0.4394519697,
				"element": "C" 
			},
			{
				"x": -0.7791249968,
				"y": 0.2246239435,
				"z": 0.1045522201,
				"element": "C" 
			},
			{
				"x": -1.0269427437,
				"y": -0.6880967577,
				"z": 1.1800427429,
				"element": "C" 
			},
			{
				"x": -0.8294721007,
				"y": -2.0188916715,
				"z": 1.1684778061,
				"element": "N" 
			},
			{
				"x": -1.1405678208,
				"y": -2.6460709533,
				"z": 2.3000516862,
				"element": "C" 
			},
			{
				"x": -1.6409932571,
				"y": -1.9753887661,
				"z": 3.4354136144,
				"element": "C" 
			},
			{
				"x": -1.84073404,
				"y": -0.6565706511,
				"z": 3.4647878313,
				"element": "N" 
			},
			{
				"x": -1.5291749555,
				"y": -0.0269042884,
				"z": 2.3336701,
				"element": "C" 
			},
			{
				"x": -1.681780766,
				"y": 1.7009839077,
				"z": 2.0861459833,
				"element": "S" 
			},
			{
				"x": -0.7276953886,
				"y": 1.6745687438,
				"z": -1.9421066921,
				"element": "H" 
			},
			{
				"x": -0.3680784725,
				"y": -0.1036273734,
				"z": -0.844235976,
				"element": "H" 
			},
			{
				"x": -0.9936375381,
				"y": -3.7234090246,
				"z": 2.3257036011,
				"element": "H" 
			},
			{
				"x": -1.8824884427,
				"y": -2.5298544484,
				"z": 4.3390952841,
				"element": "H" 
			}
		],
		 "valence_orbital": [ 
			{
				"type": "occ",
				"energy": -0.33096,
				"method": "rhf"
			},
			{
				"type": "occ",
				"energy": -0.29323,
				"method": "rhf"
			},
			{
				"type": "occ",
				"energy": -0.27272,
				"method": "rhf"
			},
			{
				"type": "occ",
				"energy": -0.26922,
				"method": "rhf"
			},
			{
				"type": "occ",
				"energy": -0.26819,
				"method": "rhf"
			},
			{
				"type": "unocc",
				"energy": -0.09539,
				"method": "rhf"
			},
			{
				"type": "unocc",
				"energy": -0.05255,
				"method": "rhf"
			},
			{
				"type": "unocc",
				"energy": -0.01392,
				"method": "rhf"
			},
			{
				"type": "unocc",
				"energy": 0.00423,
				"method": "rhf"
			},
			{
				"type": "unocc",
				"energy": 0.04215,
				"method": "rhf"
			}
		],
		"cosmo_sigma_profile": { 
			"-0.025": 0.0,
			"-0.024": 0.0,
			"-0.023": 0.0,
			"-0.022": 0.0,
			"-0.021": 0.0,
			"-0.02": 0.417550719408,
			"-0.019": 1.0894037898,
			"-0.018": 1.4594989678,
			"-0.017": 0.832988083373,
			"-0.016": 0.710684908508,
			"-0.015": 1.35019115359,
			"-0.014": 1.34066228412,
			"-0.013": 0.994915178703,
			"-0.012": 1.46928379224,
			"-0.011": 1.16862224401,
			"-0.01": 1.90315014853,
			"-0.009": 1.57544147098,
			"-0.008": 7.26554294278,
			"-0.007": 5.92714772986,
			"-0.006": 6.16645990291,
			"-0.005": 5.81126888886,
			"-0.004": 6.85938087822,
			"-0.003": 11.9890661247,
			"-0.002": 15.0900853143,
			"-0.001": 19.3494194782,
			"0.0": 15.5322142514,
			"0.001": 12.0839471955,
			"0.002": 10.3017240954,
			"0.003": 8.97762698908,
			"0.004": 4.9643331213,
			"0.005": 4.72725183734,
			"0.006": 4.6062192909,
			"0.007": 5.53862233916,
			"0.008": 4.68616068572,
			"0.009": 6.09560328788,
			"0.01": 6.52914015322,
			"0.011": 7.03271272042,
			"0.012": 3.30807104041,
			"0.013": 1.44171401021,
			"0.014": 0.519288724067,
			"0.015": 0.00918725298034,
			"0.016": 0.0,
			"0.017": 0.0,
			"0.018": 0.0,
			"0.019": 0.0,
			"0.02": 0.0,
			"0.021": 0.0,
			"0.022": 0.0,
			"0.023": 0.0,
			"0.024": 0.0,
			"0.025": 0.0
		}
	}
}
