{
	 "smiles": "OCCOC1=C(Cl)C=CC(Cl)=C1", 
	 "Tm": 333.15, 
	 "num_atms": 20, 
	 "gaussian": { 
		 "optdone": 1, 
		 "sigma_profile": "yes", 
		 "theory": "DFT", 
		 "functional": "B3LYP", 
		 "basiset": "6-31G**", 
		 "properties": { 
			 "R2extent": 3795.8353, 
			 "electric_dipole_moment_norm": 1.26828835049, 
			 "electric_quadrupole_moment_norm": 9.51155370168, 
			 "total_energy": -1380.48475312, 
			 "HOMO_LUMO_gap": 0.20912, 
			 "cosmo_polarized_energy": -9.22, 
			 "cosmo_cavitation_energy": 27.8, 
			 "cosmo_dispersion_energy": -20.42, 
			 "cosmo_repulsion_energy": 1.66, 
			 "cosmo_total_nonelectrostatic_energy": 9.03, 
			 "SMD_solvation_energy": 4.44 
		},
		"coords": [
			{
				"x": 2.7462078831,
				"y": -1.2388565091,
				"z": -0.7250638401,
				"element": "O" 
			},
			{
				"x": 1.9675673136,
				"y": -1.9805467771,
				"z": 0.1907073786,
				"element": "C" 
			},
			{
				"x": 0.9005055874,
				"y": -1.1217095398,
				"z": 0.8520475945,
				"element": "C" 
			},
			{
				"x": 0.0516410471,
				"y": -0.669372905,
				"z": -0.2095312259,
				"element": "O" 
			},
			{
				"x": -0.9520969865,
				"y": 0.2004339027,
				"z": 0.0570884128,
				"element": "C" 
			},
			{
				"x": -1.6959918945,
				"y": 0.6771795869,
				"z": -1.040667494,
				"element": "C" 
			},
			{
				"x": -1.283964952,
				"y": 0.1448889422,
				"z": -2.6563013107,
				"element": "Cl" 
			},
			{
				"x": -2.7476235684,
				"y": 1.5657472467,
				"z": -0.851761661,
				"element": "C" 
			},
			{
				"x": -3.0866785778,
				"y": 2.0047345851,
				"z": 0.4298374994,
				"element": "C" 
			},
			{
				"x": -2.3484934399,
				"y": 1.5322606036,
				"z": 1.5095467924,
				"element": "C" 
			},
			{
				"x": -2.7513493864,
				"y": 2.0661612599,
				"z": 3.1340257939,
				"element": "Cl" 
			},
			{
				"x": -1.2893250184,
				"y": 0.6392394732,
				"z": 1.3429866723,
				"element": "C" 
			},
			{
				"x": 2.1321452075,
				"y": -0.8702724758,
				"z": -1.375553225,
				"element": "H" 
			},
			{
				"x": 2.6477788515,
				"y": -2.3585170643,
				"z": 0.9609534506,
				"element": "H" 
			},
			{
				"x": 1.4838868937,
				"y": -2.8470177253,
				"z": -0.2868037083,
				"element": "H" 
			},
			{
				"x": 0.3224181175,
				"y": -1.7019198106,
				"z": 1.5842240173,
				"element": "H" 
			},
			{
				"x": 1.360758035,
				"y": -0.2606355981,
				"z": 1.3527629739,
				"element": "H" 
			},
			{
				"x": -3.3031989511,
				"y": 1.9173377454,
				"z": -1.7140869423,
				"element": "H" 
			},
			{
				"x": -3.9054369376,
				"y": 2.6979407087,
				"z": 0.5800980631,
				"element": "H" 
			},
			{
				"x": -0.7413492235,
				"y": 0.2930243508,
				"z": 2.2089907586,
				"element": "H" 
			}
		],
		 "valence_orbital": [ 
			{
				"type": "occ",
				"energy": -0.31801,
				"method": "rhf"
			},
			{
				"type": "occ",
				"energy": -0.31553,
				"method": "rhf"
			},
			{
				"type": "occ",
				"energy": -0.27665,
				"method": "rhf"
			},
			{
				"type": "occ",
				"energy": -0.26197,
				"method": "rhf"
			},
			{
				"type": "occ",
				"energy": -0.23671,
				"method": "rhf"
			},
			{
				"type": "unocc",
				"energy": -0.02759,
				"method": "rhf"
			},
			{
				"type": "unocc",
				"energy": -0.01439,
				"method": "rhf"
			},
			{
				"type": "unocc",
				"energy": 0.01109,
				"method": "rhf"
			},
			{
				"type": "unocc",
				"energy": 0.03493,
				"method": "rhf"
			},
			{
				"type": "unocc",
				"energy": 0.08178,
				"method": "rhf"
			}
		],
		"cosmo_sigma_profile": { 
			"-0.025": 0.0,
			"-0.024": 0.0,
			"-0.023": 0.0,
			"-0.022": 0.0,
			"-0.021": 0.0,
			"-0.02": 0.0,
			"-0.019": 0.0,
			"-0.018": 0.0,
			"-0.017": 0.0,
			"-0.016": 0.0,
			"-0.015": 0.0,
			"-0.014": 0.0,
			"-0.013": 0.140599444515,
			"-0.012": 0.426269902102,
			"-0.011": 0.636588905257,
			"-0.01": 0.989289557565,
			"-0.009": 0.411127893987,
			"-0.008": 5.27341349176,
			"-0.007": 8.29878664685,
			"-0.006": 16.1842500201,
			"-0.005": 14.8080227008,
			"-0.004": 13.1630667047,
			"-0.003": 11.5890435155,
			"-0.002": 11.2711420091,
			"-0.001": 12.0676676713,
			"0.0": 16.4465760977,
			"0.001": 22.5901924644,
			"0.002": 26.6346913975,
			"0.003": 20.2389049736,
			"0.004": 18.8471649032,
			"0.005": 9.9880301242,
			"0.006": 2.31712632686,
			"0.007": 2.08494142474,
			"0.008": 1.6234182896,
			"0.009": 1.60860282677,
			"0.01": 0.971926680333,
			"0.011": 1.10311634072,
			"0.012": 1.75082510808,
			"0.013": 1.70753333496,
			"0.014": 2.29539336378,
			"0.015": 0.180742146974,
			"0.016": 0.0,
			"0.017": 0.0,
			"0.018": 0.0,
			"0.019": 0.0,
			"0.02": 0.0,
			"0.021": 0.0,
			"0.022": 0.0,
			"0.023": 0.0,
			"0.024": 0.0,
			"0.025": 0.0
		}
	}
}
