{
	 "smiles": "CC(C)(C)C1=NN(C(N)=C1)C1=CC(Cl)=CC=C1", 
	 "Tm": 373.15, 
	 "num_atms": 33, 
	 "gaussian": { 
		 "optdone": 1, 
		 "sigma_profile": "yes", 
		 "theory": "DFT", 
		 "functional": "B3LYP", 
		 "basiset": "6-31G**", 
		 "properties": { 
			 "R2extent": 6309.8813, 
			 "electric_dipole_moment_norm": 4.17597992452, 
			 "electric_quadrupole_moment_norm": 15.6807736174, 
			 "total_energy": -1129.47075914, 
			 "HOMO_LUMO_gap": 0.18785, 
			 "cosmo_polarized_energy": -12.02, 
			 "cosmo_cavitation_energy": 37.22, 
			 "cosmo_dispersion_energy": -26.35, 
			 "cosmo_repulsion_energy": 2.06, 
			 "cosmo_total_nonelectrostatic_energy": 12.94, 
			 "SMD_solvation_energy": 5.62 
		},
		"coords": [
			{
				"x": 1.865881095,
				"y": 0.0489117595,
				"z": -3.2863350178,
				"element": "C" 
			},
			{
				"x": 0.8397800723,
				"y": -0.7342090159,
				"z": -2.4359597404,
				"element": "C" 
			},
			{
				"x": -0.562137525,
				"y": -0.1362756758,
				"z": -2.6502515658,
				"element": "C" 
			},
			{
				"x": 0.8376157024,
				"y": -2.2161111027,
				"z": -2.8776276583,
				"element": "C" 
			},
			{
				"x": 1.2399310496,
				"y": -0.6562389509,
				"z": -0.9726360163,
				"element": "C" 
			},
			{
				"x": 0.4081534507,
				"y": -0.1834740352,
				"z": -0.055593892,
				"element": "N" 
			},
			{
				"x": 1.0832567675,
				"y": -0.2903186937,
				"z": 1.1404570726,
				"element": "N" 
			},
			{
				"x": 2.3482624703,
				"y": -0.7984860422,
				"z": 0.9548647165,
				"element": "C" 
			},
			{
				"x": 3.2415969773,
				"y": -1.0148933118,
				"z": 2.0043309969,
				"element": "N" 
			},
			{
				"x": 2.4771046912,
				"y": -1.0568854268,
				"z": -0.3948633326,
				"element": "C" 
			},
			{
				"x": 0.4604012508,
				"y": 0.1679177469,
				"z": 2.3247123598,
				"element": "C" 
			},
			{
				"x": -0.4633097911,
				"y": 1.2184208825,
				"z": 2.2272202868,
				"element": "C" 
			},
			{
				"x": -1.0905534073,
				"y": 1.6691711227,
				"z": 3.3826847541,
				"element": "C" 
			},
			{
				"x": -2.2488989974,
				"y": 2.9873147935,
				"z": 3.2614072317,
				"element": "Cl" 
			},
			{
				"x": -0.8207748474,
				"y": 1.1144523554,
				"z": 4.6349204327,
				"element": "C" 
			},
			{
				"x": 0.0942952511,
				"y": 0.0656244222,
				"z": 4.7099613398,
				"element": "C" 
			},
			{
				"x": 0.7308021058,
				"y": -0.4214235712,
				"z": 3.5678310814,
				"element": "C" 
			},
			{
				"x": 2.8769509333,
				"y": -0.3561272758,
				"z": -3.1733597992,
				"element": "H" 
			},
			{
				"x": 1.6008001772,
				"y": -0.0057218156,
				"z": -4.3482028459,
				"element": "H" 
			},
			{
				"x": 1.892005855,
				"y": 1.1043543098,
				"z": -2.9965245841,
				"element": "H" 
			},
			{
				"x": -0.5933954606,
				"y": 0.9163003701,
				"z": -2.3552752503,
				"element": "H" 
			},
			{
				"x": -0.8389575961,
				"y": -0.2072330886,
				"z": -3.7077571446,
				"element": "H" 
			},
			{
				"x": -1.3132390535,
				"y": -0.6654067021,
				"z": -2.0581260232,
				"element": "H" 
			},
			{
				"x": 0.566418152,
				"y": -2.2983831816,
				"z": -3.9362857876,
				"element": "H" 
			},
			{
				"x": 1.8226926471,
				"y": -2.6758081714,
				"z": -2.7460318506,
				"element": "H" 
			},
			{
				"x": 0.1154524944,
				"y": -2.7966815105,
				"z": -2.2948066556,
				"element": "H" 
			},
			{
				"x": 3.2455662469,
				"y": -0.274624805,
				"z": 2.6980061836,
				"element": "H" 
			},
			{
				"x": 4.1802517247,
				"y": -1.1822715062,
				"z": 1.6641362212,
				"element": "H" 
			},
			{
				"x": 3.3479788888,
				"y": -1.4623251658,
				"z": -0.8884935225,
				"element": "H" 
			},
			{
				"x": -0.6813601123,
				"y": 1.6482163559,
				"z": 1.258809957,
				"element": "H" 
			},
			{
				"x": -1.3217960614,
				"y": 1.4896862835,
				"z": 5.5196630948,
				"element": "H" 
			},
			{
				"x": 0.3025449468,
				"y": -0.3933946312,
				"z": 5.6718139282,
				"element": "H" 
			},
			{
				"x": 1.4061799017,
				"y": -1.2657767221,
				"z": 3.6337110297,
				"element": "H" 
			}
		],
		 "valence_orbital": [ 
			{
				"type": "occ",
				"energy": -0.28164,
				"method": "rhf"
			},
			{
				"type": "occ",
				"energy": -0.27753,
				"method": "rhf"
			},
			{
				"type": "occ",
				"energy": -0.2512,
				"method": "rhf"
			},
			{
				"type": "occ",
				"energy": -0.22303,
				"method": "rhf"
			},
			{
				"type": "occ",
				"energy": -0.21088,
				"method": "rhf"
			},
			{
				"type": "unocc",
				"energy": -0.02303,
				"method": "rhf"
			},
			{
				"type": "unocc",
				"energy": -0.01642,
				"method": "rhf"
			},
			{
				"type": "unocc",
				"energy": 0.02914,
				"method": "rhf"
			},
			{
				"type": "unocc",
				"energy": 0.04496,
				"method": "rhf"
			},
			{
				"type": "unocc",
				"energy": 0.06953,
				"method": "rhf"
			}
		],
		"cosmo_sigma_profile": { 
			"-0.025": 0.0,
			"-0.024": 0.0,
			"-0.023": 0.0,
			"-0.022": 0.0,
			"-0.021": 0.0,
			"-0.02": 0.0,
			"-0.019": 0.0,
			"-0.018": 0.0,
			"-0.017": 0.0,
			"-0.016": 0.0,
			"-0.015": 0.0,
			"-0.014": 0.225049278472,
			"-0.013": 1.7671788044,
			"-0.012": 2.76266431552,
			"-0.011": 2.85288844546,
			"-0.01": 2.64003605709,
			"-0.009": 2.74539844708,
			"-0.008": 2.39917920472,
			"-0.007": 5.96571492917,
			"-0.006": 8.41956569749,
			"-0.005": 10.5855740779,
			"-0.004": 10.915102131,
			"-0.003": 18.1772138461,
			"-0.002": 27.7743669933,
			"-0.001": 25.4245011669,
			"0.0": 27.915477978,
			"0.001": 36.469970671,
			"0.002": 31.3289693494,
			"0.003": 23.3726268047,
			"0.004": 20.4586909648,
			"0.005": 14.0562967778,
			"0.006": 5.16115941958,
			"0.007": 3.87688524759,
			"0.008": 2.8297781361,
			"0.009": 2.13010992626,
			"0.01": 1.87075400659,
			"0.011": 1.59571481656,
			"0.012": 1.08514391269,
			"0.013": 1.01331843052,
			"0.014": 0.124183864805,
			"0.015": 0.0,
			"0.016": 0.0,
			"0.017": 0.0,
			"0.018": 0.0,
			"0.019": 0.0,
			"0.02": 0.0,
			"0.021": 0.0,
			"0.022": 0.0,
			"0.023": 0.0,
			"0.024": 0.0,
			"0.025": 0.0
		}
	}
}
