{
	 "smiles": "COC(=O)C1=C(N)CCN(CC2=CC=CC=C2)C1", 
	 "Tm": 361.15, 
	 "num_atms": 36, 
	 "gaussian": { 
		 "optdone": 1, 
		 "sigma_profile": "yes", 
		 "theory": "DFT", 
		 "functional": "B3LYP", 
		 "basiset": "6-31G**", 
		 "properties": { 
			 "R2extent": 4838.2418, 
			 "electric_dipole_moment_norm": 1.85979899183, 
			 "electric_quadrupole_moment_norm": 12.1495841962, 
			 "total_energy": -804.289121354, 
			 "HOMO_LUMO_gap": 0.18745, 
			 "cosmo_polarized_energy": -11.94, 
			 "cosmo_cavitation_energy": 36.98, 
			 "cosmo_dispersion_energy": -25.69, 
			 "cosmo_repulsion_energy": 2.01, 
			 "cosmo_total_nonelectrostatic_energy": 13.3, 
			 "SMD_solvation_energy": 4.8 
		},
		"coords": [
			{
				"x": 1.0192230624,
				"y": -3.3945886091,
				"z": -1.3350766799,
				"element": "C" 
			},
			{
				"x": 0.9013979603,
				"y": -1.9707797806,
				"z": -1.2522170076,
				"element": "O" 
			},
			{
				"x": 1.1908212874,
				"y": -1.429856143,
				"z": -0.0324385028,
				"element": "C" 
			},
			{
				"x": 1.5185811029,
				"y": -2.1513801299,
				"z": 0.914392474,
				"element": "O" 
			},
			{
				"x": 1.0507615621,
				"y": 0.0138847279,
				"z": -0.0218673805,
				"element": "C" 
			},
			{
				"x": 1.3291614148,
				"y": 0.717644371,
				"z": 1.1289613878,
				"element": "C" 
			},
			{
				"x": 1.7601618385,
				"y": 0.1384115167,
				"z": 2.2772641223,
				"element": "N" 
			},
			{
				"x": 1.1645065575,
				"y": 2.2196919393,
				"z": 1.181285526,
				"element": "C" 
			},
			{
				"x": 1.0709148403,
				"y": 2.8473901018,
				"z": -0.2232929624,
				"element": "C" 
			},
			{
				"x": 0.2152885474,
				"y": 2.1155619577,
				"z": -1.1406168851,
				"element": "N" 
			},
			{
				"x": -1.2230387718,
				"y": 2.3780297481,
				"z": -1.0732986355,
				"element": "C" 
			},
			{
				"x": -1.9974126083,
				"y": 2.0272144259,
				"z": 0.1969253786,
				"element": "C" 
			},
			{
				"x": -2.3986678009,
				"y": 3.0362001065,
				"z": 1.0830943275,
				"element": "C" 
			},
			{
				"x": -3.1064319561,
				"y": 2.7343886884,
				"z": 2.2491624716,
				"element": "C" 
			},
			{
				"x": -3.4296402161,
				"y": 1.4094532225,
				"z": 2.5442452789,
				"element": "C" 
			},
			{
				"x": -3.0470704803,
				"y": 0.3938670661,
				"z": 1.6640557792,
				"element": "C" 
			},
			{
				"x": -2.3414817608,
				"y": 0.7015815119,
				"z": 0.5009235634,
				"element": "C" 
			},
			{
				"x": 0.6526166633,
				"y": 0.7331027277,
				"z": -1.3084504618,
				"element": "C" 
			},
			{
				"x": 0.3313707365,
				"y": -3.8860054859,
				"z": -0.6412929642,
				"element": "H" 
			},
			{
				"x": 2.0369692036,
				"y": -3.7171810551,
				"z": -1.0990548335,
				"element": "H" 
			},
			{
				"x": 0.7681066425,
				"y": -3.6519679757,
				"z": -2.3649280666,
				"element": "H" 
			},
			{
				"x": 1.7744479007,
				"y": -0.8769504657,
				"z": 2.3039788176,
				"element": "H" 
			},
			{
				"x": 1.7785727598,
				"y": 0.6760689212,
				"z": 3.1281425901,
				"element": "H" 
			},
			{
				"x": 0.2592610292,
				"y": 2.4444276458,
				"z": 1.7583901502,
				"element": "H" 
			},
			{
				"x": 2.0101103273,
				"y": 2.6529462735,
				"z": 1.732324211,
				"element": "H" 
			},
			{
				"x": 0.7202238172,
				"y": 3.8828735823,
				"z": -0.1489628403,
				"element": "H" 
			},
			{
				"x": 2.0789814747,
				"y": 2.8820217488,
				"z": -0.6603400822,
				"element": "H" 
			},
			{
				"x": -1.3605567889,
				"y": 3.4499093977,
				"z": -1.2674390389,
				"element": "H" 
			},
			{
				"x": -1.6770338923,
				"y": 1.8489072266,
				"z": -1.919751225,
				"element": "H" 
			},
			{
				"x": -2.1593175752,
				"y": 4.0723728218,
				"z": 0.8524411351,
				"element": "H" 
			},
			{
				"x": -3.4098635024,
				"y": 3.5329754318,
				"z": 2.9207919946,
				"element": "H" 
			},
			{
				"x": -3.982797469,
				"y": 1.169471601,
				"z": 3.4478965144,
				"element": "H" 
			},
			{
				"x": -3.3037405547,
				"y": -0.6392235689,
				"z": 1.8816761469,
				"element": "H" 
			},
			{
				"x": -2.0556748904,
				"y": -0.0964478133,
				"z": -0.1787188189,
				"element": "H" 
			},
			{
				"x": -0.1391001272,
				"y": 0.1755905441,
				"z": -1.8159296294,
				"element": "H" 
			},
			{
				"x": 1.508149666,
				"y": 0.7264937213,
				"z": -2.0040758545,
				"element": "H" 
			}
		],
		 "valence_orbital": [ 
			{
				"type": "occ",
				"energy": -0.25833,
				"method": "rhf"
			},
			{
				"type": "occ",
				"energy": -0.24813,
				"method": "rhf"
			},
			{
				"type": "occ",
				"energy": -0.24355,
				"method": "rhf"
			},
			{
				"type": "occ",
				"energy": -0.19806,
				"method": "rhf"
			},
			{
				"type": "occ",
				"energy": -0.19593,
				"method": "rhf"
			},
			{
				"type": "unocc",
				"energy": -0.00848,
				"method": "rhf"
			},
			{
				"type": "unocc",
				"energy": -0.00243,
				"method": "rhf"
			},
			{
				"type": "unocc",
				"energy": 0.00168,
				"method": "rhf"
			},
			{
				"type": "unocc",
				"energy": 0.08259,
				"method": "rhf"
			},
			{
				"type": "unocc",
				"energy": 0.09475,
				"method": "rhf"
			}
		],
		"cosmo_sigma_profile": { 
			"-0.025": 0.0,
			"-0.024": 0.0,
			"-0.023": 0.0,
			"-0.022": 0.0,
			"-0.021": 0.0,
			"-0.02": 0.0,
			"-0.019": 0.0,
			"-0.018": 0.0,
			"-0.017": 0.0,
			"-0.016": 0.0,
			"-0.015": 0.0,
			"-0.014": 0.255698227479,
			"-0.013": 0.945594437502,
			"-0.012": 1.22852886454,
			"-0.011": 1.41478502726,
			"-0.01": 0.825424455957,
			"-0.009": 1.48036125719,
			"-0.008": 2.18518086938,
			"-0.007": 2.07198402743,
			"-0.006": 5.09916931242,
			"-0.005": 19.7380266262,
			"-0.004": 30.0115780792,
			"-0.003": 35.2920880728,
			"-0.002": 30.5649924504,
			"-0.001": 24.8309701995,
			"0.0": 18.8136981321,
			"0.001": 17.376131762,
			"0.002": 15.6469846413,
			"0.003": 14.5363006942,
			"0.004": 15.7222740602,
			"0.005": 16.3660905662,
			"0.006": 12.8654152463,
			"0.007": 5.58559611592,
			"0.008": 4.41290195524,
			"0.009": 2.39056007229,
			"0.01": 1.67451059473,
			"0.011": 2.97268304481,
			"0.012": 2.34943941971,
			"0.013": 2.70757226139,
			"0.014": 0.908929987775,
			"0.015": 0.257324036864,
			"0.016": 0.0,
			"0.017": 0.0,
			"0.018": 0.0,
			"0.019": 0.0,
			"0.02": 0.0,
			"0.021": 0.0,
			"0.022": 0.0,
			"0.023": 0.0,
			"0.024": 0.0,
			"0.025": 0.0
		}
	}
}
