{
	 "smiles": "CC(=O)OCCCC1=CC=C(C=C1)S(N)(=O)=O", 
	 "Tm": 360.65, 
	 "num_atms": 32, 
	 "gaussian": { 
		 "optdone": 1, 
		 "sigma_profile": "yes", 
		 "theory": "DFT", 
		 "functional": "B3LYP", 
		 "basiset": "6-31G**", 
		 "properties": { 
			 "R2extent": 6058.6528, 
			 "electric_dipole_moment_norm": 5.62249472743, 
			 "electric_quadrupole_moment_norm": 40.4541741115, 
			 "total_energy": -1181.99656708, 
			 "HOMO_LUMO_gap": 0.21933, 
			 "cosmo_polarized_energy": -24.74, 
			 "cosmo_cavitation_energy": 37.82, 
			 "cosmo_dispersion_energy": -25.4, 
			 "cosmo_repulsion_energy": 1.95, 
			 "cosmo_total_nonelectrostatic_energy": 14.38, 
			 "SMD_solvation_energy": 6.93 
		},
		"coords": [
			{
				"x": 0.3400164563,
				"y": -1.6383117695,
				"z": 2.1148844666,
				"element": "C" 
			},
			{
				"x": 1.6411849002,
				"y": -0.937981412,
				"z": 1.8010826424,
				"element": "C" 
			},
			{
				"x": 2.5437228435,
				"y": -0.7394283245,
				"z": 2.58398738,
				"element": "O" 
			},
			{
				"x": 1.6751996132,
				"y": -0.5505369511,
				"z": 0.5041059973,
				"element": "O" 
			},
			{
				"x": 2.869225674,
				"y": 0.1404315436,
				"z": 0.0803650027,
				"element": "C" 
			},
			{
				"x": 2.6358763675,
				"y": 0.7103077938,
				"z": -1.3112566806,
				"element": "C" 
			},
			{
				"x": 1.6443694099,
				"y": 1.8935634368,
				"z": -1.3860640854,
				"element": "C" 
			},
			{
				"x": 0.1848270631,
				"y": 1.5412328648,
				"z": -1.1817712578,
				"element": "C" 
			},
			{
				"x": -0.5168583311,
				"y": 0.827945121,
				"z": -2.1654753457,
				"element": "C" 
			},
			{
				"x": -1.8623596088,
				"y": 0.5079623134,
				"z": -2.0034010092,
				"element": "C" 
			},
			{
				"x": -2.5219202828,
				"y": 0.9071030764,
				"z": -0.8381126171,
				"element": "C" 
			},
			{
				"x": -1.8535402057,
				"y": 1.6344782,
				"z": 0.1487513217,
				"element": "C" 
			},
			{
				"x": -0.505841802,
				"y": 1.9446335936,
				"z": -0.0311072434,
				"element": "C" 
			},
			{
				"x": -4.2532171897,
				"y": 0.4824882366,
				"z": -0.6096848595,
				"element": "S" 
			},
			{
				"x": -4.2923850772,
				"y": -1.0150281634,
				"z": 0.1593400958,
				"element": "N" 
			},
			{
				"x": -4.8144928426,
				"y": 1.4286564514,
				"z": 0.3531136069,
				"element": "O" 
			},
			{
				"x": -4.8271976562,
				"y": 0.2549998977,
				"z": -1.9347606599,
				"element": "O" 
			},
			{
				"x": -0.5029483367,
				"y": -1.0007489,
				"z": 1.8331330491,
				"element": "H" 
			},
			{
				"x": 0.2644488489,
				"y": -2.5609909408,
				"z": 1.5310881054,
				"element": "H" 
			},
			{
				"x": 0.3006740346,
				"y": -1.8718676703,
				"z": 3.1783320407,
				"element": "H" 
			},
			{
				"x": 3.7034201575,
				"y": -0.5697801551,
				"z": 0.0788793221,
				"element": "H" 
			},
			{
				"x": 3.1081344488,
				"y": 0.9234764556,
				"z": 0.8074992042,
				"element": "H" 
			},
			{
				"x": 2.3147265165,
				"y": -0.0953649301,
				"z": -1.9819381853,
				"element": "H" 
			},
			{
				"x": 3.6087621137,
				"y": 1.0560073743,
				"z": -1.6820494185,
				"element": "H" 
			},
			{
				"x": 1.9424934627,
				"y": 2.6537404014,
				"z": -0.6542214273,
				"element": "H" 
			},
			{
				"x": 1.7541297695,
				"y": 2.3588545725,
				"z": -2.3734758598,
				"element": "H" 
			},
			{
				"x": -0.0073674453,
				"y": 0.531101187,
				"z": -3.0788124743,
				"element": "H" 
			},
			{
				"x": -2.4092317278,
				"y": -0.0174605955,
				"z": -2.7792739033,
				"element": "H" 
			},
			{
				"x": -2.3931269902,
				"y": 1.9754019249,
				"z": 1.0262151389,
				"element": "H" 
			},
			{
				"x": 0.0142195252,
				"y": 2.5195179942,
				"z": 0.7305062098,
				"element": "H" 
			},
			{
				"x": -3.9018547242,
				"y": -1.7602306779,
				"z": -0.4085366153,
				"element": "H" 
			},
			{
				"x": -3.9080889847,
				"y": -0.9852719489,
				"z": 1.0982580589,
				"element": "H" 
			}
		],
		 "valence_orbital": [ 
			{
				"type": "occ",
				"energy": -0.30325,
				"method": "rhf"
			},
			{
				"type": "occ",
				"energy": -0.30175,
				"method": "rhf"
			},
			{
				"type": "occ",
				"energy": -0.27789,
				"method": "rhf"
			},
			{
				"type": "occ",
				"energy": -0.2737,
				"method": "rhf"
			},
			{
				"type": "occ",
				"energy": -0.26024,
				"method": "rhf"
			},
			{
				"type": "unocc",
				"energy": -0.04091,
				"method": "rhf"
			},
			{
				"type": "unocc",
				"energy": -0.02549,
				"method": "rhf"
			},
			{
				"type": "unocc",
				"energy": 0.00501,
				"method": "rhf"
			},
			{
				"type": "unocc",
				"energy": 0.04651,
				"method": "rhf"
			},
			{
				"type": "unocc",
				"energy": 0.06789,
				"method": "rhf"
			}
		],
		"cosmo_sigma_profile": { 
			"-0.025": 0.0,
			"-0.024": 0.0,
			"-0.023": 0.0,
			"-0.022": 0.0,
			"-0.021": 0.0,
			"-0.02": 0.0,
			"-0.019": 0.0,
			"-0.018": 0.0,
			"-0.017": 0.0,
			"-0.016": 0.00317253994248,
			"-0.015": 1.65575469376,
			"-0.014": 2.3262699352,
			"-0.013": 2.64481411703,
			"-0.012": 3.01876873797,
			"-0.011": 2.82446895172,
			"-0.01": 2.40000153681,
			"-0.009": 1.82271686466,
			"-0.008": 1.74238014434,
			"-0.007": 4.46727137172,
			"-0.006": 13.7242630097,
			"-0.005": 26.0279284405,
			"-0.004": 31.6971906435,
			"-0.003": 26.6359581233,
			"-0.002": 28.6151760789,
			"-0.001": 21.8676598222,
			"0.0": 13.335782251,
			"0.001": 11.0284825668,
			"0.002": 12.1904280747,
			"0.003": 12.6551938682,
			"0.004": 8.99767972371,
			"0.005": 5.95859659119,
			"0.006": 7.35289200147,
			"0.007": 5.68263351912,
			"0.008": 7.28950508256,
			"0.009": 6.95545784875,
			"0.01": 8.65463837958,
			"0.011": 12.792351621,
			"0.012": 11.6539973416,
			"0.013": 2.29617803483,
			"0.014": 0.0460397753728,
			"0.015": 0.0,
			"0.016": 0.0,
			"0.017": 0.0,
			"0.018": 0.0,
			"0.019": 0.0,
			"0.02": 0.0,
			"0.021": 0.0,
			"0.022": 0.0,
			"0.023": 0.0,
			"0.024": 0.0,
			"0.025": 0.0
		}
	}
}
