{
	 "smiles": "CC1=C(OC2=C1C=C(F)C=C2)S(Cl)(=O)=O", 
	 "Tm": 355.15, 
	 "num_atms": 21, 
	 "gaussian": { 
		 "optdone": 1, 
		 "sigma_profile": "yes", 
		 "theory": "DFT", 
		 "functional": "B3LYP", 
		 "basiset": "6-31G**", 
		 "properties": { 
			 "R2extent": 4777.1645, 
			 "electric_dipole_moment_norm": 4.33772535899, 
			 "electric_quadrupole_moment_norm": 16.1147606544, 
			 "total_energy": -1530.37331164, 
			 "HOMO_LUMO_gap": 0.16285, 
			 "cosmo_polarized_energy": -9.13, 
			 "cosmo_cavitation_energy": 29.77, 
			 "cosmo_dispersion_energy": -22.03, 
			 "cosmo_repulsion_energy": 1.65, 
			 "cosmo_total_nonelectrostatic_energy": 9.4, 
			 "SMD_solvation_energy": 4.68 
		},
		"coords": [
			{
				"x": -0.0690209748,
				"y": -2.2116692382,
				"z": 0.4516986443,
				"element": "C" 
			},
			{
				"x": -0.2097746478,
				"y": -0.7259565402,
				"z": 0.5419590721,
				"element": "C" 
			},
			{
				"x": 0.6884006893,
				"y": 0.2326524836,
				"z": 0.9290235904,
				"element": "C" 
			},
			{
				"x": 0.1928621863,
				"y": 1.509167785,
				"z": 0.8959614471,
				"element": "O" 
			},
			{
				"x": -1.092297604,
				"y": 1.382553104,
				"z": 0.4485946814,
				"element": "C" 
			},
			{
				"x": -1.3963078785,
				"y": 0.0317428156,
				"z": 0.2080288081,
				"element": "C" 
			},
			{
				"x": -2.6723976789,
				"y": -0.3182628137,
				"z": -0.2650784167,
				"element": "C" 
			},
			{
				"x": -3.5663768023,
				"y": 0.7187752289,
				"z": -0.4650997524,
				"element": "C" 
			},
			{
				"x": -4.8044970368,
				"y": 0.4336101291,
				"z": -0.9164749616,
				"element": "F" 
			},
			{
				"x": -3.253674351,
				"y": 2.0678027178,
				"z": -0.2224476568,
				"element": "C" 
			},
			{
				"x": -1.9926208508,
				"y": 2.4237011857,
				"z": 0.2433584562,
				"element": "C" 
			},
			{
				"x": 2.3518400704,
				"y": 0.1190452368,
				"z": 1.4956140978,
				"element": "S" 
			},
			{
				"x": 2.1086697766,
				"y": 0.4348912061,
				"z": 3.5837681033,
				"element": "Cl" 
			},
			{
				"x": 3.1152461509,
				"y": 1.2516710064,
				"z": 0.9984661016,
				"element": "O" 
			},
			{
				"x": 2.7937909674,
				"y": -1.2603100254,
				"z": 1.3355294303,
				"element": "O" 
			},
			{
				"x": -0.2289737547,
				"y": -2.5439532624,
				"z": -0.5802352207,
				"element": "H" 
			},
			{
				"x": 0.9150393562,
				"y": -2.5463900202,
				"z": 0.7756573772,
				"element": "H" 
			},
			{
				"x": -0.8303159026,
				"y": -2.6990445286,
				"z": 1.0710031518,
				"element": "H" 
			},
			{
				"x": -2.9635740246,
				"y": -1.3422213778,
				"z": -0.4689656345,
				"element": "H" 
			},
			{
				"x": -4.0152563303,
				"y": 2.8172400729,
				"z": -0.4064966645,
				"element": "H" 
			},
			{
				"x": -1.72176136,
				"y": 3.4547548347,
				"z": 0.4382353457,
				"element": "H" 
			}
		],
		 "valence_orbital": [ 
			{
				"type": "occ",
				"energy": -0.338,
				"method": "rhf"
			},
			{
				"type": "occ",
				"energy": -0.3197,
				"method": "rhf"
			},
			{
				"type": "occ",
				"energy": -0.3181,
				"method": "rhf"
			},
			{
				"type": "occ",
				"energy": -0.26212,
				"method": "rhf"
			},
			{
				"type": "occ",
				"energy": -0.25941,
				"method": "rhf"
			},
			{
				"type": "unocc",
				"energy": -0.09656,
				"method": "rhf"
			},
			{
				"type": "unocc",
				"energy": -0.05537,
				"method": "rhf"
			},
			{
				"type": "unocc",
				"energy": -0.01357,
				"method": "rhf"
			},
			{
				"type": "unocc",
				"energy": 0.00624,
				"method": "rhf"
			},
			{
				"type": "unocc",
				"energy": 0.04496,
				"method": "rhf"
			}
		],
		"cosmo_sigma_profile": { 
			"-0.025": 0.0,
			"-0.024": 0.0,
			"-0.023": 0.0,
			"-0.022": 0.0,
			"-0.021": 0.0,
			"-0.02": 0.0,
			"-0.019": 0.0,
			"-0.018": 0.0,
			"-0.017": 0.0,
			"-0.016": 0.0,
			"-0.015": 0.0,
			"-0.014": 0.0,
			"-0.013": 0.0,
			"-0.012": 0.0,
			"-0.011": 0.0,
			"-0.01": 0.0,
			"-0.009": 1.22961862124,
			"-0.008": 5.62945470729,
			"-0.007": 5.91569444338,
			"-0.006": 13.3194278619,
			"-0.005": 11.834691687,
			"-0.004": 11.9962166988,
			"-0.003": 15.8076053679,
			"-0.002": 21.0778806085,
			"-0.001": 21.5990047434,
			"0.0": 24.6519731341,
			"0.001": 23.1300934481,
			"0.002": 20.4537241976,
			"0.003": 21.3946042527,
			"0.004": 15.2831120033,
			"0.005": 4.84087383,
			"0.006": 5.00317332241,
			"0.007": 8.93118930877,
			"0.008": 9.17622145867,
			"0.009": 1.48504407182,
			"0.01": 0.0,
			"0.011": 0.0,
			"0.012": 0.0,
			"0.013": 0.0,
			"0.014": 0.0,
			"0.015": 0.0,
			"0.016": 0.0,
			"0.017": 0.0,
			"0.018": 0.0,
			"0.019": 0.0,
			"0.02": 0.0,
			"0.021": 0.0,
			"0.022": 0.0,
			"0.023": 0.0,
			"0.024": 0.0,
			"0.025": 0.0
		}
	}
}
