{
	 "smiles": "CN(C1=CC=C(OCC(O)=O)C=C1)S(=O)(=O)C1=CC=CS1", 
	 "Tm": 419.15, 
	 "num_atms": 34, 
	 "gaussian": { 
		 "optdone": 1, 
		 "sigma_profile": "yes", 
		 "theory": "DFT", 
		 "functional": "B3LYP", 
		 "basiset": "6-31G**", 
		 "properties": { 
			 "R2extent": 8615.8546, 
			 "electric_dipole_moment_norm": 6.81339856019, 
			 "electric_quadrupole_moment_norm": 17.9122817804, 
			 "total_energy": -1730.35966409, 
			 "HOMO_LUMO_gap": 0.18652, 
			 "cosmo_polarized_energy": -22.66, 
			 "cosmo_cavitation_energy": 42.13, 
			 "cosmo_dispersion_energy": -28.91, 
			 "cosmo_repulsion_energy": 2.17, 
			 "cosmo_total_nonelectrostatic_energy": 15.39, 
			 "SMD_solvation_energy": 7.76 
		},
		"coords": [
			{
				"x": -0.6389716362,
				"y": 2.831877964,
				"z": 1.5362549864,
				"element": "C" 
			},
			{
				"x": -1.0697598032,
				"y": 1.633788439,
				"z": 0.7900747095,
				"element": "N" 
			},
			{
				"x": -0.1543866494,
				"y": 1.1560273005,
				"z": -0.2179311218,
				"element": "C" 
			},
			{
				"x": 0.560083602,
				"y": -0.0148696162,
				"z": 0.0370075857,
				"element": "C" 
			},
			{
				"x": 1.488484231,
				"y": -0.5051400901,
				"z": -0.8835269605,
				"element": "C" 
			},
			{
				"x": 1.7011905455,
				"y": 0.1889169226,
				"z": -2.0786560114,
				"element": "C" 
			},
			{
				"x": 2.5969331247,
				"y": -0.1756653899,
				"z": -3.050412315,
				"element": "O" 
			},
			{
				"x": 3.4154762418,
				"y": -1.2995095199,
				"z": -2.8507075999,
				"element": "C" 
			},
			{
				"x": 2.6861850809,
				"y": -2.6168549623,
				"z": -3.0953039963,
				"element": "C" 
			},
			{
				"x": 3.5315919468,
				"y": -3.6536738305,
				"z": -2.8846385679,
				"element": "O" 
			},
			{
				"x": 1.5372770092,
				"y": -2.7421975558,
				"z": -3.4386566501,
				"element": "O" 
			},
			{
				"x": 0.9824287993,
				"y": 1.3629096072,
				"z": -2.3444058082,
				"element": "C" 
			},
			{
				"x": 0.0635064325,
				"y": 1.8441793446,
				"z": -1.4217794492,
				"element": "C" 
			},
			{
				"x": -2.7275977635,
				"y": 1.5964336624,
				"z": 0.3873603668,
				"element": "S" 
			},
			{
				"x": -2.9803586092,
				"y": 2.1319553162,
				"z": -0.9565341647,
				"element": "O" 
			},
			{
				"x": -3.4266927608,
				"y": 2.1548231785,
				"z": 1.5478534974,
				"element": "O" 
			},
			{
				"x": -3.0334346188,
				"y": -0.143620443,
				"z": 0.297926708,
				"element": "C" 
			},
			{
				"x": -3.2572919871,
				"y": -0.8473851161,
				"z": -0.8575947565,
				"element": "C" 
			},
			{
				"x": -3.5093114807,
				"y": -2.2260910942,
				"z": -0.6062609089,
				"element": "C" 
			},
			{
				"x": -3.4742525565,
				"y": -2.5318114887,
				"z": 0.7290155625,
				"element": "C" 
			},
			{
				"x": -3.1387332392,
				"y": -1.1493924388,
				"z": 1.7147478741,
				"element": "S" 
			},
			{
				"x": 0.3288950506,
				"y": 2.6035306031,
				"z": 1.9886808606,
				"element": "H" 
			},
			{
				"x": -1.3636699197,
				"y": 3.0409811889,
				"z": 2.3228054393,
				"element": "H" 
			},
			{
				"x": -0.5306313693,
				"y": 3.7175412893,
				"z": 0.8967902305,
				"element": "H" 
			},
			{
				"x": 0.3809413722,
				"y": -0.5462121394,
				"z": 0.966115885,
				"element": "H" 
			},
			{
				"x": 2.0145351103,
				"y": -1.4257466617,
				"z": -0.6609295835,
				"element": "H" 
			},
			{
				"x": 4.2273861761,
				"y": -1.2240674974,
				"z": -3.5807954692,
				"element": "H" 
			},
			{
				"x": 3.8759444416,
				"y": -1.3172162133,
				"z": -1.8542656861,
				"element": "H" 
			},
			{
				"x": 3.0299018993,
				"y": -4.4639298742,
				"z": -3.076439131,
				"element": "H" 
			},
			{
				"x": 1.1613008164,
				"y": 1.8784724522,
				"z": -3.2819441831,
				"element": "H" 
			},
			{
				"x": -0.5047431355,
				"y": 2.7420945309,
				"z": -1.6374044166,
				"element": "H" 
			},
			{
				"x": -3.2403312881,
				"y": -0.3815200856,
				"z": -1.8347418143,
				"element": "H" 
			},
			{
				"x": -3.7087565827,
				"y": -2.9550441425,
				"z": -1.3827737332,
				"element": "H" 
			},
			{
				"x": -3.6376384802,
				"y": -3.4932836398,
				"z": 1.1973686213,
				"element": "H" 
			}
		],
		 "valence_orbital": [ 
			{
				"type": "occ",
				"energy": -0.26635,
				"method": "rhf"
			},
			{
				"type": "occ",
				"energy": -0.265,
				"method": "rhf"
			},
			{
				"type": "occ",
				"energy": -0.25994,
				"method": "rhf"
			},
			{
				"type": "occ",
				"energy": -0.24251,
				"method": "rhf"
			},
			{
				"type": "occ",
				"energy": -0.23001,
				"method": "rhf"
			},
			{
				"type": "unocc",
				"energy": -0.04349,
				"method": "rhf"
			},
			{
				"type": "unocc",
				"energy": -0.01445,
				"method": "rhf"
			},
			{
				"type": "unocc",
				"energy": -0.00748,
				"method": "rhf"
			},
			{
				"type": "unocc",
				"energy": -0.00414,
				"method": "rhf"
			},
			{
				"type": "unocc",
				"energy": 0.01829,
				"method": "rhf"
			}
		],
		"cosmo_sigma_profile": { 
			"-0.025": 0.0,
			"-0.024": 0.0,
			"-0.023": 0.0,
			"-0.022": 0.0,
			"-0.021": 0.0,
			"-0.02": 0.0,
			"-0.019": 0.308197388345,
			"-0.018": 0.82124798394,
			"-0.017": 1.10809121845,
			"-0.016": 0.791120102386,
			"-0.015": 1.12946795343,
			"-0.014": 0.391171186123,
			"-0.013": 0.483938180247,
			"-0.012": 0.891859988353,
			"-0.011": 1.13848431285,
			"-0.01": 2.55818475938,
			"-0.009": 7.14502630182,
			"-0.008": 10.6250032144,
			"-0.007": 12.3022651041,
			"-0.006": 17.0667961515,
			"-0.005": 23.1192906123,
			"-0.004": 18.4936675047,
			"-0.003": 22.5049633044,
			"-0.002": 19.957640418,
			"-0.001": 16.7117519259,
			"0.0": 20.9557330239,
			"0.001": 24.6571699506,
			"0.002": 27.9777942692,
			"0.003": 25.3757149048,
			"0.004": 16.5693592923,
			"0.005": 7.99364175271,
			"0.006": 6.75828575106,
			"0.007": 7.40919897146,
			"0.008": 8.96978694825,
			"0.009": 8.80248850057,
			"0.01": 10.5659850904,
			"0.011": 12.1640824847,
			"0.012": 2.84586125926,
			"0.013": 0.0,
			"0.014": 0.0,
			"0.015": 0.0,
			"0.016": 0.0,
			"0.017": 0.0,
			"0.018": 0.0,
			"0.019": 0.0,
			"0.02": 0.0,
			"0.021": 0.0,
			"0.022": 0.0,
			"0.023": 0.0,
			"0.024": 0.0,
			"0.0": 0.0
		}
	}
}
