{
	 "smiles": "NC(=O)C1=C(Cl)C=CC(=C1)[N+]([O-])=O", 
	 "Tm": 452.15, 
	 "num_atms": 18, 
	 "gaussian": { 
		 "optdone": 1, 
		 "sigma_profile": "yes", 
		 "theory": "DFT", 
		 "functional": "B3LYP", 
		 "basiset": "6-31G**", 
		 "properties": { 
			 "R2extent": 3805.0662, 
			 "electric_dipole_moment_norm": 5.7871098322, 
			 "electric_quadrupole_moment_norm": 12.2623394974, 
			 "total_energy": -1065.03569327, 
			 "HOMO_LUMO_gap": 0.17133, 
			 "cosmo_polarized_energy": -14.96, 
			 "cosmo_cavitation_energy": 25.32, 
			 "cosmo_dispersion_energy": -18.91, 
			 "cosmo_repulsion_energy": 1.49, 
			 "cosmo_total_nonelectrostatic_energy": 7.9, 
			 "SMD_solvation_energy": 7.14 
		},
		"coords": [
			{
				"x": 1.3138984006,
				"y": -3.7206447585,
				"z": 2.3038326295,
				"element": "N" 
			},
			{
				"x": 1.1676353437,
				"y": -2.4017890071,
				"z": 2.0163432842,
				"element": "C" 
			},
			{
				"x": 1.6982028524,
				"y": -1.5271312106,
				"z": 2.6897499121,
				"element": "O" 
			},
			{
				"x": 0.3753213049,
				"y": -2.007730337,
				"z": 0.7765430595,
				"element": "C" 
			},
			{
				"x": -0.6334541753,
				"y": -2.7153448726,
				"z": 0.097684141,
				"element": "C" 
			},
			{
				"x": -1.2078606977,
				"y": -4.2988346722,
				"z": 0.6161413609,
				"element": "Cl" 
			},
			{
				"x": -1.2763766567,
				"y": -2.1858325633,
				"z": -1.0276368323,
				"element": "C" 
			},
			{
				"x": -0.922516116,
				"y": -0.933757592,
				"z": -1.5103230771,
				"element": "C" 
			},
			{
				"x": 0.0712413935,
				"y": -0.2253628095,
				"z": -0.8383440662,
				"element": "C" 
			},
			{
				"x": 0.7039628661,
				"y": -0.7359671025,
				"z": 0.2839182598,
				"element": "C" 
			},
			{
				"x": 0.4545663323,
				"y": 1.108486008,
				"z": -1.3339849111,
				"element": "N" 
			},
			{
				"x": -0.1385048529,
				"y": 1.5319531338,
				"z": -2.3256466261,
				"element": "O" 
			},
			{
				"x": 1.338554208,
				"y": 1.7092208084,
				"z": -0.7291825045,
				"element": "O" 
			},
			{
				"x": 1.8400113063,
				"y": -3.9439877226,
				"z": 3.1352415602,
				"element": "H" 
			},
			{
				"x": 0.8489457409,
				"y": -4.4553814922,
				"z": 1.7975264313,
				"element": "H" 
			},
			{
				"x": -2.0546965151,
				"y": -2.7619030503,
				"z": -1.5143029559,
				"element": "H" 
			},
			{
				"x": -1.4003810517,
				"y": -0.5030036837,
				"z": -2.3810192552,
				"element": "H" 
			},
			{
				"x": 1.4564503165,
				"y": -0.1595890762,
				"z": 0.8068595898,
				"element": "H" 
			}
		],
		 "valence_orbital": [ 
			{
				"type": "occ",
				"energy": -0.29968,
				"method": "rhf"
			},
			{
				"type": "occ",
				"energy": -0.29731,
				"method": "rhf"
			},
			{
				"type": "occ",
				"energy": -0.28732,
				"method": "rhf"
			},
			{
				"type": "occ",
				"energy": -0.2825,
				"method": "rhf"
			},
			{
				"type": "occ",
				"energy": -0.27192,
				"method": "rhf"
			},
			{
				"type": "unocc",
				"energy": -0.10059,
				"method": "rhf"
			},
			{
				"type": "unocc",
				"energy": -0.06359,
				"method": "rhf"
			},
			{
				"type": "unocc",
				"energy": -0.02396,
				"method": "rhf"
			},
			{
				"type": "unocc",
				"energy": -0.0056,
				"method": "rhf"
			},
			{
				"type": "unocc",
				"energy": 0.0425,
				"method": "rhf"
			}
		],
		"cosmo_sigma_profile": { 
			"-0.025": 0.0,
			"-0.024": 0.0,
			"-0.023": 0.0,
			"-0.022": 0.0,
			"-0.021": 0.0,
			"-0.02": 0.0,
			"-0.019": 0.0,
			"-0.018": 0.0,
			"-0.017": 0.0,
			"-0.016": 0.0,
			"-0.015": 0.379877628199,
			"-0.014": 1.12778724999,
			"-0.013": 1.54725130996,
			"-0.012": 2.07877265595,
			"-0.011": 1.50910904614,
			"-0.01": 1.81843592241,
			"-0.009": 5.39663389601,
			"-0.008": 6.02226402282,
			"-0.007": 6.10747017182,
			"-0.006": 6.83379671334,
			"-0.005": 6.78781216858,
			"-0.004": 10.437410823,
			"-0.003": 15.738674842,
			"-0.002": 21.7355178476,
			"-0.001": 21.6696759641,
			"0.0": 14.3033602981,
			"0.001": 11.7631970977,
			"0.002": 11.6006456153,
			"0.003": 8.21399570589,
			"0.004": 4.54069901196,
			"0.005": 4.54253518359,
			"0.006": 6.33725310571,
			"0.007": 10.2747015528,
			"0.008": 6.68616041428,
			"0.009": 5.43080764913,
			"0.01": 2.91701551228,
			"0.011": 1.46826585713,
			"0.012": 3.12896731055,
			"0.013": 4.60177808591,
			"0.014": 0.821884398771,
			"0.015": 0.0,
			"0.016": 0.0,
			"0.017": 0.0,
			"0.018": 0.0,
			"0.019": 0.0,
			"0.02": 0.0,
			"0.021": 0.0,
			"0.022": 0.0,
			"0.023": 0.0,
			"0.024": 0.0,
			"0.025": 0.0
		}
	}
}
