{
	 "smiles": "[O-][N+](=O)C1=CC(F)=C(C(F)=C1)S(Cl)(=O)=O", 
	 "Tm": 347.15, 
	 "num_atms": 17, 
	 "gaussian": { 
		 "optdone": 1, 
		 "sigma_profile": "yes", 
		 "theory": "DFT", 
		 "functional": "B3LYP", 
		 "basiset": "6-31G**", 
		 "properties": { 
			 "R2extent": 5821.1554, 
			 "electric_dipole_moment_norm": 1.69308582771, 
			 "electric_quadrupole_moment_norm": 16.7240997414, 
			 "total_energy": -1643.33993416, 
			 "HOMO_LUMO_gap": 0.17166, 
			 "cosmo_polarized_energy": -11.62, 
			 "cosmo_cavitation_energy": 27.41, 
			 "cosmo_dispersion_energy": -20.37, 
			 "cosmo_repulsion_energy": 1.5, 
			 "cosmo_total_nonelectrostatic_energy": 8.55, 
			 "SMD_solvation_energy": 6.65 
		},
		"coords": [
			{
				"x": -3.3357141787,
				"y": -2.1910162673,
				"z": 0.1734914005,
				"element": "O" 
			},
			{
				"x": -2.9589776654,
				"y": -1.0430487866,
				"z": 0.3867001922,
				"element": "N" 
			},
			{
				"x": -3.4094413894,
				"y": -0.2876302455,
				"z": 1.24195725,
				"element": "O" 
			},
			{
				"x": -1.8633058342,
				"y": -0.5235875309,
				"z": -0.4646479264,
				"element": "C" 
			},
			{
				"x": -1.4164148485,
				"y": 0.7720788414,
				"z": -0.2469218784,
				"element": "C" 
			},
			{
				"x": -0.3888385643,
				"y": 1.2518434135,
				"z": -1.0522856939,
				"element": "C" 
			},
			{
				"x": 0.0349343741,
				"y": 2.4932067727,
				"z": -0.8416119809,
				"element": "F" 
			},
			{
				"x": 0.1890968251,
				"y": 0.4517244996,
				"z": -2.0515052837,
				"element": "C" 
			},
			{
				"x": -0.3104485839,
				"y": -0.8497530786,
				"z": -2.2270457508,
				"element": "C" 
			},
			{
				"x": 0.1997674025,
				"y": -1.6197079015,
				"z": -3.1855516492,
				"element": "F" 
			},
			{
				"x": -1.3356968539,
				"y": -1.3572654513,
				"z": -1.4439137428,
				"element": "C" 
			},
			{
				"x": 1.5638553075,
				"y": 1.0147464406,
				"z": -3.0681371861,
				"element": "S" 
			},
			{
				"x": 0.6040623501,
				"y": 1.1409501224,
				"z": -4.9499112793,
				"element": "Cl" 
			},
			{
				"x": 1.9257838352,
				"y": 2.3694152977,
				"z": -2.6936040882,
				"element": "O" 
			},
			{
				"x": 2.5396426846,
				"y": -0.0586675647,
				"z": -3.1512713857,
				"element": "O" 
			},
			{
				"x": -1.8504375165,
				"y": 1.395587719,
				"z": 0.5233794462,
				"element": "H" 
			},
			{
				"x": -1.7089673442,
				"y": -2.3614762805,
				"z": -1.5938204436,
				"element": "H" 
			}
		],
		 "valence_orbital": [ 
			{
				"type": "occ",
				"energy": -0.34283,
				"method": "rhf"
			},
			{
				"type": "occ",
				"energy": -0.33205,
				"method": "rhf"
			},
			{
				"type": "occ",
				"energy": -0.32753,
				"method": "rhf"
			},
			{
				"type": "occ",
				"energy": -0.32493,
				"method": "rhf"
			},
			{
				"type": "occ",
				"energy": -0.30705,
				"method": "rhf"
			},
			{
				"type": "unocc",
				"energy": -0.13539,
				"method": "rhf"
			},
			{
				"type": "unocc",
				"energy": -0.09925,
				"method": "rhf"
			},
			{
				"type": "unocc",
				"energy": -0.06197,
				"method": "rhf"
			},
			{
				"type": "unocc",
				"energy": -0.05156,
				"method": "rhf"
			},
			{
				"type": "unocc",
				"energy": 0.00611,
				"method": "rhf"
			}
		],
		"cosmo_sigma_profile": { 
			"-0.025": 0.0,
			"-0.024": 0.0,
			"-0.023": 0.0,
			"-0.022": 0.0,
			"-0.021": 0.0,
			"-0.02": 0.0,
			"-0.019": 0.0,
			"-0.018": 0.0,
			"-0.017": 0.0,
			"-0.016": 0.0,
			"-0.015": 0.0,
			"-0.014": 0.0,
			"-0.013": 0.0,
			"-0.012": 0.0,
			"-0.011": 0.86393686281,
			"-0.01": 2.4688892071,
			"-0.009": 5.36811138824,
			"-0.008": 5.12962232774,
			"-0.007": 8.32011643102,
			"-0.006": 9.43154136221,
			"-0.005": 16.885740325,
			"-0.004": 18.613321163,
			"-0.003": 14.4131425835,
			"-0.002": 8.6956869986,
			"-0.001": 10.6676941004,
			"0.0": 9.6759863605,
			"0.001": 19.2178072792,
			"0.002": 26.0407837855,
			"0.003": 10.9741408939,
			"0.004": 7.03235220963,
			"0.005": 8.82102266822,
			"0.006": 14.77012521,
			"0.007": 17.8789856587,
			"0.008": 8.42905850253,
			"0.009": 1.16931192516,
			"0.01": 0.0,
			"0.011": 0.0,
			"0.012": 0.0,
			"0.013": 0.0,
			"0.014": 0.0,
			"0.015": 0.0,
			"0.016": 0.0,
			"0.017": 0.0,
			"0.018": 0.0,
			"0.019": 0.0,
			"0.02": 0.0,
			"0.021": 0.0,
			"0.022": 0.0,
			"0.023": 0.0,
			"0.024": 0.0,
			"0.025": 0.0
		}
	}
}
