{
	 "smiles": "CC(C)CCCCCO", 
	 "Tm": 167.15, 
	 "num_atms": 27, 
	 "gaussian": { 
		 "optdone": 1, 
		 "sigma_profile": "yes", 
		 "theory": "DFT", 
		 "functional": "B3LYP", 
		 "basiset": "6-31G**", 
		 "properties": { 
			 "R2extent": 2433.527, 
			 "electric_dipole_moment_norm": 1.654646083, 
			 "electric_quadrupole_moment_norm": 7.84507715896, 
			 "total_energy": -390.931382779, 
			 "HOMO_LUMO_gap": 0.33849, 
			 "cosmo_polarized_energy": -5.96, 
			 "cosmo_cavitation_energy": 27.44, 
			 "cosmo_dispersion_energy": -19.56, 
			 "cosmo_repulsion_energy": 1.64, 
			 "cosmo_total_nonelectrostatic_energy": 9.51, 
			 "SMD_solvation_energy": 4.31 
		},
		"coords": [
			{
				"x": 2.8425019733,
				"y": 1.6960353469,
				"z": 2.800103686,
				"element": "C" 
			},
			{
				"x": 1.478204931,
				"y": 1.0158045394,
				"z": 2.6128121707,
				"element": "C" 
			},
			{
				"x": 0.3459398076,
				"y": 1.945815168,
				"z": 3.073272658,
				"element": "C" 
			},
			{
				"x": 1.3136349349,
				"y": 0.5317031479,
				"z": 1.1563694642,
				"element": "C" 
			},
			{
				"x": 0.0351321038,
				"y": -0.2917400885,
				"z": 0.8679348688,
				"element": "C" 
			},
			{
				"x": -1.1257342388,
				"y": 0.4895155901,
				"z": 0.218497369,
				"element": "C" 
			},
			{
				"x": -0.8931768803,
				"y": 0.9152072896,
				"z": -1.2421935977,
				"element": "C" 
			},
			{
				"x": -0.8915630384,
				"y": -0.2433286134,
				"z": -2.2432136726,
				"element": "C" 
			},
			{
				"x": -0.6555952236,
				"y": 0.1851165209,
				"z": -3.5787310935,
				"element": "O" 
			},
			{
				"x": 2.9973527952,
				"y": 1.9976798245,
				"z": 3.8418280497,
				"element": "H" 
			},
			{
				"x": 2.9187906415,
				"y": 2.5977471168,
				"z": 2.1798745521,
				"element": "H" 
			},
			{
				"x": 3.6649161379,
				"y": 1.0293997305,
				"z": 2.5180676804,
				"element": "H" 
			},
			{
				"x": 1.4579072195,
				"y": 0.1227317179,
				"z": 3.2563043253,
				"element": "H" 
			},
			{
				"x": 0.5030924417,
				"y": 2.2684224984,
				"z": 4.1085506609,
				"element": "H" 
			},
			{
				"x": 0.3005211494,
				"y": 2.8474559059,
				"z": 2.4496713993,
				"element": "H" 
			},
			{
				"x": -0.6321500087,
				"y": 1.4570173321,
				"z": 3.0277524419,
				"element": "H" 
			},
			{
				"x": 1.3597210918,
				"y": 1.4028552051,
				"z": 0.487548183,
				"element": "H" 
			},
			{
				"x": 2.1942831326,
				"y": -0.0737541715,
				"z": 0.9082458579,
				"element": "H" 
			},
			{
				"x": 0.2903247097,
				"y": -1.1433444513,
				"z": 0.2261523151,
				"element": "H" 
			},
			{
				"x": -0.3230253361,
				"y": -0.7364044896,
				"z": 1.8059097103,
				"element": "H" 
			},
			{
				"x": -1.3387010584,
				"y": 1.384499971,
				"z": 0.8139933926,
				"element": "H" 
			},
			{
				"x": -2.0358440485,
				"y": -0.1249541845,
				"z": 0.2642627984,
				"element": "H" 
			},
			{
				"x": -1.6873397956,
				"y": 1.618401298,
				"z": -1.5337976404,
				"element": "H" 
			},
			{
				"x": 0.0514792953,
				"y": 1.4629473901,
				"z": -1.3447584169,
				"element": "H" 
			},
			{
				"x": -1.8386960876,
				"y": -0.804126773,
				"z": -2.1636727905,
				"element": "H" 
			},
			{
				"x": -0.0848521607,
				"y": -0.948640058,
				"z": -2.0202611159,
				"element": "H" 
			},
			{
				"x": -1.3561244885,
				"y": 0.8079372365,
				"z": -3.812523256,
				"element": "H" 
			}
		],
		 "valence_orbital": [ 
			{
				"type": "occ",
				"energy": -0.31825,
				"method": "rhf"
			},
			{
				"type": "occ",
				"energy": -0.31203,
				"method": "rhf"
			},
			{
				"type": "occ",
				"energy": -0.30776,
				"method": "rhf"
			},
			{
				"type": "occ",
				"energy": -0.29955,
				"method": "rhf"
			},
			{
				"type": "occ",
				"energy": -0.25969,
				"method": "rhf"
			},
			{
				"type": "unocc",
				"energy": 0.0788,
				"method": "rhf"
			},
			{
				"type": "unocc",
				"energy": 0.08127,
				"method": "rhf"
			},
			{
				"type": "unocc",
				"energy": 0.10507,
				"method": "rhf"
			},
			{
				"type": "unocc",
				"energy": 0.11129,
				"method": "rhf"
			},
			{
				"type": "unocc",
				"energy": 0.11279,
				"method": "rhf"
			}
		],
		"cosmo_sigma_profile": { 
			"-0.025": 0.0,
			"-0.024": 0.0,
			"-0.023": 0.0,
			"-0.022": 0.0,
			"-0.021": 0.0,
			"-0.02": 0.0,
			"-0.019": 0.0,
			"-0.018": 0.0,
			"-0.017": 0.0,
			"-0.016": 0.0,
			"-0.015": 0.508435180376,
			"-0.014": 0.916149052949,
			"-0.013": 1.06312200922,
			"-0.012": 0.67474035312,
			"-0.011": 0.810681224328,
			"-0.01": 0.944268682328,
			"-0.009": 0.652358956323,
			"-0.008": 1.68932501469,
			"-0.007": 1.04558836483,
			"-0.006": 0.754299856242,
			"-0.005": 1.34467751824,
			"-0.004": 2.8494776229,
			"-0.003": 9.68703757371,
			"-0.002": 31.6114767804,
			"-0.001": 45.8425386794,
			"0.0": 40.7829935908,
			"0.001": 30.0855541271,
			"0.002": 19.0577576758,
			"0.003": 2.41838068962,
			"0.004": 1.66045665154,
			"0.005": 0.859563704555,
			"0.006": 1.07843827249,
			"0.007": 1.54138485332,
			"0.008": 1.28255133646,
			"0.009": 1.32734512731,
			"0.01": 0.655555337256,
			"0.011": 1.84193188806,
			"0.012": 1.0447021432,
			"0.013": 1.56416968832,
			"0.014": 2.25347198921,
			"0.015": 1.95040695055,
			"0.016": 0.0166762124139,
			"0.017": 0.0,
			"0.018": 0.0,
			"0.019": 0.0,
			"0.02": 0.0,
			"0.021": 0.0,
			"0.022": 0.0,
			"0.023": 0.0,
			"0.024": 0.0,
			"0.025": 0.0
		}
	}
}
