{
	 "smiles": "NC(=O)C1=CC=CC(=C1)C#N", 
	 "Tm": 496.15, 
	 "num_atms": 17, 
	 "gaussian": { 
		 "optdone": 1, 
		 "sigma_profile": "yes", 
		 "theory": "DFT", 
		 "functional": "B3LYP", 
		 "basiset": "6-31G**", 
		 "properties": { 
			 "R2extent": 1911.8825, 
			 "electric_dipole_moment_norm": 6.84803220933, 
			 "electric_quadrupole_moment_norm": 7.45325853369, 
			 "total_energy": -493.194527634, 
			 "HOMO_LUMO_gap": 0.19842, 
			 "cosmo_polarized_energy": -17.93, 
			 "cosmo_cavitation_energy": 23.04, 
			 "cosmo_dispersion_energy": -16.4, 
			 "cosmo_repulsion_energy": 1.33, 
			 "cosmo_total_nonelectrostatic_energy": 7.97, 
			 "SMD_solvation_energy": 6.23 
		},
		"coords": [
			{
				"x": 1.7429150091,
				"y": 0.9570076023,
				"z": -2.6010101045,
				"element": "N" 
			},
			{
				"x": 1.6410248019,
				"y": 0.6530593875,
				"z": -1.2659489102,
				"element": "C" 
			},
			{
				"x": 2.618471515,
				"y": 0.606482241,
				"z": -0.5316335178,
				"element": "O" 
			},
			{
				"x": 0.2500716017,
				"y": 0.4059146422,
				"z": -0.7427256874,
				"element": "C" 
			},
			{
				"x": -0.9127046289,
				"y": 0.8264595199,
				"z": -1.4025095445,
				"element": "C" 
			},
			{
				"x": -2.1701743112,
				"y": 0.5712209486,
				"z": -0.8521473665,
				"element": "C" 
			},
			{
				"x": -2.2810342373,
				"y": -0.1056768049,
				"z": 0.3587886055,
				"element": "C" 
			},
			{
				"x": -1.1177041209,
				"y": -0.5195796874,
				"z": 1.0324901483,
				"element": "C" 
			},
			{
				"x": 0.1438433556,
				"y": -0.2553965466,
				"z": 0.4838686635,
				"element": "C" 
			},
			{
				"x": -1.2275897496,
				"y": -1.2120965477,
				"z": 2.2850485001,
				"element": "C" 
			},
			{
				"x": -1.3263344712,
				"y": -1.7747485222,
				"z": 3.2980501403,
				"element": "N" 
			},
			{
				"x": 2.6853841946,
				"y": 1.0113203508,
				"z": -2.9604665676,
				"element": "H" 
			},
			{
				"x": 1.0242022563,
				"y": 0.675853436,
				"z": -3.2494309154,
				"element": "H" 
			},
			{
				"x": -0.8433370582,
				"y": 1.3847481464,
				"z": -2.3311915544,
				"element": "H" 
			},
			{
				"x": -3.0651426541,
				"y": 0.907692005,
				"z": -1.3658858301,
				"element": "H" 
			},
			{
				"x": -3.2539139141,
				"y": -0.3111999051,
				"z": 0.7923757885,
				"element": "H" 
			},
			{
				"x": 1.0514224112,
				"y": -0.5527602656,
				"z": 0.996728152,
				"element": "H" 
			}
		],
		 "valence_orbital": [ 
			{
				"type": "occ",
				"energy": -0.33432,
				"method": "rhf"
			},
			{
				"type": "occ",
				"energy": -0.28833,
				"method": "rhf"
			},
			{
				"type": "occ",
				"energy": -0.28344,
				"method": "rhf"
			},
			{
				"type": "occ",
				"energy": -0.27507,
				"method": "rhf"
			},
			{
				"type": "occ",
				"energy": -0.26516,
				"method": "rhf"
			},
			{
				"type": "unocc",
				"energy": -0.06674,
				"method": "rhf"
			},
			{
				"type": "unocc",
				"energy": -0.04854,
				"method": "rhf"
			},
			{
				"type": "unocc",
				"energy": 0.02501,
				"method": "rhf"
			},
			{
				"type": "unocc",
				"energy": 0.03352,
				"method": "rhf"
			},
			{
				"type": "unocc",
				"energy": 0.05914,
				"method": "rhf"
			}
		],
		"cosmo_sigma_profile": { 
			"-0.025": 0.0,
			"-0.024": 0.0,
			"-0.023": 0.0,
			"-0.022": 0.0,
			"-0.021": 0.0,
			"-0.02": 0.0,
			"-0.019": 0.0,
			"-0.018": 0.0,
			"-0.017": 0.0,
			"-0.016": 0.0,
			"-0.015": 0.534662206571,
			"-0.014": 2.52921651547,
			"-0.013": 2.12764003234,
			"-0.012": 2.82177698296,
			"-0.011": 2.76925480526,
			"-0.01": 2.66812753797,
			"-0.009": 2.72592750298,
			"-0.008": 6.65210245,
			"-0.007": 9.5163327549,
			"-0.006": 9.45497678229,
			"-0.005": 7.95390584008,
			"-0.004": 7.67733595241,
			"-0.003": 7.94867627766,
			"-0.002": 13.1229051076,
			"-0.001": 13.1431985204,
			"0.0": 13.6100484816,
			"0.001": 15.690804301,
			"0.002": 9.94471991762,
			"0.003": 5.27675455613,
			"0.004": 4.02686917858,
			"0.005": 5.38229531132,
			"0.006": 3.72107935006,
			"0.007": 5.3792274997,
			"0.008": 4.70312297097,
			"0.009": 4.30561185204,
			"0.01": 5.08657529232,
			"0.011": 4.05781007137,
			"0.012": 5.00780362794,
			"0.013": 6.59040042743,
			"0.014": 1.53342950056,
			"0.015": 0.0172014004979,
			"0.016": 0.0,
			"0.017": 0.0,
			"0.018": 0.0,
			"0.019": 0.0,
			"0.02": 0.0,
			"0.021": 0.0,
			"0.022": 0.0,
			"0.023": 0.0,
			"0.024": 0.0,
			"0.025": 0.0
		}
	}
}
