{
	 "smiles": "BrC1=C(Br)C=C(C=O)C=C1", 
	 "Tm": 344.15, 
	 "num_atms": 14, 
	 "gaussian": { 
		 "optdone": 1, 
		 "sigma_profile": "yes", 
		 "theory": "DFT", 
		 "functional": "B3LYP", 
		 "basiset": "6-31G**", 
		 "properties": { 
			 "R2extent": 5969.8881, 
			 "electric_dipole_moment_norm": 2.85300428671, 
			 "electric_quadrupole_moment_norm": 6.12320695388, 
			 "total_energy": -5487.17199108, 
			 "HOMO_LUMO_gap": 0.17839, 
			 "cosmo_polarized_energy": -7.77, 
			 "cosmo_cavitation_energy": 23.57, 
			 "cosmo_dispersion_energy": -18.01, 
			 "cosmo_repulsion_energy": 1.44, 
			 "cosmo_total_nonelectrostatic_energy": 7.01, 
			 "SMD_solvation_energy": 2.99 
		},
		"coords": [
			{
				"x": 1.2830059686,
				"y": -0.9278999835,
				"z": -4.1765924338,
				"element": "Br" 
			},
			{
				"x": 0.791123585,
				"y": -0.1968545323,
				"z": -2.497073522,
				"element": "C" 
			},
			{
				"x": 1.5527288741,
				"y": 0.802858998,
				"z": -1.8684340536,
				"element": "C" 
			},
			{
				"x": 3.1368672495,
				"y": 1.5026243232,
				"z": -2.6501793983,
				"element": "Br" 
			},
			{
				"x": 1.1462591072,
				"y": 1.3039950395,
				"z": -0.6365937489,
				"element": "C" 
			},
			{
				"x": -0.0145396721,
				"y": 0.8177169521,
				"z": -0.0230928488,
				"element": "C" 
			},
			{
				"x": -0.4352730413,
				"y": 1.3617584799,
				"z": 1.2904160352,
				"element": "C" 
			},
			{
				"x": 0.1651040127,
				"y": 2.2246564381,
				"z": 1.8996351586,
				"element": "O" 
			},
			{
				"x": -0.7697568577,
				"y": -0.1778444794,
				"z": -0.6527333447,
				"element": "C" 
			},
			{
				"x": -0.368230356,
				"y": -0.6828088557,
				"z": -1.8847309412,
				"element": "C" 
			},
			{
				"x": 1.7199562976,
				"y": 2.0753777696,
				"z": -0.1353233944,
				"element": "H" 
			},
			{
				"x": -1.3683390164,
				"y": 0.9139427736,
				"z": 1.6979693979,
				"element": "H" 
			},
			{
				"x": -1.6713720731,
				"y": -0.557486774,
				"z": -0.1790579023,
				"element": "H" 
			},
			{
				"x": -0.9439340781,
				"y": -1.4539361492,
				"z": -2.3832090037,
				"element": "H" 
			}
		],
		 "valence_orbital": [ 
			{
				"type": "occ",
				"energy": -0.31735,
				"method": "rhf"
			},
			{
				"type": "occ",
				"energy": -0.2879,
				"method": "rhf"
			},
			{
				"type": "occ",
				"energy": -0.27172,
				"method": "rhf"
			},
			{
				"type": "occ",
				"energy": -0.26917,
				"method": "rhf"
			},
			{
				"type": "occ",
				"energy": -0.26012,
				"method": "rhf"
			},
			{
				"type": "unocc",
				"energy": -0.08173,
				"method": "rhf"
			},
			{
				"type": "unocc",
				"energy": -0.03843,
				"method": "rhf"
			},
			{
				"type": "unocc",
				"energy": -0.03066,
				"method": "rhf"
			},
			{
				"type": "unocc",
				"energy": 0.01653,
				"method": "rhf"
			},
			{
				"type": "unocc",
				"energy": 0.02516,
				"method": "rhf"
			}
		],
		"cosmo_sigma_profile": { 
			"-0.025": 0.0,
			"-0.024": 0.0,
			"-0.023": 0.0,
			"-0.022": 0.0,
			"-0.021": 0.0,
			"-0.02": 0.0,
			"-0.019": 0.0,
			"-0.018": 0.0,
			"-0.017": 0.0,
			"-0.016": 0.0,
			"-0.015": 0.0,
			"-0.014": 0.0,
			"-0.013": 0.0,
			"-0.012": 0.0,
			"-0.011": 0.0,
			"-0.01": 0.0539081868179,
			"-0.009": 2.0812912081,
			"-0.008": 6.30194558393,
			"-0.007": 8.0275837651,
			"-0.006": 8.20716428126,
			"-0.005": 9.14591952039,
			"-0.004": 9.81215728133,
			"-0.003": 9.45292161164,
			"-0.002": 12.420112018,
			"-0.001": 18.1950183166,
			"0.0": 26.99041983,
			"0.001": 19.6541870128,
			"0.002": 12.535320132,
			"0.003": 19.4526587063,
			"0.004": 14.03699862,
			"0.005": 4.14479901037,
			"0.006": 1.38473686127,
			"0.007": 1.67549253123,
			"0.008": 2.05846625177,
			"0.009": 1.75162841972,
			"0.01": 3.73446322705,
			"0.011": 3.69217690188,
			"0.012": 1.5819684458,
			"0.013": 0.134151254653,
			"0.014": 0.0,
			"0.015": 0.0,
			"0.016": 0.0,
			"0.017": 0.0,
			"0.018": 0.0,
			"0.019": 0.0,
			"0.02": 0.0,
			"0.021": 0.0,
			"0.022": 0.0,
			"0.023": 0.0,
			"0.024": 0.0,
			"0.025": 0.0
		}
	}
}
