{
	 "smiles": "FC(F)(F)COC(=O)NC1=COC=N1", 
	 "Tm": 405.15, 
	 "num_atms": 19, 
	 "gaussian": { 
		 "optdone": 1, 
		 "sigma_profile": "yes", 
		 "theory": "DFT", 
		 "functional": "B3LYP", 
		 "basiset": "6-31G**", 
		 "properties": { 
			 "R2extent": 3481.6134, 
			 "electric_dipole_moment_norm": 1.78082246448, 
			 "electric_quadrupole_moment_norm": 7.05711800029, 
			 "total_energy": -866.344551426, 
			 "HOMO_LUMO_gap": 0.22074, 
			 "cosmo_polarized_energy": -10.76, 
			 "cosmo_cavitation_energy": 26.34, 
			 "cosmo_dispersion_energy": -18.47, 
			 "cosmo_repulsion_energy": 1.39, 
			 "cosmo_total_nonelectrostatic_energy": 9.26, 
			 "SMD_solvation_energy": 6.82 
		},
		"coords": [
			{
				"x": -0.3994185885,
				"y": -3.4386108018,
				"z": -0.412033445,
				"element": "F" 
			},
			{
				"x": 0.6578036642,
				"y": -3.0166599719,
				"z": 0.3153169364,
				"element": "C" 
			},
			{
				"x": 1.4468467974,
				"y": -4.0818979759,
				"z": 0.5579095494,
				"element": "F" 
			},
			{
				"x": 0.1889996052,
				"y": -2.5588100211,
				"z": 1.4889934793,
				"element": "F" 
			},
			{
				"x": 1.4485487922,
				"y": -1.9529297934,
				"z": -0.4234175924,
				"element": "C" 
			},
			{
				"x": 0.5623375989,
				"y": -0.8858718306,
				"z": -0.7374224354,
				"element": "O" 
			},
			{
				"x": 0.8742201742,
				"y": 0.3415115128,
				"z": -0.2214682556,
				"element": "C" 
			},
			{
				"x": 1.8987084938,
				"y": 0.6076599077,
				"z": 0.3709935272,
				"element": "O" 
			},
			{
				"x": -0.1252118154,
				"y": 1.2339286529,
				"z": -0.4880173011,
				"element": "N" 
			},
			{
				"x": -1.3683835292,
				"y": 1.0083092886,
				"z": -1.0802283627,
				"element": "C" 
			},
			{
				"x": -1.996535285,
				"y": -0.1217518971,
				"z": -1.5109246507,
				"element": "C" 
			},
			{
				"x": -3.2237861593,
				"y": 0.272037407,
				"z": -1.9991934696,
				"element": "O" 
			},
			{
				"x": -3.2525393003,
				"y": 1.607631607,
				"z": -1.8286149173,
				"element": "C" 
			},
			{
				"x": -2.1844793658,
				"y": 2.1086882843,
				"z": -1.2896039816,
				"element": "N" 
			},
			{
				"x": 1.834289103,
				"y": -2.3791431379,
				"z": -1.352706838,
				"element": "H" 
			},
			{
				"x": 2.2713942907,
				"y": -1.5985778504,
				"z": 0.1998681301,
				"element": "H" 
			},
			{
				"x": 0.0464359702,
				"y": 2.1798188204,
				"z": -0.1774159063,
				"element": "H" 
			},
			{
				"x": -1.761320463,
				"y": -1.1692626577,
				"z": -1.5321234772,
				"element": "H" 
			},
			{
				"x": -4.1415099834,
				"y": 2.129430457,
				"z": -2.1502109894,
				"element": "H" 
			}
		],
		 "valence_orbital": [ 
			{
				"type": "occ",
				"energy": -0.3237,
				"method": "rhf"
			},
			{
				"type": "occ",
				"energy": -0.31135,
				"method": "rhf"
			},
			{
				"type": "occ",
				"energy": -0.30537,
				"method": "rhf"
			},
			{
				"type": "occ",
				"energy": -0.30081,
				"method": "rhf"
			},
			{
				"type": "occ",
				"energy": -0.23303,
				"method": "rhf"
			},
			{
				"type": "unocc",
				"energy": -0.01229,
				"method": "rhf"
			},
			{
				"type": "unocc",
				"energy": 0.01713,
				"method": "rhf"
			},
			{
				"type": "unocc",
				"energy": 0.06737,
				"method": "rhf"
			},
			{
				"type": "unocc",
				"energy": 0.08475,
				"method": "rhf"
			},
			{
				"type": "unocc",
				"energy": 0.10012,
				"method": "rhf"
			}
		],
		"cosmo_sigma_profile": { 
			"-0.025": 0.0,
			"-0.024": 0.0,
			"-0.023": 0.0,
			"-0.022": 0.0,
			"-0.021": 0.0,
			"-0.02": 0.0,
			"-0.019": 0.0,
			"-0.018": 0.0,
			"-0.017": 0.0,
			"-0.016": 0.659442010539,
			"-0.015": 0.607840320933,
			"-0.014": 0.928145282782,
			"-0.013": 0.983565474362,
			"-0.012": 0.427108469798,
			"-0.011": 2.48857219004,
			"-0.01": 3.36265749812,
			"-0.009": 6.31077197991,
			"-0.008": 5.55247864399,
			"-0.007": 7.28691621918,
			"-0.006": 6.60946828847,
			"-0.005": 5.89807688533,
			"-0.004": 6.80032812913,
			"-0.003": 10.1007734629,
			"-0.002": 12.8702456202,
			"-0.001": 18.5976889328,
			"0.0": 16.4651616543,
			"0.001": 20.0336542346,
			"0.002": 31.4201527617,
			"0.003": 19.3409298087,
			"0.004": 4.82876328933,
			"0.005": 3.89184680231,
			"0.006": 4.26046121016,
			"0.007": 3.30400857144,
			"0.008": 2.41585388205,
			"0.009": 2.80610915512,
			"0.01": 2.39614015554,
			"0.011": 4.98027197763,
			"0.012": 4.48602327505,
			"0.013": 1.07391768015,
			"0.014": 0.68354030391,
			"0.015": 0.0332675455766,
			"0.016": 0.0,
			"0.017": 0.0,
			"0.018": 0.0,
			"0.019": 0.0,
			"0.02": 0.0,
			"0.021": 0.0,
			"0.022": 0.0,
			"0.023": 0.0,
			"0.024": 0.0,
			"0.025": 0.0
		}
	}
}
