{
	 "smiles": "OC(=O)CCS(=O)(=O)C1=CC=C(Cl)C=C1", 
	 "Tm": 455.15, 
	 "num_atms": 24, 
	 "gaussian": { 
		 "optdone": 1, 
		 "sigma_profile": "yes", 
		 "theory": "DFT", 
		 "functional": "B3LYP", 
		 "basiset": "6-31G**", 
		 "properties": { 
			 "R2extent": 5664.761, 
			 "electric_dipole_moment_norm": 6.04972250025, 
			 "electric_quadrupole_moment_norm": 21.4305620757, 
			 "total_energy": -1507.60495239, 
			 "HOMO_LUMO_gap": 0.19387, 
			 "cosmo_polarized_energy": -21.46, 
			 "cosmo_cavitation_energy": 31.36, 
			 "cosmo_dispersion_energy": -23.13, 
			 "cosmo_repulsion_energy": 1.77, 
			 "cosmo_total_nonelectrostatic_energy": 9.99, 
			 "SMD_solvation_energy": 5.48 
		},
		"coords": [
			{
				"x": 2.2376001359,
				"y": 2.6611594122,
				"z": 2.6474019895,
				"element": "O" 
			},
			{
				"x": 2.9080046352,
				"y": 1.7485741938,
				"z": 1.930125825,
				"element": "C" 
			},
			{
				"x": 4.109420723,
				"y": 1.6424162424,
				"z": 2.0054602589,
				"element": "O" 
			},
			{
				"x": 2.0898946594,
				"y": 0.8415636465,
				"z": 0.9961932069,
				"element": "C" 
			},
			{
				"x": 0.8934134656,
				"y": 0.120276102,
				"z": 1.6387163227,
				"element": "C" 
			},
			{
				"x": -0.6879392453,
				"y": 1.0267379392,
				"z": 1.5825853776,
				"element": "S" 
			},
			{
				"x": -1.6630613235,
				"y": 0.260612878,
				"z": 2.367950867,
				"element": "O" 
			},
			{
				"x": -0.386263458,
				"y": 2.4434525915,
				"z": 1.9168452963,
				"element": "O" 
			},
			{
				"x": -1.1930938658,
				"y": 0.9987132956,
				"z": -0.1392764158,
				"element": "C" 
			},
			{
				"x": -0.9136961924,
				"y": 2.0935010251,
				"z": -0.959915179,
				"element": "C" 
			},
			{
				"x": -1.3117507201,
				"y": 2.0644923084,
				"z": -2.295700312,
				"element": "C" 
			},
			{
				"x": -1.9846911832,
				"y": 0.9418234594,
				"z": -2.7818904479,
				"element": "C" 
			},
			{
				"x": -2.4820011243,
				"y": 0.9021279367,
				"z": -4.4579849884,
				"element": "Cl" 
			},
			{
				"x": -2.2792378185,
				"y": -0.1476943967,
				"z": -1.9572025706,
				"element": "C" 
			},
			{
				"x": -1.8827824127,
				"y": -0.1165199746,
				"z": -0.6227368403,
				"element": "C" 
			},
			{
				"x": 1.2769794746,
				"y": 2.6722983305,
				"z": 2.4376604136,
				"element": "H" 
			},
			{
				"x": 2.7924724773,
				"y": 0.0931067669,
				"z": 0.6259539196,
				"element": "H" 
			},
			{
				"x": 1.7655449158,
				"y": 1.4238242088,
				"z": 0.1246334241,
				"element": "H" 
			},
			{
				"x": 0.691084811,
				"y": -0.8378222148,
				"z": 1.1531698403,
				"element": "H" 
			},
			{
				"x": 1.0395391686,
				"y": -0.0739573984,
				"z": 2.706294224,
				"element": "H" 
			},
			{
				"x": -0.4145894675,
				"y": 2.9645633538,
				"z": -0.5498406024,
				"element": "H" 
			},
			{
				"x": -1.1101090249,
				"y": 2.9040667769,
				"z": -2.951062887,
				"element": "H" 
			},
			{
				"x": -2.8189568489,
				"y": -0.9995867817,
				"z": -2.3547447848,
				"element": "H" 
			},
			{
				"x": -2.1268817813,
				"y": -0.9381297015,
				"z": 0.0425640626,
				"element": "H" 
			}
		],
		 "valence_orbital": [ 
			{
				"type": "occ",
				"energy": -0.316,
				"method": "rhf"
			},
			{
				"type": "occ",
				"energy": -0.3063,
				"method": "rhf"
			},
			{
				"type": "occ",
				"energy": -0.30333,
				"method": "rhf"
			},
			{
				"type": "occ",
				"energy": -0.28729,
				"method": "rhf"
			},
			{
				"type": "occ",
				"energy": -0.26551,
				"method": "rhf"
			},
			{
				"type": "unocc",
				"energy": -0.07164,
				"method": "rhf"
			},
			{
				"type": "unocc",
				"energy": -0.05422,
				"method": "rhf"
			},
			{
				"type": "unocc",
				"energy": 0.00029,
				"method": "rhf"
			},
			{
				"type": "unocc",
				"energy": 0.00996,
				"method": "rhf"
			},
			{
				"type": "unocc",
				"energy": 0.0399,
				"method": "rhf"
			}
		],
		"cosmo_sigma_profile": { 
			"-0.025": 0.0,
			"-0.024": 0.0,
			"-0.023": 0.0,
			"-0.022": 0.0,
			"-0.021": 0.0,
			"-0.02": 0.0,
			"-0.019": 0.0,
			"-0.018": 0.0,
			"-0.017": 0.0,
			"-0.016": 0.0,
			"-0.015": 0.0,
			"-0.014": 0.0,
			"-0.013": 0.0,
			"-0.012": 0.00310806854596,
			"-0.011": 1.03528656285,
			"-0.01": 3.71558920461,
			"-0.009": 9.40223662533,
			"-0.008": 16.5975676473,
			"-0.007": 15.8963618386,
			"-0.006": 14.921439648,
			"-0.005": 12.5014794187,
			"-0.004": 11.5681698406,
			"-0.003": 10.8104422413,
			"-0.002": 12.6621791605,
			"-0.001": 13.6785130223,
			"0.0": 21.7154315534,
			"0.001": 19.2058490432,
			"0.002": 10.3139372628,
			"0.003": 12.0310211037,
			"0.004": 11.1874876726,
			"0.005": 4.46463482977,
			"0.006": 3.78619716286,
			"0.007": 5.07692012052,
			"0.008": 5.91915739553,
			"0.009": 5.97431644208,
			"0.01": 9.76682820714,
			"0.011": 10.8312846306,
			"0.012": 6.61548140654,
			"0.013": 3.14893426188,
			"0.014": 0.34465199061,
			"0.015": 0.0,
			"0.016": 0.0,
			"0.017": 0.0,
			"0.018": 0.0,
			"0.019": 0.0,
			"0.02": 0.0,
			"0.021": 0.0,
			"0.022": 0.0,
			"0.023": 0.0,
			"0.024": 0.0,
			"0.0": 0.0
		}
	}
}
