{
	 "smiles": "NC1=CC=C(C=C1)C1=NC2=C(S1)C=CC=C2", 
	 "Tm": 423.15, 
	 "num_atms": 26, 
	 "gaussian": { 
		 "optdone": 1, 
		 "sigma_profile": "yes", 
		 "theory": "DFT", 
		 "functional": "B3LYP", 
		 "basiset": "6-31G**", 
		 "properties": { 
			 "R2extent": 5542.281, 
			 "electric_dipole_moment_norm": 3.15216303671, 
			 "electric_quadrupole_moment_norm": 27.2125848517, 
			 "total_energy": -1009.12275644, 
			 "HOMO_LUMO_gap": 0.15167, 
			 "cosmo_polarized_energy": -12.59, 
			 "cosmo_cavitation_energy": 31.71, 
			 "cosmo_dispersion_energy": -24.27, 
			 "cosmo_repulsion_energy": 1.81, 
			 "cosmo_total_nonelectrostatic_energy": 9.25, 
			 "SMD_solvation_energy": 3.29 
		},
		"coords": [
			{
				"x": -5.2705970971,
				"y": -1.9861929648,
				"z": 2.4291758021,
				"element": "N" 
			},
			{
				"x": -3.9900296424,
				"y": -1.6623552114,
				"z": 2.0044659194,
				"element": "C" 
			},
			{
				"x": -3.7906821401,
				"y": -0.8172961993,
				"z": 0.8943933539,
				"element": "C" 
			},
			{
				"x": -2.5129036575,
				"y": -0.5352827186,
				"z": 0.4397320947,
				"element": "C" 
			},
			{
				"x": -1.378502792,
				"y": -1.0822252128,
				"z": 1.0702915105,
				"element": "C" 
			},
			{
				"x": -1.5822157206,
				"y": -1.9250741958,
				"z": 2.1756770788,
				"element": "C" 
			},
			{
				"x": -2.8592779742,
				"y": -2.2118803645,
				"z": 2.6372052369,
				"element": "C" 
			},
			{
				"x": -0.0480970206,
				"y": -0.7552713802,
				"z": 0.5598608522,
				"element": "C" 
			},
			{
				"x": 0.1734285215,
				"y": 0.0262565891,
				"z": -0.4555818533,
				"element": "N" 
			},
			{
				"x": 1.5221661262,
				"y": 0.1609531602,
				"z": -0.7209318796,
				"element": "C" 
			},
			{
				"x": 2.3881251728,
				"y": -0.558425274,
				"z": 0.1404029489,
				"element": "C" 
			},
			{
				"x": 1.4315655547,
				"y": -1.4296523403,
				"z": 1.3207977548,
				"element": "S" 
			},
			{
				"x": 3.7748322726,
				"y": -0.5121160659,
				"z": -0.0141530314,
				"element": "C" 
			},
			{
				"x": 4.2957540963,
				"y": 0.2662405628,
				"z": -1.0462582529,
				"element": "C" 
			},
			{
				"x": 3.4489981959,
				"y": 0.984628599,
				"z": -1.9076417243,
				"element": "C" 
			},
			{
				"x": 2.0683218137,
				"y": 0.9385400942,
				"z": -1.7537810968,
				"element": "C" 
			},
			{
				"x": -5.3576927385,
				"y": -2.3168865355,
				"z": 3.3792724534,
				"element": "H" 
			},
			{
				"x": -6.0048796072,
				"y": -1.3454147756,
				"z": 2.1648075226,
				"element": "H" 
			},
			{
				"x": -4.6518473649,
				"y": -0.3864327064,
				"z": 0.3895907667,
				"element": "H" 
			},
			{
				"x": -2.3649860028,
				"y": 0.11764166,
				"z": -0.4133734199,
				"element": "H" 
			},
			{
				"x": -0.7321126007,
				"y": -2.3648294739,
				"z": 2.6900410512,
				"element": "H" 
			},
			{
				"x": -2.9902692625,
				"y": -2.869590839,
				"z": 3.4925965932,
				"element": "H" 
			},
			{
				"x": 4.4321697993,
				"y": -1.0655582511,
				"z": 0.6489350334,
				"element": "H" 
			},
			{
				"x": 5.3717058366,
				"y": 0.3164297764,
				"z": -1.1845635927,
				"element": "H" 
			},
			{
				"x": 3.8807502486,
				"y": 1.5835044593,
				"z": -2.7040579679,
				"element": "H" 
			},
			{
				"x": 1.4024759829,
				"y": 1.4877896083,
				"z": -2.4113031539,
				"element": "H" 
			}
		],
		 "valence_orbital": [ 
			{
				"type": "occ",
				"energy": -0.2654,
				"method": "rhf"
			},
			{
				"type": "occ",
				"energy": -0.25533,
				"method": "rhf"
			},
			{
				"type": "occ",
				"energy": -0.24372,
				"method": "rhf"
			},
			{
				"type": "occ",
				"energy": -0.22633,
				"method": "rhf"
			},
			{
				"type": "occ",
				"energy": -0.1968,
				"method": "rhf"
			},
			{
				"type": "unocc",
				"energy": -0.04513,
				"method": "rhf"
			},
			{
				"type": "unocc",
				"energy": -0.00426,
				"method": "rhf"
			},
			{
				"type": "unocc",
				"energy": 0.00287,
				"method": "rhf"
			},
			{
				"type": "unocc",
				"energy": 0.02026,
				"method": "rhf"
			},
			{
				"type": "unocc",
				"energy": 0.02163,
				"method": "rhf"
			}
		],
		"cosmo_sigma_profile": { 
			"-0.025": 0.0,
			"-0.024": 0.0,
			"-0.023": 0.0,
			"-0.022": 0.0,
			"-0.021": 0.0,
			"-0.02": 0.0,
			"-0.019": 0.0,
			"-0.018": 0.0,
			"-0.017": 0.0,
			"-0.016": 0.0,
			"-0.015": 0.0,
			"-0.014": 0.126470128967,
			"-0.013": 1.8844649319,
			"-0.012": 3.06249205121,
			"-0.011": 3.23259122239,
			"-0.01": 2.8279822954,
			"-0.009": 2.96946657863,
			"-0.008": 2.81569720278,
			"-0.007": 6.15432570499,
			"-0.006": 13.6155077032,
			"-0.005": 16.056878326,
			"-0.004": 16.9082268333,
			"-0.003": 13.4497893271,
			"-0.002": 11.3116473005,
			"-0.001": 12.0697138191,
			"0.0": 14.4582510208,
			"0.001": 19.1609452932,
			"0.002": 21.958370482,
			"0.003": 24.7488920805,
			"0.004": 27.70807306,
			"0.005": 24.7906280983,
			"0.006": 4.88880502906,
			"0.007": 2.86017523695,
			"0.008": 2.50281200487,
			"0.009": 1.87854570105,
			"0.01": 1.83420778071,
			"0.011": 1.35804787982,
			"0.012": 1.82091167974,
			"0.013": 0.47406137239,
			"0.014": 0.0,
			"0.015": 0.0,
			"0.016": 0.0,
			"0.017": 0.0,
			"0.018": 0.0,
			"0.019": 0.0,
			"0.02": 0.0,
			"0.021": 0.0,
			"0.022": 0.0,
			"0.023": 0.0,
			"0.024": 0.0,
			"0.025": 0.0
		}
	}
}
