{
	 "smiles": "CCCCCCCCCCCCCCCN", 
	 "Tm": 310.45, 
	 "num_atms": 49, 
	 "gaussian": { 
		 "optdone": 1, 
		 "sigma_profile": "yes", 
		 "theory": "DFT", 
		 "functional": "B3LYP", 
		 "basiset": "6-31G**", 
		 "properties": { 
			 "R2extent": 6277.7168, 
			 "electric_dipole_moment_norm": 1.26776094355, 
			 "electric_quadrupole_moment_norm": 8.94635823226, 
			 "total_energy": -646.26287642, 
			 "HOMO_LUMO_gap": 0.29252, 
			 "cosmo_polarized_energy": -5.34, 
			 "cosmo_cavitation_energy": 46.26, 
			 "cosmo_dispersion_energy": -29.74, 
			 "cosmo_repulsion_energy": 2.42, 
			 "cosmo_total_nonelectrostatic_energy": 18.94, 
			 "SMD_solvation_energy": 4.82 
		},
		"coords": [
			{
				"x": 2.7042524092,
				"y": -1.2924267478,
				"z": 2.7133105319,
				"element": "C" 
			},
			{
				"x": 3.6903311203,
				"y": -0.2947433391,
				"z": 2.0933194898,
				"element": "C" 
			},
			{
				"x": 3.6481667195,
				"y": -0.145232598,
				"z": 0.5607441292,
				"element": "C" 
			},
			{
				"x": 4.1333691419,
				"y": -1.3553733063,
				"z": -0.2662333778,
				"element": "C" 
			},
			{
				"x": 3.1453311713,
				"y": -2.5026348207,
				"z": -0.5656597003,
				"element": "C" 
			},
			{
				"x": 1.9549071644,
				"y": -2.1481282431,
				"z": -1.4884813075,
				"element": "C" 
			},
			{
				"x": 0.6529143865,
				"y": -1.7639264988,
				"z": -0.7653528584,
				"element": "C" 
			},
			{
				"x": -0.5500256325,
				"y": -1.5355012921,
				"z": -1.6990397284,
				"element": "C" 
			},
			{
				"x": -0.448978143,
				"y": -0.3129588921,
				"z": -2.6342165188,
				"element": "C" 
			},
			{
				"x": -0.4655824866,
				"y": 1.0787614955,
				"z": -1.9603701753,
				"element": "C" 
			},
			{
				"x": -1.8530922182,
				"y": 1.7315957642,
				"z": -1.8003348262,
				"element": "C" 
			},
			{
				"x": -2.8526523617,
				"y": 1.0452848607,
				"z": -0.8512201393,
				"element": "C" 
			},
			{
				"x": -2.4236432651,
				"y": 0.9415862376,
				"z": 0.6236315511,
				"element": "C" 
			},
			{
				"x": -2.2470346408,
				"y": 2.2929403748,
				"z": 1.3309870423,
				"element": "C" 
			},
			{
				"x": -1.8282807088,
				"y": 2.174095673,
				"z": 2.801103619,
				"element": "C" 
			},
			{
				"x": -2.867766161,
				"y": 1.525123966,
				"z": 3.6102602975,
				"element": "N" 
			},
			{
				"x": 2.9279010779,
				"y": -2.3245691214,
				"z": 2.4283587301,
				"element": "H" 
			},
			{
				"x": 1.6742566092,
				"y": -1.0791266863,
				"z": 2.4052231808,
				"element": "H" 
			},
			{
				"x": 2.7395800991,
				"y": -1.242368985,
				"z": 3.807159932,
				"element": "H" 
			},
			{
				"x": 4.712697919,
				"y": -0.565655823,
				"z": 2.392070235,
				"element": "H" 
			},
			{
				"x": 3.5042141101,
				"y": 0.6944781796,
				"z": 2.532290572,
				"element": "H" 
			},
			{
				"x": 4.2929881246,
				"y": 0.7060748543,
				"z": 0.3060651965,
				"element": "H" 
			},
			{
				"x": 2.639398362,
				"y": 0.1508591736,
				"z": 0.2468855583,
				"element": "H" 
			},
			{
				"x": 4.493110597,
				"y": -0.981991867,
				"z": -1.2349326764,
				"element": "H" 
			},
			{
				"x": 5.018134029,
				"y": -1.7786807301,
				"z": 0.2304633318,
				"element": "H" 
			},
			{
				"x": 2.7660229815,
				"y": -2.9438822055,
				"z": 0.3634286406,
				"element": "H" 
			},
			{
				"x": 3.7288328541,
				"y": -3.296484726,
				"z": -1.0492874786,
				"element": "H" 
			},
			{
				"x": 2.2597952798,
				"y": -1.3472344509,
				"z": -2.1749782525,
				"element": "H" 
			},
			{
				"x": 1.733435943,
				"y": -3.0150088005,
				"z": -2.1259012979,
				"element": "H" 
			},
			{
				"x": 0.3969600416,
				"y": -2.5723135418,
				"z": -0.0668107095,
				"element": "H" 
			},
			{
				"x": 0.8126364019,
				"y": -0.8765868464,
				"z": -0.1413129896,
				"element": "H" 
			},
			{
				"x": -1.4568752893,
				"y": -1.4590372141,
				"z": -1.0882959584,
				"element": "H" 
			},
			{
				"x": -0.6818166282,
				"y": -2.4334253427,
				"z": -2.3191099594,
				"element": "H" 
			},
			{
				"x": 0.4694587688,
				"y": -0.407310638,
				"z": -3.2264192106,
				"element": "H" 
			},
			{
				"x": -1.2696464027,
				"y": -0.360852868,
				"z": -3.3630391157,
				"element": "H" 
			},
			{
				"x": 0.1390892106,
				"y": 1.7627862443,
				"z": -2.5690261226,
				"element": "H" 
			},
			{
				"x": 0.0427454489,
				"y": 1.0339641206,
				"z": -0.9887064174,
				"element": "H" 
			},
			{
				"x": -1.7079082513,
				"y": 2.7703166529,
				"z": -1.4765715269,
				"element": "H" 
			},
			{
				"x": -2.3176010941,
				"y": 1.796335165,
				"z": -2.7940537484,
				"element": "H" 
			},
			{
				"x": -3.8008753977,
				"y": 1.5983452986,
				"z": -0.8979293303,
				"element": "H" 
			},
			{
				"x": -3.0798255843,
				"y": 0.0398503902,
				"z": -1.2267613267,
				"element": "H" 
			},
			{
				"x": -1.4907338733,
				"y": 0.3659803553,
				"z": 0.7039086225,
				"element": "H" 
			},
			{
				"x": -3.1888396336,
				"y": 0.3600803274,
				"z": 1.1539948965,
				"element": "H" 
			},
			{
				"x": -3.1882916169,
				"y": 2.855257641,
				"z": 1.2820239841,
				"element": "H" 
			},
			{
				"x": -1.4880349942,
				"y": 2.8900184172,
				"z": 0.8097433985,
				"element": "H" 
			},
			{
				"x": -0.8444876171,
				"y": 1.6703667104,
				"z": 2.8525813601,
				"element": "H" 
			},
			{
				"x": -1.6799878334,
				"y": 3.1823083223,
				"z": 3.205869271,
				"element": "H" 
			},
			{
				"x": -2.6302332288,
				"y": 1.5963615354,
				"z": 4.5964138003,
				"element": "H" 
			},
			{
				"x": -2.8985169085,
				"y": 0.5299838248,
				"z": 3.403507382,
				"element": "H" 
			}
		],
		 "valence_orbital": [ 
			{
				"type": "occ",
				"energy": -0.30187,
				"method": "rhf"
			},
			{
				"type": "occ",
				"energy": -0.2982,
				"method": "rhf"
			},
			{
				"type": "occ",
				"energy": -0.29424,
				"method": "rhf"
			},
			{
				"type": "occ",
				"energy": -0.29232,
				"method": "rhf"
			},
			{
				"type": "occ",
				"energy": -0.22846,
				"method": "rhf"
			},
			{
				"type": "unocc",
				"energy": 0.06406,
				"method": "rhf"
			},
			{
				"type": "unocc",
				"energy": 0.0848,
				"method": "rhf"
			},
			{
				"type": "unocc",
				"energy": 0.08809,
				"method": "rhf"
			},
			{
				"type": "unocc",
				"energy": 0.09291,
				"method": "rhf"
			},
			{
				"type": "unocc",
				"energy": 0.10027,
				"method": "rhf"
			}
		],
		"cosmo_sigma_profile": { 
			"-0.025": 0.0,
			"-0.024": 0.0,
			"-0.023": 0.0,
			"-0.022": 0.0,
			"-0.021": 0.0,
			"-0.02": 0.0,
			"-0.019": 0.0,
			"-0.018": 0.0,
			"-0.017": 0.0,
			"-0.016": 0.0,
			"-0.015": 0.0,
			"-0.014": 0.0,
			"-0.013": 0.0,
			"-0.012": 0.0,
			"-0.011": 0.0,
			"-0.01": 0.243652584499,
			"-0.009": 1.70428419512,
			"-0.008": 2.94851233795,
			"-0.007": 1.55474094603,
			"-0.006": 3.60712870514,
			"-0.005": 3.19349871313,
			"-0.004": 2.70313945673,
			"-0.003": 7.18762878794,
			"-0.002": 39.8617662026,
			"-0.001": 80.3304119124,
			"0.0": 89.3826415411,
			"0.001": 73.4467571079,
			"0.002": 32.6901498243,
			"0.003": 1.43465720469,
			"0.004": 1.4507918278,
			"0.005": 1.5612138788,
			"0.006": 0.582500239909,
			"0.007": 0.754018133379,
			"0.008": 0.605369933818,
			"0.009": 0.634940420882,
			"0.01": 1.0252852301,
			"0.011": 0.317940532291,
			"0.012": 1.03496051735,
			"0.013": 0.447624321882,
			"0.014": 0.998848964747,
			"0.015": 0.440037757674,
			"0.016": 0.494425437417,
			"0.017": 0.318843723645,
			"0.018": 0.952881250182,
			"0.019": 0.543572301085,
			"0.02": 0.401390403025,
			"0.021": 0.0907654583984,
			"0.022": 0.0,
			"0.023": 0.0,
			"0.024": 0.0,
			"0.025": 0.0
		}
	}
}
