{
	 "smiles": "OCC1=CN(N=C1C1=CC=CC=C1)C1=CC=CC=C1", 
	 "Tm": 365.15, 
	 "num_atms": 33, 
	 "gaussian": { 
		 "optdone": 1, 
		 "sigma_profile": "yes", 
		 "theory": "DFT", 
		 "functional": "B3LYP", 
		 "basiset": "6-31G**", 
		 "properties": { 
			 "R2extent": 6513.7547, 
			 "electric_dipole_moment_norm": 1.30640986677, 
			 "electric_quadrupole_moment_norm": 12.3338901945, 
			 "total_energy": -802.844328561, 
			 "HOMO_LUMO_gap": 0.17807, 
			 "cosmo_polarized_energy": -12.77, 
			 "cosmo_cavitation_energy": 37.02, 
			 "cosmo_dispersion_energy": -26.82, 
			 "cosmo_repulsion_energy": 2.04, 
			 "cosmo_total_nonelectrostatic_energy": 12.24, 
			 "SMD_solvation_energy": 5.56 
		},
		"coords": [
			{
				"x": 0.1810181906,
				"y": 1.4597546556,
				"z": 3.6782179723,
				"element": "O" 
			},
			{
				"x": -0.6995215141,
				"y": 0.6432858647,
				"z": 2.9136005253,
				"element": "C" 
			},
			{
				"x": -0.4492487526,
				"y": 0.7611954898,
				"z": 1.4347465772,
				"element": "C" 
			},
			{
				"x": 0.190090677,
				"y": 1.8200829439,
				"z": 0.8269457609,
				"element": "C" 
			},
			{
				"x": 0.282066714,
				"y": 1.5323460966,
				"z": -0.5061559964,
				"element": "N" 
			},
			{
				"x": -0.267019621,
				"y": 0.3301197176,
				"z": -0.7962809526,
				"element": "N" 
			},
			{
				"x": -0.7184492328,
				"y": -0.1518870152,
				"z": 0.3662559783,
				"element": "C" 
			},
			{
				"x": -1.3699359163,
				"y": -1.4728289797,
				"z": 0.408324864,
				"element": "C" 
			},
			{
				"x": -2.3304262166,
				"y": -1.7894425006,
				"z": 1.3830645722,
				"element": "C" 
			},
			{
				"x": -2.9333378097,
				"y": -3.0476553933,
				"z": 1.4077811881,
				"element": "C" 
			},
			{
				"x": -2.5937698385,
				"y": -4.0086527935,
				"z": 0.4553139426,
				"element": "C" 
			},
			{
				"x": -1.6484989136,
				"y": -3.7003372285,
				"z": -0.5272250569,
				"element": "C" 
			},
			{
				"x": -1.041558154,
				"y": -2.4477882595,
				"z": -0.5505644893,
				"element": "C" 
			},
			{
				"x": 0.8667654424,
				"y": 2.3184637168,
				"z": -1.5328513643,
				"element": "C" 
			},
			{
				"x": 1.2163642187,
				"y": 1.7152520462,
				"z": -2.7468375534,
				"element": "C" 
			},
			{
				"x": 1.7988627794,
				"y": 2.4831930286,
				"z": -3.7523724913,
				"element": "C" 
			},
			{
				"x": 2.0431961354,
				"y": 3.8448395432,
				"z": -3.5590322697,
				"element": "C" 
			},
			{
				"x": 1.6870679834,
				"y": 4.4393474658,
				"z": -2.3477979825,
				"element": "C" 
			},
			{
				"x": 1.0927309026,
				"y": 3.6859822114,
				"z": -1.3361013828,
				"element": "C" 
			},
			{
				"x": 1.0798644305,
				"y": 1.1510572453,
				"z": 3.5010867197,
				"element": "H" 
			},
			{
				"x": -1.7065599508,
				"y": 0.9921399734,
				"z": 3.173264447,
				"element": "H" 
			},
			{
				"x": -0.6429351925,
				"y": -0.4117967051,
				"z": 3.2209521563,
				"element": "H" 
			},
			{
				"x": 0.6031060166,
				"y": 2.7168225673,
				"z": 1.2596834324,
				"element": "H" 
			},
			{
				"x": -2.6332967452,
				"y": -1.041840709,
				"z": 2.1088671123,
				"element": "H" 
			},
			{
				"x": -3.6766515977,
				"y": -3.2717185685,
				"z": 2.1676783465,
				"element": "H" 
			},
			{
				"x": -3.0631748037,
				"y": -4.9879722822,
				"z": 0.475038082,
				"element": "H" 
			},
			{
				"x": -1.3798432271,
				"y": -4.4416930219,
				"z": -1.2746393894,
				"element": "H" 
			},
			{
				"x": -0.3038325308,
				"y": -2.2059441014,
				"z": -1.308074547,
				"element": "H" 
			},
			{
				"x": 1.0221258578,
				"y": 0.6587480888,
				"z": -2.8819896788,
				"element": "H" 
			},
			{
				"x": 2.0679456901,
				"y": 2.0100726355,
				"z": -4.6922605056,
				"element": "H" 
			},
			{
				"x": 2.5007659169,
				"y": 4.4370348125,
				"z": -4.3455134973,
				"element": "H" 
			},
			{
				"x": 1.8592336863,
				"y": 5.499673719,
				"z": -2.1882027101,
				"element": "H" 
			},
			{
				"x": 0.7907553756,
				"y": 4.1671457363,
				"z": -0.4123218095,
				"element": "H" 
			}
		],
		 "valence_orbital": [ 
			{
				"type": "occ",
				"energy": -0.25939,
				"method": "rhf"
			},
			{
				"type": "occ",
				"energy": -0.25783,
				"method": "rhf"
			},
			{
				"type": "occ",
				"energy": -0.24827,
				"method": "rhf"
			},
			{
				"type": "occ",
				"energy": -0.23934,
				"method": "rhf"
			},
			{
				"type": "occ",
				"energy": -0.21194,
				"method": "rhf"
			},
			{
				"type": "unocc",
				"energy": -0.03387,
				"method": "rhf"
			},
			{
				"type": "unocc",
				"energy": -0.00968,
				"method": "rhf"
			},
			{
				"type": "unocc",
				"energy": -0.00308,
				"method": "rhf"
			},
			{
				"type": "unocc",
				"energy": 0.00058,
				"method": "rhf"
			},
			{
				"type": "unocc",
				"energy": 0.04028,
				"method": "rhf"
			}
		],
		"cosmo_sigma_profile": { 
			"-0.025": 0.0,
			"-0.024": 0.0,
			"-0.023": 0.0,
			"-0.022": 0.0,
			"-0.021": 0.0,
			"-0.02": 0.0,
			"-0.019": 0.0,
			"-0.018": 0.0,
			"-0.017": 0.0,
			"-0.016": 0.23553864439,
			"-0.015": 0.71594671464,
			"-0.014": 0.912517094006,
			"-0.013": 1.22249003225,
			"-0.012": 0.731428211147,
			"-0.011": 0.592112177513,
			"-0.01": 1.33316716435,
			"-0.009": 2.24608658295,
			"-0.008": 3.55918375532,
			"-0.007": 4.03917662107,
			"-0.006": 15.9667634645,
			"-0.005": 23.7930159329,
			"-0.004": 25.8948331208,
			"-0.003": 22.5878472486,
			"-0.002": 17.8631930376,
			"-0.001": 17.0290619823,
			"0.0": 16.1589491554,
			"0.001": 19.7375307588,
			"0.002": 21.597176885,
			"0.003": 26.0820244305,
			"0.004": 24.3797212373,
			"0.005": 23.3319650081,
			"0.006": 9.25215137822,
			"0.007": 2.60272492951,
			"0.008": 2.87216133826,
			"0.009": 1.72851279286,
			"0.01": 2.06437957495,
			"0.011": 1.94378446517,
			"0.012": 1.79791323131,
			"0.013": 2.43517406104,
			"0.014": 1.70577726937,
			"0.015": 0.0626611878232,
			"0.016": 0.0,
			"0.017": 0.0,
			"0.018": 0.0,
			"0.019": 0.0,
			"0.02": 0.0,
			"0.021": 0.0,
			"0.022": 0.0,
			"0.023": 0.0,
			"0.024": 0.0,
			"0.025": 0.0
		}
	}
}
