{
	 "smiles": "OC1=C(C2CCCC3=CC=CC=C23)C(=O)C2=C(O1)C=CC=C2", 
	 "Tm": 447.15, 
	 "num_atms": 38, 
	 "gaussian": { 
		 "optdone": 1, 
		 "sigma_profile": "yes", 
		 "theory": "DFT", 
		 "functional": "B3LYP", 
		 "basiset": "6-31G**", 
		 "properties": { 
			 "R2extent": 7446.497, 
			 "electric_dipole_moment_norm": 4.76860141027, 
			 "electric_quadrupole_moment_norm": 11.9267826491, 
			 "total_energy": -959.348285107, 
			 "HOMO_LUMO_gap": 0.17253, 
			 "cosmo_polarized_energy": -15.34, 
			 "cosmo_cavitation_energy": 39.81, 
			 "cosmo_dispersion_energy": -28.54, 
			 "cosmo_repulsion_energy": 2.15, 
			 "cosmo_total_nonelectrostatic_energy": 13.42, 
			 "SMD_solvation_energy": 7.25 
		},
		"coords": [
			{
				"x": -1.7606282285,
				"y": 1.2438892661,
				"z": 0.1676846416,
				"element": "O" 
			},
			{
				"x": -0.6691184828,
				"y": 1.1068169397,
				"z": 0.9326677164,
				"element": "C" 
			},
			{
				"x": -0.2049219521,
				"y": -0.0842247627,
				"z": 1.4001941098,
				"element": "C" 
			},
			{
				"x": -0.8251092156,
				"y": -1.4479068231,
				"z": 1.1128704678,
				"element": "C" 
			},
			{
				"x": -1.8808924031,
				"y": -1.8460852462,
				"z": 2.1719471101,
				"element": "C" 
			},
			{
				"x": -3.2617867541,
				"y": -1.2745707466,
				"z": 1.841104978,
				"element": "C" 
			},
			{
				"x": -3.7544636704,
				"y": -1.8411915149,
				"z": 0.5043199,
				"element": "C" 
			},
			{
				"x": -2.7073342547,
				"y": -1.7986995624,
				"z": -0.5958065867,
				"element": "C" 
			},
			{
				"x": -3.1074258283,
				"y": -1.967850723,
				"z": -1.9301295178,
				"element": "C" 
			},
			{
				"x": -2.185775478,
				"y": -1.9645182744,
				"z": -2.9730091485,
				"element": "C" 
			},
			{
				"x": -0.8283006748,
				"y": -1.790316047,
				"z": -2.6904338299,
				"element": "C" 
			},
			{
				"x": -0.4202757593,
				"y": -1.6215552245,
				"z": -1.3707930926,
				"element": "C" 
			},
			{
				"x": -1.3420708975,
				"y": -1.6197091765,
				"z": -0.3127696083,
				"element": "C" 
			},
			{
				"x": 0.9761910114,
				"y": -0.0712317657,
				"z": 2.2678567828,
				"element": "C" 
			},
			{
				"x": 1.4549191639,
				"y": -1.0959194453,
				"z": 2.7606095872,
				"element": "O" 
			},
			{
				"x": 1.5824123875,
				"y": 1.2593349707,
				"z": 2.5208822215,
				"element": "C" 
			},
			{
				"x": 1.0211501118,
				"y": 2.4062630102,
				"z": 1.9584269851,
				"element": "C" 
			},
			{
				"x": -0.1071494061,
				"y": 2.3200844435,
				"z": 1.170474634,
				"element": "O" 
			},
			{
				"x": 1.5593078264,
				"y": 3.6774576762,
				"z": 2.1639897684,
				"element": "C" 
			},
			{
				"x": 2.6944820441,
				"y": 3.7933430873,
				"z": 2.9587263213,
				"element": "C" 
			},
			{
				"x": 3.281105196,
				"y": 2.6566953062,
				"z": 3.5381040297,
				"element": "C" 
			},
			{
				"x": 2.7277381719,
				"y": 1.40256668,
				"z": 3.3197253086,
				"element": "C" 
			},
			{
				"x": -1.8339868169,
				"y": 2.1726647522,
				"z": -0.0987631068,
				"element": "H" 
			},
			{
				"x": 0.0182261336,
				"y": -2.1351182876,
				"z": 1.2441084578,
				"element": "H" 
			},
			{
				"x": -1.946616773,
				"y": -2.9421784915,
				"z": 2.2015477077,
				"element": "H" 
			},
			{
				"x": -1.538545612,
				"y": -1.5274380808,
				"z": 3.1612953752,
				"element": "H" 
			},
			{
				"x": -3.2091099175,
				"y": -0.181327289,
				"z": 1.7851296814,
				"element": "H" 
			},
			{
				"x": -3.9780304147,
				"y": -1.5182265209,
				"z": 2.6343820638,
				"element": "H" 
			},
			{
				"x": -4.059989435,
				"y": -2.8875812552,
				"z": 0.6549971435,
				"element": "H" 
			},
			{
				"x": -4.6559921919,
				"y": -1.3132225592,
				"z": 0.1701186591,
				"element": "H" 
			},
			{
				"x": -4.1651360585,
				"y": -2.1032655319,
				"z": -2.1472482619,
				"element": "H" 
			},
			{
				"x": -2.5214936314,
				"y": -2.0973730477,
				"z": -3.997852392,
				"element": "H" 
			},
			{
				"x": -0.0949556398,
				"y": -1.7913121648,
				"z": -3.4921507525,
				"element": "H" 
			},
			{
				"x": 0.6355665028,
				"y": -1.4880219695,
				"z": -1.1455143302,
				"element": "H" 
			},
			{
				"x": 1.0879830856,
				"y": 4.5407727155,
				"z": 1.7065276151,
				"element": "H" 
			},
			{
				"x": 3.1270999057,
				"y": 4.7744905046,
				"z": 3.1298890766,
				"element": "H" 
			},
			{
				"x": 4.1671714301,
				"y": 2.7619129494,
				"z": 4.1563325732,
				"element": "H" 
			},
			{
				"x": 3.151856525,
				"y": 0.5011522088,
				"z": 3.7496577116,
				"element": "H" 
			}
		],
		 "valence_orbital": [ 
			{
				"type": "occ",
				"energy": -0.25794,
				"method": "rhf"
			},
			{
				"type": "occ",
				"energy": -0.24411,
				"method": "rhf"
			},
			{
				"type": "occ",
				"energy": -0.23555,
				"method": "rhf"
			},
			{
				"type": "occ",
				"energy": -0.22677,
				"method": "rhf"
			},
			{
				"type": "occ",
				"energy": -0.22078,
				"method": "rhf"
			},
			{
				"type": "unocc",
				"energy": -0.04825,
				"method": "rhf"
			},
			{
				"type": "unocc",
				"energy": -0.01585,
				"method": "rhf"
			},
			{
				"type": "unocc",
				"energy": 0.00495,
				"method": "rhf"
			},
			{
				"type": "unocc",
				"energy": 0.00779,
				"method": "rhf"
			},
			{
				"type": "unocc",
				"energy": 0.01507,
				"method": "rhf"
			}
		],
		"cosmo_sigma_profile": { 
			"-0.025": 0.0,
			"-0.024": 0.0,
			"-0.023": 0.0,
			"-0.022": 0.0,
			"-0.021": 0.0,
			"-0.02": 0.0858455994896,
			"-0.019": 0.986971804447,
			"-0.018": 1.09156978132,
			"-0.017": 0.547056023255,
			"-0.016": 0.478241419851,
			"-0.015": 0.79150411442,
			"-0.014": 1.04384068713,
			"-0.013": 0.828211309964,
			"-0.012": 0.681332329463,
			"-0.011": 0.815581541863,
			"-0.01": 0.515862790829,
			"-0.009": 0.594773279179,
			"-0.008": 2.00230971718,
			"-0.007": 4.85267922874,
			"-0.006": 8.49323707975,
			"-0.005": 14.4426044721,
			"-0.004": 18.3384576125,
			"-0.003": 27.6262393226,
			"-0.002": 32.6726707678,
			"-0.001": 36.1441906518,
			"0.0": 34.5724818471,
			"0.001": 27.7585527876,
			"0.002": 22.3960321744,
			"0.003": 19.3624339054,
			"0.004": 13.4097203833,
			"0.005": 9.15861121491,
			"0.006": 8.87707658004,
			"0.007": 8.10579163588,
			"0.008": 4.26581050421,
			"0.009": 2.38569580968,
			"0.01": 2.70469642944,
			"0.011": 1.77328826974,
			"0.012": 1.65485810226,
			"0.013": 3.75576348622,
			"0.014": 3.24516279694,
			"0.015": 0.0,
			"0.016": 0.0,
			"0.017": 0.0,
			"0.018": 0.0,
			"0.019": 0.0,
			"0.02": 0.0,
			"0.021": 0.0,
			"0.022": 0.0,
			"0.023": 0.0,
			"0.024": 0.0,
			"0.025": 0.0
		}
	}
}
