{
	 "smiles": "CCOC(=O)C(=O)CC(=O)C1=CN=CC=C1", 
	 "Tm": 340.15, 
	 "num_atms": 27, 
	 "gaussian": { 
		 "optdone": 1, 
		 "sigma_profile": "yes", 
		 "theory": "DFT", 
		 "functional": "B3LYP", 
		 "basiset": "6-31G**", 
		 "properties": { 
			 "R2extent": 5055.7853, 
			 "electric_dipole_moment_norm": 2.13480084551, 
			 "electric_quadrupole_moment_norm": 13.89049101, 
			 "total_energy": -781.43454345, 
			 "HOMO_LUMO_gap": 0.1768, 
			 "cosmo_polarized_energy": -15.42, 
			 "cosmo_cavitation_energy": 32.99, 
			 "cosmo_dispersion_energy": -22.94, 
			 "cosmo_repulsion_energy": 1.81, 
			 "cosmo_total_nonelectrostatic_energy": 11.87, 
			 "SMD_solvation_energy": 6.47 
		},
		"coords": [
			{
				"x": 0.0525098265,
				"y": -4.9543218969,
				"z": 0.0153869806,
				"element": "C" 
			},
			{
				"x": -1.0520351657,
				"y": -4.501559143,
				"z": -0.9264820936,
				"element": "C" 
			},
			{
				"x": -0.7671485304,
				"y": -3.1821911512,
				"z": -1.4638443526,
				"element": "O" 
			},
			{
				"x": -1.1474208532,
				"y": -2.142763046,
				"z": -0.724251788,
				"element": "C" 
			},
			{
				"x": -1.736543082,
				"y": -2.1911273187,
				"z": 0.337370833,
				"element": "O" 
			},
			{
				"x": -0.7884509265,
				"y": -0.800059106,
				"z": -1.3929118949,
				"element": "C" 
			},
			{
				"x": -0.4975635177,
				"y": -0.7251611695,
				"z": -2.5632927214,
				"element": "O" 
			},
			{
				"x": -0.8902535343,
				"y": 0.40179292,
				"z": -0.468160241,
				"element": "C" 
			},
			{
				"x": 0.2097056148,
				"y": 0.3520215266,
				"z": 0.5915489623,
				"element": "C" 
			},
			{
				"x": 1.0499320343,
				"y": -0.5350268096,
				"z": 0.5617037014,
				"element": "O" 
			},
			{
				"x": 0.2471159063,
				"y": 1.4102086419,
				"z": 1.6439577118,
				"element": "C" 
			},
			{
				"x": -0.6798427673,
				"y": 2.4599173182,
				"z": 1.7179208564,
				"element": "C" 
			},
			{
				"x": -0.6533330709,
				"y": 3.4143226142,
				"z": 2.6540707172,
				"element": "N" 
			},
			{
				"x": 0.3226445203,
				"y": 3.3478736869,
				"z": 3.5680255363,
				"element": "C" 
			},
			{
				"x": 1.2999151433,
				"y": 2.3475091101,
				"z": 3.5911036158,
				"element": "C" 
			},
			{
				"x": 1.2611365797,
				"y": 1.3637058758,
				"z": 2.6121364565,
				"element": "C" 
			},
			{
				"x": 1.0229651951,
				"y": -4.9393169106,
				"z": -0.4882139912,
				"element": "H" 
			},
			{
				"x": -0.1474063135,
				"y": -5.9771370404,
				"z": 0.3514627178,
				"element": "H" 
			},
			{
				"x": 0.1010210973,
				"y": -4.306862055,
				"z": 0.8942243964,
				"element": "H" 
			},
			{
				"x": -1.1181356478,
				"y": -5.1400942175,
				"z": -1.8097060126,
				"element": "H" 
			},
			{
				"x": -2.0207406853,
				"y": -4.4721521231,
				"z": -0.4221084006,
				"element": "H" 
			},
			{
				"x": -0.7954147637,
				"y": 1.3110850533,
				"z": -1.0700066605,
				"element": "H" 
			},
			{
				"x": -1.8689403465,
				"y": 0.4062897832,
				"z": 0.0244895234,
				"element": "H" 
			},
			{
				"x": -1.4846952623,
				"y": 2.5417563027,
				"z": 0.9903265604,
				"element": "H" 
			},
			{
				"x": 0.3246671044,
				"y": 4.1341713563,
				"z": 4.3208470709,
				"element": "H" 
			},
			{
				"x": 2.0664587754,
				"y": 2.3483429661,
				"z": 4.3593967713,
				"element": "H" 
			},
			{
				"x": 1.9880526695,
				"y": 0.559174832,
				"z": 2.5699057449,
				"element": "H" 
			}
		],
		 "valence_orbital": [ 
			{
				"type": "occ",
				"energy": -0.30169,
				"method": "rhf"
			},
			{
				"type": "occ",
				"energy": -0.28167,
				"method": "rhf"
			},
			{
				"type": "occ",
				"energy": -0.2813,
				"method": "rhf"
			},
			{
				"type": "occ",
				"energy": -0.26672,
				"method": "rhf"
			},
			{
				"type": "occ",
				"energy": -0.25383,
				"method": "rhf"
			},
			{
				"type": "unocc",
				"energy": -0.07703,
				"method": "rhf"
			},
			{
				"type": "unocc",
				"energy": -0.07216,
				"method": "rhf"
			},
			{
				"type": "unocc",
				"energy": -0.03773,
				"method": "rhf"
			},
			{
				"type": "unocc",
				"energy": 0.01827,
				"method": "rhf"
			},
			{
				"type": "unocc",
				"energy": 0.05307,
				"method": "rhf"
			}
		],
		"cosmo_sigma_profile": { 
			"-0.025": 0.0,
			"-0.024": 0.0,
			"-0.023": 0.0,
			"-0.022": 0.0,
			"-0.021": 0.0,
			"-0.02": 0.0,
			"-0.019": 0.0,
			"-0.018": 0.0,
			"-0.017": 0.0,
			"-0.016": 0.0,
			"-0.015": 0.0,
			"-0.014": 0.0,
			"-0.013": 0.0,
			"-0.012": 0.0,
			"-0.011": 0.0,
			"-0.01": 0.0632735202028,
			"-0.009": 4.36510109087,
			"-0.008": 9.88822357826,
			"-0.007": 13.535972109,
			"-0.006": 15.445501782,
			"-0.005": 17.6221416959,
			"-0.004": 21.5924385106,
			"-0.003": 17.2385843954,
			"-0.002": 16.0057089466,
			"-0.001": 21.4084407179,
			"0.0": 25.1675684808,
			"0.001": 17.5944164673,
			"0.002": 10.2092873018,
			"0.003": 8.04514551218,
			"0.004": 7.42067992466,
			"0.005": 6.72353270077,
			"0.006": 5.82514060246,
			"0.007": 8.04484690223,
			"0.008": 7.18822066178,
			"0.009": 8.82997573212,
			"0.01": 10.220376514,
			"0.011": 6.45295958013,
			"0.012": 1.37642260938,
			"0.013": 0.805744596611,
			"0.014": 0.63553246805,
			"0.015": 1.02878838553,
			"0.016": 0.442706785365,
			"0.017": 0.0,
			"0.018": 0.0,
			"0.019": 0.0,
			"0.02": 0.0,
			"0.021": 0.0,
			"0.022": 0.0,
			"0.023": 0.0,
			"0.024": 0.0,
			"0.025": 0.0
		}
	}
}
