{
	 "smiles": "CCN1CC2(COC)CC[C@H](O)C34C5C[C@H]6[C@H](OC)C5[C@](O)(CC6OC)C(O)(C(OC)C23)[C@H]14", 
	 "Tm": 487.15, 
	 "num_atms": 74, 
	 "gaussian": { 
		 "optdone": 1, 
		 "sigma_profile": "yes", 
		 "theory": "DFT", 
		 "functional": "B3LYP", 
		 "basiset": "6-31G**", 
		 "properties": { 
			 "R2extent": 13067.462, 
			 "electric_dipole_moment_norm": 2.35048641987, 
			 "electric_quadrupole_moment_norm": 17.5906731477, 
			 "total_energy": -1558.58090485, 
			 "HOMO_LUMO_gap": 0.23664, 
			 "cosmo_polarized_energy": -20.32, 
			 "cosmo_cavitation_energy": 60.6, 
			 "cosmo_dispersion_energy": -40.63, 
			 "cosmo_repulsion_energy": 3.0, 
			 "cosmo_total_nonelectrostatic_energy": 22.97, 
			 "SMD_solvation_energy": 11.01 
		},
		"coords": [
			{
				"x": 1.980957998,
				"y": 2.191109927,
				"z": 4.4797731191,
				"element": "C" 
			},
			{
				"x": 1.9106981107,
				"y": 2.0240172617,
				"z": 2.9579780172,
				"element": "C" 
			},
			{
				"x": 0.9728882318,
				"y": 0.9743494649,
				"z": 2.5468438198,
				"element": "N" 
			},
			{
				"x": 1.516204063,
				"y": -0.3795166024,
				"z": 2.7321226635,
				"element": "C" 
			},
			{
				"x": 0.517644569,
				"y": -1.4758159971,
				"z": 2.2907077964,
				"element": "C" 
			},
			{
				"x": 1.2352480313,
				"y": -2.8402338755,
				"z": 2.2340512509,
				"element": "C" 
			},
			{
				"x": 1.6884496086,
				"y": -3.1783603034,
				"z": 3.5413908327,
				"element": "O" 
			},
			{
				"x": 2.3941964833,
				"y": -4.3962059432,
				"z": 3.5697834198,
				"element": "C" 
			},
			{
				"x": -0.6463168644,
				"y": -1.6391504032,
				"z": 3.3037923912,
				"element": "C" 
			},
			{
				"x": -1.4606299496,
				"y": -0.3648326312,
				"z": 3.5034475974,
				"element": "C" 
			},
			{
				"x": -1.958689594,
				"y": 0.1665129658,
				"z": 2.1638567068,
				"element": "C" 
			},
			{
				"x": -2.9956077151,
				"y": -0.6898389399,
				"z": 1.6473262103,
				"element": "O" 
			},
			{
				"x": -0.8972977021,
				"y": 0.2305206519,
				"z": 1.0424032498,
				"element": "C" 
			},
			{
				"x": -1.6731507174,
				"y": 0.7059657986,
				"z": -0.2555190294,
				"element": "C" 
			},
			{
				"x": -2.0114830506,
				"y": -0.2921520497,
				"z": -1.4189360786,
				"element": "C" 
			},
			{
				"x": -1.6927642611,
				"y": 0.4661216873,
				"z": -2.7418468803,
				"element": "C" 
			},
			{
				"x": -1.8322237141,
				"y": 1.9310635981,
				"z": -2.2939193184,
				"element": "C" 
			},
			{
				"x": -1.3822468878,
				"y": 2.8722641722,
				"z": -3.2610018014,
				"element": "O" 
			},
			{
				"x": -1.9635944299,
				"y": 4.1551688613,
				"z": -3.1193909045,
				"element": "C" 
			},
			{
				"x": -1.0299677264,
				"y": 1.9035477454,
				"z": -0.9828889969,
				"element": "C" 
			},
			{
				"x": 0.4888135161,
				"y": 1.7055985143,
				"z": -1.2260113997,
				"element": "C" 
			},
			{
				"x": 1.1316481216,
				"y": 2.999577096,
				"z": -1.1356605798,
				"element": "O" 
			},
			{
				"x": 0.8036496035,
				"y": 1.1122409755,
				"z": -2.6288897463,
				"element": "C" 
			},
			{
				"x": -0.2674528485,
				"y": 0.1828066862,
				"z": -3.2649416461,
				"element": "C" 
			},
			{
				"x": -0.3044469194,
				"y": 0.3484292358,
				"z": -4.6814987165,
				"element": "O" 
			},
			{
				"x": 0.8201805721,
				"y": -0.1745821404,
				"z": -5.355844071,
				"element": "C" 
			},
			{
				"x": 1.1272470942,
				"y": 0.9060341889,
				"z": -0.0239731744,
				"element": "C" 
			},
			{
				"x": 2.4967639531,
				"y": 1.2333279837,
				"z": 0.0732917575,
				"element": "O" 
			},
			{
				"x": 0.9812588038,
				"y": -0.6634038462,
				"z": -0.1769772017,
				"element": "C" 
			},
			{
				"x": 2.1952436377,
				"y": -1.3776488249,
				"z": -0.0461529962,
				"element": "O" 
			},
			{
				"x": 3.0236634542,
				"y": -1.4139920955,
				"z": -1.1926517684,
				"element": "C" 
			},
			{
				"x": -0.0702025992,
				"y": -1.0860052,
				"z": 0.8917164521,
				"element": "C" 
			},
			{
				"x": 0.2932871061,
				"y": 1.2118756149,
				"z": 1.2765264737,
				"element": "C" 
			},
			{
				"x": 0.9954177442,
				"y": 2.4319237207,
				"z": 4.8911403322,
				"element": "H" 
			},
			{
				"x": 2.340949264,
				"y": 1.2842586424,
				"z": 4.9753218829,
				"element": "H" 
			},
			{
				"x": 2.6713118171,
				"y": 3.0013668511,
				"z": 4.7398876312,
				"element": "H" 
			},
			{
				"x": 2.9196668826,
				"y": 1.8421812682,
				"z": 2.5554359878,
				"element": "H" 
			},
			{
				"x": 1.5697233479,
				"y": 2.9682645242,
				"z": 2.5181131599,
				"element": "H" 
			},
			{
				"x": 1.7464695703,
				"y": -0.5223823199,
				"z": 3.792107236,
				"element": "H" 
			},
			{
				"x": 2.4554493152,
				"y": -0.5067589821,
				"z": 2.173781383,
				"element": "H" 
			},
			{
				"x": 2.0794680759,
				"y": -2.8128750294,
				"z": 1.5410476038,
				"element": "H" 
			},
			{
				"x": 0.524251217,
				"y": -3.6066077877,
				"z": 1.8748993039,
				"element": "H" 
			},
			{
				"x": 3.2853031897,
				"y": -4.3714262198,
				"z": 2.9217785292,
				"element": "H" 
			},
			{
				"x": 1.7658757423,
				"y": -5.2438455536,
				"z": 3.2495067087,
				"element": "H" 
			},
			{
				"x": 2.7137319843,
				"y": -4.5673095017,
				"z": 4.6013924874,
				"element": "H" 
			},
			{
				"x": -0.2343791783,
				"y": -1.9882048245,
				"z": 4.2537451987,
				"element": "H" 
			},
			{
				"x": -1.3086859141,
				"y": -2.4331896749,
				"z": 2.9340379733,
				"element": "H" 
			},
			{
				"x": -2.3284709473,
				"y": -0.560864468,
				"z": 4.1522423448,
				"element": "H" 
			},
			{
				"x": -0.8588144877,
				"y": 0.4032426425,
				"z": 3.9911631703,
				"element": "H" 
			},
			{
				"x": -2.3613585685,
				"y": 1.1855831459,
				"z": 2.2993995793,
				"element": "H" 
			},
			{
				"x": -3.6444701992,
				"y": -0.8132544981,
				"z": 2.351871556,
				"element": "H" 
			},
			{
				"x": -2.6390351962,
				"y": 1.0631551933,
				"z": 0.1081668142,
				"element": "H" 
			},
			{
				"x": -1.4690518721,
				"y": -1.2378410678,
				"z": -1.3603921262,
				"element": "H" 
			},
			{
				"x": -3.0714433452,
				"y": -0.5548254558,
				"z": -1.372773076,
				"element": "H" 
			},
			{
				"x": -2.3848232134,
				"y": 0.202932466,
				"z": -3.5457930999,
				"element": "H" 
			},
			{
				"x": -2.890193846,
				"y": 2.1344215462,
				"z": -2.0625732532,
				"element": "H" 
			},
			{
				"x": -1.7063867623,
				"y": 4.6315131887,
				"z": -2.1609128841,
				"element": "H" 
			},
			{
				"x": -1.5780392987,
				"y": 4.773843675,
				"z": -3.9337317782,
				"element": "H" 
			},
			{
				"x": -3.0602448524,
				"y": 4.1131146729,
				"z": -3.1980571,
				"element": "H" 
			},
			{
				"x": -1.1469290179,
				"y": 2.8286259748,
				"z": -0.4126539625,
				"element": "H" 
			},
			{
				"x": 0.8755593432,
				"y": 3.4969409682,
				"z": -1.9233651242,
				"element": "H" 
			},
			{
				"x": 1.7881464706,
				"y": 0.6390474571,
				"z": -2.607129979,
				"element": "H" 
			},
			{
				"x": 0.8677824355,
				"y": 1.9561669929,
				"z": -3.3203154211,
				"element": "H" 
			},
			{
				"x": -0.0290963897,
				"y": -0.8744093416,
				"z": -3.0623904683,
				"element": "H" 
			},
			{
				"x": 0.6188000249,
				"y": -0.0900310648,
				"z": -6.4268525099,
				"element": "H" 
			},
			{
				"x": 1.74570522,
				"y": 0.376379095,
				"z": -5.1325523806,
				"element": "H" 
			},
			{
				"x": 0.9850239537,
				"y": -1.2368884555,
				"z": -5.1104276205,
				"element": "H" 
			},
			{
				"x": 2.556458307,
				"y": 2.1574881107,
				"z": -0.2217705789,
				"element": "H" 
			},
			{
				"x": 0.5725914304,
				"y": -0.8995378539,
				"z": -1.1625020836,
				"element": "H" 
			},
			{
				"x": 2.4752545592,
				"y": -1.7834222338,
				"z": -2.0739100286,
				"element": "H" 
			},
			{
				"x": 3.4526569052,
				"y": -0.431389827,
				"z": -1.4128363983,
				"element": "H" 
			},
			{
				"x": 3.8328219165,
				"y": -2.1150841469,
				"z": -0.9699802498,
				"element": "H" 
			},
			{
				"x": -0.6823699423,
				"y": -1.9185491406,
				"z": 0.5299083902,
				"element": "H" 
			},
			{
				"x": -0.0299936638,
				"y": 2.2558537347,
				"z": 1.2949654014,
				"element": "H" 
			}
		],
		 "valence_orbital": [ 
			{
				"type": "occ",
				"energy": -0.25212,
				"method": "rhf"
			},
			{
				"type": "occ",
				"energy": -0.24392,
				"method": "rhf"
			},
			{
				"type": "occ",
				"energy": -0.23973,
				"method": "rhf"
			},
			{
				"type": "occ",
				"energy": -0.23351,
				"method": "rhf"
			},
			{
				"type": "occ",
				"energy": -0.1797,
				"method": "rhf"
			},
			{
				"type": "unocc",
				"energy": 0.05694,
				"method": "rhf"
			},
			{
				"type": "unocc",
				"energy": 0.06298,
				"method": "rhf"
			},
			{
				"type": "unocc",
				"energy": 0.07194,
				"method": "rhf"
			},
			{
				"type": "unocc",
				"energy": 0.07691,
				"method": "rhf"
			},
			{
				"type": "unocc",
				"energy": 0.09358,
				"method": "rhf"
			}
		],
		"cosmo_sigma_profile": { 
			"-0.025": 0.0,
			"-0.024": 0.0,
			"-0.023": 0.0,
			"-0.022": 0.0,
			"-0.021": 0.0,
			"-0.02": 0.0,
			"-0.019": 0.0,
			"-0.018": 0.0,
			"-0.017": 0.0,
			"-0.016": 0.0,
			"-0.015": 0.254860765907,
			"-0.014": 1.05581950252,
			"-0.013": 1.33558684861,
			"-0.012": 1.37463732404,
			"-0.011": 1.60587828519,
			"-0.01": 1.86341266546,
			"-0.009": 1.42972288156,
			"-0.008": 2.42069004273,
			"-0.007": 2.53840905186,
			"-0.006": 4.79764308574,
			"-0.005": 12.4039108925,
			"-0.004": 33.5664933842,
			"-0.003": 67.6738982104,
			"-0.002": 76.7669122501,
			"-0.001": 51.9862022058,
			"0.0": 42.0390507775,
			"0.001": 37.5832274876,
			"0.002": 25.92337443,
			"0.003": 15.9193833247,
			"0.004": 12.0675713848,
			"0.005": 10.8571605544,
			"0.006": 10.6377829561,
			"0.007": 9.87236887161,
			"0.008": 7.44152375083,
			"0.009": 7.70606420197,
			"0.01": 6.54154170849,
			"0.011": 5.9070733516,
			"0.012": 3.74243253614,
			"0.013": 2.65076975198,
			"0.014": 2.0274109799,
			"0.015": 1.27893418548,
			"0.016": 1.08912465457,
			"0.017": 0.119132719623,
			"0.018": 0.0,
			"0.019": 0.0,
			"0.02": 0.0,
			"0.021": 0.0,
			"0.022": 0.0,
			"0.023": 0.0,
			"0.024": 0.0,
			"0.025": 0.0
		}
	}
}
