{
	 "smiles": "NC1=CC2=C(C=CC=C2)C2=CC=CC=C12", 
	 "Tm": 411.15, 
	 "num_atms": 26, 
	 "gaussian": { 
		 "optdone": 1, 
		 "sigma_profile": "yes", 
		 "theory": "DFT", 
		 "functional": "B3LYP", 
		 "basiset": "6-31G**", 
		 "properties": { 
			 "R2extent": 3732.1663, 
			 "electric_dipole_moment_norm": 1.71085786084, 
			 "electric_quadrupole_moment_norm": 11.1017379243, 
			 "total_energy": -594.898528491, 
			 "HOMO_LUMO_gap": 0.16057, 
			 "cosmo_polarized_energy": -10.22, 
			 "cosmo_cavitation_energy": 28.58, 
			 "cosmo_dispersion_energy": -21.72, 
			 "cosmo_repulsion_energy": 1.63, 
			 "cosmo_total_nonelectrostatic_energy": 8.5, 
			 "SMD_solvation_energy": 4.21 
		},
		"coords": [
			{
				"x": -1.2934446857,
				"y": 1.4312412013,
				"z": 1.8068498982,
				"element": "N" 
			},
			{
				"x": -1.0635812321,
				"y": 0.1838433781,
				"z": 1.211320757,
				"element": "C" 
			},
			{
				"x": -1.3975189736,
				"y": -0.9840833622,
				"z": 1.842393974,
				"element": "C" 
			},
			{
				"x": -1.1338163729,
				"y": -2.2651242023,
				"z": 1.2656567834,
				"element": "C" 
			},
			{
				"x": -0.5349787339,
				"y": -2.3562412436,
				"z": -0.0250944674,
				"element": "C" 
			},
			{
				"x": -0.3192216416,
				"y": -3.6420489444,
				"z": -0.5716495694,
				"element": "C" 
			},
			{
				"x": -0.6734660985,
				"y": -4.7894615951,
				"z": 0.1160749096,
				"element": "C" 
			},
			{
				"x": -1.2633508396,
				"y": -4.6946357733,
				"z": 1.3903132611,
				"element": "C" 
			},
			{
				"x": -1.4882288897,
				"y": -3.4527150138,
				"z": 1.9507181818,
				"element": "C" 
			},
			{
				"x": -0.1665700594,
				"y": -1.1225990518,
				"z": -0.7083655623,
				"element": "C" 
			},
			{
				"x": 0.4420188686,
				"y": -1.1186408412,
				"z": -1.9855157662,
				"element": "C" 
			},
			{
				"x": 0.8203667399,
				"y": 0.0556257201,
				"z": -2.6104459381,
				"element": "C" 
			},
			{
				"x": 0.6179354782,
				"y": 1.2901912106,
				"z": -1.97129778,
				"element": "C" 
			},
			{
				"x": 0.0187725215,
				"y": 1.3234915011,
				"z": -0.7261693051,
				"element": "C" 
			},
			{
				"x": -0.4033939433,
				"y": 0.1378358209,
				"z": -0.0805033812,
				"element": "C" 
			},
			{
				"x": -1.6351084501,
				"y": 2.1414111972,
				"z": 1.1716034768,
				"element": "H" 
			},
			{
				"x": -1.8838311828,
				"y": 1.3781336126,
				"z": 2.6271134234,
				"element": "H" 
			},
			{
				"x": -1.8935522424,
				"y": -0.9493155817,
				"z": 2.8102735917,
				"element": "H" 
			},
			{
				"x": 0.1355961949,
				"y": -3.7449357081,
				"z": -1.5507430008,
				"element": "H" 
			},
			{
				"x": -0.4939785563,
				"y": -5.7635164518,
				"z": -0.3294190566,
				"element": "H" 
			},
			{
				"x": -1.5405572734,
				"y": -5.5955077641,
				"z": 1.9304432106,
				"element": "H" 
			},
			{
				"x": -1.9448014141,
				"y": -3.3696025868,
				"z": 2.9338766302,
				"element": "H" 
			},
			{
				"x": 0.6257192127,
				"y": -2.0582741241,
				"z": -2.4938079325,
				"element": "H" 
			},
			{
				"x": 1.2860394898,
				"y": 0.0194944213,
				"z": -3.5910904907,
				"element": "H" 
			},
			{
				"x": 0.9382168984,
				"y": 2.2124793131,
				"z": -2.4469999123,
				"element": "H" 
			},
			{
				"x": -0.0974648143,
				"y": 2.276054868,
				"z": -0.2201359352,
				"element": "H" 
			}
		],
		 "valence_orbital": [ 
			{
				"type": "occ",
				"energy": -0.281,
				"method": "rhf"
			},
			{
				"type": "occ",
				"energy": -0.26722,
				"method": "rhf"
			},
			{
				"type": "occ",
				"energy": -0.24983,
				"method": "rhf"
			},
			{
				"type": "occ",
				"energy": -0.2175,
				"method": "rhf"
			},
			{
				"type": "occ",
				"energy": -0.18952,
				"method": "rhf"
			},
			{
				"type": "unocc",
				"energy": -0.02895,
				"method": "rhf"
			},
			{
				"type": "unocc",
				"energy": -0.0275,
				"method": "rhf"
			},
			{
				"type": "unocc",
				"energy": 0.0142,
				"method": "rhf"
			},
			{
				"type": "unocc",
				"energy": 0.04219,
				"method": "rhf"
			},
			{
				"type": "unocc",
				"energy": 0.07552,
				"method": "rhf"
			}
		],
		"cosmo_sigma_profile": { 
			"-0.025": 0.0,
			"-0.024": 0.0,
			"-0.023": 0.0,
			"-0.022": 0.0,
			"-0.021": 0.0,
			"-0.02": 0.0,
			"-0.019": 0.0,
			"-0.018": 0.0,
			"-0.017": 0.0,
			"-0.016": 0.0,
			"-0.015": 0.0,
			"-0.014": 0.0,
			"-0.013": 0.058370118939,
			"-0.012": 2.50704519896,
			"-0.011": 2.64101009735,
			"-0.01": 2.69609966955,
			"-0.009": 3.48650519352,
			"-0.008": 3.8061960874,
			"-0.007": 4.33032160201,
			"-0.006": 9.52597147915,
			"-0.005": 17.6050238581,
			"-0.004": 17.6146825722,
			"-0.003": 16.4858649865,
			"-0.002": 12.1423978097,
			"-0.001": 12.5367180425,
			"0.0": 10.6316219473,
			"0.001": 9.26954245547,
			"0.002": 12.6843242541,
			"0.003": 16.9318173456,
			"0.004": 26.209331665,
			"0.005": 27.3660139236,
			"0.006": 14.1629058633,
			"0.007": 1.66900035834,
			"0.008": 0.654599024828,
			"0.009": 0.743851658622,
			"0.01": 1.05477277215,
			"0.011": 0.556809694568,
			"0.012": 0.523478849147,
			"0.013": 0.386327800339,
			"0.014": 0.835164417923,
			"0.015": 0.0946337189755,
			"0.016": 0.0,
			"0.017": 0.0,
			"0.018": 0.0,
			"0.019": 0.0,
			"0.02": 0.0,
			"0.021": 0.0,
			"0.022": 0.0,
			"0.023": 0.0,
			"0.024": 0.0,
			"0.025": 0.0
		}
	}
}
