{
	 "smiles": "CCN1C(S)=NN=C1C1=CC=C(Cl)C=C1", 
	 "Tm": 485.15, 
	 "num_atms": 25, 
	 "gaussian": { 
		 "optdone": 1, 
		 "sigma_profile": "yes", 
		 "theory": "DFT", 
		 "functional": "B3LYP", 
		 "basiset": "6-31G**", 
		 "properties": { 
			 "R2extent": 6312.9247, 
			 "electric_dipole_moment_norm": 4.40304633294, 
			 "electric_quadrupole_moment_norm": 15.891302934, 
			 "total_energy": -1409.70683197, 
			 "HOMO_LUMO_gap": 0.18474, 
			 "cosmo_polarized_energy": -15.83, 
			 "cosmo_cavitation_energy": 32.64, 
			 "cosmo_dispersion_energy": -23.77, 
			 "cosmo_repulsion_energy": 1.83, 
			 "cosmo_total_nonelectrostatic_energy": 10.69, 
			 "SMD_solvation_energy": 2.67 
		},
		"coords": [
			{
				"x": -2.315776366,
				"y": -0.968284368,
				"z": -0.7088943709,
				"element": "C" 
			},
			{
				"x": -2.1976378789,
				"y": 0.5250156335,
				"z": -0.3954933052,
				"element": "C" 
			},
			{
				"x": -2.2469542281,
				"y": 0.8058576484,
				"z": 1.0441199298,
				"element": "N" 
			},
			{
				"x": -3.3787689616,
				"y": 0.8459741839,
				"z": 1.8197259136,
				"element": "C" 
			},
			{
				"x": -5.0098920209,
				"y": 0.867430041,
				"z": 1.1363108565,
				"element": "S" 
			},
			{
				"x": -3.0864698542,
				"y": 0.8788113187,
				"z": 3.0991550543,
				"element": "N" 
			},
			{
				"x": -1.7123152939,
				"y": 0.8487754414,
				"z": 3.1936091296,
				"element": "N" 
			},
			{
				"x": -1.2172241192,
				"y": 0.8020316539,
				"z": 1.9745582475,
				"element": "C" 
			},
			{
				"x": 0.2228151616,
				"y": 0.7560540241,
				"z": 1.6773917473,
				"element": "C" 
			},
			{
				"x": 0.8178559747,
				"y": 1.5490165492,
				"z": 0.6830919573,
				"element": "C" 
			},
			{
				"x": 2.1918421601,
				"y": 1.4980987525,
				"z": 0.4541355436,
				"element": "C" 
			},
			{
				"x": 2.9814180401,
				"y": 0.6574614896,
				"z": 1.2376954399,
				"element": "C" 
			},
			{
				"x": 4.7123331543,
				"y": 0.5856040978,
				"z": 0.9517905891,
				"element": "Cl" 
			},
			{
				"x": 2.4187169589,
				"y": -0.1202868082,
				"z": 2.2504433901,
				"element": "C" 
			},
			{
				"x": 1.0441650184,
				"y": -0.067678118,
				"z": 2.4643666599,
				"element": "C" 
			},
			{
				"x": -1.489699088,
				"y": -1.5238826562,
				"z": -0.2561486681,
				"element": "H" 
			},
			{
				"x": -3.257039328,
				"y": -1.378773937,
				"z": -0.3335129595,
				"element": "H" 
			},
			{
				"x": -2.2814733643,
				"y": -1.1232494692,
				"z": -1.7917098896,
				"element": "H" 
			},
			{
				"x": -3.0047486927,
				"y": 1.0922457527,
				"z": -0.8697537539,
				"element": "H" 
			},
			{
				"x": -1.2589639951,
				"y": 0.920515638,
				"z": -0.7831376082,
				"element": "H" 
			},
			{
				"x": -5.5828151617,
				"y": 0.9724157048,
				"z": 2.3499966612,
				"element": "H" 
			},
			{
				"x": 0.2159477097,
				"y": 2.2439247623,
				"z": 0.1059280842,
				"element": "H" 
			},
			{
				"x": 2.6480949741,
				"y": 2.1157187702,
				"z": -0.3113419001,
				"element": "H" 
			},
			{
				"x": 3.0487365611,
				"y": -0.7599562958,
				"z": 2.8583456969,
				"element": "H" 
			},
			{
				"x": 0.5911526398,
				"y": -0.6620398096,
				"z": 3.2503275547,
				"element": "H" 
			}
		],
		 "valence_orbital": [ 
			{
				"type": "occ",
				"energy": -0.29345,
				"method": "rhf"
			},
			{
				"type": "occ",
				"energy": -0.27445,
				"method": "rhf"
			},
			{
				"type": "occ",
				"energy": -0.26438,
				"method": "rhf"
			},
			{
				"type": "occ",
				"energy": -0.25662,
				"method": "rhf"
			},
			{
				"type": "occ",
				"energy": -0.22545,
				"method": "rhf"
			},
			{
				"type": "unocc",
				"energy": -0.04071,
				"method": "rhf"
			},
			{
				"type": "unocc",
				"energy": -0.02549,
				"method": "rhf"
			},
			{
				"type": "unocc",
				"energy": 0.00103,
				"method": "rhf"
			},
			{
				"type": "unocc",
				"energy": 0.02121,
				"method": "rhf"
			},
			{
				"type": "unocc",
				"energy": 0.02308,
				"method": "rhf"
			}
		],
		"cosmo_sigma_profile": { 
			"-0.025": 0.0,
			"-0.024": 0.0,
			"-0.023": 0.0,
			"-0.022": 0.0,
			"-0.021": 0.0,
			"-0.02": 0.0,
			"-0.019": 0.0,
			"-0.018": 0.0,
			"-0.017": 0.0,
			"-0.016": 0.0,
			"-0.015": 0.0,
			"-0.014": 0.0,
			"-0.013": 0.0842593731904,
			"-0.012": 1.28973104633,
			"-0.011": 1.64383893814,
			"-0.01": 1.18015977341,
			"-0.009": 2.15279346002,
			"-0.008": 5.2010470254,
			"-0.007": 10.9234835785,
			"-0.006": 13.2875125368,
			"-0.005": 15.7720072956,
			"-0.004": 18.9899022417,
			"-0.003": 18.3218770945,
			"-0.002": 21.2085817218,
			"-0.001": 22.0463316826,
			"0.0": 19.2771705541,
			"0.001": 19.8493227361,
			"0.002": 24.5294910883,
			"0.003": 18.7804162165,
			"0.004": 14.5937682311,
			"0.005": 8.98133247869,
			"0.006": 3.99866180285,
			"0.007": 2.24940272462,
			"0.008": 2.21125498686,
			"0.009": 1.8296680247,
			"0.01": 1.84132248842,
			"0.011": 1.99044684968,
			"0.012": 2.91620984199,
			"0.013": 3.52920430494,
			"0.014": 2.66414002405,
			"0.015": 2.33622868353,
			"0.016": 1.96160239635,
			"0.017": 0.307432721281,
			"0.018": 0.0,
			"0.019": 0.0,
			"0.02": 0.0,
			"0.021": 0.0,
			"0.022": 0.0,
			"0.023": 0.0,
			"0.024": 0.0,
			"0.025": 0.0
		}
	}
}
