{
	 "smiles": "CN(C)CCOC(=O)C(C)=C", 
	 "Tm": 243.15, 
	 "num_atms": 26, 
	 "gaussian": { 
		 "optdone": 1, 
		 "sigma_profile": "yes", 
		 "theory": "DFT", 
		 "functional": "B3LYP", 
		 "basiset": "6-31G**", 
		 "properties": { 
			 "R2extent": 3168.2239, 
			 "electric_dipole_moment_norm": 2.07809510369, 
			 "electric_quadrupole_moment_norm": 8.53805350944, 
			 "total_energy": -519.07239443, 
			 "HOMO_LUMO_gap": 0.18055, 
			 "cosmo_polarized_energy": -8.61, 
			 "cosmo_cavitation_energy": 29.15, 
			 "cosmo_dispersion_energy": -20.13, 
			 "cosmo_repulsion_energy": 1.65, 
			 "cosmo_total_nonelectrostatic_energy": 10.67, 
			 "SMD_solvation_energy": 4.82 
		},
		"coords": [
			{
				"x": -1.0882826947,
				"y": 1.7032777101,
				"z": 3.7063646566,
				"element": "C" 
			},
			{
				"x": -0.8102224189,
				"y": 1.5055504729,
				"z": 2.2901544281,
				"element": "N" 
			},
			{
				"x": 0.2256248902,
				"y": 2.4206391767,
				"z": 1.8295470445,
				"element": "C" 
			},
			{
				"x": -2.0310713318,
				"y": 1.5814211741,
				"z": 1.4937436805,
				"element": "C" 
			},
			{
				"x": -1.899208454,
				"y": 1.0164187155,
				"z": 0.0877119594,
				"element": "C" 
			},
			{
				"x": -1.6265041119,
				"y": -0.3919406039,
				"z": 0.1924165498,
				"element": "O" 
			},
			{
				"x": -1.509606867,
				"y": -1.0564624754,
				"z": -0.9777125356,
				"element": "C" 
			},
			{
				"x": -1.6510237073,
				"y": -0.5244541719,
				"z": -2.063787065,
				"element": "O" 
			},
			{
				"x": -1.1887628744,
				"y": -2.5070586595,
				"z": -0.8071425232,
				"element": "C" 
			},
			{
				"x": -1.1381399624,
				"y": -3.2966590315,
				"z": -2.0879031171,
				"element": "C" 
			},
			{
				"x": -0.953925277,
				"y": -3.0249467689,
				"z": 0.4051558497,
				"element": "C" 
			},
			{
				"x": -1.8130379269,
				"y": 0.958998741,
				"z": 4.0513434324,
				"element": "H" 
			},
			{
				"x": -0.1676875718,
				"y": 1.5706831407,
				"z": 4.283702014,
				"element": "H" 
			},
			{
				"x": -1.491962175,
				"y": 2.7081177639,
				"z": 3.9411776299,
				"element": "H" 
			},
			{
				"x": 0.5009565187,
				"y": 2.2051843423,
				"z": 0.7936930758,
				"element": "H" 
			},
			{
				"x": 1.1243108163,
				"y": 2.2903313594,
				"z": 2.4401858483,
				"element": "H" 
			},
			{
				"x": -0.0761430959,
				"y": 3.4853734688,
				"z": 1.8890437343,
				"element": "H" 
			},
			{
				"x": -2.4075815746,
				"y": 2.6216118427,
				"z": 1.4004360814,
				"element": "H" 
			},
			{
				"x": -2.8091073118,
				"y": 1.0106356392,
				"z": 2.0125776451,
				"element": "H" 
			},
			{
				"x": -2.8325746045,
				"y": 1.1664614128,
				"z": -0.4653780515,
				"element": "H" 
			},
			{
				"x": -1.1039064635,
				"y": 1.4948341357,
				"z": -0.49151939,
				"element": "H" 
			},
			{
				"x": -0.8881493814,
				"y": -4.3422336445,
				"z": -1.892568242,
				"element": "H" 
			},
			{
				"x": -0.396331514,
				"y": -2.8760670747,
				"z": -2.774461063,
				"element": "H" 
			},
			{
				"x": -2.0991916365,
				"y": -3.2548248332,
				"z": -2.6113811816,
				"element": "H" 
			},
			{
				"x": -0.7114180558,
				"y": -4.0769902143,
				"z": 0.5261443461,
				"element": "H" 
			},
			{
				"x": -0.9922532141,
				"y": -2.4120016183,
				"z": 1.2980551931,
				"element": "H" 
			}
		],
		 "valence_orbital": [ 
			{
				"type": "occ",
				"energy": -0.33825,
				"method": "rhf"
			},
			{
				"type": "occ",
				"energy": -0.29478,
				"method": "rhf"
			},
			{
				"type": "occ",
				"energy": -0.26558,
				"method": "rhf"
			},
			{
				"type": "occ",
				"energy": -0.26346,
				"method": "rhf"
			},
			{
				"type": "occ",
				"energy": -0.21473,
				"method": "rhf"
			},
			{
				"type": "unocc",
				"energy": -0.03418,
				"method": "rhf"
			},
			{
				"type": "unocc",
				"energy": 0.07947,
				"method": "rhf"
			},
			{
				"type": "unocc",
				"energy": 0.08681,
				"method": "rhf"
			},
			{
				"type": "unocc",
				"energy": 0.11185,
				"method": "rhf"
			},
			{
				"type": "unocc",
				"energy": 0.11828,
				"method": "rhf"
			}
		],
		"cosmo_sigma_profile": { 
			"-0.025": 0.0,
			"-0.024": 0.0,
			"-0.023": 0.0,
			"-0.022": 0.0,
			"-0.021": 0.0,
			"-0.02": 0.0,
			"-0.019": 0.0,
			"-0.018": 0.0,
			"-0.017": 0.0,
			"-0.016": 0.0,
			"-0.015": 0.0,
			"-0.014": 0.0,
			"-0.013": 0.0,
			"-0.012": 0.0,
			"-0.011": 0.0,
			"-0.01": 0.0,
			"-0.009": 0.0,
			"-0.008": 0.0,
			"-0.007": 0.44669907744,
			"-0.006": 4.52000472107,
			"-0.005": 12.1239040742,
			"-0.004": 23.13929887,
			"-0.003": 26.0995443962,
			"-0.002": 30.8143741677,
			"-0.001": 35.7429436758,
			"0.0": 29.3285918322,
			"0.001": 12.4954539912,
			"0.002": 8.32621870411,
			"0.003": 8.48669573849,
			"0.004": 6.00707449305,
			"0.005": 3.66148425752,
			"0.006": 3.24339678252,
			"0.007": 3.16423916663,
			"0.008": 3.17166623444,
			"0.009": 1.62166456266,
			"0.01": 2.1069347846,
			"0.011": 3.32792391336,
			"0.012": 5.18154956646,
			"0.013": 2.75846265672,
			"0.014": 0.86559909182,
			"0.015": 0.655271081424,
			"0.016": 0.288106020362,
			"0.017": 0.0,
			"0.018": 0.0,
			"0.019": 0.0,
			"0.02": 0.0,
			"0.021": 0.0,
			"0.022": 0.0,
			"0.023": 0.0,
			"0.024": 0.0,
			"0.025": 0.0
		}
	}
}
