{
	 "smiles": "COC1=C(OC)C=C(CSCC(O)=O)C(C)=C1", 
	 "Tm": 337.15, 
	 "num_atms": 33, 
	 "gaussian": { 
		 "optdone": 1, 
		 "sigma_profile": "yes", 
		 "theory": "DFT", 
		 "functional": "B3LYP", 
		 "basiset": "6-31G**", 
		 "properties": { 
			 "R2extent": 6081.1557, 
			 "electric_dipole_moment_norm": 4.26608588404, 
			 "electric_quadrupole_moment_norm": 8.97949163984, 
			 "total_energy": -1165.98861612, 
			 "HOMO_LUMO_gap": 0.20047, 
			 "cosmo_polarized_energy": -16.41, 
			 "cosmo_cavitation_energy": 38.19, 
			 "cosmo_dispersion_energy": -26.8, 
			 "cosmo_repulsion_energy": 2.09, 
			 "cosmo_total_nonelectrostatic_energy": 13.48, 
			 "SMD_solvation_energy": 8.85 
		},
		"coords": [
			{
				"x": -4.3446623643,
				"y": -2.3801885026,
				"z": 0.8976706576,
				"element": "C" 
			},
			{
				"x": -3.6028758041,
				"y": -1.3615032832,
				"z": 1.5502150721,
				"element": "O" 
			},
			{
				"x": -2.7099923381,
				"y": -0.6371901637,
				"z": 0.8127282606,
				"element": "C" 
			},
			{
				"x": -1.963726345,
				"y": 0.3345737058,
				"z": 1.5102698433,
				"element": "C" 
			},
			{
				"x": -2.0887272198,
				"y": 0.5187753307,
				"z": 2.8657728521,
				"element": "O" 
			},
			{
				"x": -3.337013554,
				"y": 1.0527918585,
				"z": 3.3128421278,
				"element": "C" 
			},
			{
				"x": -1.0212302787,
				"y": 1.0858135134,
				"z": 0.8159101848,
				"element": "C" 
			},
			{
				"x": -0.7835795049,
				"y": 0.9108847329,
				"z": -0.5552559704,
				"element": "C" 
			},
			{
				"x": 0.2659877833,
				"y": 1.7560956026,
				"z": -1.229614659,
				"element": "C" 
			},
			{
				"x": 1.8764033504,
				"y": 0.9013828193,
				"z": -1.5752768265,
				"element": "S" 
			},
			{
				"x": 2.4016571997,
				"y": 0.5553883276,
				"z": 0.1534674524,
				"element": "C" 
			},
			{
				"x": 3.8184907689,
				"y": 0.025134821,
				"z": 0.2025812089,
				"element": "C" 
			},
			{
				"x": 3.9834223888,
				"y": -1.066419207,
				"z": -0.5788977222,
				"element": "O" 
			},
			{
				"x": 4.7090912683,
				"y": 0.4949726789,
				"z": 0.8735597111,
				"element": "O" 
			},
			{
				"x": -1.5409815385,
				"y": -0.0469540343,
				"z": -1.256709361,
				"element": "C" 
			},
			{
				"x": -1.3505993314,
				"y": -0.277956601,
				"z": -2.7377632211,
				"element": "C" 
			},
			{
				"x": -2.4927038567,
				"y": -0.8026048413,
				"z": -0.5584505347,
				"element": "C" 
			},
			{
				"x": -3.6862110707,
				"y": -3.1428344602,
				"z": 0.463150151,
				"element": "H" 
			},
			{
				"x": -4.9900162377,
				"y": -1.9720835611,
				"z": 0.1090562774,
				"element": "H" 
			},
			{
				"x": -4.9661789875,
				"y": -2.8390702898,
				"z": 1.6680802918,
				"element": "H" 
			},
			{
				"x": -3.5329977727,
				"y": 2.0296873725,
				"z": 2.8513041243,
				"element": "H" 
			},
			{
				"x": -3.2427985496,
				"y": 1.1798242609,
				"z": 4.3933935145,
				"element": "H" 
			},
			{
				"x": -4.1665976051,
				"y": 0.3738038873,
				"z": 3.0955966037,
				"element": "H" 
			},
			{
				"x": -0.4628481944,
				"y": 1.826543154,
				"z": 1.3817384922,
				"element": "H" 
			},
			{
				"x": -0.0528790614,
				"y": 2.0894581184,
				"z": -2.2216486348,
				"element": "H" 
			},
			{
				"x": 0.4796056493,
				"y": 2.6513825663,
				"z": -0.6386531881,
				"element": "H" 
			},
			{
				"x": 2.3776228635,
				"y": 1.4707707559,
				"z": 0.7466924537,
				"element": "H" 
			},
			{
				"x": 1.7251261464,
				"y": -0.1823125586,
				"z": 0.5970092889,
				"element": "H" 
			},
			{
				"x": 4.9146041742,
				"y": -1.3283651336,
				"z": -0.4828211148,
				"element": "H" 
			},
			{
				"x": -1.5578209578,
				"y": 0.6289491324,
				"z": -3.3197221961,
				"element": "H" 
			},
			{
				"x": -0.3221293999,
				"y": -0.5772462293,
				"z": -2.9657106111,
				"element": "H" 
			},
			{
				"x": -2.02106295,
				"y": -1.0605317847,
				"z": -3.1025981965,
				"element": "H" 
			},
			{
				"x": -3.0662786708,
				"y": -1.540771988,
				"z": -1.1076163318,
				"element": "H" 
			}
		],
		 "valence_orbital": [ 
			{
				"type": "occ",
				"energy": -0.27661,
				"method": "rhf"
			},
			{
				"type": "occ",
				"energy": -0.27366,
				"method": "rhf"
			},
			{
				"type": "occ",
				"energy": -0.24002,
				"method": "rhf"
			},
			{
				"type": "occ",
				"energy": -0.22661,
				"method": "rhf"
			},
			{
				"type": "occ",
				"energy": -0.20929,
				"method": "rhf"
			},
			{
				"type": "unocc",
				"energy": -0.00882,
				"method": "rhf"
			},
			{
				"type": "unocc",
				"energy": 0.00193,
				"method": "rhf"
			},
			{
				"type": "unocc",
				"energy": 0.00347,
				"method": "rhf"
			},
			{
				"type": "unocc",
				"energy": 0.04195,
				"method": "rhf"
			},
			{
				"type": "unocc",
				"energy": 0.07516,
				"method": "rhf"
			}
		],
		"cosmo_sigma_profile": { 
			"-0.025": 0.0,
			"-0.024": 0.0,
			"-0.023": 0.0,
			"-0.022": 0.0,
			"-0.021": 0.0,
			"-0.02": 0.0,
			"-0.019": 0.276205624352,
			"-0.018": 0.887470460203,
			"-0.017": 0.722634514459,
			"-0.016": 1.27458974651,
			"-0.015": 0.375818353679,
			"-0.014": 0.802865861045,
			"-0.013": 0.331275776777,
			"-0.012": 1.19565751203,
			"-0.011": 0.887217650307,
			"-0.01": 0.713561874069,
			"-0.009": 0.0822529877739,
			"-0.008": 1.23460552784,
			"-0.007": 7.27617046392,
			"-0.006": 16.4980761416,
			"-0.005": 24.4953319453,
			"-0.004": 25.4836804726,
			"-0.003": 29.6605462639,
			"-0.002": 26.7487487794,
			"-0.001": 20.9347654132,
			"0.0": 19.6404945925,
			"0.001": 16.0179190124,
			"0.002": 14.3947325379,
			"0.003": 13.4927799831,
			"0.004": 15.0392756571,
			"0.005": 15.6009797559,
			"0.006": 8.1651719689,
			"0.007": 6.46105427261,
			"0.008": 7.05568335199,
			"0.009": 6.90109033605,
			"0.01": 7.69982193272,
			"0.011": 7.79672673954,
			"0.012": 4.23416548365,
			"0.013": 0.276039746505,
			"0.014": 0.0,
			"0.015": 0.0,
			"0.016": 0.0,
			"0.017": 0.0,
			"0.018": 0.0,
			"0.019": 0.0,
			"0.02": 0.0,
			"0.021": 0.0,
			"0.022": 0.0,
			"0.023": 0.0,
			"0.024": 0.0,
			"0.025": 0.0
		}
	}
}
