{
	 "smiles": "CC1=CC(C)=C(C)C=C1", 
	 "Tm": 229.25, 
	 "num_atms": 21, 
	 "gaussian": { 
		 "optdone": 1, 
		 "sigma_profile": "yes", 
		 "theory": "DFT", 
		 "functional": "B3LYP", 
		 "basiset": "6-31G**", 
		 "properties": { 
			 "R2extent": 1487.0611, 
			 "electric_dipole_moment_norm": 0.351568158399, 
			 "electric_quadrupole_moment_norm": 4.07689055409, 
			 "total_energy": -350.211972223, 
			 "HOMO_LUMO_gap": 0.23194, 
			 "cosmo_polarized_energy": -3.16, 
			 "cosmo_cavitation_energy": 23.3, 
			 "cosmo_dispersion_energy": -17.08, 
			 "cosmo_repulsion_energy": 1.39, 
			 "cosmo_total_nonelectrostatic_energy": 7.61, 
			 "SMD_solvation_energy": 4.13 
		},
		"coords": [
			{
				"x": 2.7639022046,
				"y": -0.4599009493,
				"z": 1.3520994263,
				"element": "C" 
			},
			{
				"x": 1.6732289098,
				"y": 0.2305329102,
				"z": 0.5665227373,
				"element": "C" 
			},
			{
				"x": 0.4614055826,
				"y": -0.4197725805,
				"z": 0.2973249377,
				"element": "C" 
			},
			{
				"x": -0.5801804789,
				"y": 0.1949047105,
				"z": -0.4033696212,
				"element": "C" 
			},
			{
				"x": -1.8642214487,
				"y": -0.5564992843,
				"z": -0.6656398902,
				"element": "C" 
			},
			{
				"x": -0.4122453882,
				"y": 1.5198242587,
				"z": -0.8623078788,
				"element": "C" 
			},
			{
				"x": -1.5084310808,
				"y": 2.2238526782,
				"z": -1.6262466217,
				"element": "C" 
			},
			{
				"x": 0.7970757938,
				"y": 2.1688584797,
				"z": -0.5977464824,
				"element": "C" 
			},
			{
				"x": 1.8266670443,
				"y": 1.5396317839,
				"z": 0.1034807012,
				"element": "C" 
			},
			{
				"x": 2.560762398,
				"y": -0.4288055665,
				"z": 2.430128539,
				"element": "H" 
			},
			{
				"x": 3.7355619618,
				"y": 0.0159081135,
				"z": 1.1897145345,
				"element": "H" 
			},
			{
				"x": 2.8540611755,
				"y": -1.5148398253,
				"z": 1.0726952361,
				"element": "H" 
			},
			{
				"x": 0.3241757245,
				"y": -1.4425256644,
				"z": 0.6443165428,
				"element": "H" 
			},
			{
				"x": -1.8244417575,
				"y": -1.5651774637,
				"z": -0.2458433997,
				"element": "H" 
			},
			{
				"x": -2.7300609838,
				"y": -0.0461144494,
				"z": -0.2259107794,
				"element": "H" 
			},
			{
				"x": -2.0681560452,
				"y": -0.6497606424,
				"z": -1.7395112335,
				"element": "H" 
			},
			{
				"x": -2.4315592251,
				"y": 2.2988697781,
				"z": -1.0380967335,
				"element": "H" 
			},
			{
				"x": -1.7682725843,
				"y": 1.6917689733,
				"z": -2.549893265,
				"element": "H" 
			},
			{
				"x": -1.2072024448,
				"y": 3.2382275347,
				"z": -1.9014888809,
				"element": "H" 
			},
			{
				"x": 0.9376822528,
				"y": 3.1877957166,
				"z": -0.9512437899,
				"element": "H" 
			},
			{
				"x": 2.7559483897,
				"y": 2.0728214884,
				"z": 0.2894159215,
				"element": "H" 
			}
		],
		 "valence_orbital": [ 
			{
				"type": "occ",
				"energy": -0.32898,
				"method": "rhf"
			},
			{
				"type": "occ",
				"energy": -0.32536,
				"method": "rhf"
			},
			{
				"type": "occ",
				"energy": -0.32313,
				"method": "rhf"
			},
			{
				"type": "occ",
				"energy": -0.23398,
				"method": "rhf"
			},
			{
				"type": "occ",
				"energy": -0.22148,
				"method": "rhf"
			},
			{
				"type": "unocc",
				"energy": 0.01046,
				"method": "rhf"
			},
			{
				"type": "unocc",
				"energy": 0.01122,
				"method": "rhf"
			},
			{
				"type": "unocc",
				"energy": 0.09718,
				"method": "rhf"
			},
			{
				"type": "unocc",
				"energy": 0.10853,
				"method": "rhf"
			},
			{
				"type": "unocc",
				"energy": 0.12513,
				"method": "rhf"
			}
		],
		"cosmo_sigma_profile": { 
			"-0.025": 0.0,
			"-0.024": 0.0,
			"-0.023": 0.0,
			"-0.022": 0.0,
			"-0.021": 0.0,
			"-0.02": 0.0,
			"-0.019": 0.0,
			"-0.018": 0.0,
			"-0.017": 0.0,
			"-0.016": 0.0,
			"-0.015": 0.0,
			"-0.014": 0.0,
			"-0.013": 0.0,
			"-0.012": 0.0,
			"-0.011": 0.0,
			"-0.01": 0.0,
			"-0.009": 0.0,
			"-0.008": 0.0,
			"-0.007": 0.0,
			"-0.006": 0.0,
			"-0.005": 1.82261345788,
			"-0.004": 17.3321969726,
			"-0.003": 27.1534337725,
			"-0.002": 21.7830095711,
			"-0.001": 21.3639844087,
			"0.0": 28.1988426027,
			"0.001": 19.2689461835,
			"0.002": 9.5060428598,
			"0.003": 7.62716149892,
			"0.004": 6.70647668453,
			"0.005": 7.15769464761,
			"0.006": 6.83610765768,
			"0.007": 6.67592011335,
			"0.008": 1.45478338517,
			"0.009": 0.0,
			"0.01": 0.0,
			"0.011": 0.0,
			"0.012": 0.0,
			"0.013": 0.0,
			"0.014": 0.0,
			"0.015": 0.0,
			"0.016": 0.0,
			"0.017": 0.0,
			"0.018": 0.0,
			"0.019": 0.0,
			"0.02": 0.0,
			"0.021": 0.0,
			"0.022": 0.0,
			"0.023": 0.0,
			"0.024": 0.0,
			"0.025": 0.0
		}
	}
}
