{
	 "smiles": "O=C(OCC1=CC=CC=C1)N1CCC2=NNC(=O)C=C2C1", 
	 "Tm": 449.15, 
	 "num_atms": 36, 
	 "gaussian": { 
		 "optdone": 1, 
		 "sigma_profile": "yes", 
		 "theory": "DFT", 
		 "functional": "B3LYP", 
		 "basiset": "6-31G**", 
		 "properties": { 
			 "R2extent": 9292.3308, 
			 "electric_dipole_moment_norm": 2.54495603695, 
			 "electric_quadrupole_moment_norm": 21.4010957519, 
			 "total_energy": -970.565534404, 
			 "HOMO_LUMO_gap": 0.16742, 
			 "cosmo_polarized_energy": -18.56, 
			 "cosmo_cavitation_energy": 39.88, 
			 "cosmo_dispersion_energy": -28.89, 
			 "cosmo_repulsion_energy": 2.22, 
			 "cosmo_total_nonelectrostatic_energy": 13.21, 
			 "SMD_solvation_energy": 6.77 
		},
		"coords": [
			{
				"x": -2.9796337792,
				"y": -0.7626962963,
				"z": -0.8386513974,
				"element": "O" 
			},
			{
				"x": -1.8702162701,
				"y": -0.4873450665,
				"z": -0.4057204065,
				"element": "C" 
			},
			{
				"x": -0.7741872692,
				"y": -1.2773947636,
				"z": -0.5470878606,
				"element": "O" 
			},
			{
				"x": -0.968928105,
				"y": -2.5138827257,
				"z": -1.2871478552,
				"element": "C" 
			},
			{
				"x": -0.638563825,
				"y": -2.3498268206,
				"z": -2.7500358516,
				"element": "C" 
			},
			{
				"x": -1.590335488,
				"y": -1.8330061274,
				"z": -3.6413381116,
				"element": "C" 
			},
			{
				"x": -1.2771381431,
				"y": -1.6743677145,
				"z": -4.9911261131,
				"element": "C" 
			},
			{
				"x": -0.0128637835,
				"y": -2.0320285213,
				"z": -5.4663946908,
				"element": "C" 
			},
			{
				"x": 0.9393235171,
				"y": -2.5485576944,
				"z": -4.5861360526,
				"element": "C" 
			},
			{
				"x": 0.625956816,
				"y": -2.7047049481,
				"z": -3.235022341,
				"element": "C" 
			},
			{
				"x": -1.5776826,
				"y": 0.6548100081,
				"z": 0.2915023106,
				"element": "N" 
			},
			{
				"x": -2.622230345,
				"y": 1.6474997261,
				"z": 0.5222420064,
				"element": "C" 
			},
			{
				"x": -2.8506064398,
				"y": 1.8069298179,
				"z": 2.0281895052,
				"element": "C" 
			},
			{
				"x": -1.5437623482,
				"y": 2.0323943054,
				"z": 2.7561538609,
				"element": "C" 
			},
			{
				"x": -1.6025271034,
				"y": 2.6143907666,
				"z": 3.9265384974,
				"element": "N" 
			},
			{
				"x": -0.4499465199,
				"y": 2.7834497488,
				"z": 4.5890054082,
				"element": "N" 
			},
			{
				"x": 0.8451528682,
				"y": 2.4114506368,
				"z": 4.1995056861,
				"element": "C" 
			},
			{
				"x": 1.8070353389,
				"y": 2.6275610984,
				"z": 4.9280818592,
				"element": "O" 
			},
			{
				"x": 0.8575358778,
				"y": 1.7849536903,
				"z": 2.888434602,
				"element": "C" 
			},
			{
				"x": -0.2914383494,
				"y": 1.599157725,
				"z": 2.1801915496,
				"element": "C" 
			},
			{
				"x": -0.2515403365,
				"y": 0.9968467633,
				"z": 0.7841210502,
				"element": "C" 
			},
			{
				"x": -0.2892007071,
				"y": -3.2234779863,
				"z": -0.810435084,
				"element": "H" 
			},
			{
				"x": -2.0007401845,
				"y": -2.8387512132,
				"z": -1.1447019917,
				"element": "H" 
			},
			{
				"x": -2.5683873004,
				"y": -1.5514329156,
				"z": -3.2634089785,
				"element": "H" 
			},
			{
				"x": -2.0216782134,
				"y": -1.2754861808,
				"z": -5.6743357025,
				"element": "H" 
			},
			{
				"x": 0.2276331152,
				"y": -1.911609059,
				"z": -6.5189412789,
				"element": "H" 
			},
			{
				"x": 1.9228586759,
				"y": -2.831307656,
				"z": -4.9504965687,
				"element": "H" 
			},
			{
				"x": 1.368097668,
				"y": -3.1093839971,
				"z": -2.550799523,
				"element": "H" 
			},
			{
				"x": -3.5243143741,
				"y": 1.3074636634,
				"z": 0.0156220013,
				"element": "H" 
			},
			{
				"x": -2.313638659,
				"y": 2.6043144481,
				"z": 0.0768455141,
				"element": "H" 
			},
			{
				"x": -3.5327329709,
				"y": 2.6354536046,
				"z": 2.2408307344,
				"element": "H" 
			},
			{
				"x": -3.3247773758,
				"y": 0.8924673937,
				"z": 2.4071728307,
				"element": "H" 
			},
			{
				"x": -0.5330115537,
				"y": 3.2397290595,
				"z": 5.4902511835,
				"element": "H" 
			},
			{
				"x": 1.827927256,
				"y": 1.4826438386,
				"z": 2.5062187643,
				"element": "H" 
			},
			{
				"x": 0.224721168,
				"y": 1.7259482674,
				"z": 0.1087154751,
				"element": "H" 
			},
			{
				"x": 0.3714397431,
				"y": 0.1032951243,
				"z": 0.7792569683,
				"element": "H" 
			}
		],
		 "valence_orbital": [ 
			{
				"type": "occ",
				"energy": -0.25788,
				"method": "rhf"
			},
			{
				"type": "occ",
				"energy": -0.25391,
				"method": "rhf"
			},
			{
				"type": "occ",
				"energy": -0.25141,
				"method": "rhf"
			},
			{
				"type": "occ",
				"energy": -0.24803,
				"method": "rhf"
			},
			{
				"type": "occ",
				"energy": -0.2346,
				"method": "rhf"
			},
			{
				"type": "unocc",
				"energy": -0.06718,
				"method": "rhf"
			},
			{
				"type": "unocc",
				"energy": -0.01372,
				"method": "rhf"
			},
			{
				"type": "unocc",
				"energy": -0.00479,
				"method": "rhf"
			},
			{
				"type": "unocc",
				"energy": -0.00053,
				"method": "rhf"
			},
			{
				"type": "unocc",
				"energy": 0.04359,
				"method": "rhf"
			}
		],
		"cosmo_sigma_profile": { 
			"-0.025": 0.0,
			"-0.024": 0.0,
			"-0.023": 0.0,
			"-0.022": 0.0,
			"-0.021": 0.0,
			"-0.02": 0.0,
			"-0.019": 0.0,
			"-0.018": 0.0,
			"-0.017": 0.0,
			"-0.016": 0.581839196672,
			"-0.015": 1.50383733041,
			"-0.014": 0.631764561922,
			"-0.013": 0.651049907258,
			"-0.012": 0.670765705466,
			"-0.011": 1.0726368651,
			"-0.01": 0.907739326835,
			"-0.009": 0.753208794915,
			"-0.008": 3.30880575894,
			"-0.007": 5.99693044056,
			"-0.006": 20.6264496313,
			"-0.005": 26.7440878875,
			"-0.004": 28.567417939,
			"-0.003": 31.4885941187,
			"-0.002": 25.7494795366,
			"-0.001": 25.8252047241,
			"0.0": 20.3200491242,
			"0.001": 16.4098947117,
			"0.002": 14.6989339713,
			"0.003": 13.5275603136,
			"0.004": 15.4913222577,
			"0.005": 16.6241075605,
			"0.006": 9.13600461456,
			"0.007": 3.69995299126,
			"0.008": 2.72697951991,
			"0.009": 2.58966730033,
			"0.01": 3.99523638042,
			"0.011": 4.05611038611,
			"0.012": 4.38101267435,
			"0.013": 6.91908682025,
			"0.014": 6.12279409946,
			"0.015": 1.67445781747,
			"0.016": 0.0112442276204,
			"0.017": 0.0,
			"0.018": 0.0,
			"0.019": 0.0,
			"0.02": 0.0,
			"0.021": 0.0,
			"0.022": 0.0,
			"0.023": 0.0,
			"0.024": 0.0,
			"0.025": 0.0
		}
	}
}
