{
	 "smiles": "COC1=CC=C(C=C1)C(=O)CC(C)(C)C(O)=O", 
	 "Tm": 440.15, 
	 "num_atms": 33, 
	 "gaussian": { 
		 "optdone": 1, 
		 "sigma_profile": "yes", 
		 "theory": "DFT", 
		 "functional": "B3LYP", 
		 "basiset": "6-31G**", 
		 "properties": { 
			 "R2extent": 5256.2288, 
			 "electric_dipole_moment_norm": 5.17191677234, 
			 "electric_quadrupole_moment_norm": 11.1902486402, 
			 "total_energy": -805.935182019, 
			 "HOMO_LUMO_gap": 0.18048, 
			 "cosmo_polarized_energy": -16.51, 
			 "cosmo_cavitation_energy": 35.74, 
			 "cosmo_dispersion_energy": -24.8, 
			 "cosmo_repulsion_energy": 1.91, 
			 "cosmo_total_nonelectrostatic_energy": 12.85, 
			 "SMD_solvation_energy": 8.4 
		},
		"coords": [
			{
				"x": 1.2256917717,
				"y": -1.9584568194,
				"z": 4.1683561349,
				"element": "C" 
			},
			{
				"x": 1.7308019598,
				"y": -2.2744475246,
				"z": 2.8782502961,
				"element": "O" 
			},
			{
				"x": 1.3134968462,
				"y": -1.5363960297,
				"z": 1.817417132,
				"element": "C" 
			},
			{
				"x": 1.8533002201,
				"y": -1.9035664189,
				"z": 0.5706330353,
				"element": "C" 
			},
			{
				"x": 1.4929229251,
				"y": -1.2105180004,
				"z": -0.5688893853,
				"element": "C" 
			},
			{
				"x": 0.5853516333,
				"y": -0.1312904184,
				"z": -0.5129532755,
				"element": "C" 
			},
			{
				"x": 0.0547257745,
				"y": 0.2214647522,
				"z": 0.7357587351,
				"element": "C" 
			},
			{
				"x": 0.4085967533,
				"y": -0.4696762146,
				"z": 1.8954142053,
				"element": "C" 
			},
			{
				"x": 0.2684047308,
				"y": 0.5696602035,
				"z": -1.7910485092,
				"element": "C" 
			},
			{
				"x": 0.7943546435,
				"y": 0.2121524539,
				"z": -2.839602239,
				"element": "O" 
			},
			{
				"x": -0.7036021827,
				"y": 1.7518029206,
				"z": -1.8213248271,
				"element": "C" 
			},
			{
				"x": -2.1258144487,
				"y": 1.4312702327,
				"z": -2.39190201,
				"element": "C" 
			},
			{
				"x": -2.9469750915,
				"y": 2.7424804673,
				"z": -2.3813841854,
				"element": "C" 
			},
			{
				"x": -2.0551287171,
				"y": 0.872079263,
				"z": -3.8207189177,
				"element": "C" 
			},
			{
				"x": -2.8265718424,
				"y": 0.4102335894,
				"z": -1.4919569563,
				"element": "C" 
			},
			{
				"x": -3.0193488708,
				"y": 0.8790980479,
				"z": -0.2270516696,
				"element": "O" 
			},
			{
				"x": -3.1963849413,
				"y": -0.6947471207,
				"z": -1.8188804792,
				"element": "O" 
			},
			{
				"x": 1.4934704252,
				"y": -0.9373117442,
				"z": 4.4669064742,
				"element": "H" 
			},
			{
				"x": 0.1355772693,
				"y": -2.0735841146,
				"z": 4.213515451,
				"element": "H" 
			},
			{
				"x": 1.6908082508,
				"y": -2.6675548871,
				"z": 4.8542881769,
				"element": "H" 
			},
			{
				"x": 2.5504360075,
				"y": -2.7342610024,
				"z": 0.5344623003,
				"element": "H" 
			},
			{
				"x": 1.9019381816,
				"y": -1.4800543016,
				"z": -1.5365444986,
				"element": "H" 
			},
			{
				"x": -0.6597180896,
				"y": 1.0316773555,
				"z": 0.8212746582,
				"element": "H" 
			},
			{
				"x": -0.019869131,
				"y": -0.1702226915,
				"z": 2.8443767236,
				"element": "H" 
			},
			{
				"x": -0.2536397412,
				"y": 2.4891490766,
				"z": -2.4939423699,
				"element": "H" 
			},
			{
				"x": -0.8106457035,
				"y": 2.2201625674,
				"z": -0.8410785677,
				"element": "H" 
			},
			{
				"x": -3.960885873,
				"y": 2.5688013884,
				"z": -2.7565551874,
				"element": "H" 
			},
			{
				"x": -2.4697677889,
				"y": 3.4795875684,
				"z": -3.0349392862,
				"element": "H" 
			},
			{
				"x": -3.0216060542,
				"y": 3.1644781668,
				"z": -1.376369713,
				"element": "H" 
			},
			{
				"x": -1.5623726861,
				"y": 1.5950971125,
				"z": -4.4773849754,
				"element": "H" 
			},
			{
				"x": -3.0625804568,
				"y": 0.683444155,
				"z": -4.2018044371,
				"element": "H" 
			},
			{
				"x": -1.4939671215,
				"y": -0.060925774,
				"z": -3.864242678,
				"element": "H" 
			},
			{
				"x": -3.4543986524,
				"y": 0.1559737407,
				"z": 0.2552208447,
				"element": "H" 
			}
		],
		 "valence_orbital": [ 
			{
				"type": "occ",
				"energy": -0.31904,
				"method": "rhf"
			},
			{
				"type": "occ",
				"energy": -0.27188,
				"method": "rhf"
			},
			{
				"type": "occ",
				"energy": -0.26044,
				"method": "rhf"
			},
			{
				"type": "occ",
				"energy": -0.24092,
				"method": "rhf"
			},
			{
				"type": "occ",
				"energy": -0.23052,
				"method": "rhf"
			},
			{
				"type": "unocc",
				"energy": -0.05004,
				"method": "rhf"
			},
			{
				"type": "unocc",
				"energy": -0.00923,
				"method": "rhf"
			},
			{
				"type": "unocc",
				"energy": 0.00575,
				"method": "rhf"
			},
			{
				"type": "unocc",
				"energy": 0.04589,
				"method": "rhf"
			},
			{
				"type": "unocc",
				"energy": 0.06946,
				"method": "rhf"
			}
		],
		"cosmo_sigma_profile": { 
			"-0.025": 0.0,
			"-0.024": 0.0,
			"-0.023": 0.0,
			"-0.022": 0.0,
			"-0.021": 0.0,
			"-0.02": 0.0,
			"-0.019": 0.0,
			"-0.018": 0.563919198436,
			"-0.017": 0.733325496452,
			"-0.016": 1.01926601317,
			"-0.015": 0.992077431933,
			"-0.014": 0.33449873604,
			"-0.013": 0.692255000302,
			"-0.012": 0.383769233535,
			"-0.011": 0.62489067499,
			"-0.01": 0.718157216881,
			"-0.009": 0.834629767156,
			"-0.008": 0.715859906006,
			"-0.007": 3.75859704419,
			"-0.006": 13.9991094862,
			"-0.005": 21.4654336599,
			"-0.004": 27.613879195,
			"-0.003": 27.0359940471,
			"-0.002": 22.1938904786,
			"-0.001": 19.2163723541,
			"0.0": 24.0068279268,
			"0.001": 18.2046062885,
			"0.002": 17.3269562152,
			"0.003": 18.6884178259,
			"0.004": 14.2518301795,
			"0.005": 5.45166592523,
			"0.006": 5.5351485446,
			"0.007": 5.86581882066,
			"0.008": 4.109438778,
			"0.009": 4.76386566099,
			"0.01": 4.85517209956,
			"0.011": 5.96852589866,
			"0.012": 6.84205346954,
			"0.013": 2.34430471943,
			"0.014": 0.173931301501,
			"0.015": 0.0,
			"0.016": 0.0,
			"0.017": 0.0,
			"0.018": 0.0,
			"0.019": 0.0,
			"0.02": 0.0,
			"0.021": 0.0,
			"0.022": 0.0,
			"0.023": 0.0,
			"0.024": 0.0,
			"0.025": 0.0
		}
	}
}
