{
	 "smiles": "CC(C)(C)N1N=CC(SCC2=CC=C(C=C2)C(C)(C)C)=C(Cl)C1=O", 
	 "Tm": 385.15, 
	 "num_atms": 49, 
	 "gaussian": { 
		 "optdone": 1, 
		 "sigma_profile": "yes", 
		 "theory": "DFT", 
		 "functional": "B3LYP", 
		 "basiset": "6-31G**", 
		 "properties": { 
			 "R2extent": 13910.8991, 
			 "electric_dipole_moment_norm": 5.55746958696, 
			 "electric_quadrupole_moment_norm": 21.0269837228, 
			 "total_energy": -1782.19621867, 
			 "HOMO_LUMO_gap": 0.16639, 
			 "cosmo_polarized_energy": -13.06, 
			 "cosmo_cavitation_energy": 52.08, 
			 "cosmo_dispersion_energy": -36.06, 
			 "cosmo_repulsion_energy": 2.72, 
			 "cosmo_total_nonelectrostatic_energy": 18.74, 
			 "SMD_solvation_energy": 8.42 
		},
		"coords": [
			{
				"x": 4.2383814199,
				"y": 2.7354803833,
				"z": 0.5162217755,
				"element": "C" 
			},
			{
				"x": 4.3858538575,
				"y": 1.217393,
				"z": 0.7344605041,
				"element": "C" 
			},
			{
				"x": 5.8595247236,
				"y": 0.7750685831,
				"z": 0.6517870623,
				"element": "C" 
			},
			{
				"x": 3.8258688568,
				"y": 0.8494643669,
				"z": 2.1152105189,
				"element": "C" 
			},
			{
				"x": 3.5957660526,
				"y": 0.4891016478,
				"z": -0.3387379135,
				"element": "N" 
			},
			{
				"x": 2.6011778563,
				"y": -0.2900656025,
				"z": 0.0965832495,
				"element": "N" 
			},
			{
				"x": 1.8717595844,
				"y": -0.9562631257,
				"z": -0.7552482656,
				"element": "C" 
			},
			{
				"x": 2.0672978271,
				"y": -0.9147688083,
				"z": -2.172922693,
				"element": "C" 
			},
			{
				"x": 1.1015566978,
				"y": -1.8388775361,
				"z": -3.3323886137,
				"element": "S" 
			},
			{
				"x": -0.0399313808,
				"y": -2.850313987,
				"z": -2.2946053126,
				"element": "C" 
			},
			{
				"x": -1.1851611501,
				"y": -2.1369411952,
				"z": -1.6080902877,
				"element": "C" 
			},
			{
				"x": -1.5391612363,
				"y": -2.4867731287,
				"z": -0.3023966265,
				"element": "C" 
			},
			{
				"x": -2.6279647979,
				"y": -1.8875477582,
				"z": 0.3372495079,
				"element": "C" 
			},
			{
				"x": -3.4045562895,
				"y": -0.9145657344,
				"z": -0.3029654226,
				"element": "C" 
			},
			{
				"x": -3.0382596694,
				"y": -0.5707749683,
				"z": -1.6172547106,
				"element": "C" 
			},
			{
				"x": -1.9561645756,
				"y": -1.1644405661,
				"z": -2.2584764254,
				"element": "C" 
			},
			{
				"x": -4.607671487,
				"y": -0.2263837348,
				"z": 0.3661076821,
				"element": "C" 
			},
			{
				"x": -5.8831774341,
				"y": -0.4976932562,
				"z": -0.4671013167,
				"element": "C" 
			},
			{
				"x": -4.354631582,
				"y": 1.2987414369,
				"z": 0.4342481664,
				"element": "C" 
			},
			{
				"x": -4.8513651759,
				"y": -0.7380920466,
				"z": 1.7984643404,
				"element": "C" 
			},
			{
				"x": 3.081728243,
				"y": -0.1021552744,
				"z": -2.6136461064,
				"element": "C" 
			},
			{
				"x": 3.4470264728,
				"y": 0.0679545325,
				"z": -4.3004889083,
				"element": "Cl" 
			},
			{
				"x": 3.9259630659,
				"y": 0.6670568433,
				"z": -1.7034326918,
				"element": "C" 
			},
			{
				"x": 4.8409038058,
				"y": 1.3986189441,
				"z": -2.0689145637,
				"element": "O" 
			},
			{
				"x": 4.7819577382,
				"y": 3.2643234543,
				"z": 1.3054778525,
				"element": "H" 
			},
			{
				"x": 3.1854513585,
				"y": 3.0297380408,
				"z": 0.5756379716,
				"element": "H" 
			},
			{
				"x": 4.6397184307,
				"y": 3.0383632488,
				"z": -0.4500553263,
				"element": "H" 
			},
			{
				"x": 6.4276284837,
				"y": 1.2759820924,
				"z": 1.4419736466,
				"element": "H" 
			},
			{
				"x": 5.943912239,
				"y": -0.3053184858,
				"z": 0.808300186,
				"element": "H" 
			},
			{
				"x": 6.2977130816,
				"y": 1.0314183207,
				"z": -0.3119510308,
				"element": "H" 
			},
			{
				"x": 4.4155642654,
				"y": 1.3862253593,
				"z": 2.8645605888,
				"element": "H" 
			},
			{
				"x": 3.9018094237,
				"y": -0.2210505439,
				"z": 2.3165708176,
				"element": "H" 
			},
			{
				"x": 2.7791294786,
				"y": 1.1401212456,
				"z": 2.2242121861,
				"element": "H" 
			},
			{
				"x": 1.0756395968,
				"y": -1.5403932885,
				"z": -0.3128792031,
				"element": "H" 
			},
			{
				"x": 0.5461825861,
				"y": -3.4356257574,
				"z": -1.5809753859,
				"element": "H" 
			},
			{
				"x": -0.4205237563,
				"y": -3.559876191,
				"z": -3.0387842193,
				"element": "H" 
			},
			{
				"x": -0.963382535,
				"y": -3.2423335322,
				"z": 0.2282659808,
				"element": "H" 
			},
			{
				"x": -2.8589771572,
				"y": -2.1925854017,
				"z": 1.3513051905,
				"element": "H" 
			},
			{
				"x": -3.6082168326,
				"y": 0.1802532962,
				"z": -2.1562735301,
				"element": "H" 
			},
			{
				"x": -1.6995980064,
				"y": -0.8625674103,
				"z": -3.2699607971,
				"element": "H" 
			},
			{
				"x": -5.7914060262,
				"y": -0.1183565386,
				"z": -1.4891107743,
				"element": "H" 
			},
			{
				"x": -6.7489864379,
				"y": -0.0081356091,
				"z": -0.0073302083,
				"element": "H" 
			},
			{
				"x": -6.0918275273,
				"y": -1.5709608525,
				"z": -0.5264945185,
				"element": "H" 
			},
			{
				"x": -4.2153298477,
				"y": 1.7339277986,
				"z": -0.5597371875,
				"element": "H" 
			},
			{
				"x": -3.4598887162,
				"y": 1.5216089214,
				"z": 1.0246563441,
				"element": "H" 
			},
			{
				"x": -5.206001217,
				"y": 1.8050043349,
				"z": 0.9028634925,
				"element": "H" 
			},
			{
				"x": -3.9933766165,
				"y": -0.5475347707,
				"z": 2.4515994677,
				"element": "H" 
			},
			{
				"x": -5.7148222247,
				"y": -0.2229748002,
				"z": 2.2314007769,
				"element": "H" 
			},
			{
				"x": -5.0653334662,
				"y": -1.8118759465,
				"z": 1.8174647305,
				"element": "H" 
			}
		],
		 "valence_orbital": [ 
			{
				"type": "occ",
				"energy": -0.25883,
				"method": "rhf"
			},
			{
				"type": "occ",
				"energy": -0.24837,
				"method": "rhf"
			},
			{
				"type": "occ",
				"energy": -0.24796,
				"method": "rhf"
			},
			{
				"type": "occ",
				"energy": -0.24455,
				"method": "rhf"
			},
			{
				"type": "occ",
				"energy": -0.22505,
				"method": "rhf"
			},
			{
				"type": "unocc",
				"energy": -0.05866,
				"method": "rhf"
			},
			{
				"type": "unocc",
				"energy": -0.01766,
				"method": "rhf"
			},
			{
				"type": "unocc",
				"energy": -0.01302,
				"method": "rhf"
			},
			{
				"type": "unocc",
				"energy": -0.00209,
				"method": "rhf"
			},
			{
				"type": "unocc",
				"energy": 0.01648,
				"method": "rhf"
			}
		],
		"cosmo_sigma_profile": { 
			"-0.025": 0.0,
			"-0.024": 0.0,
			"-0.023": 0.0,
			"-0.022": 0.0,
			"-0.021": 0.0,
			"-0.02": 0.0,
			"-0.019": 0.0,
			"-0.018": 0.0,
			"-0.017": 0.0,
			"-0.016": 0.0,
			"-0.015": 0.0,
			"-0.014": 0.0,
			"-0.013": 0.0,
			"-0.012": 0.0,
			"-0.011": 0.0,
			"-0.01": 0.0476385132233,
			"-0.009": 1.06412828315,
			"-0.008": 4.47362299193,
			"-0.007": 6.35471605224,
			"-0.006": 6.4225868901,
			"-0.005": 13.0909575311,
			"-0.004": 27.5744025817,
			"-0.003": 42.8927799838,
			"-0.002": 48.4320435865,
			"-0.001": 45.5805404666,
			"0.0": 53.2166156029,
			"0.001": 50.8510948716,
			"0.002": 27.6924964621,
			"0.003": 20.9386316334,
			"0.004": 21.34224377,
			"0.005": 14.7150854653,
			"0.006": 9.22565067164,
			"0.007": 3.98415257329,
			"0.008": 2.88573000515,
			"0.009": 2.00606808103,
			"0.01": 1.66636338321,
			"0.011": 1.5083303977,
			"0.012": 2.42310522147,
			"0.013": 2.76334157483,
			"0.014": 1.77605440605,
			"0.015": 0.0284525279802,
			"0.016": 0.0,
			"0.017": 0.0,
			"0.018": 0.0,
			"0.019": 0.0,
			"0.02": 0.0,
			"0.021": 0.0,
			"0.022": 0.0,
			"0.023": 0.0,
			"0.024": 0.0,
			"0.025": 0.0
		}
	}
}
