{
	 "smiles": "CN1C(CN)=NC2=C1C=CC=C2", 
	 "Tm": 535.15, 
	 "num_atms": 23, 
	 "gaussian": { 
		 "optdone": 1, 
		 "sigma_profile": "yes", 
		 "theory": "DFT", 
		 "functional": "B3LYP", 
		 "basiset": "6-31G**", 
		 "properties": { 
			 "R2extent": 2588.7194, 
			 "electric_dipole_moment_norm": 3.15346542236, 
			 "electric_quadrupole_moment_norm": 12.679010519, 
			 "total_energy": -513.851660604, 
			 "HOMO_LUMO_gap": 0.20331, 
			 "cosmo_polarized_energy": -11.79, 
			 "cosmo_cavitation_energy": 25.92, 
			 "cosmo_dispersion_energy": -19.29, 
			 "cosmo_repulsion_energy": 1.54, 
			 "cosmo_total_nonelectrostatic_energy": 8.17, 
			 "SMD_solvation_energy": 1.69 
		},
		"coords": [
			{
				"x": -2.650741406,
				"y": 0.9148927621,
				"z": 2.3211065322,
				"element": "C" 
			},
			{
				"x": -1.714764691,
				"y": 0.5254261862,
				"z": 1.278670095,
				"element": "N" 
			},
			{
				"x": -1.9972022603,
				"y": 0.2193281337,
				"z": -0.04161121,
				"element": "C" 
			},
			{
				"x": -3.3809430119,
				"y": 0.2624833928,
				"z": -0.6213487167,
				"element": "C" 
			},
			{
				"x": -3.973868816,
				"y": 1.6059303569,
				"z": -0.5090570278,
				"element": "N" 
			},
			{
				"x": -0.9341305551,
				"y": -0.1213065933,
				"z": -0.7369851542,
				"element": "N" 
			},
			{
				"x": 0.1199956935,
				"y": -0.0539092029,
				"z": 0.1602801331,
				"element": "C" 
			},
			{
				"x": -0.3498969082,
				"y": 0.3474658749,
				"z": 1.4341275181,
				"element": "C" 
			},
			{
				"x": 0.4999557686,
				"y": 0.4974392652,
				"z": 2.5332227521,
				"element": "C" 
			},
			{
				"x": 1.8518570494,
				"y": 0.2362299775,
				"z": 2.3211254972,
				"element": "C" 
			},
			{
				"x": 2.3368789392,
				"y": -0.1616190895,
				"z": 1.0585455982,
				"element": "C" 
			},
			{
				"x": 1.4836533631,
				"y": -0.3107374759,
				"z": -0.0304626169,
				"element": "C" 
			},
			{
				"x": -2.1910675718,
				"y": 1.6805943361,
				"z": 2.9524733316,
				"element": "H" 
			},
			{
				"x": -2.9247515855,
				"y": 0.0608115131,
				"z": 2.9516485437,
				"element": "H" 
			},
			{
				"x": -3.5384225619,
				"y": 1.3386797275,
				"z": 1.8502859201,
				"element": "H" 
			},
			{
				"x": -3.2880914486,
				"y": -0.1191660188,
				"z": -1.6471906787,
				"element": "H" 
			},
			{
				"x": -4.0336062167,
				"y": -0.4314880426,
				"z": -0.0747921674,
				"element": "H" 
			},
			{
				"x": -4.9169972111,
				"y": 1.5942851445,
				"z": -0.8896107072,
				"element": "H" 
			},
			{
				"x": -3.4387797468,
				"y": 2.25917309,
				"z": -1.0768742538,
				"element": "H" 
			},
			{
				"x": 0.1320603247,
				"y": 0.7974724875,
				"z": 3.5097731062,
				"element": "H" 
			},
			{
				"x": 2.5478554922,
				"y": 0.3389231875,
				"z": 3.1486672416,
				"element": "H" 
			},
			{
				"x": 3.3987336245,
				"y": -0.3557678949,
				"z": 0.9385153301,
				"element": "H" 
			},
			{
				"x": 1.8502737353,
				"y": -0.6176411177,
				"z": -1.0049090666,
				"element": "H" 
			}
		],
		 "valence_orbital": [ 
			{
				"type": "occ",
				"energy": -0.2864,
				"method": "rhf"
			},
			{
				"type": "occ",
				"energy": -0.26082,
				"method": "rhf"
			},
			{
				"type": "occ",
				"energy": -0.25206,
				"method": "rhf"
			},
			{
				"type": "occ",
				"energy": -0.21601,
				"method": "rhf"
			},
			{
				"type": "occ",
				"energy": -0.21353,
				"method": "rhf"
			},
			{
				"type": "unocc",
				"energy": -0.01022,
				"method": "rhf"
			},
			{
				"type": "unocc",
				"energy": 0.02871,
				"method": "rhf"
			},
			{
				"type": "unocc",
				"energy": 0.05366,
				"method": "rhf"
			},
			{
				"type": "unocc",
				"energy": 0.08833,
				"method": "rhf"
			},
			{
				"type": "unocc",
				"energy": 0.10305,
				"method": "rhf"
			}
		],
		"cosmo_sigma_profile": { 
			"-0.025": 0.0,
			"-0.024": 0.0,
			"-0.023": 0.0,
			"-0.022": 0.0,
			"-0.021": 0.0,
			"-0.02": 0.0,
			"-0.019": 0.0,
			"-0.018": 0.0,
			"-0.017": 0.0,
			"-0.016": 0.0,
			"-0.015": 0.0,
			"-0.014": 0.0,
			"-0.013": 0.0,
			"-0.012": 0.0,
			"-0.011": 0.63203730956,
			"-0.01": 2.74336328914,
			"-0.009": 2.91860036104,
			"-0.008": 2.60058657907,
			"-0.007": 3.63448655806,
			"-0.006": 10.0737391789,
			"-0.005": 17.5552319021,
			"-0.004": 20.0378632633,
			"-0.003": 23.9495257842,
			"-0.002": 18.3758343343,
			"-0.001": 9.29653775017,
			"0.0": 9.52334896832,
			"0.001": 9.16502848197,
			"0.002": 10.3474262556,
			"0.003": 10.1398538842,
			"0.004": 9.24690317061,
			"0.005": 12.5423398602,
			"0.006": 11.5036799144,
			"0.007": 5.61857301058,
			"0.008": 1.72763142306,
			"0.009": 2.25187344086,
			"0.01": 1.78538317453,
			"0.011": 2.55331625121,
			"0.012": 1.18808734991,
			"0.013": 1.21713665526,
			"0.014": 1.44187240822,
			"0.015": 0.788503485083,
			"0.016": 1.07092248726,
			"0.017": 0.953992895331,
			"0.018": 0.50774634347,
			"0.019": 0.0,
			"0.02": 0.0,
			"0.021": 0.0,
			"0.022": 0.0,
			"0.023": 0.0,
			"0.024": 0.0,
			"0.025": 0.0
		}
	}
}
