{
	 "smiles": "CC(C)COC(=O)CCCCC(=O)OCC(C)C", 
	 "Tm": 253.15, 
	 "num_atms": 44, 
	 "gaussian": { 
		 "optdone": 1, 
		 "sigma_profile": "yes", 
		 "theory": "DFT", 
		 "functional": "B3LYP", 
		 "basiset": "6-31G**", 
		 "properties": { 
			 "R2extent": 10593.3634, 
			 "electric_dipole_moment_norm": 3.90648447328, 
			 "electric_quadrupole_moment_norm": 16.455777036, 
			 "total_energy": -850.117018937, 
			 "HOMO_LUMO_gap": 0.27262, 
			 "cosmo_polarized_energy": -12.16, 
			 "cosmo_cavitation_energy": 46.54, 
			 "cosmo_dispersion_energy": -31.55, 
			 "cosmo_repulsion_energy": 2.57, 
			 "cosmo_total_nonelectrostatic_energy": 17.56, 
			 "SMD_solvation_energy": 9.32 
		},
		"coords": [
			{
				"x": 0.2628037014,
				"y": 6.0304284796,
				"z": -2.3742864411,
				"element": "C" 
			},
			{
				"x": -0.3066135902,
				"y": 4.9783640765,
				"z": -1.4110534829,
				"element": "C" 
			},
			{
				"x": -0.6690961857,
				"y": 3.6808796104,
				"z": -2.1462574689,
				"element": "C" 
			},
			{
				"x": 0.6900720989,
				"y": 4.7301055165,
				"z": -0.2817991505,
				"element": "C" 
			},
			{
				"x": 0.0762703495,
				"y": 3.8519004045,
				"z": 0.6872578046,
				"element": "O" 
			},
			{
				"x": 0.8433841524,
				"y": 3.5196707868,
				"z": 1.7534580715,
				"element": "C" 
			},
			{
				"x": 1.9768486575,
				"y": 3.9207785705,
				"z": 1.9075466033,
				"element": "O" 
			},
			{
				"x": 0.096780323,
				"y": 2.6096104041,
				"z": 2.7087770821,
				"element": "C" 
			},
			{
				"x": -0.4127266286,
				"y": 1.3107238049,
				"z": 2.0598074824,
				"element": "C" 
			},
			{
				"x": -1.1595636109,
				"y": 0.4197255202,
				"z": 3.060757731,
				"element": "C" 
			},
			{
				"x": -1.6990725643,
				"y": -0.8735392305,
				"z": 2.4420057614,
				"element": "C" 
			},
			{
				"x": -0.6101683204,
				"y": -1.8679725631,
				"z": 2.079269755,
				"element": "C" 
			},
			{
				"x": 0.5469866438,
				"y": -1.8086896407,
				"z": 2.4390513455,
				"element": "O" 
			},
			{
				"x": -1.1023307796,
				"y": -2.8628425516,
				"z": 1.3095938621,
				"element": "O" 
			},
			{
				"x": -0.1655944285,
				"y": -3.8976639016,
				"z": 0.9314288568,
				"element": "C" 
			},
			{
				"x": -0.9102025825,
				"y": -4.9413600052,
				"z": 0.1031393311,
				"element": "C" 
			},
			{
				"x": 0.0887219618,
				"y": -5.9775232085,
				"z": -0.4327103437,
				"element": "C" 
			},
			{
				"x": -2.0359334969,
				"y": -5.606154297,
				"z": 0.9070935998,
				"element": "C" 
			},
			{
				"x": -0.4487888202,
				"y": 6.2460733701,
				"z": -3.1774683942,
				"element": "H" 
			},
			{
				"x": 0.4839944992,
				"y": 6.9723883541,
				"z": -1.8608011961,
				"element": "H" 
			},
			{
				"x": 1.1903189335,
				"y": 5.6772804034,
				"z": -2.8407835378,
				"element": "H" 
			},
			{
				"x": -1.219718568,
				"y": 5.3850420623,
				"z": -0.9545495271,
				"element": "H" 
			},
			{
				"x": -1.0731205888,
				"y": 2.935296898,
				"z": -1.4564306465,
				"element": "H" 
			},
			{
				"x": -1.4173201802,
				"y": 3.8683721014,
				"z": -2.9234779939,
				"element": "H" 
			},
			{
				"x": 0.2146742525,
				"y": 3.2485314563,
				"z": -2.6315110692,
				"element": "H" 
			},
			{
				"x": 1.610607964,
				"y": 4.2645217627,
				"z": -0.6530609124,
				"element": "H" 
			},
			{
				"x": 0.9725833795,
				"y": 5.6628069992,
				"z": 0.2180310319,
				"element": "H" 
			},
			{
				"x": -0.7543777921,
				"y": 3.1730383785,
				"z": 3.1136923777,
				"element": "H" 
			},
			{
				"x": 0.7772915223,
				"y": 2.3916175489,
				"z": 3.5357163859,
				"element": "H" 
			},
			{
				"x": -1.0735455161,
				"y": 1.5639052775,
				"z": 1.2226329084,
				"element": "H" 
			},
			{
				"x": 0.4359210553,
				"y": 0.7545723573,
				"z": 1.6468472571,
				"element": "H" 
			},
			{
				"x": -2.0015364424,
				"y": 0.9784167485,
				"z": 3.4888974012,
				"element": "H" 
			},
			{
				"x": -0.4915215008,
				"y": 0.1619386645,
				"z": 3.8901164814,
				"element": "H" 
			},
			{
				"x": -2.3720983235,
				"y": -1.3841617533,
				"z": 3.1433082526,
				"element": "H" 
			},
			{
				"x": -2.2997199331,
				"y": -0.6749444705,
				"z": 1.5467835746,
				"element": "H" 
			},
			{
				"x": 0.2658155961,
				"y": -4.3367170246,
				"z": 1.8386231192,
				"element": "H" 
			},
			{
				"x": 0.6527140272,
				"y": -3.4408328454,
				"z": 0.3649125527,
				"element": "H" 
			},
			{
				"x": -1.3581419435,
				"y": -4.4172395445,
				"z": -0.7524899819,
				"element": "H" 
			},
			{
				"x": 0.5781537622,
				"y": -6.5153076212,
				"z": 0.3881540023,
				"element": "H" 
			},
			{
				"x": 0.8710885231,
				"y": -5.5100065134,
				"z": -1.0403466243,
				"element": "H" 
			},
			{
				"x": -0.4202146869,
				"y": -6.7195917629,
				"z": -1.0557151326,
				"element": "H" 
			},
			{
				"x": -2.5908320014,
				"y": -6.3175762226,
				"z": 0.286796388,
				"element": "H" 
			},
			{
				"x": -1.6292843094,
				"y": -6.1575007912,
				"z": 1.7639412409,
				"element": "H" 
			},
			{
				"x": -2.7410086096,
				"y": -4.8625656089,
				"z": 1.2878016424,
				"element": "H" 
			}
		],
		 "valence_orbital": [ 
			{
				"type": "occ",
				"energy": -0.32531,
				"method": "rhf"
			},
			{
				"type": "occ",
				"energy": -0.29817,
				"method": "rhf"
			},
			{
				"type": "occ",
				"energy": -0.29243,
				"method": "rhf"
			},
			{
				"type": "occ",
				"energy": -0.2698,
				"method": "rhf"
			},
			{
				"type": "occ",
				"energy": -0.25954,
				"method": "rhf"
			},
			{
				"type": "unocc",
				"energy": 0.01308,
				"method": "rhf"
			},
			{
				"type": "unocc",
				"energy": 0.01821,
				"method": "rhf"
			},
			{
				"type": "unocc",
				"energy": 0.08183,
				"method": "rhf"
			},
			{
				"type": "unocc",
				"energy": 0.08413,
				"method": "rhf"
			},
			{
				"type": "unocc",
				"energy": 0.09303,
				"method": "rhf"
			}
		],
		"cosmo_sigma_profile": { 
			"-0.025": 0.0,
			"-0.024": 0.0,
			"-0.023": 0.0,
			"-0.022": 0.0,
			"-0.021": 0.0,
			"-0.02": 0.0,
			"-0.019": 0.0,
			"-0.018": 0.0,
			"-0.017": 0.0,
			"-0.016": 0.0,
			"-0.015": 0.0,
			"-0.014": 0.0,
			"-0.013": 0.0,
			"-0.012": 0.0,
			"-0.011": 0.0,
			"-0.01": 0.0,
			"-0.009": 0.0,
			"-0.008": 0.0,
			"-0.007": 0.0590318814666,
			"-0.006": 2.97631122494,
			"-0.005": 11.9373617667,
			"-0.004": 27.6108328136,
			"-0.003": 56.5645063009,
			"-0.002": 59.6723842684,
			"-0.001": 46.6246495673,
			"0.0": 37.8461139421,
			"0.001": 39.5380906755,
			"0.002": 16.6562174582,
			"0.003": 9.02855387116,
			"0.004": 7.71978716174,
			"0.005": 4.71041846703,
			"0.006": 5.65334935897,
			"0.007": 4.80881467,
			"0.008": 4.19980116962,
			"0.009": 2.86517122512,
			"0.01": 3.83473240094,
			"0.011": 4.65025128995,
			"0.012": 9.08119086707,
			"0.013": 3.45197092234,
			"0.014": 0.202344249906,
			"0.015": 0.0,
			"0.016": 0.0,
			"0.017": 0.0,
			"0.018": 0.0,
			"0.019": 0.0,
			"0.02": 0.0,
			"0.021": 0.0,
			"0.022": 0.0,
			"0.023": 0.0,
			"0.024": 0.0,
			"0.025": 0.0
		}
	}
}
