{
	 "smiles": "CC1=CNC(=O)N1C1=CC(=CC=C1)C#N", 
	 "Tm": 463.15, 
	 "num_atms": 24, 
	 "gaussian": { 
		 "optdone": 1, 
		 "sigma_profile": "yes", 
		 "theory": "DFT", 
		 "functional": "B3LYP", 
		 "basiset": "6-31G**", 
		 "properties": { 
			 "R2extent": 3457.5255, 
			 "electric_dipole_moment_norm": 7.86911318066, 
			 "electric_quadrupole_moment_norm": 17.8605693728, 
			 "total_energy": -664.070025535, 
			 "HOMO_LUMO_gap": 0.15201, 
			 "cosmo_polarized_energy": -19.0, 
			 "cosmo_cavitation_energy": 29.51, 
			 "cosmo_dispersion_energy": -20.75, 
			 "cosmo_repulsion_energy": 1.62, 
			 "cosmo_total_nonelectrostatic_energy": 10.38, 
			 "SMD_solvation_energy": 7.55 
		},
		"coords": [
			{
				"x": 0.0879743882,
				"y": -3.4836254814,
				"z": 1.1574450687,
				"element": "C" 
			},
			{
				"x": -0.5121920045,
				"y": -2.178749381,
				"z": 1.5641880814,
				"element": "C" 
			},
			{
				"x": -1.4848389696,
				"y": -1.9433098672,
				"z": 2.4734960795,
				"element": "C" 
			},
			{
				"x": -1.7868823996,
				"y": -0.5825418314,
				"z": 2.4494246677,
				"element": "N" 
			},
			{
				"x": -1.0313788103,
				"y": 0.0805786298,
				"z": 1.5020802759,
				"element": "C" 
			},
			{
				"x": -1.05835112,
				"y": 1.2644418577,
				"z": 1.2020021922,
				"element": "O" 
			},
			{
				"x": -0.2104943467,
				"y": -0.9339590416,
				"z": 0.959030822,
				"element": "N" 
			},
			{
				"x": 0.7679708281,
				"y": -0.6634357498,
				"z": -0.0292873606,
				"element": "C" 
			},
			{
				"x": 0.4404413825,
				"y": 0.1558897917,
				"z": -1.1152690364,
				"element": "C" 
			},
			{
				"x": 1.4080701113,
				"y": 0.4292057195,
				"z": -2.0916834104,
				"element": "C" 
			},
			{
				"x": 2.6988147328,
				"y": -0.1186357269,
				"z": -1.9956652442,
				"element": "C" 
			},
			{
				"x": 3.0145911409,
				"y": -0.9229121974,
				"z": -0.9053784454,
				"element": "C" 
			},
			{
				"x": 2.0639831906,
				"y": -1.1846510931,
				"z": 0.0817845499,
				"element": "C" 
			},
			{
				"x": 1.0714654116,
				"y": 1.2635825428,
				"z": -3.2102221648,
				"element": "C" 
			},
			{
				"x": 0.8072517041,
				"y": 1.9322673772,
				"z": -4.1244392473,
				"element": "N" 
			},
			{
				"x": 0.048550083,
				"y": -3.6231420451,
				"z": 0.0714885593,
				"element": "H" 
			},
			{
				"x": 1.1343540533,
				"y": -3.5945698379,
				"z": 1.4623473603,
				"element": "H" 
			},
			{
				"x": -0.4776716004,
				"y": -4.2952597358,
				"z": 1.6220334731,
				"element": "H" 
			},
			{
				"x": -2.0026655917,
				"y": -2.6381682892,
				"z": 3.1150478221,
				"element": "H" 
			},
			{
				"x": -2.4845464847,
				"y": -0.1038456791,
				"z": 2.9945481139,
				"element": "H" 
			},
			{
				"x": -0.5482282452,
				"y": 0.5891954304,
				"z": -1.1876555967,
				"element": "H" 
			},
			{
				"x": 3.4345378915,
				"y": 0.0969005332,
				"z": -2.7624934149,
				"element": "H" 
			},
			{
				"x": 4.0133502865,
				"y": -1.3372536557,
				"z": -0.8106000878,
				"element": "H" 
			},
			{
				"x": 2.3334943685,
				"y": -1.7749022697,
				"z": 0.9497769425,
				"element": "H" 
			}
		],
		 "valence_orbital": [ 
			{
				"type": "occ",
				"energy": -0.31929,
				"method": "rhf"
			},
			{
				"type": "occ",
				"energy": -0.27352,
				"method": "rhf"
			},
			{
				"type": "occ",
				"energy": -0.26449,
				"method": "rhf"
			},
			{
				"type": "occ",
				"energy": -0.2611,
				"method": "rhf"
			},
			{
				"type": "occ",
				"energy": -0.20359,
				"method": "rhf"
			},
			{
				"type": "unocc",
				"energy": -0.05158,
				"method": "rhf"
			},
			{
				"type": "unocc",
				"energy": -0.02808,
				"method": "rhf"
			},
			{
				"type": "unocc",
				"energy": 0.02927,
				"method": "rhf"
			},
			{
				"type": "unocc",
				"energy": 0.04034,
				"method": "rhf"
			},
			{
				"type": "unocc",
				"energy": 0.05727,
				"method": "rhf"
			}
		],
		"cosmo_sigma_profile": { 
			"-0.025": 0.0,
			"-0.024": 0.0,
			"-0.023": 0.0,
			"-0.022": 0.0,
			"-0.021": 0.0,
			"-0.02": 0.0,
			"-0.019": 0.0,
			"-0.018": 0.0,
			"-0.017": 0.0,
			"-0.016": 0.893655745398,
			"-0.015": 1.60869877311,
			"-0.014": 0.930289511536,
			"-0.013": 1.12121986879,
			"-0.012": 1.28944873579,
			"-0.011": 0.702898699066,
			"-0.01": 0.88006755544,
			"-0.009": 2.20848553806,
			"-0.008": 8.10142216131,
			"-0.007": 10.2750656033,
			"-0.006": 14.3026659252,
			"-0.005": 13.9064238575,
			"-0.004": 12.8962726934,
			"-0.003": 14.0521495188,
			"-0.002": 16.0040997358,
			"-0.001": 22.7973778759,
			"0.0": 18.2232313077,
			"0.001": 18.1692845196,
			"0.002": 16.6971820377,
			"0.003": 9.90749850121,
			"0.004": 6.06288426363,
			"0.005": 5.25990692426,
			"0.006": 4.08267132518,
			"0.007": 4.07221380842,
			"0.008": 4.64047380473,
			"0.009": 5.05166827394,
			"0.01": 4.34569661853,
			"0.011": 4.15873037897,
			"0.012": 3.91217325791,
			"0.013": 4.08668510225,
			"0.014": 5.61167147486,
			"0.015": 1.34282208582,
			"0.016": 0.0,
			"0.017": 0.0,
			"0.018": 0.0,
			"0.019": 0.0,
			"0.02": 0.0,
			"0.021": 0.0,
			"0.022": 0.0,
			"0.023": 0.0,
			"0.024": 0.0,
			"0.025": 0.0
		}
	}
}
