{
	 "smiles": "CCN(CC)C1=CC=CC=C1", 
	 "Tm": 234.75, 
	 "num_atms": 26, 
	 "gaussian": { 
		 "optdone": 1, 
		 "sigma_profile": "yes", 
		 "theory": "DFT", 
		 "functional": "B3LYP", 
		 "basiset": "6-31G**", 
		 "properties": { 
			 "R2extent": 2099.5183, 
			 "electric_dipole_moment_norm": 1.96878419589, 
			 "electric_quadrupole_moment_norm": 5.04231977268, 
			 "total_energy": -444.858267057, 
			 "HOMO_LUMO_gap": 0.19156, 
			 "cosmo_polarized_energy": -5.12, 
			 "cosmo_cavitation_energy": 27.32, 
			 "cosmo_dispersion_energy": -19.73, 
			 "cosmo_repulsion_energy": 1.58, 
			 "cosmo_total_nonelectrostatic_energy": 9.17, 
			 "SMD_solvation_energy": 4.56 
		},
		"coords": [
			{
				"x": -2.4365815289,
				"y": 1.3027655948,
				"z": 0.5330371131,
				"element": "C" 
			},
			{
				"x": -1.425190653,
				"y": 0.5512878031,
				"z": 1.4106222395,
				"element": "C" 
			},
			{
				"x": -0.1154370996,
				"y": 0.376389126,
				"z": 0.7942361082,
				"element": "N" 
			},
			{
				"x": 0.8796194369,
				"y": 1.4051843486,
				"z": 1.072407665,
				"element": "C" 
			},
			{
				"x": 1.7720570061,
				"y": 1.1037561276,
				"z": 2.2850506435,
				"element": "C" 
			},
			{
				"x": 0.1708002875,
				"y": -0.7172360145,
				"z": -0.0162766533,
				"element": "C" 
			},
			{
				"x": -0.8345999035,
				"y": -1.6364317605,
				"z": -0.400306428,
				"element": "C" 
			},
			{
				"x": -0.5381232617,
				"y": -2.7308285005,
				"z": -1.2089557041,
				"element": "C" 
			},
			{
				"x": 0.7568617575,
				"y": -2.9568983704,
				"z": -1.6764133772,
				"element": "C" 
			},
			{
				"x": 1.7570157006,
				"y": -2.0562904608,
				"z": -1.3087161923,
				"element": "C" 
			},
			{
				"x": 1.4805210528,
				"y": -0.9609684168,
				"z": -0.4942543716,
				"element": "C" 
			},
			{
				"x": -2.6150852402,
				"y": 0.7723651458,
				"z": -0.4065669656,
				"element": "H" 
			},
			{
				"x": -3.3941918041,
				"y": 1.4122222669,
				"z": 1.0543179634,
				"element": "H" 
			},
			{
				"x": -2.0697437434,
				"y": 2.3045108003,
				"z": 0.2860828759,
				"element": "H" 
			},
			{
				"x": -1.2804900533,
				"y": 1.0990410992,
				"z": 2.3491717995,
				"element": "H" 
			},
			{
				"x": -1.8248624847,
				"y": -0.4268661454,
				"z": 1.6984763268,
				"element": "H" 
			},
			{
				"x": 1.4932703561,
				"y": 1.5677821079,
				"z": 0.1800088835,
				"element": "H" 
			},
			{
				"x": 0.34546427,
				"y": 2.3478762954,
				"z": 1.2393395647,
				"element": "H" 
			},
			{
				"x": 2.3317759332,
				"y": 0.1750879088,
				"z": 2.142482882,
				"element": "H" 
			},
			{
				"x": 2.4886703167,
				"y": 1.9163650135,
				"z": 2.4489465172,
				"element": "H" 
			},
			{
				"x": 1.17102082,
				"y": 0.9947628043,
				"z": 3.1938578869,
				"element": "H" 
			},
			{
				"x": -1.8597432327,
				"y": -1.4919868203,
				"z": -0.0815924993,
				"element": "H" 
			},
			{
				"x": -1.3412239673,
				"y": -3.4107749067,
				"z": -1.4818165817,
				"element": "H" 
			},
			{
				"x": 0.9801443093,
				"y": -3.8101226792,
				"z": -2.3088923019,
				"element": "H" 
			},
			{
				"x": 2.7775034454,
				"y": -2.2070950785,
				"z": -1.6516684247,
				"element": "H" 
			},
			{
				"x": 2.2957482802,
				"y": -0.3031972887,
				"z": -0.2183789695,
				"element": "H" 
			}
		],
		 "valence_orbital": [ 
			{
				"type": "occ",
				"energy": -0.34003,
				"method": "rhf"
			},
			{
				"type": "occ",
				"energy": -0.32074,
				"method": "rhf"
			},
			{
				"type": "occ",
				"energy": -0.27535,
				"method": "rhf"
			},
			{
				"type": "occ",
				"energy": -0.23543,
				"method": "rhf"
			},
			{
				"type": "occ",
				"energy": -0.17941,
				"method": "rhf"
			},
			{
				"type": "unocc",
				"energy": 0.01215,
				"method": "rhf"
			},
			{
				"type": "unocc",
				"energy": 0.02949,
				"method": "rhf"
			},
			{
				"type": "unocc",
				"energy": 0.07772,
				"method": "rhf"
			},
			{
				"type": "unocc",
				"energy": 0.10757,
				"method": "rhf"
			},
			{
				"type": "unocc",
				"energy": 0.11122,
				"method": "rhf"
			}
		],
		"cosmo_sigma_profile": { 
			"-0.025": 0.0,
			"-0.024": 0.0,
			"-0.023": 0.0,
			"-0.022": 0.0,
			"-0.021": 0.0,
			"-0.02": 0.0,
			"-0.019": 0.0,
			"-0.018": 0.0,
			"-0.017": 0.0,
			"-0.016": 0.0,
			"-0.015": 0.0,
			"-0.014": 0.0,
			"-0.013": 0.0,
			"-0.012": 0.0,
			"-0.011": 0.0,
			"-0.01": 0.0,
			"-0.009": 0.0,
			"-0.008": 0.0,
			"-0.007": 0.0,
			"-0.006": 0.161911921827,
			"-0.005": 7.55386703467,
			"-0.004": 20.8807896337,
			"-0.003": 29.6349892645,
			"-0.002": 30.8677306418,
			"-0.001": 27.6575351735,
			"0.0": 18.4393116106,
			"0.001": 21.1765871246,
			"0.002": 11.0261930408,
			"0.003": 7.76569138724,
			"0.004": 8.13685821243,
			"0.005": 9.40752330676,
			"0.006": 7.3831202918,
			"0.007": 7.66833678768,
			"0.008": 6.24284243414,
			"0.009": 0.469718448012,
			"0.01": 0.0,
			"0.011": 0.0,
			"0.012": 0.0,
			"0.013": 0.0,
			"0.014": 0.0,
			"0.015": 0.0,
			"0.016": 0.0,
			"0.017": 0.0,
			"0.018": 0.0,
			"0.019": 0.0,
			"0.02": 0.0,
			"0.021": 0.0,
			"0.022": 0.0,
			"0.023": 0.0,
			"0.024": 0.0,
			"0.025": 0.0
		}
	}
}
