{
	 "smiles": "S=C(NC1=CC=CC=C1)NC1=CC=CC=C1", 
	 "Tm": 426.15, 
	 "num_atms": 28, 
	 "gaussian": { 
		 "optdone": 1, 
		 "sigma_profile": "yes", 
		 "theory": "DFT", 
		 "functional": "B3LYP", 
		 "basiset": "6-31G**", 
		 "properties": { 
			 "R2extent": 4128.9203, 
			 "electric_dipole_moment_norm": 4.73965268242, 
			 "electric_quadrupole_moment_norm": 19.3890166857, 
			 "total_energy": -1010.31688359, 
			 "HOMO_LUMO_gap": 0.15977, 
			 "cosmo_polarized_energy": -15.14, 
			 "cosmo_cavitation_energy": 33.48, 
			 "cosmo_dispersion_energy": -23.58, 
			 "cosmo_repulsion_energy": 1.82, 
			 "cosmo_total_nonelectrostatic_energy": 11.72, 
			 "SMD_solvation_energy": 4.8 
		},
		"coords": [
			{
				"x": 1.4182020943,
				"y": -0.7627632553,
				"z": 3.7591148304,
				"element": "S" 
			},
			{
				"x": 0.858159527,
				"y": -0.6687874872,
				"z": 2.1776107096,
				"element": "C" 
			},
			{
				"x": 1.3502412738,
				"y": -1.5104182554,
				"z": 1.2120514437,
				"element": "N" 
			},
			{
				"x": 0.7181356643,
				"y": -2.07298167,
				"z": 0.0707783005,
				"element": "C" 
			},
			{
				"x": -0.6734765071,
				"y": -2.1448024583,
				"z": -0.0733994745,
				"element": "C" 
			},
			{
				"x": -1.2194459176,
				"y": -2.7553979745,
				"z": -1.2017280651,
				"element": "C" 
			},
			{
				"x": -0.397702421,
				"y": -3.312172738,
				"z": -2.1830673799,
				"element": "C" 
			},
			{
				"x": 0.9886447508,
				"y": -3.2527312114,
				"z": -2.0290560695,
				"element": "C" 
			},
			{
				"x": 1.545813903,
				"y": -2.6318489519,
				"z": -0.913398079,
				"element": "C" 
			},
			{
				"x": -0.0988144532,
				"y": 0.2510341672,
				"z": 1.8298672366,
				"element": "N" 
			},
			{
				"x": -0.3018885521,
				"y": 0.9540344241,
				"z": 0.6120411427,
				"element": "C" 
			},
			{
				"x": 0.6929578224,
				"y": 1.0927585736,
				"z": -0.3644654231,
				"element": "C" 
			},
			{
				"x": 0.4327581058,
				"y": 1.8391128519,
				"z": -1.5130703671,
				"element": "C" 
			},
			{
				"x": -0.8012527546,
				"y": 2.46524189,
				"z": -1.6960663393,
				"element": "C" 
			},
			{
				"x": -1.7854147897,
				"y": 2.3378553161,
				"z": -0.7140198879,
				"element": "C" 
			},
			{
				"x": -1.5422554292,
				"y": 1.5821984785,
				"z": 0.4307326346,
				"element": "C" 
			},
			{
				"x": 2.1480060575,
				"y": -2.0294343953,
				"z": 1.5557667463,
				"element": "H" 
			},
			{
				"x": -1.3205388273,
				"y": -1.7362755054,
				"z": 0.6931167641,
				"element": "H" 
			},
			{
				"x": -2.2995062181,
				"y": -2.8050712573,
				"z": -1.3048678616,
				"element": "H" 
			},
			{
				"x": -0.8323966734,
				"y": -3.7896039691,
				"z": -3.055711415,
				"element": "H" 
			},
			{
				"x": 1.6417981482,
				"y": -3.6844250907,
				"z": -2.7817805107,
				"element": "H" 
			},
			{
				"x": 2.6251092935,
				"y": -2.5743260928,
				"z": -0.7989371743,
				"element": "H" 
			},
			{
				"x": -0.4844058522,
				"y": 0.7008365991,
				"z": 2.6501978696,
				"element": "H" 
			},
			{
				"x": 1.6618517759,
				"y": 0.6301086015,
				"z": -0.221962127,
				"element": "H" 
			},
			{
				"x": 1.2101370317,
				"y": 1.9398543355,
				"z": -2.2648470613,
				"element": "H" 
			},
			{
				"x": -0.9926117181,
				"y": 3.0481118597,
				"z": -2.5916409172,
				"element": "H" 
			},
			{
				"x": -2.7495726027,
				"y": 2.8217893177,
				"z": -0.839596518,
				"element": "H" 
			},
			{
				"x": -2.312232732,
				"y": 1.4725038976,
				"z": 1.1899369924,
				"element": "H" 
			}
		],
		 "valence_orbital": [ 
			{
				"type": "occ",
				"energy": -0.26105,
				"method": "rhf"
			},
			{
				"type": "occ",
				"energy": -0.25717,
				"method": "rhf"
			},
			{
				"type": "occ",
				"energy": -0.23036,
				"method": "rhf"
			},
			{
				"type": "occ",
				"energy": -0.21918,
				"method": "rhf"
			},
			{
				"type": "occ",
				"energy": -0.2041,
				"method": "rhf"
			},
			{
				"type": "unocc",
				"energy": -0.04433,
				"method": "rhf"
			},
			{
				"type": "unocc",
				"energy": -0.01668,
				"method": "rhf"
			},
			{
				"type": "unocc",
				"energy": -0.01027,
				"method": "rhf"
			},
			{
				"type": "unocc",
				"energy": 0.00107,
				"method": "rhf"
			},
			{
				"type": "unocc",
				"energy": 0.02196,
				"method": "rhf"
			}
		],
		"cosmo_sigma_profile": { 
			"-0.025": 0.0,
			"-0.024": 0.0,
			"-0.023": 0.0,
			"-0.022": 0.0,
			"-0.021": 0.0,
			"-0.02": 0.0,
			"-0.019": 0.0,
			"-0.018": 0.0,
			"-0.017": 0.0,
			"-0.016": 0.0,
			"-0.015": 0.181020936112,
			"-0.014": 2.01081465824,
			"-0.013": 1.38639539899,
			"-0.012": 2.07604588913,
			"-0.011": 1.90659570487,
			"-0.01": 2.48751518221,
			"-0.009": 2.39873184679,
			"-0.008": 2.73585297308,
			"-0.007": 3.79460669232,
			"-0.006": 15.2174962431,
			"-0.005": 20.7588164934,
			"-0.004": 24.5476991471,
			"-0.003": 20.1416869345,
			"-0.002": 18.7656197641,
			"-0.001": 15.8683650644,
			"0.0": 14.6194713212,
			"0.001": 14.3071902866,
			"0.002": 13.5001644097,
			"0.003": 17.3313217322,
			"0.004": 18.0551548593,
			"0.005": 21.9007246221,
			"0.006": 8.34413393745,
			"0.007": 3.432691933,
			"0.008": 4.12769488558,
			"0.009": 5.59520330032,
			"0.01": 7.52457202436,
			"0.011": 4.73367273981,
			"0.012": 2.7712439029,
			"0.013": 0.145292683137,
			"0.014": 0.0,
			"0.015": 0.0,
			"0.016": 0.0,
			"0.017": 0.0,
			"0.018": 0.0,
			"0.019": 0.0,
			"0.02": 0.0,
			"0.021": 0.0,
			"0.022": 0.0,
			"0.023": 0.0,
			"0.024": 0.0,
			"0.025": 0.0
		}
	}
}
