{
	 "smiles": "CN1N(C(=O)C(N)=C1C)C1=C(C)C=CC(C)=C1", 
	 "Tm": 292.65, 
	 "num_atms": 34, 
	 "gaussian": { 
		 "optdone": 1, 
		 "sigma_profile": "yes", 
		 "theory": "DFT", 
		 "functional": "B3LYP", 
		 "basiset": "6-31G**", 
		 "properties": { 
			 "R2extent": 4605.7435, 
			 "electric_dipole_moment_norm": 4.05878191087, 
			 "electric_quadrupole_moment_norm": 16.5840833039, 
			 "total_energy": -745.099512058, 
			 "HOMO_LUMO_gap": 0.17507, 
			 "cosmo_polarized_energy": -14.76, 
			 "cosmo_cavitation_energy": 36.2, 
			 "cosmo_dispersion_energy": -25.09, 
			 "cosmo_repulsion_energy": 1.96, 
			 "cosmo_total_nonelectrostatic_energy": 13.07, 
			 "SMD_solvation_energy": 6.8 
		},
		"coords": [
			{
				"x": 1.26671624,
				"y": 1.0281561805,
				"z": 1.0062840935,
				"element": "C" 
			},
			{
				"x": 0.0274886846,
				"y": 0.3763093182,
				"z": 1.4529324123,
				"element": "N" 
			},
			{
				"x": -0.3087088356,
				"y": -0.7422526464,
				"z": 0.64191659,
				"element": "N" 
			},
			{
				"x": -0.7362511093,
				"y": -1.8011658516,
				"z": 1.4492976859,
				"element": "C" 
			},
			{
				"x": -1.2681644077,
				"y": -2.845247193,
				"z": 1.0752962991,
				"element": "O" 
			},
			{
				"x": -0.4729520069,
				"y": -1.3716900871,
				"z": 2.8213162661,
				"element": "C" 
			},
			{
				"x": -0.7363079813,
				"y": -2.2395554836,
				"z": 3.8818446456,
				"element": "N" 
			},
			{
				"x": -0.0040245946,
				"y": -0.0987200915,
				"z": 2.7868499954,
				"element": "C" 
			},
			{
				"x": 0.4128575731,
				"y": 0.7912907082,
				"z": 3.9124231404,
				"element": "C" 
			},
			{
				"x": -0.7667496519,
				"y": -0.5008426749,
				"z": -0.688891908,
				"element": "C" 
			},
			{
				"x": -0.4035074791,
				"y": -1.385686359,
				"z": -1.720129419,
				"element": "C" 
			},
			{
				"x": 0.477647595,
				"y": -2.5839027822,
				"z": -1.4783799538,
				"element": "C" 
			},
			{
				"x": -0.8892480133,
				"y": -1.0952378986,
				"z": -3.0023749419,
				"element": "C" 
			},
			{
				"x": -1.6733373239,
				"y": 0.0256672661,
				"z": -3.2611422883,
				"element": "C" 
			},
			{
				"x": -2.0156404806,
				"y": 0.9129327498,
				"z": -2.232116779,
				"element": "C" 
			},
			{
				"x": -2.8832311275,
				"y": 2.1207133594,
				"z": -2.5006689955,
				"element": "C" 
			},
			{
				"x": -1.5539612285,
				"y": 0.6290980081,
				"z": -0.945572197,
				"element": "C" 
			},
			{
				"x": 2.1376251617,
				"y": 0.3619559696,
				"z": 1.080107462,
				"element": "H" 
			},
			{
				"x": 1.1412145775,
				"y": 1.3471414317,
				"z": -0.0297541972,
				"element": "H" 
			},
			{
				"x": 1.4317643552,
				"y": 1.9162052664,
				"z": 1.6192771036,
				"element": "H" 
			},
			{
				"x": -1.2026274325,
				"y": -1.8107014468,
				"z": 4.6718844838,
				"element": "H" 
			},
			{
				"x": -1.2679687096,
				"y": -3.0357789313,
				"z": 3.5408774383,
				"element": "H" 
			},
			{
				"x": -0.1329981657,
				"y": 1.7419176825,
				"z": 3.9015392717,
				"element": "H" 
			},
			{
				"x": 0.2205077623,
				"y": 0.2976498891,
				"z": 4.8679467037,
				"element": "H" 
			},
			{
				"x": 1.4841509567,
				"y": 1.0251761416,
				"z": 3.8811844276,
				"element": "H" 
			},
			{
				"x": 0.797988565,
				"y": -3.0257289259,
				"z": -2.4257570541,
				"element": "H" 
			},
			{
				"x": 1.3711942965,
				"y": -2.306572601,
				"z": -0.9077347931,
				"element": "H" 
			},
			{
				"x": -0.051261522,
				"y": -3.3393607571,
				"z": -0.8898947756,
				"element": "H" 
			},
			{
				"x": -0.6258730438,
				"y": -1.7620648215,
				"z": -3.8194608388,
				"element": "H" 
			},
			{
				"x": -2.017348605,
				"y": 0.2177742563,
				"z": -4.2746379669,
				"element": "H" 
			},
			{
				"x": -3.9235743485,
				"y": 1.8292817426,
				"z": -2.6900552589,
				"element": "H" 
			},
			{
				"x": -2.5391441027,
				"y": 2.672569389,
				"z": -3.3821846569,
				"element": "H" 
			},
			{
				"x": -2.8842970684,
				"y": 2.8097211775,
				"z": -1.6513437221,
				"element": "H" 
			},
			{
				"x": -1.8025785291,
				"y": 1.2837480153,
				"z": -0.1160782729,
				"element": "H" 
			}
		],
		 "valence_orbital": [ 
			{
				"type": "occ",
				"energy": -0.26119,
				"method": "rhf"
			},
			{
				"type": "occ",
				"energy": -0.24592,
				"method": "rhf"
			},
			{
				"type": "occ",
				"energy": -0.23281,
				"method": "rhf"
			},
			{
				"type": "occ",
				"energy": -0.21416,
				"method": "rhf"
			},
			{
				"type": "occ",
				"energy": -0.18786,
				"method": "rhf"
			},
			{
				"type": "unocc",
				"energy": -0.01279,
				"method": "rhf"
			},
			{
				"type": "unocc",
				"energy": 0.00737,
				"method": "rhf"
			},
			{
				"type": "unocc",
				"energy": 0.0099,
				"method": "rhf"
			},
			{
				"type": "unocc",
				"energy": 0.07166,
				"method": "rhf"
			},
			{
				"type": "unocc",
				"energy": 0.09989,
				"method": "rhf"
			}
		],
		"cosmo_sigma_profile": { 
			"-0.025": 0.0,
			"-0.024": 0.0,
			"-0.023": 0.0,
			"-0.022": 0.0,
			"-0.021": 0.0,
			"-0.02": 0.0,
			"-0.019": 0.0,
			"-0.018": 0.0,
			"-0.017": 0.0,
			"-0.016": 0.0,
			"-0.015": 0.0,
			"-0.014": 0.0,
			"-0.013": 0.013172391239,
			"-0.012": 0.967810285956,
			"-0.011": 1.40350782384,
			"-0.01": 1.92161494462,
			"-0.009": 2.51404210795,
			"-0.008": 3.0631097701,
			"-0.007": 2.58739901144,
			"-0.006": 4.89571821739,
			"-0.005": 18.0778078936,
			"-0.004": 28.7269603699,
			"-0.003": 28.3496860402,
			"-0.002": 30.2699159625,
			"-0.001": 27.5480645945,
			"0.0": 29.1164526973,
			"0.001": 23.6867357332,
			"0.002": 14.6793335196,
			"0.003": 11.4036619044,
			"0.004": 11.6873276354,
			"0.005": 10.6118212508,
			"0.006": 8.06154455423,
			"0.007": 3.62875256073,
			"0.008": 2.79347702259,
			"0.009": 2.28683326068,
			"0.01": 2.4418647329,
			"0.011": 2.2472092938,
			"0.012": 2.4596892422,
			"0.013": 3.25660522067,
			"0.014": 4.63239309482,
			"0.015": 1.01850996301,
			"0.016": 0.751924509197,
			"0.017": 0.0,
			"0.018": 0.0,
			"0.019": 0.0,
			"0.02": 0.0,
			"0.021": 0.0,
			"0.022": 0.0,
			"0.023": 0.0,
			"0.024": 0.0,
			"0.025": 0.0
		}
	}
}
