{
	 "smiles": "CC(=O)C1=CC=C(C=C1)C1=CC=C(C=C1)C(C)=O", 
	 "Tm": 467.15, 
	 "num_atms": 32, 
	 "gaussian": { 
		 "optdone": 1, 
		 "sigma_profile": "yes", 
		 "theory": "DFT", 
		 "functional": "B3LYP", 
		 "basiset": "6-31G**", 
		 "properties": { 
			 "R2extent": 8486.1621, 
			 "electric_dipole_moment_norm": 1.41198007422, 
			 "electric_quadrupole_moment_norm": 35.9609748726, 
			 "total_energy": -768.606615072, 
			 "HOMO_LUMO_gap": 0.16397, 
			 "cosmo_polarized_energy": -14.33, 
			 "cosmo_cavitation_energy": 36.57, 
			 "cosmo_dispersion_energy": -26.21, 
			 "cosmo_repulsion_energy": 1.98, 
			 "cosmo_total_nonelectrostatic_energy": 12.34, 
			 "SMD_solvation_energy": 7.36 
		},
		"coords": [
			{
				"x": 1.135582991,
				"y": -4.0179465104,
				"z": 3.0003573892,
				"element": "C" 
			},
			{
				"x": 0.5993913375,
				"y": -2.5979280062,
				"z": 3.0696148512,
				"element": "C" 
			},
			{
				"x": 0.0997197177,
				"y": -2.1714382733,
				"z": 4.1000793957,
				"element": "O" 
			},
			{
				"x": 0.6936236097,
				"y": -1.7281965612,
				"z": 1.8522741052,
				"element": "C" 
			},
			{
				"x": 1.2548505574,
				"y": -2.1625000502,
				"z": 0.6424456645,
				"element": "C" 
			},
			{
				"x": 1.3168158048,
				"y": -1.3108727872,
				"z": -0.4570335979,
				"element": "C" 
			},
			{
				"x": 0.8195298132,
				"y": 0.0017319719,
				"z": -0.3837894767,
				"element": "C" 
			},
			{
				"x": 0.2575532641,
				"y": 0.4312775726,
				"z": 0.8337854069,
				"element": "C" 
			},
			{
				"x": 0.196494466,
				"y": -0.417747045,
				"z": 1.930412768,
				"element": "C" 
			},
			{
				"x": 0.8849984261,
				"y": 0.9071706585,
				"z": -1.5562905362,
				"element": "C" 
			},
			{
				"x": -0.1542684567,
				"y": 1.8139915595,
				"z": -1.8268150129,
				"element": "C" 
			},
			{
				"x": -0.0947861238,
				"y": 2.6635353814,
				"z": -2.9280547192,
				"element": "C" 
			},
			{
				"x": 1.0075283992,
				"y": 2.6341193854,
				"z": -3.7948187609,
				"element": "C" 
			},
			{
				"x": 2.0483431741,
				"y": 1.7307530373,
				"z": -3.5280845393,
				"element": "C" 
			},
			{
				"x": 1.9887001146,
				"y": 0.8830060517,
				"z": -2.4304030383,
				"element": "C" 
			},
			{
				"x": 1.1286704644,
				"y": 3.5235939174,
				"z": -4.9954057914,
				"element": "C" 
			},
			{
				"x": 0.0107302984,
				"y": 4.5079766367,
				"z": -5.2953878495,
				"element": "C" 
			},
			{
				"x": 2.110243776,
				"y": 3.4575599369,
				"z": -5.7203719007,
				"element": "O" 
			},
			{
				"x": 0.6192439446,
				"y": -4.5962583843,
				"z": 2.2261243088,
				"element": "H" 
			},
			{
				"x": 2.2032934777,
				"y": -4.0240204618,
				"z": 2.7546367858,
				"element": "H" 
			},
			{
				"x": 0.9846108715,
				"y": -4.495096616,
				"z": 3.9689463421,
				"element": "H" 
			},
			{
				"x": 1.6401356416,
				"y": -3.1726054994,
				"z": 0.5473759214,
				"element": "H" 
			},
			{
				"x": 1.7305823363,
				"y": -1.6751027224,
				"z": -1.3922413182,
				"element": "H" 
			},
			{
				"x": -0.1076795262,
				"y": 1.4498029219,
				"z": 0.9236465254,
				"element": "H" 
			},
			{
				"x": -0.2273626261,
				"y": -0.087252186,
				"z": 2.8728029936,
				"element": "H" 
			},
			{
				"x": -1.028553882,
				"y": 1.8336057093,
				"z": -1.1836069694,
				"element": "H" 
			},
			{
				"x": -0.9195110143,
				"y": 3.3445941648,
				"z": -3.1118238138,
				"element": "H" 
			},
			{
				"x": 2.9012946391,
				"y": 1.7213446366,
				"z": -4.1984316006,
				"element": "H" 
			},
			{
				"x": 2.8168465101,
				"y": 0.2110535468,
				"z": -2.2266303333,
				"element": "H" 
			},
			{
				"x": 0.269414236,
				"y": 5.0651915243,
				"z": -6.1960664865,
				"element": "H" 
			},
			{
				"x": -0.9407975536,
				"y": 3.9875123061,
				"z": -5.4509630179,
				"element": "H" 
			},
			{
				"x": -0.1318386884,
				"y": 5.2070441845,
				"z": -4.4638836952,
				"element": "H" 
			}
		],
		 "valence_orbital": [ 
			{
				"type": "occ",
				"energy": -0.26749,
				"method": "rhf"
			},
			{
				"type": "occ",
				"energy": -0.26631,
				"method": "rhf"
			},
			{
				"type": "occ",
				"energy": -0.25111,
				"method": "rhf"
			},
			{
				"type": "occ",
				"energy": -0.25084,
				"method": "rhf"
			},
			{
				"type": "occ",
				"energy": -0.2409,
				"method": "rhf"
			},
			{
				"type": "unocc",
				"energy": -0.07693,
				"method": "rhf"
			},
			{
				"type": "unocc",
				"energy": -0.0442,
				"method": "rhf"
			},
			{
				"type": "unocc",
				"energy": -0.01925,
				"method": "rhf"
			},
			{
				"type": "unocc",
				"energy": -0.01443,
				"method": "rhf"
			},
			{
				"type": "unocc",
				"energy": 0.02044,
				"method": "rhf"
			}
		],
		"cosmo_sigma_profile": { 
			"-0.025": 0.0,
			"-0.024": 0.0,
			"-0.023": 0.0,
			"-0.022": 0.0,
			"-0.021": 0.0,
			"-0.02": 0.0,
			"-0.019": 0.0,
			"-0.018": 0.0,
			"-0.017": 0.0,
			"-0.016": 0.0,
			"-0.015": 0.0,
			"-0.014": 0.0,
			"-0.013": 0.0,
			"-0.012": 0.0,
			"-0.011": 0.0,
			"-0.01": 0.0,
			"-0.009": 0.0,
			"-0.008": 0.0,
			"-0.007": 5.27658227572,
			"-0.006": 27.5077794895,
			"-0.005": 28.265466492,
			"-0.004": 23.3262393453,
			"-0.003": 21.4255053497,
			"-0.002": 22.4133158016,
			"-0.001": 22.6962743331,
			"0.0": 19.2709880771,
			"0.001": 19.9372483953,
			"0.002": 22.8404201204,
			"0.003": 27.5333595586,
			"0.004": 13.3526140714,
			"0.005": 3.51335193257,
			"0.006": 3.94685190559,
			"0.007": 2.67370187145,
			"0.008": 2.54625215367,
			"0.009": 4.15344344324,
			"0.01": 4.3464852152,
			"0.011": 5.44807235016,
			"0.012": 8.31606631212,
			"0.013": 3.07252554437,
			"0.014": 0.290632266826,
			"0.015": 0.0,
			"0.016": 0.0,
			"0.017": 0.0,
			"0.018": 0.0,
			"0.019": 0.0,
			"0.02": 0.0,
			"0.021": 0.0,
			"0.022": 0.0,
			"0.023": 0.0,
			"0.024": 0.0,
			"0.025": 0.0
		}
	}
}
