{
	 "smiles": "OC(=O)CCC1=CC=C(C=C1)S(=O)(=O)NC1CC1", 
	 "Tm": 447.15, 
	 "num_atms": 33, 
	 "gaussian": { 
		 "optdone": 1, 
		 "sigma_profile": "yes", 
		 "theory": "DFT", 
		 "functional": "B3LYP", 
		 "basiset": "6-31G**", 
		 "properties": { 
			 "R2extent": 6327.4779, 
			 "electric_dipole_moment_norm": 4.27015581566, 
			 "electric_quadrupole_moment_norm": 26.2096154043, 
			 "total_energy": -1220.07177905, 
			 "HOMO_LUMO_gap": 0.21748, 
			 "cosmo_polarized_energy": -20.54, 
			 "cosmo_cavitation_energy": 38.55, 
			 "cosmo_dispersion_energy": -26.21, 
			 "cosmo_repulsion_energy": 2.02, 
			 "cosmo_total_nonelectrostatic_energy": 14.37, 
			 "SMD_solvation_energy": 5.85 
		},
		"coords": [
			{
				"x": -1.2960736112,
				"y": -1.8718186464,
				"z": -3.0089815066,
				"element": "O" 
			},
			{
				"x": -1.6362354513,
				"y": -2.4835264718,
				"z": -1.843765555,
				"element": "C" 
			},
			{
				"x": -2.6761983581,
				"y": -2.2509895489,
				"z": -1.2711312273,
				"element": "O" 
			},
			{
				"x": -0.587065757,
				"y": -3.4817144714,
				"z": -1.3994782245,
				"element": "C" 
			},
			{
				"x": 0.8599432141,
				"y": -2.9367665153,
				"z": -1.4035048397,
				"element": "C" 
			},
			{
				"x": 1.0698835202,
				"y": -1.7930343306,
				"z": -0.4335238965,
				"element": "C" 
			},
			{
				"x": 0.9842321046,
				"y": -0.4620149568,
				"z": -0.8621693114,
				"element": "C" 
			},
			{
				"x": 1.1445600047,
				"y": 0.5934903308,
				"z": 0.0365540828,
				"element": "C" 
			},
			{
				"x": 1.3910168883,
				"y": 0.3089284023,
				"z": 1.3783071791,
				"element": "C" 
			},
			{
				"x": 1.4952371478,
				"y": -1.0087065841,
				"z": 1.8312169346,
				"element": "C" 
			},
			{
				"x": 1.3324808531,
				"y": -2.0492158012,
				"z": 0.9220140662,
				"element": "C" 
			},
			{
				"x": 1.6135970502,
				"y": 1.6550726091,
				"z": 2.5396498218,
				"element": "S" 
			},
			{
				"x": 1.6907422916,
				"y": 2.8979625162,
				"z": 1.762057093,
				"element": "O" 
			},
			{
				"x": 2.6642500368,
				"y": 1.2894561038,
				"z": 3.4962156739,
				"element": "O" 
			},
			{
				"x": 0.1816685199,
				"y": 1.6069377916,
				"z": 3.4556964906,
				"element": "N" 
			},
			{
				"x": -0.9482586126,
				"y": 2.3695396999,
				"z": 2.9718682878,
				"element": "C" 
			},
			{
				"x": -1.9323241498,
				"y": 1.6707190579,
				"z": 2.0661482516,
				"element": "C" 
			},
			{
				"x": -2.3007444988,
				"y": 1.9613311814,
				"z": 3.4978833726,
				"element": "C" 
			},
			{
				"x": -2.0309422721,
				"y": -1.2712191395,
				"z": -3.2193500889,
				"element": "H" 
			},
			{
				"x": -0.8780104366,
				"y": -3.8256467815,
				"z": -0.4045675456,
				"element": "H" 
			},
			{
				"x": -0.6447878671,
				"y": -4.3399956606,
				"z": -2.0810528026,
				"element": "H" 
			},
			{
				"x": 1.5296835249,
				"y": -3.7644156414,
				"z": -1.1453722281,
				"element": "H" 
			},
			{
				"x": 1.1169805699,
				"y": -2.6195519294,
				"z": -2.4179267581,
				"element": "H" 
			},
			{
				"x": 0.7903713757,
				"y": -0.250839037,
				"z": -1.9096400881,
				"element": "H" 
			},
			{
				"x": 1.0928249072,
				"y": 1.6259200217,
				"z": -0.2905520771,
				"element": "H" 
			},
			{
				"x": 1.7134705045,
				"y": -1.2086969104,
				"z": 2.8746587247,
				"element": "H" 
			},
			{
				"x": 1.4190521352,
				"y": -3.0767737078,
				"z": 1.2662518852,
				"element": "H" 
			},
			{
				"x": 0.4509174393,
				"y": 1.8241417399,
				"z": 4.4141105889,
				"element": "H" 
			},
			{
				"x": -0.7728874186,
				"y": 3.428540904,
				"z": 2.7931321758,
				"element": "H" 
			},
			{
				"x": -1.7230608555,
				"y": 0.6397166239,
				"z": 1.8036805798,
				"element": "H" 
			},
			{
				"x": -2.3930399408,
				"y": 2.25911894,
				"z": 1.2792665281,
				"element": "H" 
			},
			{
				"x": -2.3317505569,
				"y": 1.1222628463,
				"z": 4.1853996938,
				"element": "H" 
			},
			{
				"x": -3.0155323015,
				"y": 2.7505873652,
				"z": 3.7080047192,
				"element": "H" 
			}
		],
		 "valence_orbital": [ 
			{
				"type": "occ",
				"energy": -0.28779,
				"method": "rhf"
			},
			{
				"type": "occ",
				"energy": -0.28272,
				"method": "rhf"
			},
			{
				"type": "occ",
				"energy": -0.27513,
				"method": "rhf"
			},
			{
				"type": "occ",
				"energy": -0.26901,
				"method": "rhf"
			},
			{
				"type": "occ",
				"energy": -0.25576,
				"method": "rhf"
			},
			{
				"type": "unocc",
				"energy": -0.03828,
				"method": "rhf"
			},
			{
				"type": "unocc",
				"energy": -0.02172,
				"method": "rhf"
			},
			{
				"type": "unocc",
				"energy": -2e-05,
				"method": "rhf"
			},
			{
				"type": "unocc",
				"energy": 0.05859,
				"method": "rhf"
			},
			{
				"type": "unocc",
				"energy": 0.06778,
				"method": "rhf"
			}
		],
		"cosmo_sigma_profile": { 
			"-0.025": 0.0,
			"-0.024": 0.0,
			"-0.023": 0.0,
			"-0.022": 0.0,
			"-0.021": 0.0,
			"-0.02": 0.0,
			"-0.019": 0.0,
			"-0.018": 0.648623836285,
			"-0.017": 0.88096520998,
			"-0.016": 1.02884407929,
			"-0.015": 0.584958415227,
			"-0.014": 1.7036873664,
			"-0.013": 1.51911639509,
			"-0.012": 2.21440644287,
			"-0.011": 1.07247849562,
			"-0.01": 1.11105848575,
			"-0.009": 1.64646415485,
			"-0.008": 2.03170182965,
			"-0.007": 7.25285246327,
			"-0.006": 15.3155445066,
			"-0.005": 25.9612591276,
			"-0.004": 26.1711700593,
			"-0.003": 23.7848033867,
			"-0.002": 21.6899095905,
			"-0.001": 21.4457483948,
			"0.0": 21.5789900269,
			"0.001": 22.1444689573,
			"0.002": 20.2927840958,
			"0.003": 15.3705812921,
			"0.004": 8.69740307747,
			"0.005": 6.79530310096,
			"0.006": 5.62009602528,
			"0.007": 4.73156388409,
			"0.008": 6.1189760271,
			"0.009": 5.68803610524,
			"0.01": 8.81131702912,
			"0.011": 12.8895657289,
			"0.012": 8.71982864523,
			"0.013": 0.987239826093,
			"0.014": 0.000513598654863,
			"0.015": 0.0,
			"0.016": 0.0,
			"0.017": 0.0,
			"0.018": 0.0,
			"0.019": 0.0,
			"0.02": 0.0,
			"0.021": 0.0,
			"0.022": 0.0,
			"0.023": 0.0,
			"0.024": 0.0,
			"0.025": 0.0
		}
	}
}
