{
	 "smiles": "NCC1=CN=C(C=C1)C(N)=O", 
	 "Tm": 420.15, 
	 "num_atms": 20, 
	 "gaussian": { 
		 "optdone": 1, 
		 "sigma_profile": "yes", 
		 "theory": "DFT", 
		 "functional": "B3LYP", 
		 "basiset": "6-31G**", 
		 "properties": { 
			 "R2extent": 2382.8996, 
			 "electric_dipole_moment_norm": 4.26058469814, 
			 "electric_quadrupole_moment_norm": 16.9873061837, 
			 "total_energy": -511.663761358, 
			 "HOMO_LUMO_gap": 0.19539, 
			 "cosmo_polarized_energy": -14.88, 
			 "cosmo_cavitation_energy": 24.17, 
			 "cosmo_dispersion_energy": -18.14, 
			 "cosmo_repulsion_energy": 1.49, 
			 "cosmo_total_nonelectrostatic_energy": 7.52, 
			 "SMD_solvation_energy": 3.24 
		},
		"coords": [
			{
				"x": -0.3620249356,
				"y": 2.5146365038,
				"z": -2.9833946294,
				"element": "N" 
			},
			{
				"x": -0.9966975301,
				"y": 2.6502602858,
				"z": -1.6707082604,
				"element": "C" 
			},
			{
				"x": -1.001599259,
				"y": 1.3394838179,
				"z": -0.9096571897,
				"element": "C" 
			},
			{
				"x": 0.0420246072,
				"y": 0.4124103919,
				"z": -1.0508333533,
				"element": "C" 
			},
			{
				"x": 0.102844221,
				"y": -0.7422751062,
				"z": -0.3810126116,
				"element": "N" 
			},
			{
				"x": -0.8917670711,
				"y": -1.0290437926,
				"z": 0.4742121464,
				"element": "C" 
			},
			{
				"x": -1.9797412544,
				"y": -0.1816909933,
				"z": 0.6870832733,
				"element": "C" 
			},
			{
				"x": -2.0310469265,
				"y": 1.0157358521,
				"z": -0.0203897555,
				"element": "C" 
			},
			{
				"x": -0.8182282088,
				"y": -2.3349722101,
				"z": 1.2306610991,
				"element": "C" 
			},
			{
				"x": 0.2815251716,
				"y": -3.075454546,
				"z": 0.9420682752,
				"element": "N" 
			},
			{
				"x": -1.6900093653,
				"y": -2.6679187909,
				"z": 2.0277267978,
				"element": "O" 
			},
			{
				"x": -0.9472305613,
				"y": 1.9549077047,
				"z": -3.5988286832,
				"element": "H" 
			},
			{
				"x": -0.2615938341,
				"y": 3.4270552763,
				"z": -3.4188135348,
				"element": "H" 
			},
			{
				"x": -0.4114590399,
				"y": 3.3855707424,
				"z": -1.1013742272,
				"element": "H" 
			},
			{
				"x": -2.0288119699,
				"y": 3.0414942854,
				"z": -1.698068358,
				"element": "H" 
			},
			{
				"x": 0.8495297982,
				"y": 0.6236931316,
				"z": -1.7465127649,
				"element": "H" 
			},
			{
				"x": -2.7498683969,
				"y": -0.4835200642,
				"z": 1.3873895261,
				"element": "H" 
			},
			{
				"x": -2.8682977261,
				"y": 1.6971972474,
				"z": 0.1134033309,
				"element": "H" 
			},
			{
				"x": 0.4103101055,
				"y": -3.9606543396,
				"z": 1.404180787,
				"element": "H" 
			},
			{
				"x": 0.9481421756,
				"y": -2.7221153962,
				"z": 0.2714681324,
				"element": "H" 
			}
		],
		 "valence_orbital": [ 
			{
				"type": "occ",
				"energy": -0.27587,
				"method": "rhf"
			},
			{
				"type": "occ",
				"energy": -0.2608,
				"method": "rhf"
			},
			{
				"type": "occ",
				"energy": -0.2552,
				"method": "rhf"
			},
			{
				"type": "occ",
				"energy": -0.24532,
				"method": "rhf"
			},
			{
				"type": "occ",
				"energy": -0.23849,
				"method": "rhf"
			},
			{
				"type": "unocc",
				"energy": -0.0431,
				"method": "rhf"
			},
			{
				"type": "unocc",
				"energy": -0.02169,
				"method": "rhf"
			},
			{
				"type": "unocc",
				"energy": 0.06247,
				"method": "rhf"
			},
			{
				"type": "unocc",
				"energy": 0.0804,
				"method": "rhf"
			},
			{
				"type": "unocc",
				"energy": 0.10046,
				"method": "rhf"
			}
		],
		"cosmo_sigma_profile": { 
			"-0.025": 0.0,
			"-0.024": 0.0,
			"-0.023": 0.0,
			"-0.022": 0.0,
			"-0.021": 0.0,
			"-0.02": 0.0,
			"-0.019": 0.0,
			"-0.018": 0.0,
			"-0.017": 0.0,
			"-0.016": 0.0,
			"-0.015": 0.0297900320456,
			"-0.014": 0.841805515088,
			"-0.013": 1.17784228567,
			"-0.012": 1.27514546229,
			"-0.011": 2.18773787775,
			"-0.01": 3.92038671559,
			"-0.009": 4.75634627112,
			"-0.008": 4.62335156016,
			"-0.007": 6.64223922481,
			"-0.006": 8.92161042454,
			"-0.005": 11.6587636701,
			"-0.004": 12.3341912436,
			"-0.003": 13.6705431363,
			"-0.002": 10.7303033302,
			"-0.001": 10.4945532303,
			"0.0": 10.8746828514,
			"0.001": 17.6533094674,
			"0.002": 16.5855666273,
			"0.003": 9.15648439035,
			"0.004": 6.50442724841,
			"0.005": 4.68838611241,
			"0.006": 3.59332049492,
			"0.007": 3.82835078974,
			"0.008": 4.23388110384,
			"0.009": 2.89623316232,
			"0.01": 1.39108568891,
			"0.011": 2.763737275,
			"0.012": 2.38252399708,
			"0.013": 3.84252111914,
			"0.014": 6.03585712703,
			"0.015": 1.14149501202,
			"0.016": 0.369836217819,
			"0.017": 0.0252733145141,
			"0.018": 0.0,
			"0.019": 0.0,
			"0.02": 0.0,
			"0.021": 0.0,
			"0.022": 0.0,
			"0.023": 0.0,
			"0.024": 0.0,
			"0.025": 0.0
		}
	}
}
