{
	 "smiles": "BrC1=CC=CC=C1C=O", 
	 "Tm": 294.15, 
	 "num_atms": 14, 
	 "gaussian": { 
		 "optdone": 1, 
		 "sigma_profile": "yes", 
		 "theory": "DFT", 
		 "functional": "B3LYP", 
		 "basiset": "6-31G**", 
		 "properties": { 
			 "R2extent": 4411.1351, 
			 "electric_dipole_moment_norm": 3.2206982923, 
			 "electric_quadrupole_moment_norm": 6.22222916968, 
			 "total_energy": -2916.37356715, 
			 "HOMO_LUMO_gap": 0.18456, 
			 "cosmo_polarized_energy": -6.4, 
			 "cosmo_cavitation_energy": 20.72, 
			 "cosmo_dispersion_energy": -15.75, 
			 "cosmo_repulsion_energy": 1.27, 
			 "cosmo_total_nonelectrostatic_energy": 6.24, 
			 "SMD_solvation_energy": 3.63 
		},
		"coords": [
			{
				"x": 4.2172379131,
				"y": -1.6394851319,
				"z": 1.3963861584,
				"element": "Br" 
			},
			{
				"x": 2.4769493304,
				"y": -0.8351781873,
				"z": 1.4541008498,
				"element": "C" 
			},
			{
				"x": 2.3634072926,
				"y": 0.3922912471,
				"z": 2.1048745969,
				"element": "C" 
			},
			{
				"x": 1.1193759034,
				"y": 1.0196373256,
				"z": 2.1748702022,
				"element": "C" 
			},
			{
				"x": -0.0071174255,
				"y": 0.4251933439,
				"z": 1.5980955244,
				"element": "C" 
			},
			{
				"x": 0.1201931495,
				"y": -0.798010926,
				"z": 0.952726246,
				"element": "C" 
			},
			{
				"x": 1.3614635667,
				"y": -1.4517968286,
				"z": 0.8675839659,
				"element": "C" 
			},
			{
				"x": 1.4116493446,
				"y": -2.7593872974,
				"z": 0.1587388081,
				"element": "C" 
			},
			{
				"x": 0.433970914,
				"y": -3.2803223424,
				"z": -0.3447299178,
				"element": "O" 
			},
			{
				"x": 3.2397082665,
				"y": 0.8489780974,
				"z": 2.5503234461,
				"element": "H" 
			},
			{
				"x": 1.0349969773,
				"y": 1.9759398973,
				"z": 2.6827667887,
				"element": "H" 
			},
			{
				"x": -0.9737051862,
				"y": 0.9159014712,
				"z": 1.6542704537,
				"element": "H" 
			},
			{
				"x": -0.7301253436,
				"y": -1.2917945913,
				"z": 0.4925543319,
				"element": "H" 
			},
			{
				"x": 2.4043952973,
				"y": -3.2428660774,
				"z": 0.1125385457,
				"element": "H" 
			}
		],
		 "valence_orbital": [ 
			{
				"type": "occ",
				"energy": -0.32688,
				"method": "rhf"
			},
			{
				"type": "occ",
				"energy": -0.30488,
				"method": "rhf"
			},
			{
				"type": "occ",
				"energy": -0.27539,
				"method": "rhf"
			},
			{
				"type": "occ",
				"energy": -0.25894,
				"method": "rhf"
			},
			{
				"type": "occ",
				"energy": -0.25862,
				"method": "rhf"
			},
			{
				"type": "unocc",
				"energy": -0.07406,
				"method": "rhf"
			},
			{
				"type": "unocc",
				"energy": -0.02682,
				"method": "rhf"
			},
			{
				"type": "unocc",
				"energy": -0.00612,
				"method": "rhf"
			},
			{
				"type": "unocc",
				"energy": 0.02818,
				"method": "rhf"
			},
			{
				"type": "unocc",
				"energy": 0.09619,
				"method": "rhf"
			}
		],
		"cosmo_sigma_profile": { 
			"-0.025": 0.0,
			"-0.024": 0.0,
			"-0.023": 0.0,
			"-0.022": 0.0,
			"-0.021": 0.0,
			"-0.02": 0.0,
			"-0.019": 0.0,
			"-0.018": 0.0,
			"-0.017": 0.0,
			"-0.016": 0.0,
			"-0.015": 0.0,
			"-0.014": 0.0,
			"-0.013": 0.0,
			"-0.012": 0.0,
			"-0.011": 0.0,
			"-0.01": 0.0,
			"-0.009": 0.0,
			"-0.008": 1.24250220327,
			"-0.007": 6.81988768328,
			"-0.006": 10.2820084046,
			"-0.005": 11.142876732,
			"-0.004": 12.3786038589,
			"-0.003": 11.8995768541,
			"-0.002": 10.5505186572,
			"-0.001": 11.4514770094,
			"0.0": 15.9047238883,
			"0.001": 18.9603665565,
			"0.002": 21.2915548644,
			"0.003": 12.2565012236,
			"0.004": 8.33468808478,
			"0.005": 1.60942568328,
			"0.006": 1.96924366285,
			"0.007": 1.49960604181,
			"0.008": 1.7240531971,
			"0.009": 2.01715855761,
			"0.01": 3.20216187863,
			"0.011": 3.87983544907,
			"0.012": 1.70897089344,
			"0.013": 0.242715729969,
			"0.014": 0.0,
			"0.015": 0.0,
			"0.016": 0.0,
			"0.017": 0.0,
			"0.018": 0.0,
			"0.019": 0.0,
			"0.02": 0.0,
			"0.021": 0.0,
			"0.022": 0.0,
			"0.023": 0.0,
			"0.024": 0.0,
			"0.025": 0.0
		}
	}
}
