{
	 "smiles": "CC(=O)NC1=CC=C(C=C1)C(=O)C1CCNCC1", 
	 "Tm": 445.15, 
	 "num_atms": 36, 
	 "gaussian": { 
		 "optdone": 1, 
		 "sigma_profile": "yes", 
		 "theory": "DFT", 
		 "functional": "B3LYP", 
		 "basiset": "6-31G**", 
		 "properties": { 
			 "R2extent": 7709.7991, 
			 "electric_dipole_moment_norm": 3.16263388491, 
			 "electric_quadrupole_moment_norm": 22.1051861381, 
			 "total_energy": -804.298168778, 
			 "HOMO_LUMO_gap": 0.14756, 
			 "cosmo_polarized_energy": -18.94, 
			 "cosmo_cavitation_energy": 37.79, 
			 "cosmo_dispersion_energy": -27.35, 
			 "cosmo_repulsion_energy": 2.11, 
			 "cosmo_total_nonelectrostatic_energy": 12.54, 
			 "SMD_solvation_energy": 4.6 
		},
		"coords": [
			{
				"x": 1.6077547238,
				"y": -2.8784488896,
				"z": 3.7302281102,
				"element": "C" 
			},
			{
				"x": 1.9439191998,
				"y": -3.9923692209,
				"z": 2.7598243203,
				"element": "C" 
			},
			{
				"x": 2.5649723963,
				"y": -4.9856653543,
				"z": 3.1047139875,
				"element": "O" 
			},
			{
				"x": 1.5132733496,
				"y": -3.9001084237,
				"z": 1.4398582577,
				"element": "N" 
			},
			{
				"x": 0.7800315712,
				"y": -2.9364562862,
				"z": 0.7299957304,
				"element": "C" 
			},
			{
				"x": 0.8507243366,
				"y": -1.5584464912,
				"z": 0.9895082698,
				"element": "C" 
			},
			{
				"x": 0.1007029708,
				"y": -0.6630904931,
				"z": 0.2305674591,
				"element": "C" 
			},
			{
				"x": -0.7153538032,
				"y": -1.1016477303,
				"z": -0.8220457838,
				"element": "C" 
			},
			{
				"x": -0.7539019309,
				"y": -2.4803806181,
				"z": -1.095787662,
				"element": "C" 
			},
			{
				"x": -0.0279002338,
				"y": -3.3812873205,
				"z": -0.3352780723,
				"element": "C" 
			},
			{
				"x": -1.541720387,
				"y": -0.1925024738,
				"z": -1.6812058549,
				"element": "C" 
			},
			{
				"x": -2.1954818744,
				"y": -0.6598133104,
				"z": -2.6051322525,
				"element": "O" 
			},
			{
				"x": -1.5173297217,
				"y": 1.3166997876,
				"z": -1.4173173261,
				"element": "C" 
			},
			{
				"x": -2.8015164511,
				"y": 1.9998417735,
				"z": -1.9414013046,
				"element": "C" 
			},
			{
				"x": -2.552951928,
				"y": 3.4675879762,
				"z": -2.2909651136,
				"element": "C" 
			},
			{
				"x": -1.6179558592,
				"y": 3.5697732519,
				"z": -3.4244394214,
				"element": "N" 
			},
			{
				"x": -0.6118503843,
				"y": 2.4970869164,
				"z": -3.4758326357,
				"element": "C" 
			},
			{
				"x": -0.248146052,
				"y": 1.9369485289,
				"z": -2.0934768627,
				"element": "C" 
			},
			{
				"x": 1.6638765712,
				"y": -3.30001955,
				"z": 4.7341357933,
				"element": "H" 
			},
			{
				"x": 0.6184818086,
				"y": -2.4486052263,
				"z": 3.5575108913,
				"element": "H" 
			},
			{
				"x": 2.3481566205,
				"y": -2.074349868,
				"z": 3.6604110718,
				"element": "H" 
			},
			{
				"x": 1.6941621999,
				"y": -4.7677464389,
				"z": 0.9483349638,
				"element": "H" 
			},
			{
				"x": 1.5083148273,
				"y": -1.1776382807,
				"z": 1.7598304042,
				"element": "H" 
			},
			{
				"x": 0.1833510334,
				"y": 0.3941020245,
				"z": 0.4588460671,
				"element": "H" 
			},
			{
				"x": -1.3789102883,
				"y": -2.8204083,
				"z": -1.9145402734,
				"element": "H" 
			},
			{
				"x": -0.0862036164,
				"y": -4.4455617399,
				"z": -0.5483662226,
				"element": "H" 
			},
			{
				"x": -1.4433984865,
				"y": 1.4795634453,
				"z": -0.3368054829,
				"element": "H" 
			},
			{
				"x": -3.5969204174,
				"y": 1.9244467254,
				"z": -1.1924764571,
				"element": "H" 
			},
			{
				"x": -3.1505818153,
				"y": 1.4662771927,
				"z": -2.8298475788,
				"element": "H" 
			},
			{
				"x": -2.187148269,
				"y": 3.9904417489,
				"z": -1.3878093627,
				"element": "H" 
			},
			{
				"x": -3.4996124361,
				"y": 3.9501301791,
				"z": -2.5651324499,
				"element": "H" 
			},
			{
				"x": -1.1535696199,
				"y": 4.4712715706,
				"z": -3.3975106475,
				"element": "H" 
			},
			{
				"x": 0.2801633648,
				"y": 2.8827749666,
				"z": -3.9803515715,
				"element": "H" 
			},
			{
				"x": -0.9870540788,
				"y": 1.6737099022,
				"z": -4.0981574365,
				"element": "H" 
			},
			{
				"x": 0.141258815,
				"y": 2.745466041,
				"z": -1.462558688,
				"element": "H" 
			},
			{
				"x": 0.5532638645,
				"y": 1.1940239856,
				"z": -2.1798268657,
				"element": "H" 
			}
		],
		 "valence_orbital": [ 
			{
				"type": "occ",
				"energy": -0.2717,
				"method": "rhf"
			},
			{
				"type": "occ",
				"energy": -0.26395,
				"method": "rhf"
			},
			{
				"type": "occ",
				"energy": -0.24823,
				"method": "rhf"
			},
			{
				"type": "occ",
				"energy": -0.23529,
				"method": "rhf"
			},
			{
				"type": "occ",
				"energy": -0.20856,
				"method": "rhf"
			},
			{
				"type": "unocc",
				"energy": -0.061,
				"method": "rhf"
			},
			{
				"type": "unocc",
				"energy": -0.02146,
				"method": "rhf"
			},
			{
				"type": "unocc",
				"energy": 0.00617,
				"method": "rhf"
			},
			{
				"type": "unocc",
				"energy": 0.04332,
				"method": "rhf"
			},
			{
				"type": "unocc",
				"energy": 0.07032,
				"method": "rhf"
			}
		],
		"cosmo_sigma_profile": { 
			"-0.025": 0.0,
			"-0.024": 0.0,
			"-0.023": 0.0,
			"-0.022": 0.0,
			"-0.021": 0.0,
			"-0.02": 0.0,
			"-0.019": 0.0,
			"-0.018": 0.0,
			"-0.017": 0.0,
			"-0.016": 0.0,
			"-0.015": 0.138856231873,
			"-0.014": 0.962476063818,
			"-0.013": 1.01369769275,
			"-0.012": 1.50636905134,
			"-0.011": 1.2541532347,
			"-0.01": 1.40264275776,
			"-0.009": 2.63816006351,
			"-0.008": 5.35686425895,
			"-0.007": 8.04178742173,
			"-0.006": 11.2382950264,
			"-0.005": 16.0948219856,
			"-0.004": 21.2517229975,
			"-0.003": 31.2441167855,
			"-0.002": 35.43182831,
			"-0.001": 30.2652564361,
			"0.0": 21.5133864644,
			"0.001": 15.8058150353,
			"0.002": 16.7241459738,
			"0.003": 17.962394084,
			"0.004": 9.65420729153,
			"0.005": 4.01522971105,
			"0.006": 4.24077287882,
			"0.007": 4.13604088315,
			"0.008": 2.65145407058,
			"0.009": 3.56996824109,
			"0.01": 4.10595158112,
			"0.011": 5.46439803201,
			"0.012": 6.94603529639,
			"0.013": 7.27096332457,
			"0.014": 2.54389957468,
			"0.015": 0.409642817684,
			"0.016": 0.47152609014,
			"0.017": 0.429784327927,
			"0.018": 0.749864011876,
			"0.019": 0.258977005461,
			"0.02": 0.0,
			"0.021": 0.0,
			"0.022": 0.0,
			"0.023": 0.0,
			"0.024": 0.0,
			"0.025": 0.0
		}
	}
}
