{
	 "smiles": "FC1(F)C(F)(F)C(F)(F)C2(F)C(F)(F)C(F)(F)C(F)(F)C(F)(F)C2(F)C1(F)F", 
	 "Tm": 263.15, 
	 "num_atms": 28, 
	 "gaussian": { 
		 "optdone": 1, 
		 "sigma_profile": "yes", 
		 "theory": "DFT", 
		 "functional": "B3LYP", 
		 "basiset": "6-31G**", 
		 "properties": { 
			 "R2extent": 6840.2528, 
			 "electric_dipole_moment_norm": 0.208503932817, 
			 "electric_quadrupole_moment_norm": 0.651481327438, 
			 "total_energy": -2178.0751655, 
			 "HOMO_LUMO_gap": 0.30854, 
			 "cosmo_polarized_energy": -1.29, 
			 "cosmo_cavitation_energy": 34.89, 
			 "cosmo_dispersion_energy": -23.77, 
			 "cosmo_repulsion_energy": 1.39, 
			 "cosmo_total_nonelectrostatic_energy": 12.51, 
			 "SMD_solvation_energy": 11.23 
		},
		"coords": [
			{
				"x": 3.7051148229,
				"y": 0.8092789888,
				"z": 0.3380365115,
				"element": "F" 
			},
			{
				"x": 2.8811791362,
				"y": -0.2534589128,
				"z": 0.2635674395,
				"element": "C" 
			},
			{
				"x": 3.5489779875,
				"y": -1.3570896222,
				"z": 0.6567315441,
				"element": "F" 
			},
			{
				"x": 2.4335699718,
				"y": -0.4383642901,
				"z": -1.2258603731,
				"element": "C" 
			},
			{
				"x": 2.4970828309,
				"y": 0.7524157718,
				"z": -1.8614181236,
				"element": "F" 
			},
			{
				"x": 3.2653351106,
				"y": -1.3064823354,
				"z": -1.8336782935,
				"element": "F" 
			},
			{
				"x": 0.9874254547,
				"y": -0.9696909484,
				"z": -1.350253032,
				"element": "C" 
			},
			{
				"x": 0.9562226125,
				"y": -2.2028448416,
				"z": -0.7851308705,
				"element": "F" 
			},
			{
				"x": 0.6817093549,
				"y": -1.0812619218,
				"z": -2.6555350443,
				"element": "F" 
			},
			{
				"x": -0.0629286964,
				"y": -0.0351425052,
				"z": -0.6645073161,
				"element": "C" 
			},
			{
				"x": -0.3991977342,
				"y": 0.9227273887,
				"z": -1.5905906519,
				"element": "F" 
			},
			{
				"x": -1.3861848554,
				"y": -0.767216292,
				"z": -0.3355932944,
				"element": "C" 
			},
			{
				"x": -1.8245530881,
				"y": -1.4122249174,
				"z": -1.4364965787,
				"element": "F" 
			},
			{
				"x": -1.188482914,
				"y": -1.6684394248,
				"z": 0.651710575,
				"element": "F" 
			},
			{
				"x": -2.4990580753,
				"y": 0.234781526,
				"z": 0.1295955218,
				"element": "C" 
			},
			{
				"x": -3.1596523769,
				"y": 0.6902171227,
				"z": -0.9520930682,
				"element": "F" 
			},
			{
				"x": -3.3583923323,
				"y": -0.442793153,
				"z": 0.9176040926,
				"element": "F" 
			},
			{
				"x": -1.939952735,
				"y": 1.4600119968,
				"z": 0.9292250678,
				"element": "C" 
			},
			{
				"x": -1.7641219843,
				"y": 2.5004575605,
				"z": 0.0851803269,
				"element": "F" 
			},
			{
				"x": -2.8273930705,
				"y": 1.8102341849,
				"z": 1.8803763095,
				"element": "F" 
			},
			{
				"x": -0.583068304,
				"y": 1.1593030204,
				"z": 1.6057039473,
				"element": "C" 
			},
			{
				"x": -0.1708701255,
				"y": 2.2650430921,
				"z": 2.2515603013,
				"element": "F" 
			},
			{
				"x": -0.7898540146,
				"y": 0.1722634946,
				"z": 2.5134226474,
				"element": "F" 
			},
			{
				"x": 0.5215272886,
				"y": 0.7306808705,
				"z": 0.5844640681,
				"element": "C" 
			},
			{
				"x": 1.0844090521,
				"y": 1.8894908812,
				"z": 0.1064621882,
				"element": "F" 
			},
			{
				"x": 1.6835831417,
				"y": -0.0420683563,
				"z": 1.2534978161,
				"element": "C" 
			},
			{
				"x": 1.2588734283,
				"y": -1.255668344,
				"z": 1.6691936825,
				"element": "F" 
			},
			{
				"x": 2.1279001136,
				"y": 0.6556399661,
				"z": 2.3193246067,
				"element": "F" 
			}
		],
		 "valence_orbital": [ 
			{
				"type": "occ",
				"energy": -0.40535,
				"method": "rhf"
			},
			{
				"type": "occ",
				"energy": -0.39246,
				"method": "rhf"
			},
			{
				"type": "occ",
				"energy": -0.37119,
				"method": "rhf"
			},
			{
				"type": "occ",
				"energy": -0.35627,
				"method": "rhf"
			},
			{
				"type": "occ",
				"energy": -0.35367,
				"method": "rhf"
			},
			{
				"type": "unocc",
				"energy": -0.04513,
				"method": "rhf"
			},
			{
				"type": "unocc",
				"energy": 0.00773,
				"method": "rhf"
			},
			{
				"type": "unocc",
				"energy": 0.02404,
				"method": "rhf"
			},
			{
				"type": "unocc",
				"energy": 0.03332,
				"method": "rhf"
			},
			{
				"type": "unocc",
				"energy": 0.04338,
				"method": "rhf"
			}
		],
		"cosmo_sigma_profile": { 
			"-0.025": 0.0,
			"-0.024": 0.0,
			"-0.023": 0.0,
			"-0.022": 0.0,
			"-0.021": 0.0,
			"-0.02": 0.0,
			"-0.019": 0.0,
			"-0.018": 0.0,
			"-0.017": 0.0,
			"-0.016": 0.0,
			"-0.015": 0.0,
			"-0.014": 0.0,
			"-0.013": 0.0,
			"-0.012": 0.0,
			"-0.011": 0.0,
			"-0.01": 0.0,
			"-0.009": 0.0,
			"-0.008": 0.0,
			"-0.007": 0.123742828694,
			"-0.006": 1.44581736419,
			"-0.005": 2.72417678586,
			"-0.004": 3.98077937677,
			"-0.003": 6.72674620295,
			"-0.002": 14.9474006698,
			"-0.001": 37.0852111659,
			"0.0": 91.8691175466,
			"0.001": 117.212454154,
			"0.002": 4.86063615713,
			"0.003": 0.0,
			"0.004": 0.0,
			"0.005": 0.0,
			"0.006": 0.0,
			"0.007": 0.0,
			"0.008": 0.0,
			"0.009": 0.0,
			"0.01": 0.0,
			"0.011": 0.0,
			"0.012": 0.0,
			"0.013": 0.0,
			"0.014": 0.0,
			"0.015": 0.0,
			"0.016": 0.0,
			"0.017": 0.0,
			"0.018": 0.0,
			"0.019": 0.0,
			"0.02": 0.0,
			"0.021": 0.0,
			"0.022": 0.0,
			"0.023": 0.0,
			"0.024": 0.0,
			"0.025": 0.0
		}
	}
}
