{
	 "smiles": "ClC1=CC=C(C=C1)C(=O)C1=CC2=C(OCO2)C=C1", 
	 "Tm": 402.15, 
	 "num_atms": 27, 
	 "gaussian": { 
		 "optdone": 1, 
		 "sigma_profile": "yes", 
		 "theory": "DFT", 
		 "functional": "B3LYP", 
		 "basiset": "6-31G**", 
		 "properties": { 
			 "R2extent": 6889.8184, 
			 "electric_dipole_moment_norm": 3.59808241429, 
			 "electric_quadrupole_moment_norm": 11.7897764207, 
			 "total_energy": -1224.75308809, 
			 "HOMO_LUMO_gap": 0.15298, 
			 "cosmo_polarized_energy": -11.0, 
			 "cosmo_cavitation_energy": 33.76, 
			 "cosmo_dispersion_energy": -25.15, 
			 "cosmo_repulsion_energy": 1.93, 
			 "cosmo_total_nonelectrostatic_energy": 10.54, 
			 "SMD_solvation_energy": 6.49 
		},
		"coords": [
			{
				"x": 2.2934644151,
				"y": -3.9141314383,
				"z": 3.2668684763,
				"element": "Cl" 
			},
			{
				"x": 1.788584421,
				"y": -2.8690982478,
				"z": 1.9499613541,
				"element": "C" 
			},
			{
				"x": 0.4529235994,
				"y": -2.479792054,
				"z": 1.8592811022,
				"element": "C" 
			},
			{
				"x": 0.0609282997,
				"y": -1.6381379129,
				"z": 0.8185442931,
				"element": "C" 
			},
			{
				"x": 0.9893523988,
				"y": -1.1940970638,
				"z": -0.1347333603,
				"element": "C" 
			},
			{
				"x": 2.3212279204,
				"y": -1.6265838835,
				"z": -0.0349560788,
				"element": "C" 
			},
			{
				"x": 2.7312040093,
				"y": -2.4495159576,
				"z": 1.0081744929,
				"element": "C" 
			},
			{
				"x": 0.6169204139,
				"y": -0.3539838333,
				"z": -1.3237567743,
				"element": "C" 
			},
			{
				"x": 1.2527877007,
				"y": -0.4801124082,
				"z": -2.3659696952,
				"element": "O" 
			},
			{
				"x": -0.5143454481,
				"y": 0.6211886506,
				"z": -1.244376289,
				"element": "C" 
			},
			{
				"x": -0.9140849201,
				"y": 1.2252063356,
				"z": -0.0263251558,
				"element": "C" 
			},
			{
				"x": -1.928466256,
				"y": 2.1553829488,
				"z": -0.0918318362,
				"element": "C" 
			},
			{
				"x": -2.5501634364,
				"y": 2.4927379072,
				"z": -1.2935156813,
				"element": "C" 
			},
			{
				"x": -3.5238609167,
				"y": 3.425353352,
				"z": -1.0663062576,
				"element": "O" 
			},
			{
				"x": -3.4472299417,
				"y": 3.7497800619,
				"z": 0.3304416844,
				"element": "C" 
			},
			{
				"x": -2.4914218805,
				"y": 2.8732519166,
				"z": 0.9361741307,
				"element": "O" 
			},
			{
				"x": -2.1748555051,
				"y": 1.9204715256,
				"z": -2.4964567954,
				"element": "C" 
			},
			{
				"x": -1.134015327,
				"y": 0.9844792456,
				"z": -2.4501234001,
				"element": "C" 
			},
			{
				"x": -0.2674570588,
				"y": -2.8333551997,
				"z": 2.5884413402,
				"element": "H" 
			},
			{
				"x": -0.9816653579,
				"y": -1.3500684269,
				"z": 0.7381712038,
				"element": "H" 
			},
			{
				"x": 3.0268814996,
				"y": -1.3070192466,
				"z": -0.7943689644,
				"element": "H" 
			},
			{
				"x": 3.763426572,
				"y": -2.7707352707,
				"z": 1.0926531002,
				"element": "H" 
			},
			{
				"x": -0.4299255605,
				"y": 0.9950192189,
				"z": 0.914474514,
				"element": "H" 
			},
			{
				"x": -4.4287525429,
				"y": 3.5985895966,
				"z": 0.7922053628,
				"element": "H" 
			},
			{
				"x": -3.1184535849,
				"y": 4.7911878812,
				"z": 0.443591316,
				"element": "H" 
			},
			{
				"x": -2.6616825457,
				"y": 2.192132135,
				"z": -3.4260678625,
				"element": "H" 
			},
			{
				"x": -0.7782209674,
				"y": 0.5186501679,
				"z": -3.3620942197,
				"element": "H" 
			}
		],
		 "valence_orbital": [ 
			{
				"type": "occ",
				"energy": -0.27167,
				"method": "rhf"
			},
			{
				"type": "occ",
				"energy": -0.26111,
				"method": "rhf"
			},
			{
				"type": "occ",
				"energy": -0.25917,
				"method": "rhf"
			},
			{
				"type": "occ",
				"energy": -0.24773,
				"method": "rhf"
			},
			{
				"type": "occ",
				"energy": -0.21957,
				"method": "rhf"
			},
			{
				"type": "unocc",
				"energy": -0.06659,
				"method": "rhf"
			},
			{
				"type": "unocc",
				"energy": -0.02354,
				"method": "rhf"
			},
			{
				"type": "unocc",
				"energy": -0.01658,
				"method": "rhf"
			},
			{
				"type": "unocc",
				"energy": -0.007,
				"method": "rhf"
			},
			{
				"type": "unocc",
				"energy": 0.02571,
				"method": "rhf"
			}
		],
		"cosmo_sigma_profile": { 
			"-0.025": 0.0,
			"-0.024": 0.0,
			"-0.023": 0.0,
			"-0.022": 0.0,
			"-0.021": 0.0,
			"-0.02": 0.0,
			"-0.019": 0.0,
			"-0.018": 0.0,
			"-0.017": 0.0,
			"-0.016": 0.0,
			"-0.015": 0.0,
			"-0.014": 0.0,
			"-0.013": 0.0,
			"-0.012": 0.0,
			"-0.011": 0.0,
			"-0.01": 0.0,
			"-0.009": 0.224813581737,
			"-0.008": 7.08730313872,
			"-0.007": 15.0974145423,
			"-0.006": 17.5949955779,
			"-0.005": 16.8520640158,
			"-0.004": 14.6508399541,
			"-0.003": 15.5928948695,
			"-0.002": 15.5759920746,
			"-0.001": 18.2803073784,
			"0.0": 20.7018142726,
			"0.001": 28.0366210207,
			"0.002": 30.6754137063,
			"0.003": 22.1905159348,
			"0.004": 16.8461981039,
			"0.005": 7.39684776023,
			"0.006": 4.1117436196,
			"0.007": 4.81120275514,
			"0.008": 4.39538779632,
			"0.009": 4.40123273379,
			"0.01": 2.17611393885,
			"0.011": 2.58660620351,
			"0.012": 4.38959516318,
			"0.013": 0.84307259912,
			"0.014": 0.0,
			"0.015": 0.0,
			"0.016": 0.0,
			"0.017": 0.0,
			"0.018": 0.0,
			"0.019": 0.0,
			"0.02": 0.0,
			"0.021": 0.0,
			"0.022": 0.0,
			"0.023": 0.0,
			"0.024": 0.0,
			"0.025": 0.0
		}
	}
}
