{
	 "smiles": "CC(C)(C)NC1=NC=CS1", 
	 "Tm": 357.15, 
	 "num_atms": 22, 
	 "gaussian": { 
		 "optdone": 1, 
		 "sigma_profile": "yes", 
		 "theory": "DFT", 
		 "functional": "B3LYP", 
		 "basiset": "6-31G**", 
		 "properties": { 
			 "R2extent": 2059.6402, 
			 "electric_dipole_moment_norm": 1.95048897459, 
			 "electric_quadrupole_moment_norm": 6.95621183547, 
			 "total_energy": -781.666779024, 
			 "HOMO_LUMO_gap": 0.20073, 
			 "cosmo_polarized_energy": -7.3, 
			 "cosmo_cavitation_energy": 25.29, 
			 "cosmo_dispersion_energy": -18.92, 
			 "cosmo_repulsion_energy": 1.47, 
			 "cosmo_total_nonelectrostatic_energy": 7.84, 
			 "SMD_solvation_energy": 2.61 
		},
		"coords": [
			{
				"x": -2.4098098031,
				"y": -0.5092655673,
				"z": -0.3658924841,
				"element": "C" 
			},
			{
				"x": -1.1098553226,
				"y": -0.5624362182,
				"z": 0.4546822845,
				"element": "C" 
			},
			{
				"x": -0.9135357373,
				"y": -1.9955977795,
				"z": 0.982254381,
				"element": "C" 
			},
			{
				"x": -1.1874941576,
				"y": 0.443251071,
				"z": 1.6207228587,
				"element": "C" 
			},
			{
				"x": -0.0286632491,
				"y": -0.2100612014,
				"z": -0.4994506947,
				"element": "N" 
			},
			{
				"x": 1.2865180372,
				"y": 0.0598365364,
				"z": -0.2013966276,
				"element": "C" 
			},
			{
				"x": 1.9882958013,
				"y": 0.9183961099,
				"z": -0.8981559112,
				"element": "N" 
			},
			{
				"x": 3.2984547671,
				"y": 0.9406019053,
				"z": -0.4762899442,
				"element": "C" 
			},
			{
				"x": 3.6284659663,
				"y": 0.1183091137,
				"z": 0.5545314733,
				"element": "C" 
			},
			{
				"x": 2.2190891457,
				"y": -0.7932747153,
				"z": 1.0452712153,
				"element": "S" 
			},
			{
				"x": -2.364678637,
				"y": -1.2038036537,
				"z": -1.2105263856,
				"element": "H" 
			},
			{
				"x": -3.264818103,
				"y": -0.7807832961,
				"z": 0.2590562882,
				"element": "H" 
			},
			{
				"x": -2.5890570932,
				"y": 0.4996049261,
				"z": -0.7558202985,
				"element": "H" 
			},
			{
				"x": -1.78366863,
				"y": -2.2944294537,
				"z": 1.5756039763,
				"element": "H" 
			},
			{
				"x": -0.0358583048,
				"y": -2.0845641166,
				"z": 1.6276096201,
				"element": "H" 
			},
			{
				"x": -0.8008706724,
				"y": -2.6972929907,
				"z": 0.1509893928,
				"element": "H" 
			},
			{
				"x": -0.2598262109,
				"y": 0.4526606378,
				"z": 2.1997007602,
				"element": "H" 
			},
			{
				"x": -2.0057375595,
				"y": 0.1816383404,
				"z": 2.2998532727,
				"element": "H" 
			},
			{
				"x": -1.3650119881,
				"y": 1.4566792979,
				"z": 1.2463198614,
				"element": "H" 
			},
			{
				"x": -0.3275859619,
				"y": 0.4235653111,
				"z": -1.2325524998,
				"element": "H" 
			},
			{
				"x": 3.9915542203,
				"y": 1.6138872764,
				"z": -0.968449481,
				"element": "H" 
			},
			{
				"x": 4.5742934927,
				"y": -0.0025215333,
				"z": 1.061538942,
				"element": "H" 
			}
		],
		 "valence_orbital": [ 
			{
				"type": "occ",
				"energy": -0.33625,
				"method": "rhf"
			},
			{
				"type": "occ",
				"energy": -0.29526,
				"method": "rhf"
			},
			{
				"type": "occ",
				"energy": -0.2661,
				"method": "rhf"
			},
			{
				"type": "occ",
				"energy": -0.26437,
				"method": "rhf"
			},
			{
				"type": "occ",
				"energy": -0.19859,
				"method": "rhf"
			},
			{
				"type": "unocc",
				"energy": 0.00214,
				"method": "rhf"
			},
			{
				"type": "unocc",
				"energy": 0.02642,
				"method": "rhf"
			},
			{
				"type": "unocc",
				"energy": 0.0629,
				"method": "rhf"
			},
			{
				"type": "unocc",
				"energy": 0.07253,
				"method": "rhf"
			},
			{
				"type": "unocc",
				"energy": 0.10422,
				"method": "rhf"
			}
		],
		"cosmo_sigma_profile": { 
			"-0.025": 0.0,
			"-0.024": 0.0,
			"-0.023": 0.0,
			"-0.022": 0.0,
			"-0.021": 0.0,
			"-0.02": 0.0,
			"-0.019": 0.0,
			"-0.018": 0.0,
			"-0.017": 0.0,
			"-0.016": 0.0,
			"-0.015": 0.0,
			"-0.014": 0.0,
			"-0.013": 0.0,
			"-0.012": 0.277867558703,
			"-0.011": 1.07012625398,
			"-0.01": 0.946720072415,
			"-0.009": 1.21027052787,
			"-0.008": 2.72296403517,
			"-0.007": 3.8561186534,
			"-0.006": 4.61893657842,
			"-0.005": 5.69647346157,
			"-0.004": 14.1213994445,
			"-0.003": 19.8667911335,
			"-0.002": 21.8016412765,
			"-0.001": 21.4507566916,
			"0.0": 25.8273653327,
			"0.001": 20.1930277912,
			"0.002": 9.60999863844,
			"0.003": 9.9852026909,
			"0.004": 10.2771750415,
			"0.005": 9.68332795516,
			"0.006": 4.59402740468,
			"0.007": 1.82458827722,
			"0.008": 2.20725216618,
			"0.009": 1.52316505709,
			"0.01": 1.24318545862,
			"0.011": 1.30037713993,
			"0.012": 1.12638622155,
			"0.013": 1.04288674052,
			"0.014": 0.994372003445,
			"0.015": 0.848572085341,
			"0.016": 0.534059889078,
			"0.017": 0.00774741286335,
			"0.018": 0.0,
			"0.019": 0.0,
			"0.02": 0.0,
			"0.021": 0.0,
			"0.022": 0.0,
			"0.023": 0.0,
			"0.024": 0.0,
			"0.025": 0.0
		}
	}
}
