{
	 "smiles": "N#CCCSCCC#N", 
	 "Tm": 297.65, 
	 "num_atms": 17, 
	 "gaussian": { 
		 "optdone": 1, 
		 "sigma_profile": "yes", 
		 "theory": "DFT", 
		 "functional": "B3LYP", 
		 "basiset": "6-31G**", 
		 "properties": { 
			 "R2extent": 2478.7009, 
			 "electric_dipole_moment_norm": 7.97503985257, 
			 "electric_quadrupole_moment_norm": 12.6595721428, 
			 "total_energy": -741.109526782, 
			 "HOMO_LUMO_gap": 0.2497, 
			 "cosmo_polarized_energy": -22.6, 
			 "cosmo_cavitation_energy": 24.5, 
			 "cosmo_dispersion_energy": -16.62, 
			 "cosmo_repulsion_energy": 1.37, 
			 "cosmo_total_nonelectrostatic_energy": 9.25, 
			 "SMD_solvation_energy": 6.56 
		},
		"coords": [
			{
				"x": -2.7797867255,
				"y": 3.0271976965,
				"z": 1.351251726,
				"element": "N" 
			},
			{
				"x": -1.885617497,
				"y": 2.7838032785,
				"z": 0.6531193079,
				"element": "C" 
			},
			{
				"x": -0.7532242492,
				"y": 2.5102356067,
				"z": -0.2351764828,
				"element": "C" 
			},
			{
				"x": 0.6125769243,
				"y": 2.5605014178,
				"z": 0.4807980327,
				"element": "C" 
			},
			{
				"x": 0.9015152428,
				"y": 1.24791233,
				"z": 1.7228175002,
				"element": "S" 
			},
			{
				"x": 1.2999851409,
				"y": -0.1585870205,
				"z": 0.6095929408,
				"element": "C" 
			},
			{
				"x": 1.7854726394,
				"y": -1.3728187485,
				"z": 1.4217779322,
				"element": "C" 
			},
			{
				"x": 0.7428804289,
				"y": -1.9960137302,
				"z": 2.2432609963,
				"element": "C" 
			},
			{
				"x": -0.0792917416,
				"y": -2.5089002626,
				"z": 2.8813893054,
				"element": "N" 
			},
			{
				"x": -0.9072955923,
				"y": 1.5359240743,
				"z": -0.7116081488,
				"element": "H" 
			},
			{
				"x": -0.7633650969,
				"y": 3.2582747824,
				"z": -1.0384289391,
				"element": "H" 
			},
			{
				"x": 1.4116480621,
				"y": 2.5303039456,
				"z": -0.2668175333,
				"element": "H" 
			},
			{
				"x": 0.7113660956,
				"y": 3.5016594182,
				"z": 1.0275458556,
				"element": "H" 
			},
			{
				"x": 2.1028965843,
				"y": 0.1434683062,
				"z": -0.070441586,
				"element": "H" 
			},
			{
				"x": 0.4256880492,
				"y": -0.4392654847,
				"z": 0.0153788068,
				"element": "H" 
			},
			{
				"x": 2.6199167713,
				"y": -1.0841269001,
				"z": 2.0709560622,
				"element": "H" 
			},
			{
				"x": 2.1668349637,
				"y": -2.1318687097,
				"z": 0.7285842239,
				"element": "H" 
			}
		],
		 "valence_orbital": [ 
			{
				"type": "occ",
				"energy": -0.3315,
				"method": "rhf"
			},
			{
				"type": "occ",
				"energy": -0.33051,
				"method": "rhf"
			},
			{
				"type": "occ",
				"energy": -0.32767,
				"method": "rhf"
			},
			{
				"type": "occ",
				"energy": -0.32248,
				"method": "rhf"
			},
			{
				"type": "occ",
				"energy": -0.24818,
				"method": "rhf"
			},
			{
				"type": "unocc",
				"energy": 0.00152,
				"method": "rhf"
			},
			{
				"type": "unocc",
				"energy": 0.01624,
				"method": "rhf"
			},
			{
				"type": "unocc",
				"energy": 0.0301,
				"method": "rhf"
			},
			{
				"type": "unocc",
				"energy": 0.03249,
				"method": "rhf"
			},
			{
				"type": "unocc",
				"energy": 0.03867,
				"method": "rhf"
			}
		],
		"cosmo_sigma_profile": { 
			"-0.025": 0.0,
			"-0.024": 0.0,
			"-0.023": 0.0,
			"-0.022": 0.0,
			"-0.021": 0.0,
			"-0.02": 0.0,
			"-0.019": 0.0,
			"-0.018": 0.0,
			"-0.017": 0.0,
			"-0.016": 0.0,
			"-0.015": 0.0,
			"-0.014": 0.0,
			"-0.013": 0.0,
			"-0.012": 0.0,
			"-0.011": 0.0,
			"-0.01": 0.0673954805857,
			"-0.009": 6.19422479969,
			"-0.008": 15.4485454038,
			"-0.007": 26.1517392436,
			"-0.006": 19.7128312072,
			"-0.005": 13.9995810869,
			"-0.004": 8.70030829109,
			"-0.003": 6.30007167551,
			"-0.002": 4.53263355814,
			"-0.001": 4.33673860081,
			"0.0": 5.58909110584,
			"0.001": 4.03789744926,
			"0.002": 4.16832773373,
			"0.003": 5.39131972415,
			"0.004": 7.55515761046,
			"0.005": 7.83935386767,
			"0.006": 9.04627200705,
			"0.007": 8.0163736008,
			"0.008": 8.56569481029,
			"0.009": 9.45272332422,
			"0.01": 6.99618798186,
			"0.011": 6.06430401113,
			"0.012": 4.69994729183,
			"0.013": 3.93189763917,
			"0.014": 0.547391473255,
			"0.015": 0.0,
			"0.016": 0.0,
			"0.017": 0.0,
			"0.018": 0.0,
			"0.019": 0.0,
			"0.02": 0.0,
			"0.021": 0.0,
			"0.022": 0.0,
			"0.023": 0.0,
			"0.024": 0.0,
			"0.025": 0.0
		}
	}
}
