{
	 "smiles": "N=C1NC(=O)CS1", 
	 "Tm": 522.15, 
	 "num_atms": 11, 
	 "gaussian": { 
		 "optdone": 1, 
		 "sigma_profile": "yes", 
		 "theory": "DFT", 
		 "functional": "B3LYP", 
		 "basiset": "6-31G**", 
		 "properties": { 
			 "R2extent": 1244.7873, 
			 "electric_dipole_moment_norm": 1.74408421242, 
			 "electric_quadrupole_moment_norm": 5.12606195339, 
			 "total_energy": -699.651968413, 
			 "HOMO_LUMO_gap": 0.23438, 
			 "cosmo_polarized_energy": -12.05, 
			 "cosmo_cavitation_energy": 16.98, 
			 "cosmo_dispersion_energy": -13.46, 
			 "cosmo_repulsion_energy": 1.1, 
			 "cosmo_total_nonelectrostatic_energy": 4.62, 
			 "SMD_solvation_energy": 2.66 
		},
		"coords": [
			{
				"x": -1.8242453013,
				"y": 0.2278967171,
				"z": -2.1764750881,
				"element": "N" 
			},
			{
				"x": -0.6773132705,
				"y": 0.3350541846,
				"z": -1.6495149517,
				"element": "C" 
			},
			{
				"x": 0.1044156483,
				"y": 1.4756466702,
				"z": -1.8213430071,
				"element": "N" 
			},
			{
				"x": 1.3479673506,
				"y": 1.5639398072,
				"z": -1.2360709972,
				"element": "C" 
			},
			{
				"x": 2.0989242914,
				"y": 2.5117475654,
				"z": -1.3275026655,
				"element": "O" 
			},
			{
				"x": 1.6585501887,
				"y": 0.2900969529,
				"z": -0.4451683207,
				"element": "C" 
			},
			{
				"x": 0.2204846532,
				"y": -0.8349596592,
				"z": -0.6133861923,
				"element": "S" 
			},
			{
				"x": -2.268581346,
				"y": -0.6625525613,
				"z": -1.9583838089,
				"element": "H" 
			},
			{
				"x": -0.2575884253,
				"y": 2.2362702494,
				"z": -2.3828304009,
				"element": "H" 
			},
			{
				"x": 2.5642014598,
				"y": -0.1702241388,
				"z": -0.8463892918,
				"element": "H" 
			},
			{
				"x": 1.831284751,
				"y": 0.5500842124,
				"z": 0.6015647243,
				"element": "H" 
			}
		],
		 "valence_orbital": [ 
			{
				"type": "occ",
				"energy": -0.37875,
				"method": "rhf"
			},
			{
				"type": "occ",
				"energy": -0.29498,
				"method": "rhf"
			},
			{
				"type": "occ",
				"energy": -0.2811,
				"method": "rhf"
			},
			{
				"type": "occ",
				"energy": -0.27407,
				"method": "rhf"
			},
			{
				"type": "occ",
				"energy": -0.25683,
				"method": "rhf"
			},
			{
				"type": "unocc",
				"energy": -0.02245,
				"method": "rhf"
			},
			{
				"type": "unocc",
				"energy": -0.01027,
				"method": "rhf"
			},
			{
				"type": "unocc",
				"energy": 0.03304,
				"method": "rhf"
			},
			{
				"type": "unocc",
				"energy": 0.05282,
				"method": "rhf"
			},
			{
				"type": "unocc",
				"energy": 0.08525,
				"method": "rhf"
			}
		],
		"cosmo_sigma_profile": { 
			"-0.025": 0.0,
			"-0.024": 0.0,
			"-0.023": 0.0,
			"-0.022": 0.0,
			"-0.021": 0.0,
			"-0.02": 0.0,
			"-0.019": 0.0,
			"-0.018": 0.0,
			"-0.017": 0.146492712691,
			"-0.016": 1.07496367031,
			"-0.015": 1.12147983895,
			"-0.014": 0.398511097548,
			"-0.013": 0.899654872701,
			"-0.012": 2.04352981973,
			"-0.011": 2.12943334399,
			"-0.01": 2.41373572266,
			"-0.009": 4.67821038517,
			"-0.008": 7.3834333023,
			"-0.007": 6.74767733896,
			"-0.006": 7.37458423053,
			"-0.005": 8.26632417125,
			"-0.004": 5.25240029222,
			"-0.003": 5.72824754545,
			"-0.002": 6.78627683213,
			"-0.001": 6.48876189078,
			"0.0": 6.45072173897,
			"0.001": 6.15888561237,
			"0.002": 7.14483134527,
			"0.003": 5.24804740099,
			"0.004": 5.85762951456,
			"0.005": 5.32107920682,
			"0.006": 4.68125233731,
			"0.007": 2.93773518665,
			"0.008": 2.71540331655,
			"0.009": 2.0199774814,
			"0.01": 3.59687006496,
			"0.011": 5.15312563814,
			"0.012": 6.41009091604,
			"0.013": 2.20738673063,
			"0.014": 0.825972594781,
			"0.015": 1.21033525579,
			"0.016": 0.619614639379,
			"0.017": 0.0413276790227,
			"0.018": 0.0,
			"0.019": 0.0,
			"0.02": 0.0,
			"0.021": 0.0,
			"0.022": 0.0,
			"0.023": 0.0,
			"0.024": 0.0,
			"0.025": 0.0
		}
	}
}
