{
	 "smiles": "CC(=O)C1=CC=C(Cl)C=C1", 
	 "Tm": 292.15, 
	 "num_atms": 17, 
	 "gaussian": { 
		 "optdone": 1, 
		 "sigma_profile": "yes", 
		 "theory": "DFT", 
		 "functional": "B3LYP", 
		 "basiset": "6-31G**", 
		 "properties": { 
			 "R2extent": 2242.7436, 
			 "electric_dipole_moment_norm": 2.25526638116, 
			 "electric_quadrupole_moment_norm": 9.51117519921, 
			 "total_energy": -844.491209518, 
			 "HOMO_LUMO_gap": 0.19057, 
			 "cosmo_polarized_energy": -7.87, 
			 "cosmo_cavitation_energy": 23.09, 
			 "cosmo_dispersion_energy": -17.1, 
			 "cosmo_repulsion_energy": 1.38, 
			 "cosmo_total_nonelectrostatic_energy": 7.37, 
			 "SMD_solvation_energy": 4.43 
		},
		"coords": [
			{
				"x": 0.3366067685,
				"y": 3.1335098618,
				"z": -0.3877821464,
				"element": "C" 
			},
			{
				"x": 0.8840552823,
				"y": 1.9693219117,
				"z": 0.4199825632,
				"element": "C" 
			},
			{
				"x": 1.8995760802,
				"y": 2.0963847664,
				"z": 1.0870316875,
				"element": "O" 
			},
			{
				"x": 0.1567769384,
				"y": 0.6579750285,
				"z": 0.3859856299,
				"element": "C" 
			},
			{
				"x": -1.0126697431,
				"y": 0.4522838165,
				"z": -0.3602441945,
				"element": "C" 
			},
			{
				"x": -1.6521306143,
				"y": -0.7862757482,
				"z": -0.3589154473,
				"element": "C" 
			},
			{
				"x": -1.1119153167,
				"y": -1.8258198617,
				"z": 0.3982526063,
				"element": "C" 
			},
			{
				"x": -1.9102801915,
				"y": -3.3878688858,
				"z": 0.4056203682,
				"element": "Cl" 
			},
			{
				"x": 0.0520349966,
				"y": -1.647567743,
				"z": 1.1505836708,
				"element": "C" 
			},
			{
				"x": 0.6776057345,
				"y": -0.406404754,
				"z": 1.1385594058,
				"element": "C" 
			},
			{
				"x": 0.9885730051,
				"y": 3.9950735173,
				"z": -0.2424976296,
				"element": "H" 
			},
			{
				"x": 0.2933293443,
				"y": 2.8867630715,
				"z": -1.4544441989,
				"element": "H" 
			},
			{
				"x": -0.6801108865,
				"y": 3.3898290481,
				"z": -0.0698188717,
				"element": "H" 
			},
			{
				"x": -1.437367191,
				"y": 1.2572359458,
				"z": -0.9509899471,
				"element": "H" 
			},
			{
				"x": -2.5562833138,
				"y": -0.9467859225,
				"z": -0.9353134383,
				"element": "H" 
			},
			{
				"x": 0.4537382972,
				"y": -2.4702449366,
				"z": 1.7316673748,
				"element": "H" 
			},
			{
				"x": 1.5826608099,
				"y": -0.2338091158,
				"z": 1.7112225673,
				"element": "H" 
			}
		],
		 "valence_orbital": [ 
			{
				"type": "occ",
				"energy": -0.33593,
				"method": "rhf"
			},
			{
				"type": "occ",
				"energy": -0.32132,
				"method": "rhf"
			},
			{
				"type": "occ",
				"energy": -0.27493,
				"method": "rhf"
			},
			{
				"type": "occ",
				"energy": -0.25724,
				"method": "rhf"
			},
			{
				"type": "occ",
				"energy": -0.25486,
				"method": "rhf"
			},
			{
				"type": "unocc",
				"energy": -0.06429,
				"method": "rhf"
			},
			{
				"type": "unocc",
				"energy": -0.02367,
				"method": "rhf"
			},
			{
				"type": "unocc",
				"energy": 0.02211,
				"method": "rhf"
			},
			{
				"type": "unocc",
				"energy": 0.02815,
				"method": "rhf"
			},
			{
				"type": "unocc",
				"energy": 0.09338,
				"method": "rhf"
			}
		],
		"cosmo_sigma_profile": { 
			"-0.025": 0.0,
			"-0.024": 0.0,
			"-0.023": 0.0,
			"-0.022": 0.0,
			"-0.021": 0.0,
			"-0.02": 0.0,
			"-0.019": 0.0,
			"-0.018": 0.0,
			"-0.017": 0.0,
			"-0.016": 0.0,
			"-0.015": 0.0,
			"-0.014": 0.0,
			"-0.013": 0.0,
			"-0.012": 0.0,
			"-0.011": 0.0,
			"-0.01": 0.0,
			"-0.009": 0.0,
			"-0.008": 1.7061163237,
			"-0.007": 7.89596810265,
			"-0.006": 14.5299057309,
			"-0.005": 12.0260010167,
			"-0.004": 11.4805207773,
			"-0.003": 11.3446150964,
			"-0.002": 12.9565917303,
			"-0.001": 14.3875629801,
			"0.0": 14.3527003851,
			"0.001": 18.6169188662,
			"0.002": 21.3437885803,
			"0.003": 14.2408053568,
			"0.004": 11.5071091494,
			"0.005": 3.99027748725,
			"0.006": 1.58537666995,
			"0.007": 1.28967995552,
			"0.008": 1.72046255937,
			"0.009": 2.34401621303,
			"0.01": 1.60964672774,
			"0.011": 3.26057203558,
			"0.012": 3.71578266231,
			"0.013": 1.15538515674,
			"0.014": 0.0242767085506,
			"0.015": 0.0,
			"0.016": 0.0,
			"0.017": 0.0,
			"0.018": 0.0,
			"0.019": 0.0,
			"0.02": 0.0,
			"0.021": 0.0,
			"0.022": 0.0,
			"0.023": 0.0,
			"0.024": 0.0,
			"0.025": 0.0
		}
	}
}
