{
	 "smiles": "COC(=O)CC(=O)CC(=O)OC", 
	 "Tm": 289.65, 
	 "num_atms": 22, 
	 "gaussian": { 
		 "optdone": 1, 
		 "sigma_profile": "yes", 
		 "theory": "DFT", 
		 "functional": "B3LYP", 
		 "basiset": "6-31G**", 
		 "properties": { 
			 "R2extent": 2759.1983, 
			 "electric_dipole_moment_norm": 3.38638828695, 
			 "electric_quadrupole_moment_norm": 22.2268193667, 
			 "total_energy": -648.894442769, 
			 "HOMO_LUMO_gap": 0.22234, 
			 "cosmo_polarized_energy": -14.27, 
			 "cosmo_cavitation_energy": 27.43, 
			 "cosmo_dispersion_energy": -19.02, 
			 "cosmo_repulsion_energy": 1.59, 
			 "cosmo_total_nonelectrostatic_energy": 10.0, 
			 "SMD_solvation_energy": 8.78 
		},
		"coords": [
			{
				"x": 2.7579154006,
				"y": 0.8248989249,
				"z": 2.0452887224,
				"element": "C" 
			},
			{
				"x": 1.6867908247,
				"y": 0.5144884128,
				"z": 1.1335293637,
				"element": "O" 
			},
			{
				"x": 1.0354766996,
				"y": -0.647136058,
				"z": 1.3775091249,
				"element": "C" 
			},
			{
				"x": 1.3034326586,
				"y": -1.3870283688,
				"z": 2.2939502158,
				"element": "O" 
			},
			{
				"x": -0.0832550677,
				"y": -0.8764151001,
				"z": 0.3705234116,
				"element": "C" 
			},
			{
				"x": 0.308063002,
				"y": -0.5108085557,
				"z": -1.0634807603,
				"element": "C" 
			},
			{
				"x": 0.7597824953,
				"y": -1.3457272075,
				"z": -1.8177448201,
				"element": "O" 
			},
			{
				"x": 0.113546796,
				"y": 0.9374536316,
				"z": -1.519497433,
				"element": "C" 
			},
			{
				"x": -1.2793671603,
				"y": 1.2143760875,
				"z": -2.0682688736,
				"element": "C" 
			},
			{
				"x": -1.5186930667,
				"y": 1.8983165006,
				"z": -3.0347099684,
				"element": "O" 
			},
			{
				"x": -2.2325307852,
				"y": 0.6135509993,
				"z": -1.3174166323,
				"element": "O" 
			},
			{
				"x": -3.588510466,
				"y": 0.8293785959,
				"z": -1.7529726555,
				"element": "C" 
			},
			{
				"x": 3.1834838373,
				"y": 1.7626404741,
				"z": 1.6893537922,
				"element": "H" 
			},
			{
				"x": 2.3733370562,
				"y": 0.9375731392,
				"z": 3.0616867121,
				"element": "H" 
			},
			{
				"x": 3.5086953,
				"y": 0.0318070214,
				"z": 2.0352462194,
				"element": "H" 
			},
			{
				"x": -0.3434708991,
				"y": -1.9343968053,
				"z": 0.410253368,
				"element": "H" 
			},
			{
				"x": -0.9477320692,
				"y": -0.2814929832,
				"z": 0.6834151804,
				"element": "H" 
			},
			{
				"x": 0.2884145993,
				"y": 1.6184179362,
				"z": -0.6799182705,
				"element": "H" 
			},
			{
				"x": 0.8255238479,
				"y": 1.1593651701,
				"z": -2.3147635439,
				"element": "H" 
			},
			{
				"x": -3.7211662702,
				"y": 0.4729063381,
				"z": -2.7767502764,
				"element": "H" 
			},
			{
				"x": -4.2120043811,
				"y": 0.2610221048,
				"z": -1.0634867115,
				"element": "H" 
			},
			{
				"x": -3.8381323519,
				"y": 1.8922097421,
				"z": -1.7114461651,
				"element": "H" 
			}
		],
		 "valence_orbital": [ 
			{
				"type": "occ",
				"energy": -0.31706,
				"method": "rhf"
			},
			{
				"type": "occ",
				"energy": -0.3165,
				"method": "rhf"
			},
			{
				"type": "occ",
				"energy": -0.29287,
				"method": "rhf"
			},
			{
				"type": "occ",
				"energy": -0.28515,
				"method": "rhf"
			},
			{
				"type": "occ",
				"energy": -0.25647,
				"method": "rhf"
			},
			{
				"type": "unocc",
				"energy": -0.03413,
				"method": "rhf"
			},
			{
				"type": "unocc",
				"energy": -0.00435,
				"method": "rhf"
			},
			{
				"type": "unocc",
				"energy": 0.00497,
				"method": "rhf"
			},
			{
				"type": "unocc",
				"energy": 0.08521,
				"method": "rhf"
			},
			{
				"type": "unocc",
				"energy": 0.10353,
				"method": "rhf"
			}
		],
		"cosmo_sigma_profile": { 
			"-0.025": 0.0,
			"-0.024": 0.0,
			"-0.023": 0.0,
			"-0.022": 0.0,
			"-0.021": 0.0,
			"-0.02": 0.0,
			"-0.019": 0.0,
			"-0.018": 0.0,
			"-0.017": 0.0,
			"-0.016": 0.0,
			"-0.015": 0.0,
			"-0.014": 0.0,
			"-0.013": 0.0,
			"-0.012": 0.0,
			"-0.011": 0.0,
			"-0.01": 0.0,
			"-0.009": 0.351155853218,
			"-0.008": 3.84841109603,
			"-0.007": 8.45242696249,
			"-0.006": 18.2275269937,
			"-0.005": 20.8359528527,
			"-0.004": 26.5414659075,
			"-0.003": 22.7666645913,
			"-0.002": 14.324740474,
			"-0.001": 11.5175822459,
			"0.0": 9.90658261347,
			"0.001": 10.3284081977,
			"0.002": 9.21871491139,
			"0.003": 6.52574294185,
			"0.004": 4.82890724362,
			"0.005": 3.55919910429,
			"0.006": 3.52083466271,
			"0.007": 4.69058860147,
			"0.008": 4.41158663341,
			"0.009": 5.22603601368,
			"0.01": 8.75423763109,
			"0.011": 13.4601894615,
			"0.012": 5.30770685863,
			"0.013": 0.19577543533,
			"0.014": 0.0,
			"0.015": 0.0,
			"0.016": 0.0,
			"0.017": 0.0,
			"0.018": 0.0,
			"0.019": 0.0,
			"0.02": 0.0,
			"0.021": 0.0,
			"0.022": 0.0,
			"0.023": 0.0,
			"0.024": 0.0,
			"0.025": 0.0
		}
	}
}
