{
	 "smiles": "CCCCCC#CCC(O)=O", 
	 "Tm": 290.15, 
	 "num_atms": 25, 
	 "gaussian": { 
		 "optdone": 1, 
		 "sigma_profile": "yes", 
		 "theory": "DFT", 
		 "functional": "B3LYP", 
		 "basiset": "6-31G**", 
		 "properties": { 
			 "R2extent": 3494.6973, 
			 "electric_dipole_moment_norm": 1.36165951691, 
			 "electric_quadrupole_moment_norm": 9.76989635411, 
			 "total_energy": -501.802916078, 
			 "HOMO_LUMO_gap": 0.25408, 
			 "cosmo_polarized_energy": -10.65, 
			 "cosmo_cavitation_energy": 28.53, 
			 "cosmo_dispersion_energy": -19.56, 
			 "cosmo_repulsion_energy": 1.63, 
			 "cosmo_total_nonelectrostatic_energy": 10.6, 
			 "SMD_solvation_energy": 5.86 
		},
		"coords": [
			{
				"x": 0.7122293472,
				"y": -3.3126813791,
				"z": 0.4037635383,
				"element": "C" 
			},
			{
				"x": -0.2609900903,
				"y": -2.2556103034,
				"z": 0.9408969954,
				"element": "C" 
			},
			{
				"x": 0.3900713476,
				"y": -1.1788664024,
				"z": 1.8395189026,
				"element": "C" 
			},
			{
				"x": 0.8374724032,
				"y": 0.1317381176,
				"z": 1.1675284594,
				"element": "C" 
			},
			{
				"x": 1.9530686801,
				"y": 0.0309037965,
				"z": 0.0959562816,
				"element": "C" 
			},
			{
				"x": 1.4866077143,
				"y": -0.3855272616,
				"z": -1.2279407373,
				"element": "C" 
			},
			{
				"x": 1.0665725717,
				"y": -0.704334597,
				"z": -2.315685746,
				"element": "C" 
			},
			{
				"x": 0.5692232532,
				"y": -1.0993037732,
				"z": -3.626495504,
				"element": "C" 
			},
			{
				"x": -0.7732967808,
				"y": -1.8228269346,
				"z": -3.588477593,
				"element": "C" 
			},
			{
				"x": -1.1557471473,
				"y": -2.1503182432,
				"z": -4.8476404954,
				"element": "O" 
			},
			{
				"x": -1.4331444594,
				"y": -2.0862766155,
				"z": -2.6120646255,
				"element": "O" 
			},
			{
				"x": 1.4883397922,
				"y": -2.8693509271,
				"z": -0.2262090948,
				"element": "H" 
			},
			{
				"x": 0.1821644095,
				"y": -4.0511177096,
				"z": -0.2070529184,
				"element": "H" 
			},
			{
				"x": 1.2047895474,
				"y": -3.8485320757,
				"z": 1.2243318735,
				"element": "H" 
			},
			{
				"x": -0.7791984146,
				"y": -1.7836940995,
				"z": 0.0988494017,
				"element": "H" 
			},
			{
				"x": -1.0339041173,
				"y": -2.7711416958,
				"z": 1.5250437639,
				"element": "H" 
			},
			{
				"x": -0.3238835561,
				"y": -0.8933187706,
				"z": 2.6227603881,
				"element": "H" 
			},
			{
				"x": 1.2468343367,
				"y": -1.618969561,
				"z": 2.3706219855,
				"element": "H" 
			},
			{
				"x": 1.2067634337,
				"y": 0.8008804752,
				"z": 1.9550473154,
				"element": "H" 
			},
			{
				"x": -0.0298172846,
				"y": 0.6311577989,
				"z": 0.7193333041,
				"element": "H" 
			},
			{
				"x": 2.7398768777,
				"y": -0.6511286544,
				"z": 0.446032651,
				"element": "H" 
			},
			{
				"x": 2.4311692225,
				"y": 1.0144856956,
				"z": -0.0048711515,
				"element": "H" 
			},
			{
				"x": 0.45057499,
				"y": -0.2319983482,
				"z": -4.2899304475,
				"element": "H" 
			},
			{
				"x": 1.2788392327,
				"y": -1.7608048214,
				"z": -4.1414538875,
				"element": "H" 
			},
			{
				"x": -2.0100153095,
				"y": -2.6053637101,
				"z": -4.7612626599,
				"element": "H" 
			}
		],
		 "valence_orbital": [ 
			{
				"type": "occ",
				"energy": -0.31035,
				"method": "rhf"
			},
			{
				"type": "occ",
				"energy": -0.30308,
				"method": "rhf"
			},
			{
				"type": "occ",
				"energy": -0.28288,
				"method": "rhf"
			},
			{
				"type": "occ",
				"energy": -0.2496,
				"method": "rhf"
			},
			{
				"type": "occ",
				"energy": -0.2488,
				"method": "rhf"
			},
			{
				"type": "unocc",
				"energy": 0.00528,
				"method": "rhf"
			},
			{
				"type": "unocc",
				"energy": 0.04849,
				"method": "rhf"
			},
			{
				"type": "unocc",
				"energy": 0.05909,
				"method": "rhf"
			},
			{
				"type": "unocc",
				"energy": 0.0748,
				"method": "rhf"
			},
			{
				"type": "unocc",
				"energy": 0.09611,
				"method": "rhf"
			}
		],
		"cosmo_sigma_profile": { 
			"-0.025": 0.0,
			"-0.024": 0.0,
			"-0.023": 0.0,
			"-0.022": 0.0,
			"-0.021": 0.0,
			"-0.02": 0.0,
			"-0.019": 0.103287085977,
			"-0.018": 0.786436608626,
			"-0.017": 1.33521980632,
			"-0.016": 0.492497588078,
			"-0.015": 0.694548047537,
			"-0.014": 0.610732291281,
			"-0.013": 0.531860211293,
			"-0.012": 0.876943622195,
			"-0.011": 1.03759744687,
			"-0.01": 0.975695631747,
			"-0.009": 0.451316398375,
			"-0.008": 4.76955086307,
			"-0.007": 4.77806098472,
			"-0.006": 4.98565457897,
			"-0.005": 7.14663562072,
			"-0.004": 9.64174765985,
			"-0.003": 13.9088101273,
			"-0.002": 25.5590736397,
			"-0.001": 27.7424317083,
			"0.0": 24.4357330591,
			"0.001": 21.5935506493,
			"0.002": 15.5311498748,
			"0.003": 7.459317392,
			"0.004": 7.58589647045,
			"0.005": 6.94038372079,
			"0.006": 7.91375258839,
			"0.007": 7.22701822807,
			"0.008": 5.30868030841,
			"0.009": 5.05935305916,
			"0.01": 4.08901902539,
			"0.011": 2.51861654842,
			"0.012": 0.890517646797,
			"0.013": 0.0,
			"0.014": 0.0,
			"0.015": 0.0,
			"0.016": 0.0,
			"0.017": 0.0,
			"0.018": 0.0,
			"0.019": 0.0,
			"0.02": 0.0,
			"0.021": 0.0,
			"0.022": 0.0,
			"0.023": 0.0,
			"0.024": 0.0,
			"0.025": 0.0
		}
	}
}
