{
	 "smiles": "COC1=CC=C(C=C1)[N+]([O-])=O", 
	 "Tm": 327.15, 
	 "num_atms": 18, 
	 "gaussian": { 
		 "optdone": 1, 
		 "sigma_profile": "yes", 
		 "theory": "DFT", 
		 "functional": "B3LYP", 
		 "basiset": "6-31G**", 
		 "properties": { 
			 "R2extent": 2496.5218, 
			 "electric_dipole_moment_norm": 5.97415900441, 
			 "electric_quadrupole_moment_norm": 17.4577466639, 
			 "total_energy": -551.275888324, 
			 "HOMO_LUMO_gap": 0.16914, 
			 "cosmo_polarized_energy": -10.2, 
			 "cosmo_cavitation_energy": 22.87, 
			 "cosmo_dispersion_energy": -17.04, 
			 "cosmo_repulsion_energy": 1.36, 
			 "cosmo_total_nonelectrostatic_energy": 7.19, 
			 "SMD_solvation_energy": 7.12 
		},
		"coords": [
			{
				"x": -1.4115906738,
				"y": 1.4814986716,
				"z": 3.0433087855,
				"element": "C" 
			},
			{
				"x": -1.3205366705,
				"y": 0.5160443149,
				"z": 2.0013465182,
				"element": "O" 
			},
			{
				"x": -0.2670436015,
				"y": 0.5700274875,
				"z": 1.1515948013,
				"element": "C" 
			},
			{
				"x": -0.2467673038,
				"y": -0.4172558567,
				"z": 0.1482528133,
				"element": "C" 
			},
			{
				"x": 0.7849822498,
				"y": -0.4541922208,
				"z": -0.773579583,
				"element": "C" 
			},
			{
				"x": 1.8036385033,
				"y": 0.5010574868,
				"z": -0.6933520084,
				"element": "C" 
			},
			{
				"x": 1.7996805195,
				"y": 1.4844625347,
				"z": 0.2921316591,
				"element": "C" 
			},
			{
				"x": 0.7625170123,
				"y": 1.522803471,
				"z": 1.2200098857,
				"element": "C" 
			},
			{
				"x": 2.8958179441,
				"y": 0.4666227418,
				"z": -1.6646280369,
				"element": "N" 
			},
			{
				"x": 2.8708582134,
				"y": -0.4162136586,
				"z": -2.5243632611,
				"element": "O" 
			},
			{
				"x": 3.7788238181,
				"y": 1.3214282415,
				"z": -1.5680248511,
				"element": "O" 
			},
			{
				"x": -0.5544177534,
				"y": 1.4185036932,
				"z": 3.724406584,
				"element": "H" 
			},
			{
				"x": -1.4831787103,
				"y": 2.4994099135,
				"z": 2.6416431392,
				"element": "H" 
			},
			{
				"x": -2.3247838896,
				"y": 1.2442062373,
				"z": 3.5897471392,
				"element": "H" 
			},
			{
				"x": -1.0543054282,
				"y": -1.1404779456,
				"z": 0.1186928422,
				"element": "H" 
			},
			{
				"x": 0.8212808535,
				"y": -1.2041802878,
				"z": -1.5536864906,
				"element": "H" 
			},
			{
				"x": 2.6061031632,
				"y": 2.2066244643,
				"z": 0.321596327,
				"element": "H" 
			},
			{
				"x": 0.7640217537,
				"y": 2.2896307113,
				"z": 1.9845037365,
				"element": "H" 
			}
		],
		 "valence_orbital": [ 
			{
				"type": "occ",
				"energy": -0.3012,
				"method": "rhf"
			},
			{
				"type": "occ",
				"energy": -0.29949,
				"method": "rhf"
			},
			{
				"type": "occ",
				"energy": -0.28189,
				"method": "rhf"
			},
			{
				"type": "occ",
				"energy": -0.27814,
				"method": "rhf"
			},
			{
				"type": "occ",
				"energy": -0.24822,
				"method": "rhf"
			},
			{
				"type": "unocc",
				"energy": -0.07908,
				"method": "rhf"
			},
			{
				"type": "unocc",
				"energy": -0.02593,
				"method": "rhf"
			},
			{
				"type": "unocc",
				"energy": 0.01422,
				"method": "rhf"
			},
			{
				"type": "unocc",
				"energy": 0.0755,
				"method": "rhf"
			},
			{
				"type": "unocc",
				"energy": 0.09069,
				"method": "rhf"
			}
		],
		"cosmo_sigma_profile": { 
			"-0.025": 0.0,
			"-0.024": 0.0,
			"-0.023": 0.0,
			"-0.022": 0.0,
			"-0.021": 0.0,
			"-0.02": 0.0,
			"-0.019": 0.0,
			"-0.018": 0.0,
			"-0.017": 0.0,
			"-0.016": 0.0,
			"-0.015": 0.0,
			"-0.014": 0.0,
			"-0.013": 0.0,
			"-0.012": 0.0,
			"-0.011": 0.0,
			"-0.01": 0.0,
			"-0.009": 0.0,
			"-0.008": 1.99694283588,
			"-0.007": 9.90867192995,
			"-0.006": 15.380642236,
			"-0.005": 14.7117547129,
			"-0.004": 14.7425016635,
			"-0.003": 11.4176926507,
			"-0.002": 9.89832504897,
			"-0.001": 12.1785702996,
			"0.0": 12.9222030707,
			"0.001": 16.8286380927,
			"0.002": 14.671383438,
			"0.003": 7.38763885283,
			"0.004": 3.47751241538,
			"0.005": 3.89848363656,
			"0.006": 3.90407403918,
			"0.007": 6.44933518536,
			"0.008": 11.4622580362,
			"0.009": 6.13248206201,
			"0.01": 4.40071186122,
			"0.011": 1.26338042431,
			"0.012": 0.0,
			"0.013": 0.0,
			"0.014": 0.0,
			"0.015": 0.0,
			"0.016": 0.0,
			"0.017": 0.0,
			"0.018": 0.0,
			"0.019": 0.0,
			"0.02": 0.0,
			"0.021": 0.0,
			"0.022": 0.0,
			"0.023": 0.0,
			"0.024": 0.0,
			"0.025": 0.0
		}
	}
}
