{
	 "smiles": "N1C=CN=C1C1=CC=CS1", 
	 "Tm": 465.15, 
	 "num_atms": 16, 
	 "gaussian": { 
		 "optdone": 1, 
		 "sigma_profile": "yes", 
		 "theory": "DFT", 
		 "functional": "B3LYP", 
		 "basiset": "6-31G**", 
		 "properties": { 
			 "R2extent": 2317.705, 
			 "electric_dipole_moment_norm": 3.75954672002, 
			 "electric_quadrupole_moment_norm": 11.0848747593, 
			 "total_energy": -778.033576354, 
			 "HOMO_LUMO_gap": 0.16671, 
			 "cosmo_polarized_energy": -14.12, 
			 "cosmo_cavitation_energy": 21.94, 
			 "cosmo_dispersion_energy": -17.12, 
			 "cosmo_repulsion_energy": 1.32, 
			 "cosmo_total_nonelectrostatic_energy": 6.14, 
			 "SMD_solvation_energy": 2.5 
		},
		"coords": [
			{
				"x": 0.7882853408,
				"y": 1.0826674138,
				"z": 1.1602036796,
				"element": "N" 
			},
			{
				"x": 1.1300301354,
				"y": 2.4082323466,
				"z": 1.3295148563,
				"element": "C" 
			},
			{
				"x": -0.0530577347,
				"y": 3.0996668748,
				"z": 1.2283327588,
				"element": "C" 
			},
			{
				"x": -1.0996582305,
				"y": 2.2419413053,
				"z": 1.0038337741,
				"element": "N" 
			},
			{
				"x": -0.5705489549,
				"y": 1.0278140917,
				"z": 0.9659165626,
				"element": "C" 
			},
			{
				"x": -1.3066236327,
				"y": -0.2014788164,
				"z": 0.7503113586,
				"element": "C" 
			},
			{
				"x": -0.8552805751,
				"y": -1.5023945458,
				"z": 0.6937607571,
				"element": "C" 
			},
			{
				"x": -1.8963439353,
				"y": -2.4463204982,
				"z": 0.4615363717,
				"element": "C" 
			},
			{
				"x": -3.1250926176,
				"y": -1.8548544297,
				"z": 0.3442515221,
				"element": "C" 
			},
			{
				"x": -3.0357945975,
				"y": -0.131881018,
				"z": 0.5154049044,
				"element": "S" 
			},
			{
				"x": 1.4231056355,
				"y": 0.2999482202,
				"z": 1.1765974495,
				"element": "H" 
			},
			{
				"x": 2.1483274531,
				"y": 2.7212202373,
				"z": 1.5000580279,
				"element": "H" 
			},
			{
				"x": -0.2054755187,
				"y": 4.1671440725,
				"z": 1.3051833145,
				"element": "H" 
			},
			{
				"x": 0.1858145632,
				"y": -1.7841351334,
				"z": 0.8132485355,
				"element": "H" 
			},
			{
				"x": -1.7346412032,
				"y": -3.5155438419,
				"z": 0.3857841961,
				"element": "H" 
			},
			{
				"x": -4.0804461279,
				"y": -2.3292262787,
				"z": 0.1671619313,
				"element": "H" 
			}
		],
		 "valence_orbital": [ 
			{
				"type": "occ",
				"energy": -0.2853,
				"method": "rhf"
			},
			{
				"type": "occ",
				"energy": -0.26877,
				"method": "rhf"
			},
			{
				"type": "occ",
				"energy": -0.26722,
				"method": "rhf"
			},
			{
				"type": "occ",
				"energy": -0.25025,
				"method": "rhf"
			},
			{
				"type": "occ",
				"energy": -0.20062,
				"method": "rhf"
			},
			{
				"type": "unocc",
				"energy": -0.03391,
				"method": "rhf"
			},
			{
				"type": "unocc",
				"energy": 0.03862,
				"method": "rhf"
			},
			{
				"type": "unocc",
				"energy": 0.03868,
				"method": "rhf"
			},
			{
				"type": "unocc",
				"energy": 0.0603,
				"method": "rhf"
			},
			{
				"type": "unocc",
				"energy": 0.0648,
				"method": "rhf"
			}
		],
		"cosmo_sigma_profile": { 
			"-0.025": 0.0,
			"-0.024": 0.0,
			"-0.023": 0.0,
			"-0.022": 0.0,
			"-0.021": 0.0,
			"-0.02": 0.0,
			"-0.019": 0.0,
			"-0.018": 0.0,
			"-0.017": 0.119511418539,
			"-0.016": 1.24033814944,
			"-0.015": 1.61214391363,
			"-0.014": 2.07290866267,
			"-0.013": 1.26574411404,
			"-0.012": 0.955306810668,
			"-0.011": 2.13595474796,
			"-0.01": 1.15905805198,
			"-0.009": 3.04102955775,
			"-0.008": 5.91397260786,
			"-0.007": 6.99848106923,
			"-0.006": 7.90587099791,
			"-0.005": 9.06115738077,
			"-0.004": 8.90945211225,
			"-0.003": 8.89503715366,
			"-0.002": 7.43111583184,
			"-0.001": 7.99937654182,
			"0.0": 7.21113344019,
			"0.001": 8.75195607145,
			"0.002": 12.6886687867,
			"0.003": 16.9394368479,
			"0.004": 21.5702530944,
			"0.005": 14.8922059354,
			"0.006": 4.90737871218,
			"0.007": 2.81865009956,
			"0.008": 2.16502409605,
			"0.009": 1.74173120376,
			"0.01": 1.41493137219,
			"0.011": 2.00468071409,
			"0.012": 0.771316635204,
			"0.013": 1.048882313,
			"0.014": 1.50761370167,
			"0.015": 1.0054143866,
			"0.016": 0.698808261785,
			"0.017": 0.175260475791,
			"0.018": 0.0,
			"0.019": 0.0,
			"0.02": 0.0,
			"0.021": 0.0,
			"0.022": 0.0,
			"0.023": 0.0,
			"0.024": 0.0,
			"0.025": 0.0
		}
	}
}
