{
	 "smiles": "CC1=NN=C(CO)N1C1CC1", 
	 "Tm": 388.15, 
	 "num_atms": 22, 
	 "gaussian": { 
		 "optdone": 1, 
		 "sigma_profile": "yes", 
		 "theory": "DFT", 
		 "functional": "B3LYP", 
		 "basiset": "6-31G**", 
		 "properties": { 
			 "R2extent": 2192.1053, 
			 "electric_dipole_moment_norm": 6.50387284624, 
			 "electric_quadrupole_moment_norm": 12.6852551709, 
			 "total_energy": -512.793937122, 
			 "HOMO_LUMO_gap": 0.25867, 
			 "cosmo_polarized_energy": -16.92, 
			 "cosmo_cavitation_energy": 24.82, 
			 "cosmo_dispersion_energy": -18.14, 
			 "cosmo_repulsion_energy": 1.47, 
			 "cosmo_total_nonelectrostatic_energy": 8.15, 
			 "SMD_solvation_energy": 2.0 
		},
		"coords": [
			{
				"x": -1.4150495138,
				"y": 0.7090558406,
				"z": 0.8638212995,
				"element": "C" 
			},
			{
				"x": -0.0016164583,
				"y": 0.3851429523,
				"z": 0.5150005584,
				"element": "C" 
			},
			{
				"x": 0.9509162184,
				"y": 0.1487573012,
				"z": 1.3843574573,
				"element": "N" 
			},
			{
				"x": 2.1144061149,
				"y": -0.0745964972,
				"z": 0.6720561018,
				"element": "N" 
			},
			{
				"x": 1.8365669667,
				"y": 0.0348511157,
				"z": -0.6012998587,
				"element": "C" 
			},
			{
				"x": 2.8913064734,
				"y": -0.1233179856,
				"z": -1.6610932248,
				"element": "C" 
			},
			{
				"x": 4.1637501996,
				"y": -0.2386285156,
				"z": -1.0721585206,
				"element": "O" 
			},
			{
				"x": 0.500265204,
				"y": 0.3091826542,
				"z": -0.7755331916,
				"element": "N" 
			},
			{
				"x": -0.1831576717,
				"y": 0.6094544369,
				"z": -2.0063387885,
				"element": "C" 
			},
			{
				"x": -1.4028535947,
				"y": -0.1896916173,
				"z": -2.395385027,
				"element": "C" 
			},
			{
				"x": -0.1152482379,
				"y": -0.3696122238,
				"z": -3.1532410504,
				"element": "C" 
			},
			{
				"x": -1.7286970686,
				"y": 1.669678472,
				"z": 0.4410404055,
				"element": "H" 
			},
			{
				"x": -2.1152375342,
				"y": -0.0536031298,
				"z": 0.5072543129,
				"element": "H" 
			},
			{
				"x": -1.4874472172,
				"y": 0.7654214953,
				"z": 1.9508696445,
				"element": "H" 
			},
			{
				"x": 2.868972069,
				"y": 0.7413296903,
				"z": -2.3426299195,
				"element": "H" 
			},
			{
				"x": 2.6711921551,
				"y": -1.0102712455,
				"z": -2.2784803519,
				"element": "H" 
			},
			{
				"x": 4.0169963621,
				"y": -0.2983922513,
				"z": -0.1125156526,
				"element": "H" 
			},
			{
				"x": -0.1836228445,
				"y": 1.6675658979,
				"z": -2.2598101035,
				"element": "H" 
			},
			{
				"x": -1.7043822234,
				"y": -0.9959458966,
				"z": -1.7353729385,
				"element": "H" 
			},
			{
				"x": -2.2227544809,
				"y": 0.3443685142,
				"z": -2.8643153316,
				"element": "H" 
			},
			{
				"x": 0.428009635,
				"y": -1.2946872414,
				"z": -2.9936110968,
				"element": "H" 
			},
			{
				"x": -0.0283145529,
				"y": 0.0396382337,
				"z": -4.1543147238,
				"element": "H" 
			}
		],
		 "valence_orbital": [ 
			{
				"type": "occ",
				"energy": -0.30903,
				"method": "rhf"
			},
			{
				"type": "occ",
				"energy": -0.28757,
				"method": "rhf"
			},
			{
				"type": "occ",
				"energy": -0.2658,
				"method": "rhf"
			},
			{
				"type": "occ",
				"energy": -0.25277,
				"method": "rhf"
			},
			{
				"type": "occ",
				"energy": -0.24626,
				"method": "rhf"
			},
			{
				"type": "unocc",
				"energy": 0.01241,
				"method": "rhf"
			},
			{
				"type": "unocc",
				"energy": 0.04711,
				"method": "rhf"
			},
			{
				"type": "unocc",
				"energy": 0.06968,
				"method": "rhf"
			},
			{
				"type": "unocc",
				"energy": 0.07622,
				"method": "rhf"
			},
			{
				"type": "unocc",
				"energy": 0.0859,
				"method": "rhf"
			}
		],
		"cosmo_sigma_profile": { 
			"-0.025": 0.0,
			"-0.024": 0.0,
			"-0.023": 0.0,
			"-0.022": 0.0,
			"-0.021": 0.0,
			"-0.02": 0.0,
			"-0.019": 0.0,
			"-0.018": 0.0,
			"-0.017": 0.0,
			"-0.016": 0.0,
			"-0.015": 0.0,
			"-0.014": 0.0,
			"-0.013": 0.0,
			"-0.012": 0.0,
			"-0.011": 0.0,
			"-0.01": 0.127811115278,
			"-0.009": 0.474286079048,
			"-0.008": 1.03355402558,
			"-0.007": 6.32061281498,
			"-0.006": 20.0804765985,
			"-0.005": 22.739016161,
			"-0.004": 18.930650572,
			"-0.003": 17.7213095347,
			"-0.002": 19.1810279252,
			"-0.001": 17.5846592076,
			"0.0": 8.82091103408,
			"0.001": 6.88231763506,
			"0.002": 6.24892468898,
			"0.003": 5.67035772746,
			"0.004": 3.81452404256,
			"0.005": 3.06425534051,
			"0.006": 2.97124956972,
			"0.007": 3.11419457484,
			"0.008": 2.91780285363,
			"0.009": 3.10101377482,
			"0.01": 3.57965703227,
			"0.011": 2.58577386175,
			"0.012": 4.72673218184,
			"0.013": 5.31697076819,
			"0.014": 4.54555666003,
			"0.015": 1.72830133307,
			"0.016": 1.16161587303,
			"0.017": 1.03602853798,
			"0.018": 0.1130142792,
			"0.019": 0.0,
			"0.02": 0.0,
			"0.021": 0.0,
			"0.022": 0.0,
			"0.023": 0.0,
			"0.024": 0.0,
			"0.025": 0.0
		}
	}
}
