{
	 "smiles": "FC(F)(F)C(F)(F)C(F)(F)C(F)(F)F", 
	 "Tm": 145.15, 
	 "num_atms": 14, 
	 "gaussian": { 
		 "optdone": 1, 
		 "sigma_profile": "yes", 
		 "theory": "DFT", 
		 "functional": "B3LYP", 
		 "basiset": "6-31G**", 
		 "properties": { 
			 "R2extent": 2710.9652, 
			 "electric_dipole_moment_norm": 0.193036809961, 
			 "electric_quadrupole_moment_norm": 0.311737341363, 
			 "total_energy": -1150.80209944, 
			 "HOMO_LUMO_gap": 0.39691, 
			 "cosmo_polarized_energy": -0.76, 
			 "cosmo_cavitation_energy": 22.42, 
			 "cosmo_dispersion_energy": -15.11, 
			 "cosmo_repulsion_energy": 1.0, 
			 "cosmo_total_nonelectrostatic_energy": 8.31, 
			 "SMD_solvation_energy": 7.48 
		},
		"coords": [
			{
				"x": -1.3577845752,
				"y": -1.5736400374,
				"z": -1.2428440416,
				"element": "F" 
			},
			{
				"x": -1.5838576741,
				"y": -0.4695736696,
				"z": -0.521337119,
				"element": "C" 
			},
			{
				"x": -1.959559001,
				"y": 0.517395365,
				"z": -1.3412775281,
				"element": "F" 
			},
			{
				"x": -2.5756395127,
				"y": -0.7073919597,
				"z": 0.3482646026,
				"element": "F" 
			},
			{
				"x": -0.3048892993,
				"y": -0.036941046,
				"z": 0.2350972756,
				"element": "C" 
			},
			{
				"x": -0.6386024553,
				"y": 0.973472828,
				"z": 1.0685179316,
				"element": "F" 
			},
			{
				"x": 0.5755168693,
				"y": 0.4194418894,
				"z": -0.68534841,
				"element": "F" 
			},
			{
				"x": 0.4431125485,
				"y": -1.126743621,
				"z": 1.0517375233,
				"element": "C" 
			},
			{
				"x": 0.9231085366,
				"y": -2.0547127071,
				"z": 0.1941768151,
				"element": "F" 
			},
			{
				"x": 1.4801857752,
				"y": -0.5032376595,
				"z": 1.656969847,
				"element": "F" 
			},
			{
				"x": -0.3582962454,
				"y": -1.8660484818,
				"z": 2.1501497929,
				"element": "C" 
			},
			{
				"x": -0.998155691,
				"y": -0.9945672653,
				"z": 2.9386620064,
				"element": "F" 
			},
			{
				"x": 0.4863024512,
				"y": -2.587879157,
				"z": 2.8939147805,
				"element": "F" 
			},
			{
				"x": -1.2528417269,
				"y": -2.692574478,
				"z": 1.5907165237,
				"element": "F" 
			}
		],
		 "valence_orbital": [ 
			{
				"type": "occ",
				"energy": -0.43332,
				"method": "rhf"
			},
			{
				"type": "occ",
				"energy": -0.4319,
				"method": "rhf"
			},
			{
				"type": "occ",
				"energy": -0.42966,
				"method": "rhf"
			},
			{
				"type": "occ",
				"energy": -0.39943,
				"method": "rhf"
			},
			{
				"type": "occ",
				"energy": -0.36484,
				"method": "rhf"
			},
			{
				"type": "unocc",
				"energy": 0.03207,
				"method": "rhf"
			},
			{
				"type": "unocc",
				"energy": 0.0344,
				"method": "rhf"
			},
			{
				"type": "unocc",
				"energy": 0.09865,
				"method": "rhf"
			},
			{
				"type": "unocc",
				"energy": 0.10757,
				"method": "rhf"
			},
			{
				"type": "unocc",
				"energy": 0.1717,
				"method": "rhf"
			}
		],
		"cosmo_sigma_profile": { 
			"-0.025": 0.0,
			"-0.024": 0.0,
			"-0.023": 0.0,
			"-0.022": 0.0,
			"-0.021": 0.0,
			"-0.02": 0.0,
			"-0.019": 0.0,
			"-0.018": 0.0,
			"-0.017": 0.0,
			"-0.016": 0.0,
			"-0.015": 0.0,
			"-0.014": 0.0,
			"-0.013": 0.0,
			"-0.012": 0.0,
			"-0.011": 0.0,
			"-0.01": 0.0,
			"-0.009": 0.0,
			"-0.008": 0.0,
			"-0.007": 0.0,
			"-0.006": 0.0,
			"-0.005": 0.467458883875,
			"-0.004": 2.28390948518,
			"-0.003": 7.26742114444,
			"-0.002": 13.3841078912,
			"-0.001": 22.655971811,
			"0.0": 56.5974413852,
			"0.001": 74.6936000855,
			"0.002": 3.23655032359,
			"0.003": 0.0,
			"0.004": 0.0,
			"0.005": 0.0,
			"0.006": 0.0,
			"0.007": 0.0,
			"0.008": 0.0,
			"0.009": 0.0,
			"0.01": 0.0,
			"0.011": 0.0,
			"0.012": 0.0,
			"0.013": 0.0,
			"0.014": 0.0,
			"0.015": 0.0,
			"0.016": 0.0,
			"0.017": 0.0,
			"0.018": 0.0,
			"0.019": 0.0,
			"0.02": 0.0,
			"0.021": 0.0,
			"0.022": 0.0,
			"0.023": 0.0,
			"0.024": 0.0,
			"0.025": 0.0
		}
	}
}
