{
	 "smiles": "COC(=O)CNC1=C(C=CC=N1)[N+]([O-])=O", 
	 "Tm": 378.15, 
	 "num_atms": 24, 
	 "gaussian": { 
		 "optdone": 1, 
		 "sigma_profile": "yes", 
		 "theory": "DFT", 
		 "functional": "B3LYP", 
		 "basiset": "6-31G**", 
		 "properties": { 
			 "R2extent": 3727.4513, 
			 "electric_dipole_moment_norm": 2.38769312099, 
			 "electric_quadrupole_moment_norm": 22.0251800942, 
			 "total_energy": -775.334315605, 
			 "HOMO_LUMO_gap": 0.13993, 
			 "cosmo_polarized_energy": -13.82, 
			 "cosmo_cavitation_energy": 29.51, 
			 "cosmo_dispersion_energy": -21.0, 
			 "cosmo_repulsion_energy": 1.68, 
			 "cosmo_total_nonelectrostatic_energy": 10.19, 
			 "SMD_solvation_energy": 7.49 
		},
		"coords": [
			{
				"x": 0.0634162318,
				"y": 2.3589334536,
				"z": 2.4342794444,
				"element": "C" 
			},
			{
				"x": -0.3114462948,
				"y": 2.0371554239,
				"z": 1.0829216248,
				"element": "O" 
			},
			{
				"x": 0.3934697997,
				"y": 2.6702339117,
				"z": 0.1296632238,
				"element": "C" 
			},
			{
				"x": 1.2701865663,
				"y": 3.4766615028,
				"z": 0.3446045334,
				"element": "O" 
			},
			{
				"x": -0.0521007926,
				"y": 2.2961714229,
				"z": -1.2862524333,
				"element": "C" 
			},
			{
				"x": -0.971099427,
				"y": 1.1890708535,
				"z": -1.4022461544,
				"element": "N" 
			},
			{
				"x": -0.5782181204,
				"y": -0.0994632179,
				"z": -1.2799829088,
				"element": "C" 
			},
			{
				"x": -1.4862676055,
				"y": -1.20570669,
				"z": -1.2939313469,
				"element": "C" 
			},
			{
				"x": -0.9851447815,
				"y": -2.5052334668,
				"z": -1.1923805133,
				"element": "C" 
			},
			{
				"x": 0.3808737084,
				"y": -2.704244542,
				"z": -1.0785950001,
				"element": "C" 
			},
			{
				"x": 1.197829184,
				"y": -1.5662925527,
				"z": -1.0664743302,
				"element": "C" 
			},
			{
				"x": 0.7504322067,
				"y": -0.3199065019,
				"z": -1.158118419,
				"element": "N" 
			},
			{
				"x": -2.9211529844,
				"y": -1.046985512,
				"z": -1.4005811461,
				"element": "N" 
			},
			{
				"x": -3.6242598542,
				"y": -2.0577901506,
				"z": -1.4106507038,
				"element": "O" 
			},
			{
				"x": -3.3913808714,
				"y": 0.1040155092,
				"z": -1.4767741158,
				"element": "O" 
			},
			{
				"x": -0.6000175591,
				"y": 1.7738003138,
				"z": 3.0704740591,
				"element": "H" 
			},
			{
				"x": -0.0639241579,
				"y": 3.427589336,
				"z": 2.6230000018,
				"element": "H" 
			},
			{
				"x": 1.1069540285,
				"y": 2.090127763,
				"z": 2.614633185,
				"element": "H" 
			},
			{
				"x": -0.5237723923,
				"y": 3.1834434774,
				"z": -1.7197852642,
				"element": "H" 
			},
			{
				"x": 0.8597289225,
				"y": 2.0969603115,
				"z": -1.8519945601,
				"element": "H" 
			},
			{
				"x": -1.9722937524,
				"y": 1.3384620463,
				"z": -1.3916513412,
				"element": "H" 
			},
			{
				"x": -1.691075537,
				"y": -3.3265408889,
				"z": -1.204813582,
				"element": "H" 
			},
			{
				"x": 0.8050301965,
				"y": -3.6980103668,
				"z": -0.9971438548,
				"element": "H" 
			},
			{
				"x": 2.2779332861,
				"y": -1.6707514361,
				"z": -0.9732003984,
				"element": "H" 
			}
		],
		 "valence_orbital": [ 
			{
				"type": "occ",
				"energy": -0.30731,
				"method": "rhf"
			},
			{
				"type": "occ",
				"energy": -0.29581,
				"method": "rhf"
			},
			{
				"type": "occ",
				"energy": -0.28386,
				"method": "rhf"
			},
			{
				"type": "occ",
				"energy": -0.27802,
				"method": "rhf"
			},
			{
				"type": "occ",
				"energy": -0.23356,
				"method": "rhf"
			},
			{
				"type": "unocc",
				"energy": -0.09363,
				"method": "rhf"
			},
			{
				"type": "unocc",
				"energy": -0.02591,
				"method": "rhf"
			},
			{
				"type": "unocc",
				"energy": -0.00404,
				"method": "rhf"
			},
			{
				"type": "unocc",
				"energy": 0.00838,
				"method": "rhf"
			},
			{
				"type": "unocc",
				"energy": 0.08741,
				"method": "rhf"
			}
		],
		"cosmo_sigma_profile": { 
			"-0.025": 0.0,
			"-0.024": 0.0,
			"-0.023": 0.0,
			"-0.022": 0.0,
			"-0.021": 0.0,
			"-0.02": 0.0,
			"-0.019": 0.0,
			"-0.018": 0.0,
			"-0.017": 0.0,
			"-0.016": 0.0,
			"-0.015": 0.0,
			"-0.014": 0.0,
			"-0.013": 0.106818250941,
			"-0.012": 0.763367824479,
			"-0.011": 0.676925527453,
			"-0.01": 0.990821716774,
			"-0.009": 3.56794125749,
			"-0.008": 5.02195218599,
			"-0.007": 10.1047323981,
			"-0.006": 16.0635057216,
			"-0.005": 17.9777862345,
			"-0.004": 17.7944160981,
			"-0.003": 18.481831245,
			"-0.002": 17.7413175636,
			"-0.001": 15.9134629033,
			"0.0": 13.7689085994,
			"0.001": 15.8177794829,
			"0.002": 10.8246363741,
			"0.003": 7.5542313359,
			"0.004": 7.56571975368,
			"0.005": 8.93615265083,
			"0.006": 7.13949043986,
			"0.007": 8.06107469445,
			"0.008": 8.37046381907,
			"0.009": 5.93965323241,
			"0.01": 7.4066004307,
			"0.011": 4.43434774438,
			"0.012": 4.25106629579,
			"0.013": 0.552866171113,
			"0.014": 0.0,
			"0.015": 0.0,
			"0.016": 0.0,
			"0.017": 0.0,
			"0.018": 0.0,
			"0.019": 0.0,
			"0.02": 0.0,
			"0.021": 0.0,
			"0.022": 0.0,
			"0.023": 0.0,
			"0.024": 0.0,
			"0.025": 0.0
		}
	}
}
