{
	 "smiles": "CN1C=NC=C1CO", 
	 "Tm": 386.15, 
	 "num_atms": 16, 
	 "gaussian": { 
		 "optdone": 1, 
		 "sigma_profile": "yes", 
		 "theory": "DFT", 
		 "functional": "B3LYP", 
		 "basiset": "6-31G**", 
		 "properties": { 
			 "R2extent": 1056.7465, 
			 "electric_dipole_moment_norm": 2.39454273714, 
			 "electric_quadrupole_moment_norm": 13.7998565406, 
			 "total_energy": -380.061308799, 
			 "HOMO_LUMO_gap": 0.24078, 
			 "cosmo_polarized_energy": -12.42, 
			 "cosmo_cavitation_energy": 19.4, 
			 "cosmo_dispersion_energy": -14.32, 
			 "cosmo_repulsion_energy": 1.19, 
			 "cosmo_total_nonelectrostatic_energy": 6.27, 
			 "SMD_solvation_energy": 2.39 
		},
		"coords": [
			{
				"x": 0.6924628964,
				"y": -0.8182123569,
				"z": -1.7880842691,
				"element": "C" 
			},
			{
				"x": 0.2328591684,
				"y": 0.3843163188,
				"z": -1.1093526369,
				"element": "N" 
			},
			{
				"x": -0.3897802291,
				"y": 1.4604900616,
				"z": -1.6750626178,
				"element": "C" 
			},
			{
				"x": -0.7022686854,
				"y": 2.3876056583,
				"z": -0.7925690124,
				"element": "N" 
			},
			{
				"x": -0.2594721556,
				"y": 1.8889928394,
				"z": 0.4080208909,
				"element": "C" 
			},
			{
				"x": 0.3211075078,
				"y": 0.6488101344,
				"z": 0.2502880188,
				"element": "C" 
			},
			{
				"x": 0.9677051996,
				"y": -0.2773860853,
				"z": 1.2250262244,
				"element": "C" 
			},
			{
				"x": 2.3553422188,
				"y": -0.5101466448,
				"z": 0.9550039667,
				"element": "O" 
			},
			{
				"x": -0.0041714489,
				"y": -1.6500451927,
				"z": -1.6359916736,
				"element": "H" 
			},
			{
				"x": 1.6726751449,
				"y": -1.099645993,
				"z": -1.3990736692,
				"element": "H" 
			},
			{
				"x": 0.767652934,
				"y": -0.6169229263,
				"z": -2.8585575596,
				"element": "H" 
			},
			{
				"x": -0.5783832894,
				"y": 1.5118490586,
				"z": -2.7398874862,
				"element": "H" 
			},
			{
				"x": -0.3797314583,
				"y": 2.443410102,
				"z": 1.3299833691,
				"element": "H" 
			},
			{
				"x": 0.8147188224,
				"y": 0.1251378256,
				"z": 2.2364376452,
				"element": "H" 
			},
			{
				"x": 0.5094891162,
				"y": -1.2729396314,
				"z": 1.2037396625,
				"element": "H" 
			},
			{
				"x": 2.7834942582,
				"y": 0.3560868316,
				"z": 0.9148791472,
				"element": "H" 
			}
		],
		 "valence_orbital": [ 
			{
				"type": "occ",
				"energy": -0.34849,
				"method": "rhf"
			},
			{
				"type": "occ",
				"energy": -0.28472,
				"method": "rhf"
			},
			{
				"type": "occ",
				"energy": -0.26488,
				"method": "rhf"
			},
			{
				"type": "occ",
				"energy": -0.26002,
				"method": "rhf"
			},
			{
				"type": "occ",
				"energy": -0.22339,
				"method": "rhf"
			},
			{
				"type": "unocc",
				"energy": 0.01739,
				"method": "rhf"
			},
			{
				"type": "unocc",
				"energy": 0.06477,
				"method": "rhf"
			},
			{
				"type": "unocc",
				"energy": 0.08485,
				"method": "rhf"
			},
			{
				"type": "unocc",
				"energy": 0.10363,
				"method": "rhf"
			},
			{
				"type": "unocc",
				"energy": 0.12526,
				"method": "rhf"
			}
		],
		"cosmo_sigma_profile": { 
			"-0.025": 0.0,
			"-0.024": 0.0,
			"-0.023": 0.0,
			"-0.022": 0.0,
			"-0.021": 0.0,
			"-0.02": 0.0,
			"-0.019": 0.0,
			"-0.018": 0.0,
			"-0.017": 0.0,
			"-0.016": 0.150660231132,
			"-0.015": 0.775016943634,
			"-0.014": 0.94348809577,
			"-0.013": 1.03390761034,
			"-0.012": 0.563208707056,
			"-0.011": 0.871902316821,
			"-0.01": 0.607659797997,
			"-0.009": 1.33586477257,
			"-0.008": 4.28986125318,
			"-0.007": 4.87552651804,
			"-0.006": 7.64511253468,
			"-0.005": 16.6823598593,
			"-0.004": 14.2250116965,
			"-0.003": 16.0416704808,
			"-0.002": 11.9994812568,
			"-0.001": 7.48613053125,
			"0.0": 6.46954147853,
			"0.001": 5.35592537034,
			"0.002": 4.66938144562,
			"0.003": 6.36471778751,
			"0.004": 5.06673414626,
			"0.005": 5.55684166079,
			"0.006": 4.09706140644,
			"0.007": 2.76306391126,
			"0.008": 3.12652194941,
			"0.009": 2.23926626505,
			"0.01": 3.37061980031,
			"0.011": 2.26082900845,
			"0.012": 2.0900878007,
			"0.013": 3.26607479775,
			"0.014": 2.2223657027,
			"0.015": 1.01242204974,
			"0.016": 1.53641974662,
			"0.017": 1.26120641948,
			"0.018": 0.802848195963,
			"0.019": 0.247844302162,
			"0.02": 0.0,
			"0.021": 0.0,
			"0.022": 0.0,
			"0.023": 0.0,
			"0.024": 0.0,
			"0.025": 0.0
		}
	}
}
