{
	 "smiles": "OC(=O)C1CC2=C(CN1)C=C(O)C=C2", 
	 "Tm": 547.15, 
	 "num_atms": 25, 
	 "gaussian": { 
		 "optdone": 1, 
		 "sigma_profile": "yes", 
		 "theory": "DFT", 
		 "functional": "B3LYP", 
		 "basiset": "6-31G**", 
		 "properties": { 
			 "R2extent": 3534.0575, 
			 "electric_dipole_moment_norm": 5.37889982617, 
			 "electric_quadrupole_moment_norm": 18.0228302303, 
			 "total_energy": -668.127103502, 
			 "HOMO_LUMO_gap": 0.20943, 
			 "cosmo_polarized_energy": -18.69, 
			 "cosmo_cavitation_energy": 28.02, 
			 "cosmo_dispersion_energy": -20.91, 
			 "cosmo_repulsion_energy": 1.63, 
			 "cosmo_total_nonelectrostatic_energy": 8.74, 
			 "SMD_solvation_energy": 4.68 
		},
		"coords": [
			{
				"x": 0.4824839798,
				"y": -2.954347629,
				"z": -3.2864527977,
				"element": "O" 
			},
			{
				"x": 1.109311065,
				"y": -2.7963637124,
				"z": -2.1063762414,
				"element": "C" 
			},
			{
				"x": 1.9848492502,
				"y": -3.5336660324,
				"z": -1.7212030236,
				"element": "O" 
			},
			{
				"x": 0.6284338057,
				"y": -1.5658219511,
				"z": -1.3249405937,
				"element": "C" 
			},
			{
				"x": 0.7647424474,
				"y": -1.710777573,
				"z": 0.1908728303,
				"element": "C" 
			},
			{
				"x": 0.1092993551,
				"y": -0.5418244035,
				"z": 0.9079027543,
				"element": "C" 
			},
			{
				"x": -0.798189787,
				"y": 0.3036823162,
				"z": 0.2497024254,
				"element": "C" 
			},
			{
				"x": -1.1236323111,
				"y": 0.0985877811,
				"z": -1.2245162522,
				"element": "C" 
			},
			{
				"x": -0.7450698785,
				"y": -1.224433439,
				"z": -1.7385547761,
				"element": "N" 
			},
			{
				"x": -1.3949256454,
				"y": 1.3658050321,
				"z": 0.9407392773,
				"element": "C" 
			},
			{
				"x": -1.1008262606,
				"y": 1.597324511,
				"z": 2.2846574144,
				"element": "C" 
			},
			{
				"x": -1.6590974264,
				"y": 2.6172963681,
				"z": 3.0019075532,
				"element": "O" 
			},
			{
				"x": -0.1990240981,
				"y": 0.7579357032,
				"z": 2.9508057962,
				"element": "C" 
			},
			{
				"x": 0.3904220514,
				"y": -0.2928048614,
				"z": 2.2601000005,
				"element": "C" 
			},
			{
				"x": -0.2053044829,
				"y": -2.2521756928,
				"z": -3.3137993124,
				"element": "H" 
			},
			{
				"x": 1.2635673493,
				"y": -0.7319520873,
				"z": -1.6602658227,
				"element": "H" 
			},
			{
				"x": 1.8218129606,
				"y": -1.7925347889,
				"z": 0.4616395191,
				"element": "H" 
			},
			{
				"x": 0.3046840694,
				"y": -2.6599523543,
				"z": 0.5016733598,
				"element": "H" 
			},
			{
				"x": -0.6020315265,
				"y": 0.8535507044,
				"z": -1.8290567733,
				"element": "H" 
			},
			{
				"x": -2.1942580979,
				"y": 0.2458746629,
				"z": -1.4040831292,
				"element": "H" 
			},
			{
				"x": -1.3755660717,
				"y": -1.915082391,
				"z": -1.3287511567,
				"element": "H" 
			},
			{
				"x": -2.0986919757,
				"y": 2.01669497,
				"z": 0.4222909028,
				"element": "H" 
			},
			{
				"x": -2.2527719693,
				"y": 3.1208191683,
				"z": 2.4300368873,
				"element": "H" 
			},
			{
				"x": 0.0237569825,
				"y": 0.9463917109,
				"z": 3.9956157847,
				"element": "H" 
			},
			{
				"x": 1.0925262145,
				"y": -0.9403260121,
				"z": 2.7800553737,
				"element": "H" 
			}
		],
		 "valence_orbital": [ 
			{
				"type": "occ",
				"energy": -0.30563,
				"method": "rhf"
			},
			{
				"type": "occ",
				"energy": -0.27327,
				"method": "rhf"
			},
			{
				"type": "occ",
				"energy": -0.25683,
				"method": "rhf"
			},
			{
				"type": "occ",
				"energy": -0.25451,
				"method": "rhf"
			},
			{
				"type": "occ",
				"energy": -0.22405,
				"method": "rhf"
			},
			{
				"type": "unocc",
				"energy": -0.01462,
				"method": "rhf"
			},
			{
				"type": "unocc",
				"energy": 0.00089,
				"method": "rhf"
			},
			{
				"type": "unocc",
				"energy": 0.01564,
				"method": "rhf"
			},
			{
				"type": "unocc",
				"energy": 0.06308,
				"method": "rhf"
			},
			{
				"type": "unocc",
				"energy": 0.07477,
				"method": "rhf"
			}
		],
		"cosmo_sigma_profile": { 
			"-0.025": 0.0,
			"-0.024": 0.0,
			"-0.023": 0.0,
			"-0.022": 0.0,
			"-0.021": 0.0,
			"-0.02": 0.0,
			"-0.019": 0.0,
			"-0.018": 0.262970349348,
			"-0.017": 1.02913896153,
			"-0.016": 1.07680930112,
			"-0.015": 1.02997991339,
			"-0.014": 1.34349537106,
			"-0.013": 0.486874292244,
			"-0.012": 1.85740617153,
			"-0.011": 3.52524365006,
			"-0.01": 3.62379606007,
			"-0.009": 4.1472677796,
			"-0.008": 3.6674705314,
			"-0.007": 7.63745625528,
			"-0.006": 11.3513703011,
			"-0.005": 17.6075677742,
			"-0.004": 17.3978718373,
			"-0.003": 14.5947666447,
			"-0.002": 13.2407601248,
			"-0.001": 10.6694583187,
			"0.0": 8.28880825384,
			"0.001": 7.34841663615,
			"0.002": 8.59463068494,
			"0.003": 10.0550638598,
			"0.004": 11.7890419323,
			"0.005": 11.9322380567,
			"0.006": 11.3041911032,
			"0.007": 4.83857836294,
			"0.008": 4.49082307611,
			"0.009": 4.42078365192,
			"0.01": 6.42294553102,
			"0.011": 7.21760835188,
			"0.012": 6.98347538193,
			"0.013": 2.33671848908,
			"0.014": 0.25845658675,
			"0.015": 0.0,
			"0.016": 0.0,
			"0.017": 0.0,
			"0.018": 0.0,
			"0.019": 0.0,
			"0.02": 0.0,
			"0.021": 0.0,
			"0.022": 0.0,
			"0.023": 0.0,
			"0.024": 0.0,
			"0.025": 0.0
		}
	}
}
