{
	 "smiles": "O=NN1CN2CN(C1)CN(C2)N=O", 
	 "Tm": 479.15, 
	 "num_atms": 23, 
	 "gaussian": { 
		 "optdone": 1, 
		 "sigma_profile": "yes", 
		 "theory": "DFT", 
		 "functional": "B3LYP", 
		 "basiset": "6-31G**", 
		 "properties": { 
			 "R2extent": 2193.0572, 
			 "electric_dipole_moment_norm": 3.76882436046, 
			 "electric_quadrupole_moment_norm": 14.2582103439, 
			 "total_energy": -675.318205698, 
			 "HOMO_LUMO_gap": 0.1802, 
			 "cosmo_polarized_energy": -14.98, 
			 "cosmo_cavitation_energy": 24.94, 
			 "cosmo_dispersion_energy": -18.8, 
			 "cosmo_repulsion_energy": 1.44, 
			 "cosmo_total_nonelectrostatic_energy": 7.58, 
			 "SMD_solvation_energy": -2.48 
		},
		"coords": [
			{
				"x": 2.7686203594,
				"y": -2.2761829962,
				"z": -0.4029598604,
				"element": "O" 
			},
			{
				"x": 1.810692723,
				"y": -2.355368056,
				"z": 0.3491609875,
				"element": "N" 
			},
			{
				"x": 0.7648512629,
				"y": -1.5396994944,
				"z": 0.0539163891,
				"element": "N" 
			},
			{
				"x": 0.9116487348,
				"y": -0.4197933169,
				"z": -0.8832572058,
				"element": "C" 
			},
			{
				"x": 0.52289151,
				"y": 0.8619739284,
				"z": -0.2613258455,
				"element": "N" 
			},
			{
				"x": 0.460204805,
				"y": 0.7185178917,
				"z": 1.2025563396,
				"element": "C" 
			},
			{
				"x": -0.5972068027,
				"y": -0.2258832947,
				"z": 1.597622827,
				"element": "N" 
			},
			{
				"x": -0.3169349168,
				"y": -1.5682418894,
				"z": 1.0348005463,
				"element": "C" 
			},
			{
				"x": -1.8927882799,
				"y": 0.2947049436,
				"z": 1.1737486855,
				"element": "C" 
			},
			{
				"x": -1.8966272682,
				"y": 0.622148227,
				"z": -0.2648412429,
				"element": "N" 
			},
			{
				"x": -0.7474949838,
				"y": 1.3932073983,
				"z": -0.7440305871,
				"element": "C" 
			},
			{
				"x": -2.5896980248,
				"y": -0.0741286198,
				"z": -1.1919674218,
				"element": "N" 
			},
			{
				"x": -3.4094495142,
				"y": -0.8703387456,
				"z": -0.7533329479,
				"element": "O" 
			},
			{
				"x": 1.9698537789,
				"y": -0.4190258633,
				"z": -1.1599818435,
				"element": "H" 
			},
			{
				"x": 0.3166462727,
				"y": -0.5941330623,
				"z": -1.7864084825,
				"element": "H" 
			},
			{
				"x": 1.425443344,
				"y": 0.3775767356,
				"z": 1.5816451722,
				"element": "H" 
			},
			{
				"x": 0.2462663927,
				"y": 1.6945681794,
				"z": 1.6470185005,
				"element": "H" 
			},
			{
				"x": -1.2292078843,
				"y": -1.9658398501,
				"z": 0.57722486,
				"element": "H" 
			},
			{
				"x": 0.0158066758,
				"y": -2.2621074194,
				"z": 1.8128362625,
				"element": "H" 
			},
			{
				"x": -2.1100557205,
				"y": 1.2055818448,
				"z": 1.7409552044,
				"element": "H" 
			},
			{
				"x": -2.6903456226,
				"y": -0.4292974962,
				"z": 1.3396669082,
				"element": "H" 
			},
			{
				"x": -0.8381981856,
				"y": 2.4242471,
				"z": -0.383799268,
				"element": "H" 
			},
			{
				"x": -0.787218656,
				"y": 1.3935138556,
				"z": -1.8352479776,
				"element": "H" 
			}
		],
		 "valence_orbital": [ 
			{
				"type": "occ",
				"energy": -0.28273,
				"method": "rhf"
			},
			{
				"type": "occ",
				"energy": -0.25986,
				"method": "rhf"
			},
			{
				"type": "occ",
				"energy": -0.25301,
				"method": "rhf"
			},
			{
				"type": "occ",
				"energy": -0.23755,
				"method": "rhf"
			},
			{
				"type": "occ",
				"energy": -0.23417,
				"method": "rhf"
			},
			{
				"type": "unocc",
				"energy": -0.05397,
				"method": "rhf"
			},
			{
				"type": "unocc",
				"energy": -0.05034,
				"method": "rhf"
			},
			{
				"type": "unocc",
				"energy": 0.06921,
				"method": "rhf"
			},
			{
				"type": "unocc",
				"energy": 0.08211,
				"method": "rhf"
			},
			{
				"type": "unocc",
				"energy": 0.10054,
				"method": "rhf"
			}
		],
		"cosmo_sigma_profile": { 
			"-0.025": 0.0,
			"-0.024": 0.0,
			"-0.023": 0.0,
			"-0.022": 0.0,
			"-0.021": 0.0,
			"-0.02": 0.0,
			"-0.019": 0.0,
			"-0.018": 0.0,
			"-0.017": 0.0,
			"-0.016": 0.0,
			"-0.015": 0.0,
			"-0.014": 0.0,
			"-0.013": 0.0,
			"-0.012": 0.0,
			"-0.011": 0.0918288803966,
			"-0.01": 1.05070066877,
			"-0.009": 2.59229621138,
			"-0.008": 7.99425239738,
			"-0.007": 15.3559362192,
			"-0.006": 17.9575152772,
			"-0.005": 17.5009908527,
			"-0.004": 16.426655639,
			"-0.003": 10.7001174629,
			"-0.002": 9.00398205814,
			"-0.001": 10.2905387591,
			"0.0": 8.04327899508,
			"0.001": 6.75494167486,
			"0.002": 5.68151570157,
			"0.003": 6.13632961956,
			"0.004": 5.4485780753,
			"0.005": 5.32514779512,
			"0.006": 5.75181157067,
			"0.007": 7.23885682334,
			"0.008": 8.43738995158,
			"0.009": 13.013800326,
			"0.01": 7.07781586486,
			"0.011": 4.99010978735,
			"0.012": 2.5419644062,
			"0.013": 1.01039496259,
			"0.014": 0.10917300688,
			"0.015": 0.0,
			"0.016": 0.0,
			"0.017": 0.0,
			"0.018": 0.0,
			"0.019": 0.0,
			"0.02": 0.0,
			"0.021": 0.0,
			"0.022": 0.0,
			"0.023": 0.0,
			"0.024": 0.0,
			"0.025": 0.0
		}
	}
}
