{
	 "smiles": "CCOC(=O)C1=CC(=NN1)C(=O)OCC", 
	 "Tm": 326.15, 
	 "num_atms": 27, 
	 "gaussian": { 
		 "optdone": 1, 
		 "sigma_profile": "yes", 
		 "theory": "DFT", 
		 "functional": "B3LYP", 
		 "basiset": "6-31G**", 
		 "properties": { 
			 "R2extent": 5459.2556, 
			 "electric_dipole_moment_norm": 4.39691081897, 
			 "electric_quadrupole_moment_norm": 11.646546018, 
			 "total_energy": -760.599162314, 
			 "HOMO_LUMO_gap": 0.21832, 
			 "cosmo_polarized_energy": -14.89, 
			 "cosmo_cavitation_energy": 32.66, 
			 "cosmo_dispersion_energy": -23.47, 
			 "cosmo_repulsion_energy": 1.9, 
			 "cosmo_total_nonelectrostatic_energy": 11.08, 
			 "SMD_solvation_energy": 7.05 
		},
		"coords": [
			{
				"x": -3.1655300128,
				"y": 2.4088526091,
				"z": 2.7922591631,
				"element": "C" 
			},
			{
				"x": -1.7785463993,
				"y": 1.9158315015,
				"z": 3.1739060877,
				"element": "C" 
			},
			{
				"x": -1.0338757305,
				"y": 1.4846021856,
				"z": 2.0048707633,
				"element": "O" 
			},
			{
				"x": -0.3671065323,
				"y": 2.4388011009,
				"z": 1.334268821,
				"element": "C" 
			},
			{
				"x": -0.3349867307,
				"y": 3.6204682033,
				"z": 1.6329400193,
				"element": "O" 
			},
			{
				"x": 0.3474482786,
				"y": 1.89732612,
				"z": 0.1702271917,
				"element": "C" 
			},
			{
				"x": 0.489604362,
				"y": 0.6417779261,
				"z": -0.3944746686,
				"element": "C" 
			},
			{
				"x": 1.3258188755,
				"y": 0.8521205486,
				"z": -1.5142214645,
				"element": "C" 
			},
			{
				"x": 1.6772007924,
				"y": 2.1452020631,
				"z": -1.6347937998,
				"element": "N" 
			},
			{
				"x": 1.0771957006,
				"y": 2.7453649911,
				"z": -0.6144881189,
				"element": "N" 
			},
			{
				"x": 1.8196898815,
				"y": -0.1402328645,
				"z": -2.4984345663,
				"element": "C" 
			},
			{
				"x": 2.5345781555,
				"y": 0.1063509398,
				"z": -3.4450712438,
				"element": "O" 
			},
			{
				"x": 1.3505777752,
				"y": -1.3744558254,
				"z": -2.190331769,
				"element": "O" 
			},
			{
				"x": 1.7568571759,
				"y": -2.4501458539,
				"z": -3.0690511975,
				"element": "C" 
			},
			{
				"x": 3.1083982308,
				"y": -3.0178018726,
				"z": -2.661629003,
				"element": "C" 
			},
			{
				"x": -3.0989295304,
				"y": 3.3093611476,
				"z": 2.1769098738,
				"element": "H" 
			},
			{
				"x": -3.7146403069,
				"y": 1.6406152427,
				"z": 2.2402894857,
				"element": "H" 
			},
			{
				"x": -3.7317067768,
				"y": 2.6532571181,
				"z": 3.6970567541,
				"element": "H" 
			},
			{
				"x": -1.8260411306,
				"y": 1.024558654,
				"z": 3.8032485904,
				"element": "H" 
			},
			{
				"x": -1.2069222333,
				"y": 2.6935167631,
				"z": 3.6853703758,
				"element": "H" 
			},
			{
				"x": 0.0579521773,
				"y": -0.2849637997,
				"z": -0.053909594,
				"element": "H" 
			},
			{
				"x": 1.1762611328,
				"y": 3.740361358,
				"z": -0.463730099,
				"element": "H" 
			},
			{
				"x": 1.7805885705,
				"y": -2.0757036771,
				"z": -4.09518445,
				"element": "H" 
			},
			{
				"x": 0.9629103832,
				"y": -3.1945986,
				"z": -2.9716441599,
				"element": "H" 
			},
			{
				"x": 3.0935658937,
				"y": -3.351396268,
				"z": -1.6197793053,
				"element": "H" 
			},
			{
				"x": 3.8918836855,
				"y": -2.2658480016,
				"z": -2.7822434148,
				"element": "H" 
			},
			{
				"x": 3.3562543124,
				"y": -3.8766217099,
				"z": -3.2943602714,
				"element": "H" 
			}
		],
		 "valence_orbital": [ 
			{
				"type": "occ",
				"energy": -0.29677,
				"method": "rhf"
			},
			{
				"type": "occ",
				"energy": -0.29494,
				"method": "rhf"
			},
			{
				"type": "occ",
				"energy": -0.27716,
				"method": "rhf"
			},
			{
				"type": "occ",
				"energy": -0.27021,
				"method": "rhf"
			},
			{
				"type": "occ",
				"energy": -0.26881,
				"method": "rhf"
			},
			{
				"type": "unocc",
				"energy": -0.05049,
				"method": "rhf"
			},
			{
				"type": "unocc",
				"energy": -0.02784,
				"method": "rhf"
			},
			{
				"type": "unocc",
				"energy": 0.08342,
				"method": "rhf"
			},
			{
				"type": "unocc",
				"energy": 0.08632,
				"method": "rhf"
			},
			{
				"type": "unocc",
				"energy": 0.10238,
				"method": "rhf"
			}
		],
		"cosmo_sigma_profile": { 
			"-0.025": 0.0,
			"-0.024": 0.0,
			"-0.023": 0.0,
			"-0.022": 0.0,
			"-0.021": 0.0,
			"-0.02": 0.0,
			"-0.019": 0.0,
			"-0.018": 0.238667567764,
			"-0.017": 1.0210814062,
			"-0.016": 0.527959843773,
			"-0.015": 0.61064157128,
			"-0.014": 1.00781959683,
			"-0.013": 0.956902540889,
			"-0.012": 1.0246534517,
			"-0.011": 0.550654559364,
			"-0.01": 0.543650693785,
			"-0.009": 1.12531364173,
			"-0.008": 1.70109989412,
			"-0.007": 1.77142589955,
			"-0.006": 6.32506127711,
			"-0.005": 14.3786494446,
			"-0.004": 26.5088917739,
			"-0.003": 30.031809462,
			"-0.002": 26.937495331,
			"-0.001": 25.976782333,
			"0.0": 28.9155558739,
			"0.001": 16.9813458434,
			"0.002": 9.5953431813,
			"0.003": 8.18287118011,
			"0.004": 6.83316443983,
			"0.005": 6.40260584753,
			"0.006": 6.33254917044,
			"0.007": 4.03074047649,
			"0.008": 3.732072769,
			"0.009": 3.92282494774,
			"0.01": 4.5547014863,
			"0.011": 8.42062432656,
			"0.012": 4.77986992893,
			"0.013": 2.53523864893,
			"0.014": 2.09787532463,
			"0.015": 0.19729482341,
			"0.016": 0.0,
			"0.017": 0.0,
			"0.018": 0.0,
			"0.019": 0.0,
			"0.02": 0.0,
			"0.021": 0.0,
			"0.022": 0.0,
			"0.023": 0.0,
			"0.024": 0.0,
			"0.025": 0.0
		}
	}
}
