{
	 "smiles": "CC1=NC(NC(=O)C2CCNCC2)=CC=C1", 
	 "Tm": 449.15, 
	 "num_atms": 33, 
	 "gaussian": { 
		 "optdone": 1, 
		 "sigma_profile": "yes", 
		 "theory": "DFT", 
		 "functional": "B3LYP", 
		 "basiset": "6-31G**", 
		 "properties": { 
			 "R2extent": 4611.5423, 
			 "electric_dipole_moment_norm": 5.01672411241, 
			 "electric_quadrupole_moment_norm": 9.49642476462, 
			 "total_energy": -707.017177491, 
			 "HOMO_LUMO_gap": 0.16854, 
			 "cosmo_polarized_energy": -13.86, 
			 "cosmo_cavitation_energy": 34.54, 
			 "cosmo_dispersion_energy": -24.58, 
			 "cosmo_repulsion_energy": 1.92, 
			 "cosmo_total_nonelectrostatic_energy": 11.89, 
			 "SMD_solvation_energy": 3.05 
		},
		"coords": [
			{
				"x": -2.7572102321,
				"y": 2.9592000164,
				"z": -0.4466019534,
				"element": "C" 
			},
			{
				"x": -1.3953420958,
				"y": 2.9504093584,
				"z": -1.0937695653,
				"element": "C" 
			},
			{
				"x": -0.759009711,
				"y": 1.7642758599,
				"z": -1.1059896774,
				"element": "N" 
			},
			{
				"x": 0.4472741107,
				"y": 1.6846401442,
				"z": -1.6684267943,
				"element": "C" 
			},
			{
				"x": 1.1256111431,
				"y": 0.4614908271,
				"z": -1.6885351351,
				"element": "N" 
			},
			{
				"x": 0.8130035314,
				"y": -0.8523679831,
				"z": -1.3214294518,
				"element": "C" 
			},
			{
				"x": 1.6805263001,
				"y": -1.6962844697,
				"z": -1.5045539573,
				"element": "O" 
			},
			{
				"x": -0.5370699086,
				"y": -1.1649916,
				"z": -0.6930493476,
				"element": "C" 
			},
			{
				"x": -0.4864500977,
				"y": -0.8441078089,
				"z": 0.8370220483,
				"element": "C" 
			},
			{
				"x": -0.1507065025,
				"y": -2.1132036718,
				"z": 1.6310620855,
				"element": "C" 
			},
			{
				"x": -1.1478992446,
				"y": -3.1853992946,
				"z": 1.4658208834,
				"element": "N" 
			},
			{
				"x": -1.8462444062,
				"y": -3.1616135951,
				"z": 0.1686540291,
				"element": "C" 
			},
			{
				"x": -0.9104859916,
				"y": -2.6480090616,
				"z": -0.9265000916,
				"element": "C" 
			},
			{
				"x": 1.0924681689,
				"y": 2.7974094307,
				"z": -2.2479912324,
				"element": "C" 
			},
			{
				"x": 0.4342330518,
				"y": 4.015866461,
				"z": -2.2247673073,
				"element": "C" 
			},
			{
				"x": -0.8329240199,
				"y": 4.1044980619,
				"z": -1.6405579743,
				"element": "C" 
			},
			{
				"x": -3.4311677574,
				"y": 2.2701789185,
				"z": -0.9666674379,
				"element": "H" 
			},
			{
				"x": -2.68776135,
				"y": 2.6168160129,
				"z": 0.5910925848,
				"element": "H" 
			},
			{
				"x": -3.2033618046,
				"y": 3.9566119033,
				"z": -0.4568219793,
				"element": "H" 
			},
			{
				"x": 2.0599727802,
				"y": 0.4926901699,
				"z": -2.078165109,
				"element": "H" 
			},
			{
				"x": -1.2810799091,
				"y": -0.5050954189,
				"z": -1.1403546879,
				"element": "H" 
			},
			{
				"x": -1.4628945654,
				"y": -0.4578470183,
				"z": 1.1504759947,
				"element": "H" 
			},
			{
				"x": 0.2383917868,
				"y": -0.0504144227,
				"z": 1.046293795,
				"element": "H" 
			},
			{
				"x": -0.0613042224,
				"y": -1.8876293677,
				"z": 2.699153412,
				"element": "H" 
			},
			{
				"x": 0.8334378813,
				"y": -2.4796708498,
				"z": 1.3093622804,
				"element": "H" 
			},
			{
				"x": -1.8312780772,
				"y": -3.129202142,
				"z": 2.2136826326,
				"element": "H" 
			},
			{
				"x": -2.1807051782,
				"y": -4.1783248737,
				"z": -0.0741247539,
				"element": "H" 
			},
			{
				"x": -2.7537477456,
				"y": -2.5301355849,
				"z": 0.1840998757,
				"element": "H" 
			},
			{
				"x": -1.3860024803,
				"y": -2.7633729477,
				"z": -1.9064798976,
				"element": "H" 
			},
			{
				"x": -0.0008624283,
				"y": -3.2543508659,
				"z": -0.9411759734,
				"element": "H" 
			},
			{
				"x": 2.0746288831,
				"y": 2.6953655259,
				"z": -2.6994861911,
				"element": "H" 
			},
			{
				"x": 0.9016810219,
				"y": 4.8941243345,
				"z": -2.6608265121,
				"element": "H" 
			},
			{
				"x": -1.3704209307,
				"y": 5.046043952,
				"z": -1.6093445916,
				"element": "H" 
			}
		],
		 "valence_orbital": [ 
			{
				"type": "occ",
				"energy": -0.28466,
				"method": "rhf"
			},
			{
				"type": "occ",
				"energy": -0.26464,
				"method": "rhf"
			},
			{
				"type": "occ",
				"energy": -0.25077,
				"method": "rhf"
			},
			{
				"type": "occ",
				"energy": -0.22865,
				"method": "rhf"
			},
			{
				"type": "occ",
				"energy": -0.20022,
				"method": "rhf"
			},
			{
				"type": "unocc",
				"energy": -0.03168,
				"method": "rhf"
			},
			{
				"type": "unocc",
				"energy": -0.0167,
				"method": "rhf"
			},
			{
				"type": "unocc",
				"energy": 0.03768,
				"method": "rhf"
			},
			{
				"type": "unocc",
				"energy": 0.07624,
				"method": "rhf"
			},
			{
				"type": "unocc",
				"energy": 0.08257,
				"method": "rhf"
			}
		],
		"cosmo_sigma_profile": { 
			"-0.025": 0.0,
			"-0.024": 0.0,
			"-0.023": 0.0,
			"-0.022": 0.0,
			"-0.021": 0.0,
			"-0.02": 0.0,
			"-0.019": 0.0,
			"-0.018": 0.0,
			"-0.017": 0.0,
			"-0.016": 0.0,
			"-0.015": 0.0773886623638,
			"-0.014": 0.931334309484,
			"-0.013": 1.41178384976,
			"-0.012": 0.924350864002,
			"-0.011": 1.04033625669,
			"-0.01": 1.22800752999,
			"-0.009": 2.68928436433,
			"-0.008": 2.98676867194,
			"-0.007": 4.66938554314,
			"-0.006": 8.44161043436,
			"-0.005": 11.1926578063,
			"-0.004": 16.0293335056,
			"-0.003": 22.3673533467,
			"-0.002": 33.3615758806,
			"-0.001": 31.9521011786,
			"0.0": 30.9873574982,
			"0.001": 21.3829320772,
			"0.002": 17.0146711057,
			"0.003": 15.4690281685,
			"0.004": 10.8015954159,
			"0.005": 5.39881564993,
			"0.006": 4.56753224099,
			"0.007": 3.7756005688,
			"0.008": 2.39998596999,
			"0.009": 2.22266052987,
			"0.01": 2.03550739521,
			"0.011": 2.32538517346,
			"0.012": 3.7038670958,
			"0.013": 5.24839804445,
			"0.014": 1.15118704321,
			"0.015": 0.41788506169,
			"0.016": 0.845704689523,
			"0.017": 0.52190506523,
			"0.018": 0.506727602933,
			"0.019": 0.337979240226,
			"0.02": 0.0580175843992,
			"0.021": 0.0,
			"0.022": 0.0,
			"0.023": 0.0,
			"0.024": 0.0,
			"0.025": 0.0
		}
	}
}
