{
	 "smiles": "CS(=O)(=O)C1=CC=C2N=C(N)SC2=C1", 
	 "Tm": 495.15, 
	 "num_atms": 22, 
	 "gaussian": { 
		 "optdone": 1, 
		 "sigma_profile": "yes", 
		 "theory": "DFT", 
		 "functional": "B3LYP", 
		 "basiset": "6-31G**", 
		 "properties": { 
			 "R2extent": 4725.9024, 
			 "electric_dipole_moment_norm": 7.25810657472, 
			 "electric_quadrupole_moment_norm": 23.8612043701, 
			 "total_energy": -1365.94849666, 
			 "HOMO_LUMO_gap": 0.18924, 
			 "cosmo_polarized_energy": -21.35, 
			 "cosmo_cavitation_energy": 29.47, 
			 "cosmo_dispersion_energy": -22.73, 
			 "cosmo_repulsion_energy": 1.69, 
			 "cosmo_total_nonelectrostatic_energy": 8.44, 
			 "SMD_solvation_energy": 2.57 
		},
		"coords": [
			{
				"x": -0.8847669514,
				"y": 0.2665550454,
				"z": -3.7519843592,
				"element": "C" 
			},
			{
				"x": -1.8201564878,
				"y": 1.1736371708,
				"z": -2.4956344284,
				"element": "S" 
			},
			{
				"x": -1.426439595,
				"y": 2.5876746788,
				"z": -2.5966489197,
				"element": "O" 
			},
			{
				"x": -3.2286289133,
				"y": 0.7636497262,
				"z": -2.6194840318,
				"element": "O" 
			},
			{
				"x": -1.1913614496,
				"y": 0.5270432983,
				"z": -0.9436009747,
				"element": "C" 
			},
			{
				"x": -0.0413210256,
				"y": 1.0968410587,
				"z": -0.3766260277,
				"element": "C" 
			},
			{
				"x": 0.4647679135,
				"y": 0.5983741124,
				"z": 0.8181067845,
				"element": "C" 
			},
			{
				"x": -0.1870246369,
				"y": -0.4707350598,
				"z": 1.4507281338,
				"element": "C" 
			},
			{
				"x": 0.2184663877,
				"y": -1.0563004427,
				"z": 2.6342174917,
				"element": "N" 
			},
			{
				"x": -0.594066825,
				"y": -2.0099855956,
				"z": 2.9766617909,
				"element": "C" 
			},
			{
				"x": -0.4786122679,
				"y": -2.7295108738,
				"z": 4.1282149098,
				"element": "N" 
			},
			{
				"x": -1.9729789733,
				"y": -2.3139833446,
				"z": 1.8784232002,
				"element": "S" 
			},
			{
				"x": -1.3577412398,
				"y": -1.0156238843,
				"z": 0.8585982228,
				"element": "C" 
			},
			{
				"x": -1.8736290439,
				"y": -0.5298158846,
				"z": -0.3364636155,
				"element": "C" 
			},
			{
				"x": 0.178790406,
				"y": 0.4751653939,
				"z": -3.6287914656,
				"element": "H" 
			},
			{
				"x": -1.2348765679,
				"y": 0.6340677815,
				"z": -4.7188668064,
				"element": "H" 
			},
			{
				"x": -1.0910843058,
				"y": -0.7999731045,
				"z": -3.6529475391,
				"element": "H" 
			},
			{
				"x": 0.4301399048,
				"y": 1.9412246349,
				"z": -0.8678862728,
				"element": "H" 
			},
			{
				"x": 1.3485631815,
				"y": 1.0264365611,
				"z": 1.2785731609,
				"element": "H" 
			},
			{
				"x": -0.9090747334,
				"y": -3.6393859421,
				"z": 4.184072031,
				"element": "H" 
			},
			{
				"x": 0.4013876574,
				"y": -2.6212901443,
				"z": 4.6128485489,
				"element": "H" 
			},
			{
				"x": -2.7789524343,
				"y": -0.9222651856,
				"z": -0.7863098335,
				"element": "H" 
			}
		],
		 "valence_orbital": [ 
			{
				"type": "occ",
				"energy": -0.29209,
				"method": "rhf"
			},
			{
				"type": "occ",
				"energy": -0.28893,
				"method": "rhf"
			},
			{
				"type": "occ",
				"energy": -0.28207,
				"method": "rhf"
			},
			{
				"type": "occ",
				"energy": -0.24979,
				"method": "rhf"
			},
			{
				"type": "occ",
				"energy": -0.23187,
				"method": "rhf"
			},
			{
				"type": "unocc",
				"energy": -0.04263,
				"method": "rhf"
			},
			{
				"type": "unocc",
				"energy": -0.02061,
				"method": "rhf"
			},
			{
				"type": "unocc",
				"energy": -0.01365,
				"method": "rhf"
			},
			{
				"type": "unocc",
				"energy": 0.0205,
				"method": "rhf"
			},
			{
				"type": "unocc",
				"energy": 0.05243,
				"method": "rhf"
			}
		],
		"cosmo_sigma_profile": { 
			"-0.025": 0.0,
			"-0.024": 0.0,
			"-0.023": 0.0,
			"-0.022": 0.0,
			"-0.021": 0.0,
			"-0.02": 0.0,
			"-0.019": 0.0,
			"-0.018": 0.0,
			"-0.017": 0.0,
			"-0.016": 0.441563623317,
			"-0.015": 1.92876590661,
			"-0.014": 2.89107736645,
			"-0.013": 2.71710465312,
			"-0.012": 2.33354464908,
			"-0.011": 2.71471200487,
			"-0.01": 2.48786300943,
			"-0.009": 3.23127013439,
			"-0.008": 8.77054027431,
			"-0.007": 11.2502750282,
			"-0.006": 12.5693980426,
			"-0.005": 12.881616337,
			"-0.004": 13.9864202551,
			"-0.003": 11.4807018119,
			"-0.002": 8.48860440091,
			"-0.001": 12.0912344104,
			"0.0": 14.2413935829,
			"0.001": 17.0088942252,
			"0.002": 21.3975625828,
			"0.003": 15.2514672305,
			"0.004": 8.15524482177,
			"0.005": 5.42450255889,
			"0.006": 4.28300244025,
			"0.007": 5.2151788956,
			"0.008": 4.51351232912,
			"0.009": 3.59524592126,
			"0.01": 5.03979298529,
			"0.011": 9.91218136076,
			"0.012": 10.3575540923,
			"0.013": 2.43610495282,
			"0.014": 0.876824295581,
			"0.015": 0.215324373399,
			"0.016": 0.0,
			"0.017": 0.0,
			"0.018": 0.0,
			"0.019": 0.0,
			"0.02": 0.0,
			"0.021": 0.0,
			"0.022": 0.0,
			"0.023": 0.0,
			"0.024": 0.0,
			"0.025": 0.0
		}
	}
}
