{
	 "smiles": "OC(=O)COC1=CC=CC(=C1)[N+]([O-])=O", 
	 "Tm": 431.15, 
	 "num_atms": 21, 
	 "gaussian": { 
		 "optdone": 1, 
		 "sigma_profile": "yes", 
		 "theory": "DFT", 
		 "functional": "B3LYP", 
		 "basiset": "6-31G**", 
		 "properties": { 
			 "R2extent": 4614.0513, 
			 "electric_dipole_moment_norm": 2.04894333987, 
			 "electric_quadrupole_moment_norm": 32.8061121851, 
			 "total_energy": -739.831996507, 
			 "HOMO_LUMO_gap": 0.16523, 
			 "cosmo_polarized_energy": -17.12, 
			 "cosmo_cavitation_energy": 26.88, 
			 "cosmo_dispersion_energy": -19.53, 
			 "cosmo_repulsion_energy": 1.54, 
			 "cosmo_total_nonelectrostatic_energy": 8.89, 
			 "SMD_solvation_energy": 8.39 
		},
		"coords": [
			{
				"x": 0.9043618074,
				"y": 1.2523069109,
				"z": -0.8946981194,
				"element": "O" 
			},
			{
				"x": 0.6680554213,
				"y": 0.3443148842,
				"z": -1.8596368143,
				"element": "C" 
			},
			{
				"x": 0.2621225606,
				"y": 0.6420764289,
				"z": -2.9541133108,
				"element": "O" 
			},
			{
				"x": 1.0056399778,
				"y": -1.1014823805,
				"z": -1.4759040519,
				"element": "C" 
			},
			{
				"x": 1.0421788798,
				"y": -1.3049540814,
				"z": -0.0645193603,
				"element": "O" 
			},
			{
				"x": -0.1429416494,
				"y": -1.5557941659,
				"z": 0.5930929253,
				"element": "C" 
			},
			{
				"x": -1.4132769335,
				"y": -1.3686707612,
				"z": 0.0347105973,
				"element": "C" 
			},
			{
				"x": -2.5499140747,
				"y": -1.6454696221,
				"z": 0.8013519288,
				"element": "C" 
			},
			{
				"x": -2.4410422538,
				"y": -2.09940198,
				"z": 2.1119924517,
				"element": "C" 
			},
			{
				"x": -1.1606496743,
				"y": -2.2689389241,
				"z": 2.6372064378,
				"element": "C" 
			},
			{
				"x": -0.0080786866,
				"y": -2.0097407834,
				"z": 1.9074436117,
				"element": "C" 
			},
			{
				"x": -1.0156970005,
				"y": -2.7497014939,
				"z": 4.0252012235,
				"element": "N" 
			},
			{
				"x": 0.1244601163,
				"y": -2.8862603678,
				"z": 4.4649505522,
				"element": "O" 
			},
			{
				"x": -2.0458362076,
				"y": -2.9827598327,
				"z": 4.65432278,
				"element": "O" 
			},
			{
				"x": 1.2136667914,
				"y": 0.7843000944,
				"z": -0.0998599174,
				"element": "H" 
			},
			{
				"x": 2.0168515844,
				"y": -1.3214727348,
				"z": -1.8319320006,
				"element": "H" 
			},
			{
				"x": 0.3105449253,
				"y": -1.7805903967,
				"z": -1.9759962174,
				"element": "H" 
			},
			{
				"x": -1.5344326637,
				"y": -1.0007211367,
				"z": -0.9776428057,
				"element": "H" 
			},
			{
				"x": -3.531397175,
				"y": -1.4962104084,
				"z": 0.3632918628,
				"element": "H" 
			},
			{
				"x": -3.3068756422,
				"y": -2.3172907144,
				"z": 2.7230389617,
				"element": "H" 
			},
			{
				"x": 0.9697598971,
				"y": -2.1607385341,
				"z": 2.345699265,
				"element": "H" 
			}
		],
		 "valence_orbital": [ 
			{
				"type": "occ",
				"energy": -0.31621,
				"method": "rhf"
			},
			{
				"type": "occ",
				"energy": -0.30022,
				"method": "rhf"
			},
			{
				"type": "occ",
				"energy": -0.29612,
				"method": "rhf"
			},
			{
				"type": "occ",
				"energy": -0.29264,
				"method": "rhf"
			},
			{
				"type": "occ",
				"energy": -0.26421,
				"method": "rhf"
			},
			{
				"type": "unocc",
				"energy": -0.09898,
				"method": "rhf"
			},
			{
				"type": "unocc",
				"energy": -0.0361,
				"method": "rhf"
			},
			{
				"type": "unocc",
				"energy": -0.01283,
				"method": "rhf"
			},
			{
				"type": "unocc",
				"energy": -0.00706,
				"method": "rhf"
			},
			{
				"type": "unocc",
				"energy": 0.05839,
				"method": "rhf"
			}
		],
		"cosmo_sigma_profile": { 
			"-0.025": 0.0,
			"-0.024": 0.0,
			"-0.023": 0.0,
			"-0.022": 0.0,
			"-0.021": 0.0,
			"-0.02": 0.0,
			"-0.019": 0.0,
			"-0.018": 0.0,
			"-0.017": 0.106759752632,
			"-0.016": 0.732713551358,
			"-0.015": 0.410275673949,
			"-0.014": 0.615990686714,
			"-0.013": 1.19013941877,
			"-0.012": 0.773089919584,
			"-0.011": 1.62741671816,
			"-0.01": 4.1798344615,
			"-0.009": 6.40319347132,
			"-0.008": 8.02553837668,
			"-0.007": 12.574083928,
			"-0.006": 12.1793212272,
			"-0.005": 11.3264813658,
			"-0.004": 9.54615492232,
			"-0.003": 10.6362169959,
			"-0.002": 11.1895196581,
			"-0.001": 13.8659355858,
			"0.0": 17.0034274579,
			"0.001": 12.5318436764,
			"0.002": 10.2054564427,
			"0.003": 6.61841730703,
			"0.004": 4.66144252503,
			"0.005": 5.56791173934,
			"0.006": 7.45682945111,
			"0.007": 11.7146881836,
			"0.008": 10.2743623777,
			"0.009": 8.74221978054,
			"0.01": 6.01973495173,
			"0.011": 5.29024415676,
			"0.012": 3.71437058791,
			"0.013": 0.358131522529,
			"0.014": 0.0,
			"0.015": 0.0,
			"0.016": 0.0,
			"0.017": 0.0,
			"0.018": 0.0,
			"0.019": 0.0,
			"0.02": 0.0,
			"0.021": 0.0,
			"0.022": 0.0,
			"0.023": 0.0,
			"0.024": 0.0,
			"0.025": 0.0
		}
	}
}
