{
	 "smiles": "CC(=O)C(=C/N)C1=CC=CC=C1", 
	 "Tm": 370.15, 
	 "num_atms": 23, 
	 "gaussian": { 
		 "optdone": 1, 
		 "sigma_profile": "yes", 
		 "theory": "DFT", 
		 "functional": "B3LYP", 
		 "basiset": "6-31G**", 
		 "properties": { 
			 "R2extent": 2636.2164, 
			 "electric_dipole_moment_norm": 2.49864026622, 
			 "electric_quadrupole_moment_norm": 11.2684374387, 
			 "total_energy": -517.670881647, 
			 "HOMO_LUMO_gap": 0.17455, 
			 "cosmo_polarized_energy": -10.72, 
			 "cosmo_cavitation_energy": 26.4, 
			 "cosmo_dispersion_energy": -19.21, 
			 "cosmo_repulsion_energy": 1.55, 
			 "cosmo_total_nonelectrostatic_energy": 8.74, 
			 "SMD_solvation_energy": 5.29 
		},
		"coords": [
			{
				"x": -2.0395777507,
				"y": -0.96203976,
				"z": -0.8722139112,
				"element": "C" 
			},
			{
				"x": -0.5852585343,
				"y": -0.7614689614,
				"z": -1.2711641045,
				"element": "C" 
			},
			{
				"x": -0.0478870141,
				"y": -1.6348526576,
				"z": -1.9778986999,
				"element": "O" 
			},
			{
				"x": 0.1308603074,
				"y": 0.4415776986,
				"z": -0.8503332103,
				"element": "C" 
			},
			{
				"x": 1.422498947,
				"y": 0.647023606,
				"z": -1.2983241076,
				"element": "C" 
			},
			{
				"x": 2.1206872583,
				"y": -0.1792506361,
				"z": -2.0936578532,
				"element": "N" 
			},
			{
				"x": -0.4776166196,
				"y": 1.4888873788,
				"z": 0.0177382217,
				"element": "C" 
			},
			{
				"x": -0.5146688475,
				"y": 2.8315810776,
				"z": -0.3991459321,
				"element": "C" 
			},
			{
				"x": -1.0409223788,
				"y": 3.8305036186,
				"z": 0.4211614356,
				"element": "C" 
			},
			{
				"x": -1.5589869015,
				"y": 3.5074435328,
				"z": 1.6759499528,
				"element": "C" 
			},
			{
				"x": -1.5363090847,
				"y": 2.1784310503,
				"z": 2.1050229628,
				"element": "C" 
			},
			{
				"x": -0.9957804636,
				"y": 1.1848515584,
				"z": 1.2896644394,
				"element": "C" 
			},
			{
				"x": -2.6020727679,
				"y": -0.0254576828,
				"z": -0.8545310216,
				"element": "H" 
			},
			{
				"x": -2.1030973546,
				"y": -1.3998820706,
				"z": 0.1306372694,
				"element": "H" 
			},
			{
				"x": -2.4910154778,
				"y": -1.6643794926,
				"z": -1.5752134688,
				"element": "H" 
			},
			{
				"x": 1.9430225026,
				"y": 1.5512349367,
				"z": -0.9885244981,
				"element": "H" 
			},
			{
				"x": 3.0700896924,
				"y": 0.0278022766,
				"z": -2.3524434043,
				"element": "H" 
			},
			{
				"x": 1.6464900872,
				"y": -1.0402478029,
				"z": -2.3662313331,
				"element": "H" 
			},
			{
				"x": -0.1396560609,
				"y": 3.0865311248,
				"z": -1.3868809919,
				"element": "H" 
			},
			{
				"x": -1.0575111307,
				"y": 4.8598096395,
				"z": 0.0730959674,
				"element": "H" 
			},
			{
				"x": -1.9762966446,
				"y": 4.2818542094,
				"z": 2.3131216281,
				"element": "H" 
			},
			{
				"x": -1.9279002277,
				"y": 1.916141866,
				"z": 3.0841505344,
				"element": "H" 
			},
			{
				"x": -0.9544915358,
				"y": 0.16080549,
				"z": 1.6493201252,
				"element": "H" 
			}
		],
		 "valence_orbital": [ 
			{
				"type": "occ",
				"energy": -0.32717,
				"method": "rhf"
			},
			{
				"type": "occ",
				"energy": -0.25776,
				"method": "rhf"
			},
			{
				"type": "occ",
				"energy": -0.24661,
				"method": "rhf"
			},
			{
				"type": "occ",
				"energy": -0.23166,
				"method": "rhf"
			},
			{
				"type": "occ",
				"energy": -0.20244,
				"method": "rhf"
			},
			{
				"type": "unocc",
				"energy": -0.02789,
				"method": "rhf"
			},
			{
				"type": "unocc",
				"energy": -0.00113,
				"method": "rhf"
			},
			{
				"type": "unocc",
				"energy": 0.00228,
				"method": "rhf"
			},
			{
				"type": "unocc",
				"energy": 0.07922,
				"method": "rhf"
			},
			{
				"type": "unocc",
				"energy": 0.08755,
				"method": "rhf"
			}
		],
		"cosmo_sigma_profile": { 
			"-0.025": 0.0,
			"-0.024": 0.0,
			"-0.023": 0.0,
			"-0.022": 0.0,
			"-0.021": 0.0,
			"-0.02": 0.0,
			"-0.019": 0.0,
			"-0.018": 0.0,
			"-0.017": 0.0,
			"-0.016": 0.0,
			"-0.015": 0.619330674028,
			"-0.014": 1.47127352389,
			"-0.013": 1.39915523825,
			"-0.012": 1.73691873748,
			"-0.011": 0.973140898209,
			"-0.01": 1.28932936139,
			"-0.009": 2.31218748588,
			"-0.008": 3.09590665191,
			"-0.007": 2.81336192188,
			"-0.006": 5.47333432924,
			"-0.005": 14.321164982,
			"-0.004": 17.0446790799,
			"-0.003": 17.8049949093,
			"-0.002": 14.7860354919,
			"-0.001": 15.5339892453,
			"0.0": 16.8817474305,
			"0.001": 13.7625430515,
			"0.002": 11.3214761243,
			"0.003": 13.5601430874,
			"0.004": 15.094252605,
			"0.005": 12.7943972888,
			"0.006": 9.23991578182,
			"0.007": 3.97814202193,
			"0.008": 1.48230384836,
			"0.009": 1.13783558199,
			"0.01": 1.55672087538,
			"0.011": 1.82277825406,
			"0.012": 1.84018376178,
			"0.013": 1.66581208546,
			"0.014": 1.67555495006,
			"0.015": 1.18878116832,
			"0.016": 0.0241803078844,
			"0.017": 0.0,
			"0.018": 0.0,
			"0.019": 0.0,
			"0.02": 0.0,
			"0.021": 0.0,
			"0.022": 0.0,
			"0.023": 0.0,
			"0.024": 0.0,
			"0.025": 0.0
		}
	}
}
