{
	 "smiles": "CC1=CC(=O)N(C1=O)C1=C(C=CC=C1)C(O)=O", 
	 "Tm": 437.15, 
	 "num_atms": 26, 
	 "gaussian": { 
		 "optdone": 1, 
		 "sigma_profile": "yes", 
		 "theory": "DFT", 
		 "functional": "B3LYP", 
		 "basiset": "6-31G**", 
		 "properties": { 
			 "R2extent": 3877.6995, 
			 "electric_dipole_moment_norm": 5.26311961578, 
			 "electric_quadrupole_moment_norm": 24.7094740092, 
			 "total_energy": -818.362012244, 
			 "HOMO_LUMO_gap": 0.15603, 
			 "cosmo_polarized_energy": -19.96, 
			 "cosmo_cavitation_energy": 31.4, 
			 "cosmo_dispersion_energy": -21.88, 
			 "cosmo_repulsion_energy": 1.69, 
			 "cosmo_total_nonelectrostatic_energy": 11.22, 
			 "SMD_solvation_energy": 8.27 
		},
		"coords": [
			{
				"x": 1.4072665993,
				"y": -0.7300313706,
				"z": -3.066499448,
				"element": "C" 
			},
			{
				"x": 1.1072288952,
				"y": 0.080099376,
				"z": -1.8538428827,
				"element": "C" 
			},
			{
				"x": 1.5913453276,
				"y": 1.2579651544,
				"z": -1.4312514061,
				"element": "C" 
			},
			{
				"x": 0.9515230741,
				"y": 1.6388837573,
				"z": -0.1407504483,
				"element": "C" 
			},
			{
				"x": 1.0991966867,
				"y": 2.6521220814,
				"z": 0.5046826647,
				"element": "O" 
			},
			{
				"x": 0.1057917009,
				"y": 0.5489959973,
				"z": 0.2176073904,
				"element": "N" 
			},
			{
				"x": 0.0914841901,
				"y": -0.3934152506,
				"z": -0.8460194703,
				"element": "C" 
			},
			{
				"x": -0.6106853785,
				"y": -1.3745600924,
				"z": -0.9112465853,
				"element": "O" 
			},
			{
				"x": -0.9029662036,
				"y": 0.6005768719,
				"z": 1.2364990118,
				"element": "C" 
			},
			{
				"x": -1.0340207493,
				"y": -0.4329885592,
				"z": 2.1844181178,
				"element": "C" 
			},
			{
				"x": -2.0931548154,
				"y": -0.3659049163,
				"z": 3.1011253998,
				"element": "C" 
			},
			{
				"x": -2.9682311401,
				"y": 0.7147387149,
				"z": 3.1156158724,
				"element": "C" 
			},
			{
				"x": -2.8076554792,
				"y": 1.7482615703,
				"z": 2.190774746,
				"element": "C" 
			},
			{
				"x": -1.7880602807,
				"y": 1.682663873,
				"z": 1.2448176771,
				"element": "C" 
			},
			{
				"x": -0.1241423798,
				"y": -1.6279740747,
				"z": 2.331543538,
				"element": "C" 
			},
			{
				"x": 1.1417691595,
				"y": -1.5144697656,
				"z": 1.86454126,
				"element": "O" 
			},
			{
				"x": -0.4737492835,
				"y": -2.6385922478,
				"z": 2.8935398804,
				"element": "O" 
			},
			{
				"x": 0.4874442837,
				"y": -0.9336183142,
				"z": -3.624968646,
				"element": "H" 
			},
			{
				"x": 2.1201426448,
				"y": -0.223702786,
				"z": -3.7201516443,
				"element": "H" 
			},
			{
				"x": 1.8169392764,
				"y": -1.7052087859,
				"z": -2.7802237953,
				"element": "H" 
			},
			{
				"x": 2.3319789839,
				"y": 1.8923153249,
				"z": -1.9012235167,
				"element": "H" 
			},
			{
				"x": -2.1985830363,
				"y": -1.1849326249,
				"z": 3.8036692575,
				"element": "H" 
			},
			{
				"x": -3.7717539662,
				"y": 0.7518895422,
				"z": 3.8445375109,
				"element": "H" 
			},
			{
				"x": -3.4830209746,
				"y": 2.5983030063,
				"z": 2.1931214619,
				"element": "H" 
			},
			{
				"x": -1.6700894528,
				"y": 2.4693567421,
				"z": 0.5083945259,
				"element": "H" 
			},
			{
				"x": 1.2676023177,
				"y": -0.6368732236,
				"z": 1.4726895284,
				"element": "H" 
			}
		],
		 "valence_orbital": [ 
			{
				"type": "occ",
				"energy": -0.30737,
				"method": "rhf"
			},
			{
				"type": "occ",
				"energy": -0.28698,
				"method": "rhf"
			},
			{
				"type": "occ",
				"energy": -0.27777,
				"method": "rhf"
			},
			{
				"type": "occ",
				"energy": -0.26491,
				"method": "rhf"
			},
			{
				"type": "occ",
				"energy": -0.26341,
				"method": "rhf"
			},
			{
				"type": "unocc",
				"energy": -0.10738,
				"method": "rhf"
			},
			{
				"type": "unocc",
				"energy": -0.05285,
				"method": "rhf"
			},
			{
				"type": "unocc",
				"energy": -0.02711,
				"method": "rhf"
			},
			{
				"type": "unocc",
				"energy": 0.02974,
				"method": "rhf"
			},
			{
				"type": "unocc",
				"energy": 0.04789,
				"method": "rhf"
			}
		],
		"cosmo_sigma_profile": { 
			"-0.025": 0.0,
			"-0.024": 0.0,
			"-0.023": 0.0,
			"-0.022": 0.0,
			"-0.021": 0.0,
			"-0.02": 0.0,
			"-0.019": 0.0,
			"-0.018": 0.0,
			"-0.017": 0.0,
			"-0.016": 0.229238005187,
			"-0.015": 1.63179124949,
			"-0.014": 1.36555578417,
			"-0.013": 1.04621276251,
			"-0.012": 1.02844861999,
			"-0.011": 0.818045202784,
			"-0.01": 1.1880409521,
			"-0.009": 3.31920094233,
			"-0.008": 5.92533369617,
			"-0.007": 12.2415951274,
			"-0.006": 20.0973026367,
			"-0.005": 19.1433581629,
			"-0.004": 15.8588662718,
			"-0.003": 16.4996452294,
			"-0.002": 19.5807973207,
			"-0.001": 14.9999454288,
			"0.0": 10.3061140127,
			"0.001": 10.2037781451,
			"0.002": 17.0417777342,
			"0.003": 12.1005383619,
			"0.004": 7.60623983478,
			"0.005": 5.43820396764,
			"0.006": 6.55003433297,
			"0.007": 5.234273613,
			"0.008": 7.65969661482,
			"0.009": 8.71413576914,
			"0.01": 13.3578511143,
			"0.011": 8.41447655452,
			"0.012": 3.89714898436,
			"0.013": 0.831652118981,
			"0.014": 0.0,
			"0.015": 0.0,
			"0.016": 0.0,
			"0.017": 0.0,
			"0.018": 0.0,
			"0.019": 0.0,
			"0.02": 0.0,
			"0.021": 0.0,
			"0.022": 0.0,
			"0.023": 0.0,
			"0.024": 0.0,
			"0.025": 0.0
		}
	}
}
