{
	 "smiles": "CC1=C(SC(=N1)C1=CC(F)=C(F)C=C1)C(O)=O", 
	 "Tm": 483.15, 
	 "num_atms": 24, 
	 "gaussian": { 
		 "optdone": 1, 
		 "sigma_profile": "yes", 
		 "theory": "DFT", 
		 "functional": "B3LYP", 
		 "basiset": "6-31G**", 
		 "properties": { 
			 "R2extent": 6395.5005, 
			 "electric_dipole_moment_norm": 3.53352124941, 
			 "electric_quadrupole_moment_norm": 23.321012865, 
			 "total_energy": -1226.44876684, 
			 "HOMO_LUMO_gap": 0.15179, 
			 "cosmo_polarized_energy": -14.12, 
			 "cosmo_cavitation_energy": 31.94, 
			 "cosmo_dispersion_energy": -23.62, 
			 "cosmo_repulsion_energy": 1.72, 
			 "cosmo_total_nonelectrostatic_energy": 10.04, 
			 "SMD_solvation_energy": 6.12 
		},
		"coords": [
			{
				"x": 1.6332762746,
				"y": -1.2082597174,
				"z": 2.5940993326,
				"element": "C" 
			},
			{
				"x": 0.6819992854,
				"y": -0.7254482293,
				"z": 1.5399918753,
				"element": "C" 
			},
			{
				"x": -0.4808120144,
				"y": -1.3605773712,
				"z": 1.1330775192,
				"element": "C" 
			},
			{
				"x": -1.2552996648,
				"y": -0.4165563788,
				"z": -0.121429761,
				"element": "S" 
			},
			{
				"x": 0.0454859133,
				"y": 0.7613618218,
				"z": -0.0020737928,
				"element": "C" 
			},
			{
				"x": 0.9497339514,
				"y": 0.450647662,
				"z": 0.893047796,
				"element": "N" 
			},
			{
				"x": 0.0998767632,
				"y": 1.9694749589,
				"z": -0.8305095654,
				"element": "C" 
			},
			{
				"x": 1.1862842355,
				"y": 2.8474292755,
				"z": -0.6564909034,
				"element": "C" 
			},
			{
				"x": 1.2663470807,
				"y": 3.995377824,
				"z": -1.4226678712,
				"element": "C" 
			},
			{
				"x": 2.2935317038,
				"y": 4.8450997977,
				"z": -1.2722898023,
				"element": "F" 
			},
			{
				"x": 0.2803196812,
				"y": 4.2926114915,
				"z": -2.3673468245,
				"element": "C" 
			},
			{
				"x": 0.3895653651,
				"y": 5.4137805448,
				"z": -3.0925976816,
				"element": "F" 
			},
			{
				"x": -0.7966439358,
				"y": 3.434894263,
				"z": -2.5488874086,
				"element": "C" 
			},
			{
				"x": -0.8862165584,
				"y": 2.2755886377,
				"z": -1.7816083051,
				"element": "C" 
			},
			{
				"x": -0.9994607956,
				"y": -2.635765056,
				"z": 1.66518323,
				"element": "C" 
			},
			{
				"x": -2.1612036585,
				"y": -3.1172823606,
				"z": 1.1464651606,
				"element": "O" 
			},
			{
				"x": -0.4305573693,
				"y": -3.2593638503,
				"z": 2.5340734509,
				"element": "O" 
			},
			{
				"x": 1.1264474866,
				"y": -1.3220920365,
				"z": 3.5561641024,
				"element": "H" 
			},
			{
				"x": 2.0284915937,
				"y": -2.1959909812,
				"z": 2.3419368331,
				"element": "H" 
			},
			{
				"x": 2.4530883321,
				"y": -0.4949071327,
				"z": 2.6897420801,
				"element": "H" 
			},
			{
				"x": 1.9556544839,
				"y": 2.625792083,
				"z": 0.0732481729,
				"element": "H" 
			},
			{
				"x": -1.5491344304,
				"y": 3.6868441501,
				"z": -3.2878518444,
				"element": "H" 
			},
			{
				"x": -1.731824519,
				"y": 1.6115171806,
				"z": -1.9307563417,
				"element": "H" 
			},
			{
				"x": -2.5237492042,
				"y": -2.5385765763,
				"z": 0.4610805488,
				"element": "H" 
			}
		],
		 "valence_orbital": [ 
			{
				"type": "occ",
				"energy": -0.29622,
				"method": "rhf"
			},
			{
				"type": "occ",
				"energy": -0.29083,
				"method": "rhf"
			},
			{
				"type": "occ",
				"energy": -0.28187,
				"method": "rhf"
			},
			{
				"type": "occ",
				"energy": -0.27619,
				"method": "rhf"
			},
			{
				"type": "occ",
				"energy": -0.2407,
				"method": "rhf"
			},
			{
				"type": "unocc",
				"energy": -0.08891,
				"method": "rhf"
			},
			{
				"type": "unocc",
				"energy": -0.03317,
				"method": "rhf"
			},
			{
				"type": "unocc",
				"energy": -0.02228,
				"method": "rhf"
			},
			{
				"type": "unocc",
				"energy": -0.02065,
				"method": "rhf"
			},
			{
				"type": "unocc",
				"energy": 0.0321,
				"method": "rhf"
			}
		],
		"cosmo_sigma_profile": { 
			"-0.025": 0.0,
			"-0.024": 0.0,
			"-0.023": 0.0,
			"-0.022": 0.0,
			"-0.021": 0.0,
			"-0.02": 0.0,
			"-0.019": 0.0832314387994,
			"-0.018": 0.587792953466,
			"-0.017": 0.724579096407,
			"-0.016": 1.26961254972,
			"-0.015": 0.705528681434,
			"-0.014": 0.872191834699,
			"-0.013": 0.667062845579,
			"-0.012": 1.39128895226,
			"-0.011": 1.32612167957,
			"-0.01": 0.620917632634,
			"-0.009": 1.98302891615,
			"-0.008": 5.82136029083,
			"-0.007": 5.89289215089,
			"-0.006": 6.92984777322,
			"-0.005": 9.06227076418,
			"-0.004": 11.302964592,
			"-0.003": 14.6274342742,
			"-0.002": 22.8875964959,
			"-0.001": 35.0474597549,
			"0.0": 29.005474792,
			"0.001": 22.6674529036,
			"0.002": 16.6081768023,
			"0.003": 22.6551484689,
			"0.004": 12.1695562176,
			"0.005": 4.0616013285,
			"0.006": 3.55899055887,
			"0.007": 3.7779283095,
			"0.008": 4.57681242972,
			"0.009": 4.31520292709,
			"0.01": 5.46720860623,
			"0.011": 3.92640022549,
			"0.012": 3.61901174703,
			"0.013": 1.2551381833,
			"0.014": 0.0147827459564,
			"0.015": 0.0,
			"0.016": 0.0,
			"0.017": 0.0,
			"0.018": 0.0,
			"0.019": 0.0,
			"0.02": 0.0,
			"0.021": 0.0,
			"0.022": 0.0,
			"0.023": 0.0,
			"0.024": 0.0,
			"0.025": 0.0
		}
	}
}
