{
	 "smiles": "NC1=C(C2=C(C=CC=C2)C=C1)S(O)(=O)=O", 
	 "Tm": 453.15, 
	 "num_atms": 24, 
	 "gaussian": { 
		 "optdone": 1, 
		 "sigma_profile": "yes", 
		 "theory": "DFT", 
		 "functional": "B3LYP", 
		 "basiset": "6-31G**", 
		 "properties": { 
			 "R2extent": 3236.4446, 
			 "electric_dipole_moment_norm": 4.80927615136, 
			 "electric_quadrupole_moment_norm": 12.2149611268, 
			 "total_energy": -1065.04327731, 
			 "HOMO_LUMO_gap": 0.15881, 
			 "cosmo_polarized_energy": -17.45, 
			 "cosmo_cavitation_energy": 28.38, 
			 "cosmo_dispersion_energy": -22.12, 
			 "cosmo_repulsion_energy": 1.65, 
			 "cosmo_total_nonelectrostatic_energy": 7.9, 
			 "SMD_solvation_energy": 3.66 
		},
		"coords": [
			{
				"x": -0.5809991269,
				"y": 2.3870112206,
				"z": 1.2050798487,
				"element": "N" 
			},
			{
				"x": -0.6087048312,
				"y": 1.3635274569,
				"z": 0.3020894031,
				"element": "C" 
			},
			{
				"x": 0.31137425,
				"y": 0.2990906374,
				"z": 0.2320656619,
				"element": "C" 
			},
			{
				"x": 0.22308098,
				"y": -0.7097641029,
				"z": -0.7995951354,
				"element": "C" 
			},
			{
				"x": -0.8339125772,
				"y": -0.6116888188,
				"z": -1.7606173898,
				"element": "C" 
			},
			{
				"x": -0.9531297501,
				"y": -1.5708911471,
				"z": -2.7952822084,
				"element": "C" 
			},
			{
				"x": -0.0594465659,
				"y": -2.6134022252,
				"z": -2.9012367416,
				"element": "C" 
			},
			{
				"x": 0.9830465402,
				"y": -2.7187463391,
				"z": -1.9584295903,
				"element": "C" 
			},
			{
				"x": 1.1244407421,
				"y": -1.8004970877,
				"z": -0.9366579207,
				"element": "C" 
			},
			{
				"x": -1.7598639958,
				"y": 0.4641423395,
				"z": -1.6569293324,
				"element": "C" 
			},
			{
				"x": -1.6557002757,
				"y": 1.4044484513,
				"z": -0.6775233936,
				"element": "C" 
			},
			{
				"x": 1.5970520945,
				"y": 0.1423799093,
				"z": 1.4519561278,
				"element": "S" 
			},
			{
				"x": 2.9878575266,
				"y": 0.2493648035,
				"z": 0.5748309964,
				"element": "O" 
			},
			{
				"x": 1.6141497064,
				"y": -1.1959540994,
				"z": 2.0206630567,
				"element": "O" 
			},
			{
				"x": 1.595986276,
				"y": 1.3196965852,
				"z": 2.3365773209,
				"element": "O" 
			},
			{
				"x": 0.0567752744,
				"y": 2.339040326,
				"z": 1.9875356717,
				"element": "H" 
			},
			{
				"x": -1.4027637681,
				"y": 2.9625835863,
				"z": 1.2857838427,
				"element": "H" 
			},
			{
				"x": -1.7685316542,
				"y": -1.464405063,
				"z": -3.5062817579,
				"element": "H" 
			},
			{
				"x": -0.1550403734,
				"y": -3.3458177078,
				"z": -3.6967770745,
				"element": "H" 
			},
			{
				"x": 1.6913514068,
				"y": -3.5391324456,
				"z": -2.0299783978,
				"element": "H" 
			},
			{
				"x": 1.9313342172,
				"y": -1.9337488323,
				"z": -0.2298826444,
				"element": "H" 
			},
			{
				"x": -2.5651990227,
				"y": 0.5292862707,
				"z": -2.3840017805,
				"element": "H" 
			},
			{
				"x": -2.3677092394,
				"y": 2.2235812557,
				"z": -0.622602168,
				"element": "H" 
			},
			{
				"x": 3.2529521663,
				"y": 1.1840950266,
				"z": 0.5765136056,
				"element": "H" 
			}
		],
		 "valence_orbital": [ 
			{
				"type": "occ",
				"energy": -0.31086,
				"method": "rhf"
			},
			{
				"type": "occ",
				"energy": -0.3026,
				"method": "rhf"
			},
			{
				"type": "occ",
				"energy": -0.28208,
				"method": "rhf"
			},
			{
				"type": "occ",
				"energy": -0.23651,
				"method": "rhf"
			},
			{
				"type": "occ",
				"energy": -0.21251,
				"method": "rhf"
			},
			{
				"type": "unocc",
				"energy": -0.0537,
				"method": "rhf"
			},
			{
				"type": "unocc",
				"energy": -0.01066,
				"method": "rhf"
			},
			{
				"type": "unocc",
				"energy": 0.00927,
				"method": "rhf"
			},
			{
				"type": "unocc",
				"energy": 0.04551,
				"method": "rhf"
			},
			{
				"type": "unocc",
				"energy": 0.07072,
				"method": "rhf"
			}
		],
		"cosmo_sigma_profile": { 
			"-0.025": 0.0,
			"-0.024": 0.0,
			"-0.023": 0.0,
			"-0.022": 0.0,
			"-0.021": 0.0,
			"-0.02": 0.430329272512,
			"-0.019": 1.07067948528,
			"-0.018": 0.788382541383,
			"-0.017": 0.794297785178,
			"-0.016": 0.55547799219,
			"-0.015": 1.14164984466,
			"-0.014": 2.13272990271,
			"-0.013": 2.58181550796,
			"-0.012": 2.08716472242,
			"-0.011": 1.68155656435,
			"-0.01": 2.70600549299,
			"-0.009": 3.37286542736,
			"-0.008": 3.14973950105,
			"-0.007": 6.88698278878,
			"-0.006": 11.7892840224,
			"-0.005": 11.9662143483,
			"-0.004": 13.0613960884,
			"-0.003": 11.668456785,
			"-0.002": 9.61695576651,
			"-0.001": 9.64890574954,
			"0.0": 10.3281920638,
			"0.001": 12.2047783903,
			"0.002": 19.0289953069,
			"0.003": 19.8903877691,
			"0.004": 17.0388280518,
			"0.005": 14.6364827279,
			"0.006": 5.71172599394,
			"0.007": 7.11737266635,
			"0.008": 5.91462786627,
			"0.009": 6.47845062863,
			"0.01": 8.23878339403,
			"0.011": 3.64572632502,
			"0.012": 0.0,
			"0.013": 0.0,
			"0.014": 0.0,
			"0.015": 0.0,
			"0.016": 0.0,
			"0.017": 0.0,
			"0.018": 0.0,
			"0.019": 0.0,
			"0.02": 0.0,
			"0.021": 0.0,
			"0.022": 0.0,
			"0.023": 0.0,
			"0.024": 0.0,
			"0.025": 0.0
		}
	}
}
