{
	 "smiles": "CC1=CC(C)=C(NC(N)=O)C=C1", 
	 "Tm": 489.15, 
	 "num_atms": 24, 
	 "gaussian": { 
		 "optdone": 1, 
		 "sigma_profile": "yes", 
		 "theory": "DFT", 
		 "functional": "B3LYP", 
		 "basiset": "6-31G**", 
		 "properties": { 
			 "R2extent": 2541.3889, 
			 "electric_dipole_moment_norm": 3.82571928923, 
			 "electric_quadrupole_moment_norm": 16.5878409189, 
			 "total_energy": -534.959135272, 
			 "HOMO_LUMO_gap": 0.20816, 
			 "cosmo_polarized_energy": -13.26, 
			 "cosmo_cavitation_energy": 27.26, 
			 "cosmo_dispersion_energy": -19.87, 
			 "cosmo_repulsion_energy": 1.6, 
			 "cosmo_total_nonelectrostatic_energy": 9.0, 
			 "SMD_solvation_energy": 5.8 
		},
		"coords": [
			{
				"x": -1.6404986274,
				"y": 0.6411776005,
				"z": 3.5784819646,
				"element": "C" 
			},
			{
				"x": -1.1026157801,
				"y": 0.499941228,
				"z": 2.1740484452,
				"element": "C" 
			},
			{
				"x": -0.5810337629,
				"y": -0.7186808028,
				"z": 1.7207754765,
				"element": "C" 
			},
			{
				"x": -0.0361980012,
				"y": -0.8801073925,
				"z": 0.4447478232,
				"element": "C" 
			},
			{
				"x": 0.5247426829,
				"y": -2.2118979883,
				"z": 0.0081693629,
				"element": "C" 
			},
			{
				"x": -0.0266526282,
				"y": 0.2304135547,
				"z": -0.4291794558,
				"element": "C" 
			},
			{
				"x": 0.4935977322,
				"y": 0.0665138999,
				"z": -1.7326478414,
				"element": "N" 
			},
			{
				"x": 1.2436782535,
				"y": 0.9221014461,
				"z": -2.5314305351,
				"element": "C" 
			},
			{
				"x": 1.6043556434,
				"y": 2.1328551757,
				"z": -1.9717295941,
				"element": "N" 
			},
			{
				"x": 1.5442036573,
				"y": 0.6039494399,
				"z": -3.6743004512,
				"element": "O" 
			},
			{
				"x": -0.5748244033,
				"y": 1.4481266101,
				"z": -0.0022241153,
				"element": "C" 
			},
			{
				"x": -1.0898868498,
				"y": 1.5799343174,
				"z": 1.2865027979,
				"element": "C" 
			},
			{
				"x": -0.8353160905,
				"y": 0.8387393548,
				"z": 4.2976457782,
				"element": "H" 
			},
			{
				"x": -2.1494206819,
				"y": -0.2704957505,
				"z": 3.9071986974,
				"element": "H" 
			},
			{
				"x": -2.3518601665,
				"y": 1.4691663367,
				"z": 3.6517727951,
				"element": "H" 
			},
			{
				"x": -0.588423643,
				"y": -1.5767296764,
				"z": 2.3900974413,
				"element": "H" 
			},
			{
				"x": 0.5549450693,
				"y": -2.914674647,
				"z": 0.8443404515,
				"element": "H" 
			},
			{
				"x": 1.5412547415,
				"y": -2.1095281034,
				"z": -0.3882647365,
				"element": "H" 
			},
			{
				"x": -0.0815007693,
				"y": -2.6771501746,
				"z": -0.7813419526,
				"element": "H" 
			},
			{
				"x": 0.3637627684,
				"y": -0.8266614752,
				"z": -2.1855973459,
				"element": "H" 
			},
			{
				"x": 2.3208514382,
				"y": 2.6063680842,
				"z": -2.5019927229,
				"element": "H" 
			},
			{
				"x": 1.6751091616,
				"y": 2.2048310803,
				"z": -0.9665509455,
				"element": "H" 
			},
			{
				"x": -0.6165339418,
				"y": 2.284108805,
				"z": -0.6917205408,
				"element": "H" 
			},
			{
				"x": -1.5077358024,
				"y": 2.5352990772,
				"z": 1.5941992034,
				"element": "H" 
			}
		],
		 "valence_orbital": [ 
			{
				"type": "occ",
				"energy": -0.29026,
				"method": "rhf"
			},
			{
				"type": "occ",
				"energy": -0.26826,
				"method": "rhf"
			},
			{
				"type": "occ",
				"energy": -0.25261,
				"method": "rhf"
			},
			{
				"type": "occ",
				"energy": -0.24851,
				"method": "rhf"
			},
			{
				"type": "occ",
				"energy": -0.21423,
				"method": "rhf"
			},
			{
				"type": "unocc",
				"energy": -0.00607,
				"method": "rhf"
			},
			{
				"type": "unocc",
				"energy": -0.00515,
				"method": "rhf"
			},
			{
				"type": "unocc",
				"energy": 0.06664,
				"method": "rhf"
			},
			{
				"type": "unocc",
				"energy": 0.0829,
				"method": "rhf"
			},
			{
				"type": "unocc",
				"energy": 0.09802,
				"method": "rhf"
			}
		],
		"cosmo_sigma_profile": { 
			"-0.025": 0.0,
			"-0.024": 0.0,
			"-0.023": 0.0,
			"-0.022": 0.0,
			"-0.021": 0.0,
			"-0.02": 0.0,
			"-0.019": 0.0,
			"-0.018": 0.0,
			"-0.017": 0.0,
			"-0.016": 0.0,
			"-0.015": 0.0,
			"-0.014": 0.157426200755,
			"-0.013": 1.3045753657,
			"-0.012": 3.35737480596,
			"-0.011": 2.63840784185,
			"-0.01": 3.04850407072,
			"-0.009": 3.58121402384,
			"-0.008": 3.17340704093,
			"-0.007": 3.76525062663,
			"-0.006": 2.89610276481,
			"-0.005": 8.69186002468,
			"-0.004": 19.9588248533,
			"-0.003": 19.4996756705,
			"-0.002": 17.9249077441,
			"-0.001": 18.2436724156,
			"0.0": 23.6073480703,
			"0.001": 14.9025263853,
			"0.002": 10.4920797381,
			"0.003": 9.24330941299,
			"0.004": 9.31844497264,
			"0.005": 9.67499766491,
			"0.006": 8.12676935141,
			"0.007": 1.57309060473,
			"0.008": 1.44750810784,
			"0.009": 2.42602423044,
			"0.01": 1.48402796806,
			"0.011": 0.715298634378,
			"0.012": 1.68016702005,
			"0.013": 2.11095378519,
			"0.014": 6.52600620221,
			"0.015": 3.21884235825,
			"0.016": 0.0112467477657,
			"0.017": 0.0,
			"0.018": 0.0,
			"0.019": 0.0,
			"0.02": 0.0,
			"0.021": 0.0,
			"0.022": 0.0,
			"0.023": 0.0,
			"0.024": 0.0,
			"0.025": 0.0
		}
	}
}
