{
	 "smiles": "CCOC(=O)C1=NN(C(C)=C1C(=O)C1=NOC2C1C(=O)N(C2=O)C1=C(Cl)C=CC(Cl)=C1)C1=CC=C(C)C=C1", 
	 "Tm": 498.15, 
	 "num_atms": 58, 
	 "gaussian": { 
		 "optdone": 1, 
		 "sigma_profile": "yes", 
		 "theory": "DFT", 
		 "functional": "B3LYP", 
		 "basiset": "6-31G**", 
		 "properties": { 
			 "R2extent": 24679.8873, 
			 "electric_dipole_moment_norm": 4.90803378758, 
			 "electric_quadrupole_moment_norm": 25.3712770319, 
			 "total_energy": -2593.50004348, 
			 "HOMO_LUMO_gap": 0.16644, 
			 "cosmo_polarized_energy": -30.21, 
			 "cosmo_cavitation_energy": 68.29, 
			 "cosmo_dispersion_energy": -43.48, 
			 "cosmo_repulsion_energy": 3.27, 
			 "cosmo_total_nonelectrostatic_energy": 28.09, 
			 "SMD_solvation_energy": 12.61 
		},
		"coords": [
			{
				"x": -1.7553944462,
				"y": 5.540290269,
				"z": -0.2789759334,
				"element": "C" 
			},
			{
				"x": -2.3002781378,
				"y": 4.1212913038,
				"z": -0.2366990903,
				"element": "C" 
			},
			{
				"x": -1.226304173,
				"y": 3.1468905346,
				"z": -0.2556100582,
				"element": "O" 
			},
			{
				"x": -0.7306163076,
				"y": 2.8020578216,
				"z": -1.4711877949,
				"element": "C" 
			},
			{
				"x": -1.1579220751,
				"y": 3.2177822436,
				"z": -2.5249997321,
				"element": "O" 
			},
			{
				"x": 0.3987782701,
				"y": 1.8514297121,
				"z": -1.3140175066,
				"element": "C" 
			},
			{
				"x": 1.0538209011,
				"y": 1.4687931682,
				"z": -2.4073808551,
				"element": "N" 
			},
			{
				"x": 2.052703993,
				"y": 0.6765973839,
				"z": -1.9624274356,
				"element": "N" 
			},
			{
				"x": 2.0854227558,
				"y": 0.5753036863,
				"z": -0.5951923673,
				"element": "C" 
			},
			{
				"x": 3.0992361376,
				"y": -0.2037956387,
				"z": 0.1782384831,
				"element": "C" 
			},
			{
				"x": 1.0015300747,
				"y": 1.3169005507,
				"z": -0.1343104465,
				"element": "C" 
			},
			{
				"x": 0.6567199326,
				"y": 1.4504180152,
				"z": 1.3045859962,
				"element": "C" 
			},
			{
				"x": 1.4975359258,
				"y": 1.7039927208,
				"z": 2.1519738075,
				"element": "O" 
			},
			{
				"x": -0.7591997569,
				"y": 1.1517058299,
				"z": 1.7107405667,
				"element": "C" 
			},
			{
				"x": -1.2661583717,
				"y": 1.6648655469,
				"z": 2.7722710578,
				"element": "N" 
			},
			{
				"x": -2.5715922875,
				"y": 1.2349210327,
				"z": 2.9465515361,
				"element": "O" 
			},
			{
				"x": -2.930552138,
				"y": 0.296119494,
				"z": 1.8924198078,
				"element": "C" 
			},
			{
				"x": -1.6915574496,
				"y": 0.1829857114,
				"z": 1.0071060256,
				"element": "C" 
			},
			{
				"x": -1.2091153933,
				"y": -1.2688677703,
				"z": 1.1570820179,
				"element": "C" 
			},
			{
				"x": -0.2505313082,
				"y": -1.7790620479,
				"z": 0.6259560893,
				"element": "O" 
			},
			{
				"x": -2.0845305409,
				"y": -1.913793475,
				"z": 2.0435757757,
				"element": "N" 
			},
			{
				"x": -3.144750089,
				"y": -1.1000903367,
				"z": 2.493121117,
				"element": "C" 
			},
			{
				"x": -4.0450774477,
				"y": -1.4579898968,
				"z": 3.2087908309,
				"element": "O" 
			},
			{
				"x": -1.9236770928,
				"y": -3.2732477151,
				"z": 2.4438758045,
				"element": "C" 
			},
			{
				"x": -1.4767181094,
				"y": -3.5988863587,
				"z": 3.7321941749,
				"element": "C" 
			},
			{
				"x": -1.069793867,
				"y": -2.3473606912,
				"z": 4.8763165427,
				"element": "Cl" 
			},
			{
				"x": -1.3377759925,
				"y": -4.93684574,
				"z": 4.1020837698,
				"element": "C" 
			},
			{
				"x": -1.6267375966,
				"y": -5.9517089189,
				"z": 3.1928939885,
				"element": "C" 
			},
			{
				"x": -2.0567909575,
				"y": -5.6189747895,
				"z": 1.9085800213,
				"element": "C" 
			},
			{
				"x": -2.4164166476,
				"y": -6.8880936937,
				"z": 0.7559060534,
				"element": "Cl" 
			},
			{
				"x": -2.2104466532,
				"y": -4.2885838715,
				"z": 1.5295459082,
				"element": "C" 
			},
			{
				"x": 2.9418872173,
				"y": 0.1011487712,
				"z": -2.9231913075,
				"element": "C" 
			},
			{
				"x": 3.4073766893,
				"y": 0.8971157832,
				"z": -3.9738408678,
				"element": "C" 
			},
			{
				"x": 4.2578721578,
				"y": 0.3446579757,
				"z": -4.9259155735,
				"element": "C" 
			},
			{
				"x": 4.6668629006,
				"y": -0.9957262053,
				"z": -4.8513354607,
				"element": "C" 
			},
			{
				"x": 5.6177070138,
				"y": -1.5720251065,
				"z": -5.8729593771,
				"element": "C" 
			},
			{
				"x": 4.1769799206,
				"y": -1.7749437575,
				"z": -3.7967465577,
				"element": "C" 
			},
			{
				"x": 3.3134080554,
				"y": -1.2414669577,
				"z": -2.8396521773,
				"element": "C" 
			},
			{
				"x": -1.0580807245,
				"y": 5.7129929805,
				"z": 0.5455528467,
				"element": "H" 
			},
			{
				"x": -1.2427599371,
				"y": 5.727568078,
				"z": -1.2255695733,
				"element": "H" 
			},
			{
				"x": -2.5803577747,
				"y": 6.2545623703,
				"z": -0.1879072996,
				"element": "H" 
			},
			{
				"x": -2.964434693,
				"y": 3.9255957188,
				"z": -1.0820376562,
				"element": "H" 
			},
			{
				"x": -2.8250835005,
				"y": 3.9217423081,
				"z": 0.7004417725,
				"element": "H" 
			},
			{
				"x": 3.2290321466,
				"y": 0.2589235586,
				"z": 1.1570405874,
				"element": "H" 
			},
			{
				"x": 4.0624235998,
				"y": -0.2247570282,
				"z": -0.3367821394,
				"element": "H" 
			},
			{
				"x": 2.768325895,
				"y": -1.2372043732,
				"z": 0.3314855608,
				"element": "H" 
			},
			{
				"x": -3.8477295724,
				"y": 0.6522774586,
				"z": 1.4189597184,
				"element": "H" 
			},
			{
				"x": -1.8276864241,
				"y": 0.4157812615,
				"z": -0.0504164288,
				"element": "H" 
			},
			{
				"x": -0.9973277367,
				"y": -5.179561736,
				"z": 5.1021778712,
				"element": "H" 
			},
			{
				"x": -1.5161914769,
				"y": -6.9914585181,
				"z": 3.4789176259,
				"element": "H" 
			},
			{
				"x": -2.5510752796,
				"y": -4.0330201641,
				"z": 0.5334450823,
				"element": "H" 
			},
			{
				"x": 3.086920995,
				"y": 1.9305357647,
				"z": -4.0382628314,
				"element": "H" 
			},
			{
				"x": 4.6135676413,
				"y": 0.9677962173,
				"z": -5.7422748313,
				"element": "H" 
			},
			{
				"x": 5.387714808,
				"y": -1.2119234999,
				"z": -6.8806098038,
				"element": "H" 
			},
			{
				"x": 5.5774042155,
				"y": -2.6647232673,
				"z": -5.8858860604,
				"element": "H" 
			},
			{
				"x": 6.6535765543,
				"y": -1.2837623565,
				"z": -5.655186471,
				"element": "H" 
			},
			{
				"x": 4.4595863817,
				"y": -2.8219291923,
				"z": -3.7278760899,
				"element": "H" 
			},
			{
				"x": 2.9123697757,
				"y": -1.8722401649,
				"z": -2.0543787134,
				"element": "H" 
			}
		],
		 "valence_orbital": [ 
			{
				"type": "occ",
				"energy": -0.26652,
				"method": "rhf"
			},
			{
				"type": "occ",
				"energy": -0.26314,
				"method": "rhf"
			},
			{
				"type": "occ",
				"energy": -0.25762,
				"method": "rhf"
			},
			{
				"type": "occ",
				"energy": -0.25569,
				"method": "rhf"
			},
			{
				"type": "occ",
				"energy": -0.2435,
				"method": "rhf"
			},
			{
				"type": "unocc",
				"energy": -0.07706,
				"method": "rhf"
			},
			{
				"type": "unocc",
				"energy": -0.05346,
				"method": "rhf"
			},
			{
				"type": "unocc",
				"energy": -0.049,
				"method": "rhf"
			},
			{
				"type": "unocc",
				"energy": -0.04438,
				"method": "rhf"
			},
			{
				"type": "unocc",
				"energy": -0.03949,
				"method": "rhf"
			}
		],
		"cosmo_sigma_profile": { 
			"-0.025": 0.0,
			"-0.024": 0.0,
			"-0.023": 0.0,
			"-0.022": 0.0,
			"-0.021": 0.0,
			"-0.02": 0.0,
			"-0.019": 0.0,
			"-0.018": 0.0,
			"-0.017": 0.0,
			"-0.016": 0.0,
			"-0.015": 0.0,
			"-0.014": 0.00267875507654,
			"-0.013": 0.540143905002,
			"-0.012": 0.964915976026,
			"-0.011": 4.26704469551,
			"-0.01": 7.95028060719,
			"-0.009": 7.82803757675,
			"-0.008": 10.3131969372,
			"-0.007": 12.7339607642,
			"-0.006": 18.7819157491,
			"-0.005": 31.5210548958,
			"-0.004": 42.1957115131,
			"-0.003": 43.0396989015,
			"-0.002": 44.5348121485,
			"-0.001": 48.2766596648,
			"0.0": 54.0591674929,
			"0.001": 37.5791175974,
			"0.002": 29.7299022574,
			"0.003": 34.1378333372,
			"0.004": 32.3858987977,
			"0.005": 11.9758375576,
			"0.006": 9.45441708122,
			"0.007": 12.9323277463,
			"0.008": 10.8630931901,
			"0.009": 13.2007304853,
			"0.01": 13.6882253511,
			"0.011": 9.76193406417,
			"0.012": 4.35433054666,
			"0.013": 2.32410444592,
			"0.014": 1.58056644989,
			"0.015": 0.198608021486,
			"0.016": 0.0,
			"0.017": 0.0,
			"0.018": 0.0,
			"0.019": 0.0,
			"0.02": 0.0,
			"0.021": 0.0,
			"0.022": 0.0,
			"0.023": 0.0,
			"0.024": 0.0,
			"0.025": 0.0
		}
	}
}
