{
	 "smiles": "CCOC(=O)C1=C(C)C2=C(S1)N=C(CCl)NC2=O", 
	 "Tm": 464.15, 
	 "num_atms": 29, 
	 "gaussian": { 
		 "optdone": 1, 
		 "sigma_profile": "yes", 
		 "theory": "DFT", 
		 "functional": "B3LYP", 
		 "basiset": "6-31G**", 
		 "properties": { 
			 "R2extent": 8175.7563, 
			 "electric_dipole_moment_norm": 1.28635721711, 
			 "electric_quadrupole_moment_norm": 22.0996919951, 
			 "total_energy": -1619.39970382, 
			 "HOMO_LUMO_gap": 0.15759, 
			 "cosmo_polarized_energy": -15.45, 
			 "cosmo_cavitation_energy": 36.9, 
			 "cosmo_dispersion_energy": -27.27, 
			 "cosmo_repulsion_energy": 2.08, 
			 "cosmo_total_nonelectrostatic_energy": 11.7, 
			 "SMD_solvation_energy": 5.66 
		},
		"coords": [
			{
				"x": -3.7286193649,
				"y": -1.9887657224,
				"z": -4.4473165751,
				"element": "C" 
			},
			{
				"x": -2.7032855347,
				"y": -0.892282024,
				"z": -4.2329667993,
				"element": "C" 
			},
			{
				"x": -2.3556535484,
				"y": -0.8901588671,
				"z": -2.8268139639,
				"element": "O" 
			},
			{
				"x": -1.4442742922,
				"y": 0.0339709591,
				"z": -2.4569963474,
				"element": "C" 
			},
			{
				"x": -0.9323809459,
				"y": 0.8257300835,
				"z": -3.2296915307,
				"element": "O" 
			},
			{
				"x": -1.1261828946,
				"y": -0.0065982179,
				"z": -1.0204828988,
				"element": "C" 
			},
			{
				"x": -1.5937391577,
				"y": -0.8158763839,
				"z": -0.000577258,
				"element": "C" 
			},
			{
				"x": -2.6078232785,
				"y": -1.9205304459,
				"z": -0.1452420447,
				"element": "C" 
			},
			{
				"x": -0.9754540491,
				"y": -0.4610020683,
				"z": 1.2447636579,
				"element": "C" 
			},
			{
				"x": -0.0638505477,
				"y": 0.5959285953,
				"z": 1.1322551095,
				"element": "C" 
			},
			{
				"x": 0.0567405216,
				"y": 1.179803576,
				"z": -0.493092249,
				"element": "S" 
			},
			{
				"x": 0.6783691422,
				"y": 1.1438385001,
				"z": 2.1379783615,
				"element": "N" 
			},
			{
				"x": 0.4857904103,
				"y": 0.6168005121,
				"z": 3.3134999756,
				"element": "C" 
			},
			{
				"x": 1.1989577324,
				"y": 1.2399311052,
				"z": 4.4851454153,
				"element": "C" 
			},
			{
				"x": 1.823371718,
				"y": 0.0198687137,
				"z": 5.6727392927,
				"element": "Cl" 
			},
			{
				"x": -0.3772212993,
				"y": -0.4130674523,
				"z": 3.544443161,
				"element": "N" 
			},
			{
				"x": -1.1710347351,
				"y": -1.0557457699,
				"z": 2.5601074533,
				"element": "C" 
			},
			{
				"x": -1.8957174137,
				"y": -1.9848922222,
				"z": 2.887701576,
				"element": "O" 
			},
			{
				"x": -3.3219329627,
				"y": -2.9660187497,
				"z": -4.1718107427,
				"element": "H" 
			},
			{
				"x": -4.0175198417,
				"y": -2.0220788059,
				"z": -5.5023624763,
				"element": "H" 
			},
			{
				"x": -4.6274615382,
				"y": -1.8079952586,
				"z": -3.8508732805,
				"element": "H" 
			},
			{
				"x": -3.0921864999,
				"y": 0.0952060123,
				"z": -4.4997568315,
				"element": "H" 
			},
			{
				"x": -1.7938152131,
				"y": -1.0565293336,
				"z": -4.8189747239,
				"element": "H" 
			},
			{
				"x": -2.2615256697,
				"y": -2.670735518,
				"z": -0.8616025298,
				"element": "H" 
			},
			{
				"x": -2.784136072,
				"y": -2.3943218492,
				"z": 0.8191508545,
				"element": "H" 
			},
			{
				"x": -3.5511076015,
				"y": -1.5295776103,
				"z": -0.5370872861,
				"element": "H" 
			},
			{
				"x": 0.5252807742,
				"y": 1.8925304289,
				"z": 5.0458787857,
				"element": "H" 
			},
			{
				"x": 2.0414175211,
				"y": 1.8173522364,
				"z": 4.1105261088,
				"element": "H" 
			},
			{
				"x": -0.4393053594,
				"y": -0.8183844234,
				"z": 4.4726577858,
				"element": "H" 
			}
		],
		 "valence_orbital": [ 
			{
				"type": "occ",
				"energy": -0.30101,
				"method": "rhf"
			},
			{
				"type": "occ",
				"energy": -0.28258,
				"method": "rhf"
			},
			{
				"type": "occ",
				"energy": -0.27259,
				"method": "rhf"
			},
			{
				"type": "occ",
				"energy": -0.26617,
				"method": "rhf"
			},
			{
				"type": "occ",
				"energy": -0.23395,
				"method": "rhf"
			},
			{
				"type": "unocc",
				"energy": -0.07636,
				"method": "rhf"
			},
			{
				"type": "unocc",
				"energy": -0.03278,
				"method": "rhf"
			},
			{
				"type": "unocc",
				"energy": -0.01657,
				"method": "rhf"
			},
			{
				"type": "unocc",
				"energy": 0.01235,
				"method": "rhf"
			},
			{
				"type": "unocc",
				"energy": 0.01881,
				"method": "rhf"
			}
		],
		"cosmo_sigma_profile": { 
			"-0.025": 0.0,
			"-0.024": 0.0,
			"-0.023": 0.0,
			"-0.022": 0.0,
			"-0.021": 0.0,
			"-0.02": 0.0,
			"-0.019": 0.0,
			"-0.018": 0.0,
			"-0.017": 0.0,
			"-0.016": 0.0,
			"-0.015": 0.233527264639,
			"-0.014": 0.866436465074,
			"-0.013": 1.19147388292,
			"-0.012": 1.16738504112,
			"-0.011": 1.16407111887,
			"-0.01": 4.21218307007,
			"-0.009": 5.21168533699,
			"-0.008": 4.16141191983,
			"-0.007": 3.85665654661,
			"-0.006": 6.78388487217,
			"-0.005": 14.2394136851,
			"-0.004": 21.6934143513,
			"-0.003": 22.5068254455,
			"-0.002": 26.647655456,
			"-0.001": 33.0522934418,
			"0.0": 33.5009233917,
			"0.001": 24.8506757887,
			"0.002": 18.3815081585,
			"0.003": 15.4208506227,
			"0.004": 11.1669221537,
			"0.005": 11.8757123677,
			"0.006": 4.33293768295,
			"0.007": 2.90580758168,
			"0.008": 4.94757129555,
			"0.009": 4.03159387545,
			"0.01": 4.36444241575,
			"0.011": 6.27774281367,
			"0.012": 8.44839065249,
			"0.013": 0.99863033247,
			"0.014": 0.0,
			"0.015": 0.0,
			"0.016": 0.0,
			"0.017": 0.0,
			"0.018": 0.0,
			"0.019": 0.0,
			"0.02": 0.0,
			"0.021": 0.0,
			"0.022": 0.0,
			"0.023": 0.0,
			"0.024": 0.0,
			"0.025": 0.0
		}
	}
}
