{
	 "smiles": "CCC(O)CNCC(O)CC", 
	 "Tm": 342.15, 
	 "num_atms": 30, 
	 "gaussian": { 
		 "optdone": 1, 
		 "sigma_profile": "yes", 
		 "theory": "DFT", 
		 "functional": "B3LYP", 
		 "basiset": "6-31G**", 
		 "properties": { 
			 "R2extent": 2707.3916, 
			 "electric_dipole_moment_norm": 1.75666456957, 
			 "electric_quadrupole_moment_norm": 9.99888988238, 
			 "total_energy": -521.490341142, 
			 "HOMO_LUMO_gap": 0.28564, 
			 "cosmo_polarized_energy": -12.04, 
			 "cosmo_cavitation_energy": 30.76, 
			 "cosmo_dispersion_energy": -20.99, 
			 "cosmo_repulsion_energy": 1.73, 
			 "cosmo_total_nonelectrostatic_energy": 11.5, 
			 "SMD_solvation_energy": 4.9 
		},
		"coords": [
			{
				"x": -4.0940339768,
				"y": -0.7388771071,
				"z": -0.7882067113,
				"element": "C" 
			},
			{
				"x": -3.2966410824,
				"y": 0.4751203649,
				"z": -0.3037483846,
				"element": "C" 
			},
			{
				"x": -2.3281598837,
				"y": 1.0383833107,
				"z": -1.3438190246,
				"element": "C" 
			},
			{
				"x": -1.7882958991,
				"y": 2.2381193955,
				"z": -0.7767764635,
				"element": "O" 
			},
			{
				"x": -1.2242369401,
				"y": 0.0587173871,
				"z": -1.7822638793,
				"element": "C" 
			},
			{
				"x": -0.4924784596,
				"y": -0.5662344212,
				"z": -0.6819903298,
				"element": "N" 
			},
			{
				"x": 0.5472119719,
				"y": 0.2748047962,
				"z": -0.0840154918,
				"element": "C" 
			},
			{
				"x": 1.3889108107,
				"y": -0.4474413999,
				"z": 0.9808637561,
				"element": "C" 
			},
			{
				"x": 2.4969968197,
				"y": 0.3924377398,
				"z": 1.3204307891,
				"element": "O" 
			},
			{
				"x": 0.6310143808,
				"y": -0.8759301414,
				"z": 2.2488110985,
				"element": "C" 
			},
			{
				"x": -0.2528199503,
				"y": -2.1209616176,
				"z": 2.1078038651,
				"element": "C" 
			},
			{
				"x": -3.444960887,
				"y": -1.6020303884,
				"z": -0.9668612705,
				"element": "H" 
			},
			{
				"x": -4.8352467705,
				"y": -1.0376332589,
				"z": -0.0404501627,
				"element": "H" 
			},
			{
				"x": -4.6337937648,
				"y": -0.5237526538,
				"z": -1.7182832264,
				"element": "H" 
			},
			{
				"x": -2.7243722943,
				"y": 0.2137947342,
				"z": 0.5916091782,
				"element": "H" 
			},
			{
				"x": -3.9784581969,
				"y": 1.2867760947,
				"z": -0.0255824554,
				"element": "H" 
			},
			{
				"x": -2.900237235,
				"y": 1.2895227831,
				"z": -2.2555284589,
				"element": "H" 
			},
			{
				"x": -1.1901911329,
				"y": 2.6297266594,
				"z": -1.4271143333,
				"element": "H" 
			},
			{
				"x": -1.6961724853,
				"y": -0.7387192961,
				"z": -2.3675435398,
				"element": "H" 
			},
			{
				"x": -0.5526908582,
				"y": 0.5995192053,
				"z": -2.481718617,
				"element": "H" 
			},
			{
				"x": -0.0611836819,
				"y": -1.4203102502,
				"z": -1.0262807283,
				"element": "H" 
			},
			{
				"x": 0.059041517,
				"y": 1.1428940281,
				"z": 0.3725276997,
				"element": "H" 
			},
			{
				"x": 1.2529279212,
				"y": 0.66819954,
				"z": -0.8400963287,
				"element": "H" 
			},
			{
				"x": 1.8514496505,
				"y": -1.336785633,
				"z": 0.5282753716,
				"element": "H" 
			},
			{
				"x": 2.1403686145,
				"y": 1.1601184918,
				"z": 1.788523025,
				"element": "H" 
			},
			{
				"x": 1.3937968597,
				"y": -1.0557308502,
				"z": 3.0160066416,
				"element": "H" 
			},
			{
				"x": 0.0244760399,
				"y": -0.0280863454,
				"z": 2.6002010304,
				"element": "H" 
			},
			{
				"x": 0.3419050886,
				"y": -2.9885764188,
				"z": 1.7971084822,
				"element": "H" 
			},
			{
				"x": -0.7204624324,
				"y": -2.3719198525,
				"z": 3.0655765556,
				"element": "H" 
			},
			{
				"x": -1.0385637436,
				"y": -1.9655448964,
				"z": 1.3660419129,
				"element": "H" 
			}
		],
		 "valence_orbital": [ 
			{
				"type": "occ",
				"energy": -0.31527,
				"method": "rhf"
			},
			{
				"type": "occ",
				"energy": -0.30665,
				"method": "rhf"
			},
			{
				"type": "occ",
				"energy": -0.26889,
				"method": "rhf"
			},
			{
				"type": "occ",
				"energy": -0.25839,
				"method": "rhf"
			},
			{
				"type": "occ",
				"energy": -0.22185,
				"method": "rhf"
			},
			{
				"type": "unocc",
				"energy": 0.06379,
				"method": "rhf"
			},
			{
				"type": "unocc",
				"energy": 0.07981,
				"method": "rhf"
			},
			{
				"type": "unocc",
				"energy": 0.08636,
				"method": "rhf"
			},
			{
				"type": "unocc",
				"energy": 0.10532,
				"method": "rhf"
			},
			{
				"type": "unocc",
				"energy": 0.11247,
				"method": "rhf"
			}
		],
		"cosmo_sigma_profile": { 
			"-0.025": 0.0,
			"-0.024": 0.0,
			"-0.023": 0.0,
			"-0.022": 0.0,
			"-0.021": 0.0,
			"-0.02": 0.0,
			"-0.019": 0.0,
			"-0.018": 0.0,
			"-0.017": 0.0,
			"-0.016": 0.0,
			"-0.015": 0.357769439639,
			"-0.014": 1.9720410545,
			"-0.013": 1.86500511209,
			"-0.012": 1.40998499718,
			"-0.011": 2.16976381572,
			"-0.01": 2.34592721927,
			"-0.009": 2.80780311662,
			"-0.008": 3.70424840319,
			"-0.007": 3.069526468,
			"-0.006": 4.97763521518,
			"-0.005": 4.48616960515,
			"-0.004": 7.62492412799,
			"-0.003": 18.7214946971,
			"-0.002": 29.6926199052,
			"-0.001": 30.083024444,
			"0.0": 29.1642155149,
			"0.001": 27.8117054919,
			"0.002": 16.9330111608,
			"0.003": 5.62160003848,
			"0.004": 5.57310093275,
			"0.005": 4.55733265845,
			"0.006": 4.71692246574,
			"0.007": 4.12276462007,
			"0.008": 3.32626253152,
			"0.009": 2.3965833122,
			"0.01": 2.42801143185,
			"0.011": 2.55491461377,
			"0.012": 2.55750299612,
			"0.013": 2.24454935105,
			"0.014": 3.82030922315,
			"0.015": 2.05411949149,
			"0.016": 0.0,
			"0.017": 0.0,
			"0.018": 0.0,
			"0.019": 0.0,
			"0.02": 0.0,
			"0.021": 0.0,
			"0.022": 0.0,
			"0.023": 0.0,
			"0.024": 0.0,
			"0.025": 0.0
		}
	}
}
