{
	 "smiles": "CNS(=O)(=O)N1CCC2=C(C1)C=CC=C2", 
	 "Tm": 362.15, 
	 "num_atms": 29, 
	 "gaussian": { 
		 "optdone": 1, 
		 "sigma_profile": "yes", 
		 "theory": "DFT", 
		 "functional": "B3LYP", 
		 "basiset": "6-31G**", 
		 "properties": { 
			 "R2extent": 4427.697, 
			 "electric_dipole_moment_norm": 3.62968410058, 
			 "electric_quadrupole_moment_norm": 19.0782879156, 
			 "total_energy": -1047.57231627, 
			 "HOMO_LUMO_gap": 0.23376, 
			 "cosmo_polarized_energy": -14.0, 
			 "cosmo_cavitation_energy": 32.16, 
			 "cosmo_dispersion_energy": -23.68, 
			 "cosmo_repulsion_energy": 1.79, 
			 "cosmo_total_nonelectrostatic_energy": 10.27, 
			 "SMD_solvation_energy": 3.44 
		},
		"coords": [
			{
				"x": 2.152131453,
				"y": -2.6713457706,
				"z": 0.6429350998,
				"element": "C" 
			},
			{
				"x": 0.9072481083,
				"y": -2.3572761872,
				"z": 1.35634023,
				"element": "N" 
			},
			{
				"x": 0.8654008965,
				"y": -0.9103176867,
				"z": 2.2132973424,
				"element": "S" 
			},
			{
				"x": -0.2894911082,
				"y": -1.0384376892,
				"z": 3.1071758354,
				"element": "O" 
			},
			{
				"x": 2.1786720824,
				"y": -0.5458962232,
				"z": 2.7501773627,
				"element": "O" 
			},
			{
				"x": 0.5820844106,
				"y": 0.1459466555,
				"z": 0.9284615022,
				"element": "N" 
			},
			{
				"x": -0.7763799603,
				"y": 0.0817342312,
				"z": 0.3566946089,
				"element": "C" 
			},
			{
				"x": -0.7211598017,
				"y": 0.658493609,
				"z": -1.057497571,
				"element": "C" 
			},
			{
				"x": -0.0200090023,
				"y": 2.000747176,
				"z": -1.1024272736,
				"element": "C" 
			},
			{
				"x": 0.8331913164,
				"y": 2.3912392622,
				"z": -0.0592693066,
				"element": "C" 
			},
			{
				"x": 1.0368131193,
				"y": 1.5285954852,
				"z": 1.1712660846,
				"element": "C" 
			},
			{
				"x": 1.4892431459,
				"y": 3.6275141114,
				"z": -0.1288999249,
				"element": "C" 
			},
			{
				"x": 1.3074849053,
				"y": 4.4737332071,
				"z": -1.2192891879,
				"element": "C" 
			},
			{
				"x": 0.4593993952,
				"y": 4.0870988375,
				"z": -2.2604792122,
				"element": "C" 
			},
			{
				"x": -0.1952875793,
				"y": 2.8600514891,
				"z": -2.1959555993,
				"element": "C" 
			},
			{
				"x": 3.0219264145,
				"y": -2.7537997107,
				"z": 1.3040249601,
				"element": "H" 
			},
			{
				"x": 2.3383134183,
				"y": -1.8855626025,
				"z": -0.0918144873,
				"element": "H" 
			},
			{
				"x": 2.004272528,
				"y": -3.6139111042,
				"z": 0.1103630763,
				"element": "H" 
			},
			{
				"x": 0.5916995907,
				"y": -3.0873792296,
				"z": 1.9899399002,
				"element": "H" 
			},
			{
				"x": -1.0930908655,
				"y": -0.9620262655,
				"z": 0.3336241872,
				"element": "H" 
			},
			{
				"x": -1.4863194393,
				"y": 0.6407025483,
				"z": 0.9835659055,
				"element": "H" 
			},
			{
				"x": -0.1943403011,
				"y": -0.0527446419,
				"z": -1.7071909232,
				"element": "H" 
			},
			{
				"x": -1.7400937787,
				"y": 0.7503450366,
				"z": -1.4518749133,
				"element": "H" 
			},
			{
				"x": 2.0931153077,
				"y": 1.4938258265,
				"z": 1.4430859492,
				"element": "H" 
			},
			{
				"x": 0.4952839674,
				"y": 1.9767375558,
				"z": 2.0214589897,
				"element": "H" 
			},
			{
				"x": 2.1499744376,
				"y": 3.92500508,
				"z": 0.6822684152,
				"element": "H" 
			},
			{
				"x": 1.825312438,
				"y": 5.4275938276,
				"z": -1.258836933,
				"element": "H" 
			},
			{
				"x": 0.3087709826,
				"y": 4.7398024537,
				"z": -3.1155010413,
				"element": "H" 
			},
			{
				"x": -0.8576660815,
				"y": 2.5575307186,
				"z": -3.0039430758,
				"element": "H" 
			}
		],
		 "valence_orbital": [ 
			{
				"type": "occ",
				"energy": -0.29876,
				"method": "rhf"
			},
			{
				"type": "occ",
				"energy": -0.27747,
				"method": "rhf"
			},
			{
				"type": "occ",
				"energy": -0.25712,
				"method": "rhf"
			},
			{
				"type": "occ",
				"energy": -0.24527,
				"method": "rhf"
			},
			{
				"type": "occ",
				"energy": -0.242,
				"method": "rhf"
			},
			{
				"type": "unocc",
				"energy": -0.00824,
				"method": "rhf"
			},
			{
				"type": "unocc",
				"energy": -0.00254,
				"method": "rhf"
			},
			{
				"type": "unocc",
				"energy": 0.05804,
				"method": "rhf"
			},
			{
				"type": "unocc",
				"energy": 0.08267,
				"method": "rhf"
			},
			{
				"type": "unocc",
				"energy": 0.0909,
				"method": "rhf"
			}
		],
		"cosmo_sigma_profile": { 
			"-0.025": 0.0,
			"-0.024": 0.0,
			"-0.023": 0.0,
			"-0.022": 0.0,
			"-0.021": 0.0,
			"-0.02": 0.0,
			"-0.019": 0.0,
			"-0.018": 0.0,
			"-0.017": 0.0,
			"-0.016": 0.0,
			"-0.015": 0.422109299991,
			"-0.014": 1.41358532128,
			"-0.013": 1.12101744129,
			"-0.012": 0.969335300768,
			"-0.011": 1.01441805074,
			"-0.01": 1.27976173476,
			"-0.009": 0.965384153582,
			"-0.008": 1.09288443058,
			"-0.007": 2.18414044536,
			"-0.006": 8.76055254982,
			"-0.005": 25.045253722,
			"-0.004": 31.0465870687,
			"-0.003": 28.1746842378,
			"-0.002": 22.178169807,
			"-0.001": 15.280466271,
			"0.0": 10.4569979104,
			"0.001": 10.8225583523,
			"0.002": 11.4576120538,
			"0.003": 12.9113366601,
			"0.004": 12.7741894866,
			"0.005": 12.3023431956,
			"0.006": 11.0154266904,
			"0.007": 3.72637931941,
			"0.008": 2.28608222903,
			"0.009": 4.38564961941,
			"0.01": 7.30094145914,
			"0.011": 9.4490140682,
			"0.012": 3.68868417902,
			"0.013": 0.0,
			"0.014": 0.0,
			"0.015": 0.0,
			"0.016": 0.0,
			"0.017": 0.0,
			"0.018": 0.0,
			"0.019": 0.0,
			"0.02": 0.0,
			"0.021": 0.0,
			"0.022": 0.0,
			"0.023": 0.0,
			"0.024": 0.0,
			"0.025": 0.0
		}
	}
}
