{
	 "smiles": "OC(=O)C(=O)C1=CN(N=C1)C1=CC=CC=C1", 
	 "Tm": 442.15, 
	 "num_atms": 24, 
	 "gaussian": { 
		 "optdone": 1, 
		 "sigma_profile": "yes", 
		 "theory": "DFT", 
		 "functional": "B3LYP", 
		 "basiset": "6-31G**", 
		 "properties": { 
			 "R2extent": 6267.3657, 
			 "electric_dipole_moment_norm": 1.94449451786, 
			 "electric_quadrupole_moment_norm": 12.9248922282, 
			 "total_energy": -759.145431929, 
			 "HOMO_LUMO_gap": 0.15325, 
			 "cosmo_polarized_energy": -14.91, 
			 "cosmo_cavitation_energy": 30.09, 
			 "cosmo_dispersion_energy": -22.12, 
			 "cosmo_repulsion_energy": 1.69, 
			 "cosmo_total_nonelectrostatic_energy": 9.66, 
			 "SMD_solvation_energy": 6.86 
		},
		"coords": [
			{
				"x": 6.5824469847,
				"y": 1.9914767504,
				"z": -0.1814480878,
				"element": "O" 
			},
			{
				"x": 5.4024572855,
				"y": 1.7640050388,
				"z": 0.4121038423,
				"element": "C" 
			},
			{
				"x": 5.1471112096,
				"y": 2.0899737473,
				"z": 1.5526594615,
				"element": "O" 
			},
			{
				"x": 4.421370612,
				"y": 1.0403774736,
				"z": -0.536335805,
				"element": "C" 
			},
			{
				"x": 4.7788187267,
				"y": 0.755855884,
				"z": -1.6686870574,
				"element": "O" 
			},
			{
				"x": 3.093069361,
				"y": 0.7304892712,
				"z": -0.0145733799,
				"element": "C" 
			},
			{
				"x": 2.1175645691,
				"y": 0.0824746535,
				"z": -0.765982809,
				"element": "C" 
			},
			{
				"x": 1.0236103278,
				"y": -0.0419109743,
				"z": 0.0171656935,
				"element": "N" 
			},
			{
				"x": 1.2264442181,
				"y": 0.4964070726,
				"z": 1.2624808569,
				"element": "N" 
			},
			{
				"x": 2.463286208,
				"y": 0.9585256252,
				"z": 1.2447355974,
				"element": "C" 
			},
			{
				"x": -0.2341277049,
				"y": -0.6346220001,
				"z": -0.2962664887,
				"element": "C" 
			},
			{
				"x": -0.4649940893,
				"y": -1.1898354654,
				"z": -1.5600729233,
				"element": "C" 
			},
			{
				"x": -1.7033021358,
				"y": -1.7638061775,
				"z": -1.8429530425,
				"element": "C" 
			},
			{
				"x": -2.7112924741,
				"y": -1.788672103,
				"z": -0.877975059,
				"element": "C" 
			},
			{
				"x": -2.4706224352,
				"y": -1.232121849,
				"z": 0.379437752,
				"element": "C" 
			},
			{
				"x": -1.2382562615,
				"y": -0.6546116519,
				"z": 0.6779650799,
				"element": "C" 
			},
			{
				"x": 7.1348997351,
				"y": 2.4452573472,
				"z": 0.4775343707,
				"element": "H" 
			},
			{
				"x": 2.1708596912,
				"y": -0.2736897082,
				"z": -1.78176494,
				"element": "H" 
			},
			{
				"x": 2.8815799838,
				"y": 1.4395937913,
				"z": 2.1152725505,
				"element": "H" 
			},
			{
				"x": 0.3041737244,
				"y": -1.1810070037,
				"z": -2.3239096366,
				"element": "H" 
			},
			{
				"x": -1.8760314429,
				"y": -2.1928059264,
				"z": -2.8253023596,
				"element": "H" 
			},
			{
				"x": -3.6735940417,
				"y": -2.2371326737,
				"z": -1.104393601,
				"element": "H" 
			},
			{
				"x": -3.2466397736,
				"y": -1.2451513499,
				"z": 1.1388860628,
				"element": "H" 
			},
			{
				"x": -1.037632278,
				"y": -0.2194697718,
				"z": 1.6483239224,
				"element": "H" 
			}
		],
		 "valence_orbital": [ 
			{
				"type": "occ",
				"energy": -0.30343,
				"method": "rhf"
			},
			{
				"type": "occ",
				"energy": -0.27143,
				"method": "rhf"
			},
			{
				"type": "occ",
				"energy": -0.26424,
				"method": "rhf"
			},
			{
				"type": "occ",
				"energy": -0.25591,
				"method": "rhf"
			},
			{
				"type": "occ",
				"energy": -0.23902,
				"method": "rhf"
			},
			{
				"type": "unocc",
				"energy": -0.08577,
				"method": "rhf"
			},
			{
				"type": "unocc",
				"energy": -0.03431,
				"method": "rhf"
			},
			{
				"type": "unocc",
				"energy": -0.01695,
				"method": "rhf"
			},
			{
				"type": "unocc",
				"energy": 0.02685,
				"method": "rhf"
			},
			{
				"type": "unocc",
				"energy": 0.02992,
				"method": "rhf"
			}
		],
		"cosmo_sigma_profile": { 
			"-0.025": 0.0,
			"-0.024": 0.0,
			"-0.023": 0.0,
			"-0.022": 0.0,
			"-0.021": 0.0,
			"-0.02": 0.120877535159,
			"-0.019": 0.955339429129,
			"-0.018": 0.861620588039,
			"-0.017": 1.18670682951,
			"-0.016": 0.745103164536,
			"-0.015": 0.204589268629,
			"-0.014": 0.395957536638,
			"-0.013": 1.38230179479,
			"-0.012": 2.05605494584,
			"-0.011": 2.33189452609,
			"-0.01": 1.57526788338,
			"-0.009": 2.51249155087,
			"-0.008": 3.43070343438,
			"-0.007": 6.874014019,
			"-0.006": 12.3223022065,
			"-0.005": 14.5447568784,
			"-0.004": 15.6923392815,
			"-0.003": 12.8601197005,
			"-0.002": 14.6791650211,
			"-0.001": 15.5851684334,
			"0.0": 20.446144078,
			"0.001": 17.1455128321,
			"0.002": 16.0133290973,
			"0.003": 16.0593614401,
			"0.004": 15.935237827,
			"0.005": 7.12019950506,
			"0.006": 5.62578260014,
			"0.007": 5.44811494277,
			"0.008": 5.55493522157,
			"0.009": 6.48335687462,
			"0.01": 7.6611443848,
			"0.011": 6.15467820043,
			"0.012": 1.79092394329,
			"0.013": 1.11716164422,
			"0.014": 0.00655269033177,
			"0.015": 0.0,
			"0.016": 0.0,
			"0.017": 0.0,
			"0.018": 0.0,
			"0.019": 0.0,
			"0.02": 0.0,
			"0.021": 0.0,
			"0.022": 0.0,
			"0.023": 0.0,
			"0.024": 0.0,
			"0.025": 0.0
		}
	}
}
