{
	 "smiles": "FC1=CC=CC(F)=C1N=C=O", 
	 "Tm": 297.15, 
	 "num_atms": 14, 
	 "gaussian": { 
		 "optdone": 1, 
		 "sigma_profile": "yes", 
		 "theory": "DFT", 
		 "functional": "B3LYP", 
		 "basiset": "6-31G**", 
		 "properties": { 
			 "R2extent": 1828.7419, 
			 "electric_dipole_moment_norm": 3.35626499997, 
			 "electric_quadrupole_moment_norm": 1.60909806724, 
			 "total_energy": -598.188673315, 
			 "HOMO_LUMO_gap": 0.21077, 
			 "cosmo_polarized_energy": -4.65, 
			 "cosmo_cavitation_energy": 20.95, 
			 "cosmo_dispersion_energy": -14.98, 
			 "cosmo_repulsion_energy": 1.17, 
			 "cosmo_total_nonelectrostatic_energy": 7.14, 
			 "SMD_solvation_energy": 6.75 
		},
		"coords": [
			{
				"x": 0.5246027988,
				"y": 1.5404189781,
				"z": 2.6393999077,
				"element": "F" 
			},
			{
				"x": 0.1467566838,
				"y": 1.2126610756,
				"z": 1.3947546407,
				"element": "C" 
			},
			{
				"x": -0.5946889985,
				"y": 2.111694206,
				"z": 0.6388861347,
				"element": "C" 
			},
			{
				"x": -0.9810238776,
				"y": 1.7574218228,
				"z": -0.6545993206,
				"element": "C" 
			},
			{
				"x": -0.6287238882,
				"y": 0.5152615524,
				"z": -1.1872652587,
				"element": "C" 
			},
			{
				"x": 0.1118311494,
				"y": -0.3575853917,
				"z": -0.4050606497,
				"element": "C" 
			},
			{
				"x": 0.4686034162,
				"y": -1.5643321472,
				"z": -0.8884330823,
				"element": "F" 
			},
			{
				"x": 0.5211689797,
				"y": -0.043212109,
				"z": 0.8989180158,
				"element": "C" 
			},
			{
				"x": 1.2612598889,
				"y": -0.9121980023,
				"z": 1.6859642339,
				"element": "N" 
			},
			{
				"x": 1.7255216995,
				"y": -2.0279377352,
				"z": 1.5538171768,
				"element": "C" 
			},
			{
				"x": 2.2313367229,
				"y": -3.0879058548,
				"z": 1.5796200946,
				"element": "O" 
			},
			{
				"x": -0.8561714217,
				"y": 3.0697030155,
				"z": 1.073313224,
				"element": "H" 
			},
			{
				"x": -1.5602488622,
				"y": 2.4531170287,
				"z": -1.2523045051,
				"element": "H" 
			},
			{
				"x": -0.9155242909,
				"y": 0.2150935612,
				"z": -2.1885106118,
				"element": "H" 
			}
		],
		 "valence_orbital": [ 
			{
				"type": "occ",
				"energy": -0.37948,
				"method": "rhf"
			},
			{
				"type": "occ",
				"energy": -0.34004,
				"method": "rhf"
			},
			{
				"type": "occ",
				"energy": -0.32116,
				"method": "rhf"
			},
			{
				"type": "occ",
				"energy": -0.26223,
				"method": "rhf"
			},
			{
				"type": "occ",
				"energy": -0.24568,
				"method": "rhf"
			},
			{
				"type": "unocc",
				"energy": -0.03491,
				"method": "rhf"
			},
			{
				"type": "unocc",
				"energy": -0.01454,
				"method": "rhf"
			},
			{
				"type": "unocc",
				"energy": 0.00851,
				"method": "rhf"
			},
			{
				"type": "unocc",
				"energy": 0.05992,
				"method": "rhf"
			},
			{
				"type": "unocc",
				"energy": 0.06619,
				"method": "rhf"
			}
		],
		"cosmo_sigma_profile": { 
			"-0.025": 0.0,
			"-0.024": 0.0,
			"-0.023": 0.0,
			"-0.022": 0.0,
			"-0.021": 0.0,
			"-0.02": 0.0,
			"-0.019": 0.0,
			"-0.018": 0.0,
			"-0.017": 0.0,
			"-0.016": 0.0,
			"-0.015": 0.0,
			"-0.014": 0.0,
			"-0.013": 0.0,
			"-0.012": 0.0,
			"-0.011": 0.0,
			"-0.01": 0.0,
			"-0.009": 0.0562565608621,
			"-0.008": 3.32454686687,
			"-0.007": 5.85641384298,
			"-0.006": 7.35002585045,
			"-0.005": 7.8262884299,
			"-0.004": 8.53045577275,
			"-0.003": 10.6312050865,
			"-0.002": 10.8114253761,
			"-0.001": 17.9269701019,
			"0.0": 18.9246298909,
			"0.001": 15.8604079782,
			"0.002": 15.2888117344,
			"0.003": 21.0529996813,
			"0.004": 9.56923548261,
			"0.005": 4.90862691956,
			"0.006": 6.71717828541,
			"0.007": 6.20833032228,
			"0.008": 0.0,
			"0.009": 0.0,
			"0.01": 0.0,
			"0.011": 0.0,
			"0.012": 0.0,
			"0.013": 0.0,
			"0.014": 0.0,
			"0.015": 0.0,
			"0.016": 0.0,
			"0.017": 0.0,
			"0.018": 0.0,
			"0.019": 0.0,
			"0.02": 0.0,
			"0.021": 0.0,
			"0.022": 0.0,
			"0.023": 0.0,
			"0.024": 0.0,
			"0.025": 0.0
		}
	}
}
