{
	 "smiles": "O=C1NNC2=CC=CC=C12", 
	 "Tm": 523.15, 
	 "num_atms": 16, 
	 "gaussian": { 
		 "optdone": 1, 
		 "sigma_profile": "yes", 
		 "theory": "DFT", 
		 "functional": "B3LYP", 
		 "basiset": "6-31G**", 
		 "properties": { 
			 "R2extent": 1450.7747, 
			 "electric_dipole_moment_norm": 4.08031760529, 
			 "electric_quadrupole_moment_norm": 15.5700314473, 
			 "total_energy": -455.069009049, 
			 "HOMO_LUMO_gap": 0.1807, 
			 "cosmo_polarized_energy": -14.34, 
			 "cosmo_cavitation_energy": 20.27, 
			 "cosmo_dispersion_energy": -15.44, 
			 "cosmo_repulsion_energy": 1.24, 
			 "cosmo_total_nonelectrostatic_energy": 6.07, 
			 "SMD_solvation_energy": 3.97 
		},
		"coords": [
			{
				"x": 0.3339871698,
				"y": 0.7339189718,
				"z": 3.4837382596,
				"element": "O" 
			},
			{
				"x": -0.1785855144,
				"y": 0.5378137284,
				"z": 2.3945377992,
				"element": "C" 
			},
			{
				"x": -1.5511179,
				"y": 0.292376204,
				"z": 2.1872880801,
				"element": "N" 
			},
			{
				"x": -1.883709298,
				"y": 0.3992335395,
				"z": 0.802918036,
				"element": "N" 
			},
			{
				"x": -0.649334737,
				"y": 0.3957582132,
				"z": 0.1286943741,
				"element": "C" 
			},
			{
				"x": -0.4128319123,
				"y": 0.3154808552,
				"z": -1.246600634,
				"element": "C" 
			},
			{
				"x": 0.9129798454,
				"y": 0.3900908388,
				"z": -1.6690377648,
				"element": "C" 
			},
			{
				"x": 1.9763156201,
				"y": 0.5382652754,
				"z": -0.7582354004,
				"element": "C" 
			},
			{
				"x": 1.7277028655,
				"y": 0.602018263,
				"z": 0.6093916497,
				"element": "C" 
			},
			{
				"x": 0.4033429908,
				"y": 0.5137734404,
				"z": 1.0416309629,
				"element": "C" 
			},
			{
				"x": -2.1961427788,
				"y": 0.7702600392,
				"z": 2.8058997784,
				"element": "H" 
			},
			{
				"x": -2.5001030599,
				"y": -0.3643247969,
				"z": 0.5314057421,
				"element": "H" 
			},
			{
				"x": -1.2261995803,
				"y": 0.2128612043,
				"z": -1.9584590129,
				"element": "H" 
			},
			{
				"x": 1.1301421894,
				"y": 0.3384541751,
				"z": -2.7321867427,
				"element": "H" 
			},
			{
				"x": 2.9938169381,
				"y": 0.5997266203,
				"z": -1.1311419592,
				"element": "H" 
			},
			{
				"x": 2.5291371614,
				"y": 0.7071934284,
				"z": 1.333956832,
				"element": "H" 
			}
		],
		 "valence_orbital": [ 
			{
				"type": "occ",
				"energy": -0.34931,
				"method": "rhf"
			},
			{
				"type": "occ",
				"energy": -0.27294,
				"method": "rhf"
			},
			{
				"type": "occ",
				"energy": -0.26357,
				"method": "rhf"
			},
			{
				"type": "occ",
				"energy": -0.24999,
				"method": "rhf"
			},
			{
				"type": "occ",
				"energy": -0.2202,
				"method": "rhf"
			},
			{
				"type": "unocc",
				"energy": -0.0395,
				"method": "rhf"
			},
			{
				"type": "unocc",
				"energy": -0.00457,
				"method": "rhf"
			},
			{
				"type": "unocc",
				"energy": 0.05755,
				"method": "rhf"
			},
			{
				"type": "unocc",
				"energy": 0.08063,
				"method": "rhf"
			},
			{
				"type": "unocc",
				"energy": 0.09278,
				"method": "rhf"
			}
		],
		"cosmo_sigma_profile": { 
			"-0.025": 0.0,
			"-0.024": 0.0,
			"-0.023": 0.0,
			"-0.022": 0.0,
			"-0.021": 0.0,
			"-0.02": 0.0,
			"-0.019": 0.0,
			"-0.018": 0.0,
			"-0.017": 0.0,
			"-0.016": 0.00900479857745,
			"-0.015": 2.04024094735,
			"-0.014": 3.00387356111,
			"-0.013": 1.96433341902,
			"-0.012": 1.80759480689,
			"-0.011": 2.70430159167,
			"-0.01": 1.83489698107,
			"-0.009": 2.92891515416,
			"-0.008": 2.33487369845,
			"-0.007": 4.72279450847,
			"-0.006": 8.94094264116,
			"-0.005": 10.6510122811,
			"-0.004": 9.71712981761,
			"-0.003": 7.35115383101,
			"-0.002": 7.50541831708,
			"-0.001": 7.72664877927,
			"0.0": 8.05990296953,
			"0.001": 9.86965742048,
			"0.002": 11.4736688443,
			"0.003": 12.4483132853,
			"0.004": 12.2672464092,
			"0.005": 6.07582138946,
			"0.006": 3.2442301555,
			"0.007": 2.55448449042,
			"0.008": 2.90442255389,
			"0.009": 1.27687107472,
			"0.01": 2.16369814869,
			"0.011": 1.93487461144,
			"0.012": 2.37362138573,
			"0.013": 5.39262831439,
			"0.014": 4.64155084157,
			"0.015": 0.417722250403,
			"0.016": 0.0,
			"0.017": 0.0,
			"0.018": 0.0,
			"0.019": 0.0,
			"0.02": 0.0,
			"0.021": 0.0,
			"0.022": 0.0,
			"0.023": 0.0,
			"0.024": 0.0,
			"0.025": 0.0
		}
	}
}
