{
	 "smiles": "OS(=O)(=O)CCCN1CCOCC1", 
	 "Tm": 557.15, 
	 "num_atms": 28, 
	 "gaussian": { 
		 "optdone": 1, 
		 "sigma_profile": "yes", 
		 "theory": "DFT", 
		 "functional": "B3LYP", 
		 "basiset": "6-31G**", 
		 "properties": { 
			 "R2extent": 4475.0615, 
			 "electric_dipole_moment_norm": 4.01204547457, 
			 "electric_quadrupole_moment_norm": 20.6616464288, 
			 "total_energy": -1029.52498474, 
			 "HOMO_LUMO_gap": 0.25647, 
			 "cosmo_polarized_energy": -17.35, 
			 "cosmo_cavitation_energy": 30.86, 
			 "cosmo_dispersion_energy": -22.97, 
			 "cosmo_repulsion_energy": 1.79, 
			 "cosmo_total_nonelectrostatic_energy": 9.69, 
			 "SMD_solvation_energy": 2.55 
		},
		"coords": [
			{
				"x": -3.0123179036,
				"y": -2.5523952214,
				"z": 2.6788504504,
				"element": "O" 
			},
			{
				"x": -3.1593889389,
				"y": -1.2150411077,
				"z": 1.7205265782,
				"element": "S" 
			},
			{
				"x": -3.2998293133,
				"y": -1.7015647516,
				"z": 0.3450542099,
				"element": "O" 
			},
			{
				"x": -4.1599664269,
				"y": -0.3297079225,
				"z": 2.3021685996,
				"element": "O" 
			},
			{
				"x": -1.5279404983,
				"y": -0.5008515387,
				"z": 1.9774990651,
				"element": "C" 
			},
			{
				"x": -0.3836059589,
				"y": -1.3611564625,
				"z": 1.44381442,
				"element": "C" 
			},
			{
				"x": 0.9341697238,
				"y": -0.5696180213,
				"z": 1.4059256632,
				"element": "C" 
			},
			{
				"x": 0.838471135,
				"y": 0.6297650704,
				"z": 0.5789575159,
				"element": "N" 
			},
			{
				"x": 0.6974256727,
				"y": 0.3175793295,
				"z": -0.8537055366,
				"element": "C" 
			},
			{
				"x": 1.0975121154,
				"y": 1.5181541454,
				"z": -1.7032182858,
				"element": "C" 
			},
			{
				"x": 2.470562511,
				"y": 1.8664846635,
				"z": -1.5427137134,
				"element": "O" 
			},
			{
				"x": 2.9896408988,
				"y": 1.6068158874,
				"z": -0.2390512357,
				"element": "C" 
			},
			{
				"x": 1.8920183221,
				"y": 1.634293939,
				"z": 0.8239360229,
				"element": "C" 
			},
			{
				"x": -3.4079920873,
				"y": -3.287490791,
				"z": 2.1807523416,
				"element": "H" 
			},
			{
				"x": -1.4522521736,
				"y": -0.3093716079,
				"z": 3.0515832335,
				"element": "H" 
			},
			{
				"x": -1.5613372135,
				"y": 0.4628381911,
				"z": 1.4607412046,
				"element": "H" 
			},
			{
				"x": -0.2525508495,
				"y": -2.246366555,
				"z": 2.0737407165,
				"element": "H" 
			},
			{
				"x": -0.6387736848,
				"y": -1.7188484991,
				"z": 0.4415623095,
				"element": "H" 
			},
			{
				"x": 1.7357187402,
				"y": -1.2549707247,
				"z": 1.0670765468,
				"element": "H" 
			},
			{
				"x": 1.1904318951,
				"y": -0.2590946562,
				"z": 2.4256139938,
				"element": "H" 
			},
			{
				"x": -0.3401771768,
				"y": 0.0440708978,
				"z": -1.0819793713,
				"element": "H" 
			},
			{
				"x": 1.3287358585,
				"y": -0.5433173258,
				"z": -1.1439814399,
				"element": "H" 
			},
			{
				"x": 0.9530592443,
				"y": 1.2902753312,
				"z": -2.7638257967,
				"element": "H" 
			},
			{
				"x": 0.4503876334,
				"y": 2.3739920611,
				"z": -1.4550662129,
				"element": "H" 
			},
			{
				"x": 3.7433663285,
				"y": 2.3758118512,
				"z": -0.034148299,
				"element": "H" 
			},
			{
				"x": 3.5002832565,
				"y": 0.6303387795,
				"z": -0.2248511143,
				"element": "H" 
			},
			{
				"x": 2.3314007625,
				"y": 1.4668885633,
				"z": 1.8124439009,
				"element": "H" 
			},
			{
				"x": 1.4451481275,
				"y": 2.637286475,
				"z": 0.8420942331,
				"element": "H" 
			}
		],
		 "valence_orbital": [ 
			{
				"type": "occ",
				"energy": -0.31489,
				"method": "rhf"
			},
			{
				"type": "occ",
				"energy": -0.30812,
				"method": "rhf"
			},
			{
				"type": "occ",
				"energy": -0.30035,
				"method": "rhf"
			},
			{
				"type": "occ",
				"energy": -0.2518,
				"method": "rhf"
			},
			{
				"type": "occ",
				"energy": -0.22193,
				"method": "rhf"
			},
			{
				"type": "unocc",
				"energy": 0.03454,
				"method": "rhf"
			},
			{
				"type": "unocc",
				"energy": 0.05835,
				"method": "rhf"
			},
			{
				"type": "unocc",
				"energy": 0.07758,
				"method": "rhf"
			},
			{
				"type": "unocc",
				"energy": 0.08668,
				"method": "rhf"
			},
			{
				"type": "unocc",
				"energy": 0.09071,
				"method": "rhf"
			}
		],
		"cosmo_sigma_profile": { 
			"-0.025": 0.0,
			"-0.024": 0.0,
			"-0.023": 0.0,
			"-0.022": 0.0,
			"-0.021": 0.0,
			"-0.02": 0.289468338401,
			"-0.019": 0.986842079804,
			"-0.018": 1.105842968,
			"-0.017": 0.581616272709,
			"-0.016": 0.713378295166,
			"-0.015": 0.764971130437,
			"-0.014": 0.783357945629,
			"-0.013": 0.984794562761,
			"-0.012": 0.841068745903,
			"-0.011": 0.551061825351,
			"-0.01": 0.293197616513,
			"-0.009": 1.91341923557,
			"-0.008": 3.45304778527,
			"-0.007": 3.69981280655,
			"-0.006": 5.32370701634,
			"-0.005": 13.0640627133,
			"-0.004": 25.2574681076,
			"-0.003": 36.6404121966,
			"-0.002": 32.7101747518,
			"-0.001": 18.1434460181,
			"0.0": 8.64521526261,
			"0.001": 7.24258388675,
			"0.002": 5.76923516845,
			"0.003": 5.69050073965,
			"0.004": 6.16451089508,
			"0.005": 5.30578266801,
			"0.006": 4.74355874057,
			"0.007": 6.33992898609,
			"0.008": 6.5107298492,
			"0.009": 7.73262300672,
			"0.01": 12.7580285316,
			"0.011": 9.58153238158,
			"0.012": 1.82372817215,
			"0.013": 1.76075207363,
			"0.014": 1.49951535531,
			"0.015": 0.0368510498512,
			"0.016": 0.0,
			"0.017": 0.0,
			"0.018": 0.0,
			"0.019": 0.0,
			"0.02": 0.0,
			"0.021": 0.0,
			"0.022": 0.0,
			"0.023": 0.0,
			"0.024": 0.0,
			"0.025": 0.0
		}
	}
}
