{
	 "smiles": "OC1=CC2=C(C=C1)N=CN2", 
	 "Tm": 489.15, 
	 "num_atms": 16, 
	 "gaussian": { 
		 "optdone": 1, 
		 "sigma_profile": "yes", 
		 "theory": "DFT", 
		 "functional": "B3LYP", 
		 "basiset": "6-31G**", 
		 "properties": { 
			 "R2extent": 1734.6144, 
			 "electric_dipole_moment_norm": 2.09551641607, 
			 "electric_quadrupole_moment_norm": 15.5422294334, 
			 "total_energy": -455.087323551, 
			 "HOMO_LUMO_gap": 0.19346, 
			 "cosmo_polarized_energy": -16.4, 
			 "cosmo_cavitation_energy": 20.19, 
			 "cosmo_dispersion_energy": -15.58, 
			 "cosmo_repulsion_energy": 1.25, 
			 "cosmo_total_nonelectrostatic_energy": 5.86, 
			 "SMD_solvation_energy": 2.04 
		},
		"coords": [
			{
				"x": 1.2263723254,
				"y": 3.4742543565,
				"z": -0.9731875629,
				"element": "O" 
			},
			{
				"x": 1.1586533428,
				"y": 2.1173903474,
				"z": -0.7952817389,
				"element": "C" 
			},
			{
				"x": 0.402729076,
				"y": 1.3955329295,
				"z": -1.7181635844,
				"element": "C" 
			},
			{
				"x": 0.3426660888,
				"y": 0.0153554385,
				"z": -1.5246631673,
				"element": "C" 
			},
			{
				"x": 1.0014456052,
				"y": -0.6480181733,
				"z": -0.4596601877,
				"element": "C" 
			},
			{
				"x": 1.7530049827,
				"y": 0.102636273,
				"z": 0.451209581,
				"element": "C" 
			},
			{
				"x": 1.824896626,
				"y": 1.4792716949,
				"z": 0.275126929,
				"element": "C" 
			},
			{
				"x": 0.7658950997,
				"y": -2.0177641667,
				"z": -0.5162476333,
				"element": "N" 
			},
			{
				"x": 0.0023010547,
				"y": -2.1781296872,
				"z": -1.5632438278,
				"element": "C" 
			},
			{
				"x": -0.2927493073,
				"y": -0.9982176951,
				"z": -2.2183316774,
				"element": "N" 
			},
			{
				"x": 1.7743833803,
				"y": 3.8539383615,
				"z": -0.2749274301,
				"element": "H" 
			},
			{
				"x": -0.0988678995,
				"y": 1.9093917906,
				"z": -2.5307611616,
				"element": "H" 
			},
			{
				"x": 2.2651531737,
				"y": -0.3857894548,
				"z": 1.2736227543,
				"element": "H" 
			},
			{
				"x": 2.4032078486,
				"y": 2.0842512142,
				"z": 0.9704964065,
				"element": "H" 
			},
			{
				"x": -0.3829577394,
				"y": -3.1261174713,
				"z": -1.9165417929,
				"element": "H" 
			},
			{
				"x": -0.8624336577,
				"y": -0.8986857579,
				"z": -3.0436459066,
				"element": "H" 
			}
		],
		 "valence_orbital": [ 
			{
				"type": "occ",
				"energy": -0.31478,
				"method": "rhf"
			},
			{
				"type": "occ",
				"energy": -0.29564,
				"method": "rhf"
			},
			{
				"type": "occ",
				"energy": -0.26783,
				"method": "rhf"
			},
			{
				"type": "occ",
				"energy": -0.22851,
				"method": "rhf"
			},
			{
				"type": "occ",
				"energy": -0.20364,
				"method": "rhf"
			},
			{
				"type": "unocc",
				"energy": -0.01018,
				"method": "rhf"
			},
			{
				"type": "unocc",
				"energy": 0.02855,
				"method": "rhf"
			},
			{
				"type": "unocc",
				"energy": 0.06146,
				"method": "rhf"
			},
			{
				"type": "unocc",
				"energy": 0.07291,
				"method": "rhf"
			},
			{
				"type": "unocc",
				"energy": 0.07754,
				"method": "rhf"
			}
		],
		"cosmo_sigma_profile": { 
			"-0.025": 0.0,
			"-0.024": 0.0,
			"-0.023": 0.0,
			"-0.022": 0.0,
			"-0.021": 0.0,
			"-0.02": 0.0,
			"-0.019": 0.0,
			"-0.018": 0.191005968804,
			"-0.017": 1.31588802185,
			"-0.016": 2.91723597498,
			"-0.015": 2.63161012664,
			"-0.014": 2.27963165605,
			"-0.013": 1.85998751937,
			"-0.012": 2.11037323278,
			"-0.011": 2.31419182389,
			"-0.01": 2.52741668413,
			"-0.009": 4.72464748704,
			"-0.008": 4.06730506416,
			"-0.007": 5.08098637471,
			"-0.006": 7.35653913645,
			"-0.005": 6.36876639561,
			"-0.004": 6.10018131943,
			"-0.003": 6.75056712294,
			"-0.002": 4.34291608565,
			"-0.001": 5.90075445409,
			"0.0": 6.45749580566,
			"0.001": 7.04089493779,
			"0.002": 9.88830174868,
			"0.003": 10.566991093,
			"0.004": 13.072971723,
			"0.005": 15.3620852722,
			"0.006": 7.09950294811,
			"0.007": 2.60971139483,
			"0.008": 3.23821253958,
			"0.009": 3.113209061,
			"0.01": 3.14601331357,
			"0.011": 2.53722472866,
			"0.012": 3.44274281032,
			"0.013": 0.855711134242,
			"0.014": 0.757083785722,
			"0.015": 1.08683824975,
			"0.016": 1.24340090396,
			"0.017": 0.941352629075,
			"0.018": 0.536196895249,
			"0.019": 0.0,
			"0.02": 0.0,
			"0.021": 0.0,
			"0.022": 0.0,
			"0.023": 0.0,
			"0.024": 0.0,
			"0.025": 0.0
		}
	}
}
