{
	 "smiles": "COC(=O)C1=CC=C(C(=O)OC)C(=C1)C(=O)OC", 
	 "Tm": 312.15, 
	 "num_atms": 30, 
	 "gaussian": { 
		 "optdone": 1, 
		 "sigma_profile": "yes", 
		 "theory": "DFT", 
		 "functional": "B3LYP", 
		 "basiset": "6-31G**", 
		 "properties": { 
			 "R2extent": 6148.1676, 
			 "electric_dipole_moment_norm": 1.68427386728, 
			 "electric_quadrupole_moment_norm": 24.682343963, 
			 "total_energy": -915.873326466, 
			 "HOMO_LUMO_gap": 0.1925, 
			 "cosmo_polarized_energy": -14.83, 
			 "cosmo_cavitation_energy": 36.1, 
			 "cosmo_dispersion_energy": -24.89, 
			 "cosmo_repulsion_energy": 1.94, 
			 "cosmo_total_nonelectrostatic_energy": 13.14, 
			 "SMD_solvation_energy": 10.76 
		},
		"coords": [
			{
				"x": -2.9359840839,
				"y": 3.5938022894,
				"z": -2.4453507576,
				"element": "C" 
			},
			{
				"x": -2.546863613,
				"y": 2.2531927819,
				"z": -2.1044022017,
				"element": "O" 
			},
			{
				"x": -1.2930058996,
				"y": 2.1246265207,
				"z": -1.6179459408,
				"element": "C" 
			},
			{
				"x": -0.5335822518,
				"y": 3.0609546898,
				"z": -1.470721535,
				"element": "O" 
			},
			{
				"x": -0.9570850751,
				"y": 0.7075687769,
				"z": -1.2867691827,
				"element": "C" 
			},
			{
				"x": -1.8536882614,
				"y": -0.3477454007,
				"z": -1.4950401263,
				"element": "C" 
			},
			{
				"x": -1.4841412447,
				"y": -1.6448829597,
				"z": -1.1529431514,
				"element": "C" 
			},
			{
				"x": -0.2238811097,
				"y": -1.9125475381,
				"z": -0.6052616584,
				"element": "C" 
			},
			{
				"x": 0.020780799,
				"y": -3.3278645415,
				"z": -0.1756596574,
				"element": "C" 
			},
			{
				"x": -0.3948162012,
				"y": -4.2987329337,
				"z": -0.7731510861,
				"element": "O" 
			},
			{
				"x": 0.6754961163,
				"y": -3.3937451814,
				"z": 1.0007908855,
				"element": "O" 
			},
			{
				"x": 0.934391516,
				"y": -4.7226374429,
				"z": 1.4829716675,
				"element": "C" 
			},
			{
				"x": 0.6962803907,
				"y": -0.8577677362,
				"z": -0.436032273,
				"element": "C" 
			},
			{
				"x": 0.3110573328,
				"y": 0.4445525578,
				"z": -0.7598871596,
				"element": "C" 
			},
			{
				"x": 2.1147308672,
				"y": -1.0356720859,
				"z": 0.0151449751,
				"element": "C" 
			},
			{
				"x": 2.7098426672,
				"y": -0.2452172476,
				"z": 0.7162155881,
				"element": "O" 
			},
			{
				"x": 2.6814486972,
				"y": -2.1342950279,
				"z": -0.5260691067,
				"element": "O" 
			},
			{
				"x": 4.0489905821,
				"y": -2.3634934411,
				"z": -0.1489519535,
				"element": "C" 
			},
			{
				"x": -2.8910593996,
				"y": 4.2414199469,
				"z": -1.5663551228,
				"element": "H" 
			},
			{
				"x": -3.9583524731,
				"y": 3.5178005743,
				"z": -2.8148790303,
				"element": "H" 
			},
			{
				"x": -2.2768397678,
				"y": 4.0002522308,
				"z": -3.2163593846,
				"element": "H" 
			},
			{
				"x": -2.8330106542,
				"y": -0.1476524001,
				"z": -1.9134429091,
				"element": "H" 
			},
			{
				"x": -2.1717882772,
				"y": -2.4717786963,
				"z": -1.293651425,
				"element": "H" 
			},
			{
				"x": 1.4311841152,
				"y": -4.5940211735,
				"z": 2.444251472,
				"element": "H" 
			},
			{
				"x": 1.5784303755,
				"y": -5.2639071496,
				"z": 0.7851640358,
				"element": "H" 
			},
			{
				"x": -0.0000249694,
				"y": -5.2759560109,
				"z": 1.602572038,
				"element": "H" 
			},
			{
				"x": 1.0065589935,
				"y": 1.2633721221,
				"z": -0.6149092912,
				"element": "H" 
			},
			{
				"x": 4.3574871804,
				"y": -3.2564445769,
				"z": -0.6921743323,
				"element": "H" 
			},
			{
				"x": 4.6713721129,
				"y": -1.5093876983,
				"z": -0.4259064487,
				"element": "H" 
			},
			{
				"x": 4.1274715359,
				"y": -2.5218932483,
				"z": 0.9297530722,
				"element": "H" 
			}
		],
		 "valence_orbital": [ 
			{
				"type": "occ",
				"energy": -0.28937,
				"method": "rhf"
			},
			{
				"type": "occ",
				"energy": -0.28631,
				"method": "rhf"
			},
			{
				"type": "occ",
				"energy": -0.28154,
				"method": "rhf"
			},
			{
				"type": "occ",
				"energy": -0.26786,
				"method": "rhf"
			},
			{
				"type": "occ",
				"energy": -0.26611,
				"method": "rhf"
			},
			{
				"type": "unocc",
				"energy": -0.07361,
				"method": "rhf"
			},
			{
				"type": "unocc",
				"energy": -0.03877,
				"method": "rhf"
			},
			{
				"type": "unocc",
				"energy": 0.00604,
				"method": "rhf"
			},
			{
				"type": "unocc",
				"energy": 0.02587,
				"method": "rhf"
			},
			{
				"type": "unocc",
				"energy": 0.06749,
				"method": "rhf"
			}
		],
		"cosmo_sigma_profile": { 
			"-0.025": 0.0,
			"-0.024": 0.0,
			"-0.023": 0.0,
			"-0.022": 0.0,
			"-0.021": 0.0,
			"-0.02": 0.0,
			"-0.019": 0.0,
			"-0.018": 0.0,
			"-0.017": 0.0,
			"-0.016": 0.0,
			"-0.015": 0.0,
			"-0.014": 0.0,
			"-0.013": 0.0,
			"-0.012": 0.0,
			"-0.011": 0.0,
			"-0.01": 0.0,
			"-0.009": 0.0,
			"-0.008": 0.721128401306,
			"-0.007": 7.17167241089,
			"-0.006": 20.2927476844,
			"-0.005": 23.5323244513,
			"-0.004": 34.5411866091,
			"-0.003": 29.0020466948,
			"-0.002": 19.0503343002,
			"-0.001": 20.8445115988,
			"0.0": 25.8108212288,
			"0.001": 20.9999779054,
			"0.002": 12.6715245202,
			"0.003": 10.7211573357,
			"0.004": 8.88967534395,
			"0.005": 7.77170678437,
			"0.006": 6.00011199132,
			"0.007": 5.36584544111,
			"0.008": 4.1232542181,
			"0.009": 4.96212228819,
			"0.01": 6.77229635466,
			"0.011": 12.7460858128,
			"0.012": 5.73379100486,
			"0.013": 0.0324541657578,
			"0.014": 0.0,
			"0.015": 0.0,
			"0.016": 0.0,
			"0.017": 0.0,
			"0.018": 0.0,
			"0.019": 0.0,
			"0.02": 0.0,
			"0.021": 0.0,
			"0.022": 0.0,
			"0.023": 0.0,
			"0.024": 0.0,
			"0.025": 0.0
		}
	}
}
