{
	 "smiles": "CCOC(=O)C(=O)NN", 
	 "Tm": 313.15, 
	 "num_atms": 17, 
	 "gaussian": { 
		 "optdone": 1, 
		 "sigma_profile": "yes", 
		 "theory": "DFT", 
		 "functional": "B3LYP", 
		 "basiset": "6-31G**", 
		 "properties": { 
			 "R2extent": 2397.6727, 
			 "electric_dipole_moment_norm": 2.79994679592, 
			 "electric_quadrupole_moment_norm": 7.54354390323, 
			 "total_energy": -492.398473504, 
			 "HOMO_LUMO_gap": 0.19761, 
			 "cosmo_polarized_energy": -13.81, 
			 "cosmo_cavitation_energy": 21.81, 
			 "cosmo_dispersion_energy": -15.98, 
			 "cosmo_repulsion_energy": 1.38, 
			 "cosmo_total_nonelectrostatic_energy": 7.2, 
			 "SMD_solvation_energy": 6.43 
		},
		"coords": [
			{
				"x": -1.6746069943,
				"y": -1.1500570394,
				"z": 0.7553996742,
				"element": "C" 
			},
			{
				"x": -0.2378482464,
				"y": -1.6034623019,
				"z": 0.5901149671,
				"element": "C" 
			},
			{
				"x": 0.3258048255,
				"y": -0.8587720162,
				"z": -0.5206854634,
				"element": "O" 
			},
			{
				"x": 1.5969333231,
				"y": -1.119442617,
				"z": -0.8146441341,
				"element": "C" 
			},
			{
				"x": 2.3026808109,
				"y": -1.908098892,
				"z": -0.2127543268,
				"element": "O" 
			},
			{
				"x": 2.0312186231,
				"y": -0.3378527017,
				"z": -2.0715462771,
				"element": "C" 
			},
			{
				"x": 1.2339185952,
				"y": -0.0899212697,
				"z": -2.9620263027,
				"element": "O" 
			},
			{
				"x": 3.352456271,
				"y": -0.0078724801,
				"z": -2.1449360955,
				"element": "N" 
			},
			{
				"x": 4.3902620135,
				"y": -0.2636042271,
				"z": -1.2252000281,
				"element": "N" 
			},
			{
				"x": -2.2511184829,
				"y": -1.3436494489,
				"z": -0.1530814762,
				"element": "H" 
			},
			{
				"x": -1.72456431,
				"y": -0.079857631,
				"z": 0.9742568389,
				"element": "H" 
			},
			{
				"x": -2.1391377534,
				"y": -1.6941047644,
				"z": 1.5835771327,
				"element": "H" 
			},
			{
				"x": -0.1620509461,
				"y": -2.6713159298,
				"z": 0.3636238633,
				"element": "H" 
			},
			{
				"x": 0.3656868753,
				"y": -1.4100899757,
				"z": 1.4825926822,
				"element": "H" 
			},
			{
				"x": 3.6399881826,
				"y": 0.410361491,
				"z": -3.020747826,
				"element": "H" 
			},
			{
				"x": 4.284513655,
				"y": -1.2180390125,
				"z": -0.8905585549,
				"element": "H" 
			},
			{
				"x": 4.2773635581,
				"y": 0.3483788163,
				"z": -0.4184846736,
				"element": "H" 
			}
		],
		 "valence_orbital": [ 
			{
				"type": "occ",
				"energy": -0.32043,
				"method": "rhf"
			},
			{
				"type": "occ",
				"energy": -0.3199,
				"method": "rhf"
			},
			{
				"type": "occ",
				"energy": -0.29653,
				"method": "rhf"
			},
			{
				"type": "occ",
				"energy": -0.26374,
				"method": "rhf"
			},
			{
				"type": "occ",
				"energy": -0.245,
				"method": "rhf"
			},
			{
				"type": "unocc",
				"energy": -0.04739,
				"method": "rhf"
			},
			{
				"type": "unocc",
				"energy": 0.06556,
				"method": "rhf"
			},
			{
				"type": "unocc",
				"energy": 0.08429,
				"method": "rhf"
			},
			{
				"type": "unocc",
				"energy": 0.0944,
				"method": "rhf"
			},
			{
				"type": "unocc",
				"energy": 0.10057,
				"method": "rhf"
			}
		],
		"cosmo_sigma_profile": { 
			"-0.025": 0.0,
			"-0.024": 0.0,
			"-0.023": 0.0,
			"-0.022": 0.0,
			"-0.021": 0.0,
			"-0.02": 0.0,
			"-0.019": 0.0,
			"-0.018": 0.0,
			"-0.017": 0.0,
			"-0.016": 0.0,
			"-0.015": 0.268858748479,
			"-0.014": 1.1241539409,
			"-0.013": 0.943691025055,
			"-0.012": 2.58013292354,
			"-0.011": 2.42823664169,
			"-0.01": 2.36620038252,
			"-0.009": 3.26658867795,
			"-0.008": 3.13958888227,
			"-0.007": 3.41127947015,
			"-0.006": 7.34914563327,
			"-0.005": 13.5409780618,
			"-0.004": 17.316456861,
			"-0.003": 15.1439535784,
			"-0.002": 13.6771001489,
			"-0.001": 11.6570539182,
			"0.0": 10.9603502231,
			"0.001": 6.78979522669,
			"0.002": 5.50044121958,
			"0.003": 3.59763221619,
			"0.004": 3.56239409239,
			"0.005": 3.50341450866,
			"0.006": 3.82168450148,
			"0.007": 3.81941111024,
			"0.008": 4.12154417889,
			"0.009": 4.81475513147,
			"0.01": 4.36265345483,
			"0.011": 4.40848361909,
			"0.012": 6.16160382392,
			"0.013": 5.04479119888,
			"0.014": 1.91428017277,
			"0.015": 0.468639756585,
			"0.016": 0.335860740059,
			"0.017": 0.0,
			"0.018": 0.0,
			"0.019": 0.0,
			"0.02": 0.0,
			"0.021": 0.0,
			"0.022": 0.0,
			"0.023": 0.0,
			"0.024": 0.0,
			"0.025": 0.0
		}
	}
}
