{
	 "smiles": "COC1=CC=C(C#N)C(OC)=C1", 
	 "Tm": 367.15, 
	 "num_atms": 21, 
	 "gaussian": { 
		 "optdone": 1, 
		 "sigma_profile": "yes", 
		 "theory": "DFT", 
		 "functional": "B3LYP", 
		 "basiset": "6-31G**", 
		 "properties": { 
			 "R2extent": 2460.5078, 
			 "electric_dipole_moment_norm": 6.93246793429, 
			 "electric_quadrupole_moment_norm": 17.7575225443, 
			 "total_energy": -553.540470193, 
			 "HOMO_LUMO_gap": 0.19265, 
			 "cosmo_polarized_energy": -14.31, 
			 "cosmo_cavitation_energy": 26.1, 
			 "cosmo_dispersion_energy": -18.47, 
			 "cosmo_repulsion_energy": 1.48, 
			 "cosmo_total_nonelectrostatic_energy": 9.12, 
			 "SMD_solvation_energy": 7.5 
		},
		"coords": [
			{
				"x": -1.2318950427,
				"y": 3.0262623901,
				"z": -0.8026590612,
				"element": "C" 
			},
			{
				"x": -1.4621242981,
				"y": 2.1973648956,
				"z": 0.328008333,
				"element": "O" 
			},
			{
				"x": -0.6166447911,
				"y": 1.1619694105,
				"z": 0.5680710292,
				"element": "C" 
			},
			{
				"x": -0.9107167235,
				"y": 0.390562186,
				"z": 1.7033102838,
				"element": "C" 
			},
			{
				"x": -0.0993390163,
				"y": -0.6849735054,
				"z": 2.0219641336,
				"element": "C" 
			},
			{
				"x": 1.0136093756,
				"y": -1.0198030881,
				"z": 1.2306286234,
				"element": "C" 
			},
			{
				"x": 1.8399226783,
				"y": -2.1328235321,
				"z": 1.5740898185,
				"element": "C" 
			},
			{
				"x": 2.4941621905,
				"y": -3.0457325011,
				"z": 1.8801222726,
				"element": "N" 
			},
			{
				"x": 1.3012761885,
				"y": -0.237010004,
				"z": 0.0896967651,
				"element": "C" 
			},
			{
				"x": 2.386517403,
				"y": -0.615092703,
				"z": -0.6265263631,
				"element": "O" 
			},
			{
				"x": 2.7408644798,
				"y": 0.1223900018,
				"z": -1.7881128478,
				"element": "C" 
			},
			{
				"x": 0.4862673511,
				"y": 0.8524426442,
				"z": -0.2401271213,
				"element": "C" 
			},
			{
				"x": -2.0240249771,
				"y": 3.7757490412,
				"z": -0.7899438553,
				"element": "H" 
			},
			{
				"x": -1.2890506236,
				"y": 2.4566404463,
				"z": -1.7386645657,
				"element": "H" 
			},
			{
				"x": -0.258474639,
				"y": 3.5289487929,
				"z": -0.7426707491,
				"element": "H" 
			},
			{
				"x": -1.7700640311,
				"y": 0.654521133,
				"z": 2.3084638735,
				"element": "H" 
			},
			{
				"x": -0.31563055,
				"y": -1.2891773352,
				"z": 2.8966255685,
				"element": "H" 
			},
			{
				"x": 3.6316858849,
				"y": -0.3638599621,
				"z": -2.1863879384,
				"element": "H" 
			},
			{
				"x": 2.9754685841,
				"y": 1.1663030534,
				"z": -1.5457159857,
				"element": "H" 
			},
			{
				"x": 1.9441908316,
				"y": 0.0928650968,
				"z": -2.5417597358,
				"element": "H" 
			},
			{
				"x": 0.7099997253,
				"y": 1.4479535392,
				"z": -1.1131124781,
				"element": "H" 
			}
		],
		 "valence_orbital": [ 
			{
				"type": "occ",
				"energy": -0.34027,
				"method": "rhf"
			},
			{
				"type": "occ",
				"energy": -0.3137,
				"method": "rhf"
			},
			{
				"type": "occ",
				"energy": -0.30518,
				"method": "rhf"
			},
			{
				"type": "occ",
				"energy": -0.25554,
				"method": "rhf"
			},
			{
				"type": "occ",
				"energy": -0.22417,
				"method": "rhf"
			},
			{
				"type": "unocc",
				"energy": -0.03152,
				"method": "rhf"
			},
			{
				"type": "unocc",
				"energy": -0.00763,
				"method": "rhf"
			},
			{
				"type": "unocc",
				"energy": 0.0481,
				"method": "rhf"
			},
			{
				"type": "unocc",
				"energy": 0.07429,
				"method": "rhf"
			},
			{
				"type": "unocc",
				"energy": 0.09239,
				"method": "rhf"
			}
		],
		"cosmo_sigma_profile": { 
			"-0.025": 0.0,
			"-0.024": 0.0,
			"-0.023": 0.0,
			"-0.022": 0.0,
			"-0.021": 0.0,
			"-0.02": 0.0,
			"-0.019": 0.0,
			"-0.018": 0.0,
			"-0.017": 0.0,
			"-0.016": 0.0,
			"-0.015": 0.0,
			"-0.014": 0.0,
			"-0.013": 0.0,
			"-0.012": 0.0,
			"-0.011": 0.0,
			"-0.01": 0.0,
			"-0.009": 0.0,
			"-0.008": 2.70964805457,
			"-0.007": 9.08275737622,
			"-0.006": 20.5933679034,
			"-0.005": 20.4851657446,
			"-0.004": 20.3434412552,
			"-0.003": 15.6360991507,
			"-0.002": 8.08987728578,
			"-0.001": 8.52943911596,
			"0.0": 13.0520123912,
			"0.001": 14.1679810229,
			"0.002": 16.7285085492,
			"0.003": 11.9253000602,
			"0.004": 6.45544086511,
			"0.005": 4.6244272489,
			"0.006": 4.801327416,
			"0.007": 6.09755425231,
			"0.008": 6.8775709442,
			"0.009": 5.88184381945,
			"0.01": 4.04496705767,
			"0.011": 3.16110735996,
			"0.012": 2.72576622014,
			"0.013": 2.35837313476,
			"0.014": 0.83807930156,
			"0.015": 0.0,
			"0.016": 0.0,
			"0.017": 0.0,
			"0.018": 0.0,
			"0.019": 0.0,
			"0.02": 0.0,
			"0.021": 0.0,
			"0.022": 0.0,
			"0.023": 0.0,
			"0.024": 0.0,
			"0.025": 0.0
		}
	}
}
