{
	 "smiles": "CCOP(=S)(OCC)ON=C(C#N)C1=CC=CC=C1", 
	 "Tm": 279.25, 
	 "num_atms": 34, 
	 "gaussian": { 
		 "optdone": 1, 
		 "sigma_profile": "yes", 
		 "theory": "DFT", 
		 "functional": "B3LYP", 
		 "basiset": "6-31G**", 
		 "properties": { 
			 "R2extent": 7555.5005, 
			 "electric_dipole_moment_norm": 7.74478867175, 
			 "electric_quadrupole_moment_norm": 22.7899962201, 
			 "total_energy": -1541.01800867, 
			 "HOMO_LUMO_gap": 0.16021, 
			 "cosmo_polarized_energy": -16.14, 
			 "cosmo_cavitation_energy": 43.38, 
			 "cosmo_dispersion_energy": -28.66, 
			 "cosmo_repulsion_energy": 2.25, 
			 "cosmo_total_nonelectrostatic_energy": 16.97, 
			 "SMD_solvation_energy": 8.43 
		},
		"coords": [
			{
				"x": 1.2358535457,
				"y": 3.2612170253,
				"z": 0.3871585131,
				"element": "C" 
			},
			{
				"x": 1.1530921078,
				"y": 1.9865337395,
				"z": -0.4295275509,
				"element": "C" 
			},
			{
				"x": -0.2532907196,
				"y": 1.6686333313,
				"z": -0.611987628,
				"element": "O" 
			},
			{
				"x": -0.739782925,
				"y": 0.5381493557,
				"z": -1.6525854023,
				"element": "P" 
			},
			{
				"x": 0.1199634405,
				"y": 0.4092117432,
				"z": -3.3656958087,
				"element": "S" 
			},
			{
				"x": -2.318491522,
				"y": 0.7630991266,
				"z": -1.6972923073,
				"element": "O" 
			},
			{
				"x": -3.1396978191,
				"y": 0.8614659749,
				"z": -0.4981821493,
				"element": "C" 
			},
			{
				"x": -4.5657222877,
				"y": 1.1117931606,
				"z": -0.9467255573,
				"element": "C" 
			},
			{
				"x": -0.5222497499,
				"y": -0.7630777608,
				"z": -0.6023765021,
				"element": "O" 
			},
			{
				"x": -1.0774385921,
				"y": -1.9421762035,
				"z": -1.1093044748,
				"element": "N" 
			},
			{
				"x": -0.7307272795,
				"y": -2.9947883506,
				"z": -0.4386181901,
				"element": "C" 
			},
			{
				"x": -1.3322057016,
				"y": -4.1876855381,
				"z": -0.9990394862,
				"element": "C" 
			},
			{
				"x": -1.7987865934,
				"y": -5.1674938403,
				"z": -1.4139024857,
				"element": "N" 
			},
			{
				"x": 0.1462180507,
				"y": -3.1743682997,
				"z": 0.7437749222,
				"element": "C" 
			},
			{
				"x": 0.4033186439,
				"y": -2.1473556794,
				"z": 1.6724271226,
				"element": "C" 
			},
			{
				"x": 1.2246009441,
				"y": -2.3891144788,
				"z": 2.7713550818,
				"element": "C" 
			},
			{
				"x": 1.8090847801,
				"y": -3.6429394154,
				"z": 2.9602803524,
				"element": "C" 
			},
			{
				"x": 1.5568277496,
				"y": -4.6680913803,
				"z": 2.0471525591,
				"element": "C" 
			},
			{
				"x": 0.7256579602,
				"y": -4.4402663247,
				"z": 0.9541807977,
				"element": "C" 
			},
			{
				"x": 0.7474484539,
				"y": 4.0877264523,
				"z": -0.1360677067,
				"element": "H" 
			},
			{
				"x": 2.2855059293,
				"y": 3.5258995254,
				"z": 0.5491562219,
				"element": "H" 
			},
			{
				"x": 0.75741052,
				"y": 3.1350752521,
				"z": 1.3625847369,
				"element": "H" 
			},
			{
				"x": 1.6335709226,
				"y": 1.1465490995,
				"z": 0.0838430804,
				"element": "H" 
			},
			{
				"x": 1.6157048403,
				"y": 2.1046325559,
				"z": -1.4138428088,
				"element": "H" 
			},
			{
				"x": -2.7578219796,
				"y": 1.6794734829,
				"z": 0.119561855,
				"element": "H" 
			},
			{
				"x": -3.0536128951,
				"y": -0.0756628008,
				"z": 0.0603038279,
				"element": "H" 
			},
			{
				"x": -5.2188119789,
				"y": 1.1871456777,
				"z": -0.0713225874,
				"element": "H" 
			},
			{
				"x": -4.6356329463,
				"y": 2.0436022092,
				"z": -1.5140720735,
				"element": "H" 
			},
			{
				"x": -4.9216163906,
				"y": 0.292865408,
				"z": -1.5771402391,
				"element": "H" 
			},
			{
				"x": -0.045831926,
				"y": -1.1735631044,
				"z": 1.5409963851,
				"element": "H" 
			},
			{
				"x": 1.4074109154,
				"y": -1.5911277732,
				"z": 3.4848443156,
				"element": "H" 
			},
			{
				"x": 2.4526587551,
				"y": -3.8212039342,
				"z": 3.8166890938,
				"element": "H" 
			},
			{
				"x": 2.0020951928,
				"y": -5.6482260282,
				"z": 2.1870477457,
				"element": "H" 
			},
			{
				"x": 0.5251985543,
				"y": -5.2461322074,
				"z": 0.2557263467,
				"element": "H" 
			}
		],
		 "valence_orbital": [ 
			{
				"type": "occ",
				"energy": -0.30395,
				"method": "rhf"
			},
			{
				"type": "occ",
				"energy": -0.27396,
				"method": "rhf"
			},
			{
				"type": "occ",
				"energy": -0.26627,
				"method": "rhf"
			},
			{
				"type": "occ",
				"energy": -0.2485,
				"method": "rhf"
			},
			{
				"type": "occ",
				"energy": -0.24499,
				"method": "rhf"
			},
			{
				"type": "unocc",
				"energy": -0.08478,
				"method": "rhf"
			},
			{
				"type": "unocc",
				"energy": -0.02447,
				"method": "rhf"
			},
			{
				"type": "unocc",
				"energy": -0.0129,
				"method": "rhf"
			},
			{
				"type": "unocc",
				"energy": 0.01093,
				"method": "rhf"
			},
			{
				"type": "unocc",
				"energy": 0.03091,
				"method": "rhf"
			}
		],
		"cosmo_sigma_profile": { 
			"-0.025": 0.0,
			"-0.024": 0.0,
			"-0.023": 0.0,
			"-0.022": 0.0,
			"-0.021": 0.0,
			"-0.02": 0.0,
			"-0.019": 0.0,
			"-0.018": 0.0,
			"-0.017": 0.0,
			"-0.016": 0.0,
			"-0.015": 0.0,
			"-0.014": 0.0,
			"-0.013": 0.0,
			"-0.012": 0.0,
			"-0.011": 0.0,
			"-0.01": 0.0,
			"-0.009": 0.0,
			"-0.008": 0.0155823725992,
			"-0.007": 4.84526555482,
			"-0.006": 15.4128937186,
			"-0.005": 31.1174622901,
			"-0.004": 39.473052904,
			"-0.003": 33.1124294403,
			"-0.002": 29.2066431013,
			"-0.001": 28.6855363759,
			"0.0": 27.2659985434,
			"0.001": 18.9755041531,
			"0.002": 21.5828178417,
			"0.003": 22.9232184888,
			"0.004": 14.1234443122,
			"0.005": 10.4631383388,
			"0.006": 12.2746990015,
			"0.007": 13.3421877291,
			"0.008": 13.8745326533,
			"0.009": 5.73147087115,
			"0.01": 2.62583577553,
			"0.011": 2.09767322525,
			"0.012": 0.714880196824,
			"0.013": 0.0,
			"0.014": 0.0,
			"0.015": 0.0,
			"0.016": 0.0,
			"0.017": 0.0,
			"0.018": 0.0,
			"0.019": 0.0,
			"0.02": 0.0,
			"0.021": 0.0,
			"0.022": 0.0,
			"0.023": 0.0,
			"0.024": 0.0,
			"0.025": 0.0
		}
	}
}
