{
	 "smiles": "NC(=O)C1=C(N)N=C(NC2=CC=C(Cl)C=C2)S1", 
	 "Tm": 494.15, 
	 "num_atms": 26, 
	 "gaussian": { 
		 "optdone": 1, 
		 "sigma_profile": "yes", 
		 "theory": "DFT", 
		 "functional": "B3LYP", 
		 "basiset": "6-31G**", 
		 "properties": { 
			 "R2extent": 8599.0534, 
			 "electric_dipole_moment_norm": 4.97337306262, 
			 "electric_quadrupole_moment_norm": 12.4291106737, 
			 "total_energy": -1539.1215514, 
			 "HOMO_LUMO_gap": 0.15742, 
			 "cosmo_polarized_energy": -20.55, 
			 "cosmo_cavitation_energy": 34.21, 
			 "cosmo_dispersion_energy": -26.17, 
			 "cosmo_repulsion_energy": 1.99, 
			 "cosmo_total_nonelectrostatic_energy": 10.03, 
			 "SMD_solvation_energy": 4.45 
		},
		"coords": [
			{
				"x": 0.814797854,
				"y": -2.5591567561,
				"z": 4.2265067877,
				"element": "N" 
			},
			{
				"x": 1.1322974246,
				"y": -2.6789426027,
				"z": 2.868909309,
				"element": "C" 
			},
			{
				"x": 1.4660013336,
				"y": -3.7536586569,
				"z": 2.3764205023,
				"element": "O" 
			},
			{
				"x": 1.0762180592,
				"y": -1.4422108062,
				"z": 2.102572845,
				"element": "C" 
			},
			{
				"x": 0.9682571836,
				"y": -0.114821299,
				"z": 2.48666114,
				"element": "C" 
			},
			{
				"x": 0.8416283166,
				"y": 0.3479455627,
				"z": 3.7850845047,
				"element": "N" 
			},
			{
				"x": 0.9673149999,
				"y": 0.811618987,
				"z": 1.480032271,
				"element": "N" 
			},
			{
				"x": 1.0883842216,
				"y": 0.2201374429,
				"z": 0.308351639,
				"element": "C" 
			},
			{
				"x": 1.0559883604,
				"y": 0.9854650475,
				"z": -0.8248905247,
				"element": "N" 
			},
			{
				"x": 1.2008785508,
				"y": 0.6593553231,
				"z": -2.1809163192,
				"element": "C" 
			},
			{
				"x": 1.8419218737,
				"y": -0.5023500108,
				"z": -2.6365277557,
				"element": "C" 
			},
			{
				"x": 1.9535083503,
				"y": -0.7525285668,
				"z": -4.0039305214,
				"element": "C" 
			},
			{
				"x": 1.4440935043,
				"y": 0.1602484423,
				"z": -4.9238481968,
				"element": "C" 
			},
			{
				"x": 1.5897403717,
				"y": -0.1583119206,
				"z": -6.6449271918,
				"element": "Cl" 
			},
			{
				"x": 0.8216361286,
				"y": 1.3306861004,
				"z": -4.4877229308,
				"element": "C" 
			},
			{
				"x": 0.6989983394,
				"y": 1.572572041,
				"z": -3.1246839552,
				"element": "C" 
			},
			{
				"x": 1.2294508956,
				"y": -1.5265703301,
				"z": 0.3496634461,
				"element": "S" 
			},
			{
				"x": 0.7306587603,
				"y": -3.4660602344,
				"z": 4.6700739122,
				"element": "H" 
			},
			{
				"x": 0.0601381036,
				"y": -1.9220431529,
				"z": 4.4550455218,
				"element": "H" 
			},
			{
				"x": 1.0150203841,
				"y": 1.3418009742,
				"z": 3.8602010561,
				"element": "H" 
			},
			{
				"x": 1.331987307,
				"y": -0.2041768583,
				"z": 4.4784347174,
				"element": "H" 
			},
			{
				"x": 0.8329783542,
				"y": 1.9498443696,
				"z": -0.6140636202,
				"element": "H" 
			},
			{
				"x": 2.2856734818,
				"y": -1.203238857,
				"z": -1.9408420148,
				"element": "H" 
			},
			{
				"x": 2.449290985,
				"y": -1.6529774498,
				"z": -4.3488999732,
				"element": "H" 
			},
			{
				"x": 0.4295537546,
				"y": 2.0407663228,
				"z": -5.207191191,
				"element": "H" 
			},
			{
				"x": 0.2002831017,
				"y": 2.4765068881,
				"z": -2.7849134576,
				"element": "H" 
			}
		],
		 "valence_orbital": [ 
			{
				"type": "occ",
				"energy": -0.27467,
				"method": "rhf"
			},
			{
				"type": "occ",
				"energy": -0.27274,
				"method": "rhf"
			},
			{
				"type": "occ",
				"energy": -0.24508,
				"method": "rhf"
			},
			{
				"type": "occ",
				"energy": -0.23695,
				"method": "rhf"
			},
			{
				"type": "occ",
				"energy": -0.20071,
				"method": "rhf"
			},
			{
				"type": "unocc",
				"energy": -0.04329,
				"method": "rhf"
			},
			{
				"type": "unocc",
				"energy": -0.02613,
				"method": "rhf"
			},
			{
				"type": "unocc",
				"energy": -0.00375,
				"method": "rhf"
			},
			{
				"type": "unocc",
				"energy": 0.01645,
				"method": "rhf"
			},
			{
				"type": "unocc",
				"energy": 0.02663,
				"method": "rhf"
			}
		],
		"cosmo_sigma_profile": { 
			"-0.025": 0.0,
			"-0.024": 0.0,
			"-0.023": 0.0,
			"-0.022": 0.0,
			"-0.021": 0.0,
			"-0.02": 0.0,
			"-0.019": 0.0,
			"-0.018": 0.0,
			"-0.017": 0.0,
			"-0.016": 0.394264384976,
			"-0.015": 0.972200613653,
			"-0.014": 1.7003777792,
			"-0.013": 3.01838318288,
			"-0.012": 4.2453982476,
			"-0.011": 5.56518743234,
			"-0.01": 5.46117381718,
			"-0.009": 6.44205469709,
			"-0.008": 6.77364220472,
			"-0.007": 10.4254746575,
			"-0.006": 9.61821466836,
			"-0.005": 10.0031799107,
			"-0.004": 11.1815537849,
			"-0.003": 10.6865553246,
			"-0.002": 10.0986206735,
			"-0.001": 16.4794082873,
			"0.0": 19.6785611153,
			"0.001": 23.2740921065,
			"0.002": 27.0948178651,
			"0.003": 28.2259988233,
			"0.004": 19.2000373002,
			"0.005": 12.8964267946,
			"0.006": 4.95789006993,
			"0.007": 3.85210886529,
			"0.008": 3.76189122964,
			"0.009": 3.9899116519,
			"0.01": 2.2484636585,
			"0.011": 2.91445165612,
			"0.012": 2.91063118115,
			"0.013": 3.77398781002,
			"0.014": 5.36686437384,
			"0.015": 0.765380690214,
			"0.016": 0.0,
			"0.017": 0.0,
			"0.018": 0.0,
			"0.019": 0.0,
			"0.02": 0.0,
			"0.021": 0.0,
			"0.022": 0.0,
			"0.023": 0.0,
			"0.024": 0.0,
			"0.025": 0.0
		}
	}
}
