{
	 "smiles": "NC1=CC=C(OC2=CC=C(N)C=C2)C=C1", 
	 "Tm": 464.15, 
	 "num_atms": 27, 
	 "gaussian": { 
		 "optdone": 1, 
		 "sigma_profile": "yes", 
		 "theory": "DFT", 
		 "functional": "B3LYP", 
		 "basiset": "6-31G**", 
		 "properties": { 
			 "R2extent": 4794.8597, 
			 "electric_dipole_moment_norm": 3.29274410485, 
			 "electric_quadrupole_moment_norm": 21.4403237774, 
			 "total_energy": -649.228146282, 
			 "HOMO_LUMO_gap": 0.17676, 
			 "cosmo_polarized_energy": -15.42, 
			 "cosmo_cavitation_energy": 31.25, 
			 "cosmo_dispersion_energy": -22.84, 
			 "cosmo_repulsion_energy": 1.8, 
			 "cosmo_total_nonelectrostatic_energy": 10.21, 
			 "SMD_solvation_energy": 5.32 
		},
		"coords": [
			{
				"x": -1.7816983478,
				"y": -0.1146480867,
				"z": -4.8713307393,
				"element": "N" 
			},
			{
				"x": -1.5400033486,
				"y": 0.3358030646,
				"z": -3.56516073,
				"element": "C" 
			},
			{
				"x": -2.0648345029,
				"y": -0.3508165417,
				"z": -2.4577126294,
				"element": "C" 
			},
			{
				"x": -1.8820495919,
				"y": 0.1270691393,
				"z": -1.1619737557,
				"element": "C" 
			},
			{
				"x": -1.1559689417,
				"y": 1.3015198374,
				"z": -0.9472342901,
				"element": "C" 
			},
			{
				"x": -0.9957779883,
				"y": 1.8708506692,
				"z": 0.3048858545,
				"element": "O" 
			},
			{
				"x": -0.7362335867,
				"y": 1.0656809496,
				"z": 1.4012229094,
				"element": "C" 
			},
			{
				"x": 0.154831263,
				"y": -0.0099860202,
				"z": 1.3613392007,
				"element": "C" 
			},
			{
				"x": 0.4242662846,
				"y": -0.733615999,
				"z": 2.5208584488,
				"element": "C" 
			},
			{
				"x": -0.1772756893,
				"y": -0.3943856376,
				"z": 3.7441506224,
				"element": "C" 
			},
			{
				"x": 0.1465147505,
				"y": -1.0855197216,
				"z": 4.9209561107,
				"element": "N" 
			},
			{
				"x": -1.0625049795,
				"y": 0.6955972935,
				"z": 3.7683151285,
				"element": "C" 
			},
			{
				"x": -1.3430168264,
				"y": 1.4139874827,
				"z": 2.6085766181,
				"element": "C" 
			},
			{
				"x": -0.626870461,
				"y": 1.9940472033,
				"z": -2.0370464037,
				"element": "C" 
			},
			{
				"x": -0.8213619004,
				"y": 1.5196432807,
				"z": -3.3319790568,
				"element": "C" 
			},
			{
				"x": -1.0953105899,
				"y": 0.1865395785,
				"z": -5.5503774438,
				"element": "H" 
			},
			{
				"x": -1.9523930024,
				"y": -1.1087221432,
				"z": -4.9454980123,
				"element": "H" 
			},
			{
				"x": -2.6346306556,
				"y": -1.2636076554,
				"z": -2.6149478815,
				"element": "H" 
			},
			{
				"x": -2.3005286803,
				"y": -0.4117874084,
				"z": -0.3184820459,
				"element": "H" 
			},
			{
				"x": 0.6337713743,
				"y": -0.2809779896,
				"z": 0.4263785041,
				"element": "H" 
			},
			{
				"x": 1.1220205717,
				"y": -1.5667368358,
				"z": 2.480543644,
				"element": "H" 
			},
			{
				"x": -0.5657521441,
				"y": -1.0454146882,
				"z": 5.6379043556,
				"element": "H" 
			},
			{
				"x": 0.4597011566,
				"y": -2.0359314308,
				"z": 4.774480659,
				"element": "H" 
			},
			{
				"x": -1.5362671643,
				"y": 0.9815330436,
				"z": 4.7043014576,
				"element": "H" 
			},
			{
				"x": -2.0301583648,
				"y": 2.2537619957,
				"z": 2.6267398149,
				"element": "H" 
			},
			{
				"x": -0.0681485807,
				"y": 2.9067840061,
				"z": -1.8568846144,
				"element": "H" 
			},
			{
				"x": -0.4101200541,
				"y": 2.072332614,
				"z": -4.1732257257,
				"element": "H" 
			}
		],
		 "valence_orbital": [ 
			{
				"type": "occ",
				"energy": -0.27258,
				"method": "rhf"
			},
			{
				"type": "occ",
				"energy": -0.2468,
				"method": "rhf"
			},
			{
				"type": "occ",
				"energy": -0.24243,
				"method": "rhf"
			},
			{
				"type": "occ",
				"energy": -0.19926,
				"method": "rhf"
			},
			{
				"type": "occ",
				"energy": -0.17854,
				"method": "rhf"
			},
			{
				"type": "unocc",
				"energy": -0.00178,
				"method": "rhf"
			},
			{
				"type": "unocc",
				"energy": 0.0105,
				"method": "rhf"
			},
			{
				"type": "unocc",
				"energy": 0.02047,
				"method": "rhf"
			},
			{
				"type": "unocc",
				"energy": 0.03519,
				"method": "rhf"
			},
			{
				"type": "unocc",
				"energy": 0.08122,
				"method": "rhf"
			}
		],
		"cosmo_sigma_profile": { 
			"-0.025": 0.0,
			"-0.024": 0.0,
			"-0.023": 0.0,
			"-0.022": 0.0,
			"-0.021": 0.0,
			"-0.02": 0.0,
			"-0.019": 0.0,
			"-0.018": 0.0,
			"-0.017": 0.0,
			"-0.016": 0.0,
			"-0.015": 0.0,
			"-0.014": 0.0,
			"-0.013": 0.0825087443408,
			"-0.012": 3.89152272789,
			"-0.011": 5.30509787254,
			"-0.01": 5.90294699346,
			"-0.009": 6.06914171096,
			"-0.008": 6.96219357984,
			"-0.007": 5.47834413778,
			"-0.006": 12.0769300446,
			"-0.005": 15.8746153926,
			"-0.004": 14.8762641144,
			"-0.003": 15.740037564,
			"-0.002": 11.5725662589,
			"-0.001": 12.0013377974,
			"0.0": 10.5238257545,
			"0.001": 13.0209467757,
			"0.002": 13.3404742703,
			"0.003": 13.205987922,
			"0.004": 16.8930906304,
			"0.005": 19.7903406904,
			"0.006": 23.1152587906,
			"0.007": 6.1704214639,
			"0.008": 3.65098752988,
			"0.009": 2.72474200847,
			"0.01": 2.99390267184,
			"0.011": 1.60168034172,
			"0.012": 1.64772652477,
			"0.013": 0.970007208181,
			"0.014": 1.31810297537,
			"0.015": 1.30042355284,
			"0.016": 0.147493387326,
			"0.017": 0.0,
			"0.018": 0.0,
			"0.019": 0.0,
			"0.02": 0.0,
			"0.021": 0.0,
			"0.022": 0.0,
			"0.023": 0.0,
			"0.024": 0.0,
			"0.025": 0.0
		}
	}
}
