{
	 "smiles": "CC1=CC(C)=C(C=C1)S(N)(=O)=O", 
	 "Tm": 413.15, 
	 "num_atms": 23, 
	 "gaussian": { 
		 "optdone": 1, 
		 "sigma_profile": "yes", 
		 "theory": "DFT", 
		 "functional": "B3LYP", 
		 "basiset": "6-31G**", 
		 "properties": { 
			 "R2extent": 2682.4254, 
			 "electric_dipole_moment_norm": 6.26540612331, 
			 "electric_quadrupole_moment_norm": 14.226655705, 
			 "total_energy": -914.810524326, 
			 "HOMO_LUMO_gap": 0.2204, 
			 "cosmo_polarized_energy": -17.73, 
			 "cosmo_cavitation_energy": 27.07, 
			 "cosmo_dispersion_energy": -20.51, 
			 "cosmo_repulsion_energy": 1.57, 
			 "cosmo_total_nonelectrostatic_energy": 8.13, 
			 "SMD_solvation_energy": 4.36 
		},
		"coords": [
			{
				"x": 1.8498252144,
				"y": -3.254942221,
				"z": 0.8671382488,
				"element": "C" 
			},
			{
				"x": 1.1520919236,
				"y": -1.9168120518,
				"z": 0.8292298092,
				"element": "C" 
			},
			{
				"x": 0.4473643197,
				"y": -1.5102079469,
				"z": -0.3111783555,
				"element": "C" 
			},
			{
				"x": -0.1966778555,
				"y": -0.27158535,
				"z": -0.4083045557,
				"element": "C" 
			},
			{
				"x": -0.9259184773,
				"y": 0.083946242,
				"z": -1.6833890824,
				"element": "C" 
			},
			{
				"x": -0.1114416218,
				"y": 0.5840738099,
				"z": 0.7098529128,
				"element": "C" 
			},
			{
				"x": 0.5786912565,
				"y": 0.198896353,
				"z": 1.8619343338,
				"element": "C" 
			},
			{
				"x": 1.2060136836,
				"y": -1.0427304176,
				"z": 1.9198917323,
				"element": "C" 
			},
			{
				"x": -0.9113327621,
				"y": 2.2026000433,
				"z": 0.7623297261,
				"element": "S" 
			},
			{
				"x": -0.1327779991,
				"y": 3.1799182298,
				"z": -0.3635094131,
				"element": "N" 
			},
			{
				"x": -0.6037870192,
				"y": 2.7888706663,
				"z": 2.0660337281,
				"element": "O" 
			},
			{
				"x": -2.2861225875,
				"y": 2.0671549914,
				"z": 0.2790429283,
				"element": "O" 
			},
			{
				"x": 1.3267923555,
				"y": -3.9975701177,
				"z": 0.25758743,
				"element": "H" 
			},
			{
				"x": 2.8723255472,
				"y": -3.1751409348,
				"z": 0.4772794117,
				"element": "H" 
			},
			{
				"x": 1.9202061059,
				"y": -3.6396504864,
				"z": 1.8885102983,
				"element": "H" 
			},
			{
				"x": 0.3881976783,
				"y": -2.1872312023,
				"z": -1.160494081,
				"element": "H" 
			},
			{
				"x": -1.9212280763,
				"y": 0.483879388,
				"z": -1.4797766852,
				"element": "H" 
			},
			{
				"x": -1.0207946796,
				"y": -0.794701961,
				"z": -2.3256840021,
				"element": "H" 
			},
			{
				"x": -0.3758830968,
				"y": 0.8401707447,
				"z": -2.2596843458,
				"element": "H" 
			},
			{
				"x": 0.6053525142,
				"y": 0.8767992279,
				"z": 2.7073595245,
				"element": "H" 
			},
			{
				"x": 1.7341872761,
				"y": -1.334767856,
				"z": 2.8234557492,
				"element": "H" 
			},
			{
				"x": -0.3080840919,
				"y": 2.9053150176,
				"z": -1.3240109608,
				"element": "H" 
			},
			{
				"x": 0.8505003923,
				"y": 3.3195158317,
				"z": -0.1543143516,
				"element": "H" 
			}
		],
		 "valence_orbital": [ 
			{
				"type": "occ",
				"energy": -0.31004,
				"method": "rhf"
			},
			{
				"type": "occ",
				"energy": -0.30035,
				"method": "rhf"
			},
			{
				"type": "occ",
				"energy": -0.29716,
				"method": "rhf"
			},
			{
				"type": "occ",
				"energy": -0.26213,
				"method": "rhf"
			},
			{
				"type": "occ",
				"energy": -0.25582,
				"method": "rhf"
			},
			{
				"type": "unocc",
				"energy": -0.03542,
				"method": "rhf"
			},
			{
				"type": "unocc",
				"energy": -0.01707,
				"method": "rhf"
			},
			{
				"type": "unocc",
				"energy": 0.05043,
				"method": "rhf"
			},
			{
				"type": "unocc",
				"energy": 0.07102,
				"method": "rhf"
			},
			{
				"type": "unocc",
				"energy": 0.08614,
				"method": "rhf"
			}
		],
		"cosmo_sigma_profile": { 
			"-0.025": 0.0,
			"-0.024": 0.0,
			"-0.023": 0.0,
			"-0.022": 0.0,
			"-0.021": 0.0,
			"-0.02": 0.0,
			"-0.019": 0.0,
			"-0.018": 0.0,
			"-0.017": 0.0,
			"-0.016": 0.175725881923,
			"-0.015": 1.27647908427,
			"-0.014": 2.24808957094,
			"-0.013": 2.76841768245,
			"-0.012": 2.72801940551,
			"-0.011": 2.80297175601,
			"-0.01": 1.93347564226,
			"-0.009": 2.66536503789,
			"-0.008": 2.37529310436,
			"-0.007": 2.33912515599,
			"-0.006": 7.22382276075,
			"-0.005": 13.6692710738,
			"-0.004": 15.9147789043,
			"-0.003": 15.968348582,
			"-0.002": 15.9627715035,
			"-0.001": 20.35838844,
			"0.0": 17.5528994302,
			"0.001": 11.6057236946,
			"0.002": 9.50540528757,
			"0.003": 11.2239208443,
			"0.004": 11.6648683981,
			"0.005": 3.01583663917,
			"0.006": 3.57651993889,
			"0.007": 3.26220742417,
			"0.008": 4.95072282595,
			"0.009": 4.61366769693,
			"0.01": 6.69005216789,
			"0.011": 9.63564024914,
			"0.012": 6.50592901533,
			"0.013": 0.147866785879,
			"0.014": 0.0,
			"0.015": 0.0,
			"0.016": 0.0,
			"0.017": 0.0,
			"0.018": 0.0,
			"0.019": 0.0,
			"0.02": 0.0,
			"0.021": 0.0,
			"0.022": 0.0,
			"0.023": 0.0,
			"0.024": 0.0,
			"0.025": 0.0
		}
	}
}
