{
	 "smiles": "CC(C)(C(=O)N1C(=O)C=CC1(C)C)C(=O)N1C(=O)C=CC1(C)C", 
	 "Tm": 401.5, 
	 "num_atms": 45, 
	 "gaussian": { 
		 "optdone": 1, 
		 "sigma_profile": "yes", 
		 "theory": "DFT", 
		 "functional": "B3LYP", 
		 "basiset": "6-31G**", 
		 "properties": { 
			 "R2extent": 7495.9138, 
			 "electric_dipole_moment_norm": 4.01083791994, 
			 "electric_quadrupole_moment_norm": 22.8628658899, 
			 "total_energy": -1071.49496279, 
			 "HOMO_LUMO_gap": 0.19881, 
			 "cosmo_polarized_energy": -15.64, 
			 "cosmo_cavitation_energy": 43.73, 
			 "cosmo_dispersion_energy": -29.2, 
			 "cosmo_repulsion_energy": 2.17, 
			 "cosmo_total_nonelectrostatic_energy": 16.69, 
			 "SMD_solvation_energy": 9.55 
		},
		"coords": [
			{
				"x": 2.3430574847,
				"y": -1.1157931284,
				"z": -0.3540026865,
				"element": "C" 
			},
			{
				"x": 1.070194056,
				"y": -0.5996445383,
				"z": 0.3608873233,
				"element": "C" 
			},
			{
				"x": 1.4688418974,
				"y": 0.4338447382,
				"z": 1.4450345764,
				"element": "C" 
			},
			{
				"x": -0.07098012,
				"y": 0.0501124003,
				"z": -0.4557963712,
				"element": "C" 
			},
			{
				"x": -1.2218778797,
				"y": -0.1900004379,
				"z": -0.1069944257,
				"element": "O" 
			},
			{
				"x": 0.1358030609,
				"y": 0.9560707261,
				"z": -1.5071970904,
				"element": "N" 
			},
			{
				"x": 1.3132558128,
				"y": 1.6416256832,
				"z": -1.8986787233,
				"element": "C" 
			},
			{
				"x": 2.3862712866,
				"y": 1.658780329,
				"z": -1.3208672406,
				"element": "O" 
			},
			{
				"x": 0.9665850996,
				"y": 2.395163286,
				"z": -3.1211506239,
				"element": "C" 
			},
			{
				"x": -0.3338429938,
				"y": 2.2531566931,
				"z": -3.3795885873,
				"element": "C" 
			},
			{
				"x": -1.0246156886,
				"y": 1.3857902865,
				"z": -2.3579071145,
				"element": "C" 
			},
			{
				"x": -2.0267602538,
				"y": 2.2494580991,
				"z": -1.5592971553,
				"element": "C" 
			},
			{
				"x": -1.7251607253,
				"y": 0.1966437105,
				"z": -3.0376644615,
				"element": "C" 
			},
			{
				"x": 0.4297006361,
				"y": -1.8126477261,
				"z": 1.0970867487,
				"element": "C" 
			},
			{
				"x": 0.4762036829,
				"y": -1.8866642003,
				"z": 2.3139440892,
				"element": "O" 
			},
			{
				"x": -0.11376584,
				"y": -2.8936592763,
				"z": 0.3778031506,
				"element": "N" 
			},
			{
				"x": -0.310355744,
				"y": -3.0232319062,
				"z": -1.0137942874,
				"element": "C" 
			},
			{
				"x": 0.0226720432,
				"y": -2.2289396797,
				"z": -1.8795404463,
				"element": "O" 
			},
			{
				"x": -0.9878966728,
				"y": -4.3192167557,
				"z": -1.2206288818,
				"element": "C" 
			},
			{
				"x": -1.1993696328,
				"y": -4.9039179455,
				"z": -0.0401686437,
				"element": "C" 
			},
			{
				"x": -0.6910780674,
				"y": -4.0663454371,
				"z": 1.1060777991,
				"element": "C" 
			},
			{
				"x": -1.8701396755,
				"y": -3.6518264911,
				"z": 2.0109985556,
				"element": "C" 
			},
			{
				"x": 0.3878700044,
				"y": -4.8365368215,
				"z": 1.892561535,
				"element": "C" 
			},
			{
				"x": 2.9615123097,
				"y": -0.2815924835,
				"z": -0.6756366899,
				"element": "H" 
			},
			{
				"x": 2.9190173186,
				"y": -1.7098116546,
				"z": 0.3644923695,
				"element": "H" 
			},
			{
				"x": 2.1037736386,
				"y": -1.7364764156,
				"z": -1.215916501,
				"element": "H" 
			},
			{
				"x": 0.5974748817,
				"y": 0.7543113499,
				"z": 2.0205173433,
				"element": "H" 
			},
			{
				"x": 2.1793258997,
				"y": -0.017606589,
				"z": 2.1398806515,
				"element": "H" 
			},
			{
				"x": 1.9362436853,
				"y": 1.2934814329,
				"z": 0.9635406902,
				"element": "H" 
			},
			{
				"x": 1.7076427977,
				"y": 2.9783445244,
				"z": -3.6514371281,
				"element": "H" 
			},
			{
				"x": -0.8942388829,
				"y": 2.7048404135,
				"z": -4.1911851669,
				"element": "H" 
			},
			{
				"x": -2.5191154095,
				"y": 1.643437431,
				"z": -0.7996055366,
				"element": "H" 
			},
			{
				"x": -2.7815493528,
				"y": 2.6580422417,
				"z": -2.2393930455,
				"element": "H" 
			},
			{
				"x": -1.5138676886,
				"y": 3.0854632856,
				"z": -1.0749495339,
				"element": "H" 
			},
			{
				"x": -2.2440484171,
				"y": -0.4115361177,
				"z": -2.2970287071,
				"element": "H" 
			},
			{
				"x": -1.003598977,
				"y": -0.4345207537,
				"z": -3.5595526173,
				"element": "H" 
			},
			{
				"x": -2.456479304,
				"y": 0.5769015214,
				"z": -3.7587621669,
				"element": "H" 
			},
			{
				"x": -1.2447150534,
				"y": -4.6716059566,
				"z": -2.2108056866,
				"element": "H" 
			},
			{
				"x": -1.677499735,
				"y": -5.8605462034,
				"z": 0.1412155955,
				"element": "H" 
			},
			{
				"x": -2.3660020291,
				"y": -4.5471680106,
				"z": 2.3999903274,
				"element": "H" 
			},
			{
				"x": -2.5989366707,
				"y": -3.0680633479,
				"z": 1.4424906171,
				"element": "H" 
			},
			{
				"x": -1.5112409268,
				"y": -3.0521544363,
				"z": 2.8471790573,
				"element": "H" 
			},
			{
				"x": 0.7736806323,
				"y": -4.2184063775,
				"z": 2.7033222543,
				"element": "H" 
			},
			{
				"x": -0.0464634178,
				"y": -5.7477804355,
				"z": 2.3164470425,
				"element": "H" 
			},
			{
				"x": 1.2132729304,
				"y": -5.1232750266,
				"z": 1.2344797927,
				"element": "H" 
			}
		],
		 "valence_orbital": [ 
			{
				"type": "occ",
				"energy": -0.27121,
				"method": "rhf"
			},
			{
				"type": "occ",
				"energy": -0.26598,
				"method": "rhf"
			},
			{
				"type": "occ",
				"energy": -0.26443,
				"method": "rhf"
			},
			{
				"type": "occ",
				"energy": -0.25333,
				"method": "rhf"
			},
			{
				"type": "occ",
				"energy": -0.25047,
				"method": "rhf"
			},
			{
				"type": "unocc",
				"energy": -0.05166,
				"method": "rhf"
			},
			{
				"type": "unocc",
				"energy": -0.04739,
				"method": "rhf"
			},
			{
				"type": "unocc",
				"energy": 0.00361,
				"method": "rhf"
			},
			{
				"type": "unocc",
				"energy": 0.01082,
				"method": "rhf"
			},
			{
				"type": "unocc",
				"energy": 0.08353,
				"method": "rhf"
			}
		],
		"cosmo_sigma_profile": { 
			"-0.025": 0.0,
			"-0.024": 0.0,
			"-0.023": 0.0,
			"-0.022": 0.0,
			"-0.021": 0.0,
			"-0.02": 0.0,
			"-0.019": 0.0,
			"-0.018": 0.0,
			"-0.017": 0.0,
			"-0.016": 0.0,
			"-0.015": 0.0,
			"-0.014": 0.0,
			"-0.013": 0.0,
			"-0.012": 0.0,
			"-0.011": 0.0,
			"-0.01": 0.0,
			"-0.009": 1.4240051315,
			"-0.008": 7.56775424021,
			"-0.007": 8.51145234647,
			"-0.006": 10.0583131314,
			"-0.005": 14.2246894565,
			"-0.004": 23.3751048603,
			"-0.003": 27.2576403682,
			"-0.002": 38.4891835726,
			"-0.001": 45.9370746766,
			"0.0": 47.8036156388,
			"0.001": 31.5084956149,
			"0.002": 15.1731931622,
			"0.003": 10.2486385963,
			"0.004": 9.35973782558,
			"0.005": 8.78442819888,
			"0.006": 8.04087852933,
			"0.007": 6.59924045599,
			"0.008": 5.74719700058,
			"0.009": 5.38588905898,
			"0.01": 5.86883459926,
			"0.011": 6.02657569593,
			"0.012": 4.611262338,
			"0.013": 1.50942703214,
			"0.014": 0.0166876812979,
			"0.015": 0.0,
			"0.016": 0.0,
			"0.017": 0.0,
			"0.018": 0.0,
			"0.019": 0.0,
			"0.02": 0.0,
			"0.021": 0.0,
			"0.022": 0.0,
			"0.023": 0.0,
			"0.024": 0.0,
			"0.025": 0.0
		}
	}
}
