{
	 "smiles": "ClC1=NC=CC(=C1)C(=O)NCC1=CC=CC=C1", 
	 "Tm": 373.15, 
	 "num_atms": 28, 
	 "gaussian": { 
		 "optdone": 1, 
		 "sigma_profile": "yes", 
		 "theory": "DFT", 
		 "functional": "B3LYP", 
		 "basiset": "6-31G**", 
		 "properties": { 
			 "R2extent": 5949.8041, 
			 "electric_dipole_moment_norm": 3.88863848795, 
			 "electric_quadrupole_moment_norm": 13.5422858189, 
			 "total_energy": -1146.9396103, 
			 "HOMO_LUMO_gap": 0.19168, 
			 "cosmo_polarized_energy": -14.57, 
			 "cosmo_cavitation_energy": 34.48, 
			 "cosmo_dispersion_energy": -24.19, 
			 "cosmo_repulsion_energy": 1.9, 
			 "cosmo_total_nonelectrostatic_energy": 12.2, 
			 "SMD_solvation_energy": 4.77 
		},
		"coords": [
			{
				"x": 3.2179770434,
				"y": -0.6229166533,
				"z": 2.2411741221,
				"element": "Cl" 
			},
			{
				"x": 1.8472301535,
				"y": -1.6517172557,
				"z": 2.6534905536,
				"element": "C" 
			},
			{
				"x": 1.9319791741,
				"y": -2.3282149376,
				"z": 3.7825010566,
				"element": "N" 
			},
			{
				"x": 0.8981536676,
				"y": -3.1281944181,
				"z": 4.0920197871,
				"element": "C" 
			},
			{
				"x": -0.2295052254,
				"y": -3.2674368964,
				"z": 3.2917920421,
				"element": "C" 
			},
			{
				"x": -0.3112357077,
				"y": -2.5189571711,
				"z": 2.1099388536,
				"element": "C" 
			},
			{
				"x": 0.7620923078,
				"y": -1.6913610681,
				"z": 1.7712108956,
				"element": "C" 
			},
			{
				"x": -1.5094064364,
				"y": -2.7454097846,
				"z": 1.2194768484,
				"element": "C" 
			},
			{
				"x": -1.9799294129,
				"y": -3.8721584844,
				"z": 1.1112279082,
				"element": "O" 
			},
			{
				"x": -2.0314029263,
				"y": -1.6865690373,
				"z": 0.5204801636,
				"element": "N" 
			},
			{
				"x": -1.9023186616,
				"y": -0.2581987477,
				"z": 0.7772570192,
				"element": "C" 
			},
			{
				"x": -1.3193217843,
				"y": 0.5457922806,
				"z": -0.3769312994,
				"element": "C" 
			},
			{
				"x": -1.4381006659,
				"y": 1.9423768772,
				"z": -0.3577541365,
				"element": "C" 
			},
			{
				"x": -0.8915944103,
				"y": 2.7163097427,
				"z": -1.3796112655,
				"element": "C" 
			},
			{
				"x": -0.2220054362,
				"y": 2.1030167436,
				"z": -2.4421762741,
				"element": "C" 
			},
			{
				"x": -0.1056806155,
				"y": 0.7141041084,
				"z": -2.4722587998,
				"element": "C" 
			},
			{
				"x": -0.6515747958,
				"y": -0.061025655,
				"z": -1.4449928584,
				"element": "C" 
			},
			{
				"x": 0.9910692541,
				"y": -3.6827659728,
				"z": 5.0227789527,
				"element": "H" 
			},
			{
				"x": -1.0314016671,
				"y": -3.9461598003,
				"z": 3.557538154,
				"element": "H" 
			},
			{
				"x": 0.7797607089,
				"y": -1.1124197044,
				"z": 0.85564417,
				"element": "H" 
			},
			{
				"x": -2.810040077,
				"y": -1.9753483395,
				"z": -0.0600416964,
				"element": "H" 
			},
			{
				"x": -2.8909725152,
				"y": 0.1462044821,
				"z": 1.0320082782,
				"element": "H" 
			},
			{
				"x": -1.2866642627,
				"y": -0.1260989717,
				"z": 1.6712879443,
				"element": "H" 
			},
			{
				"x": -1.9623395487,
				"y": 2.4265359679,
				"z": 0.463539386,
				"element": "H" 
			},
			{
				"x": -0.9913225344,
				"y": 3.797560402,
				"z": -1.3498550156,
				"element": "H" 
			},
			{
				"x": 0.201608718,
				"y": 2.7050153111,
				"z": -3.2406162559,
				"element": "H" 
			},
			{
				"x": 0.4088161742,
				"y": 0.2278595348,
				"z": -3.296147678,
				"element": "H" 
			},
			{
				"x": -0.5681705181,
				"y": -1.1431225521,
				"z": -1.4767808556,
				"element": "H" 
			}
		],
		 "valence_orbital": [ 
			{
				"type": "occ",
				"energy": -0.27466,
				"method": "rhf"
			},
			{
				"type": "occ",
				"energy": -0.26687,
				"method": "rhf"
			},
			{
				"type": "occ",
				"energy": -0.26178,
				"method": "rhf"
			},
			{
				"type": "occ",
				"energy": -0.25976,
				"method": "rhf"
			},
			{
				"type": "occ",
				"energy": -0.25308,
				"method": "rhf"
			},
			{
				"type": "unocc",
				"energy": -0.0614,
				"method": "rhf"
			},
			{
				"type": "unocc",
				"energy": -0.03056,
				"method": "rhf"
			},
			{
				"type": "unocc",
				"energy": -0.01577,
				"method": "rhf"
			},
			{
				"type": "unocc",
				"energy": -0.0111,
				"method": "rhf"
			},
			{
				"type": "unocc",
				"energy": 0.02688,
				"method": "rhf"
			}
		],
		"cosmo_sigma_profile": { 
			"-0.025": 0.0,
			"-0.024": 0.0,
			"-0.023": 0.0,
			"-0.022": 0.0,
			"-0.021": 0.0,
			"-0.02": 0.0,
			"-0.019": 0.0,
			"-0.018": 0.0,
			"-0.017": 0.0,
			"-0.016": 0.0,
			"-0.015": 0.0314547259866,
			"-0.014": 0.897512848456,
			"-0.013": 1.11868443561,
			"-0.012": 1.08817762078,
			"-0.011": 0.834026829299,
			"-0.01": 1.27410934979,
			"-0.009": 1.10409352264,
			"-0.008": 2.47799054907,
			"-0.007": 6.58061793868,
			"-0.006": 16.2295368712,
			"-0.005": 24.0544263966,
			"-0.004": 23.4698707606,
			"-0.003": 21.9767458469,
			"-0.002": 18.7939793117,
			"-0.001": 22.5402734039,
			"0.0": 21.2994153701,
			"0.001": 15.2790010491,
			"0.002": 15.0830408307,
			"0.003": 16.2643912749,
			"0.004": 18.5270617414,
			"0.005": 13.6063332672,
			"0.006": 11.0473406367,
			"0.007": 3.11698168915,
			"0.008": 2.86132447913,
			"0.009": 2.3921112277,
			"0.01": 2.51217634167,
			"0.011": 2.61440355711,
			"0.012": 3.98144093352,
			"0.013": 5.90123416712,
			"0.014": 1.87062417429,
			"0.015": 0.0328935400708,
			"0.016": 0.0,
			"0.017": 0.0,
			"0.018": 0.0,
			"0.019": 0.0,
			"0.02": 0.0,
			"0.021": 0.0,
			"0.022": 0.0,
			"0.023": 0.0,
			"0.024": 0.0,
			"0.025": 0.0
		}
	}
}
