{
	 "smiles": "FC1=C(F)C=C(C=C1)C(=O)CCl", 
	 "Tm": 311.15, 
	 "num_atms": 17, 
	 "gaussian": { 
		 "optdone": 1, 
		 "sigma_profile": "yes", 
		 "theory": "DFT", 
		 "functional": "B3LYP", 
		 "basiset": "6-31G**", 
		 "properties": { 
			 "R2extent": 3828.5581, 
			 "electric_dipole_moment_norm": 2.7105659077, 
			 "electric_quadrupole_moment_norm": 5.86060766474, 
			 "total_energy": -1042.93793924, 
			 "HOMO_LUMO_gap": 0.18298, 
			 "cosmo_polarized_energy": -8.22, 
			 "cosmo_cavitation_energy": 24.67, 
			 "cosmo_dispersion_energy": -17.75, 
			 "cosmo_repulsion_energy": 1.37, 
			 "cosmo_total_nonelectrostatic_energy": 8.29, 
			 "SMD_solvation_energy": 5.57 
		},
		"coords": [
			{
				"x": -0.6071887825,
				"y": 2.2346574945,
				"z": 3.6892865885,
				"element": "F" 
			},
			{
				"x": -0.4700540867,
				"y": 2.0828314056,
				"z": 2.3663804934,
				"element": "C" 
			},
			{
				"x": -0.6146954455,
				"y": 3.2015329186,
				"z": 1.5389229835,
				"element": "C" 
			},
			{
				"x": -0.8874095431,
				"y": 4.3884735526,
				"z": 2.101742383,
				"element": "F" 
			},
			{
				"x": -0.4810590979,
				"y": 3.0784797091,
				"z": 0.1700667417,
				"element": "C" 
			},
			{
				"x": -0.1950359479,
				"y": 1.8219263702,
				"z": -0.3929420978,
				"element": "C" 
			},
			{
				"x": -0.0495823778,
				"y": 0.7052772941,
				"z": 0.4439185216,
				"element": "C" 
			},
			{
				"x": -0.1878976521,
				"y": 0.8356621928,
				"z": 1.8253838773,
				"element": "C" 
			},
			{
				"x": -0.0911062354,
				"y": 1.7521060958,
				"z": -1.8791442366,
				"element": "C" 
			},
			{
				"x": -0.2797316298,
				"y": 2.7325547127,
				"z": -2.580069923,
				"element": "O" 
			},
			{
				"x": 0.2168047965,
				"y": 0.4170627391,
				"z": -2.5631993533,
				"element": "C" 
			},
			{
				"x": 1.9235287352,
				"y": -0.1214603443,
				"z": -2.259970963,
				"element": "Cl" 
			},
			{
				"x": -0.5977996959,
				"y": 3.9433055879,
				"z": -0.4729460423,
				"element": "H" 
			},
			{
				"x": 0.1888357494,
				"y": -0.2681759492,
				"z": 0.0321980807,
				"element": "H" 
			},
			{
				"x": -0.0772141865,
				"y": -0.0122667177,
				"z": 2.4921976811,
				"element": "H" 
			},
			{
				"x": -0.4387083169,
				"y": -0.3851681184,
				"z": -2.2187977866,
				"element": "H" 
			},
			{
				"x": 0.1092137168,
				"y": 0.5596010566,
				"z": -3.6366269481,
				"element": "H" 
			}
		],
		 "valence_orbital": [ 
			{
				"type": "occ",
				"energy": -0.32533,
				"method": "rhf"
			},
			{
				"type": "occ",
				"energy": -0.31402,
				"method": "rhf"
			},
			{
				"type": "occ",
				"energy": -0.27942,
				"method": "rhf"
			},
			{
				"type": "occ",
				"energy": -0.27191,
				"method": "rhf"
			},
			{
				"type": "occ",
				"energy": -0.26516,
				"method": "rhf"
			},
			{
				"type": "unocc",
				"energy": -0.08218,
				"method": "rhf"
			},
			{
				"type": "unocc",
				"energy": -0.02798,
				"method": "rhf"
			},
			{
				"type": "unocc",
				"energy": -0.00593,
				"method": "rhf"
			},
			{
				"type": "unocc",
				"energy": 0.04415,
				"method": "rhf"
			},
			{
				"type": "unocc",
				"energy": 0.06181,
				"method": "rhf"
			}
		],
		"cosmo_sigma_profile": { 
			"-0.025": 0.0,
			"-0.024": 0.0,
			"-0.023": 0.0,
			"-0.022": 0.0,
			"-0.021": 0.0,
			"-0.02": 0.0,
			"-0.019": 0.0,
			"-0.018": 0.0,
			"-0.017": 0.0,
			"-0.016": 0.0,
			"-0.015": 0.0,
			"-0.014": 0.0,
			"-0.013": 0.0,
			"-0.012": 0.0,
			"-0.011": 0.0,
			"-0.01": 1.27344689622,
			"-0.009": 5.10961717216,
			"-0.008": 7.27157597152,
			"-0.007": 8.61914496631,
			"-0.006": 7.83740288231,
			"-0.005": 6.89344868188,
			"-0.004": 7.48762168888,
			"-0.003": 8.16497876763,
			"-0.002": 13.1841775463,
			"-0.001": 19.7487865714,
			"0.0": 18.8892855198,
			"0.001": 17.2024914795,
			"0.002": 15.5184018027,
			"0.003": 25.7955132194,
			"0.004": 14.0197600752,
			"0.005": 8.78108626829,
			"0.006": 3.19062032022,
			"0.007": 1.50904799267,
			"0.008": 1.2663656149,
			"0.009": 2.70758808455,
			"0.01": 3.12420170349,
			"0.011": 2.92377126781,
			"0.012": 0.348577781894,
			"0.013": 0.0,
			"0.014": 0.0,
			"0.015": 0.0,
			"0.016": 0.0,
			"0.017": 0.0,
			"0.018": 0.0,
			"0.019": 0.0,
			"0.02": 0.0,
			"0.021": 0.0,
			"0.022": 0.0,
			"0.023": 0.0,
			"0.024": 0.0,
			"0.025": 0.0
		}
	}
}
