{
	 "smiles": "CC(C)(CCl)C(O)=O", 
	 "Tm": 314.65, 
	 "num_atms": 17, 
	 "gaussian": { 
		 "optdone": 1, 
		 "sigma_profile": "yes", 
		 "theory": "DFT", 
		 "functional": "B3LYP", 
		 "basiset": "6-31G**", 
		 "properties": { 
			 "R2extent": 2744.9262, 
			 "electric_dipole_moment_norm": 3.27787357444, 
			 "electric_quadrupole_moment_norm": 12.3546903968, 
			 "total_energy": -806.614205399, 
			 "HOMO_LUMO_gap": 0.27717, 
			 "cosmo_polarized_energy": -12.91, 
			 "cosmo_cavitation_energy": 21.13, 
			 "cosmo_dispersion_energy": -15.47, 
			 "cosmo_repulsion_energy": 1.28, 
			 "cosmo_total_nonelectrostatic_energy": 6.94, 
			 "SMD_solvation_energy": 4.58 
		},
		"coords": [
			{
				"x": 0.1635672248,
				"y": 0.5666064671,
				"z": -0.4237255429,
				"element": "C" 
			},
			{
				"x": 0.0043812368,
				"y": 2.0366593793,
				"z": -0.8710649117,
				"element": "C" 
			},
			{
				"x": -0.2983443905,
				"y": 2.9453019228,
				"z": 0.3410532243,
				"element": "C" 
			},
			{
				"x": -1.0896590911,
				"y": 2.1706701064,
				"z": -1.9484134526,
				"element": "C" 
			},
			{
				"x": -2.7354085701,
				"y": 1.662906677,
				"z": -1.3632661761,
				"element": "Cl" 
			},
			{
				"x": 1.3068128115,
				"y": 2.5090790012,
				"z": -1.5534440169,
				"element": "C" 
			},
			{
				"x": 2.4292540984,
				"y": 2.4811293917,
				"z": -0.7911368805,
				"element": "O" 
			},
			{
				"x": 1.3711058879,
				"y": 2.8900462214,
				"z": -2.6970622378,
				"element": "O" 
			},
			{
				"x": 0.4259000148,
				"y": -0.0792504836,
				"z": -1.2674276864,
				"element": "H" 
			},
			{
				"x": -0.7730211729,
				"y": 0.2044374165,
				"z": 0.0064015183,
				"element": "H" 
			},
			{
				"x": 0.940981393,
				"y": 0.4543317119,
				"z": 0.33975397,
				"element": "H" 
			},
			{
				"x": -0.3659992916,
				"y": 3.9961379705,
				"z": 0.0427764903,
				"element": "H" 
			},
			{
				"x": 0.4733432931,
				"y": 2.86459808,
				"z": 1.1142670378,
				"element": "H" 
			},
			{
				"x": -1.2490056436,
				"y": 2.6564879969,
				"z": 0.7951486622,
				"element": "H" 
			},
			{
				"x": -0.8641073024,
				"y": 1.5477119315,
				"z": -2.8124018327,
				"element": "H" 
			},
			{
				"x": -1.1855679264,
				"y": 3.2032846026,
				"z": -2.2799539391,
				"element": "H" 
			},
			{
				"x": 2.2309674282,
				"y": 2.1563616071,
				"z": 0.0981957738,
				"element": "H" 
			}
		],
		 "valence_orbital": [ 
			{
				"type": "occ",
				"energy": -0.36522,
				"method": "rhf"
			},
			{
				"type": "occ",
				"energy": -0.3264,
				"method": "rhf"
			},
			{
				"type": "occ",
				"energy": -0.30381,
				"method": "rhf"
			},
			{
				"type": "occ",
				"energy": -0.29954,
				"method": "rhf"
			},
			{
				"type": "occ",
				"energy": -0.27803,
				"method": "rhf"
			},
			{
				"type": "unocc",
				"energy": -0.00086,
				"method": "rhf"
			},
			{
				"type": "unocc",
				"energy": 0.02258,
				"method": "rhf"
			},
			{
				"type": "unocc",
				"energy": 0.03246,
				"method": "rhf"
			},
			{
				"type": "unocc",
				"energy": 0.09638,
				"method": "rhf"
			},
			{
				"type": "unocc",
				"energy": 0.12339,
				"method": "rhf"
			}
		],
		"cosmo_sigma_profile": { 
			"-0.025": 0.0,
			"-0.024": 0.0,
			"-0.023": 0.0,
			"-0.022": 0.0,
			"-0.021": 0.0,
			"-0.02": 0.0,
			"-0.019": 0.0241804980188,
			"-0.018": 0.845191854848,
			"-0.017": 0.804262329996,
			"-0.016": 1.37083746819,
			"-0.015": 0.961187513804,
			"-0.014": 0.33484814785,
			"-0.013": 0.969468560738,
			"-0.012": 1.81095071397,
			"-0.011": 1.18467285808,
			"-0.01": 0.493675052233,
			"-0.009": 0.795190333052,
			"-0.008": 1.43993960858,
			"-0.007": 5.48470998297,
			"-0.006": 8.54263622374,
			"-0.005": 9.88185376549,
			"-0.004": 10.0588461507,
			"-0.003": 13.1481323043,
			"-0.002": 13.818431876,
			"-0.001": 15.7274100273,
			"0.0": 12.190627489,
			"0.001": 6.1439771358,
			"0.002": 6.3442468828,
			"0.003": 5.91130425433,
			"0.004": 7.31903496195,
			"0.005": 7.87199414605,
			"0.006": 8.61196692611,
			"0.007": 4.52827556526,
			"0.008": 2.87988086356,
			"0.009": 3.08321585274,
			"0.01": 5.34521581916,
			"0.011": 5.05773768759,
			"0.012": 3.47794565865,
			"0.013": 0.777313816156,
			"0.014": 0.0,
			"0.015": 0.0,
			"0.016": 0.0,
			"0.017": 0.0,
			"0.018": 0.0,
			"0.019": 0.0,
			"0.02": 0.0,
			"0.021": 0.0,
			"0.022": 0.0,
			"0.023": 0.0,
			"0.024": 0.0,
			"0.025": 0.0
		}
	}
}
