{
	 "smiles": "NC(CCN1CCCCC1)=NO", 
	 "Tm": 411.15, 
	 "num_atms": 29, 
	 "gaussian": { 
		 "optdone": 1, 
		 "sigma_profile": "yes", 
		 "theory": "DFT", 
		 "functional": "B3LYP", 
		 "basiset": "6-31G**", 
		 "properties": { 
			 "R2extent": 3241.4006, 
			 "electric_dipole_moment_norm": 1.88188868162, 
			 "electric_quadrupole_moment_norm": 8.96458892588, 
			 "total_energy": -554.513005806, 
			 "HOMO_LUMO_gap": 0.23915, 
			 "cosmo_polarized_energy": -12.19, 
			 "cosmo_cavitation_energy": 29.88, 
			 "cosmo_dispersion_energy": -21.75, 
			 "cosmo_repulsion_energy": 1.79, 
			 "cosmo_total_nonelectrostatic_energy": 9.92, 
			 "SMD_solvation_energy": 2.25 
		},
		"coords": [
			{
				"x": 3.0549255558,
				"y": 1.7067757495,
				"z": -2.7893079009,
				"element": "N" 
			},
			{
				"x": 2.380321434,
				"y": 0.5075260175,
				"z": -2.5626465978,
				"element": "C" 
			},
			{
				"x": 1.0900182959,
				"y": 0.5872148767,
				"z": -1.7847373337,
				"element": "C" 
			},
			{
				"x": 1.2626222143,
				"y": 0.0693173831,
				"z": -0.3425488193,
				"element": "C" 
			},
			{
				"x": 0.0144166472,
				"y": 0.070228137,
				"z": 0.4077528776,
				"element": "N" 
			},
			{
				"x": 0.0673292118,
				"y": -0.7493200571,
				"z": 1.61917535,
				"element": "C" 
			},
			{
				"x": -1.363591016,
				"y": -1.0690642665,
				"z": 2.1044162021,
				"element": "C" 
			},
			{
				"x": -2.334624136,
				"y": 0.0833695983,
				"z": 1.7672572641,
				"element": "C" 
			},
			{
				"x": -1.5799228647,
				"y": 1.4164248958,
				"z": 1.7772333341,
				"element": "C" 
			},
			{
				"x": -0.4777957971,
				"y": 1.4250191693,
				"z": 0.69581674,
				"element": "C" 
			},
			{
				"x": 2.8895032492,
				"y": -0.5623698527,
				"z": -3.065756161,
				"element": "N" 
			},
			{
				"x": 2.0287785876,
				"y": -1.6779336223,
				"z": -2.8521047519,
				"element": "O" 
			},
			{
				"x": 3.0503647068,
				"y": 2.3427254616,
				"z": -2.0014644504,
				"element": "H" 
			},
			{
				"x": 3.9863065318,
				"y": 1.5680808752,
				"z": -3.1647080353,
				"element": "H" 
			},
			{
				"x": 0.3371522188,
				"y": -0.0308322531,
				"z": -2.281278803,
				"element": "H" 
			},
			{
				"x": 0.7390240422,
				"y": 1.6233434121,
				"z": -1.796140608,
				"element": "H" 
			},
			{
				"x": 1.6263090798,
				"y": -0.9598267509,
				"z": -0.4047681124,
				"element": "H" 
			},
			{
				"x": 2.0494192816,
				"y": 0.6642706906,
				"z": 0.1686805084,
				"element": "H" 
			},
			{
				"x": 0.6006179562,
				"y": -1.6762112219,
				"z": 1.3862634572,
				"element": "H" 
			},
			{
				"x": 0.6455987102,
				"y": -0.2544099038,
				"z": 2.4250128723,
				"element": "H" 
			},
			{
				"x": -1.3406456297,
				"y": -1.2456623265,
				"z": 3.1867371628,
				"element": "H" 
			},
			{
				"x": -1.7158069178,
				"y": -1.9954997796,
				"z": 1.6386165649,
				"element": "H" 
			},
			{
				"x": -3.1691773943,
				"y": 0.1035693091,
				"z": 2.4767881517,
				"element": "H" 
			},
			{
				"x": -2.7662422626,
				"y": -0.0761787452,
				"z": 0.7729361497,
				"element": "H" 
			},
			{
				"x": -1.1342531063,
				"y": 1.567697148,
				"z": 2.7684780567,
				"element": "H" 
			},
			{
				"x": -2.2583157949,
				"y": 2.2605386683,
				"z": 1.6129310384,
				"element": "H" 
			},
			{
				"x": 0.3491098835,
				"y": 2.0902998802,
				"z": 1.0187621313,
				"element": "H" 
			},
			{
				"x": -0.8804193879,
				"y": 1.8504864999,
				"z": -0.2310142217,
				"element": "H" 
			},
			{
				"x": 2.5111767004,
				"y": -2.3791789929,
				"z": -3.3067820659,
				"element": "H" 
			}
		],
		 "valence_orbital": [ 
			{
				"type": "occ",
				"energy": -0.30771,
				"method": "rhf"
			},
			{
				"type": "occ",
				"energy": -0.3019,
				"method": "rhf"
			},
			{
				"type": "occ",
				"energy": -0.2595,
				"method": "rhf"
			},
			{
				"type": "occ",
				"energy": -0.20558,
				"method": "rhf"
			},
			{
				"type": "occ",
				"energy": -0.20269,
				"method": "rhf"
			},
			{
				"type": "unocc",
				"energy": 0.03646,
				"method": "rhf"
			},
			{
				"type": "unocc",
				"energy": 0.07393,
				"method": "rhf"
			},
			{
				"type": "unocc",
				"energy": 0.07907,
				"method": "rhf"
			},
			{
				"type": "unocc",
				"energy": 0.09048,
				"method": "rhf"
			},
			{
				"type": "unocc",
				"energy": 0.11547,
				"method": "rhf"
			}
		],
		"cosmo_sigma_profile": { 
			"-0.025": 0.0,
			"-0.024": 0.0,
			"-0.023": 0.0,
			"-0.022": 0.0,
			"-0.021": 0.0,
			"-0.02": 0.0,
			"-0.019": 0.0,
			"-0.018": 0.0,
			"-0.017": 0.0,
			"-0.016": 1.06954913472,
			"-0.015": 0.617412411746,
			"-0.014": 0.62746377693,
			"-0.013": 1.28690801214,
			"-0.012": 3.01354991582,
			"-0.011": 3.0522514896,
			"-0.01": 3.45761354916,
			"-0.009": 3.428686633,
			"-0.008": 2.36050742946,
			"-0.007": 3.11270505784,
			"-0.006": 3.006393594,
			"-0.005": 3.26866207307,
			"-0.004": 6.7215621082,
			"-0.003": 14.2289378437,
			"-0.002": 26.1596067015,
			"-0.001": 41.8668979474,
			"0.0": 35.6871835598,
			"0.001": 20.0818913824,
			"0.002": 6.77275508725,
			"0.003": 3.69779002839,
			"0.004": 3.90578766273,
			"0.005": 5.96549993075,
			"0.006": 5.48674890212,
			"0.007": 5.64026169844,
			"0.008": 5.62313564841,
			"0.009": 5.49656110092,
			"0.01": 4.15432129197,
			"0.011": 3.17108648986,
			"0.012": 2.34973836872,
			"0.013": 2.50915949837,
			"0.014": 1.22009126626,
			"0.015": 0.868270961239,
			"0.016": 0.0,
			"0.017": 0.0,
			"0.018": 0.0,
			"0.019": 0.0,
			"0.02": 0.0,
			"0.021": 0.0,
			"0.022": 0.0,
			"0.023": 0.0,
			"0.024": 0.0,
			"0.025": 0.0
		}
	}
}
