{
	 "smiles": "CC1=C(OC=C1)C1=NN=C(CCl)O1", 
	 "Tm": 323.15, 
	 "num_atms": 20, 
	 "gaussian": { 
		 "optdone": 1, 
		 "sigma_profile": "yes", 
		 "theory": "DFT", 
		 "functional": "B3LYP", 
		 "basiset": "6-31G**", 
		 "properties": { 
			 "R2extent": 4750.8221, 
			 "electric_dipole_moment_norm": 3.53237999796, 
			 "electric_quadrupole_moment_norm": 19.7909515352, 
			 "total_energy": -1029.16157599, 
			 "HOMO_LUMO_gap": 0.17101, 
			 "cosmo_polarized_energy": -11.64, 
			 "cosmo_cavitation_energy": 27.43, 
			 "cosmo_dispersion_energy": -20.15, 
			 "cosmo_repulsion_energy": 1.62, 
			 "cosmo_total_nonelectrostatic_energy": 8.9, 
			 "SMD_solvation_energy": 4.01 
		},
		"coords": [
			{
				"x": 1.6205236764,
				"y": -0.0885652882,
				"z": 2.8136485876,
				"element": "C" 
			},
			{
				"x": 0.231915253,
				"y": 0.4028908858,
				"z": 2.5395956709,
				"element": "C" 
			},
			{
				"x": -0.2138064603,
				"y": 1.0716361062,
				"z": 1.4200903602,
				"element": "C" 
			},
			{
				"x": -1.547994321,
				"y": 1.3630448119,
				"z": 1.5230946034,
				"element": "O" 
			},
			{
				"x": -1.9570429447,
				"y": 0.8753853965,
				"z": 2.7206970488,
				"element": "C" 
			},
			{
				"x": -0.9201434244,
				"y": 0.2827050643,
				"z": 3.3797198679,
				"element": "C" 
			},
			{
				"x": 0.4743775792,
				"y": 1.4854569487,
				"z": 0.2316426616,
				"element": "C" 
			},
			{
				"x": 1.7343005643,
				"y": 1.2998456985,
				"z": -0.068774698,
				"element": "N" 
			},
			{
				"x": 1.9226902493,
				"y": 1.883140581,
				"z": -1.3150717551,
				"element": "N" 
			},
			{
				"x": 0.7759113316,
				"y": 2.3683200104,
				"z": -1.675530594,
				"element": "C" 
			},
			{
				"x": 0.4475311741,
				"y": 3.0778486033,
				"z": -2.9291889149,
				"element": "C" 
			},
			{
				"x": 0.1446153815,
				"y": 4.8567429987,
				"z": -2.6616891313,
				"element": "Cl" 
			},
			{
				"x": -0.20023551,
				"y": 2.1546473651,
				"z": -0.7458435337,
				"element": "O" 
			},
			{
				"x": 1.9447126264,
				"y": -0.8053622964,
				"z": 2.0525334823,
				"element": "H" 
			},
			{
				"x": 2.3434256413,
				"y": 0.732836135,
				"z": 2.789034072,
				"element": "H" 
			},
			{
				"x": 1.673322213,
				"y": -0.5714394952,
				"z": 3.792434963,
				"element": "H" 
			},
			{
				"x": -2.9988551785,
				"y": 1.0264374943,
				"z": 2.9576056608,
				"element": "H" 
			},
			{
				"x": -0.9593255965,
				"y": -0.1877805261,
				"z": 4.3520113095,
				"element": "H" 
			},
			{
				"x": -0.4588767134,
				"y": 2.6828265401,
				"z": -3.388673635,
				"element": "H" 
			},
			{
				"x": 1.2906544588,
				"y": 2.9912829661,
				"z": -3.6119360261,
				"element": "H" 
			}
		],
		 "valence_orbital": [ 
			{
				"type": "occ",
				"energy": -0.30747,
				"method": "rhf"
			},
			{
				"type": "occ",
				"energy": -0.30534,
				"method": "rhf"
			},
			{
				"type": "occ",
				"energy": -0.28659,
				"method": "rhf"
			},
			{
				"type": "occ",
				"energy": -0.28449,
				"method": "rhf"
			},
			{
				"type": "occ",
				"energy": -0.22806,
				"method": "rhf"
			},
			{
				"type": "unocc",
				"energy": -0.05705,
				"method": "rhf"
			},
			{
				"type": "unocc",
				"energy": -0.01987,
				"method": "rhf"
			},
			{
				"type": "unocc",
				"energy": 0.03559,
				"method": "rhf"
			},
			{
				"type": "unocc",
				"energy": 0.04659,
				"method": "rhf"
			},
			{
				"type": "unocc",
				"energy": 0.09116,
				"method": "rhf"
			}
		],
		"cosmo_sigma_profile": { 
			"-0.025": 0.0,
			"-0.024": 0.0,
			"-0.023": 0.0,
			"-0.022": 0.0,
			"-0.021": 0.0,
			"-0.02": 0.0,
			"-0.019": 0.0,
			"-0.018": 0.0,
			"-0.017": 0.0,
			"-0.016": 0.0,
			"-0.015": 0.0,
			"-0.014": 0.0,
			"-0.013": 0.0,
			"-0.012": 0.0,
			"-0.011": 0.0160838092771,
			"-0.01": 4.55801989135,
			"-0.009": 5.89157882488,
			"-0.008": 6.84477300439,
			"-0.007": 8.10321031729,
			"-0.006": 7.84117945387,
			"-0.005": 12.7105048112,
			"-0.004": 12.3677366828,
			"-0.003": 12.7338818465,
			"-0.002": 14.4123428199,
			"-0.001": 19.4585367928,
			"0.0": 18.9199251972,
			"0.001": 16.965480412,
			"0.002": 14.8288033681,
			"0.003": 13.0949471642,
			"0.004": 11.5285959746,
			"0.005": 13.7764402965,
			"0.006": 8.21464597751,
			"0.007": 4.12066232744,
			"0.008": 2.05298535934,
			"0.009": 2.38941673752,
			"0.01": 2.5861685291,
			"0.011": 3.49341380244,
			"0.012": 2.79669579822,
			"0.013": 1.87341699609,
			"0.014": 1.02317658995,
			"0.015": 0.0770125576672,
			"0.016": 0.0,
			"0.017": 0.0,
			"0.018": 0.0,
			"0.019": 0.0,
			"0.02": 0.0,
			"0.021": 0.0,
			"0.022": 0.0,
			"0.023": 0.0,
			"0.024": 0.0,
			"0.025": 0.0
		}
	}
}
