{
	 "smiles": "CC(=O)OCC1=CC2OC(=O)C3=COC(OC4OC(CO)C(O)C(O)C4O)C1C23", 
	 "Tm": 405.15, 
	 "num_atms": 51, 
	 "gaussian": { 
		 "optdone": 1, 
		 "sigma_profile": "yes", 
		 "theory": "DFT", 
		 "functional": "B3LYP", 
		 "basiset": "6-31G**", 
		 "properties": { 
			 "R2extent": 11779.2232, 
			 "electric_dipole_moment_norm": 4.93341217212, 
			 "electric_quadrupole_moment_norm": 39.7435966208, 
			 "total_energy": -1526.57103759, 
			 "HOMO_LUMO_gap": 0.20793, 
			 "cosmo_polarized_energy": -33.09, 
			 "cosmo_cavitation_energy": 51.0, 
			 "cosmo_dispersion_energy": -34.22, 
			 "cosmo_repulsion_energy": 2.57, 
			 "cosmo_total_nonelectrostatic_energy": 19.35, 
			 "SMD_solvation_energy": 9.76 
		},
		"coords": [
			{
				"x": -1.759559025,
				"y": -3.4972497535,
				"z": 2.979553822,
				"element": "C" 
			},
			{
				"x": -1.541668359,
				"y": -2.2574289481,
				"z": 2.1523473862,
				"element": "C" 
			},
			{
				"x": -0.7089119734,
				"y": -2.1407408768,
				"z": 1.2731501782,
				"element": "O" 
			},
			{
				"x": -2.4051240153,
				"y": -1.2761213274,
				"z": 2.4845552887,
				"element": "O" 
			},
			{
				"x": -2.2870609031,
				"y": -0.0514038613,
				"z": 1.7237348996,
				"element": "C" 
			},
			{
				"x": -3.0467200805,
				"y": -0.1104242349,
				"z": 0.4262204342,
				"element": "C" 
			},
			{
				"x": -4.1343220868,
				"y": -0.8487031496,
				"z": 0.1674408063,
				"element": "C" 
			},
			{
				"x": -4.6976453777,
				"y": -0.5819073357,
				"z": -1.2033790709,
				"element": "C" 
			},
			{
				"x": -4.8531269868,
				"y": -1.7640749968,
				"z": -2.0330752282,
				"element": "O" 
			},
			{
				"x": -3.8703773158,
				"y": -1.8392173697,
				"z": -2.997727321,
				"element": "C" 
			},
			{
				"x": -3.7979059153,
				"y": -2.7598810059,
				"z": -3.7736505134,
				"element": "O" 
			},
			{
				"x": -2.9903343963,
				"y": -0.6690359214,
				"z": -2.8204674881,
				"element": "C" 
			},
			{
				"x": -1.7096914952,
				"y": -0.5427837216,
				"z": -3.1897478913,
				"element": "C" 
			},
			{
				"x": -0.9430259781,
				"y": 0.4244262004,
				"z": -2.6134540958,
				"element": "O" 
			},
			{
				"x": -1.1490136259,
				"y": 0.5043155346,
				"z": -1.1646423475,
				"element": "C" 
			},
			{
				"x": -0.3931601465,
				"y": 1.5708038608,
				"z": -0.6900930812,
				"element": "O" 
			},
			{
				"x": 0.9922096111,
				"y": 1.3502414833,
				"z": -0.6432764938,
				"element": "C" 
			},
			{
				"x": 1.2453718344,
				"y": 0.3493738401,
				"z": 0.3316347805,
				"element": "O" 
			},
			{
				"x": 2.6243538647,
				"y": -0.0369652676,
				"z": 0.384040741,
				"element": "C" 
			},
			{
				"x": 2.7361131198,
				"y": -1.1989460944,
				"z": 1.3724621612,
				"element": "C" 
			},
			{
				"x": 2.1447792821,
				"y": -2.3796098307,
				"z": 0.8838792037,
				"element": "O" 
			},
			{
				"x": 3.5065378225,
				"y": 1.1672946247,
				"z": 0.7368256082,
				"element": "C" 
			},
			{
				"x": 3.2748300011,
				"y": 1.548071736,
				"z": 2.0905524143,
				"element": "O" 
			},
			{
				"x": 3.1978831953,
				"y": 2.3662910448,
				"z": -0.1851726543,
				"element": "C" 
			},
			{
				"x": 3.8648302495,
				"y": 3.5295256744,
				"z": 0.3024476322,
				"element": "O" 
			},
			{
				"x": 1.6825160794,
				"y": 2.656264176,
				"z": -0.2179742595,
				"element": "C" 
			},
			{
				"x": 1.1828315577,
				"y": 3.117897602,
				"z": 1.0149849179,
				"element": "O" 
			},
			{
				"x": -2.6229701582,
				"y": 0.7447740458,
				"z": -0.7616540406,
				"element": "C" 
			},
			{
				"x": -3.6120134424,
				"y": 0.3000861772,
				"z": -1.866428383,
				"element": "C" 
			},
			{
				"x": -0.8529408281,
				"y": -4.1024251193,
				"z": 2.9696432701,
				"element": "H" 
			},
			{
				"x": -2.5733846178,
				"y": -4.0803859517,
				"z": 2.5347761779,
				"element": "H" 
			},
			{
				"x": -2.0468027181,
				"y": -3.2433008203,
				"z": 4.0015111806,
				"element": "H" 
			},
			{
				"x": -1.2316241007,
				"y": 0.1723780064,
				"z": 1.553756178,
				"element": "H" 
			},
			{
				"x": -2.7038626542,
				"y": 0.7205291158,
				"z": 2.37843324,
				"element": "H" 
			},
			{
				"x": -4.603338859,
				"y": -1.5324318346,
				"z": 0.8666483409,
				"element": "H" 
			},
			{
				"x": -5.6900578855,
				"y": -0.1215033944,
				"z": -1.1572761885,
				"element": "H" 
			},
			{
				"x": -1.1957072992,
				"y": -1.1842481892,
				"z": -3.9007404182,
				"element": "H" 
			},
			{
				"x": -0.787388321,
				"y": -0.4472703563,
				"z": -0.7615933104,
				"element": "H" 
			},
			{
				"x": 1.3571885828,
				"y": 1.0076300285,
				"z": -1.6257447743,
				"element": "H" 
			},
			{
				"x": 2.9340072853,
				"y": -0.4058928951,
				"z": -0.6080752435,
				"element": "H" 
			},
			{
				"x": 2.3150610456,
				"y": -0.8774110103,
				"z": 2.3348487062,
				"element": "H" 
			},
			{
				"x": 3.7994761638,
				"y": -1.4119118294,
				"z": 1.5333183977,
				"element": "H" 
			},
			{
				"x": 1.1796744356,
				"y": -2.2839234564,
				"z": 0.9327098018,
				"element": "H" 
			},
			{
				"x": 4.5612358965,
				"y": 0.8679792717,
				"z": 0.602663263,
				"element": "H" 
			},
			{
				"x": 3.597072862,
				"y": 2.4633912102,
				"z": 2.1531324045,
				"element": "H" 
			},
			{
				"x": 3.5245132026,
				"y": 2.1254233636,
				"z": -1.2082988184,
				"element": "H" 
			},
			{
				"x": 4.79899306,
				"y": 3.4607563738,
				"z": 0.0637397473,
				"element": "H" 
			},
			{
				"x": 1.4777487697,
				"y": 3.4385603944,
				"z": -0.9559277672,
				"element": "H" 
			},
			{
				"x": 1.4142719885,
				"y": 2.4413261082,
				"z": 1.6722122504,
				"element": "H" 
			},
			{
				"x": -2.720394191,
				"y": 1.8157394647,
				"z": -0.5460058141,
				"element": "H" 
			},
			{
				"x": -4.0286671542,
				"y": 1.1606192149,
				"z": -2.4003180295,
				"element": "H" 
			}
		],
		 "valence_orbital": [ 
			{
				"type": "occ",
				"energy": -0.27105,
				"method": "rhf"
			},
			{
				"type": "occ",
				"energy": -0.26086,
				"method": "rhf"
			},
			{
				"type": "occ",
				"energy": -0.25787,
				"method": "rhf"
			},
			{
				"type": "occ",
				"energy": -0.25308,
				"method": "rhf"
			},
			{
				"type": "occ",
				"energy": -0.24569,
				"method": "rhf"
			},
			{
				"type": "unocc",
				"energy": -0.03776,
				"method": "rhf"
			},
			{
				"type": "unocc",
				"energy": -0.01423,
				"method": "rhf"
			},
			{
				"type": "unocc",
				"energy": -0.00957,
				"method": "rhf"
			},
			{
				"type": "unocc",
				"energy": 0.04033,
				"method": "rhf"
			},
			{
				"type": "unocc",
				"energy": 0.06529,
				"method": "rhf"
			}
		],
		"cosmo_sigma_profile": { 
			"-0.025": 0.0,
			"-0.024": 0.0,
			"-0.023": 0.0,
			"-0.022": 0.0,
			"-0.021": 0.0,
			"-0.02": 0.0,
			"-0.019": 0.0,
			"-0.018": 0.0,
			"-0.017": 0.611660780052,
			"-0.016": 1.22627485531,
			"-0.015": 1.16404826004,
			"-0.014": 1.01853979834,
			"-0.013": 0.913223380183,
			"-0.012": 1.55120509084,
			"-0.011": 1.20127641187,
			"-0.01": 1.64956489466,
			"-0.009": 5.69258543479,
			"-0.008": 8.61726299286,
			"-0.007": 20.7750738217,
			"-0.006": 36.9452188435,
			"-0.005": 33.1899331506,
			"-0.004": 28.6363072661,
			"-0.003": 28.1865732717,
			"-0.002": 26.2793995253,
			"-0.001": 22.1948964328,
			"0.0": 16.7959941635,
			"0.001": 19.0679797586,
			"0.002": 17.7117643742,
			"0.003": 15.2433794571,
			"0.004": 13.9642472395,
			"0.005": 11.8496394531,
			"0.006": 10.9152694953,
			"0.007": 10.2388128027,
			"0.008": 11.3039978867,
			"0.009": 8.39567943084,
			"0.01": 9.91706793818,
			"0.011": 8.64199201362,
			"0.012": 11.1397839428,
			"0.013": 6.72760947913,
			"0.014": 6.07099817823,
			"0.015": 2.17454551961,
			"0.016": 0.0,
			"0.017": 0.0,
			"0.018": 0.0,
			"0.019": 0.0,
			"0.02": 0.0,
			"0.021": 0.0,
			"0.022": 0.0,
			"0.023": 0.0,
			"0.024": 0.0,
			"0.025": 0.0
		}
	}
}
