{
	 "smiles": "COC1=CC=C(OC)C(CC(O)=O)=C1", 
	 "Tm": 397.15, 
	 "num_atms": 26, 
	 "gaussian": { 
		 "optdone": 1, 
		 "sigma_profile": "yes", 
		 "theory": "DFT", 
		 "functional": "B3LYP", 
		 "basiset": "6-31G**", 
		 "properties": { 
			 "R2extent": 4613.5362, 
			 "electric_dipole_moment_norm": 2.09594359895, 
			 "electric_quadrupole_moment_norm": 10.7017725111, 
			 "total_energy": -689.182534095, 
			 "HOMO_LUMO_gap": 0.19598, 
			 "cosmo_polarized_energy": -14.65, 
			 "cosmo_cavitation_energy": 30.25, 
			 "cosmo_dispersion_energy": -21.54, 
			 "cosmo_repulsion_energy": 1.73, 
			 "cosmo_total_nonelectrostatic_energy": 10.43, 
			 "SMD_solvation_energy": 7.76 
		},
		"coords": [
			{
				"x": -0.0424171739,
				"y": -2.0086193684,
				"z": 2.3147479235,
				"element": "C" 
			},
			{
				"x": -0.1686080603,
				"y": -2.0186825282,
				"z": 0.9044376453,
				"element": "O" 
			},
			{
				"x": -0.7696786717,
				"y": -0.9417464604,
				"z": 0.3085106383,
				"element": "C" 
			},
			{
				"x": -1.2833290122,
				"y": 0.164298506,
				"z": 0.9824981308,
				"element": "C" 
			},
			{
				"x": -1.8814072629,
				"y": 1.2072589756,
				"z": 0.2596680964,
				"element": "C" 
			},
			{
				"x": -1.9646277507,
				"y": 1.1477712885,
				"z": -1.12859446,
				"element": "C" 
			},
			{
				"x": -2.5380045794,
				"y": 2.109165018,
				"z": -1.9202662647,
				"element": "O" 
			},
			{
				"x": -3.0233170639,
				"y": 3.2854181274,
				"z": -1.29773045,
				"element": "C" 
			},
			{
				"x": -1.442639786,
				"y": 0.0321622661,
				"z": -1.8189301101,
				"element": "C" 
			},
			{
				"x": -1.5441248572,
				"y": -0.0241049049,
				"z": -3.3207040843,
				"element": "C" 
			},
			{
				"x": -0.6244563491,
				"y": 0.9553369716,
				"z": -4.0342873904,
				"element": "C" 
			},
			{
				"x": -0.9560674016,
				"y": 1.0508772402,
				"z": -5.3480258563,
				"element": "O" 
			},
			{
				"x": 0.3025806949,
				"y": 1.5633481014,
				"z": -3.5528252591,
				"element": "O" 
			},
			{
				"x": -0.8570488093,
				"y": -0.9943736044,
				"z": -1.0918867433,
				"element": "C" 
			},
			{
				"x": 0.5615367481,
				"y": -1.15998422,
				"z": 2.6632427131,
				"element": "H" 
			},
			{
				"x": 0.4614251872,
				"y": -2.9392289681,
				"z": 2.5816444875,
				"element": "H" 
			},
			{
				"x": -1.0216960619,
				"y": -1.9751701159,
				"z": 2.8113845602,
				"element": "H" 
			},
			{
				"x": -1.2319615018,
				"y": 0.2386031542,
				"z": 2.0621746096,
				"element": "H" 
			},
			{
				"x": -2.2748743664,
				"y": 2.058180449,
				"z": 0.8029071885,
				"element": "H" 
			},
			{
				"x": -2.224474957,
				"y": 3.8195811315,
				"z": -0.7673093387,
				"element": "H" 
			},
			{
				"x": -3.4070155965,
				"y": 3.9177730648,
				"z": -2.1001197742,
				"element": "H" 
			},
			{
				"x": -3.8365578759,
				"y": 3.0660131768,
				"z": -0.5929354604,
				"element": "H" 
			},
			{
				"x": -2.5647371242,
				"y": 0.1809380863,
				"z": -3.659518583,
				"element": "H" 
			},
			{
				"x": -1.2894775315,
				"y": -1.0260847832,
				"z": -3.6853444695,
				"element": "H" 
			},
			{
				"x": -0.3122613691,
				"y": 1.6647287859,
				"z": -5.7392960889,
				"element": "H" 
			},
			{
				"x": -0.4477594677,
				"y": -1.8631593899,
				"z": -1.5986416601,
				"element": "H" 
			}
		],
		 "valence_orbital": [ 
			{
				"type": "occ",
				"energy": -0.30942,
				"method": "rhf"
			},
			{
				"type": "occ",
				"energy": -0.28558,
				"method": "rhf"
			},
			{
				"type": "occ",
				"energy": -0.26723,
				"method": "rhf"
			},
			{
				"type": "occ",
				"energy": -0.24367,
				"method": "rhf"
			},
			{
				"type": "occ",
				"energy": -0.19604,
				"method": "rhf"
			},
			{
				"type": "unocc",
				"energy": -6e-05,
				"method": "rhf"
			},
			{
				"type": "unocc",
				"energy": 0.02067,
				"method": "rhf"
			},
			{
				"type": "unocc",
				"energy": 0.02746,
				"method": "rhf"
			},
			{
				"type": "unocc",
				"energy": 0.08523,
				"method": "rhf"
			},
			{
				"type": "unocc",
				"energy": 0.09432,
				"method": "rhf"
			}
		],
		"cosmo_sigma_profile": { 
			"-0.025": 0.0,
			"-0.024": 0.0,
			"-0.023": 0.0,
			"-0.022": 0.0,
			"-0.021": 0.0,
			"-0.02": 0.0,
			"-0.019": 0.0,
			"-0.018": 0.370041459194,
			"-0.017": 1.05850930426,
			"-0.016": 0.812875400662,
			"-0.015": 1.0163954378,
			"-0.014": 0.740774647726,
			"-0.013": 0.618793449542,
			"-0.012": 0.282651117071,
			"-0.011": 0.68812134562,
			"-0.01": 1.27014430713,
			"-0.009": 0.651348282496,
			"-0.008": 0.753783255387,
			"-0.007": 4.3325021972,
			"-0.006": 14.5995571421,
			"-0.005": 25.3676200808,
			"-0.004": 23.1389121722,
			"-0.003": 25.2113355349,
			"-0.002": 16.3987737475,
			"-0.001": 10.5156579821,
			"0.0": 9.6210316604,
			"0.001": 9.17124906624,
			"0.002": 10.161414473,
			"0.003": 11.2951709012,
			"0.004": 13.9751460886,
			"0.005": 14.1300764449,
			"0.006": 8.99916847571,
			"0.007": 7.29828360552,
			"0.008": 5.30966435701,
			"0.009": 5.11135325767,
			"0.01": 5.69481054221,
			"0.011": 4.52249376172,
			"0.012": 5.08563531408,
			"0.013": 0.799425746835,
			"0.014": 0.0,
			"0.015": 0.0,
			"0.016": 0.0,
			"0.017": 0.0,
			"0.018": 0.0,
			"0.019": 0.0,
			"0.02": 0.0,
			"0.021": 0.0,
			"0.022": 0.0,
			"0.023": 0.0,
			"0.024": 0.0,
			"0.025": 0.0
		}
	}
}
