{
	 "smiles": "FC(F)(F)C1=CN=C(C=C1)N1C=CC=N1", 
	 "Tm": 340.15, 
	 "num_atms": 21, 
	 "gaussian": { 
		 "optdone": 1, 
		 "sigma_profile": "yes", 
		 "theory": "DFT", 
		 "functional": "B3LYP", 
		 "basiset": "6-31G**", 
		 "properties": { 
			 "R2extent": 5424.1663, 
			 "electric_dipole_moment_norm": 3.75472077391, 
			 "electric_quadrupole_moment_norm": 3.97797198582, 
			 "total_energy": -810.31957652, 
			 "HOMO_LUMO_gap": 0.19298, 
			 "cosmo_polarized_energy": -13.19, 
			 "cosmo_cavitation_energy": 27.66, 
			 "cosmo_dispersion_energy": -19.94, 
			 "cosmo_repulsion_energy": 1.47, 
			 "cosmo_total_nonelectrostatic_energy": 9.18, 
			 "SMD_solvation_energy": 4.41 
		},
		"coords": [
			{
				"x": 3.1137895224,
				"y": 0.1099691688,
				"z": 3.949128963,
				"element": "F" 
			},
			{
				"x": 3.4093380321,
				"y": -0.776346925,
				"z": 2.9710143339,
				"element": "C" 
			},
			{
				"x": 4.7427898631,
				"y": -0.7373092907,
				"z": 2.769082265,
				"element": "F" 
			},
			{
				"x": 3.1154678269,
				"y": -2.0044352044,
				"z": 3.4558955254,
				"element": "F" 
			},
			{
				"x": 2.6451375783,
				"y": -0.4787850658,
				"z": 1.7132591108,
				"element": "C" 
			},
			{
				"x": 3.2049339731,
				"y": -0.7090960355,
				"z": 0.4549901236,
				"element": "C" 
			},
			{
				"x": 2.5590162413,
				"y": -0.4890896113,
				"z": -0.6912245085,
				"element": "N" 
			},
			{
				"x": 1.305378269,
				"y": -0.0445200919,
				"z": -0.6211564683,
				"element": "C" 
			},
			{
				"x": 0.6361987132,
				"y": 0.2008439685,
				"z": 0.5894516838,
				"element": "C" 
			},
			{
				"x": 1.3291092964,
				"y": -0.0123157838,
				"z": 1.772011472,
				"element": "C" 
			},
			{
				"x": 0.6436938699,
				"y": 0.1859065643,
				"z": -1.8488963165,
				"element": "N" 
			},
			{
				"x": -0.4075150357,
				"y": 1.0410730177,
				"z": -2.0804443788,
				"element": "C" 
			},
			{
				"x": -0.7206614379,
				"y": 0.9324942728,
				"z": -3.4129814116,
				"element": "C" 
			},
			{
				"x": 0.1996661609,
				"y": -0.0240527893,
				"z": -3.9155322318,
				"element": "C" 
			},
			{
				"x": 1.0227322135,
				"y": -0.4715065823,
				"z": -2.9789431945,
				"element": "N" 
			},
			{
				"x": 4.2259466628,
				"y": -1.0712346389,
				"z": 0.3678781603,
				"element": "H" 
			},
			{
				"x": -0.3977410513,
				"y": 0.5237633426,
				"z": 0.605126949,
				"element": "H" 
			},
			{
				"x": 0.8537690922,
				"y": 0.1714438544,
				"z": 2.7298351886,
				"element": "H" 
			},
			{
				"x": -0.812213459,
				"y": 1.671709201,
				"z": -1.3042869247,
				"element": "H" 
			},
			{
				"x": -1.4892230704,
				"y": 1.4687843346,
				"z": -3.949063149,
				"element": "H" 
			},
			{
				"x": 0.2878867391,
				"y": -0.4044957057,
				"z": -4.9246451918,
				"element": "H" 
			}
		],
		 "valence_orbital": [ 
			{
				"type": "occ",
				"energy": -0.30537,
				"method": "rhf"
			},
			{
				"type": "occ",
				"energy": -0.29771,
				"method": "rhf"
			},
			{
				"type": "occ",
				"energy": -0.27497,
				"method": "rhf"
			},
			{
				"type": "occ",
				"energy": -0.25854,
				"method": "rhf"
			},
			{
				"type": "occ",
				"energy": -0.24852,
				"method": "rhf"
			},
			{
				"type": "unocc",
				"energy": -0.05554,
				"method": "rhf"
			},
			{
				"type": "unocc",
				"energy": -0.04394,
				"method": "rhf"
			},
			{
				"type": "unocc",
				"energy": 0.01787,
				"method": "rhf"
			},
			{
				"type": "unocc",
				"energy": 0.06155,
				"method": "rhf"
			},
			{
				"type": "unocc",
				"energy": 0.08078,
				"method": "rhf"
			}
		],
		"cosmo_sigma_profile": { 
			"-0.025": 0.0,
			"-0.024": 0.0,
			"-0.023": 0.0,
			"-0.022": 0.0,
			"-0.021": 0.0,
			"-0.02": 0.0,
			"-0.019": 0.0,
			"-0.018": 0.0,
			"-0.017": 0.0,
			"-0.016": 0.0,
			"-0.015": 0.0,
			"-0.014": 0.0,
			"-0.013": 0.0,
			"-0.012": 0.0100113134306,
			"-0.011": 0.964183143382,
			"-0.01": 2.49505493632,
			"-0.009": 4.63317942613,
			"-0.008": 7.35029041115,
			"-0.007": 10.6997261419,
			"-0.006": 9.54988841803,
			"-0.005": 8.67470178526,
			"-0.004": 11.3272568975,
			"-0.003": 11.2700679435,
			"-0.002": 16.0628293407,
			"-0.001": 19.5704612379,
			"0.0": 17.9057768861,
			"0.001": 15.5048008966,
			"0.002": 27.489154501,
			"0.003": 27.8490534193,
			"0.004": 8.05703496905,
			"0.005": 3.2694214594,
			"0.006": 3.14061518506,
			"0.007": 1.25565666475,
			"0.008": 1.71436835314,
			"0.009": 1.92454964541,
			"0.01": 1.99041882908,
			"0.011": 1.79728516807,
			"0.012": 1.60424929859,
			"0.013": 1.39463576825,
			"0.014": 0.910918500065,
			"0.015": 1.5551857526,
			"0.016": 1.58512518467,
			"0.017": 0.982452170375,
			"0.018": 1.01874412625,
			"0.019": 0.292174631172,
			"0.02": 0.0,
			"0.021": 0.0,
			"0.022": 0.0,
			"0.023": 0.0,
			"0.024": 0.0,
			"0.025": 0.0
		}
	}
}
