{
	 "smiles": "FC1=C(Cl)C=C(C=C1)C(=O)CCl", 
	 "Tm": 311.15, 
	 "num_atms": 17, 
	 "gaussian": { 
		 "optdone": 1, 
		 "sigma_profile": "yes", 
		 "theory": "DFT", 
		 "functional": "B3LYP", 
		 "basiset": "6-31G**", 
		 "properties": { 
			 "R2extent": 3791.8025, 
			 "electric_dipole_moment_norm": 2.87433856913, 
			 "electric_quadrupole_moment_norm": 6.21677113219, 
			 "total_energy": -1403.30056896, 
			 "HOMO_LUMO_gap": 0.18176, 
			 "cosmo_polarized_energy": -8.55, 
			 "cosmo_cavitation_energy": 25.9, 
			 "cosmo_dispersion_energy": -18.96, 
			 "cosmo_repulsion_energy": 1.5, 
			 "cosmo_total_nonelectrostatic_energy": 8.44, 
			 "SMD_solvation_energy": 4.95 
		},
		"coords": [
			{
				"x": 1.8555035669,
				"y": -2.7093158152,
				"z": 2.8516789389,
				"element": "F" 
			},
			{
				"x": 1.2259032191,
				"y": -2.052793786,
				"z": 1.872348603,
				"element": "C" 
			},
			{
				"x": 1.9614303302,
				"y": -1.2482608017,
				"z": 0.9933625814,
				"element": "C" 
			},
			{
				"x": 3.6885216708,
				"y": -1.1141616532,
				"z": 1.1906585854,
				"element": "Cl" 
			},
			{
				"x": 1.3001073329,
				"y": -0.5689935623,
				"z": -0.0199457474,
				"element": "C" 
			},
			{
				"x": -0.0919596403,
				"y": -0.6881572027,
				"z": -0.1645718604,
				"element": "C" 
			},
			{
				"x": -0.8118294298,
				"y": -1.5007537864,
				"z": 0.7248821648,
				"element": "C" 
			},
			{
				"x": -0.1525979612,
				"y": -2.1822636615,
				"z": 1.7438798534,
				"element": "C" 
			},
			{
				"x": -0.7302426148,
				"y": 0.0968883113,
				"z": -1.261453995,
				"element": "C" 
			},
			{
				"x": -0.0801258133,
				"y": 0.8376604672,
				"z": -1.9798975034,
				"element": "O" 
			},
			{
				"x": -2.2439884514,
				"y": 0.0162121259,
				"z": -1.4782383573,
				"element": "C" 
			},
			{
				"x": -2.7507813649,
				"y": -1.6055016274,
				"z": -2.1164442887,
				"element": "Cl" 
			},
			{
				"x": 1.8469147595,
				"y": 0.0634285837,
				"z": -0.7097936575,
				"element": "H" 
			},
			{
				"x": -1.8837618381,
				"y": -1.6219490236,
				"z": 0.6218684441,
				"element": "H" 
			},
			{
				"x": -0.6841202751,
				"y": -2.8183836799,
				"z": 2.4429276743,
				"element": "H" 
			},
			{
				"x": -2.5136512312,
				"y": 0.7573856859,
				"z": -2.227957887,
				"element": "H" 
			},
			{
				"x": -2.8032222594,
				"y": 0.187559426,
				"z": -0.5563035488,
				"element": "H" 
			}
		],
		 "valence_orbital": [ 
			{
				"type": "occ",
				"energy": -0.32664,
				"method": "rhf"
			},
			{
				"type": "occ",
				"energy": -0.31506,
				"method": "rhf"
			},
			{
				"type": "occ",
				"energy": -0.27956,
				"method": "rhf"
			},
			{
				"type": "occ",
				"energy": -0.2733,
				"method": "rhf"
			},
			{
				"type": "occ",
				"energy": -0.26559,
				"method": "rhf"
			},
			{
				"type": "unocc",
				"energy": -0.08383,
				"method": "rhf"
			},
			{
				"type": "unocc",
				"energy": -0.03758,
				"method": "rhf"
			},
			{
				"type": "unocc",
				"energy": -0.0088,
				"method": "rhf"
			},
			{
				"type": "unocc",
				"energy": 0.01232,
				"method": "rhf"
			},
			{
				"type": "unocc",
				"energy": 0.04123,
				"method": "rhf"
			}
		],
		"cosmo_sigma_profile": { 
			"-0.025": 0.0,
			"-0.024": 0.0,
			"-0.023": 0.0,
			"-0.022": 0.0,
			"-0.021": 0.0,
			"-0.02": 0.0,
			"-0.019": 0.0,
			"-0.018": 0.0,
			"-0.017": 0.0,
			"-0.016": 0.0,
			"-0.015": 0.0,
			"-0.014": 0.0,
			"-0.013": 0.0,
			"-0.012": 0.0,
			"-0.011": 0.0301472752153,
			"-0.01": 2.02863285684,
			"-0.009": 4.82265394449,
			"-0.008": 7.57434006172,
			"-0.007": 8.33631132664,
			"-0.006": 8.2526332075,
			"-0.005": 7.07678020045,
			"-0.004": 6.76031767312,
			"-0.003": 8.08616918285,
			"-0.002": 15.4758179994,
			"-0.001": 20.1317320849,
			"0.0": 24.0141364955,
			"0.001": 18.6606803055,
			"0.002": 16.2854850823,
			"0.003": 23.5597607277,
			"0.004": 17.2618141288,
			"0.005": 9.3411025763,
			"0.006": 3.77132137938,
			"0.007": 1.01824522377,
			"0.008": 2.02706958663,
			"0.009": 2.07820370369,
			"0.01": 3.60459621922,
			"0.011": 2.35803182594,
			"0.012": 0.360243047174,
			"0.013": 0.0,
			"0.014": 0.0,
			"0.015": 0.0,
			"0.016": 0.0,
			"0.017": 0.0,
			"0.018": 0.0,
			"0.019": 0.0,
			"0.02": 0.0,
			"0.021": 0.0,
			"0.022": 0.0,
			"0.023": 0.0,
			"0.024": 0.0,
			"0.025": 0.0
		}
	}
}
