{
	 "smiles": "BrC1=CN=CC(Br)=C1Br", 
	 "Tm": 380.15, 
	 "num_atms": 11, 
	 "gaussian": { 
		 "optdone": 1, 
		 "sigma_profile": "yes", 
		 "theory": "DFT", 
		 "functional": "B3LYP", 
		 "basiset": "6-31G**", 
		 "properties": { 
			 "R2extent": 5383.7219, 
			 "electric_dipole_moment_norm": 0.228314125713, 
			 "electric_quadrupole_moment_norm": 3.53235193603, 
			 "total_energy": -7960.67928075, 
			 "HOMO_LUMO_gap": 0.206, 
			 "cosmo_polarized_energy": -4.28, 
			 "cosmo_cavitation_energy": 22.32, 
			 "cosmo_dispersion_energy": -17.88, 
			 "cosmo_repulsion_energy": 1.44, 
			 "cosmo_total_nonelectrostatic_energy": 5.88, 
			 "SMD_solvation_energy": -0.65 
		},
		"coords": [
			{
				"x": -3.7688767058,
				"y": -0.2203780016,
				"z": -0.6861409562,
				"element": "Br" 
			},
			{
				"x": -1.8780306048,
				"y": -0.1871794912,
				"z": -0.8283475628,
				"element": "C" 
			},
			{
				"x": -1.1804277034,
				"y": -1.3753176249,
				"z": -0.5939786146,
				"element": "C" 
			},
			{
				"x": 0.1476268532,
				"y": -1.468278679,
				"z": -0.6660231295,
				"element": "N" 
			},
			{
				"x": 0.8363848362,
				"y": -0.3699899922,
				"z": -0.9774056539,
				"element": "C" 
			},
			{
				"x": 0.2334224248,
				"y": 0.8653141965,
				"z": -1.2298287992,
				"element": "C" 
			},
			{
				"x": 1.3541526389,
				"y": 2.3332698926,
				"z": -1.6607532207,
				"element": "Br" 
			},
			{
				"x": -1.162737166,
				"y": 0.9734235226,
				"z": -1.1564838608,
				"element": "C" 
			},
			{
				"x": -2.041060867,
				"y": 2.6099604675,
				"z": -1.4851326683,
				"element": "Br" 
			},
			{
				"x": -1.7300778262,
				"y": -2.2770994419,
				"z": -0.3395634422,
				"element": "H" 
			},
			{
				"x": 1.9176241201,
				"y": -0.4588248484,
				"z": -1.0329420919,
				"element": "H" 
			}
		],
		 "valence_orbital": [ 
			{
				"type": "occ",
				"energy": -0.31752,
				"method": "rhf"
			},
			{
				"type": "occ",
				"energy": -0.28564,
				"method": "rhf"
			},
			{
				"type": "occ",
				"energy": -0.28238,
				"method": "rhf"
			},
			{
				"type": "occ",
				"energy": -0.27504,
				"method": "rhf"
			},
			{
				"type": "occ",
				"energy": -0.2642,
				"method": "rhf"
			},
			{
				"type": "unocc",
				"energy": -0.0582,
				"method": "rhf"
			},
			{
				"type": "unocc",
				"energy": -0.05198,
				"method": "rhf"
			},
			{
				"type": "unocc",
				"energy": -0.04594,
				"method": "rhf"
			},
			{
				"type": "unocc",
				"energy": 0.01033,
				"method": "rhf"
			},
			{
				"type": "unocc",
				"energy": 0.02586,
				"method": "rhf"
			}
		],
		"cosmo_sigma_profile": { 
			"-0.025": 0.0,
			"-0.024": 0.0,
			"-0.023": 0.0,
			"-0.022": 0.0,
			"-0.021": 0.0,
			"-0.02": 0.0,
			"-0.019": 0.0,
			"-0.018": 0.0,
			"-0.017": 0.0,
			"-0.016": 0.0,
			"-0.015": 0.0,
			"-0.014": 0.0,
			"-0.013": 0.0,
			"-0.012": 0.0,
			"-0.011": 0.0,
			"-0.01": 0.0,
			"-0.009": 1.01796711831,
			"-0.008": 2.99428131473,
			"-0.007": 3.48741114589,
			"-0.006": 6.35021867464,
			"-0.005": 7.27503597354,
			"-0.004": 9.23642843787,
			"-0.003": 13.5992410039,
			"-0.002": 23.9504324037,
			"-0.001": 19.8316664655,
			"0.0": 15.9163113723,
			"0.001": 15.4390429518,
			"0.002": 22.060126036,
			"0.003": 28.0156182091,
			"0.004": 10.535579955,
			"0.005": 1.56072662089,
			"0.006": 1.92538723412,
			"0.007": 1.36559687613,
			"0.008": 0.763765849202,
			"0.009": 0.0605622215275,
			"0.01": 1.12941554086,
			"0.011": 0.955177675265,
			"0.012": 1.01029784472,
			"0.013": 0.825553426844,
			"0.014": 0.60609313658,
			"0.015": 0.178804807731,
			"0.016": 0.0,
			"0.017": 0.0,
			"0.018": 0.0,
			"0.019": 0.0,
			"0.02": 0.0,
			"0.021": 0.0,
			"0.022": 0.0,
			"0.023": 0.0,
			"0.024": 0.0,
			"0.025": 0.0
		}
	}
}
