{
	 "smiles": "CC(=O)C1=C(C)N=C(S1)C1=CC=CC=C1", 
	 "Tm": 340.65, 
	 "num_atms": 26, 
	 "gaussian": { 
		 "optdone": 1, 
		 "sigma_profile": "yes", 
		 "theory": "DFT", 
		 "functional": "B3LYP", 
		 "basiset": "6-31G**", 
		 "properties": { 
			 "R2extent": 5401.5227, 
			 "electric_dipole_moment_norm": 3.36630049312, 
			 "electric_quadrupole_moment_norm": 11.4821887848, 
			 "total_energy": -992.081080057, 
			 "HOMO_LUMO_gap": 0.14922, 
			 "cosmo_polarized_energy": -9.14, 
			 "cosmo_cavitation_energy": 31.62, 
			 "cosmo_dispersion_energy": -23.51, 
			 "cosmo_repulsion_energy": 1.78, 
			 "cosmo_total_nonelectrostatic_energy": 9.89, 
			 "SMD_solvation_energy": 4.58 
		},
		"coords": [
			{
				"x": 3.1863006154,
				"y": -2.3160411915,
				"z": -2.3174925101,
				"element": "C" 
			},
			{
				"x": 1.8073033453,
				"y": -2.9303326142,
				"z": -2.1439815885,
				"element": "C" 
			},
			{
				"x": 1.6329809923,
				"y": -4.1387175723,
				"z": -2.256108146,
				"element": "O" 
			},
			{
				"x": 0.6774882788,
				"y": -2.0369527992,
				"z": -1.8370929089,
				"element": "C" 
			},
			{
				"x": -0.6494642262,
				"y": -2.3996515657,
				"z": -1.6432260624,
				"element": "C" 
			},
			{
				"x": -1.200454533,
				"y": -3.7929405177,
				"z": -1.7094219431,
				"element": "C" 
			},
			{
				"x": -1.4990660017,
				"y": -1.3647644809,
				"z": -1.3694124198,
				"element": "N" 
			},
			{
				"x": -0.8889942867,
				"y": -0.2013715874,
				"z": -1.3407950707,
				"element": "C" 
			},
			{
				"x": 0.8342143035,
				"y": -0.3017446799,
				"z": -1.6601041587,
				"element": "S" 
			},
			{
				"x": -1.5752222445,
				"y": 1.0668041826,
				"z": -1.06858447,
				"element": "C" 
			},
			{
				"x": -2.9607136914,
				"y": 1.0501891215,
				"z": -0.8243687756,
				"element": "C" 
			},
			{
				"x": -3.6416896442,
				"y": 2.2352971065,
				"z": -0.5630648044,
				"element": "C" 
			},
			{
				"x": -2.9561911213,
				"y": 3.4528705105,
				"z": -0.5406842158,
				"element": "C" 
			},
			{
				"x": -1.5805813286,
				"y": 3.478288396,
				"z": -0.7820316018,
				"element": "C" 
			},
			{
				"x": -0.8940865713,
				"y": 2.2954475251,
				"z": -1.0440652626,
				"element": "C" 
			},
			{
				"x": 3.9005560717,
				"y": -3.1097289744,
				"z": -2.538967882,
				"element": "H" 
			},
			{
				"x": 3.4971666845,
				"y": -1.7895513772,
				"z": -1.4078660542,
				"element": "H" 
			},
			{
				"x": 3.1889873584,
				"y": -1.5851578041,
				"z": -3.134225003,
				"element": "H" 
			},
			{
				"x": -2.2737315913,
				"y": -3.7636607878,
				"z": -1.51428546,
				"element": "H" 
			},
			{
				"x": -1.0137293389,
				"y": -4.242589581,
				"z": -2.6887534392,
				"element": "H" 
			},
			{
				"x": -0.7087491019,
				"y": -4.44423858,
				"z": -0.9812952583,
				"element": "H" 
			},
			{
				"x": -3.4790741003,
				"y": 0.0982155615,
				"z": -0.8449900509,
				"element": "H" 
			},
			{
				"x": -4.7112730745,
				"y": 2.2099228822,
				"z": -0.3760502924,
				"element": "H" 
			},
			{
				"x": -3.4902072593,
				"y": 4.3762386828,
				"z": -0.3364873903,
				"element": "H" 
			},
			{
				"x": -1.0413903115,
				"y": 4.4207454585,
				"z": -0.7661879276,
				"element": "H" 
			},
			{
				"x": 0.1759207766,
				"y": 2.3304246862,
				"z": -1.2299573039,
				"element": "H" 
			}
		],
		 "valence_orbital": [ 
			{
				"type": "occ",
				"energy": -0.28009,
				"method": "rhf"
			},
			{
				"type": "occ",
				"energy": -0.27983,
				"method": "rhf"
			},
			{
				"type": "occ",
				"energy": -0.26247,
				"method": "rhf"
			},
			{
				"type": "occ",
				"energy": -0.24954,
				"method": "rhf"
			},
			{
				"type": "occ",
				"energy": -0.22695,
				"method": "rhf"
			},
			{
				"type": "unocc",
				"energy": -0.07773,
				"method": "rhf"
			},
			{
				"type": "unocc",
				"energy": -0.02038,
				"method": "rhf"
			},
			{
				"type": "unocc",
				"energy": -0.0112,
				"method": "rhf"
			},
			{
				"type": "unocc",
				"energy": 0.0108,
				"method": "rhf"
			},
			{
				"type": "unocc",
				"energy": 0.03857,
				"method": "rhf"
			}
		],
		"cosmo_sigma_profile": { 
			"-0.025": 0.0,
			"-0.024": 0.0,
			"-0.023": 0.0,
			"-0.022": 0.0,
			"-0.021": 0.0,
			"-0.02": 0.0,
			"-0.019": 0.0,
			"-0.018": 0.0,
			"-0.017": 0.0,
			"-0.016": 0.0,
			"-0.015": 0.0,
			"-0.014": 0.0,
			"-0.013": 0.0,
			"-0.012": 0.0,
			"-0.011": 0.0,
			"-0.01": 0.0,
			"-0.009": 0.0,
			"-0.008": 0.0638502916628,
			"-0.007": 2.8979360279,
			"-0.006": 14.2000721795,
			"-0.005": 18.9717469438,
			"-0.004": 21.8194399709,
			"-0.003": 19.0096493345,
			"-0.002": 21.9186544802,
			"-0.001": 27.6396535171,
			"0.0": 26.6411277042,
			"0.001": 22.0997020658,
			"0.002": 18.4995388855,
			"0.003": 15.7141522205,
			"0.004": 16.098437393,
			"0.005": 6.00741469975,
			"0.006": 4.07704264828,
			"0.007": 2.33827452659,
			"0.008": 2.94048808485,
			"0.009": 2.77596969554,
			"0.01": 3.08415023379,
			"0.011": 2.95501345941,
			"0.012": 3.0324071258,
			"0.013": 1.82058815452,
			"0.014": 0.211065529647,
			"0.015": 0.0,
			"0.016": 0.0,
			"0.017": 0.0,
			"0.018": 0.0,
			"0.019": 0.0,
			"0.02": 0.0,
			"0.021": 0.0,
			"0.022": 0.0,
			"0.023": 0.0,
			"0.024": 0.0,
			"0.025": 0.0
		}
	}
}
