{
	 "smiles": "ON=CC(=O)NC1=CC(Cl)=CC=C1Cl", 
	 "Tm": 473.15, 
	 "num_atms": 20, 
	 "gaussian": { 
		 "optdone": 1, 
		 "sigma_profile": "yes", 
		 "theory": "DFT", 
		 "functional": "B3LYP", 
		 "basiset": "6-31G**", 
		 "properties": { 
			 "R2extent": 4829.5284, 
			 "electric_dipole_moment_norm": 3.46168815175, 
			 "electric_quadrupole_moment_norm": 16.7919174399, 
			 "total_energy": -1488.74055327, 
			 "HOMO_LUMO_gap": 0.18112, 
			 "cosmo_polarized_energy": -14.96, 
			 "cosmo_cavitation_energy": 29.28, 
			 "cosmo_dispersion_energy": -21.25, 
			 "cosmo_repulsion_energy": 1.7, 
			 "cosmo_total_nonelectrostatic_energy": 9.74, 
			 "SMD_solvation_energy": 5.35 
		},
		"coords": [
			{
				"x": 2.6729072938,
				"y": -0.0051038857,
				"z": -0.6810113358,
				"element": "O" 
			},
			{
				"x": 3.3077739683,
				"y": -1.1453275486,
				"z": -0.1715253595,
				"element": "N" 
			},
			{
				"x": 2.5426020472,
				"y": -1.9089785562,
				"z": 0.5151673925,
				"element": "C" 
			},
			{
				"x": 1.0902624278,
				"y": -1.8405844365,
				"z": 0.9133609823,
				"element": "C" 
			},
			{
				"x": 0.6615891577,
				"y": -2.6729202388,
				"z": 1.6975383082,
				"element": "O" 
			},
			{
				"x": 0.3292507864,
				"y": -0.840642505,
				"z": 0.3537403042,
				"element": "N" 
			},
			{
				"x": -1.0331898721,
				"y": -0.6272796622,
				"z": 0.6787343735,
				"element": "C" 
			},
			{
				"x": -1.3953954858,
				"y": 0.5796505209,
				"z": 1.290080181,
				"element": "C" 
			},
			{
				"x": -2.7282092279,
				"y": 0.8433137721,
				"z": 1.5895949509,
				"element": "C" 
			},
			{
				"x": -3.1533428677,
				"y": 2.3672636896,
				"z": 2.3492099706,
				"element": "Cl" 
			},
			{
				"x": -3.7240741089,
				"y": -0.0904342724,
				"z": 1.3085238179,
				"element": "C" 
			},
			{
				"x": -3.3699447293,
				"y": -1.2909148472,
				"z": 0.697657269,
				"element": "C" 
			},
			{
				"x": -2.0402770859,
				"y": -1.5567327431,
				"z": 0.3673904288,
				"element": "C" 
			},
			{
				"x": -1.6713262406,
				"y": -3.0335223037,
				"z": -0.4868868053,
				"element": "Cl" 
			},
			{
				"x": 3.3818133651,
				"y": 0.4351246598,
				"z": -1.1680664682,
				"element": "H" 
			},
			{
				"x": 3.0421063781,
				"y": -2.7852336737,
				"z": 0.9201458309,
				"element": "H" 
			},
			{
				"x": 0.8203401913,
				"y": -0.1292943332,
				"z": -0.173323212,
				"element": "H" 
			},
			{
				"x": -0.6236931022,
				"y": 1.2985220043,
				"z": 1.5416016967,
				"element": "H" 
			},
			{
				"x": -4.7586091641,
				"y": 0.1183468294,
				"z": 1.5554062909,
				"element": "H" 
			},
			{
				"x": -4.1312837311,
				"y": -2.0241524696,
				"z": 0.4566613833,
				"element": "H" 
			}
		],
		 "valence_orbital": [ 
			{
				"type": "occ",
				"energy": -0.301,
				"method": "rhf"
			},
			{
				"type": "occ",
				"energy": -0.28992,
				"method": "rhf"
			},
			{
				"type": "occ",
				"energy": -0.26544,
				"method": "rhf"
			},
			{
				"type": "occ",
				"energy": -0.26148,
				"method": "rhf"
			},
			{
				"type": "occ",
				"energy": -0.2451,
				"method": "rhf"
			},
			{
				"type": "unocc",
				"energy": -0.06398,
				"method": "rhf"
			},
			{
				"type": "unocc",
				"energy": -0.02907,
				"method": "rhf"
			},
			{
				"type": "unocc",
				"energy": -0.0265,
				"method": "rhf"
			},
			{
				"type": "unocc",
				"energy": 0.01378,
				"method": "rhf"
			},
			{
				"type": "unocc",
				"energy": 0.03578,
				"method": "rhf"
			}
		],
		"cosmo_sigma_profile": { 
			"-0.025": 0.0,
			"-0.024": 0.0,
			"-0.023": 0.0,
			"-0.022": 0.0,
			"-0.021": 0.0,
			"-0.02": 0.0,
			"-0.019": 0.68096399438,
			"-0.018": 1.14219336443,
			"-0.017": 1.02596668835,
			"-0.016": 1.11168880033,
			"-0.015": 0.704039062024,
			"-0.014": 0.779978082055,
			"-0.013": 0.0655700564264,
			"-0.012": 1.00482141088,
			"-0.011": 2.32093664211,
			"-0.01": 1.62738452728,
			"-0.009": 3.24051505986,
			"-0.008": 8.67946341924,
			"-0.007": 7.61289739085,
			"-0.006": 8.55337352766,
			"-0.005": 6.74718888165,
			"-0.004": 8.7264462618,
			"-0.003": 12.6992586891,
			"-0.002": 15.9841913129,
			"-0.001": 15.1360323901,
			"0.0": 20.6787738477,
			"0.001": 26.3669406071,
			"0.002": 22.535949965,
			"0.003": 18.1853904013,
			"0.004": 20.7638881267,
			"0.005": 7.68315522422,
			"0.006": 3.07807817356,
			"0.007": 2.26816381784,
			"0.008": 2.73117165636,
			"0.009": 2.96209698827,
			"0.01": 3.43673659609,
			"0.011": 3.09771217574,
			"0.012": 4.46268615754,
			"0.013": 3.37386762172,
			"0.014": 0.198196638412,
			"0.015": 0.0,
			"0.016": 0.0,
			"0.017": 0.0,
			"0.018": 0.0,
			"0.019": 0.0,
			"0.02": 0.0,
			"0.021": 0.0,
			"0.022": 0.0,
			"0.023": 0.0,
			"0.024": 0.0,
			"0.025": 0.0
		}
	}
}
