{
	 "smiles": "C1CC2=CC=CC=C2C2=CC=CC=C12", 
	 "Tm": 307.35, 
	 "num_atms": 26, 
	 "gaussian": { 
		 "optdone": 1, 
		 "sigma_profile": "yes", 
		 "theory": "DFT", 
		 "functional": "B3LYP", 
		 "basiset": "6-31G**", 
		 "properties": { 
			 "R2extent": 3154.4214, 
			 "electric_dipole_moment_norm": 0.459817942234, 
			 "electric_quadrupole_moment_norm": 9.60304363574, 
			 "total_energy": -540.746970477, 
			 "HOMO_LUMO_gap": 0.1831, 
			 "cosmo_polarized_energy": -5.02, 
			 "cosmo_cavitation_energy": 27.93, 
			 "cosmo_dispersion_energy": -21.02, 
			 "cosmo_repulsion_energy": 1.61, 
			 "cosmo_total_nonelectrostatic_energy": 8.53, 
			 "SMD_solvation_energy": 3.91 
		},
		"coords": [
			{
				"x": 0.853646353,
				"y": -2.928418441,
				"z": -0.3725582733,
				"element": "C" 
			},
			{
				"x": 0.0777207222,
				"y": -2.6001229551,
				"z": -1.6541576573,
				"element": "C" 
			},
			{
				"x": 0.4820576716,
				"y": -1.2424312188,
				"z": -2.1855750506,
				"element": "C" 
			},
			{
				"x": 0.5719738424,
				"y": -0.991104551,
				"z": -3.5565317969,
				"element": "C" 
			},
			{
				"x": 0.9429085368,
				"y": 0.265454502,
				"z": -4.0362049922,
				"element": "C" 
			},
			{
				"x": 1.2409301768,
				"y": 1.2856834402,
				"z": -3.1317636381,
				"element": "C" 
			},
			{
				"x": 1.1559956952,
				"y": 1.0469619113,
				"z": -1.7617681214,
				"element": "C" 
			},
			{
				"x": 0.7646523251,
				"y": -0.2072683522,
				"z": -1.2653862971,
				"element": "C" 
			},
			{
				"x": 0.6460338816,
				"y": -0.4808662904,
				"z": 0.1885981215,
				"element": "C" 
			},
			{
				"x": 0.4807783932,
				"y": 0.5458505638,
				"z": 1.1326273186,
				"element": "C" 
			},
			{
				"x": 0.391720148,
				"y": 0.265673059,
				"z": 2.4944901661,
				"element": "C" 
			},
			{
				"x": 0.4576314465,
				"y": -1.0554522743,
				"z": 2.9394242447,
				"element": "C" 
			},
			{
				"x": 0.6018828009,
				"y": -2.0866684923,
				"z": 2.0107599375,
				"element": "C" 
			},
			{
				"x": 0.6935386703,
				"y": -1.8185136636,
				"z": 0.6431108391,
				"element": "C" 
			},
			{
				"x": 0.5182647477,
				"y": -3.8809733268,
				"z": 0.0511590314,
				"element": "H" 
			},
			{
				"x": 1.9184858103,
				"y": -3.0502146305,
				"z": -0.6212889846,
				"element": "H" 
			},
			{
				"x": -0.9994562133,
				"y": -2.6028476554,
				"z": -1.4299379695,
				"element": "H" 
			},
			{
				"x": 0.2427614865,
				"y": -3.3695498203,
				"z": -2.4158187227,
				"element": "H" 
			},
			{
				"x": 0.3515895501,
				"y": -1.7941283471,
				"z": -4.2561658403,
				"element": "H" 
			},
			{
				"x": 1.0114267348,
				"y": 0.4419689642,
				"z": -5.1057687816,
				"element": "H" 
			},
			{
				"x": 1.5493475159,
				"y": 2.2632948749,
				"z": -3.4912064942,
				"element": "H" 
			},
			{
				"x": 1.4198143004,
				"y": 1.8401069918,
				"z": -1.0692188958,
				"element": "H" 
			},
			{
				"x": 0.3976331823,
				"y": 1.5750391277,
				"z": 0.7977237716,
				"element": "H" 
			},
			{
				"x": 0.2606305965,
				"y": 1.0768857059,
				"z": 3.2049807507,
				"element": "H" 
			},
			{
				"x": 0.3840526559,
				"y": -1.2827045762,
				"z": 3.9990282073,
				"element": "H" 
			},
			{
				"x": 0.6403789692,
				"y": -3.1192545458,
				"z": 2.3501491271,
				"element": "H" 
			}
		],
		 "valence_orbital": [ 
			{
				"type": "occ",
				"energy": -0.31549,
				"method": "rhf"
			},
			{
				"type": "occ",
				"energy": -0.27483,
				"method": "rhf"
			},
			{
				"type": "occ",
				"energy": -0.24291,
				"method": "rhf"
			},
			{
				"type": "occ",
				"energy": -0.23904,
				"method": "rhf"
			},
			{
				"type": "occ",
				"energy": -0.21219,
				"method": "rhf"
			},
			{
				"type": "unocc",
				"energy": -0.02909,
				"method": "rhf"
			},
			{
				"type": "unocc",
				"energy": -0.00316,
				"method": "rhf"
			},
			{
				"type": "unocc",
				"energy": 0.01001,
				"method": "rhf"
			},
			{
				"type": "unocc",
				"energy": 0.03981,
				"method": "rhf"
			},
			{
				"type": "unocc",
				"energy": 0.09953,
				"method": "rhf"
			}
		],
		"cosmo_sigma_profile": { 
			"-0.025": 0.0,
			"-0.024": 0.0,
			"-0.023": 0.0,
			"-0.022": 0.0,
			"-0.021": 0.0,
			"-0.02": 0.0,
			"-0.019": 0.0,
			"-0.018": 0.0,
			"-0.017": 0.0,
			"-0.016": 0.0,
			"-0.015": 0.0,
			"-0.014": 0.0,
			"-0.013": 0.0,
			"-0.012": 0.0,
			"-0.011": 0.0,
			"-0.01": 0.0,
			"-0.009": 0.0,
			"-0.008": 0.0,
			"-0.007": 0.260014440902,
			"-0.006": 5.10532471067,
			"-0.005": 15.6098686199,
			"-0.004": 22.423439551,
			"-0.003": 26.5624556454,
			"-0.002": 20.9445975488,
			"-0.001": 22.0457089159,
			"0.0": 18.6235096889,
			"0.001": 12.5168036885,
			"0.002": 12.189647384,
			"0.003": 16.2473084219,
			"0.004": 15.2003508886,
			"0.005": 16.4266544805,
			"0.006": 16.1630233339,
			"0.007": 2.38121840102,
			"0.008": 0.0,
			"0.009": 0.0,
			"0.01": 0.0,
			"0.011": 0.0,
			"0.012": 0.0,
			"0.013": 0.0,
			"0.014": 0.0,
			"0.015": 0.0,
			"0.016": 0.0,
			"0.017": 0.0,
			"0.018": 0.0,
			"0.019": 0.0,
			"0.02": 0.0,
			"0.021": 0.0,
			"0.022": 0.0,
			"0.023": 0.0,
			"0.024": 0.0,
			"0.025": 0.0
		}
	}
}
