{
	 "smiles": "C[C@H]1[C@H]2CC3=CC=C(O)C=C3[C@]1(C)CCN2CC=C(C)C", 
	 "Tm": 419.15, 
	 "num_atms": 48, 
	 "gaussian": { 
		 "optdone": 1, 
		 "sigma_profile": "yes", 
		 "theory": "DFT", 
		 "functional": "B3LYP", 
		 "basiset": "6-31G**", 
		 "properties": { 
			 "R2extent": 8236.6867, 
			 "electric_dipole_moment_norm": 1.17553868503, 
			 "electric_quadrupole_moment_norm": 8.57674393928, 
			 "total_energy": -870.260377362, 
			 "HOMO_LUMO_gap": 0.20179, 
			 "cosmo_polarized_energy": -10.38, 
			 "cosmo_cavitation_energy": 45.01, 
			 "cosmo_dispersion_energy": -31.14, 
			 "cosmo_repulsion_energy": 2.38, 
			 "cosmo_total_nonelectrostatic_energy": 16.26, 
			 "SMD_solvation_energy": 6.29 
		},
		"coords": [
			{
				"x": 2.6333649015,
				"y": 0.23183376,
				"z": -2.6040719905,
				"element": "C" 
			},
			{
				"x": 1.8924084755,
				"y": 0.4355263228,
				"z": -1.2731412931,
				"element": "C" 
			},
			{
				"x": 1.2733295815,
				"y": 1.8450625978,
				"z": -1.1657935863,
				"element": "C" 
			},
			{
				"x": 0.3207811304,
				"y": 2.0722586641,
				"z": -2.3464691512,
				"element": "C" 
			},
			{
				"x": -0.6453102695,
				"y": 0.9160600465,
				"z": -2.5214064784,
				"element": "C" 
			},
			{
				"x": -1.778897972,
				"y": 1.0946494566,
				"z": -3.322801332,
				"element": "C" 
			},
			{
				"x": -2.7039021793,
				"y": 0.0770125105,
				"z": -3.5365681352,
				"element": "C" 
			},
			{
				"x": -2.4963209597,
				"y": -1.1612862877,
				"z": -2.9248575317,
				"element": "C" 
			},
			{
				"x": -3.3572235881,
				"y": -2.2171507796,
				"z": -3.0740679362,
				"element": "O" 
			},
			{
				"x": -1.371959427,
				"y": -1.3585997468,
				"z": -2.1231893974,
				"element": "C" 
			},
			{
				"x": -0.433601853,
				"y": -0.3395296469,
				"z": -1.9099978071,
				"element": "C" 
			},
			{
				"x": 0.7723985738,
				"y": -0.5987181521,
				"z": -0.9839620293,
				"element": "C" 
			},
			{
				"x": 1.3086853523,
				"y": -2.0356135327,
				"z": -1.1518443774,
				"element": "C" 
			},
			{
				"x": 0.3464497417,
				"y": -0.4001184249,
				"z": 0.5183257468,
				"element": "C" 
			},
			{
				"x": 0.7382067551,
				"y": 0.972278387,
				"z": 1.084641554,
				"element": "C" 
			},
			{
				"x": 0.5103380412,
				"y": 2.0141202461,
				"z": 0.0922091694,
				"element": "N" 
			},
			{
				"x": 0.6046352218,
				"y": 3.3704521422,
				"z": 0.6334122003,
				"element": "C" 
			},
			{
				"x": -0.5207645824,
				"y": 3.6764993219,
				"z": 1.5864107598,
				"element": "C" 
			},
			{
				"x": -0.4585275835,
				"y": 4.2160817005,
				"z": 2.8138194163,
				"element": "C" 
			},
			{
				"x": 0.812641701,
				"y": 4.621514146,
				"z": 3.5202029018,
				"element": "C" 
			},
			{
				"x": -1.7200962523,
				"y": 4.4790485567,
				"z": 3.6021736321,
				"element": "C" 
			},
			{
				"x": 1.9479848133,
				"y": 0.1431001502,
				"z": -3.4520206184,
				"element": "H" 
			},
			{
				"x": 3.3081188729,
				"y": 1.0724368343,
				"z": -2.8021284549,
				"element": "H" 
			},
			{
				"x": 3.2430754521,
				"y": -0.6754106808,
				"z": -2.5765675335,
				"element": "H" 
			},
			{
				"x": 2.6418484476,
				"y": 0.3295494041,
				"z": -0.4784651358,
				"element": "H" 
			},
			{
				"x": 2.0954440122,
				"y": 2.5802544493,
				"z": -1.2135209096,
				"element": "H" 
			},
			{
				"x": -0.2417622332,
				"y": 2.9994686545,
				"z": -2.185450297,
				"element": "H" 
			},
			{
				"x": 0.8987391031,
				"y": 2.2247482684,
				"z": -3.2687067685,
				"element": "H" 
			},
			{
				"x": -1.9432440428,
				"y": 2.0628890387,
				"z": -3.7908091231,
				"element": "H" 
			},
			{
				"x": -3.5770300041,
				"y": 0.2454388498,
				"z": -4.163920253,
				"element": "H" 
			},
			{
				"x": -4.0856926926,
				"y": -1.9462234261,
				"z": -3.6472298186,
				"element": "H" 
			},
			{
				"x": -1.253208379,
				"y": -2.334686073,
				"z": -1.6667731068,
				"element": "H" 
			},
			{
				"x": 0.616660817,
				"y": -2.7740545269,
				"z": -0.7362173225,
				"element": "H" 
			},
			{
				"x": 1.4807126612,
				"y": -2.2936884177,
				"z": -2.2004120814,
				"element": "H" 
			},
			{
				"x": 2.2554495431,
				"y": -2.1448586487,
				"z": -0.6103650492,
				"element": "H" 
			},
			{
				"x": 0.817442831,
				"y": -1.1756486545,
				"z": 1.1347179112,
				"element": "H" 
			},
			{
				"x": -0.7353534054,
				"y": -0.5383759705,
				"z": 0.6028968595,
				"element": "H" 
			},
			{
				"x": 0.1216240368,
				"y": 1.199271122,
				"z": 1.9598532002,
				"element": "H" 
			},
			{
				"x": 1.7859054938,
				"y": 0.9572960248,
				"z": 1.4479924772,
				"element": "H" 
			},
			{
				"x": 0.5322599835,
				"y": 4.0626677491,
				"z": -0.2173989717,
				"element": "H" 
			},
			{
				"x": 1.5920170333,
				"y": 3.5589452552,
				"z": 1.0951477959,
				"element": "H" 
			},
			{
				"x": -1.5028794457,
				"y": 3.4235861408,
				"z": 1.186511732,
				"element": "H" 
			},
			{
				"x": 0.8342041875,
				"y": 5.707099256,
				"z": 3.6848539178,
				"element": "H" 
			},
			{
				"x": 0.8644889181,
				"y": 4.1578491779,
				"z": 4.5138758788,
				"element": "H" 
			},
			{
				"x": 1.7172011352,
				"y": 4.3504411152,
				"z": 2.9730827311,
				"element": "H" 
			},
			{
				"x": -1.8198633753,
				"y": 5.5458655511,
				"z": 3.8437446192,
				"element": "H" 
			},
			{
				"x": -1.7036123302,
				"y": 3.9452940116,
				"z": 4.5618180908,
				"element": "H" 
			},
			{
				"x": -2.6151662425,
				"y": 4.1701640572,
				"z": 3.0555658956,
				"element": "H" 
			}
		],
		 "valence_orbital": [ 
			{
				"type": "occ",
				"energy": -0.28524,
				"method": "rhf"
			},
			{
				"type": "occ",
				"energy": -0.23332,
				"method": "rhf"
			},
			{
				"type": "occ",
				"energy": -0.23091,
				"method": "rhf"
			},
			{
				"type": "occ",
				"energy": -0.20467,
				"method": "rhf"
			},
			{
				"type": "occ",
				"energy": -0.19532,
				"method": "rhf"
			},
			{
				"type": "unocc",
				"energy": 0.00647,
				"method": "rhf"
			},
			{
				"type": "unocc",
				"energy": 0.02459,
				"method": "rhf"
			},
			{
				"type": "unocc",
				"energy": 0.02959,
				"method": "rhf"
			},
			{
				"type": "unocc",
				"energy": 0.07845,
				"method": "rhf"
			},
			{
				"type": "unocc",
				"energy": 0.08691,
				"method": "rhf"
			}
		],
		"cosmo_sigma_profile": { 
			"-0.025": 0.0,
			"-0.024": 0.0,
			"-0.023": 0.0,
			"-0.022": 0.0,
			"-0.021": 0.0,
			"-0.02": 0.0,
			"-0.019": 0.0,
			"-0.018": 0.0493729695,
			"-0.017": 0.730634732911,
			"-0.016": 1.38886441095,
			"-0.015": 0.65789034369,
			"-0.014": 1.04188275877,
			"-0.013": 1.02251197693,
			"-0.012": 0.790766247267,
			"-0.011": 0.827807833758,
			"-0.01": 1.07151479225,
			"-0.009": 1.48819803975,
			"-0.008": 0.913182081896,
			"-0.007": 1.02313472504,
			"-0.006": 2.18230909423,
			"-0.005": 4.1755492207,
			"-0.004": 11.0358769623,
			"-0.003": 32.0657019531,
			"-0.002": 52.9648210069,
			"-0.001": 60.7593387263,
			"0.0": 51.4138970184,
			"0.001": 38.8457838603,
			"0.002": 17.8553121015,
			"0.003": 12.5172747741,
			"0.004": 11.9420301755,
			"0.005": 11.4910780391,
			"0.006": 9.92953214343,
			"0.007": 6.66877191945,
			"0.008": 3.48555456468,
			"0.009": 1.83943636251,
			"0.01": 2.66602547465,
			"0.011": 2.56039957279,
			"0.012": 2.44690444088,
			"0.013": 0.644636149435,
			"0.014": 0.450076206872,
			"0.015": 0.135698714135,
			"0.016": 0.0,
			"0.017": 0.0,
			"0.018": 0.0,
			"0.019": 0.0,
			"0.02": 0.0,
			"0.021": 0.0,
			"0.022": 0.0,
			"0.023": 0.0,
			"0.024": 0.0,
			"0.025": 0.0
		}
	}
}
