{
	 "smiles": "CC(C)C1=C(OC(C)=O)C(=O)C2=C([C@H](OC(C)=O)[C@@H](OC(C)=O)[C@H]3C(C)(C)CCC[C@]23C)C1=O", 
	 "Tm": 362.15, 
	 "num_atms": 68, 
	 "gaussian": { 
		 "optdone": 1, 
		 "sigma_profile": "yes", 
		 "theory": "DFT", 
		 "functional": "B3LYP", 
		 "basiset": "6-31G**", 
		 "properties": { 
			 "R2extent": 15515.1107, 
			 "electric_dipole_moment_norm": 4.2927077492, 
			 "electric_quadrupole_moment_norm": 18.8189205328, 
			 "total_energy": -1613.07903935, 
			 "HOMO_LUMO_gap": 0.13627, 
			 "cosmo_polarized_energy": -20.33, 
			 "cosmo_cavitation_energy": 64.73, 
			 "cosmo_dispersion_energy": -40.01, 
			 "cosmo_repulsion_energy": 3.04, 
			 "cosmo_total_nonelectrostatic_energy": 27.76, 
			 "SMD_solvation_energy": 14.63 
		},
		"coords": [
			{
				"x": -5.4439929927,
				"y": -1.8199041118,
				"z": -0.0746019929,
				"element": "C" 
			},
			{
				"x": -4.7565618186,
				"y": -1.2753379671,
				"z": 1.1940370176,
				"element": "C" 
			},
			{
				"x": -5.5035606322,
				"y": -0.0533725911,
				"z": 1.7688636342,
				"element": "C" 
			},
			{
				"x": -3.2874326861,
				"y": -0.972309185,
				"z": 0.9679185033,
				"element": "C" 
			},
			{
				"x": -2.2996990676,
				"y": -1.5555186639,
				"z": 1.6743423555,
				"element": "C" 
			},
			{
				"x": -2.5602822493,
				"y": -2.5431765913,
				"z": 2.6007489436,
				"element": "O" 
			},
			{
				"x": -2.2815723401,
				"y": -2.2511811425,
				"z": 3.9270115796,
				"element": "C" 
			},
			{
				"x": -2.2778751675,
				"y": -3.5144835102,
				"z": 4.7411340295,
				"element": "C" 
			},
			{
				"x": -2.0939510244,
				"y": -1.1297404062,
				"z": 4.3190115145,
				"element": "O" 
			},
			{
				"x": -0.8418510909,
				"y": -1.2888611725,
				"z": 1.4651959777,
				"element": "C" 
			},
			{
				"x": -0.0328845328,
				"y": -1.9020349556,
				"z": 2.1499559618,
				"element": "O" 
			},
			{
				"x": -0.4337256565,
				"y": -0.2970856823,
				"z": 0.4159543323,
				"element": "C" 
			},
			{
				"x": -1.4197840737,
				"y": 0.33562636,
				"z": -0.2629899375,
				"element": "C" 
			},
			{
				"x": -1.1593048767,
				"y": 1.3935110959,
				"z": -1.3048702778,
				"element": "C" 
			},
			{
				"x": -1.3678574342,
				"y": 0.7636846145,
				"z": -2.5952491766,
				"element": "O" 
			},
			{
				"x": -1.9780934958,
				"y": 1.5245634012,
				"z": -3.5513558653,
				"element": "C" 
			},
			{
				"x": -2.2308902127,
				"y": 0.7028919605,
				"z": -4.7914139725,
				"element": "C" 
			},
			{
				"x": -2.2723909808,
				"y": 2.6860189031,
				"z": -3.4004396412,
				"element": "O" 
			},
			{
				"x": 0.2640671555,
				"y": 1.9529579508,
				"z": -1.2353239708,
				"element": "C" 
			},
			{
				"x": 0.2905605707,
				"y": 2.8531339429,
				"z": -0.0987369323,
				"element": "O" 
			},
			{
				"x": 0.3795217779,
				"y": 4.1903821339,
				"z": -0.3434939155,
				"element": "C" 
			},
			{
				"x": 0.2987888299,
				"y": 4.9670150599,
				"z": 0.94792268,
				"element": "C" 
			},
			{
				"x": 0.5238314886,
				"y": 4.6716725184,
				"z": -1.4439037588,
				"element": "O" 
			},
			{
				"x": 1.2659912219,
				"y": 0.8018074152,
				"z": -1.1005948157,
				"element": "C" 
			},
			{
				"x": 2.7546240323,
				"y": 1.1487401975,
				"z": -1.4747977345,
				"element": "C" 
			},
			{
				"x": 2.8384015776,
				"y": 1.2668901339,
				"z": -3.0150083328,
				"element": "C" 
			},
			{
				"x": 3.2797697031,
				"y": 2.4721163941,
				"z": -0.8809476577,
				"element": "C" 
			},
			{
				"x": 3.6767894434,
				"y": -0.0218482746,
				"z": -1.024916692,
				"element": "C" 
			},
			{
				"x": 2.9511017844,
				"y": -1.3682551978,
				"z": -1.0564771234,
				"element": "C" 
			},
			{
				"x": 1.7901639587,
				"y": -1.4330422869,
				"z": -0.0407800173,
				"element": "C" 
			},
			{
				"x": 1.0660246469,
				"y": -0.0521662196,
				"z": 0.1973703668,
				"element": "C" 
			},
			{
				"x": 1.6175589055,
				"y": 0.6128619206,
				"z": 1.4910433807,
				"element": "C" 
			},
			{
				"x": -2.8727739629,
				"y": 0.0404916241,
				"z": -0.0427898442,
				"element": "C" 
			},
			{
				"x": -3.711664104,
				"y": 0.6582822915,
				"z": -0.6934681269,
				"element": "O" 
			},
			{
				"x": -4.9237453977,
				"y": -2.7031706162,
				"z": -0.4597445329,
				"element": "H" 
			},
			{
				"x": -6.4713605923,
				"y": -2.1147208945,
				"z": 0.1636972269,
				"element": "H" 
			},
			{
				"x": -5.4757824144,
				"y": -1.0639086848,
				"z": -0.86127768,
				"element": "H" 
			},
			{
				"x": -4.7879604357,
				"y": -2.0668323798,
				"z": 1.9489743801,
				"element": "H" 
			},
			{
				"x": -6.5353635071,
				"y": -0.3317567448,
				"z": 2.0082397627,
				"element": "H" 
			},
			{
				"x": -5.0271486566,
				"y": 0.3011807214,
				"z": 2.688393825,
				"element": "H" 
			},
			{
				"x": -5.5264771669,
				"y": 0.7670621768,
				"z": 1.0486148626,
				"element": "H" 
			},
			{
				"x": -2.2663386037,
				"y": -3.263923424,
				"z": 5.8012659532,
				"element": "H" 
			},
			{
				"x": -1.3812994,
				"y": -4.0896245483,
				"z": 4.4891346786,
				"element": "H" 
			},
			{
				"x": -3.1467201482,
				"y": -4.1326214378,
				"z": 4.5014566149,
				"element": "H" 
			},
			{
				"x": -1.8801192997,
				"y": 2.2067383937,
				"z": -1.2092583493,
				"element": "H" 
			},
			{
				"x": -2.5591549341,
				"y": 1.357353208,
				"z": -5.5982268729,
				"element": "H" 
			},
			{
				"x": -1.3291971662,
				"y": 0.1588808927,
				"z": -5.0841138998,
				"element": "H" 
			},
			{
				"x": -3.0094844553,
				"y": -0.0374584352,
				"z": -4.5815884656,
				"element": "H" 
			},
			{
				"x": 0.4478451101,
				"y": 2.5439891202,
				"z": -2.1335572382,
				"element": "H" 
			},
			{
				"x": 0.3054215244,
				"y": 6.0341318743,
				"z": 0.7287534586,
				"element": "H" 
			},
			{
				"x": -0.608722206,
				"y": 4.6991270875,
				"z": 1.4958341667,
				"element": "H" 
			},
			{
				"x": 1.1522901396,
				"y": 4.7155384005,
				"z": 1.5853182722,
				"element": "H" 
			},
			{
				"x": 0.9345697908,
				"y": 0.1310548306,
				"z": -1.9057104072,
				"element": "H" 
			},
			{
				"x": 2.1518723864,
				"y": 2.0248923291,
				"z": -3.4059408581,
				"element": "H" 
			},
			{
				"x": 3.8498013151,
				"y": 1.5576267868,
				"z": -3.3185974238,
				"element": "H" 
			},
			{
				"x": 2.6024053438,
				"y": 0.3165851726,
				"z": -3.5070737594,
				"element": "H" 
			},
			{
				"x": 4.3453277762,
				"y": 2.574903578,
				"z": -1.1173469464,
				"element": "H" 
			},
			{
				"x": 3.1785463752,
				"y": 2.5148945445,
				"z": 0.2057656472,
				"element": "H" 
			},
			{
				"x": 2.7695364725,
				"y": 3.3393939765,
				"z": -1.3087465749,
				"element": "H" 
			},
			{
				"x": 4.0566056251,
				"y": 0.1599547785,
				"z": -0.0127788494,
				"element": "H" 
			},
			{
				"x": 4.5601131617,
				"y": -0.0466329643,
				"z": -1.674708957,
				"element": "H" 
			},
			{
				"x": 3.651669907,
				"y": -2.1849108903,
				"z": -0.8483714039,
				"element": "H" 
			},
			{
				"x": 2.5759419661,
				"y": -1.5508214778,
				"z": -2.0714837922,
				"element": "H" 
			},
			{
				"x": 1.0659867474,
				"y": -2.1785026005,
				"z": -0.3871346551,
				"element": "H" 
			},
			{
				"x": 2.1545247502,
				"y": -1.7969685123,
				"z": 0.9216763662,
				"element": "H" 
			},
			{
				"x": 1.4361612543,
				"y": -0.041276195,
				"z": 2.3450881609,
				"element": "H" 
			},
			{
				"x": 2.694725455,
				"y": 0.7693174177,
				"z": 1.4213853262,
				"element": "H" 
			},
			{
				"x": 1.1423825861,
				"y": 1.5765745566,
				"z": 1.6749114726,
				"element": "H" 
			}
		],
		 "valence_orbital": [ 
			{
				"type": "occ",
				"energy": -0.27583,
				"method": "rhf"
			},
			{
				"type": "occ",
				"energy": -0.27513,
				"method": "rhf"
			},
			{
				"type": "occ",
				"energy": -0.27335,
				"method": "rhf"
			},
			{
				"type": "occ",
				"energy": -0.26521,
				"method": "rhf"
			},
			{
				"type": "occ",
				"energy": -0.26024,
				"method": "rhf"
			},
			{
				"type": "unocc",
				"energy": -0.12397,
				"method": "rhf"
			},
			{
				"type": "unocc",
				"energy": -0.02054,
				"method": "rhf"
			},
			{
				"type": "unocc",
				"energy": -0.00157,
				"method": "rhf"
			},
			{
				"type": "unocc",
				"energy": 0.00493,
				"method": "rhf"
			},
			{
				"type": "unocc",
				"energy": 0.00859,
				"method": "rhf"
			}
		],
		"cosmo_sigma_profile": { 
			"-0.025": 0.0,
			"-0.024": 0.0,
			"-0.023": 0.0,
			"-0.022": 0.0,
			"-0.021": 0.0,
			"-0.02": 0.0,
			"-0.019": 0.0,
			"-0.018": 0.0,
			"-0.017": 0.0,
			"-0.016": 0.0,
			"-0.015": 0.0,
			"-0.014": 0.0,
			"-0.013": 0.0,
			"-0.012": 0.0,
			"-0.011": 0.0,
			"-0.01": 0.0,
			"-0.009": 0.0,
			"-0.008": 0.151006604241,
			"-0.007": 6.26207916184,
			"-0.006": 19.605727274,
			"-0.005": 25.5244690239,
			"-0.004": 38.4216140781,
			"-0.003": 56.028461682,
			"-0.002": 70.514713262,
			"-0.001": 62.4490048229,
			"0.0": 54.4849993956,
			"0.001": 48.5439900403,
			"0.002": 22.0493525736,
			"0.003": 13.3911090504,
			"0.004": 11.4976168693,
			"0.005": 12.0190473284,
			"0.006": 10.8910528218,
			"0.007": 9.94093045158,
			"0.008": 6.70424953314,
			"0.009": 9.32082229258,
			"0.01": 10.253507467,
			"0.011": 11.6895921667,
			"0.012": 5.6646521569,
			"0.013": 0.765361095588,
			"0.014": 0.0,
			"0.015": 0.0,
			"0.016": 0.0,
			"0.017": 0.0,
			"0.018": 0.0,
			"0.019": 0.0,
			"0.02": 0.0,
			"0.021": 0.0,
			"0.022": 0.0,
			"0.023": 0.0,
			"0.024": 0.0,
			"0.025": 0.0
		}
	}
}
