{
	 "smiles": "CN1CCOC2=C1C=CC(=C2)S(Cl)(=O)=O", 
	 "Tm": 340.15, 
	 "num_atms": 25, 
	 "gaussian": { 
		 "optdone": 1, 
		 "sigma_profile": "yes", 
		 "theory": "DFT", 
		 "functional": "B3LYP", 
		 "basiset": "6-31G**", 
		 "properties": { 
			 "R2extent": 5108.9245, 
			 "electric_dipole_moment_norm": 9.82565375331, 
			 "electric_quadrupole_moment_norm": 9.66098316788, 
			 "total_energy": -1487.70947193, 
			 "HOMO_LUMO_gap": 0.14195, 
			 "cosmo_polarized_energy": -14.77, 
			 "cosmo_cavitation_energy": 31.31, 
			 "cosmo_dispersion_energy": -23.78, 
			 "cosmo_repulsion_energy": 1.81, 
			 "cosmo_total_nonelectrostatic_energy": 9.34, 
			 "SMD_solvation_energy": 3.42 
		},
		"coords": [
			{
				"x": 3.8480792909,
				"y": -0.0853892355,
				"z": -1.0920651263,
				"element": "C" 
			},
			{
				"x": 3.0708685161,
				"y": -0.2539350991,
				"z": 0.123124996,
				"element": "N" 
			},
			{
				"x": 3.5822320715,
				"y": 0.3393568206,
				"z": 1.3514696618,
				"element": "C" 
			},
			{
				"x": 2.904684856,
				"y": -0.3269038467,
				"z": 2.540748166,
				"element": "C" 
			},
			{
				"x": 1.4897394343,
				"y": -0.1635849833,
				"z": 2.4679832583,
				"element": "O" 
			},
			{
				"x": 0.9327492542,
				"y": -0.4566036802,
				"z": 1.2512023669,
				"element": "C" 
			},
			{
				"x": 1.7079185077,
				"y": -0.4861300223,
				"z": 0.0552822185,
				"element": "C" 
			},
			{
				"x": 1.0405580773,
				"y": -0.7560532863,
				"z": -1.1571502226,
				"element": "C" 
			},
			{
				"x": -0.3273345821,
				"y": -1.0005709035,
				"z": -1.194748994,
				"element": "C" 
			},
			{
				"x": -1.0519079754,
				"y": -0.9550109842,
				"z": -0.0045261768,
				"element": "C" 
			},
			{
				"x": -0.4313366913,
				"y": -0.6947825637,
				"z": 1.2216201956,
				"element": "C" 
			},
			{
				"x": -2.7934369496,
				"y": -1.2576728707,
				"z": -0.0368454822,
				"element": "S" 
			},
			{
				"x": -2.8915641517,
				"y": -3.3823324659,
				"z": 0.2922473973,
				"element": "Cl" 
			},
			{
				"x": -3.304025324,
				"y": -1.0510988287,
				"z": -1.3878039279,
				"element": "O" 
			},
			{
				"x": -3.4237135596,
				"y": -0.6565697804,
				"z": 1.133221929,
				"element": "O" 
			},
			{
				"x": 4.9018000535,
				"y": 0.0123760982,
				"z": -0.8229107283,
				"element": "H" 
			},
			{
				"x": 3.7506749629,
				"y": -0.9629248693,
				"z": -1.7387565668,
				"element": "H" 
			},
			{
				"x": 3.5537717534,
				"y": 0.8047897984,
				"z": -1.6686570982,
				"element": "H" 
			},
			{
				"x": 3.408973227,
				"y": 1.4266857667,
				"z": 1.3884885056,
				"element": "H" 
			},
			{
				"x": 4.6626391289,
				"y": 0.1695602543,
				"z": 1.4041889817,
				"element": "H" 
			},
			{
				"x": 3.214383552,
				"y": 0.1352081489,
				"z": 3.4804729543,
				"element": "H" 
			},
			{
				"x": 3.1564602164,
				"y": -1.3951872663,
				"z": 2.5670160742,
				"element": "H" 
			},
			{
				"x": 1.5960537293,
				"y": -0.7615742574,
				"z": -2.0864869764,
				"element": "H" 
			},
			{
				"x": -0.8286444253,
				"y": -1.2000482315,
				"z": -2.1343923643,
				"element": "H" 
			},
			{
				"x": -0.9953229725,
				"y": -0.6590037119,
				"z": 2.1461769588,
				"element": "H" 
			}
		],
		 "valence_orbital": [ 
			{
				"type": "occ",
				"energy": -0.31917,
				"method": "rhf"
			},
			{
				"type": "occ",
				"energy": -0.30531,
				"method": "rhf"
			},
			{
				"type": "occ",
				"energy": -0.29675,
				"method": "rhf"
			},
			{
				"type": "occ",
				"energy": -0.25638,
				"method": "rhf"
			},
			{
				"type": "occ",
				"energy": -0.21723,
				"method": "rhf"
			},
			{
				"type": "unocc",
				"energy": -0.07528,
				"method": "rhf"
			},
			{
				"type": "unocc",
				"energy": -0.02243,
				"method": "rhf"
			},
			{
				"type": "unocc",
				"energy": -0.01657,
				"method": "rhf"
			},
			{
				"type": "unocc",
				"energy": 0.06326,
				"method": "rhf"
			},
			{
				"type": "unocc",
				"energy": 0.06582,
				"method": "rhf"
			}
		],
		"cosmo_sigma_profile": { 
			"-0.025": 0.0,
			"-0.024": 0.0,
			"-0.023": 0.0,
			"-0.022": 0.0,
			"-0.021": 0.0,
			"-0.02": 0.0,
			"-0.019": 0.0,
			"-0.018": 0.0,
			"-0.017": 0.0,
			"-0.016": 0.0,
			"-0.015": 0.0,
			"-0.014": 0.0,
			"-0.013": 0.0,
			"-0.012": 0.0,
			"-0.011": 0.0,
			"-0.01": 0.0,
			"-0.009": 0.0,
			"-0.008": 1.64927619995,
			"-0.007": 11.3085074159,
			"-0.006": 17.4214579448,
			"-0.005": 21.2904406138,
			"-0.004": 22.8486977058,
			"-0.003": 21.0237551319,
			"-0.002": 15.0764161631,
			"-0.001": 11.3344191643,
			"0.0": 14.5329506477,
			"0.001": 15.998386749,
			"0.002": 21.4750196542,
			"0.003": 16.3201552495,
			"0.004": 18.7091120559,
			"0.005": 10.2574620139,
			"0.006": 4.29869688833,
			"0.007": 5.44776368412,
			"0.008": 10.8222204231,
			"0.009": 9.47766866947,
			"0.01": 2.52818546708,
			"0.011": 0.00930330414906,
			"0.012": 0.0,
			"0.013": 0.0,
			"0.014": 0.0,
			"0.015": 0.0,
			"0.016": 0.0,
			"0.017": 0.0,
			"0.018": 0.0,
			"0.019": 0.0,
			"0.02": 0.0,
			"0.021": 0.0,
			"0.022": 0.0,
			"0.023": 0.0,
			"0.024": 0.0,
			"0.025": 0.0
		}
	}
}
