{
	 "smiles": "OS(=O)(=O)C1=CNC(=N)C(=C1)[N+]([O-])=O", 
	 "Tm": 591.15, 
	 "num_atms": 19, 
	 "gaussian": { 
		 "optdone": 1, 
		 "sigma_profile": "yes", 
		 "theory": "DFT", 
		 "functional": "B3LYP", 
		 "basiset": "6-31G**", 
		 "properties": { 
			 "R2extent": 3430.3115, 
			 "electric_dipole_moment_norm": 3.39440322295, 
			 "electric_quadrupole_moment_norm": 16.3570917424, 
			 "total_energy": -1131.9128611, 
			 "HOMO_LUMO_gap": 0.13361, 
			 "cosmo_polarized_energy": -23.74, 
			 "cosmo_cavitation_energy": 26.32, 
			 "cosmo_dispersion_energy": -20.18, 
			 "cosmo_repulsion_energy": 1.53, 
			 "cosmo_total_nonelectrostatic_energy": 7.68, 
			 "SMD_solvation_energy": 5.03 
		},
		"coords": [
			{
				"x": -3.0713644847,
				"y": 0.7203737061,
				"z": -0.0051366974,
				"element": "O" 
			},
			{
				"x": -2.0232494734,
				"y": 1.409629281,
				"z": 1.0571141982,
				"element": "S" 
			},
			{
				"x": -2.6434088965,
				"y": 1.4411975477,
				"z": 2.3765829736,
				"element": "O" 
			},
			{
				"x": -1.5213130748,
				"y": 2.6238394816,
				"z": 0.4185684108,
				"element": "O" 
			},
			{
				"x": -0.7698080638,
				"y": 0.1714415582,
				"z": 1.0809784722,
				"element": "C" 
			},
			{
				"x": -0.6659660747,
				"y": -0.6615837013,
				"z": 2.1734020341,
				"element": "C" 
			},
			{
				"x": 0.2894851999,
				"y": -1.5937756486,
				"z": 2.2128065334,
				"element": "N" 
			},
			{
				"x": 1.2699580459,
				"y": -1.8566139391,
				"z": 1.2074101445,
				"element": "C" 
			},
			{
				"x": 2.0746393466,
				"y": -2.8083700287,
				"z": 1.4711901836,
				"element": "N" 
			},
			{
				"x": 1.1226678185,
				"y": -0.9358816301,
				"z": 0.064682565,
				"element": "C" 
			},
			{
				"x": 0.1530820501,
				"y": 0.0262389245,
				"z": 0.0163260139,
				"element": "C" 
			},
			{
				"x": 2.0330860599,
				"y": -1.0222594072,
				"z": -1.0698457999,
				"element": "N" 
			},
			{
				"x": 2.9183521118,
				"y": -1.884976223,
				"z": -1.0384902593,
				"element": "O" 
			},
			{
				"x": 1.8731577374,
				"y": -0.2347036269,
				"z": -2.0022002651,
				"element": "O" 
			},
			{
				"x": -3.4463460377,
				"y": 1.4425129815,
				"z": -0.5393705281,
				"element": "H" 
			},
			{
				"x": -1.3374875801,
				"y": -0.5836132942,
				"z": 3.0212390607,
				"element": "H" 
			},
			{
				"x": 0.3810232299,
				"y": -2.2100198124,
				"z": 3.0135539226,
				"element": "H" 
			},
			{
				"x": 2.737683622,
				"y": -2.924644967,
				"z": 0.7078641917,
				"element": "H" 
			},
			{
				"x": 0.1125084637,
				"y": 0.679708798,
				"z": -0.8479751544,
				"element": "H" 
			}
		],
		 "valence_orbital": [ 
			{
				"type": "occ",
				"energy": -0.32339,
				"method": "rhf"
			},
			{
				"type": "occ",
				"energy": -0.32143,
				"method": "rhf"
			},
			{
				"type": "occ",
				"energy": -0.31222,
				"method": "rhf"
			},
			{
				"type": "occ",
				"energy": -0.28754,
				"method": "rhf"
			},
			{
				"type": "occ",
				"energy": -0.25123,
				"method": "rhf"
			},
			{
				"type": "unocc",
				"energy": -0.11762,
				"method": "rhf"
			},
			{
				"type": "unocc",
				"energy": -0.05045,
				"method": "rhf"
			},
			{
				"type": "unocc",
				"energy": -0.04447,
				"method": "rhf"
			},
			{
				"type": "unocc",
				"energy": 0.01641,
				"method": "rhf"
			},
			{
				"type": "unocc",
				"energy": 0.04319,
				"method": "rhf"
			}
		],
		"cosmo_sigma_profile": { 
			"-0.025": 0.0,
			"-0.024": 0.0,
			"-0.023": 0.0,
			"-0.022": 0.0,
			"-0.021": 0.0803139518076,
			"-0.02": 0.936103254612,
			"-0.019": 1.09086596858,
			"-0.018": 2.69321112654,
			"-0.017": 2.22191779026,
			"-0.016": 2.17464093695,
			"-0.015": 1.73087340161,
			"-0.014": 2.33668247566,
			"-0.013": 2.26051478745,
			"-0.012": 2.72066497552,
			"-0.011": 2.15891052678,
			"-0.01": 2.16779437018,
			"-0.009": 2.69315877101,
			"-0.008": 4.03859098329,
			"-0.007": 6.44758187634,
			"-0.006": 9.23633060359,
			"-0.005": 13.4927933293,
			"-0.004": 16.5548423279,
			"-0.003": 12.0474650864,
			"-0.002": 8.75715644394,
			"-0.001": 8.8932727454,
			"0.0": 6.12665328472,
			"0.001": 6.34446307529,
			"0.002": 6.0289251675,
			"0.003": 6.94871456566,
			"0.004": 7.85670904469,
			"0.005": 7.42445427798,
			"0.006": 8.92395093482,
			"0.007": 11.8880188853,
			"0.008": 12.1198298617,
			"0.009": 15.3477368536,
			"0.01": 11.1404306048,
			"0.011": 1.96288619688,
			"0.012": 1.19484285661,
			"0.013": 0.806922813606,
			"0.014": 0.877728833576,
			"0.015": 1.31934399295,
			"0.016": 0.396467771761,
			"0.017": 0.0592841684965,
			"0.018": 0.0,
			"0.019": 0.0,
			"0.02": 0.0,
			"0.021": 0.0,
			"0.022": 0.0,
			"0.023": 0.0,
			"0.024": 0.0,
			"0.025": 0.0
		}
	}
}
