{
	 "smiles": "OCC1=COC(=N1)C1=CC=CC=C1", 
	 "Tm": 353.15, 
	 "num_atms": 22, 
	 "gaussian": { 
		 "optdone": 1, 
		 "sigma_profile": "yes", 
		 "theory": "DFT", 
		 "functional": "B3LYP", 
		 "basiset": "6-31G**", 
		 "properties": { 
			 "R2extent": 3689.6276, 
			 "electric_dipole_moment_norm": 2.42408856893, 
			 "electric_quadrupole_moment_norm": 14.9313769198, 
			 "total_energy": -591.668079985, 
			 "HOMO_LUMO_gap": 0.17942, 
			 "cosmo_polarized_energy": -9.13, 
			 "cosmo_cavitation_energy": 26.63, 
			 "cosmo_dispersion_energy": -19.86, 
			 "cosmo_repulsion_energy": 1.58, 
			 "cosmo_total_nonelectrostatic_energy": 8.35, 
			 "SMD_solvation_energy": 4.19 
		},
		"coords": [
			{
				"x": 2.6387377328,
				"y": -2.9072279574,
				"z": -3.194845306,
				"element": "O" 
			},
			{
				"x": 1.5226956162,
				"y": -2.5098536182,
				"z": -3.9746362581,
				"element": "C" 
			},
			{
				"x": 0.8704071067,
				"y": -1.2789438877,
				"z": -3.4195924339,
				"element": "C" 
			},
			{
				"x": 0.5023109063,
				"y": -0.1082798146,
				"z": -4.0001051406,
				"element": "C" 
			},
			{
				"x": -0.0608450937,
				"y": 0.6859726775,
				"z": -3.0332537691,
				"element": "O" 
			},
			{
				"x": 0.0049470114,
				"y": -0.0541146008,
				"z": -1.8901150573,
				"element": "C" 
			},
			{
				"x": 0.5469477382,
				"y": -1.227545656,
				"z": -2.0697415765,
				"element": "N" 
			},
			{
				"x": -0.5148091925,
				"y": 0.5240192127,
				"z": -0.6541624487,
				"element": "C" 
			},
			{
				"x": -1.0628837895,
				"y": 1.8163007978,
				"z": -0.6295965191,
				"element": "C" 
			},
			{
				"x": -1.5510221913,
				"y": 2.3433607181,
				"z": 0.5642318475,
				"element": "C" 
			},
			{
				"x": -1.4979577059,
				"y": 1.5912101908,
				"z": 1.739866437,
				"element": "C" 
			},
			{
				"x": -0.9528857098,
				"y": 0.3041096437,
				"z": 1.7180973706,
				"element": "C" 
			},
			{
				"x": -0.4633240477,
				"y": -0.2300005971,
				"z": 0.5298852357,
				"element": "C" 
			},
			{
				"x": 2.3506254392,
				"y": -2.8596296273,
				"z": -2.2717206183,
				"element": "H" 
			},
			{
				"x": 1.883736762,
				"y": -2.3256405262,
				"z": -4.991172796,
				"element": "H" 
			},
			{
				"x": 0.7746561084,
				"y": -3.3181509096,
				"z": -4.0332374527,
				"element": "H" 
			},
			{
				"x": 0.5571432358,
				"y": 0.302077133,
				"z": -4.9950892511,
				"element": "H" 
			},
			{
				"x": -1.1027440257,
				"y": 2.3988498668,
				"z": -1.5436773772,
				"element": "H" 
			},
			{
				"x": -1.9735206518,
				"y": 3.3437671864,
				"z": 0.576542277,
				"element": "H" 
			},
			{
				"x": -1.879326295,
				"y": 2.0053789909,
				"z": 2.6686256834,
				"element": "H" 
			},
			{
				"x": -0.9099809313,
				"y": -0.2841397991,
				"z": 2.6300312875,
				"element": "H" 
			},
			{
				"x": -0.0385080228,
				"y": -1.2275194237,
				"z": 0.4982658659,
				"element": "H" 
			}
		],
		 "valence_orbital": [ 
			{
				"type": "occ",
				"energy": -0.29796,
				"method": "rhf"
			},
			{
				"type": "occ",
				"energy": -0.28242,
				"method": "rhf"
			},
			{
				"type": "occ",
				"energy": -0.26552,
				"method": "rhf"
			},
			{
				"type": "occ",
				"energy": -0.25944,
				"method": "rhf"
			},
			{
				"type": "occ",
				"energy": -0.22557,
				"method": "rhf"
			},
			{
				"type": "unocc",
				"energy": -0.04615,
				"method": "rhf"
			},
			{
				"type": "unocc",
				"energy": -0.00881,
				"method": "rhf"
			},
			{
				"type": "unocc",
				"energy": 0.02761,
				"method": "rhf"
			},
			{
				"type": "unocc",
				"energy": 0.06439,
				"method": "rhf"
			},
			{
				"type": "unocc",
				"energy": 0.09022,
				"method": "rhf"
			}
		],
		"cosmo_sigma_profile": { 
			"-0.025": 0.0,
			"-0.024": 0.0,
			"-0.023": 0.0,
			"-0.022": 0.0,
			"-0.021": 0.0,
			"-0.02": 0.0,
			"-0.019": 0.0,
			"-0.018": 0.0,
			"-0.017": 0.0,
			"-0.016": 0.0,
			"-0.015": 0.0,
			"-0.014": 0.0,
			"-0.013": 0.336628311428,
			"-0.012": 0.517753926931,
			"-0.011": 0.681903166221,
			"-0.01": 1.53598033674,
			"-0.009": 2.3964654004,
			"-0.008": 2.24410879872,
			"-0.007": 4.11011272052,
			"-0.006": 12.7725853067,
			"-0.005": 15.8013903902,
			"-0.004": 17.0548679371,
			"-0.003": 14.4974316658,
			"-0.002": 11.9873877866,
			"-0.001": 14.2210062059,
			"0.0": 17.7557825601,
			"0.001": 17.9603932504,
			"0.002": 17.1698066574,
			"0.003": 16.4630531307,
			"0.004": 16.2888383576,
			"0.005": 9.94146443793,
			"0.006": 2.95004409133,
			"0.007": 2.77677034473,
			"0.008": 2.08292231759,
			"0.009": 2.27415499452,
			"0.01": 1.75033599151,
			"0.011": 1.60927466377,
			"0.012": 1.67180182991,
			"0.013": 1.98553598591,
			"0.014": 2.26922326129,
			"0.015": 0.21059649299,
			"0.016": 0.0,
			"0.017": 0.0,
			"0.018": 0.0,
			"0.019": 0.0,
			"0.02": 0.0,
			"0.021": 0.0,
			"0.022": 0.0,
			"0.023": 0.0,
			"0.024": 0.0,
			"0.025": 0.0
		}
	}
}
