{
	 "smiles": "CN(C)C1=CC=C(C=C(C#N)C#N)C=C1", 
	 "Tm": 274.15, 
	 "num_atms": 26, 
	 "gaussian": { 
		 "optdone": 1, 
		 "sigma_profile": "yes", 
		 "theory": "DFT", 
		 "functional": "B3LYP", 
		 "basiset": "6-31G**", 
		 "properties": { 
			 "R2extent": 5019.8044, 
			 "electric_dipole_moment_norm": 11.0372549721, 
			 "electric_quadrupole_moment_norm": 29.1470080778, 
			 "total_energy": -628.105297963, 
			 "HOMO_LUMO_gap": 0.12764, 
			 "cosmo_polarized_energy": -17.44, 
			 "cosmo_cavitation_energy": 31.89, 
			 "cosmo_dispersion_energy": -22.0, 
			 "cosmo_repulsion_energy": 1.7, 
			 "cosmo_total_nonelectrostatic_energy": 11.59, 
			 "SMD_solvation_energy": 8.0 
		},
		"coords": [
			{
				"x": 0.6458441533,
				"y": -0.9422012892,
				"z": 3.474110777,
				"element": "C" 
			},
			{
				"x": 1.1046748412,
				"y": -0.0551781547,
				"z": 2.4143533878,
				"element": "N" 
			},
			{
				"x": 2.0484765892,
				"y": 1.0090174747,
				"z": 2.7295608632,
				"element": "C" 
			},
			{
				"x": 0.6525470749,
				"y": -0.2219452241,
				"z": 1.130841609,
				"element": "C" 
			},
			{
				"x": 1.0860578891,
				"y": 0.6304157378,
				"z": 0.0785198365,
				"element": "C" 
			},
			{
				"x": 0.6328555079,
				"y": 0.4657834187,
				"z": -1.2150995109,
				"element": "C" 
			},
			{
				"x": -0.2842979073,
				"y": -0.5593778972,
				"z": -1.5528452858,
				"element": "C" 
			},
			{
				"x": -0.8143759589,
				"y": -0.8124569345,
				"z": -2.8657246083,
				"element": "C" 
			},
			{
				"x": -0.6075241625,
				"y": -0.1898667387,
				"z": -4.0737575812,
				"element": "C" 
			},
			{
				"x": -1.2893078971,
				"y": -0.6757776863,
				"z": -5.2358905219,
				"element": "C" 
			},
			{
				"x": -1.8475307426,
				"y": -1.0772656669,
				"z": -6.1756012736,
				"element": "N" 
			},
			{
				"x": 0.2526191916,
				"y": 0.932754298,
				"z": -4.2809056133,
				"element": "C" 
			},
			{
				"x": 0.951116456,
				"y": 1.8477298931,
				"z": -4.4593597711,
				"element": "N" 
			},
			{
				"x": -0.7112749325,
				"y": -1.4040230219,
				"z": -0.5006607223,
				"element": "C" 
			},
			{
				"x": -0.2667266256,
				"y": -1.2515030958,
				"z": 0.7978192198,
				"element": "C" 
			},
			{
				"x": -0.4422302145,
				"y": -0.8869528453,
				"z": 3.6071629484,
				"element": "H" 
			},
			{
				"x": 0.9131803455,
				"y": -1.987563581,
				"z": 3.2730046268,
				"element": "H" 
			},
			{
				"x": 1.1145461604,
				"y": -0.6501932097,
				"z": 4.4136911281,
				"element": "H" 
			},
			{
				"x": 2.9871939369,
				"y": 0.8975454506,
				"z": 2.1723308999,
				"element": "H" 
			},
			{
				"x": 1.6329664839,
				"y": 1.9996184612,
				"z": 2.5056294249,
				"element": "H" 
			},
			{
				"x": 2.2828126201,
				"y": 0.9753042383,
				"z": 3.7934021662,
				"element": "H" 
			},
			{
				"x": 1.7866864159,
				"y": 1.4305423789,
				"z": 0.2805226517,
				"element": "H" 
			},
			{
				"x": 0.9969462028,
				"y": 1.1443254603,
				"z": -1.976385097,
				"element": "H" 
			},
			{
				"x": -1.5070522099,
				"y": -1.6500050413,
				"z": -2.9161069803,
				"element": "H" 
			},
			{
				"x": -1.4150788214,
				"y": -2.2027731207,
				"z": -0.7210324555,
				"element": "H" 
			},
			{
				"x": -0.6304243962,
				"y": -1.9299533043,
				"z": 1.5588198818,
				"element": "H" 
			}
		],
		 "valence_orbital": [ 
			{
				"type": "occ",
				"energy": -0.33003,
				"method": "rhf"
			},
			{
				"type": "occ",
				"energy": -0.32508,
				"method": "rhf"
			},
			{
				"type": "occ",
				"energy": -0.27436,
				"method": "rhf"
			},
			{
				"type": "occ",
				"energy": -0.2728,
				"method": "rhf"
			},
			{
				"type": "occ",
				"energy": -0.21255,
				"method": "rhf"
			},
			{
				"type": "unocc",
				"energy": -0.08491,
				"method": "rhf"
			},
			{
				"type": "unocc",
				"energy": -0.01994,
				"method": "rhf"
			},
			{
				"type": "unocc",
				"energy": 0.00714,
				"method": "rhf"
			},
			{
				"type": "unocc",
				"energy": 0.0205,
				"method": "rhf"
			},
			{
				"type": "unocc",
				"energy": 0.05181,
				"method": "rhf"
			}
		],
		"cosmo_sigma_profile": { 
			"-0.025": 0.0,
			"-0.024": 0.0,
			"-0.023": 0.0,
			"-0.022": 0.0,
			"-0.021": 0.0,
			"-0.02": 0.0,
			"-0.019": 0.0,
			"-0.018": 0.0,
			"-0.017": 0.0,
			"-0.016": 0.0,
			"-0.015": 0.0,
			"-0.014": 0.0,
			"-0.013": 0.0,
			"-0.012": 0.0,
			"-0.011": 0.0,
			"-0.01": 0.561554370945,
			"-0.009": 2.70491774744,
			"-0.008": 4.23777305675,
			"-0.007": 7.63556768952,
			"-0.006": 14.5068461351,
			"-0.005": 22.43781998,
			"-0.004": 19.3613351418,
			"-0.003": 24.6720189512,
			"-0.002": 26.7006575726,
			"-0.001": 19.9319021368,
			"0.0": 15.335870713,
			"0.001": 14.8631971492,
			"0.002": 11.8266691418,
			"0.003": 14.7638619173,
			"0.004": 11.6239291522,
			"0.005": 5.61373531896,
			"0.006": 4.17600264326,
			"0.007": 4.3250315514,
			"0.008": 6.50011975648,
			"0.009": 5.98024298942,
			"0.01": 6.32772177488,
			"0.011": 5.28525217796,
			"0.012": 4.93496813913,
			"0.013": 2.6413517853,
			"0.014": 0.106502519335,
			"0.015": 0.0,
			"0.016": 0.0,
			"0.017": 0.0,
			"0.018": 0.0,
			"0.019": 0.0,
			"0.02": 0.0,
			"0.021": 0.0,
			"0.022": 0.0,
			"0.023": 0.0,
			"0.024": 0.0,
			"0.025": 0.0
		}
	}
}
