{
	 "smiles": "CCCCCCC=O", 
	 "Tm": 230.05, 
	 "num_atms": 22, 
	 "gaussian": { 
		 "optdone": 1, 
		 "sigma_profile": "yes", 
		 "theory": "DFT", 
		 "functional": "B3LYP", 
		 "basiset": "6-31G**", 
		 "properties": { 
			 "R2extent": 1750.1366, 
			 "electric_dipole_moment_norm": 3.04753836563, 
			 "electric_quadrupole_moment_norm": 10.5445700529, 
			 "total_energy": -350.404935003, 
			 "HOMO_LUMO_gap": 0.22779, 
			 "cosmo_polarized_energy": -6.03, 
			 "cosmo_cavitation_energy": 23.93, 
			 "cosmo_dispersion_energy": -16.99, 
			 "cosmo_repulsion_energy": 1.45, 
			 "cosmo_total_nonelectrostatic_energy": 8.4, 
			 "SMD_solvation_energy": 4.78 
		},
		"coords": [
			{
				"x": 2.6079894856,
				"y": -0.9586349612,
				"z": -0.3055893946,
				"element": "C" 
			},
			{
				"x": 2.2015994326,
				"y": -0.8479857767,
				"z": -1.7796003341,
				"element": "C" 
			},
			{
				"x": 0.7944267266,
				"y": -0.2817376809,
				"z": -2.043192476,
				"element": "C" 
			},
			{
				"x": 0.5720764935,
				"y": 1.1793690332,
				"z": -1.589167831,
				"element": "C" 
			},
			{
				"x": -0.0299021217,
				"y": 1.3639722069,
				"z": -0.1824765142,
				"element": "C" 
			},
			{
				"x": -1.518610514,
				"y": 0.9720839261,
				"z": -0.0967596726,
				"element": "C" 
			},
			{
				"x": -2.047720489,
				"y": 1.0665976423,
				"z": 1.3151393744,
				"element": "C" 
			},
			{
				"x": -3.0003829142,
				"y": 1.7314580342,
				"z": 1.6578520388,
				"element": "O" 
			},
			{
				"x": 1.8895564963,
				"y": -1.5616278049,
				"z": 0.2622306403,
				"element": "H" 
			},
			{
				"x": 2.6744227499,
				"y": 0.0225787899,
				"z": 0.1756265053,
				"element": "H" 
			},
			{
				"x": 3.5890976047,
				"y": -1.4348662636,
				"z": -0.2063926639,
				"element": "H" 
			},
			{
				"x": 2.9364768221,
				"y": -0.2268781059,
				"z": -2.3100033159,
				"element": "H" 
			},
			{
				"x": 2.2621126069,
				"y": -1.8431758955,
				"z": -2.2387958145,
				"element": "H" 
			},
			{
				"x": 0.0481304271,
				"y": -0.9396562408,
				"z": -1.5762287575,
				"element": "H" 
			},
			{
				"x": 0.6071632765,
				"y": -0.3479207601,
				"z": -3.121796899,
				"element": "H" 
			},
			{
				"x": -0.0861710055,
				"y": 1.6871276406,
				"z": -2.3055956188,
				"element": "H" 
			},
			{
				"x": 1.5287864391,
				"y": 1.7161390242,
				"z": -1.6355018987,
				"element": "H" 
			},
			{
				"x": 0.0693776459,
				"y": 2.4160407259,
				"z": 0.1122306206,
				"element": "H" 
			},
			{
				"x": 0.5407646038,
				"y": 0.7833873651,
				"z": 0.5523696071,
				"element": "H" 
			},
			{
				"x": -1.643862754,
				"y": -0.0714944516,
				"z": -0.4216654716,
				"element": "H" 
			},
			{
				"x": -2.1368723082,
				"y": 1.6032481944,
				"z": -0.7429685009,
				"element": "H" 
			},
			{
				"x": -1.4789587038,
				"y": 0.4629753586,
				"z": 2.0623863768,
				"element": "H" 
			}
		],
		 "valence_orbital": [ 
			{
				"type": "occ",
				"energy": -0.34422,
				"method": "rhf"
			},
			{
				"type": "occ",
				"energy": -0.32664,
				"method": "rhf"
			},
			{
				"type": "occ",
				"energy": -0.31937,
				"method": "rhf"
			},
			{
				"type": "occ",
				"energy": -0.31603,
				"method": "rhf"
			},
			{
				"type": "occ",
				"energy": -0.24808,
				"method": "rhf"
			},
			{
				"type": "unocc",
				"energy": -0.02029,
				"method": "rhf"
			},
			{
				"type": "unocc",
				"energy": 0.07766,
				"method": "rhf"
			},
			{
				"type": "unocc",
				"energy": 0.09946,
				"method": "rhf"
			},
			{
				"type": "unocc",
				"energy": 0.10697,
				"method": "rhf"
			},
			{
				"type": "unocc",
				"energy": 0.12006,
				"method": "rhf"
			}
		],
		"cosmo_sigma_profile": { 
			"-0.025": 0.0,
			"-0.024": 0.0,
			"-0.023": 0.0,
			"-0.022": 0.0,
			"-0.021": 0.0,
			"-0.02": 0.0,
			"-0.019": 0.0,
			"-0.018": 0.0,
			"-0.017": 0.0,
			"-0.016": 0.0,
			"-0.015": 0.0,
			"-0.014": 0.0,
			"-0.013": 0.0,
			"-0.012": 0.0,
			"-0.011": 0.0,
			"-0.01": 0.0,
			"-0.009": 0.0,
			"-0.008": 0.0,
			"-0.007": 0.0,
			"-0.006": 3.0463352857,
			"-0.005": 10.1496989142,
			"-0.004": 8.83624786958,
			"-0.003": 16.0395119011,
			"-0.002": 31.004335355,
			"-0.001": 34.2496242956,
			"0.0": 27.5193090842,
			"0.001": 22.1386337289,
			"0.002": 8.75174481432,
			"0.003": 1.25014192664,
			"0.004": 1.36743122614,
			"0.005": 1.37783568129,
			"0.006": 1.91339443375,
			"0.007": 1.40936464328,
			"0.008": 1.60421881133,
			"0.009": 2.15283156245,
			"0.01": 2.80767087469,
			"0.011": 4.09574866273,
			"0.012": 3.8630285928,
			"0.013": 1.46453098732,
			"0.014": 0.0,
			"0.015": 0.0,
			"0.016": 0.0,
			"0.017": 0.0,
			"0.018": 0.0,
			"0.019": 0.0,
			"0.02": 0.0,
			"0.021": 0.0,
			"0.022": 0.0,
			"0.023": 0.0,
			"0.024": 0.0,
			"0.025": 0.0
		}
	}
}
