{
	 "smiles": "CCC1=CN(C[C@@H]1CCC1=CC=CC(=C1)C(=O)OC)S(=O)(=O)C1=CC=C(C)C=C1", 
	 "Tm": 340.68, 
	 "num_atms": 56, 
	 "gaussian": { 
		 "optdone": 1, 
		 "sigma_profile": "yes", 
		 "theory": "DFT", 
		 "functional": "B3LYP", 
		 "basiset": "6-31G**", 
		 "properties": { 
			 "R2extent": 18382.5013, 
			 "electric_dipole_moment_norm": 7.23427337955, 
			 "electric_quadrupole_moment_norm": 32.6217878324, 
			 "total_energy": -1646.49887772, 
			 "HOMO_LUMO_gap": 0.16147, 
			 "cosmo_polarized_energy": -20.99, 
			 "cosmo_cavitation_energy": 59.66, 
			 "cosmo_dispersion_energy": -39.41, 
			 "cosmo_repulsion_energy": 2.99, 
			 "cosmo_total_nonelectrostatic_energy": 23.24, 
			 "SMD_solvation_energy": 9.54 
		},
		"coords": [
			{
				"x": 2.5840638895,
				"y": 2.0555346821,
				"z": 0.9695653103,
				"element": "C" 
			},
			{
				"x": 1.3395631433,
				"y": 1.7713846112,
				"z": 1.8333960675,
				"element": "C" 
			},
			{
				"x": 0.8213905268,
				"y": 0.3601832243,
				"z": 1.7423970034,
				"element": "C" 
			},
			{
				"x": 1.0218794007,
				"y": -0.5814600547,
				"z": 2.6751489311,
				"element": "C" 
			},
			{
				"x": 0.3288079275,
				"y": -1.7871764517,
				"z": 2.4002822344,
				"element": "N" 
			},
			{
				"x": -0.1360551575,
				"y": -1.7096725158,
				"z": 0.9962191258,
				"element": "C" 
			},
			{
				"x": -0.1454945445,
				"y": -0.1893442435,
				"z": 0.6882668162,
				"element": "C" 
			},
			{
				"x": 0.149450536,
				"y": 0.0764363051,
				"z": -0.8018938433,
				"element": "C" 
			},
			{
				"x": -0.2962863995,
				"y": 1.4550982689,
				"z": -1.3411863906,
				"element": "C" 
			},
			{
				"x": -1.7999362671,
				"y": 1.6498068676,
				"z": -1.3657978224,
				"element": "C" 
			},
			{
				"x": -2.5882379859,
				"y": 0.9846847204,
				"z": -2.3181371492,
				"element": "C" 
			},
			{
				"x": -3.9739724047,
				"y": 1.1448305615,
				"z": -2.3470958672,
				"element": "C" 
			},
			{
				"x": -4.6005432481,
				"y": 1.9771700417,
				"z": -1.4223425074,
				"element": "C" 
			},
			{
				"x": -3.8315479102,
				"y": 2.6518377919,
				"z": -0.4671576018,
				"element": "C" 
			},
			{
				"x": -2.4394427732,
				"y": 2.4856616793,
				"z": -0.4448705111,
				"element": "C" 
			},
			{
				"x": -4.5438523743,
				"y": 3.5359359693,
				"z": 0.49933524,
				"element": "C" 
			},
			{
				"x": -5.7464482187,
				"y": 3.7140379941,
				"z": 0.5117138962,
				"element": "O" 
			},
			{
				"x": -3.7022566215,
				"y": 4.1301319685,
				"z": 1.3772916867,
				"element": "O" 
			},
			{
				"x": -4.3317784904,
				"y": 4.9910363768,
				"z": 2.3383099963,
				"element": "C" 
			},
			{
				"x": 0.8914518286,
				"y": -3.2604411795,
				"z": 3.0112196553,
				"element": "S" 
			},
			{
				"x": -0.1391979453,
				"y": -4.2411724581,
				"z": 2.6697615213,
				"element": "O" 
			},
			{
				"x": 1.2967868201,
				"y": -2.9833238011,
				"z": 4.3905276989,
				"element": "O" 
			},
			{
				"x": 2.3670095133,
				"y": -3.6819176798,
				"z": 2.0806366175,
				"element": "C" 
			},
			{
				"x": 2.2628630282,
				"y": -4.5008179758,
				"z": 0.9541288764,
				"element": "C" 
			},
			{
				"x": 3.4104466841,
				"y": -4.7956636213,
				"z": 0.2182085594,
				"element": "C" 
			},
			{
				"x": 4.6611632754,
				"y": -4.2833328098,
				"z": 0.5878873193,
				"element": "C" 
			},
			{
				"x": 5.8960344289,
				"y": -4.5856191218,
				"z": -0.2262689565,
				"element": "C" 
			},
			{
				"x": 4.7389196208,
				"y": -3.470902171,
				"z": 1.730098067,
				"element": "C" 
			},
			{
				"x": 3.6044792587,
				"y": -3.1656487761,
				"z": 2.4769417701,
				"element": "C" 
			},
			{
				"x": 2.3885626606,
				"y": 1.9081929825,
				"z": -0.0966644233,
				"element": "H" 
			},
			{
				"x": 2.9220948248,
				"y": 3.0883310529,
				"z": 1.1063780272,
				"element": "H" 
			},
			{
				"x": 3.4052348362,
				"y": 1.3884929517,
				"z": 1.2499029374,
				"element": "H" 
			},
			{
				"x": 1.590182159,
				"y": 1.9852193465,
				"z": 2.8792432224,
				"element": "H" 
			},
			{
				"x": 0.5426074321,
				"y": 2.4787206431,
				"z": 1.5668159853,
				"element": "H" 
			},
			{
				"x": 1.555823878,
				"y": -0.5009291114,
				"z": 3.6130504788,
				"element": "H" 
			},
			{
				"x": 0.5807435537,
				"y": -2.2166222532,
				"z": 0.332388719,
				"element": "H" 
			},
			{
				"x": -1.1109548334,
				"y": -2.1864799383,
				"z": 0.8900767558,
				"element": "H" 
			},
			{
				"x": -1.1479913226,
				"y": 0.2081906291,
				"z": 0.9092742047,
				"element": "H" 
			},
			{
				"x": -0.3627170449,
				"y": -0.6945903981,
				"z": -1.3932125394,
				"element": "H" 
			},
			{
				"x": 1.2214849557,
				"y": -0.0609699066,
				"z": -0.9887234186,
				"element": "H" 
			},
			{
				"x": 0.0936419037,
				"y": 1.5589830082,
				"z": -2.3614952181,
				"element": "H" 
			},
			{
				"x": 0.1631676586,
				"y": 2.2570793646,
				"z": -0.7552756614,
				"element": "H" 
			},
			{
				"x": -2.1082088189,
				"y": 0.3392359269,
				"z": -3.0504316152,
				"element": "H" 
			},
			{
				"x": -4.5639142147,
				"y": 0.6234654702,
				"z": -3.0952185185,
				"element": "H" 
			},
			{
				"x": -5.6754285368,
				"y": 2.1212180088,
				"z": -1.4235821475,
				"element": "H" 
			},
			{
				"x": -1.8565745314,
				"y": 3.021493432,
				"z": 0.2967287529,
				"element": "H" 
			},
			{
				"x": -5.0480582396,
				"y": 4.4317129018,
				"z": 2.945324832,
				"element": "H" 
			},
			{
				"x": -4.8583428493,
				"y": 5.8075062325,
				"z": 1.837670357,
				"element": "H" 
			},
			{
				"x": -3.5244090918,
				"y": 5.379278928,
				"z": 2.959226869,
				"element": "H" 
			},
			{
				"x": 1.3007113429,
				"y": -4.9218285089,
				"z": 0.6836563809,
				"element": "H" 
			},
			{
				"x": 3.3335126275,
				"y": -5.4427765906,
				"z": -0.6515489088,
				"element": "H" 
			},
			{
				"x": 5.7669701126,
				"y": -5.4876803632,
				"z": -0.8305430358,
				"element": "H" 
			},
			{
				"x": 6.1254560451,
				"y": -3.7605045533,
				"z": -0.9120314192,
				"element": "H" 
			},
			{
				"x": 6.7722441941,
				"y": -4.7264555427,
				"z": 0.4139361022,
				"element": "H" 
			},
			{
				"x": 5.7040321229,
				"y": -3.0817113588,
				"z": 2.0441153915,
				"element": "H" 
			},
			{
				"x": 3.6755696348,
				"y": -2.561250556,
				"z": 3.374552146,
				"element": "H" 
			}
		],
		 "valence_orbital": [ 
			{
				"type": "occ",
				"energy": -0.26941,
				"method": "rhf"
			},
			{
				"type": "occ",
				"energy": -0.26306,
				"method": "rhf"
			},
			{
				"type": "occ",
				"energy": -0.26103,
				"method": "rhf"
			},
			{
				"type": "occ",
				"energy": -0.25265,
				"method": "rhf"
			},
			{
				"type": "occ",
				"energy": -0.20858,
				"method": "rhf"
			},
			{
				"type": "unocc",
				"energy": -0.04711,
				"method": "rhf"
			},
			{
				"type": "unocc",
				"energy": -0.03721,
				"method": "rhf"
			},
			{
				"type": "unocc",
				"energy": -0.02174,
				"method": "rhf"
			},
			{
				"type": "unocc",
				"energy": -0.00965,
				"method": "rhf"
			},
			{
				"type": "unocc",
				"energy": 0.01838,
				"method": "rhf"
			}
		],
		"cosmo_sigma_profile": { 
			"-0.025": 0.0,
			"-0.024": 0.0,
			"-0.023": 0.0,
			"-0.022": 0.0,
			"-0.021": 0.0,
			"-0.02": 0.0,
			"-0.019": 0.0,
			"-0.018": 0.0,
			"-0.017": 0.0,
			"-0.016": 0.0,
			"-0.015": 0.0,
			"-0.014": 0.0,
			"-0.013": 0.0,
			"-0.012": 0.0,
			"-0.011": 0.0,
			"-0.01": 0.0,
			"-0.009": 0.0,
			"-0.008": 0.0,
			"-0.007": 3.97555259084,
			"-0.006": 18.6092271128,
			"-0.005": 36.2914746121,
			"-0.004": 45.7019679062,
			"-0.003": 54.9455662735,
			"-0.002": 49.0586406618,
			"-0.001": 44.5818825672,
			"0.0": 41.3188108545,
			"0.001": 32.0924263213,
			"0.002": 30.1389376922,
			"0.003": 29.2159660671,
			"0.004": 22.215643261,
			"0.005": 10.3184338854,
			"0.006": 8.55836900556,
			"0.007": 5.75807154643,
			"0.008": 5.56569309529,
			"0.009": 5.64821863396,
			"0.01": 7.96245709931,
			"0.011": 11.4450132006,
			"0.012": 7.71588161754,
			"0.013": 0.454354361362,
			"0.014": 0.0,
			"0.015": 0.0,
			"0.016": 0.0,
			"0.017": 0.0,
			"0.018": 0.0,
			"0.019": 0.0,
			"0.02": 0.0,
			"0.021": 0.0,
			"0.022": 0.0,
			"0.023": 0.0,
			"0.024": 0.0,
			"0.025": 0.0
		}
	}
}
