{
	 "smiles": "COC1=C(O)C(=CC=C1)C1C(C(=O)OC(C)C)=C(C)NC(C)=C1C(=O)OC(C)C", 
	 "Tm": 469.15, 
	 "num_atms": 58, 
	 "gaussian": { 
		 "optdone": 1, 
		 "sigma_profile": "yes", 
		 "theory": "DFT", 
		 "functional": "B3LYP", 
		 "basiset": "6-31G**", 
		 "properties": { 
			 "R2extent": 12894.4559, 
			 "electric_dipole_moment_norm": 4.343250512, 
			 "electric_quadrupole_moment_norm": 19.9540623222, 
			 "total_energy": -1361.94595166, 
			 "HOMO_LUMO_gap": 0.15312, 
			 "cosmo_polarized_energy": -22.79, 
			 "cosmo_cavitation_energy": 58.68, 
			 "cosmo_dispersion_energy": -37.71, 
			 "cosmo_repulsion_energy": 2.93, 
			 "cosmo_total_nonelectrostatic_energy": 23.89, 
			 "SMD_solvation_energy": 12.62 
		},
		"coords": [
			{
				"x": 6.0603937177,
				"y": 1.4363314879,
				"z": 1.7703476788,
				"element": "C" 
			},
			{
				"x": 4.6513148388,
				"y": 1.3888491564,
				"z": 1.6250373266,
				"element": "O" 
			},
			{
				"x": 4.133731162,
				"y": 0.7477828597,
				"z": 0.5173275543,
				"element": "C" 
			},
			{
				"x": 2.7230467863,
				"y": 0.7726075959,
				"z": 0.469215808,
				"element": "C" 
			},
			{
				"x": 2.0500565978,
				"y": 1.3934705906,
				"z": 1.483731218,
				"element": "O" 
			},
			{
				"x": 2.0374951999,
				"y": 0.171815058,
				"z": -0.5921162503,
				"element": "C" 
			},
			{
				"x": 2.8008460974,
				"y": -0.4635220131,
				"z": -1.5863749889,
				"element": "C" 
			},
			{
				"x": 4.1891764332,
				"y": -0.4904394233,
				"z": -1.5386656415,
				"element": "C" 
			},
			{
				"x": 4.8717857156,
				"y": 0.1226455635,
				"z": -0.4798180609,
				"element": "C" 
			},
			{
				"x": 0.5055012616,
				"y": 0.1805254674,
				"z": -0.6981908014,
				"element": "C" 
			},
			{
				"x": -0.0722609092,
				"y": 1.5909391608,
				"z": -0.7705271912,
				"element": "C" 
			},
			{
				"x": 0.0762227393,
				"y": 2.3729800529,
				"z": -2.0059706085,
				"element": "C" 
			},
			{
				"x": -0.2322785357,
				"y": 3.549234533,
				"z": -2.1586590197,
				"element": "O" 
			},
			{
				"x": 0.6047982845,
				"y": 1.6252822253,
				"z": -3.0113677205,
				"element": "O" 
			},
			{
				"x": 0.8290213286,
				"y": 2.2883225096,
				"z": -4.2830568777,
				"element": "C" 
			},
			{
				"x": -0.4657329385,
				"y": 2.3025241613,
				"z": -5.0913341525,
				"element": "C" 
			},
			{
				"x": 1.9582249821,
				"y": 1.5237120219,
				"z": -4.9613692261,
				"element": "C" 
			},
			{
				"x": -0.7019672168,
				"y": 2.1424660241,
				"z": 0.3040449762,
				"element": "C" 
			},
			{
				"x": -1.2170013754,
				"y": 3.5539296008,
				"z": 0.4177615011,
				"element": "C" 
			},
			{
				"x": -0.9462496621,
				"y": 1.3558168407,
				"z": 1.4140336289,
				"element": "N" 
			},
			{
				"x": -0.7707088936,
				"y": -0.0153252402,
				"z": 1.4613298936,
				"element": "C" 
			},
			{
				"x": -1.3611262937,
				"y": -0.6541171642,
				"z": 2.6949619598,
				"element": "C" 
			},
			{
				"x": -0.1502244236,
				"y": -0.6336079456,
				"z": 0.4172029987,
				"element": "C" 
			},
			{
				"x": -0.0540122691,
				"y": -2.0887323907,
				"z": 0.2296074275,
				"element": "C" 
			},
			{
				"x": 0.4192500982,
				"y": -2.6024366974,
				"z": -0.7738566351,
				"element": "O" 
			},
			{
				"x": -0.5549260391,
				"y": -2.8346948539,
				"z": 1.2562129022,
				"element": "O" 
			},
			{
				"x": -0.4863190701,
				"y": -4.2793491883,
				"z": 1.1063900366,
				"element": "C" 
			},
			{
				"x": 0.8994876514,
				"y": -4.7727579349,
				"z": 1.5127492327,
				"element": "C" 
			},
			{
				"x": -1.6072958523,
				"y": -4.84690406,
				"z": 1.967265974,
				"element": "C" 
			},
			{
				"x": 6.5320071371,
				"y": 1.9622367906,
				"z": 0.9304984217,
				"element": "H" 
			},
			{
				"x": 6.4891054851,
				"y": 0.4290897094,
				"z": 1.8483692345,
				"element": "H" 
			},
			{
				"x": 6.2558294451,
				"y": 1.9837490536,
				"z": 2.6940137893,
				"element": "H" 
			},
			{
				"x": 2.7268086326,
				"y": 1.7380960212,
				"z": 2.0871747989,
				"element": "H" 
			},
			{
				"x": 2.2755661254,
				"y": -0.9507517789,
				"z": -2.4004143407,
				"element": "H" 
			},
			{
				"x": 4.753031908,
				"y": -0.9911984943,
				"z": -2.3197802774,
				"element": "H" 
			},
			{
				"x": 5.9549914002,
				"y": 0.1029830985,
				"z": -0.4419289771,
				"element": "H" 
			},
			{
				"x": 0.2836971185,
				"y": -0.3282427461,
				"z": -1.638258857,
				"element": "H" 
			},
			{
				"x": 1.1335427088,
				"y": 3.3169683328,
				"z": -4.0678656769,
				"element": "H" 
			},
			{
				"x": -1.2372563453,
				"y": 2.8668590647,
				"z": -4.5630071387,
				"element": "H" 
			},
			{
				"x": -0.8231891333,
				"y": 1.2814322963,
				"z": -5.261190749,
				"element": "H" 
			},
			{
				"x": -0.2989830541,
				"y": 2.7753855308,
				"z": -6.0651091875,
				"element": "H" 
			},
			{
				"x": 1.6573626963,
				"y": 0.4919967717,
				"z": -5.171359868,
				"element": "H" 
			},
			{
				"x": 2.2216165135,
				"y": 2.0038383183,
				"z": -5.9093858608,
				"element": "H" 
			},
			{
				"x": 2.8453094361,
				"y": 1.4980003356,
				"z": -4.3229748254,
				"element": "H" 
			},
			{
				"x": -1.6713488356,
				"y": 3.7230291234,
				"z": 1.4003657879,
				"element": "H" 
			},
			{
				"x": -0.4125301014,
				"y": 4.275686282,
				"z": 0.2662456173,
				"element": "H" 
			},
			{
				"x": -1.9589326393,
				"y": 3.7644194805,
				"z": -0.3556125983,
				"element": "H" 
			},
			{
				"x": -1.3726718644,
				"y": 1.7992468663,
				"z": 2.2118607761,
				"element": "H" 
			},
			{
				"x": -0.6485571393,
				"y": -1.3291777189,
				"z": 3.1680446808,
				"element": "H" 
			},
			{
				"x": -2.2447184156,
				"y": -1.2485746026,
				"z": 2.4479213965,
				"element": "H" 
			},
			{
				"x": -1.6546379727,
				"y": 0.1120612987,
				"z": 3.4203405901,
				"element": "H" 
			},
			{
				"x": -0.6575733928,
				"y": -4.5086592206,
				"z": 0.0509266739,
				"element": "H" 
			},
			{
				"x": 0.9554057153,
				"y": -5.862604456,
				"z": 1.4199279735,
				"element": "H" 
			},
			{
				"x": 1.6626726941,
				"y": -4.3334531587,
				"z": 0.8669545674,
				"element": "H" 
			},
			{
				"x": 1.1145519401,
				"y": -4.5046998465,
				"z": 2.5527383814,
				"element": "H" 
			},
			{
				"x": -1.6347370692,
				"y": -5.9374795801,
				"z": 1.877589985,
				"element": "H" 
			},
			{
				"x": -2.5778137233,
				"y": -4.4518286678,
				"z": 1.6533810808,
				"element": "H" 
			},
			{
				"x": -1.4562986852,
				"y": -4.5951561021,
				"z": 3.0223216591,
				"element": "H" 
			}
		],
		 "valence_orbital": [ 
			{
				"type": "occ",
				"energy": -0.25094,
				"method": "rhf"
			},
			{
				"type": "occ",
				"energy": -0.2412,
				"method": "rhf"
			},
			{
				"type": "occ",
				"energy": -0.21885,
				"method": "rhf"
			},
			{
				"type": "occ",
				"energy": -0.19532,
				"method": "rhf"
			},
			{
				"type": "occ",
				"energy": -0.18979,
				"method": "rhf"
			},
			{
				"type": "unocc",
				"energy": -0.03667,
				"method": "rhf"
			},
			{
				"type": "unocc",
				"energy": 0.01834,
				"method": "rhf"
			},
			{
				"type": "unocc",
				"energy": 0.02128,
				"method": "rhf"
			},
			{
				"type": "unocc",
				"energy": 0.03189,
				"method": "rhf"
			},
			{
				"type": "unocc",
				"energy": 0.06789,
				"method": "rhf"
			}
		],
		"cosmo_sigma_profile": { 
			"-0.025": 0.0,
			"-0.024": 0.0,
			"-0.023": 0.0,
			"-0.022": 0.0,
			"-0.021": 0.0,
			"-0.02": 0.0,
			"-0.019": 0.0,
			"-0.018": 0.0,
			"-0.017": 0.0,
			"-0.016": 0.0552264265265,
			"-0.015": 1.17184858845,
			"-0.014": 1.31296507672,
			"-0.013": 1.88460896917,
			"-0.012": 1.92969316223,
			"-0.011": 1.98865365052,
			"-0.01": 1.90177924189,
			"-0.009": 2.06390495455,
			"-0.008": 1.96709480327,
			"-0.007": 3.10393254916,
			"-0.006": 8.14683167491,
			"-0.005": 18.2000734307,
			"-0.004": 36.1711269562,
			"-0.003": 52.1617244638,
			"-0.002": 49.2870457729,
			"-0.001": 45.9489994829,
			"0.0": 52.1520794748,
			"0.001": 41.0647583288,
			"0.002": 28.1428627808,
			"0.003": 25.6665521046,
			"0.004": 19.0695399078,
			"0.005": 14.2264884961,
			"0.006": 13.6124854752,
			"0.007": 10.442931088,
			"0.008": 7.57169452729,
			"0.009": 4.28967526859,
			"0.01": 3.28049100639,
			"0.011": 3.31345870161,
			"0.012": 3.97166594598,
			"0.013": 4.97906961392,
			"0.014": 1.0544643752,
			"0.015": 0.0,
			"0.016": 0.0,
			"0.017": 0.0,
			"0.018": 0.0,
			"0.019": 0.0,
			"0.02": 0.0,
			"0.021": 0.0,
			"0.022": 0.0,
			"0.023": 0.0,
			"0.024": 0.0,
			"0.025": 0.0
		}
	}
}
