{
	 "smiles": "OC(=O)C1=CC2=C(N1)C=C(C=C2)C(F)(F)F", 
	 "Tm": 417.15, 
	 "num_atms": 22, 
	 "gaussian": { 
		 "optdone": 1, 
		 "sigma_profile": "yes", 
		 "theory": "DFT", 
		 "functional": "B3LYP", 
		 "basiset": "6-31G**", 
		 "properties": { 
			 "R2extent": 5678.6569, 
			 "electric_dipole_moment_norm": 2.05153107215, 
			 "electric_quadrupole_moment_norm": 25.0655379507, 
			 "total_energy": -889.41776031, 
			 "HOMO_LUMO_gap": 0.17228, 
			 "cosmo_polarized_energy": -18.72, 
			 "cosmo_cavitation_energy": 28.93, 
			 "cosmo_dispersion_energy": -20.75, 
			 "cosmo_repulsion_energy": 1.54, 
			 "cosmo_total_nonelectrostatic_energy": 9.72, 
			 "SMD_solvation_energy": 6.96 
		},
		"coords": [
			{
				"x": -1.2321528761,
				"y": 0.2950789544,
				"z": -3.4457899825,
				"element": "O" 
			},
			{
				"x": -1.8620157484,
				"y": 0.1578589706,
				"z": -2.2396595803,
				"element": "C" 
			},
			{
				"x": -3.0247985363,
				"y": 0.453501055,
				"z": -2.1121156249,
				"element": "O" 
			},
			{
				"x": -1.0195686494,
				"y": -0.3525453629,
				"z": -1.1392034859,
				"element": "C" 
			},
			{
				"x": -1.4299168773,
				"y": -0.9843361817,
				"z": 0.0094936373,
				"element": "C" 
			},
			{
				"x": -0.254672189,
				"y": -1.3287139189,
				"z": 0.7494311589,
				"element": "C" 
			},
			{
				"x": 0.8597056049,
				"y": -0.8614487639,
				"z": -0.0010300672,
				"element": "C" 
			},
			{
				"x": 0.3771594803,
				"y": -0.3079759255,
				"z": -1.1729733085,
				"element": "N" 
			},
			{
				"x": 2.1759163928,
				"y": -0.995592248,
				"z": 0.4495105749,
				"element": "C" 
			},
			{
				"x": 2.3643367865,
				"y": -1.6301683447,
				"z": 1.6704385957,
				"element": "C" 
			},
			{
				"x": 1.2750578807,
				"y": -2.1224895286,
				"z": 2.4275909326,
				"element": "C" 
			},
			{
				"x": -0.025346073,
				"y": -1.9789706144,
				"z": 1.9778555156,
				"element": "C" 
			},
			{
				"x": 3.7504910165,
				"y": -1.8056100417,
				"z": 2.2276974615,
				"element": "C" 
			},
			{
				"x": 4.0183290823,
				"y": -3.1053538138,
				"z": 2.4908399481,
				"element": "F" 
			},
			{
				"x": 4.7055223248,
				"y": -1.3606355899,
				"z": 1.3816357768,
				"element": "F" 
			},
			{
				"x": 3.9045069083,
				"y": -1.1371328453,
				"z": 3.3940523366,
				"element": "F" 
			},
			{
				"x": -0.4248097991,
				"y": -0.239936399,
				"z": -3.4593947445,
				"element": "H" 
			},
			{
				"x": -2.4585977075,
				"y": -1.1965850619,
				"z": 0.2615263331,
				"element": "H" 
			},
			{
				"x": 0.8971171454,
				"y": 0.3621609967,
				"z": -1.7214724867,
				"element": "H" 
			},
			{
				"x": 3.0210032284,
				"y": -0.6306727671,
				"z": -0.1228583262,
				"element": "H" 
			},
			{
				"x": 1.4725812087,
				"y": -2.617523819,
				"z": 3.3725151211,
				"element": "H" 
			},
			{
				"x": -0.8569486033,
				"y": -2.3552087506,
				"z": 2.5654102145,
				"element": "H" 
			}
		],
		 "valence_orbital": [ 
			{
				"type": "occ",
				"energy": -0.32968,
				"method": "rhf"
			},
			{
				"type": "occ",
				"energy": -0.30986,
				"method": "rhf"
			},
			{
				"type": "occ",
				"energy": -0.28754,
				"method": "rhf"
			},
			{
				"type": "occ",
				"energy": -0.25504,
				"method": "rhf"
			},
			{
				"type": "occ",
				"energy": -0.24057,
				"method": "rhf"
			},
			{
				"type": "unocc",
				"energy": -0.06829,
				"method": "rhf"
			},
			{
				"type": "unocc",
				"energy": -0.01334,
				"method": "rhf"
			},
			{
				"type": "unocc",
				"energy": -0.00284,
				"method": "rhf"
			},
			{
				"type": "unocc",
				"energy": 0.03317,
				"method": "rhf"
			},
			{
				"type": "unocc",
				"energy": 0.07971,
				"method": "rhf"
			}
		],
		"cosmo_sigma_profile": { 
			"-0.025": 0.0,
			"-0.024": 0.0,
			"-0.023": 0.0,
			"-0.022": 0.0,
			"-0.021": 0.0,
			"-0.02": 0.0,
			"-0.019": 0.398867766663,
			"-0.018": 2.09042644821,
			"-0.017": 2.52115628474,
			"-0.016": 2.24901196313,
			"-0.015": 1.89163058316,
			"-0.014": 1.70098340043,
			"-0.013": 2.49587084507,
			"-0.012": 2.31465806538,
			"-0.011": 1.53710466611,
			"-0.01": 1.47646889789,
			"-0.009": 1.83967056727,
			"-0.008": 3.57987398583,
			"-0.007": 6.1344052658,
			"-0.006": 8.76161375183,
			"-0.005": 8.73940201165,
			"-0.004": 8.05724007716,
			"-0.003": 9.18484689729,
			"-0.002": 10.2414043247,
			"-0.001": 10.2138125109,
			"0.0": 13.2784824136,
			"0.001": 16.1348992342,
			"0.002": 30.8423281276,
			"0.003": 46.4948825599,
			"0.004": 10.6675428694,
			"0.005": 1.98056296229,
			"0.006": 2.26768858234,
			"0.007": 2.80763045242,
			"0.008": 2.72437242324,
			"0.009": 3.68401292881,
			"0.01": 5.20945772685,
			"0.011": 6.0129253117,
			"0.012": 4.31463768313,
			"0.013": 0.809609224256,
			"0.014": 0.0,
			"0.015": 0.0,
			"0.016": 0.0,
			"0.017": 0.0,
			"0.018": 0.0,
			"0.019": 0.0,
			"0.02": 0.0,
			"0.021": 0.0,
			"0.022": 0.0,
			"0.023": 0.0,
			"0.024": 0.0,
			"0.025": 0.0
		}
	}
}
