{
	 "smiles": "OC(=O)CC1=C(C=CC(Cl)=C1)C(F)(F)F", 
	 "Tm": 391.15, 
	 "num_atms": 21, 
	 "gaussian": { 
		 "optdone": 1, 
		 "sigma_profile": "yes", 
		 "theory": "DFT", 
		 "functional": "B3LYP", 
		 "basiset": "6-31G**", 
		 "properties": { 
			 "R2extent": 4080.9856, 
			 "electric_dipole_moment_norm": 1.96814944046, 
			 "electric_quadrupole_moment_norm": 10.159043453, 
			 "total_energy": -1256.75825706, 
			 "HOMO_LUMO_gap": 0.21929, 
			 "cosmo_polarized_energy": -11.13, 
			 "cosmo_cavitation_energy": 28.74, 
			 "cosmo_dispersion_energy": -20.27, 
			 "cosmo_repulsion_energy": 1.55, 
			 "cosmo_total_nonelectrostatic_energy": 10.02, 
			 "SMD_solvation_energy": 6.71 
		},
		"coords": [
			{
				"x": -0.4513644082,
				"y": 1.4032183109,
				"z": 1.2973065198,
				"element": "O" 
			},
			{
				"x": -1.2901500946,
				"y": 1.7398138627,
				"z": 0.2929757936,
				"element": "C" 
			},
			{
				"x": -1.5835688419,
				"y": 2.8826032219,
				"z": 0.0313806473,
				"element": "O" 
			},
			{
				"x": -1.8730867226,
				"y": 0.5258195342,
				"z": -0.4230806488,
				"element": "C" 
			},
			{
				"x": -1.0586550435,
				"y": -0.7494534345,
				"z": -0.3542167879,
				"element": "C" 
			},
			{
				"x": 0.0075004087,
				"y": -1.0190172192,
				"z": -1.2353611847,
				"element": "C" 
			},
			{
				"x": 0.7269969518,
				"y": -2.2110387141,
				"z": -1.1304398613,
				"element": "C" 
			},
			{
				"x": 0.410015017,
				"y": -3.1558422925,
				"z": -0.1572213338,
				"element": "C" 
			},
			{
				"x": -0.6436683769,
				"y": -2.8873320298,
				"z": 0.7120140264,
				"element": "C" 
			},
			{
				"x": -1.069326363,
				"y": -4.0594238482,
				"z": 1.9450896947,
				"element": "Cl" 
			},
			{
				"x": -1.3719834946,
				"y": -1.702609102,
				"z": 0.6185068248,
				"element": "C" 
			},
			{
				"x": 0.3818945285,
				"y": -0.0323447412,
				"z": -2.3122174632,
				"element": "C" 
			},
			{
				"x": 0.636868982,
				"y": 1.1968843599,
				"z": -1.8017984828,
				"element": "F" 
			},
			{
				"x": 1.4793874268,
				"y": -0.4128595183,
				"z": -2.9959062011,
				"element": "F" 
			},
			{
				"x": -0.6144100918,
				"y": 0.1252623997,
				"z": -3.2189839973,
				"element": "F" 
			},
			{
				"x": -0.1613816938,
				"y": 2.2406612343,
				"z": 1.6972600688,
				"element": "H" 
			},
			{
				"x": -2.8547128333,
				"y": 0.3520108846,
				"z": 0.0331652413,
				"element": "H" 
			},
			{
				"x": -2.0601285286,
				"y": 0.8362760676,
				"z": -1.4515563779,
				"element": "H" 
			},
			{
				"x": 1.5431315744,
				"y": -2.4019848044,
				"z": -1.8169946855,
				"element": "H" 
			},
			{
				"x": 0.9677974146,
				"y": -4.0815935017,
				"z": -0.0770160125,
				"element": "H" 
			},
			{
				"x": -2.1874558112,
				"y": -1.52025067,
				"z": 1.3099942201,
				"element": "H" 
			}
		],
		 "valence_orbital": [ 
			{
				"type": "occ",
				"energy": -0.32599,
				"method": "rhf"
			},
			{
				"type": "occ",
				"energy": -0.32443,
				"method": "rhf"
			},
			{
				"type": "occ",
				"energy": -0.29348,
				"method": "rhf"
			},
			{
				"type": "occ",
				"energy": -0.27103,
				"method": "rhf"
			},
			{
				"type": "occ",
				"energy": -0.26341,
				"method": "rhf"
			},
			{
				"type": "unocc",
				"energy": -0.04412,
				"method": "rhf"
			},
			{
				"type": "unocc",
				"energy": -0.03331,
				"method": "rhf"
			},
			{
				"type": "unocc",
				"energy": 0.0043,
				"method": "rhf"
			},
			{
				"type": "unocc",
				"energy": 0.01864,
				"method": "rhf"
			},
			{
				"type": "unocc",
				"energy": 0.07197,
				"method": "rhf"
			}
		],
		"cosmo_sigma_profile": { 
			"-0.025": 0.0,
			"-0.024": 0.0,
			"-0.023": 0.0,
			"-0.022": 0.0,
			"-0.021": 0.0,
			"-0.02": 0.0,
			"-0.019": 0.161350758292,
			"-0.018": 0.834580331164,
			"-0.017": 0.970633086527,
			"-0.016": 0.855365610695,
			"-0.015": 1.25096175099,
			"-0.014": 0.431960402027,
			"-0.013": 0.255433577689,
			"-0.012": 0.419340538655,
			"-0.011": 0.989108978096,
			"-0.01": 0.916519179553,
			"-0.009": 3.50477734899,
			"-0.008": 6.69476805004,
			"-0.007": 8.31896651851,
			"-0.006": 8.1997361458,
			"-0.005": 8.06484954726,
			"-0.004": 9.22339257028,
			"-0.003": 11.6458506281,
			"-0.002": 12.7392799065,
			"-0.001": 13.4700784265,
			"0.0": 18.4165350908,
			"0.001": 26.957344932,
			"0.002": 35.4023356356,
			"0.003": 23.3291512936,
			"0.004": 13.4871522888,
			"0.005": 3.85520721819,
			"0.006": 3.19833496932,
			"0.007": 2.98670452855,
			"0.008": 3.26153940931,
			"0.009": 1.9233386244,
			"0.01": 2.03356975733,
			"0.011": 4.46974352699,
			"0.012": 3.78463066622,
			"0.013": 0.294482156222,
			"0.014": 0.0,
			"0.015": 0.0,
			"0.016": 0.0,
			"0.017": 0.0,
			"0.018": 0.0,
			"0.019": 0.0,
			"0.02": 0.0,
			"0.021": 0.0,
			"0.022": 0.0,
			"0.023": 0.0,
			"0.024": 0.0,
			"0.025": 0.0
		}
	}
}
