{
	 "smiles": "CCCCCCC(CCCCCC)CCCCCC", 
	 "Tm": 244.85, 
	 "num_atms": 59, 
	 "gaussian": { 
		 "optdone": 1, 
		 "sigma_profile": "yes", 
		 "theory": "DFT", 
		 "functional": "B3LYP", 
		 "basiset": "6-31G**", 
		 "properties": { 
			 "R2extent": 11190.6353, 
			 "electric_dipole_moment_norm": 0.0106517604179, 
			 "electric_quadrupole_moment_norm": 1.73076342115, 
			 "total_energy": -748.189138873, 
			 "HOMO_LUMO_gap": 0.35912, 
			 "cosmo_polarized_energy": -1.27, 
			 "cosmo_cavitation_energy": 55.57, 
			 "cosmo_dispersion_energy": -36.52, 
			 "cosmo_repulsion_energy": 2.97, 
			 "cosmo_total_nonelectrostatic_energy": 22.02, 
			 "SMD_solvation_energy": 7.52 
		},
		"coords": [
			{
				"x": -2.6323219377,
				"y": 2.4525634963,
				"z": 5.2083688146,
				"element": "C" 
			},
			{
				"x": -1.3973973386,
				"y": 1.9920511155,
				"z": 4.4266647739,
				"element": "C" 
			},
			{
				"x": -1.7308122636,
				"y": 0.9663679242,
				"z": 3.3337539859,
				"element": "C" 
			},
			{
				"x": -0.5165452313,
				"y": 0.4153117462,
				"z": 2.5665808216,
				"element": "C" 
			},
			{
				"x": 0.2150345992,
				"y": 1.4515472896,
				"z": 1.6996967122,
				"element": "C" 
			},
			{
				"x": 1.4285943112,
				"y": 0.9008223549,
				"z": 0.9280866494,
				"element": "C" 
			},
			{
				"x": 1.1364226741,
				"y": -0.1182791248,
				"z": -0.1973823816,
				"element": "C" 
			},
			{
				"x": 2.4408511967,
				"y": -0.7875445815,
				"z": -0.6975926266,
				"element": "C" 
			},
			{
				"x": 3.4762286662,
				"y": 0.14764987,
				"z": -1.3430231577,
				"element": "C" 
			},
			{
				"x": 4.756751642,
				"y": -0.565686868,
				"z": -1.8165391974,
				"element": "C" 
			},
			{
				"x": 4.5788132577,
				"y": -1.6010396291,
				"z": -2.9433552463,
				"element": "C" 
			},
			{
				"x": 4.0043913278,
				"y": -1.0604875089,
				"z": -4.2646782685,
				"element": "C" 
			},
			{
				"x": 4.8746013676,
				"y": 0.0024097976,
				"z": -4.94584285,
				"element": "C" 
			},
			{
				"x": 0.3112544375,
				"y": 0.495588309,
				"z": -1.3639946088,
				"element": "C" 
			},
			{
				"x": -1.1973728711,
				"y": 0.181928925,
				"z": -1.3480487958,
				"element": "C" 
			},
			{
				"x": -1.5403548908,
				"y": -1.2729355082,
				"z": -1.6991444435,
				"element": "C" 
			},
			{
				"x": -3.045786315,
				"y": -1.5666696934,
				"z": -1.673950013,
				"element": "C" 
			},
			{
				"x": -3.3965805267,
				"y": -3.014594866,
				"z": -2.0396372377,
				"element": "C" 
			},
			{
				"x": -4.9018462967,
				"y": -3.2984604294,
				"z": -2.0111564028,
				"element": "C" 
			},
			{
				"x": -3.3671769217,
				"y": 2.9242362295,
				"z": 4.545737489,
				"element": "H" 
			},
			{
				"x": -3.1281808314,
				"y": 1.6076452278,
				"z": 5.7001300996,
				"element": "H" 
			},
			{
				"x": -2.3690998745,
				"y": 3.1803342803,
				"z": 5.9830804059,
				"element": "H" 
			},
			{
				"x": -0.66734551,
				"y": 1.5525230803,
				"z": 5.1206130818,
				"element": "H" 
			},
			{
				"x": -0.9060562918,
				"y": 2.8668529654,
				"z": 3.9829692928,
				"element": "H" 
			},
			{
				"x": -2.4374222493,
				"y": 1.4156238224,
				"z": 2.6205257742,
				"element": "H" 
			},
			{
				"x": -2.2657492026,
				"y": 0.125614636,
				"z": 3.7966677423,
				"element": "H" 
			},
			{
				"x": -0.8553388868,
				"y": -0.4159659212,
				"z": 1.935831211,
				"element": "H" 
			},
			{
				"x": 0.1958388523,
				"y": -0.0212687095,
				"z": 3.2818954757,
				"element": "H" 
			},
			{
				"x": 0.5691858142,
				"y": 2.2690264066,
				"z": 2.339945431,
				"element": "H" 
			},
			{
				"x": -0.4973883056,
				"y": 1.9107936082,
				"z": 1.0009022141,
				"element": "H" 
			},
			{
				"x": 2.1158011997,
				"y": 0.436785894,
				"z": 1.6505731135,
				"element": "H" 
			},
			{
				"x": 1.9733797552,
				"y": 1.751149383,
				"z": 0.4979493089,
				"element": "H" 
			},
			{
				"x": 0.5430996591,
				"y": -0.9324716894,
				"z": 0.2404267528,
				"element": "H" 
			},
			{
				"x": 2.1618970045,
				"y": -1.5708305595,
				"z": -1.4142798516,
				"element": "H" 
			},
			{
				"x": 2.9174017466,
				"y": -1.3060971036,
				"z": 0.1469837931,
				"element": "H" 
			},
			{
				"x": 3.7697339111,
				"y": 0.9192261506,
				"z": -0.6210403351,
				"element": "H" 
			},
			{
				"x": 3.0197165105,
				"y": 0.6846377673,
				"z": -2.1844537661,
				"element": "H" 
			},
			{
				"x": 5.4815941176,
				"y": 0.1938164003,
				"z": -2.1361503509,
				"element": "H" 
			},
			{
				"x": 5.2170694212,
				"y": -1.0702171828,
				"z": -0.9557870757,
				"element": "H" 
			},
			{
				"x": 5.5579709043,
				"y": -2.0562308484,
				"z": -3.1473241799,
				"element": "H" 
			},
			{
				"x": 3.93912174,
				"y": -2.4198076823,
				"z": -2.5906009782,
				"element": "H" 
			},
			{
				"x": 2.9987758708,
				"y": -0.6538153037,
				"z": -4.0955042388,
				"element": "H" 
			},
			{
				"x": 3.8705395166,
				"y": -1.9055538622,
				"z": -4.9522732863,
				"element": "H" 
			},
			{
				"x": 4.9683088965,
				"y": 0.906864844,
				"z": -4.3357942637,
				"element": "H" 
			},
			{
				"x": 5.8867470223,
				"y": -0.3761396485,
				"z": -5.1315893819,
				"element": "H" 
			},
			{
				"x": 4.4501490502,
				"y": 0.3009993318,
				"z": -5.9101581982,
				"element": "H" 
			},
			{
				"x": 0.7132421131,
				"y": 0.1413576784,
				"z": -2.3230411627,
				"element": "H" 
			},
			{
				"x": 0.4490333348,
				"y": 1.5846398047,
				"z": -1.3737286555,
				"element": "H" 
			},
			{
				"x": -1.6217799689,
				"y": 0.42595865,
				"z": -0.3654914434,
				"element": "H" 
			},
			{
				"x": -1.7030155375,
				"y": 0.841928805,
				"z": -2.0663073153,
				"element": "H" 
			},
			{
				"x": -1.1416570837,
				"y": -1.5039355748,
				"z": -2.6976569931,
				"element": "H" 
			},
			{
				"x": -1.0310199772,
				"y": -1.956649561,
				"z": -1.0058907504,
				"element": "H" 
			},
			{
				"x": -3.5611368016,
				"y": -0.8840736387,
				"z": -2.3651524996,
				"element": "H" 
			},
			{
				"x": -3.443678809,
				"y": -1.3397294914,
				"z": -0.6742489042,
				"element": "H" 
			},
			{
				"x": -3.000114809,
				"y": -3.2411617345,
				"z": -3.0388655936,
				"element": "H" 
			},
			{
				"x": -2.8822303205,
				"y": -3.6966793647,
				"z": -1.3488030114,
				"element": "H" 
			},
			{
				"x": -5.4396910513,
				"y": -2.6559300519,
				"z": -2.7177973868,
				"element": "H" 
			},
			{
				"x": -5.119432002,
				"y": -4.3384050694,
				"z": -2.2762312702,
				"element": "H" 
			},
			{
				"x": -5.3210178146,
				"y": -3.1146945872,
				"z": -1.0151668205,
				"element": "H" 
			}
		],
		 "valence_orbital": [ 
			{
				"type": "occ",
				"energy": -0.30618,
				"method": "rhf"
			},
			{
				"type": "occ",
				"energy": -0.30067,
				"method": "rhf"
			},
			{
				"type": "occ",
				"energy": -0.29584,
				"method": "rhf"
			},
			{
				"type": "occ",
				"energy": -0.29108,
				"method": "rhf"
			},
			{
				"type": "occ",
				"energy": -0.2846,
				"method": "rhf"
			},
			{
				"type": "unocc",
				"energy": 0.07452,
				"method": "rhf"
			},
			{
				"type": "unocc",
				"energy": 0.07718,
				"method": "rhf"
			},
			{
				"type": "unocc",
				"energy": 0.09376,
				"method": "rhf"
			},
			{
				"type": "unocc",
				"energy": 0.09937,
				"method": "rhf"
			},
			{
				"type": "unocc",
				"energy": 0.10215,
				"method": "rhf"
			}
		],
		"cosmo_sigma_profile": { 
			"-0.025": 0.0,
			"-0.024": 0.0,
			"-0.023": 0.0,
			"-0.022": 0.0,
			"-0.021": 0.0,
			"-0.02": 0.0,
			"-0.019": 0.0,
			"-0.018": 0.0,
			"-0.017": 0.0,
			"-0.016": 0.0,
			"-0.015": 0.0,
			"-0.014": 0.0,
			"-0.013": 0.0,
			"-0.012": 0.0,
			"-0.011": 0.0,
			"-0.01": 0.0,
			"-0.009": 0.0,
			"-0.008": 0.0,
			"-0.007": 0.0,
			"-0.006": 0.0,
			"-0.005": 0.0,
			"-0.004": 0.0,
			"-0.003": 3.98791374186,
			"-0.002": 45.0351016197,
			"-0.001": 106.387399237,
			"0.0": 114.613208254,
			"0.001": 101.196005186,
			"0.002": 50.4141630345,
			"0.003": 1.87447704306,
			"0.004": 0.0,
			"0.005": 0.0,
			"0.006": 0.0,
			"0.007": 0.0,
			"0.008": 0.0,
			"0.009": 0.0,
			"0.01": 0.0,
			"0.011": 0.0,
			"0.012": 0.0,
			"0.013": 0.0,
			"0.014": 0.0,
			"0.015": 0.0,
			"0.016": 0.0,
			"0.017": 0.0,
			"0.018": 0.0,
			"0.019": 0.0,
			"0.02": 0.0,
			"0.021": 0.0,
			"0.022": 0.0,
			"0.023": 0.0,
			"0.024": 0.0,
			"0.025": 0.0
		}
	}
}
