{
	 "smiles": "COC1=C(N)C=C(C=C1)C(=O)N(C)C", 
	 "Tm": 393.15, 
	 "num_atms": 28, 
	 "gaussian": { 
		 "optdone": 1, 
		 "sigma_profile": "yes", 
		 "theory": "DFT", 
		 "functional": "B3LYP", 
		 "basiset": "6-31G**", 
		 "properties": { 
			 "R2extent": 4074.174, 
			 "electric_dipole_moment_norm": 4.77257141382, 
			 "electric_quadrupole_moment_norm": 21.7678800399, 
			 "total_energy": -649.452791659, 
			 "HOMO_LUMO_gap": 0.18229, 
			 "cosmo_polarized_energy": -15.59, 
			 "cosmo_cavitation_energy": 30.88, 
			 "cosmo_dispersion_energy": -22.52, 
			 "cosmo_repulsion_energy": 1.79, 
			 "cosmo_total_nonelectrostatic_energy": 10.15, 
			 "SMD_solvation_energy": 6.49 
		},
		"coords": [
			{
				"x": -0.1286171487,
				"y": 4.238737021,
				"z": 0.5069307347,
				"element": "C" 
			},
			{
				"x": 0.8939330082,
				"y": 3.356827082,
				"z": 0.9392134925,
				"element": "O" 
			},
			{
				"x": 0.5969298391,
				"y": 2.0222729158,
				"z": 1.0461025195,
				"element": "C" 
			},
			{
				"x": 1.6757929865,
				"y": 1.2178316369,
				"z": 1.493351576,
				"element": "C" 
			},
			{
				"x": 2.8746743163,
				"y": 1.8296719764,
				"z": 1.8461629639,
				"element": "N" 
			},
			{
				"x": 1.4691061759,
				"y": -0.1552485082,
				"z": 1.6192242951,
				"element": "C" 
			},
			{
				"x": 0.2382153122,
				"y": -0.7450623581,
				"z": 1.2950311212,
				"element": "C" 
			},
			{
				"x": -0.8191521253,
				"y": 0.0664075661,
				"z": 0.8752299215,
				"element": "C" 
			},
			{
				"x": -0.6375580893,
				"y": 1.4490093699,
				"z": 0.7539563966,
				"element": "C" 
			},
			{
				"x": 0.0977738085,
				"y": -2.219441054,
				"z": 1.5512187321,
				"element": "C" 
			},
			{
				"x": 0.6351285674,
				"y": -2.7274621571,
				"z": 2.5347827089,
				"element": "O" 
			},
			{
				"x": -0.6839206354,
				"y": -2.9706976869,
				"z": 0.6923832658,
				"element": "N" 
			},
			{
				"x": -0.9186320335,
				"y": -4.3644119314,
				"z": 1.0448166193,
				"element": "C" 
			},
			{
				"x": -0.9271806543,
				"y": -2.6486193599,
				"z": -0.7068852225,
				"element": "C" 
			},
			{
				"x": -0.4819035626,
				"y": 3.9844995783,
				"z": -0.500894864,
				"element": "H" 
			},
			{
				"x": -0.9816227062,
				"y": 4.2340795257,
				"z": 1.1972293268,
				"element": "H" 
			},
			{
				"x": 0.3154055259,
				"y": 5.2354034216,
				"z": 0.491860294,
				"element": "H" 
			},
			{
				"x": 3.0147294597,
				"y": 2.7420587904,
				"z": 1.4361205077,
				"element": "H" 
			},
			{
				"x": 3.6910783988,
				"y": 1.2372292446,
				"z": 1.8028483452,
				"element": "H" 
			},
			{
				"x": 2.2660694749,
				"y": -0.789420869,
				"z": 1.9955568746,
				"element": "H" 
			},
			{
				"x": -1.7941094977,
				"y": -0.3621889663,
				"z": 0.6693397283,
				"element": "H" 
			},
			{
				"x": -1.4674134174,
				"y": 2.0689518015,
				"z": 0.4350355066,
				"element": "H" 
			},
			{
				"x": -0.2028778326,
				"y": -5.0337852154,
				"z": 0.5461984519,
				"element": "H" 
			},
			{
				"x": -1.9303267962,
				"y": -4.6524673889,
				"z": 0.7379292738,
				"element": "H" 
			},
			{
				"x": -0.8070609366,
				"y": -4.482255285,
				"z": 2.1211626341,
				"element": "H" 
			},
			{
				"x": -0.4263422904,
				"y": -3.3816412125,
				"z": -1.3553636497,
				"element": "H" 
			},
			{
				"x": -2.0000063294,
				"y": -2.6753611619,
				"z": -0.9381139894,
				"element": "H" 
			},
			{
				"x": -0.5429128181,
				"y": -1.6598167754,
				"z": -0.9476275643,
				"element": "H" 
			}
		],
		 "valence_orbital": [ 
			{
				"type": "occ",
				"energy": -0.30317,
				"method": "rhf"
			},
			{
				"type": "occ",
				"energy": -0.24567,
				"method": "rhf"
			},
			{
				"type": "occ",
				"energy": -0.22931,
				"method": "rhf"
			},
			{
				"type": "occ",
				"energy": -0.22146,
				"method": "rhf"
			},
			{
				"type": "occ",
				"energy": -0.1921,
				"method": "rhf"
			},
			{
				"type": "unocc",
				"energy": -0.00981,
				"method": "rhf"
			},
			{
				"type": "unocc",
				"energy": 0.01279,
				"method": "rhf"
			},
			{
				"type": "unocc",
				"energy": 0.06881,
				"method": "rhf"
			},
			{
				"type": "unocc",
				"energy": 0.08636,
				"method": "rhf"
			},
			{
				"type": "unocc",
				"energy": 0.09404,
				"method": "rhf"
			}
		],
		"cosmo_sigma_profile": { 
			"-0.025": 0.0,
			"-0.024": 0.0,
			"-0.023": 0.0,
			"-0.022": 0.0,
			"-0.021": 0.0,
			"-0.02": 0.0,
			"-0.019": 0.0,
			"-0.018": 0.0,
			"-0.017": 0.0,
			"-0.016": 0.0,
			"-0.015": 0.0,
			"-0.014": 0.0,
			"-0.013": 0.278374280334,
			"-0.012": 1.20328809398,
			"-0.011": 1.82158366544,
			"-0.01": 2.23753046939,
			"-0.009": 3.00751967465,
			"-0.008": 2.12359770953,
			"-0.007": 2.12932732309,
			"-0.006": 8.22846016661,
			"-0.005": 17.5880828853,
			"-0.004": 28.6236139941,
			"-0.003": 28.4893562522,
			"-0.002": 24.9603715235,
			"-0.001": 20.0583721362,
			"0.0": 11.0663961578,
			"0.001": 10.706896088,
			"0.002": 11.0195546085,
			"0.003": 11.4054795333,
			"0.004": 11.1620576542,
			"0.005": 11.6453263189,
			"0.006": 7.18687194987,
			"0.007": 4.33088479502,
			"0.008": 3.23336264827,
			"0.009": 3.01756927595,
			"0.01": 2.31318745774,
			"0.011": 2.42130297961,
			"0.012": 2.20470278985,
			"0.013": 3.42747303945,
			"0.014": 5.67918354253,
			"0.015": 1.8081936519,
			"0.016": 0.102228726853,
			"0.017": 0.0,
			"0.018": 0.0,
			"0.019": 0.0,
			"0.02": 0.0,
			"0.021": 0.0,
			"0.022": 0.0,
			"0.023": 0.0,
			"0.024": 0.0,
			"0.025": 0.0
		}
	}
}
