{
	 "smiles": "O=C1NC2=C(CN(CC3=CC=CC=C3)CC2)C=C1C#N", 
	 "Tm": 492.15, 
	 "num_atms": 35, 
	 "gaussian": { 
		 "optdone": 1, 
		 "sigma_profile": "yes", 
		 "theory": "DFT", 
		 "functional": "B3LYP", 
		 "basiset": "6-31G**", 
		 "properties": { 
			 "R2extent": 7798.4891, 
			 "electric_dipole_moment_norm": 8.82126107368, 
			 "electric_quadrupole_moment_norm": 40.7082331587, 
			 "total_energy": -858.209437954, 
			 "HOMO_LUMO_gap": 0.15457, 
			 "cosmo_polarized_energy": -24.43, 
			 "cosmo_cavitation_energy": 38.91, 
			 "cosmo_dispersion_energy": -27.1, 
			 "cosmo_repulsion_energy": 2.07, 
			 "cosmo_total_nonelectrostatic_energy": 13.88, 
			 "SMD_solvation_energy": 6.27 
		},
		"coords": [
			{
				"x": -0.8671998054,
				"y": 0.6282679753,
				"z": -4.5376011728,
				"element": "O" 
			},
			{
				"x": -0.3721971631,
				"y": 0.3531469377,
				"z": -3.4545339917,
				"element": "C" 
			},
			{
				"x": -0.6894651981,
				"y": 1.1149478517,
				"z": -2.310612989,
				"element": "N" 
			},
			{
				"x": -0.2169039332,
				"y": 0.9300047984,
				"z": -1.0429729902,
				"element": "C" 
			},
			{
				"x": 0.6602303686,
				"y": -0.1005613949,
				"z": -0.7905343339,
				"element": "C" 
			},
			{
				"x": 1.2190088159,
				"y": -0.3036146944,
				"z": 0.6129221439,
				"element": "C" 
			},
			{
				"x": 0.4240747884,
				"y": 0.3171377412,
				"z": 1.6701777835,
				"element": "N" 
			},
			{
				"x": -0.7504934075,
				"y": -0.4718516562,
				"z": 2.0671490599,
				"element": "C" 
			},
			{
				"x": -1.3892478612,
				"y": 0.0354449288,
				"z": 3.3461899771,
				"element": "C" 
			},
			{
				"x": -0.5999734194,
				"y": 0.3318818613,
				"z": 4.4668334065,
				"element": "C" 
			},
			{
				"x": -1.189428383,
				"y": 0.7599061196,
				"z": 5.6554283272,
				"element": "C" 
			},
			{
				"x": -2.5779937103,
				"y": 0.8949934828,
				"z": 5.7436044337,
				"element": "C" 
			},
			{
				"x": -3.3713527214,
				"y": 0.6033792832,
				"z": 4.6340766064,
				"element": "C" 
			},
			{
				"x": -2.7775861011,
				"y": 0.1802268786,
				"z": 3.4422484338,
				"element": "C" 
			},
			{
				"x": 0.1268539794,
				"y": 1.7078586186,
				"z": 1.3251490008,
				"element": "C" 
			},
			{
				"x": -0.7113775865,
				"y": 1.85770404,
				"z": 0.035915694,
				"element": "C" 
			},
			{
				"x": 1.0459345869,
				"y": -0.9227136962,
				"z": -1.8792412151,
				"element": "C" 
			},
			{
				"x": 0.5677647557,
				"y": -0.7301874287,
				"z": -3.1585185553,
				"element": "C" 
			},
			{
				"x": 0.9689147815,
				"y": -1.5815882741,
				"z": -4.2314414694,
				"element": "C" 
			},
			{
				"x": 1.3165772141,
				"y": -2.2937852656,
				"z": -5.0835136833,
				"element": "N" 
			},
			{
				"x": -1.3379748449,
				"y": 1.8713660802,
				"z": -2.4995206918,
				"element": "H" 
			},
			{
				"x": 1.3143269864,
				"y": -1.3743776675,
				"z": 0.8241773259,
				"element": "H" 
			},
			{
				"x": 2.2360618099,
				"y": 0.1129091303,
				"z": 0.6617781405,
				"element": "H" 
			},
			{
				"x": -0.3959826308,
				"y": -1.4983168215,
				"z": 2.2267057504,
				"element": "H" 
			},
			{
				"x": -1.5220405931,
				"y": -0.5382525746,
				"z": 1.2796830105,
				"element": "H" 
			},
			{
				"x": 0.4787628844,
				"y": 0.2330602662,
				"z": 4.3900791939,
				"element": "H" 
			},
			{
				"x": -0.5660031444,
				"y": 0.9863256145,
				"z": 6.5159689859,
				"element": "H" 
			},
			{
				"x": -3.0363560728,
				"y": 1.2270454145,
				"z": 6.6706873904,
				"element": "H" 
			},
			{
				"x": -4.4509999259,
				"y": 0.7088180098,
				"z": 4.6920683295,
				"element": "H" 
			},
			{
				"x": -3.4006095283,
				"y": -0.0453146228,
				"z": 2.579571421,
				"element": "H" 
			},
			{
				"x": 1.0834751504,
				"y": 2.2280900706,
				"z": 1.1965172148,
				"element": "H" 
			},
			{
				"x": -0.3916130196,
				"y": 2.1830651609,
				"z": 2.1614042448,
				"element": "H" 
			},
			{
				"x": -1.7686498403,
				"y": 1.6361260089,
				"z": 0.2377744267,
				"element": "H" 
			},
			{
				"x": -0.6783325186,
				"y": 2.8965358347,
				"z": -0.3169441355,
				"element": "H" 
			},
			{
				"x": 1.7412952871,
				"y": -1.7400780115,
				"z": -1.702175073,
				"element": "H" 
			}
		],
		 "valence_orbital": [ 
			{
				"type": "occ",
				"energy": -0.26668,
				"method": "rhf"
			},
			{
				"type": "occ",
				"energy": -0.25986,
				"method": "rhf"
			},
			{
				"type": "occ",
				"energy": -0.25516,
				"method": "rhf"
			},
			{
				"type": "occ",
				"energy": -0.23592,
				"method": "rhf"
			},
			{
				"type": "occ",
				"energy": -0.22803,
				"method": "rhf"
			},
			{
				"type": "unocc",
				"energy": -0.07346,
				"method": "rhf"
			},
			{
				"type": "unocc",
				"energy": -0.01522,
				"method": "rhf"
			},
			{
				"type": "unocc",
				"energy": -0.01093,
				"method": "rhf"
			},
			{
				"type": "unocc",
				"energy": -0.00444,
				"method": "rhf"
			},
			{
				"type": "unocc",
				"energy": 0.03999,
				"method": "rhf"
			}
		],
		"cosmo_sigma_profile": { 
			"-0.025": 0.0,
			"-0.024": 0.0,
			"-0.023": 0.0,
			"-0.022": 0.0,
			"-0.021": 0.0,
			"-0.02": 0.0,
			"-0.019": 0.0,
			"-0.018": 0.0,
			"-0.017": 0.111145512305,
			"-0.016": 1.1002552181,
			"-0.015": 0.716446073303,
			"-0.014": 1.11483706031,
			"-0.013": 1.38105305042,
			"-0.012": 1.36173166045,
			"-0.011": 0.80883365235,
			"-0.01": 1.23021031552,
			"-0.009": 3.24926851274,
			"-0.008": 4.14306249591,
			"-0.007": 5.14990179863,
			"-0.006": 12.8797022681,
			"-0.005": 28.0230704699,
			"-0.004": 30.1996210943,
			"-0.003": 32.0812473922,
			"-0.002": 26.2234505657,
			"-0.001": 24.5547247268,
			"0.0": 19.6327942759,
			"0.001": 12.7654771759,
			"0.002": 11.2904586102,
			"0.003": 12.2116586735,
			"0.004": 10.590134241,
			"0.005": 11.0600550981,
			"0.006": 12.9979036379,
			"0.007": 7.29907152889,
			"0.008": 5.33817495883,
			"0.009": 5.7668073207,
			"0.01": 5.54903015066,
			"0.011": 5.33285194874,
			"0.012": 4.73812551846,
			"0.013": 8.26525277129,
			"0.014": 2.75918159377,
			"0.015": 0.0,
			"0.016": 0.0,
			"0.017": 0.0,
			"0.018": 0.0,
			"0.019": 0.0,
			"0.02": 0.0,
			"0.021": 0.0,
			"0.022": 0.0,
			"0.023": 0.0,
			"0.024": 0.0,
			"0.025": 0.0
		}
	}
}
