{
	 "smiles": "BrC1=CN=C(S1)N1C(=O)CCCC1=O", 
	 "Tm": 413.15, 
	 "num_atms": 21, 
	 "gaussian": { 
		 "optdone": 1, 
		 "sigma_profile": "yes", 
		 "theory": "DFT", 
		 "functional": "B3LYP", 
		 "basiset": "6-31G**", 
		 "properties": { 
			 "R2extent": 7078.7935, 
			 "electric_dipole_moment_norm": 3.67964102189, 
			 "electric_quadrupole_moment_norm": 18.631658186, 
			 "total_energy": -3538.61158045, 
			 "HOMO_LUMO_gap": 0.20315, 
			 "cosmo_polarized_energy": -15.04, 
			 "cosmo_cavitation_energy": 29.7, 
			 "cosmo_dispersion_energy": -22.11, 
			 "cosmo_repulsion_energy": 1.72, 
			 "cosmo_total_nonelectrostatic_energy": 9.31, 
			 "SMD_solvation_energy": 2.73 
		},
		"coords": [
			{
				"x": -3.9144049287,
				"y": 0.9589858609,
				"z": 4.0661999067,
				"element": "Br" 
			},
			{
				"x": -2.404237938,
				"y": 0.964570549,
				"z": 2.9456409438,
				"element": "C" 
			},
			{
				"x": -1.0962720598,
				"y": 0.8316756731,
				"z": 3.3194350641,
				"element": "C" 
			},
			{
				"x": -0.1880485353,
				"y": 0.8711196107,
				"z": 2.2912673516,
				"element": "N" 
			},
			{
				"x": -0.7843638862,
				"y": 1.0309047169,
				"z": 1.1516992228,
				"element": "C" 
			},
			{
				"x": -2.5314868055,
				"y": 1.1501250824,
				"z": 1.2223384183,
				"element": "S" 
			},
			{
				"x": -0.0932024863,
				"y": 1.1073896466,
				"z": -0.0876124573,
				"element": "N" 
			},
			{
				"x": 0.1397682779,
				"y": -0.1173399296,
				"z": -0.7724697335,
				"element": "C" 
			},
			{
				"x": -0.3211319594,
				"y": -1.1540120053,
				"z": -0.3473211889,
				"element": "O" 
			},
			{
				"x": 0.9576472485,
				"y": -0.0274741426,
				"z": -2.0470768134,
				"element": "C" 
			},
			{
				"x": 1.9171208802,
				"y": 1.1627416611,
				"z": -2.0656585132,
				"element": "C" 
			},
			{
				"x": 1.1394645167,
				"y": 2.450570808,
				"z": -1.7931300339,
				"element": "C" 
			},
			{
				"x": 0.3235621152,
				"y": 2.3984467298,
				"z": -0.5150627516,
				"element": "C" 
			},
			{
				"x": 0.0098661922,
				"y": 3.3835752007,
				"z": 0.1165925922,
				"element": "O" 
			},
			{
				"x": -0.7561905377,
				"y": 0.7027269325,
				"z": 4.3388798549,
				"element": "H" 
			},
			{
				"x": 1.4687863358,
				"y": -0.9869505398,
				"z": -2.154466132,
				"element": "H" 
			},
			{
				"x": 0.2462192139,
				"y": 0.0464143434,
				"z": -2.8816919778,
				"element": "H" 
			},
			{
				"x": 2.4268330953,
				"y": 1.2243365474,
				"z": -3.0316253658,
				"element": "H" 
			},
			{
				"x": 2.6932411002,
				"y": 1.0276795307,
				"z": -1.3033445559,
				"element": "H" 
			},
			{
				"x": 0.4377746594,
				"y": 2.6505572852,
				"z": -2.6151909389,
				"element": "H" 
			},
			{
				"x": 1.7854555015,
				"y": 3.3277564388,
				"z": -1.7116028922,
				"element": "H" 
			}
		],
		 "valence_orbital": [ 
			{
				"type": "occ",
				"energy": -0.29357,
				"method": "rhf"
			},
			{
				"type": "occ",
				"energy": -0.28925,
				"method": "rhf"
			},
			{
				"type": "occ",
				"energy": -0.28231,
				"method": "rhf"
			},
			{
				"type": "occ",
				"energy": -0.27065,
				"method": "rhf"
			},
			{
				"type": "occ",
				"energy": -0.24586,
				"method": "rhf"
			},
			{
				"type": "unocc",
				"energy": -0.04271,
				"method": "rhf"
			},
			{
				"type": "unocc",
				"energy": -0.03508,
				"method": "rhf"
			},
			{
				"type": "unocc",
				"energy": -0.01252,
				"method": "rhf"
			},
			{
				"type": "unocc",
				"energy": -0.00214,
				"method": "rhf"
			},
			{
				"type": "unocc",
				"energy": 0.01599,
				"method": "rhf"
			}
		],
		"cosmo_sigma_profile": { 
			"-0.025": 0.0,
			"-0.024": 0.0,
			"-0.023": 0.0,
			"-0.022": 0.0,
			"-0.021": 0.0,
			"-0.02": 0.0,
			"-0.019": 0.0,
			"-0.018": 0.0,
			"-0.017": 0.0,
			"-0.016": 0.0,
			"-0.015": 0.0,
			"-0.014": 0.0,
			"-0.013": 0.0,
			"-0.012": 0.0,
			"-0.011": 0.0,
			"-0.01": 0.388291212585,
			"-0.009": 3.05491178105,
			"-0.008": 5.96518554232,
			"-0.007": 11.6872576164,
			"-0.006": 16.130676735,
			"-0.005": 19.6072077818,
			"-0.004": 18.4783553096,
			"-0.003": 20.0524491577,
			"-0.002": 15.3132936228,
			"-0.001": 16.0581008005,
			"0.0": 16.2984910236,
			"0.001": 17.7478967659,
			"0.002": 15.5325274877,
			"0.003": 13.3054501659,
			"0.004": 5.29125786408,
			"0.005": 5.36975248135,
			"0.006": 5.12281485689,
			"0.007": 5.32124534796,
			"0.008": 4.72344085729,
			"0.009": 5.68970959554,
			"0.01": 5.59921916965,
			"0.011": 10.2978033827,
			"0.012": 4.9260099788,
			"0.013": 0.912393109377,
			"0.014": 0.0904278766543,
			"0.015": 0.0,
			"0.016": 0.0,
			"0.017": 0.0,
			"0.018": 0.0,
			"0.019": 0.0,
			"0.02": 0.0,
			"0.021": 0.0,
			"0.022": 0.0,
			"0.023": 0.0,
			"0.024": 0.0,
			"0.025": 0.0
		}
	}
}
