{
	 "smiles": "CC(C(N)=O)C(N)=O", 
	 "Tm": 482.15, 
	 "num_atms": 16, 
	 "gaussian": { 
		 "optdone": 1, 
		 "sigma_profile": "yes", 
		 "theory": "DFT", 
		 "functional": "B3LYP", 
		 "basiset": "6-31G**", 
		 "properties": { 
			 "R2extent": 1608.5298, 
			 "electric_dipole_moment_norm": 2.94423332465, 
			 "electric_quadrupole_moment_norm": 12.8931686082, 
			 "total_energy": -417.24006567, 
			 "HOMO_LUMO_gap": 0.25303, 
			 "cosmo_polarized_energy": -16.09, 
			 "cosmo_cavitation_energy": 19.41, 
			 "cosmo_dispersion_energy": -14.55, 
			 "cosmo_repulsion_energy": 1.24, 
			 "cosmo_total_nonelectrostatic_energy": 6.1, 
			 "SMD_solvation_energy": 4.87 
		},
		"coords": [
			{
				"x": -1.023677657,
				"y": -1.1641445236,
				"z": -1.2874930014,
				"element": "C" 
			},
			{
				"x": 0.1085315874,
				"y": -0.1462979987,
				"z": -1.4308047147,
				"element": "C" 
			},
			{
				"x": 1.0362622084,
				"y": -0.1888024757,
				"z": -0.1836687426,
				"element": "C" 
			},
			{
				"x": 2.0533749942,
				"y": 0.7128756152,
				"z": -0.2067653301,
				"element": "N" 
			},
			{
				"x": 0.8052998249,
				"y": -0.9403983019,
				"z": 0.7530013968,
				"element": "O" 
			},
			{
				"x": 0.9333219453,
				"y": -0.2173568091,
				"z": -2.7255120192,
				"element": "C" 
			},
			{
				"x": 0.669179848,
				"y": -1.2454159489,
				"z": -3.5721913561,
				"element": "N" 
			},
			{
				"x": 1.7910909566,
				"y": 0.6268412521,
				"z": -2.9850533308,
				"element": "O" 
			},
			{
				"x": -0.6383810919,
				"y": -2.1868801845,
				"z": -1.229426382,
				"element": "H" 
			},
			{
				"x": -1.5617730839,
				"y": -0.9870436281,
				"z": -0.3552303705,
				"element": "H" 
			},
			{
				"x": -1.7337716241,
				"y": -1.0854856706,
				"z": -2.116872716,
				"element": "H" 
			},
			{
				"x": -0.3136609372,
				"y": 0.8671730621,
				"z": -1.448493831,
				"element": "H" 
			},
			{
				"x": 2.3109996646,
				"y": 1.1159333875,
				"z": -1.1023865967,
				"element": "H" 
			},
			{
				"x": 2.7397986832,
				"y": 0.6424919293,
				"z": 0.5300756247,
				"element": "H" 
			},
			{
				"x": 1.2168573696,
				"y": -1.3093791033,
				"z": -4.4170045611,
				"element": "H" 
			},
			{
				"x": -0.0067526881,
				"y": -1.9615106017,
				"z": -3.3668740692,
				"element": "H" 
			}
		],
		 "valence_orbital": [ 
			{
				"type": "occ",
				"energy": -0.35729,
				"method": "rhf"
			},
			{
				"type": "occ",
				"energy": -0.28303,
				"method": "rhf"
			},
			{
				"type": "occ",
				"energy": -0.26554,
				"method": "rhf"
			},
			{
				"type": "occ",
				"energy": -0.26015,
				"method": "rhf"
			},
			{
				"type": "occ",
				"energy": -0.24601,
				"method": "rhf"
			},
			{
				"type": "unocc",
				"energy": 0.00702,
				"method": "rhf"
			},
			{
				"type": "unocc",
				"energy": 0.04145,
				"method": "rhf"
			},
			{
				"type": "unocc",
				"energy": 0.06569,
				"method": "rhf"
			},
			{
				"type": "unocc",
				"energy": 0.10878,
				"method": "rhf"
			},
			{
				"type": "unocc",
				"energy": 0.11715,
				"method": "rhf"
			}
		],
		"cosmo_sigma_profile": { 
			"-0.025": 0.0,
			"-0.024": 0.0,
			"-0.023": 0.0,
			"-0.022": 0.0,
			"-0.021": 0.0,
			"-0.02": 0.0,
			"-0.019": 0.0,
			"-0.018": 0.0,
			"-0.017": 0.0,
			"-0.016": 0.0,
			"-0.015": 0.188122764048,
			"-0.014": 2.03238809336,
			"-0.013": 3.15876751513,
			"-0.012": 3.39208406314,
			"-0.011": 3.49659301508,
			"-0.01": 3.65422894797,
			"-0.009": 3.91366319005,
			"-0.008": 3.989346558,
			"-0.007": 4.5033323764,
			"-0.006": 6.33071657376,
			"-0.005": 6.85254199635,
			"-0.004": 11.5117733803,
			"-0.003": 10.4752278474,
			"-0.002": 7.86157315837,
			"-0.001": 7.95440284403,
			"0.0": 10.6082161964,
			"0.001": 7.04275560661,
			"0.002": 5.53345510729,
			"0.003": 5.45823337911,
			"0.004": 4.62382103586,
			"0.005": 3.52385860511,
			"0.006": 3.02017038875,
			"0.007": 2.8273922223,
			"0.008": 3.96169300558,
			"0.009": 2.20341077644,
			"0.01": 2.54330735444,
			"0.011": 2.77825339992,
			"0.012": 4.55862810667,
			"0.013": 7.08871362921,
			"0.014": 6.11251732899,
			"0.015": 0.581276016963,
			"0.016": 0.0,
			"0.017": 0.0,
			"0.018": 0.0,
			"0.019": 0.0,
			"0.02": 0.0,
			"0.021": 0.0,
			"0.022": 0.0,
			"0.023": 0.0,
			"0.024": 0.0,
			"0.025": 0.0
		}
	}
}
