{
	 "smiles": "C=CCN1C(=S)SC2=C1N=CNC2=O", 
	 "Tm": 490.15, 
	 "num_atms": 21, 
	 "gaussian": { 
		 "optdone": 1, 
		 "sigma_profile": "yes", 
		 "theory": "DFT", 
		 "functional": "B3LYP", 
		 "basiset": "6-31G**", 
		 "properties": { 
			 "R2extent": 4683.8691, 
			 "electric_dipole_moment_norm": 6.7293549624, 
			 "electric_quadrupole_moment_norm": 19.2753365895, 
			 "total_energy": -1344.92115957, 
			 "HOMO_LUMO_gap": 0.14987, 
			 "cosmo_polarized_energy": -18.6, 
			 "cosmo_cavitation_energy": 29.37, 
			 "cosmo_dispersion_energy": -21.75, 
			 "cosmo_repulsion_energy": 1.61, 
			 "cosmo_total_nonelectrostatic_energy": 9.23, 
			 "SMD_solvation_energy": 4.26 
		},
		"coords": [
			{
				"x": -0.9722900951,
				"y": -2.3582256198,
				"z": -0.0294945062,
				"element": "C" 
			},
			{
				"x": 0.1256457478,
				"y": -1.7485896845,
				"z": 0.414749296,
				"element": "C" 
			},
			{
				"x": 0.1667375937,
				"y": -0.2953225175,
				"z": 0.8072241875,
				"element": "C" 
			},
			{
				"x": 1.1057051298,
				"y": 0.4812332988,
				"z": -0.0290866955,
				"element": "N" 
			},
			{
				"x": 2.4518260874,
				"y": 0.5914878231,
				"z": 0.2681218029,
				"element": "C" 
			},
			{
				"x": 3.2408554837,
				"y": -0.0555978716,
				"z": 1.5726948828,
				"element": "S" 
			},
			{
				"x": 3.2478874972,
				"y": 1.5652123673,
				"z": -0.9893087564,
				"element": "S" 
			},
			{
				"x": 1.738468423,
				"y": 1.7632043047,
				"z": -1.841726059,
				"element": "C" 
			},
			{
				"x": 0.7060368024,
				"y": 1.1198033515,
				"z": -1.1902517412,
				"element": "C" 
			},
			{
				"x": -0.5958613643,
				"y": 1.0994500001,
				"z": -1.5981965701,
				"element": "N" 
			},
			{
				"x": -0.8235129245,
				"y": 1.7506715544,
				"z": -2.7032212832,
				"element": "C" 
			},
			{
				"x": 0.1274101486,
				"y": 2.4066167514,
				"z": -3.4185442896,
				"element": "N" 
			},
			{
				"x": 1.507645333,
				"y": 2.4853783247,
				"z": -3.0635615082,
				"element": "C" 
			},
			{
				"x": 2.3006925841,
				"y": 3.0995974751,
				"z": -3.7585104846,
				"element": "O" 
			},
			{
				"x": -0.9732674983,
				"y": -3.4150152451,
				"z": -0.2791710524,
				"element": "H" 
			},
			{
				"x": -1.9105478602,
				"y": -1.8236483396,
				"z": -0.1558967471,
				"element": "H" 
			},
			{
				"x": 1.0583036097,
				"y": -2.2961232982,
				"z": 0.532448195,
				"element": "H" 
			},
			{
				"x": 0.5159663904,
				"y": -0.1798952283,
				"z": 1.8371249176,
				"element": "H" 
			},
			{
				"x": -0.8144304358,
				"y": 0.1678032135,
				"z": 0.6953439774,
				"element": "H" 
			},
			{
				"x": -1.8344688808,
				"y": 1.7870422732,
				"z": -3.1008621453,
				"element": "H" 
			},
			{
				"x": -0.1205017719,
				"y": 2.8924170669,
				"z": -4.2730754203,
				"element": "H" 
			}
		],
		 "valence_orbital": [ 
			{
				"type": "occ",
				"energy": -0.28483,
				"method": "rhf"
			},
			{
				"type": "occ",
				"energy": -0.27757,
				"method": "rhf"
			},
			{
				"type": "occ",
				"energy": -0.2732,
				"method": "rhf"
			},
			{
				"type": "occ",
				"energy": -0.22536,
				"method": "rhf"
			},
			{
				"type": "occ",
				"energy": -0.21661,
				"method": "rhf"
			},
			{
				"type": "unocc",
				"energy": -0.06674,
				"method": "rhf"
			},
			{
				"type": "unocc",
				"energy": -0.04643,
				"method": "rhf"
			},
			{
				"type": "unocc",
				"energy": -0.01062,
				"method": "rhf"
			},
			{
				"type": "unocc",
				"energy": 5e-05,
				"method": "rhf"
			},
			{
				"type": "unocc",
				"energy": 0.0059,
				"method": "rhf"
			}
		],
		"cosmo_sigma_profile": { 
			"-0.025": 0.0,
			"-0.024": 0.0,
			"-0.023": 0.0,
			"-0.022": 0.0,
			"-0.021": 0.0,
			"-0.02": 0.0,
			"-0.019": 0.0,
			"-0.018": 0.865372236676,
			"-0.017": 1.95381238891,
			"-0.016": 1.33607923256,
			"-0.015": 1.2620477697,
			"-0.014": 1.36389688933,
			"-0.013": 1.36399423772,
			"-0.012": 1.54838323596,
			"-0.011": 3.03053995928,
			"-0.01": 2.29398657493,
			"-0.009": 2.10723850765,
			"-0.008": 1.7030888943,
			"-0.007": 2.38069679478,
			"-0.006": 7.70109094816,
			"-0.005": 14.3860725099,
			"-0.004": 20.7379787252,
			"-0.003": 18.8971854338,
			"-0.002": 15.6357398581,
			"-0.001": 18.5409031112,
			"0.0": 16.954088149,
			"0.001": 14.7132633715,
			"0.002": 15.5033314639,
			"0.003": 11.4350696316,
			"0.004": 9.99384060025,
			"0.005": 10.0570633204,
			"0.006": 9.34328935928,
			"0.007": 9.4614453005,
			"0.008": 8.61733221151,
			"0.009": 4.4160203732,
			"0.01": 2.93310992704,
			"0.011": 2.49949459533,
			"0.012": 5.59812941282,
			"0.013": 2.54251640446,
			"0.014": 0.0,
			"0.015": 0.0,
			"0.016": 0.0,
			"0.017": 0.0,
			"0.018": 0.0,
			"0.019": 0.0,
			"0.02": 0.0,
			"0.021": 0.0,
			"0.022": 0.0,
			"0.023": 0.0,
			"0.024": 0.0,
			"0.025": 0.0
		}
	}
}
