{
	 "smiles": "COC1=CC(=C(NC(=O)CCl)C=C1)[N+]([O-])=O", 
	 "Tm": 372.15, 
	 "num_atms": 25, 
	 "gaussian": { 
		 "optdone": 1, 
		 "sigma_profile": "yes", 
		 "theory": "DFT", 
		 "functional": "B3LYP", 
		 "basiset": "6-31G**", 
		 "properties": { 
			 "R2extent": 4547.9634, 
			 "electric_dipole_moment_norm": 7.38826819356, 
			 "electric_quadrupole_moment_norm": 8.09850744952, 
			 "total_energy": -1218.86164529, 
			 "HOMO_LUMO_gap": 0.13463, 
			 "cosmo_polarized_energy": -16.86, 
			 "cosmo_cavitation_energy": 31.79, 
			 "cosmo_dispersion_energy": -22.7, 
			 "cosmo_repulsion_energy": 1.79, 
			 "cosmo_total_nonelectrostatic_energy": 10.87, 
			 "SMD_solvation_energy": 8.69 
		},
		"coords": [
			{
				"x": 0.3262495585,
				"y": -4.4379558941,
				"z": 0.6014311498,
				"element": "C" 
			},
			{
				"x": 1.1341794579,
				"y": -3.3610718101,
				"z": 1.0580827707,
				"element": "O" 
			},
			{
				"x": 1.0348174824,
				"y": -2.1649641888,
				"z": 0.4210659189,
				"element": "C" 
			},
			{
				"x": 1.8480749629,
				"y": -1.1417258601,
				"z": 0.9093955814,
				"element": "C" 
			},
			{
				"x": 1.8187703176,
				"y": 0.1207693064,
				"z": 0.3251169471,
				"element": "C" 
			},
			{
				"x": 0.9660947079,
				"y": 0.4246962863,
				"z": -0.7662734409,
				"element": "C" 
			},
			{
				"x": 0.9268208917,
				"y": 1.6970165202,
				"z": -1.3527164777,
				"element": "N" 
			},
			{
				"x": -0.1247806193,
				"y": 2.4595647646,
				"z": -1.8241394308,
				"element": "C" 
			},
			{
				"x": 0.0925930132,
				"y": 3.5258941522,
				"z": -2.3757458332,
				"element": "O" 
			},
			{
				"x": -1.5741882455,
				"y": 2.0048245568,
				"z": -1.6442239854,
				"element": "C" 
			},
			{
				"x": -2.0298819657,
				"y": 1.705993716,
				"z": 0.0833060078,
				"element": "Cl" 
			},
			{
				"x": 0.1929338524,
				"y": -0.6357567536,
				"z": -1.2563619029,
				"element": "C" 
			},
			{
				"x": 0.2071760527,
				"y": -1.9019949252,
				"z": -0.6788701538,
				"element": "C" 
			},
			{
				"x": 2.7384189371,
				"y": 1.1112142412,
				"z": 0.8968618398,
				"element": "N" 
			},
			{
				"x": 3.1714873332,
				"y": 0.9099564229,
				"z": 2.0271002239,
				"element": "O" 
			},
			{
				"x": 3.0531251044,
				"y": 2.0893337137,
				"z": 0.204835822,
				"element": "O" 
			},
			{
				"x": 0.5517964467,
				"y": -5.2791834404,
				"z": 1.2574636429,
				"element": "H" 
			},
			{
				"x": 0.5673905036,
				"y": -4.7127684292,
				"z": -0.4332431257,
				"element": "H" 
			},
			{
				"x": -0.7421551211,
				"y": -4.1989995052,
				"z": 0.6742016341,
				"element": "H" 
			},
			{
				"x": 2.5070711879,
				"y": -1.3256859002,
				"z": 1.7476374422,
				"element": "H" 
			},
			{
				"x": 1.7914678318,
				"y": 2.2245156327,
				"z": -1.279579227,
				"element": "H" 
			},
			{
				"x": -2.1908765863,
				"y": 2.825159086,
				"z": -2.0041003292,
				"element": "H" 
			},
			{
				"x": -1.8117828171,
				"y": 1.0989221369,
				"z": -2.2019429381,
				"element": "H" 
			},
			{
				"x": -0.4182751925,
				"y": -0.4738761328,
				"z": -2.1356278443,
				"element": "H" 
			},
			{
				"x": -0.4144270945,
				"y": -2.678277696,
				"z": -1.1081742916,
				"element": "H" 
			}
		],
		 "valence_orbital": [ 
			{
				"type": "occ",
				"energy": -0.30897,
				"method": "rhf"
			},
			{
				"type": "occ",
				"energy": -0.29807,
				"method": "rhf"
			},
			{
				"type": "occ",
				"energy": -0.28788,
				"method": "rhf"
			},
			{
				"type": "occ",
				"energy": -0.27101,
				"method": "rhf"
			},
			{
				"type": "occ",
				"energy": -0.23356,
				"method": "rhf"
			},
			{
				"type": "unocc",
				"energy": -0.09893,
				"method": "rhf"
			},
			{
				"type": "unocc",
				"energy": -0.04208,
				"method": "rhf"
			},
			{
				"type": "unocc",
				"energy": -0.01865,
				"method": "rhf"
			},
			{
				"type": "unocc",
				"energy": -0.00282,
				"method": "rhf"
			},
			{
				"type": "unocc",
				"energy": 0.0388,
				"method": "rhf"
			}
		],
		"cosmo_sigma_profile": { 
			"-0.025": 0.0,
			"-0.024": 0.0,
			"-0.023": 0.0,
			"-0.022": 0.0,
			"-0.021": 0.0,
			"-0.02": 0.0,
			"-0.019": 0.0,
			"-0.018": 0.0,
			"-0.017": 0.0,
			"-0.016": 0.0,
			"-0.015": 0.0,
			"-0.014": 0.0,
			"-0.013": 0.157571137105,
			"-0.012": 1.4031999864,
			"-0.011": 1.83442623257,
			"-0.01": 2.28114290829,
			"-0.009": 3.14934187499,
			"-0.008": 7.76151183666,
			"-0.007": 11.6704240061,
			"-0.006": 18.1521852668,
			"-0.005": 16.425925096,
			"-0.004": 17.266334005,
			"-0.003": 15.752218663,
			"-0.002": 13.5236384693,
			"-0.001": 12.9132561082,
			"0.0": 19.0598682844,
			"0.001": 19.4692838592,
			"0.002": 12.6166682093,
			"0.003": 12.4109954976,
			"0.004": 12.4950427484,
			"0.005": 13.4870864988,
			"0.006": 8.26742053837,
			"0.007": 8.81344526636,
			"0.008": 8.00126453772,
			"0.009": 6.77057512038,
			"0.01": 3.103359177,
			"0.011": 3.05465811061,
			"0.012": 5.32130673466,
			"0.013": 1.07159298768,
			"0.014": 0.0,
			"0.015": 0.0,
			"0.016": 0.0,
			"0.017": 0.0,
			"0.018": 0.0,
			"0.019": 0.0,
			"0.02": 0.0,
			"0.021": 0.0,
			"0.022": 0.0,
			"0.023": 0.0,
			"0.024": 0.0,
			"0.025": 0.0
		}
	}
}
