{
	 "smiles": "CC1=C(C=CC=C1I)C(O)=O", 
	 "Tm": 387.15, 
	 "num_atms": 18, 
	 "gaussian": { 
		 "optdone": 1, 
		 "sigma_profile": "yes", 
		 "theory": "DFT", 
		 "functional": "B3LYP", 
		 "basiset": "6-31G**", 
		 "properties": { 
			 "R2extent": 2123.1502, 
			 "electric_dipole_moment_norm": 3.20547118689, 
			 "electric_quadrupole_moment_norm": 10.1793010251, 
			 "total_energy": -470.911049799, 
			 "HOMO_LUMO_gap": 0.19778, 
			 "cosmo_polarized_energy": -12.42, 
			 "cosmo_cavitation_energy": 24.92, 
			 "cosmo_dispersion_energy": -19.69, 
			 "cosmo_repulsion_energy": 1.53, 
			 "cosmo_total_nonelectrostatic_energy": 6.76, 
			 "SMD_solvation_energy": 4.5 
		},
		"coords": [
			{
				"x": 1.8225454414,
				"y": 0.2245358738,
				"z": 1.9371432461,
				"element": "C" 
			},
			{
				"x": 1.0043225984,
				"y": 0.9978487944,
				"z": 0.9255342076,
				"element": "C" 
			},
			{
				"x": -0.2129565997,
				"y": 0.5046466617,
				"z": 0.3961740382,
				"element": "C" 
			},
			{
				"x": -0.889098693,
				"y": 1.1867804202,
				"z": -0.6245516294,
				"element": "C" 
			},
			{
				"x": -0.4114522764,
				"y": 2.4005684071,
				"z": -1.1010738696,
				"element": "C" 
			},
			{
				"x": 0.7630598798,
				"y": 2.9333332387,
				"z": -0.5710736411,
				"element": "C" 
			},
			{
				"x": 1.454136018,
				"y": 2.2310098548,
				"z": 0.4167657618,
				"element": "C" 
			},
			{
				"x": 3.2537442039,
				"y": 3.1202665167,
				"z": 1.1336174941,
				"element": "I" 
			},
			{
				"x": -0.8738043522,
				"y": -0.7745758321,
				"z": 0.8445175671,
				"element": "C" 
			},
			{
				"x": -0.9245245723,
				"y": -1.0088134169,
				"z": 2.1845433755,
				"element": "O" 
			},
			{
				"x": -1.39027679,
				"y": -1.5521749557,
				"z": 0.0798573936,
				"element": "O" 
			},
			{
				"x": 1.8327765256,
				"y": 0.722973178,
				"z": 2.9146974736,
				"element": "H" 
			},
			{
				"x": 1.4606130237,
				"y": -0.7943357046,
				"z": 2.0720485815,
				"element": "H" 
			},
			{
				"x": 2.8651552252,
				"y": 0.1674772369,
				"z": 1.6124506523,
				"element": "H" 
			},
			{
				"x": -1.7939772862,
				"y": 0.7448432045,
				"z": -1.0269565829,
				"element": "H" 
			},
			{
				"x": -0.9441289587,
				"y": 2.9350642882,
				"z": -1.8813496236,
				"element": "H" 
			},
			{
				"x": 1.1447189729,
				"y": 3.8818227449,
				"z": -0.9312424507,
				"element": "H" 
			},
			{
				"x": -0.5879523603,
				"y": -0.2417705106,
				"z": 2.6687980059,
				"element": "H" 
			}
		],
		 "valence_orbital": [ 
			{
				"type": "occ",
				"energy": -0.30902,
				"method": "rhf"
			},
			{
				"type": "occ",
				"energy": -0.28507,
				"method": "rhf"
			},
			{
				"type": "occ",
				"energy": -0.27705,
				"method": "rhf"
			},
			{
				"type": "occ",
				"energy": -0.26914,
				"method": "rhf"
			},
			{
				"type": "occ",
				"energy": -0.25202,
				"method": "rhf"
			},
			{
				"type": "unocc",
				"energy": -0.05424,
				"method": "rhf"
			},
			{
				"type": "unocc",
				"energy": -0.04763,
				"method": "rhf"
			},
			{
				"type": "unocc",
				"energy": -0.03294,
				"method": "rhf"
			},
			{
				"type": "unocc",
				"energy": 0.02353,
				"method": "rhf"
			},
			{
				"type": "unocc",
				"energy": 0.02866,
				"method": "rhf"
			}
		],
		"cosmo_sigma_profile": { 
			"-0.025": 0.0,
			"-0.024": 0.0,
			"-0.023": 0.0,
			"-0.022": 0.0,
			"-0.021": 0.0,
			"-0.02": 0.0,
			"-0.019": 0.0,
			"-0.018": 0.914290533943,
			"-0.017": 0.598431001056,
			"-0.016": 0.600795604563,
			"-0.015": 1.21658508438,
			"-0.014": 0.784930941468,
			"-0.013": 0.890531713923,
			"-0.012": 0.762182247517,
			"-0.011": 1.22272100992,
			"-0.01": 0.845453487283,
			"-0.009": 0.798586587465,
			"-0.008": 1.42270676236,
			"-0.007": 6.64125990866,
			"-0.006": 10.8564249996,
			"-0.005": 12.1723250146,
			"-0.004": 13.9886646454,
			"-0.003": 14.4247612283,
			"-0.002": 13.7159026091,
			"-0.001": 13.823667588,
			"0.0": 13.0558579719,
			"0.001": 13.9091310685,
			"0.002": 20.3659256854,
			"0.003": 17.591249879,
			"0.004": 12.2907141718,
			"0.005": 4.81158791793,
			"0.006": 1.89009703018,
			"0.007": 2.70958116015,
			"0.008": 3.21821895909,
			"0.009": 2.82169344839,
			"0.01": 5.62120824827,
			"0.011": 5.30518372175,
			"0.012": 3.9183500947,
			"0.013": 0.945318486439,
			"0.014": 0.0,
			"0.015": 0.0,
			"0.016": 0.0,
			"0.017": 0.0,
			"0.018": 0.0,
			"0.019": 0.0,
			"0.02": 0.0,
			"0.021": 0.0,
			"0.022": 0.0,
			"0.023": 0.0,
			"0.024": 0.0,
			"0.025": 0.0
		}
	}
}
