{
	 "smiles": "OC1=CC(=C(I)C=C1)[N+]([O-])=O", 
	 "Tm": 429.15, 
	 "num_atms": 15, 
	 "gaussian": { 
		 "optdone": 1, 
		 "sigma_profile": "no", 
		 "theory": "DFT", 
		 "functional": "B3LYP", 
		 "basiset": "6-31G**", 
		 "properties": { 
			 "R2extent": 2129.3674, 
			 "electric_dipole_moment_norm": 3.79268817991, 
			 "electric_quadrupole_moment_norm": 13.9083967929, 
			 "total_energy": -522.733939506, 
			 "HOMO_LUMO_gap": 0.16211, 
			 "cosmo_polarized_energy": -87253.68, 
			 "cosmo_cavitation_energy": 24.0, 
			 "cosmo_dispersion_energy": -18.47, 
			 "cosmo_repulsion_energy": 1.46, 
			 "cosmo_total_nonelectrostatic_energy": 6.98, 
			 "SMD_solvation_energy": 6.38 
		},
		"coords": [
			{
				"x": 0.9664884866,
				"y": -2.0153339861,
				"z": 1.4117241711,
				"element": "O" 
			},
			{
				"x": 0.8250853072,
				"y": -1.3431018007,
				"z": 0.2395277801,
				"element": "C" 
			},
			{
				"x": 0.5982960669,
				"y": 0.0339307443,
				"z": 0.177711371,
				"element": "C" 
			},
			{
				"x": 0.4653231664,
				"y": 0.6420763892,
				"z": -1.067522198,
				"element": "C" 
			},
			{
				"x": 0.5504472508,
				"y": -0.0746609217,
				"z": -2.2581001204,
				"element": "C" 
			},
			{
				"x": 0.3493871727,
				"y": 0.8443470427,
				"z": -4.1450553642,
				"element": "I" 
			},
			{
				"x": 0.7782692535,
				"y": -1.4544744381,
				"z": -2.1764972429,
				"element": "C" 
			},
			{
				"x": 0.9145142691,
				"y": -2.0849776014,
				"z": -0.9455755514,
				"element": "C" 
			},
			{
				"x": 0.2268258968,
				"y": 2.10129532,
				"z": -1.0668180568,
				"element": "N" 
			},
			{
				"x": 1.2173741807,
				"y": 2.8232698431,
				"z": -1.083105539,
				"element": "O" 
			},
			{
				"x": -0.9413810074,
				"y": 2.4704260411,
				"z": -1.0251012509,
				"element": "O" 
			},
			{
				"x": 0.8864391859,
				"y": -1.4036924623,
				"z": 2.1554621631,
				"element": "H" 
			},
			{
				"x": 0.5244175219,
				"y": 0.6343723456,
				"z": 1.0799336389,
				"element": "H" 
			},
			{
				"x": 0.8492768393,
				"y": -2.0386757984,
				"z": -3.086972863,
				"element": "H" 
			},
			{
				"x": 1.0908364095,
				"y": -3.1532007173,
				"z": -0.8842109374,
				"element": "H" 
			}
		],
		 "valence_orbital": [ 
			{
				"type": "occ",
				"energy": -0.31196,
				"method": "rhf"
			},
			{
				"type": "occ",
				"energy": -0.29451,
				"method": "rhf"
			},
			{
				"type": "occ",
				"energy": -0.28041,
				"method": "rhf"
			},
			{
				"type": "occ",
				"energy": -0.27819,
				"method": "rhf"
			},
			{
				"type": "occ",
				"energy": -0.24197,
				"method": "rhf"
			},
			{
				"type": "unocc",
				"energy": -0.07986,
				"method": "rhf"
			},
			{
				"type": "unocc",
				"energy": -0.05195,
				"method": "rhf"
			},
			{
				"type": "unocc",
				"energy": -0.04016,
				"method": "rhf"
			},
			{
				"type": "unocc",
				"energy": -0.02726,
				"method": "rhf"
			},
			{
				"type": "unocc",
				"energy": 0.04468,
				"method": "rhf"
			}
		],
		"cosmo_sigma_profile": { 
			"0.0": 0.0,
			"0.0": 0.0,
			"0.0": 0.0,
			"0.0": 0.0,
			"0.0": 0.0,
			"0.0": 0.0,
			"0.0": 0.0,
			"0.0": 0.0,
			"0.0": 0.0,
			"0.0": 0.0,
			"0.0": 0.0,
			"0.0": 0.0,
			"0.0": 0.0,
			"0.0": 0.0,
			"0.0": 0.0,
			"0.0": 0.0,
			"0.0": 0.0,
			"0.0": 0.0,
			"0.0": 0.0,
			"0.0": 0.0,
			"0.0": 0.0,
			"0.0": 0.0,
			"0.0": 0.0,
			"0.0": 0.0,
			"0.0": 0.0,
			"0.0": 0.0,
			"0.0": 0.0,
			"0.0": 0.0,
			"0.0": 0.0,
			"0.0": 0.0,
			"0.0": 0.0,
			"0.0": 0.0,
			"0.0": 0.0,
			"0.0": 0.0,
			"0.0": 0.0,
			"0.0": 0.0,
			"0.0": 0.0,
			"0.0": 0.0,
			"0.0": 0.0,
			"0.0": 0.0,
			"0.0": 0.0,
			"0.0": 0.0,
			"0.0": 0.0,
			"0.0": 0.0,
			"0.0": 0.0,
			"0.0": 0.0,
			"0.0": 0.0,
			"0.0": 0.0,
			"0.0": 0.0,
			"0.0": 0.0,
			"0.0": 0.0
		}
	}
}
