{
	 "smiles": "CC(C)(C)C1NC(=O)CNC1=O", 
	 "Tm": 573.15, 
	 "num_atms": 26, 
	 "gaussian": { 
		 "optdone": 1, 
		 "sigma_profile": "yes", 
		 "theory": "DFT", 
		 "functional": "B3LYP", 
		 "basiset": "6-31G**", 
		 "properties": { 
			 "R2extent": 2205.5429, 
			 "electric_dipole_moment_norm": 1.30627712986, 
			 "electric_quadrupole_moment_norm": 19.3275792149, 
			 "total_energy": -573.276082865, 
			 "HOMO_LUMO_gap": 0.25967, 
			 "cosmo_polarized_energy": -16.68, 
			 "cosmo_cavitation_energy": 27.02, 
			 "cosmo_dispersion_energy": -19.37, 
			 "cosmo_repulsion_energy": 1.53, 
			 "cosmo_total_nonelectrostatic_energy": 9.18, 
			 "SMD_solvation_energy": 4.92 
		},
		"coords": [
			{
				"x": -1.8587726121,
				"y": -0.5836014652,
				"z": 0.6518746763,
				"element": "C" 
			},
			{
				"x": -0.9489707615,
				"y": 0.2010250544,
				"z": -0.3109866688,
				"element": "C" 
			},
			{
				"x": -1.2147241518,
				"y": 1.7116897499,
				"z": -0.1464423188,
				"element": "C" 
			},
			{
				"x": -1.2594395363,
				"y": -0.1949024632,
				"z": -1.7676430224,
				"element": "C" 
			},
			{
				"x": 0.5712618825,
				"y": -0.0777408621,
				"z": -0.000906733,
				"element": "C" 
			},
			{
				"x": 1.0202756255,
				"y": 0.5068067762,
				"z": 1.2634176217,
				"element": "N" 
			},
			{
				"x": 1.1964004388,
				"y": -0.1237524296,
				"z": 2.4573366266,
				"element": "C" 
			},
			{
				"x": 1.4374932404,
				"y": 0.4659160896,
				"z": 3.5010174481,
				"element": "O" 
			},
			{
				"x": 1.0769192452,
				"y": -1.6427152023,
				"z": 2.4290048322,
				"element": "C" 
			},
			{
				"x": 1.1726604612,
				"y": -2.2059837688,
				"z": 1.093444442,
				"element": "N" 
			},
			{
				"x": 0.933939923,
				"y": -1.5650519228,
				"z": -0.084639727,
				"element": "C" 
			},
			{
				"x": 1.0064964419,
				"y": -2.1414801898,
				"z": -1.1634606211,
				"element": "O" 
			},
			{
				"x": -2.9092522847,
				"y": -0.3430786654,
				"z": 0.4584723316,
				"element": "H" 
			},
			{
				"x": -1.7414439885,
				"y": -1.6651548208,
				"z": 0.5272080458,
				"element": "H" 
			},
			{
				"x": -1.6543087968,
				"y": -0.329105032,
				"z": 1.6974501974,
				"element": "H" 
			},
			{
				"x": -2.239221881,
				"y": 1.9443643168,
				"z": -0.4539099853,
				"element": "H" 
			},
			{
				"x": -1.1043815066,
				"y": 2.0413560155,
				"z": 0.8913657377,
				"element": "H" 
			},
			{
				"x": -0.5415559748,
				"y": 2.3081516564,
				"z": -0.7743080515,
				"element": "H" 
			},
			{
				"x": -0.643607453,
				"y": 0.3766904295,
				"z": -2.4711188905,
				"element": "H" 
			},
			{
				"x": -2.3096770538,
				"y": 0.0210000251,
				"z": -1.9920234646,
				"element": "H" 
			},
			{
				"x": -1.0698944343,
				"y": -1.2533275273,
				"z": -1.9512290882,
				"element": "H" 
			},
			{
				"x": 1.1498164862,
				"y": 0.3936701726,
				"z": -0.8034715774,
				"element": "H" 
			},
			{
				"x": 1.0959311571,
				"y": 1.5142412106,
				"z": 1.3192452037,
				"element": "H" 
			},
			{
				"x": 0.1309534183,
				"y": -1.9113661664,
				"z": 2.9207491846,
				"element": "H" 
			},
			{
				"x": 1.8849869607,
				"y": -2.030047294,
				"z": 3.0554117905,
				"element": "H" 
			},
			{
				"x": 1.3979151545,
				"y": -3.1873036871,
				"z": 0.9915420104,
				"element": "H" 
			}
		],
		 "valence_orbital": [ 
			{
				"type": "occ",
				"energy": -0.33504,
				"method": "rhf"
			},
			{
				"type": "occ",
				"energy": -0.27329,
				"method": "rhf"
			},
			{
				"type": "occ",
				"energy": -0.26556,
				"method": "rhf"
			},
			{
				"type": "occ",
				"energy": -0.25483,
				"method": "rhf"
			},
			{
				"type": "occ",
				"energy": -0.24695,
				"method": "rhf"
			},
			{
				"type": "unocc",
				"energy": 0.01272,
				"method": "rhf"
			},
			{
				"type": "unocc",
				"energy": 0.01728,
				"method": "rhf"
			},
			{
				"type": "unocc",
				"energy": 0.05812,
				"method": "rhf"
			},
			{
				"type": "unocc",
				"energy": 0.08528,
				"method": "rhf"
			},
			{
				"type": "unocc",
				"energy": 0.09893,
				"method": "rhf"
			}
		],
		"cosmo_sigma_profile": { 
			"-0.025": 0.0,
			"-0.024": 0.0,
			"-0.023": 0.0,
			"-0.022": 0.0,
			"-0.021": 0.0,
			"-0.02": 0.0,
			"-0.019": 0.0,
			"-0.018": 0.0,
			"-0.017": 0.0,
			"-0.016": 0.0,
			"-0.015": 0.334210540228,
			"-0.014": 1.46587418447,
			"-0.013": 1.66917927327,
			"-0.012": 2.54867008767,
			"-0.011": 1.88482335135,
			"-0.01": 2.28960413749,
			"-0.009": 1.99567002985,
			"-0.008": 3.99416168873,
			"-0.007": 6.79067715794,
			"-0.006": 9.78129764798,
			"-0.005": 9.79302586518,
			"-0.004": 10.840260201,
			"-0.003": 20.8362805252,
			"-0.002": 22.4207573215,
			"-0.001": 20.1022948974,
			"0.0": 18.8877213778,
			"0.001": 19.3022896715,
			"0.002": 8.55276743097,
			"0.003": 3.84804451014,
			"0.004": 1.97693157831,
			"0.005": 2.0977382515,
			"0.006": 3.36206003018,
			"0.007": 2.46135662197,
			"0.008": 2.57795544009,
			"0.009": 1.79411527661,
			"0.01": 2.40866458151,
			"0.011": 3.8402832339,
			"0.012": 3.33680049217,
			"0.013": 8.53479941212,
			"0.014": 8.89683224907,
			"0.015": 0.909289114805,
			"0.016": 0.0,
			"0.017": 0.0,
			"0.018": 0.0,
			"0.019": 0.0,
			"0.02": 0.0,
			"0.021": 0.0,
			"0.022": 0.0,
			"0.023": 0.0,
			"0.024": 0.0,
			"0.025": 0.0
		}
	}
}
