{
	 "smiles": "ClCC(=O)NC1=CC(=CC=C1)S(=O)(=O)N=C1CCCN1", 
	 "Tm": 431.15, 
	 "num_atms": 34, 
	 "gaussian": { 
		 "optdone": 1, 
		 "sigma_profile": "yes", 
		 "theory": "DFT", 
		 "functional": "B3LYP", 
		 "basiset": "6-31G**", 
		 "properties": { 
			 "R2extent": 10808.2688, 
			 "electric_dipole_moment_norm": 7.46536285186, 
			 "electric_quadrupole_moment_norm": 39.6653865379, 
			 "total_energy": -1713.97109957, 
			 "HOMO_LUMO_gap": 0.19989, 
			 "cosmo_polarized_energy": -27.9, 
			 "cosmo_cavitation_energy": 41.2, 
			 "cosmo_dispersion_energy": -30.37, 
			 "cosmo_repulsion_energy": 2.36, 
			 "cosmo_total_nonelectrostatic_energy": 13.19, 
			 "SMD_solvation_energy": 4.72 
		},
		"coords": [
			{
				"x": 3.4835175467,
				"y": 3.6965652693,
				"z": 4.1111239366,
				"element": "Cl" 
			},
			{
				"x": 2.2612025851,
				"y": 2.3996532028,
				"z": 3.9150105226,
				"element": "C" 
			},
			{
				"x": 2.8421069124,
				"y": 1.0189742644,
				"z": 4.2423182291,
				"element": "C" 
			},
			{
				"x": 3.7947222164,
				"y": 0.8563162107,
				"z": 4.979817314,
				"element": "O" 
			},
			{
				"x": 2.2175395385,
				"y": -0.067115291,
				"z": 3.6524152507,
				"element": "N" 
			},
			{
				"x": 1.1467090758,
				"y": -0.1442467269,
				"z": 2.7292171389,
				"element": "C" 
			},
			{
				"x": 1.277077835,
				"y": -0.9907556978,
				"z": 1.6214516199,
				"element": "C" 
			},
			{
				"x": 0.2190324006,
				"y": -1.10865975,
				"z": 0.7231708282,
				"element": "C" 
			},
			{
				"x": -0.9714322952,
				"y": -0.4032869418,
				"z": 0.891896017,
				"element": "C" 
			},
			{
				"x": -1.0974673326,
				"y": 0.4306900881,
				"z": 2.0034285637,
				"element": "C" 
			},
			{
				"x": -0.0576519074,
				"y": 0.5500908911,
				"z": 2.9245631655,
				"element": "C" 
			},
			{
				"x": 0.4031525669,
				"y": -2.2160784392,
				"z": -0.6803087956,
				"element": "S" 
			},
			{
				"x": 1.0854352652,
				"y": -3.4258125235,
				"z": -0.2084549397,
				"element": "O" 
			},
			{
				"x": -0.936774148,
				"y": -2.3510861835,
				"z": -1.3073727976,
				"element": "O" 
			},
			{
				"x": 1.4599244916,
				"y": -1.3406731535,
				"z": -1.6267077305,
				"element": "N" 
			},
			{
				"x": 1.2565963852,
				"y": -1.2391155031,
				"z": -2.9137645362,
				"element": "C" 
			},
			{
				"x": 2.2716713665,
				"y": -0.5563301311,
				"z": -3.8117261659,
				"element": "C" 
			},
			{
				"x": 1.4980752267,
				"y": -0.3170650904,
				"z": -5.1226999187,
				"element": "C" 
			},
			{
				"x": 0.4016053802,
				"y": -1.4042406058,
				"z": -5.1070224854,
				"element": "C" 
			},
			{
				"x": 0.2391352852,
				"y": -1.6752198958,
				"z": -3.6807752699,
				"element": "N" 
			},
			{
				"x": 1.881671395,
				"y": 2.4488495612,
				"z": 2.8944342033,
				"element": "H" 
			},
			{
				"x": 1.4437445599,
				"y": 2.6267225221,
				"z": 4.6031252023,
				"element": "H" 
			},
			{
				"x": 2.7239201897,
				"y": -0.9256187846,
				"z": 3.8360956245,
				"element": "H" 
			},
			{
				"x": 2.1920769688,
				"y": -1.5514053552,
				"z": 1.4614479002,
				"element": "H" 
			},
			{
				"x": -1.7772820351,
				"y": -0.529553164,
				"z": 0.1783744486,
				"element": "H" 
			},
			{
				"x": -2.0234254836,
				"y": 0.9722213539,
				"z": 2.1708244761,
				"element": "H" 
			},
			{
				"x": -0.1925065355,
				"y": 1.1568920222,
				"z": 3.813133294,
				"element": "H" 
			},
			{
				"x": 3.1167331467,
				"y": -1.2415241615,
				"z": -3.949349966,
				"element": "H" 
			},
			{
				"x": 2.6601030472,
				"y": 0.3495011776,
				"z": -3.3428758585,
				"element": "H" 
			},
			{
				"x": 2.1284575424,
				"y": -0.3781195463,
				"z": -6.0120634078,
				"element": "H" 
			},
			{
				"x": 1.033380531,
				"y": 0.673489116,
				"z": -5.1068795737,
				"element": "H" 
			},
			{
				"x": -0.5408357314,
				"y": -1.0650993503,
				"z": -5.5470322559,
				"element": "H" 
			},
			{
				"x": 0.7159683931,
				"y": -2.3116225946,
				"z": -5.640278696,
				"element": "H" 
			},
			{
				"x": -0.540884383,
				"y": -2.1700367896,
				"z": -3.2602353377,
				"element": "H" 
			}
		],
		 "valence_orbital": [ 
			{
				"type": "occ",
				"energy": -0.2866,
				"method": "rhf"
			},
			{
				"type": "occ",
				"energy": -0.27061,
				"method": "rhf"
			},
			{
				"type": "occ",
				"energy": -0.2676,
				"method": "rhf"
			},
			{
				"type": "occ",
				"energy": -0.25517,
				"method": "rhf"
			},
			{
				"type": "occ",
				"energy": -0.24574,
				"method": "rhf"
			},
			{
				"type": "unocc",
				"energy": -0.04585,
				"method": "rhf"
			},
			{
				"type": "unocc",
				"energy": -0.03515,
				"method": "rhf"
			},
			{
				"type": "unocc",
				"energy": -0.00397,
				"method": "rhf"
			},
			{
				"type": "unocc",
				"energy": 0.00603,
				"method": "rhf"
			},
			{
				"type": "unocc",
				"energy": 0.03283,
				"method": "rhf"
			}
		],
		"cosmo_sigma_profile": { 
			"-0.025": 0.0,
			"-0.024": 0.0,
			"-0.023": 0.0,
			"-0.022": 0.0,
			"-0.021": 0.0,
			"-0.02": 0.0,
			"-0.019": 0.0,
			"-0.018": 0.0,
			"-0.017": 0.0,
			"-0.016": 0.0563768291119,
			"-0.015": 0.8350054099,
			"-0.014": 1.25138057098,
			"-0.013": 1.48737744027,
			"-0.012": 1.63507787526,
			"-0.011": 3.51133020479,
			"-0.01": 4.92759272615,
			"-0.009": 6.13394318937,
			"-0.008": 6.37583403259,
			"-0.007": 10.5477611933,
			"-0.006": 19.3032313049,
			"-0.005": 26.3312559044,
			"-0.004": 30.0170163656,
			"-0.003": 24.9793636702,
			"-0.002": 20.3331131418,
			"-0.001": 20.2611479982,
			"0.0": 16.6316353596,
			"0.001": 16.9961229418,
			"0.002": 17.3278456441,
			"0.003": 12.4523679866,
			"0.004": 9.44009093632,
			"0.005": 11.5230698484,
			"0.006": 10.464176753,
			"0.007": 6.49306338272,
			"0.008": 5.67861682083,
			"0.009": 5.99987276654,
			"0.01": 7.68872365255,
			"0.011": 11.1451713464,
			"0.012": 14.2552431864,
			"0.013": 5.19569220338,
			"0.014": 0.704019685425,
			"0.015": 0.0,
			"0.016": 0.0,
			"0.017": 0.0,
			"0.018": 0.0,
			"0.019": 0.0,
			"0.02": 0.0,
			"0.021": 0.0,
			"0.022": 0.0,
			"0.023": 0.0,
			"0.024": 0.0,
			"0.025": 0.0
		}
	}
}
