{
	 "smiles": "CC1=CC(CN2C=CC=C(C(O)=O)C2=O)=CC=C1", 
	 "Tm": 463.15, 
	 "num_atms": 31, 
	 "gaussian": { 
		 "optdone": 1, 
		 "sigma_profile": "yes", 
		 "theory": "DFT", 
		 "functional": "B3LYP", 
		 "basiset": "6-31G**", 
		 "properties": { 
			 "R2extent": 6452.7758, 
			 "electric_dipole_moment_norm": 8.57610512645, 
			 "electric_quadrupole_moment_norm": 34.5932805263, 
			 "total_energy": -821.787234857, 
			 "HOMO_LUMO_gap": 0.16832, 
			 "cosmo_polarized_energy": -18.3, 
			 "cosmo_cavitation_energy": 35.03, 
			 "cosmo_dispersion_energy": -25.11, 
			 "cosmo_repulsion_energy": 1.92, 
			 "cosmo_total_nonelectrostatic_energy": 11.84, 
			 "SMD_solvation_energy": 7.56 
		},
		"coords": [
			{
				"x": 4.1941071971,
				"y": 0.9505955655,
				"z": -0.013034761,
				"element": "C" 
			},
			{
				"x": 3.0029662055,
				"y": 0.1629272127,
				"z": -0.5066590172,
				"element": "C" 
			},
			{
				"x": 1.696721129,
				"y": 0.6236679781,
				"z": -0.29575367,
				"element": "C" 
			},
			{
				"x": 0.5832288526,
				"y": -0.1050052607,
				"z": -0.7280882972,
				"element": "C" 
			},
			{
				"x": -0.8150544462,
				"y": 0.4204003482,
				"z": -0.4795218686,
				"element": "C" 
			},
			{
				"x": -1.5396450095,
				"y": -0.3298400807,
				"z": 0.5792791345,
				"element": "N" 
			},
			{
				"x": -1.3030524862,
				"y": -0.0410184656,
				"z": 1.8900899928,
				"element": "C" 
			},
			{
				"x": -1.9419335972,
				"y": -0.7025898058,
				"z": 2.9036603089,
				"element": "C" 
			},
			{
				"x": -2.8678807438,
				"y": -1.7121865921,
				"z": 2.5621820594,
				"element": "C" 
			},
			{
				"x": -3.1185735756,
				"y": -2.030003629,
				"z": 1.2478266841,
				"element": "C" 
			},
			{
				"x": -4.1171979524,
				"y": -3.1187352327,
				"z": 0.9452155666,
				"element": "C" 
			},
			{
				"x": -4.3131974424,
				"y": -3.3954552937,
				"z": -0.3467408333,
				"element": "O" 
			},
			{
				"x": -4.703743836,
				"y": -3.7021926969,
				"z": 1.8343531959,
				"element": "O" 
			},
			{
				"x": -2.4298030026,
				"y": -1.3391051387,
				"z": 0.1794481221,
				"element": "C" 
			},
			{
				"x": -2.5788126842,
				"y": -1.5828289004,
				"z": -1.0379441097,
				"element": "O" 
			},
			{
				"x": 0.7755948238,
				"y": -1.3227594048,
				"z": -1.3940040464,
				"element": "C" 
			},
			{
				"x": 2.0697641744,
				"y": -1.7933771977,
				"z": -1.6096395331,
				"element": "C" 
			},
			{
				"x": 3.1723035724,
				"y": -1.0580655647,
				"z": -1.1711811554,
				"element": "C" 
			},
			{
				"x": 5.0294663278,
				"y": 0.8954215682,
				"z": -0.7178683458,
				"element": "H" 
			},
			{
				"x": 3.9451297128,
				"y": 2.0056398609,
				"z": 0.1336780056,
				"element": "H" 
			},
			{
				"x": 4.5557617097,
				"y": 0.562420214,
				"z": 0.9473268711,
				"element": "H" 
			},
			{
				"x": 1.5486095259,
				"y": 1.5789269751,
				"z": 0.2054838567,
				"element": "H" 
			},
			{
				"x": -0.7841336363,
				"y": 1.4674950568,
				"z": -0.1676748062,
				"element": "H" 
			},
			{
				"x": -1.4312944694,
				"y": 0.3376838779,
				"z": -1.3748006144,
				"element": "H" 
			},
			{
				"x": -0.5755397852,
				"y": 0.7426721106,
				"z": 2.0692999457,
				"element": "H" 
			},
			{
				"x": -1.7335879344,
				"y": -0.4452477194,
				"z": 3.9345556775,
				"element": "H" 
			},
			{
				"x": -3.4075345772,
				"y": -2.268070539,
				"z": 3.3229451569,
				"element": "H" 
			},
			{
				"x": -3.7293386115,
				"y": -2.8007252127,
				"z": -0.8873847816,
				"element": "H" 
			},
			{
				"x": -0.0860434776,
				"y": -1.8856912963,
				"z": -1.7394318184,
				"element": "H" 
			},
			{
				"x": 2.2213146416,
				"y": -2.7344583527,
				"z": -2.1305365371,
				"element": "H" 
			},
			{
				"x": 4.176699395,
				"y": -1.4328943844,
				"z": -1.3523803825,
				"element": "H" 
			}
		],
		 "valence_orbital": [ 
			{
				"type": "occ",
				"energy": -0.28435,
				"method": "rhf"
			},
			{
				"type": "occ",
				"energy": -0.262,
				"method": "rhf"
			},
			{
				"type": "occ",
				"energy": -0.25726,
				"method": "rhf"
			},
			{
				"type": "occ",
				"energy": -0.25203,
				"method": "rhf"
			},
			{
				"type": "occ",
				"energy": -0.24185,
				"method": "rhf"
			},
			{
				"type": "unocc",
				"energy": -0.07353,
				"method": "rhf"
			},
			{
				"type": "unocc",
				"energy": -0.0234,
				"method": "rhf"
			},
			{
				"type": "unocc",
				"energy": -0.01416,
				"method": "rhf"
			},
			{
				"type": "unocc",
				"energy": -0.01212,
				"method": "rhf"
			},
			{
				"type": "unocc",
				"energy": 0.04155,
				"method": "rhf"
			}
		],
		"cosmo_sigma_profile": { 
			"-0.025": 0.0,
			"-0.024": 0.0,
			"-0.023": 0.0,
			"-0.022": 0.0,
			"-0.021": 0.0,
			"-0.02": 0.0,
			"-0.019": 0.0,
			"-0.018": 0.0,
			"-0.017": 0.0,
			"-0.016": 0.0,
			"-0.015": 0.0,
			"-0.014": 0.0,
			"-0.013": 0.0,
			"-0.012": 0.0,
			"-0.011": 0.268499706327,
			"-0.01": 2.78485649651,
			"-0.009": 3.08238853917,
			"-0.008": 6.89253051879,
			"-0.007": 7.96246090759,
			"-0.006": 11.4044034872,
			"-0.005": 15.0200414392,
			"-0.004": 24.8406096934,
			"-0.003": 27.2328170399,
			"-0.002": 23.339861663,
			"-0.001": 25.957893356,
			"0.0": 26.967768825,
			"0.001": 18.4920811411,
			"0.002": 12.5047568951,
			"0.003": 9.9679825032,
			"0.004": 11.3197757064,
			"0.005": 10.6977888526,
			"0.006": 8.32408971366,
			"0.007": 3.25792194556,
			"0.008": 3.86361646799,
			"0.009": 4.11941392662,
			"0.01": 4.16075418855,
			"0.011": 6.34493968637,
			"0.012": 6.36709986474,
			"0.013": 3.3966619138,
			"0.014": 1.39527206126,
			"0.015": 0.019088121967,
			"0.016": 0.0,
			"0.017": 0.0,
			"0.018": 0.0,
			"0.019": 0.0,
			"0.02": 0.0,
			"0.021": 0.0,
			"0.022": 0.0,
			"0.023": 0.0,
			"0.024": 0.0,
			"0.025": 0.0
		}
	}
}
