{
	 "smiles": "CSCC[C@H](N)C(=O)NO", 
	 "Tm": 422.15, 
	 "num_atms": 22, 
	 "gaussian": { 
		 "optdone": 1, 
		 "sigma_profile": "yes", 
		 "theory": "DFT", 
		 "functional": "B3LYP", 
		 "basiset": "6-31G**", 
		 "properties": { 
			 "R2extent": 3430.747, 
			 "electric_dipole_moment_norm": 2.45919356904, 
			 "electric_quadrupole_moment_norm": 12.0628953009, 
			 "total_energy": -855.855804452, 
			 "HOMO_LUMO_gap": 0.23036, 
			 "cosmo_polarized_energy": -14.99, 
			 "cosmo_cavitation_energy": 26.39, 
			 "cosmo_dispersion_energy": -19.5, 
			 "cosmo_repulsion_energy": 1.58, 
			 "cosmo_total_nonelectrostatic_energy": 8.47, 
			 "SMD_solvation_energy": 5.2 
		},
		"coords": [
			{
				"x": -3.2932074266,
				"y": 3.2494466467,
				"z": 2.2559207966,
				"element": "C" 
			},
			{
				"x": -2.1548773424,
				"y": 3.6571546054,
				"z": 0.8858021074,
				"element": "S" 
			},
			{
				"x": -1.550155221,
				"y": 1.9852060562,
				"z": 0.4312345685,
				"element": "C" 
			},
			{
				"x": -0.5928700205,
				"y": 1.3590578846,
				"z": 1.4502000697,
				"element": "C" 
			},
			{
				"x": -0.0493811526,
				"y": -0.027633599,
				"z": 1.0434540354,
				"element": "C" 
			},
			{
				"x": 0.7397012883,
				"y": -0.0972147933,
				"z": -0.1975191785,
				"element": "N" 
			},
			{
				"x": -1.17824934,
				"y": -1.0643242657,
				"z": 0.985450677,
				"element": "C" 
			},
			{
				"x": -2.2264258879,
				"y": -0.9939628459,
				"z": 1.639750027,
				"element": "O" 
			},
			{
				"x": -0.9283355613,
				"y": -2.1354189915,
				"z": 0.2073038927,
				"element": "N" 
			},
			{
				"x": -1.9622058593,
				"y": -3.0546321959,
				"z": 0.0292074352,
				"element": "O" 
			},
			{
				"x": -4.0589508547,
				"y": 2.5413557217,
				"z": 1.9291864222,
				"element": "H" 
			},
			{
				"x": -2.7634748927,
				"y": 2.8453390456,
				"z": 3.1213457956,
				"element": "H" 
			},
			{
				"x": -3.7760629812,
				"y": 4.1852298797,
				"z": 2.5462126683,
				"element": "H" 
			},
			{
				"x": -1.0557689664,
				"y": 2.140363624,
				"z": -0.5345239212,
				"element": "H" 
			},
			{
				"x": -2.4136254413,
				"y": 1.3344189425,
				"z": 0.2635657214,
				"element": "H" 
			},
			{
				"x": -1.1096348,
				"y": 1.239972577,
				"z": 2.4067030009,
				"element": "H" 
			},
			{
				"x": 0.2560216974,
				"y": 2.0321686793,
				"z": 1.6167189599,
				"element": "H" 
			},
			{
				"x": 0.6145168488,
				"y": -0.3638260675,
				"z": 1.8510205596,
				"element": "H" 
			},
			{
				"x": 1.6485232241,
				"y": 0.3361369398,
				"z": -0.0612133112,
				"element": "H" 
			},
			{
				"x": 0.2781668844,
				"y": 0.4198382331,
				"z": -0.9423549306,
				"element": "H" 
			},
			{
				"x": -0.2261108448,
				"y": -2.1289132845,
				"z": -0.5190031964,
				"element": "H" 
			},
			{
				"x": -2.6286933502,
				"y": -2.6903627923,
				"z": 0.6523378003,
				"element": "H" 
			}
		],
		 "valence_orbital": [ 
			{
				"type": "occ",
				"energy": -0.3079,
				"method": "rhf"
			},
			{
				"type": "occ",
				"energy": -0.28301,
				"method": "rhf"
			},
			{
				"type": "occ",
				"energy": -0.25909,
				"method": "rhf"
			},
			{
				"type": "occ",
				"energy": -0.23057,
				"method": "rhf"
			},
			{
				"type": "occ",
				"energy": -0.21945,
				"method": "rhf"
			},
			{
				"type": "unocc",
				"energy": 0.01091,
				"method": "rhf"
			},
			{
				"type": "unocc",
				"energy": 0.04059,
				"method": "rhf"
			},
			{
				"type": "unocc",
				"energy": 0.05793,
				"method": "rhf"
			},
			{
				"type": "unocc",
				"energy": 0.08466,
				"method": "rhf"
			},
			{
				"type": "unocc",
				"energy": 0.0893,
				"method": "rhf"
			}
		],
		"cosmo_sigma_profile": { 
			"-0.025": 0.0,
			"-0.024": 0.0,
			"-0.023": 0.0,
			"-0.022": 0.0,
			"-0.021": 0.0,
			"-0.02": 0.0,
			"-0.019": 0.0,
			"-0.018": 0.0,
			"-0.017": 0.0,
			"-0.016": 0.0,
			"-0.015": 0.0,
			"-0.014": 0.418846277265,
			"-0.013": 0.745146016341,
			"-0.012": 0.763806449762,
			"-0.011": 3.53339637343,
			"-0.01": 4.96365159377,
			"-0.009": 4.43052508682,
			"-0.008": 5.24338750734,
			"-0.007": 6.8118699106,
			"-0.006": 9.87868149224,
			"-0.005": 12.6097513216,
			"-0.004": 17.8507703466,
			"-0.003": 16.0656814623,
			"-0.002": 15.200005252,
			"-0.001": 13.7526114589,
			"0.0": 11.024299983,
			"0.001": 9.15156187837,
			"0.002": 7.9973200468,
			"0.003": 6.99038464348,
			"0.004": 7.20762527749,
			"0.005": 7.37053890481,
			"0.006": 6.82686796298,
			"0.007": 5.61788151261,
			"0.008": 7.94425367518,
			"0.009": 5.69053880049,
			"0.01": 5.79019479477,
			"0.011": 6.81316271847,
			"0.012": 3.24633804234,
			"0.013": 2.73143131065,
			"0.014": 0.817205771643,
			"0.015": 0.0,
			"0.016": 0.0,
			"0.017": 0.0,
			"0.018": 0.0,
			"0.019": 0.0,
			"0.02": 0.0,
			"0.021": 0.0,
			"0.022": 0.0,
			"0.023": 0.0,
			"0.024": 0.0,
			"0.025": 0.0
		}
	}
}
