{
	 "smiles": "CC(C)CC(C)(N)C(N)=O", 
	 "Tm": 345.15, 
	 "num_atms": 26, 
	 "gaussian": { 
		 "optdone": 1, 
		 "sigma_profile": "yes", 
		 "theory": "DFT", 
		 "functional": "B3LYP", 
		 "basiset": "6-31G**", 
		 "properties": { 
			 "R2extent": 2186.1104, 
			 "electric_dipole_moment_norm": 3.4769758541, 
			 "electric_quadrupole_moment_norm": 12.0229902108, 
			 "total_energy": -461.144114135, 
			 "HOMO_LUMO_gap": 0.2616, 
			 "cosmo_polarized_energy": -13.42, 
			 "cosmo_cavitation_energy": 26.77, 
			 "cosmo_dispersion_energy": -18.81, 
			 "cosmo_repulsion_energy": 1.54, 
			 "cosmo_total_nonelectrostatic_energy": 9.5, 
			 "SMD_solvation_energy": 4.76 
		},
		"coords": [
			{
				"x": -2.2166394272,
				"y": -1.0378976773,
				"z": -0.1897813141,
				"element": "C" 
			},
			{
				"x": -1.4982019807,
				"y": 0.1824389598,
				"z": -0.7903256461,
				"element": "C" 
			},
			{
				"x": -2.2512696909,
				"y": 1.4738352445,
				"z": -0.432259926,
				"element": "C" 
			},
			{
				"x": -0.021620165,
				"y": 0.2686990945,
				"z": -0.3263916416,
				"element": "C" 
			},
			{
				"x": 1.0336740064,
				"y": -0.4661403887,
				"z": -1.2039268431,
				"element": "C" 
			},
			{
				"x": 2.4017361142,
				"y": -0.4078609912,
				"z": -0.5013389733,
				"element": "C" 
			},
			{
				"x": 0.6658565021,
				"y": -1.8773730867,
				"z": -1.3633380438,
				"element": "N" 
			},
			{
				"x": 1.0696450488,
				"y": 0.2279181398,
				"z": -2.5979984562,
				"element": "C" 
			},
			{
				"x": 1.7198158014,
				"y": 1.424723125,
				"z": -2.6825300408,
				"element": "N" 
			},
			{
				"x": 0.504418184,
				"y": -0.2626741279,
				"z": -3.569687325,
				"element": "O" 
			},
			{
				"x": -2.3100432348,
				"y": -0.9277263461,
				"z": 0.8982567868,
				"element": "H" 
			},
			{
				"x": -1.6652178043,
				"y": -1.9607733728,
				"z": -0.3812165696,
				"element": "H" 
			},
			{
				"x": -3.2278531184,
				"y": -1.1389536062,
				"z": -0.5997330617,
				"element": "H" 
			},
			{
				"x": -1.5116531942,
				"y": 0.0858857686,
				"z": -1.8842719387,
				"element": "H" 
			},
			{
				"x": -2.2330614912,
				"y": 1.6512427135,
				"z": 0.6504767803,
				"element": "H" 
			},
			{
				"x": -3.3013383424,
				"y": 1.4164370789,
				"z": -0.739088736,
				"element": "H" 
			},
			{
				"x": -1.8064422802,
				"y": 2.3477505767,
				"z": -0.9214649229,
				"element": "H" 
			},
			{
				"x": 0.2770505177,
				"y": 1.3237408069,
				"z": -0.270481453,
				"element": "H" 
			},
			{
				"x": 0.0626297676,
				"y": -0.1333433134,
				"z": 0.6912771345,
				"element": "H" 
			},
			{
				"x": 3.2016263095,
				"y": -0.7832079921,
				"z": -1.1493330487,
				"element": "H" 
			},
			{
				"x": 2.6688345648,
				"y": 0.6055805137,
				"z": -0.1845256981,
				"element": "H" 
			},
			{
				"x": 2.3651004446,
				"y": -1.0331430222,
				"z": 0.3952250718,
				"element": "H" 
			},
			{
				"x": -0.0133994891,
				"y": -1.9269467799,
				"z": -2.1223527302,
				"element": "H" 
			},
			{
				"x": 1.4750190237,
				"y": -2.3838176743,
				"z": -1.7208389335,
				"element": "H" 
			},
			{
				"x": 2.1852473223,
				"y": 1.85174065,
				"z": -1.8999781304,
				"element": "H" 
			},
			{
				"x": 1.7016866112,
				"y": 1.9109657069,
				"z": -3.5663723405,
				"element": "H" 
			}
		],
		 "valence_orbital": [ 
			{
				"type": "occ",
				"energy": -0.31541,
				"method": "rhf"
			},
			{
				"type": "occ",
				"energy": -0.30787,
				"method": "rhf"
			},
			{
				"type": "occ",
				"energy": -0.26946,
				"method": "rhf"
			},
			{
				"type": "occ",
				"energy": -0.25225,
				"method": "rhf"
			},
			{
				"type": "occ",
				"energy": -0.23442,
				"method": "rhf"
			},
			{
				"type": "unocc",
				"energy": 0.02718,
				"method": "rhf"
			},
			{
				"type": "unocc",
				"energy": 0.05642,
				"method": "rhf"
			},
			{
				"type": "unocc",
				"energy": 0.09755,
				"method": "rhf"
			},
			{
				"type": "unocc",
				"energy": 0.11139,
				"method": "rhf"
			},
			{
				"type": "unocc",
				"energy": 0.121,
				"method": "rhf"
			}
		],
		"cosmo_sigma_profile": { 
			"-0.025": 0.0,
			"-0.024": 0.0,
			"-0.023": 0.0,
			"-0.022": 0.0,
			"-0.021": 0.0,
			"-0.02": 0.0,
			"-0.019": 0.0,
			"-0.018": 0.0,
			"-0.017": 0.0,
			"-0.016": 0.0,
			"-0.015": 0.0,
			"-0.014": 0.966581932793,
			"-0.013": 2.13293093668,
			"-0.012": 2.31514808804,
			"-0.011": 2.8489977726,
			"-0.01": 2.86061242038,
			"-0.009": 3.73304731191,
			"-0.008": 2.7750017104,
			"-0.007": 4.46426877464,
			"-0.006": 4.88090558763,
			"-0.005": 5.14154418234,
			"-0.004": 6.0258743605,
			"-0.003": 10.5268936594,
			"-0.002": 22.1123316948,
			"-0.001": 26.183280082,
			"0.0": 29.1771600782,
			"0.001": 23.87130389,
			"0.002": 15.9611933075,
			"0.003": 5.90969976902,
			"0.004": 4.53751573374,
			"0.005": 3.3396372853,
			"0.006": 2.53864654071,
			"0.007": 2.37785262199,
			"0.008": 2.17537906737,
			"0.009": 1.44426825843,
			"0.01": 1.64091363264,
			"0.011": 2.38994766422,
			"0.012": 2.61511798036,
			"0.013": 3.40630496511,
			"0.014": 5.06361074681,
			"0.015": 1.1648679935,
			"0.016": 0.522710634004,
			"0.017": 0.126166909798,
			"0.018": 0.504402294202,
			"0.019": 0.0,
			"0.02": 0.0,
			"0.021": 0.0,
			"0.022": 0.0,
			"0.023": 0.0,
			"0.024": 0.0,
			"0.025": 0.0
		}
	}
}
