{
	 "smiles": "CCN(CC1=CC=NC=C1)C(=O)C(CO)C1=CC=CC=C1", 
	 "Tm": 369.15, 
	 "num_atms": 41, 
	 "gaussian": { 
		 "optdone": 1, 
		 "sigma_profile": "yes", 
		 "theory": "DFT", 
		 "functional": "B3LYP", 
		 "basiset": "6-31G**", 
		 "properties": { 
			 "R2extent": 7654.7584, 
			 "electric_dipole_moment_norm": 5.24899787198, 
			 "electric_quadrupole_moment_norm": 15.1209284725, 
			 "total_energy": -919.816731613, 
			 "HOMO_LUMO_gap": 0.2207, 
			 "cosmo_polarized_energy": -20.13, 
			 "cosmo_cavitation_energy": 43.32, 
			 "cosmo_dispersion_energy": -28.83, 
			 "cosmo_repulsion_energy": 2.21, 
			 "cosmo_total_nonelectrostatic_energy": 16.7, 
			 "SMD_solvation_energy": 6.34 
		},
		"coords": [
			{
				"x": -0.7826450951,
				"y": 0.0692022203,
				"z": 3.1263745122,
				"element": "C" 
			},
			{
				"x": -0.3355051271,
				"y": -0.9624740755,
				"z": 2.0861786965,
				"element": "C" 
			},
			{
				"x": 0.4129721509,
				"y": -0.3777462011,
				"z": 0.9672738054,
				"element": "N" 
			},
			{
				"x": 1.8720345894,
				"y": -0.4078705019,
				"z": 1.078785824,
				"element": "C" 
			},
			{
				"x": 2.4638687579,
				"y": -1.7838871058,
				"z": 0.8292613858,
				"element": "C" 
			},
			{
				"x": 1.9367046285,
				"y": -2.6481006961,
				"z": -0.1376573846,
				"element": "C" 
			},
			{
				"x": 2.5548663289,
				"y": -3.881527863,
				"z": -0.3433230925,
				"element": "C" 
			},
			{
				"x": 3.6336223391,
				"y": -4.305604861,
				"z": 0.329706873,
				"element": "N" 
			},
			{
				"x": 4.1302904225,
				"y": -3.4725601309,
				"z": 1.2517300262,
				"element": "C" 
			},
			{
				"x": 3.5879657699,
				"y": -2.2190252324,
				"z": 1.5375951698,
				"element": "C" 
			},
			{
				"x": -0.1283079413,
				"y": 0.2157972612,
				"z": -0.1478192157,
				"element": "C" 
			},
			{
				"x": 0.5826178865,
				"y": 0.7326347955,
				"z": -1.0096152259,
				"element": "O" 
			},
			{
				"x": -1.6520089887,
				"y": 0.194508558,
				"z": -0.3481512201,
				"element": "C" 
			},
			{
				"x": -1.9228510164,
				"y": -0.4741972501,
				"z": -1.7171779745,
				"element": "C" 
			},
			{
				"x": -1.442284847,
				"y": -1.8129820539,
				"z": -1.766300325,
				"element": "O" 
			},
			{
				"x": -2.2722438956,
				"y": 1.5857607225,
				"z": -0.2773713478,
				"element": "C" 
			},
			{
				"x": -3.4372650192,
				"y": 1.7837379477,
				"z": 0.4777139328,
				"element": "C" 
			},
			{
				"x": -4.0586667557,
				"y": 3.032709971,
				"z": 0.526742774,
				"element": "C" 
			},
			{
				"x": -3.5215787589,
				"y": 4.1065399808,
				"z": -0.1838798109,
				"element": "C" 
			},
			{
				"x": -2.362379197,
				"y": 3.9201394729,
				"z": -0.9398787375,
				"element": "C" 
			},
			{
				"x": -1.7415013245,
				"y": 2.6715430654,
				"z": -0.9905253541,
				"element": "C" 
			},
			{
				"x": 0.0752954419,
				"y": 0.6188225485,
				"z": 3.5263685924,
				"element": "H" 
			},
			{
				"x": -1.4731348146,
				"y": 0.7973185524,
				"z": 2.6905832937,
				"element": "H" 
			},
			{
				"x": -1.2867807055,
				"y": -0.426299414,
				"z": 3.9629935554,
				"element": "H" 
			},
			{
				"x": -1.193231078,
				"y": -1.5266227624,
				"z": 1.7113685617,
				"element": "H" 
			},
			{
				"x": 0.3224424694,
				"y": -1.7040041836,
				"z": 2.5493870291,
				"element": "H" 
			},
			{
				"x": 2.2566995218,
				"y": 0.2980712972,
				"z": 0.338558662,
				"element": "H" 
			},
			{
				"x": 2.1691830862,
				"y": -0.0503786875,
				"z": 2.0718493966,
				"element": "H" 
			},
			{
				"x": 1.0597093407,
				"y": -2.372591627,
				"z": -0.7164960671,
				"element": "H" 
			},
			{
				"x": 2.1603747621,
				"y": -4.5665200055,
				"z": -1.0922349651,
				"element": "H" 
			},
			{
				"x": 5.0043305385,
				"y": -3.8256798333,
				"z": 1.7971655223,
				"element": "H" 
			},
			{
				"x": 4.0387236291,
				"y": -1.5935768572,
				"z": 2.3041295716,
				"element": "H" 
			},
			{
				"x": -2.143965925,
				"y": -0.4182728087,
				"z": 0.4116370587,
				"element": "H" 
			},
			{
				"x": -2.997912119,
				"y": -0.4216281132,
				"z": -1.9381989715,
				"element": "H" 
			},
			{
				"x": -1.381291907,
				"y": 0.0725575095,
				"z": -2.4911485863,
				"element": "H" 
			},
			{
				"x": -2.0202369645,
				"y": -2.360784446,
				"z": -1.2198711885,
				"element": "H" 
			},
			{
				"x": -3.8650149337,
				"y": 0.950788644,
				"z": 1.0316577509,
				"element": "H" 
			},
			{
				"x": -4.959143451,
				"y": 3.1646202433,
				"z": 1.1200892666,
				"element": "H" 
			},
			{
				"x": -4.0011036816,
				"y": 5.0805593572,
				"z": -0.1479383574,
				"element": "H" 
			},
			{
				"x": -1.936191667,
				"y": 4.7517962426,
				"z": -1.4940903578,
				"element": "H" 
			},
			{
				"x": -0.83135645,
				"y": 2.53132632,
				"z": -1.5628730785,
				"element": "H" 
			}
		],
		 "valence_orbital": [ 
			{
				"type": "occ",
				"energy": -0.25558,
				"method": "rhf"
			},
			{
				"type": "occ",
				"energy": -0.25194,
				"method": "rhf"
			},
			{
				"type": "occ",
				"energy": -0.24921,
				"method": "rhf"
			},
			{
				"type": "occ",
				"energy": -0.24361,
				"method": "rhf"
			},
			{
				"type": "occ",
				"energy": -0.2406,
				"method": "rhf"
			},
			{
				"type": "unocc",
				"energy": -0.0199,
				"method": "rhf"
			},
			{
				"type": "unocc",
				"energy": -0.00944,
				"method": "rhf"
			},
			{
				"type": "unocc",
				"energy": -0.00644,
				"method": "rhf"
			},
			{
				"type": "unocc",
				"energy": -0.00491,
				"method": "rhf"
			},
			{
				"type": "unocc",
				"energy": 0.02267,
				"method": "rhf"
			}
		],
		"cosmo_sigma_profile": { 
			"-0.025": 0.0,
			"-0.024": 0.0,
			"-0.023": 0.0,
			"-0.022": 0.0,
			"-0.021": 0.0,
			"-0.02": 0.0,
			"-0.019": 0.0,
			"-0.018": 0.0,
			"-0.017": 0.0,
			"-0.016": 0.552801720202,
			"-0.015": 1.11545415885,
			"-0.014": 1.1997024546,
			"-0.013": 1.05476749718,
			"-0.012": 1.00095664999,
			"-0.011": 1.29615383723,
			"-0.01": 0.761765685103,
			"-0.009": 1.42159905945,
			"-0.008": 2.51199291696,
			"-0.007": 5.76585423435,
			"-0.006": 17.3142678824,
			"-0.005": 25.965405338,
			"-0.004": 29.2037912721,
			"-0.003": 32.6438546503,
			"-0.002": 26.1255279777,
			"-0.001": 26.2487455625,
			"0.0": 27.2622965444,
			"0.001": 24.0625772848,
			"0.002": 20.9020817291,
			"0.003": 22.7403121318,
			"0.004": 15.0587955343,
			"0.005": 13.2592859878,
			"0.006": 11.388148974,
			"0.007": 5.14365041482,
			"0.008": 4.19138119831,
			"0.009": 3.7009880828,
			"0.01": 3.7805146123,
			"0.011": 3.4379201791,
			"0.012": 3.4134413976,
			"0.013": 4.58551898999,
			"0.014": 3.43153574988,
			"0.015": 0.827395418911,
			"0.016": 0.912678379816,
			"0.017": 0.465161570003,
			"0.018": 0.000841933377504,
			"0.019": 0.0,
			"0.02": 0.0,
			"0.021": 0.0,
			"0.022": 0.0,
			"0.023": 0.0,
			"0.024": 0.0,
			"0.025": 0.0
		}
	}
}
