{
	 "smiles": "CN1N=C(C(=O)NN)C2=C(C=CC=C2)C1=O", 
	 "Tm": 408.15, 
	 "num_atms": 26, 
	 "gaussian": { 
		 "optdone": 1, 
		 "sigma_profile": "yes", 
		 "theory": "DFT", 
		 "functional": "B3LYP", 
		 "basiset": "6-31G**", 
		 "properties": { 
			 "R2extent": 3999.7502, 
			 "electric_dipole_moment_norm": 0.667491438147, 
			 "electric_quadrupole_moment_norm": 11.3894698946, 
			 "total_energy": -756.528330523, 
			 "HOMO_LUMO_gap": 0.16567, 
			 "cosmo_polarized_energy": -13.9, 
			 "cosmo_cavitation_energy": 30.35, 
			 "cosmo_dispersion_energy": -22.52, 
			 "cosmo_repulsion_energy": 1.73, 
			 "cosmo_total_nonelectrostatic_energy": 9.56, 
			 "SMD_solvation_energy": 6.18 
		},
		"coords": [
			{
				"x": -3.92957943,
				"y": 0.4298869021,
				"z": -0.0166277122,
				"element": "C" 
			},
			{
				"x": -2.5226721573,
				"y": 0.1114421757,
				"z": 0.2258551046,
				"element": "N" 
			},
			{
				"x": -1.7327940026,
				"y": 1.1284458622,
				"z": 0.6026149981,
				"element": "N" 
			},
			{
				"x": -0.4615642608,
				"y": 0.926357374,
				"z": 0.831068295,
				"element": "C" 
			},
			{
				"x": 0.2997127121,
				"y": 2.1659497597,
				"z": 1.2424465527,
				"element": "C" 
			},
			{
				"x": 1.5267719747,
				"y": 2.211732491,
				"z": 1.3284463918,
				"element": "O" 
			},
			{
				"x": -0.4769629749,
				"y": 3.2513255968,
				"z": 1.5162042898,
				"element": "N" 
			},
			{
				"x": 0.0934436252,
				"y": 4.5148847369,
				"z": 1.756933372,
				"element": "N" 
			},
			{
				"x": 0.1594404513,
				"y": -0.3818057894,
				"z": 0.6945576988,
				"element": "C" 
			},
			{
				"x": -0.685977087,
				"y": -1.4479307623,
				"z": 0.3018072116,
				"element": "C" 
			},
			{
				"x": -0.1816620025,
				"y": -2.7484932981,
				"z": 0.151322169,
				"element": "C" 
			},
			{
				"x": 1.1601753432,
				"y": -2.9981540681,
				"z": 0.390435305,
				"element": "C" 
			},
			{
				"x": 2.007350214,
				"y": -1.947614019,
				"z": 0.7812818692,
				"element": "C" 
			},
			{
				"x": 1.5247982639,
				"y": -0.6560297296,
				"z": 0.9333867162,
				"element": "C" 
			},
			{
				"x": -2.1115623339,
				"y": -1.2153569151,
				"z": 0.0431936118,
				"element": "C" 
			},
			{
				"x": -2.924794511,
				"y": -2.065634009,
				"z": -0.3048394735,
				"element": "O" 
			},
			{
				"x": -4.0623696531,
				"y": 1.4933455841,
				"z": 0.1728038975,
				"element": "H" 
			},
			{
				"x": -4.5661566389,
				"y": -0.1612470281,
				"z": 0.6460684177,
				"element": "H" 
			},
			{
				"x": -4.1955631116,
				"y": 0.1873910493,
				"z": -1.0482843627,
				"element": "H" 
			},
			{
				"x": -1.4600372164,
				"y": 3.231712167,
				"z": 1.2888758374,
				"element": "H" 
			},
			{
				"x": 0.502831277,
				"y": 4.493497942,
				"z": 2.6910163605,
				"element": "H" 
			},
			{
				"x": 0.8871510933,
				"y": 4.6118591657,
				"z": 1.1223023183,
				"element": "H" 
			},
			{
				"x": -0.8683631318,
				"y": -3.5313337722,
				"z": -0.1515215695,
				"element": "H" 
			},
			{
				"x": 1.5569778484,
				"y": -4.0025202863,
				"z": 0.2762058208,
				"element": "H" 
			},
			{
				"x": 3.0589576813,
				"y": -2.146153885,
				"z": 0.9672120812,
				"element": "H" 
			},
			{
				"x": 2.1751480276,
				"y": 0.1565427556,
				"z": 1.2260347988,
				"element": "H" 
			}
		],
		 "valence_orbital": [ 
			{
				"type": "occ",
				"energy": -0.26739,
				"method": "rhf"
			},
			{
				"type": "occ",
				"energy": -0.2657,
				"method": "rhf"
			},
			{
				"type": "occ",
				"energy": -0.26204,
				"method": "rhf"
			},
			{
				"type": "occ",
				"energy": -0.25506,
				"method": "rhf"
			},
			{
				"type": "occ",
				"energy": -0.23455,
				"method": "rhf"
			},
			{
				"type": "unocc",
				"energy": -0.06888,
				"method": "rhf"
			},
			{
				"type": "unocc",
				"energy": -0.04818,
				"method": "rhf"
			},
			{
				"type": "unocc",
				"energy": -0.0061,
				"method": "rhf"
			},
			{
				"type": "unocc",
				"energy": 0.05668,
				"method": "rhf"
			},
			{
				"type": "unocc",
				"energy": 0.08498,
				"method": "rhf"
			}
		],
		"cosmo_sigma_profile": { 
			"-0.025": 0.0,
			"-0.024": 0.0,
			"-0.023": 0.0,
			"-0.022": 0.0,
			"-0.021": 0.0,
			"-0.02": 0.0,
			"-0.019": 0.0,
			"-0.018": 0.0,
			"-0.017": 0.0,
			"-0.016": 0.0,
			"-0.015": 0.0,
			"-0.014": 0.0,
			"-0.013": 0.0157461857161,
			"-0.012": 0.888866323945,
			"-0.011": 2.32102345163,
			"-0.01": 3.44873376587,
			"-0.009": 3.19872581155,
			"-0.008": 2.24004274209,
			"-0.007": 6.47936098108,
			"-0.006": 13.9757837011,
			"-0.005": 16.0477526889,
			"-0.004": 18.3665931694,
			"-0.003": 21.6786695602,
			"-0.002": 20.208894277,
			"-0.001": 17.6029465458,
			"0.0": 17.6462591848,
			"0.001": 18.6391524188,
			"0.002": 18.3454745006,
			"0.003": 15.6824332352,
			"0.004": 4.55933268884,
			"0.005": 3.79177545965,
			"0.006": 4.11025780412,
			"0.007": 3.78409731811,
			"0.008": 3.21983301465,
			"0.009": 2.45956211178,
			"0.01": 3.32300823496,
			"0.011": 5.04082316183,
			"0.012": 6.74323460357,
			"0.013": 6.60536179927,
			"0.014": 0.690745028572,
			"0.015": 0.631671145489,
			"0.016": 0.589199898981,
			"0.017": 0.170437717717,
			"0.018": 0.0,
			"0.019": 0.0,
			"0.02": 0.0,
			"0.021": 0.0,
			"0.022": 0.0,
			"0.023": 0.0,
			"0.024": 0.0,
			"0.025": 0.0
		}
	}
}
