{
	 "smiles": "COCCOCCO", 
	 "Tm": 203.15, 
	 "num_atms": 20, 
	 "gaussian": { 
		 "optdone": 1, 
		 "sigma_profile": "yes", 
		 "theory": "DFT", 
		 "functional": "B3LYP", 
		 "basiset": "6-31G**", 
		 "properties": { 
			 "R2extent": 2070.2497, 
			 "electric_dipole_moment_norm": 1.91516470832, 
			 "electric_quadrupole_moment_norm": 13.2330146002, 
			 "total_energy": -423.389808657, 
			 "HOMO_LUMO_gap": 0.31286, 
			 "cosmo_polarized_energy": -9.61, 
			 "cosmo_cavitation_energy": 22.37, 
			 "cosmo_dispersion_energy": -16.32, 
			 "cosmo_repulsion_energy": 1.39, 
			 "cosmo_total_nonelectrostatic_energy": 7.45, 
			 "SMD_solvation_energy": 4.59 
		},
		"coords": [
			{
				"x": -0.1004582791,
				"y": 1.1392848203,
				"z": -1.6678296697,
				"element": "C" 
			},
			{
				"x": -1.1054944355,
				"y": 0.5222051625,
				"z": -2.4566791421,
				"element": "O" 
			},
			{
				"x": -1.2473736358,
				"y": -0.8694424484,
				"z": -2.2599841151,
				"element": "C" 
			},
			{
				"x": -2.0430492219,
				"y": -1.2471596068,
				"z": -1.0099546474,
				"element": "C" 
			},
			{
				"x": -1.3342976987,
				"y": -1.019718064,
				"z": 0.2090775559,
				"element": "O" 
			},
			{
				"x": -0.4927850529,
				"y": -2.095601352,
				"z": 0.634186961,
				"element": "C" 
			},
			{
				"x": -1.2805480825,
				"y": -3.0425379529,
				"z": 1.5346572371,
				"element": "C" 
			},
			{
				"x": -1.8460195041,
				"y": -2.3426689277,
				"z": 2.625801153,
				"element": "O" 
			},
			{
				"x": 0.8738817132,
				"y": 0.6427197696,
				"z": -1.8023205754,
				"element": "H" 
			},
			{
				"x": -0.0171167556,
				"y": 2.1713603244,
				"z": -2.0184059129,
				"element": "H" 
			},
			{
				"x": -0.3464012005,
				"y": 1.134434473,
				"z": -0.6001511499,
				"element": "H" 
			},
			{
				"x": -0.2625571656,
				"y": -1.3672489214,
				"z": -2.2486862939,
				"element": "H" 
			},
			{
				"x": -1.7950875991,
				"y": -1.2429863962,
				"z": -3.1343387417,
				"element": "H" 
			},
			{
				"x": -2.9410557559,
				"y": -0.6224008778,
				"z": -0.9652261341,
				"element": "H" 
			},
			{
				"x": -2.3653847059,
				"y": -2.2970855423,
				"z": -1.0864980638,
				"element": "H" 
			},
			{
				"x": 0.3200730162,
				"y": -1.6369646829,
				"z": 1.2065049701,
				"element": "H" 
			},
			{
				"x": -0.0547529981,
				"y": -2.6296146423,
				"z": -0.2209135864,
				"element": "H" 
			},
			{
				"x": -0.6136484053,
				"y": -3.8101647276,
				"z": 1.9435558902,
				"element": "H" 
			},
			{
				"x": -2.0547587998,
				"y": -3.5626702449,
				"z": 0.9440854325,
				"element": "H" 
			},
			{
				"x": -2.2325654331,
				"y": -1.5406401625,
				"z": 2.2434188324,
				"element": "H" 
			}
		],
		 "valence_orbital": [ 
			{
				"type": "occ",
				"energy": -0.32246,
				"method": "rhf"
			},
			{
				"type": "occ",
				"energy": -0.3134,
				"method": "rhf"
			},
			{
				"type": "occ",
				"energy": -0.29005,
				"method": "rhf"
			},
			{
				"type": "occ",
				"energy": -0.26319,
				"method": "rhf"
			},
			{
				"type": "occ",
				"energy": -0.23922,
				"method": "rhf"
			},
			{
				"type": "unocc",
				"energy": 0.07364,
				"method": "rhf"
			},
			{
				"type": "unocc",
				"energy": 0.10018,
				"method": "rhf"
			},
			{
				"type": "unocc",
				"energy": 0.1095,
				"method": "rhf"
			},
			{
				"type": "unocc",
				"energy": 0.12168,
				"method": "rhf"
			},
			{
				"type": "unocc",
				"energy": 0.1274,
				"method": "rhf"
			}
		],
		"cosmo_sigma_profile": { 
			"-0.025": 0.0,
			"-0.024": 0.0,
			"-0.023": 0.0,
			"-0.022": 0.0,
			"-0.021": 0.0,
			"-0.02": 0.0,
			"-0.019": 0.0,
			"-0.018": 0.0,
			"-0.017": 0.0,
			"-0.016": 0.0,
			"-0.015": 0.0,
			"-0.014": 0.0,
			"-0.013": 0.0,
			"-0.012": 0.222250179207,
			"-0.011": 0.611768023096,
			"-0.01": 0.775279430839,
			"-0.009": 0.407412604396,
			"-0.008": 0.807913413523,
			"-0.007": 0.35497032359,
			"-0.006": 2.41363235259,
			"-0.005": 18.1247828271,
			"-0.004": 26.3924718616,
			"-0.003": 23.3957428522,
			"-0.002": 20.9666886196,
			"-0.001": 14.9628753042,
			"0.0": 8.92023309253,
			"0.001": 6.97933656094,
			"0.002": 4.78161059679,
			"0.003": 5.57671043172,
			"0.004": 4.35467638797,
			"0.005": 4.22490072901,
			"0.006": 3.53919026986,
			"0.007": 3.05987137502,
			"0.008": 2.8978165821,
			"0.009": 3.61900618871,
			"0.01": 2.60677090011,
			"0.011": 2.73305626928,
			"0.012": 2.73300540284,
			"0.013": 3.0029504584,
			"0.014": 3.58879927363,
			"0.015": 1.24245390207,
			"0.016": 0.0,
			"0.017": 0.0,
			"0.018": 0.0,
			"0.019": 0.0,
			"0.02": 0.0,
			"0.021": 0.0,
			"0.022": 0.0,
			"0.023": 0.0,
			"0.024": 0.0,
			"0.025": 0.0
		}
	}
}
