{
	 "smiles": "OC(=O)CCCCCCC(=O)C1=CC=CC=C1", 
	 "Tm": 354.15, 
	 "num_atms": 35, 
	 "gaussian": { 
		 "optdone": 1, 
		 "sigma_profile": "yes", 
		 "theory": "DFT", 
		 "functional": "B3LYP", 
		 "basiset": "6-31G**", 
		 "properties": { 
			 "R2extent": 6106.5004, 
			 "electric_dipole_moment_norm": 1.38131183301, 
			 "electric_quadrupole_moment_norm": 25.6292760538, 
			 "total_energy": -770.033977842, 
			 "HOMO_LUMO_gap": 0.19427, 
			 "cosmo_polarized_energy": -19.19, 
			 "cosmo_cavitation_energy": 38.34, 
			 "cosmo_dispersion_energy": -25.84, 
			 "cosmo_repulsion_energy": 2.03, 
			 "cosmo_total_nonelectrostatic_energy": 14.54, 
			 "SMD_solvation_energy": 7.16 
		},
		"coords": [
			{
				"x": 1.4563636631,
				"y": -1.2749778325,
				"z": -2.1888558383,
				"element": "O" 
			},
			{
				"x": 1.1848688284,
				"y": -1.0897764337,
				"z": -3.5156951909,
				"element": "C" 
			},
			{
				"x": 1.9223015379,
				"y": -0.4124737465,
				"z": -4.1851962762,
				"element": "O" 
			},
			{
				"x": -0.0768721539,
				"y": -1.7717239577,
				"z": -4.0315470335,
				"element": "C" 
			},
			{
				"x": -1.3458084074,
				"y": -1.3843486953,
				"z": -3.2463584436,
				"element": "C" 
			},
			{
				"x": -1.6453564148,
				"y": 0.1210987665,
				"z": -3.2909649811,
				"element": "C" 
			},
			{
				"x": -2.8069856114,
				"y": 0.5678168483,
				"z": -2.3866588188,
				"element": "C" 
			},
			{
				"x": -2.6124697663,
				"y": 0.327924525,
				"z": -0.8790609059,
				"element": "C" 
			},
			{
				"x": -1.3609355052,
				"y": 0.9915672842,
				"z": -0.2965860308,
				"element": "C" 
			},
			{
				"x": -1.264367869,
				"y": 0.8543293206,
				"z": 1.2205765647,
				"element": "C" 
			},
			{
				"x": -2.1263548307,
				"y": 0.2560815435,
				"z": 1.8491229375,
				"element": "O" 
			},
			{
				"x": -0.0920582049,
				"y": 1.4668995532,
				"z": 1.9291880623,
				"element": "C" 
			},
			{
				"x": 0.9507715088,
				"y": 2.1211892088,
				"z": 1.2550541019,
				"element": "C" 
			},
			{
				"x": 2.0166287961,
				"y": 2.6691184443,
				"z": 1.9688482028,
				"element": "C" 
			},
			{
				"x": 2.05005336,
				"y": 2.5709175196,
				"z": 3.3610763292,
				"element": "C" 
			},
			{
				"x": 1.0153229696,
				"y": 1.9208828051,
				"z": 4.0411027852,
				"element": "C" 
			},
			{
				"x": -0.0468526941,
				"y": 1.3719936487,
				"z": 3.3296658759,
				"element": "C" 
			},
			{
				"x": 0.8011926462,
				"y": -1.8666734826,
				"z": -1.7922331727,
				"element": "H" 
			},
			{
				"x": -0.1714281598,
				"y": -1.4965971556,
				"z": -5.0844757434,
				"element": "H" 
			},
			{
				"x": 0.0729987709,
				"y": -2.8590561276,
				"z": -3.9880185145,
				"element": "H" 
			},
			{
				"x": -2.1959822173,
				"y": -1.9443307352,
				"z": -3.6541464236,
				"element": "H" 
			},
			{
				"x": -1.2539633314,
				"y": -1.7186971561,
				"z": -2.2036740234,
				"element": "H" 
			},
			{
				"x": -1.8710030247,
				"y": 0.401986399,
				"z": -4.3276109865,
				"element": "H" 
			},
			{
				"x": -0.7398903264,
				"y": 0.6818278117,
				"z": -3.0265712997,
				"element": "H" 
			},
			{
				"x": -2.9798408437,
				"y": 1.6387990913,
				"z": -2.5569583092,
				"element": "H" 
			},
			{
				"x": -3.727710649,
				"y": 0.0600947496,
				"z": -2.7038651756,
				"element": "H" 
			},
			{
				"x": -2.5830614603,
				"y": -0.7449571184,
				"z": -0.6572769794,
				"element": "H" 
			},
			{
				"x": -3.4901860102,
				"y": 0.7019578622,
				"z": -0.3422089665,
				"element": "H" 
			},
			{
				"x": -0.4451168646,
				"y": 0.5725112141,
				"z": -0.7354107344,
				"element": "H" 
			},
			{
				"x": -1.3381449745,
				"y": 2.0614429729,
				"z": -0.5494664355,
				"element": "H" 
			},
			{
				"x": 0.9418259835,
				"y": 2.2029177997,
				"z": 0.1732477329,
				"element": "H" 
			},
			{
				"x": 2.820614413,
				"y": 3.1702712828,
				"z": 1.4380777935,
				"element": "H" 
			},
			{
				"x": 2.8806959091,
				"y": 2.9987295201,
				"z": 3.9153427023,
				"element": "H" 
			},
			{
				"x": 1.0406003349,
				"y": 1.8437578636,
				"z": 5.1242696778,
				"element": "H" 
			},
			{
				"x": -0.8607494017,
				"y": 0.8613964062,
				"z": 3.8334675176,
				"element": "H" 
			}
		],
		 "valence_orbital": [ 
			{
				"type": "occ",
				"energy": -0.31663,
				"method": "rhf"
			},
			{
				"type": "occ",
				"energy": -0.26938,
				"method": "rhf"
			},
			{
				"type": "occ",
				"energy": -0.26033,
				"method": "rhf"
			},
			{
				"type": "occ",
				"energy": -0.25722,
				"method": "rhf"
			},
			{
				"type": "occ",
				"energy": -0.24922,
				"method": "rhf"
			},
			{
				"type": "unocc",
				"energy": -0.05495,
				"method": "rhf"
			},
			{
				"type": "unocc",
				"energy": -0.00857,
				"method": "rhf"
			},
			{
				"type": "unocc",
				"energy": 0.00678,
				"method": "rhf"
			},
			{
				"type": "unocc",
				"energy": 0.03522,
				"method": "rhf"
			},
			{
				"type": "unocc",
				"energy": 0.04178,
				"method": "rhf"
			}
		],
		"cosmo_sigma_profile": { 
			"-0.025": 0.0,
			"-0.024": 0.0,
			"-0.023": 0.0,
			"-0.022": 0.0,
			"-0.021": 0.0,
			"-0.02": 0.0,
			"-0.019": 0.0,
			"-0.018": 0.415028491627,
			"-0.017": 1.17226163748,
			"-0.016": 0.714050170642,
			"-0.015": 1.0930260501,
			"-0.014": 0.9884447054,
			"-0.013": 0.818131584239,
			"-0.012": 1.03552628091,
			"-0.011": 0.938051070044,
			"-0.01": 1.38757794477,
			"-0.009": 1.42066128697,
			"-0.008": 1.56770741848,
			"-0.007": 3.71715989438,
			"-0.006": 14.0171044419,
			"-0.005": 20.9397701633,
			"-0.004": 24.1145513325,
			"-0.003": 28.9876107565,
			"-0.002": 34.3419200152,
			"-0.001": 28.7019730037,
			"0.0": 23.4001159984,
			"0.001": 16.4307577497,
			"0.002": 13.4807126932,
			"0.003": 13.0632342782,
			"0.004": 16.0069096483,
			"0.005": 7.12165540027,
			"0.006": 4.42509729334,
			"0.007": 3.36716672831,
			"0.008": 4.12620381033,
			"0.009": 4.47694834822,
			"0.01": 6.02737059798,
			"0.011": 8.11144346371,
			"0.012": 10.1060451189,
			"0.013": 4.41119361653,
			"0.014": 0.286523507292,
			"0.015": 0.0,
			"0.016": 0.0,
			"0.017": 0.0,
			"0.018": 0.0,
			"0.019": 0.0,
			"0.02": 0.0,
			"0.021": 0.0,
			"0.022": 0.0,
			"0.023": 0.0,
			"0.024": 0.0,
			"0.025": 0.0
		}
	}
}
