{
	 "smiles": "CN1C=C(C(=O)NC1=O)[N+]([O-])=O", 
	 "Tm": 541.15, 
	 "num_atms": 17, 
	 "gaussian": { 
		 "optdone": 1, 
		 "sigma_profile": "yes", 
		 "theory": "DFT", 
		 "functional": "B3LYP", 
		 "basiset": "6-31G**", 
		 "properties": { 
			 "R2extent": 2729.2682, 
			 "electric_dipole_moment_norm": 5.83551671577, 
			 "electric_quadrupole_moment_norm": 9.33069642363, 
			 "total_energy": -658.613307017, 
			 "HOMO_LUMO_gap": 0.18074, 
			 "cosmo_polarized_energy": -22.33, 
			 "cosmo_cavitation_energy": 22.8, 
			 "cosmo_dispersion_energy": -16.9, 
			 "cosmo_repulsion_energy": 1.34, 
			 "cosmo_total_nonelectrostatic_energy": 7.25, 
			 "SMD_solvation_energy": 8.23 
		},
		"coords": [
			{
				"x": 1.5055632,
				"y": 3.6333345037,
				"z": 0.06125739,
				"element": "C" 
			},
			{
				"x": 0.5402841925,
				"y": 2.6339410811,
				"z": 0.5340234012,
				"element": "N" 
			},
			{
				"x": 0.7683577093,
				"y": 1.3036822219,
				"z": 0.4330708336,
				"element": "C" 
			},
			{
				"x": -0.1092580695,
				"y": 0.3528852842,
				"z": 0.863795445,
				"element": "C" 
			},
			{
				"x": -1.3873232866,
				"y": 0.7346430794,
				"z": 1.4783393404,
				"element": "C" 
			},
			{
				"x": -2.2752831931,
				"y": 0.0331872674,
				"z": 1.9116063168,
				"element": "O" 
			},
			{
				"x": -1.516928885,
				"y": 2.146310114,
				"z": 1.5313296396,
				"element": "N" 
			},
			{
				"x": -0.6520461571,
				"y": 3.1320704766,
				"z": 1.1069007329,
				"element": "C" 
			},
			{
				"x": -0.8648665676,
				"y": 4.3246114479,
				"z": 1.2018326547,
				"element": "O" 
			},
			{
				"x": 0.2821976692,
				"y": -1.0374848334,
				"z": 0.6846295083,
				"element": "N" 
			},
			{
				"x": -0.4881974203,
				"y": -1.9085805907,
				"z": 1.0662510961,
				"element": "O" 
			},
			{
				"x": 1.3807568633,
				"y": -1.2474889934,
				"z": 0.152355868,
				"element": "O" 
			},
			{
				"x": 2.3682469185,
				"y": 3.1135851881,
				"z": -0.3547821589,
				"element": "H" 
			},
			{
				"x": 1.0444872404,
				"y": 4.2622072488,
				"z": -0.70249943,
				"element": "H" 
			},
			{
				"x": 1.8177362019,
				"y": 4.2696914439,
				"z": 0.891357223,
				"element": "H" 
			},
			{
				"x": 1.7028015467,
				"y": 0.9895351632,
				"z": -0.0163840366,
				"element": "H" 
			},
			{
				"x": -2.3802279626,
				"y": 2.4786698971,
				"z": 1.9460161761,
				"element": "H" 
			}
		],
		 "valence_orbital": [ 
			{
				"type": "occ",
				"energy": -0.31182,
				"method": "rhf"
			},
			{
				"type": "occ",
				"energy": -0.30769,
				"method": "rhf"
			},
			{
				"type": "occ",
				"energy": -0.2957,
				"method": "rhf"
			},
			{
				"type": "occ",
				"energy": -0.27784,
				"method": "rhf"
			},
			{
				"type": "occ",
				"energy": -0.2774,
				"method": "rhf"
			},
			{
				"type": "unocc",
				"energy": -0.09666,
				"method": "rhf"
			},
			{
				"type": "unocc",
				"energy": -0.04728,
				"method": "rhf"
			},
			{
				"type": "unocc",
				"energy": -0.0063,
				"method": "rhf"
			},
			{
				"type": "unocc",
				"energy": 0.05132,
				"method": "rhf"
			},
			{
				"type": "unocc",
				"energy": 0.07593,
				"method": "rhf"
			}
		],
		"cosmo_sigma_profile": { 
			"-0.025": 0.0,
			"-0.024": 0.0,
			"-0.023": 0.0,
			"-0.022": 0.0,
			"-0.021": 0.0,
			"-0.02": 0.0,
			"-0.019": 0.0,
			"-0.018": 0.0,
			"-0.017": 0.429256865601,
			"-0.016": 1.09197212057,
			"-0.015": 0.730475187604,
			"-0.014": 1.04916264396,
			"-0.013": 1.51853072955,
			"-0.012": 2.61445671284,
			"-0.011": 2.56931093332,
			"-0.01": 2.72529283711,
			"-0.009": 3.37855216835,
			"-0.008": 5.07354747964,
			"-0.007": 12.9152646468,
			"-0.006": 16.7279938472,
			"-0.005": 17.3952414232,
			"-0.004": 16.4175735086,
			"-0.003": 7.13780361427,
			"-0.002": 4.4446260376,
			"-0.001": 4.27259118403,
			"0.0": 4.61985835133,
			"0.001": 3.41731412905,
			"0.002": 3.07424094386,
			"0.003": 4.10488025461,
			"0.004": 4.54112339886,
			"0.005": 3.57559369134,
			"0.006": 4.71550556342,
			"0.007": 8.15895929017,
			"0.008": 10.8502505959,
			"0.009": 8.06912672851,
			"0.01": 8.06768119608,
			"0.011": 10.3234025556,
			"0.012": 5.37188562051,
			"0.013": 1.58151322033,
			"0.014": 1.33930972093,
			"0.015": 0.337427173132,
			"0.016": 0.0,
			"0.017": 0.0,
			"0.018": 0.0,
			"0.019": 0.0,
			"0.02": 0.0,
			"0.021": 0.0,
			"0.022": 0.0,
			"0.023": 0.0,
			"0.024": 0.0,
			"0.025": 0.0
		}
	}
}
