{
	 "smiles": "FC1=CC2=C(C=C1)N=C(NCC1=CC=CC=C1)S2", 
	 "Tm": 456.15, 
	 "num_atms": 29, 
	 "gaussian": { 
		 "optdone": 1, 
		 "sigma_profile": "yes", 
		 "theory": "DFT", 
		 "functional": "B3LYP", 
		 "basiset": "6-31G**", 
		 "properties": { 
			 "R2extent": 8282.4378, 
			 "electric_dipole_moment_norm": 3.87219249651, 
			 "electric_quadrupole_moment_norm": 3.01562286269, 
			 "total_energy": -1147.65561685, 
			 "HOMO_LUMO_gap": 0.18368, 
			 "cosmo_polarized_energy": -10.09, 
			 "cosmo_cavitation_energy": 35.68, 
			 "cosmo_dispersion_energy": -26.49, 
			 "cosmo_repulsion_energy": 1.95, 
			 "cosmo_total_nonelectrostatic_energy": 11.14, 
			 "SMD_solvation_energy": 3.7 
		},
		"coords": [
			{
				"x": 1.2416816622,
				"y": 4.0337379466,
				"z": 5.4508848118,
				"element": "F" 
			},
			{
				"x": 0.9993789924,
				"y": 2.9914168235,
				"z": 4.623865031,
				"element": "C" 
			},
			{
				"x": 0.696384764,
				"y": 3.2574736266,
				"z": 3.2940104176,
				"element": "C" 
			},
			{
				"x": 0.4522654529,
				"y": 2.1581017059,
				"z": 2.4730334333,
				"element": "C" 
			},
			{
				"x": 0.5089999576,
				"y": 0.8269268408,
				"z": 2.9557115764,
				"element": "C" 
			},
			{
				"x": 0.8188164298,
				"y": 0.6097271923,
				"z": 4.3054113736,
				"element": "C" 
			},
			{
				"x": 1.064217003,
				"y": 1.6960370278,
				"z": 5.1405815536,
				"element": "C" 
			},
			{
				"x": 0.2510208723,
				"y": -0.1660511534,
				"z": 2.024590816,
				"element": "N" 
			},
			{
				"x": -0.0115883483,
				"y": 0.3473841945,
				"z": 0.8620622851,
				"element": "C" 
			},
			{
				"x": -0.3612836316,
				"y": -0.3910048378,
				"z": -0.2308543983,
				"element": "N" 
			},
			{
				"x": -0.3098814065,
				"y": 0.1102768905,
				"z": -1.6002168065,
				"element": "C" 
			},
			{
				"x": -0.9929011073,
				"y": -0.8446761955,
				"z": -2.5575311941,
				"element": "C" 
			},
			{
				"x": -0.3434834978,
				"y": -1.2640516026,
				"z": -3.723200461,
				"element": "C" 
			},
			{
				"x": -0.979760513,
				"y": -2.1234112532,
				"z": -4.6217826081,
				"element": "C" 
			},
			{
				"x": -2.2718532153,
				"y": -2.5778323074,
				"z": -4.3576160884,
				"element": "C" 
			},
			{
				"x": -2.925753929,
				"y": -2.1679374623,
				"z": -3.1925428075,
				"element": "C" 
			},
			{
				"x": -2.2916272052,
				"y": -1.3056051565,
				"z": -2.2992615822,
				"element": "C" 
			},
			{
				"x": 0.05074926,
				"y": 2.1398909456,
				"z": 0.7590169017,
				"element": "S" 
			},
			{
				"x": 0.657583637,
				"y": 4.2808901259,
				"z": 2.9389447506,
				"element": "H" 
			},
			{
				"x": 0.8622439624,
				"y": -0.4064817217,
				"z": 4.6822536873,
				"element": "H" 
			},
			{
				"x": 1.305764142,
				"y": 1.5598672703,
				"z": 6.1889666229,
				"element": "H" 
			},
			{
				"x": -0.2069095284,
				"y": -1.3837134335,
				"z": -0.1045250865,
				"element": "H" 
			},
			{
				"x": -0.8238547226,
				"y": 1.0806127245,
				"z": -1.6201330096,
				"element": "H" 
			},
			{
				"x": 0.723927755,
				"y": 0.2923700327,
				"z": -1.9300262974,
				"element": "H" 
			},
			{
				"x": 0.6662630876,
				"y": -0.917431293,
				"z": -3.9290125595,
				"element": "H" 
			},
			{
				"x": -0.4628045906,
				"y": -2.4411066361,
				"z": -5.5226601364,
				"element": "H" 
			},
			{
				"x": -2.7670149659,
				"y": -3.2491703169,
				"z": -5.0531681207,
				"element": "H" 
			},
			{
				"x": -3.9318867798,
				"y": -2.5186328555,
				"z": -2.9812297991,
				"element": "H" 
			},
			{
				"x": -2.798993537,
				"y": -0.988707122,
				"z": -1.3923723059,
				"element": "H" 
			}
		],
		 "valence_orbital": [ 
			{
				"type": "occ",
				"energy": -0.2755,
				"method": "rhf"
			},
			{
				"type": "occ",
				"energy": -0.2611,
				"method": "rhf"
			},
			{
				"type": "occ",
				"energy": -0.25611,
				"method": "rhf"
			},
			{
				"type": "occ",
				"energy": -0.2355,
				"method": "rhf"
			},
			{
				"type": "occ",
				"energy": -0.20338,
				"method": "rhf"
			},
			{
				"type": "unocc",
				"energy": -0.0197,
				"method": "rhf"
			},
			{
				"type": "unocc",
				"energy": -0.01278,
				"method": "rhf"
			},
			{
				"type": "unocc",
				"energy": -0.0096,
				"method": "rhf"
			},
			{
				"type": "unocc",
				"energy": -0.00401,
				"method": "rhf"
			},
			{
				"type": "unocc",
				"energy": 0.00801,
				"method": "rhf"
			}
		],
		"cosmo_sigma_profile": { 
			"-0.025": 0.0,
			"-0.024": 0.0,
			"-0.023": 0.0,
			"-0.022": 0.0,
			"-0.021": 0.0,
			"-0.02": 0.0,
			"-0.019": 0.0,
			"-0.018": 0.0,
			"-0.017": 0.0,
			"-0.016": 0.0,
			"-0.015": 0.0,
			"-0.014": 0.479229447514,
			"-0.013": 0.732651352065,
			"-0.012": 0.736426018777,
			"-0.011": 0.854125255657,
			"-0.01": 0.892568024099,
			"-0.009": 1.10930955912,
			"-0.008": 2.80865136503,
			"-0.007": 5.13968537989,
			"-0.006": 15.9272596537,
			"-0.005": 21.5690305856,
			"-0.004": 24.0264408033,
			"-0.003": 20.2570501931,
			"-0.002": 16.8463714281,
			"-0.001": 15.5820338635,
			"0.0": 17.5232731664,
			"0.001": 24.9303690907,
			"0.002": 24.6363357092,
			"0.003": 29.2972845363,
			"0.004": 29.0235694909,
			"0.005": 20.1229144977,
			"0.006": 6.58051755037,
			"0.007": 1.57567647112,
			"0.008": 1.24345181184,
			"0.009": 0.760596948632,
			"0.01": 1.25537089989,
			"0.011": 1.29750470191,
			"0.012": 0.72671884794,
			"0.013": 0.909852444489,
			"0.014": 0.926429657097,
			"0.015": 0.724408597048,
			"0.016": 0.0246146811948,
			"0.017": 0.0,
			"0.018": 0.0,
			"0.019": 0.0,
			"0.02": 0.0,
			"0.021": 0.0,
			"0.022": 0.0,
			"0.023": 0.0,
			"0.024": 0.0,
			"0.025": 0.0
		}
	}
}
