{
	 "smiles": "CC1(C)OC(=O)C(=CC2=CC=C(I)O2)C(=O)O1", 
	 "Tm": 398.15, 
	 "num_atms": 26, 
	 "gaussian": { 
		 "optdone": 1, 
		 "sigma_profile": "yes", 
		 "theory": "DFT", 
		 "functional": "B3LYP", 
		 "basiset": "6-31G**", 
		 "properties": { 
			 "R2extent": 4945.3249, 
			 "electric_dipole_moment_norm": 3.38149962886, 
			 "electric_quadrupole_moment_norm": 26.5188925991, 
			 "total_energy": -812.076931007, 
			 "HOMO_LUMO_gap": 0.13774, 
			 "cosmo_polarized_energy": -17.28, 
			 "cosmo_cavitation_energy": 34.57, 
			 "cosmo_dispersion_energy": -25.94, 
			 "cosmo_repulsion_energy": 2.0, 
			 "cosmo_total_nonelectrostatic_energy": 10.63, 
			 "SMD_solvation_energy": 7.63 
		},
		"coords": [
			{
				"x": 0.3288607981,
				"y": 2.0375703044,
				"z": -1.6575099683,
				"element": "C" 
			},
			{
				"x": 0.1159836982,
				"y": 2.605877511,
				"z": -0.254574791,
				"element": "C" 
			},
			{
				"x": 0.3181842592,
				"y": 4.1092602636,
				"z": -0.1782916343,
				"element": "C" 
			},
			{
				"x": -1.2349074618,
				"y": 2.3676083284,
				"z": 0.1736209148,
				"element": "O" 
			},
			{
				"x": -1.5962283005,
				"y": 1.1148016427,
				"z": 0.56682094,
				"element": "C" 
			},
			{
				"x": -2.7714942205,
				"y": 0.8348048947,
				"z": 0.6520767015,
				"element": "O" 
			},
			{
				"x": -0.4769546451,
				"y": 0.1864296849,
				"z": 0.8972816984,
				"element": "C" 
			},
			{
				"x": -0.8374251571,
				"y": -1.1195077972,
				"z": 1.0711690508,
				"element": "C" 
			},
			{
				"x": -0.1317101547,
				"y": -2.3270303513,
				"z": 1.3256231845,
				"element": "C" 
			},
			{
				"x": -0.6635779517,
				"y": -3.5921498496,
				"z": 1.5181822781,
				"element": "C" 
			},
			{
				"x": 0.4188775147,
				"y": -4.4820418303,
				"z": 1.7073170182,
				"element": "C" 
			},
			{
				"x": 1.5473643996,
				"y": -3.7029578802,
				"z": 1.6057153152,
				"element": "C" 
			},
			{
				"x": 3.5501573934,
				"y": -4.1985289878,
				"z": 1.7413465262,
				"element": "I" 
			},
			{
				"x": 1.2400691512,
				"y": -2.4126649341,
				"z": 1.3784847906,
				"element": "O" 
			},
			{
				"x": 0.8737936624,
				"y": 0.7542926772,
				"z": 1.1214429298,
				"element": "C" 
			},
			{
				"x": 1.7717317229,
				"y": 0.2229141693,
				"z": 1.7287272615,
				"element": "O" 
			},
			{
				"x": 1.0546743376,
				"y": 2.0327169789,
				"z": 0.6622277477,
				"element": "O" 
			},
			{
				"x": 0.1753105041,
				"y": 0.9551165397,
				"z": -1.6708151789,
				"element": "H" 
			},
			{
				"x": 1.3488154012,
				"y": 2.2464949098,
				"z": -1.9891434163,
				"element": "H" 
			},
			{
				"x": -0.3756602694,
				"y": 2.4969870222,
				"z": -2.3550502564,
				"element": "H" 
			},
			{
				"x": 0.1493710188,
				"y": 4.4476633332,
				"z": 0.8459532803,
				"element": "H" 
			},
			{
				"x": 1.3388788882,
				"y": 4.361887939,
				"z": -0.4739114581,
				"element": "H" 
			},
			{
				"x": -0.3863944531,
				"y": 4.6144520265,
				"z": -0.8427383078,
				"element": "H" 
			},
			{
				"x": -1.9086270144,
				"y": -1.2872669086,
				"z": 0.9699752437,
				"element": "H" 
			},
			{
				"x": -1.7172446274,
				"y": -3.8345743564,
				"z": 1.5223527969,
				"element": "H" 
			},
			{
				"x": 0.3863515058,
				"y": -5.5449553303,
				"z": 1.8908173329,
				"element": "H" 
			}
		],
		 "valence_orbital": [ 
			{
				"type": "occ",
				"energy": -0.29438,
				"method": "rhf"
			},
			{
				"type": "occ",
				"energy": -0.29214,
				"method": "rhf"
			},
			{
				"type": "occ",
				"energy": -0.28468,
				"method": "rhf"
			},
			{
				"type": "occ",
				"energy": -0.26709,
				"method": "rhf"
			},
			{
				"type": "occ",
				"energy": -0.2353,
				"method": "rhf"
			},
			{
				"type": "unocc",
				"energy": -0.09756,
				"method": "rhf"
			},
			{
				"type": "unocc",
				"energy": -0.05347,
				"method": "rhf"
			},
			{
				"type": "unocc",
				"energy": 0.00094,
				"method": "rhf"
			},
			{
				"type": "unocc",
				"energy": 0.00482,
				"method": "rhf"
			},
			{
				"type": "unocc",
				"energy": 0.04122,
				"method": "rhf"
			}
		],
		"cosmo_sigma_profile": { 
			"-0.025": 0.0,
			"-0.024": 0.0,
			"-0.023": 0.0,
			"-0.022": 0.0,
			"-0.021": 0.0,
			"-0.02": 0.0,
			"-0.019": 0.0,
			"-0.018": 0.0,
			"-0.017": 0.0,
			"-0.016": 0.0,
			"-0.015": 0.0,
			"-0.014": 0.0,
			"-0.013": 0.0,
			"-0.012": 0.0,
			"-0.011": 0.125222002358,
			"-0.01": 3.071909938,
			"-0.009": 5.58352815737,
			"-0.008": 6.31556736414,
			"-0.007": 5.35295069553,
			"-0.006": 13.2363291019,
			"-0.005": 23.1781810748,
			"-0.004": 18.4067553564,
			"-0.003": 20.1769000538,
			"-0.002": 28.2403737654,
			"-0.001": 30.9866539141,
			"0.0": 22.7226495371,
			"0.001": 18.8890075898,
			"0.002": 20.1745042282,
			"0.003": 8.78359030616,
			"0.004": 5.27817568024,
			"0.005": 3.45361265324,
			"0.006": 5.67162440304,
			"0.007": 4.74966967621,
			"0.008": 5.59558062583,
			"0.009": 5.16922124041,
			"0.01": 6.98461526372,
			"0.011": 9.20500196272,
			"0.012": 8.31159852809,
			"0.013": 2.48268640876,
			"0.014": 0.00956605866832,
			"0.015": 0.0,
			"0.016": 0.0,
			"0.017": 0.0,
			"0.018": 0.0,
			"0.019": 0.0,
			"0.02": 0.0,
			"0.021": 0.0,
			"0.022": 0.0,
			"0.023": 0.0,
			"0.024": 0.0,
			"0.025": 0.0
		}
	}
}
