{
	 "smiles": "COC(=O)C1=CC=C(C=C1)C(=O)CC#N", 
	 "Tm": 445.15, 
	 "num_atms": 24, 
	 "gaussian": { 
		 "optdone": 1, 
		 "sigma_profile": "no", 
		 "theory": "DFT", 
		 "functional": "B3LYP", 
		 "basiset": "6-31G**", 
		 "properties": { 
			 "R2extent": 4656.1422, 
			 "electric_dipole_moment_norm": 3.89282674929, 
			 "electric_quadrupole_moment_norm": 17.1934724239, 
			 "total_energy": -705.004827609, 
			 "HOMO_LUMO_gap": 0.18301, 
			 "cosmo_polarized_energy": -14.09, 
			 "cosmo_cavitation_energy": 30.54, 
			 "cosmo_dispersion_energy": -21.3, 
			 "cosmo_repulsion_energy": 1.67, 
			 "cosmo_total_nonelectrostatic_energy": 10.9, 
			 "SMD_solvation_energy": 8.75 
		},
		"coords": [
			{
				"x": -3.8531046555,
				"y": 3.5832010407,
				"z": -1.5753012929,
				"element": "C" 
			},
			{
				"x": -3.0254911817,
				"y": 2.4892420833,
				"z": -1.1451113668,
				"element": "O" 
			},
			{
				"x": -1.859161748,
				"y": 2.3536512104,
				"z": -1.8101468714,
				"element": "C" 
			},
			{
				"x": -1.5125917078,
				"y": 3.0893301544,
				"z": -2.7127362397,
				"element": "O" 
			},
			{
				"x": -1.0501021657,
				"y": 1.2002317174,
				"z": -1.3104153915,
				"element": "C" 
			},
			{
				"x": -1.4920209912,
				"y": 0.3642791708,
				"z": -0.2736894954,
				"element": "C" 
			},
			{
				"x": -0.697640291,
				"y": -0.6946145162,
				"z": 0.1463012031,
				"element": "C" 
			},
			{
				"x": 0.5484983199,
				"y": -0.9349439965,
				"z": -0.4573183351,
				"element": "C" 
			},
			{
				"x": 0.9864780667,
				"y": -0.0932463863,
				"z": -1.4927217174,
				"element": "C" 
			},
			{
				"x": 0.1906514487,
				"y": 0.9665758975,
				"z": -1.9155603069,
				"element": "C" 
			},
			{
				"x": 1.3390303059,
				"y": -2.1017976281,
				"z": 0.0334771102,
				"element": "C" 
			},
			{
				"x": 0.9207887246,
				"y": -2.8479549602,
				"z": 0.8985861804,
				"element": "O" 
			},
			{
				"x": 2.7189186371,
				"y": -2.4112137801,
				"z": -0.60125051,
				"element": "C" 
			},
			{
				"x": 3.7219535739,
				"y": -1.371881335,
				"z": -0.3725743967,
				"element": "C" 
			},
			{
				"x": 4.511151168,
				"y": -0.5418799339,
				"z": -0.1835137855,
				"element": "N" 
			},
			{
				"x": -4.1251991849,
				"y": 3.4669837715,
				"z": -2.6271690372,
				"element": "H" 
			},
			{
				"x": -4.7393389177,
				"y": 3.5469100552,
				"z": -0.9424073638,
				"element": "H" 
			},
			{
				"x": -3.3278624497,
				"y": 4.533011981,
				"z": -1.449372606,
				"element": "H" 
			},
			{
				"x": -2.4524613834,
				"y": 0.5507456889,
				"z": 0.1921113763,
				"element": "H" 
			},
			{
				"x": -1.0202273064,
				"y": -1.3553605763,
				"z": 0.9434204946,
				"element": "H" 
			},
			{
				"x": 1.9494940818,
				"y": -0.2478886283,
				"z": -1.9667933753,
				"element": "H" 
			},
			{
				"x": 0.5133572285,
				"y": 1.627437945,
				"z": -2.7123457896,
				"element": "H" 
			},
			{
				"x": 2.6055564694,
				"y": -2.5648534067,
				"z": -1.6814205285,
				"element": "H" 
			},
			{
				"x": 3.0590239587,
				"y": -3.3502655683,
				"z": -0.157447955,
				"element": "H" 
			}
		],
		 "valence_orbital": [ 
			{
				"type": "occ",
				"energy": -0.31445,
				"method": "rhf"
			},
			{
				"type": "occ",
				"energy": -0.28749,
				"method": "rhf"
			},
			{
				"type": "occ",
				"energy": -0.28142,
				"method": "rhf"
			},
			{
				"type": "occ",
				"energy": -0.2779,
				"method": "rhf"
			},
			{
				"type": "occ",
				"energy": -0.27689,
				"method": "rhf"
			},
			{
				"type": "unocc",
				"energy": -0.09388,
				"method": "rhf"
			},
			{
				"type": "unocc",
				"energy": -0.02746,
				"method": "rhf"
			},
			{
				"type": "unocc",
				"energy": -0.02082,
				"method": "rhf"
			},
			{
				"type": "unocc",
				"energy": 0.02482,
				"method": "rhf"
			},
			{
				"type": "unocc",
				"energy": 0.02747,
				"method": "rhf"
			}
		],
		"cosmo_sigma_profile": { 
			"0.0": 0.0,
			"0.0": 0.0,
			"0.0": 0.0,
			"0.0": 0.0,
			"0.0": 0.0,
			"0.0": 0.0,
			"0.0": 0.0,
			"0.0": 0.0,
			"0.0": 0.0,
			"0.0": 0.0,
			"0.0": 0.0,
			"0.0": 0.0,
			"0.0": 0.0,
			"0.0": 0.0,
			"0.0": 0.0,
			"0.0": 0.0,
			"0.0": 0.0,
			"0.0": 0.0,
			"0.0": 0.0,
			"0.0": 0.0,
			"0.0": 0.0,
			"0.0": 0.0,
			"0.0": 0.0,
			"0.0": 0.0,
			"0.0": 0.0,
			"0.0": 0.0,
			"0.0": 0.0,
			"0.0": 0.0,
			"0.0": 0.0,
			"0.0": 0.0,
			"0.0": 0.0,
			"0.0": 0.0,
			"0.0": 0.0,
			"0.0": 0.0,
			"0.0": 0.0,
			"0.0": 0.0,
			"0.0": 0.0,
			"0.0": 0.0,
			"0.0": 0.0,
			"0.0": 0.0,
			"0.0": 0.0,
			"0.0": 0.0,
			"0.0": 0.0,
			"0.0": 0.0,
			"0.0": 0.0,
			"0.0": 0.0,
			"0.0": 0.0,
			"0.0": 0.0,
			"0.0": 0.0,
			"0.0": 0.0,
			"0.0": 0.0
		}
	}
}
