{
	 "smiles": "OC(=O)CC1=C(F)C=CC=C1Cl", 
	 "Tm": 395.15, 
	 "num_atms": 18, 
	 "gaussian": { 
		 "optdone": 1, 
		 "sigma_profile": "yes", 
		 "theory": "DFT", 
		 "functional": "B3LYP", 
		 "basiset": "6-31G**", 
		 "properties": { 
			 "R2extent": 2565.2837, 
			 "electric_dipole_moment_norm": 2.9424169453, 
			 "electric_quadrupole_moment_norm": 6.43408570272, 
			 "total_energy": -1018.95744017, 
			 "HOMO_LUMO_gap": 0.22664, 
			 "cosmo_polarized_energy": -10.21, 
			 "cosmo_cavitation_energy": 24.99, 
			 "cosmo_dispersion_energy": -17.84, 
			 "cosmo_repulsion_energy": 1.42, 
			 "cosmo_total_nonelectrostatic_energy": 8.57, 
			 "SMD_solvation_energy": 5.69 
		},
		"coords": [
			{
				"x": -0.4395534267,
				"y": 0.191373544,
				"z": 2.7672196843,
				"element": "O" 
			},
			{
				"x": -0.1726304714,
				"y": -1.1332018943,
				"z": 2.7296892002,
				"element": "C" 
			},
			{
				"x": -0.0905674787,
				"y": -1.8185888188,
				"z": 3.7225063451,
				"element": "O" 
			},
			{
				"x": -0.0467043544,
				"y": -1.6694924174,
				"z": 1.3088887191,
				"element": "C" 
			},
			{
				"x": 0.378043111,
				"y": -0.676204838,
				"z": 0.2582053695,
				"element": "C" 
			},
			{
				"x": -0.554118642,
				"y": -0.1498936179,
				"z": -0.6414754009,
				"element": "C" 
			},
			{
				"x": -1.8392748143,
				"y": -0.5547849557,
				"z": -0.534078845,
				"element": "F" 
			},
			{
				"x": -0.231991438,
				"y": 0.7558344373,
				"z": -1.642905282,
				"element": "C" 
			},
			{
				"x": 1.0930907466,
				"y": 1.1720871779,
				"z": -1.7599403223,
				"element": "C" 
			},
			{
				"x": 2.0659474505,
				"y": 0.683959905,
				"z": -0.888113889,
				"element": "C" 
			},
			{
				"x": 1.6970580111,
				"y": -0.225714714,
				"z": 0.1023802444,
				"element": "C" 
			},
			{
				"x": 2.9401061043,
				"y": -0.8191583376,
				"z": 1.1958035802,
				"element": "Cl" 
			},
			{
				"x": -0.5277593857,
				"y": 0.4204554592,
				"z": 3.7079186668,
				"element": "H" 
			},
			{
				"x": 0.642106949,
				"y": -2.5152597929,
				"z": 1.3601069781,
				"element": "H" 
			},
			{
				"x": -1.0313349749,
				"y": -2.0686530816,
				"z": 1.045901991,
				"element": "H" 
			},
			{
				"x": -1.0112505927,
				"y": 1.1163794782,
				"z": -2.3046096676,
				"element": "H" 
			},
			{
				"x": 1.3711967588,
				"y": 1.880387663,
				"z": -2.5338338185,
				"element": "H" 
			},
			{
				"x": 3.0989364474,
				"y": 1.0013748034,
				"z": -0.9685635535,
				"element": "H" 
			}
		],
		 "valence_orbital": [ 
			{
				"type": "occ",
				"energy": -0.32299,
				"method": "rhf"
			},
			{
				"type": "occ",
				"energy": -0.31967,
				"method": "rhf"
			},
			{
				"type": "occ",
				"energy": -0.28643,
				"method": "rhf"
			},
			{
				"type": "occ",
				"energy": -0.25618,
				"method": "rhf"
			},
			{
				"type": "occ",
				"energy": -0.25403,
				"method": "rhf"
			},
			{
				"type": "unocc",
				"energy": -0.02739,
				"method": "rhf"
			},
			{
				"type": "unocc",
				"energy": -0.01515,
				"method": "rhf"
			},
			{
				"type": "unocc",
				"energy": 0.00744,
				"method": "rhf"
			},
			{
				"type": "unocc",
				"energy": 0.02208,
				"method": "rhf"
			},
			{
				"type": "unocc",
				"energy": 0.07537,
				"method": "rhf"
			}
		],
		"cosmo_sigma_profile": { 
			"-0.025": 0.0,
			"-0.024": 0.0,
			"-0.023": 0.0,
			"-0.022": 0.0,
			"-0.021": 0.0,
			"-0.02": 0.0,
			"-0.019": 0.218785541003,
			"-0.018": 0.744883688073,
			"-0.017": 0.785762913904,
			"-0.016": 1.50866805661,
			"-0.015": 0.465172369817,
			"-0.014": 0.794644321438,
			"-0.013": 0.27819623318,
			"-0.012": 0.567727677169,
			"-0.011": 0.85856225076,
			"-0.01": 0.523579238666,
			"-0.009": 0.786195800256,
			"-0.008": 3.23152567203,
			"-0.007": 9.47682505546,
			"-0.006": 9.69707912057,
			"-0.005": 10.9536225444,
			"-0.004": 10.1255556626,
			"-0.003": 10.8573874673,
			"-0.002": 10.0005207061,
			"-0.001": 10.3827191738,
			"0.0": 15.2809304279,
			"0.001": 19.2605569833,
			"0.002": 21.2834906027,
			"0.003": 22.856724072,
			"0.004": 15.5339869992,
			"0.005": 4.45788292781,
			"0.006": 2.62039729873,
			"0.007": 2.97122642605,
			"0.008": 3.14654717122,
			"0.009": 1.49979874175,
			"0.01": 2.26550096772,
			"0.011": 4.33874165609,
			"0.012": 4.04203866706,
			"0.013": 0.317088970315,
			"0.014": 0.0,
			"0.015": 0.0,
			"0.016": 0.0,
			"0.017": 0.0,
			"0.018": 0.0,
			"0.019": 0.0,
			"0.02": 0.0,
			"0.021": 0.0,
			"0.022": 0.0,
			"0.023": 0.0,
			"0.024": 0.0,
			"0.025": 0.0
		}
	}
}
