{
	 "smiles": "OC(=O)CC1=CC=C(O)C=C1", 
	 "Tm": 423.15, 
	 "num_atms": 19, 
	 "gaussian": { 
		 "optdone": 1, 
		 "sigma_profile": "yes", 
		 "theory": "DFT", 
		 "functional": "B3LYP", 
		 "basiset": "6-31G**", 
		 "properties": { 
			 "R2extent": 2226.2398, 
			 "electric_dipole_moment_norm": 5.20623225279, 
			 "electric_quadrupole_moment_norm": 15.2237309422, 
			 "total_energy": -535.350911922, 
			 "HOMO_LUMO_gap": 0.20836, 
			 "cosmo_polarized_energy": -16.89, 
			 "cosmo_cavitation_energy": 23.57, 
			 "cosmo_dispersion_energy": -17.14, 
			 "cosmo_repulsion_energy": 1.39, 
			 "cosmo_total_nonelectrostatic_energy": 7.81, 
			 "SMD_solvation_energy": 5.57 
		},
		"coords": [
			{
				"x": -1.7829960872,
				"y": -0.7604891806,
				"z": 0.3263183692,
				"element": "O" 
			},
			{
				"x": -1.2446478804,
				"y": -1.4866289485,
				"z": -0.67969457,
				"element": "C" 
			},
			{
				"x": -1.9180850533,
				"y": -2.2504563458,
				"z": -1.3251546194,
				"element": "O" 
			},
			{
				"x": 0.2658755569,
				"y": -1.3123438377,
				"z": -0.9220764949,
				"element": "C" 
			},
			{
				"x": 0.905310353,
				"y": -0.0910096808,
				"z": -0.3018057349,
				"element": "C" 
			},
			{
				"x": 0.9412403756,
				"y": 1.1326099835,
				"z": -0.9864137991,
				"element": "C" 
			},
			{
				"x": 1.5059610244,
				"y": 2.2685562609,
				"z": -0.4105878328,
				"element": "C" 
			},
			{
				"x": 2.0497184669,
				"y": 2.2028083327,
				"z": 0.8780685271,
				"element": "C" 
			},
			{
				"x": 2.6170466974,
				"y": 3.2761080888,
				"z": 1.4976282556,
				"element": "O" 
			},
			{
				"x": 2.0232200496,
				"y": 0.9924319408,
				"z": 1.5798064927,
				"element": "C" 
			},
			{
				"x": 1.4581188061,
				"y": -0.135128283,
				"z": 0.9898746952,
				"element": "C" 
			},
			{
				"x": -1.1004862103,
				"y": -0.180299484,
				"z": 0.7022308533,
				"element": "H" 
			},
			{
				"x": 0.7365449191,
				"y": -2.2272353271,
				"z": -0.5422159769,
				"element": "H" 
			},
			{
				"x": 0.4011895563,
				"y": -1.3302484222,
				"z": -2.006914985,
				"element": "H" 
			},
			{
				"x": 0.524274513,
				"y": 1.1984257161,
				"z": -1.9881256262,
				"element": "H" 
			},
			{
				"x": 1.5264421996,
				"y": 3.2056411795,
				"z": -0.9629295839,
				"element": "H" 
			},
			{
				"x": 2.5781976607,
				"y": 4.0433994041,
				"z": 0.9118402011,
				"element": "H" 
			},
			{
				"x": 2.4541972118,
				"y": 0.9524463513,
				"z": 2.5745256246,
				"element": "H" 
			},
			{
				"x": 1.4565778409,
				"y": -1.0732877482,
				"z": 1.5400262045,
				"element": "H" 
			}
		],
		 "valence_orbital": [ 
			{
				"type": "occ",
				"energy": -0.35047,
				"method": "rhf"
			},
			{
				"type": "occ",
				"energy": -0.30586,
				"method": "rhf"
			},
			{
				"type": "occ",
				"energy": -0.27325,
				"method": "rhf"
			},
			{
				"type": "occ",
				"energy": -0.2688,
				"method": "rhf"
			},
			{
				"type": "occ",
				"energy": -0.23398,
				"method": "rhf"
			},
			{
				"type": "unocc",
				"energy": -0.02562,
				"method": "rhf"
			},
			{
				"type": "unocc",
				"energy": -0.01166,
				"method": "rhf"
			},
			{
				"type": "unocc",
				"energy": 0.01945,
				"method": "rhf"
			},
			{
				"type": "unocc",
				"energy": 0.05653,
				"method": "rhf"
			},
			{
				"type": "unocc",
				"energy": 0.07758,
				"method": "rhf"
			}
		],
		"cosmo_sigma_profile": { 
			"-0.025": 0.0,
			"-0.024": 0.0,
			"-0.023": 0.0,
			"-0.022": 0.0,
			"-0.021": 0.0,
			"-0.02": 0.0,
			"-0.019": 0.0,
			"-0.018": 0.616961909297,
			"-0.017": 1.06616184674,
			"-0.016": 1.25796495311,
			"-0.015": 1.2844153151,
			"-0.014": 0.608813470759,
			"-0.013": 1.43100435061,
			"-0.012": 1.52211617359,
			"-0.011": 1.84069941733,
			"-0.01": 1.64899315824,
			"-0.009": 2.56841026167,
			"-0.008": 3.27566018456,
			"-0.007": 10.0790214695,
			"-0.006": 15.1720474451,
			"-0.005": 12.5422102163,
			"-0.004": 12.4095035577,
			"-0.003": 10.2704791012,
			"-0.002": 8.01124448218,
			"-0.001": 9.01910713665,
			"0.0": 6.41539288762,
			"0.001": 7.63289066146,
			"0.002": 9.12441992021,
			"0.003": 12.7307532869,
			"0.004": 10.1808420543,
			"0.005": 7.57566012775,
			"0.006": 3.63181290039,
			"0.007": 4.04979982068,
			"0.008": 4.14250981733,
			"0.009": 4.22630861713,
			"0.01": 5.68132772326,
			"0.011": 7.1526004696,
			"0.012": 6.31763943089,
			"0.013": 3.42704529446,
			"0.014": 0.348445198424,
			"0.015": 0.0,
			"0.016": 0.0,
			"0.017": 0.0,
			"0.018": 0.0,
			"0.019": 0.0,
			"0.02": 0.0,
			"0.021": 0.0,
			"0.022": 0.0,
			"0.023": 0.0,
			"0.024": 0.0,
			"0.025": 0.0
		}
	}
}
