{
	 "smiles": "ClCC1=NOC(=N1)C1=CC=C(Cl)C=C1", 
	 "Tm": 353.15, 
	 "num_atms": 20, 
	 "gaussian": { 
		 "optdone": 1, 
		 "sigma_profile": "yes", 
		 "theory": "DFT", 
		 "functional": "B3LYP", 
		 "basiset": "6-31G**", 
		 "properties": { 
			 "R2extent": 6442.493, 
			 "electric_dipole_moment_norm": 1.96560361467, 
			 "electric_quadrupole_moment_norm": 13.0130991516, 
			 "total_energy": -1451.65294078, 
			 "HOMO_LUMO_gap": 0.18178, 
			 "cosmo_polarized_energy": -9.06, 
			 "cosmo_cavitation_energy": 29.39, 
			 "cosmo_dispersion_energy": -21.9, 
			 "cosmo_repulsion_energy": 1.73, 
			 "cosmo_total_nonelectrostatic_energy": 9.21, 
			 "SMD_solvation_energy": 2.45 
		},
		"coords": [
			{
				"x": 3.772071754,
				"y": -4.2890512702,
				"z": -0.137298692,
				"element": "Cl" 
			},
			{
				"x": 4.293798726,
				"y": -2.9847724897,
				"z": 1.0142200026,
				"element": "C" 
			},
			{
				"x": 3.1323440574,
				"y": -2.2033564254,
				"z": 1.5234842557,
				"element": "C" 
			},
			{
				"x": 2.7277575667,
				"y": -2.3257317876,
				"z": 2.7655739204,
				"element": "N" 
			},
			{
				"x": 1.6499824621,
				"y": -1.4333927999,
				"z": 2.8357653401,
				"element": "O" 
			},
			{
				"x": 1.5286632752,
				"y": -0.8716614965,
				"z": 1.6139899224,
				"element": "C" 
			},
			{
				"x": 2.421266226,
				"y": -1.3084689308,
				"z": 0.7651213977,
				"element": "N" 
			},
			{
				"x": 0.4749861464,
				"y": 0.1113427751,
				"z": 1.3884555024,
				"element": "C" 
			},
			{
				"x": -0.3985538385,
				"y": 0.4893854392,
				"z": 2.4197127779,
				"element": "C" 
			},
			{
				"x": -1.3967709398,
				"y": 1.4293443805,
				"z": 2.1828983236,
				"element": "C" 
			},
			{
				"x": -1.5176334975,
				"y": 1.9896228844,
				"z": 0.9097014775,
				"element": "C" 
			},
			{
				"x": -2.7731584249,
				"y": 3.1736660235,
				"z": 0.6083899287,
				"element": "Cl" 
			},
			{
				"x": -0.6573425941,
				"y": 1.6242463473,
				"z": -0.1285549437,
				"element": "C" 
			},
			{
				"x": 0.3380232708,
				"y": 0.684375758,
				"z": 0.1142625451,
				"element": "C" 
			},
			{
				"x": 4.8123401504,
				"y": -3.4696367535,
				"z": 1.8398236611,
				"element": "H" 
			},
			{
				"x": 4.9761721619,
				"y": -2.3396580145,
				"z": 0.4610031096,
				"element": "H" 
			},
			{
				"x": -0.2955033782,
				"y": 0.0475384981,
				"z": 3.4048222143,
				"element": "H" 
			},
			{
				"x": -2.0754176717,
				"y": 1.7266401829,
				"z": 2.9741496443,
				"element": "H" 
			},
			{
				"x": -0.7697770725,
				"y": 2.0707860524,
				"z": -1.109922041,
				"element": "H" 
			},
			{
				"x": 1.0165516206,
				"y": 0.3837816268,
				"z": -0.6765983464,
				"element": "H" 
			}
		],
		 "valence_orbital": [ 
			{
				"type": "occ",
				"energy": -0.31207,
				"method": "rhf"
			},
			{
				"type": "occ",
				"energy": -0.30584,
				"method": "rhf"
			},
			{
				"type": "occ",
				"energy": -0.30415,
				"method": "rhf"
			},
			{
				"type": "occ",
				"energy": -0.28455,
				"method": "rhf"
			},
			{
				"type": "occ",
				"energy": -0.25661,
				"method": "rhf"
			},
			{
				"type": "unocc",
				"energy": -0.07483,
				"method": "rhf"
			},
			{
				"type": "unocc",
				"energy": -0.0343,
				"method": "rhf"
			},
			{
				"type": "unocc",
				"energy": -0.02623,
				"method": "rhf"
			},
			{
				"type": "unocc",
				"energy": 0.01579,
				"method": "rhf"
			},
			{
				"type": "unocc",
				"energy": 0.02618,
				"method": "rhf"
			}
		],
		"cosmo_sigma_profile": { 
			"-0.025": 0.0,
			"-0.024": 0.0,
			"-0.023": 0.0,
			"-0.022": 0.0,
			"-0.021": 0.0,
			"-0.02": 0.0,
			"-0.019": 0.0,
			"-0.018": 0.0,
			"-0.017": 0.0,
			"-0.016": 0.0,
			"-0.015": 0.0,
			"-0.014": 0.0,
			"-0.013": 0.0,
			"-0.012": 0.0,
			"-0.011": 0.0,
			"-0.01": 0.297718430561,
			"-0.009": 4.24719658996,
			"-0.008": 7.93598316039,
			"-0.007": 11.8208942901,
			"-0.006": 11.2134933896,
			"-0.005": 9.90932725052,
			"-0.004": 11.8205761581,
			"-0.003": 13.6585821756,
			"-0.002": 14.6368338556,
			"-0.001": 17.7693618981,
			"0.0": 22.1227387069,
			"0.001": 25.598712039,
			"0.002": 19.9297817938,
			"0.003": 14.5285826054,
			"0.004": 18.2566529585,
			"0.005": 15.542278668,
			"0.006": 9.79530536549,
			"0.007": 2.58731722463,
			"0.008": 1.95525965578,
			"0.009": 2.57603567719,
			"0.01": 2.01622551018,
			"0.011": 2.15657039442,
			"0.012": 1.23214844698,
			"0.013": 0.103797483322,
			"0.014": 0.0,
			"0.015": 0.0,
			"0.016": 0.0,
			"0.017": 0.0,
			"0.018": 0.0,
			"0.019": 0.0,
			"0.02": 0.0,
			"0.021": 0.0,
			"0.022": 0.0,
			"0.023": 0.0,
			"0.024": 0.0,
			"0.025": 0.0
		}
	}
}
