{
	 "smiles": "C1OCC2OCOC3COCOC3C2O1", 
	 "Tm": 505.15, 
	 "num_atms": 29, 
	 "gaussian": { 
		 "optdone": 1, 
		 "sigma_profile": "yes", 
		 "theory": "DFT", 
		 "functional": "B3LYP", 
		 "basiset": "6-31G**", 
		 "properties": { 
			 "R2extent": 3508.2289, 
			 "electric_dipole_moment_norm": 2.14187843959, 
			 "electric_quadrupole_moment_norm": 10.0640001247, 
			 "total_energy": -802.643785756, 
			 "HOMO_LUMO_gap": 0.31728, 
			 "cosmo_polarized_energy": -11.08, 
			 "cosmo_cavitation_energy": 28.31, 
			 "cosmo_dispersion_energy": -22.02, 
			 "cosmo_repulsion_energy": 1.69, 
			 "cosmo_total_nonelectrostatic_energy": 7.98, 
			 "SMD_solvation_energy": 4.97 
		},
		"coords": [
			{
				"x": 0.699170486,
				"y": 0.5127075946,
				"z": -1.244452718,
				"element": "C" 
			},
			{
				"x": -0.1230761798,
				"y": 1.5669464575,
				"z": -1.6633929909,
				"element": "O" 
			},
			{
				"x": -1.5279471133,
				"y": 1.2664754611,
				"z": -1.589622056,
				"element": "C" 
			},
			{
				"x": -1.7709350713,
				"y": 0.3531827073,
				"z": -0.3847620473,
				"element": "C" 
			},
			{
				"x": -3.0820666339,
				"y": 0.5001226548,
				"z": 0.1362196865,
				"element": "O" 
			},
			{
				"x": -3.5673766041,
				"y": -0.679004408,
				"z": 0.7943153798,
				"element": "C" 
			},
			{
				"x": -2.5700317694,
				"y": -1.5959605825,
				"z": 1.1419205279,
				"element": "O" 
			},
			{
				"x": -1.666855769,
				"y": -1.2353063923,
				"z": 2.1915279965,
				"element": "C" 
			},
			{
				"x": -0.5561587349,
				"y": -2.2872576906,
				"z": 2.2039975828,
				"element": "C" 
			},
			{
				"x": 0.3656827262,
				"y": -1.9693582364,
				"z": 3.2402037586,
				"element": "O" 
			},
			{
				"x": 0.9411246151,
				"y": -0.7023485081,
				"z": 3.0189723279,
				"element": "C" 
			},
			{
				"x": -0.0214083143,
				"y": 0.3399158838,
				"z": 3.0257059305,
				"element": "O" 
			},
			{
				"x": -1.0665610187,
				"y": 0.1878425704,
				"z": 2.0660345591,
				"element": "C" 
			},
			{
				"x": -0.6961631574,
				"y": 0.6977232643,
				"z": 0.6590856876,
				"element": "C" 
			},
			{
				"x": 0.5436829144,
				"y": 0.1961015652,
				"z": 0.1495116904,
				"element": "O" 
			},
			{
				"x": 0.5084492129,
				"y": -0.3987017249,
				"z": -1.8363529843,
				"element": "H" 
			},
			{
				"x": 1.7314598719,
				"y": 0.8392379429,
				"z": -1.3947197183,
				"element": "H" 
			},
			{
				"x": -1.8746954304,
				"y": 0.8090439456,
				"z": -2.5264994417,
				"element": "H" 
			},
			{
				"x": -2.0393934824,
				"y": 2.2235376703,
				"z": -1.4520655395,
				"element": "H" 
			},
			{
				"x": -1.6018142566,
				"y": -0.6858834979,
				"z": -0.6826220297,
				"element": "H" 
			},
			{
				"x": -4.1300113918,
				"y": -0.3246193406,
				"z": 1.6697499549,
				"element": "H" 
			},
			{
				"x": -4.233229413,
				"y": -1.2282702602,
				"z": 0.1180506724,
				"element": "H" 
			},
			{
				"x": -2.1883797457,
				"y": -1.2751122988,
				"z": 3.1590707362,
				"element": "H" 
			},
			{
				"x": -0.964436666,
				"y": -3.2777255858,
				"z": 2.4195907672,
				"element": "H" 
			},
			{
				"x": -0.0562848077,
				"y": -2.3127125462,
				"z": 1.2246223122,
				"element": "H" 
			},
			{
				"x": 1.6016984635,
				"y": -0.5022866027,
				"z": 3.8645177528,
				"element": "H" 
			},
			{
				"x": 1.4967059378,
				"y": -0.6976621134,
				"z": 2.072805353,
				"element": "H" 
			},
			{
				"x": -1.8390163596,
				"y": 0.8927538342,
				"z": 2.3914733288,
				"element": "H" 
			},
			{
				"x": -0.6164323085,
				"y": 1.7896182362,
				"z": 0.7577135209,
				"element": "H" 
			}
		],
		 "valence_orbital": [ 
			{
				"type": "occ",
				"energy": -0.28932,
				"method": "rhf"
			},
			{
				"type": "occ",
				"energy": -0.28189,
				"method": "rhf"
			},
			{
				"type": "occ",
				"energy": -0.26341,
				"method": "rhf"
			},
			{
				"type": "occ",
				"energy": -0.25501,
				"method": "rhf"
			},
			{
				"type": "occ",
				"energy": -0.24433,
				"method": "rhf"
			},
			{
				"type": "unocc",
				"energy": 0.07295,
				"method": "rhf"
			},
			{
				"type": "unocc",
				"energy": 0.07432,
				"method": "rhf"
			},
			{
				"type": "unocc",
				"energy": 0.08495,
				"method": "rhf"
			},
			{
				"type": "unocc",
				"energy": 0.09361,
				"method": "rhf"
			},
			{
				"type": "unocc",
				"energy": 0.11339,
				"method": "rhf"
			}
		],
		"cosmo_sigma_profile": { 
			"-0.025": 0.0,
			"-0.024": 0.0,
			"-0.023": 0.0,
			"-0.022": 0.0,
			"-0.021": 0.0,
			"-0.02": 0.0,
			"-0.019": 0.0,
			"-0.018": 0.0,
			"-0.017": 0.0,
			"-0.016": 0.0,
			"-0.015": 0.0,
			"-0.014": 0.0,
			"-0.013": 0.0,
			"-0.012": 0.0,
			"-0.011": 0.0,
			"-0.01": 0.0,
			"-0.009": 0.0,
			"-0.008": 0.130427063033,
			"-0.007": 5.17053692035,
			"-0.006": 18.8935115598,
			"-0.005": 27.4817073708,
			"-0.004": 25.1836408972,
			"-0.003": 20.4883083452,
			"-0.002": 16.9874550268,
			"-0.001": 12.1683165666,
			"0.0": 8.79998718027,
			"0.001": 8.91646674155,
			"0.002": 9.80333359991,
			"0.003": 9.01750494105,
			"0.004": 6.4580914544,
			"0.005": 7.66517032227,
			"0.006": 7.34181921056,
			"0.007": 7.61161545757,
			"0.008": 5.39392544013,
			"0.009": 5.7824078558,
			"0.01": 6.62117752483,
			"0.011": 5.21267329324,
			"0.012": 4.77487274206,
			"0.013": 0.342645043502,
			"0.014": 0.0,
			"0.015": 0.0,
			"0.016": 0.0,
			"0.017": 0.0,
			"0.018": 0.0,
			"0.019": 0.0,
			"0.02": 0.0,
			"0.021": 0.0,
			"0.022": 0.0,
			"0.023": 0.0,
			"0.024": 0.0,
			"0.025": 0.0
		}
	}
}
