{
	 "smiles": "CC1(C)OC2(C)CCC1C(=O)OC2(C1=CC=CC=C1)C1=CC=CC=C1", 
	 "Tm": 407.15, 
	 "num_atms": 49, 
	 "gaussian": { 
		 "optdone": 1, 
		 "sigma_profile": "yes", 
		 "theory": "DFT", 
		 "functional": "B3LYP", 
		 "basiset": "6-31G**", 
		 "properties": { 
			 "R2extent": 7555.9787, 
			 "electric_dipole_moment_norm": 3.80310714022, 
			 "electric_quadrupole_moment_norm": 14.5123202049, 
			 "total_energy": -1078.47103138, 
			 "HOMO_LUMO_gap": 0.22187, 
			 "cosmo_polarized_energy": -13.8, 
			 "cosmo_cavitation_energy": 45.14, 
			 "cosmo_dispersion_energy": -30.92, 
			 "cosmo_repulsion_energy": 2.28, 
			 "cosmo_total_nonelectrostatic_energy": 16.51, 
			 "SMD_solvation_energy": 8.05 
		},
		"coords": [
			{
				"x": 0.8438715953,
				"y": -3.0943592775,
				"z": -1.2800890548,
				"element": "C" 
			},
			{
				"x": 0.5228923206,
				"y": -1.6050650218,
				"z": -1.5026556827,
				"element": "C" 
			},
			{
				"x": -0.3066681424,
				"y": -1.4708958272,
				"z": -2.7872832555,
				"element": "C" 
			},
			{
				"x": -0.3298883002,
				"y": -1.13403551,
				"z": -0.4318043881,
				"element": "O" 
			},
			{
				"x": 0.2391422471,
				"y": -0.3783679476,
				"z": 0.6502043597,
				"element": "C" 
			},
			{
				"x": -0.7100276309,
				"y": -0.6796481995,
				"z": 1.8192059666,
				"element": "C" 
			},
			{
				"x": 1.6529462896,
				"y": -0.8997587662,
				"z": 0.973462187,
				"element": "C" 
			},
			{
				"x": 2.6023201329,
				"y": -0.8066313632,
				"z": -0.2321278315,
				"element": "C" 
			},
			{
				"x": 1.8087636924,
				"y": -0.7461340947,
				"z": -1.5587810671,
				"element": "C" 
			},
			{
				"x": 1.4576347247,
				"y": 0.6869925583,
				"z": -1.9247233226,
				"element": "C" 
			},
			{
				"x": 1.9101673162,
				"y": 1.2491642643,
				"z": -2.8951075353,
				"element": "O" 
			},
			{
				"x": 0.5225077328,
				"y": 1.3438602184,
				"z": -1.1820793533,
				"element": "O" 
			},
			{
				"x": 0.2276720719,
				"y": 1.1815886119,
				"z": 0.23770518,
				"element": "C" 
			},
			{
				"x": -1.1984340442,
				"y": 1.7643545027,
				"z": 0.3444701082,
				"element": "C" 
			},
			{
				"x": -2.1684087863,
				"y": 1.3727977828,
				"z": -0.5930835504,
				"element": "C" 
			},
			{
				"x": -3.4705645871,
				"y": 1.8633900803,
				"z": -0.5220761456,
				"element": "C" 
			},
			{
				"x": -3.8341023334,
				"y": 2.7604857953,
				"z": 0.4846998618,
				"element": "C" 
			},
			{
				"x": -2.8786200988,
				"y": 3.1606116058,
				"z": 1.4160531144,
				"element": "C" 
			},
			{
				"x": -1.5721899792,
				"y": 2.6693665073,
				"z": 1.3449234737,
				"element": "C" 
			},
			{
				"x": 1.2525875117,
				"y": 2.0548062622,
				"z": 0.9967501808,
				"element": "C" 
			},
			{
				"x": 2.0087680648,
				"y": 3.0047385928,
				"z": 0.2907821456,
				"element": "C" 
			},
			{
				"x": 2.9217705553,
				"y": 3.8323285326,
				"z": 0.9478624588,
				"element": "C" 
			},
			{
				"x": 3.0955308065,
				"y": 3.7429856576,
				"z": 2.3278049952,
				"element": "C" 
			},
			{
				"x": 2.3381722099,
				"y": 2.8182630663,
				"z": 3.0467933912,
				"element": "C" 
			},
			{
				"x": 1.428156619,
				"y": 1.9887652463,
				"z": 2.3899463534,
				"element": "C" 
			},
			{
				"x": -0.0919709286,
				"y": -3.6488738319,
				"z": -1.1668223864,
				"element": "H" 
			},
			{
				"x": 1.3834419674,
				"y": -3.5051077303,
				"z": -2.1398931066,
				"element": "H" 
			},
			{
				"x": 1.4468828247,
				"y": -3.2693775979,
				"z": -0.387233965,
				"element": "H" 
			},
			{
				"x": 0.2417723061,
				"y": -1.8692737021,
				"z": -3.646465828,
				"element": "H" 
			},
			{
				"x": -1.2374568179,
				"y": -2.0351729585,
				"z": -2.6793579899,
				"element": "H" 
			},
			{
				"x": -0.5620537085,
				"y": -0.429894467,
				"z": -2.9972529004,
				"element": "H" 
			},
			{
				"x": -1.7419774906,
				"y": -0.4784710254,
				"z": 1.531480343,
				"element": "H" 
			},
			{
				"x": -0.4842285327,
				"y": -0.0964992393,
				"z": 2.7138227451,
				"element": "H" 
			},
			{
				"x": -0.6240835597,
				"y": -1.7404315293,
				"z": 2.0696816665,
				"element": "H" 
			},
			{
				"x": 1.5318630925,
				"y": -1.9429628765,
				"z": 1.2799383521,
				"element": "H" 
			},
			{
				"x": 2.067926246,
				"y": -0.3720909669,
				"z": 1.8326906603,
				"element": "H" 
			},
			{
				"x": 3.2714661104,
				"y": -1.6720210335,
				"z": -0.2509716217,
				"element": "H" 
			},
			{
				"x": 3.2449263038,
				"y": 0.0761424335,
				"z": -0.1556639213,
				"element": "H" 
			},
			{
				"x": 2.4367849349,
				"y": -1.0950569425,
				"z": -2.3821181186,
				"element": "H" 
			},
			{
				"x": -1.897973325,
				"y": 0.6754280735,
				"z": -1.3741812528,
				"element": "H" 
			},
			{
				"x": -4.2022985267,
				"y": 1.54614646,
				"z": -1.2599185878,
				"element": "H" 
			},
			{
				"x": -4.848312582,
				"y": 3.1460977302,
				"z": 0.537055243,
				"element": "H" 
			},
			{
				"x": -3.1407820067,
				"y": 3.8655520242,
				"z": 2.2000780787,
				"element": "H" 
			},
			{
				"x": -0.8452252688,
				"y": 3.010712998,
				"z": 2.0718211111,
				"element": "H" 
			},
			{
				"x": 1.8794649551,
				"y": 3.1021414836,
				"z": -0.7798509547,
				"element": "H" 
			},
			{
				"x": 3.4945342356,
				"y": 4.5527830635,
				"z": 0.3708706189,
				"element": "H" 
			},
			{
				"x": 3.8059817465,
				"y": 4.3869962706,
				"z": 2.8377905192,
				"element": "H" 
			},
			{
				"x": 2.4511220625,
				"y": 2.7375448149,
				"z": 4.1242773636,
				"element": "H" 
			},
			{
				"x": 0.8503959733,
				"y": 1.2921852717,
				"z": 2.985071342,
				"element": "H" 
			}
		],
		 "valence_orbital": [ 
			{
				"type": "occ",
				"energy": -0.26149,
				"method": "rhf"
			},
			{
				"type": "occ",
				"energy": -0.25387,
				"method": "rhf"
			},
			{
				"type": "occ",
				"energy": -0.24529,
				"method": "rhf"
			},
			{
				"type": "occ",
				"energy": -0.24341,
				"method": "rhf"
			},
			{
				"type": "occ",
				"energy": -0.23683,
				"method": "rhf"
			},
			{
				"type": "unocc",
				"energy": -0.01496,
				"method": "rhf"
			},
			{
				"type": "unocc",
				"energy": -0.00781,
				"method": "rhf"
			},
			{
				"type": "unocc",
				"energy": -0.0016,
				"method": "rhf"
			},
			{
				"type": "unocc",
				"energy": 0.00599,
				"method": "rhf"
			},
			{
				"type": "unocc",
				"energy": 0.01038,
				"method": "rhf"
			}
		],
		"cosmo_sigma_profile": { 
			"-0.025": 0.0,
			"-0.024": 0.0,
			"-0.023": 0.0,
			"-0.022": 0.0,
			"-0.021": 0.0,
			"-0.02": 0.0,
			"-0.019": 0.0,
			"-0.018": 0.0,
			"-0.017": 0.0,
			"-0.016": 0.0,
			"-0.015": 0.0,
			"-0.014": 0.0,
			"-0.013": 0.0,
			"-0.012": 0.0,
			"-0.011": 0.0,
			"-0.01": 0.0,
			"-0.009": 0.0,
			"-0.008": 0.408123628419,
			"-0.007": 1.73174623069,
			"-0.006": 10.523965602,
			"-0.005": 25.4288759345,
			"-0.004": 39.8700720415,
			"-0.003": 41.3447969394,
			"-0.002": 36.3547093995,
			"-0.001": 35.7525122084,
			"0.0": 31.520960792,
			"0.001": 23.2240200513,
			"0.002": 19.0217412634,
			"0.003": 18.3569521764,
			"0.004": 19.3058871702,
			"0.005": 17.548939892,
			"0.006": 9.78289756977,
			"0.007": 3.33413429525,
			"0.008": 3.15549939537,
			"0.009": 3.19332367303,
			"0.01": 3.88092748233,
			"0.011": 4.45191770289,
			"0.012": 5.54198437432,
			"0.013": 1.78470363645,
			"0.014": 0.0600953239746,
			"0.015": 0.0,
			"0.016": 0.0,
			"0.017": 0.0,
			"0.018": 0.0,
			"0.019": 0.0,
			"0.02": 0.0,
			"0.021": 0.0,
			"0.022": 0.0,
			"0.023": 0.0,
			"0.024": 0.0,
			"0.025": 0.0
		}
	}
}
