{
	 "smiles": "COC1=CC(C=O)=CC(I)=C1OC", 
	 "Tm": 337.15, 
	 "num_atms": 22, 
	 "gaussian": { 
		 "optdone": 1, 
		 "sigma_profile": "no", 
		 "theory": "DFT", 
		 "functional": "B3LYP", 
		 "basiset": "6-31G**", 
		 "properties": { 
			 "R2extent": 2843.2351, 
			 "electric_dipole_moment_norm": 4.38847081453, 
			 "electric_quadrupole_moment_norm": 5.88360710619, 
			 "total_energy": -585.39368759, 
			 "HOMO_LUMO_gap": 0.17671, 
			 "cosmo_polarized_energy": -89360.52, 
			 "cosmo_cavitation_energy": 29.6, 
			 "cosmo_dispersion_energy": -22.07, 
			 "cosmo_repulsion_energy": 1.73, 
			 "cosmo_total_nonelectrostatic_energy": 9.25, 
			 "SMD_solvation_energy": 6.83 
		},
		"coords": [
			{
				"x": -0.24840061,
				"y": -3.3156283176,
				"z": -1.328691408,
				"element": "C" 
			},
			{
				"x": 0.4941489231,
				"y": -2.0892555645,
				"z": -1.410393492,
				"element": "O" 
			},
			{
				"x": 0.1252573805,
				"y": -1.1251024981,
				"z": -0.5040199457,
				"element": "C" 
			},
			{
				"x": -0.5181678093,
				"y": 0.0220335433,
				"z": -0.9578223015,
				"element": "C" 
			},
			{
				"x": -0.8845580984,
				"y": 1.0290114282,
				"z": -0.0579395116,
				"element": "C" 
			},
			{
				"x": -1.5706782475,
				"y": 2.2461397907,
				"z": -0.5489345314,
				"element": "C" 
			},
			{
				"x": -1.9372386691,
				"y": 3.1646348667,
				"z": 0.1580825388,
				"element": "O" 
			},
			{
				"x": -0.615023924,
				"y": 0.8839647851,
				"z": 1.3098402035,
				"element": "C" 
			},
			{
				"x": 0.041564252,
				"y": -0.2549136149,
				"z": 1.7607211614,
				"element": "C" 
			},
			{
				"x": 0.4774260724,
				"y": -0.4690519318,
				"z": 3.8206280082,
				"element": "I" 
			},
			{
				"x": 0.4336012491,
				"y": -1.2689214703,
				"z": 0.8678189406,
				"element": "C" 
			},
			{
				"x": 1.0510876779,
				"y": -2.3919740297,
				"z": 1.3312281945,
				"element": "O" 
			},
			{
				"x": 2.4250098708,
				"y": -2.5586360651,
				"z": 0.9357366976,
				"element": "C" 
			},
			{
				"x": 0.156970653,
				"y": -3.9668021321,
				"z": -2.1049859906,
				"element": "H" 
			},
			{
				"x": -0.1304011697,
				"y": -3.7876124974,
				"z": -0.3488373986,
				"element": "H" 
			},
			{
				"x": -1.3123235363,
				"y": -3.1353693771,
				"z": -1.5239935809,
				"element": "H" 
			},
			{
				"x": -0.7310015422,
				"y": 0.1142076523,
				"z": -2.019281277,
				"element": "H" 
			},
			{
				"x": -1.7360964178,
				"y": 2.2686866426,
				"z": -1.6490852149,
				"element": "H" 
			},
			{
				"x": -0.9169419644,
				"y": 1.6743162367,
				"z": 1.9872629118,
				"element": "H" 
			},
			{
				"x": 3.036136541,
				"y": -1.7400498741,
				"z": 1.3313054668,
				"element": "H" 
			},
			{
				"x": 2.5182185703,
				"y": -2.6035516761,
				"z": -0.1524150484,
				"element": "H" 
			},
			{
				"x": 2.7496107984,
				"y": -3.5005258966,
				"z": 1.3797755773,
				"element": "H" 
			}
		],
		 "valence_orbital": [ 
			{
				"type": "occ",
				"energy": -0.2835,
				"method": "rhf"
			},
			{
				"type": "occ",
				"energy": -0.26727,
				"method": "rhf"
			},
			{
				"type": "occ",
				"energy": -0.25962,
				"method": "rhf"
			},
			{
				"type": "occ",
				"energy": -0.25219,
				"method": "rhf"
			},
			{
				"type": "occ",
				"energy": -0.24602,
				"method": "rhf"
			},
			{
				"type": "unocc",
				"energy": -0.06931,
				"method": "rhf"
			},
			{
				"type": "unocc",
				"energy": -0.04125,
				"method": "rhf"
			},
			{
				"type": "unocc",
				"energy": -0.02608,
				"method": "rhf"
			},
			{
				"type": "unocc",
				"energy": 0.02891,
				"method": "rhf"
			},
			{
				"type": "unocc",
				"energy": 0.04351,
				"method": "rhf"
			}
		],
		"cosmo_sigma_profile": { 
			"0.0": 0.0,
			"0.0": 0.0,
			"0.0": 0.0,
			"0.0": 0.0,
			"0.0": 0.0,
			"0.0": 0.0,
			"0.0": 0.0,
			"0.0": 0.0,
			"0.0": 0.0,
			"0.0": 0.0,
			"0.0": 0.0,
			"0.0": 0.0,
			"0.0": 0.0,
			"0.0": 0.0,
			"0.0": 0.0,
			"0.0": 0.0,
			"0.0": 0.0,
			"0.0": 0.0,
			"0.0": 0.0,
			"0.0": 0.0,
			"0.0": 0.0,
			"0.0": 0.0,
			"0.0": 0.0,
			"0.0": 0.0,
			"0.0": 0.0,
			"0.0": 0.0,
			"0.0": 0.0,
			"0.0": 0.0,
			"0.0": 0.0,
			"0.0": 0.0,
			"0.0": 0.0,
			"0.0": 0.0,
			"0.0": 0.0,
			"0.0": 0.0,
			"0.0": 0.0,
			"0.0": 0.0,
			"0.0": 0.0,
			"0.0": 0.0,
			"0.0": 0.0,
			"0.0": 0.0,
			"0.0": 0.0,
			"0.0": 0.0,
			"0.0": 0.0,
			"0.0": 0.0,
			"0.0": 0.0,
			"0.0": 0.0,
			"0.0": 0.0,
			"0.0": 0.0,
			"0.0": 0.0,
			"0.0": 0.0,
			"0.0": 0.0
		}
	}
}
