{
	 "smiles": "CCOC(=O)CC(O)C1=CC=C(OCC2=CC=CC=C2)C=C1", 
	 "Tm": 335.15, 
	 "num_atms": 42, 
	 "gaussian": { 
		 "optdone": 1, 
		 "sigma_profile": "yes", 
		 "theory": "DFT", 
		 "functional": "B3LYP", 
		 "basiset": "6-31G**", 
		 "properties": { 
			 "R2extent": 8049.3407, 
			 "electric_dipole_moment_norm": 1.79396957332, 
			 "electric_quadrupole_moment_norm": 15.0480551371, 
			 "total_energy": -998.869532748, 
			 "HOMO_LUMO_gap": 0.20547, 
			 "cosmo_polarized_energy": -13.97, 
			 "cosmo_cavitation_energy": 45.25, 
			 "cosmo_dispersion_energy": -29.59, 
			 "cosmo_repulsion_energy": 2.3, 
			 "cosmo_total_nonelectrostatic_energy": 17.96, 
			 "SMD_solvation_energy": 8.38 
		},
		"coords": [
			{
				"x": -0.0663921511,
				"y": -3.0973630256,
				"z": -0.431933331,
				"element": "C" 
			},
			{
				"x": -0.0128140547,
				"y": -3.4642669094,
				"z": -1.9066364926,
				"element": "C" 
			},
			{
				"x": 0.5398180436,
				"y": -2.3781743554,
				"z": -2.6970080093,
				"element": "O" 
			},
			{
				"x": -0.329041784,
				"y": -1.4107525552,
				"z": -3.1031982178,
				"element": "C" 
			},
			{
				"x": -1.5198240147,
				"y": -1.452227658,
				"z": -2.8912073839,
				"element": "O" 
			},
			{
				"x": 0.3902666367,
				"y": -0.3107452821,
				"z": -3.8588801623,
				"element": "C" 
			},
			{
				"x": 1.6704017289,
				"y": 0.2198621673,
				"z": -3.1684832802,
				"element": "C" 
			},
			{
				"x": 2.737641115,
				"y": -0.7086765311,
				"z": -3.2997772763,
				"element": "O" 
			},
			{
				"x": 1.4606597214,
				"y": 0.6564176114,
				"z": -1.71756398,
				"element": "C" 
			},
			{
				"x": 0.2549989493,
				"y": 1.193288919,
				"z": -1.254396239,
				"element": "C" 
			},
			{
				"x": 0.1033801184,
				"y": 1.6237816876,
				"z": 0.0676479933,
				"element": "C" 
			},
			{
				"x": 1.180518221,
				"y": 1.5265892257,
				"z": 0.9537416795,
				"element": "C" 
			},
			{
				"x": 1.1597788029,
				"y": 1.9245962147,
				"z": 2.2653794515,
				"element": "O" 
			},
			{
				"x": 0.0213914527,
				"y": 2.6237311114,
				"z": 2.7616352773,
				"element": "C" 
			},
			{
				"x": -1.1580803541,
				"y": 1.7324508341,
				"z": 3.1031130897,
				"element": "C" 
			},
			{
				"x": -2.4623247485,
				"y": 2.2344062082,
				"z": 3.0257071834,
				"element": "C" 
			},
			{
				"x": -3.5510444773,
				"y": 1.4433607614,
				"z": 3.396870219,
				"element": "C" 
			},
			{
				"x": -3.3453208784,
				"y": 0.136708958,
				"z": 3.8422591198,
				"element": "C" 
			},
			{
				"x": -2.0465019872,
				"y": -0.3717248615,
				"z": 3.9165659309,
				"element": "C" 
			},
			{
				"x": -0.9585781913,
				"y": 0.4221684101,
				"z": 3.5530339706,
				"element": "C" 
			},
			{
				"x": 2.3946963961,
				"y": 0.9882682643,
				"z": 0.5055181254,
				"element": "C" 
			},
			{
				"x": 2.5278001572,
				"y": 0.5626205114,
				"z": -0.8100745221,
				"element": "C" 
			},
			{
				"x": -0.4183827016,
				"y": -3.9562941456,
				"z": 0.1492691388,
				"element": "H" 
			},
			{
				"x": 0.9229779389,
				"y": -2.8126013547,
				"z": -0.0626496558,
				"element": "H" 
			},
			{
				"x": -0.7534662018,
				"y": -2.2644128143,
				"z": -0.2661989062,
				"element": "H" 
			},
			{
				"x": -1.0051144967,
				"y": -3.7023182219,
				"z": -2.295095691,
				"element": "H" 
			},
			{
				"x": 0.6615973661,
				"y": -4.3037380373,
				"z": -2.0914260928,
				"element": "H" 
			},
			{
				"x": 0.6949501303,
				"y": -0.7028518818,
				"z": -4.835929387,
				"element": "H" 
			},
			{
				"x": -0.3356733563,
				"y": 0.4856791214,
				"z": -4.033371201,
				"element": "H" 
			},
			{
				"x": 1.9959279476,
				"y": 1.0918783164,
				"z": -3.7508347468,
				"element": "H" 
			},
			{
				"x": 2.4191779093,
				"y": -1.5383351538,
				"z": -2.9113627026,
				"element": "H" 
			},
			{
				"x": -0.6029868814,
				"y": 1.2729863189,
				"z": -1.9147205409,
				"element": "H" 
			},
			{
				"x": -0.8575568001,
				"y": 2.0018014602,
				"z": 0.3943238854,
				"element": "H" 
			},
			{
				"x": -0.2812961771,
				"y": 3.4124878839,
				"z": 2.0600881431,
				"element": "H" 
			},
			{
				"x": 0.3887801818,
				"y": 3.1174985788,
				"z": 3.668323491,
				"element": "H" 
			},
			{
				"x": -2.628924413,
				"y": 3.2495877883,
				"z": 2.671535921,
				"element": "H" 
			},
			{
				"x": -4.558257548,
				"y": 1.8447218976,
				"z": 3.3294902277,
				"element": "H" 
			},
			{
				"x": -4.1914029852,
				"y": -0.4827311195,
				"z": 4.1254629057,
				"element": "H" 
			},
			{
				"x": -1.8801608846,
				"y": -1.3891306732,
				"z": 4.2595276718,
				"element": "H" 
			},
			{
				"x": 0.0518661189,
				"y": 0.0289916531,
				"z": 3.6063897585,
				"element": "H" 
			},
			{
				"x": 3.2217657109,
				"y": 0.9203199182,
				"z": 1.2052267759,
				"element": "H" 
			},
			{
				"x": 3.4694504399,
				"y": 0.1489407587,
				"z": -1.1545621406,
				"element": "H" 
			}
		],
		 "valence_orbital": [ 
			{
				"type": "occ",
				"energy": -0.26753,
				"method": "rhf"
			},
			{
				"type": "occ",
				"energy": -0.25299,
				"method": "rhf"
			},
			{
				"type": "occ",
				"energy": -0.25031,
				"method": "rhf"
			},
			{
				"type": "occ",
				"energy": -0.244,
				"method": "rhf"
			},
			{
				"type": "occ",
				"energy": -0.21481,
				"method": "rhf"
			},
			{
				"type": "unocc",
				"energy": -0.00934,
				"method": "rhf"
			},
			{
				"type": "unocc",
				"energy": -0.00568,
				"method": "rhf"
			},
			{
				"type": "unocc",
				"energy": -0.00176,
				"method": "rhf"
			},
			{
				"type": "unocc",
				"energy": 0.00932,
				"method": "rhf"
			},
			{
				"type": "unocc",
				"energy": 0.01564,
				"method": "rhf"
			}
		],
		"cosmo_sigma_profile": { 
			"-0.025": 0.0,
			"-0.024": 0.0,
			"-0.023": 0.0,
			"-0.022": 0.0,
			"-0.021": 0.0,
			"-0.02": 0.0,
			"-0.019": 0.0,
			"-0.018": 0.0,
			"-0.017": 0.0,
			"-0.016": 0.0,
			"-0.015": 0.0,
			"-0.014": 0.0,
			"-0.013": 0.0,
			"-0.012": 0.0,
			"-0.011": 0.0,
			"-0.01": 0.0774834868921,
			"-0.009": 0.717701284993,
			"-0.008": 0.495504572923,
			"-0.007": 4.23057717667,
			"-0.006": 20.4500796842,
			"-0.005": 33.0335132611,
			"-0.004": 36.7502595539,
			"-0.003": 36.8651826017,
			"-0.002": 26.5836123768,
			"-0.001": 24.7210892815,
			"0.0": 26.4883777933,
			"0.001": 21.4796785159,
			"0.002": 21.9323191467,
			"0.003": 22.3297573774,
			"0.004": 24.0994142504,
			"0.005": 19.5594852904,
			"0.006": 12.035616055,
			"0.007": 3.28803586787,
			"0.008": 3.57360895916,
			"0.009": 3.45654830446,
			"0.01": 3.31765458865,
			"0.011": 4.34387492057,
			"0.012": 4.83052797491,
			"0.013": 1.82694616337,
			"0.014": 1.4568106058,
			"0.015": 0.0760546183845,
			"0.016": 0.0,
			"0.017": 0.0,
			"0.018": 0.0,
			"0.019": 0.0,
			"0.02": 0.0,
			"0.021": 0.0,
			"0.022": 0.0,
			"0.023": 0.0,
			"0.024": 0.0,
			"0.025": 0.0
		}
	}
}
