{
	 "smiles": "NC1=NC2=CC=C(OC(F)(F)F)C=C2S1", 
	 "Tm": 392.15, 
	 "num_atms": 20, 
	 "gaussian": { 
		 "optdone": 1, 
		 "sigma_profile": "yes", 
		 "theory": "DFT", 
		 "functional": "B3LYP", 
		 "basiset": "6-31G**", 
		 "properties": { 
			 "R2extent": 5085.7616, 
			 "electric_dipole_moment_norm": 3.86099322714, 
			 "electric_quadrupole_moment_norm": 11.6743783569, 
			 "total_energy": -1190.31209657, 
			 "HOMO_LUMO_gap": 0.19487, 
			 "cosmo_polarized_energy": -10.56, 
			 "cosmo_cavitation_energy": 27.97, 
			 "cosmo_dispersion_energy": -21.18, 
			 "cosmo_repulsion_energy": 1.54, 
			 "cosmo_total_nonelectrostatic_energy": 8.34, 
			 "SMD_solvation_energy": 4.08 
		},
		"coords": [
			{
				"x": 2.0540780823,
				"y": -3.5962278965,
				"z": 0.6477037192,
				"element": "N" 
			},
			{
				"x": 1.5850899619,
				"y": -2.3347405396,
				"z": 0.3952999861,
				"element": "C" 
			},
			{
				"x": 0.352701435,
				"y": -1.9702629791,
				"z": 0.5475535779,
				"element": "N" 
			},
			{
				"x": 0.2048972121,
				"y": -0.616856492,
				"z": 0.2831238959,
				"element": "C" 
			},
			{
				"x": -0.9947440293,
				"y": 0.0978305355,
				"z": 0.3524770508,
				"element": "C" 
			},
			{
				"x": -1.0208884863,
				"y": 1.4577799618,
				"z": 0.0493196872,
				"element": "C" 
			},
			{
				"x": 0.1629949566,
				"y": 2.1042397787,
				"z": -0.3264096821,
				"element": "C" 
			},
			{
				"x": 0.2579065095,
				"y": 3.4632292943,
				"z": -0.6530258453,
				"element": "O" 
			},
			{
				"x": -0.824079054,
				"y": 4.2738720828,
				"z": -0.6274901072,
				"element": "C" 
			},
			{
				"x": -1.7891647117,
				"y": 3.8813822659,
				"z": -1.4839371656,
				"element": "F" 
			},
			{
				"x": -1.3874592701,
				"y": 4.3524108306,
				"z": 0.59522226,
				"element": "F" 
			},
			{
				"x": -0.4169870051,
				"y": 5.4923669521,
				"z": -0.9823037257,
				"element": "F" 
			},
			{
				"x": 1.3785085925,
				"y": 1.4266103214,
				"z": -0.4074436316,
				"element": "C" 
			},
			{
				"x": 1.3835352731,
				"y": 0.0712489875,
				"z": -0.0987603688,
				"element": "C" 
			},
			{
				"x": 2.7386414442,
				"y": -1.0522554876,
				"z": -0.0972972812,
				"element": "S" 
			},
			{
				"x": 2.8730592073,
				"y": -3.9051317795,
				"z": 0.1454522288,
				"element": "H" 
			},
			{
				"x": 1.3260340964,
				"y": -4.2909854547,
				"z": 0.7469139053,
				"element": "H" 
			},
			{
				"x": -1.9032421035,
				"y": -0.417732513,
				"z": 0.6443837356,
				"element": "H" 
			},
			{
				"x": -1.9547767006,
				"y": 1.9998144861,
				"z": 0.1072482933,
				"element": "H" 
			},
			{
				"x": 2.2719945899,
				"y": 1.9651076453,
				"z": -0.7016305326,
				"element": "H" 
			}
		],
		 "valence_orbital": [ 
			{
				"type": "occ",
				"energy": -0.30743,
				"method": "rhf"
			},
			{
				"type": "occ",
				"energy": -0.29376,
				"method": "rhf"
			},
			{
				"type": "occ",
				"energy": -0.28257,
				"method": "rhf"
			},
			{
				"type": "occ",
				"energy": -0.24148,
				"method": "rhf"
			},
			{
				"type": "occ",
				"energy": -0.2149,
				"method": "rhf"
			},
			{
				"type": "unocc",
				"energy": -0.02003,
				"method": "rhf"
			},
			{
				"type": "unocc",
				"energy": -0.01276,
				"method": "rhf"
			},
			{
				"type": "unocc",
				"energy": -0.0057,
				"method": "rhf"
			},
			{
				"type": "unocc",
				"energy": 0.04064,
				"method": "rhf"
			},
			{
				"type": "unocc",
				"energy": 0.06081,
				"method": "rhf"
			}
		],
		"cosmo_sigma_profile": { 
			"-0.025": 0.0,
			"-0.024": 0.0,
			"-0.023": 0.0,
			"-0.022": 0.0,
			"-0.021": 0.0,
			"-0.02": 0.0,
			"-0.019": 0.0,
			"-0.018": 0.0,
			"-0.017": 0.0,
			"-0.016": 0.0636755373145,
			"-0.015": 1.32001644659,
			"-0.014": 2.3136379865,
			"-0.013": 3.32071352714,
			"-0.012": 2.64803438106,
			"-0.011": 2.25022436508,
			"-0.01": 2.03143179084,
			"-0.009": 2.02910764323,
			"-0.008": 3.99506753233,
			"-0.007": 5.41228455503,
			"-0.006": 6.69110635135,
			"-0.005": 6.92297643738,
			"-0.004": 6.238080141,
			"-0.003": 6.74553536713,
			"-0.002": 8.24093227905,
			"-0.001": 13.4427773524,
			"0.0": 19.4137555203,
			"0.001": 32.7490354544,
			"0.002": 46.8255956159,
			"0.003": 22.3796452707,
			"0.004": 12.0782488651,
			"0.005": 5.31356348269,
			"0.006": 3.22178922325,
			"0.007": 2.69967295765,
			"0.008": 1.43729511378,
			"0.009": 1.49799204919,
			"0.01": 1.82630990696,
			"0.011": 1.33649394596,
			"0.012": 0.720421688977,
			"0.013": 0.869995553954,
			"0.014": 0.925567920979,
			"0.015": 0.49028556187,
			"0.016": 0.0106692239347,
			"0.017": 0.0,
			"0.018": 0.0,
			"0.019": 0.0,
			"0.02": 0.0,
			"0.021": 0.0,
			"0.022": 0.0,
			"0.023": 0.0,
			"0.024": 0.0,
			"0.025": 0.0
		}
	}
}
