{
	 "smiles": "OC(=O)C1=CC(CSC2=CC(Cl)=CC(Cl)=C2)=CC=C1", 
	 "Tm": 421.15, 
	 "num_atms": 29, 
	 "gaussian": { 
		 "optdone": 1, 
		 "sigma_profile": "yes", 
		 "theory": "DFT", 
		 "functional": "B3LYP", 
		 "basiset": "6-31G**", 
		 "properties": { 
			 "R2extent": 8646.3228, 
			 "electric_dipole_moment_norm": 4.89723349045, 
			 "electric_quadrupole_moment_norm": 20.8332769789, 
			 "total_energy": -2008.54593231, 
			 "HOMO_LUMO_gap": 0.18569, 
			 "cosmo_polarized_energy": -17.82, 
			 "cosmo_cavitation_energy": 39.98, 
			 "cosmo_dispersion_energy": -27.41, 
			 "cosmo_repulsion_energy": 2.11, 
			 "cosmo_total_nonelectrostatic_energy": 14.69, 
			 "SMD_solvation_energy": 6.59 
		},
		"coords": [
			{
				"x": -1.5005764533,
				"y": -4.9678161002,
				"z": -1.4758318319,
				"element": "O" 
			},
			{
				"x": -1.5072952986,
				"y": -3.964012972,
				"z": -0.55834393,
				"element": "C" 
			},
			{
				"x": -2.4584381053,
				"y": -3.8214185714,
				"z": 0.1730095426,
				"element": "O" 
			},
			{
				"x": -0.2954402347,
				"y": -3.0790758126,
				"z": -0.5152333246,
				"element": "C" 
			},
			{
				"x": -0.0881250558,
				"y": -2.3289705957,
				"z": 0.6468567289,
				"element": "C" 
			},
			{
				"x": 1.0215936932,
				"y": -1.4874102601,
				"z": 0.7733060191,
				"element": "C" 
			},
			{
				"x": 1.2443787809,
				"y": -0.6918992876,
				"z": 2.0317950818,
				"element": "C" 
			},
			{
				"x": 0.2215720311,
				"y": 0.8575537724,
				"z": 2.1633180896,
				"element": "S" 
			},
			{
				"x": 0.9222643178,
				"y": 1.8499078574,
				"z": 0.8429766723,
				"element": "C" 
			},
			{
				"x": 0.2471217408,
				"y": 1.9525812409,
				"z": -0.3792755878,
				"element": "C" 
			},
			{
				"x": 0.7829480618,
				"y": 2.7600716712,
				"z": -1.3827027784,
				"element": "C" 
			},
			{
				"x": -0.0575560768,
				"y": 2.8960775478,
				"z": -2.916395144,
				"element": "Cl" 
			},
			{
				"x": 1.9753164468,
				"y": 3.4597467378,
				"z": -1.2037538629,
				"element": "C" 
			},
			{
				"x": 2.6293308417,
				"y": 3.3390805712,
				"z": 0.0227057093,
				"element": "C" 
			},
			{
				"x": 4.1288854386,
				"y": 4.215751008,
				"z": 0.2742577858,
				"element": "Cl" 
			},
			{
				"x": 2.1174852071,
				"y": 2.5515700354,
				"z": 1.0520090525,
				"element": "C" 
			},
			{
				"x": 1.9176274153,
				"y": -1.3894516142,
				"z": -0.3009822661,
				"element": "C" 
			},
			{
				"x": 1.7057557953,
				"y": -2.112868733,
				"z": -1.4753811453,
				"element": "C" 
			},
			{
				"x": 0.6036809548,
				"y": -2.9580498543,
				"z": -1.5856938545,
				"element": "C" 
			},
			{
				"x": -0.6213043552,
				"y": -5.0574409174,
				"z": -1.8682792217,
				"element": "H" 
			},
			{
				"x": -0.8137073739,
				"y": -2.4181641597,
				"z": 1.4494658535,
				"element": "H" 
			},
			{
				"x": 2.2956544913,
				"y": -0.4181882114,
				"z": 2.1494576362,
				"element": "H" 
			},
			{
				"x": 0.9439037365,
				"y": -1.2595029082,
				"z": 2.9170987057,
				"element": "H" 
			},
			{
				"x": -0.6779278251,
				"y": 1.4131139736,
				"z": -0.5412143264,
				"element": "H" 
			},
			{
				"x": 2.3800348413,
				"y": 4.0824124991,
				"z": -1.9918300744,
				"element": "H" 
			},
			{
				"x": 2.6310636145,
				"y": 2.4927588406,
				"z": 2.0044250775,
				"element": "H" 
			},
			{
				"x": 2.784317336,
				"y": -0.7394526977,
				"z": -0.2180856815,
				"element": "H" 
			},
			{
				"x": 2.3976998493,
				"y": -2.0126322285,
				"z": -2.3059173024,
				"element": "H" 
			},
			{
				"x": 0.4343361846,
				"y": -3.4855708313,
				"z": -2.5212616229,
				"element": "H" 
			}
		],
		 "valence_orbital": [ 
			{
				"type": "occ",
				"energy": -0.27794,
				"method": "rhf"
			},
			{
				"type": "occ",
				"energy": -0.2705,
				"method": "rhf"
			},
			{
				"type": "occ",
				"energy": -0.26942,
				"method": "rhf"
			},
			{
				"type": "occ",
				"energy": -0.26272,
				"method": "rhf"
			},
			{
				"type": "occ",
				"energy": -0.24432,
				"method": "rhf"
			},
			{
				"type": "unocc",
				"energy": -0.05863,
				"method": "rhf"
			},
			{
				"type": "unocc",
				"energy": -0.04839,
				"method": "rhf"
			},
			{
				"type": "unocc",
				"energy": -0.03613,
				"method": "rhf"
			},
			{
				"type": "unocc",
				"energy": -0.03241,
				"method": "rhf"
			},
			{
				"type": "unocc",
				"energy": -0.00892,
				"method": "rhf"
			}
		],
		"cosmo_sigma_profile": { 
			"-0.025": 0.0,
			"-0.024": 0.0,
			"-0.023": 0.0,
			"-0.022": 0.0,
			"-0.021": 0.0,
			"-0.02": 0.0,
			"-0.019": 0.14799231407,
			"-0.018": 0.892647333222,
			"-0.017": 0.737833231356,
			"-0.016": 1.05334845592,
			"-0.015": 1.27426477996,
			"-0.014": 0.747255913675,
			"-0.013": 1.15391081694,
			"-0.012": 1.10475744323,
			"-0.011": 1.1083618989,
			"-0.01": 1.22663127699,
			"-0.009": 1.65631709592,
			"-0.008": 4.99299084754,
			"-0.007": 12.8969850493,
			"-0.006": 18.6044912696,
			"-0.005": 17.011051574,
			"-0.004": 14.8408510886,
			"-0.003": 16.8512948639,
			"-0.002": 18.8983329941,
			"-0.001": 21.7186973668,
			"0.0": 31.5988399754,
			"0.001": 33.8077267515,
			"0.002": 26.9686298113,
			"0.003": 30.2706508711,
			"0.004": 25.9239368745,
			"0.005": 7.30657451188,
			"0.006": 4.3433167141,
			"0.007": 4.89364510105,
			"0.008": 4.66038438811,
			"0.009": 4.01532569651,
			"0.01": 4.75731618776,
			"0.011": 5.2946619824,
			"0.012": 4.77076572155,
			"0.013": 1.56288882065,
			"0.014": 0.0612019589154,
			"0.015": 0.0,
			"0.016": 0.0,
			"0.017": 0.0,
			"0.018": 0.0,
			"0.019": 0.0,
			"0.02": 0.0,
			"0.021": 0.0,
			"0.022": 0.0,
			"0.023": 0.0,
			"0.024": 0.0,
			"0.025": 0.0
		}
	}
}
