{
	 "smiles": "CC1=CC=CC=C1N1CCN(CCC2=NN=C3CCCCN23)CC1", 
	 "Tm": 431.15, 
	 "num_atms": 51, 
	 "gaussian": { 
		 "optdone": 1, 
		 "sigma_profile": "yes", 
		 "theory": "DFT", 
		 "functional": "B3LYP", 
		 "basiset": "6-31G**", 
		 "properties": { 
			 "R2extent": 13792.2488, 
			 "electric_dipole_moment_norm": 5.60531004495, 
			 "electric_quadrupole_moment_norm": 43.3898907513, 
			 "total_energy": -1014.02824066, 
			 "HOMO_LUMO_gap": 0.19928, 
			 "cosmo_polarized_energy": -22.18, 
			 "cosmo_cavitation_energy": 49.65, 
			 "cosmo_dispersion_energy": -35.16, 
			 "cosmo_repulsion_energy": 2.67, 
			 "cosmo_total_nonelectrostatic_energy": 17.15, 
			 "SMD_solvation_energy": 1.71 
		},
		"coords": [
			{
				"x": 0.6589579794,
				"y": -3.6555148578,
				"z": 0.078757777,
				"element": "C" 
			},
			{
				"x": 0.3309968707,
				"y": -3.8465608026,
				"z": 1.5415136201,
				"element": "C" 
			},
			{
				"x": 0.4823185106,
				"y": -5.1091019587,
				"z": 2.1237839373,
				"element": "C" 
			},
			{
				"x": 0.3042266135,
				"y": -5.3229671385,
				"z": 3.4910620022,
				"element": "C" 
			},
			{
				"x": -0.024891783,
				"y": -4.2418372739,
				"z": 4.3052772027,
				"element": "C" 
			},
			{
				"x": -0.2028397059,
				"y": -2.9759254955,
				"z": 3.7490820171,
				"element": "C" 
			},
			{
				"x": -0.0498767136,
				"y": -2.7566287361,
				"z": 2.3678203827,
				"element": "C" 
			},
			{
				"x": -0.2179498728,
				"y": -1.469994866,
				"z": 1.8082208701,
				"element": "N" 
			},
			{
				"x": -1.192811508,
				"y": -1.3009500339,
				"z": 0.7112379079,
				"element": "C" 
			},
			{
				"x": -2.1392437269,
				"y": -0.1219623799,
				"z": 0.9852504195,
				"element": "C" 
			},
			{
				"x": -1.4419289854,
				"y": 1.1374708725,
				"z": 1.2572258026,
				"element": "N" 
			},
			{
				"x": -1.5556023722,
				"y": 2.193098994,
				"z": 0.2648305332,
				"element": "C" 
			},
			{
				"x": -0.8574406714,
				"y": 1.927181416,
				"z": -1.0928086958,
				"element": "C" 
			},
			{
				"x": -1.0097423288,
				"y": 3.0772989128,
				"z": -2.0387145136,
				"element": "C" 
			},
			{
				"x": -1.6968786395,
				"y": 4.1753455029,
				"z": -1.817104298,
				"element": "N" 
			},
			{
				"x": -1.5965927675,
				"y": 4.9756892895,
				"z": -2.9420413159,
				"element": "N" 
			},
			{
				"x": -0.8492029633,
				"y": 4.3371854253,
				"z": -3.8102331512,
				"element": "C" 
			},
			{
				"x": -0.4192075683,
				"y": 4.7972191158,
				"z": -5.1698421743,
				"element": "C" 
			},
			{
				"x": 0.0477168961,
				"y": 3.6070277327,
				"z": -6.0268448912,
				"element": "C" 
			},
			{
				"x": 1.0131017633,
				"y": 2.7170780402,
				"z": -5.229054136,
				"element": "C" 
			},
			{
				"x": 0.3223462035,
				"y": 2.10577096,
				"z": -4.0036469201,
				"element": "C" 
			},
			{
				"x": -0.4397347568,
				"y": 3.1302265918,
				"z": -3.2918425813,
				"element": "N" 
			},
			{
				"x": -0.1195000191,
				"y": 0.9712579078,
				"z": 1.8543619006,
				"element": "C" 
			},
			{
				"x": -0.0838778653,
				"y": -0.3075560888,
				"z": 2.6868405247,
				"element": "C" 
			},
			{
				"x": 1.2176733165,
				"y": -2.7252771319,
				"z": -0.0696049047,
				"element": "H" 
			},
			{
				"x": -0.2305049684,
				"y": -3.6009521498,
				"z": -0.560207153,
				"element": "H" 
			},
			{
				"x": 1.2689819115,
				"y": -4.4863060217,
				"z": -0.2868719089,
				"element": "H" 
			},
			{
				"x": 0.7788699941,
				"y": -5.9395117883,
				"z": 1.4868661849,
				"element": "H" 
			},
			{
				"x": 0.4409559557,
				"y": -6.3141800764,
				"z": 3.9128624839,
				"element": "H" 
			},
			{
				"x": -0.1562881714,
				"y": -4.3786687215,
				"z": 5.3752223328,
				"element": "H" 
			},
			{
				"x": -0.480580323,
				"y": -2.1519230548,
				"z": 4.3965478993,
				"element": "H" 
			},
			{
				"x": -0.6785778238,
				"y": -1.1408007773,
				"z": -0.2472102325,
				"element": "H" 
			},
			{
				"x": -1.7880787492,
				"y": -2.2146461629,
				"z": 0.6104271437,
				"element": "H" 
			},
			{
				"x": -2.80154474,
				"y": 0.0080234193,
				"z": 0.1224369013,
				"element": "H" 
			},
			{
				"x": -2.7870570209,
				"y": -0.3845919214,
				"z": 1.8347459802,
				"element": "H" 
			},
			{
				"x": -2.614729007,
				"y": 2.3963986068,
				"z": 0.0797586455,
				"element": "H" 
			},
			{
				"x": -1.1476194572,
				"y": 3.1148568202,
				"z": 0.6929918011,
				"element": "H" 
			},
			{
				"x": 0.2098943992,
				"y": 1.7228344391,
				"z": -0.9311368989,
				"element": "H" 
			},
			{
				"x": -1.2737581313,
				"y": 1.0173755818,
				"z": -1.5491265139,
				"element": "H" 
			},
			{
				"x": 0.4049612837,
				"y": 5.515837201,
				"z": -5.0632265366,
				"element": "H" 
			},
			{
				"x": -1.2436524447,
				"y": 5.3388177502,
				"z": -5.6422685446,
				"element": "H" 
			},
			{
				"x": 0.5333935585,
				"y": 3.9707292681,
				"z": -6.937769811,
				"element": "H" 
			},
			{
				"x": -0.8191924089,
				"y": 3.0128216877,
				"z": -6.3443174749,
				"element": "H" 
			},
			{
				"x": 1.4025741922,
				"y": 1.9039345973,
				"z": -5.8502736623,
				"element": "H" 
			},
			{
				"x": 1.874518344,
				"y": 3.3135147022,
				"z": -4.9028736834,
				"element": "H" 
			},
			{
				"x": -0.3602734775,
				"y": 1.3041846271,
				"z": -4.3159965867,
				"element": "H" 
			},
			{
				"x": 1.0547195207,
				"y": 1.6649568051,
				"z": -3.3196599167,
				"element": "H" 
			},
			{
				"x": 0.6950454545,
				"y": 0.9127504228,
				"z": 1.1084551509,
				"element": "H" 
			},
			{
				"x": 0.098746438,
				"y": 1.8342001005,
				"z": 2.4978308714,
				"element": "H" 
			},
			{
				"x": 0.8714207895,
				"y": -0.3802987983,
				"z": 3.2167045917,
				"element": "H" 
			},
			{
				"x": -0.877641024,
				"y": -0.2431305543,
				"z": 3.4509616213,
				"element": "H" 
			}
		],
		 "valence_orbital": [ 
			{
				"type": "occ",
				"energy": -0.23801,
				"method": "rhf"
			},
			{
				"type": "occ",
				"energy": -0.23533,
				"method": "rhf"
			},
			{
				"type": "occ",
				"energy": -0.2345,
				"method": "rhf"
			},
			{
				"type": "occ",
				"energy": -0.19981,
				"method": "rhf"
			},
			{
				"type": "occ",
				"energy": -0.19079,
				"method": "rhf"
			},
			{
				"type": "unocc",
				"energy": 0.00849,
				"method": "rhf"
			},
			{
				"type": "unocc",
				"energy": 0.01455,
				"method": "rhf"
			},
			{
				"type": "unocc",
				"energy": 0.02535,
				"method": "rhf"
			},
			{
				"type": "unocc",
				"energy": 0.05125,
				"method": "rhf"
			},
			{
				"type": "unocc",
				"energy": 0.06203,
				"method": "rhf"
			}
		],
		"cosmo_sigma_profile": { 
			"-0.025": 0.0,
			"-0.024": 0.0,
			"-0.023": 0.0,
			"-0.022": 0.0,
			"-0.021": 0.0,
			"-0.02": 0.0,
			"-0.019": 0.0,
			"-0.018": 0.0,
			"-0.017": 0.0,
			"-0.016": 0.0,
			"-0.015": 0.0,
			"-0.014": 0.0,
			"-0.013": 0.0,
			"-0.012": 0.0,
			"-0.011": 0.0,
			"-0.01": 0.0,
			"-0.009": 0.0,
			"-0.008": 0.0,
			"-0.007": 0.848214693874,
			"-0.006": 6.55298909215,
			"-0.005": 28.7640646545,
			"-0.004": 52.4257598104,
			"-0.003": 59.1330549157,
			"-0.002": 55.9784484647,
			"-0.001": 38.2026670124,
			"0.0": 26.5322916168,
			"0.001": 18.1909772456,
			"0.002": 12.4875130047,
			"0.003": 11.4245660099,
			"0.004": 11.8620180625,
			"0.005": 10.5626463033,
			"0.006": 11.0316988825,
			"0.007": 11.3426921748,
			"0.008": 5.85951076746,
			"0.009": 2.43780399622,
			"0.01": 1.79856098754,
			"0.011": 2.54464711648,
			"0.012": 3.12506289209,
			"0.013": 3.15853709406,
			"0.014": 2.97466709922,
			"0.015": 3.59328514546,
			"0.016": 2.95865216521,
			"0.017": 2.30294301893,
			"0.018": 1.33993175166,
			"0.019": 0.0939844179082,
			"0.02": 0.0,
			"0.021": 0.0,
			"0.022": 0.0,
			"0.023": 0.0,
			"0.024": 0.0,
			"0.025": 0.0
		}
	}
}
