{
	 "smiles": "FC(F)(F)C1=NN(CN2CCN(CN3N=C(N(N=CC4=CC=CS4)C3=S)C(F)(F)F)CC2)C(=S)N1N=CC1=CC=CS1", 
	 "Tm": 460.15, 
	 "num_atms": 62, 
	 "gaussian": { 
		 "optdone": 1, 
		 "sigma_profile": "yes", 
		 "theory": "DFT", 
		 "functional": "B3LYP", 
		 "basiset": "6-31G**", 
		 "properties": { 
			 "R2extent": 25902.0926, 
			 "electric_dipole_moment_norm": 2.11772570462, 
			 "electric_quadrupole_moment_norm": 47.2946432494, 
			 "total_energy": -3589.53883246, 
			 "HOMO_LUMO_gap": 0.13515, 
			 "cosmo_polarized_energy": -20.56, 
			 "cosmo_cavitation_energy": 75.49, 
			 "cosmo_dispersion_energy": -44.93, 
			 "cosmo_repulsion_energy": 3.06, 
			 "cosmo_total_nonelectrostatic_energy": 33.62, 
			 "SMD_solvation_energy": 8.3 
		},
		"coords": [
			{
				"x": -1.863282054,
				"y": -3.2594925237,
				"z": -4.6585256069,
				"element": "F" 
			},
			{
				"x": -1.7296470472,
				"y": -1.9498661632,
				"z": -4.4045241431,
				"element": "C" 
			},
			{
				"x": -2.928890878,
				"y": -1.4659934417,
				"z": -4.0370349941,
				"element": "F" 
			},
			{
				"x": -1.3662657477,
				"y": -1.3349435601,
				"z": -5.5442151884,
				"element": "F" 
			},
			{
				"x": -0.7035978197,
				"y": -1.7480274669,
				"z": -3.3216041311,
				"element": "C" 
			},
			{
				"x": -0.0534636831,
				"y": -2.7191805944,
				"z": -2.7567625083,
				"element": "N" 
			},
			{
				"x": 0.7607071034,
				"y": -2.1035893834,
				"z": -1.8512780442,
				"element": "N" 
			},
			{
				"x": 1.6394968937,
				"y": -2.8988897286,
				"z": -0.9976304974,
				"element": "C" 
			},
			{
				"x": 1.0526756251,
				"y": -3.1786511391,
				"z": 0.2910145118,
				"element": "N" 
			},
			{
				"x": 2.0781241661,
				"y": -3.4742053571,
				"z": 1.3051410615,
				"element": "C" 
			},
			{
				"x": 1.4349418362,
				"y": -4.1947739986,
				"z": 2.5144991989,
				"element": "C" 
			},
			{
				"x": 0.0419807496,
				"y": -3.8397840229,
				"z": 2.7443501267,
				"element": "N" 
			},
			{
				"x": -0.260795432,
				"y": -2.78431802,
				"z": 3.6428901652,
				"element": "C" 
			},
			{
				"x": 0.0621109385,
				"y": -1.3836056476,
				"z": 3.21730178,
				"element": "N" 
			},
			{
				"x": 1.3446258033,
				"y": -0.9372016118,
				"z": 3.3381775902,
				"element": "N" 
			},
			{
				"x": 1.2946999928,
				"y": 0.3105345004,
				"z": 2.9871279371,
				"element": "C" 
			},
			{
				"x": 0.0135966897,
				"y": 0.7028435585,
				"z": 2.6577012558,
				"element": "N" 
			},
			{
				"x": -0.190525978,
				"y": 2.0147407871,
				"z": 2.3049226181,
				"element": "N" 
			},
			{
				"x": -1.3684507681,
				"y": 2.4314323393,
				"z": 1.9790627701,
				"element": "C" 
			},
			{
				"x": -1.5211975966,
				"y": 3.8256239077,
				"z": 1.6151145508,
				"element": "C" 
			},
			{
				"x": -0.5587128093,
				"y": 4.8115689544,
				"z": 1.5158268221,
				"element": "C" 
			},
			{
				"x": -1.0928744382,
				"y": 6.070780765,
				"z": 1.1415175829,
				"element": "C" 
			},
			{
				"x": -2.4543079932,
				"y": 6.038299696,
				"z": 0.9576735481,
				"element": "C" 
			},
			{
				"x": -3.1052613464,
				"y": 4.4647795562,
				"z": 1.2385084239,
				"element": "S" 
			},
			{
				"x": -0.8163043393,
				"y": -0.4163954564,
				"z": 2.8026811687,
				"element": "C" 
			},
			{
				"x": -2.4700862013,
				"y": -0.5770650918,
				"z": 2.5682166509,
				"element": "S" 
			},
			{
				"x": 2.4906619035,
				"y": 1.2250564839,
				"z": 2.9909156141,
				"element": "C" 
			},
			{
				"x": 2.6926040519,
				"y": 1.7987527789,
				"z": 1.7933760197,
				"element": "F" 
			},
			{
				"x": 3.5883566092,
				"y": 0.5241310455,
				"z": 3.3123468715,
				"element": "F" 
			},
			{
				"x": 2.3408239673,
				"y": 2.2098435568,
				"z": 3.8975619046,
				"element": "F" 
			},
			{
				"x": -0.8340290919,
				"y": -4.0337903132,
				"z": 1.5765549839,
				"element": "C" 
			},
			{
				"x": -0.019716678,
				"y": -4.1714669608,
				"z": 0.2791500887,
				"element": "C" 
			},
			{
				"x": 0.6338281439,
				"y": -0.7358005067,
				"z": -1.8311517397,
				"element": "C" 
			},
			{
				"x": 1.4935625379,
				"y": 0.3404806436,
				"z": -0.8856275705,
				"element": "S" 
			},
			{
				"x": -0.3460038569,
				"y": -0.5168548191,
				"z": -2.809111509,
				"element": "N" 
			},
			{
				"x": -0.9251513995,
				"y": 0.6072138348,
				"z": -3.3506689761,
				"element": "N" 
			},
			{
				"x": -0.7133484625,
				"y": 1.765367879,
				"z": -2.817456017,
				"element": "C" 
			},
			{
				"x": -1.3372403009,
				"y": 2.9223528309,
				"z": -3.4229601629,
				"element": "C" 
			},
			{
				"x": -2.1307386647,
				"y": 2.994967077,
				"z": -4.5518425367,
				"element": "C" 
			},
			{
				"x": -2.5638453565,
				"y": 4.3133753647,
				"z": -4.8390458203,
				"element": "C" 
			},
			{
				"x": -2.1002683533,
				"y": 5.2349125684,
				"z": -3.9308905054,
				"element": "C" 
			},
			{
				"x": -1.1270205261,
				"y": 4.5046260383,
				"z": -2.7078166138,
				"element": "S" 
			},
			{
				"x": 2.5465537318,
				"y": -2.3090578665,
				"z": -0.846958582,
				"element": "H" 
			},
			{
				"x": 1.8817222813,
				"y": -3.7974402927,
				"z": -1.5878675238,
				"element": "H" 
			},
			{
				"x": 2.54001061,
				"y": -2.5304237736,
				"z": 1.6112519438,
				"element": "H" 
			},
			{
				"x": 2.8774624521,
				"y": -4.128462913,
				"z": 0.9082355222,
				"element": "H" 
			},
			{
				"x": 2.013998554,
				"y": -3.9821397482,
				"z": 3.4172514669,
				"element": "H" 
			},
			{
				"x": 1.4872235739,
				"y": -5.2795756078,
				"z": 2.3551532911,
				"element": "H" 
			},
			{
				"x": -1.3309858104,
				"y": -2.7614642175,
				"z": 3.855859587,
				"element": "H" 
			},
			{
				"x": 0.2986285139,
				"y": -2.9183489197,
				"z": 4.5722748431,
				"element": "H" 
			},
			{
				"x": -2.240782052,
				"y": 1.781372506,
				"z": 1.9721991905,
				"element": "H" 
			},
			{
				"x": 0.4882008789,
				"y": 4.6128209309,
				"z": 1.7101651886,
				"element": "H" 
			},
			{
				"x": -0.4970149279,
				"y": 6.967305355,
				"z": 1.0147042798,
				"element": "H" 
			},
			{
				"x": -3.1099567897,
				"y": 6.8507314372,
				"z": 0.6761959018,
				"element": "H" 
			},
			{
				"x": -1.459384634,
				"y": -4.9298367719,
				"z": 1.707938731,
				"element": "H" 
			},
			{
				"x": -1.5023257536,
				"y": -3.1729488571,
				"z": 1.4849083774,
				"element": "H" 
			},
			{
				"x": -0.6755599984,
				"y": -3.9868672483,
				"z": -0.575388676,
				"element": "H" 
			},
			{
				"x": 0.3684508858,
				"y": -5.2008184386,
				"z": 0.1593473044,
				"element": "H" 
			},
			{
				"x": -0.0839822597,
				"y": 1.9010858496,
				"z": -1.9405955985,
				"element": "H" 
			},
			{
				"x": -2.3780974147,
				"y": 2.1180529081,
				"z": -5.137630833,
				"element": "H" 
			},
			{
				"x": -3.1921174812,
				"y": 4.574456558,
				"z": -5.682746391,
				"element": "H" 
			},
			{
				"x": -2.2779145496,
				"y": 6.3013707508,
				"z": -3.9137847035,
				"element": "H" 
			}
		],
		 "valence_orbital": [ 
			{
				"type": "occ",
				"energy": -0.2248,
				"method": "rhf"
			},
			{
				"type": "occ",
				"energy": -0.22083,
				"method": "rhf"
			},
			{
				"type": "occ",
				"energy": -0.21818,
				"method": "rhf"
			},
			{
				"type": "occ",
				"energy": -0.21675,
				"method": "rhf"
			},
			{
				"type": "occ",
				"energy": -0.21108,
				"method": "rhf"
			},
			{
				"type": "unocc",
				"energy": -0.07593,
				"method": "rhf"
			},
			{
				"type": "unocc",
				"energy": -0.07299,
				"method": "rhf"
			},
			{
				"type": "unocc",
				"energy": -0.02262,
				"method": "rhf"
			},
			{
				"type": "unocc",
				"energy": -0.01783,
				"method": "rhf"
			},
			{
				"type": "unocc",
				"energy": -0.01033,
				"method": "rhf"
			}
		],
		"cosmo_sigma_profile": { 
			"-0.025": 0.0,
			"-0.024": 0.0,
			"-0.023": 0.0,
			"-0.022": 0.0,
			"-0.021": 0.0,
			"-0.02": 0.0,
			"-0.019": 0.0,
			"-0.018": 0.0,
			"-0.017": 0.0,
			"-0.016": 0.0,
			"-0.015": 0.0,
			"-0.014": 0.0,
			"-0.013": 0.0,
			"-0.012": 0.0,
			"-0.011": 0.0,
			"-0.01": 0.602011881647,
			"-0.009": 4.31428875116,
			"-0.008": 6.21851358146,
			"-0.007": 15.447324383,
			"-0.006": 24.4911325137,
			"-0.005": 33.6516667579,
			"-0.004": 47.143691914,
			"-0.003": 48.755177727,
			"-0.002": 44.9813514313,
			"-0.001": 37.4025544369,
			"0.0": 39.4397543352,
			"0.001": 57.411697834,
			"0.002": 100.231902622,
			"0.003": 59.2292827299,
			"0.004": 27.9724813975,
			"0.005": 21.238984734,
			"0.006": 14.4149603913,
			"0.007": 11.0983964362,
			"0.008": 11.5251488247,
			"0.009": 7.2567074257,
			"0.01": 1.58641620259,
			"0.011": 0.269032006155,
			"0.012": 0.0219420152772,
			"0.013": 0.0,
			"0.014": 0.0,
			"0.015": 0.0,
			"0.016": 0.0,
			"0.017": 0.0,
			"0.018": 0.0,
			"0.019": 0.0,
			"0.02": 0.0,
			"0.021": 0.0,
			"0.022": 0.0,
			"0.023": 0.0,
			"0.024": 0.0,
			"0.025": 0.0
		}
	}
}
