{
	 "smiles": "COC(=O)C1=C(F)C(Cl)=C(F)C=C1", 
	 "Tm": 321.15, 
	 "num_atms": 18, 
	 "gaussian": { 
		 "optdone": 1, 
		 "sigma_profile": "yes", 
		 "theory": "DFT", 
		 "functional": "B3LYP", 
		 "basiset": "6-31G**", 
		 "properties": { 
			 "R2extent": 3661.2664, 
			 "electric_dipole_moment_norm": 3.84945021139, 
			 "electric_quadrupole_moment_norm": 8.29267859802, 
			 "total_energy": -1118.16978591, 
			 "HOMO_LUMO_gap": 0.20464, 
			 "cosmo_polarized_energy": -8.06, 
			 "cosmo_cavitation_energy": 25.84, 
			 "cosmo_dispersion_energy": -18.97, 
			 "cosmo_repulsion_energy": 1.46, 
			 "cosmo_total_nonelectrostatic_energy": 8.34, 
			 "SMD_solvation_energy": 6.73 
		},
		"coords": [
			{
				"x": 0.4377111117,
				"y": 1.6601306441,
				"z": -3.8826909855,
				"element": "C" 
			},
			{
				"x": 0.8213152155,
				"y": 0.5441217352,
				"z": -3.0633096916,
				"element": "O" 
			},
			{
				"x": 0.3343610246,
				"y": 0.5697613453,
				"z": -1.7982362672,
				"element": "C" 
			},
			{
				"x": -0.371832808,
				"y": 1.461538807,
				"z": -1.379514582,
				"element": "O" 
			},
			{
				"x": 0.7831942982,
				"y": -0.6246486379,
				"z": -1.0245733372,
				"element": "C" 
			},
			{
				"x": 0.3935479335,
				"y": -0.7980666694,
				"z": 0.3135975118,
				"element": "C" 
			},
			{
				"x": -0.3819509411,
				"y": 0.0930498863,
				"z": 0.9242315572,
				"element": "F" 
			},
			{
				"x": 0.8054926737,
				"y": -1.9120001259,
				"z": 1.0533125957,
				"element": "C" 
			},
			{
				"x": 0.3130955669,
				"y": -2.1071118477,
				"z": 2.7043132913,
				"element": "Cl" 
			},
			{
				"x": 1.6202248154,
				"y": -2.8617970632,
				"z": 0.4347511387,
				"element": "C" 
			},
			{
				"x": 2.0186056069,
				"y": -3.9292411684,
				"z": 1.133467283,
				"element": "F" 
			},
			{
				"x": 2.0236715798,
				"y": -2.7197462121,
				"z": -0.8887193739,
				"element": "C" 
			},
			{
				"x": 1.6035123,
				"y": -1.606444179,
				"z": -1.6049670527,
				"element": "C" 
			},
			{
				"x": 0.9028857862,
				"y": 1.484559777,
				"z": -4.8524990279,
				"element": "H" 
			},
			{
				"x": -0.6494835337,
				"y": 1.7098076692,
				"z": -3.9801684666,
				"element": "H" 
			},
			{
				"x": 0.7951777529,
				"y": 2.5968187357,
				"z": -3.4480746198,
				"element": "H" 
			},
			{
				"x": 2.6564791197,
				"y": -3.4806069505,
				"z": -1.3307179782,
				"element": "H" 
			},
			{
				"x": 1.9076924977,
				"y": -1.4793257456,
				"z": -2.635901995,
				"element": "H" 
			}
		],
		 "valence_orbital": [ 
			{
				"type": "occ",
				"energy": -0.32842,
				"method": "rhf"
			},
			{
				"type": "occ",
				"energy": -0.31016,
				"method": "rhf"
			},
			{
				"type": "occ",
				"energy": -0.28026,
				"method": "rhf"
			},
			{
				"type": "occ",
				"energy": -0.26962,
				"method": "rhf"
			},
			{
				"type": "occ",
				"energy": -0.26347,
				"method": "rhf"
			},
			{
				"type": "unocc",
				"energy": -0.05883,
				"method": "rhf"
			},
			{
				"type": "unocc",
				"energy": -0.02978,
				"method": "rhf"
			},
			{
				"type": "unocc",
				"energy": 0.00709,
				"method": "rhf"
			},
			{
				"type": "unocc",
				"energy": 0.04327,
				"method": "rhf"
			},
			{
				"type": "unocc",
				"energy": 0.09604,
				"method": "rhf"
			}
		],
		"cosmo_sigma_profile": { 
			"-0.025": 0.0,
			"-0.024": 0.0,
			"-0.023": 0.0,
			"-0.022": 0.0,
			"-0.021": 0.0,
			"-0.02": 0.0,
			"-0.019": 0.0,
			"-0.018": 0.0,
			"-0.017": 0.0,
			"-0.016": 0.0,
			"-0.015": 0.0,
			"-0.014": 0.0,
			"-0.013": 0.0,
			"-0.012": 0.0,
			"-0.011": 0.0,
			"-0.01": 0.0,
			"-0.009": 1.10046059314,
			"-0.008": 2.77726273533,
			"-0.007": 4.68804419078,
			"-0.006": 8.78317470511,
			"-0.005": 8.9403422502,
			"-0.004": 12.552003586,
			"-0.003": 22.4307581036,
			"-0.002": 24.8146342093,
			"-0.001": 18.5430391813,
			"0.0": 16.598649012,
			"0.001": 14.8927785845,
			"0.002": 15.859906264,
			"0.003": 25.3543161959,
			"0.004": 13.0754150059,
			"0.005": 3.13544544287,
			"0.006": 1.94200450312,
			"0.007": 1.77459679788,
			"0.008": 1.79624138662,
			"0.009": 1.86789263366,
			"0.01": 2.37305198839,
			"0.011": 4.61354876788,
			"0.012": 2.52426910435,
			"0.013": 0.0,
			"0.014": 0.0,
			"0.015": 0.0,
			"0.016": 0.0,
			"0.017": 0.0,
			"0.018": 0.0,
			"0.019": 0.0,
			"0.02": 0.0,
			"0.021": 0.0,
			"0.022": 0.0,
			"0.023": 0.0,
			"0.024": 0.0,
			"0.025": 0.0
		}
	}
}
