{
	 "smiles": "OC1=NOC2=NC3=CC=CC=C3N=C12", 
	 "Tm": 595.15, 
	 "num_atms": 19, 
	 "gaussian": { 
		 "optdone": 1, 
		 "sigma_profile": "yes", 
		 "theory": "DFT", 
		 "functional": "B3LYP", 
		 "basiset": "6-31G**", 
		 "properties": { 
			 "R2extent": 3423.1085, 
			 "electric_dipole_moment_norm": 5.37130983374, 
			 "electric_quadrupole_moment_norm": 9.55984946534, 
			 "total_energy": -660.611325084, 
			 "HOMO_LUMO_gap": 0.14696, 
			 "cosmo_polarized_energy": -13.26, 
			 "cosmo_cavitation_energy": 24.44, 
			 "cosmo_dispersion_energy": -18.78, 
			 "cosmo_repulsion_energy": 1.44, 
			 "cosmo_total_nonelectrostatic_energy": 7.09, 
			 "SMD_solvation_energy": 1.09 
		},
		"coords": [
			{
				"x": -1.676903468,
				"y": -3.5013016461,
				"z": -2.2077032308,
				"element": "O" 
			},
			{
				"x": -1.1266771674,
				"y": -2.686254894,
				"z": -1.2982853532,
				"element": "C" 
			},
			{
				"x": -1.0893115266,
				"y": -3.0066576398,
				"z": -0.0342562417,
				"element": "N" 
			},
			{
				"x": -0.4412214354,
				"y": -1.926971518,
				"z": 0.6539851499,
				"element": "O" 
			},
			{
				"x": -0.1105209953,
				"y": -0.9827188652,
				"z": -0.2531957123,
				"element": "C" 
			},
			{
				"x": 0.4944881769,
				"y": 0.1427676674,
				"z": 0.0130740856,
				"element": "N" 
			},
			{
				"x": 0.7037283804,
				"y": 0.9088241537,
				"z": -1.1004911527,
				"element": "C" 
			},
			{
				"x": 1.3542393113,
				"y": 2.162131994,
				"z": -0.9525845321,
				"element": "C" 
			},
			{
				"x": 1.5829604687,
				"y": 2.9614383075,
				"z": -2.0480767476,
				"element": "C" 
			},
			{
				"x": 1.1756204361,
				"y": 2.5534516071,
				"z": -3.3464884456,
				"element": "C" 
			},
			{
				"x": 0.5431751274,
				"y": 1.347863606,
				"z": -3.5316985308,
				"element": "C" 
			},
			{
				"x": 0.2885946464,
				"y": 0.493460283,
				"z": -2.4250643071,
				"element": "C" 
			},
			{
				"x": -0.3410480791,
				"y": -0.6975328215,
				"z": -2.6392393018,
				"element": "N" 
			},
			{
				"x": -0.5209126045,
				"y": -1.3998026687,
				"z": -1.5420575097,
				"element": "C" 
			},
			{
				"x": -1.5976346772,
				"y": -3.0723787418,
				"z": -3.0731445883,
				"element": "H" 
			},
			{
				"x": 1.65745881,
				"y": 2.4555159772,
				"z": 0.0468548371,
				"element": "H" 
			},
			{
				"x": 2.0813362532,
				"y": 3.9181433531,
				"z": -1.9236083146,
				"element": "H" 
			},
			{
				"x": 1.3679935522,
				"y": 3.2028787686,
				"z": -4.1949296003,
				"element": "H" 
			},
			{
				"x": 0.2213347909,
				"y": 1.0111430774,
				"z": -4.5117905041,
				"element": "H" 
			}
		],
		 "valence_orbital": [ 
			{
				"type": "occ",
				"energy": -0.32531,
				"method": "rhf"
			},
			{
				"type": "occ",
				"energy": -0.28252,
				"method": "rhf"
			},
			{
				"type": "occ",
				"energy": -0.27546,
				"method": "rhf"
			},
			{
				"type": "occ",
				"energy": -0.27018,
				"method": "rhf"
			},
			{
				"type": "occ",
				"energy": -0.24921,
				"method": "rhf"
			},
			{
				"type": "unocc",
				"energy": -0.10225,
				"method": "rhf"
			},
			{
				"type": "unocc",
				"energy": -0.03432,
				"method": "rhf"
			},
			{
				"type": "unocc",
				"energy": -0.01039,
				"method": "rhf"
			},
			{
				"type": "unocc",
				"energy": 0.02649,
				"method": "rhf"
			},
			{
				"type": "unocc",
				"energy": 0.035,
				"method": "rhf"
			}
		],
		"cosmo_sigma_profile": { 
			"-0.025": 0.0,
			"-0.024": 0.0,
			"-0.023": 0.0,
			"-0.022": 0.0,
			"-0.021": 0.0,
			"-0.02": 0.0502371620722,
			"-0.019": 0.548644443767,
			"-0.018": 0.733168220772,
			"-0.017": 1.00204737535,
			"-0.016": 0.523140847876,
			"-0.015": 0.365385491437,
			"-0.014": 0.925253017602,
			"-0.013": 1.33124257438,
			"-0.012": 0.680053359179,
			"-0.011": 0.652943368632,
			"-0.01": 0.700361260984,
			"-0.009": 1.79766116375,
			"-0.008": 1.55761764432,
			"-0.007": 8.07142784472,
			"-0.006": 12.4455732943,
			"-0.005": 15.9690844522,
			"-0.004": 10.6477087962,
			"-0.003": 10.5143245105,
			"-0.002": 10.4294530104,
			"-0.001": 11.5336991011,
			"0.0": 13.9363503032,
			"0.001": 15.1540409185,
			"0.002": 16.4624466011,
			"0.003": 11.2113193341,
			"0.004": 6.10979798807,
			"0.005": 7.49744539105,
			"0.006": 7.16144387651,
			"0.007": 9.58425963313,
			"0.008": 7.43665374433,
			"0.009": 4.47140199395,
			"0.01": 3.48852706019,
			"0.011": 2.19051296937,
			"0.012": 2.16527216392,
			"0.013": 0.945158528062,
			"0.014": 0.0,
			"0.015": 0.0,
			"0.016": 0.0,
			"0.017": 0.0,
			"0.018": 0.0,
			"0.019": 0.0,
			"0.02": 0.0,
			"0.021": 0.0,
			"0.022": 0.0,
			"0.023": 0.0,
			"0.024": 0.0,
			"0.025": 0.0
		}
	}
}
