{
	 "smiles": "CC1(C)CC1", 
	 "Tm": 164.15, 
	 "num_atms": 15, 
	 "gaussian": { 
		 "optdone": 1, 
		 "sigma_profile": "yes", 
		 "theory": "DFT", 
		 "functional": "B3LYP", 
		 "basiset": "6-31G**", 
		 "properties": { 
			 "R2extent": 481.6392, 
			 "electric_dipole_moment_norm": 0.11023910377, 
			 "electric_quadrupole_moment_norm": 1.07821869767, 
			 "total_energy": -196.539544805, 
			 "HOMO_LUMO_gap": 0.35384, 
			 "cosmo_polarized_energy": -1.16, 
			 "cosmo_cavitation_energy": 16.82, 
			 "cosmo_dispersion_energy": -12.32, 
			 "cosmo_repulsion_energy": 1.08, 
			 "cosmo_total_nonelectrostatic_energy": 5.58, 
			 "SMD_solvation_energy": 3.02 
		},
		"coords": [
			{
				"x": -0.8625875593,
				"y": 0.8730146728,
				"z": -0.3978163015,
				"element": "C" 
			},
			{
				"x": 0.3271717185,
				"y": 0.1418673069,
				"z": 0.1997246244,
				"element": "C" 
			},
			{
				"x": -0.0296800315,
				"y": -1.1313095671,
				"z": 0.947269293,
				"element": "C" 
			},
			{
				"x": 1.4799231401,
				"y": 0.9701372212,
				"z": 0.7201896453,
				"element": "C" 
			},
			{
				"x": 1.6344190816,
				"y": 0.175799257,
				"z": -0.5590136914,
				"element": "C" 
			},
			{
				"x": -1.5772210796,
				"y": 1.1667872309,
				"z": 0.3808687204,
				"element": "H" 
			},
			{
				"x": -1.3964586578,
				"y": 0.2381645237,
				"z": -1.1156649603,
				"element": "H" 
			},
			{
				"x": -0.5515331791,
				"y": 1.7815530974,
				"z": -0.9240033537,
				"element": "H" 
			},
			{
				"x": -0.5283503427,
				"y": -1.8508369188,
				"z": 0.2862383444,
				"element": "H" 
			},
			{
				"x": 0.8613008131,
				"y": -1.6181381923,
				"z": 1.3574152037,
				"element": "H" 
			},
			{
				"x": -0.7093632352,
				"y": -0.9216060332,
				"z": 1.7823845209,
				"element": "H" 
			},
			{
				"x": 2.0067790889,
				"y": 0.621968317,
				"z": 1.6046150226,
				"element": "H" 
			},
			{
				"x": 1.4125610571,
				"y": 2.0521578303,
				"z": 0.6446971456,
				"element": "H" 
			},
			{
				"x": 2.2655950998,
				"y": -0.7086126478,
				"z": -0.5381543451,
				"element": "H" 
			},
			{
				"x": 1.6714440859,
				"y": 0.7215539018,
				"z": -1.4980498684,
				"element": "H" 
			}
		],
		 "valence_orbital": [ 
			{
				"type": "occ",
				"energy": -0.3714,
				"method": "rhf"
			},
			{
				"type": "occ",
				"energy": -0.35156,
				"method": "rhf"
			},
			{
				"type": "occ",
				"energy": -0.3342,
				"method": "rhf"
			},
			{
				"type": "occ",
				"energy": -0.27809,
				"method": "rhf"
			},
			{
				"type": "occ",
				"energy": -0.26243,
				"method": "rhf"
			},
			{
				"type": "unocc",
				"energy": 0.09141,
				"method": "rhf"
			},
			{
				"type": "unocc",
				"energy": 0.12005,
				"method": "rhf"
			},
			{
				"type": "unocc",
				"energy": 0.13596,
				"method": "rhf"
			},
			{
				"type": "unocc",
				"energy": 0.1362,
				"method": "rhf"
			},
			{
				"type": "unocc",
				"energy": 0.1538,
				"method": "rhf"
			}
		],
		"cosmo_sigma_profile": { 
			"-0.025": 0.0,
			"-0.024": 0.0,
			"-0.023": 0.0,
			"-0.022": 0.0,
			"-0.021": 0.0,
			"-0.02": 0.0,
			"-0.019": 0.0,
			"-0.018": 0.0,
			"-0.017": 0.0,
			"-0.016": 0.0,
			"-0.015": 0.0,
			"-0.014": 0.0,
			"-0.013": 0.0,
			"-0.012": 0.0,
			"-0.011": 0.0,
			"-0.01": 0.0,
			"-0.009": 0.0,
			"-0.008": 0.0,
			"-0.007": 0.0,
			"-0.006": 0.0,
			"-0.005": 0.0,
			"-0.004": 3.0249982586,
			"-0.003": 16.6608556832,
			"-0.002": 19.1890322593,
			"-0.001": 19.1032990785,
			"0.0": 18.8833456768,
			"0.001": 22.6697254422,
			"0.002": 13.8984771652,
			"0.003": 5.63156947475,
			"0.004": 5.24316282109,
			"0.005": 4.10801203327,
			"0.006": 1.42535309598,
			"0.007": 0.406433070209,
			"0.008": 0.0,
			"0.009": 0.0,
			"0.01": 0.0,
			"0.011": 0.0,
			"0.012": 0.0,
			"0.013": 0.0,
			"0.014": 0.0,
			"0.015": 0.0,
			"0.016": 0.0,
			"0.017": 0.0,
			"0.018": 0.0,
			"0.019": 0.0,
			"0.02": 0.0,
			"0.021": 0.0,
			"0.022": 0.0,
			"0.023": 0.0,
			"0.024": 0.0,
			"0.025": 0.0
		}
	}
}
