{
	 "smiles": "OC1=CC=C(CC2=CC=CC=C2)C=C1", 
	 "Tm": 356.65, 
	 "num_atms": 26, 
	 "gaussian": { 
		 "optdone": 1, 
		 "sigma_profile": "yes", 
		 "theory": "DFT", 
		 "functional": "B3LYP", 
		 "basiset": "6-31G**", 
		 "properties": { 
			 "R2extent": 3614.1225, 
			 "electric_dipole_moment_norm": 1.39081417163, 
			 "electric_quadrupole_moment_norm": 11.9944563708, 
			 "total_energy": -577.842127785, 
			 "HOMO_LUMO_gap": 0.20945, 
			 "cosmo_polarized_energy": -9.93, 
			 "cosmo_cavitation_energy": 29.89, 
			 "cosmo_dispersion_energy": -21.42, 
			 "cosmo_repulsion_energy": 1.69, 
			 "cosmo_total_nonelectrostatic_energy": 10.16, 
			 "SMD_solvation_energy": 5.14 
		},
		"coords": [
			{
				"x": -0.8065919116,
				"y": 4.0634327379,
				"z": -1.4766334375,
				"element": "O" 
			},
			{
				"x": -0.2090538448,
				"y": 2.8491447453,
				"z": -1.2786506118,
				"element": "C" 
			},
			{
				"x": 0.2242436644,
				"y": 2.0361013592,
				"z": -2.328076606,
				"element": "C" 
			},
			{
				"x": 0.8272985056,
				"y": 0.8066288988,
				"z": -2.0509258335,
				"element": "C" 
			},
			{
				"x": 1.0110403125,
				"y": 0.3640283656,
				"z": -0.738104461,
				"element": "C" 
			},
			{
				"x": 1.6880521682,
				"y": -0.9631900355,
				"z": -0.4404993465,
				"element": "C" 
			},
			{
				"x": 0.857523471,
				"y": -1.930644781,
				"z": 0.3888433211,
				"element": "C" 
			},
			{
				"x": 1.3696144728,
				"y": -2.4907893321,
				"z": 1.564859973,
				"element": "C" 
			},
			{
				"x": 0.6178138529,
				"y": -3.3982249596,
				"z": 2.3158758662,
				"element": "C" 
			},
			{
				"x": -0.6628801028,
				"y": -3.7588102975,
				"z": 1.8984066875,
				"element": "C" 
			},
			{
				"x": -1.186394389,
				"y": -3.2045414121,
				"z": 0.7268943906,
				"element": "C" 
			},
			{
				"x": -0.4336520461,
				"y": -2.2983626605,
				"z": -0.0179961382,
				"element": "C" 
			},
			{
				"x": 0.5645614399,
				"y": 1.1958338556,
				"z": 0.3017695316,
				"element": "C" 
			},
			{
				"x": -0.0361882265,
				"y": 2.4225437889,
				"z": 0.0442676953,
				"element": "C" 
			},
			{
				"x": -0.8644700735,
				"y": 4.2347281348,
				"z": -2.4254281317,
				"element": "H" 
			},
			{
				"x": 0.0917502716,
				"y": 2.3585026741,
				"z": -3.3591299457,
				"element": "H" 
			},
			{
				"x": 1.1625906719,
				"y": 0.1854582811,
				"z": -2.8780738202,
				"element": "H" 
			},
			{
				"x": 2.6374158764,
				"y": -0.7837190697,
				"z": 0.0800736304,
				"element": "H" 
			},
			{
				"x": 1.9545133519,
				"y": -1.4406721496,
				"z": -1.3922298597,
				"element": "H" 
			},
			{
				"x": 2.3685669083,
				"y": -2.2157330764,
				"z": 1.8955162706,
				"element": "H" 
			},
			{
				"x": 1.0340430121,
				"y": -3.8199730642,
				"z": 3.2266768157,
				"element": "H" 
			},
			{
				"x": -1.250517499,
				"y": -4.4632607904,
				"z": 2.4801727998,
				"element": "H" 
			},
			{
				"x": -2.1842661899,
				"y": -3.4779398553,
				"z": 0.3948161632,
				"element": "H" 
			},
			{
				"x": -0.8511307961,
				"y": -1.8622235847,
				"z": -0.9218359473,
				"element": "H" 
			},
			{
				"x": 0.6850713737,
				"y": 0.8711794094,
				"z": 1.3320888754,
				"element": "H" 
			},
			{
				"x": -0.3791542739,
				"y": 3.0633028181,
				"z": 0.8501221188,
				"element": "H" 
			}
		],
		 "valence_orbital": [ 
			{
				"type": "occ",
				"energy": -0.31998,
				"method": "rhf"
			},
			{
				"type": "occ",
				"energy": -0.24972,
				"method": "rhf"
			},
			{
				"type": "occ",
				"energy": -0.24454,
				"method": "rhf"
			},
			{
				"type": "occ",
				"energy": -0.23831,
				"method": "rhf"
			},
			{
				"type": "occ",
				"energy": -0.21264,
				"method": "rhf"
			},
			{
				"type": "unocc",
				"energy": -0.00319,
				"method": "rhf"
			},
			{
				"type": "unocc",
				"energy": 0.00149,
				"method": "rhf"
			},
			{
				"type": "unocc",
				"energy": 0.00589,
				"method": "rhf"
			},
			{
				"type": "unocc",
				"energy": 0.01868,
				"method": "rhf"
			},
			{
				"type": "unocc",
				"energy": 0.07251,
				"method": "rhf"
			}
		],
		"cosmo_sigma_profile": { 
			"-0.025": 0.0,
			"-0.024": 0.0,
			"-0.023": 0.0,
			"-0.022": 0.0,
			"-0.021": 0.0,
			"-0.02": 0.0,
			"-0.019": 0.0,
			"-0.018": 0.35563196764,
			"-0.017": 0.842112245417,
			"-0.016": 1.08214512199,
			"-0.015": 1.16084659733,
			"-0.014": 1.02433752913,
			"-0.013": 0.635109376038,
			"-0.012": 1.21956463549,
			"-0.011": 0.604338868959,
			"-0.01": 0.944564501192,
			"-0.009": 1.50156899525,
			"-0.008": 0.860583657884,
			"-0.007": 1.32878746155,
			"-0.006": 4.27190665785,
			"-0.005": 19.1428055189,
			"-0.004": 21.3392363852,
			"-0.003": 22.9835155942,
			"-0.002": 18.3113289782,
			"-0.001": 17.466201629,
			"0.0": 14.2985317514,
			"0.001": 12.8710566249,
			"0.002": 14.863854644,
			"0.003": 13.5622774113,
			"0.004": 18.1627626223,
			"0.005": 19.0173770376,
			"0.006": 18.1980788168,
			"0.007": 4.28407233947,
			"0.008": 1.66308400449,
			"0.009": 1.16714264946,
			"0.01": 1.5674011505,
			"0.011": 2.03065371864,
			"0.012": 1.13756492173,
			"0.013": 0.0,
			"0.014": 0.0,
			"0.015": 0.0,
			"0.016": 0.0,
			"0.017": 0.0,
			"0.018": 0.0,
			"0.019": 0.0,
			"0.02": 0.0,
			"0.021": 0.0,
			"0.022": 0.0,
			"0.023": 0.0,
			"0.024": 0.0,
			"0.025": 0.0
		}
	}
}
