{
	 "smiles": "CNS(=O)(=O)C1=CC=C(CCC(O)=O)C=C1", 
	 "Tm": 462.15, 
	 "num_atms": 29, 
	 "gaussian": { 
		 "optdone": 1, 
		 "sigma_profile": "yes", 
		 "theory": "DFT", 
		 "functional": "B3LYP", 
		 "basiset": "6-31G**", 
		 "properties": { 
			 "R2extent": 7241.0687, 
			 "electric_dipole_moment_norm": 6.19177295207, 
			 "electric_quadrupole_moment_norm": 38.532048835, 
			 "total_energy": -1142.67496711, 
			 "HOMO_LUMO_gap": 0.21851, 
			 "cosmo_polarized_energy": -28.73, 
			 "cosmo_cavitation_energy": 34.97, 
			 "cosmo_dispersion_energy": -25.03, 
			 "cosmo_repulsion_energy": 1.93, 
			 "cosmo_total_nonelectrostatic_energy": 11.88, 
			 "SMD_solvation_energy": 5.84 
		},
		"coords": [
			{
				"x": 0.0550434156,
				"y": -3.0553764223,
				"z": 1.9699103689,
				"element": "C" 
			},
			{
				"x": 0.9606771816,
				"y": -1.912881138,
				"z": 2.0867417998,
				"element": "N" 
			},
			{
				"x": 0.3196191889,
				"y": -0.367658525,
				"z": 2.2398447952,
				"element": "S" 
			},
			{
				"x": -0.6934088821,
				"y": -0.4475000084,
				"z": 3.2927036004,
				"element": "O" 
			},
			{
				"x": 1.4800105505,
				"y": 0.5205678948,
				"z": 2.3136453746,
				"element": "O" 
			},
			{
				"x": -0.5398608436,
				"y": -0.0027795191,
				"z": 0.7025046796,
				"element": "C" 
			},
			{
				"x": 0.1613481047,
				"y": 0.5856201312,
				"z": -0.3532917704,
				"element": "C" 
			},
			{
				"x": -0.5032712996,
				"y": 0.8464823176,
				"z": -1.5495332514,
				"element": "C" 
			},
			{
				"x": -1.8606357467,
				"y": 0.5288481128,
				"z": -1.7095422042,
				"element": "C" 
			},
			{
				"x": -2.5661219377,
				"y": 0.7907413686,
				"z": -3.0217000178,
				"element": "C" 
			},
			{
				"x": -2.4615673316,
				"y": -0.40016992,
				"z": -3.9883531674,
				"element": "C" 
			},
			{
				"x": -3.17255252,
				"y": -0.139141745,
				"z": -5.3116565357,
				"element": "C" 
			},
			{
				"x": -3.1159232469,
				"y": -1.1564779948,
				"z": -6.2134600585,
				"element": "O" 
			},
			{
				"x": -3.7557833331,
				"y": 0.8791372003,
				"z": -5.5839865674,
				"element": "O" 
			},
			{
				"x": -2.5438043286,
				"y": -0.0504530835,
				"z": -0.6309861536,
				"element": "C" 
			},
			{
				"x": -1.8947795215,
				"y": -0.3168300681,
				"z": 0.5741433914,
				"element": "C" 
			},
			{
				"x": -0.6534738347,
				"y": -3.0207204507,
				"z": 2.7988823983,
				"element": "H" 
			},
			{
				"x": 0.6466336594,
				"y": -3.9695006562,
				"z": 2.0622429834,
				"element": "H" 
			},
			{
				"x": -0.500394532,
				"y": -3.0852551627,
				"z": 1.0216407673,
				"element": "H" 
			},
			{
				"x": 1.7496395155,
				"y": -1.9075171604,
				"z": 1.4478207628,
				"element": "H" 
			},
			{
				"x": 1.2023222045,
				"y": 0.8612591921,
				"z": -0.2210325404,
				"element": "H" 
			},
			{
				"x": 0.0348385776,
				"y": 1.3212062047,
				"z": -2.3662282704,
				"element": "H" 
			},
			{
				"x": -3.6242147256,
				"y": 1.0090602062,
				"z": -2.849600829,
				"element": "H" 
			},
			{
				"x": -2.1471491851,
				"y": 1.6752610119,
				"z": -3.5106769662,
				"element": "H" 
			},
			{
				"x": -2.8891256996,
				"y": -1.3035691247,
				"z": -3.5319874923,
				"element": "H" 
			},
			{
				"x": -1.4084902836,
				"y": -0.635277893,
				"z": -4.1956000975,
				"element": "H" 
			},
			{
				"x": -2.6159084575,
				"y": -1.9018045494,
				"z": -5.8512661591,
				"element": "H" 
			},
			{
				"x": -3.6021211106,
				"y": -0.2791768729,
				"z": -0.7284464547,
				"element": "H" 
			},
			{
				"x": -2.4333455782,
				"y": -0.731693346,
				"z": 1.4191676143,
				"element": "H" 
			}
		],
		 "valence_orbital": [ 
			{
				"type": "occ",
				"energy": -0.3043,
				"method": "rhf"
			},
			{
				"type": "occ",
				"energy": -0.29007,
				"method": "rhf"
			},
			{
				"type": "occ",
				"energy": -0.28342,
				"method": "rhf"
			},
			{
				"type": "occ",
				"energy": -0.27715,
				"method": "rhf"
			},
			{
				"type": "occ",
				"energy": -0.26239,
				"method": "rhf"
			},
			{
				"type": "unocc",
				"energy": -0.04388,
				"method": "rhf"
			},
			{
				"type": "unocc",
				"energy": -0.02981,
				"method": "rhf"
			},
			{
				"type": "unocc",
				"energy": -6e-05,
				"method": "rhf"
			},
			{
				"type": "unocc",
				"energy": 0.04353,
				"method": "rhf"
			},
			{
				"type": "unocc",
				"energy": 0.05475,
				"method": "rhf"
			}
		],
		"cosmo_sigma_profile": { 
			"-0.025": 0.0,
			"-0.024": 0.0,
			"-0.023": 0.0,
			"-0.022": 0.0,
			"-0.021": 0.0,
			"-0.02": 0.0,
			"-0.019": 0.653815163728,
			"-0.018": 1.44078718605,
			"-0.017": 0.742693432358,
			"-0.016": 1.01871570712,
			"-0.015": 1.83449511613,
			"-0.014": 2.33568182388,
			"-0.013": 2.43695007464,
			"-0.012": 1.5876025193,
			"-0.011": 3.26489696431,
			"-0.01": 2.18274999401,
			"-0.009": 2.76768730639,
			"-0.008": 3.4414936062,
			"-0.007": 9.37957937106,
			"-0.006": 17.6728346881,
			"-0.005": 23.7755393645,
			"-0.004": 21.1616364693,
			"-0.003": 20.8978415248,
			"-0.002": 18.3965170709,
			"-0.001": 11.4942150105,
			"0.0": 11.6353015319,
			"0.001": 11.3529458355,
			"0.002": 13.5925938692,
			"0.003": 15.2108979899,
			"0.004": 6.21981519432,
			"0.005": 6.12127879892,
			"0.006": 6.64903361494,
			"0.007": 6.40713065967,
			"0.008": 5.70454934806,
			"0.009": 8.94123487694,
			"0.01": 11.1330561646,
			"0.011": 14.4594232041,
			"0.012": 11.0244771267,
			"0.013": 1.54938376156,
			"0.014": 0.0228659594679,
			"0.015": 0.0,
			"0.016": 0.0,
			"0.017": 0.0,
			"0.018": 0.0,
			"0.019": 0.0,
			"0.02": 0.0,
			"0.021": 0.0,
			"0.022": 0.0,
			"0.023": 0.0,
			"0.024": 0.0,
			"0.025": 0.0
		}
	}
}
