{
	 "smiles": "CC1=C(Br)C=CC(C(O)=O)=C1N", 
	 "Tm": 495.15, 
	 "num_atms": 20, 
	 "gaussian": { 
		 "optdone": 1, 
		 "sigma_profile": "yes", 
		 "theory": "DFT", 
		 "functional": "B3LYP", 
		 "basiset": "6-31G**", 
		 "properties": { 
			 "R2extent": 4618.6284, 
			 "electric_dipole_moment_norm": 3.56480159616, 
			 "electric_quadrupole_moment_norm": 9.05296580519, 
			 "total_energy": -3086.30715893, 
			 "HOMO_LUMO_gap": 0.16848, 
			 "cosmo_polarized_energy": -11.5, 
			 "cosmo_cavitation_energy": 25.62, 
			 "cosmo_dispersion_energy": -19.88, 
			 "cosmo_repulsion_energy": 1.57, 
			 "cosmo_total_nonelectrostatic_energy": 7.3, 
			 "SMD_solvation_energy": 4.33 
		},
		"coords": [
			{
				"x": -2.4228269147,
				"y": -0.027843075,
				"z": 1.9432254818,
				"element": "C" 
			},
			{
				"x": -0.9230056807,
				"y": -0.0435896809,
				"z": 1.7944152153,
				"element": "C" 
			},
			{
				"x": -0.1075033,
				"y": -1.055544895,
				"z": 2.2928511541,
				"element": "C" 
			},
			{
				"x": -0.8602125821,
				"y": -2.5661399461,
				"z": 3.2089939937,
				"element": "Br" 
			},
			{
				"x": 1.2876974057,
				"y": -1.0470120489,
				"z": 2.1679447907,
				"element": "C" 
			},
			{
				"x": 1.8788464827,
				"y": 0.0150404868,
				"z": 1.5146174474,
				"element": "C" 
			},
			{
				"x": 1.1203908893,
				"y": 1.0684857672,
				"z": 0.97400894,
				"element": "C" 
			},
			{
				"x": 1.9100847848,
				"y": 2.1120346619,
				"z": 0.2866127032,
				"element": "C" 
			},
			{
				"x": 1.1750854714,
				"y": 3.1162758523,
				"z": -0.2883737604,
				"element": "O" 
			},
			{
				"x": 3.123271798,
				"y": 2.1261161634,
				"z": 0.1985953764,
				"element": "O" 
			},
			{
				"x": -0.2964795373,
				"y": 1.0482548984,
				"z": 1.1149441423,
				"element": "C" 
			},
			{
				"x": -1.0970948135,
				"y": 2.0635249423,
				"z": 0.6570392251,
				"element": "N" 
			},
			{
				"x": -2.9254601745,
				"y": -0.0791330361,
				"z": 0.9669631281,
				"element": "H" 
			},
			{
				"x": -2.7742130957,
				"y": -0.8732248705,
				"z": 2.5321388056,
				"element": "H" 
			},
			{
				"x": -2.7575134833,
				"y": 0.8922455902,
				"z": 2.438236443,
				"element": "H" 
			},
			{
				"x": 1.8785217472,
				"y": -1.8567838387,
				"z": 2.5763469962,
				"element": "H" 
			},
			{
				"x": 2.9553374454,
				"y": 0.0609002711,
				"z": 1.3940949656,
				"element": "H" 
			},
			{
				"x": 1.8288288878,
				"y": 3.7080885326,
				"z": -0.6959567515,
				"element": "H" 
			},
			{
				"x": -0.6828118262,
				"y": 2.7576869422,
				"z": 0.054995151,
				"element": "H" 
			},
			{
				"x": -2.0810435045,
				"y": 1.8868172827,
				"z": 0.5488065525,
				"element": "H" 
			}
		],
		 "valence_orbital": [ 
			{
				"type": "occ",
				"energy": -0.29516,
				"method": "rhf"
			},
			{
				"type": "occ",
				"energy": -0.28652,
				"method": "rhf"
			},
			{
				"type": "occ",
				"energy": -0.28012,
				"method": "rhf"
			},
			{
				"type": "occ",
				"energy": -0.24508,
				"method": "rhf"
			},
			{
				"type": "occ",
				"energy": -0.2145,
				"method": "rhf"
			},
			{
				"type": "unocc",
				"energy": -0.04602,
				"method": "rhf"
			},
			{
				"type": "unocc",
				"energy": 0.00153,
				"method": "rhf"
			},
			{
				"type": "unocc",
				"energy": 0.0066,
				"method": "rhf"
			},
			{
				"type": "unocc",
				"energy": 0.05269,
				"method": "rhf"
			},
			{
				"type": "unocc",
				"energy": 0.06971,
				"method": "rhf"
			}
		],
		"cosmo_sigma_profile": { 
			"-0.025": 0.0,
			"-0.024": 0.0,
			"-0.023": 0.0,
			"-0.022": 0.0,
			"-0.021": 0.0,
			"-0.02": 0.0,
			"-0.019": 0.0,
			"-0.018": 0.801913139531,
			"-0.017": 0.872373466175,
			"-0.016": 0.698386317499,
			"-0.015": 0.968962556645,
			"-0.014": 0.516048971155,
			"-0.013": 1.11329996556,
			"-0.012": 1.72751547478,
			"-0.011": 2.40795807418,
			"-0.01": 2.76333300013,
			"-0.009": 2.30804669849,
			"-0.008": 2.5120339088,
			"-0.007": 3.91811787889,
			"-0.006": 6.47997045511,
			"-0.005": 7.86137514553,
			"-0.004": 9.09551692407,
			"-0.003": 10.6137310034,
			"-0.002": 12.9341461283,
			"-0.001": 17.2696584369,
			"0.0": 18.2608735296,
			"0.001": 18.024217411,
			"0.002": 23.1585066603,
			"0.003": 20.5258141514,
			"0.004": 17.3181754042,
			"0.005": 6.91456549287,
			"0.006": 1.67349629714,
			"0.007": 2.29399284787,
			"0.008": 2.10847836815,
			"0.009": 2.31167383873,
			"0.01": 1.5189741893,
			"0.011": 3.47831870133,
			"0.012": 4.70720478198,
			"0.013": 0.233507207071,
			"0.014": 0.0,
			"0.015": 0.0,
			"0.016": 0.0,
			"0.017": 0.0,
			"0.018": 0.0,
			"0.019": 0.0,
			"0.02": 0.0,
			"0.021": 0.0,
			"0.022": 0.0,
			"0.023": 0.0,
			"0.024": 0.0,
			"0.025": 0.0
		}
	}
}
