{
	 "smiles": "FC1=C(NC(=O)NC2=C3CCNCC3=CC=C2)C=CC=C1", 
	 "Tm": 431.15, 
	 "num_atms": 37, 
	 "gaussian": { 
		 "optdone": 1, 
		 "sigma_profile": "yes", 
		 "theory": "DFT", 
		 "functional": "B3LYP", 
		 "basiset": "6-31G**", 
		 "properties": { 
			 "R2extent": 8524.3817, 
			 "electric_dipole_moment_norm": 4.05784046631, 
			 "electric_quadrupole_moment_norm": 8.26608169207, 
			 "total_energy": -958.676670924, 
			 "HOMO_LUMO_gap": 0.20159, 
			 "cosmo_polarized_energy": -22.22, 
			 "cosmo_cavitation_energy": 40.18, 
			 "cosmo_dispersion_energy": -28.9, 
			 "cosmo_repulsion_energy": 2.2, 
			 "cosmo_total_nonelectrostatic_energy": 13.48, 
			 "SMD_solvation_energy": 4.49 
		},
		"coords": [
			{
				"x": 0.642699592,
				"y": -2.577355607,
				"z": -1.6377730504,
				"element": "F" 
			},
			{
				"x": 1.4693853993,
				"y": -2.9418664996,
				"z": -0.642673452,
				"element": "C" 
			},
			{
				"x": 2.3796789722,
				"y": -2.0058682718,
				"z": -0.1342350835,
				"element": "C" 
			},
			{
				"x": 2.4349821925,
				"y": -0.6956280129,
				"z": -0.6577360928,
				"element": "N" 
			},
			{
				"x": 1.3148032352,
				"y": 0.1494775973,
				"z": -0.6641267836,
				"element": "C" 
			},
			{
				"x": 0.2254479816,
				"y": -0.1670583134,
				"z": -0.228061405,
				"element": "O" 
			},
			{
				"x": 1.6239594849,
				"y": 1.3907433559,
				"z": -1.2191507759,
				"element": "N" 
			},
			{
				"x": 0.6536353201,
				"y": 2.4154052268,
				"z": -1.4263663878,
				"element": "C" 
			},
			{
				"x": -0.0038988709,
				"y": 3.0247242323,
				"z": -0.3379348221,
				"element": "C" 
			},
			{
				"x": 0.2716998576,
				"y": 2.6029861691,
				"z": 1.0889507621,
				"element": "C" 
			},
			{
				"x": -0.1930138399,
				"y": 3.6570225519,
				"z": 2.0948121955,
				"element": "C" 
			},
			{
				"x": -1.5695136843,
				"y": 4.0259431526,
				"z": 1.7722277503,
				"element": "N" 
			},
			{
				"x": -1.635606211,
				"y": 4.775077423,
				"z": 0.5231216288,
				"element": "C" 
			},
			{
				"x": -0.9181988518,
				"y": 4.0580734753,
				"z": -0.6075845376,
				"element": "C" 
			},
			{
				"x": -1.1361016234,
				"y": 4.4869922728,
				"z": -1.9217505807,
				"element": "C" 
			},
			{
				"x": -0.4590107492,
				"y": 3.8957810285,
				"z": -2.9834881573,
				"element": "C" 
			},
			{
				"x": 0.4306099824,
				"y": 2.8532565229,
				"z": -2.7346441786,
				"element": "C" 
			},
			{
				"x": 3.2708009456,
				"y": -2.4303657145,
				"z": 0.8575883977,
				"element": "C" 
			},
			{
				"x": 3.2478856619,
				"y": -3.743293232,
				"z": 1.3290049585,
				"element": "C" 
			},
			{
				"x": 2.312225009,
				"y": -4.6485764504,
				"z": 0.8271614843,
				"element": "C" 
			},
			{
				"x": 1.4154165731,
				"y": -4.2432828536,
				"z": -0.1629994459,
				"element": "C" 
			},
			{
				"x": 3.3327683805,
				"y": -0.2372033234,
				"z": -0.5828433415,
				"element": "H" 
			},
			{
				"x": 2.3610098232,
				"y": 1.3695083208,
				"z": -1.9117124878,
				"element": "H" 
			},
			{
				"x": 1.3442491081,
				"y": 2.4074121607,
				"z": 1.2127700474,
				"element": "H" 
			},
			{
				"x": -0.2440631938,
				"y": 1.6574112733,
				"z": 1.2847526237,
				"element": "H" 
			},
			{
				"x": 0.4977284155,
				"y": 4.5235786053,
				"z": 2.0771055863,
				"element": "H" 
			},
			{
				"x": -0.1654894776,
				"y": 3.2410212534,
				"z": 3.1071529278,
				"element": "H" 
			},
			{
				"x": -1.9749721575,
				"y": 4.5792953454,
				"z": 2.5210740135,
				"element": "H" 
			},
			{
				"x": -1.1957262924,
				"y": 5.790286875,
				"z": 0.6103039352,
				"element": "H" 
			},
			{
				"x": -2.6886291053,
				"y": 4.915726711,
				"z": 0.2502445969,
				"element": "H" 
			},
			{
				"x": -1.8414584426,
				"y": 5.2934105092,
				"z": -2.1088234135,
				"element": "H" 
			},
			{
				"x": -0.6329870893,
				"y": 4.2303056951,
				"z": -4.0018903218,
				"element": "H" 
			},
			{
				"x": 0.9469304979,
				"y": 2.3633007595,
				"z": -3.5564333749,
				"element": "H" 
			},
			{
				"x": 3.9816179599,
				"y": -1.7152358808,
				"z": 1.263926933,
				"element": "H" 
			},
			{
				"x": 3.9508970002,
				"y": -4.0505221183,
				"z": 2.096849917,
				"element": "H" 
			},
			{
				"x": 2.2791743086,
				"y": -5.6678616956,
				"z": 1.1988137325,
				"element": "H" 
			},
			{
				"x": 0.6838638878,
				"y": -4.9228225439,
				"z": -0.586833798,
				"element": "H" 
			}
		],
		 "valence_orbital": [ 
			{
				"type": "occ",
				"energy": -0.248,
				"method": "rhf"
			},
			{
				"type": "occ",
				"energy": -0.23275,
				"method": "rhf"
			},
			{
				"type": "occ",
				"energy": -0.22957,
				"method": "rhf"
			},
			{
				"type": "occ",
				"energy": -0.22133,
				"method": "rhf"
			},
			{
				"type": "occ",
				"energy": -0.21192,
				"method": "rhf"
			},
			{
				"type": "unocc",
				"energy": -0.01033,
				"method": "rhf"
			},
			{
				"type": "unocc",
				"energy": -0.00066,
				"method": "rhf"
			},
			{
				"type": "unocc",
				"energy": 0.00377,
				"method": "rhf"
			},
			{
				"type": "unocc",
				"energy": 0.00812,
				"method": "rhf"
			},
			{
				"type": "unocc",
				"energy": 0.05217,
				"method": "rhf"
			}
		],
		"cosmo_sigma_profile": { 
			"-0.025": 0.0,
			"-0.024": 0.0,
			"-0.023": 0.0,
			"-0.022": 0.0,
			"-0.021": 0.0,
			"-0.02": 0.0,
			"-0.019": 0.0,
			"-0.018": 0.0,
			"-0.017": 0.0,
			"-0.016": 0.0737436134714,
			"-0.015": 2.06013814268,
			"-0.014": 3.21384825942,
			"-0.013": 2.3915062189,
			"-0.012": 2.46807748764,
			"-0.011": 2.3234952273,
			"-0.01": 3.3009864072,
			"-0.009": 3.86462069178,
			"-0.008": 3.75685390929,
			"-0.007": 6.30328541001,
			"-0.006": 12.1907977496,
			"-0.005": 17.4797717882,
			"-0.004": 21.4059241836,
			"-0.003": 23.3364785603,
			"-0.002": 26.3922714775,
			"-0.001": 26.5980956753,
			"0.0": 18.6073907019,
			"0.001": 18.112524327,
			"0.002": 16.9369471319,
			"0.003": 20.0503813489,
			"0.004": 25.2977632698,
			"0.005": 21.6579067059,
			"0.006": 11.9141182063,
			"0.007": 5.02965062653,
			"0.008": 2.7472677614,
			"0.009": 2.96302911672,
			"0.01": 3.23693533216,
			"0.011": 3.65545386155,
			"0.012": 3.03618781015,
			"0.013": 4.53926518028,
			"0.014": 1.81880702441,
			"0.015": 0.442246723814,
			"0.016": 0.201755769829,
			"0.017": 0.783617193652,
			"0.018": 0.302918716551,
			"0.019": 0.0,
			"0.02": 0.0,
			"0.021": 0.0,
			"0.022": 0.0,
			"0.023": 0.0,
			"0.024": 0.0,
			"0.025": 0.0
		}
	}
}
