{
	 "smiles": "CC1=C(SC(CC2=NC=CC=C2)=N1)C(O)=O", 
	 "Tm": 463.15, 
	 "num_atms": 26, 
	 "gaussian": { 
		 "optdone": 1, 
		 "sigma_profile": "yes", 
		 "theory": "DFT", 
		 "functional": "B3LYP", 
		 "basiset": "6-31G**", 
		 "properties": { 
			 "R2extent": 4843.2937, 
			 "electric_dipole_moment_norm": 5.6881642188, 
			 "electric_quadrupole_moment_norm": 16.8066566288, 
			 "total_energy": -1083.34078093, 
			 "HOMO_LUMO_gap": 0.18651, 
			 "cosmo_polarized_energy": -17.49, 
			 "cosmo_cavitation_energy": 32.61, 
			 "cosmo_dispersion_energy": -23.73, 
			 "cosmo_repulsion_energy": 1.81, 
			 "cosmo_total_nonelectrostatic_energy": 10.7, 
			 "SMD_solvation_energy": 3.54 
		},
		"coords": [
			{
				"x": -1.218268497,
				"y": 2.5321372018,
				"z": -2.1386550368,
				"element": "C" 
			},
			{
				"x": -1.0937521388,
				"y": 1.2898345505,
				"z": -1.2955319265,
				"element": "C" 
			},
			{
				"x": -1.1678003084,
				"y": -0.0252536504,
				"z": -1.7184000526,
				"element": "C" 
			},
			{
				"x": -1.0086701887,
				"y": -1.0922916289,
				"z": -0.3486516739,
				"element": "S" 
			},
			{
				"x": -0.8339198027,
				"y": 0.3020631912,
				"z": 0.6782875959,
				"element": "C" 
			},
			{
				"x": -0.578387174,
				"y": 0.1811229372,
				"z": 2.1562256906,
				"element": "C" 
			},
			{
				"x": 0.9066075867,
				"y": 0.1571140737,
				"z": 2.5003372799,
				"element": "C" 
			},
			{
				"x": 1.3582726638,
				"y": -0.9559056221,
				"z": 3.0929047585,
				"element": "N" 
			},
			{
				"x": 2.6573696573,
				"y": -1.0084036637,
				"z": 3.4181660646,
				"element": "C" 
			},
			{
				"x": 3.5573475645,
				"y": 0.0273765318,
				"z": 3.1732143368,
				"element": "C" 
			},
			{
				"x": 3.079093349,
				"y": 1.1824404445,
				"z": 2.5524953599,
				"element": "C" 
			},
			{
				"x": 1.7321269879,
				"y": 1.2510120408,
				"z": 2.2079868879,
				"element": "C" 
			},
			{
				"x": -0.9034844695,
				"y": 1.4538188704,
				"z": 0.0549037822,
				"element": "N" 
			},
			{
				"x": -1.3980785477,
				"y": -0.64344201,
				"z": -3.0421544868,
				"element": "C" 
			},
			{
				"x": -1.3303947779,
				"y": 0.1690195514,
				"z": -4.1306684397,
				"element": "O" 
			},
			{
				"x": -1.6389546476,
				"y": -1.8213604234,
				"z": -3.1803949099,
				"element": "O" 
			},
			{
				"x": -0.2991291155,
				"y": 2.7388127849,
				"z": -2.704234754,
				"element": "H" 
			},
			{
				"x": -2.05601916,
				"y": 2.4741340163,
				"z": -2.8414754249,
				"element": "H" 
			},
			{
				"x": -1.3858807587,
				"y": 3.3874829741,
				"z": -1.4822281277,
				"element": "H" 
			},
			{
				"x": -1.0238109181,
				"y": -0.7325045844,
				"z": 2.5553159717,
				"element": "H" 
			},
			{
				"x": -1.0589498002,
				"y": 1.0403323025,
				"z": 2.6362995627,
				"element": "H" 
			},
			{
				"x": 2.9904130457,
				"y": -1.926903425,
				"z": 3.898113129,
				"element": "H" 
			},
			{
				"x": 4.5996125882,
				"y": -0.0706701824,
				"z": 3.45951369,
				"element": "H" 
			},
			{
				"x": 3.7445002348,
				"y": 2.014765749,
				"z": 2.3413039384,
				"element": "H" 
			},
			{
				"x": 1.316460669,
				"y": 2.1242775559,
				"z": 1.7152569906,
				"element": "H" 
			},
			{
				"x": -1.0124040419,
				"y": 1.0491904144,
				"z": -3.8902302058,
				"element": "H" 
			}
		],
		 "valence_orbital": [ 
			{
				"type": "occ",
				"energy": -0.2901,
				"method": "rhf"
			},
			{
				"type": "occ",
				"energy": -0.27021,
				"method": "rhf"
			},
			{
				"type": "occ",
				"energy": -0.26705,
				"method": "rhf"
			},
			{
				"type": "occ",
				"energy": -0.26294,
				"method": "rhf"
			},
			{
				"type": "occ",
				"energy": -0.25188,
				"method": "rhf"
			},
			{
				"type": "unocc",
				"energy": -0.06537,
				"method": "rhf"
			},
			{
				"type": "unocc",
				"energy": -0.02952,
				"method": "rhf"
			},
			{
				"type": "unocc",
				"energy": -0.02195,
				"method": "rhf"
			},
			{
				"type": "unocc",
				"energy": 0.00687,
				"method": "rhf"
			},
			{
				"type": "unocc",
				"energy": 0.01266,
				"method": "rhf"
			}
		],
		"cosmo_sigma_profile": { 
			"-0.025": 0.0,
			"-0.024": 0.0,
			"-0.023": 0.0,
			"-0.022": 0.0,
			"-0.021": 0.0,
			"-0.02": 0.0,
			"-0.019": 0.0,
			"-0.018": 0.0,
			"-0.017": 0.0129298513549,
			"-0.016": 0.840480681242,
			"-0.015": 1.4330953558,
			"-0.014": 0.735307775292,
			"-0.013": 0.988220450243,
			"-0.012": 1.63663839927,
			"-0.011": 1.30946015767,
			"-0.01": 0.76280222878,
			"-0.009": 1.36332073721,
			"-0.008": 2.81318169385,
			"-0.007": 9.66965500961,
			"-0.006": 16.219791799,
			"-0.005": 18.4852566968,
			"-0.004": 17.180151747,
			"-0.003": 19.1016551769,
			"-0.002": 19.1696726112,
			"-0.001": 18.6197059174,
			"0.0": 19.192028118,
			"0.001": 22.1690571892,
			"0.002": 21.6644038191,
			"0.003": 15.4355083502,
			"0.004": 7.34538041084,
			"0.005": 5.1503315585,
			"0.006": 4.9032864288,
			"0.007": 4.41182456693,
			"0.008": 4.94255207506,
			"0.009": 4.51085930247,
			"0.01": 7.12173696167,
			"0.011": 6.92022129516,
			"0.012": 5.01029687271,
			"0.013": 2.76141432614,
			"0.014": 0.467666644207,
			"0.015": 0.615059493757,
			"0.016": 0.328227673659,
			"0.017": 0.0,
			"0.018": 0.0,
			"0.019": 0.0,
			"0.02": 0.0,
			"0.021": 0.0,
			"0.022": 0.0,
			"0.023": 0.0,
			"0.024": 0.0,
			"0.025": 0.0
		}
	}
}
