{
	 "smiles": "NC1=NC(C2CC2)=C(S1)C(O)=O", 
	 "Tm": 373.15, 
	 "num_atms": 20, 
	 "gaussian": { 
		 "optdone": 1, 
		 "sigma_profile": "yes", 
		 "theory": "DFT", 
		 "functional": "B3LYP", 
		 "basiset": "6-31G**", 
		 "properties": { 
			 "R2extent": 3101.2922, 
			 "electric_dipole_moment_norm": 2.91568602048, 
			 "electric_quadrupole_moment_norm": 21.4336007808, 
			 "total_energy": -929.694340972, 
			 "HOMO_LUMO_gap": 0.17339, 
			 "cosmo_polarized_energy": -15.56, 
			 "cosmo_cavitation_energy": 25.89, 
			 "cosmo_dispersion_energy": -19.7, 
			 "cosmo_repulsion_energy": 1.56, 
			 "cosmo_total_nonelectrostatic_energy": 7.75, 
			 "SMD_solvation_energy": 4.08 
		},
		"coords": [
			{
				"x": 3.6958777967,
				"y": -0.9131206318,
				"z": -0.5982516309,
				"element": "N" 
			},
			{
				"x": 2.6485754062,
				"y": -0.0654369483,
				"z": -0.3810718005,
				"element": "C" 
			},
			{
				"x": 1.5462348511,
				"y": -0.4450429754,
				"z": 0.2190910716,
				"element": "N" 
			},
			{
				"x": 0.6713984665,
				"y": 0.6049991092,
				"z": 0.3661784908,
				"element": "C" 
			},
			{
				"x": -0.6224809433,
				"y": 0.3420051867,
				"z": 1.0282480649,
				"element": "C" 
			},
			{
				"x": -1.2906167764,
				"y": -1.0117170193,
				"z": 0.8340486487,
				"element": "C" 
			},
			{
				"x": -0.6794433778,
				"y": -0.676897387,
				"z": 2.1577271506,
				"element": "C" 
			},
			{
				"x": 1.1122011616,
				"y": 1.8169703858,
				"z": -0.1399630276,
				"element": "C" 
			},
			{
				"x": 2.7271610141,
				"y": 1.6275486425,
				"z": -0.8303410491,
				"element": "S" 
			},
			{
				"x": 0.53496464,
				"y": 3.1487697038,
				"z": -0.2153428586,
				"element": "C" 
			},
			{
				"x": -0.7089885057,
				"y": 3.2578801173,
				"z": 0.3286607313,
				"element": "O" 
			},
			{
				"x": 1.0950995517,
				"y": 4.1088319505,
				"z": -0.7204182154,
				"element": "O" 
			},
			{
				"x": 4.363260572,
				"y": -0.6899980544,
				"z": -1.3201086149,
				"element": "H" 
			},
			{
				"x": 3.4815925412,
				"y": -1.8929733274,
				"z": -0.4777437968,
				"element": "H" 
			},
			{
				"x": -1.273147113,
				"y": 1.2014780147,
				"z": 1.1110759869,
				"element": "H" 
			},
			{
				"x": -2.3721938767,
				"y": -1.016359196,
				"z": 0.7387248733,
				"element": "H" 
			},
			{
				"x": -0.7669288727,
				"y": -1.7260005862,
				"z": 0.2079406202,
				"element": "H" 
			},
			{
				"x": -1.3302535785,
				"y": -0.4453550996,
				"z": 2.995380782,
				"element": "H" 
			},
			{
				"x": 0.25318668,
				"y": -1.1666372925,
				"z": 2.4161833254,
				"element": "H" 
			},
			{
				"x": -0.9552996368,
				"y": 4.1891554076,
				"z": 0.2036812483,
				"element": "H" 
			}
		],
		 "valence_orbital": [ 
			{
				"type": "occ",
				"energy": -0.29439,
				"method": "rhf"
			},
			{
				"type": "occ",
				"energy": -0.29172,
				"method": "rhf"
			},
			{
				"type": "occ",
				"energy": -0.26709,
				"method": "rhf"
			},
			{
				"type": "occ",
				"energy": -0.26251,
				"method": "rhf"
			},
			{
				"type": "occ",
				"energy": -0.2141,
				"method": "rhf"
			},
			{
				"type": "unocc",
				"energy": -0.04071,
				"method": "rhf"
			},
			{
				"type": "unocc",
				"energy": 0.00738,
				"method": "rhf"
			},
			{
				"type": "unocc",
				"energy": 0.02933,
				"method": "rhf"
			},
			{
				"type": "unocc",
				"energy": 0.0675,
				"method": "rhf"
			},
			{
				"type": "unocc",
				"energy": 0.08278,
				"method": "rhf"
			}
		],
		"cosmo_sigma_profile": { 
			"-0.025": 0.0,
			"-0.024": 0.0,
			"-0.023": 0.0,
			"-0.022": 0.0,
			"-0.021": 0.0,
			"-0.02": 0.0,
			"-0.019": 0.0215174689233,
			"-0.018": 0.535646599569,
			"-0.017": 0.781761748482,
			"-0.016": 1.22343127912,
			"-0.015": 3.02098077045,
			"-0.014": 3.34520856857,
			"-0.013": 2.41822006646,
			"-0.012": 3.49138990811,
			"-0.011": 3.12292830558,
			"-0.01": 2.94206908746,
			"-0.009": 2.41075818783,
			"-0.008": 2.71974102576,
			"-0.007": 2.16271732408,
			"-0.006": 3.01241260018,
			"-0.005": 6.52593209589,
			"-0.004": 9.90242061622,
			"-0.003": 9.83720324465,
			"-0.002": 9.94871687574,
			"-0.001": 12.9058821615,
			"0.0": 16.0764749098,
			"0.001": 17.3736277239,
			"0.002": 22.9426205287,
			"0.003": 20.0504544329,
			"0.004": 13.8186843921,
			"0.005": 8.4488088831,
			"0.006": 6.00465373899,
			"0.007": 4.34174313807,
			"0.008": 3.23765490063,
			"0.009": 2.75391530383,
			"0.01": 2.62661531714,
			"0.011": 2.75547169658,
			"0.012": 5.47788519938,
			"0.013": 1.65452280237,
			"0.014": 0.0,
			"0.015": 0.0,
			"0.016": 0.0,
			"0.017": 0.0,
			"0.018": 0.0,
			"0.019": 0.0,
			"0.02": 0.0,
			"0.021": 0.0,
			"0.022": 0.0,
			"0.023": 0.0,
			"0.024": 0.0,
			"0.025": 0.0
		}
	}
}
