{
	 "smiles": "NC(=O)C1=CC=C(CC(=O)C2=CC=C(Cl)C=C2)C=C1", 
	 "Tm": 495.15, 
	 "num_atms": 31, 
	 "gaussian": { 
		 "optdone": 1, 
		 "sigma_profile": "yes", 
		 "theory": "DFT", 
		 "functional": "B3LYP", 
		 "basiset": "6-31G**", 
		 "properties": { 
			 "R2extent": 8423.24, 
			 "electric_dipole_moment_norm": 1.6713927396, 
			 "electric_quadrupole_moment_norm": 24.4804600627, 
			 "total_energy": -1244.24532335, 
			 "HOMO_LUMO_gap": 0.17461, 
			 "cosmo_polarized_energy": -18.37, 
			 "cosmo_cavitation_energy": 37.99, 
			 "cosmo_dispersion_energy": -26.99, 
			 "cosmo_repulsion_energy": 2.08, 
			 "cosmo_total_nonelectrostatic_energy": 13.08, 
			 "SMD_solvation_energy": 7.13 
		},
		"coords": [
			{
				"x": 1.9954824293,
				"y": -4.0785938858,
				"z": -2.1075009576,
				"element": "N" 
			},
			{
				"x": 0.9869897567,
				"y": -3.9597350743,
				"z": -1.1805431941,
				"element": "C" 
			},
			{
				"x": 0.1891544198,
				"y": -4.8667500846,
				"z": -0.9764017497,
				"element": "O" 
			},
			{
				"x": 0.9330875508,
				"y": -2.6678151753,
				"z": -0.4153321213,
				"element": "C" 
			},
			{
				"x": -0.2499486434,
				"y": -2.3761218974,
				"z": 0.2734416992,
				"element": "C" 
			},
			{
				"x": -0.3717861039,
				"y": -1.1938773382,
				"z": 0.9983549966,
				"element": "C" 
			},
			{
				"x": 0.6890010672,
				"y": -0.2808335467,
				"z": 1.0669483917,
				"element": "C" 
			},
			{
				"x": 0.5701731184,
				"y": 1.0025272085,
				"z": 1.8746766124,
				"element": "C" 
			},
			{
				"x": 0.9537429618,
				"y": 2.2392686012,
				"z": 1.0558376259,
				"element": "C" 
			},
			{
				"x": 2.0920220773,
				"y": 2.6803065858,
				"z": 1.1285634777,
				"element": "O" 
			},
			{
				"x": -0.0561082821,
				"y": 2.8833157992,
				"z": 0.1583389766,
				"element": "C" 
			},
			{
				"x": -1.341685056,
				"y": 2.3632776876,
				"z": -0.0527312312,
				"element": "C" 
			},
			{
				"x": -2.2398966952,
				"y": 3.0050618391,
				"z": -0.9032023642,
				"element": "C" 
			},
			{
				"x": -1.8467687964,
				"y": 4.1814200918,
				"z": -1.5416395713,
				"element": "C" 
			},
			{
				"x": -2.9738857177,
				"y": 4.9985158261,
				"z": -2.6074518532,
				"element": "Cl" 
			},
			{
				"x": -0.5717080325,
				"y": 4.720298756,
				"z": -1.3496065874,
				"element": "C" 
			},
			{
				"x": 0.3151661516,
				"y": 4.0649771604,
				"z": -0.5041514777,
				"element": "C" 
			},
			{
				"x": 1.8811243406,
				"y": -0.5844997263,
				"z": 0.3940406367,
				"element": "C" 
			},
			{
				"x": 2.0019581096,
				"y": -1.7633243119,
				"z": -0.3378990669,
				"element": "C" 
			},
			{
				"x": 2.4235935473,
				"y": -3.2579893262,
				"z": -2.5064636156,
				"element": "H" 
			},
			{
				"x": 1.9461210815,
				"y": -4.8989972033,
				"z": -2.6943498672,
				"element": "H" 
			},
			{
				"x": -1.0610713783,
				"y": -3.0949142788,
				"z": 0.2272513071,
				"element": "H" 
			},
			{
				"x": -1.2974219229,
				"y": -0.9832794198,
				"z": 1.528850935,
				"element": "H" 
			},
			{
				"x": -0.4409352115,
				"y": 1.0962944054,
				"z": 2.2813086696,
				"element": "H" 
			},
			{
				"x": 1.2689639524,
				"y": 0.9776479358,
				"z": 2.7165994484,
				"element": "H" 
			},
			{
				"x": -1.6500087045,
				"y": 1.4424500058,
				"z": 0.4293037203,
				"element": "H" 
			},
			{
				"x": -3.2316301733,
				"y": 2.6006994232,
				"z": -1.071426531,
				"element": "H" 
			},
			{
				"x": -0.2870869472,
				"y": 5.635259518,
				"z": -1.8571423605,
				"element": "H" 
			},
			{
				"x": 1.3136058752,
				"y": 4.4545497272,
				"z": -0.3368696988,
				"element": "H" 
			},
			{
				"x": 2.7173523836,
				"y": 0.1060424516,
				"z": 0.4535473484,
				"element": "H" 
			},
			{
				"x": 2.9493028419,
				"y": -1.9883817541,
				"z": -0.8192515982,
				"element": "H" 
			}
		],
		 "valence_orbital": [ 
			{
				"type": "occ",
				"energy": -0.27059,
				"method": "rhf"
			},
			{
				"type": "occ",
				"energy": -0.26419,
				"method": "rhf"
			},
			{
				"type": "occ",
				"energy": -0.26012,
				"method": "rhf"
			},
			{
				"type": "occ",
				"energy": -0.25425,
				"method": "rhf"
			},
			{
				"type": "occ",
				"energy": -0.24688,
				"method": "rhf"
			},
			{
				"type": "unocc",
				"energy": -0.07227,
				"method": "rhf"
			},
			{
				"type": "unocc",
				"energy": -0.0411,
				"method": "rhf"
			},
			{
				"type": "unocc",
				"energy": -0.0264,
				"method": "rhf"
			},
			{
				"type": "unocc",
				"energy": -0.017,
				"method": "rhf"
			},
			{
				"type": "unocc",
				"energy": 0.01923,
				"method": "rhf"
			}
		],
		"cosmo_sigma_profile": { 
			"-0.025": 0.0,
			"-0.024": 0.0,
			"-0.023": 0.0,
			"-0.022": 0.0,
			"-0.021": 0.0,
			"-0.02": 0.0,
			"-0.019": 0.0,
			"-0.018": 0.0,
			"-0.017": 0.0,
			"-0.016": 0.0,
			"-0.015": 0.098977969547,
			"-0.014": 1.53083573546,
			"-0.013": 2.44003067133,
			"-0.012": 2.66340513324,
			"-0.011": 2.14746739078,
			"-0.01": 2.47052485364,
			"-0.009": 3.77991561343,
			"-0.008": 6.23487983728,
			"-0.007": 10.3114119595,
			"-0.006": 15.8136788333,
			"-0.005": 17.8360356022,
			"-0.004": 17.7531593035,
			"-0.003": 15.1807640717,
			"-0.002": 17.2888430048,
			"-0.001": 19.0372113294,
			"0.0": 25.8684154873,
			"0.001": 28.8441750288,
			"0.002": 30.8458405202,
			"0.003": 21.552155394,
			"0.004": 24.1421663715,
			"0.005": 5.07811201344,
			"0.006": 3.62982027924,
			"0.007": 3.73794730716,
			"0.008": 3.14223649376,
			"0.009": 3.16544890258,
			"0.01": 3.40284600037,
			"0.011": 5.01557003597,
			"0.012": 4.47780566185,
			"0.013": 4.5543185049,
			"0.014": 4.12217806988,
			"0.015": 0.245524137931,
			"0.016": 0.0,
			"0.017": 0.0,
			"0.018": 0.0,
			"0.019": 0.0,
			"0.02": 0.0,
			"0.021": 0.0,
			"0.022": 0.0,
			"0.023": 0.0,
			"0.024": 0.0,
			"0.025": 0.0
		}
	}
}
