{
	 "smiles": "OC(=O)CCC1=NC2=C(N1)C=CC=C2F", 
	 "Tm": 459.15, 
	 "num_atms": 24, 
	 "gaussian": { 
		 "optdone": 1, 
		 "sigma_profile": "yes", 
		 "theory": "DFT", 
		 "functional": "B3LYP", 
		 "basiset": "6-31G**", 
		 "properties": { 
			 "R2extent": 4671.7128, 
			 "electric_dipole_moment_norm": 5.14848400308, 
			 "electric_quadrupole_moment_norm": 9.71489153516, 
			 "total_energy": -746.311484354, 
			 "HOMO_LUMO_gap": 0.19551, 
			 "cosmo_polarized_energy": -15.76, 
			 "cosmo_cavitation_energy": 29.0, 
			 "cosmo_dispersion_energy": -21.34, 
			 "cosmo_repulsion_energy": 1.66, 
			 "cosmo_total_nonelectrostatic_energy": 9.32, 
			 "SMD_solvation_energy": 3.96 
		},
		"coords": [
			{
				"x": -1.6260270445,
				"y": -2.6035265328,
				"z": 1.3499516667,
				"element": "O" 
			},
			{
				"x": -0.5530381342,
				"y": -1.7897195121,
				"z": 1.3192830833,
				"element": "C" 
			},
			{
				"x": -0.2358189607,
				"y": -1.1062884386,
				"z": 2.2762335562,
				"element": "O" 
			},
			{
				"x": 0.1596032376,
				"y": -1.8578118788,
				"z": -0.0136137452,
				"element": "C" 
			},
			{
				"x": 1.5195526122,
				"y": -1.1370785108,
				"z": -0.0505820774,
				"element": "C" 
			},
			{
				"x": 1.4505002544,
				"y": 0.3604367293,
				"z": -0.0964852043,
				"element": "C" 
			},
			{
				"x": 1.8172258879,
				"y": 1.0891313033,
				"z": -1.1273772562,
				"element": "N" 
			},
			{
				"x": 1.5940045126,
				"y": 2.396179284,
				"z": -0.7270468184,
				"element": "C" 
			},
			{
				"x": 1.0747483074,
				"y": 2.4410105618,
				"z": 0.5908228008,
				"element": "C" 
			},
			{
				"x": 1.0016151831,
				"y": 1.1137787637,
				"z": 0.9662694318,
				"element": "N" 
			},
			{
				"x": 0.7535320129,
				"y": 3.6346338881,
				"z": 1.2453052908,
				"element": "C" 
			},
			{
				"x": 0.9697090842,
				"y": 4.8121995036,
				"z": 0.5358701477,
				"element": "C" 
			},
			{
				"x": 1.4861277638,
				"y": 4.8067946369,
				"z": -0.7754049311,
				"element": "C" 
			},
			{
				"x": 1.7947985373,
				"y": 3.6084103257,
				"z": -1.3983386103,
				"element": "C" 
			},
			{
				"x": 2.2866016403,
				"y": 3.6065895177,
				"z": -2.6508102997,
				"element": "F" 
			},
			{
				"x": -2.0350025121,
				"y": -2.4946949334,
				"z": 2.2255035589,
				"element": "H" 
			},
			{
				"x": 0.2847400814,
				"y": -2.9184213079,
				"z": -0.2586465625,
				"element": "H" 
			},
			{
				"x": -0.5181526305,
				"y": -1.4552355248,
				"z": -0.7764005358,
				"element": "H" 
			},
			{
				"x": 2.0511207954,
				"y": -1.4446048283,
				"z": -0.9534541754,
				"element": "H" 
			},
			{
				"x": 2.1179201396,
				"y": -1.4574609742,
				"z": 0.8105561206,
				"element": "H" 
			},
			{
				"x": 0.6294287805,
				"y": 0.7094766896,
				"z": 1.8168884986,
				"element": "H" 
			},
			{
				"x": 0.3574468214,
				"y": 3.6469617486,
				"z": 2.2554426051,
				"element": "H" 
			},
			{
				"x": 0.7366744425,
				"y": 5.7651427425,
				"z": 1.0010268206,
				"element": "H" 
			},
			{
				"x": 1.6493891875,
				"y": 5.7337967468,
				"z": -1.3140933646,
				"element": "H" 
			}
		],
		 "valence_orbital": [ 
			{
				"type": "occ",
				"energy": -0.30475,
				"method": "rhf"
			},
			{
				"type": "occ",
				"energy": -0.29541,
				"method": "rhf"
			},
			{
				"type": "occ",
				"energy": -0.26912,
				"method": "rhf"
			},
			{
				"type": "occ",
				"energy": -0.22449,
				"method": "rhf"
			},
			{
				"type": "occ",
				"energy": -0.21314,
				"method": "rhf"
			},
			{
				"type": "unocc",
				"energy": -0.01763,
				"method": "rhf"
			},
			{
				"type": "unocc",
				"energy": -0.00774,
				"method": "rhf"
			},
			{
				"type": "unocc",
				"energy": 0.02477,
				"method": "rhf"
			},
			{
				"type": "unocc",
				"energy": 0.0536,
				"method": "rhf"
			},
			{
				"type": "unocc",
				"energy": 0.06305,
				"method": "rhf"
			}
		],
		"cosmo_sigma_profile": { 
			"-0.025": 0.0,
			"-0.024": 0.0,
			"-0.023": 0.0,
			"-0.022": 0.0,
			"-0.021": 0.0,
			"-0.02": 0.0,
			"-0.019": 0.160686640524,
			"-0.018": 1.03737156621,
			"-0.017": 0.993350879607,
			"-0.016": 0.694785886256,
			"-0.015": 0.730098279607,
			"-0.014": 0.620916389655,
			"-0.013": 0.447787002378,
			"-0.012": 1.53272956582,
			"-0.011": 1.63393468581,
			"-0.01": 1.64456897335,
			"-0.009": 1.24260792416,
			"-0.008": 2.16847009228,
			"-0.007": 8.27238068449,
			"-0.006": 15.8060469452,
			"-0.005": 16.9232783805,
			"-0.004": 18.6397861426,
			"-0.003": 14.6229838034,
			"-0.002": 12.9948596716,
			"-0.001": 10.3397810371,
			"0.0": 7.03173174732,
			"0.001": 13.1298115672,
			"0.002": 17.1819190719,
			"0.003": 17.6876806996,
			"0.004": 18.1948741384,
			"0.005": 15.4648540481,
			"0.006": 7.36640149417,
			"0.007": 4.56517198403,
			"0.008": 4.47800643739,
			"0.009": 4.02106401257,
			"0.01": 3.10012044283,
			"0.011": 2.7689514595,
			"0.012": 1.31777051336,
			"0.013": 1.33251928578,
			"0.014": 0.838307532891,
			"0.015": 0.782023422985,
			"0.016": 1.13889542452,
			"0.017": 0.615782044966,
			"0.018": 0.0,
			"0.019": 0.0,
			"0.02": 0.0,
			"0.021": 0.0,
			"0.022": 0.0,
			"0.023": 0.0,
			"0.024": 0.0,
			"0.025": 0.0
		}
	}
}
