{
	 "smiles": "NC1=C(OCC2=CC=CC=C2)N=CC=C1", 
	 "Tm": 325.15, 
	 "num_atms": 27, 
	 "gaussian": { 
		 "optdone": 1, 
		 "sigma_profile": "yes", 
		 "theory": "DFT", 
		 "functional": "B3LYP", 
		 "basiset": "6-31G**", 
		 "properties": { 
			 "R2extent": 4970.6165, 
			 "electric_dipole_moment_norm": 1.86339651712, 
			 "electric_quadrupole_moment_norm": 8.2093795941, 
			 "total_energy": -649.235562031, 
			 "HOMO_LUMO_gap": 0.19182, 
			 "cosmo_polarized_energy": -10.47, 
			 "cosmo_cavitation_energy": 31.23, 
			 "cosmo_dispersion_energy": -22.78, 
			 "cosmo_repulsion_energy": 1.79, 
			 "cosmo_total_nonelectrostatic_energy": 10.24, 
			 "SMD_solvation_energy": 4.47 
		},
		"coords": [
			{
				"x": 1.463271784,
				"y": -1.4478630313,
				"z": 1.1406361483,
				"element": "N" 
			},
			{
				"x": 1.85390752,
				"y": -1.8285562974,
				"z": -0.1382677751,
				"element": "C" 
			},
			{
				"x": 1.5648925364,
				"y": -0.9821418199,
				"z": -1.2431206417,
				"element": "C" 
			},
			{
				"x": 0.9683643918,
				"y": 0.199655568,
				"z": -0.9165897967,
				"element": "O" 
			},
			{
				"x": 0.6469240734,
				"y": 1.0910158643,
				"z": -1.9962374296,
				"element": "C" 
			},
			{
				"x": -0.107241816,
				"y": 2.2692512546,
				"z": -1.432555515,
				"element": "C" 
			},
			{
				"x": 0.2084108324,
				"y": 3.5692539416,
				"z": -1.8409955457,
				"element": "C" 
			},
			{
				"x": -0.5179972574,
				"y": 4.6621698564,
				"z": -1.3629330036,
				"element": "C" 
			},
			{
				"x": -1.5630860945,
				"y": 4.4650736372,
				"z": -0.4601796292,
				"element": "C" 
			},
			{
				"x": -1.8797235239,
				"y": 3.170066578,
				"z": -0.0408120837,
				"element": "C" 
			},
			{
				"x": -1.1598633778,
				"y": 2.0794974871,
				"z": -0.5266375743,
				"element": "C" 
			},
			{
				"x": 1.8442942671,
				"y": -1.2668557011,
				"z": -2.498098827,
				"element": "N" 
			},
			{
				"x": 2.4431114691,
				"y": -2.4456697853,
				"z": -2.7649122326,
				"element": "C" 
			},
			{
				"x": 2.7773137162,
				"y": -3.3520901106,
				"z": -1.771155177,
				"element": "C" 
			},
			{
				"x": 2.4791661712,
				"y": -3.0359731513,
				"z": -0.4383705039,
				"element": "C" 
			},
			{
				"x": 1.3120470998,
				"y": -0.4537504446,
				"z": 1.2443178308,
				"element": "H" 
			},
			{
				"x": 1.9986000666,
				"y": -1.8518874629,
				"z": 1.8962975718,
				"element": "H" 
			},
			{
				"x": 1.5654355629,
				"y": 1.4089535928,
				"z": -2.5018001235,
				"element": "H" 
			},
			{
				"x": 0.0496513386,
				"y": 0.5458207944,
				"z": -2.7371008545,
				"element": "H" 
			},
			{
				"x": 1.0289579108,
				"y": 3.7282154366,
				"z": -2.5364901436,
				"element": "H" 
			},
			{
				"x": -0.2609964728,
				"y": 5.6658520974,
				"z": -1.6896899091,
				"element": "H" 
			},
			{
				"x": -2.1261993028,
				"y": 5.3139301976,
				"z": -0.0828265122,
				"element": "H" 
			},
			{
				"x": -2.6911066376,
				"y": 3.0101364083,
				"z": 0.663885407,
				"element": "H" 
			},
			{
				"x": -1.4027505684,
				"y": 1.07331661,
				"z": -0.1983610772,
				"element": "H" 
			},
			{
				"x": 2.6567139558,
				"y": -2.6483488965,
				"z": -3.8112889362,
				"element": "H" 
			},
			{
				"x": 3.263770188,
				"y": -4.2895842947,
				"z": -2.020167468,
				"element": "H" 
			},
			{
				"x": 2.7264321672,
				"y": -3.7266883289,
				"z": 0.3639538013,
				"element": "H" 
			}
		],
		 "valence_orbital": [ 
			{
				"type": "occ",
				"energy": -0.26016,
				"method": "rhf"
			},
			{
				"type": "occ",
				"energy": -0.25353,
				"method": "rhf"
			},
			{
				"type": "occ",
				"energy": -0.24887,
				"method": "rhf"
			},
			{
				"type": "occ",
				"energy": -0.24197,
				"method": "rhf"
			},
			{
				"type": "occ",
				"energy": -0.19617,
				"method": "rhf"
			},
			{
				"type": "unocc",
				"energy": -0.00435,
				"method": "rhf"
			},
			{
				"type": "unocc",
				"energy": -0.00306,
				"method": "rhf"
			},
			{
				"type": "unocc",
				"energy": 0.00044,
				"method": "rhf"
			},
			{
				"type": "unocc",
				"energy": 0.01832,
				"method": "rhf"
			},
			{
				"type": "unocc",
				"energy": 0.08712,
				"method": "rhf"
			}
		],
		"cosmo_sigma_profile": { 
			"-0.025": 0.0,
			"-0.024": 0.0,
			"-0.023": 0.0,
			"-0.022": 0.0,
			"-0.021": 0.0,
			"-0.02": 0.0,
			"-0.019": 0.0,
			"-0.018": 0.0,
			"-0.017": 0.0,
			"-0.016": 0.0,
			"-0.015": 0.0,
			"-0.014": 0.0,
			"-0.013": 0.740776433844,
			"-0.012": 1.34833999035,
			"-0.011": 2.11785062042,
			"-0.01": 2.08462844193,
			"-0.009": 2.73295213508,
			"-0.008": 2.54354515803,
			"-0.007": 3.17417125163,
			"-0.006": 10.8400463068,
			"-0.005": 20.2396277979,
			"-0.004": 20.9132165472,
			"-0.003": 21.3321353646,
			"-0.002": 15.8073722992,
			"-0.001": 14.4961846584,
			"0.0": 12.7795282198,
			"0.001": 16.8482828016,
			"0.002": 15.4941939958,
			"0.003": 19.035840029,
			"0.004": 19.4742612149,
			"0.005": 20.4492543716,
			"0.006": 12.3138821463,
			"0.007": 2.95318880607,
			"0.008": 2.35067379358,
			"0.009": 2.22022342218,
			"0.01": 1.46787578441,
			"0.011": 1.51783434643,
			"0.012": 1.82854364496,
			"0.013": 1.33575565787,
			"0.014": 0.613104880805,
			"0.015": 0.0272820542239,
			"0.016": 0.0,
			"0.017": 0.0,
			"0.018": 0.0,
			"0.019": 0.0,
			"0.02": 0.0,
			"0.021": 0.0,
			"0.022": 0.0,
			"0.023": 0.0,
			"0.024": 0.0,
			"0.025": 0.0
		}
	}
}
