{
	 "smiles": "CN1C=NC(=C1)C(O)=O", 
	 "Tm": 518.15, 
	 "num_atms": 15, 
	 "gaussian": { 
		 "optdone": 1, 
		 "sigma_profile": "yes", 
		 "theory": "DFT", 
		 "functional": "B3LYP", 
		 "basiset": "6-31G**", 
		 "properties": { 
			 "R2extent": 1680.839, 
			 "electric_dipole_moment_norm": 7.6004717051, 
			 "electric_quadrupole_moment_norm": 17.8983929368, 
			 "total_energy": -454.107480643, 
			 "HOMO_LUMO_gap": 0.23006, 
			 "cosmo_polarized_energy": -16.87, 
			 "cosmo_cavitation_energy": 19.75, 
			 "cosmo_dispersion_energy": -14.76, 
			 "cosmo_repulsion_energy": 1.21, 
			 "cosmo_total_nonelectrostatic_energy": 6.21, 
			 "SMD_solvation_energy": 4.55 
		},
		"coords": [
			{
				"x": 1.3853648778,
				"y": 3.727504479,
				"z": 1.5102623076,
				"element": "C" 
			},
			{
				"x": 1.2190145954,
				"y": 2.4179287005,
				"z": 0.8927710263,
				"element": "N" 
			},
			{
				"x": 1.7907316536,
				"y": 1.2424614086,
				"z": 1.3105482983,
				"element": "C" 
			},
			{
				"x": 1.4476429475,
				"y": 0.231515153,
				"z": 0.5445787128,
				"element": "N" 
			},
			{
				"x": 0.6162597161,
				"y": 0.7688130486,
				"z": -0.4153942475,
				"element": "C" 
			},
			{
				"x": 0.4634050794,
				"y": 2.1210284225,
				"z": -0.2151826706,
				"element": "C" 
			},
			{
				"x": 0.0212695607,
				"y": -0.0779301821,
				"z": -1.4723687487,
				"element": "C" 
			},
			{
				"x": 0.3765136795,
				"y": -1.3780110489,
				"z": -1.3822071371,
				"element": "O" 
			},
			{
				"x": -0.7152955451,
				"y": 0.3376416038,
				"z": -2.3395459556,
				"element": "O" 
			},
			{
				"x": 1.0271615027,
				"y": 3.7141481427,
				"z": 2.5432449279,
				"element": "H" 
			},
			{
				"x": 0.805284534,
				"y": 4.4597349676,
				"z": 0.9480509572,
				"element": "H" 
			},
			{
				"x": 2.4365852834,
				"y": 4.0280407492,
				"z": 1.4978267428,
				"element": "H" 
			},
			{
				"x": 2.4410912225,
				"y": 1.1968007202,
				"z": 2.1737249844,
				"element": "H" 
			},
			{
				"x": -0.1020016043,
				"y": 2.8647469239,
				"z": -0.7541432927,
				"element": "H" 
			},
			{
				"x": 0.9679724968,
				"y": -1.4645230885,
				"z": -0.6107659049,
				"element": "H" 
			}
		],
		 "valence_orbital": [ 
			{
				"type": "occ",
				"energy": -0.3038,
				"method": "rhf"
			},
			{
				"type": "occ",
				"energy": -0.29742,
				"method": "rhf"
			},
			{
				"type": "occ",
				"energy": -0.29658,
				"method": "rhf"
			},
			{
				"type": "occ",
				"energy": -0.25747,
				"method": "rhf"
			},
			{
				"type": "occ",
				"energy": -0.24864,
				"method": "rhf"
			},
			{
				"type": "unocc",
				"energy": -0.01858,
				"method": "rhf"
			},
			{
				"type": "unocc",
				"energy": 0.00508,
				"method": "rhf"
			},
			{
				"type": "unocc",
				"energy": 0.07228,
				"method": "rhf"
			},
			{
				"type": "unocc",
				"energy": 0.09958,
				"method": "rhf"
			},
			{
				"type": "unocc",
				"energy": 0.11406,
				"method": "rhf"
			}
		],
		"cosmo_sigma_profile": { 
			"-0.025": 0.0,
			"-0.024": 0.0,
			"-0.023": 0.0,
			"-0.022": 0.0,
			"-0.021": 0.0,
			"-0.02": 0.0,
			"-0.019": 0.0,
			"-0.018": 0.0,
			"-0.017": 0.0,
			"-0.016": 0.0,
			"-0.015": 0.0,
			"-0.014": 0.0,
			"-0.013": 0.43577611134,
			"-0.012": 0.43511233059,
			"-0.011": 0.854244292832,
			"-0.01": 4.02471937017,
			"-0.009": 5.28493789883,
			"-0.008": 6.48725826201,
			"-0.007": 11.4040931521,
			"-0.006": 10.2723787893,
			"-0.005": 9.65359774264,
			"-0.004": 12.9420569354,
			"-0.003": 8.73089808654,
			"-0.002": 6.67693586086,
			"-0.001": 6.43713095243,
			"0.0": 7.75114267872,
			"0.001": 7.34353042653,
			"0.002": 9.52557322983,
			"0.003": 5.2414562155,
			"0.004": 3.58413144438,
			"0.005": 3.20226858263,
			"0.006": 3.77095576537,
			"0.007": 3.99499339492,
			"0.008": 3.9905469673,
			"0.009": 3.72912410712,
			"0.01": 5.79923568234,
			"0.011": 5.60882540939,
			"0.012": 5.98939821366,
			"0.013": 3.87298674007,
			"0.014": 1.01618617624,
			"0.015": 0.0,
			"0.016": 0.0,
			"0.017": 0.0,
			"0.018": 0.0,
			"0.019": 0.0,
			"0.02": 0.0,
			"0.021": 0.0,
			"0.022": 0.0,
			"0.023": 0.0,
			"0.024": 0.0,
			"0.025": 0.0
		}
	}
}
