{
	 "smiles": "O=C1N(C(=O)C2=CC=CC=C12)C1=NNC2=C1C=CC=N2", 
	 "Tm": 527.15, 
	 "num_atms": 28, 
	 "gaussian": { 
		 "optdone": 1, 
		 "sigma_profile": "yes", 
		 "theory": "DFT", 
		 "functional": "B3LYP", 
		 "basiset": "6-31G**", 
		 "properties": { 
			 "R2extent": 6706.7279, 
			 "electric_dipole_moment_norm": 3.40745379132, 
			 "electric_quadrupole_moment_norm": 15.1122940317, 
			 "total_energy": -907.77265217, 
			 "HOMO_LUMO_gap": 0.1483, 
			 "cosmo_polarized_energy": -17.67, 
			 "cosmo_cavitation_energy": 34.09, 
			 "cosmo_dispersion_energy": -24.84, 
			 "cosmo_repulsion_energy": 1.86, 
			 "cosmo_total_nonelectrostatic_energy": 11.11, 
			 "SMD_solvation_energy": 4.23 
		},
		"coords": [
			{
				"x": 0.4766856082,
				"y": 2.5698994983,
				"z": 0.2610592096,
				"element": "O" 
			},
			{
				"x": 0.4658306125,
				"y": 1.446923966,
				"z": -0.1997186884,
				"element": "C" 
			},
			{
				"x": -0.668748902,
				"y": 0.7828214968,
				"z": -0.7226303558,
				"element": "N" 
			},
			{
				"x": -0.3576094396,
				"y": -0.5451482805,
				"z": -1.1420603851,
				"element": "C" 
			},
			{
				"x": -1.1391675753,
				"y": -1.3538891694,
				"z": -1.5835641117,
				"element": "O" 
			},
			{
				"x": 1.1036887892,
				"y": -0.6999501479,
				"z": -0.8895310562,
				"element": "C" 
			},
			{
				"x": 1.9318174217,
				"y": -1.7889822559,
				"z": -1.1230250415,
				"element": "C" 
			},
			{
				"x": 3.282072863,
				"y": -1.6572244163,
				"z": -0.7745644406,
				"element": "C" 
			},
			{
				"x": 3.7715795431,
				"y": -0.4717116289,
				"z": -0.2094344289,
				"element": "C" 
			},
			{
				"x": 2.9260999228,
				"y": 0.6197038843,
				"z": 0.0263630258,
				"element": "C" 
			},
			{
				"x": 1.5905559931,
				"y": 0.4790982961,
				"z": -0.3250160504,
				"element": "C" 
			},
			{
				"x": -1.9449667532,
				"y": 1.369640878,
				"z": -0.8147066939,
				"element": "C" 
			},
			{
				"x": -2.6416867514,
				"y": 1.2662793502,
				"z": -1.9335720628,
				"element": "N" 
			},
			{
				"x": -3.8232389607,
				"y": 1.8809665632,
				"z": -1.6922626246,
				"element": "N" 
			},
			{
				"x": -3.8985120189,
				"y": 2.3938431736,
				"z": -0.4287480036,
				"element": "C" 
			},
			{
				"x": -2.6658976293,
				"y": 2.0798064544,
				"z": 0.1971743829,
				"element": "C" 
			},
			{
				"x": -2.487344379,
				"y": 2.5153220034,
				"z": 1.5187749321,
				"element": "C" 
			},
			{
				"x": -3.5448024145,
				"y": 3.201065402,
				"z": 2.0989186948,
				"element": "C" 
			},
			{
				"x": -4.7274820477,
				"y": 3.4425077353,
				"z": 1.3626367933,
				"element": "C" 
			},
			{
				"x": -4.9302588462,
				"y": 3.0560345472,
				"z": 0.1035639186,
				"element": "N" 
			},
			{
				"x": 1.5403031207,
				"y": -2.7017952964,
				"z": -1.5599896723,
				"element": "H" 
			},
			{
				"x": 3.9629029791,
				"y": -2.4859597493,
				"z": -0.9442945731,
				"element": "H" 
			},
			{
				"x": 4.8236901415,
				"y": -0.4008908352,
				"z": 0.0497240152,
				"element": "H" 
			},
			{
				"x": 3.2923853445,
				"y": 1.5421923921,
				"z": 0.4649400056,
				"element": "H" 
			},
			{
				"x": -4.532667094,
				"y": 1.9021759085,
				"z": -2.4081490046,
				"element": "H" 
			},
			{
				"x": -1.5606176811,
				"y": 2.3394630019,
				"z": 2.0529486033,
				"element": "H" 
			},
			{
				"x": -3.4741444402,
				"y": 3.5666334737,
				"z": 3.117832178,
				"element": "H" 
			},
			{
				"x": -5.5467674064,
				"y": 3.9848737551,
				"z": 1.8306314344,
				"element": "H" 
			}
		],
		 "valence_orbital": [ 
			{
				"type": "occ",
				"energy": -0.28051,
				"method": "rhf"
			},
			{
				"type": "occ",
				"energy": -0.27448,
				"method": "rhf"
			},
			{
				"type": "occ",
				"energy": -0.26731,
				"method": "rhf"
			},
			{
				"type": "occ",
				"energy": -0.25372,
				"method": "rhf"
			},
			{
				"type": "occ",
				"energy": -0.23337,
				"method": "rhf"
			},
			{
				"type": "unocc",
				"energy": -0.08507,
				"method": "rhf"
			},
			{
				"type": "unocc",
				"energy": -0.05356,
				"method": "rhf"
			},
			{
				"type": "unocc",
				"energy": -0.04169,
				"method": "rhf"
			},
			{
				"type": "unocc",
				"energy": 0.00738,
				"method": "rhf"
			},
			{
				"type": "unocc",
				"energy": 0.02536,
				"method": "rhf"
			}
		],
		"cosmo_sigma_profile": { 
			"-0.025": 0.0,
			"-0.024": 0.0,
			"-0.023": 0.0,
			"-0.022": 0.0,
			"-0.021": 0.0,
			"-0.02": 0.0,
			"-0.019": 0.0,
			"-0.018": 0.0,
			"-0.017": 1.13663507363,
			"-0.016": 1.29978169868,
			"-0.015": 1.3846820078,
			"-0.014": 1.23883482408,
			"-0.013": 0.267795175814,
			"-0.012": 0.540411388728,
			"-0.011": 1.53806456081,
			"-0.01": 0.424521367462,
			"-0.009": 0.687430748606,
			"-0.008": 3.77195635893,
			"-0.007": 14.7458545586,
			"-0.006": 21.6976576187,
			"-0.005": 18.1533749944,
			"-0.004": 13.6762654432,
			"-0.003": 14.8783584816,
			"-0.002": 15.0570817429,
			"-0.001": 20.1470863249,
			"0.0": 26.3096428863,
			"0.001": 26.8437012404,
			"0.002": 22.6301548513,
			"0.003": 10.0798368791,
			"0.004": 6.51850732466,
			"0.005": 5.04885201832,
			"0.006": 4.7071674412,
			"0.007": 4.53297409555,
			"0.008": 6.33531447268,
			"0.009": 5.98085875861,
			"0.01": 8.99372060468,
			"0.011": 8.98156566194,
			"0.012": 3.93527307993,
			"0.013": 2.88602154994,
			"0.014": 1.32750511992,
			"0.015": 0.567289621045,
			"0.016": 0.0454195185155,
			"0.017": 0.0,
			"0.018": 0.0,
			"0.019": 0.0,
			"0.02": 0.0,
			"0.021": 0.0,
			"0.022": 0.0,
			"0.023": 0.0,
			"0.024": 0.0,
			"0.025": 0.0
		}
	}
}
