{
	 "smiles": "COC1=C(C=C(Cl)C=C1)C1=NN=C(N)O1", 
	 "Tm": 475.15, 
	 "num_atms": 23, 
	 "gaussian": { 
		 "optdone": 1, 
		 "sigma_profile": "yes", 
		 "theory": "DFT", 
		 "functional": "B3LYP", 
		 "basiset": "6-31G**", 
		 "properties": { 
			 "R2extent": 4848.0477, 
			 "electric_dipole_moment_norm": 5.51214978207, 
			 "electric_quadrupole_moment_norm": 18.9332221745, 
			 "total_energy": -1122.62945812, 
			 "HOMO_LUMO_gap": 0.17215, 
			 "cosmo_polarized_energy": -17.24, 
			 "cosmo_cavitation_energy": 30.11, 
			 "cosmo_dispersion_energy": -21.9, 
			 "cosmo_repulsion_energy": 1.72, 
			 "cosmo_total_nonelectrostatic_energy": 9.94, 
			 "SMD_solvation_energy": 4.09 
		},
		"coords": [
			{
				"x": -1.0563027475,
				"y": -0.5500485697,
				"z": -2.0981349451,
				"element": "C" 
			},
			{
				"x": -0.9236599342,
				"y": -0.8383624512,
				"z": -0.7049803525,
				"element": "O" 
			},
			{
				"x": -1.497025108,
				"y": 0.0838254515,
				"z": 0.1373321397,
				"element": "C" 
			},
			{
				"x": -0.7255742722,
				"y": 1.0900546564,
				"z": 0.7537119707,
				"element": "C" 
			},
			{
				"x": -1.351005147,
				"y": 1.9667317695,
				"z": 1.6614711532,
				"element": "C" 
			},
			{
				"x": -2.7058397664,
				"y": 1.8415563295,
				"z": 1.9300096376,
				"element": "C" 
			},
			{
				"x": -3.4669158291,
				"y": 2.948556566,
				"z": 3.0624610913,
				"element": "Cl" 
			},
			{
				"x": -3.4769568987,
				"y": 0.8487679417,
				"z": 1.3200895383,
				"element": "C" 
			},
			{
				"x": -2.8608074135,
				"y": -0.0222618305,
				"z": 0.4278416206,
				"element": "C" 
			},
			{
				"x": 0.7046896622,
				"y": 1.2819329157,
				"z": 0.5308485755,
				"element": "C" 
			},
			{
				"x": 1.4827845479,
				"y": 2.1266833757,
				"z": 1.1357690663,
				"element": "N" 
			},
			{
				"x": 2.7637534334,
				"y": 1.9689483919,
				"z": 0.6105253877,
				"element": "N" 
			},
			{
				"x": 2.651843744,
				"y": 1.037570671,
				"z": -0.2923117273,
				"element": "C" 
			},
			{
				"x": 3.6059154158,
				"y": 0.55786433,
				"z": -1.1457600037,
				"element": "N" 
			},
			{
				"x": 1.3941930883,
				"y": 0.5458572997,
				"z": -0.412487518,
				"element": "O" 
			},
			{
				"x": -0.6177108735,
				"y": -1.3956650928,
				"z": -2.6313242419,
				"element": "H" 
			},
			{
				"x": -0.5177165249,
				"y": 0.366474924,
				"z": -2.3669028158,
				"element": "H" 
			},
			{
				"x": -2.1101904897,
				"y": -0.4474266894,
				"z": -2.3861175538,
				"element": "H" 
			},
			{
				"x": -0.7565630742,
				"y": 2.7352004539,
				"z": 2.1408394265,
				"element": "H" 
			},
			{
				"x": -4.5333156709,
				"y": 0.7592167458,
				"z": 1.546845363,
				"element": "H" 
			},
			{
				"x": -3.4269257777,
				"y": -0.8175492926,
				"z": -0.0464898963,
				"element": "H" 
			},
			{
				"x": 3.5020698345,
				"y": -0.4114242922,
				"z": -1.4130896652,
				"element": "H" 
			},
			{
				"x": 4.5451598018,
				"y": 0.8147963962,
				"z": -0.8748462509,
				"element": "H" 
			}
		],
		 "valence_orbital": [ 
			{
				"type": "occ",
				"energy": -0.28702,
				"method": "rhf"
			},
			{
				"type": "occ",
				"energy": -0.28227,
				"method": "rhf"
			},
			{
				"type": "occ",
				"energy": -0.27302,
				"method": "rhf"
			},
			{
				"type": "occ",
				"energy": -0.24759,
				"method": "rhf"
			},
			{
				"type": "occ",
				"energy": -0.22304,
				"method": "rhf"
			},
			{
				"type": "unocc",
				"energy": -0.05089,
				"method": "rhf"
			},
			{
				"type": "unocc",
				"energy": -0.01672,
				"method": "rhf"
			},
			{
				"type": "unocc",
				"energy": 0.02811,
				"method": "rhf"
			},
			{
				"type": "unocc",
				"energy": 0.03231,
				"method": "rhf"
			},
			{
				"type": "unocc",
				"energy": 0.05632,
				"method": "rhf"
			}
		],
		"cosmo_sigma_profile": { 
			"-0.025": 0.0,
			"-0.024": 0.0,
			"-0.023": 0.0,
			"-0.022": 0.0,
			"-0.021": 0.0,
			"-0.02": 0.0,
			"-0.019": 0.0,
			"-0.018": 0.0,
			"-0.017": 0.0,
			"-0.016": 0.27036279891,
			"-0.015": 2.20943559577,
			"-0.014": 2.90693727607,
			"-0.013": 2.14804200862,
			"-0.012": 2.7517281511,
			"-0.011": 2.90553352242,
			"-0.01": 1.36806188761,
			"-0.009": 1.90419435972,
			"-0.008": 2.81558853903,
			"-0.007": 6.59823452541,
			"-0.006": 7.53779190174,
			"-0.005": 13.2782259887,
			"-0.004": 17.630357074,
			"-0.003": 19.2043575262,
			"-0.002": 14.8818829798,
			"-0.001": 13.2211249285,
			"0.0": 17.1307451313,
			"0.001": 24.0015062945,
			"0.002": 21.5368901851,
			"0.003": 11.8967217752,
			"0.004": 14.072737331,
			"0.005": 8.49193741688,
			"0.006": 3.89033141347,
			"0.007": 3.78109306725,
			"0.008": 3.56847359509,
			"0.009": 3.57396775807,
			"0.01": 4.77548817435,
			"0.011": 4.49176466917,
			"0.012": 3.83795448136,
			"0.013": 2.69475794928,
			"0.014": 2.29361129834,
			"0.015": 1.16553020469,
			"0.016": 0.739045758482,
			"0.017": 0.0,
			"0.018": 0.0,
			"0.019": 0.0,
			"0.02": 0.0,
			"0.021": 0.0,
			"0.022": 0.0,
			"0.023": 0.0,
			"0.024": 0.0,
			"0.025": 0.0
		}
	}
}
