{
	 "smiles": "FC(F)N1C=CN=C1CN1C=C(Br)C=N1", 
	 "Tm": 353.15, 
	 "num_atms": 22, 
	 "gaussian": { 
		 "optdone": 1, 
		 "sigma_profile": "yes", 
		 "theory": "DFT", 
		 "functional": "B3LYP", 
		 "basiset": "6-31G**", 
		 "properties": { 
			 "R2extent": 6078.8522, 
			 "electric_dipole_moment_norm": 0.627979752858, 
			 "electric_quadrupole_moment_norm": 7.08177539463, 
			 "total_energy": -3299.11751238, 
			 "HOMO_LUMO_gap": 0.22361, 
			 "cosmo_polarized_energy": -10.06, 
			 "cosmo_cavitation_energy": 30.23, 
			 "cosmo_dispersion_energy": -21.6, 
			 "cosmo_repulsion_energy": 1.65, 
			 "cosmo_total_nonelectrostatic_energy": 10.29, 
			 "SMD_solvation_energy": 3.07 
		},
		"coords": [
			{
				"x": -1.3229549763,
				"y": 0.4076180674,
				"z": -2.5750939978,
				"element": "F" 
			},
			{
				"x": -1.0695706946,
				"y": 1.0444450306,
				"z": -1.395068991,
				"element": "C" 
			},
			{
				"x": -1.5630606082,
				"y": 2.3018932185,
				"z": -1.4902506769,
				"element": "F" 
			},
			{
				"x": -1.7497999116,
				"y": 0.3689395574,
				"z": -0.3232697651,
				"element": "N" 
			},
			{
				"x": -2.9919706149,
				"y": 0.694874514,
				"z": 0.1981078672,
				"element": "C" 
			},
			{
				"x": -3.271060512,
				"y": -0.2869409693,
				"z": 1.110246426,
				"element": "C" 
			},
			{
				"x": -2.2519398802,
				"y": -1.2136413279,
				"z": 1.1598585976,
				"element": "N" 
			},
			{
				"x": -1.3550587234,
				"y": -0.8034718812,
				"z": 0.2909188439,
				"element": "C" 
			},
			{
				"x": -0.0684967975,
				"y": -1.5177458706,
				"z": 0.0015832597,
				"element": "C" 
			},
			{
				"x": 1.1018908886,
				"y": -0.9107107856,
				"z": 0.6363212726,
				"element": "N" 
			},
			{
				"x": 1.6077574931,
				"y": -1.1673122967,
				"z": 1.8699817894,
				"element": "C" 
			},
			{
				"x": 2.6479664027,
				"y": -0.2740423936,
				"z": 2.0465516854,
				"element": "C" 
			},
			{
				"x": 3.7765312252,
				"y": -0.1365718954,
				"z": 3.5468180025,
				"element": "Br" 
			},
			{
				"x": 2.6899857863,
				"y": 0.4960872351,
				"z": 0.8677509508,
				"element": "C" 
			},
			{
				"x": 1.7428857253,
				"y": 0.1060204112,
				"z": 0.0146928889,
				"element": "N" 
			},
			{
				"x": 0.0099013998,
				"y": 1.0656605419,
				"z": -1.2269508411,
				"element": "H" 
			},
			{
				"x": -3.523971506,
				"y": 1.5768139975,
				"z": -0.1179573785,
				"element": "H" 
			},
			{
				"x": -4.1469175806,
				"y": -0.3790949611,
				"z": 1.7367210758,
				"element": "H" 
			},
			{
				"x": 0.1404375102,
				"y": -1.5590705672,
				"z": -1.0705644758,
				"element": "H" 
			},
			{
				"x": -0.1724723867,
				"y": -2.5363308589,
				"z": 0.3779369436,
				"element": "H" 
			},
			{
				"x": 1.2095195842,
				"y": -1.9376393404,
				"z": 2.5121405833,
				"element": "H" 
			},
			{
				"x": 3.3679981768,
				"y": 1.2979205742,
				"z": 0.6127259394,
				"element": "H" 
			}
		],
		 "valence_orbital": [ 
			{
				"type": "occ",
				"energy": -0.2901,
				"method": "rhf"
			},
			{
				"type": "occ",
				"energy": -0.28584,
				"method": "rhf"
			},
			{
				"type": "occ",
				"energy": -0.27469,
				"method": "rhf"
			},
			{
				"type": "occ",
				"energy": -0.24694,
				"method": "rhf"
			},
			{
				"type": "occ",
				"energy": -0.24122,
				"method": "rhf"
			},
			{
				"type": "unocc",
				"energy": -0.01761,
				"method": "rhf"
			},
			{
				"type": "unocc",
				"energy": 0.00024,
				"method": "rhf"
			},
			{
				"type": "unocc",
				"energy": 0.01306,
				"method": "rhf"
			},
			{
				"type": "unocc",
				"energy": 0.04495,
				"method": "rhf"
			},
			{
				"type": "unocc",
				"energy": 0.0529,
				"method": "rhf"
			}
		],
		"cosmo_sigma_profile": { 
			"-0.025": 0.0,
			"-0.024": 0.0,
			"-0.023": 0.0,
			"-0.022": 0.0,
			"-0.021": 0.0,
			"-0.02": 0.0,
			"-0.019": 0.0,
			"-0.018": 0.0,
			"-0.017": 0.0,
			"-0.016": 0.0,
			"-0.015": 0.0,
			"-0.014": 0.0,
			"-0.013": 0.0,
			"-0.012": 0.0,
			"-0.011": 0.517863607352,
			"-0.01": 2.9279414045,
			"-0.009": 4.86804193387,
			"-0.008": 7.57366132616,
			"-0.007": 10.1040934237,
			"-0.006": 11.8427653749,
			"-0.005": 12.6278876752,
			"-0.004": 12.9876306097,
			"-0.003": 11.7976219012,
			"-0.002": 14.0442886636,
			"-0.001": 15.0233978677,
			"0.0": 15.7268789201,
			"0.001": 19.8578318826,
			"0.002": 23.3754628975,
			"0.003": 35.3685786564,
			"0.004": 24.9276392823,
			"0.005": 6.70036716296,
			"0.006": 2.41711168573,
			"0.007": 2.49776700104,
			"0.008": 1.52574670266,
			"0.009": 1.96316902924,
			"0.01": 1.85526201251,
			"0.011": 1.78127222455,
			"0.012": 1.21039856388,
			"0.013": 0.637287353622,
			"0.014": 0.772074109174,
			"0.015": 0.838247692475,
			"0.016": 0.942645325152,
			"0.017": 0.285614661189,
			"0.018": 0.0,
			"0.019": 0.0,
			"0.02": 0.0,
			"0.021": 0.0,
			"0.022": 0.0,
			"0.023": 0.0,
			"0.024": 0.0,
			"0.025": 0.0
		}
	}
}
