{
	 "smiles": "CNC1=C2C=CC=CC2=NC(=C1)C(F)(F)F", 
	 "Tm": 433.15, 
	 "num_atms": 25, 
	 "gaussian": { 
		 "optdone": 1, 
		 "sigma_profile": "yes", 
		 "theory": "DFT", 
		 "functional": "B3LYP", 
		 "basiset": "6-31G**", 
		 "properties": { 
			 "R2extent": 4868.1191, 
			 "electric_dipole_moment_norm": 4.98710310802, 
			 "electric_quadrupole_moment_norm": 12.4370154318, 
			 "total_energy": -833.626831314, 
			 "HOMO_LUMO_gap": 0.16504, 
			 "cosmo_polarized_energy": -10.46, 
			 "cosmo_cavitation_energy": 30.12, 
			 "cosmo_dispersion_energy": -21.66, 
			 "cosmo_repulsion_energy": 1.62, 
			 "cosmo_total_nonelectrostatic_energy": 10.08, 
			 "SMD_solvation_energy": 4.12 
		},
		"coords": [
			{
				"x": 1.8279928335,
				"y": -1.2690342458,
				"z": -0.5004433325,
				"element": "C" 
			},
			{
				"x": 1.2693979559,
				"y": 0.0374894485,
				"z": -0.1211173637,
				"element": "N" 
			},
			{
				"x": -0.1150677275,
				"y": 0.1667268213,
				"z": 0.0494984088,
				"element": "C" 
			},
			{
				"x": -1.0200789087,
				"y": 0.0064129346,
				"z": -1.0524381846,
				"element": "C" 
			},
			{
				"x": -0.6020450922,
				"y": -0.1838343636,
				"z": -2.3962368002,
				"element": "C" 
			},
			{
				"x": -1.5266060223,
				"y": -0.3439712679,
				"z": -3.4050804862,
				"element": "C" 
			},
			{
				"x": -2.9130440736,
				"y": -0.3181600847,
				"z": -3.1195150764,
				"element": "C" 
			},
			{
				"x": -3.3507057488,
				"y": -0.0896173463,
				"z": -1.8355256428,
				"element": "C" 
			},
			{
				"x": -2.423131093,
				"y": 0.1020456826,
				"z": -0.7760089031,
				"element": "C" 
			},
			{
				"x": -2.9225670599,
				"y": 0.400199874,
				"z": 0.456331653,
				"element": "N" 
			},
			{
				"x": -2.0506356482,
				"y": 0.6208302763,
				"z": 1.4169879423,
				"element": "C" 
			},
			{
				"x": -0.6531363497,
				"y": 0.5115050226,
				"z": 1.281321391,
				"element": "C" 
			},
			{
				"x": -2.6600184307,
				"y": 0.9805717153,
				"z": 2.7609997337,
				"element": "C" 
			},
			{
				"x": -3.4876149512,
				"y": 0.0152027512,
				"z": 3.2024116902,
				"element": "F" 
			},
			{
				"x": -1.706075493,
				"y": 1.1592343262,
				"z": 3.7074641516,
				"element": "F" 
			},
			{
				"x": -3.3703741585,
				"y": 2.1220835937,
				"z": 2.6881427385,
				"element": "F" 
			},
			{
				"x": 1.3424504288,
				"y": -1.6460492526,
				"z": -1.3999204748,
				"element": "H" 
			},
			{
				"x": 1.7106671817,
				"y": -2.0263421424,
				"z": 0.2886916624,
				"element": "H" 
			},
			{
				"x": 2.8931896995,
				"y": -1.1478802769,
				"z": -0.7144446361,
				"element": "H" 
			},
			{
				"x": 1.7562033791,
				"y": 0.3953641092,
				"z": 0.6936910743,
				"element": "H" 
			},
			{
				"x": 0.4562186001,
				"y": -0.1570634733,
				"z": -2.6293548137,
				"element": "H" 
			},
			{
				"x": -1.1909820906,
				"y": -0.475786535,
				"z": -4.4295012311,
				"element": "H" 
			},
			{
				"x": -3.6302527116,
				"y": -0.4551960452,
				"z": -3.9234924775,
				"element": "H" 
			},
			{
				"x": -4.4055232594,
				"y": -0.0286831276,
				"z": -1.5893734404,
				"element": "H" 
			},
			{
				"x": -0.0136612596,
				"y": 0.6597516059,
				"z": 2.1441124174,
				"element": "H" 
			}
		],
		 "valence_orbital": [ 
			{
				"type": "occ",
				"energy": -0.32739,
				"method": "rhf"
			},
			{
				"type": "occ",
				"energy": -0.26636,
				"method": "rhf"
			},
			{
				"type": "occ",
				"energy": -0.26195,
				"method": "rhf"
			},
			{
				"type": "occ",
				"energy": -0.25766,
				"method": "rhf"
			},
			{
				"type": "occ",
				"energy": -0.22366,
				"method": "rhf"
			},
			{
				"type": "unocc",
				"energy": -0.05862,
				"method": "rhf"
			},
			{
				"type": "unocc",
				"energy": -0.02614,
				"method": "rhf"
			},
			{
				"type": "unocc",
				"energy": 0.01539,
				"method": "rhf"
			},
			{
				"type": "unocc",
				"energy": 0.06983,
				"method": "rhf"
			},
			{
				"type": "unocc",
				"energy": 0.07552,
				"method": "rhf"
			}
		],
		"cosmo_sigma_profile": { 
			"-0.025": 0.0,
			"-0.024": 0.0,
			"-0.023": 0.0,
			"-0.022": 0.0,
			"-0.021": 0.0,
			"-0.02": 0.0,
			"-0.019": 0.0,
			"-0.018": 0.0,
			"-0.017": 0.0,
			"-0.016": 0.0,
			"-0.015": 0.0,
			"-0.014": 0.0,
			"-0.013": 0.938535676302,
			"-0.012": 1.77039755484,
			"-0.011": 1.69709053069,
			"-0.01": 1.58982958873,
			"-0.009": 1.96734581789,
			"-0.008": 1.36023965193,
			"-0.007": 3.28073775109,
			"-0.006": 9.91961143016,
			"-0.005": 12.6436031004,
			"-0.004": 16.7881584239,
			"-0.003": 17.3247759079,
			"-0.002": 18.8724666933,
			"-0.001": 16.4305728436,
			"0.0": 15.0123565002,
			"0.001": 18.4128689514,
			"0.002": 28.7807149297,
			"0.003": 39.3400000332,
			"0.004": 14.7839788449,
			"0.005": 5.10510746323,
			"0.006": 3.29748543961,
			"0.007": 2.43310192414,
			"0.008": 2.80624292536,
			"0.009": 1.2021023448,
			"0.01": 1.80784045342,
			"0.011": 1.77837175534,
			"0.012": 0.957384411114,
			"0.013": 0.626960801951,
			"0.014": 0.478617079419,
			"0.015": 0.00012034550906,
			"0.016": 0.0,
			"0.017": 0.0,
			"0.018": 0.0,
			"0.019": 0.0,
			"0.02": 0.0,
			"0.021": 0.0,
			"0.022": 0.0,
			"0.023": 0.0,
			"0.024": 0.0,
			"0.025": 0.0
		}
	}
}
