{
	 "smiles": "COC1=CC(C(C2=CC=C(C)O2)C2=CC=C(C)O2)=C(O)C=C1[N+]([O-])=O", 
	 "Tm": 377.15, 
	 "num_atms": 42, 
	 "gaussian": { 
		 "optdone": 1, 
		 "sigma_profile": "yes", 
		 "theory": "DFT", 
		 "functional": "B3LYP", 
		 "basiset": "6-31G**", 
		 "properties": { 
			 "R2extent": 9532.6922, 
			 "electric_dipole_moment_norm": 8.55428174308, 
			 "electric_quadrupole_moment_norm": 38.074093369, 
			 "total_energy": -1202.09989403, 
			 "HOMO_LUMO_gap": 0.14807, 
			 "cosmo_polarized_energy": -17.18, 
			 "cosmo_cavitation_energy": 46.93, 
			 "cosmo_dispersion_energy": -31.26, 
			 "cosmo_repulsion_energy": 2.39, 
			 "cosmo_total_nonelectrostatic_energy": 18.07, 
			 "SMD_solvation_energy": 11.95 
		},
		"coords": [
			{
				"x": 4.0458743848,
				"y": 1.9701577588,
				"z": 1.1531462485,
				"element": "C" 
			},
			{
				"x": 4.1943489255,
				"y": 0.6158675387,
				"z": 0.7513927008,
				"element": "O" 
			},
			{
				"x": 3.1111605835,
				"y": -0.04527721,
				"z": 0.2822371194,
				"element": "C" 
			},
			{
				"x": 1.8349832038,
				"y": 0.5284695405,
				"z": 0.1946179084,
				"element": "C" 
			},
			{
				"x": 0.7395092798,
				"y": -0.1628180263,
				"z": -0.3281519522,
				"element": "C" 
			},
			{
				"x": -0.6455553708,
				"y": 0.4959756333,
				"z": -0.4727453894,
				"element": "C" 
			},
			{
				"x": -1.5762566581,
				"y": 0.0800236363,
				"z": 0.6409310276,
				"element": "C" 
			},
			{
				"x": -2.1062753488,
				"y": 0.6642118832,
				"z": 1.7480857248,
				"element": "C" 
			},
			{
				"x": -2.9036723437,
				"y": -0.3371652729,
				"z": 2.4014214064,
				"element": "C" 
			},
			{
				"x": -2.8120852061,
				"y": -1.474281516,
				"z": 1.6605225351,
				"element": "C" 
			},
			{
				"x": -3.3826422979,
				"y": -2.8427344477,
				"z": 1.7781637703,
				"element": "C" 
			},
			{
				"x": -2.0013928379,
				"y": -1.2313132176,
				"z": 0.5716373893,
				"element": "O" 
			},
			{
				"x": -0.6217351387,
				"y": 1.9797302942,
				"z": -0.6795471746,
				"element": "C" 
			},
			{
				"x": -0.8521746169,
				"y": 2.7449761375,
				"z": -1.7818723372,
				"element": "C" 
			},
			{
				"x": -0.6838579815,
				"y": 4.1110950115,
				"z": -1.3784158837,
				"element": "C" 
			},
			{
				"x": -0.3625117208,
				"y": 4.0941483975,
				"z": -0.0547132169,
				"element": "C" 
			},
			{
				"x": -0.0733018788,
				"y": 5.1522868554,
				"z": 0.9510121371,
				"element": "C" 
			},
			{
				"x": -0.3184687678,
				"y": 2.7930303053,
				"z": 0.3873265934,
				"element": "O" 
			},
			{
				"x": 0.9115299869,
				"y": -1.492239884,
				"z": -0.7607001439,
				"element": "C" 
			},
			{
				"x": -0.1104403354,
				"y": -2.2382011508,
				"z": -1.2883565625,
				"element": "O" 
			},
			{
				"x": 2.1751436821,
				"y": -2.0710176024,
				"z": -0.707661539,
				"element": "C" 
			},
			{
				"x": 3.2616789807,
				"y": -1.3682862346,
				"z": -0.1926328515,
				"element": "C" 
			},
			{
				"x": 4.5451284655,
				"y": -2.078797283,
				"z": -0.1548775558,
				"element": "N" 
			},
			{
				"x": 5.3930298329,
				"y": -1.7186353831,
				"z": 0.6577944932,
				"element": "O" 
			},
			{
				"x": 4.6858525198,
				"y": -3.0226690353,
				"z": -0.9382479186,
				"element": "O" 
			},
			{
				"x": 3.7072055157,
				"y": 2.6044027778,
				"z": 0.3242385744,
				"element": "H" 
			},
			{
				"x": 3.347211658,
				"y": 2.0681844786,
				"z": 1.9933858824,
				"element": "H" 
			},
			{
				"x": 5.0386103488,
				"y": 2.2897539884,
				"z": 1.4717349339,
				"element": "H" 
			},
			{
				"x": 1.6865440048,
				"y": 1.545368282,
				"z": 0.5293814888,
				"element": "H" 
			},
			{
				"x": -1.0699995478,
				"y": 0.0907908613,
				"z": -1.4008100515,
				"element": "H" 
			},
			{
				"x": -1.944934271,
				"y": 1.6833700095,
				"z": 2.0623704003,
				"element": "H" 
			},
			{
				"x": -3.4753235466,
				"y": -0.2198253315,
				"z": 3.3110780688,
				"element": "H" 
			},
			{
				"x": -4.007515505,
				"y": -3.0958952333,
				"z": 0.9137041279,
				"element": "H" 
			},
			{
				"x": -4.0017079464,
				"y": -2.9063621894,
				"z": 2.6757768132,
				"element": "H" 
			},
			{
				"x": -2.5961899186,
				"y": -3.6029315469,
				"z": 1.851623515,
				"element": "H" 
			},
			{
				"x": -1.1113901017,
				"y": 2.3805884682,
				"z": -2.7658174204,
				"element": "H" 
			},
			{
				"x": -0.7924441451,
				"y": 4.9922007063,
				"z": -1.994647281,
				"element": "H" 
			},
			{
				"x": -0.7891613413,
				"y": 5.1272960879,
				"z": 1.7808832113,
				"element": "H" 
			},
			{
				"x": 0.9294819886,
				"y": 5.0409576349,
				"z": 1.3798233939,
				"element": "H" 
			},
			{
				"x": -0.1339266761,
				"y": 6.1355279283,
				"z": 0.4790907023,
				"element": "H" 
			},
			{
				"x": -0.91224566,
				"y": -2.0986878645,
				"z": -0.7585899119,
				"element": "H" 
			},
			{
				"x": 2.3212158013,
				"y": -3.0817757858,
				"z": -1.0653929761,
				"element": "H" 
			}
		],
		 "valence_orbital": [ 
			{
				"type": "occ",
				"energy": -0.27451,
				"method": "rhf"
			},
			{
				"type": "occ",
				"energy": -0.25976,
				"method": "rhf"
			},
			{
				"type": "occ",
				"energy": -0.22984,
				"method": "rhf"
			},
			{
				"type": "occ",
				"energy": -0.22477,
				"method": "rhf"
			},
			{
				"type": "occ",
				"energy": -0.21669,
				"method": "rhf"
			},
			{
				"type": "unocc",
				"energy": -0.06862,
				"method": "rhf"
			},
			{
				"type": "unocc",
				"energy": -0.0066,
				"method": "rhf"
			},
			{
				"type": "unocc",
				"energy": 0.0005,
				"method": "rhf"
			},
			{
				"type": "unocc",
				"energy": 0.00136,
				"method": "rhf"
			},
			{
				"type": "unocc",
				"energy": 0.02189,
				"method": "rhf"
			}
		],
		"cosmo_sigma_profile": { 
			"-0.025": 0.0,
			"-0.024": 0.0,
			"-0.023": 0.0,
			"-0.022": 0.0,
			"-0.021": 0.0,
			"-0.02": 0.0,
			"-0.019": 0.0,
			"-0.018": 0.0,
			"-0.017": 0.0,
			"-0.016": 0.0,
			"-0.015": 0.0,
			"-0.014": 0.0,
			"-0.013": 0.0,
			"-0.012": 0.0,
			"-0.011": 0.0,
			"-0.01": 0.0,
			"-0.009": 0.0,
			"-0.008": 1.1216566377,
			"-0.007": 8.24308807951,
			"-0.006": 21.3130376094,
			"-0.005": 33.2072078257,
			"-0.004": 33.8832247889,
			"-0.003": 32.0958356629,
			"-0.002": 30.939860694,
			"-0.001": 32.2152319382,
			"0.0": 28.8106242825,
			"0.001": 30.4288731079,
			"0.002": 24.3578317355,
			"0.003": 17.9390213451,
			"0.004": 15.981589168,
			"0.005": 14.8054243539,
			"0.006": 9.85729561752,
			"0.007": 5.67432055834,
			"0.008": 11.5624133223,
			"0.009": 8.46495041464,
			"0.01": 7.0292895546,
			"0.011": 4.23209936812,
			"0.012": 2.15076414426,
			"0.013": 0.394916523137,
			"0.014": 0.0,
			"0.015": 0.0,
			"0.016": 0.0,
			"0.017": 0.0,
			"0.018": 0.0,
			"0.019": 0.0,
			"0.02": 0.0,
			"0.021": 0.0,
			"0.022": 0.0,
			"0.023": 0.0,
			"0.024": 0.0,
			"0.025": 0.0
		}
	}
}
