{
	 "smiles": "CN1N(C(=O)C(NC(=S)NC2=C(C)N(C)N(C2=O)C2=CC=CC=C2)=C1C)C1=CC=CC=C1", 
	 "Tm": 367.15, 
	 "num_atms": 56, 
	 "gaussian": { 
		 "optdone": 1, 
		 "sigma_profile": "yes", 
		 "theory": "DFT", 
		 "functional": "B3LYP", 
		 "basiset": "6-31G**", 
		 "properties": { 
			 "R2extent": 12376.3348, 
			 "electric_dipole_moment_norm": 6.95326742978, 
			 "electric_quadrupole_moment_norm": 35.641668114, 
			 "total_energy": -1768.02778382, 
			 "HOMO_LUMO_gap": 0.16533, 
			 "cosmo_polarized_energy": -26.83, 
			 "cosmo_cavitation_energy": 58.39, 
			 "cosmo_dispersion_energy": -36.44, 
			 "cosmo_repulsion_energy": 2.65, 
			 "cosmo_total_nonelectrostatic_energy": 24.6, 
			 "SMD_solvation_energy": 9.19 
		},
		"coords": [
			{
				"x": -0.8055584715,
				"y": 1.3022149402,
				"z": -2.3945914487,
				"element": "C" 
			},
			{
				"x": 0.0892807246,
				"y": 0.1291531011,
				"z": -2.4325167424,
				"element": "N" 
			},
			{
				"x": 1.1441569066,
				"y": 0.1484773821,
				"z": -1.4911517571,
				"element": "N" 
			},
			{
				"x": 1.3164951815,
				"y": -1.1451607734,
				"z": -0.9363037264,
				"element": "C" 
			},
			{
				"x": 2.199071238,
				"y": -1.4622469734,
				"z": -0.1438638314,
				"element": "O" 
			},
			{
				"x": 0.2558471622,
				"y": -1.9340182575,
				"z": -1.5404499545,
				"element": "C" 
			},
			{
				"x": 0.0771140238,
				"y": -3.3118394286,
				"z": -1.2969715037,
				"element": "N" 
			},
			{
				"x": -1.0537690003,
				"y": -3.9209764027,
				"z": -0.8258778909,
				"element": "C" 
			},
			{
				"x": -1.3878791041,
				"y": -5.5344806434,
				"z": -1.1648074097,
				"element": "S" 
			},
			{
				"x": -1.9070893237,
				"y": -3.1638864516,
				"z": -0.0648555223,
				"element": "N" 
			},
			{
				"x": -1.5677952351,
				"y": -2.0680084887,
				"z": 0.7573874163,
				"element": "C" 
			},
			{
				"x": -0.6260059331,
				"y": -2.0298491901,
				"z": 1.7484913505,
				"element": "C" 
			},
			{
				"x": 0.2833638654,
				"y": -3.1197666848,
				"z": 2.2082520413,
				"element": "C" 
			},
			{
				"x": -0.5448131802,
				"y": -0.7467754851,
				"z": 2.2661548536,
				"element": "N" 
			},
			{
				"x": -0.3784542819,
				"y": -0.5380783008,
				"z": 3.7084900274,
				"element": "C" 
			},
			{
				"x": -1.5907054186,
				"y": 0.0009941477,
				"z": 1.676292542,
				"element": "N" 
			},
			{
				"x": -2.1828593969,
				"y": -0.7564326565,
				"z": 0.6395896663,
				"element": "C" 
			},
			{
				"x": -2.9897096232,
				"y": -0.3140484996,
				"z": -0.176384347,
				"element": "O" 
			},
			{
				"x": -1.4839132008,
				"y": 1.4191139373,
				"z": 1.6319322087,
				"element": "C" 
			},
			{
				"x": -2.6585398308,
				"y": 2.1750689177,
				"z": 1.5287848523,
				"element": "C" 
			},
			{
				"x": -2.5754885668,
				"y": 3.5653076273,
				"z": 1.466496385,
				"element": "C" 
			},
			{
				"x": -1.3363964475,
				"y": 4.2074665365,
				"z": 1.5263283472,
				"element": "C" 
			},
			{
				"x": -0.1703310239,
				"y": 3.4473336373,
				"z": 1.6310570072,
				"element": "C" 
			},
			{
				"x": -0.2359893902,
				"y": 2.0544506539,
				"z": 1.6730233772,
				"element": "C" 
			},
			{
				"x": -0.4625172497,
				"y": -1.139156654,
				"z": -2.3911908958,
				"element": "C" 
			},
			{
				"x": -1.7115144805,
				"y": -1.4649783542,
				"z": -3.1387631892,
				"element": "C" 
			},
			{
				"x": 2.1913913398,
				"y": 1.0945221711,
				"z": -1.6438825024,
				"element": "C" 
			},
			{
				"x": 3.0343655076,
				"y": 1.3576262372,
				"z": -0.5538331868,
				"element": "C" 
			},
			{
				"x": 4.0670241221,
				"y": 2.2831497881,
				"z": -0.6923606498,
				"element": "C" 
			},
			{
				"x": 4.2604748379,
				"y": 2.9653847087,
				"z": -1.8955797989,
				"element": "C" 
			},
			{
				"x": 3.4195565092,
				"y": 2.6976733587,
				"z": -2.9761854712,
				"element": "C" 
			},
			{
				"x": 2.3938542327,
				"y": 1.7593528504,
				"z": -2.8613681527,
				"element": "C" 
			},
			{
				"x": -1.4489813249,
				"y": 1.2925289372,
				"z": -1.5093681085,
				"element": "H" 
			},
			{
				"x": -1.4241199747,
				"y": 1.2850737528,
				"z": -3.293272037,
				"element": "H" 
			},
			{
				"x": -0.1978056267,
				"y": 2.2062640372,
				"z": -2.4106971253,
				"element": "H" 
			},
			{
				"x": 0.7217532748,
				"y": -3.9590221627,
				"z": -1.7327217752,
				"element": "H" 
			},
			{
				"x": -2.7753755955,
				"y": -3.6431087637,
				"z": 0.1360103997,
				"element": "H" 
			},
			{
				"x": -0.0658272711,
				"y": -4.0778580214,
				"z": 1.8194321477,
				"element": "H" 
			},
			{
				"x": 1.2903861615,
				"y": -2.9354584672,
				"z": 1.8173780821,
				"element": "H" 
			},
			{
				"x": 0.3326915149,
				"y": -3.1891573231,
				"z": 3.2986679047,
				"element": "H" 
			},
			{
				"x": 0.5361417104,
				"y": -1.0385736387,
				"z": 4.0269550518,
				"element": "H" 
			},
			{
				"x": -0.2682302049,
				"y": 0.5295209005,
				"z": 3.8993130674,
				"element": "H" 
			},
			{
				"x": -1.2331427686,
				"y": -0.9213173256,
				"z": 4.2801330203,
				"element": "H" 
			},
			{
				"x": -3.6151098019,
				"y": 1.6694580026,
				"z": 1.4847535873,
				"element": "H" 
			},
			{
				"x": -3.4875797987,
				"y": 4.1486963865,
				"z": 1.3813765627,
				"element": "H" 
			},
			{
				"x": -1.2802479337,
				"y": 5.2911485371,
				"z": 1.4882327374,
				"element": "H" 
			},
			{
				"x": 0.7996799826,
				"y": 3.9346425451,
				"z": 1.6624289983,
				"element": "H" 
			},
			{
				"x": 0.6682154348,
				"y": 1.4576969818,
				"z": 1.7161497706,
				"element": "H" 
			},
			{
				"x": -1.778088216,
				"y": -2.5449365057,
				"z": -3.287173902,
				"element": "H" 
			},
			{
				"x": -1.7330098635,
				"y": -0.9746703692,
				"z": -4.1158249641,
				"element": "H" 
			},
			{
				"x": -2.5850004728,
				"y": -1.1482021805,
				"z": -2.5571353232,
				"element": "H" 
			},
			{
				"x": 2.8918734873,
				"y": 0.812438313,
				"z": 0.3697066786,
				"element": "H" 
			},
			{
				"x": 4.7223449145,
				"y": 2.4747538061,
				"z": 0.1525393853,
				"element": "H" 
			},
			{
				"x": 5.0612050283,
				"y": 3.6923499686,
				"z": -1.9913557922,
				"element": "H" 
			},
			{
				"x": 3.5670224013,
				"y": 3.2094145417,
				"z": -3.9229265361,
				"element": "H" 
			},
			{
				"x": 1.7650384504,
				"y": 1.5240312969,
				"z": -3.7125439242,
				"element": "H" 
			}
		],
		 "valence_orbital": [ 
			{
				"type": "occ",
				"energy": -0.23696,
				"method": "rhf"
			},
			{
				"type": "occ",
				"energy": -0.22328,
				"method": "rhf"
			},
			{
				"type": "occ",
				"energy": -0.21616,
				"method": "rhf"
			},
			{
				"type": "occ",
				"energy": -0.20867,
				"method": "rhf"
			},
			{
				"type": "occ",
				"energy": -0.1993,
				"method": "rhf"
			},
			{
				"type": "unocc",
				"energy": -0.03397,
				"method": "rhf"
			},
			{
				"type": "unocc",
				"energy": -0.02776,
				"method": "rhf"
			},
			{
				"type": "unocc",
				"energy": -0.01384,
				"method": "rhf"
			},
			{
				"type": "unocc",
				"energy": -0.01055,
				"method": "rhf"
			},
			{
				"type": "unocc",
				"energy": -0.00674,
				"method": "rhf"
			}
		],
		"cosmo_sigma_profile": { 
			"-0.025": 0.0,
			"-0.024": 0.0,
			"-0.023": 0.0,
			"-0.022": 0.0,
			"-0.021": 0.0,
			"-0.02": 0.0,
			"-0.019": 0.0,
			"-0.018": 0.0,
			"-0.017": 0.0,
			"-0.016": 0.0,
			"-0.015": 0.529030966163,
			"-0.014": 1.75681676746,
			"-0.013": 1.81207329226,
			"-0.012": 1.41896030037,
			"-0.011": 1.71215890517,
			"-0.01": 1.50379420296,
			"-0.009": 1.51274460192,
			"-0.008": 2.43832982612,
			"-0.007": 9.53463863985,
			"-0.006": 23.4409961004,
			"-0.005": 36.2961068971,
			"-0.004": 48.1707771808,
			"-0.003": 45.9286192509,
			"-0.002": 41.8958066008,
			"-0.001": 33.9498625441,
			"0.0": 26.768326275,
			"0.001": 28.9028597476,
			"0.002": 25.495166364,
			"0.003": 23.9037409356,
			"0.004": 22.1899187751,
			"0.005": 21.4222679985,
			"0.006": 10.2586151723,
			"0.007": 8.12901838144,
			"0.008": 8.93853298462,
			"0.009": 6.00300039633,
			"0.01": 9.53942961488,
			"0.011": 9.50411248866,
			"0.012": 6.55171110142,
			"0.013": 5.83046742586,
			"0.014": 2.34425472822,
			"0.015": 0.0,
			"0.016": 0.0,
			"0.017": 0.0,
			"0.018": 0.0,
			"0.019": 0.0,
			"0.02": 0.0,
			"0.021": 0.0,
			"0.022": 0.0,
			"0.023": 0.0,
			"0.024": 0.0,
			"0.025": 0.0
		}
	}
}
