{
	 "smiles": "O=C1NC(CNCC2=CC=CC=C2)=NC2=C1C=CC=C2", 
	 "Tm": 413.15, 
	 "num_atms": 35, 
	 "gaussian": { 
		 "optdone": 1, 
		 "sigma_profile": "yes", 
		 "theory": "DFT", 
		 "functional": "B3LYP", 
		 "basiset": "6-31G**", 
		 "properties": { 
			 "R2extent": 7073.0214, 
			 "electric_dipole_moment_norm": 1.78840662043, 
			 "electric_quadrupole_moment_norm": 15.0491206361, 
			 "total_energy": -858.251456567, 
			 "HOMO_LUMO_gap": 0.18469, 
			 "cosmo_polarized_energy": -14.47, 
			 "cosmo_cavitation_energy": 38.51, 
			 "cosmo_dispersion_energy": -27.05, 
			 "cosmo_repulsion_energy": 2.05, 
			 "cosmo_total_nonelectrostatic_energy": 13.51, 
			 "SMD_solvation_energy": 3.53 
		},
		"coords": [
			{
				"x": -1.0761673238,
				"y": 2.8317114793,
				"z": -1.1788857502,
				"element": "O" 
			},
			{
				"x": -1.6788092061,
				"y": 1.8432794628,
				"z": -0.7819544521,
				"element": "C" 
			},
			{
				"x": -1.0271729939,
				"y": 0.865233605,
				"z": -0.0155489509,
				"element": "N" 
			},
			{
				"x": -1.6159643259,
				"y": -0.2909113623,
				"z": 0.4464468453,
				"element": "C" 
			},
			{
				"x": -0.7214232845,
				"y": -1.273066834,
				"z": 1.1834328287,
				"element": "C" 
			},
			{
				"x": -0.1311174942,
				"y": -2.3196819582,
				"z": 0.3446464987,
				"element": "N" 
			},
			{
				"x": 0.7293468066,
				"y": -1.8584256776,
				"z": -0.7519537878,
				"element": "C" 
			},
			{
				"x": 1.976343006,
				"y": -1.155710987,
				"z": -0.2458680882,
				"element": "C" 
			},
			{
				"x": 2.38946941,
				"y": 0.0602572492,
				"z": -0.8051272159,
				"element": "C" 
			},
			{
				"x": 3.549782096,
				"y": 0.697093428,
				"z": -0.35410472,
				"element": "C" 
			},
			{
				"x": 4.3073340361,
				"y": 0.1247354533,
				"z": 0.6672423267,
				"element": "C" 
			},
			{
				"x": 3.8998041211,
				"y": -1.0862991468,
				"z": 1.2351451407,
				"element": "C" 
			},
			{
				"x": 2.7439103997,
				"y": -1.7210642023,
				"z": 0.7830048092,
				"element": "C" 
			},
			{
				"x": -2.8591394861,
				"y": -0.5910534276,
				"z": 0.2317501503,
				"element": "N" 
			},
			{
				"x": -3.6198687654,
				"y": 0.3118943482,
				"z": -0.5021419382,
				"element": "C" 
			},
			{
				"x": -3.089486235,
				"y": 1.5196772847,
				"z": -1.0195646587,
				"element": "C" 
			},
			{
				"x": -3.8998139828,
				"y": 2.3977343209,
				"z": -1.7563076624,
				"element": "C" 
			},
			{
				"x": -5.2320044289,
				"y": 2.0867006652,
				"z": -1.9808301237,
				"element": "C" 
			},
			{
				"x": -5.7667444163,
				"y": 0.8899821018,
				"z": -1.4695713511,
				"element": "C" 
			},
			{
				"x": -4.9763488553,
				"y": 0.0139741933,
				"z": -0.7413644038,
				"element": "C" 
			},
			{
				"x": -0.0435143329,
				"y": 1.0379958642,
				"z": 0.165142835,
				"element": "H" 
			},
			{
				"x": 0.0881058913,
				"y": -0.7363284772,
				"z": 1.6899558221,
				"element": "H" 
			},
			{
				"x": -1.3333254059,
				"y": -1.7598443305,
				"z": 1.9462734347,
				"element": "H" 
			},
			{
				"x": -0.8779422022,
				"y": -2.8977508824,
				"z": -0.0315849111,
				"element": "H" 
			},
			{
				"x": 1.0203936974,
				"y": -2.7548648443,
				"z": -1.3144333793,
				"element": "H" 
			},
			{
				"x": 0.2169798838,
				"y": -1.196816516,
				"z": -1.4706840789,
				"element": "H" 
			},
			{
				"x": 1.805005264,
				"y": 0.5107196482,
				"z": -1.6046785203,
				"element": "H" 
			},
			{
				"x": 3.8546924546,
				"y": 1.6398560264,
				"z": -0.7991185686,
				"element": "H" 
			},
			{
				"x": 5.2075605383,
				"y": 0.6183231533,
				"z": 1.0218831315,
				"element": "H" 
			},
			{
				"x": 4.485584352,
				"y": -1.5360901901,
				"z": 2.0321098603,
				"element": "H" 
			},
			{
				"x": 2.4162752333,
				"y": -2.6557583132,
				"z": 1.2283848456,
				"element": "H" 
			},
			{
				"x": -3.4536433997,
				"y": 3.3114354393,
				"z": -2.1352486523,
				"element": "H" 
			},
			{
				"x": -5.8628055832,
				"y": 2.7634191013,
				"z": -2.5490695772,
				"element": "H" 
			},
			{
				"x": -6.8112007672,
				"y": 0.6493373531,
				"z": -1.6472651781,
				"element": "H" 
			},
			{
				"x": -5.3736947009,
				"y": -0.912493028,
				"z": -0.34001256,
				"element": "H" 
			}
		],
		 "valence_orbital": [ 
			{
				"type": "occ",
				"energy": -0.25916,
				"method": "rhf"
			},
			{
				"type": "occ",
				"energy": -0.25594,
				"method": "rhf"
			},
			{
				"type": "occ",
				"energy": -0.25056,
				"method": "rhf"
			},
			{
				"type": "occ",
				"energy": -0.24012,
				"method": "rhf"
			},
			{
				"type": "occ",
				"energy": -0.22434,
				"method": "rhf"
			},
			{
				"type": "unocc",
				"energy": -0.03965,
				"method": "rhf"
			},
			{
				"type": "unocc",
				"energy": -0.03623,
				"method": "rhf"
			},
			{
				"type": "unocc",
				"energy": -0.0106,
				"method": "rhf"
			},
			{
				"type": "unocc",
				"energy": -0.00853,
				"method": "rhf"
			},
			{
				"type": "unocc",
				"energy": 0.02762,
				"method": "rhf"
			}
		],
		"cosmo_sigma_profile": { 
			"-0.025": 0.0,
			"-0.024": 0.0,
			"-0.023": 0.0,
			"-0.022": 0.0,
			"-0.021": 0.0,
			"-0.02": 0.0,
			"-0.019": 0.0,
			"-0.018": 0.0,
			"-0.017": 0.0,
			"-0.016": 0.0,
			"-0.015": 0.0,
			"-0.014": 0.0,
			"-0.013": 0.140188303769,
			"-0.012": 1.02999374554,
			"-0.011": 1.19363689531,
			"-0.01": 2.56567674883,
			"-0.009": 1.94119803121,
			"-0.008": 2.41836831719,
			"-0.007": 3.76449203971,
			"-0.006": 15.0313996866,
			"-0.005": 27.6005049517,
			"-0.004": 30.214386569,
			"-0.003": 30.1739201954,
			"-0.002": 22.4752630522,
			"-0.001": 20.6511213216,
			"0.0": 17.9915885565,
			"0.001": 17.9969566974,
			"0.002": 20.4898543171,
			"0.003": 24.1833263416,
			"0.004": 19.1666001742,
			"0.005": 10.7229396448,
			"0.006": 9.19132635318,
			"0.007": 2.8566538523,
			"0.008": 3.37485478507,
			"0.009": 3.3584760877,
			"0.01": 2.46623760318,
			"0.011": 3.2305973485,
			"0.012": 4.24515848303,
			"0.013": 6.5435059542,
			"0.014": 1.79124446677,
			"0.015": 0.2741143454,
			"0.016": 0.0,
			"0.017": 0.0,
			"0.018": 0.0,
			"0.019": 0.0,
			"0.02": 0.0,
			"0.021": 0.0,
			"0.022": 0.0,
			"0.023": 0.0,
			"0.024": 0.0,
			"0.025": 0.0
		}
	}
}
