{
	 "smiles": "O=C1N(CCCCN2CCN(CC2)C2=NC=CC=N2)S(=O)(=O)C2=CC=CC=C12", 
	 "Tm": 410.15, 
	 "num_atms": 51, 
	 "gaussian": { 
		 "optdone": 1, 
		 "sigma_profile": "yes", 
		 "theory": "DFT", 
		 "functional": "B3LYP", 
		 "basiset": "6-31G**", 
		 "properties": { 
			 "R2extent": 17227.7842, 
			 "electric_dipole_moment_norm": 3.6047431878, 
			 "electric_quadrupole_moment_norm": 32.3526075566, 
			 "total_energy": -1635.43389533, 
			 "HOMO_LUMO_gap": 0.12494, 
			 "cosmo_polarized_energy": -20.05, 
			 "cosmo_cavitation_energy": 54.05, 
			 "cosmo_dispersion_energy": -37.65, 
			 "cosmo_repulsion_energy": 2.77, 
			 "cosmo_total_nonelectrostatic_energy": 19.16, 
			 "SMD_solvation_energy": 3.97 
		},
		"coords": [
			{
				"x": 1.1890357176,
				"y": 4.3885021891,
				"z": 2.2823827937,
				"element": "O" 
			},
			{
				"x": 1.9474953153,
				"y": 3.7836488079,
				"z": 1.546297858,
				"element": "C" 
			},
			{
				"x": 1.6303907026,
				"y": 3.362839388,
				"z": 0.2570425535,
				"element": "N" 
			},
			{
				"x": 0.3978120623,
				"y": 3.7573815866,
				"z": -0.4430841252,
				"element": "C" 
			},
			{
				"x": -0.541279012,
				"y": 2.588016477,
				"z": -0.7608117952,
				"element": "C" 
			},
			{
				"x": -1.0150876448,
				"y": 1.8167651576,
				"z": 0.4751611957,
				"element": "C" 
			},
			{
				"x": -1.9886378328,
				"y": 0.6774800085,
				"z": 0.1393523911,
				"element": "C" 
			},
			{
				"x": -1.4339519545,
				"y": -0.2899316922,
				"z": -0.8050063835,
				"element": "N" 
			},
			{
				"x": -2.4313990924,
				"y": -1.1674263544,
				"z": -1.4360034293,
				"element": "C" 
			},
			{
				"x": -2.5520766873,
				"y": -2.5517111383,
				"z": -0.790197841,
				"element": "C" 
			},
			{
				"x": -1.2474291655,
				"y": -3.215049291,
				"z": -0.8470723417,
				"element": "N" 
			},
			{
				"x": -0.067333642,
				"y": -2.3565649547,
				"z": -0.9750295285,
				"element": "C" 
			},
			{
				"x": -0.2973700128,
				"y": -1.0371476057,
				"z": -0.2420361437,
				"element": "C" 
			},
			{
				"x": -1.1440958356,
				"y": -4.56984047,
				"z": -0.7398090681,
				"element": "C" 
			},
			{
				"x": -2.2953001246,
				"y": -5.2594592362,
				"z": -0.5489787269,
				"element": "N" 
			},
			{
				"x": -2.1764625539,
				"y": -6.5824750644,
				"z": -0.4562674719,
				"element": "C" 
			},
			{
				"x": -0.9547240923,
				"y": -7.2503918388,
				"z": -0.5340026304,
				"element": "C" 
			},
			{
				"x": 0.1628771376,
				"y": -6.4370416826,
				"z": -0.7235313251,
				"element": "C" 
			},
			{
				"x": 0.0941262497,
				"y": -5.1125141076,
				"z": -0.8336755629,
				"element": "N" 
			},
			{
				"x": 2.9172649597,
				"y": 2.5960595694,
				"z": -0.5902396569,
				"element": "S" 
			},
			{
				"x": 3.3212218078,
				"y": 3.4407501055,
				"z": -1.7153802201,
				"element": "O" 
			},
			{
				"x": 2.5926657075,
				"y": 1.189254465,
				"z": -0.8380722713,
				"element": "O" 
			},
			{
				"x": 4.0096058368,
				"y": 2.7555786379,
				"z": 0.8132137861,
				"element": "C" 
			},
			{
				"x": 5.3222326334,
				"y": 2.3145134981,
				"z": 0.9100730683,
				"element": "C" 
			},
			{
				"x": 5.9815525519,
				"y": 2.538317758,
				"z": 2.123670869,
				"element": "C" 
			},
			{
				"x": 5.3338183602,
				"y": 3.1758612028,
				"z": 3.1895602554,
				"element": "C" 
			},
			{
				"x": 4.0102857465,
				"y": 3.6065087843,
				"z": 3.0701847836,
				"element": "C" 
			},
			{
				"x": 3.3504671143,
				"y": 3.3873961631,
				"z": 1.8642878959,
				"element": "C" 
			},
			{
				"x": -0.0796247083,
				"y": 4.4770370562,
				"z": 0.2279517732,
				"element": "H" 
			},
			{
				"x": 0.686794847,
				"y": 4.2838230077,
				"z": -1.3594453009,
				"element": "H" 
			},
			{
				"x": -0.0647704976,
				"y": 1.8960837052,
				"z": -1.461288552,
				"element": "H" 
			},
			{
				"x": -1.4071920895,
				"y": 3.009842075,
				"z": -1.2889103198,
				"element": "H" 
			},
			{
				"x": -1.5163552205,
				"y": 2.4973972025,
				"z": 1.1755196651,
				"element": "H" 
			},
			{
				"x": -0.1471402257,
				"y": 1.4173084641,
				"z": 1.0121512869,
				"element": "H" 
			},
			{
				"x": -2.8878333952,
				"y": 1.1102019377,
				"z": -0.3160060176,
				"element": "H" 
			},
			{
				"x": -2.3080871476,
				"y": 0.2002296641,
				"z": 1.0884615597,
				"element": "H" 
			},
			{
				"x": -3.4077976573,
				"y": -0.6747019897,
				"z": -1.409129937,
				"element": "H" 
			},
			{
				"x": -2.1786544617,
				"y": -1.3033802475,
				"z": -2.4965886008,
				"element": "H" 
			},
			{
				"x": -2.9011417875,
				"y": -2.4682699812,
				"z": 0.2497594653,
				"element": "H" 
			},
			{
				"x": -3.2882617401,
				"y": -3.160971703,
				"z": -1.3202940481,
				"element": "H" 
			},
			{
				"x": 0.788692874,
				"y": -2.8798428583,
				"z": -0.5492764229,
				"element": "H" 
			},
			{
				"x": 0.1658694211,
				"y": -2.165157649,
				"z": -2.0321670198,
				"element": "H" 
			},
			{
				"x": -0.462080732,
				"y": -1.2640279523,
				"z": 0.8290269967,
				"element": "H" 
			},
			{
				"x": 0.615678862,
				"y": -0.4357089963,
				"z": -0.309865973,
				"element": "H" 
			},
			{
				"x": -3.104891254,
				"y": -7.1340880219,
				"z": -0.3079560237,
				"element": "H" 
			},
			{
				"x": -0.8783997146,
				"y": -8.3279507025,
				"z": -0.4522447154,
				"element": "H" 
			},
			{
				"x": 1.1611327996,
				"y": -6.8690421539,
				"z": -0.7946824039,
				"element": "H" 
			},
			{
				"x": 5.8179467059,
				"y": 1.8198560399,
				"z": 0.0817103152,
				"element": "H" 
			},
			{
				"x": 7.0104517354,
				"y": 2.2117533827,
				"z": 2.2383449715,
				"element": "H" 
			},
			{
				"x": 5.8693166913,
				"y": 3.3361289498,
				"z": 4.1201453424,
				"element": "H" 
			},
			{
				"x": 3.4906424424,
				"y": 4.1019604075,
				"z": 3.8834550305,
				"element": "H" 
			}
		],
		 "valence_orbital": [ 
			{
				"type": "occ",
				"energy": -0.28341,
				"method": "rhf"
			},
			{
				"type": "occ",
				"energy": -0.27263,
				"method": "rhf"
			},
			{
				"type": "occ",
				"energy": -0.23313,
				"method": "rhf"
			},
			{
				"type": "occ",
				"energy": -0.20241,
				"method": "rhf"
			},
			{
				"type": "occ",
				"energy": -0.20003,
				"method": "rhf"
			},
			{
				"type": "unocc",
				"energy": -0.07509,
				"method": "rhf"
			},
			{
				"type": "unocc",
				"energy": -0.05061,
				"method": "rhf"
			},
			{
				"type": "unocc",
				"energy": -0.02135,
				"method": "rhf"
			},
			{
				"type": "unocc",
				"energy": 0.01222,
				"method": "rhf"
			},
			{
				"type": "unocc",
				"energy": 0.03033,
				"method": "rhf"
			}
		],
		"cosmo_sigma_profile": { 
			"-0.025": 0.0,
			"-0.024": 0.0,
			"-0.023": 0.0,
			"-0.022": 0.0,
			"-0.021": 0.0,
			"-0.02": 0.0,
			"-0.019": 0.0,
			"-0.018": 0.0,
			"-0.017": 0.0,
			"-0.016": 0.0,
			"-0.015": 0.0,
			"-0.014": 0.0,
			"-0.013": 0.0,
			"-0.012": 0.0,
			"-0.011": 0.0180839664094,
			"-0.01": 1.01300803692,
			"-0.009": 2.71057622712,
			"-0.008": 6.97096192064,
			"-0.007": 12.894079975,
			"-0.006": 17.6532857831,
			"-0.005": 21.4974855948,
			"-0.004": 33.4627019025,
			"-0.003": 46.6826903009,
			"-0.002": 47.1046281311,
			"-0.001": 40.0185920916,
			"0.0": 36.220156126,
			"0.001": 33.5115148287,
			"0.002": 25.6431627352,
			"0.003": 16.4012060158,
			"0.004": 12.0887253816,
			"0.005": 9.38862077348,
			"0.006": 7.59150037344,
			"0.007": 9.52266177799,
			"0.008": 9.48787218548,
			"0.009": 12.0870809051,
			"0.01": 12.2760904282,
			"0.011": 8.58699846984,
			"0.012": 3.73371580642,
			"0.013": 1.10948376476,
			"0.014": 0.273208631971,
			"0.015": 0.0,
			"0.016": 0.0,
			"0.017": 0.0,
			"0.018": 0.0,
			"0.019": 0.0,
			"0.02": 0.0,
			"0.021": 0.0,
			"0.022": 0.0,
			"0.023": 0.0,
			"0.024": 0.0,
			"0.025": 0.0
		}
	}
}
