{
	 "smiles": "NC1=NN=NN1", 
	 "Tm": 475.15, 
	 "num_atms": 9, 
	 "gaussian": { 
		 "optdone": 1, 
		 "sigma_profile": "yes", 
		 "theory": "DFT", 
		 "functional": "B3LYP", 
		 "basiset": "6-31G**", 
		 "properties": { 
			 "R2extent": 1033.1004, 
			 "electric_dipole_moment_norm": 6.17249590198, 
			 "electric_quadrupole_moment_norm": 16.9223256723, 
			 "total_energy": -313.611304971, 
			 "HOMO_LUMO_gap": 0.25073, 
			 "cosmo_polarized_energy": -22.03, 
			 "cosmo_cavitation_energy": 13.66, 
			 "cosmo_dispersion_energy": -10.6, 
			 "cosmo_repulsion_energy": 0.94, 
			 "cosmo_total_nonelectrostatic_energy": 4.01, 
			 "SMD_solvation_energy": 0.79 
		},
		"coords": [
			{
				"x": -1.4555933058,
				"y": 2.5727835633,
				"z": 0.0454452182,
				"element": "N" 
			},
			{
				"x": -1.3264918307,
				"y": 1.5042608269,
				"z": -0.8115894049,
				"element": "C" 
			},
			{
				"x": -1.2133103033,
				"y": 1.5651910455,
				"z": -2.1276782152,
				"element": "N" 
			},
			{
				"x": -1.0253438053,
				"y": 0.2795527711,
				"z": -2.542687636,
				"element": "N" 
			},
			{
				"x": -1.0293282625,
				"y": -0.5488738082,
				"z": -1.559823955,
				"element": "N" 
			},
			{
				"x": -1.2185284331,
				"y": 0.2106049997,
				"z": -0.4362656223,
				"element": "N" 
			},
			{
				"x": -1.6342246472,
				"y": 3.4334189864,
				"z": -0.4564555202,
				"element": "H" 
			},
			{
				"x": -2.0906590929,
				"y": 2.4429094503,
				"z": 0.8220822187,
				"element": "H" 
			},
			{
				"x": -1.2012203192,
				"y": -0.215047835,
				"z": 0.4780729167,
				"element": "H" 
			}
		],
		 "valence_orbital": [ 
			{
				"type": "occ",
				"energy": -0.36512,
				"method": "rhf"
			},
			{
				"type": "occ",
				"energy": -0.31885,
				"method": "rhf"
			},
			{
				"type": "occ",
				"energy": -0.29026,
				"method": "rhf"
			},
			{
				"type": "occ",
				"energy": -0.27952,
				"method": "rhf"
			},
			{
				"type": "occ",
				"energy": -0.25471,
				"method": "rhf"
			},
			{
				"type": "unocc",
				"energy": -0.00398,
				"method": "rhf"
			},
			{
				"type": "unocc",
				"energy": 0.03892,
				"method": "rhf"
			},
			{
				"type": "unocc",
				"energy": 0.05015,
				"method": "rhf"
			},
			{
				"type": "unocc",
				"energy": 0.07689,
				"method": "rhf"
			},
			{
				"type": "unocc",
				"energy": 0.11301,
				"method": "rhf"
			}
		],
		"cosmo_sigma_profile": { 
			"-0.025": 0.0,
			"-0.024": 0.0,
			"-0.023": 0.0,
			"-0.022": 0.0,
			"-0.021": 0.0,
			"-0.02": 0.0,
			"-0.019": 0.563580355767,
			"-0.018": 2.3589185193,
			"-0.017": 1.96005176009,
			"-0.016": 1.91525767631,
			"-0.015": 3.25613888228,
			"-0.014": 4.06712164037,
			"-0.013": 3.37316451439,
			"-0.012": 2.78092606152,
			"-0.011": 3.54591824293,
			"-0.01": 2.25969653548,
			"-0.009": 2.04323565926,
			"-0.008": 2.29126627569,
			"-0.007": 2.05654596742,
			"-0.006": 1.84130534537,
			"-0.005": 1.91850923859,
			"-0.004": 2.36433149588,
			"-0.003": 2.93793189588,
			"-0.002": 4.66248871878,
			"-0.001": 3.68382307414,
			"0.0": 3.50505305788,
			"0.001": 2.44661434258,
			"0.002": 3.07753012505,
			"0.003": 2.97188584152,
			"0.004": 3.02098575934,
			"0.005": 3.66727738068,
			"0.006": 2.94149537683,
			"0.007": 3.21711339135,
			"0.008": 4.80735939263,
			"0.009": 5.82493315905,
			"0.01": 5.72927057801,
			"0.011": 5.29549466529,
			"0.012": 5.31204259683,
			"0.013": 2.70896479585,
			"0.014": 2.92989695306,
			"0.015": 1.28750420769,
			"0.016": 0.423265086901,
			"0.017": 0.0,
			"0.018": 0.0,
			"0.019": 0.0,
			"0.02": 0.0,
			"0.021": 0.0,
			"0.022": 0.0,
			"0.023": 0.0,
			"0.024": 0.0,
			"0.025": 0.0
		}
	}
}
