{
	 "smiles": "CNC(C(O)=O)C1=CC=C(F)C=C1", 
	 "Tm": 550.15, 
	 "num_atms": 23, 
	 "gaussian": { 
		 "optdone": 1, 
		 "sigma_profile": "yes", 
		 "theory": "DFT", 
		 "functional": "B3LYP", 
		 "basiset": "6-31G**", 
		 "properties": { 
			 "R2extent": 4189.8997, 
			 "electric_dipole_moment_norm": 1.65813568805, 
			 "electric_quadrupole_moment_norm": 6.78955345439, 
			 "total_energy": -654.022290357, 
			 "HOMO_LUMO_gap": 0.21315, 
			 "cosmo_polarized_energy": -11.38, 
			 "cosmo_cavitation_energy": 27.75, 
			 "cosmo_dispersion_energy": -19.48, 
			 "cosmo_repulsion_energy": 1.54, 
			 "cosmo_total_nonelectrostatic_energy": 9.81, 
			 "SMD_solvation_energy": 4.32 
		},
		"coords": [
			{
				"x": 0.7908429501,
				"y": 1.6647563829,
				"z": 0.4043235615,
				"element": "C" 
			},
			{
				"x": 0.8370184429,
				"y": 0.5390640972,
				"z": -0.5281210169,
				"element": "N" 
			},
			{
				"x": -0.4611860969,
				"y": -0.0610803805,
				"z": -0.8054863155,
				"element": "C" 
			},
			{
				"x": -1.1094260278,
				"y": -0.6918603257,
				"z": 0.4365440409,
				"element": "C" 
			},
			{
				"x": -2.4588115719,
				"y": -0.6450166933,
				"z": 0.394492355,
				"element": "O" 
			},
			{
				"x": -0.495020692,
				"y": -1.1955267484,
				"z": 1.3539615006,
				"element": "O" 
			},
			{
				"x": -0.3432280285,
				"y": -1.112317988,
				"z": -1.9054577856,
				"element": "C" 
			},
			{
				"x": 0.1277807253,
				"y": -2.4025806427,
				"z": -1.6268310505,
				"element": "C" 
			},
			{
				"x": 0.2836185245,
				"y": -3.3434166926,
				"z": -2.6450977282,
				"element": "C" 
			},
			{
				"x": -0.0405506605,
				"y": -2.9786381072,
				"z": -3.9462302309,
				"element": "C" 
			},
			{
				"x": 0.1027751345,
				"y": -3.884224864,
				"z": -4.9360809519,
				"element": "F" 
			},
			{
				"x": -0.5120531878,
				"y": -1.7080903769,
				"z": -4.257688614,
				"element": "C" 
			},
			{
				"x": -0.6589030631,
				"y": -0.7797393403,
				"z": -3.2283707905,
				"element": "C" 
			},
			{
				"x": 1.8067765813,
				"y": 2.0394228732,
				"z": 0.5580013548,
				"element": "H" 
			},
			{
				"x": 0.2030983657,
				"y": 2.4771751074,
				"z": -0.0382193052,
				"element": "H" 
			},
			{
				"x": 0.3610308543,
				"y": 1.4270892253,
				"z": 1.3908547207,
				"element": "H" 
			},
			{
				"x": 1.4525251186,
				"y": -0.1828865368,
				"z": -0.160973333,
				"element": "H" 
			},
			{
				"x": -1.1342018153,
				"y": 0.7298598167,
				"z": -1.1546131751,
				"element": "H" 
			},
			{
				"x": -2.7764053036,
				"y": -1.098166142,
				"z": 1.1945931772,
				"element": "H" 
			},
			{
				"x": 0.3697107497,
				"y": -2.6795795419,
				"z": -0.6048927617,
				"element": "H" 
			},
			{
				"x": 0.6455597953,
				"y": -4.3457084977,
				"z": -2.4431141092,
				"element": "H" 
			},
			{
				"x": -0.7552889047,
				"y": -1.462997381,
				"z": -5.2858454357,
				"element": "H" 
			},
			{
				"x": -1.0193618901,
				"y": 0.2187627561,
				"z": -3.4588481069,
				"element": "H" 
			}
		],
		 "valence_orbital": [ 
			{
				"type": "occ",
				"energy": -0.32517,
				"method": "rhf"
			},
			{
				"type": "occ",
				"energy": -0.28647,
				"method": "rhf"
			},
			{
				"type": "occ",
				"energy": -0.26337,
				"method": "rhf"
			},
			{
				"type": "occ",
				"energy": -0.24428,
				"method": "rhf"
			},
			{
				"type": "occ",
				"energy": -0.2304,
				"method": "rhf"
			},
			{
				"type": "unocc",
				"energy": -0.01725,
				"method": "rhf"
			},
			{
				"type": "unocc",
				"energy": -0.01129,
				"method": "rhf"
			},
			{
				"type": "unocc",
				"energy": 0.01223,
				"method": "rhf"
			},
			{
				"type": "unocc",
				"energy": 0.0732,
				"method": "rhf"
			},
			{
				"type": "unocc",
				"energy": 0.08617,
				"method": "rhf"
			}
		],
		"cosmo_sigma_profile": { 
			"-0.025": 0.0,
			"-0.024": 0.0,
			"-0.023": 0.0,
			"-0.022": 0.0,
			"-0.021": 0.0,
			"-0.02": 0.0,
			"-0.019": 0.0,
			"-0.018": 0.949225733371,
			"-0.017": 0.784779845205,
			"-0.016": 0.993717606595,
			"-0.015": 1.05408882187,
			"-0.014": 0.399092160786,
			"-0.013": 0.632237222955,
			"-0.012": 0.632654678379,
			"-0.011": 1.13446820222,
			"-0.01": 0.825487031922,
			"-0.009": 1.36086733145,
			"-0.008": 1.90223408284,
			"-0.007": 8.34744357122,
			"-0.006": 10.7075097637,
			"-0.005": 12.8912626091,
			"-0.004": 14.4775216103,
			"-0.003": 14.8094458747,
			"-0.002": 15.0545077685,
			"-0.001": 16.4314967247,
			"0.0": 15.8551717091,
			"0.001": 15.4994641695,
			"0.002": 14.3402909174,
			"0.003": 17.0485387036,
			"0.004": 19.6253757466,
			"0.005": 7.21478821584,
			"0.006": 3.10095187403,
			"0.007": 3.61392668842,
			"0.008": 4.56389692112,
			"0.009": 2.98791071781,
			"0.01": 2.42619863397,
			"0.011": 3.94948025054,
			"0.012": 3.73707589729,
			"0.013": 0.627066809066,
			"0.014": 0.512325459358,
			"0.015": 0.598264633722,
			"0.016": 0.465797291393,
			"0.017": 0.187636505351,
			"0.018": 0.0,
			"0.019": 0.0,
			"0.02": 0.0,
			"0.021": 0.0,
			"0.022": 0.0,
			"0.023": 0.0,
			"0.024": 0.0,
			"0.025": 0.0
		}
	}
}
