{
	 "smiles": "CC1=CC=C(CN2C(CCC2=O)C(O)=O)C=C1", 
	 "Tm": 402.15, 
	 "num_atms": 32, 
	 "gaussian": { 
		 "optdone": 1, 
		 "sigma_profile": "yes", 
		 "theory": "DFT", 
		 "functional": "B3LYP", 
		 "basiset": "6-31G**", 
		 "properties": { 
			 "R2extent": 4497.0755, 
			 "electric_dipole_moment_norm": 1.98596321466, 
			 "electric_quadrupole_moment_norm": 20.5360900424, 
			 "total_energy": -784.888349292, 
			 "HOMO_LUMO_gap": 0.22147, 
			 "cosmo_polarized_energy": -16.35, 
			 "cosmo_cavitation_energy": 34.94, 
			 "cosmo_dispersion_energy": -23.84, 
			 "cosmo_repulsion_energy": 1.87, 
			 "cosmo_total_nonelectrostatic_energy": 12.98, 
			 "SMD_solvation_energy": 6.81 
		},
		"coords": [
			{
				"x": -3.8935404613,
				"y": 1.5956043227,
				"z": 1.193550284,
				"element": "C" 
			},
			{
				"x": -2.9036799466,
				"y": 0.5057838341,
				"z": 0.8541970287,
				"element": "C" 
			},
			{
				"x": -2.5164131517,
				"y": 0.2754562067,
				"z": -0.4759352843,
				"element": "C" 
			},
			{
				"x": -1.6276609891,
				"y": -0.7446209358,
				"z": -0.8020501112,
				"element": "C" 
			},
			{
				"x": -1.0920110633,
				"y": -1.5695881656,
				"z": 0.1988022153,
				"element": "C" 
			},
			{
				"x": -0.1202309678,
				"y": -2.6774104484,
				"z": -0.1659534459,
				"element": "C" 
			},
			{
				"x": 1.2079314599,
				"y": -2.2154857942,
				"z": -0.5646808871,
				"element": "N" 
			},
			{
				"x": 2.2168230718,
				"y": -1.7677452521,
				"z": 0.3802721178,
				"element": "C" 
			},
			{
				"x": 3.5046182681,
				"y": -1.7079809512,
				"z": -0.4937363564,
				"element": "C" 
			},
			{
				"x": 2.9815952762,
				"y": -1.5024080571,
				"z": -1.9229939028,
				"element": "C" 
			},
			{
				"x": 1.5544115239,
				"y": -2.0446911502,
				"z": -1.8861587901,
				"element": "C" 
			},
			{
				"x": 0.8279835339,
				"y": -2.2819480948,
				"z": -2.8387280162,
				"element": "O" 
			},
			{
				"x": 1.9078780433,
				"y": -0.4148348421,
				"z": 1.0280077933,
				"element": "C" 
			},
			{
				"x": 1.6069481141,
				"y": 0.5324073685,
				"z": 0.112180705,
				"element": "O" 
			},
			{
				"x": 1.9670076261,
				"y": -0.1972421915,
				"z": 2.2170364445,
				"element": "O" 
			},
			{
				"x": -1.4705690064,
				"y": -1.3429312727,
				"z": 1.524507023,
				"element": "C" 
			},
			{
				"x": -2.3636463542,
				"y": -0.317972256,
				"z": 1.8471768235,
				"element": "C" 
			},
			{
				"x": -4.9198591628,
				"y": 1.2863555349,
				"z": 0.9593835555,
				"element": "H" 
			},
			{
				"x": -3.8625167813,
				"y": 1.8480385894,
				"z": 2.2573652531,
				"element": "H" 
			},
			{
				"x": -3.6961728442,
				"y": 2.509015016,
				"z": 0.6226862129,
				"element": "H" 
			},
			{
				"x": -2.9224356558,
				"y": 0.9033229337,
				"z": -1.2658885648,
				"element": "H" 
			},
			{
				"x": -1.3371120575,
				"y": -0.9103174726,
				"z": -1.8358625844,
				"element": "H" 
			},
			{
				"x": -0.4995670951,
				"y": -3.2427545397,
				"z": -1.0218435734,
				"element": "H" 
			},
			{
				"x": -0.0031852957,
				"y": -3.3680465504,
				"z": 0.6772153073,
				"element": "H" 
			},
			{
				"x": 2.3169160764,
				"y": -2.4731246322,
				"z": 1.2109933979,
				"element": "H" 
			},
			{
				"x": 4.0217165626,
				"y": -2.6680095531,
				"z": -0.4091896901,
				"element": "H" 
			},
			{
				"x": 4.1934244571,
				"y": -0.9286529832,
				"z": -0.1600762991,
				"element": "H" 
			},
			{
				"x": 2.9308083115,
				"y": -0.4430222482,
				"z": -2.1946852204,
				"element": "H" 
			},
			{
				"x": 3.5630110207,
				"y": -2.0178459541,
				"z": -2.6902786561,
				"element": "H" 
			},
			{
				"x": 1.4093667797,
				"y": 1.3450430815,
				"z": 0.6072993174,
				"element": "H" 
			},
			{
				"x": -1.0633604634,
				"y": -1.9672183983,
				"z": 2.316452027,
				"element": "H" 
			},
			{
				"x": -2.6421788289,
				"y": -0.1582751441,
				"z": 2.8859358762,
				"element": "H" 
			}
		],
		 "valence_orbital": [ 
			{
				"type": "occ",
				"energy": -0.29071,
				"method": "rhf"
			},
			{
				"type": "occ",
				"energy": -0.25224,
				"method": "rhf"
			},
			{
				"type": "occ",
				"energy": -0.24754,
				"method": "rhf"
			},
			{
				"type": "occ",
				"energy": -0.24189,
				"method": "rhf"
			},
			{
				"type": "occ",
				"energy": -0.23359,
				"method": "rhf"
			},
			{
				"type": "unocc",
				"energy": -0.01212,
				"method": "rhf"
			},
			{
				"type": "unocc",
				"energy": -0.00051,
				"method": "rhf"
			},
			{
				"type": "unocc",
				"energy": 0.00619,
				"method": "rhf"
			},
			{
				"type": "unocc",
				"energy": 0.02957,
				"method": "rhf"
			},
			{
				"type": "unocc",
				"energy": 0.06374,
				"method": "rhf"
			}
		],
		"cosmo_sigma_profile": { 
			"-0.025": 0.0,
			"-0.024": 0.0,
			"-0.023": 0.0,
			"-0.022": 0.0,
			"-0.021": 0.0,
			"-0.02": 0.0,
			"-0.019": 0.110275257553,
			"-0.018": 0.963730653525,
			"-0.017": 0.947646449745,
			"-0.016": 0.396398308427,
			"-0.015": 1.0864008922,
			"-0.014": 0.748812738558,
			"-0.013": 0.543106002303,
			"-0.012": 0.4865755654,
			"-0.011": 1.17338797096,
			"-0.01": 0.266736656167,
			"-0.009": 0.334298872982,
			"-0.008": 0.670926399489,
			"-0.007": 4.11741522233,
			"-0.006": 13.5127448132,
			"-0.005": 22.4925453395,
			"-0.004": 27.6267199817,
			"-0.003": 28.08616864,
			"-0.002": 24.2998148648,
			"-0.001": 21.0578296529,
			"0.0": 19.6760351569,
			"0.001": 14.8897620678,
			"0.002": 11.8656059928,
			"0.003": 11.3817781192,
			"0.004": 13.5156210246,
			"0.005": 13.8580601265,
			"0.006": 9.01905466105,
			"0.007": 3.27326506942,
			"0.008": 3.13452544821,
			"0.009": 3.12068516921,
			"0.01": 4.09007759377,
			"0.011": 5.2217888813,
			"0.012": 4.98706945644,
			"0.013": 4.20000052094,
			"0.014": 3.18215871816,
			"0.015": 0.725168079962,
			"0.016": 0.0,
			"0.017": 0.0,
			"0.018": 0.0,
			"0.019": 0.0,
			"0.02": 0.0,
			"0.021": 0.0,
			"0.022": 0.0,
			"0.023": 0.0,
			"0.024": 0.0,
			"0.025": 0.0
		}
	}
}
