{
	 "smiles": "OC1=C(Br)C=C(Br)C(Br)=C1Br", 
	 "Tm": 387.15, 
	 "num_atms": 13, 
	 "gaussian": { 
		 "optdone": 1, 
		 "sigma_profile": "yes", 
		 "theory": "DFT", 
		 "functional": "B3LYP", 
		 "basiset": "6-31G**", 
		 "properties": { 
			 "R2extent": 7527.3208, 
			 "electric_dipole_moment_norm": 1.04624483272, 
			 "electric_quadrupole_moment_norm": 10.0066492654, 
			 "total_energy": -10590.6648839, 
			 "HOMO_LUMO_gap": 0.17914, 
			 "cosmo_polarized_energy": -6.04, 
			 "cosmo_cavitation_energy": 26.39, 
			 "cosmo_dispersion_energy": -21.37, 
			 "cosmo_repulsion_energy": 1.7, 
			 "cosmo_total_nonelectrostatic_energy": 6.72, 
			 "SMD_solvation_energy": 0.71 
		},
		"coords": [
			{
				"x": -1.590818018,
				"y": -1.1260942631,
				"z": 3.2936707024,
				"element": "O" 
			},
			{
				"x": -1.2705742216,
				"y": -0.4520807585,
				"z": 2.1743320222,
				"element": "C" 
			},
			{
				"x": -1.4153980889,
				"y": -1.0934289933,
				"z": 0.9342356188,
				"element": "C" 
			},
			{
				"x": -2.0537878787,
				"y": -2.8789570848,
				"z": 0.873447238,
				"element": "Br" 
			},
			{
				"x": -1.0974829593,
				"y": -0.4377595819,
				"z": -0.2463001769,
				"element": "C" 
			},
			{
				"x": -0.6264902141,
				"y": 0.8748234955,
				"z": -0.2253688303,
				"element": "C" 
			},
			{
				"x": -0.217861464,
				"y": 1.6888943246,
				"z": -1.8929703001,
				"element": "Br" 
			},
			{
				"x": -0.4692219474,
				"y": 1.5466809659,
				"z": 0.9935647972,
				"element": "C" 
			},
			{
				"x": 0.1676802497,
				"y": 3.3268748985,
				"z": 1.0476171171,
				"element": "Br" 
			},
			{
				"x": -0.7943672919,
				"y": 0.8718287278,
				"z": 2.1792336406,
				"element": "C" 
			},
			{
				"x": -0.6143989627,
				"y": 1.7010236507,
				"z": 3.8888838083,
				"element": "Br" 
			},
			{
				"x": -1.4364134243,
				"y": -0.549420968,
				"z": 4.060976504,
				"element": "H" 
			},
			{
				"x": -1.2160657788,
				"y": -0.9495844135,
				"z": -1.1924221412,
				"element": "H" 
			}
		],
		 "valence_orbital": [ 
			{
				"type": "occ",
				"energy": -0.29788,
				"method": "rhf"
			},
			{
				"type": "occ",
				"energy": -0.29528,
				"method": "rhf"
			},
			{
				"type": "occ",
				"energy": -0.28295,
				"method": "rhf"
			},
			{
				"type": "occ",
				"energy": -0.25887,
				"method": "rhf"
			},
			{
				"type": "occ",
				"energy": -0.23986,
				"method": "rhf"
			},
			{
				"type": "unocc",
				"energy": -0.06072,
				"method": "rhf"
			},
			{
				"type": "unocc",
				"energy": -0.0464,
				"method": "rhf"
			},
			{
				"type": "unocc",
				"energy": -0.02995,
				"method": "rhf"
			},
			{
				"type": "unocc",
				"energy": -0.00065,
				"method": "rhf"
			},
			{
				"type": "unocc",
				"energy": 0.00789,
				"method": "rhf"
			}
		],
		"cosmo_sigma_profile": { 
			"-0.025": 0.0,
			"-0.024": 0.0,
			"-0.023": 0.0,
			"-0.022": 0.0,
			"-0.021": 0.0,
			"-0.02": 0.0,
			"-0.019": 0.0,
			"-0.018": 0.0,
			"-0.017": 0.0,
			"-0.016": 0.122910607816,
			"-0.015": 0.471470578808,
			"-0.014": 0.871874396804,
			"-0.013": 0.580042553179,
			"-0.012": 0.695053438813,
			"-0.011": 1.00065429919,
			"-0.01": 0.972234065743,
			"-0.009": 1.68105856901,
			"-0.008": 2.51798821736,
			"-0.007": 2.88128589656,
			"-0.006": 5.80745841275,
			"-0.005": 8.6275457617,
			"-0.004": 9.88663662348,
			"-0.003": 11.5545374672,
			"-0.002": 15.9723620652,
			"-0.001": 28.452840001,
			"0.0": 27.0477058821,
			"0.001": 19.2014438982,
			"0.002": 22.6229287478,
			"0.003": 32.9468571311,
			"0.004": 19.0291690037,
			"0.005": 4.1502463343,
			"0.006": 2.03322544779,
			"0.007": 1.44126319439,
			"0.008": 2.36471275976,
			"0.009": 2.34999876789,
			"0.01": 0.270693149386,
			"0.011": 0.0,
			"0.012": 0.0,
			"0.013": 0.0,
			"0.014": 0.0,
			"0.015": 0.0,
			"0.016": 0.0,
			"0.017": 0.0,
			"0.018": 0.0,
			"0.019": 0.0,
			"0.02": 0.0,
			"0.021": 0.0,
			"0.022": 0.0,
			"0.023": 0.0,
			"0.024": 0.0,
			"0.025": 0.0
		}
	}
}
