{
	 "smiles": "BrC1=C(CC2=NNN=N2)C=CC=C1", 
	 "Tm": 409.15, 
	 "num_atms": 20, 
	 "gaussian": { 
		 "optdone": 1, 
		 "sigma_profile": "yes", 
		 "theory": "DFT", 
		 "functional": "B3LYP", 
		 "basiset": "6-31G**", 
		 "properties": { 
			 "R2extent": 4219.532, 
			 "electric_dipole_moment_norm": 1.45090089944, 
			 "electric_quadrupole_moment_norm": 14.03145121, 
			 "total_energy": -3099.4296073, 
			 "HOMO_LUMO_gap": 0.20929, 
			 "cosmo_polarized_energy": -12.26, 
			 "cosmo_cavitation_energy": 26.98, 
			 "cosmo_dispersion_energy": -20.2, 
			 "cosmo_repulsion_energy": 1.6, 
			 "cosmo_total_nonelectrostatic_energy": 8.39, 
			 "SMD_solvation_energy": 1.05 
		},
		"coords": [
			{
				"x": 1.2443043941,
				"y": -0.0749107232,
				"z": -3.3280822149,
				"element": "Br" 
			},
			{
				"x": 1.0159817916,
				"y": 0.9420119819,
				"z": -1.7128416996,
				"element": "C" 
			},
			{
				"x": -0.2365004917,
				"y": 1.0639880982,
				"z": -1.0961671672,
				"element": "C" 
			},
			{
				"x": -1.50556486,
				"y": 0.4267232449,
				"z": -1.6477961879,
				"element": "C" 
			},
			{
				"x": -2.2807990272,
				"y": -0.3546108376,
				"z": -0.6318697372,
				"element": "C" 
			},
			{
				"x": -2.2234186793,
				"y": -1.6797664815,
				"z": -0.5086827891,
				"element": "N" 
			},
			{
				"x": -3.0574016601,
				"y": -1.8767422147,
				"z": 0.5073987201,
				"element": "N" 
			},
			{
				"x": -3.6112366809,
				"y": -0.7746970059,
				"z": 0.9993533902,
				"element": "N" 
			},
			{
				"x": -3.1253582503,
				"y": 0.2054768935,
				"z": 0.2801032114,
				"element": "N" 
			},
			{
				"x": -0.3016831509,
				"y": 1.8410832771,
				"z": 0.0719249239,
				"element": "C" 
			},
			{
				"x": 0.8259537469,
				"y": 2.4615834663,
				"z": 0.6027485799,
				"element": "C" 
			},
			{
				"x": 2.0612089142,
				"y": 2.3183943613,
				"z": -0.030793611,
				"element": "C" 
			},
			{
				"x": 2.1565989204,
				"y": 1.5576596158,
				"z": -1.1934227561,
				"element": "C" 
			},
			{
				"x": -2.1594167543,
				"y": 1.2149295029,
				"z": -2.0389325854,
				"element": "H" 
			},
			{
				"x": -1.2611258272,
				"y": -0.236622557,
				"z": -2.4772561313,
				"element": "H" 
			},
			{
				"x": -3.2670084156,
				"y": -2.7956733706,
				"z": 0.8734812954,
				"element": "H" 
			},
			{
				"x": -1.2631730664,
				"y": 1.9480551898,
				"z": 0.5658994376,
				"element": "H" 
			},
			{
				"x": 0.7392483951,
				"y": 3.0548306584,
				"z": 1.5079714248,
				"element": "H" 
			},
			{
				"x": 2.9491366724,
				"y": 2.7958464855,
				"z": 0.372628663,
				"element": "H" 
			},
			{
				"x": 3.1071540293,
				"y": 1.4368404149,
				"z": -1.7000647668,
				"element": "H" 
			}
		],
		 "valence_orbital": [ 
			{
				"type": "occ",
				"energy": -0.29839,
				"method": "rhf"
			},
			{
				"type": "occ",
				"energy": -0.29814,
				"method": "rhf"
			},
			{
				"type": "occ",
				"energy": -0.28592,
				"method": "rhf"
			},
			{
				"type": "occ",
				"energy": -0.25701,
				"method": "rhf"
			},
			{
				"type": "occ",
				"energy": -0.24295,
				"method": "rhf"
			},
			{
				"type": "unocc",
				"energy": -0.03366,
				"method": "rhf"
			},
			{
				"type": "unocc",
				"energy": -0.01624,
				"method": "rhf"
			},
			{
				"type": "unocc",
				"energy": -0.01339,
				"method": "rhf"
			},
			{
				"type": "unocc",
				"energy": 0.00412,
				"method": "rhf"
			},
			{
				"type": "unocc",
				"energy": 0.02897,
				"method": "rhf"
			}
		],
		"cosmo_sigma_profile": { 
			"-0.025": 0.0,
			"-0.024": 0.0,
			"-0.023": 0.0,
			"-0.022": 0.0,
			"-0.021": 0.0,
			"-0.02": 0.272193558904,
			"-0.019": 1.94454359663,
			"-0.018": 1.59255997905,
			"-0.017": 1.25678294235,
			"-0.016": 0.689676655136,
			"-0.015": 1.15095859141,
			"-0.014": 1.03291734043,
			"-0.013": 0.41536079547,
			"-0.012": 0.557694657898,
			"-0.011": 1.02718690377,
			"-0.01": 1.14200974613,
			"-0.009": 0.524549553519,
			"-0.008": 0.314563909674,
			"-0.007": 4.19381667358,
			"-0.006": 8.93387886397,
			"-0.005": 12.3831077055,
			"-0.004": 13.5520503664,
			"-0.003": 15.5984424267,
			"-0.002": 15.0926965188,
			"-0.001": 14.5692467981,
			"0.0": 15.151044261,
			"0.001": 16.3062797943,
			"0.002": 19.7360819661,
			"0.003": 18.1907237203,
			"0.004": 21.3978539709,
			"0.005": 8.1729126365,
			"0.006": 3.37986282522,
			"0.007": 3.3639056171,
			"0.008": 3.91112623403,
			"0.009": 3.84707669496,
			"0.01": 3.70127534742,
			"0.011": 2.9228121813,
			"0.012": 2.525483748,
			"0.013": 1.03291816207,
			"0.014": 0.343877926381,
			"0.015": 0.0,
			"0.016": 0.0,
			"0.017": 0.0,
			"0.018": 0.0,
			"0.019": 0.0,
			"0.02": 0.0,
			"0.021": 0.0,
			"0.022": 0.0,
			"0.023": 0.0,
			"0.024": 0.0,
			"0.025": 0.0
		}
	}
}
