{
	 "smiles": "COC(=O)C1=CC2=C(N1)C=CC=C2Br", 
	 "Tm": 433.15, 
	 "num_atms": 22, 
	 "gaussian": { 
		 "optdone": 1, 
		 "sigma_profile": "yes", 
		 "theory": "DFT", 
		 "functional": "B3LYP", 
		 "basiset": "6-31G**", 
		 "properties": { 
			 "R2extent": 4607.6021, 
			 "electric_dipole_moment_norm": 1.43692717282, 
			 "electric_quadrupole_moment_norm": 15.7771236387, 
			 "total_energy": -3162.50899907, 
			 "HOMO_LUMO_gap": 0.16238, 
			 "cosmo_polarized_energy": -9.72, 
			 "cosmo_cavitation_energy": 29.29, 
			 "cosmo_dispersion_energy": -21.95, 
			 "cosmo_repulsion_energy": 1.72, 
			 "cosmo_total_nonelectrostatic_energy": 9.06, 
			 "SMD_solvation_energy": 5.09 
		},
		"coords": [
			{
				"x": -0.802613033,
				"y": -3.9690536493,
				"z": 2.7363293513,
				"element": "C" 
			},
			{
				"x": -0.4416728757,
				"y": -2.7990894894,
				"z": 1.9841434273,
				"element": "O" 
			},
			{
				"x": -0.8736642828,
				"y": -2.7821319244,
				"z": 0.7088350871,
				"element": "C" 
			},
			{
				"x": -1.5258446421,
				"y": -3.6738678441,
				"z": 0.1906779805,
				"element": "O" 
			},
			{
				"x": -0.4736767304,
				"y": -1.5654840988,
				"z": -0.0035072453,
				"element": "C" 
			},
			{
				"x": 0.2479554997,
				"y": -0.4544429105,
				"z": 0.3777262852,
				"element": "C" 
			},
			{
				"x": 0.3099775272,
				"y": 0.4026924852,
				"z": -0.760176886,
				"element": "C" 
			},
			{
				"x": -0.3994904402,
				"y": -0.2439728397,
				"z": -1.8200749701,
				"element": "C" 
			},
			{
				"x": -0.8609901727,
				"y": -1.4353186209,
				"z": -1.3249550819,
				"element": "N" 
			},
			{
				"x": -0.535200446,
				"y": 0.328318037,
				"z": -3.0923731033,
				"element": "C" 
			},
			{
				"x": 0.0514823988,
				"y": 1.5675803065,
				"z": -3.2985067086,
				"element": "C" 
			},
			{
				"x": 0.7602816139,
				"y": 2.2368046399,
				"z": -2.2752412213,
				"element": "C" 
			},
			{
				"x": 0.8852766451,
				"y": 1.6587907793,
				"z": -1.0252242357,
				"element": "C" 
			},
			{
				"x": 1.8427991804,
				"y": 2.5626959202,
				"z": 0.357276012,
				"element": "Br" 
			},
			{
				"x": -0.379826718,
				"y": -3.8196380114,
				"z": 3.7293429147,
				"element": "H" 
			},
			{
				"x": -1.8893667129,
				"y": -4.070275316,
				"z": 2.7923726893,
				"element": "H" 
			},
			{
				"x": -0.3875084887,
				"y": -4.8675785808,
				"z": 2.2729071693,
				"element": "H" 
			},
			{
				"x": 0.6775274257,
				"y": -0.278987338,
				"z": 1.3516798472,
				"element": "H" 
			},
			{
				"x": -1.4010107004,
				"y": -2.1411930688,
				"z": -1.8028625855,
				"element": "H" 
			},
			{
				"x": -1.0776865248,
				"y": -0.1780550195,
				"z": -3.8844960961,
				"element": "H" 
			},
			{
				"x": -0.0313849698,
				"y": 2.0440292074,
				"z": -4.2705484108,
				"element": "H" 
			},
			{
				"x": 1.2066364467,
				"y": 3.204777336,
				"z": -2.4707242194,
				"element": "H" 
			}
		],
		 "valence_orbital": [ 
			{
				"type": "occ",
				"energy": -0.28657,
				"method": "rhf"
			},
			{
				"type": "occ",
				"energy": -0.28452,
				"method": "rhf"
			},
			{
				"type": "occ",
				"energy": -0.27341,
				"method": "rhf"
			},
			{
				"type": "occ",
				"energy": -0.23765,
				"method": "rhf"
			},
			{
				"type": "occ",
				"energy": -0.21705,
				"method": "rhf"
			},
			{
				"type": "unocc",
				"energy": -0.05467,
				"method": "rhf"
			},
			{
				"type": "unocc",
				"energy": 0.00556,
				"method": "rhf"
			},
			{
				"type": "unocc",
				"energy": 0.01253,
				"method": "rhf"
			},
			{
				"type": "unocc",
				"energy": 0.01898,
				"method": "rhf"
			},
			{
				"type": "unocc",
				"energy": 0.09026,
				"method": "rhf"
			}
		],
		"cosmo_sigma_profile": { 
			"-0.025": 0.0,
			"-0.024": 0.0,
			"-0.023": 0.0,
			"-0.022": 0.0,
			"-0.021": 0.0,
			"-0.02": 0.0,
			"-0.019": 0.0,
			"-0.018": 0.0,
			"-0.017": 0.0,
			"-0.016": 0.144507491626,
			"-0.015": 0.999921721647,
			"-0.014": 0.994396261166,
			"-0.013": 0.931299473806,
			"-0.012": 1.02514400198,
			"-0.011": 0.914290231415,
			"-0.01": 0.73590458443,
			"-0.009": 1.54400381552,
			"-0.008": 1.06828094761,
			"-0.007": 5.68904259851,
			"-0.006": 13.7312951245,
			"-0.005": 13.4282490453,
			"-0.004": 17.4407096054,
			"-0.003": 17.5360017245,
			"-0.002": 13.3995712626,
			"-0.001": 14.4122968195,
			"0.0": 14.0634940478,
			"0.001": 15.8411055018,
			"0.002": 25.6965321287,
			"0.003": 29.4371713721,
			"0.004": 21.2961677887,
			"0.005": 11.0809021126,
			"0.006": 3.32068572688,
			"0.007": 2.48398760246,
			"0.008": 1.66525643428,
			"0.009": 1.06351101856,
			"0.01": 1.95732506295,
			"0.011": 3.49877657573,
			"0.012": 2.68017664613,
			"0.013": 0.0744199867482,
			"0.014": 0.0,
			"0.015": 0.0,
			"0.016": 0.0,
			"0.017": 0.0,
			"0.018": 0.0,
			"0.019": 0.0,
			"0.02": 0.0,
			"0.021": 0.0,
			"0.022": 0.0,
			"0.023": 0.0,
			"0.024": 0.0,
			"0.025": 0.0
		}
	}
}
