{
	 "smiles": "COC(=O)C1=CC2=CC=CC=C2C1C", 
	 "Tm": 305.15, 
	 "num_atms": 26, 
	 "gaussian": { 
		 "optdone": 1, 
		 "sigma_profile": "yes", 
		 "theory": "DFT", 
		 "functional": "B3LYP", 
		 "basiset": "6-31G**", 
		 "properties": { 
			 "R2extent": 3730.9322, 
			 "electric_dipole_moment_norm": 1.64462149749, 
			 "electric_quadrupole_moment_norm": 9.25754171365, 
			 "total_energy": -614.965742273, 
			 "HOMO_LUMO_gap": 0.16644, 
			 "cosmo_polarized_energy": -7.89, 
			 "cosmo_cavitation_energy": 29.62, 
			 "cosmo_dispersion_energy": -21.34, 
			 "cosmo_repulsion_energy": 1.68, 
			 "cosmo_total_nonelectrostatic_energy": 9.95, 
			 "SMD_solvation_energy": 6.36 
		},
		"coords": [
			{
				"x": -1.5522524002,
				"y": 4.0020570318,
				"z": 1.3788351636,
				"element": "C" 
			},
			{
				"x": -1.6858228764,
				"y": 2.5746172603,
				"z": 1.3392253877,
				"element": "O" 
			},
			{
				"x": -0.7247388234,
				"y": 1.9260215833,
				"z": 0.6334462944,
				"element": "C" 
			},
			{
				"x": 0.1916701891,
				"y": 2.5059910691,
				"z": 0.0750679195,
				"element": "O" 
			},
			{
				"x": -0.9211063098,
				"y": 0.4703264924,
				"z": 0.6190570317,
				"element": "C" 
			},
			{
				"x": -1.961287797,
				"y": -0.2160693831,
				"z": 1.1541487662,
				"element": "C" 
			},
			{
				"x": -1.8054633633,
				"y": -1.6387431053,
				"z": 0.8808195245,
				"element": "C" 
			},
			{
				"x": -2.6093175713,
				"y": -2.7315112887,
				"z": 1.2185876332,
				"element": "C" 
			},
			{
				"x": -2.2070651032,
				"y": -4.0052622208,
				"z": 0.8124496863,
				"element": "C" 
			},
			{
				"x": -1.0245171219,
				"y": -4.1813518196,
				"z": 0.0834742184,
				"element": "C" 
			},
			{
				"x": -0.219052375,
				"y": -3.0864817147,
				"z": -0.2555945953,
				"element": "C" 
			},
			{
				"x": -0.6132531562,
				"y": -1.8149974857,
				"z": 0.1424798982,
				"element": "C" 
			},
			{
				"x": 0.0529536428,
				"y": -0.4705846797,
				"z": -0.0715426731,
				"element": "C" 
			},
			{
				"x": 1.4934523628,
				"y": -0.3944741929,
				"z": 0.4749001983,
				"element": "C" 
			},
			{
				"x": -1.5933297064,
				"y": 4.4238942013,
				"z": 0.3710678991,
				"element": "H" 
			},
			{
				"x": -0.603466482,
				"y": 4.2901138747,
				"z": 1.8392459618,
				"element": "H" 
			},
			{
				"x": -2.3907421876,
				"y": 4.359907637,
				"z": 1.9767328764,
				"element": "H" 
			},
			{
				"x": -2.790656559,
				"y": 0.2270699786,
				"z": 1.6930101635,
				"element": "H" 
			},
			{
				"x": -3.5266078001,
				"y": -2.5944329912,
				"z": 1.7846406042,
				"element": "H" 
			},
			{
				"x": -2.8157076183,
				"y": -4.8690071115,
				"z": 1.0640604761,
				"element": "H" 
			},
			{
				"x": -0.7286845182,
				"y": -5.1804680237,
				"z": -0.2236269086,
				"element": "H" 
			},
			{
				"x": 0.6962218516,
				"y": -3.2369492416,
				"z": -0.8221509061,
				"element": "H" 
			},
			{
				"x": 0.0847634561,
				"y": -0.2277306369,
				"z": -1.1439511983,
				"element": "H" 
			},
			{
				"x": 2.1400527274,
				"y": -1.1075907167,
				"z": -0.0457831671,
				"element": "H" 
			},
			{
				"x": 1.892881995,
				"y": 0.611209763,
				"z": 0.3298987996,
				"element": "H" 
			},
			{
				"x": 1.5139755447,
				"y": -0.6336542794,
				"z": 1.5426009458,
				"element": "H" 
			}
		],
		 "valence_orbital": [ 
			{
				"type": "occ",
				"energy": -0.29925,
				"method": "rhf"
			},
			{
				"type": "occ",
				"energy": -0.29529,
				"method": "rhf"
			},
			{
				"type": "occ",
				"energy": -0.26842,
				"method": "rhf"
			},
			{
				"type": "occ",
				"energy": -0.24859,
				"method": "rhf"
			},
			{
				"type": "occ",
				"energy": -0.22412,
				"method": "rhf"
			},
			{
				"type": "unocc",
				"energy": -0.05768,
				"method": "rhf"
			},
			{
				"type": "unocc",
				"energy": -0.00445,
				"method": "rhf"
			},
			{
				"type": "unocc",
				"energy": 0.02469,
				"method": "rhf"
			},
			{
				"type": "unocc",
				"energy": 0.08306,
				"method": "rhf"
			},
			{
				"type": "unocc",
				"energy": 0.09802,
				"method": "rhf"
			}
		],
		"cosmo_sigma_profile": { 
			"-0.025": 0.0,
			"-0.024": 0.0,
			"-0.023": 0.0,
			"-0.022": 0.0,
			"-0.021": 0.0,
			"-0.02": 0.0,
			"-0.019": 0.0,
			"-0.018": 0.0,
			"-0.017": 0.0,
			"-0.016": 0.0,
			"-0.015": 0.0,
			"-0.014": 0.0,
			"-0.013": 0.0,
			"-0.012": 0.0,
			"-0.011": 0.0,
			"-0.01": 0.0,
			"-0.009": 0.0,
			"-0.008": 0.04759624732,
			"-0.007": 1.48915702133,
			"-0.006": 10.8717753438,
			"-0.005": 19.4191206281,
			"-0.004": 22.7079878039,
			"-0.003": 24.8558020155,
			"-0.002": 19.3913533125,
			"-0.001": 19.4507084363,
			"0.0": 21.1995033553,
			"0.001": 18.1318995878,
			"0.002": 17.4774340319,
			"0.003": 13.4378694067,
			"0.004": 13.0323494929,
			"0.005": 12.3427496564,
			"0.006": 6.34597727851,
			"0.007": 2.98386963275,
			"0.008": 2.00708080114,
			"0.009": 0.75443171698,
			"0.01": 2.00768626199,
			"0.011": 2.20756183063,
			"0.012": 3.77631461557,
			"0.013": 1.48462661164,
			"0.014": 0.0,
			"0.015": 0.0,
			"0.016": 0.0,
			"0.017": 0.0,
			"0.018": 0.0,
			"0.019": 0.0,
			"0.02": 0.0,
			"0.021": 0.0,
			"0.022": 0.0,
			"0.023": 0.0,
			"0.024": 0.0,
			"0.025": 0.0
		}
	}
}
