{
	 "smiles": "OC(=O)CC1=CC(O)=C(O)C=C1", 
	 "Tm": 402.15, 
	 "num_atms": 20, 
	 "gaussian": { 
		 "optdone": 1, 
		 "sigma_profile": "yes", 
		 "theory": "DFT", 
		 "functional": "B3LYP", 
		 "basiset": "6-31G**", 
		 "properties": { 
			 "R2extent": 2707.6028, 
			 "electric_dipole_moment_norm": 1.34373267431, 
			 "electric_quadrupole_moment_norm": 9.19740357601, 
			 "total_energy": -610.577531218, 
			 "HOMO_LUMO_gap": 0.20368, 
			 "cosmo_polarized_energy": -15.11, 
			 "cosmo_cavitation_energy": 24.81, 
			 "cosmo_dispersion_energy": -18.3, 
			 "cosmo_repulsion_energy": 1.48, 
			 "cosmo_total_nonelectrostatic_energy": 7.99, 
			 "SMD_solvation_energy": 5.97 
		},
		"coords": [
			{
				"x": -1.9830467635,
				"y": 2.2627445711,
				"z": 2.063147067,
				"element": "O" 
			},
			{
				"x": -1.1945569563,
				"y": 1.238735485,
				"z": 2.4612303414,
				"element": "C" 
			},
			{
				"x": -0.45993068,
				"y": 1.3170115146,
				"z": 3.4235933819,
				"element": "O" 
			},
			{
				"x": -1.328420821,
				"y": 0.0234013943,
				"z": 1.5624852138,
				"element": "C" 
			},
			{
				"x": -0.1081382088,
				"y": -0.1607524613,
				"z": 0.6727589819,
				"element": "C" 
			},
			{
				"x": 1.1709569926,
				"y": -0.2775762695,
				"z": 1.2407087921,
				"element": "C" 
			},
			{
				"x": 2.2811544275,
				"y": -0.4620324481,
				"z": 0.4284932723,
				"element": "C" 
			},
			{
				"x": 3.5716547175,
				"y": -0.5839349697,
				"z": 0.8914226081,
				"element": "O" 
			},
			{
				"x": 2.1447819742,
				"y": -0.5397862552,
				"z": -0.9700594422,
				"element": "C" 
			},
			{
				"x": 3.238578385,
				"y": -0.7240908712,
				"z": -1.7608801822,
				"element": "O" 
			},
			{
				"x": 0.8784776556,
				"y": -0.4232713487,
				"z": -1.5333565128,
				"element": "C" 
			},
			{
				"x": -0.2394189204,
				"y": -0.2320804412,
				"z": -0.715386785,
				"element": "C" 
			},
			{
				"x": -1.8077467757,
				"y": 2.9948957815,
				"z": 2.6790148765,
				"element": "H" 
			},
			{
				"x": -2.2286485706,
				"y": 0.1153494121,
				"z": 0.952067855,
				"element": "H" 
			},
			{
				"x": -1.4490679282,
				"y": -0.8418629637,
				"z": 2.224763053,
				"element": "H" 
			},
			{
				"x": 1.2894333427,
				"y": -0.2019438999,
				"z": 2.3189312844,
				"element": "H" 
			},
			{
				"x": 3.5835419642,
				"y": -0.488751537,
				"z": 1.8517889281,
				"element": "H" 
			},
			{
				"x": 4.0122443662,
				"y": -0.7709612168,
				"z": -1.179366504,
				"element": "H" 
			},
			{
				"x": 0.7829407284,
				"y": -0.4805480243,
				"z": -2.6126237742,
				"element": "H" 
			},
			{
				"x": -1.2216889295,
				"y": -0.1401454521,
				"z": -1.169832455,
				"element": "H" 
			}
		],
		 "valence_orbital": [ 
			{
				"type": "occ",
				"energy": -0.32166,
				"method": "rhf"
			},
			{
				"type": "occ",
				"energy": -0.32033,
				"method": "rhf"
			},
			{
				"type": "occ",
				"energy": -0.27777,
				"method": "rhf"
			},
			{
				"type": "occ",
				"energy": -0.23834,
				"method": "rhf"
			},
			{
				"type": "occ",
				"energy": -0.20777,
				"method": "rhf"
			},
			{
				"type": "unocc",
				"energy": -0.00409,
				"method": "rhf"
			},
			{
				"type": "unocc",
				"energy": 0.00537,
				"method": "rhf"
			},
			{
				"type": "unocc",
				"energy": 0.02482,
				"method": "rhf"
			},
			{
				"type": "unocc",
				"energy": 0.05562,
				"method": "rhf"
			},
			{
				"type": "unocc",
				"energy": 0.07694,
				"method": "rhf"
			}
		],
		"cosmo_sigma_profile": { 
			"-0.025": 0.0,
			"-0.024": 0.0,
			"-0.023": 0.0,
			"-0.022": 0.0,
			"-0.021": 0.0,
			"-0.02": 0.0,
			"-0.019": 0.168049189905,
			"-0.018": 1.69092508436,
			"-0.017": 1.89669498529,
			"-0.016": 1.67838163139,
			"-0.015": 2.6466698351,
			"-0.014": 1.93976443567,
			"-0.013": 1.68171969668,
			"-0.012": 2.07197809223,
			"-0.011": 2.03873701009,
			"-0.01": 2.81995917393,
			"-0.009": 2.22204510756,
			"-0.008": 1.75695752316,
			"-0.007": 2.21063290413,
			"-0.006": 10.2176346646,
			"-0.005": 11.5907304906,
			"-0.004": 10.7220474509,
			"-0.003": 10.9121329948,
			"-0.002": 10.2462483201,
			"-0.001": 8.56588161766,
			"0.0": 9.16504652152,
			"0.001": 9.10223082668,
			"0.002": 11.8596222992,
			"0.003": 13.4634934684,
			"0.004": 14.2344649999,
			"0.005": 14.336012448,
			"0.006": 8.92288480699,
			"0.007": 4.64620639282,
			"0.008": 5.18299558103,
			"0.009": 4.6975395895,
			"0.01": 3.9321698227,
			"0.011": 5.4775997639,
			"0.012": 4.47897136525,
			"0.013": 0.0813536018749,
			"0.014": 0.0,
			"0.015": 0.0,
			"0.016": 0.0,
			"0.017": 0.0,
			"0.018": 0.0,
			"0.019": 0.0,
			"0.02": 0.0,
			"0.021": 0.0,
			"0.022": 0.0,
			"0.023": 0.0,
			"0.024": 0.0,
			"0.025": 0.0
		}
	}
}
