{
	 "smiles": "ClC1=CC(Br)=C(S1)S(Cl)(=O)=O", 
	 "Tm": 308.15, 
	 "num_atms": 12, 
	 "gaussian": { 
		 "optdone": 1, 
		 "sigma_profile": "yes", 
		 "theory": "DFT", 
		 "functional": "B3LYP", 
		 "basiset": "6-31G**", 
		 "properties": { 
			 "R2extent": 3893.7206, 
			 "electric_dipole_moment_norm": 4.38741778385, 
			 "electric_quadrupole_moment_norm": 3.13344922091, 
			 "total_energy": -4591.52802859, 
			 "HOMO_LUMO_gap": 0.16879, 
			 "cosmo_polarized_energy": -7.46, 
			 "cosmo_cavitation_energy": 26.19, 
			 "cosmo_dispersion_energy": -20.56, 
			 "cosmo_repulsion_energy": 1.57, 
			 "cosmo_total_nonelectrostatic_energy": 7.2, 
			 "SMD_solvation_energy": 1.65 
		},
		"coords": [
			{
				"x": -1.949409265,
				"y": -1.8153178359,
				"z": 3.0629316379,
				"element": "Cl" 
			},
			{
				"x": -1.1228688044,
				"y": -1.2284223052,
				"z": 1.6702363616,
				"element": "C" 
			},
			{
				"x": -0.6172338726,
				"y": -1.98811815,
				"z": 0.6484884753,
				"element": "C" 
			},
			{
				"x": -0.0106365012,
				"y": -1.1793306426,
				"z": -0.3511399526,
				"element": "C" 
			},
			{
				"x": 0.8087237312,
				"y": -1.9440586701,
				"z": -1.8612065257,
				"element": "Br" 
			},
			{
				"x": -0.0829836321,
				"y": 0.1671157639,
				"z": -0.0696727222,
				"element": "C" 
			},
			{
				"x": -0.8858325629,
				"y": 0.4771900916,
				"z": 1.4516830839,
				"element": "S" 
			},
			{
				"x": 0.5229846166,
				"y": 1.5487938146,
				"z": -0.9788304113,
				"element": "S" 
			},
			{
				"x": 2.6061138477,
				"y": 1.469874764,
				"z": -0.5813952076,
				"element": "Cl" 
			},
			{
				"x": 0.3729023444,
				"y": 1.3261001017,
				"z": -2.407131305,
				"element": "O" 
			},
			{
				"x": 0.0212233415,
				"y": 2.7415653255,
				"z": -0.3076302192,
				"element": "O" 
			},
			{
				"x": -0.6721832432,
				"y": -3.0671922576,
				"z": 0.601366785,
				"element": "H" 
			}
		],
		 "valence_orbital": [ 
			{
				"type": "occ",
				"energy": -0.34023,
				"method": "rhf"
			},
			{
				"type": "occ",
				"energy": -0.32246,
				"method": "rhf"
			},
			{
				"type": "occ",
				"energy": -0.31549,
				"method": "rhf"
			},
			{
				"type": "occ",
				"energy": -0.29154,
				"method": "rhf"
			},
			{
				"type": "occ",
				"energy": -0.27461,
				"method": "rhf"
			},
			{
				"type": "unocc",
				"energy": -0.10582,
				"method": "rhf"
			},
			{
				"type": "unocc",
				"energy": -0.06841,
				"method": "rhf"
			},
			{
				"type": "unocc",
				"energy": -0.04697,
				"method": "rhf"
			},
			{
				"type": "unocc",
				"energy": -0.01485,
				"method": "rhf"
			},
			{
				"type": "unocc",
				"energy": -0.00177,
				"method": "rhf"
			}
		],
		"cosmo_sigma_profile": { 
			"-0.025": 0.0,
			"-0.024": 0.0,
			"-0.023": 0.0,
			"-0.022": 0.0,
			"-0.021": 0.0,
			"-0.02": 0.0,
			"-0.019": 0.0,
			"-0.018": 0.0,
			"-0.017": 0.0,
			"-0.016": 0.0,
			"-0.015": 0.0,
			"-0.014": 0.0,
			"-0.013": 0.0,
			"-0.012": 0.0,
			"-0.011": 0.52526600205,
			"-0.01": 1.61951629385,
			"-0.009": 1.05889977927,
			"-0.008": 2.5730582566,
			"-0.007": 2.63345471312,
			"-0.006": 5.60590975135,
			"-0.005": 8.19180610125,
			"-0.004": 11.9551228371,
			"-0.003": 19.2136113441,
			"-0.002": 26.8370359261,
			"-0.001": 24.1253158866,
			"0.0": 19.303015227,
			"0.001": 24.730872528,
			"0.002": 27.2517533186,
			"0.003": 15.8459171276,
			"0.004": 3.45570271086,
			"0.005": 4.34444871938,
			"0.006": 4.80576713033,
			"0.007": 9.64066980894,
			"0.008": 7.69723528532,
			"0.009": 0.750131584667,
			"0.01": 0.0,
			"0.011": 0.0,
			"0.012": 0.0,
			"0.013": 0.0,
			"0.014": 0.0,
			"0.015": 0.0,
			"0.016": 0.0,
			"0.017": 0.0,
			"0.018": 0.0,
			"0.019": 0.0,
			"0.02": 0.0,
			"0.021": 0.0,
			"0.022": 0.0,
			"0.023": 0.0,
			"0.024": 0.0,
			"0.025": 0.0
		}
	}
}
