{
	 "smiles": "CC(C)(C)C#N", 
	 "Tm": 289.15, 
	 "num_atms": 15, 
	 "gaussian": { 
		 "optdone": 1, 
		 "sigma_profile": "yes", 
		 "theory": "DFT", 
		 "functional": "B3LYP", 
		 "basiset": "6-31G**", 
		 "properties": { 
			 "R2extent": 752.8388, 
			 "electric_dipole_moment_norm": 3.95430761322, 
			 "electric_quadrupole_moment_norm": 11.1524521268, 
			 "total_energy": -250.704216427, 
			 "HOMO_LUMO_gap": 0.35817, 
			 "cosmo_polarized_energy": -7.71, 
			 "cosmo_cavitation_energy": 18.29, 
			 "cosmo_dispersion_energy": -12.6, 
			 "cosmo_repulsion_energy": 1.1, 
			 "cosmo_total_nonelectrostatic_energy": 6.78, 
			 "SMD_solvation_energy": 4.89 
		},
		"coords": [
			{
				"x": -0.509507332,
				"y": -0.5509058247,
				"z": 1.0369509799,
				"element": "C" 
			},
			{
				"x": -0.5558028887,
				"y": 0.5342358425,
				"z": -0.0624104113,
				"element": "C" 
			},
			{
				"x": -0.7454956972,
				"y": 1.9313095365,
				"z": 0.5703985713,
				"element": "C" 
			},
			{
				"x": 0.7383936493,
				"y": 0.4986628129,
				"z": -0.9062229548,
				"element": "C" 
			},
			{
				"x": -1.7057705912,
				"y": 0.258075837,
				"z": -0.9501021555,
				"element": "C" 
			},
			{
				"x": -2.6088641078,
				"y": 0.041188334,
				"z": -1.6472207622,
				"element": "N" 
			},
			{
				"x": 0.3384317385,
				"y": -0.3588655109,
				"z": 1.7025158883,
				"element": "H" 
			},
			{
				"x": -0.3883609277,
				"y": -1.5476470746,
				"z": 0.6036626653,
				"element": "H" 
			},
			{
				"x": -1.4248456345,
				"y": -0.5466672726,
				"z": 1.6353178996,
				"element": "H" 
			},
			{
				"x": -0.7929847911,
				"y": 2.7094690012,
				"z": -0.1964900114,
				"element": "H" 
			},
			{
				"x": 0.099885123,
				"y": 2.1494981424,
				"z": 1.2311395157,
				"element": "H" 
			},
			{
				"x": -1.6647555478,
				"y": 1.9761902435,
				"z": 1.1610302297,
				"element": "H" 
			},
			{
				"x": 1.5993624379,
				"y": 0.7019065255,
				"z": -0.2610199695,
				"element": "H" 
			},
			{
				"x": 0.8801860354,
				"y": -0.4808662226,
				"z": -1.3713200406,
				"element": "H" 
			},
			{
				"x": 0.7152285339,
				"y": 1.25321563,
				"z": -1.6974294444,
				"element": "H" 
			}
		],
		 "valence_orbital": [ 
			{
				"type": "occ",
				"energy": -0.36455,
				"method": "rhf"
			},
			{
				"type": "occ",
				"energy": -0.36455,
				"method": "rhf"
			},
			{
				"type": "occ",
				"energy": -0.34507,
				"method": "rhf"
			},
			{
				"type": "occ",
				"energy": -0.31526,
				"method": "rhf"
			},
			{
				"type": "occ",
				"energy": -0.31526,
				"method": "rhf"
			},
			{
				"type": "unocc",
				"energy": 0.04291,
				"method": "rhf"
			},
			{
				"type": "unocc",
				"energy": 0.04291,
				"method": "rhf"
			},
			{
				"type": "unocc",
				"energy": 0.06476,
				"method": "rhf"
			},
			{
				"type": "unocc",
				"energy": 0.11474,
				"method": "rhf"
			},
			{
				"type": "unocc",
				"energy": 0.13507,
				"method": "rhf"
			}
		],
		"cosmo_sigma_profile": { 
			"-0.025": 0.0,
			"-0.024": 0.0,
			"-0.023": 0.0,
			"-0.022": 0.0,
			"-0.021": 0.0,
			"-0.02": 0.0,
			"-0.019": 0.0,
			"-0.018": 0.0,
			"-0.017": 0.0,
			"-0.016": 0.0,
			"-0.015": 0.0,
			"-0.014": 0.0,
			"-0.013": 0.0,
			"-0.012": 0.0,
			"-0.011": 0.0,
			"-0.01": 0.0,
			"-0.009": 0.0,
			"-0.008": 0.0,
			"-0.007": 0.0,
			"-0.006": 0.0487696436235,
			"-0.005": 12.7260980882,
			"-0.004": 23.8516492292,
			"-0.003": 16.7600040827,
			"-0.002": 17.1522678332,
			"-0.001": 21.0496725862,
			"0.0": 17.5525221331,
			"0.001": 2.81305921394,
			"0.002": 1.44615685938,
			"0.003": 1.37990339627,
			"0.004": 2.58931146333,
			"0.005": 1.37112716254,
			"0.006": 2.82476800264,
			"0.007": 2.2321149296,
			"0.008": 2.9883244935,
			"0.009": 3.29960020783,
			"0.01": 3.77988267254,
			"0.011": 3.15687251707,
			"0.012": 2.74247810004,
			"0.013": 2.40754295473,
			"0.014": 0.976678173302,
			"0.015": 0.0,
			"0.016": 0.0,
			"0.017": 0.0,
			"0.018": 0.0,
			"0.019": 0.0,
			"0.02": 0.0,
			"0.021": 0.0,
			"0.022": 0.0,
			"0.023": 0.0,
			"0.024": 0.0,
			"0.025": 0.0
		}
	}
}
