{
	 "smiles": "CCNC1=C(N)C=C(C=C1)S(=O)(=O)N1CCOCC1", 
	 "Tm": 462.15, 
	 "num_atms": 38, 
	 "gaussian": { 
		 "optdone": 1, 
		 "sigma_profile": "yes", 
		 "theory": "DFT", 
		 "functional": "B3LYP", 
		 "basiset": "6-31G**", 
		 "properties": { 
			 "R2extent": 6823.0988, 
			 "electric_dipole_moment_norm": 5.91251396362, 
			 "electric_quadrupole_moment_norm": 27.2708277667, 
			 "total_energy": -1256.75306951, 
			 "HOMO_LUMO_gap": 0.18373, 
			 "cosmo_polarized_energy": -20.59, 
			 "cosmo_cavitation_energy": 40.17, 
			 "cosmo_dispersion_energy": -28.34, 
			 "cosmo_repulsion_energy": 2.18, 
			 "cosmo_total_nonelectrostatic_energy": 14.0, 
			 "SMD_solvation_energy": 3.83 
		},
		"coords": [
			{
				"x": 0.0454547969,
				"y": 1.2772236112,
				"z": -3.8278034981,
				"element": "C" 
			},
			{
				"x": 0.5677722387,
				"y": 2.5567576499,
				"z": -3.1672982017,
				"element": "C" 
			},
			{
				"x": 1.8676088868,
				"y": 2.4099193245,
				"z": -2.4750730604,
				"element": "N" 
			},
			{
				"x": 1.8955870771,
				"y": 1.6157907567,
				"z": -1.301439256,
				"element": "C" 
			},
			{
				"x": 1.3277067066,
				"y": 2.1509341918,
				"z": -0.1129933769,
				"element": "C" 
			},
			{
				"x": 0.7405063678,
				"y": 3.4161497985,
				"z": -0.1522001101,
				"element": "N" 
			},
			{
				"x": 1.3646885751,
				"y": 1.3928597117,
				"z": 1.0612112507,
				"element": "C" 
			},
			{
				"x": 1.989460331,
				"y": 0.1421244105,
				"z": 1.0715375978,
				"element": "C" 
			},
			{
				"x": 2.6024675286,
				"y": -0.370540374,
				"z": -0.0721653931,
				"element": "C" 
			},
			{
				"x": 2.5375760101,
				"y": 0.3748217773,
				"z": -1.2504882861,
				"element": "C" 
			},
			{
				"x": 1.9736746855,
				"y": -0.8258882148,
				"z": 2.5815959153,
				"element": "S" 
			},
			{
				"x": 1.7555070516,
				"y": 0.1007911991,
				"z": 3.6963780348,
				"element": "O" 
			},
			{
				"x": 3.1182817407,
				"y": -1.7382782455,
				"z": 2.5285407459,
				"element": "O" 
			},
			{
				"x": 0.6105892352,
				"y": -1.8101315582,
				"z": 2.5249874574,
				"element": "N" 
			},
			{
				"x": 0.6201241163,
				"y": -2.9148845918,
				"z": 1.5484332159,
				"element": "C" 
			},
			{
				"x": -0.7222526475,
				"y": -3.6347241353,
				"z": 1.626770938,
				"element": "C" 
			},
			{
				"x": -1.8214134696,
				"y": -2.7968116806,
				"z": 1.2801884334,
				"element": "O" 
			},
			{
				"x": -1.6519617615,
				"y": -1.4203678257,
				"z": 1.6182409459,
				"element": "C" 
			},
			{
				"x": -0.7134825067,
				"y": -1.2189861295,
				"z": 2.8045507061,
				"element": "C" 
			},
			{
				"x": -0.0945700911,
				"y": 0.4811024661,
				"z": -3.0901747581,
				"element": "H" 
			},
			{
				"x": -0.9183470828,
				"y": 1.4613035767,
				"z": -4.3147133414,
				"element": "H" 
			},
			{
				"x": 0.7405688404,
				"y": 0.9124062986,
				"z": -4.5932906812,
				"element": "H" 
			},
			{
				"x": -0.1578554193,
				"y": 2.9247338203,
				"z": -2.4367200762,
				"element": "H" 
			},
			{
				"x": 0.6925461954,
				"y": 3.3443299571,
				"z": -3.9193833603,
				"element": "H" 
			},
			{
				"x": 2.5731132485,
				"y": 2.0917431778,
				"z": -3.1328682476,
				"element": "H" 
			},
			{
				"x": 0.6647592947,
				"y": 3.8668657254,
				"z": 0.7504906942,
				"element": "H" 
			},
			{
				"x": 1.1755815009,
				"y": 4.0172692075,
				"z": -0.8447164745,
				"element": "H" 
			},
			{
				"x": 0.9668472048,
				"y": 1.799763845,
				"z": 1.985501566,
				"element": "H" 
			},
			{
				"x": 3.1295980364,
				"y": -1.3162627068,
				"z": -0.0341459143,
				"element": "H" 
			},
			{
				"x": 2.9981066902,
				"y": -0.0123925617,
				"z": -2.1562214799,
				"element": "H" 
			},
			{
				"x": 1.4346901804,
				"y": -3.6001943414,
				"z": 1.7940941803,
				"element": "H" 
			},
			{
				"x": 0.7748261795,
				"y": -2.5503029858,
				"z": 0.5213235228,
				"element": "H" 
			},
			{
				"x": -0.7302201686,
				"y": -4.4722687748,
				"z": 0.9221290448,
				"element": "H" 
			},
			{
				"x": -0.8557487251,
				"y": -4.0457934946,
				"z": 2.6390452476,
				"element": "H" 
			},
			{
				"x": -1.2683106994,
				"y": -0.8632780726,
				"z": 0.7499490708,
				"element": "H" 
			},
			{
				"x": -2.6460754342,
				"y": -1.0260149122,
				"z": 1.856131956,
				"element": "H" 
			},
			{
				"x": -1.1326593186,
				"y": -1.6929695522,
				"z": 3.7004274872,
				"element": "H" 
			},
			{
				"x": -0.6017453948,
				"y": -0.1569003484,
				"z": 3.031167505,
				"element": "H" 
			}
		],
		 "valence_orbital": [ 
			{
				"type": "occ",
				"energy": -0.28375,
				"method": "rhf"
			},
			{
				"type": "occ",
				"energy": -0.25744,
				"method": "rhf"
			},
			{
				"type": "occ",
				"energy": -0.25019,
				"method": "rhf"
			},
			{
				"type": "occ",
				"energy": -0.23574,
				"method": "rhf"
			},
			{
				"type": "occ",
				"energy": -0.20907,
				"method": "rhf"
			},
			{
				"type": "unocc",
				"energy": -0.02534,
				"method": "rhf"
			},
			{
				"type": "unocc",
				"energy": -0.00446,
				"method": "rhf"
			},
			{
				"type": "unocc",
				"energy": 0.06232,
				"method": "rhf"
			},
			{
				"type": "unocc",
				"energy": 0.07207,
				"method": "rhf"
			},
			{
				"type": "unocc",
				"energy": 0.08221,
				"method": "rhf"
			}
		],
		"cosmo_sigma_profile": { 
			"-0.025": 0.0,
			"-0.024": 0.0,
			"-0.023": 0.0,
			"-0.022": 0.0,
			"-0.021": 0.0,
			"-0.02": 0.0,
			"-0.019": 0.0,
			"-0.018": 0.0,
			"-0.017": 0.0,
			"-0.016": 0.0,
			"-0.015": 0.0,
			"-0.014": 0.0,
			"-0.013": 0.624166642394,
			"-0.012": 1.84850871178,
			"-0.011": 2.99213285629,
			"-0.01": 4.22962387361,
			"-0.009": 3.46198985199,
			"-0.008": 4.46745588954,
			"-0.007": 6.27405097989,
			"-0.006": 13.0894199833,
			"-0.005": 24.4480792175,
			"-0.004": 29.5803333909,
			"-0.003": 30.6773063344,
			"-0.002": 25.2691740326,
			"-0.001": 24.1154242444,
			"0.0": 20.5458038136,
			"0.001": 17.9703862266,
			"0.002": 12.1779934204,
			"0.003": 15.3779417858,
			"0.004": 14.563434767,
			"0.005": 9.04090341317,
			"0.006": 6.71397473161,
			"0.007": 6.28957416973,
			"0.008": 7.12919921185,
			"0.009": 5.13857375271,
			"0.01": 8.07137400347,
			"0.011": 9.74338727227,
			"0.012": 8.6462565228,
			"0.013": 2.08767041941,
			"0.014": 0.280707738874,
			"0.015": 0.0,
			"0.016": 0.0,
			"0.017": 0.0,
			"0.018": 0.0,
			"0.019": 0.0,
			"0.02": 0.0,
			"0.021": 0.0,
			"0.022": 0.0,
			"0.023": 0.0,
			"0.024": 0.0,
			"0.025": 0.0
		}
	}
}
