{
	 "smiles": "CC1=C(SC=N1)C1=CN=CO1", 
	 "Tm": 370.15, 
	 "num_atms": 17, 
	 "gaussian": { 
		 "optdone": 1, 
		 "sigma_profile": "yes", 
		 "theory": "DFT", 
		 "functional": "B3LYP", 
		 "basiset": "6-31G**", 
		 "properties": { 
			 "R2extent": 2120.4575, 
			 "electric_dipole_moment_norm": 0.556034441379, 
			 "electric_quadrupole_moment_norm": 13.9370268928, 
			 "total_energy": -853.247210925, 
			 "HOMO_LUMO_gap": 0.16411, 
			 "cosmo_polarized_energy": -8.57, 
			 "cosmo_cavitation_energy": 23.26, 
			 "cosmo_dispersion_energy": -17.74, 
			 "cosmo_repulsion_energy": 1.35, 
			 "cosmo_total_nonelectrostatic_energy": 6.88, 
			 "SMD_solvation_energy": 2.04 
		},
		"coords": [
			{
				"x": 2.2944860958,
				"y": -0.9800971389,
				"z": -0.6410278675,
				"element": "C" 
			},
			{
				"x": 1.9372227433,
				"y": 0.1464918625,
				"z": 0.288008671,
				"element": "C" 
			},
			{
				"x": 0.6835894551,
				"y": 0.4301233404,
				"z": 0.8041102718,
				"element": "C" 
			},
			{
				"x": 0.7756978458,
				"y": 1.8397511581,
				"z": 1.8359230003,
				"element": "S" 
			},
			{
				"x": 2.4821012949,
				"y": 1.9296979499,
				"z": 1.4888858,
				"element": "C" 
			},
			{
				"x": 2.9339597938,
				"y": 1.0093369463,
				"z": 0.6913304346,
				"element": "N" 
			},
			{
				"x": -0.5748565449,
				"y": -0.2448045312,
				"z": 0.6046244929,
				"element": "C" 
			},
			{
				"x": -1.8533272507,
				"y": -0.0539551847,
				"z": 1.0569452537,
				"element": "C" 
			},
			{
				"x": -2.6859003329,
				"y": -1.027651026,
				"z": 0.5309682091,
				"element": "N" 
			},
			{
				"x": -1.9039919427,
				"y": -1.7542862637,
				"z": -0.2012318408,
				"element": "C" 
			},
			{
				"x": -0.6055654302,
				"y": -1.3521827583,
				"z": -0.2152811815,
				"element": "O" 
			},
			{
				"x": 3.3617707812,
				"y": -0.9280143135,
				"z": -0.8614085255,
				"element": "H" 
			},
			{
				"x": 2.0712301736,
				"y": -1.9552363953,
				"z": -0.1971522506,
				"element": "H" 
			},
			{
				"x": 1.7352253263,
				"y": -0.9214408018,
				"z": -1.5799371975,
				"element": "H" 
			},
			{
				"x": 3.0903018932,
				"y": 2.7123355618,
				"z": 1.9264821573,
				"element": "H" 
			},
			{
				"x": -2.2244542348,
				"y": 0.7135993615,
				"z": 1.7203305823,
				"element": "H" 
			},
			{
				"x": -2.1473896667,
				"y": -2.624467767,
				"z": -0.7924700093,
				"element": "H" 
			}
		],
		 "valence_orbital": [ 
			{
				"type": "occ",
				"energy": -0.31268,
				"method": "rhf"
			},
			{
				"type": "occ",
				"energy": -0.29835,
				"method": "rhf"
			},
			{
				"type": "occ",
				"energy": -0.2796,
				"method": "rhf"
			},
			{
				"type": "occ",
				"energy": -0.27508,
				"method": "rhf"
			},
			{
				"type": "occ",
				"energy": -0.22005,
				"method": "rhf"
			},
			{
				"type": "unocc",
				"energy": -0.05594,
				"method": "rhf"
			},
			{
				"type": "unocc",
				"energy": 0.00402,
				"method": "rhf"
			},
			{
				"type": "unocc",
				"energy": 0.00472,
				"method": "rhf"
			},
			{
				"type": "unocc",
				"energy": 0.03595,
				"method": "rhf"
			},
			{
				"type": "unocc",
				"energy": 0.07433,
				"method": "rhf"
			}
		],
		"cosmo_sigma_profile": { 
			"-0.025": 0.0,
			"-0.024": 0.0,
			"-0.023": 0.0,
			"-0.022": 0.0,
			"-0.021": 0.0,
			"-0.02": 0.0,
			"-0.019": 0.0,
			"-0.018": 0.0,
			"-0.017": 0.0,
			"-0.016": 0.0,
			"-0.015": 0.0,
			"-0.014": 0.0,
			"-0.013": 0.0,
			"-0.012": 0.0299974553835,
			"-0.011": 1.69650525452,
			"-0.01": 3.8460870511,
			"-0.009": 4.42239648057,
			"-0.008": 5.38346536289,
			"-0.007": 4.20749327376,
			"-0.006": 5.25803785534,
			"-0.005": 6.22048085463,
			"-0.004": 10.0560614432,
			"-0.003": 10.2721029292,
			"-0.002": 13.5626806686,
			"-0.001": 21.2177215632,
			"0.0": 23.1592715722,
			"0.001": 24.0146826399,
			"0.002": 15.3065235444,
			"0.003": 9.78171958835,
			"0.004": 5.63126638243,
			"0.005": 3.07034273147,
			"0.006": 2.10473145729,
			"0.007": 3.38724798677,
			"0.008": 2.52804298176,
			"0.009": 2.38960349563,
			"0.01": 1.93441954159,
			"0.011": 2.94113134575,
			"0.012": 1.5420596908,
			"0.013": 1.78776869422,
			"0.014": 2.53846939052,
			"0.015": 1.26962955103,
			"0.016": 0.200271694505,
			"0.017": 0.0,
			"0.018": 0.0,
			"0.019": 0.0,
			"0.02": 0.0,
			"0.021": 0.0,
			"0.022": 0.0,
			"0.023": 0.0,
			"0.024": 0.0,
			"0.025": 0.0
		}
	}
}
