{
	 "smiles": "COC(=O)C1=CC(=CC(N)=C1)[N+]([O-])=O", 
	 "Tm": 433.15, 
	 "num_atms": 22, 
	 "gaussian": { 
		 "optdone": 1, 
		 "sigma_profile": "yes", 
		 "theory": "DFT", 
		 "functional": "B3LYP", 
		 "basiset": "6-31G**", 
		 "properties": { 
			 "R2extent": 3608.5446, 
			 "electric_dipole_moment_norm": 7.03179925908, 
			 "electric_quadrupole_moment_norm": 7.33206426322, 
			 "total_energy": -719.984416828, 
			 "HOMO_LUMO_gap": 0.14399, 
			 "cosmo_polarized_energy": -16.25, 
			 "cosmo_cavitation_energy": 27.91, 
			 "cosmo_dispersion_energy": -20.36, 
			 "cosmo_repulsion_energy": 1.61, 
			 "cosmo_total_nonelectrostatic_energy": 9.16, 
			 "SMD_solvation_energy": 8.69 
		},
		"coords": [
			{
				"x": -1.4615769495,
				"y": -2.7654073871,
				"z": 3.8761939787,
				"element": "C" 
			},
			{
				"x": -1.4387842286,
				"y": -1.8125634699,
				"z": 2.8001535701,
				"element": "O" 
			},
			{
				"x": -0.2205479368,
				"y": -1.304400143,
				"z": 2.5097379061,
				"element": "C" 
			},
			{
				"x": 0.7921447716,
				"y": -1.6193414862,
				"z": 3.1006252894,
				"element": "O" 
			},
			{
				"x": -0.2661136652,
				"y": -0.3195176498,
				"z": 1.386114602,
				"element": "C" 
			},
			{
				"x": 0.9425875654,
				"y": 0.2681360188,
				"z": 0.997668476,
				"element": "C" 
			},
			{
				"x": 0.9031126639,
				"y": 1.1815552727,
				"z": -0.0474275856,
				"element": "C" 
			},
			{
				"x": -0.2697840042,
				"y": 1.5283794479,
				"z": -0.7103430424,
				"element": "C" 
			},
			{
				"x": -1.4801175729,
				"y": 0.9363121408,
				"z": -0.3164985964,
				"element": "C" 
			},
			{
				"x": -2.6761784336,
				"y": 1.3013153783,
				"z": -0.9192400054,
				"element": "N" 
			},
			{
				"x": -1.4615133828,
				"y": 0.0078649835,
				"z": 0.7405127885,
				"element": "C" 
			},
			{
				"x": 2.1620273316,
				"y": 1.8163503761,
				"z": -0.4855449133,
				"element": "N" 
			},
			{
				"x": 2.1022655621,
				"y": 2.6159953856,
				"z": -1.4197402709,
				"element": "O" 
			},
			{
				"x": 3.1926207453,
				"y": 1.5074303483,
				"z": 0.107923423,
				"element": "O" 
			},
			{
				"x": -2.5034669142,
				"y": -3.0682530354,
				"z": 3.9783423069,
				"element": "H" 
			},
			{
				"x": -0.8316182845,
				"y": -3.6262756891,
				"z": 3.6394728725,
				"element": "H" 
			},
			{
				"x": -1.1010923623,
				"y": -2.3081463214,
				"z": 4.8007688434,
				"element": "H" 
			},
			{
				"x": 1.8691550508,
				"y": 0.015724101,
				"z": 1.4943666184,
				"element": "H" 
			},
			{
				"x": -0.2272816184,
				"y": 2.2513988025,
				"z": -1.5161902634,
				"element": "H" 
			},
			{
				"x": -2.6061428416,
				"y": 1.7100001356,
				"z": -1.8399320066,
				"element": "H" 
			},
			{
				"x": -3.4362951189,
				"y": 0.6417811661,
				"z": -0.8375161601,
				"element": "H" 
			},
			{
				"x": -2.3847003773,
				"y": -0.4600383753,
				"z": 1.0647521689,
				"element": "H" 
			}
		],
		 "valence_orbital": [ 
			{
				"type": "occ",
				"energy": -0.30549,
				"method": "rhf"
			},
			{
				"type": "occ",
				"energy": -0.28899,
				"method": "rhf"
			},
			{
				"type": "occ",
				"energy": -0.28413,
				"method": "rhf"
			},
			{
				"type": "occ",
				"energy": -0.28214,
				"method": "rhf"
			},
			{
				"type": "occ",
				"energy": -0.23167,
				"method": "rhf"
			},
			{
				"type": "unocc",
				"energy": -0.08768,
				"method": "rhf"
			},
			{
				"type": "unocc",
				"energy": -0.05379,
				"method": "rhf"
			},
			{
				"type": "unocc",
				"energy": 0.00598,
				"method": "rhf"
			},
			{
				"type": "unocc",
				"energy": 0.05208,
				"method": "rhf"
			},
			{
				"type": "unocc",
				"energy": 0.06396,
				"method": "rhf"
			}
		],
		"cosmo_sigma_profile": { 
			"-0.025": 0.0,
			"-0.024": 0.0,
			"-0.023": 0.0,
			"-0.022": 0.0,
			"-0.021": 0.0,
			"-0.02": 0.0,
			"-0.019": 0.0,
			"-0.018": 0.0,
			"-0.017": 0.0,
			"-0.016": 0.0,
			"-0.015": 0.0,
			"-0.014": 0.757494760973,
			"-0.013": 3.36122988295,
			"-0.012": 3.48643063922,
			"-0.011": 3.79388569976,
			"-0.01": 2.89744483969,
			"-0.009": 3.07017802053,
			"-0.008": 3.10222290356,
			"-0.007": 4.82525588174,
			"-0.006": 9.8104802832,
			"-0.005": 10.5828703211,
			"-0.004": 14.7687937038,
			"-0.003": 15.8231126055,
			"-0.002": 13.8247978181,
			"-0.001": 14.4431645395,
			"0.0": 18.748045887,
			"0.001": 21.0664055585,
			"0.002": 11.4411717193,
			"0.003": 7.58236151416,
			"0.004": 6.65806823355,
			"0.005": 7.71661782417,
			"0.006": 6.04438172457,
			"0.007": 10.3399432616,
			"0.008": 9.28569683224,
			"0.009": 6.82045342433,
			"0.01": 4.66991222278,
			"0.011": 4.91269054484,
			"0.012": 2.71653840201,
			"0.013": 0.179778695332,
			"0.014": 0.0,
			"0.015": 0.0,
			"0.016": 0.0,
			"0.017": 0.0,
			"0.018": 0.0,
			"0.019": 0.0,
			"0.02": 0.0,
			"0.021": 0.0,
			"0.022": 0.0,
			"0.023": 0.0,
			"0.024": 0.0,
			"0.025": 0.0
		}
	}
}
