{
	 "smiles": "COC1=CC=CC2=C1OC(=C2)C(=O)C1CC(C)(C1)C1=C(C)C=C(C)C=C1C", 
	 "Tm": 369.65, 
	 "num_atms": 53, 
	 "gaussian": { 
		 "optdone": 1, 
		 "sigma_profile": "yes", 
		 "theory": "DFT", 
		 "functional": "B3LYP", 
		 "basiset": "6-31G**", 
		 "properties": { 
			 "R2extent": 14984.1945, 
			 "electric_dipole_moment_norm": 4.26213961996, 
			 "electric_quadrupole_moment_norm": 18.3038895317, 
			 "total_energy": -1155.86491329, 
			 "HOMO_LUMO_gap": 0.15536, 
			 "cosmo_polarized_energy": -12.63, 
			 "cosmo_cavitation_energy": 53.28, 
			 "cosmo_dispersion_energy": -36.97, 
			 "cosmo_repulsion_energy": 2.76, 
			 "cosmo_total_nonelectrostatic_energy": 19.07, 
			 "SMD_solvation_energy": 10.06 
		},
		"coords": [
			{
				"x": 4.9793071995,
				"y": -0.4254719215,
				"z": -3.1033547601,
				"element": "C" 
			},
			{
				"x": 3.7161040224,
				"y": -0.9290956545,
				"z": -2.6925363183,
				"element": "O" 
			},
			{
				"x": 3.4916546499,
				"y": -2.2615645003,
				"z": -2.834488704,
				"element": "C" 
			},
			{
				"x": 4.3810611498,
				"y": -3.2066234223,
				"z": -3.3465916875,
				"element": "C" 
			},
			{
				"x": 4.0240078356,
				"y": -4.571135438,
				"z": -3.442342795,
				"element": "C" 
			},
			{
				"x": 2.7854193498,
				"y": -5.0401000527,
				"z": -3.0377794431,
				"element": "C" 
			},
			{
				"x": 1.8705118351,
				"y": -4.1025052402,
				"z": -2.5169444879,
				"element": "C" 
			},
			{
				"x": 2.2397042401,
				"y": -2.7487676505,
				"z": -2.4273876182,
				"element": "C" 
			},
			{
				"x": 1.2299605962,
				"y": -1.9998877883,
				"z": -1.9030255945,
				"element": "O" 
			},
			{
				"x": 0.1951666915,
				"y": -2.8799415969,
				"z": -1.6503204034,
				"element": "C" 
			},
			{
				"x": 0.5323995496,
				"y": -4.1565548201,
				"z": -2.0022766637,
				"element": "C" 
			},
			{
				"x": -1.0534022935,
				"y": -2.3505799539,
				"z": -1.069728448,
				"element": "C" 
			},
			{
				"x": -1.9812668009,
				"y": -3.1207381709,
				"z": -0.8493001317,
				"element": "O" 
			},
			{
				"x": -1.0986924928,
				"y": -0.8676089909,
				"z": -0.7661387676,
				"element": "C" 
			},
			{
				"x": -0.3902444924,
				"y": -0.4531336912,
				"z": 0.562484781,
				"element": "C" 
			},
			{
				"x": -1.7868565736,
				"y": -0.2367060831,
				"z": 1.2521491192,
				"element": "C" 
			},
			{
				"x": -2.1766892221,
				"y": -1.4413745093,
				"z": 2.1329979487,
				"element": "C" 
			},
			{
				"x": -2.4249807476,
				"y": -0.3415877403,
				"z": -0.1844223001,
				"element": "C" 
			},
			{
				"x": -1.9931608895,
				"y": 1.0713519361,
				"z": 2.0282607198,
				"element": "C" 
			},
			{
				"x": -0.965857311,
				"y": 1.6093142376,
				"z": 2.8446001767,
				"element": "C" 
			},
			{
				"x": 0.3716840462,
				"y": 0.9288186436,
				"z": 3.0783626228,
				"element": "C" 
			},
			{
				"x": -1.1714972262,
				"y": 2.8181861102,
				"z": 3.5210924552,
				"element": "C" 
			},
			{
				"x": -2.3731744647,
				"y": 3.5210345178,
				"z": 3.4498111419,
				"element": "C" 
			},
			{
				"x": -2.5554021664,
				"y": 4.8445896229,
				"z": 4.1537850793,
				"element": "C" 
			},
			{
				"x": -3.4034113754,
				"y": 2.9422835036,
				"z": 2.7102955178,
				"element": "C" 
			},
			{
				"x": -3.245832469,
				"y": 1.736400178,
				"z": 2.0159693677,
				"element": "C" 
			},
			{
				"x": -4.4804904166,
				"y": 1.1999184655,
				"z": 1.3131414928,
				"element": "C" 
			},
			{
				"x": 5.7985160516,
				"y": -0.8780309401,
				"z": -2.5304218816,
				"element": "H" 
			},
			{
				"x": 5.1514343369,
				"y": -0.5956113518,
				"z": -4.1736622409,
				"element": "H" 
			},
			{
				"x": 4.9519581936,
				"y": 0.6472594372,
				"z": -2.9082290065,
				"element": "H" 
			},
			{
				"x": 5.3651424039,
				"y": -2.8992512059,
				"z": -3.6797043548,
				"element": "H" 
			},
			{
				"x": 4.7545388974,
				"y": -5.2643558851,
				"z": -3.8485978369,
				"element": "H" 
			},
			{
				"x": 2.5265164135,
				"y": -6.0904797303,
				"z": -3.1179488464,
				"element": "H" 
			},
			{
				"x": -0.1121468517,
				"y": -5.0168666261,
				"z": -1.8986750934,
				"element": "H" 
			},
			{
				"x": -0.7134551589,
				"y": -0.330937016,
				"z": -1.6385288128,
				"element": "H" 
			},
			{
				"x": 0.1658032087,
				"y": 0.4744149407,
				"z": 0.4220710496,
				"element": "H" 
			},
			{
				"x": 0.2744111215,
				"y": -1.1931116261,
				"z": 1.0179419568,
				"element": "H" 
			},
			{
				"x": -2.0801187289,
				"y": -2.3825917501,
				"z": 1.5849196933,
				"element": "H" 
			},
			{
				"x": -3.2151314971,
				"y": -1.3561363891,
				"z": 2.4691320688,
				"element": "H" 
			},
			{
				"x": -1.5476190735,
				"y": -1.4922435061,
				"z": 3.0281262355,
				"element": "H" 
			},
			{
				"x": -2.6776028211,
				"y": 0.6319701519,
				"z": -0.6069816674,
				"element": "H" 
			},
			{
				"x": -3.276014986,
				"y": -1.0185606798,
				"z": -0.2861933532,
				"element": "H" 
			},
			{
				"x": 1.0986334222,
				"y": 1.1432687875,
				"z": 2.2870855032,
				"element": "H" 
			},
			{
				"x": 0.2869096936,
				"y": -0.1573563391,
				"z": 3.1522451855,
				"element": "H" 
			},
			{
				"x": 0.8073017313,
				"y": 1.2858150585,
				"z": 4.0158955618,
				"element": "H" 
			},
			{
				"x": -0.36448672,
				"y": 3.2113074254,
				"z": 4.1366097738,
				"element": "H" 
			},
			{
				"x": -1.9296723901,
				"y": 4.9119423197,
				"z": 5.0492712586,
				"element": "H" 
			},
			{
				"x": -3.5962488879,
				"y": 4.9983418029,
				"z": 4.4554666574,
				"element": "H" 
			},
			{
				"x": -2.2798811684,
				"y": 5.6836639234,
				"z": 3.502062636,
				"element": "H" 
			},
			{
				"x": -4.3738257892,
				"y": 3.4342708022,
				"z": 2.6799939837,
				"element": "H" 
			},
			{
				"x": -4.5123179999,
				"y": 1.4731635787,
				"z": 0.2525212951,
				"element": "H" 
			},
			{
				"x": -4.5609016532,
				"y": 0.1126108703,
				"z": 1.3666321187,
				"element": "H" 
			},
			{
				"x": -5.3785639727,
				"y": 1.6179839568,
				"z": 1.7767558165,
				"element": "H" 
			}
		],
		 "valence_orbital": [ 
			{
				"type": "occ",
				"energy": -0.24965,
				"method": "rhf"
			},
			{
				"type": "occ",
				"energy": -0.23708,
				"method": "rhf"
			},
			{
				"type": "occ",
				"energy": -0.22372,
				"method": "rhf"
			},
			{
				"type": "occ",
				"energy": -0.21832,
				"method": "rhf"
			},
			{
				"type": "occ",
				"energy": -0.21659,
				"method": "rhf"
			},
			{
				"type": "unocc",
				"energy": -0.06123,
				"method": "rhf"
			},
			{
				"type": "unocc",
				"energy": 0.00603,
				"method": "rhf"
			},
			{
				"type": "unocc",
				"energy": 0.01046,
				"method": "rhf"
			},
			{
				"type": "unocc",
				"energy": 0.01269,
				"method": "rhf"
			},
			{
				"type": "unocc",
				"energy": 0.01847,
				"method": "rhf"
			}
		],
		"cosmo_sigma_profile": { 
			"-0.025": 0.0,
			"-0.024": 0.0,
			"-0.023": 0.0,
			"-0.022": 0.0,
			"-0.021": 0.0,
			"-0.02": 0.0,
			"-0.019": 0.0,
			"-0.018": 0.0,
			"-0.017": 0.0,
			"-0.016": 0.0,
			"-0.015": 0.0,
			"-0.014": 0.0,
			"-0.013": 0.0,
			"-0.012": 0.0,
			"-0.011": 0.0,
			"-0.01": 0.0,
			"-0.009": 0.165480832143,
			"-0.008": 1.11506317694,
			"-0.007": 3.59553709715,
			"-0.006": 12.6022679682,
			"-0.005": 20.2104509101,
			"-0.004": 41.9212412616,
			"-0.003": 49.8289959516,
			"-0.002": 37.8928416158,
			"-0.001": 38.2025436351,
			"0.0": 47.8587220126,
			"0.001": 44.0703331211,
			"0.002": 27.9865541572,
			"0.003": 20.8004426008,
			"0.004": 18.0660067162,
			"0.005": 15.9424402869,
			"0.006": 11.4816740801,
			"0.007": 9.04578718754,
			"0.008": 5.5156617436,
			"0.009": 3.97675447371,
			"0.01": 3.48518179446,
			"0.011": 2.80833382035,
			"0.012": 3.50461784336,
			"0.013": 0.479896854458,
			"0.014": 0.0,
			"0.015": 0.0,
			"0.016": 0.0,
			"0.017": 0.0,
			"0.018": 0.0,
			"0.019": 0.0,
			"0.02": 0.0,
			"0.021": 0.0,
			"0.022": 0.0,
			"0.023": 0.0,
			"0.024": 0.0,
			"0.025": 0.0
		}
	}
}
