{
	 "smiles": "NS(=O)(=O)C1CCNC1", 
	 "Tm": 389.15, 
	 "num_atms": 19, 
	 "gaussian": { 
		 "optdone": 1, 
		 "sigma_profile": "yes", 
		 "theory": "DFT", 
		 "functional": "B3LYP", 
		 "basiset": "6-31G**", 
		 "properties": { 
			 "R2extent": 1701.0454, 
			 "electric_dipole_moment_norm": 2.99792044424, 
			 "electric_quadrupole_moment_norm": 19.7280511929, 
			 "total_energy": -816.517010885, 
			 "HOMO_LUMO_gap": 0.2809, 
			 "cosmo_polarized_energy": -17.53, 
			 "cosmo_cavitation_energy": 22.3, 
			 "cosmo_dispersion_energy": -17.27, 
			 "cosmo_repulsion_energy": 1.37, 
			 "cosmo_total_nonelectrostatic_energy": 6.4, 
			 "SMD_solvation_energy": 0.08 
		},
		"coords": [
			{
				"x": -2.8021100841,
				"y": -0.385739178,
				"z": -0.9881303201,
				"element": "N" 
			},
			{
				"x": -1.4684037207,
				"y": 0.4882334078,
				"z": -1.583916611,
				"element": "S" 
			},
			{
				"x": -1.1459140768,
				"y": -0.0619441714,
				"z": -2.9054176733,
				"element": "O" 
			},
			{
				"x": -1.7516956937,
				"y": 1.9154408477,
				"z": -1.3909713001,
				"element": "O" 
			},
			{
				"x": -0.1413742862,
				"y": 0.03693657,
				"z": -0.4344671281,
				"element": "C" 
			},
			{
				"x": 0.1134514425,
				"y": -1.4887521623,
				"z": -0.3360514395,
				"element": "C" 
			},
			{
				"x": -0.185779497,
				"y": -1.8081349847,
				"z": 1.1495534345,
				"element": "C" 
			},
			{
				"x": 0.075106889,
				"y": -0.5735340495,
				"z": 1.9038209368,
				"element": "N" 
			},
			{
				"x": -0.4204034149,
				"y": 0.4955843441,
				"z": 1.0324514762,
				"element": "C" 
			},
			{
				"x": -3.5265694036,
				"y": 0.2689528974,
				"z": -0.7044828639,
				"element": "H" 
			},
			{
				"x": -3.1422746314,
				"y": -1.0021821246,
				"z": -1.7216881792,
				"element": "H" 
			},
			{
				"x": 0.7159720537,
				"y": 0.5642070085,
				"z": -0.863296252,
				"element": "H" 
			},
			{
				"x": 1.1605227469,
				"y": -1.6961846473,
				"z": -0.5771390704,
				"element": "H" 
			},
			{
				"x": -0.4966500857,
				"y": -2.0680471433,
				"z": -1.0335357171,
				"element": "H" 
			},
			{
				"x": 0.4093555645,
				"y": -2.6365472722,
				"z": 1.542636797,
				"element": "H" 
			},
			{
				"x": -1.2441340139,
				"y": -2.0671276529,
				"z": 1.2667194055,
				"element": "H" 
			},
			{
				"x": 1.0817080038,
				"y": -0.46578038,
				"z": 2.0163293543,
				"element": "H" 
			},
			{
				"x": -1.4986527829,
				"y": 0.6059860901,
				"z": 1.190095466,
				"element": "H" 
			},
			{
				"x": 0.0471449905,
				"y": 1.4534326006,
				"z": 1.2667896845,
				"element": "H" 
			}
		],
		 "valence_orbital": [ 
			{
				"type": "occ",
				"energy": -0.31624,
				"method": "rhf"
			},
			{
				"type": "occ",
				"energy": -0.31152,
				"method": "rhf"
			},
			{
				"type": "occ",
				"energy": -0.29971,
				"method": "rhf"
			},
			{
				"type": "occ",
				"energy": -0.28945,
				"method": "rhf"
			},
			{
				"type": "occ",
				"energy": -0.23998,
				"method": "rhf"
			},
			{
				"type": "unocc",
				"energy": 0.04092,
				"method": "rhf"
			},
			{
				"type": "unocc",
				"energy": 0.061,
				"method": "rhf"
			},
			{
				"type": "unocc",
				"energy": 0.08223,
				"method": "rhf"
			},
			{
				"type": "unocc",
				"energy": 0.08443,
				"method": "rhf"
			},
			{
				"type": "unocc",
				"energy": 0.09432,
				"method": "rhf"
			}
		],
		"cosmo_sigma_profile": { 
			"-0.025": 0.0,
			"-0.024": 0.0,
			"-0.023": 0.0,
			"-0.022": 0.0,
			"-0.021": 0.0,
			"-0.02": 0.0,
			"-0.019": 0.0,
			"-0.018": 0.0,
			"-0.017": 0.0,
			"-0.016": 0.0,
			"-0.015": 0.403781814863,
			"-0.014": 2.24627745867,
			"-0.013": 2.60745145311,
			"-0.012": 2.46520117028,
			"-0.011": 3.39059959242,
			"-0.01": 3.52501478229,
			"-0.009": 2.70985305451,
			"-0.008": 5.91678833122,
			"-0.007": 7.30466473832,
			"-0.006": 8.53970024251,
			"-0.005": 12.4184415161,
			"-0.004": 12.4824594306,
			"-0.003": 11.1794332882,
			"-0.002": 10.9664826085,
			"-0.001": 12.7672575613,
			"0.0": 6.57955144032,
			"0.001": 4.57814286996,
			"0.002": 4.81695414972,
			"0.003": 4.85183856592,
			"0.004": 4.27509785492,
			"0.005": 3.98644943987,
			"0.006": 4.3837955387,
			"0.007": 4.08804311104,
			"0.008": 3.79588544656,
			"0.009": 4.19707301561,
			"0.01": 4.46272525457,
			"0.011": 12.1858343594,
			"0.012": 8.3749499902,
			"0.013": 1.03192191804,
			"0.014": 0.904559487068,
			"0.015": 0.252032990049,
			"0.016": 0.650865751703,
			"0.017": 0.835154160051,
			"0.018": 0.371674154952,
			"0.019": 0.00822023743777,
			"0.02": 0.0,
			"0.021": 0.0,
			"0.022": 0.0,
			"0.023": 0.0,
			"0.024": 0.0,
			"0.025": 0.0
		}
	}
}
