{
	 "smiles": "CCOC1=NC(NC)=NC(NC(=O)NS(=O)(=O)C2=CC=CC=C2C(=O)OC)=N1", 
	 "Tm": 467.15, 
	 "num_atms": 46, 
	 "gaussian": { 
		 "optdone": 1, 
		 "sigma_profile": "yes", 
		 "theory": "DFT", 
		 "functional": "B3LYP", 
		 "basiset": "6-31G**", 
		 "properties": { 
			 "R2extent": 10265.1944, 
			 "electric_dipole_moment_norm": 5.33322297396, 
			 "electric_quadrupole_moment_norm": 15.5535572352, 
			 "total_energy": -1760.45876162, 
			 "HOMO_LUMO_gap": 0.17158, 
			 "cosmo_polarized_energy": -23.49, 
			 "cosmo_cavitation_energy": 50.55, 
			 "cosmo_dispersion_energy": -33.44, 
			 "cosmo_repulsion_energy": 2.51, 
			 "cosmo_total_nonelectrostatic_energy": 19.62, 
			 "SMD_solvation_energy": 8.18 
		},
		"coords": [
			{
				"x": -1.8504254427,
				"y": -0.4281606687,
				"z": 5.0754380354,
				"element": "C" 
			},
			{
				"x": -1.8635578251,
				"y": -1.9084962178,
				"z": 4.7239184537,
				"element": "C" 
			},
			{
				"x": -2.405639571,
				"y": -2.1373167332,
				"z": 3.4049997712,
				"element": "O" 
			},
			{
				"x": -1.5987059952,
				"y": -2.0343845765,
				"z": 2.3450767675,
				"element": "C" 
			},
			{
				"x": -0.3139154723,
				"y": -1.7295799648,
				"z": 2.5238149538,
				"element": "N" 
			},
			{
				"x": 0.4078975182,
				"y": -1.6645039682,
				"z": 1.3843829635,
				"element": "C" 
			},
			{
				"x": 1.7221353189,
				"y": -1.3933438554,
				"z": 1.4337730138,
				"element": "N" 
			},
			{
				"x": 2.4493075959,
				"y": -0.9687895155,
				"z": 2.614667238,
				"element": "C" 
			},
			{
				"x": -0.102022985,
				"y": -1.8653870096,
				"z": 0.1451830374,
				"element": "N" 
			},
			{
				"x": -1.3857575122,
				"y": -2.1616908732,
				"z": 0.1330396321,
				"element": "C" 
			},
			{
				"x": -1.9874505798,
				"y": -2.3939028764,
				"z": -1.0986158643,
				"element": "N" 
			},
			{
				"x": -1.4830462098,
				"y": -2.6030312911,
				"z": -2.3688098759,
				"element": "C" 
			},
			{
				"x": -2.1786935132,
				"y": -3.1637984202,
				"z": -3.2032420607,
				"element": "O" 
			},
			{
				"x": -0.1971911045,
				"y": -2.1890893496,
				"z": -2.7731761271,
				"element": "N" 
			},
			{
				"x": 0.9172757804,
				"y": -0.8666571637,
				"z": -2.60460913,
				"element": "S" 
			},
			{
				"x": 1.2580163389,
				"y": -0.6236548361,
				"z": -4.0089838929,
				"element": "O" 
			},
			{
				"x": 2.0008610365,
				"y": -1.1700907266,
				"z": -1.6702338028,
				"element": "O" 
			},
			{
				"x": -0.0703314148,
				"y": 0.5001412966,
				"z": -1.9605131779,
				"element": "C" 
			},
			{
				"x": -1.403497829,
				"y": 0.6105406591,
				"z": -2.3574991084,
				"element": "C" 
			},
			{
				"x": -2.1941551573,
				"y": 1.644082558,
				"z": -1.8545696592,
				"element": "C" 
			},
			{
				"x": -1.6544132202,
				"y": 2.5574292793,
				"z": -0.9502173186,
				"element": "C" 
			},
			{
				"x": -0.312777904,
				"y": 2.4631214252,
				"z": -0.5828332846,
				"element": "C" 
			},
			{
				"x": 0.5052502215,
				"y": 1.4574510459,
				"z": -1.1074239732,
				"element": "C" 
			},
			{
				"x": 1.9657088889,
				"y": 1.517666401,
				"z": -0.7538089589,
				"element": "C" 
			},
			{
				"x": 2.3927035227,
				"y": 1.5848874511,
				"z": 0.3801925448,
				"element": "O" 
			},
			{
				"x": 2.7174861938,
				"y": 1.5866024821,
				"z": -1.8612190811,
				"element": "O" 
			},
			{
				"x": 4.1423659197,
				"y": 1.5555860843,
				"z": -1.6607427997,
				"element": "C" 
			},
			{
				"x": -2.2155488386,
				"y": -2.2687719036,
				"z": 1.1777246045,
				"element": "N" 
			},
			{
				"x": -1.5240228145,
				"y": -0.2963820424,
				"z": 6.112652723,
				"element": "H" 
			},
			{
				"x": -2.8507123388,
				"y": 0.0027318881,
				"z": 4.9729708649,
				"element": "H" 
			},
			{
				"x": -1.1613447832,
				"y": 0.1166638226,
				"z": 4.4257684175,
				"element": "H" 
			},
			{
				"x": -2.5361793041,
				"y": -2.4639223714,
				"z": 5.3823512258,
				"element": "H" 
			},
			{
				"x": -0.8622608322,
				"y": -2.3402964073,
				"z": 4.7849055415,
				"element": "H" 
			},
			{
				"x": 2.1518164682,
				"y": -1.2961856819,
				"z": 0.5213187366,
				"element": "H" 
			},
			{
				"x": 3.3884970065,
				"y": -1.525064931,
				"z": 2.6987245524,
				"element": "H" 
			},
			{
				"x": 2.6731645859,
				"y": 0.1021447271,
				"z": 2.5626513087,
				"element": "H" 
			},
			{
				"x": 1.8385878589,
				"y": -1.1695751678,
				"z": 3.4938616117,
				"element": "H" 
			},
			{
				"x": -2.9433461929,
				"y": -2.7202309611,
				"z": -1.0251176882,
				"element": "H" 
			},
			{
				"x": -0.108592251,
				"y": -2.4594659875,
				"z": -3.7506663189,
				"element": "H" 
			},
			{
				"x": -1.8309763481,
				"y": -0.1040430734,
				"z": -3.0510909439,
				"element": "H" 
			},
			{
				"x": -3.2316867832,
				"y": 1.7224599203,
				"z": -2.1628972568,
				"element": "H" 
			},
			{
				"x": -2.2720034835,
				"y": 3.3501301777,
				"z": -0.5397952626,
				"element": "H" 
			},
			{
				"x": 0.1253003899,
				"y": 3.1803764515,
				"z": 0.1034655771,
				"element": "H" 
			},
			{
				"x": 4.5779873235,
				"y": 1.7350188858,
				"z": -2.642528127,
				"element": "H" 
			},
			{
				"x": 4.4379931235,
				"y": 0.5719580344,
				"z": -1.2881552931,
				"element": "H" 
			},
			{
				"x": 4.4466006147,
				"y": 2.3263239843,
				"z": -0.9497325694,
				"element": "H" 
			}
		],
		 "valence_orbital": [ 
			{
				"type": "occ",
				"energy": -0.275,
				"method": "rhf"
			},
			{
				"type": "occ",
				"energy": -0.26927,
				"method": "rhf"
			},
			{
				"type": "occ",
				"energy": -0.26589,
				"method": "rhf"
			},
			{
				"type": "occ",
				"energy": -0.26432,
				"method": "rhf"
			},
			{
				"type": "occ",
				"energy": -0.2357,
				"method": "rhf"
			},
			{
				"type": "unocc",
				"energy": -0.06412,
				"method": "rhf"
			},
			{
				"type": "unocc",
				"energy": -0.04359,
				"method": "rhf"
			},
			{
				"type": "unocc",
				"energy": -0.02654,
				"method": "rhf"
			},
			{
				"type": "unocc",
				"energy": -0.00028,
				"method": "rhf"
			},
			{
				"type": "unocc",
				"energy": 0.00914,
				"method": "rhf"
			}
		],
		"cosmo_sigma_profile": { 
			"-0.025": 0.0,
			"-0.024": 0.0,
			"-0.023": 0.0,
			"-0.022": 0.0,
			"-0.021": 0.0,
			"-0.02": 0.0,
			"-0.019": 0.0,
			"-0.018": 0.0,
			"-0.017": 0.0,
			"-0.016": 0.018193283925,
			"-0.015": 0.734766491872,
			"-0.014": 1.09572046143,
			"-0.013": 1.16201998454,
			"-0.012": 1.15282481531,
			"-0.011": 1.50206648032,
			"-0.01": 1.64032244121,
			"-0.009": 3.34104851555,
			"-0.008": 9.68755981484,
			"-0.007": 15.0205484293,
			"-0.006": 17.3028566677,
			"-0.005": 23.4765725913,
			"-0.004": 33.6273056823,
			"-0.003": 35.6537345824,
			"-0.002": 33.2047539815,
			"-0.001": 30.5383209904,
			"0.0": 36.1194366526,
			"0.001": 29.6437088699,
			"0.002": 18.628406301,
			"0.003": 13.3348536645,
			"0.004": 13.1196299499,
			"0.005": 11.575146067,
			"0.006": 9.67227781669,
			"0.007": 9.26490550193,
			"0.008": 8.19389486908,
			"0.009": 12.3086502968,
			"0.01": 13.146840318,
			"0.011": 10.4972453513,
			"0.012": 5.22369153356,
			"0.013": 1.45228164917,
			"0.014": 0.889246873464,
			"0.015": 0.355624012231,
			"0.016": 0.0,
			"0.017": 0.0,
			"0.018": 0.0,
			"0.019": 0.0,
			"0.02": 0.0,
			"0.021": 0.0,
			"0.022": 0.0,
			"0.023": 0.0,
			"0.024": 0.0,
			"0.025": 0.0
		}
	}
}
