{
	 "smiles": "OC(=O)C1=CC=C(CN2C(=O)C3=C(C=CC=C3)C2=O)C=C1", 
	 "Tm": 532.15, 
	 "num_atms": 32, 
	 "gaussian": { 
		 "optdone": 1, 
		 "sigma_profile": "yes", 
		 "theory": "DFT", 
		 "functional": "B3LYP", 
		 "basiset": "6-31G**", 
		 "properties": { 
			 "R2extent": 8999.3153, 
			 "electric_dipole_moment_norm": 6.69640057419, 
			 "electric_quadrupole_moment_norm": 36.459020665, 
			 "total_energy": -972.024243428, 
			 "HOMO_LUMO_gap": 0.17117, 
			 "cosmo_polarized_energy": -20.61, 
			 "cosmo_cavitation_energy": 38.17, 
			 "cosmo_dispersion_energy": -26.84, 
			 "cosmo_repulsion_energy": 2.0, 
			 "cosmo_total_nonelectrostatic_energy": 13.34, 
			 "SMD_solvation_energy": 8.36 
		},
		"coords": [
			{
				"x": 0.9588081059,
				"y": 2.4087665784,
				"z": -6.3874603183,
				"element": "O" 
			},
			{
				"x": 2.098482387,
				"y": 2.096682641,
				"z": -5.7126536909,
				"element": "C" 
			},
			{
				"x": 3.1175714388,
				"y": 1.8723190468,
				"z": -6.3222827854,
				"element": "O" 
			},
			{
				"x": 2.0055210028,
				"y": 2.0493604255,
				"z": -4.2166996283,
				"element": "C" 
			},
			{
				"x": 2.9974100228,
				"y": 1.3413235543,
				"z": -3.5244871531,
				"element": "C" 
			},
			{
				"x": 2.9678815118,
				"y": 1.2660636872,
				"z": -2.1356231031,
				"element": "C" 
			},
			{
				"x": 1.9582206795,
				"y": 1.9133651821,
				"z": -1.4096815969,
				"element": "C" 
			},
			{
				"x": 1.9210100456,
				"y": 1.822579883,
				"z": 0.1045620532,
				"element": "C" 
			},
			{
				"x": 1.1446814701,
				"y": 0.6834075145,
				"z": 0.5882743666,
				"element": "N" 
			},
			{
				"x": 1.6937966231,
				"y": -0.5847783537,
				"z": 0.8413411022,
				"element": "C" 
			},
			{
				"x": 2.8658037238,
				"y": -0.878454122,
				"z": 0.7084850787,
				"element": "O" 
			},
			{
				"x": 0.5501304016,
				"y": -1.4313103078,
				"z": 1.2940527833,
				"element": "C" 
			},
			{
				"x": -0.6071905433,
				"y": -0.647848297,
				"z": 1.2815305856,
				"element": "C" 
			},
			{
				"x": -1.8378727932,
				"y": -1.1659228117,
				"z": 1.6570552453,
				"element": "C" 
			},
			{
				"x": -1.8781653374,
				"y": -2.510618475,
				"z": 2.0503561046,
				"element": "C" 
			},
			{
				"x": -0.7182882732,
				"y": -3.2958034333,
				"z": 2.0626548392,
				"element": "C" 
			},
			{
				"x": 0.5208759323,
				"y": -2.7626070071,
				"z": 1.6822810692,
				"element": "C" 
			},
			{
				"x": -0.2393437716,
				"y": 0.7235812624,
				"z": 0.8194787205,
				"element": "C" 
			},
			{
				"x": -0.9465598583,
				"y": 1.7007363803,
				"z": 0.6644867016,
				"element": "O" 
			},
			{
				"x": 0.976543256,
				"y": 2.6351571767,
				"z": -2.0990425587,
				"element": "C" 
			},
			{
				"x": 0.9993546365,
				"y": 2.7026988561,
				"z": -3.4907970574,
				"element": "C" 
			},
			{
				"x": 0.2020349635,
				"y": 2.4003593466,
				"z": -5.7853839454,
				"element": "H" 
			},
			{
				"x": 3.7819082889,
				"y": 0.8581072711,
				"z": -4.09679213,
				"element": "H" 
			},
			{
				"x": 3.7259678678,
				"y": 0.6983146907,
				"z": -1.6037667824,
				"element": "H" 
			},
			{
				"x": 2.9305453657,
				"y": 1.7086683684,
				"z": 0.5060976398,
				"element": "H" 
			},
			{
				"x": 1.4676146834,
				"y": 2.7205397165,
				"z": 0.5309457692,
				"element": "H" 
			},
			{
				"x": -2.7302023262,
				"y": -0.5485145933,
				"z": 1.6442736063,
				"element": "H" 
			},
			{
				"x": -2.8232201893,
				"y": -2.9530530503,
				"z": 2.3506807871,
				"element": "H" 
			},
			{
				"x": -0.7824090827,
				"y": -4.334623966,
				"z": 2.3721536558,
				"element": "H" 
			},
			{
				"x": 1.4257055853,
				"y": -3.3616207522,
				"z": 1.6883551727,
				"element": "H" 
			},
			{
				"x": 0.1929608616,
				"y": 3.1390281201,
				"z": -1.5410830854,
				"element": "H" 
			},
			{
				"x": 0.2481233214,
				"y": 3.3050954678,
				"z": -3.9965114454,
				"element": "H" 
			}
		],
		 "valence_orbital": [ 
			{
				"type": "occ",
				"energy": -0.27707,
				"method": "rhf"
			},
			{
				"type": "occ",
				"energy": -0.2768,
				"method": "rhf"
			},
			{
				"type": "occ",
				"energy": -0.27429,
				"method": "rhf"
			},
			{
				"type": "occ",
				"energy": -0.27007,
				"method": "rhf"
			},
			{
				"type": "occ",
				"energy": -0.2611,
				"method": "rhf"
			},
			{
				"type": "unocc",
				"energy": -0.08993,
				"method": "rhf"
			},
			{
				"type": "unocc",
				"energy": -0.05403,
				"method": "rhf"
			},
			{
				"type": "unocc",
				"energy": -0.0463,
				"method": "rhf"
			},
			{
				"type": "unocc",
				"energy": -0.02223,
				"method": "rhf"
			},
			{
				"type": "unocc",
				"energy": 0.02081,
				"method": "rhf"
			}
		],
		"cosmo_sigma_profile": { 
			"-0.025": 0.0,
			"-0.024": 0.0,
			"-0.023": 0.0,
			"-0.022": 0.0,
			"-0.021": 0.0,
			"-0.02": 0.0,
			"-0.019": 0.382569403352,
			"-0.018": 0.669588374163,
			"-0.017": 1.22531393005,
			"-0.016": 0.689984133732,
			"-0.015": 0.688833009101,
			"-0.014": 0.484313004153,
			"-0.013": 1.59797046722,
			"-0.012": 1.39550654575,
			"-0.011": 1.36102546066,
			"-0.01": 0.963854132078,
			"-0.009": 1.44388361518,
			"-0.008": 3.42277970172,
			"-0.007": 12.4812122636,
			"-0.006": 20.6361859962,
			"-0.005": 22.7739697945,
			"-0.004": 21.4539084047,
			"-0.003": 20.7328924405,
			"-0.002": 17.3372947982,
			"-0.001": 21.0882435942,
			"0.0": 20.3727756441,
			"0.001": 24.5648387525,
			"0.002": 27.4749002122,
			"0.003": 19.1330162176,
			"0.004": 5.87047288938,
			"0.005": 5.50320378246,
			"0.006": 4.68971247899,
			"0.007": 5.59125196238,
			"0.008": 6.05424210762,
			"0.009": 6.16000418374,
			"0.01": 10.0177117338,
			"0.011": 12.5587994526,
			"0.012": 6.73072117955,
			"0.013": 1.51214779084,
			"0.014": 0.0448641960432,
			"0.015": 0.0,
			"0.016": 0.0,
			"0.017": 0.0,
			"0.018": 0.0,
			"0.019": 0.0,
			"0.02": 0.0,
			"0.021": 0.0,
			"0.022": 0.0,
			"0.023": 0.0,
			"0.024": 0.0,
			"0.0": 0.0
		}
	}
}
