{
	 "smiles": "NC1=C(F)C=C2CCC(=O)NC2=C1", 
	 "Tm": 448.15, 
	 "num_atms": 22, 
	 "gaussian": { 
		 "optdone": 1, 
		 "sigma_profile": "yes", 
		 "theory": "DFT", 
		 "functional": "B3LYP", 
		 "basiset": "6-31G**", 
		 "properties": { 
			 "R2extent": 3418.6748, 
			 "electric_dipole_moment_norm": 3.1279474596, 
			 "electric_quadrupole_moment_norm": 21.9104613254, 
			 "total_energy": -632.974338078, 
			 "HOMO_LUMO_gap": 0.19317, 
			 "cosmo_polarized_energy": -14.62, 
			 "cosmo_cavitation_energy": 25.83, 
			 "cosmo_dispersion_energy": -19.38, 
			 "cosmo_repulsion_energy": 1.51, 
			 "cosmo_total_nonelectrostatic_energy": 7.96, 
			 "SMD_solvation_energy": 4.97 
		},
		"coords": [
			{
				"x": -1.2852610722,
				"y": -2.1665947681,
				"z": 1.5373701193,
				"element": "N" 
			},
			{
				"x": -0.2728018455,
				"y": -1.2748041006,
				"z": 1.1983810863,
				"element": "C" 
			},
			{
				"x": 0.4557438102,
				"y": -1.4612345296,
				"z": 0.0151020236,
				"element": "C" 
			},
			{
				"x": 0.1769957336,
				"y": -2.5717535795,
				"z": -0.721888875,
				"element": "F" 
			},
			{
				"x": 1.4337319996,
				"y": -0.5780307094,
				"z": -0.4052231833,
				"element": "C" 
			},
			{
				"x": 1.7360445279,
				"y": 0.553230126,
				"z": 0.356605598,
				"element": "C" 
			},
			{
				"x": 2.8321907453,
				"y": 1.5312440599,
				"z": 0.0039080116,
				"element": "C" 
			},
			{
				"x": 2.4545661153,
				"y": 2.9540134003,
				"z": 0.4428609763,
				"element": "C" 
			},
			{
				"x": 1.9915953572,
				"y": 3.0165636865,
				"z": 1.8916290717,
				"element": "C" 
			},
			{
				"x": 2.1682168559,
				"y": 3.9757450202,
				"z": 2.6261708382,
				"element": "O" 
			},
			{
				"x": 1.3039519553,
				"y": 1.8982160577,
				"z": 2.3217273875,
				"element": "N" 
			},
			{
				"x": 1.0103587292,
				"y": 0.7637780926,
				"z": 1.5416863412,
				"element": "C" 
			},
			{
				"x": 0.0213435511,
				"y": -0.1336363566,
				"z": 1.9568150618,
				"element": "C" 
			},
			{
				"x": -1.4809628825,
				"y": -2.2478605837,
				"z": 2.524898489,
				"element": "H" 
			},
			{
				"x": -1.2174051444,
				"y": -3.0621882742,
				"z": 1.0744101415,
				"element": "H" 
			},
			{
				"x": 1.9670620971,
				"y": -0.7881400689,
				"z": -1.3273013386,
				"element": "H" 
			},
			{
				"x": 3.0396133872,
				"y": 1.5083565066,
				"z": -1.0707012029,
				"element": "H" 
			},
			{
				"x": 3.7658935594,
				"y": 1.2383104123,
				"z": 0.5068887589,
				"element": "H" 
			},
			{
				"x": 3.2831569767,
				"y": 3.6565055073,
				"z": 0.3330955356,
				"element": "H" 
			},
			{
				"x": 1.6250436923,
				"y": 3.3264322114,
				"z": -0.1739474342,
				"element": "H" 
			},
			{
				"x": 0.9149934792,
				"y": 1.9725568259,
				"z": 3.2527831588,
				"element": "H" 
			},
			{
				"x": -0.5396716279,
				"y": 0.0600910638,
				"z": 2.8677294347,
				"element": "H" 
			}
		],
		 "valence_orbital": [ 
			{
				"type": "occ",
				"energy": -0.32229,
				"method": "rhf"
			},
			{
				"type": "occ",
				"energy": -0.28725,
				"method": "rhf"
			},
			{
				"type": "occ",
				"energy": -0.24989,
				"method": "rhf"
			},
			{
				"type": "occ",
				"energy": -0.22991,
				"method": "rhf"
			},
			{
				"type": "occ",
				"energy": -0.20023,
				"method": "rhf"
			},
			{
				"type": "unocc",
				"energy": -0.00706,
				"method": "rhf"
			},
			{
				"type": "unocc",
				"energy": -0.00238,
				"method": "rhf"
			},
			{
				"type": "unocc",
				"energy": 0.04358,
				"method": "rhf"
			},
			{
				"type": "unocc",
				"energy": 0.0738,
				"method": "rhf"
			},
			{
				"type": "unocc",
				"energy": 0.08691,
				"method": "rhf"
			}
		],
		"cosmo_sigma_profile": { 
			"-0.025": 0.0,
			"-0.024": 0.0,
			"-0.023": 0.0,
			"-0.022": 0.0,
			"-0.021": 0.0,
			"-0.02": 0.0,
			"-0.019": 0.0,
			"-0.018": 0.0,
			"-0.017": 0.0,
			"-0.016": 0.0,
			"-0.015": 0.263354139781,
			"-0.014": 0.894513427746,
			"-0.013": 2.17256759986,
			"-0.012": 2.83746097818,
			"-0.011": 3.59248716213,
			"-0.01": 3.8480555399,
			"-0.009": 3.71104242176,
			"-0.008": 3.74105105154,
			"-0.007": 5.19889854624,
			"-0.006": 7.61649794345,
			"-0.005": 11.0588314899,
			"-0.004": 16.5251131076,
			"-0.003": 14.357731611,
			"-0.002": 14.7372072533,
			"-0.001": 11.5714837524,
			"0.0": 8.27897017358,
			"0.001": 10.905312265,
			"0.002": 13.1674871889,
			"0.003": 12.7775530821,
			"0.004": 17.5709305438,
			"0.005": 13.2437745984,
			"0.006": 1.64082518093,
			"0.007": 2.30767657646,
			"0.008": 2.00038676722,
			"0.009": 2.26712703439,
			"0.01": 2.56654587869,
			"0.011": 2.03881274305,
			"0.012": 2.85461147238,
			"0.013": 5.86443980391,
			"0.014": 4.37192948364,
			"0.015": 0.612123695688,
			"0.016": 0.0,
			"0.017": 0.0,
			"0.018": 0.0,
			"0.019": 0.0,
			"0.02": 0.0,
			"0.021": 0.0,
			"0.022": 0.0,
			"0.023": 0.0,
			"0.024": 0.0,
			"0.025": 0.0
		}
	}
}
