{
	 "smiles": "NC1=C2C=NNC2=CC=C1", 
	 "Tm": 419.15, 
	 "num_atms": 17, 
	 "gaussian": { 
		 "optdone": 1, 
		 "sigma_profile": "yes", 
		 "theory": "DFT", 
		 "functional": "B3LYP", 
		 "basiset": "6-31G**", 
		 "properties": { 
			 "R2extent": 1682.9044, 
			 "electric_dipole_moment_norm": 1.85012032311, 
			 "electric_quadrupole_moment_norm": 14.1488852501, 
			 "total_energy": -435.204974658, 
			 "HOMO_LUMO_gap": 0.17901, 
			 "cosmo_polarized_energy": -13.19, 
			 "cosmo_cavitation_energy": 20.78, 
			 "cosmo_dispersion_energy": -15.93, 
			 "cosmo_repulsion_energy": 1.28, 
			 "cosmo_total_nonelectrostatic_energy": 6.14, 
			 "SMD_solvation_energy": 2.5 
		},
		"coords": [
			{
				"x": -0.2828705957,
				"y": 2.3024584051,
				"z": -1.4502486423,
				"element": "N" 
			},
			{
				"x": 0.4036095887,
				"y": 1.2571166491,
				"z": -0.839038903,
				"element": "C" 
			},
			{
				"x": 0.5793138961,
				"y": 0.0205218671,
				"z": -1.5097700902,
				"element": "C" 
			},
			{
				"x": 0.2399108448,
				"y": -0.5008772242,
				"z": -2.7956034891,
				"element": "C" 
			},
			{
				"x": 0.6446305934,
				"y": -1.7508723947,
				"z": -2.9393142368,
				"element": "N" 
			},
			{
				"x": 1.2506796569,
				"y": -2.0724893994,
				"z": -1.7640524544,
				"element": "N" 
			},
			{
				"x": 1.2409700398,
				"y": -1.0483348626,
				"z": -0.8570278165,
				"element": "C" 
			},
			{
				"x": 1.7358750913,
				"y": -0.9526639977,
				"z": 0.4549527217,
				"element": "C" 
			},
			{
				"x": 1.5408262781,
				"y": 0.2649833246,
				"z": 1.0890650105,
				"element": "C" 
			},
			{
				"x": 0.8946075732,
				"y": 1.3516961505,
				"z": 0.4640462356,
				"element": "C" 
			},
			{
				"x": -0.1285075633,
				"y": 3.2132400159,
				"z": -1.040230066,
				"element": "H" 
			},
			{
				"x": -0.2298666365,
				"y": 2.3272311474,
				"z": -2.4589963431,
				"element": "H" 
			},
			{
				"x": -0.2884295669,
				"y": -0.0202542743,
				"z": -3.6087655336,
				"element": "H" 
			},
			{
				"x": 1.6305088334,
				"y": -2.9981465565,
				"z": -1.6512963915,
				"element": "H" 
			},
			{
				"x": 2.2390141456,
				"y": -1.7795655415,
				"z": 0.9443263563,
				"element": "H" 
			},
			{
				"x": 1.9034247216,
				"y": 0.3968917708,
				"z": 2.1047807293,
				"element": "H" 
			},
			{
				"x": 0.7753030995,
				"y": 2.2841649203,
				"z": 1.009672913,
				"element": "H" 
			}
		],
		 "valence_orbital": [ 
			{
				"type": "occ",
				"energy": -0.30964,
				"method": "rhf"
			},
			{
				"type": "occ",
				"energy": -0.2855,
				"method": "rhf"
			},
			{
				"type": "occ",
				"energy": -0.25888,
				"method": "rhf"
			},
			{
				"type": "occ",
				"energy": -0.23345,
				"method": "rhf"
			},
			{
				"type": "occ",
				"energy": -0.19084,
				"method": "rhf"
			},
			{
				"type": "unocc",
				"energy": -0.01183,
				"method": "rhf"
			},
			{
				"type": "unocc",
				"energy": 0.02962,
				"method": "rhf"
			},
			{
				"type": "unocc",
				"energy": 0.06777,
				"method": "rhf"
			},
			{
				"type": "unocc",
				"energy": 0.07425,
				"method": "rhf"
			},
			{
				"type": "unocc",
				"energy": 0.09398,
				"method": "rhf"
			}
		],
		"cosmo_sigma_profile": { 
			"-0.025": 0.0,
			"-0.024": 0.0,
			"-0.023": 0.0,
			"-0.022": 0.0,
			"-0.021": 0.0,
			"-0.02": 0.0,
			"-0.019": 0.0,
			"-0.018": 0.0,
			"-0.017": 0.0,
			"-0.016": 0.811275480455,
			"-0.015": 1.65552963586,
			"-0.014": 1.06590758003,
			"-0.013": 2.41504713824,
			"-0.012": 2.81063409875,
			"-0.011": 3.71370692968,
			"-0.01": 4.03984816635,
			"-0.009": 4.69658247985,
			"-0.008": 4.34645275859,
			"-0.007": 5.10631179488,
			"-0.006": 6.05844064964,
			"-0.005": 8.54699363713,
			"-0.004": 8.73522654662,
			"-0.003": 8.1710172994,
			"-0.002": 6.50899151543,
			"-0.001": 6.75150050105,
			"0.0": 5.89351536356,
			"0.001": 5.91701079522,
			"0.002": 7.51281450879,
			"0.003": 10.0299769022,
			"0.004": 14.2530398936,
			"0.005": 12.4830397818,
			"0.006": 11.0687020322,
			"0.007": 6.84562545758,
			"0.008": 3.04322614307,
			"0.009": 2.51698863618,
			"0.01": 1.75869389895,
			"0.011": 2.16529782392,
			"0.012": 1.98879928731,
			"0.013": 2.01031269485,
			"0.014": 1.17463460808,
			"0.015": 1.15865910759,
			"0.016": 0.596911868187,
			"0.017": 0.0,
			"0.018": 0.0,
			"0.019": 0.0,
			"0.02": 0.0,
			"0.021": 0.0,
			"0.022": 0.0,
			"0.023": 0.0,
			"0.024": 0.0,
			"0.025": 0.0
		}
	}
}
