{
	 "smiles": "[O-][N+](=O)C1=CC(=CC=C1)C1=NNN=N1", 
	 "Tm": 428.15, 
	 "num_atms": 19, 
	 "gaussian": { 
		 "optdone": 1, 
		 "sigma_profile": "yes", 
		 "theory": "DFT", 
		 "functional": "B3LYP", 
		 "basiset": "6-31G**", 
		 "properties": { 
			 "R2extent": 3834.4326, 
			 "electric_dipole_moment_norm": 6.4229266826, 
			 "electric_quadrupole_moment_norm": 14.8378363982, 
			 "total_energy": -693.8135949, 
			 "HOMO_LUMO_gap": 0.17419, 
			 "cosmo_polarized_energy": -15.77, 
			 "cosmo_cavitation_energy": 25.43, 
			 "cosmo_dispersion_energy": -18.97, 
			 "cosmo_repulsion_energy": 1.48, 
			 "cosmo_total_nonelectrostatic_energy": 7.93, 
			 "SMD_solvation_energy": 4.41 
		},
		"coords": [
			{
				"x": 2.2986296919,
				"y": 3.8022272225,
				"z": -0.6755029385,
				"element": "O" 
			},
			{
				"x": 1.8047463448,
				"y": 3.5508995686,
				"z": 0.4216751133,
				"element": "N" 
			},
			{
				"x": 2.0621336308,
				"y": 4.1511715917,
				"z": 1.4645818919,
				"element": "O" 
			},
			{
				"x": 0.8297584269,
				"y": 2.4467429997,
				"z": 0.4959105103,
				"element": "C" 
			},
			{
				"x": 0.5197241737,
				"y": 1.7508287362,
				"z": -0.6672868658,
				"element": "C" 
			},
			{
				"x": -0.4058845375,
				"y": 0.7033709337,
				"z": -0.5940343938,
				"element": "C" 
			},
			{
				"x": -0.9954950835,
				"y": 0.3807255959,
				"z": 0.6388023511,
				"element": "C" 
			},
			{
				"x": -0.6649811017,
				"y": 1.0963853921,
				"z": 1.7884749889,
				"element": "C" 
			},
			{
				"x": 0.2553695785,
				"y": 2.1416909485,
				"z": 1.728586082,
				"element": "C" 
			},
			{
				"x": -0.7500786009,
				"y": -0.0462886969,
				"z": -1.8066806946,
				"element": "C" 
			},
			{
				"x": -1.6187352864,
				"y": -1.0596999632,
				"z": -1.8431359793,
				"element": "N" 
			},
			{
				"x": -1.5754008181,
				"y": -1.3829401914,
				"z": -3.1295005557,
				"element": "N" 
			},
			{
				"x": -0.7501767025,
				"y": -0.6447797836,
				"z": -3.8654970867,
				"element": "N" 
			},
			{
				"x": -0.2169617856,
				"y": 0.2116556709,
				"z": -3.0361383686,
				"element": "N" 
			},
			{
				"x": 0.9881253056,
				"y": 2.0190668085,
				"z": -1.6056199358,
				"element": "H" 
			},
			{
				"x": -1.7117416691,
				"y": -0.4327387248,
				"z": 0.685485332,
				"element": "H" 
			},
			{
				"x": -1.1262109938,
				"y": 0.839264822,
				"z": 2.7365503209,
				"element": "H" 
			},
			{
				"x": 0.5332225604,
				"y": 2.716546839,
				"z": 2.6028630414,
				"element": "H" 
			},
			{
				"x": -2.1263431336,
				"y": -2.1334297694,
				"z": -3.5247328132,
				"element": "H" 
			}
		],
		 "valence_orbital": [ 
			{
				"type": "occ",
				"energy": -0.30947,
				"method": "rhf"
			},
			{
				"type": "occ",
				"energy": -0.30862,
				"method": "rhf"
			},
			{
				"type": "occ",
				"energy": -0.29315,
				"method": "rhf"
			},
			{
				"type": "occ",
				"energy": -0.2878,
				"method": "rhf"
			},
			{
				"type": "occ",
				"energy": -0.26695,
				"method": "rhf"
			},
			{
				"type": "unocc",
				"energy": -0.09276,
				"method": "rhf"
			},
			{
				"type": "unocc",
				"energy": -0.05868,
				"method": "rhf"
			},
			{
				"type": "unocc",
				"energy": -0.04171,
				"method": "rhf"
			},
			{
				"type": "unocc",
				"energy": -0.00833,
				"method": "rhf"
			},
			{
				"type": "unocc",
				"energy": 0.05237,
				"method": "rhf"
			}
		],
		"cosmo_sigma_profile": { 
			"-0.025": 0.0,
			"-0.024": 0.0,
			"-0.023": 0.0,
			"-0.022": 0.0,
			"-0.021": 0.0,
			"-0.02": 1.02865370992,
			"-0.019": 2.36911804457,
			"-0.018": 0.823491731468,
			"-0.017": 0.703609592421,
			"-0.016": 1.53057548135,
			"-0.015": 1.32855257781,
			"-0.014": 0.287242741261,
			"-0.013": 0.522809870768,
			"-0.012": 1.24133095642,
			"-0.011": 0.438516438347,
			"-0.01": 0.821455425561,
			"-0.009": 0.373170455524,
			"-0.008": 3.8165456082,
			"-0.007": 7.77293259536,
			"-0.006": 8.54777046665,
			"-0.005": 7.79774107234,
			"-0.004": 10.3353344601,
			"-0.003": 11.4974438872,
			"-0.002": 16.9437210643,
			"-0.001": 20.1061158637,
			"0.0": 19.7393334184,
			"0.001": 15.1277167995,
			"0.002": 8.23057730699,
			"0.003": 5.57131793961,
			"0.004": 5.5190698051,
			"0.005": 5.65237237133,
			"0.006": 7.62942860492,
			"0.007": 12.8952391147,
			"0.008": 10.8886583848,
			"0.009": 7.99021014376,
			"0.01": 4.77416736701,
			"0.011": 2.40052107015,
			"0.012": 0.856748520843,
			"0.013": 0.256639742656,
			"0.014": 0.0,
			"0.015": 0.0,
			"0.016": 0.0,
			"0.017": 0.0,
			"0.018": 0.0,
			"0.019": 0.0,
			"0.02": 0.0,
			"0.021": 0.0,
			"0.022": 0.0,
			"0.023": 0.0,
			"0.024": 0.0,
			"0.025": 0.0
		}
	}
}
