{
	 "smiles": "CC(C)C=C1NC(OC1=O)C1=CC=CC=C1", 
	 "Tm": 360.15, 
	 "num_atms": 31, 
	 "gaussian": { 
		 "optdone": 1, 
		 "sigma_profile": "yes", 
		 "theory": "DFT", 
		 "functional": "B3LYP", 
		 "basiset": "6-31G**", 
		 "properties": { 
			 "R2extent": 4882.4949, 
			 "electric_dipole_moment_norm": 4.7537073753, 
			 "electric_quadrupole_moment_norm": 9.69492131273, 
			 "total_energy": -709.615427122, 
			 "HOMO_LUMO_gap": 0.17332, 
			 "cosmo_polarized_energy": -11.79, 
			 "cosmo_cavitation_energy": 33.81, 
			 "cosmo_dispersion_energy": -24.08, 
			 "cosmo_repulsion_energy": 1.89, 
			 "cosmo_total_nonelectrostatic_energy": 11.62, 
			 "SMD_solvation_energy": 5.31 
		},
		"coords": [
			{
				"x": 0.9331516137,
				"y": 0.6254314774,
				"z": 3.6708337834,
				"element": "C" 
			},
			{
				"x": 0.4301984538,
				"y": 1.5754367226,
				"z": 2.5644077887,
				"element": "C" 
			},
			{
				"x": 1.5919561179,
				"y": 2.0864008299,
				"z": 1.6882524711,
				"element": "C" 
			},
			{
				"x": -0.7164312282,
				"y": 0.986630918,
				"z": 1.7584094113,
				"element": "C" 
			},
			{
				"x": -0.7412658836,
				"y": -0.0766223474,
				"z": 0.9301895537,
				"element": "C" 
			},
			{
				"x": -1.8695082949,
				"y": -0.5319672387,
				"z": 0.2226464878,
				"element": "N" 
			},
			{
				"x": -1.4882292665,
				"y": -1.6148067174,
				"z": -0.6860433094,
				"element": "C" 
			},
			{
				"x": -0.1032553685,
				"y": -1.8608268244,
				"z": -0.3945172798,
				"element": "O" 
			},
			{
				"x": 0.3678147464,
				"y": -1.0042599284,
				"z": 0.5644328441,
				"element": "C" 
			},
			{
				"x": 1.5056072868,
				"y": -1.0684959566,
				"z": 0.9611593842,
				"element": "O" 
			},
			{
				"x": -1.7015202154,
				"y": -1.2921367209,
				"z": -2.1501725448,
				"element": "C" 
			},
			{
				"x": -2.698713716,
				"y": -1.9579031064,
				"z": -2.8677489304,
				"element": "C" 
			},
			{
				"x": -2.9374892368,
				"y": -1.6415739077,
				"z": -4.207270966,
				"element": "C" 
			},
			{
				"x": -2.1716311545,
				"y": -0.6610292397,
				"z": -4.8372463512,
				"element": "C" 
			},
			{
				"x": -1.1675310767,
				"y": 0.0035084627,
				"z": -4.1258648145,
				"element": "C" 
			},
			{
				"x": -0.9346591179,
				"y": -0.3075841929,
				"z": -2.7880660464,
				"element": "C" 
			},
			{
				"x": 1.4004780987,
				"y": -0.2601528624,
				"z": 3.2356385379,
				"element": "H" 
			},
			{
				"x": 0.1105471394,
				"y": 0.3035485746,
				"z": 4.3176543909,
				"element": "H" 
			},
			{
				"x": 1.6752277341,
				"y": 1.1349600316,
				"z": 4.2959668905,
				"element": "H" 
			},
			{
				"x": 0.0038044926,
				"y": 2.4527502125,
				"z": 3.0680473851,
				"element": "H" 
			},
			{
				"x": 1.2348478912,
				"y": 2.7941265059,
				"z": 0.9326236164,
				"element": "H" 
			},
			{
				"x": 2.0912937295,
				"y": 1.2576357445,
				"z": 1.1822919859,
				"element": "H" 
			},
			{
				"x": 2.3325076115,
				"y": 2.6026732243,
				"z": 2.3093954822,
				"element": "H" 
			},
			{
				"x": -1.6696790581,
				"y": 1.505763075,
				"z": 1.8607594208,
				"element": "H" 
			},
			{
				"x": -2.4704590612,
				"y": 0.1731073068,
				"z": -0.1825128243,
				"element": "H" 
			},
			{
				"x": -2.0288121457,
				"y": -2.5373047113,
				"z": -0.4354467309,
				"element": "H" 
			},
			{
				"x": -3.2893191093,
				"y": -2.7282511807,
				"z": -2.3777807657,
				"element": "H" 
			},
			{
				"x": -3.7150689017,
				"y": -2.1642919914,
				"z": -4.7564284623,
				"element": "H" 
			},
			{
				"x": -2.3510879332,
				"y": -0.4164983119,
				"z": -5.8801496349,
				"element": "H" 
			},
			{
				"x": -0.5642178495,
				"y": 0.7615531301,
				"z": -4.6167308396,
				"element": "H" 
			},
			{
				"x": -0.147556298,
				"y": 0.2033790225,
				"z": -2.2411299337,
				"element": "H" 
			}
		],
		 "valence_orbital": [ 
			{
				"type": "occ",
				"energy": -0.29987,
				"method": "rhf"
			},
			{
				"type": "occ",
				"energy": -0.27508,
				"method": "rhf"
			},
			{
				"type": "occ",
				"energy": -0.26558,
				"method": "rhf"
			},
			{
				"type": "occ",
				"energy": -0.26285,
				"method": "rhf"
			},
			{
				"type": "occ",
				"energy": -0.21198,
				"method": "rhf"
			},
			{
				"type": "unocc",
				"energy": -0.03866,
				"method": "rhf"
			},
			{
				"type": "unocc",
				"energy": -0.02461,
				"method": "rhf"
			},
			{
				"type": "unocc",
				"energy": -0.01543,
				"method": "rhf"
			},
			{
				"type": "unocc",
				"energy": 0.08012,
				"method": "rhf"
			},
			{
				"type": "unocc",
				"energy": 0.0834,
				"method": "rhf"
			}
		],
		"cosmo_sigma_profile": { 
			"-0.025": 0.0,
			"-0.024": 0.0,
			"-0.023": 0.0,
			"-0.022": 0.0,
			"-0.021": 0.0,
			"-0.02": 0.0,
			"-0.019": 0.0,
			"-0.018": 0.0,
			"-0.017": 0.0,
			"-0.016": 0.0,
			"-0.015": 0.0,
			"-0.014": 0.306243463519,
			"-0.013": 0.896125260935,
			"-0.012": 1.32518965641,
			"-0.011": 0.778498194902,
			"-0.01": 0.822646844209,
			"-0.009": 0.831271301938,
			"-0.008": 2.12398624726,
			"-0.007": 6.17433275776,
			"-0.006": 14.3436002618,
			"-0.005": 17.1212757394,
			"-0.004": 17.1581458563,
			"-0.003": 19.2398206363,
			"-0.002": 22.0120426498,
			"-0.001": 22.3737792549,
			"0.0": 23.6017708247,
			"0.001": 25.3541277849,
			"0.002": 23.8389638466,
			"0.003": 15.1800684247,
			"0.004": 14.560887926,
			"0.005": 12.7478561922,
			"0.006": 4.52885010562,
			"0.007": 3.6154309035,
			"0.008": 3.84001407518,
			"0.009": 4.19652566742,
			"0.01": 3.97981295532,
			"0.011": 3.33824844622,
			"0.012": 2.80655766617,
			"0.013": 0.393152716084,
			"0.014": 0.0,
			"0.015": 0.0,
			"0.016": 0.0,
			"0.017": 0.0,
			"0.018": 0.0,
			"0.019": 0.0,
			"0.02": 0.0,
			"0.021": 0.0,
			"0.022": 0.0,
			"0.023": 0.0,
			"0.024": 0.0,
			"0.025": 0.0
		}
	}
}
