{
	 "smiles": "OC(=O)C1CSC(N1)C1=CC=CC=C1", 
	 "Tm": 433.15, 
	 "num_atms": 25, 
	 "gaussian": { 
		 "optdone": 1, 
		 "sigma_profile": "yes", 
		 "theory": "DFT", 
		 "functional": "B3LYP", 
		 "basiset": "6-31G**", 
		 "properties": { 
			 "R2extent": 4294.6972, 
			 "electric_dipole_moment_norm": 3.60675663859, 
			 "electric_quadrupole_moment_norm": 20.2840204277, 
			 "total_energy": -991.081968297, 
			 "HOMO_LUMO_gap": 0.21503, 
			 "cosmo_polarized_energy": -15.17, 
			 "cosmo_cavitation_energy": 29.5, 
			 "cosmo_dispersion_energy": -21.77, 
			 "cosmo_repulsion_energy": 1.66, 
			 "cosmo_total_nonelectrostatic_energy": 9.39, 
			 "SMD_solvation_energy": 4.93 
		},
		"coords": [
			{
				"x": -3.0060868117,
				"y": -0.3629480066,
				"z": 2.2604091585,
				"element": "O" 
			},
			{
				"x": -3.3275060306,
				"y": -1.2918088791,
				"z": 1.3345653986,
				"element": "C" 
			},
			{
				"x": -4.4528460813,
				"y": -1.6999229036,
				"z": 1.1911556882,
				"element": "O" 
			},
			{
				"x": -2.1440191551,
				"y": -1.7378861721,
				"z": 0.4755422775,
				"element": "C" 
			},
			{
				"x": -2.3031008952,
				"y": -3.1325653241,
				"z": -0.1534174635,
				"element": "C" 
			},
			{
				"x": -0.5823974899,
				"y": -3.6661444899,
				"z": -0.5537170131,
				"element": "S" 
			},
			{
				"x": 0.1677019765,
				"y": -2.1860456972,
				"z": 0.3631050762,
				"element": "C" 
			},
			{
				"x": -0.8886308061,
				"y": -1.693902157,
				"z": 1.2440200818,
				"element": "N" 
			},
			{
				"x": 0.7204466167,
				"y": -1.080921222,
				"z": -0.533849674,
				"element": "C" 
			},
			{
				"x": 1.0084058009,
				"y": 0.1636908032,
				"z": 0.0494412774,
				"element": "C" 
			},
			{
				"x": 1.5693042524,
				"y": 1.1918012946,
				"z": -0.7064388648,
				"element": "C" 
			},
			{
				"x": 1.8597668504,
				"y": 0.9911710046,
				"z": -2.0579002696,
				"element": "C" 
			},
			{
				"x": 1.5845730434,
				"y": -0.2441962335,
				"z": -2.6429060308,
				"element": "C" 
			},
			{
				"x": 1.0177184747,
				"y": -1.273234061,
				"z": -1.8869055952,
				"element": "C" 
			},
			{
				"x": -2.0417766559,
				"y": -0.2217325788,
				"z": 2.2099870998,
				"element": "H" 
			},
			{
				"x": -2.0391351759,
				"y": -1.0002161988,
				"z": -0.3315123474,
				"element": "H" 
			},
			{
				"x": -2.9094129272,
				"y": -3.1003263222,
				"z": -1.0593586881,
				"element": "H" 
			},
			{
				"x": -2.7606394184,
				"y": -3.8347040002,
				"z": 0.5475219715,
				"element": "H" 
			},
			{
				"x": 0.9759682759,
				"y": -2.5890359279,
				"z": 0.9798388781,
				"element": "H" 
			},
			{
				"x": -0.9720557454,
				"y": -2.3458096974,
				"z": 2.024911139,
				"element": "H" 
			},
			{
				"x": 0.7848553814,
				"y": 0.3219952695,
				"z": 1.0996418193,
				"element": "H" 
			},
			{
				"x": 1.7800872545,
				"y": 2.1497728801,
				"z": -0.2394421331,
				"element": "H" 
			},
			{
				"x": 2.296691554,
				"y": 1.791576402,
				"z": -2.647973663,
				"element": "H" 
			},
			{
				"x": 1.8050175134,
				"y": -0.4112382468,
				"z": -3.6933509706,
				"element": "H" 
			},
			{
				"x": 0.7936701985,
				"y": -2.2272695357,
				"z": -2.3514671529,
				"element": "H" 
			}
		],
		 "valence_orbital": [ 
			{
				"type": "occ",
				"energy": -0.28093,
				"method": "rhf"
			},
			{
				"type": "occ",
				"energy": -0.27798,
				"method": "rhf"
			},
			{
				"type": "occ",
				"energy": -0.25888,
				"method": "rhf"
			},
			{
				"type": "occ",
				"energy": -0.25473,
				"method": "rhf"
			},
			{
				"type": "occ",
				"energy": -0.23504,
				"method": "rhf"
			},
			{
				"type": "unocc",
				"energy": -0.02001,
				"method": "rhf"
			},
			{
				"type": "unocc",
				"energy": -0.01057,
				"method": "rhf"
			},
			{
				"type": "unocc",
				"energy": 0.00203,
				"method": "rhf"
			},
			{
				"type": "unocc",
				"energy": 0.01035,
				"method": "rhf"
			},
			{
				"type": "unocc",
				"energy": 0.05084,
				"method": "rhf"
			}
		],
		"cosmo_sigma_profile": { 
			"-0.025": 0.0,
			"-0.024": 0.0,
			"-0.023": 0.0,
			"-0.022": 0.0,
			"-0.021": 0.0,
			"-0.02": 0.0,
			"-0.019": 0.0,
			"-0.018": 0.0,
			"-0.017": 0.0,
			"-0.016": 0.0,
			"-0.015": 0.0,
			"-0.014": 0.687793610377,
			"-0.013": 2.5686352917,
			"-0.012": 2.15303229114,
			"-0.011": 2.34871170488,
			"-0.01": 2.61267565433,
			"-0.009": 3.1521306919,
			"-0.008": 6.65019524716,
			"-0.007": 7.43117177308,
			"-0.006": 10.7738787196,
			"-0.005": 15.5554493771,
			"-0.004": 16.4095455518,
			"-0.003": 17.9216801944,
			"-0.002": 15.3230043046,
			"-0.001": 15.3330184444,
			"0.0": 12.0137294932,
			"0.001": 10.9367673529,
			"0.002": 11.9252134275,
			"0.003": 12.1860484801,
			"0.004": 13.6878222635,
			"0.005": 13.8365651136,
			"0.006": 10.9219659066,
			"0.007": 5.43204279504,
			"0.008": 4.3941556916,
			"0.009": 5.62653415642,
			"0.01": 5.80998095222,
			"0.011": 5.35806172367,
			"0.012": 4.15524377667,
			"0.013": 0.743305916605,
			"0.014": 0.0,
			"0.015": 0.0,
			"0.016": 0.0,
			"0.017": 0.0,
			"0.018": 0.0,
			"0.019": 0.0,
			"0.02": 0.0,
			"0.021": 0.0,
			"0.022": 0.0,
			"0.023": 0.0,
			"0.024": 0.0,
			"0.025": 0.0
		}
	}
}
