{
	 "smiles": "CN(C)C(=O)C1=C(F)C=CC(N)=C1", 
	 "Tm": 378.15, 
	 "num_atms": 24, 
	 "gaussian": { 
		 "optdone": 1, 
		 "sigma_profile": "yes", 
		 "theory": "DFT", 
		 "functional": "B3LYP", 
		 "basiset": "6-31G**", 
		 "properties": { 
			 "R2extent": 3425.8089, 
			 "electric_dipole_moment_norm": 2.59284563945, 
			 "electric_quadrupole_moment_norm": 22.4972225628, 
			 "total_energy": -634.158621069, 
			 "HOMO_LUMO_gap": 0.18159, 
			 "cosmo_polarized_energy": -14.23, 
			 "cosmo_cavitation_energy": 27.72, 
			 "cosmo_dispersion_energy": -19.99, 
			 "cosmo_repulsion_energy": 1.57, 
			 "cosmo_total_nonelectrostatic_energy": 9.3, 
			 "SMD_solvation_energy": 5.84 
		},
		"coords": [
			{
				"x": 2.0394630425,
				"y": -0.8528441558,
				"z": 0.4604294173,
				"element": "C" 
			},
			{
				"x": 0.7754856333,
				"y": -0.2798920579,
				"z": 0.0197925031,
				"element": "N" 
			},
			{
				"x": 0.8632728054,
				"y": 1.024671666,
				"z": -0.6163928695,
				"element": "C" 
			},
			{
				"x": -0.3603609511,
				"y": -1.0406913067,
				"z": 0.1268846315,
				"element": "C" 
			},
			{
				"x": -0.3340156939,
				"y": -2.2168758115,
				"z": 0.4874127812,
				"element": "O" 
			},
			{
				"x": -1.6892662937,
				"y": -0.4140828552,
				"z": -0.2229761884,
				"element": "C" 
			},
			{
				"x": -2.1587000051,
				"y": 0.7829942813,
				"z": 0.3199006164,
				"element": "C" 
			},
			{
				"x": -1.3626426928,
				"y": 1.5066283461,
				"z": 1.1482525898,
				"element": "F" 
			},
			{
				"x": -3.4371105916,
				"y": 1.2543680055,
				"z": 0.049823433,
				"element": "C" 
			},
			{
				"x": -4.2790929075,
				"y": 0.519238871,
				"z": -0.7794546888,
				"element": "C" 
			},
			{
				"x": -3.851979057,
				"y": -0.7019886406,
				"z": -1.3312892843,
				"element": "C" 
			},
			{
				"x": -4.6769375336,
				"y": -1.4206452732,
				"z": -2.2032700501,
				"element": "N" 
			},
			{
				"x": -2.5610981025,
				"y": -1.1559207179,
				"z": -1.0282664633,
				"element": "C" 
			},
			{
				"x": 2.5448521191,
				"y": -0.1635046902,
				"z": 1.1474850222,
				"element": "H" 
			},
			{
				"x": 2.7046320101,
				"y": -1.0378334569,
				"z": -0.3934055728,
				"element": "H" 
			},
			{
				"x": 1.8363336626,
				"y": -1.7961096646,
				"z": 0.9641814847,
				"element": "H" 
			},
			{
				"x": 1.0746916335,
				"y": 1.8152230559,
				"z": 0.1129305901,
				"element": "H" 
			},
			{
				"x": -0.0647535551,
				"y": 1.2650422825,
				"z": -1.1324642584,
				"element": "H" 
			},
			{
				"x": 1.6716119948,
				"y": 1.0120770378,
				"z": -1.358006071,
				"element": "H" 
			},
			{
				"x": -3.7631603914,
				"y": 2.1861528854,
				"z": 0.4995856718,
				"element": "H" 
			},
			{
				"x": -5.277007703,
				"y": 0.8902515195,
				"z": -0.9976612885,
				"element": "H" 
			},
			{
				"x": -4.4599505336,
				"y": -2.4060256523,
				"z": -2.2707374308,
				"element": "H" 
			},
			{
				"x": -5.667756302,
				"y": -1.2710060316,
				"z": -2.0681683496,
				"element": "H" 
			},
			{
				"x": -2.2138105872,
				"y": -2.1117276367,
				"z": -1.4089862256,
				"element": "H" 
			}
		],
		 "valence_orbital": [ 
			{
				"type": "occ",
				"energy": -0.30554,
				"method": "rhf"
			},
			{
				"type": "occ",
				"energy": -0.26551,
				"method": "rhf"
			},
			{
				"type": "occ",
				"energy": -0.23759,
				"method": "rhf"
			},
			{
				"type": "occ",
				"energy": -0.23183,
				"method": "rhf"
			},
			{
				"type": "occ",
				"energy": -0.20518,
				"method": "rhf"
			},
			{
				"type": "unocc",
				"energy": -0.02359,
				"method": "rhf"
			},
			{
				"type": "unocc",
				"energy": 0.01187,
				"method": "rhf"
			},
			{
				"type": "unocc",
				"energy": 0.05118,
				"method": "rhf"
			},
			{
				"type": "unocc",
				"energy": 0.07755,
				"method": "rhf"
			},
			{
				"type": "unocc",
				"energy": 0.09601,
				"method": "rhf"
			}
		],
		"cosmo_sigma_profile": { 
			"-0.025": 0.0,
			"-0.024": 0.0,
			"-0.023": 0.0,
			"-0.022": 0.0,
			"-0.021": 0.0,
			"-0.02": 0.0,
			"-0.019": 0.0,
			"-0.018": 0.0,
			"-0.017": 0.0,
			"-0.016": 0.0,
			"-0.015": 0.0,
			"-0.014": 0.0,
			"-0.013": 0.703820549787,
			"-0.012": 2.76685599611,
			"-0.011": 2.29501156111,
			"-0.01": 3.49172097818,
			"-0.009": 3.5198215462,
			"-0.008": 3.63474220329,
			"-0.007": 4.82099008416,
			"-0.006": 6.93584809149,
			"-0.005": 13.1209772529,
			"-0.004": 19.3321994962,
			"-0.003": 18.0267647364,
			"-0.002": 21.7472827373,
			"-0.001": 14.5111558294,
			"0.0": 11.4317863359,
			"0.001": 13.992418227,
			"0.002": 11.1702267127,
			"0.003": 12.382418125,
			"0.004": 16.7830912318,
			"0.005": 10.8437398443,
			"0.006": 3.06504497132,
			"0.007": 2.75130326375,
			"0.008": 2.2120583651,
			"0.009": 2.03586364888,
			"0.01": 2.57326089676,
			"0.011": 2.26286563841,
			"0.012": 2.95491313905,
			"0.013": 3.50960411556,
			"0.014": 5.1602758073,
			"0.015": 1.28158587856,
			"0.016": 0.0179320351288,
			"0.017": 0.0,
			"0.018": 0.0,
			"0.019": 0.0,
			"0.02": 0.0,
			"0.021": 0.0,
			"0.022": 0.0,
			"0.023": 0.0,
			"0.024": 0.0,
			"0.025": 0.0
		}
	}
}
