{
	 "smiles": "O=C=NC1=CC2=C(OCC2)C=C1", 
	 "Tm": 315.65, 
	 "num_atms": 19, 
	 "gaussian": { 
		 "optdone": 1, 
		 "sigma_profile": "yes", 
		 "theory": "DFT", 
		 "functional": "B3LYP", 
		 "basiset": "6-31G**", 
		 "properties": { 
			 "R2extent": 3184.8008, 
			 "electric_dipole_moment_norm": 3.67218259078, 
			 "electric_quadrupole_moment_norm": 15.8518444763, 
			 "total_energy": -552.363938994, 
			 "HOMO_LUMO_gap": 0.19468, 
			 "cosmo_polarized_energy": -7.21, 
			 "cosmo_cavitation_energy": 24.3, 
			 "cosmo_dispersion_energy": -17.94, 
			 "cosmo_repulsion_energy": 1.44, 
			 "cosmo_total_nonelectrostatic_energy": 7.8, 
			 "SMD_solvation_energy": 6.92 
		},
		"coords": [
			{
				"x": -2.0736344415,
				"y": 5.5050387309,
				"z": 0.4586873318,
				"element": "O" 
			},
			{
				"x": -1.5433005263,
				"y": 4.4571802568,
				"z": 0.6074989276,
				"element": "C" 
			},
			{
				"x": -1.0970949459,
				"y": 3.3696489505,
				"z": 0.833127404,
				"element": "N" 
			},
			{
				"x": -0.1679328867,
				"y": 2.341682921,
				"z": 0.6985262652,
				"element": "C" 
			},
			{
				"x": -0.367037124,
				"y": 1.3462377778,
				"z": -0.2758361808,
				"element": "C" 
			},
			{
				"x": 0.5522179811,
				"y": 0.3125780158,
				"z": -0.3678480709,
				"element": "C" 
			},
			{
				"x": 1.6496806097,
				"y": 0.2671093763,
				"z": 0.4973541904,
				"element": "C" 
			},
			{
				"x": 2.4677089366,
				"y": -0.8026788564,
				"z": 0.2803959999,
				"element": "O" 
			},
			{
				"x": 1.7932679112,
				"y": -1.6828854784,
				"z": -0.6559572353,
				"element": "C" 
			},
			{
				"x": 0.6637816967,
				"y": -0.8568701159,
				"z": -1.3204238169,
				"element": "C" 
			},
			{
				"x": 1.8613716804,
				"y": 1.238578623,
				"z": 1.4700711883,
				"element": "C" 
			},
			{
				"x": 0.9342525999,
				"y": 2.2789025829,
				"z": 1.5642691253,
				"element": "C" 
			},
			{
				"x": -1.228211521,
				"y": 1.4053748777,
				"z": -0.9337572909,
				"element": "H" 
			},
			{
				"x": 1.3895702292,
				"y": -2.5306736547,
				"z": -0.0896684105,
				"element": "H" 
			},
			{
				"x": 2.5419421603,
				"y": -2.0530840071,
				"z": -1.3593640321,
				"element": "H" 
			},
			{
				"x": 0.9447950516,
				"y": -0.5207719818,
				"z": -2.3262513978,
				"element": "H" 
			},
			{
				"x": -0.2609162852,
				"y": -1.4342131957,
				"z": -1.4141833724,
				"element": "H" 
			},
			{
				"x": 2.7161072264,
				"y": 1.1835227145,
				"z": 2.1348944513,
				"element": "H" 
			},
			{
				"x": 1.0557316477,
				"y": 3.0521224627,
				"z": 2.3153649238,
				"element": "H" 
			}
		],
		 "valence_orbital": [ 
			{
				"type": "occ",
				"energy": -0.34131,
				"method": "rhf"
			},
			{
				"type": "occ",
				"energy": -0.29255,
				"method": "rhf"
			},
			{
				"type": "occ",
				"energy": -0.2868,
				"method": "rhf"
			},
			{
				"type": "occ",
				"energy": -0.25985,
				"method": "rhf"
			},
			{
				"type": "occ",
				"energy": -0.21097,
				"method": "rhf"
			},
			{
				"type": "unocc",
				"energy": -0.01629,
				"method": "rhf"
			},
			{
				"type": "unocc",
				"energy": -0.00954,
				"method": "rhf"
			},
			{
				"type": "unocc",
				"energy": 0.06401,
				"method": "rhf"
			},
			{
				"type": "unocc",
				"energy": 0.06783,
				"method": "rhf"
			},
			{
				"type": "unocc",
				"energy": 0.08787,
				"method": "rhf"
			}
		],
		"cosmo_sigma_profile": { 
			"-0.025": 0.0,
			"-0.024": 0.0,
			"-0.023": 0.0,
			"-0.022": 0.0,
			"-0.021": 0.0,
			"-0.02": 0.0,
			"-0.019": 0.0,
			"-0.018": 0.0,
			"-0.017": 0.0,
			"-0.016": 0.0,
			"-0.015": 0.0,
			"-0.014": 0.0,
			"-0.013": 0.0,
			"-0.012": 0.0,
			"-0.011": 0.0,
			"-0.01": 0.0,
			"-0.009": 0.0,
			"-0.008": 0.0,
			"-0.007": 2.93784900052,
			"-0.006": 9.40286764078,
			"-0.005": 18.8758005878,
			"-0.004": 20.2195657163,
			"-0.003": 21.4658717067,
			"-0.002": 17.6976230943,
			"-0.001": 12.1256914874,
			"0.0": 9.76023078725,
			"0.001": 11.7868345598,
			"0.002": 11.1278921577,
			"0.003": 15.8979816734,
			"0.004": 15.9849047207,
			"0.005": 4.3901292091,
			"0.006": 3.54992947428,
			"0.007": 3.73893744794,
			"0.008": 7.09480213038,
			"0.009": 6.36082860586,
			"0.01": 1.55715875779,
			"0.011": 1.38560706699,
			"0.012": 0.324892421063,
			"0.013": 0.0,
			"0.014": 0.0,
			"0.015": 0.0,
			"0.016": 0.0,
			"0.017": 0.0,
			"0.018": 0.0,
			"0.019": 0.0,
			"0.02": 0.0,
			"0.021": 0.0,
			"0.022": 0.0,
			"0.023": 0.0,
			"0.024": 0.0,
			"0.025": 0.0
		}
	}
}
