{
	 "smiles": "CC(=O)C=C", 
	 "Tm": 266.15, 
	 "num_atms": 11, 
	 "gaussian": { 
		 "optdone": 1, 
		 "sigma_profile": "yes", 
		 "theory": "DFT", 
		 "functional": "B3LYP", 
		 "basiset": "6-31G**", 
		 "properties": { 
			 "R2extent": 704.604, 
			 "electric_dipole_moment_norm": 2.66477984269, 
			 "electric_quadrupole_moment_norm": 8.00951908731, 
			 "total_energy": -231.239623855, 
			 "HOMO_LUMO_gap": 0.19244, 
			 "cosmo_polarized_energy": -6.8, 
			 "cosmo_cavitation_energy": 15.09, 
			 "cosmo_dispersion_energy": -10.76, 
			 "cosmo_repulsion_energy": 0.96, 
			 "cosmo_total_nonelectrostatic_energy": 5.28, 
			 "SMD_solvation_energy": 4.38 
		},
		"coords": [
			{
				"x": 0.1165028797,
				"y": -0.9771330942,
				"z": -0.2858880787,
				"element": "C" 
			},
			{
				"x": 0.9196791709,
				"y": 0.1631713109,
				"z": -0.8831836692,
				"element": "C" 
			},
			{
				"x": 2.0501016989,
				"y": -0.0014541944,
				"z": -1.3129896184,
				"element": "O" 
			},
			{
				"x": 0.2493770793,
				"y": 1.5009840734,
				"z": -0.9164916756,
				"element": "C" 
			},
			{
				"x": 0.8670373562,
				"y": 2.5722898802,
				"z": -1.4220817196,
				"element": "C" 
			},
			{
				"x": 0.7008743023,
				"y": -1.8973618747,
				"z": -0.3126611423,
				"element": "H" 
			},
			{
				"x": -0.1618698757,
				"y": -0.7459825656,
				"z": 0.7494687445,
				"element": "H" 
			},
			{
				"x": -0.8184810464,
				"y": -1.1167998481,
				"z": -0.8419421999,
				"element": "H" 
			},
			{
				"x": -0.7594134902,
				"y": 1.5702835509,
				"z": -0.5142716168,
				"element": "H" 
			},
			{
				"x": 0.3958301575,
				"y": 3.5495752104,
				"z": -1.4541811924,
				"element": "H" 
			},
			{
				"x": 1.8743617676,
				"y": 2.4763275512,
				"z": -1.8175778315,
				"element": "H" 
			}
		],
		 "valence_orbital": [ 
			{
				"type": "occ",
				"energy": -0.39266,
				"method": "rhf"
			},
			{
				"type": "occ",
				"energy": -0.37253,
				"method": "rhf"
			},
			{
				"type": "occ",
				"energy": -0.36161,
				"method": "rhf"
			},
			{
				"type": "occ",
				"energy": -0.2795,
				"method": "rhf"
			},
			{
				"type": "occ",
				"energy": -0.24709,
				"method": "rhf"
			},
			{
				"type": "unocc",
				"energy": -0.05465,
				"method": "rhf"
			},
			{
				"type": "unocc",
				"energy": 0.06124,
				"method": "rhf"
			},
			{
				"type": "unocc",
				"energy": 0.10211,
				"method": "rhf"
			},
			{
				"type": "unocc",
				"energy": 0.12681,
				"method": "rhf"
			},
			{
				"type": "unocc",
				"energy": 0.14392,
				"method": "rhf"
			}
		],
		"cosmo_sigma_profile": { 
			"-0.025": 0.0,
			"-0.024": 0.0,
			"-0.023": 0.0,
			"-0.022": 0.0,
			"-0.021": 0.0,
			"-0.02": 0.0,
			"-0.019": 0.0,
			"-0.018": 0.0,
			"-0.017": 0.0,
			"-0.016": 0.0,
			"-0.015": 0.0,
			"-0.014": 0.0,
			"-0.013": 0.0,
			"-0.012": 0.0,
			"-0.011": 0.0,
			"-0.01": 0.0,
			"-0.009": 0.0,
			"-0.008": 0.0527779628709,
			"-0.007": 1.81963172725,
			"-0.006": 9.74466196545,
			"-0.005": 12.6144513961,
			"-0.004": 11.8564884235,
			"-0.003": 10.9336334294,
			"-0.002": 11.5437681775,
			"-0.001": 11.3003008086,
			"0.0": 7.9491590735,
			"0.001": 5.48722376365,
			"0.002": 5.77582927476,
			"0.003": 5.76113101532,
			"0.004": 4.38432826943,
			"0.005": 1.70939426079,
			"0.006": 1.8369040428,
			"0.007": 1.76363653223,
			"0.008": 1.87698888381,
			"0.009": 1.37250194788,
			"0.01": 2.29169711079,
			"0.011": 2.7410486998,
			"0.012": 4.17516352079,
			"0.013": 2.42343660195,
			"0.014": 0.267329260822,
			"0.015": 0.0,
			"0.016": 0.0,
			"0.017": 0.0,
			"0.018": 0.0,
			"0.019": 0.0,
			"0.02": 0.0,
			"0.021": 0.0,
			"0.022": 0.0,
			"0.023": 0.0,
			"0.024": 0.0,
			"0.025": 0.0
		}
	}
}
