{
	 "smiles": "ClCC(=O)C1=CC=C(C=C1)C(=O)CCl", 
	 "Tm": 426.15, 
	 "num_atms": 22, 
	 "gaussian": { 
		 "optdone": 1, 
		 "sigma_profile": "yes", 
		 "theory": "DFT", 
		 "functional": "B3LYP", 
		 "basiset": "6-31G**", 
		 "properties": { 
			 "R2extent": 6017.2241, 
			 "electric_dipole_moment_norm": 2.46654633445, 
			 "electric_quadrupole_moment_norm": 24.7300315606, 
			 "total_energy": -1456.70981901, 
			 "HOMO_LUMO_gap": 0.17201, 
			 "cosmo_polarized_energy": -15.96, 
			 "cosmo_cavitation_energy": 30.59, 
			 "cosmo_dispersion_energy": -22.32, 
			 "cosmo_repulsion_energy": 1.77, 
			 "cosmo_total_nonelectrostatic_energy": 10.04, 
			 "SMD_solvation_energy": 5.68 
		},
		"coords": [
			{
				"x": -3.0760648434,
				"y": 0.7992148849,
				"z": -3.3872234476,
				"element": "Cl" 
			},
			{
				"x": -2.7346857662,
				"y": -0.7920223128,
				"z": -2.5856218787,
				"element": "C" 
			},
			{
				"x": -2.477516401,
				"y": -0.6223269192,
				"z": -1.0866637247,
				"element": "C" 
			},
			{
				"x": -3.2962082131,
				"y": -1.0680090524,
				"z": -0.3008071183,
				"element": "O" 
			},
			{
				"x": -1.2248880232,
				"y": 0.0456695538,
				"z": -0.6125401906,
				"element": "C" 
			},
			{
				"x": -1.0557978169,
				"y": 0.1978212032,
				"z": 0.7723370556,
				"element": "C" 
			},
			{
				"x": 0.096244354,
				"y": 0.7843299566,
				"z": 1.2822355404,
				"element": "C" 
			},
			{
				"x": 1.1086179922,
				"y": 1.2283873357,
				"z": 0.4147554423,
				"element": "C" 
			},
			{
				"x": 0.939020042,
				"y": 1.0753522467,
				"z": -0.9695426478,
				"element": "C" 
			},
			{
				"x": -0.2149252792,
				"y": 0.4926444761,
				"z": -1.4802467314,
				"element": "C" 
			},
			{
				"x": 2.3840442815,
				"y": 1.868430432,
				"z": 0.8888013539,
				"element": "C" 
			},
			{
				"x": 3.2373406176,
				"y": 2.2274389711,
				"z": 0.1031925813,
				"element": "O" 
			},
			{
				"x": 2.5459459177,
				"y": 2.0415107545,
				"z": 2.4025480152,
				"element": "C" 
			},
			{
				"x": 4.0933119765,
				"y": 2.8099865246,
				"z": 2.8613699932,
				"element": "Cl" 
			},
			{
				"x": -1.8836041489,
				"y": -1.2379277607,
				"z": -3.1040504003,
				"element": "H" 
			},
			{
				"x": -3.6199150833,
				"y": -1.4134017737,
				"z": -2.7061455937,
				"element": "H" 
			},
			{
				"x": -1.8429686742,
				"y": -0.1552248769,
				"z": 1.4294432647,
				"element": "H" 
			},
			{
				"x": 0.1980864935,
				"y": 0.8898188566,
				"z": 2.3573457105,
				"element": "H" 
			},
			{
				"x": 1.7281307808,
				"y": 1.4252969849,
				"z": -1.6258603545,
				"element": "H" 
			},
			{
				"x": -0.3292175044,
				"y": 0.401550575,
				"z": -2.5546559526,
				"element": "H" 
			},
			{
				"x": 1.7349171558,
				"y": 2.6608264701,
				"z": 2.7949987353,
				"element": "H" 
			},
			{
				"x": 2.4969321421,
				"y": 1.0673334701,
				"z": 2.896330348,
				"element": "H" 
			}
		],
		 "valence_orbital": [ 
			{
				"type": "occ",
				"energy": -0.30611,
				"method": "rhf"
			},
			{
				"type": "occ",
				"energy": -0.28646,
				"method": "rhf"
			},
			{
				"type": "occ",
				"energy": -0.28218,
				"method": "rhf"
			},
			{
				"type": "occ",
				"energy": -0.2771,
				"method": "rhf"
			},
			{
				"type": "occ",
				"energy": -0.27574,
				"method": "rhf"
			},
			{
				"type": "unocc",
				"energy": -0.10373,
				"method": "rhf"
			},
			{
				"type": "unocc",
				"energy": -0.0465,
				"method": "rhf"
			},
			{
				"type": "unocc",
				"energy": -0.0332,
				"method": "rhf"
			},
			{
				"type": "unocc",
				"energy": 0.00814,
				"method": "rhf"
			},
			{
				"type": "unocc",
				"energy": 0.01648,
				"method": "rhf"
			}
		],
		"cosmo_sigma_profile": { 
			"-0.025": 0.0,
			"-0.024": 0.0,
			"-0.023": 0.0,
			"-0.022": 0.0,
			"-0.021": 0.0,
			"-0.02": 0.0,
			"-0.019": 0.0,
			"-0.018": 0.0,
			"-0.017": 0.0,
			"-0.016": 0.0,
			"-0.015": 0.0,
			"-0.014": 0.0,
			"-0.013": 0.0,
			"-0.012": 0.0,
			"-0.011": 0.0462974971404,
			"-0.01": 6.86440101912,
			"-0.009": 12.0707019507,
			"-0.008": 10.22669477,
			"-0.007": 10.3600209705,
			"-0.006": 13.0771644801,
			"-0.005": 10.8893628672,
			"-0.004": 9.65356275603,
			"-0.003": 8.88394424309,
			"-0.002": 10.929600066,
			"-0.001": 14.8973585797,
			"0.0": 18.695869959,
			"0.001": 22.6183171152,
			"0.002": 18.2974033248,
			"0.003": 13.9152702616,
			"0.004": 12.440007896,
			"0.005": 16.3157443596,
			"0.006": 10.8408225778,
			"0.007": 4.19073976238,
			"0.008": 4.26715047894,
			"0.009": 5.34301919504,
			"0.01": 7.02032985418,
			"0.011": 5.42971430432,
			"0.012": 1.89265789459,
			"0.013": 0.336071908151,
			"0.014": 0.0,
			"0.015": 0.0,
			"0.016": 0.0,
			"0.017": 0.0,
			"0.018": 0.0,
			"0.019": 0.0,
			"0.02": 0.0,
			"0.021": 0.0,
			"0.022": 0.0,
			"0.023": 0.0,
			"0.024": 0.0,
			"0.025": 0.0
		}
	}
}
