{
	 "smiles": "CC1=C(C(C)=NN1)C1=CC=CC=C1C(O)=O", 
	 "Tm": 529.15, 
	 "num_atms": 28, 
	 "gaussian": { 
		 "optdone": 1, 
		 "sigma_profile": "yes", 
		 "theory": "DFT", 
		 "functional": "B3LYP", 
		 "basiset": "6-31G**", 
		 "properties": { 
			 "R2extent": 3975.2001, 
			 "electric_dipole_moment_norm": 3.50873711754, 
			 "electric_quadrupole_moment_norm": 11.5896718232, 
			 "total_energy": -724.471087327, 
			 "HOMO_LUMO_gap": 0.17668, 
			 "cosmo_polarized_energy": -16.05, 
			 "cosmo_cavitation_energy": 31.9, 
			 "cosmo_dispersion_energy": -22.17, 
			 "cosmo_repulsion_energy": 1.76, 
			 "cosmo_total_nonelectrostatic_energy": 11.49, 
			 "SMD_solvation_energy": 5.69 
		},
		"coords": [
			{
				"x": -0.4986704925,
				"y": 1.6927969588,
				"z": -0.9685668172,
				"element": "C" 
			},
			{
				"x": 0.1712231258,
				"y": 1.1094559692,
				"z": 0.2349154734,
				"element": "C" 
			},
			{
				"x": -0.0589893238,
				"y": -0.0613952466,
				"z": 0.9466848481,
				"element": "C" 
			},
			{
				"x": 0.9385879181,
				"y": -0.0739008735,
				"z": 1.9695279071,
				"element": "C" 
			},
			{
				"x": 1.1573676239,
				"y": -1.0964625186,
				"z": 3.0415279129,
				"element": "C" 
			},
			{
				"x": 1.7201665689,
				"y": 0.9992961626,
				"z": 1.8940788158,
				"element": "N" 
			},
			{
				"x": 1.244244456,
				"y": 1.6940495313,
				"z": 0.8333025157,
				"element": "N" 
			},
			{
				"x": -1.1678769078,
				"y": -1.0186467721,
				"z": 0.7328694759,
				"element": "C" 
			},
			{
				"x": -2.4787541035,
				"y": -0.5449807363,
				"z": 0.9276735599,
				"element": "C" 
			},
			{
				"x": -3.5924814294,
				"y": -1.3713020489,
				"z": 0.7959851484,
				"element": "C" 
			},
			{
				"x": -3.4233947723,
				"y": -2.7206289265,
				"z": 0.4824964492,
				"element": "C" 
			},
			{
				"x": -2.1397306197,
				"y": -3.2158756047,
				"z": 0.2871004805,
				"element": "C" 
			},
			{
				"x": -1.0113081563,
				"y": -2.3851166161,
				"z": 0.388066415,
				"element": "C" 
			},
			{
				"x": 0.2823965493,
				"y": -3.0647754223,
				"z": 0.072966266,
				"element": "C" 
			},
			{
				"x": 1.3155352898,
				"y": -2.2322899572,
				"z": -0.1886111397,
				"element": "O" 
			},
			{
				"x": 0.4137477447,
				"y": -4.2735057979,
				"z": 0.011229297,
				"element": "O" 
			},
			{
				"x": -1.3500281092,
				"y": 1.0741444662,
				"z": -1.2586338365,
				"element": "H" 
			},
			{
				"x": 0.184275992,
				"y": 1.7444809136,
				"z": -1.8249299826,
				"element": "H" 
			},
			{
				"x": -0.8694863349,
				"y": 2.7071102721,
				"z": -0.7788582955,
				"element": "H" 
			},
			{
				"x": 0.2230894576,
				"y": -1.3442737199,
				"z": 3.5562694104,
				"element": "H" 
			},
			{
				"x": 1.8696238944,
				"y": -0.7126992935,
				"z": 3.775272661,
				"element": "H" 
			},
			{
				"x": 1.5611813961,
				"y": -2.028062058,
				"z": 2.6298463105,
				"element": "H" 
			},
			{
				"x": 1.690950505,
				"y": 2.5605689056,
				"z": 0.5777105903,
				"element": "H" 
			},
			{
				"x": -2.6097267629,
				"y": 0.4944631284,
				"z": 1.2127998059,
				"element": "H" 
			},
			{
				"x": -4.5874538194,
				"y": -0.9645024212,
				"z": 0.9540175272,
				"element": "H" 
			},
			{
				"x": -4.2818829442,
				"y": -3.3789420693,
				"z": 0.3906861422,
				"element": "H" 
			},
			{
				"x": -1.9761150716,
				"y": -4.2584496836,
				"z": 0.037945341,
				"element": "H" 
			},
			{
				"x": 2.0686083257,
				"y": -2.8144565417,
				"z": -0.3861722818,
				"element": "H" 
			}
		],
		 "valence_orbital": [ 
			{
				"type": "occ",
				"energy": -0.27447,
				"method": "rhf"
			},
			{
				"type": "occ",
				"energy": -0.26035,
				"method": "rhf"
			},
			{
				"type": "occ",
				"energy": -0.25824,
				"method": "rhf"
			},
			{
				"type": "occ",
				"energy": -0.23436,
				"method": "rhf"
			},
			{
				"type": "occ",
				"energy": -0.22357,
				"method": "rhf"
			},
			{
				"type": "unocc",
				"energy": -0.04689,
				"method": "rhf"
			},
			{
				"type": "unocc",
				"energy": -0.01135,
				"method": "rhf"
			},
			{
				"type": "unocc",
				"energy": 0.02621,
				"method": "rhf"
			},
			{
				"type": "unocc",
				"energy": 0.05493,
				"method": "rhf"
			},
			{
				"type": "unocc",
				"energy": 0.07295,
				"method": "rhf"
			}
		],
		"cosmo_sigma_profile": { 
			"-0.025": 0.0,
			"-0.024": 0.0,
			"-0.023": 0.0,
			"-0.022": 0.0,
			"-0.021": 0.0,
			"-0.02": 0.0,
			"-0.019": 0.0,
			"-0.018": 0.426431335051,
			"-0.017": 1.08558850323,
			"-0.016": 1.1915433149,
			"-0.015": 2.13990405234,
			"-0.014": 1.95332032357,
			"-0.013": 1.97469549706,
			"-0.012": 1.95223245853,
			"-0.011": 1.39247869925,
			"-0.01": 1.41518520387,
			"-0.009": 1.55324719203,
			"-0.008": 1.25036863896,
			"-0.007": 3.18522886135,
			"-0.006": 9.02707680357,
			"-0.005": 14.9049946934,
			"-0.004": 19.942627587,
			"-0.003": 18.2628995638,
			"-0.002": 20.7434589852,
			"-0.001": 24.6102824982,
			"0.0": 21.000461192,
			"0.001": 15.6342130204,
			"0.002": 14.6785466656,
			"0.003": 15.8034757989,
			"0.004": 13.9533805492,
			"0.005": 7.05946423593,
			"0.006": 4.1349079236,
			"0.007": 4.67079860435,
			"0.008": 5.44023998049,
			"0.009": 5.2986499716,
			"0.01": 3.83988372098,
			"0.011": 3.58512182856,
			"0.012": 6.3430691352,
			"0.013": 1.2722274279,
			"0.014": 1.12710882716,
			"0.015": 0.880484469503,
			"0.016": 1.08821120269,
			"0.017": 0.523711901232,
			"0.018": 0.00959843447096,
			"0.019": 0.0,
			"0.02": 0.0,
			"0.021": 0.0,
			"0.022": 0.0,
			"0.023": 0.0,
			"0.024": 0.0,
			"0.025": 0.0
		}
	}
}
