{
	 "smiles": "CCOC(=O)C(F)(F)C(F)(F)F", 
	 "Tm": 348.65, 
	 "num_atms": 17, 
	 "gaussian": { 
		 "optdone": 1, 
		 "sigma_profile": "yes", 
		 "theory": "DFT", 
		 "functional": "B3LYP", 
		 "basiset": "6-31G**", 
		 "properties": { 
			 "R2extent": 2748.9437, 
			 "electric_dipole_moment_norm": 3.03614438062, 
			 "electric_quadrupole_moment_norm": 5.14425509865, 
			 "total_energy": -843.188341052, 
			 "HOMO_LUMO_gap": 0.26986, 
			 "cosmo_polarized_energy": -5.25, 
			 "cosmo_cavitation_energy": 24.1, 
			 "cosmo_dispersion_energy": -16.24, 
			 "cosmo_repulsion_energy": 1.24, 
			 "cosmo_total_nonelectrostatic_energy": 9.11, 
			 "SMD_solvation_energy": 7.38 
		},
		"coords": [
			{
				"x": -0.0876967742,
				"y": 0.0872264373,
				"z": -2.7570926429,
				"element": "C" 
			},
			{
				"x": -0.6648682865,
				"y": 0.3123554284,
				"z": -1.36968149,
				"element": "C" 
			},
			{
				"x": -0.1424866805,
				"y": -0.6644297714,
				"z": -0.4221894651,
				"element": "O" 
			},
			{
				"x": 1.0252357942,
				"y": -0.3730505392,
				"z": 0.1515974712,
				"element": "C" 
			},
			{
				"x": 1.6989294641,
				"y": 0.6114528127,
				"z": -0.019150744,
				"element": "O" 
			},
			{
				"x": 1.4337697678,
				"y": -1.5145401498,
				"z": 1.1140021769,
				"element": "C" 
			},
			{
				"x": 1.439709909,
				"y": -2.6964365087,
				"z": 0.4436322269,
				"element": "F" 
			},
			{
				"x": 2.6747105326,
				"y": -1.264798474,
				"z": 1.5776297943,
				"element": "F" 
			},
			{
				"x": 0.4955844043,
				"y": -1.661458669,
				"z": 2.3340096655,
				"element": "C" 
			},
			{
				"x": 1.038266063,
				"y": -2.4837128003,
				"z": 3.2393029186,
				"element": "F" 
			},
			{
				"x": -0.6929012909,
				"y": -2.1521655551,
				"z": 1.9650004714,
				"element": "F" 
			},
			{
				"x": 0.3093547981,
				"y": -0.4553595523,
				"z": 2.8997151598,
				"element": "F" 
			},
			{
				"x": -0.2816269603,
				"y": -0.933028988,
				"z": -3.0994226116,
				"element": "H" 
			},
			{
				"x": -0.5536109151,
				"y": 0.7820378648,
				"z": -3.4633049212,
				"element": "H" 
			},
			{
				"x": 0.9902328884,
				"y": 0.2663300489,
				"z": -2.762955622,
				"element": "H" 
			},
			{
				"x": -1.7437677057,
				"y": 0.1496436417,
				"z": -1.3454824396,
				"element": "H" 
			},
			{
				"x": -0.4357350082,
				"y": 1.3125347739,
				"z": -0.9953099483,
				"element": "H" 
			}
		],
		 "valence_orbital": [ 
			{
				"type": "occ",
				"energy": -0.39482,
				"method": "rhf"
			},
			{
				"type": "occ",
				"energy": -0.37378,
				"method": "rhf"
			},
			{
				"type": "occ",
				"energy": -0.35902,
				"method": "rhf"
			},
			{
				"type": "occ",
				"energy": -0.32663,
				"method": "rhf"
			},
			{
				"type": "occ",
				"energy": -0.30201,
				"method": "rhf"
			},
			{
				"type": "unocc",
				"energy": -0.03215,
				"method": "rhf"
			},
			{
				"type": "unocc",
				"energy": 0.07166,
				"method": "rhf"
			},
			{
				"type": "unocc",
				"energy": 0.09324,
				"method": "rhf"
			},
			{
				"type": "unocc",
				"energy": 0.10867,
				"method": "rhf"
			},
			{
				"type": "unocc",
				"energy": 0.11829,
				"method": "rhf"
			}
		],
		"cosmo_sigma_profile": { 
			"-0.025": 0.0,
			"-0.024": 0.0,
			"-0.023": 0.0,
			"-0.022": 0.0,
			"-0.021": 0.0,
			"-0.02": 0.0,
			"-0.019": 0.0,
			"-0.018": 0.0,
			"-0.017": 0.0,
			"-0.016": 0.0,
			"-0.015": 0.0,
			"-0.014": 0.0,
			"-0.013": 0.0,
			"-0.012": 0.0,
			"-0.011": 0.0,
			"-0.01": 0.0,
			"-0.009": 0.0,
			"-0.008": 0.0329889374929,
			"-0.007": 2.34445419717,
			"-0.006": 5.95123004172,
			"-0.005": 12.3323511913,
			"-0.004": 14.5820509864,
			"-0.003": 12.5361796775,
			"-0.002": 14.8460402421,
			"-0.001": 18.6710288226,
			"0.0": 19.5155002433,
			"0.001": 35.1989112285,
			"0.002": 27.6949594809,
			"0.003": 6.49447098306,
			"0.004": 4.33885875003,
			"0.005": 3.84089519083,
			"0.006": 2.17686280417,
			"0.007": 2.09456511328,
			"0.008": 1.8663205368,
			"0.009": 3.55886582554,
			"0.01": 3.51096616461,
			"0.011": 0.207326413781,
			"0.012": 0.0,
			"0.013": 0.0,
			"0.014": 0.0,
			"0.015": 0.0,
			"0.016": 0.0,
			"0.017": 0.0,
			"0.018": 0.0,
			"0.019": 0.0,
			"0.02": 0.0,
			"0.021": 0.0,
			"0.022": 0.0,
			"0.023": 0.0,
			"0.024": 0.0,
			"0.025": 0.0
		}
	}
}
