{
	 "smiles": "CCCCCCCCCCCCCCCCCCCCCCCCCCCCCCCCCCCCCCCC", 
	 "Tm": 354.65, 
	 "num_atms": 122, 
	 "gaussian": { 
		 "optdone": 1, 
		 "sigma_profile": "yes", 
		 "theory": "DFT", 
		 "functional": "B3LYP", 
		 "basiset": "6-31G**", 
		 "properties": { 
			 "R2extent": 60266.3797, 
			 "electric_dipole_moment_norm": 0.0861052843907, 
			 "electric_quadrupole_moment_norm": 2.03775448717, 
			 "total_energy": -1573.80350246, 
			 "HOMO_LUMO_gap": 0.35978, 
			 "cosmo_polarized_energy": -2.34, 
			 "cosmo_cavitation_energy": 113.05, 
			 "cosmo_dispersion_energy": -71.71, 
			 "cosmo_repulsion_energy": 5.84, 
			 "cosmo_total_nonelectrostatic_energy": 47.19, 
			 "SMD_solvation_energy": 13.33 
		},
		"coords": [
			{
				"x": 1.7630552985,
				"y": 9.4238594485,
				"z": -2.2835376562,
				"element": "C" 
			},
			{
				"x": 2.3411356581,
				"y": 9.5002941526,
				"z": -0.8667847564,
				"element": "C" 
			},
			{
				"x": 2.5870468989,
				"y": 8.1232263862,
				"z": -0.2370283583,
				"element": "C" 
			},
			{
				"x": 3.1655155901,
				"y": 8.1907410924,
				"z": 1.1818799157,
				"element": "C" 
			},
			{
				"x": 3.4150238682,
				"y": 6.8135919844,
				"z": 1.8114967033,
				"element": "C" 
			},
			{
				"x": 3.985834551,
				"y": 6.8979842211,
				"z": 3.2338104961,
				"element": "C" 
			},
			{
				"x": 4.3603187389,
				"y": 5.5581330555,
				"z": 3.893051786,
				"element": "C" 
			},
			{
				"x": 3.1812776603,
				"y": 4.5907183516,
				"z": 4.1528383356,
				"element": "C" 
			},
			{
				"x": 2.9170609818,
				"y": 3.5370971019,
				"z": 3.0588039361,
				"element": "C" 
			},
			{
				"x": 3.9775081193,
				"y": 2.4272127646,
				"z": 3.0021633589,
				"element": "C" 
			},
			{
				"x": 3.7018804267,
				"y": 1.2926801345,
				"z": 1.9981497183,
				"element": "C" 
			},
			{
				"x": 3.6959700512,
				"y": 1.7113175764,
				"z": 0.5084915928,
				"element": "C" 
			},
			{
				"x": 2.3136766628,
				"y": 2.0261940164,
				"z": -0.0971561973,
				"element": "C" 
			},
			{
				"x": 1.4426697599,
				"y": 0.7816902349,
				"z": -0.3291885979,
				"element": "C" 
			},
			{
				"x": 0.0251833754,
				"y": 1.0779063357,
				"z": -0.8473968155,
				"element": "C" 
			},
			{
				"x": -0.034990363,
				"y": 1.6894770277,
				"z": -2.2544247678,
				"element": "C" 
			},
			{
				"x": -1.4679388937,
				"y": 1.904560216,
				"z": -2.7600567544,
				"element": "C" 
			},
			{
				"x": -1.5300564935,
				"y": 2.507805701,
				"z": -4.170185823,
				"element": "C" 
			},
			{
				"x": -2.9497040023,
				"y": 2.8327789019,
				"z": -4.6686058666,
				"element": "C" 
			},
			{
				"x": -3.9025122757,
				"y": 1.6338253765,
				"z": -4.8256434906,
				"element": "C" 
			},
			{
				"x": -3.4612828912,
				"y": 0.6075292891,
				"z": -5.8798466451,
				"element": "C" 
			},
			{
				"x": -4.4993107921,
				"y": -0.4934447646,
				"z": -6.1647318631,
				"element": "C" 
			},
			{
				"x": -4.8356500832,
				"y": -1.4307129197,
				"z": -4.9898579218,
				"element": "C" 
			},
			{
				"x": -3.6608955665,
				"y": -2.299604154,
				"z": -4.515808141,
				"element": "C" 
			},
			{
				"x": -3.9871067032,
				"y": -3.2375213402,
				"z": -3.339857376,
				"element": "C" 
			},
			{
				"x": -4.9909774061,
				"y": -4.3538215141,
				"z": -3.6669355925,
				"element": "C" 
			},
			{
				"x": -5.2961294162,
				"y": -5.3006202489,
				"z": -2.4930503745,
				"element": "C" 
			},
			{
				"x": -4.1257761092,
				"y": -6.1972937743,
				"z": -2.0634131937,
				"element": "C" 
			},
			{
				"x": -4.5072739269,
				"y": -7.1772727056,
				"z": -0.9424080768,
				"element": "C" 
			},
			{
				"x": -3.3914140822,
				"y": -8.1472416799,
				"z": -0.4955564082,
				"element": "C" 
			},
			{
				"x": -2.4717247633,
				"y": -7.6586416004,
				"z": 0.6391159867,
				"element": "C" 
			},
			{
				"x": -1.5728495084,
				"y": -6.4566851731,
				"z": 0.3102081753,
				"element": "C" 
			},
			{
				"x": -0.5170594348,
				"y": -6.1457616003,
				"z": 1.3855550743,
				"element": "C" 
			},
			{
				"x": -1.097836134,
				"y": -5.6762867993,
				"z": 2.7286935209,
				"element": "C" 
			},
			{
				"x": -0.0476448149,
				"y": -5.2099354595,
				"z": 3.752067876,
				"element": "C" 
			},
			{
				"x": 0.8733726872,
				"y": -6.3234437629,
				"z": 4.2732880157,
				"element": "C" 
			},
			{
				"x": 1.9364945425,
				"y": -5.8501206518,
				"z": 5.281780172,
				"element": "C" 
			},
			{
				"x": 1.4078782524,
				"y": -5.2852120771,
				"z": 6.6122476967,
				"element": "C" 
			},
			{
				"x": 0.6354537312,
				"y": -6.292186762,
				"z": 7.4758074918,
				"element": "C" 
			},
			{
				"x": 0.2074850172,
				"y": -5.7135706379,
				"z": 8.8286833696,
				"element": "C" 
			},
			{
				"x": 2.4379715514,
				"y": 8.8848730733,
				"z": -2.9584111933,
				"element": "H" 
			},
			{
				"x": 0.8014042999,
				"y": 8.8978926835,
				"z": -2.2913010081,
				"element": "H" 
			},
			{
				"x": 1.5992783069,
				"y": 10.421281082,
				"z": -2.7047573681,
				"element": "H" 
			},
			{
				"x": 3.2848531984,
				"y": 10.0624325722,
				"z": -0.8862074074,
				"element": "H" 
			},
			{
				"x": 1.6603408471,
				"y": 10.0751347628,
				"z": -0.2240692826,
				"element": "H" 
			},
			{
				"x": 1.6425922499,
				"y": 7.5603240358,
				"z": -0.2185965562,
				"element": "H" 
			},
			{
				"x": 3.268278589,
				"y": 7.5477992034,
				"z": -0.8804715669,
				"element": "H" 
			},
			{
				"x": 2.48256671,
				"y": 8.7646097184,
				"z": 1.8248127243,
				"element": "H" 
			},
			{
				"x": 4.108128834,
				"y": 8.7565224053,
				"z": 1.1629728017,
				"element": "H" 
			},
			{
				"x": 4.106285586,
				"y": 6.2434501188,
				"z": 1.1739414572,
				"element": "H" 
			},
			{
				"x": 2.4725596541,
				"y": 6.2506197308,
				"z": 1.8191889111,
				"element": "H" 
			},
			{
				"x": 3.2631867537,
				"y": 7.4201125656,
				"z": 3.877757889,
				"element": "H" 
			},
			{
				"x": 4.8818873939,
				"y": 7.5340716067,
				"z": 3.2126947601,
				"element": "H" 
			},
			{
				"x": 5.128404348,
				"y": 5.0589219651,
				"z": 3.2871931332,
				"element": "H" 
			},
			{
				"x": 4.845537108,
				"y": 5.7878834156,
				"z": 4.849794176,
				"element": "H" 
			},
			{
				"x": 3.3556152996,
				"y": 4.0571970522,
				"z": 5.0968432474,
				"element": "H" 
			},
			{
				"x": 2.2688895362,
				"y": 5.1812612109,
				"z": 4.3125644018,
				"element": "H" 
			},
			{
				"x": 1.9377177722,
				"y": 3.074957221,
				"z": 3.2462310996,
				"element": "H" 
			},
			{
				"x": 2.8401306243,
				"y": 4.0284247717,
				"z": 2.0825226112,
				"element": "H" 
			},
			{
				"x": 4.9594159851,
				"y": 2.8641602597,
				"z": 2.7736373464,
				"element": "H" 
			},
			{
				"x": 4.0716136778,
				"y": 1.9868607512,
				"z": 4.0049703374,
				"element": "H" 
			},
			{
				"x": 4.4719476352,
				"y": 0.5259511011,
				"z": 2.1485640655,
				"element": "H" 
			},
			{
				"x": 2.7503648802,
				"y": 0.8071991839,
				"z": 2.2543274832,
				"element": "H" 
			},
			{
				"x": 4.3519314877,
				"y": 2.5834943489,
				"z": 0.3839718544,
				"element": "H" 
			},
			{
				"x": 4.1516792313,
				"y": 0.9132509471,
				"z": -0.0927149659,
				"element": "H" 
			},
			{
				"x": 1.7712264769,
				"y": 2.7290644402,
				"z": 0.5483313051,
				"element": "H" 
			},
			{
				"x": 2.4635835186,
				"y": 2.5451697552,
				"z": -1.0520456177,
				"element": "H" 
			},
			{
				"x": 1.9551553101,
				"y": 0.112416966,
				"z": -1.0356945597,
				"element": "H" 
			},
			{
				"x": 1.3568954039,
				"y": 0.2185228272,
				"z": 0.6091449703,
				"element": "H" 
			},
			{
				"x": -0.4853761508,
				"y": 1.7472449208,
				"z": -0.139802859,
				"element": "H" 
			},
			{
				"x": -0.5520604366,
				"y": 0.143068907,
				"z": -0.8467219993,
				"element": "H" 
			},
			{
				"x": 0.5029099016,
				"y": 1.0344217271,
				"z": -2.9553966155,
				"element": "H" 
			},
			{
				"x": 0.4960934484,
				"y": 2.6503069907,
				"z": -2.2696067724,
				"element": "H" 
			},
			{
				"x": -2.0011742043,
				"y": 0.9445015454,
				"z": -2.7387632928,
				"element": "H" 
			},
			{
				"x": -2.0039482683,
				"y": 2.5632151691,
				"z": -2.0610077697,
				"element": "H" 
			},
			{
				"x": -1.0307894217,
				"y": 1.8307250509,
				"z": -4.8762393716,
				"element": "H" 
			},
			{
				"x": -0.9412647911,
				"y": 3.4352690195,
				"z": -4.1824434884,
				"element": "H" 
			},
			{
				"x": -3.4060779311,
				"y": 3.5551597625,
				"z": -3.9778122803,
				"element": "H" 
			},
			{
				"x": -2.8718414595,
				"y": 3.3478489347,
				"z": -5.6360592398,
				"element": "H" 
			},
			{
				"x": -4.8945485486,
				"y": 2.0168223499,
				"z": -5.1031056712,
				"element": "H" 
			},
			{
				"x": -4.0359418185,
				"y": 1.1407122073,
				"z": -3.8548283638,
				"element": "H" 
			},
			{
				"x": -3.25557459,
				"y": 1.137392139,
				"z": -6.8204423387,
				"element": "H" 
			},
			{
				"x": -2.5091270311,
				"y": 0.1505067259,
				"z": -5.5831653937,
				"element": "H" 
			},
			{
				"x": -4.1439744108,
				"y": -1.1025519934,
				"z": -7.0073965467,
				"element": "H" 
			},
			{
				"x": -5.4276557464,
				"y": -0.0163909186,
				"z": -6.5080911848,
				"element": "H" 
			},
			{
				"x": -5.6647370086,
				"y": -2.0774469338,
				"z": -5.3022252742,
				"element": "H" 
			},
			{
				"x": -5.2170073443,
				"y": -0.8460359211,
				"z": -4.1415467154,
				"element": "H" 
			},
			{
				"x": -2.8279332816,
				"y": -1.6510660669,
				"z": -4.2160892424,
				"element": "H" 
			},
			{
				"x": -3.2888166032,
				"y": -2.8958018398,
				"z": -5.3620411459,
				"element": "H" 
			},
			{
				"x": -4.373486208,
				"y": -2.6423654399,
				"z": -2.499271245,
				"element": "H" 
			},
			{
				"x": -3.0497278669,
				"y": -3.68496823,
				"z": -2.9868378917,
				"element": "H" 
			},
			{
				"x": -5.9343215575,
				"y": -3.9068679091,
				"z": -4.0038207127,
				"element": "H" 
			},
			{
				"x": -4.6133098108,
				"y": -4.9412197869,
				"z": -4.5168303838,
				"element": "H" 
			},
			{
				"x": -5.6362709411,
				"y": -4.708713157,
				"z": -1.6307659607,
				"element": "H" 
			},
			{
				"x": -6.1442702285,
				"y": -5.9420825912,
				"z": -2.7695369603,
				"element": "H" 
			},
			{
				"x": -3.2776558546,
				"y": -5.5797433854,
				"z": -1.7493257454,
				"element": "H" 
			},
			{
				"x": -3.7763656182,
				"y": -6.7719307917,
				"z": -2.9336810326,
				"element": "H" 
			},
			{
				"x": -4.8717186449,
				"y": -6.6149002702,
				"z": -0.0704209199,
				"element": "H" 
			},
			{
				"x": -5.3654160225,
				"y": -7.766942119,
				"z": -1.2923324173,
				"element": "H" 
			},
			{
				"x": -3.8601275815,
				"y": -9.0786931397,
				"z": -0.1534921549,
				"element": "H" 
			},
			{
				"x": -2.7809693094,
				"y": -8.4249414551,
				"z": -1.3669246841,
				"element": "H" 
			},
			{
				"x": -1.8278789724,
				"y": -8.4978905045,
				"z": 0.9392794341,
				"element": "H" 
			},
			{
				"x": -3.0916389609,
				"y": -7.4280672174,
				"z": 1.5158396279,
				"element": "H" 
			},
			{
				"x": -1.0590365262,
				"y": -6.6490583171,
				"z": -0.6417055185,
				"element": "H" 
			},
			{
				"x": -2.1879420936,
				"y": -5.5615036113,
				"z": 0.150021552,
				"element": "H" 
			},
			{
				"x": 0.1078167882,
				"y": -7.0360619345,
				"z": 1.5367957493,
				"element": "H" 
			},
			{
				"x": 0.1547249127,
				"y": -5.3643519512,
				"z": 1.003547154,
				"element": "H" 
			},
			{
				"x": -1.7928634838,
				"y": -4.8469334824,
				"z": 2.5361288128,
				"element": "H" 
			},
			{
				"x": -1.7004597534,
				"y": -6.4775937979,
				"z": 3.1768302993,
				"element": "H" 
			},
			{
				"x": -0.571937855,
				"y": -4.7465672746,
				"z": 4.5973407387,
				"element": "H" 
			},
			{
				"x": 0.5659609811,
				"y": -4.4143997866,
				"z": 3.304055375,
				"element": "H" 
			},
			{
				"x": 1.394860813,
				"y": -6.7898895838,
				"z": 3.4283792097,
				"element": "H" 
			},
			{
				"x": 0.2601434081,
				"y": -7.1180219793,
				"z": 4.7200478072,
				"element": "H" 
			},
			{
				"x": 2.560505229,
				"y": -5.0853436855,
				"z": 4.7990876159,
				"element": "H" 
			},
			{
				"x": 2.6082978736,
				"y": -6.6912038927,
				"z": 5.5021847233,
				"element": "H" 
			},
			{
				"x": 2.2635650506,
				"y": -4.9109280614,
				"z": 7.1910642264,
				"element": "H" 
			},
			{
				"x": 0.7728896482,
				"y": -4.4090218328,
				"z": 6.4239185637,
				"element": "H" 
			},
			{
				"x": -0.2540034915,
				"y": -6.6424521113,
				"z": 6.9368525537,
				"element": "H" 
			},
			{
				"x": 1.2606621425,
				"y": -7.1812163698,
				"z": 7.6385315005,
				"element": "H" 
			},
			{
				"x": 1.0760162342,
				"y": -5.3903471708,
				"z": 9.4140945383,
				"element": "H" 
			},
			{
				"x": -0.4435535329,
				"y": -4.8413440114,
				"z": 8.6983381242,
				"element": "H" 
			},
			{
				"x": -0.3404935519,
				"y": -6.4500424433,
				"z": 9.4257399926,
				"element": "H" 
			}
		],
		 "valence_orbital": [ 
			{
				"type": "occ",
				"energy": -0.29609,
				"method": "rhf"
			},
			{
				"type": "occ",
				"energy": -0.2945,
				"method": "rhf"
			},
			{
				"type": "occ",
				"energy": -0.293,
				"method": "rhf"
			},
			{
				"type": "occ",
				"energy": -0.29076,
				"method": "rhf"
			},
			{
				"type": "occ",
				"energy": -0.28922,
				"method": "rhf"
			},
			{
				"type": "unocc",
				"energy": 0.07056,
				"method": "rhf"
			},
			{
				"type": "unocc",
				"energy": 0.08363,
				"method": "rhf"
			},
			{
				"type": "unocc",
				"energy": 0.08442,
				"method": "rhf"
			},
			{
				"type": "unocc",
				"energy": 0.08819,
				"method": "rhf"
			},
			{
				"type": "unocc",
				"energy": 0.09318,
				"method": "rhf"
			}
		],
		"cosmo_sigma_profile": { 
			"-0.025": 0.0,
			"-0.024": 0.0,
			"-0.023": 0.0,
			"-0.022": 0.0,
			"-0.021": 0.0,
			"-0.02": 0.0,
			"-0.019": 0.0,
			"-0.018": 0.0,
			"-0.017": 0.0,
			"-0.016": 0.0,
			"-0.015": 0.0,
			"-0.014": 0.0,
			"-0.013": 0.0,
			"-0.012": 0.0,
			"-0.011": 0.0,
			"-0.01": 0.0,
			"-0.009": 0.0,
			"-0.008": 0.0,
			"-0.007": 0.0,
			"-0.006": 0.0,
			"-0.005": 0.0,
			"-0.004": 0.0,
			"-0.003": 3.02153045871,
			"-0.002": 82.6067272066,
			"-0.001": 224.425778834,
			"0.0": 247.980902542,
			"0.001": 208.328522616,
			"0.002": 91.3769580809,
			"0.003": 2.23676944888,
			"0.004": 0.0,
			"0.005": 0.0,
			"0.006": 0.0,
			"0.007": 0.0,
			"0.008": 0.0,
			"0.009": 0.0,
			"0.01": 0.0,
			"0.011": 0.0,
			"0.012": 0.0,
			"0.013": 0.0,
			"0.014": 0.0,
			"0.015": 0.0,
			"0.016": 0.0,
			"0.017": 0.0,
			"0.018": 0.0,
			"0.019": 0.0,
			"0.02": 0.0,
			"0.021": 0.0,
			"0.022": 0.0,
			"0.023": 0.0,
			"0.024": 0.0,
			"0.025": 0.0
		}
	}
}
