{
	 "smiles": "COC1=CC(=O)NC(NC(=O)CCl)=N1", 
	 "Tm": 463.15, 
	 "num_atms": 22, 
	 "gaussian": { 
		 "optdone": 1, 
		 "sigma_profile": "yes", 
		 "theory": "DFT", 
		 "functional": "B3LYP", 
		 "basiset": "6-31G**", 
		 "properties": { 
			 "R2extent": 4776.6221, 
			 "electric_dipole_moment_norm": 3.05163629058, 
			 "electric_quadrupole_moment_norm": 18.4784891341, 
			 "total_energy": -1121.69564478, 
			 "HOMO_LUMO_gap": 0.17231, 
			 "cosmo_polarized_energy": -23.24, 
			 "cosmo_cavitation_energy": 29.12, 
			 "cosmo_dispersion_energy": -21.53, 
			 "cosmo_repulsion_energy": 1.73, 
			 "cosmo_total_nonelectrostatic_energy": 9.32, 
			 "SMD_solvation_energy": 6.28 
		},
		"coords": [
			{
				"x": 0.8977086778,
				"y": -2.3770624824,
				"z": -2.1752792933,
				"element": "C" 
			},
			{
				"x": 1.7084513659,
				"y": -1.2280710426,
				"z": -1.9005048001,
				"element": "O" 
			},
			{
				"x": 1.3752096654,
				"y": -0.4362684222,
				"z": -0.8695260769,
				"element": "C" 
			},
			{
				"x": 2.1625231627,
				"y": 0.6668152827,
				"z": -0.6217680292,
				"element": "C" 
			},
			{
				"x": 1.8516085067,
				"y": 1.5224861296,
				"z": 0.4792043944,
				"element": "C" 
			},
			{
				"x": 2.4229119244,
				"y": 2.5248398747,
				"z": 0.8819722681,
				"element": "O" 
			},
			{
				"x": 0.6771970114,
				"y": 1.0844197714,
				"z": 1.2006443388,
				"element": "N" 
			},
			{
				"x": -0.0406165578,
				"y": -0.0103005511,
				"z": 0.8646904824,
				"element": "C" 
			},
			{
				"x": -1.1552236089,
				"y": -0.4073099303,
				"z": 1.5962789158,
				"element": "N" 
			},
			{
				"x": -2.0311106636,
				"y": 0.183198716,
				"z": 2.5149512365,
				"element": "C" 
			},
			{
				"x": -2.9890814841,
				"y": -0.4501734948,
				"z": 2.8977586839,
				"element": "O" 
			},
			{
				"x": -1.7150059162,
				"y": 1.6058299697,
				"z": 2.9825432569,
				"element": "C" 
			},
			{
				"x": -3.0222866534,
				"y": 2.2894042743,
				"z": 3.9844193765,
				"element": "Cl" 
			},
			{
				"x": 0.2713239559,
				"y": -0.7831499668,
				"z": -0.1468078901,
				"element": "N" 
			},
			{
				"x": 0.8937178404,
				"y": -3.0701049001,
				"z": -1.3297543215,
				"element": "H" 
			},
			{
				"x": 1.3588847669,
				"y": -2.8475799889,
				"z": -3.0439863881,
				"element": "H" 
			},
			{
				"x": -0.1318047174,
				"y": -2.0894784325,
				"z": -2.4041072525,
				"element": "H" 
			},
			{
				"x": 3.0243362843,
				"y": 0.8896076927,
				"z": -1.2348701179,
				"element": "H" 
			},
			{
				"x": 0.4858026657,
				"y": 1.6409764764,
				"z": 2.0212672282,
				"element": "H" 
			},
			{
				"x": -1.4951121165,
				"y": -1.3125987076,
				"z": 1.2880702174,
				"element": "H" 
			},
			{
				"x": -1.5677995871,
				"y": 2.2691611274,
				"z": 2.1270840435,
				"element": "H" 
			},
			{
				"x": -0.8085345225,
				"y": 1.6009586043,
				"z": 3.5961197273,
				"element": "H" 
			}
		],
		 "valence_orbital": [ 
			{
				"type": "occ",
				"energy": -0.30935,
				"method": "rhf"
			},
			{
				"type": "occ",
				"energy": -0.30057,
				"method": "rhf"
			},
			{
				"type": "occ",
				"energy": -0.29638,
				"method": "rhf"
			},
			{
				"type": "occ",
				"energy": -0.26704,
				"method": "rhf"
			},
			{
				"type": "occ",
				"energy": -0.23146,
				"method": "rhf"
			},
			{
				"type": "unocc",
				"energy": -0.05915,
				"method": "rhf"
			},
			{
				"type": "unocc",
				"energy": -0.01569,
				"method": "rhf"
			},
			{
				"type": "unocc",
				"energy": -0.00461,
				"method": "rhf"
			},
			{
				"type": "unocc",
				"energy": 0.01082,
				"method": "rhf"
			},
			{
				"type": "unocc",
				"energy": 0.05748,
				"method": "rhf"
			}
		],
		"cosmo_sigma_profile": { 
			"-0.025": 0.0,
			"-0.024": 0.0,
			"-0.023": 0.0,
			"-0.022": 0.0,
			"-0.021": 0.0,
			"-0.02": 0.0,
			"-0.019": 0.0277359811349,
			"-0.018": 1.00787793707,
			"-0.017": 1.03195089148,
			"-0.016": 1.51647937575,
			"-0.015": 1.82159935357,
			"-0.014": 2.46533273252,
			"-0.013": 2.13560771926,
			"-0.012": 3.51618225394,
			"-0.011": 5.51389672002,
			"-0.01": 4.25774700462,
			"-0.009": 3.48122480531,
			"-0.008": 3.76850580636,
			"-0.007": 5.11579870218,
			"-0.006": 8.53888447312,
			"-0.005": 12.230456566,
			"-0.004": 15.4668870315,
			"-0.003": 17.9906447304,
			"-0.002": 12.1232930544,
			"-0.001": 13.3256944719,
			"0.0": 12.1097487644,
			"0.001": 10.9301615948,
			"0.002": 11.7160283213,
			"0.003": 11.8777422777,
			"0.004": 11.1048218266,
			"0.005": 13.2813789277,
			"0.006": 7.39185449808,
			"0.007": 5.60304127941,
			"0.008": 4.24034885136,
			"0.009": 5.45344036248,
			"0.01": 4.83789298511,
			"0.011": 6.36218398875,
			"0.012": 3.88601564087,
			"0.013": 4.80638996425,
			"0.014": 4.92419808957,
			"0.015": 0.89571899505,
			"0.016": 0.0,
			"0.017": 0.0,
			"0.018": 0.0,
			"0.019": 0.0,
			"0.02": 0.0,
			"0.021": 0.0,
			"0.022": 0.0,
			"0.023": 0.0,
			"0.024": 0.0,
			"0.025": 0.0
		}
	}
}
