{
	 "smiles": "CC(C)C1=NC(CC(O)=O)=CS1", 
	 "Tm": 361.15, 
	 "num_atms": 23, 
	 "gaussian": { 
		 "optdone": 1, 
		 "sigma_profile": "yes", 
		 "theory": "DFT", 
		 "functional": "B3LYP", 
		 "basiset": "6-31G**", 
		 "properties": { 
			 "R2extent": 3307.9672, 
			 "electric_dipole_moment_norm": 0.82868250253, 
			 "electric_quadrupole_moment_norm": 10.7592957665, 
			 "total_energy": -914.889381414, 
			 "HOMO_LUMO_gap": 0.21642, 
			 "cosmo_polarized_energy": -9.72, 
			 "cosmo_cavitation_energy": 28.46, 
			 "cosmo_dispersion_energy": -20.93, 
			 "cosmo_repulsion_energy": 1.67, 
			 "cosmo_total_nonelectrostatic_energy": 9.19, 
			 "SMD_solvation_energy": 4.66 
		},
		"coords": [
			{
				"x": -1.2473974711,
				"y": 3.0390870215,
				"z": 0.6037393298,
				"element": "C" 
			},
			{
				"x": -1.6534509131,
				"y": 1.9526190235,
				"z": -0.4098140227,
				"element": "C" 
			},
			{
				"x": -2.9044567089,
				"y": 1.1868329651,
				"z": 0.0598056825,
				"element": "C" 
			},
			{
				"x": -0.5067007497,
				"y": 0.9965270469,
				"z": -0.6457351367,
				"element": "C" 
			},
			{
				"x": 0.0190007398,
				"y": 0.2418678035,
				"z": 0.275275436,
				"element": "N" 
			},
			{
				"x": 1.0537807888,
				"y": -0.5317980115,
				"z": -0.217892902,
				"element": "C" 
			},
			{
				"x": 1.7283757418,
				"y": -1.4420020293,
				"z": 0.773347438,
				"element": "C" 
			},
			{
				"x": 2.8660748803,
				"y": -2.3024566885,
				"z": 0.2715169723,
				"element": "C" 
			},
			{
				"x": 3.3608456428,
				"y": -3.0573846604,
				"z": 1.2825707087,
				"element": "O" 
			},
			{
				"x": 3.3177572683,
				"y": -2.3579933845,
				"z": -0.8518773029,
				"element": "O" 
			},
			{
				"x": 1.3257899906,
				"y": -0.3649440757,
				"z": -1.5468215865,
				"element": "C" 
			},
			{
				"x": 0.2464541694,
				"y": 0.8099354015,
				"z": -2.224149579,
				"element": "S" 
			},
			{
				"x": -0.9790079611,
				"y": 2.5817001834,
				"z": 1.5603351567,
				"element": "H" 
			},
			{
				"x": -0.3857733196,
				"y": 3.6125837251,
				"z": 0.2483140166,
				"element": "H" 
			},
			{
				"x": -2.076414493,
				"y": 3.7347823456,
				"z": 0.7707408074,
				"element": "H" 
			},
			{
				"x": -1.8845438581,
				"y": 2.4402019189,
				"z": -1.365305002,
				"element": "H" 
			},
			{
				"x": -2.6960181304,
				"y": 0.6608291725,
				"z": 0.995801702,
				"element": "H" 
			},
			{
				"x": -3.7358748128,
				"y": 1.8795605976,
				"z": 0.2270823753,
				"element": "H" 
			},
			{
				"x": -3.2195752286,
				"y": 0.4467600691,
				"z": -0.6822128723,
				"element": "H" 
			},
			{
				"x": 2.1100746242,
				"y": -0.8513777828,
				"z": 1.6160804513,
				"element": "H" 
			},
			{
				"x": 0.9848931189,
				"y": -2.1113074641,
				"z": 1.2250537729,
				"element": "H" 
			},
			{
				"x": 4.0824520765,
				"y": -3.5827608627,
				"z": 0.8979631419,
				"element": "H" 
			},
			{
				"x": 2.0823146051,
				"y": -0.8608623146,
				"z": -2.1332185873,
				"element": "H" 
			}
		],
		 "valence_orbital": [ 
			{
				"type": "occ",
				"energy": -0.32636,
				"method": "rhf"
			},
			{
				"type": "occ",
				"energy": -0.28328,
				"method": "rhf"
			},
			{
				"type": "occ",
				"energy": -0.27512,
				"method": "rhf"
			},
			{
				"type": "occ",
				"energy": -0.26762,
				"method": "rhf"
			},
			{
				"type": "occ",
				"energy": -0.23224,
				"method": "rhf"
			},
			{
				"type": "unocc",
				"energy": -0.01582,
				"method": "rhf"
			},
			{
				"type": "unocc",
				"energy": 0.0036,
				"method": "rhf"
			},
			{
				"type": "unocc",
				"energy": 0.02142,
				"method": "rhf"
			},
			{
				"type": "unocc",
				"energy": 0.04901,
				"method": "rhf"
			},
			{
				"type": "unocc",
				"energy": 0.07531,
				"method": "rhf"
			}
		],
		"cosmo_sigma_profile": { 
			"-0.025": 0.0,
			"-0.024": 0.0,
			"-0.023": 0.0,
			"-0.022": 0.0,
			"-0.021": 0.0,
			"-0.02": 0.0,
			"-0.019": 0.101923126386,
			"-0.018": 0.694488320689,
			"-0.017": 0.925223985839,
			"-0.016": 1.00665695524,
			"-0.015": 0.575285574464,
			"-0.014": 0.822710244486,
			"-0.013": 0.851997462049,
			"-0.012": 0.426101308714,
			"-0.011": 0.624861121937,
			"-0.01": 0.502953397904,
			"-0.009": 0.530656896906,
			"-0.008": 1.91498473103,
			"-0.007": 6.15999885636,
			"-0.006": 6.3062386983,
			"-0.005": 8.74806673787,
			"-0.004": 11.1307129157,
			"-0.003": 22.6556765533,
			"-0.002": 21.2478672946,
			"-0.001": 21.181480035,
			"0.0": 21.0982504911,
			"0.001": 22.0273928601,
			"0.002": 16.5097463437,
			"0.003": 15.9138956652,
			"0.004": 12.5421605196,
			"0.005": 4.99203997673,
			"0.006": 4.22170611591,
			"0.007": 5.03954768525,
			"0.008": 3.79969572592,
			"0.009": 4.28348462236,
			"0.01": 3.68193005758,
			"0.011": 3.40414310933,
			"0.012": 1.68880406203,
			"0.013": 0.441499492536,
			"0.014": 0.482593173786,
			"0.015": 0.0,
			"0.016": 0.0,
			"0.017": 0.0,
			"0.018": 0.0,
			"0.019": 0.0,
			"0.02": 0.0,
			"0.021": 0.0,
			"0.022": 0.0,
			"0.023": 0.0,
			"0.024": 0.0,
			"0.025": 0.0
		}
	}
}
