{
	 "smiles": "COC(=O)C(=O)CC(=O)C1=CC(Cl)=CC=C1", 
	 "Tm": 303.15, 
	 "num_atms": 25, 
	 "gaussian": { 
		 "optdone": 1, 
		 "sigma_profile": "yes", 
		 "theory": "DFT", 
		 "functional": "B3LYP", 
		 "basiset": "6-31G**", 
		 "properties": { 
			 "R2extent": 6308.8807, 
			 "electric_dipole_moment_norm": 2.17219657029, 
			 "electric_quadrupole_moment_norm": 21.5279785068, 
			 "total_energy": -1185.66726177, 
			 "HOMO_LUMO_gap": 0.16746, 
			 "cosmo_polarized_energy": -14.32, 
			 "cosmo_cavitation_energy": 33.13, 
			 "cosmo_dispersion_energy": -23.05, 
			 "cosmo_repulsion_energy": 1.81, 
			 "cosmo_total_nonelectrostatic_energy": 11.9, 
			 "SMD_solvation_energy": 8.21 
		},
		"coords": [
			{
				"x": -3.6663162832,
				"y": 3.60710164,
				"z": -0.9785831093,
				"element": "C" 
			},
			{
				"x": -3.0818301197,
				"y": 2.5861414106,
				"z": -0.1455432584,
				"element": "O" 
			},
			{
				"x": -2.527206663,
				"y": 3.0206559995,
				"z": 0.9967196449,
				"element": "C" 
			},
			{
				"x": -2.5036525784,
				"y": 4.1666236081,
				"z": 1.3738979244,
				"element": "O" 
			},
			{
				"x": -1.9068540133,
				"y": 1.8534327246,
				"z": 1.8051686693,
				"element": "C" 
			},
			{
				"x": -1.6198445788,
				"y": 2.0474809323,
				"z": 2.9650555638,
				"element": "O" 
			},
			{
				"x": -1.6590811839,
				"y": 0.5293621685,
				"z": 1.092854758,
				"element": "C" 
			},
			{
				"x": -0.3768342927,
				"y": 0.5627824196,
				"z": 0.2317811998,
				"element": "C" 
			},
			{
				"x": -0.4654137451,
				"y": 0.7258514901,
				"z": -0.9722565739,
				"element": "O" 
			},
			{
				"x": 0.949822819,
				"y": 0.3805518277,
				"z": 0.9001053962,
				"element": "C" 
			},
			{
				"x": 2.0736547647,
				"y": 0.2688899234,
				"z": 0.0642225894,
				"element": "C" 
			},
			{
				"x": 3.3295621654,
				"y": 0.0957638412,
				"z": 0.6292486137,
				"element": "C" 
			},
			{
				"x": 4.7354146027,
				"y": -0.0556034611,
				"z": -0.4132437657,
				"element": "Cl" 
			},
			{
				"x": 3.4984184567,
				"y": 0.0404279806,
				"z": 2.0157774763,
				"element": "C" 
			},
			{
				"x": 2.3806466526,
				"y": 0.1631316717,
				"z": 2.8403213286,
				"element": "C" 
			},
			{
				"x": 1.1077312162,
				"y": 0.3275337343,
				"z": 2.2933302799,
				"element": "C" 
			},
			{
				"x": -4.0540259387,
				"y": 3.0858271256,
				"z": -1.8523924109,
				"element": "H" 
			},
			{
				"x": -4.4680775902,
				"y": 4.1194494877,
				"z": -0.4416075001,
				"element": "H" 
			},
			{
				"x": -2.9063570604,
				"y": 4.3362531404,
				"z": -1.2678446928,
				"element": "H" 
			},
			{
				"x": -1.5905679385,
				"y": -0.2484518455,
				"z": 1.8560876539,
				"element": "H" 
			},
			{
				"x": -2.4778104103,
				"y": 0.3196012863,
				"z": 0.4046870436,
				"element": "H" 
			},
			{
				"x": 1.9386924135,
				"y": 0.3188251787,
				"z": -1.0097496838,
				"element": "H" 
			},
			{
				"x": 4.4893113678,
				"y": -0.0935390376,
				"z": 2.4356702883,
				"element": "H" 
			},
			{
				"x": 2.5056131956,
				"y": 0.1315074116,
				"z": 3.9181638803,
				"element": "H" 
			},
			{
				"x": 0.2552047418,
				"y": 0.4458993417,
				"z": 2.9522286847,
				"element": "H" 
			}
		],
		 "valence_orbital": [ 
			{
				"type": "occ",
				"energy": -0.30959,
				"method": "rhf"
			},
			{
				"type": "occ",
				"energy": -0.2795,
				"method": "rhf"
			},
			{
				"type": "occ",
				"energy": -0.27619,
				"method": "rhf"
			},
			{
				"type": "occ",
				"energy": -0.2651,
				"method": "rhf"
			},
			{
				"type": "occ",
				"energy": -0.26038,
				"method": "rhf"
			},
			{
				"type": "unocc",
				"energy": -0.09292,
				"method": "rhf"
			},
			{
				"type": "unocc",
				"energy": -0.06867,
				"method": "rhf"
			},
			{
				"type": "unocc",
				"energy": -0.02575,
				"method": "rhf"
			},
			{
				"type": "unocc",
				"energy": 0.01823,
				"method": "rhf"
			},
			{
				"type": "unocc",
				"energy": 0.023,
				"method": "rhf"
			}
		],
		"cosmo_sigma_profile": { 
			"-0.025": 0.0,
			"-0.024": 0.0,
			"-0.023": 0.0,
			"-0.022": 0.0,
			"-0.021": 0.0,
			"-0.02": 0.0,
			"-0.019": 0.0,
			"-0.018": 0.0,
			"-0.017": 0.0,
			"-0.016": 0.0,
			"-0.015": 0.0,
			"-0.014": 0.0,
			"-0.013": 0.0,
			"-0.012": 0.0,
			"-0.011": 0.127809647733,
			"-0.01": 0.432637606483,
			"-0.009": 1.45270411515,
			"-0.008": 6.29160461342,
			"-0.007": 15.7268050124,
			"-0.006": 21.2073899757,
			"-0.005": 20.9581614312,
			"-0.004": 20.7498545429,
			"-0.003": 12.1603126799,
			"-0.002": 14.9165583161,
			"-0.001": 13.2704091594,
			"0.0": 18.6731432451,
			"0.001": 24.0371124516,
			"0.002": 19.0170290017,
			"0.003": 14.9928118626,
			"0.004": 14.3329254469,
			"0.005": 6.58452325286,
			"0.006": 6.00507771528,
			"0.007": 6.24796268108,
			"0.008": 5.46507923478,
			"0.009": 7.46036244895,
			"0.01": 9.0487624989,
			"0.011": 6.7851548019,
			"0.012": 1.97565497522,
			"0.013": 0.0178971987941,
			"0.014": 0.0,
			"0.015": 0.0,
			"0.016": 0.0,
			"0.017": 0.0,
			"0.018": 0.0,
			"0.019": 0.0,
			"0.02": 0.0,
			"0.021": 0.0,
			"0.022": 0.0,
			"0.023": 0.0,
			"0.024": 0.0,
			"0.025": 0.0
		}
	}
}
