{
	 "smiles": "O=C(N=NC(=O)N1CCCCC1)N1CCCCC1", 
	 "Tm": 408.15, 
	 "num_atms": 38, 
	 "gaussian": { 
		 "optdone": 1, 
		 "sigma_profile": "yes", 
		 "theory": "DFT", 
		 "functional": "B3LYP", 
		 "basiset": "6-31G**", 
		 "properties": { 
			 "R2extent": 7294.2887, 
			 "electric_dipole_moment_norm": 0.40815669785, 
			 "electric_quadrupole_moment_norm": 24.0882360074, 
			 "total_energy": -838.766539413, 
			 "HOMO_LUMO_gap": 0.15308, 
			 "cosmo_polarized_energy": -14.66, 
			 "cosmo_cavitation_energy": 39.22, 
			 "cosmo_dispersion_energy": -28.03, 
			 "cosmo_repulsion_energy": 2.21, 
			 "cosmo_total_nonelectrostatic_energy": 13.39, 
			 "SMD_solvation_energy": 4.91 
		},
		"coords": [
			{
				"x": -1.2163815672,
				"y": 0.7866673777,
				"z": 2.5134383776,
				"element": "O" 
			},
			{
				"x": -0.7118804073,
				"y": -0.2290637769,
				"z": 2.0626009457,
				"element": "C" 
			},
			{
				"x": -0.625610568,
				"y": -0.4116302073,
				"z": 0.6136994037,
				"element": "N" 
			},
			{
				"x": 0.2294701784,
				"y": 0.3229469538,
				"z": 0.0894978784,
				"element": "N" 
			},
			{
				"x": 0.3324899317,
				"y": 0.1184945155,
				"z": -1.3558062009,
				"element": "C" 
			},
			{
				"x": 0.7543098029,
				"y": -0.9418672772,
				"z": -1.7923246215,
				"element": "O" 
			},
			{
				"x": 0.0371549812,
				"y": 1.2228453556,
				"z": -2.079604305,
				"element": "N" 
			},
			{
				"x": -0.49236161,
				"y": 2.4599816092,
				"z": -1.4824928892,
				"element": "C" 
			},
			{
				"x": -0.0003307337,
				"y": 3.6679888049,
				"z": -2.2833050126,
				"element": "C" 
			},
			{
				"x": -0.4626262938,
				"y": 3.6084082885,
				"z": -3.7609315594,
				"element": "C" 
			},
			{
				"x": -0.7421087382,
				"y": 2.1585792888,
				"z": -4.2158478048,
				"element": "C" 
			},
			{
				"x": 0.1945522041,
				"y": 1.1553143408,
				"z": -3.5420795748,
				"element": "C" 
			},
			{
				"x": -0.3030374233,
				"y": -1.3143449545,
				"z": 2.7655546611,
				"element": "N" 
			},
			{
				"x": -0.4373916987,
				"y": -1.3219697804,
				"z": 4.224442659,
				"element": "C" 
			},
			{
				"x": -1.1780833049,
				"y": -2.5812007163,
				"z": 4.691480817,
				"element": "C" 
			},
			{
				"x": -0.5177287756,
				"y": -3.8509346919,
				"z": 4.1322437157,
				"element": "C" 
			},
			{
				"x": -0.3961589897,
				"y": -3.7745936874,
				"z": 2.6027599159,
				"element": "C" 
			},
			{
				"x": 0.3297610211,
				"y": -2.4952356847,
				"z": 2.1663448499,
				"element": "C" 
			},
			{
				"x": -1.5912766165,
				"y": 2.4349292274,
				"z": -1.464800467,
				"element": "H" 
			},
			{
				"x": -0.1581104677,
				"y": 2.5114531625,
				"z": -0.4439375221,
				"element": "H" 
			},
			{
				"x": 1.0942782232,
				"y": 3.6880006824,
				"z": -2.2303068715,
				"element": "H" 
			},
			{
				"x": -0.3535691586,
				"y": 4.5853694631,
				"z": -1.8016117289,
				"element": "H" 
			},
			{
				"x": 0.3069767268,
				"y": 4.0586689843,
				"z": -4.3977114196,
				"element": "H" 
			},
			{
				"x": -1.3680904396,
				"y": 4.2089767104,
				"z": -3.9006868831,
				"element": "H" 
			},
			{
				"x": -0.6414267108,
				"y": 2.0690470104,
				"z": -5.3023671516,
				"element": "H" 
			},
			{
				"x": -1.7761371797,
				"y": 1.8825378711,
				"z": -3.977114597,
				"element": "H" 
			},
			{
				"x": 1.2401341692,
				"y": 1.3630526904,
				"z": -3.8112383999,
				"element": "H" 
			},
			{
				"x": -0.0157599114,
				"y": 0.1300016381,
				"z": -3.8548421403,
				"element": "H" 
			},
			{
				"x": -0.9607846518,
				"y": -0.4086924963,
				"z": 4.5090603498,
				"element": "H" 
			},
			{
				"x": 0.5678928802,
				"y": -1.2923367172,
				"z": 4.6709333966,
				"element": "H" 
			},
			{
				"x": -2.2204059484,
				"y": -2.5259593361,
				"z": 4.3529311154,
				"element": "H" 
			},
			{
				"x": -1.1949702217,
				"y": -2.6027476005,
				"z": 5.7873423429,
				"element": "H" 
			},
			{
				"x": -1.0879055745,
				"y": -4.7394458059,
				"z": 4.4254851231,
				"element": "H" 
			},
			{
				"x": 0.4843870553,
				"y": -3.9620644453,
				"z": 4.5708008939,
				"element": "H" 
			},
			{
				"x": -1.3955031262,
				"y": -3.7845877196,
				"z": 2.1498517714,
				"element": "H" 
			},
			{
				"x": 0.145233403,
				"y": -4.6435140408,
				"z": 2.2116139573,
				"element": "H" 
			},
			{
				"x": 1.3803244153,
				"y": -2.5326111957,
				"z": 2.4921164484,
				"element": "H" 
			},
			{
				"x": 0.327475125,
				"y": -2.3925638406,
				"z": 1.0806105263,
				"element": "H" 
			}
		],
		 "valence_orbital": [ 
			{
				"type": "occ",
				"energy": -0.29515,
				"method": "rhf"
			},
			{
				"type": "occ",
				"energy": -0.26619,
				"method": "rhf"
			},
			{
				"type": "occ",
				"energy": -0.24364,
				"method": "rhf"
			},
			{
				"type": "occ",
				"energy": -0.24188,
				"method": "rhf"
			},
			{
				"type": "occ",
				"energy": -0.22175,
				"method": "rhf"
			},
			{
				"type": "unocc",
				"energy": -0.06867,
				"method": "rhf"
			},
			{
				"type": "unocc",
				"energy": 0.03612,
				"method": "rhf"
			},
			{
				"type": "unocc",
				"energy": 0.03827,
				"method": "rhf"
			},
			{
				"type": "unocc",
				"energy": 0.0719,
				"method": "rhf"
			},
			{
				"type": "unocc",
				"energy": 0.09037,
				"method": "rhf"
			}
		],
		"cosmo_sigma_profile": { 
			"-0.025": 0.0,
			"-0.024": 0.0,
			"-0.023": 0.0,
			"-0.022": 0.0,
			"-0.021": 0.0,
			"-0.02": 0.0,
			"-0.019": 0.0,
			"-0.018": 0.0,
			"-0.017": 0.0,
			"-0.016": 0.0,
			"-0.015": 0.0,
			"-0.014": 0.0,
			"-0.013": 0.0,
			"-0.012": 0.0,
			"-0.011": 0.0,
			"-0.01": 0.0,
			"-0.009": 0.0,
			"-0.008": 0.0,
			"-0.007": 0.0,
			"-0.006": 0.0274581547674,
			"-0.005": 8.70327174964,
			"-0.004": 35.6329984621,
			"-0.003": 61.0246507918,
			"-0.002": 56.2613516124,
			"-0.001": 39.4037251285,
			"0.0": 29.957357176,
			"0.001": 10.763239221,
			"0.002": 6.22529169377,
			"0.003": 4.08654992378,
			"0.004": 4.87976071858,
			"0.005": 4.4102082919,
			"0.006": 4.31371529884,
			"0.007": 5.32934624736,
			"0.008": 4.57052053402,
			"0.009": 4.72185552451,
			"0.01": 3.93089214868,
			"0.011": 4.37724781073,
			"0.012": 8.3244258223,
			"0.013": 8.50674127686,
			"0.014": 0.319016730578,
			"0.015": 0.0,
			"0.016": 0.0,
			"0.017": 0.0,
			"0.018": 0.0,
			"0.019": 0.0,
			"0.02": 0.0,
			"0.021": 0.0,
			"0.022": 0.0,
			"0.023": 0.0,
			"0.024": 0.0,
			"0.025": 0.0
		}
	}
}
