{
	 "smiles": "CCCCOC1=CC=C(C=NNC(=O)C(=O)NN=CC2=CC=C(OCCCC)C=C2)C=C1", 
	 "Tm": 575.15, 
	 "num_atms": 62, 
	 "gaussian": { 
		 "optdone": 1, 
		 "sigma_profile": "yes", 
		 "theory": "DFT", 
		 "functional": "B3LYP", 
		 "basiset": "6-31G**", 
		 "properties": { 
			 "R2extent": 29035.4992, 
			 "electric_dipole_moment_norm": 8.30869115445, 
			 "electric_quadrupole_moment_norm": 51.8900045562, 
			 "total_energy": -1452.48897718, 
			 "HOMO_LUMO_gap": 0.16109, 
			 "cosmo_polarized_energy": -29.55, 
			 "cosmo_cavitation_energy": 68.45, 
			 "cosmo_dispersion_energy": -46.23, 
			 "cosmo_repulsion_energy": 3.6, 
			 "cosmo_total_nonelectrostatic_energy": 25.83, 
			 "SMD_solvation_energy": 12.59 
		},
		"coords": [
			{
				"x": 5.9998801825,
				"y": 3.8134942208,
				"z": 1.9348503495,
				"element": "C" 
			},
			{
				"x": 6.3192106488,
				"y": 2.5537661795,
				"z": 2.750538551,
				"element": "C" 
			},
			{
				"x": 6.0043214366,
				"y": 1.2301727031,
				"z": 2.0333221053,
				"element": "C" 
			},
			{
				"x": 6.9117057331,
				"y": 0.958331323,
				"z": 0.8316921257,
				"element": "C" 
			},
			{
				"x": 6.698556925,
				"y": -0.3427194519,
				"z": 0.2732464254,
				"element": "O" 
			},
			{
				"x": 5.682886782,
				"y": -0.554646157,
				"z": -0.6081422869,
				"element": "C" 
			},
			{
				"x": 4.7838441115,
				"y": 0.4257115579,
				"z": -1.0618729647,
				"element": "C" 
			},
			{
				"x": 3.7959061776,
				"y": 0.08922785,
				"z": -1.980935961,
				"element": "C" 
			},
			{
				"x": 3.6707379107,
				"y": -1.2217713805,
				"z": -2.4687020176,
				"element": "C" 
			},
			{
				"x": 2.6414245204,
				"y": -1.5989033215,
				"z": -3.4326114644,
				"element": "C" 
			},
			{
				"x": 1.763540059,
				"y": -0.7656743884,
				"z": -3.8652319222,
				"element": "N" 
			},
			{
				"x": 0.8577822772,
				"y": -1.2215371817,
				"z": -4.7700471789,
				"element": "N" 
			},
			{
				"x": -0.1269158907,
				"y": -0.410597427,
				"z": -5.2728232669,
				"element": "C" 
			},
			{
				"x": -0.964297863,
				"y": -0.8086951408,
				"z": -6.0628524524,
				"element": "O" 
			},
			{
				"x": -0.036691981,
				"y": 1.0723529913,
				"z": -4.872669472,
				"element": "C" 
			},
			{
				"x": 0.6001485133,
				"y": 1.8756125975,
				"z": -5.5306785316,
				"element": "O" 
			},
			{
				"x": -0.8071672131,
				"y": 1.4444718813,
				"z": -3.8006185094,
				"element": "N" 
			},
			{
				"x": -1.4827256246,
				"y": 0.5302163862,
				"z": -3.0564617739,
				"element": "N" 
			},
			{
				"x": -2.1691671646,
				"y": 0.9652723952,
				"z": -2.0607186865,
				"element": "C" 
			},
			{
				"x": -2.9404817741,
				"y": 0.0778484328,
				"z": -1.1960178135,
				"element": "C" 
			},
			{
				"x": -3.6441201034,
				"y": 0.611051131,
				"z": -0.1087715275,
				"element": "C" 
			},
			{
				"x": -4.3944439495,
				"y": -0.1990870025,
				"z": 0.744489297,
				"element": "C" 
			},
			{
				"x": -4.4487237549,
				"y": -1.5788968342,
				"z": 0.5115972341,
				"element": "C" 
			},
			{
				"x": -5.1445586568,
				"y": -2.4674026129,
				"z": 1.2700755207,
				"element": "O" 
			},
			{
				"x": -5.8746107733,
				"y": -1.9900400521,
				"z": 2.4015786519,
				"element": "C" 
			},
			{
				"x": -6.5391916528,
				"y": -3.1945398086,
				"z": 3.0567994952,
				"element": "C" 
			},
			{
				"x": -7.4255555335,
				"y": -2.8318328121,
				"z": 4.2591690428,
				"element": "C" 
			},
			{
				"x": -6.6658218032,
				"y": -2.2668615242,
				"z": 5.4664397547,
				"element": "C" 
			},
			{
				"x": -3.7477228405,
				"y": -2.1273436586,
				"z": -0.5795620317,
				"element": "C" 
			},
			{
				"x": -3.0077868844,
				"y": -1.3139311807,
				"z": -1.4177719451,
				"element": "C" 
			},
			{
				"x": 4.5769937144,
				"y": -2.1920307618,
				"z": -2.0040814097,
				"element": "C" 
			},
			{
				"x": 5.5674778738,
				"y": -1.8686218697,
				"z": -1.0884908178,
				"element": "C" 
			},
			{
				"x": 6.6060725781,
				"y": 3.8827006858,
				"z": 1.0254103215,
				"element": "H" 
			},
			{
				"x": 4.9460287801,
				"y": 3.8312915056,
				"z": 1.6335945789,
				"element": "H" 
			},
			{
				"x": 6.1910306389,
				"y": 4.718178621,
				"z": 2.5207464861,
				"element": "H" 
			},
			{
				"x": 5.7478222738,
				"y": 2.5810086385,
				"z": 3.6859874658,
				"element": "H" 
			},
			{
				"x": 7.3777325774,
				"y": 2.5648831776,
				"z": 3.0447898577,
				"element": "H" 
			},
			{
				"x": 6.1250865222,
				"y": 0.3941923352,
				"z": 2.7321511028,
				"element": "H" 
			},
			{
				"x": 4.9544714109,
				"y": 1.2211148008,
				"z": 1.7154390106,
				"element": "H" 
			},
			{
				"x": 6.8127833061,
				"y": 1.7237166818,
				"z": 0.0532887162,
				"element": "H" 
			},
			{
				"x": 7.9588273958,
				"y": 0.9502269666,
				"z": 1.1509131712,
				"element": "H" 
			},
			{
				"x": 4.8453792919,
				"y": 1.4467355398,
				"z": -0.7052252543,
				"element": "H" 
			},
			{
				"x": 3.1047328594,
				"y": 0.8471309294,
				"z": -2.3345214631,
				"element": "H" 
			},
			{
				"x": 2.6501734229,
				"y": -2.6418119274,
				"z": -3.7785674483,
				"element": "H" 
			},
			{
				"x": 0.8593154134,
				"y": -2.1909104257,
				"z": -5.0872064402,
				"element": "H" 
			},
			{
				"x": -0.8252460847,
				"y": 2.4385518417,
				"z": -3.5730844714,
				"element": "H" 
			},
			{
				"x": -2.2012817956,
				"y": 2.0371503316,
				"z": -1.8206515945,
				"element": "H" 
			},
			{
				"x": -3.6079120181,
				"y": 1.681687054,
				"z": 0.0785923808,
				"element": "H" 
			},
			{
				"x": -4.9265544628,
				"y": 0.2492598337,
				"z": 1.5745382,
				"element": "H" 
			},
			{
				"x": -5.1902303447,
				"y": -1.4820886703,
				"z": 3.0941473496,
				"element": "H" 
			},
			{
				"x": -6.6311253599,
				"y": -1.2596594529,
				"z": 2.0781898946,
				"element": "H" 
			},
			{
				"x": -7.1408510472,
				"y": -3.7028833408,
				"z": 2.2945397043,
				"element": "H" 
			},
			{
				"x": -5.7589639644,
				"y": -3.9018862547,
				"z": 3.3643668445,
				"element": "H" 
			},
			{
				"x": -7.9646177277,
				"y": -3.7349613401,
				"z": 4.5688556299,
				"element": "H" 
			},
			{
				"x": -8.1964305832,
				"y": -2.1163932785,
				"z": 3.9416359042,
				"element": "H" 
			},
			{
				"x": -5.8868158674,
				"y": -2.9610852452,
				"z": 5.8018147429,
				"element": "H" 
			},
			{
				"x": -7.3429469105,
				"y": -2.0957929017,
				"z": 6.3093684824,
				"element": "H" 
			},
			{
				"x": -6.1813332618,
				"y": -1.3110812461,
				"z": 5.2402889801,
				"element": "H" 
			},
			{
				"x": -3.8077184196,
				"y": -3.1985080829,
				"z": -0.7423252307,
				"element": "H" 
			},
			{
				"x": -2.4715744253,
				"y": -1.7370501883,
				"z": -2.2604778342,
				"element": "H" 
			},
			{
				"x": 4.5019597323,
				"y": -3.2137721741,
				"z": -2.3686060041,
				"element": "H" 
			},
			{
				"x": 6.2703526672,
				"y": -2.6131414977,
				"z": -0.7299296031,
				"element": "H" 
			}
		],
		 "valence_orbital": [ 
			{
				"type": "occ",
				"energy": -0.2568,
				"method": "rhf"
			},
			{
				"type": "occ",
				"energy": -0.25637,
				"method": "rhf"
			},
			{
				"type": "occ",
				"energy": -0.2368,
				"method": "rhf"
			},
			{
				"type": "occ",
				"energy": -0.20641,
				"method": "rhf"
			},
			{
				"type": "occ",
				"energy": -0.20455,
				"method": "rhf"
			},
			{
				"type": "unocc",
				"energy": -0.04346,
				"method": "rhf"
			},
			{
				"type": "unocc",
				"energy": -0.0426,
				"method": "rhf"
			},
			{
				"type": "unocc",
				"energy": -0.00631,
				"method": "rhf"
			},
			{
				"type": "unocc",
				"energy": -0.00603,
				"method": "rhf"
			},
			{
				"type": "unocc",
				"energy": 0.02494,
				"method": "rhf"
			}
		],
		"cosmo_sigma_profile": { 
			"-0.025": 0.0,
			"-0.024": 0.0,
			"-0.023": 0.0,
			"-0.022": 0.0,
			"-0.021": 0.0,
			"-0.02": 0.0,
			"-0.019": 0.0,
			"-0.018": 0.0,
			"-0.017": 0.0,
			"-0.016": 0.608786685288,
			"-0.015": 3.09357886143,
			"-0.014": 3.06753956473,
			"-0.013": 2.73508006398,
			"-0.012": 2.23048617786,
			"-0.011": 2.63692849895,
			"-0.01": 2.71273127371,
			"-0.009": 2.61162003656,
			"-0.008": 6.71497962217,
			"-0.007": 9.2311392118,
			"-0.006": 17.1488730193,
			"-0.005": 27.896653726,
			"-0.004": 32.2291867242,
			"-0.003": 45.3775754199,
			"-0.002": 53.3472684517,
			"-0.001": 51.0557404254,
			"0.0": 50.8077581749,
			"0.001": 42.6163724088,
			"0.002": 31.8642128209,
			"0.003": 33.4118645599,
			"0.004": 35.1562889295,
			"0.005": 22.2358272185,
			"0.006": 11.4829328178,
			"0.007": 7.32597326803,
			"0.008": 8.20714900435,
			"0.009": 6.96616115274,
			"0.01": 5.0184193319,
			"0.011": 6.81352454144,
			"0.012": 11.8034333107,
			"0.013": 3.71538253529,
			"0.014": 0.0311431293053,
			"0.015": 0.0,
			"0.016": 0.0,
			"0.017": 0.0,
			"0.018": 0.0,
			"0.019": 0.0,
			"0.02": 0.0,
			"0.021": 0.0,
			"0.022": 0.0,
			"0.023": 0.0,
			"0.024": 0.0,
			"0.025": 0.0
		}
	}
}
