{
	 "smiles": "N#CC(=C(C1=CC=CC=C1)C1=CC=CC=C1)C1=CC=CC=C1", 
	 "Tm": 439.15, 
	 "num_atms": 37, 
	 "gaussian": { 
		 "optdone": 1, 
		 "sigma_profile": "yes", 
		 "theory": "DFT", 
		 "functional": "B3LYP", 
		 "basiset": "6-31G**", 
		 "properties": { 
			 "R2extent": 6973.1671, 
			 "electric_dipole_moment_norm": 4.57009798035, 
			 "electric_quadrupole_moment_norm": 17.2444347225, 
			 "total_energy": -864.001255037, 
			 "HOMO_LUMO_gap": 0.14783, 
			 "cosmo_polarized_energy": -12.05, 
			 "cosmo_cavitation_energy": 41.72, 
			 "cosmo_dispersion_energy": -27.52, 
			 "cosmo_repulsion_energy": 2.13, 
			 "cosmo_total_nonelectrostatic_energy": 16.33, 
			 "SMD_solvation_energy": 7.86 
		},
		"coords": [
			{
				"x": 2.9932736766,
				"y": -1.8533773443,
				"z": -0.1928519266,
				"element": "N" 
			},
			{
				"x": 2.1726797372,
				"y": -1.0268508918,
				"z": -0.2185298248,
				"element": "C" 
			},
			{
				"x": 1.2032843026,
				"y": 0.0267367683,
				"z": -0.3504134637,
				"element": "C" 
			},
			{
				"x": 0.5733891007,
				"y": 0.524163354,
				"z": 0.7608277402,
				"element": "C" 
			},
			{
				"x": -0.2369518581,
				"y": 1.7739669594,
				"z": 0.7214162191,
				"element": "C" 
			},
			{
				"x": -1.4993564198,
				"y": 1.818380575,
				"z": 1.3388525913,
				"element": "C" 
			},
			{
				"x": -2.2565902796,
				"y": 2.9888040451,
				"z": 1.327865991,
				"element": "C" 
			},
			{
				"x": -1.7544106683,
				"y": 4.1434972675,
				"z": 0.7242052254,
				"element": "C" 
			},
			{
				"x": -0.490971761,
				"y": 4.1189885293,
				"z": 0.1290804494,
				"element": "C" 
			},
			{
				"x": 0.259752822,
				"y": 2.9450579438,
				"z": 0.1233705314,
				"element": "C" 
			},
			{
				"x": 0.6925692835,
				"y": -0.1335807217,
				"z": 2.0903632904,
				"element": "C" 
			},
			{
				"x": 0.5385890086,
				"y": -1.5227395688,
				"z": 2.2385688862,
				"element": "C" 
			},
			{
				"x": 0.6462103093,
				"y": -2.1203628309,
				"z": 3.4933822033,
				"element": "C" 
			},
			{
				"x": 0.9120726034,
				"y": -1.3430127638,
				"z": 4.6216052742,
				"element": "C" 
			},
			{
				"x": 1.0592040857,
				"y": 0.0400623449,
				"z": 4.489965284,
				"element": "C" 
			},
			{
				"x": 0.9389954148,
				"y": 0.6407852057,
				"z": 3.2393545874,
				"element": "C" 
			},
			{
				"x": 0.9988895938,
				"y": 0.4805189897,
				"z": -1.7592422472,
				"element": "C" 
			},
			{
				"x": -0.2897960377,
				"y": 0.7204119793,
				"z": -2.2649229346,
				"element": "C" 
			},
			{
				"x": -0.4698535831,
				"y": 1.1106143036,
				"z": -3.5900335889,
				"element": "C" 
			},
			{
				"x": 0.6311367103,
				"y": 1.263480095,
				"z": -4.4361042785,
				"element": "C" 
			},
			{
				"x": 1.9146693418,
				"y": 1.0117595456,
				"z": -3.9488251439,
				"element": "C" 
			},
			{
				"x": 2.0972178726,
				"y": 0.6156813243,
				"z": -2.6245905767,
				"element": "C" 
			},
			{
				"x": -1.8870841195,
				"y": 0.9265484546,
				"z": 1.8215919158,
				"element": "H" 
			},
			{
				"x": -3.2360831841,
				"y": 3.0004314278,
				"z": 1.7971924879,
				"element": "H" 
			},
			{
				"x": -2.3399868452,
				"y": 5.0582748438,
				"z": 0.7241791405,
				"element": "H" 
			},
			{
				"x": -0.0870872062,
				"y": 5.0168245377,
				"z": -0.3296900097,
				"element": "H" 
			},
			{
				"x": 1.2409811583,
				"y": 2.9312801227,
				"z": -0.3391857678,
				"element": "H" 
			},
			{
				"x": 0.3203498949,
				"y": -2.1337056389,
				"z": 1.3692257769,
				"element": "H" 
			},
			{
				"x": 0.5183999523,
				"y": -3.194599293,
				"z": 3.5881732878,
				"element": "H" 
			},
			{
				"x": 0.9985295964,
				"y": -1.8103581821,
				"z": 5.5982438543,
				"element": "H" 
			},
			{
				"x": 1.2659062682,
				"y": 0.652031782,
				"z": 5.3631775044,
				"element": "H" 
			},
			{
				"x": 1.0487870115,
				"y": 1.7163148785,
				"z": 3.1428473654,
				"element": "H" 
			},
			{
				"x": -1.1507003617,
				"y": 0.5935924653,
				"z": -1.6175046782,
				"element": "H" 
			},
			{
				"x": -1.4739852799,
				"y": 1.2868327024,
				"z": -3.9649213948,
				"element": "H" 
			},
			{
				"x": 0.4881521281,
				"y": 1.5659058267,
				"z": -5.4694196328,
				"element": "H" 
			},
			{
				"x": 2.7768209968,
				"y": 1.117750759,
				"z": -4.600849285,
				"element": "H" 
			},
			{
				"x": 3.0966967344,
				"y": 0.4047902044,
				"z": -2.2561048532,
				"element": "H" 
			}
		],
		 "valence_orbital": [ 
			{
				"type": "occ",
				"energy": -0.26455,
				"method": "rhf"
			},
			{
				"type": "occ",
				"energy": -0.2587,
				"method": "rhf"
			},
			{
				"type": "occ",
				"energy": -0.25391,
				"method": "rhf"
			},
			{
				"type": "occ",
				"energy": -0.25171,
				"method": "rhf"
			},
			{
				"type": "occ",
				"energy": -0.21795,
				"method": "rhf"
			},
			{
				"type": "unocc",
				"energy": -0.07012,
				"method": "rhf"
			},
			{
				"type": "unocc",
				"energy": -0.01812,
				"method": "rhf"
			},
			{
				"type": "unocc",
				"energy": -0.01802,
				"method": "rhf"
			},
			{
				"type": "unocc",
				"energy": -0.00722,
				"method": "rhf"
			},
			{
				"type": "unocc",
				"energy": -0.0013,
				"method": "rhf"
			}
		],
		"cosmo_sigma_profile": { 
			"-0.025": 0.0,
			"-0.024": 0.0,
			"-0.023": 0.0,
			"-0.022": 0.0,
			"-0.021": 0.0,
			"-0.02": 0.0,
			"-0.019": 0.0,
			"-0.018": 0.0,
			"-0.017": 0.0,
			"-0.016": 0.0,
			"-0.015": 0.0,
			"-0.014": 0.0,
			"-0.013": 0.0,
			"-0.012": 0.0,
			"-0.011": 0.0,
			"-0.01": 0.0,
			"-0.009": 0.0,
			"-0.008": 0.0,
			"-0.007": 1.13563954281,
			"-0.006": 21.1049383669,
			"-0.005": 31.3574003168,
			"-0.004": 34.8052934846,
			"-0.003": 27.3131119019,
			"-0.002": 27.4615802339,
			"-0.001": 23.9406792602,
			"0.0": 24.3391070021,
			"0.001": 21.2284646132,
			"0.002": 23.3637705011,
			"0.003": 25.7289120147,
			"0.004": 28.0601477183,
			"0.005": 23.019461893,
			"0.006": 3.84005567891,
			"0.007": 2.26539261384,
			"0.008": 2.63220487374,
			"0.009": 2.77462275961,
			"0.01": 3.44931675401,
			"0.011": 2.67035693559,
			"0.012": 2.86816495639,
			"0.013": 2.13854121352,
			"0.014": 0.479078975916,
			"0.015": 0.0,
			"0.016": 0.0,
			"0.017": 0.0,
			"0.018": 0.0,
			"0.019": 0.0,
			"0.02": 0.0,
			"0.021": 0.0,
			"0.022": 0.0,
			"0.023": 0.0,
			"0.024": 0.0,
			"0.025": 0.0
		}
	}
}
