{
	 "smiles": "OC(=O)C1=C(C=C(F)C=C1)C(F)(F)F", 
	 "Tm": 396.15, 
	 "num_atms": 18, 
	 "gaussian": { 
		 "optdone": 1, 
		 "sigma_profile": "yes", 
		 "theory": "DFT", 
		 "functional": "B3LYP", 
		 "basiset": "6-31G**", 
		 "properties": { 
			 "R2extent": 3650.5199, 
			 "electric_dipole_moment_norm": 5.07058611799, 
			 "electric_quadrupole_moment_norm": 16.9286217277, 
			 "total_energy": -857.068757343, 
			 "HOMO_LUMO_gap": 0.21126, 
			 "cosmo_polarized_energy": -14.86, 
			 "cosmo_cavitation_energy": 24.83, 
			 "cosmo_dispersion_energy": -17.57, 
			 "cosmo_repulsion_energy": 1.3, 
			 "cosmo_total_nonelectrostatic_energy": 8.56, 
			 "SMD_solvation_energy": 6.86 
		},
		"coords": [
			{
				"x": 2.3613139855,
				"y": -2.4559602781,
				"z": -0.4684274292,
				"element": "O" 
			},
			{
				"x": 2.3447475544,
				"y": -1.6095894943,
				"z": 0.597130579,
				"element": "C" 
			},
			{
				"x": 3.1279099093,
				"y": -1.7455124303,
				"z": 1.5006141971,
				"element": "O" 
			},
			{
				"x": 1.2491093773,
				"y": -0.5745468068,
				"z": 0.570143043,
				"element": "C" 
			},
			{
				"x": 1.4651136167,
				"y": 0.7716797726,
				"z": 0.9278542464,
				"element": "C" 
			},
			{
				"x": 0.3968716348,
				"y": 1.6664232141,
				"z": 0.9520547742,
				"element": "C" 
			},
			{
				"x": -0.8807708305,
				"y": 1.213678824,
				"z": 0.6400405157,
				"element": "C" 
			},
			{
				"x": -1.9007947326,
				"y": 2.0862312604,
				"z": 0.6753230102,
				"element": "F" 
			},
			{
				"x": -1.1277801148,
				"y": -0.1050642868,
				"z": 0.2856729886,
				"element": "C" 
			},
			{
				"x": -0.0509865619,
				"y": -0.9887220744,
				"z": 0.2465422584,
				"element": "C" 
			},
			{
				"x": 2.8464170752,
				"y": 1.3021775867,
				"z": 1.2677236883,
				"element": "C" 
			},
			{
				"x": 3.2318917865,
				"y": 0.9546507319,
				"z": 2.5044851513,
				"element": "F" 
			},
			{
				"x": 2.8679617137,
				"y": 2.6550884591,
				"z": 1.2102411641,
				"element": "F" 
			},
			{
				"x": 3.7726248975,
				"y": 0.8563563238,
				"z": 0.3948758989,
				"element": "F" 
			},
			{
				"x": 1.7746086387,
				"y": -2.1248408319,
				"z": -1.1632965757,
				"element": "H" 
			},
			{
				"x": 0.5490707858,
				"y": 2.7090520193,
				"z": 1.2002231315,
				"element": "H" 
			},
			{
				"x": -2.1374090123,
				"y": -0.4236748839,
				"z": 0.0519584357,
				"element": "H" 
			},
			{
				"x": -0.2302997232,
				"y": -2.0291271054,
				"z": -0.0081590774,
				"element": "H" 
			}
		],
		 "valence_orbital": [ 
			{
				"type": "occ",
				"energy": -0.37311,
				"method": "rhf"
			},
			{
				"type": "occ",
				"energy": -0.32725,
				"method": "rhf"
			},
			{
				"type": "occ",
				"energy": -0.29937,
				"method": "rhf"
			},
			{
				"type": "occ",
				"energy": -0.29132,
				"method": "rhf"
			},
			{
				"type": "occ",
				"energy": -0.27362,
				"method": "rhf"
			},
			{
				"type": "unocc",
				"energy": -0.06236,
				"method": "rhf"
			},
			{
				"type": "unocc",
				"energy": -0.05064,
				"method": "rhf"
			},
			{
				"type": "unocc",
				"energy": 0.02018,
				"method": "rhf"
			},
			{
				"type": "unocc",
				"energy": 0.05765,
				"method": "rhf"
			},
			{
				"type": "unocc",
				"energy": 0.07707,
				"method": "rhf"
			}
		],
		"cosmo_sigma_profile": { 
			"-0.025": 0.0,
			"-0.024": 0.0,
			"-0.023": 0.0,
			"-0.022": 0.0,
			"-0.021": 0.0,
			"-0.02": 0.0,
			"-0.019": 0.561273493135,
			"-0.018": 0.792179682875,
			"-0.017": 0.877316688688,
			"-0.016": 1.21881675052,
			"-0.015": 1.00584808664,
			"-0.014": 0.962334700953,
			"-0.013": 1.04555180528,
			"-0.012": 0.999045582538,
			"-0.011": 1.28001151296,
			"-0.01": 1.06469466733,
			"-0.009": 4.20315156299,
			"-0.008": 6.18852117313,
			"-0.007": 5.99716779496,
			"-0.006": 5.73708197002,
			"-0.005": 6.23890777914,
			"-0.004": 6.94366283128,
			"-0.003": 7.85064214067,
			"-0.002": 12.6835299642,
			"-0.001": 19.934464961,
			"0.0": 16.8722544531,
			"0.001": 13.1083963013,
			"0.002": 23.842111666,
			"0.003": 21.9216155511,
			"0.004": 7.63005814025,
			"0.005": 3.51815826573,
			"0.006": 2.83430978316,
			"0.007": 3.16250294236,
			"0.008": 3.66091703154,
			"0.009": 5.03451486893,
			"0.01": 5.78860365738,
			"0.011": 5.15984529552,
			"0.012": 1.75649111279,
			"0.013": 0.159827532512,
			"0.014": 0.0,
			"0.015": 0.0,
			"0.016": 0.0,
			"0.017": 0.0,
			"0.018": 0.0,
			"0.019": 0.0,
			"0.02": 0.0,
			"0.021": 0.0,
			"0.022": 0.0,
			"0.023": 0.0,
			"0.024": 0.0,
			"0.025": 0.0
		}
	}
}
