{
	 "smiles": "COCC(C)N1C(SCC(O)=O)=NN=C1C1=CC=CC=C1", 
	 "Tm": 413.15, 
	 "num_atms": 38, 
	 "gaussian": { 
		 "optdone": 1, 
		 "sigma_profile": "yes", 
		 "theory": "DFT", 
		 "functional": "B3LYP", 
		 "basiset": "6-31G**", 
		 "properties": { 
			 "R2extent": 8279.8121, 
			 "electric_dipole_moment_norm": 3.76022568472, 
			 "electric_quadrupole_moment_norm": 32.4699799521, 
			 "total_energy": -1331.82176507, 
			 "HOMO_LUMO_gap": 0.20375, 
			 "cosmo_polarized_energy": -21.87, 
			 "cosmo_cavitation_energy": 42.88, 
			 "cosmo_dispersion_energy": -28.81, 
			 "cosmo_repulsion_energy": 2.18, 
			 "cosmo_total_nonelectrostatic_energy": 16.25, 
			 "SMD_solvation_energy": 6.44 
		},
		"coords": [
			{
				"x": 0.227109317,
				"y": 2.166420198,
				"z": 2.7646522884,
				"element": "C" 
			},
			{
				"x": -0.052698684,
				"y": 0.8036006377,
				"z": 2.4925701036,
				"element": "O" 
			},
			{
				"x": 0.8314523551,
				"y": 0.1987229157,
				"z": 1.5682335524,
				"element": "C" 
			},
			{
				"x": 0.4202617412,
				"y": 0.4965581518,
				"z": 0.1103498423,
				"element": "C" 
			},
			{
				"x": -0.9336946374,
				"y": -0.1072454253,
				"z": -0.2609242099,
				"element": "C" 
			},
			{
				"x": 1.4970731505,
				"y": 0.1331382144,
				"z": -0.8411996745,
				"element": "N" 
			},
			{
				"x": 2.3123673903,
				"y": 1.0449116465,
				"z": -1.4859242005,
				"element": "C" 
			},
			{
				"x": 2.4138816664,
				"y": 2.7663583656,
				"z": -1.0931444002,
				"element": "S" 
			},
			{
				"x": 1.8977493337,
				"y": 3.4593857898,
				"z": -2.7004644339,
				"element": "C" 
			},
			{
				"x": 0.4162000225,
				"y": 3.3158794329,
				"z": -3.0061284599,
				"element": "C" 
			},
			{
				"x": 0.1049595849,
				"y": 4.0160080713,
				"z": -4.1192642171,
				"element": "O" 
			},
			{
				"x": -0.3950584313,
				"y": 2.6679507541,
				"z": -2.3850995837,
				"element": "O" 
			},
			{
				"x": 3.0183925244,
				"y": 0.4660395354,
				"z": -2.4305823199,
				"element": "N" 
			},
			{
				"x": 2.6734509311,
				"y": -0.8591570376,
				"z": -2.4402443759,
				"element": "N" 
			},
			{
				"x": 1.7838280772,
				"y": -1.0582605771,
				"z": -1.482523965,
				"element": "C" 
			},
			{
				"x": 1.2373761323,
				"y": -2.4000376423,
				"z": -1.1916206062,
				"element": "C" 
			},
			{
				"x": 0.6476624608,
				"y": -3.1258084122,
				"z": -2.2380779039,
				"element": "C" 
			},
			{
				"x": 0.1689073909,
				"y": -4.4165886981,
				"z": -2.0194260901,
				"element": "C" 
			},
			{
				"x": 0.2791393748,
				"y": -5.0022448755,
				"z": -0.7564682348,
				"element": "C" 
			},
			{
				"x": 0.8858165386,
				"y": -4.2963268193,
				"z": 0.283996114,
				"element": "C" 
			},
			{
				"x": 1.3691224453,
				"y": -3.0059486433,
				"z": 0.0670498624,
				"element": "C" 
			},
			{
				"x": -0.4919909477,
				"y": 2.4913724914,
				"z": 3.5201972615,
				"element": "H" 
			},
			{
				"x": 1.2449107029,
				"y": 2.2943367612,
				"z": 3.1633080625,
				"element": "H" 
			},
			{
				"x": 0.1195340235,
				"y": 2.809192237,
				"z": 1.8798258833,
				"element": "H" 
			},
			{
				"x": 0.7797014398,
				"y": -0.8763501214,
				"z": 1.7613681864,
				"element": "H" 
			},
			{
				"x": 1.8687080163,
				"y": 0.5293989202,
				"z": 1.7366564771,
				"element": "H" 
			},
			{
				"x": 0.3375899895,
				"y": 1.5798246416,
				"z": 0.0023600946,
				"element": "H" 
			},
			{
				"x": -1.2322599396,
				"y": 0.2162746566,
				"z": -1.2607083726,
				"element": "H" 
			},
			{
				"x": -0.928895471,
				"y": -1.1984246238,
				"z": -0.2202388808,
				"element": "H" 
			},
			{
				"x": -1.6711118047,
				"y": 0.2565042683,
				"z": 0.4591471479,
				"element": "H" 
			},
			{
				"x": 2.4742264901,
				"y": 2.9728108038,
				"z": -3.492456008,
				"element": "H" 
			},
			{
				"x": 2.170215413,
				"y": 4.5185409183,
				"z": -2.6985760698,
				"element": "H" 
			},
			{
				"x": -0.8412090451,
				"y": 3.8660373227,
				"z": -4.2857210711,
				"element": "H" 
			},
			{
				"x": 0.5734586689,
				"y": -2.6674426666,
				"z": -3.2185575674,
				"element": "H" 
			},
			{
				"x": -0.2899599224,
				"y": -4.9656521324,
				"z": -2.836469527,
				"element": "H" 
			},
			{
				"x": -0.0961699144,
				"y": -6.0071613561,
				"z": -0.5864619429,
				"element": "H" 
			},
			{
				"x": 0.9966010187,
				"y": -4.7544771092,
				"z": 1.2624334975,
				"element": "H" 
			},
			{
				"x": 1.8807525979,
				"y": -2.4816405943,
				"z": 0.8672337413,
				"element": "H" 
			}
		],
		 "valence_orbital": [ 
			{
				"type": "occ",
				"energy": -0.2597,
				"method": "rhf"
			},
			{
				"type": "occ",
				"energy": -0.25684,
				"method": "rhf"
			},
			{
				"type": "occ",
				"energy": -0.25617,
				"method": "rhf"
			},
			{
				"type": "occ",
				"energy": -0.24857,
				"method": "rhf"
			},
			{
				"type": "occ",
				"energy": -0.2305,
				"method": "rhf"
			},
			{
				"type": "unocc",
				"energy": -0.02675,
				"method": "rhf"
			},
			{
				"type": "unocc",
				"energy": -0.01206,
				"method": "rhf"
			},
			{
				"type": "unocc",
				"energy": -0.00927,
				"method": "rhf"
			},
			{
				"type": "unocc",
				"energy": 0.00156,
				"method": "rhf"
			},
			{
				"type": "unocc",
				"energy": 0.03526,
				"method": "rhf"
			}
		],
		"cosmo_sigma_profile": { 
			"-0.025": 0.0,
			"-0.024": 0.0,
			"-0.023": 0.0,
			"-0.022": 0.0,
			"-0.021": 0.0,
			"-0.02": 0.0,
			"-0.019": 0.390560758418,
			"-0.018": 0.763636575233,
			"-0.017": 0.946743923483,
			"-0.016": 1.14536910848,
			"-0.015": 0.856036655671,
			"-0.014": 0.518560210858,
			"-0.013": 0.638522968484,
			"-0.012": 0.689452458085,
			"-0.011": 0.851483351243,
			"-0.01": 1.49740492438,
			"-0.009": 3.26595103361,
			"-0.008": 4.6907474889,
			"-0.007": 8.97858420667,
			"-0.006": 16.8774361656,
			"-0.005": 24.5673371916,
			"-0.004": 28.5668654211,
			"-0.003": 28.1015901596,
			"-0.002": 29.7006428705,
			"-0.001": 25.2829025419,
			"0.0": 24.9222970264,
			"0.001": 19.16808094,
			"0.002": 16.7418900128,
			"0.003": 19.3822844581,
			"0.004": 19.2959012504,
			"0.005": 12.1316347414,
			"0.006": 7.59303326711,
			"0.007": 8.68239639714,
			"0.008": 6.75684094438,
			"0.009": 5.10478010827,
			"0.01": 4.93673327619,
			"0.011": 3.89237645073,
			"0.012": 4.29893284607,
			"0.013": 4.14329048597,
			"0.014": 2.42266000875,
			"0.015": 2.62550531858,
			"0.016": 1.36249652525,
			"0.017": 0.339604840457,
			"0.018": 0.0,
			"0.019": 0.0,
			"0.02": 0.0,
			"0.021": 0.0,
			"0.022": 0.0,
			"0.023": 0.0,
			"0.024": 0.0,
			"0.025": 0.0
		}
	}
}
