{
	 "smiles": "NC(=O)NN=CC1=CC2=CC=CC(Br)=C2C=C1", 
	 "Tm": 543.15, 
	 "num_atms": 27, 
	 "gaussian": { 
		 "optdone": 1, 
		 "sigma_profile": "yes", 
		 "theory": "DFT", 
		 "functional": "B3LYP", 
		 "basiset": "6-31G**", 
		 "properties": { 
			 "R2extent": 8624.2848, 
			 "electric_dipole_moment_norm": 4.60593052271, 
			 "electric_quadrupole_moment_norm": 12.1423468386, 
			 "total_energy": -3274.18797864, 
			 "HOMO_LUMO_gap": 0.15373, 
			 "cosmo_polarized_energy": -15.17, 
			 "cosmo_cavitation_energy": 34.15, 
			 "cosmo_dispersion_energy": -25.58, 
			 "cosmo_repulsion_energy": 1.98, 
			 "cosmo_total_nonelectrostatic_energy": 10.54, 
			 "SMD_solvation_energy": 5.19 
		},
		"coords": [
			{
				"x": -1.2325445874,
				"y": -2.9490666687,
				"z": 3.6047438963,
				"element": "N" 
			},
			{
				"x": -1.0643641725,
				"y": -1.6170458164,
				"z": 3.3706753918,
				"element": "C" 
			},
			{
				"x": -1.2554798667,
				"y": -0.7208682991,
				"z": 4.1787761387,
				"element": "O" 
			},
			{
				"x": -0.5755756642,
				"y": -1.3108461207,
				"z": 2.0889721649,
				"element": "N" 
			},
			{
				"x": -0.5809118849,
				"y": -2.2502831877,
				"z": 1.1121301925,
				"element": "N" 
			},
			{
				"x": -0.2670023115,
				"y": -1.9537252304,
				"z": -0.102625907,
				"element": "C" 
			},
			{
				"x": 0.1740765703,
				"y": -0.6781090382,
				"z": -0.6978898269,
				"element": "C" 
			},
			{
				"x": -0.1526759971,
				"y": -0.4246388389,
				"z": -2.021016046,
				"element": "C" 
			},
			{
				"x": 0.2378927935,
				"y": 0.7664014468,
				"z": -2.6806603327,
				"element": "C" 
			},
			{
				"x": -0.1252835348,
				"y": 1.0171477784,
				"z": -4.031440845,
				"element": "C" 
			},
			{
				"x": 0.2598292489,
				"y": 2.1800686612,
				"z": -4.6545904295,
				"element": "C" 
			},
			{
				"x": 1.0260119573,
				"y": 3.1456916843,
				"z": -3.9600222033,
				"element": "C" 
			},
			{
				"x": 1.3900379009,
				"y": 2.9223469448,
				"z": -2.6520188977,
				"element": "C" 
			},
			{
				"x": 2.4278753119,
				"y": 4.267567797,
				"z": -1.7685457359,
				"element": "Br" 
			},
			{
				"x": 1.0171420247,
				"y": 1.7350165594,
				"z": -1.9594809792,
				"element": "C" 
			},
			{
				"x": 1.3755342907,
				"y": 1.4440650277,
				"z": -0.6169100673,
				"element": "C" 
			},
			{
				"x": 0.970744763,
				"y": 0.2818622128,
				"z": -0.0041662473,
				"element": "C" 
			},
			{
				"x": -1.7176074695,
				"y": -3.1942935731,
				"z": 4.4516683512,
				"element": "H" 
			},
			{
				"x": -1.2215246691,
				"y": -3.5856390753,
				"z": 2.8220463411,
				"element": "H" 
			},
			{
				"x": -0.5674872956,
				"y": -0.3172820727,
				"z": 1.8793331426,
				"element": "H" 
			},
			{
				"x": -0.3705716761,
				"y": -2.7890436296,
				"z": -0.7938362258,
				"element": "H" 
			},
			{
				"x": -0.7372648641,
				"y": -1.1534153332,
				"z": -2.5776892464,
				"element": "H" 
			},
			{
				"x": -0.7146150201,
				"y": 0.2741700907,
				"z": -4.561253685,
				"element": "H" 
			},
			{
				"x": -0.0195920876,
				"y": 2.3710233396,
				"z": -5.6861400805,
				"element": "H" 
			},
			{
				"x": 1.3269378102,
				"y": 4.0608744,
				"z": -4.4565430884,
				"element": "H" 
			},
			{
				"x": 1.9896167068,
				"y": 2.1538922561,
				"z": -0.0749548713,
				"element": "H" 
			},
			{
				"x": 1.3049017231,
				"y": 0.0769286852,
				"z": 1.0071390962,
				"element": "H" 
			}
		],
		 "valence_orbital": [ 
			{
				"type": "occ",
				"energy": -0.27333,
				"method": "rhf"
			},
			{
				"type": "occ",
				"energy": -0.2662,
				"method": "rhf"
			},
			{
				"type": "occ",
				"energy": -0.25944,
				"method": "rhf"
			},
			{
				"type": "occ",
				"energy": -0.23919,
				"method": "rhf"
			},
			{
				"type": "occ",
				"energy": -0.22232,
				"method": "rhf"
			},
			{
				"type": "unocc",
				"energy": -0.06859,
				"method": "rhf"
			},
			{
				"type": "unocc",
				"energy": -0.04586,
				"method": "rhf"
			},
			{
				"type": "unocc",
				"energy": 0.00113,
				"method": "rhf"
			},
			{
				"type": "unocc",
				"energy": 0.00259,
				"method": "rhf"
			},
			{
				"type": "unocc",
				"energy": 0.0186,
				"method": "rhf"
			}
		],
		"cosmo_sigma_profile": { 
			"-0.025": 0.0,
			"-0.024": 0.0,
			"-0.023": 0.0,
			"-0.022": 0.0,
			"-0.021": 0.0,
			"-0.02": 0.0,
			"-0.019": 0.0,
			"-0.018": 0.0,
			"-0.017": 0.0,
			"-0.016": 0.0,
			"-0.015": 0.0,
			"-0.014": 1.13548596619,
			"-0.013": 0.891497065797,
			"-0.012": 1.99366285645,
			"-0.011": 2.92909998854,
			"-0.01": 2.7475327021,
			"-0.009": 3.20533476652,
			"-0.008": 4.25308290015,
			"-0.007": 14.350628655,
			"-0.006": 15.0753374276,
			"-0.005": 14.972402743,
			"-0.004": 12.7261890034,
			"-0.003": 12.53652126,
			"-0.002": 12.8607464835,
			"-0.001": 16.1156382125,
			"0.0": 19.5758309271,
			"0.001": 25.5414241035,
			"0.002": 37.6056326671,
			"0.003": 29.0805746945,
			"0.004": 16.2966578949,
			"0.005": 7.56854038924,
			"0.006": 3.71525591265,
			"0.007": 3.04581951363,
			"0.008": 1.94943044454,
			"0.009": 1.07896104735,
			"0.01": 1.79600181178,
			"0.011": 1.16128436088,
			"0.012": 2.01038625379,
			"0.013": 3.20625327523,
			"0.014": 6.4347282552,
			"0.015": 1.29977112469,
			"0.016": 0.0,
			"0.017": 0.0,
			"0.018": 0.0,
			"0.019": 0.0,
			"0.02": 0.0,
			"0.021": 0.0,
			"0.022": 0.0,
			"0.023": 0.0,
			"0.024": 0.0,
			"0.025": 0.0
		}
	}
}
