{
	 "smiles": "CCOC(=O)C1=C(N)SC=C1C1=CC=C(F)C=C1", 
	 "Tm": 367.15, 
	 "num_atms": 30, 
	 "gaussian": { 
		 "optdone": 1, 
		 "sigma_profile": "yes", 
		 "theory": "DFT", 
		 "functional": "B3LYP", 
		 "basiset": "6-31G**", 
		 "properties": { 
			 "R2extent": 5738.2368, 
			 "electric_dipole_moment_norm": 1.6495732145, 
			 "electric_quadrupole_moment_norm": 7.6584818698, 
			 "total_energy": -1205.85008224, 
			 "HOMO_LUMO_gap": 0.17945, 
			 "cosmo_polarized_energy": -10.28, 
			 "cosmo_cavitation_energy": 36.19, 
			 "cosmo_dispersion_energy": -25.61, 
			 "cosmo_repulsion_energy": 1.95, 
			 "cosmo_total_nonelectrostatic_energy": 12.53, 
			 "SMD_solvation_energy": 7.21 
		},
		"coords": [
			{
				"x": 0.9333364452,
				"y": -0.5657723494,
				"z": 3.1524841533,
				"element": "C" 
			},
			{
				"x": -0.3102193495,
				"y": -0.9422020847,
				"z": 2.3606052844,
				"element": "C" 
			},
			{
				"x": -0.3112609786,
				"y": -0.3228097182,
				"z": 1.0543047175,
				"element": "O" 
			},
			{
				"x": -0.7944149807,
				"y": 0.9344706176,
				"z": 0.9725310528,
				"element": "C" 
			},
			{
				"x": -1.2166516473,
				"y": 1.5379095514,
				"z": 1.9617182149,
				"element": "O" 
			},
			{
				"x": -0.7539667731,
				"y": 1.5013900967,
				"z": -0.3731450564,
				"element": "C" 
			},
			{
				"x": -1.0730502679,
				"y": 2.854835625,
				"z": -0.5380187748,
				"element": "C" 
			},
			{
				"x": -1.4335926255,
				"y": 3.7336868372,
				"z": 0.4279315311,
				"element": "N" 
			},
			{
				"x": -0.8566878417,
				"y": 3.3726684251,
				"z": -2.1932624718,
				"element": "S" 
			},
			{
				"x": -0.3515065304,
				"y": 1.7637442499,
				"z": -2.6667617854,
				"element": "C" 
			},
			{
				"x": -0.3449131866,
				"y": 0.8810784403,
				"z": -1.6275544463,
				"element": "C" 
			},
			{
				"x": 0.0032369331,
				"y": -0.5438730148,
				"z": -1.8678059461,
				"element": "C" 
			},
			{
				"x": 1.2061607801,
				"y": -0.8712558536,
				"z": -2.511281678,
				"element": "C" 
			},
			{
				"x": 1.5254526031,
				"y": -2.1943550577,
				"z": -2.8208125158,
				"element": "C" 
			},
			{
				"x": 0.6233367415,
				"y": -3.1929826563,
				"z": -2.4801443682,
				"element": "C" 
			},
			{
				"x": 0.9212889257,
				"y": -4.4776974241,
				"z": -2.7726558862,
				"element": "F" 
			},
			{
				"x": -0.5812449668,
				"y": -2.9082144481,
				"z": -1.8440361426,
				"element": "C" 
			},
			{
				"x": -0.883680372,
				"y": -1.5834931847,
				"z": -1.5415031017,
				"element": "C" 
			},
			{
				"x": 0.9495309981,
				"y": -1.112822751,
				"z": 4.1012573592,
				"element": "H" 
			},
			{
				"x": 1.839901615,
				"y": -0.8178610278,
				"z": 2.5946295004,
				"element": "H" 
			},
			{
				"x": 0.9378482449,
				"y": 0.5044008769,
				"z": 3.3723869095,
				"element": "H" 
			},
			{
				"x": -0.3382554302,
				"y": -2.0136181014,
				"z": 2.1474988525,
				"element": "H" 
			},
			{
				"x": -1.2189804828,
				"y": -0.6523480665,
				"z": 2.893190811,
				"element": "H" 
			},
			{
				"x": -1.6240497383,
				"y": 3.3125997453,
				"z": 1.333017885,
				"element": "H" 
			},
			{
				"x": -1.8380643307,
				"y": 4.6224088804,
				"z": 0.1835692363,
				"element": "H" 
			},
			{
				"x": -0.1517195788,
				"y": 1.5565329915,
				"z": -3.7077742545,
				"element": "H" 
			},
			{
				"x": 1.9055785327,
				"y": -0.0791143157,
				"z": -2.7598626697,
				"element": "H" 
			},
			{
				"x": 2.4568415582,
				"y": -2.4552180883,
				"z": -3.3117203926,
				"element": "H" 
			},
			{
				"x": -1.2628876614,
				"y": -3.7166938456,
				"z": -1.6021573385,
				"element": "H" 
			},
			{
				"x": -1.8226666352,
				"y": -1.3496943491,
				"z": -1.0515286794,
				"element": "H" 
			}
		],
		 "valence_orbital": [ 
			{
				"type": "occ",
				"energy": -0.27289,
				"method": "rhf"
			},
			{
				"type": "occ",
				"energy": -0.26171,
				"method": "rhf"
			},
			{
				"type": "occ",
				"energy": -0.25496,
				"method": "rhf"
			},
			{
				"type": "occ",
				"energy": -0.23162,
				"method": "rhf"
			},
			{
				"type": "occ",
				"energy": -0.19845,
				"method": "rhf"
			},
			{
				"type": "unocc",
				"energy": -0.019,
				"method": "rhf"
			},
			{
				"type": "unocc",
				"energy": -0.01282,
				"method": "rhf"
			},
			{
				"type": "unocc",
				"energy": -0.00547,
				"method": "rhf"
			},
			{
				"type": "unocc",
				"energy": 0.00868,
				"method": "rhf"
			},
			{
				"type": "unocc",
				"energy": 0.03293,
				"method": "rhf"
			}
		],
		"cosmo_sigma_profile": { 
			"-0.025": 0.0,
			"-0.024": 0.0,
			"-0.023": 0.0,
			"-0.022": 0.0,
			"-0.021": 0.0,
			"-0.02": 0.0,
			"-0.019": 0.0,
			"-0.018": 0.0,
			"-0.017": 0.0,
			"-0.016": 0.0,
			"-0.015": 0.676087961245,
			"-0.014": 1.37543074735,
			"-0.013": 1.2402084045,
			"-0.012": 1.48392478939,
			"-0.011": 1.24303413814,
			"-0.01": 1.98993785439,
			"-0.009": 2.12484321181,
			"-0.008": 2.84520927494,
			"-0.007": 5.89325179604,
			"-0.006": 8.65735080405,
			"-0.005": 12.0451012173,
			"-0.004": 17.8143459018,
			"-0.003": 23.0199133749,
			"-0.002": 21.7618279393,
			"-0.001": 19.8778456407,
			"0.0": 23.8365368462,
			"0.001": 27.3950155068,
			"0.002": 25.7945585692,
			"0.003": 27.849383925,
			"0.004": 31.3712296791,
			"0.005": 14.8424980846,
			"0.006": 3.59982858085,
			"0.007": 3.23909983485,
			"0.008": 3.92184302933,
			"0.009": 2.26642243661,
			"0.01": 1.3950456222,
			"0.011": 1.63218022266,
			"0.012": 1.75438162937,
			"0.013": 0.0766533813144,
			"0.014": 0.0,
			"0.015": 0.0,
			"0.016": 0.0,
			"0.017": 0.0,
			"0.018": 0.0,
			"0.019": 0.0,
			"0.02": 0.0,
			"0.021": 0.0,
			"0.022": 0.0,
			"0.023": 0.0,
			"0.024": 0.0,
			"0.025": 0.0
		}
	}
}
