{
	 "smiles": "OC(=O)C1=C(NS(=O)(=O)C2=CC=C(F)C=C2)C=CC=C1", 
	 "Tm": 439.15, 
	 "num_atms": 30, 
	 "gaussian": { 
		 "optdone": 1, 
		 "sigma_profile": "yes", 
		 "theory": "DFT", 
		 "functional": "B3LYP", 
		 "basiset": "6-31G**", 
		 "properties": { 
			 "R2extent": 6871.4805, 
			 "electric_dipole_moment_norm": 5.38034987803, 
			 "electric_quadrupole_moment_norm": 17.0416982352, 
			 "total_energy": -1355.03238674, 
			 "HOMO_LUMO_gap": 0.17279, 
			 "cosmo_polarized_energy": -16.39, 
			 "cosmo_cavitation_energy": 36.81, 
			 "cosmo_dispersion_energy": -25.92, 
			 "cosmo_repulsion_energy": 1.92, 
			 "cosmo_total_nonelectrostatic_energy": 12.81, 
			 "SMD_solvation_energy": 6.98 
		},
		"coords": [
			{
				"x": 3.0714688219,
				"y": -0.0475316655,
				"z": 0.9638857674,
				"element": "O" 
			},
			{
				"x": 1.7523357241,
				"y": 0.1970978542,
				"z": 1.1232225038,
				"element": "C" 
			},
			{
				"x": 1.3737617816,
				"y": 1.0695582345,
				"z": 1.8995001062,
				"element": "O" 
			},
			{
				"x": 0.882920557,
				"y": -0.6619998536,
				"z": 0.2946285507,
				"element": "C" 
			},
			{
				"x": -0.532183329,
				"y": -0.5068545229,
				"z": 0.3092768706,
				"element": "C" 
			},
			{
				"x": -1.1195493054,
				"y": 0.4436193872,
				"z": 1.1571457137,
				"element": "N" 
			},
			{
				"x": -2.4956047765,
				"y": 1.371707443,
				"z": 0.8261822453,
				"element": "S" 
			},
			{
				"x": -3.5675486014,
				"y": 0.4766453254,
				"z": 0.3888258207,
				"element": "O" 
			},
			{
				"x": -2.623847496,
				"y": 2.2255412959,
				"z": 2.0045103335,
				"element": "O" 
			},
			{
				"x": -2.0576122249,
				"y": 2.4095863481,
				"z": -0.5691465452,
				"element": "C" 
			},
			{
				"x": -2.4291916053,
				"y": 2.0277627842,
				"z": -1.8607886504,
				"element": "C" 
			},
			{
				"x": -2.0668741219,
				"y": 2.829043416,
				"z": -2.9422080571,
				"element": "C" 
			},
			{
				"x": -1.3433792613,
				"y": 3.9923733247,
				"z": -2.6991812057,
				"element": "C" 
			},
			{
				"x": -0.9936595883,
				"y": 4.7675360562,
				"z": -3.7406434432,
				"element": "F" 
			},
			{
				"x": -0.9745445843,
				"y": 4.3889490657,
				"z": -1.415729997,
				"element": "C" 
			},
			{
				"x": -1.3370651237,
				"y": 3.5860794031,
				"z": -0.33802284,
				"element": "C" 
			},
			{
				"x": -1.3142565652,
				"y": -1.3532325239,
				"z": -0.496602581,
				"element": "C" 
			},
			{
				"x": -0.712080479,
				"y": -2.3082457422,
				"z": -1.3068560661,
				"element": "C" 
			},
			{
				"x": 0.6777593402,
				"y": -2.4661237749,
				"z": -1.3276819862,
				"element": "C" 
			},
			{
				"x": 1.4599914181,
				"y": -1.6505747766,
				"z": -0.524038078,
				"element": "C" 
			},
			{
				"x": 3.5280087985,
				"y": 0.5677831796,
				"z": 1.561049035,
				"element": "H" 
			},
			{
				"x": -0.4412496773,
				"y": 0.9622392214,
				"z": 1.723949319,
				"element": "H" 
			},
			{
				"x": -3.0118619344,
				"y": 1.1263587104,
				"z": -2.0098197026,
				"element": "H" 
			},
			{
				"x": -2.3413891811,
				"y": 2.5706231929,
				"z": -3.9588235454,
				"element": "H" 
			},
			{
				"x": -0.4224488789,
				"y": 5.3118484062,
				"z": -1.2775541811,
				"element": "H" 
			},
			{
				"x": -1.0815220098,
				"y": 3.8747220936,
				"z": 0.6757452799,
				"element": "H" 
			},
			{
				"x": -2.3921199691,
				"y": -1.263984072,
				"z": -0.4575874556,
				"element": "H" 
			},
			{
				"x": -1.3400602364,
				"y": -2.9503812262,
				"z": -1.918013643,
				"element": "H" 
			},
			{
				"x": 1.1392237459,
				"y": -3.2218625649,
				"z": -1.9546290417,
				"element": "H" 
			},
			{
				"x": 2.5377787618,
				"y": -1.7602840194,
				"z": -0.5169945265,
				"element": "H" 
			}
		],
		 "valence_orbital": [ 
			{
				"type": "occ",
				"energy": -0.29256,
				"method": "rhf"
			},
			{
				"type": "occ",
				"energy": -0.28376,
				"method": "rhf"
			},
			{
				"type": "occ",
				"energy": -0.27459,
				"method": "rhf"
			},
			{
				"type": "occ",
				"energy": -0.2704,
				"method": "rhf"
			},
			{
				"type": "occ",
				"energy": -0.23683,
				"method": "rhf"
			},
			{
				"type": "unocc",
				"energy": -0.06404,
				"method": "rhf"
			},
			{
				"type": "unocc",
				"energy": -0.04158,
				"method": "rhf"
			},
			{
				"type": "unocc",
				"energy": -0.03269,
				"method": "rhf"
			},
			{
				"type": "unocc",
				"energy": -0.01478,
				"method": "rhf"
			},
			{
				"type": "unocc",
				"energy": 0.04134,
				"method": "rhf"
			}
		],
		"cosmo_sigma_profile": { 
			"-0.025": 0.0,
			"-0.024": 0.0,
			"-0.023": 0.0,
			"-0.022": 0.0,
			"-0.021": 0.0,
			"-0.02": 0.0,
			"-0.019": 0.346970410266,
			"-0.018": 0.735443393782,
			"-0.017": 1.02558190579,
			"-0.016": 0.772803098533,
			"-0.015": 0.949231905111,
			"-0.014": 0.499333294708,
			"-0.013": 0.378836577173,
			"-0.012": 0.751927897371,
			"-0.011": 0.961106668357,
			"-0.01": 0.678816315785,
			"-0.009": 1.47614275276,
			"-0.008": 6.69426184364,
			"-0.007": 11.1446497047,
			"-0.006": 16.3776624499,
			"-0.005": 14.4219871617,
			"-0.004": 15.6237847879,
			"-0.003": 17.4779878582,
			"-0.002": 18.1050141366,
			"-0.001": 24.0626048337,
			"0.0": 26.3902665542,
			"0.001": 28.5353259178,
			"0.002": 24.0098367153,
			"0.003": 23.9522167496,
			"0.004": 14.967333555,
			"0.005": 5.34130740151,
			"0.006": 7.86106935211,
			"0.007": 5.85523638056,
			"0.008": 4.00562847992,
			"0.009": 5.44753023922,
			"0.01": 9.83095527226,
			"0.011": 7.73340130876,
			"0.012": 0.278932410732,
			"0.013": 0.0,
			"0.014": 0.0,
			"0.015": 0.0,
			"0.016": 0.0,
			"0.017": 0.0,
			"0.018": 0.0,
			"0.019": 0.0,
			"0.02": 0.0,
			"0.021": 0.0,
			"0.022": 0.0,
			"0.023": 0.0,
			"0.024": 0.0,
			"0.0": 0.0
		}
	}
}
