{
	 "smiles": "COC1=CC2=C(CC(NC2)C2=CC=CC=C2)C=C1", 
	 "Tm": 364.15, 
	 "num_atms": 35, 
	 "gaussian": { 
		 "optdone": 1, 
		 "sigma_profile": "yes", 
		 "theory": "DFT", 
		 "functional": "B3LYP", 
		 "basiset": "6-31G**", 
		 "properties": { 
			 "R2extent": 6952.5466, 
			 "electric_dipole_moment_norm": 1.01106313848, 
			 "electric_quadrupole_moment_norm": 10.1703440974, 
			 "total_energy": -749.916070865, 
			 "HOMO_LUMO_gap": 0.20753, 
			 "cosmo_polarized_energy": -9.47, 
			 "cosmo_cavitation_energy": 36.97, 
			 "cosmo_dispersion_energy": -27.0, 
			 "cosmo_repulsion_energy": 2.07, 
			 "cosmo_total_nonelectrostatic_energy": 12.04, 
			 "SMD_solvation_energy": 4.85 
		},
		"coords": [
			{
				"x": -1.1103623898,
				"y": 5.5079259787,
				"z": 2.1016428443,
				"element": "C" 
			},
			{
				"x": -0.0826145265,
				"y": 4.5802233024,
				"z": 1.7993771967,
				"element": "O" 
			},
			{
				"x": -0.4210896826,
				"y": 3.443102592,
				"z": 1.1184060347,
				"element": "C" 
			},
			{
				"x": 0.6285610215,
				"y": 2.5566950379,
				"z": 0.8550153833,
				"element": "C" 
			},
			{
				"x": 0.405458898,
				"y": 1.3621670763,
				"z": 0.1714541047,
				"element": "C" 
			},
			{
				"x": -0.8898697699,
				"y": 1.0341944376,
				"z": -0.2672487876,
				"element": "C" 
			},
			{
				"x": -1.1534082434,
				"y": -0.2718872419,
				"z": -0.9888889981,
				"element": "C" 
			},
			{
				"x": 0.1340535472,
				"y": -0.8803203917,
				"z": -1.5784677264,
				"element": "C" 
			},
			{
				"x": 1.1356338499,
				"y": -0.8948735022,
				"z": -0.5052312867,
				"element": "N" 
			},
			{
				"x": 1.5761749996,
				"y": 0.4509284093,
				"z": -0.1420522335,
				"element": "C" 
			},
			{
				"x": -0.1009040419,
				"y": -2.2786915644,
				"z": -2.1184370925,
				"element": "C" 
			},
			{
				"x": -0.1453984638,
				"y": -3.3838887985,
				"z": -1.2561656683,
				"element": "C" 
			},
			{
				"x": -0.3919701506,
				"y": -4.6634600687,
				"z": -1.754971233,
				"element": "C" 
			},
			{
				"x": -0.6026735917,
				"y": -4.857874714,
				"z": -3.1219376646,
				"element": "C" 
			},
			{
				"x": -0.5607010101,
				"y": -3.7639782927,
				"z": -3.9879601358,
				"element": "C" 
			},
			{
				"x": -0.3081297173,
				"y": -2.4854198546,
				"z": -3.4877128842,
				"element": "C" 
			},
			{
				"x": -1.9273071946,
				"y": 1.9314988613,
				"z": -0.0009817457,
				"element": "C" 
			},
			{
				"x": -1.7145713015,
				"y": 3.1283140944,
				"z": 0.6847946957,
				"element": "C" 
			},
			{
				"x": -1.8874790605,
				"y": 5.0621513887,
				"z": 2.7364999343,
				"element": "H" 
			},
			{
				"x": -1.5794082205,
				"y": 5.9070123357,
				"z": 1.1925039208,
				"element": "H" 
			},
			{
				"x": -0.6309942497,
				"y": 6.3247548349,
				"z": 2.6439546034,
				"element": "H" 
			},
			{
				"x": 1.623966808,
				"y": 2.8236437,
				"z": 1.1996215077,
				"element": "H" 
			},
			{
				"x": -1.5825731741,
				"y": -1.0039252004,
				"z": -0.2922771412,
				"element": "H" 
			},
			{
				"x": -1.8906435064,
				"y": -0.1262859682,
				"z": -1.7873779212,
				"element": "H" 
			},
			{
				"x": 0.4534727216,
				"y": -0.2382941099,
				"z": -2.4228168246,
				"element": "H" 
			},
			{
				"x": 1.9384673417,
				"y": -1.444444874,
				"z": -0.8000741152,
				"element": "H" 
			},
			{
				"x": 2.1736165595,
				"y": 0.9286175445,
				"z": -0.9444780152,
				"element": "H" 
			},
			{
				"x": 2.2326290021,
				"y": 0.3784515273,
				"z": 0.7331859987,
				"element": "H" 
			},
			{
				"x": 0.0244525898,
				"y": -3.2290293868,
				"z": -0.1950489746,
				"element": "H" 
			},
			{
				"x": -0.4199715489,
				"y": -5.5106061751,
				"z": -1.0749496314,
				"element": "H" 
			},
			{
				"x": -0.7944085224,
				"y": -5.8545312558,
				"z": -3.5093979203,
				"element": "H" 
			},
			{
				"x": -0.7177126327,
				"y": -3.9057033456,
				"z": -5.0537122431,
				"element": "H" 
			},
			{
				"x": -0.2680773044,
				"y": -1.6373638686,
				"z": -4.1675561835,
				"element": "H" 
			},
			{
				"x": -2.9336406163,
				"y": 1.6914413919,
				"z": -0.3372726249,
				"element": "H" 
			},
			{
				"x": -2.5481784192,
				"y": 3.7953561001,
				"z": 0.8696608273,
				"element": "H" 
			}
		],
		 "valence_orbital": [ 
			{
				"type": "occ",
				"energy": -0.24566,
				"method": "rhf"
			},
			{
				"type": "occ",
				"energy": -0.24302,
				"method": "rhf"
			},
			{
				"type": "occ",
				"energy": -0.23809,
				"method": "rhf"
			},
			{
				"type": "occ",
				"energy": -0.21934,
				"method": "rhf"
			},
			{
				"type": "occ",
				"energy": -0.20677,
				"method": "rhf"
			},
			{
				"type": "unocc",
				"energy": 0.00076,
				"method": "rhf"
			},
			{
				"type": "unocc",
				"energy": 0.00151,
				"method": "rhf"
			},
			{
				"type": "unocc",
				"energy": 0.00342,
				"method": "rhf"
			},
			{
				"type": "unocc",
				"energy": 0.02166,
				"method": "rhf"
			},
			{
				"type": "unocc",
				"energy": 0.09672,
				"method": "rhf"
			}
		],
		"cosmo_sigma_profile": { 
			"-0.025": 0.0,
			"-0.024": 0.0,
			"-0.023": 0.0,
			"-0.022": 0.0,
			"-0.021": 0.0,
			"-0.02": 0.0,
			"-0.019": 0.0,
			"-0.018": 0.0,
			"-0.017": 0.0,
			"-0.016": 0.0,
			"-0.015": 0.0,
			"-0.014": 0.0,
			"-0.013": 0.0,
			"-0.012": 0.0,
			"-0.011": 0.00909324988197,
			"-0.01": 0.833440345663,
			"-0.009": 1.11194669811,
			"-0.008": 0.993021095594,
			"-0.007": 1.33848144579,
			"-0.006": 6.4302745722,
			"-0.005": 23.6732753126,
			"-0.004": 30.1023116221,
			"-0.003": 39.1491641614,
			"-0.002": 31.0329470764,
			"-0.001": 23.7000299601,
			"0.0": 16.1563474334,
			"0.001": 16.4005221409,
			"0.002": 14.7352456555,
			"0.003": 15.1430302379,
			"0.004": 17.6059657214,
			"0.005": 17.5903991205,
			"0.006": 19.7009555828,
			"0.007": 6.78525585921,
			"0.008": 1.54285078451,
			"0.009": 2.60659209083,
			"0.01": 1.88764066043,
			"0.011": 1.92398578664,
			"0.012": 0.157867271911,
			"0.013": 0.638946407103,
			"0.014": 0.50021048485,
			"0.015": 0.390806976875,
			"0.016": 0.0234245184594,
			"0.017": 0.0,
			"0.018": 0.0,
			"0.019": 0.0,
			"0.02": 0.0,
			"0.021": 0.0,
			"0.022": 0.0,
			"0.023": 0.0,
			"0.024": 0.0,
			"0.025": 0.0
		}
	}
}
