{
	 "smiles": "CC1=NC2=C(C(=O)NS2)C(C)=C1", 
	 "Tm": 469.15, 
	 "num_atms": 20, 
	 "gaussian": { 
		 "optdone": 1, 
		 "sigma_profile": "yes", 
		 "theory": "DFT", 
		 "functional": "B3LYP", 
		 "basiset": "6-31G**", 
		 "properties": { 
			 "R2extent": 3260.8222, 
			 "electric_dipole_moment_norm": 1.85171856123, 
			 "electric_quadrupole_moment_norm": 12.5299887893, 
			 "total_energy": -892.599494374, 
			 "HOMO_LUMO_gap": 0.17266, 
			 "cosmo_polarized_energy": -11.45, 
			 "cosmo_cavitation_energy": 25.48, 
			 "cosmo_dispersion_energy": -19.57, 
			 "cosmo_repulsion_energy": 1.5, 
			 "cosmo_total_nonelectrostatic_energy": 7.41, 
			 "SMD_solvation_energy": 2.93 
		},
		"coords": [
			{
				"x": 0.6313808257,
				"y": 0.9478932043,
				"z": -1.7250254011,
				"element": "C" 
			},
			{
				"x": 0.2483092482,
				"y": 0.2693166943,
				"z": -0.4345765783,
				"element": "C" 
			},
			{
				"x": 1.0171843321,
				"y": 0.5268917276,
				"z": 0.6354114342,
				"element": "N" 
			},
			{
				"x": 0.6577222514,
				"y": -0.0837628752,
				"z": 1.7595979101,
				"element": "C" 
			},
			{
				"x": -0.4248171223,
				"y": -0.9521523786,
				"z": 1.9291162914,
				"element": "C" 
			},
			{
				"x": -0.5601785416,
				"y": -1.4693171462,
				"z": 3.3040096207,
				"element": "C" 
			},
			{
				"x": -1.3976523368,
				"y": -2.2389695112,
				"z": 3.7598377023,
				"element": "O" 
			},
			{
				"x": 0.4688667507,
				"y": -0.9190623014,
				"z": 4.0545360445,
				"element": "N" 
			},
			{
				"x": 1.5702930902,
				"y": 0.1531601332,
				"z": 3.2570980365,
				"element": "S" 
			},
			{
				"x": -1.2335194578,
				"y": -1.2247489592,
				"z": 0.8096688412,
				"element": "C" 
			},
			{
				"x": -2.4200514453,
				"y": -2.1455426882,
				"z": 0.8934941588,
				"element": "C" 
			},
			{
				"x": -0.8668307783,
				"y": -0.5900201287,
				"z": -0.3765700867,
				"element": "C" 
			},
			{
				"x": 1.5151129657,
				"y": 1.5678408704,
				"z": -1.5686812136,
				"element": "H" 
			},
			{
				"x": -0.184338321,
				"y": 1.5797467236,
				"z": -2.0940207759,
				"element": "H" 
			},
			{
				"x": 0.8485536161,
				"y": 0.2114757606,
				"z": -2.5068930544,
				"element": "H" 
			},
			{
				"x": 0.5739451618,
				"y": -1.1357567442,
				"z": 5.0357128482,
				"element": "H" 
			},
			{
				"x": -2.1157685024,
				"y": -3.1410890007,
				"z": 1.229573836,
				"element": "H" 
			},
			{
				"x": -2.9182293997,
				"y": -2.2292563316,
				"z": -0.0754342523,
				"element": "H" 
			},
			{
				"x": -3.1372953868,
				"y": -1.7875189439,
				"z": 1.6378304868,
				"element": "H" 
			},
			{
				"x": -1.4500869498,
				"y": -0.758428105,
				"z": -1.2774858485,
				"element": "H" 
			}
		],
		 "valence_orbital": [ 
			{
				"type": "occ",
				"energy": -0.28546,
				"method": "rhf"
			},
			{
				"type": "occ",
				"energy": -0.28276,
				"method": "rhf"
			},
			{
				"type": "occ",
				"energy": -0.26832,
				"method": "rhf"
			},
			{
				"type": "occ",
				"energy": -0.25295,
				"method": "rhf"
			},
			{
				"type": "occ",
				"energy": -0.22014,
				"method": "rhf"
			},
			{
				"type": "unocc",
				"energy": -0.04748,
				"method": "rhf"
			},
			{
				"type": "unocc",
				"energy": -0.02602,
				"method": "rhf"
			},
			{
				"type": "unocc",
				"energy": -0.02413,
				"method": "rhf"
			},
			{
				"type": "unocc",
				"energy": 0.05212,
				"method": "rhf"
			},
			{
				"type": "unocc",
				"energy": 0.07139,
				"method": "rhf"
			}
		],
		"cosmo_sigma_profile": { 
			"-0.025": 0.0,
			"-0.024": 0.0,
			"-0.023": 0.0,
			"-0.022": 0.0,
			"-0.021": 0.0,
			"-0.02": 0.0,
			"-0.019": 0.0,
			"-0.018": 0.0,
			"-0.017": 0.388881122949,
			"-0.016": 1.28075890657,
			"-0.015": 1.30636891585,
			"-0.014": 1.3035901259,
			"-0.013": 0.607684294107,
			"-0.012": 0.905407007288,
			"-0.011": 1.26056042341,
			"-0.01": 1.27449889198,
			"-0.009": 0.486437563823,
			"-0.008": 0.844629823086,
			"-0.007": 1.79814094376,
			"-0.006": 5.13208370533,
			"-0.005": 10.6717212745,
			"-0.004": 15.4512337849,
			"-0.003": 15.5535334717,
			"-0.002": 17.2596812276,
			"-0.001": 27.760098911,
			"0.0": 25.9635689652,
			"0.001": 18.3382699849,
			"0.002": 13.0048307005,
			"0.003": 7.17193039817,
			"0.004": 6.44994119822,
			"0.005": 5.17216604491,
			"0.006": 2.63999650713,
			"0.007": 2.7718561093,
			"0.008": 2.33078781898,
			"0.009": 2.04774107092,
			"0.01": 3.07597897987,
			"0.011": 2.24710242612,
			"0.012": 2.82469952608,
			"0.013": 5.47839375794,
			"0.014": 2.54985140366,
			"0.015": 0.074907401372,
			"0.016": 0.0,
			"0.017": 0.0,
			"0.018": 0.0,
			"0.019": 0.0,
			"0.02": 0.0,
			"0.021": 0.0,
			"0.022": 0.0,
			"0.023": 0.0,
			"0.024": 0.0,
			"0.025": 0.0
		}
	}
}
