{
	 "smiles": "CCC1CCC(C)CC1", 
	 "Tm": 192.35, 
	 "num_atms": 27, 
	 "gaussian": { 
		 "optdone": 1, 
		 "sigma_profile": "yes", 
		 "theory": "DFT", 
		 "functional": "B3LYP", 
		 "basiset": "6-31G**", 
		 "properties": { 
			 "R2extent": 1695.0911, 
			 "electric_dipole_moment_norm": 0.102526386847, 
			 "electric_quadrupole_moment_norm": 0.574585163401, 
			 "total_energy": -353.830339598, 
			 "HOMO_LUMO_gap": 0.36566, 
			 "cosmo_polarized_energy": -0.6, 
			 "cosmo_cavitation_energy": 26.04, 
			 "cosmo_dispersion_energy": -18.98, 
			 "cosmo_repulsion_energy": 1.55, 
			 "cosmo_total_nonelectrostatic_energy": 8.62, 
			 "SMD_solvation_energy": 3.67 
		},
		"coords": [
			{
				"x": 3.0055845318,
				"y": -0.0826504568,
				"z": -1.4460829403,
				"element": "C" 
			},
			{
				"x": 1.6811056655,
				"y": 0.5530074974,
				"z": -1.0082190964,
				"element": "C" 
			},
			{
				"x": 1.1176744194,
				"y": 0.0137942698,
				"z": 0.3203207055,
				"element": "C" 
			},
			{
				"x": -0.1828256046,
				"y": 0.7622829316,
				"z": 0.7318107214,
				"element": "C" 
			},
			{
				"x": -1.4431807747,
				"y": -0.0123962211,
				"z": 0.3252248808,
				"element": "C" 
			},
			{
				"x": -1.5535053937,
				"y": -1.3591216384,
				"z": 1.0807159979,
				"element": "C" 
			},
			{
				"x": -2.4702230865,
				"y": -2.3355806318,
				"z": 0.3320714046,
				"element": "C" 
			},
			{
				"x": -0.1424149515,
				"y": -1.9611007095,
				"z": 1.3337646075,
				"element": "C" 
			},
			{
				"x": 0.870957887,
				"y": -1.5154835591,
				"z": 0.2704280543,
				"element": "C" 
			},
			{
				"x": 3.7752513378,
				"y": 0.0388293117,
				"z": -0.674512348,
				"element": "H" 
			},
			{
				"x": 3.3808727344,
				"y": 0.3827817151,
				"z": -2.3635216901,
				"element": "H" 
			},
			{
				"x": 2.9000389919,
				"y": -1.1545302162,
				"z": -1.6414928364,
				"element": "H" 
			},
			{
				"x": 0.9297051594,
				"y": 0.4132400275,
				"z": -1.799039931,
				"element": "H" 
			},
			{
				"x": 1.8212347764,
				"y": 1.6380202081,
				"z": -0.9126470546,
				"element": "H" 
			},
			{
				"x": 1.8736863288,
				"y": 0.2040018659,
				"z": 1.0963362296,
				"element": "H" 
			},
			{
				"x": -0.1902382047,
				"y": 1.7659410226,
				"z": 0.2897110791,
				"element": "H" 
			},
			{
				"x": -0.1984035264,
				"y": 0.911324414,
				"z": 1.81931454,
				"element": "H" 
			},
			{
				"x": -1.4178278865,
				"y": -0.2010018972,
				"z": -0.7572455387,
				"element": "H" 
			},
			{
				"x": -2.3427501681,
				"y": 0.5884392548,
				"z": 0.5041814879,
				"element": "H" 
			},
			{
				"x": -2.0104986901,
				"y": -1.1562203721,
				"z": 2.0591299036,
				"element": "H" 
			},
			{
				"x": -3.4473861172,
				"y": -1.8847385002,
				"z": 0.1239315185,
				"element": "H" 
			},
			{
				"x": -2.6395627933,
				"y": -3.2497909824,
				"z": 0.9116667497,
				"element": "H" 
			},
			{
				"x": -2.0314137424,
				"y": -2.6279586376,
				"z": -0.6299987068,
				"element": "H" 
			},
			{
				"x": 0.2244070909,
				"y": -1.6479363578,
				"z": 2.3199169796,
				"element": "H" 
			},
			{
				"x": -0.2043058126,
				"y": -3.055553005,
				"z": 1.3682388788,
				"element": "H" 
			},
			{
				"x": 1.8157114183,
				"y": -2.0549737863,
				"z": 0.3980417999,
				"element": "H" 
			},
			{
				"x": 0.4963064108,
				"y": -1.794525547,
				"z": -0.7249453965,
				"element": "H" 
			}
		],
		 "valence_orbital": [ 
			{
				"type": "occ",
				"energy": -0.32094,
				"method": "rhf"
			},
			{
				"type": "occ",
				"energy": -0.31922,
				"method": "rhf"
			},
			{
				"type": "occ",
				"energy": -0.2891,
				"method": "rhf"
			},
			{
				"type": "occ",
				"energy": -0.28679,
				"method": "rhf"
			},
			{
				"type": "occ",
				"energy": -0.2859,
				"method": "rhf"
			},
			{
				"type": "unocc",
				"energy": 0.07976,
				"method": "rhf"
			},
			{
				"type": "unocc",
				"energy": 0.09883,
				"method": "rhf"
			},
			{
				"type": "unocc",
				"energy": 0.10672,
				"method": "rhf"
			},
			{
				"type": "unocc",
				"energy": 0.12484,
				"method": "rhf"
			},
			{
				"type": "unocc",
				"energy": 0.13897,
				"method": "rhf"
			}
		],
		"cosmo_sigma_profile": { 
			"-0.025": 0.0,
			"-0.024": 0.0,
			"-0.023": 0.0,
			"-0.022": 0.0,
			"-0.021": 0.0,
			"-0.02": 0.0,
			"-0.019": 0.0,
			"-0.018": 0.0,
			"-0.017": 0.0,
			"-0.016": 0.0,
			"-0.015": 0.0,
			"-0.014": 0.0,
			"-0.013": 0.0,
			"-0.012": 0.0,
			"-0.011": 0.0,
			"-0.01": 0.0,
			"-0.009": 0.0,
			"-0.008": 0.0,
			"-0.007": 0.0,
			"-0.006": 0.0,
			"-0.005": 0.0,
			"-0.004": 0.0,
			"-0.003": 1.54161261662,
			"-0.002": 22.0903870534,
			"-0.001": 48.8180920427,
			"0.0": 54.1783148188,
			"0.001": 44.9605987504,
			"0.002": 25.8491539747,
			"0.003": 0.997283437313,
			"0.004": 0.0,
			"0.005": 0.0,
			"0.006": 0.0,
			"0.007": 0.0,
			"0.008": 0.0,
			"0.009": 0.0,
			"0.01": 0.0,
			"0.011": 0.0,
			"0.012": 0.0,
			"0.013": 0.0,
			"0.014": 0.0,
			"0.015": 0.0,
			"0.016": 0.0,
			"0.017": 0.0,
			"0.018": 0.0,
			"0.019": 0.0,
			"0.02": 0.0,
			"0.021": 0.0,
			"0.022": 0.0,
			"0.023": 0.0,
			"0.024": 0.0,
			"0.025": 0.0
		}
	}
}
