{
	 "smiles": "ClC1=CC=C(C=C1)N1C(=O)C2ON=C(C2C1=O)C(=O)C1=CC=CO1", 
	 "Tm": 444.15, 
	 "num_atms": 33, 
	 "gaussian": { 
		 "optdone": 1, 
		 "sigma_profile": "yes", 
		 "theory": "DFT", 
		 "functional": "B3LYP", 
		 "basiset": "6-31G**", 
		 "properties": { 
			 "R2extent": 10432.5909, 
			 "electric_dipole_moment_norm": 6.21100955562, 
			 "electric_quadrupole_moment_norm": 21.184314058, 
			 "total_energy": -1560.85467778, 
			 "HOMO_LUMO_gap": 0.1603, 
			 "cosmo_polarized_energy": -22.85, 
			 "cosmo_cavitation_energy": 41.56, 
			 "cosmo_dispersion_energy": -29.27, 
			 "cosmo_repulsion_energy": 2.2, 
			 "cosmo_total_nonelectrostatic_energy": 14.5, 
			 "SMD_solvation_energy": 8.98 
		},
		"coords": [
			{
				"x": 1.1114385522,
				"y": 6.0416981967,
				"z": -3.3461341062,
				"element": "Cl" 
			},
			{
				"x": 0.5878016579,
				"y": 4.461774211,
				"z": -2.7901061463,
				"element": "C" 
			},
			{
				"x": 0.1215049305,
				"y": 4.3136319278,
				"z": -1.4844894828,
				"element": "C" 
			},
			{
				"x": -0.2990791697,
				"y": 3.0604642695,
				"z": -1.0448844119,
				"element": "C" 
			},
			{
				"x": -0.2412993003,
				"y": 1.9633506463,
				"z": -1.9102643916,
				"element": "C" 
			},
			{
				"x": 0.2325945873,
				"y": 2.1191997692,
				"z": -3.2169480378,
				"element": "C" 
			},
			{
				"x": 0.6445099132,
				"y": 3.3737687702,
				"z": -3.6603052662,
				"element": "C" 
			},
			{
				"x": -0.6697495624,
				"y": 0.6726269146,
				"z": -1.4606749915,
				"element": "N" 
			},
			{
				"x": -1.4397826809,
				"y": -0.2053537321,
				"z": -2.2485277532,
				"element": "C" 
			},
			{
				"x": -1.8425039468,
				"y": 0.0113017829,
				"z": -3.3658272574,
				"element": "O" 
			},
			{
				"x": -1.6700081812,
				"y": -1.4854494128,
				"z": -1.4352595043,
				"element": "C" 
			},
			{
				"x": -0.9768456802,
				"y": -2.5999058635,
				"z": -2.0669322971,
				"element": "O" 
			},
			{
				"x": 0.0752292943,
				"y": -3.0069112818,
				"z": -1.2756038746,
				"element": "N" 
			},
			{
				"x": 0.1174199318,
				"y": -2.3304951729,
				"z": -0.1815157723,
				"element": "C" 
			},
			{
				"x": -0.9624222595,
				"y": -1.2626747853,
				"z": -0.1043871992,
				"element": "C" 
			},
			{
				"x": -0.3729920026,
				"y": 0.1527201199,
				"z": -0.1877708345,
				"element": "C" 
			},
			{
				"x": 0.2430681002,
				"y": 0.7203232245,
				"z": 0.6837249094,
				"element": "O" 
			},
			{
				"x": 1.2159700275,
				"y": -2.6279224251,
				"z": 0.802905569,
				"element": "C" 
			},
			{
				"x": 2.2691431533,
				"y": -3.1258241241,
				"z": 0.4301234704,
				"element": "O" 
			},
			{
				"x": 1.0067988585,
				"y": -2.3222879264,
				"z": 2.2188891297,
				"element": "C" 
			},
			{
				"x": 1.8775548484,
				"y": -2.4335077359,
				"z": 3.2742281788,
				"element": "C" 
			},
			{
				"x": 1.1636405382,
				"y": -2.0273726705,
				"z": 4.4351721872,
				"element": "C" 
			},
			{
				"x": -0.0944350335,
				"y": -1.7012158313,
				"z": 4.011259723,
				"element": "C" 
			},
			{
				"x": -0.2114629074,
				"y": -1.8752892666,
				"z": 2.6725611584,
				"element": "O" 
			},
			{
				"x": 0.0843249251,
				"y": 5.1682687322,
				"z": -0.8187294481,
				"element": "H" 
			},
			{
				"x": -0.6545487903,
				"y": 2.936927342,
				"z": -0.0301618321,
				"element": "H" 
			},
			{
				"x": 0.2688894366,
				"y": 1.2714114856,
				"z": -3.8889252296,
				"element": "H" 
			},
			{
				"x": 1.0100334043,
				"y": 3.5033279716,
				"z": -4.6725055525,
				"element": "H" 
			},
			{
				"x": -2.7337491268,
				"y": -1.7285679094,
				"z": -1.3993403491,
				"element": "H" 
			},
			{
				"x": -1.5736807874,
				"y": -1.3457282632,
				"z": 0.7947256534,
				"element": "H" 
			},
			{
				"x": 2.9018518394,
				"y": -2.7666388454,
				"z": 3.2005777603,
				"element": "H" 
			},
			{
				"x": 1.5299089678,
				"y": -1.9808145079,
				"z": 5.4502576051,
				"element": "H" 
			},
			{
				"x": -0.9774235373,
				"y": -1.3452356099,
				"z": 4.5197683937,
				"element": "H" 
			}
		],
		 "valence_orbital": [ 
			{
				"type": "occ",
				"energy": -0.27485,
				"method": "rhf"
			},
			{
				"type": "occ",
				"energy": -0.27217,
				"method": "rhf"
			},
			{
				"type": "occ",
				"energy": -0.26613,
				"method": "rhf"
			},
			{
				"type": "occ",
				"energy": -0.25456,
				"method": "rhf"
			},
			{
				"type": "occ",
				"energy": -0.25022,
				"method": "rhf"
			},
			{
				"type": "unocc",
				"energy": -0.08992,
				"method": "rhf"
			},
			{
				"type": "unocc",
				"energy": -0.0538,
				"method": "rhf"
			},
			{
				"type": "unocc",
				"energy": -0.04445,
				"method": "rhf"
			},
			{
				"type": "unocc",
				"energy": -0.02484,
				"method": "rhf"
			},
			{
				"type": "unocc",
				"energy": -0.02226,
				"method": "rhf"
			}
		],
		"cosmo_sigma_profile": { 
			"-0.025": 0.0,
			"-0.024": 0.0,
			"-0.023": 0.0,
			"-0.022": 0.0,
			"-0.021": 0.0,
			"-0.02": 0.0,
			"-0.019": 0.0,
			"-0.018": 0.0,
			"-0.017": 0.0,
			"-0.016": 0.0,
			"-0.015": 0.0,
			"-0.014": 0.0,
			"-0.013": 0.328725342269,
			"-0.012": 1.19808541152,
			"-0.011": 3.14316296639,
			"-0.01": 9.94803819574,
			"-0.009": 7.81991429471,
			"-0.008": 11.8255270552,
			"-0.007": 19.1980269363,
			"-0.006": 16.6979287971,
			"-0.005": 16.6373629764,
			"-0.004": 15.2742112744,
			"-0.003": 14.4270804256,
			"-0.002": 15.8061542028,
			"-0.001": 17.5609306202,
			"0.0": 22.4976637043,
			"0.001": 27.926271089,
			"0.002": 30.8025336377,
			"0.003": 19.9580100744,
			"0.004": 17.9635231149,
			"0.005": 9.65449821924,
			"0.006": 8.07004022574,
			"0.007": 11.422319026,
			"0.008": 8.7626065693,
			"0.009": 8.9054159681,
			"0.01": 10.9274168214,
			"0.011": 7.38518191706,
			"0.012": 3.42063174227,
			"0.013": 0.871130423865,
			"0.014": 0.0,
			"0.015": 0.0,
			"0.016": 0.0,
			"0.017": 0.0,
			"0.018": 0.0,
			"0.019": 0.0,
			"0.02": 0.0,
			"0.021": 0.0,
			"0.022": 0.0,
			"0.023": 0.0,
			"0.024": 0.0,
			"0.025": 0.0
		}
	}
}
