{
	 "smiles": "CC(C)NCC(O)C1=CC2=C(C=CC=C2)C=C1", 
	 "Tm": 381.15, 
	 "num_atms": 36, 
	 "gaussian": { 
		 "optdone": 1, 
		 "sigma_profile": "yes", 
		 "theory": "DFT", 
		 "functional": "B3LYP", 
		 "basiset": "6-31G**", 
		 "properties": { 
			 "R2extent": 6724.1479, 
			 "electric_dipole_moment_norm": 3.22815011578, 
			 "electric_quadrupole_moment_norm": 13.3806446859, 
			 "total_energy": -713.036860649, 
			 "HOMO_LUMO_gap": 0.17538, 
			 "cosmo_polarized_energy": -10.18, 
			 "cosmo_cavitation_energy": 37.53, 
			 "cosmo_dispersion_energy": -26.75, 
			 "cosmo_repulsion_energy": 2.06, 
			 "cosmo_total_nonelectrostatic_energy": 12.84, 
			 "SMD_solvation_energy": 5.32 
		},
		"coords": [
			{
				"x": -4.7909217194,
				"y": -0.8626878809,
				"z": 0.4556184638,
				"element": "C" 
			},
			{
				"x": -4.3901502033,
				"y": -1.7889073399,
				"z": -0.6968028075,
				"element": "C" 
			},
			{
				"x": -5.0389514922,
				"y": -3.1672906857,
				"z": -0.5429101313,
				"element": "C" 
			},
			{
				"x": -2.9276614267,
				"y": -1.965806586,
				"z": -0.760945432,
				"element": "N" 
			},
			{
				"x": -2.1232377709,
				"y": -0.801796062,
				"z": -1.1626157354,
				"element": "C" 
			},
			{
				"x": -1.4192146084,
				"y": -0.1708393628,
				"z": 0.0708282106,
				"element": "C" 
			},
			{
				"x": -0.871884982,
				"y": -1.2126425725,
				"z": 0.8520381955,
				"element": "O" 
			},
			{
				"x": -0.3400772015,
				"y": 0.7993762299,
				"z": -0.3605144533,
				"element": "C" 
			},
			{
				"x": 0.9918612559,
				"y": 0.4430335165,
				"z": -0.3478029561,
				"element": "C" 
			},
			{
				"x": 1.9996739852,
				"y": 1.3407470596,
				"z": -0.7913388833,
				"element": "C" 
			},
			{
				"x": 1.6201692596,
				"y": 2.6385194656,
				"z": -1.2664365922,
				"element": "C" 
			},
			{
				"x": 2.6307014758,
				"y": 3.5324885536,
				"z": -1.7114892799,
				"element": "C" 
			},
			{
				"x": 3.9574112516,
				"y": 3.1640507812,
				"z": -1.6904079591,
				"element": "C" 
			},
			{
				"x": 4.3343239595,
				"y": 1.8816584895,
				"z": -1.2200929827,
				"element": "C" 
			},
			{
				"x": 3.3781741945,
				"y": 0.9934235837,
				"z": -0.7808218386,
				"element": "C" 
			},
			{
				"x": 0.2414473442,
				"y": 2.9834500911,
				"z": -1.2659789734,
				"element": "C" 
			},
			{
				"x": -0.7080000901,
				"y": 2.0928190406,
				"z": -0.8227098521,
				"element": "C" 
			},
			{
				"x": -4.4259099754,
				"y": -1.2576647879,
				"z": 1.4096937312,
				"element": "H" 
			},
			{
				"x": -4.3876595843,
				"y": 0.145797298,
				"z": 0.3278930655,
				"element": "H" 
			},
			{
				"x": -5.8810047001,
				"y": -0.7760753424,
				"z": 0.5092630148,
				"element": "H" 
			},
			{
				"x": -4.7593928964,
				"y": -1.3362464435,
				"z": -1.6362288028,
				"element": "H" 
			},
			{
				"x": -6.1289944956,
				"y": -3.0809545228,
				"z": -0.5102263838,
				"element": "H" 
			},
			{
				"x": -4.7021858727,
				"y": -3.6481649435,
				"z": 0.3815195353,
				"element": "H" 
			},
			{
				"x": -4.782961106,
				"y": -3.8254305384,
				"z": -1.3817182045,
				"element": "H" 
			},
			{
				"x": -2.7290611282,
				"y": -2.7374398065,
				"z": -1.3891452396,
				"element": "H" 
			},
			{
				"x": -1.3356156088,
				"y": -1.1428362465,
				"z": -1.8426586525,
				"element": "H" 
			},
			{
				"x": -2.7147001272,
				"y": -0.0460760046,
				"z": -1.7005715885,
				"element": "H" 
			},
			{
				"x": -2.1693445362,
				"y": 0.3886555158,
				"z": 0.6560636849,
				"element": "H" 
			},
			{
				"x": -1.5250602815,
				"y": -1.9317400834,
				"z": 0.7573289776,
				"element": "H" 
			},
			{
				"x": 1.2704054062,
				"y": -0.5381053924,
				"z": 0.0228109242,
				"element": "H" 
			},
			{
				"x": 2.3380332914,
				"y": 4.5163826954,
				"z": -2.0701001821,
				"element": "H" 
			},
			{
				"x": 4.7209892907,
				"y": 3.8562408908,
				"z": -2.03376981,
				"element": "H" 
			},
			{
				"x": 5.3840749114,
				"y": 1.6023266268,
				"z": -1.2066770261,
				"element": "H" 
			},
			{
				"x": 3.6649035974,
				"y": 0.0096747406,
				"z": -0.4178884681,
				"element": "H" 
			},
			{
				"x": -0.0525254571,
				"y": 3.9703628481,
				"z": -1.6148979169,
				"element": "H" 
			},
			{
				"x": -1.7568539594,
				"y": 2.3814971748,
				"z": -0.8150076517,
				"element": "H" 
			}
		],
		 "valence_orbital": [ 
			{
				"type": "occ",
				"energy": -0.27495,
				"method": "rhf"
			},
			{
				"type": "occ",
				"energy": -0.26066,
				"method": "rhf"
			},
			{
				"type": "occ",
				"energy": -0.24319,
				"method": "rhf"
			},
			{
				"type": "occ",
				"energy": -0.22793,
				"method": "rhf"
			},
			{
				"type": "occ",
				"energy": -0.2053,
				"method": "rhf"
			},
			{
				"type": "unocc",
				"energy": -0.02992,
				"method": "rhf"
			},
			{
				"type": "unocc",
				"energy": -0.00171,
				"method": "rhf"
			},
			{
				"type": "unocc",
				"energy": 0.04064,
				"method": "rhf"
			},
			{
				"type": "unocc",
				"energy": 0.0671,
				"method": "rhf"
			},
			{
				"type": "unocc",
				"energy": 0.08732,
				"method": "rhf"
			}
		],
		"cosmo_sigma_profile": { 
			"-0.025": 0.0,
			"-0.024": 0.0,
			"-0.023": 0.0,
			"-0.022": 0.0,
			"-0.021": 0.0,
			"-0.02": 0.0,
			"-0.019": 0.0,
			"-0.018": 0.0,
			"-0.017": 0.0,
			"-0.016": 0.0,
			"-0.015": 0.0,
			"-0.014": 0.0,
			"-0.013": 0.0,
			"-0.012": 0.0,
			"-0.011": 0.318423409258,
			"-0.01": 1.18830965373,
			"-0.009": 1.48451697406,
			"-0.008": 1.18509153313,
			"-0.007": 2.22594191447,
			"-0.006": 7.50973901169,
			"-0.005": 19.4900520863,
			"-0.004": 24.4667408054,
			"-0.003": 28.8981186388,
			"-0.002": 29.423810983,
			"-0.001": 31.9604324838,
			"0.0": 27.0519531743,
			"0.001": 26.2660819202,
			"0.002": 16.0891118155,
			"0.003": 12.496592217,
			"0.004": 20.6818997577,
			"0.005": 23.9327155097,
			"0.006": 8.02155654515,
			"0.007": 1.28256095346,
			"0.008": 1.78175862444,
			"0.009": 2.16981948135,
			"0.01": 1.13575872732,
			"0.011": 1.1019768199,
			"0.012": 1.40231377906,
			"0.013": 1.16295452059,
			"0.014": 0.95423957639,
			"0.015": 0.920611765265,
			"0.016": 0.0129978130281,
			"0.017": 0.0,
			"0.018": 0.0,
			"0.019": 0.0,
			"0.02": 0.0,
			"0.021": 0.0,
			"0.022": 0.0,
			"0.023": 0.0,
			"0.024": 0.0,
			"0.025": 0.0
		}
	}
}
