{
	 "smiles": "COC1=C(C=C(C=C1)[N+]([O-])=O)C#N", 
	 "Tm": 343.15, 
	 "num_atms": 19, 
	 "gaussian": { 
		 "optdone": 1, 
		 "sigma_profile": "yes", 
		 "theory": "DFT", 
		 "functional": "B3LYP", 
		 "basiset": "6-31G**", 
		 "properties": { 
			 "R2extent": 2937.1908, 
			 "electric_dipole_moment_norm": 6.44550838724, 
			 "electric_quadrupole_moment_norm": 19.3225095873, 
			 "total_energy": -643.50976925, 
			 "HOMO_LUMO_gap": 0.17009, 
			 "cosmo_polarized_energy": -15.57, 
			 "cosmo_cavitation_energy": 25.66, 
			 "cosmo_dispersion_energy": -18.17, 
			 "cosmo_repulsion_energy": 1.44, 
			 "cosmo_total_nonelectrostatic_energy": 8.93, 
			 "SMD_solvation_energy": 8.97 
		},
		"coords": [
			{
				"x": -3.1378534023,
				"y": -0.3195678357,
				"z": -1.9461001645,
				"element": "C" 
			},
			{
				"x": -2.4037837714,
				"y": -0.3324090343,
				"z": -0.7220017272,
				"element": "O" 
			},
			{
				"x": -1.083038921,
				"y": -0.5772292783,
				"z": -0.7489909991,
				"element": "C" 
			},
			{
				"x": -0.4294137076,
				"y": -0.571851523,
				"z": 0.5127256755,
				"element": "C" 
			},
			{
				"x": 0.9428005849,
				"y": -0.8159355818,
				"z": 0.5886489111,
				"element": "C" 
			},
			{
				"x": 1.6535226953,
				"y": -1.062438852,
				"z": -0.582315738,
				"element": "C" 
			},
			{
				"x": 1.0277582219,
				"y": -1.0712600717,
				"z": -1.8274424374,
				"element": "C" 
			},
			{
				"x": -0.3388145995,
				"y": -0.8290849661,
				"z": -1.9117529241,
				"element": "C" 
			},
			{
				"x": 3.0943883967,
				"y": -1.3186400789,
				"z": -0.5015738724,
				"element": "N" 
			},
			{
				"x": 3.6140719762,
				"y": -1.3033031461,
				"z": 0.6136951287,
				"element": "O" 
			},
			{
				"x": 3.6934348863,
				"y": -1.533027691,
				"z": -1.555636163,
				"element": "O" 
			},
			{
				"x": -1.1823567297,
				"y": -0.3156441224,
				"z": 1.7032080867,
				"element": "C" 
			},
			{
				"x": -1.7743799489,
				"y": -0.1098884589,
				"z": 2.6825483503,
				"element": "N" 
			},
			{
				"x": -2.7693523034,
				"y": 0.4615512739,
				"z": -2.6204258537,
				"element": "H" 
			},
			{
				"x": -3.0910482927,
				"y": -1.2935778475,
				"z": -2.4458714126,
				"element": "H" 
			},
			{
				"x": -4.1680974322,
				"y": -0.102842466,
				"z": -1.6657025588,
				"element": "H" 
			},
			{
				"x": 1.4558406293,
				"y": -0.8154652535,
				"z": 1.5418695761,
				"element": "H" 
			},
			{
				"x": 1.6188413133,
				"y": -1.2675435255,
				"z": -2.7134630078,
				"element": "H" 
			},
			{
				"x": -0.8207195951,
				"y": -0.836941541,
				"z": -2.8810188697,
				"element": "H" 
			}
		],
		 "valence_orbital": [ 
			{
				"type": "occ",
				"energy": -0.31762,
				"method": "rhf"
			},
			{
				"type": "occ",
				"energy": -0.31586,
				"method": "rhf"
			},
			{
				"type": "occ",
				"energy": -0.29939,
				"method": "rhf"
			},
			{
				"type": "occ",
				"energy": -0.29333,
				"method": "rhf"
			},
			{
				"type": "occ",
				"energy": -0.2671,
				"method": "rhf"
			},
			{
				"type": "unocc",
				"energy": -0.09701,
				"method": "rhf"
			},
			{
				"type": "unocc",
				"energy": -0.0696,
				"method": "rhf"
			},
			{
				"type": "unocc",
				"energy": -0.01266,
				"method": "rhf"
			},
			{
				"type": "unocc",
				"energy": 0.0232,
				"method": "rhf"
			},
			{
				"type": "unocc",
				"energy": 0.06352,
				"method": "rhf"
			}
		],
		"cosmo_sigma_profile": { 
			"-0.025": 0.0,
			"-0.024": 0.0,
			"-0.023": 0.0,
			"-0.022": 0.0,
			"-0.021": 0.0,
			"-0.02": 0.0,
			"-0.019": 0.0,
			"-0.018": 0.0,
			"-0.017": 0.0,
			"-0.016": 0.0,
			"-0.015": 0.0,
			"-0.014": 0.0,
			"-0.013": 0.0,
			"-0.012": 0.0,
			"-0.011": 0.0,
			"-0.01": 0.432615363114,
			"-0.009": 4.09029746219,
			"-0.008": 7.98696008674,
			"-0.007": 12.5364181719,
			"-0.006": 13.6499834556,
			"-0.005": 14.008086487,
			"-0.004": 14.2404783074,
			"-0.003": 15.3187885272,
			"-0.002": 20.9733937796,
			"-0.001": 15.2359455305,
			"0.0": 9.69134819275,
			"0.001": 5.82744322743,
			"0.002": 4.86639192964,
			"0.003": 5.18924205607,
			"0.004": 5.78160861973,
			"0.005": 6.51846970462,
			"0.006": 8.76125910539,
			"0.007": 13.1552718142,
			"0.008": 10.5883124465,
			"0.009": 7.7824713414,
			"0.01": 5.23891044058,
			"0.011": 2.54727446508,
			"0.012": 2.31675123995,
			"0.013": 0.643423680354,
			"0.014": 0.0,
			"0.015": 0.0,
			"0.016": 0.0,
			"0.017": 0.0,
			"0.018": 0.0,
			"0.019": 0.0,
			"0.02": 0.0,
			"0.021": 0.0,
			"0.022": 0.0,
			"0.023": 0.0,
			"0.024": 0.0,
			"0.025": 0.0
		}
	}
}
