{
	 "smiles": "ClCC(=O)NC1=C(Cl)C=CC(=C1)S(=O)(=O)N1CCOCC1", 
	 "Tm": 405.15, 
	 "num_atms": 35, 
	 "gaussian": { 
		 "optdone": 1, 
		 "sigma_profile": "yes", 
		 "theory": "DFT", 
		 "functional": "B3LYP", 
		 "basiset": "6-31G**", 
		 "properties": { 
			 "R2extent": 10047.809, 
			 "electric_dipole_moment_norm": 4.9054213978, 
			 "electric_quadrupole_moment_norm": 26.6038603738, 
			 "total_energy": -2194.59131117, 
			 "HOMO_LUMO_gap": 0.18828, 
			 "cosmo_polarized_energy": -23.83, 
			 "cosmo_cavitation_energy": 43.02, 
			 "cosmo_dispersion_energy": -30.17, 
			 "cosmo_repulsion_energy": 2.3, 
			 "cosmo_total_nonelectrostatic_energy": 15.15, 
			 "SMD_solvation_energy": 5.87 
		},
		"coords": [
			{
				"x": -2.7713095022,
				"y": -4.7107768489,
				"z": 1.869325822,
				"element": "Cl" 
			},
			{
				"x": -2.7898191737,
				"y": -3.1248524627,
				"z": 1.0370118056,
				"element": "C" 
			},
			{
				"x": -3.5591951331,
				"y": -3.1901369063,
				"z": -0.2853003058,
				"element": "C" 
			},
			{
				"x": -4.4102469932,
				"y": -4.0228295384,
				"z": -0.5203839219,
				"element": "O" 
			},
			{
				"x": -3.2433144923,
				"y": -2.2385839065,
				"z": -1.2509139758,
				"element": "N" 
			},
			{
				"x": -2.304285022,
				"y": -1.1980745946,
				"z": -1.2798047956,
				"element": "C" 
			},
			{
				"x": -1.6225366591,
				"y": -0.8985999737,
				"z": -2.4779316294,
				"element": "C" 
			},
			{
				"x": -1.9316750855,
				"y": -1.8550129328,
				"z": -3.9133646799,
				"element": "Cl" 
			},
			{
				"x": -0.7075651371,
				"y": 0.1511348223,
				"z": -2.5584375185,
				"element": "C" 
			},
			{
				"x": -0.4344100856,
				"y": 0.9272156496,
				"z": -1.4368215304,
				"element": "C" 
			},
			{
				"x": -1.1092463571,
				"y": 0.6429871069,
				"z": -0.2492975953,
				"element": "C" 
			},
			{
				"x": -2.0481011185,
				"y": -0.3800503921,
				"z": -0.1679013682,
				"element": "C" 
			},
			{
				"x": -0.8449934872,
				"y": 1.6811349399,
				"z": 1.1966912898,
				"element": "S" 
			},
			{
				"x": -1.7439603811,
				"y": 1.1773661204,
				"z": 2.2449932986,
				"element": "O" 
			},
			{
				"x": -0.8883557533,
				"y": 3.0850461648,
				"z": 0.7787981598,
				"element": "O" 
			},
			{
				"x": 0.7636687044,
				"y": 1.3457048075,
				"z": 1.568264139,
				"element": "N" 
			},
			{
				"x": 1.608938148,
				"y": 2.4589761016,
				"z": 2.0269715276,
				"element": "C" 
			},
			{
				"x": 3.0702382651,
				"y": 2.0907149598,
				"z": 1.7243793465,
				"element": "C" 
			},
			{
				"x": 3.3466113366,
				"y": 0.7028954808,
				"z": 1.9172904751,
				"element": "O" 
			},
			{
				"x": 2.4505718266,
				"y": 0.0839718972,
				"z": 2.8189935391,
				"element": "C" 
			},
			{
				"x": 1.0248296456,
				"y": 0.0547117149,
				"z": 2.2431083578,
				"element": "C" 
			},
			{
				"x": -3.27336346,
				"y": -2.4148395006,
				"z": 1.71224895,
				"element": "H" 
			},
			{
				"x": -1.755595551,
				"y": -2.8142919466,
				"z": 0.8869704879,
				"element": "H" 
			},
			{
				"x": -3.70551572,
				"y": -2.4502643001,
				"z": -2.1284815401,
				"element": "H" 
			},
			{
				"x": -0.2089783884,
				"y": 0.3465485364,
				"z": -3.5010293433,
				"element": "H" 
			},
			{
				"x": 0.2792677033,
				"y": 1.7411632259,
				"z": -1.4869573847,
				"element": "H" 
			},
			{
				"x": -2.5979506643,
				"y": -0.5071615333,
				"z": 0.7554762971,
				"element": "H" 
			},
			{
				"x": 1.4630086534,
				"y": 2.656223026,
				"z": 3.0982126185,
				"element": "H" 
			},
			{
				"x": 1.3272276344,
				"y": 3.3631036663,
				"z": 1.4867094649,
				"element": "H" 
			},
			{
				"x": 3.7305938398,
				"y": 2.703616022,
				"z": 2.3571300931,
				"element": "H" 
			},
			{
				"x": 3.3046633837,
				"y": 2.3028279971,
				"z": 0.676428542,
				"element": "H" 
			},
			{
				"x": 2.4594240786,
				"y": 0.5846546273,
				"z": 3.7991727164,
				"element": "H" 
			},
			{
				"x": 2.8060029369,
				"y": -0.9385266123,
				"z": 2.9699873245,
				"element": "H" 
			},
			{
				"x": 0.9384533234,
				"y": -0.7445499324,
				"z": 1.4989435048,
				"element": "H" 
			},
			{
				"x": 0.3007186851,
				"y": -0.1352454857,
				"z": 3.046017829,
				"element": "H" 
			}
		],
		 "valence_orbital": [ 
			{
				"type": "occ",
				"energy": -0.28851,
				"method": "rhf"
			},
			{
				"type": "occ",
				"energy": -0.28253,
				"method": "rhf"
			},
			{
				"type": "occ",
				"energy": -0.27058,
				"method": "rhf"
			},
			{
				"type": "occ",
				"energy": -0.26581,
				"method": "rhf"
			},
			{
				"type": "occ",
				"energy": -0.25333,
				"method": "rhf"
			},
			{
				"type": "unocc",
				"energy": -0.06505,
				"method": "rhf"
			},
			{
				"type": "unocc",
				"energy": -0.04922,
				"method": "rhf"
			},
			{
				"type": "unocc",
				"energy": -0.00801,
				"method": "rhf"
			},
			{
				"type": "unocc",
				"energy": 0.0002,
				"method": "rhf"
			},
			{
				"type": "unocc",
				"energy": 0.02508,
				"method": "rhf"
			}
		],
		"cosmo_sigma_profile": { 
			"-0.025": 0.0,
			"-0.024": 0.0,
			"-0.023": 0.0,
			"-0.022": 0.0,
			"-0.021": 0.0,
			"-0.02": 0.0,
			"-0.019": 0.0,
			"-0.018": 0.0,
			"-0.017": 0.0,
			"-0.016": 0.0,
			"-0.015": 0.0,
			"-0.014": 0.0246451052571,
			"-0.013": 1.13235901825,
			"-0.012": 1.58383880706,
			"-0.011": 2.54067395845,
			"-0.01": 3.66747639682,
			"-0.009": 4.87290307462,
			"-0.008": 9.31570999297,
			"-0.007": 10.4430368937,
			"-0.006": 18.452294285,
			"-0.005": 33.191420907,
			"-0.004": 27.9532405937,
			"-0.003": 23.141092843,
			"-0.002": 21.6300799197,
			"-0.001": 25.3977843177,
			"0.0": 22.7053125804,
			"0.001": 18.6484547986,
			"0.002": 16.9754397547,
			"0.003": 15.7157055697,
			"0.004": 11.5894673287,
			"0.005": 11.7217687803,
			"0.006": 10.4045110568,
			"0.007": 6.90829731146,
			"0.008": 7.70106112101,
			"0.009": 5.56668762755,
			"0.01": 10.8604448731,
			"0.011": 12.0970099793,
			"0.012": 8.5161309937,
			"0.013": 3.16214529473,
			"0.014": 0.219478243594,
			"0.015": 0.0,
			"0.016": 0.0,
			"0.017": 0.0,
			"0.018": 0.0,
			"0.019": 0.0,
			"0.02": 0.0,
			"0.021": 0.0,
			"0.022": 0.0,
			"0.023": 0.0,
			"0.024": 0.0,
			"0.025": 0.0
		}
	}
}
