{
	 "smiles": "CCN1N=C(CCC1=O)C(O)=O", 
	 "Tm": 421.15, 
	 "num_atms": 22, 
	 "gaussian": { 
		 "optdone": 1, 
		 "sigma_profile": "yes", 
		 "theory": "DFT", 
		 "functional": "B3LYP", 
		 "basiset": "6-31G**", 
		 "properties": { 
			 "R2extent": 2783.5034, 
			 "electric_dipole_moment_norm": 2.59893933173, 
			 "electric_quadrupole_moment_norm": 24.6219301402, 
			 "total_energy": -607.948053959, 
			 "HOMO_LUMO_gap": 0.17954, 
			 "cosmo_polarized_energy": -14.39, 
			 "cosmo_cavitation_energy": 25.88, 
			 "cosmo_dispersion_energy": -18.7, 
			 "cosmo_repulsion_energy": 1.53, 
			 "cosmo_total_nonelectrostatic_energy": 8.71, 
			 "SMD_solvation_energy": 5.75 
		},
		"coords": [
			{
				"x": 1.8786205999,
				"y": 0.767904322,
				"z": -0.0891793432,
				"element": "C" 
			},
			{
				"x": 0.6879024124,
				"y": 0.87579248,
				"z": 0.8628575792,
				"element": "C" 
			},
			{
				"x": -0.5894187542,
				"y": 0.5730555281,
				"z": 0.202373224,
				"element": "N" 
			},
			{
				"x": -0.9098296041,
				"y": -0.752928056,
				"z": 0.1322051935,
				"element": "N" 
			},
			{
				"x": -1.9008055303,
				"y": -1.1366016772,
				"z": -0.598075365,
				"element": "C" 
			},
			{
				"x": -2.7382261514,
				"y": -0.2056405977,
				"z": -1.4212763276,
				"element": "C" 
			},
			{
				"x": -2.7913053602,
				"y": 1.1593418966,
				"z": -0.7288663762,
				"element": "C" 
			},
			{
				"x": -1.4269366036,
				"y": 1.605917956,
				"z": -0.2312989635,
				"element": "C" 
			},
			{
				"x": -1.0825194971,
				"y": 2.7720708441,
				"z": -0.145406151,
				"element": "O" 
			},
			{
				"x": -2.1618327755,
				"y": -2.6142205935,
				"z": -0.625385312,
				"element": "C" 
			},
			{
				"x": -1.327527325,
				"y": -3.3573441726,
				"z": 0.1229724079,
				"element": "O" 
			},
			{
				"x": -3.0589558573,
				"y": -3.0958060714,
				"z": -1.2808618214,
				"element": "O" 
			},
			{
				"x": 1.9495966391,
				"y": -0.2369608672,
				"z": -0.5166259952,
				"element": "H" 
			},
			{
				"x": 2.808893305,
				"y": 0.9769127865,
				"z": 0.4484254504,
				"element": "H" 
			},
			{
				"x": 1.7864299236,
				"y": 1.4896457984,
				"z": -0.905622489,
				"element": "H" 
			},
			{
				"x": 0.7858891003,
				"y": 0.1736869245,
				"z": 1.6954013489,
				"element": "H" 
			},
			{
				"x": 0.6010319329,
				"y": 1.8876182788,
				"z": 1.2605324604,
				"element": "H" 
			},
			{
				"x": -2.2790133056,
				"y": -0.1153066399,
				"z": -2.4166342229,
				"element": "H" 
			},
			{
				"x": -3.7296692224,
				"y": -0.6354057051,
				"z": -1.5774360907,
				"element": "H" 
			},
			{
				"x": -3.4492246573,
				"y": 1.1123936102,
				"z": 0.1496711459,
				"element": "H" 
			},
			{
				"x": -3.1794261839,
				"y": 1.9448319834,
				"z": -1.3793746324,
				"element": "H" 
			},
			{
				"x": -0.6993730852,
				"y": -2.7429580278,
				"z": 0.5479042799,
				"element": "H" 
			}
		],
		 "valence_orbital": [ 
			{
				"type": "occ",
				"energy": -0.3369,
				"method": "rhf"
			},
			{
				"type": "occ",
				"energy": -0.31795,
				"method": "rhf"
			},
			{
				"type": "occ",
				"energy": -0.28361,
				"method": "rhf"
			},
			{
				"type": "occ",
				"energy": -0.2677,
				"method": "rhf"
			},
			{
				"type": "occ",
				"energy": -0.25541,
				"method": "rhf"
			},
			{
				"type": "unocc",
				"energy": -0.07587,
				"method": "rhf"
			},
			{
				"type": "unocc",
				"energy": 0.00465,
				"method": "rhf"
			},
			{
				"type": "unocc",
				"energy": 0.06074,
				"method": "rhf"
			},
			{
				"type": "unocc",
				"energy": 0.08507,
				"method": "rhf"
			},
			{
				"type": "unocc",
				"energy": 0.10263,
				"method": "rhf"
			}
		],
		"cosmo_sigma_profile": { 
			"-0.025": 0.0,
			"-0.024": 0.0,
			"-0.023": 0.0,
			"-0.022": 0.0,
			"-0.021": 0.0,
			"-0.02": 0.0,
			"-0.019": 0.0,
			"-0.018": 0.0,
			"-0.017": 0.0,
			"-0.016": 0.0,
			"-0.015": 0.0,
			"-0.014": 0.416924587825,
			"-0.013": 0.583239467043,
			"-0.012": 0.449722407139,
			"-0.011": 0.962012974275,
			"-0.01": 0.639556254657,
			"-0.009": 0.389419899969,
			"-0.008": 1.17466251092,
			"-0.007": 8.75286839042,
			"-0.006": 13.8505262979,
			"-0.005": 17.0259089149,
			"-0.004": 20.4457140971,
			"-0.003": 22.3573853527,
			"-0.002": 19.4461566733,
			"-0.001": 15.8357324879,
			"0.0": 14.6527166136,
			"0.001": 8.26815375074,
			"0.002": 5.09681994522,
			"0.003": 3.9150053224,
			"0.004": 3.22714155883,
			"0.005": 3.28773611761,
			"0.006": 3.84550956326,
			"0.007": 4.15190713692,
			"0.008": 4.27251176133,
			"0.009": 5.71491974005,
			"0.01": 6.82142170622,
			"0.011": 7.77742501762,
			"0.012": 8.28657126002,
			"0.013": 2.50275210311,
			"0.014": 0.0896555430585,
			"0.015": 0.0,
			"0.016": 0.0,
			"0.017": 0.0,
			"0.018": 0.0,
			"0.019": 0.0,
			"0.02": 0.0,
			"0.021": 0.0,
			"0.022": 0.0,
			"0.023": 0.0,
			"0.024": 0.0,
			"0.025": 0.0
		}
	}
}
