{
	 "smiles": "ClCC1=CC=C(C=C1)C1=CC=CC=C1", 
	 "Tm": 345.15, 
	 "num_atms": 25, 
	 "gaussian": { 
		 "optdone": 1, 
		 "sigma_profile": "yes", 
		 "theory": "DFT", 
		 "functional": "B3LYP", 
		 "basiset": "6-31G**", 
		 "properties": { 
			 "R2extent": 5110.5534, 
			 "electric_dipole_moment_norm": 2.60452542318, 
			 "electric_quadrupole_moment_norm": 11.9939879089, 
			 "total_energy": -962.220520399, 
			 "HOMO_LUMO_gap": 0.18575, 
			 "cosmo_polarized_energy": -7.98, 
			 "cosmo_cavitation_energy": 30.64, 
			 "cosmo_dispersion_energy": -22.34, 
			 "cosmo_repulsion_energy": 1.75, 
			 "cosmo_total_nonelectrostatic_energy": 10.05, 
			 "SMD_solvation_energy": 4.57 
		},
		"coords": [
			{
				"x": 4.2700057376,
				"y": -1.915114673,
				"z": 2.969900958,
				"element": "Cl" 
			},
			{
				"x": 4.0702441108,
				"y": -0.2024693411,
				"z": 2.3226402724,
				"element": "C" 
			},
			{
				"x": 2.9285714873,
				"y": -0.0816873548,
				"z": 1.3613402607,
				"element": "C" 
			},
			{
				"x": 3.1207831995,
				"y": -0.2936122417,
				"z": -0.0099074447,
				"element": "C" 
			},
			{
				"x": 2.061259725,
				"y": -0.1759280562,
				"z": -0.9044893825,
				"element": "C" 
			},
			{
				"x": 0.7699983625,
				"y": 0.1555625187,
				"z": -0.4586742197,
				"element": "C" 
			},
			{
				"x": 0.5834145407,
				"y": 0.3651535537,
				"z": 0.9185697768,
				"element": "C" 
			},
			{
				"x": 1.6441702806,
				"y": 0.2485412147,
				"z": 1.8120482193,
				"element": "C" 
			},
			{
				"x": -0.3603132083,
				"y": 0.2828961689,
				"z": -1.4129923034,
				"element": "C" 
			},
			{
				"x": -0.4803187171,
				"y": -0.5882193669,
				"z": -2.5094377487,
				"element": "C" 
			},
			{
				"x": -1.5415562187,
				"y": -0.4692389286,
				"z": -3.4055806598,
				"element": "C" 
			},
			{
				"x": -2.5066881542,
				"y": 0.5234032448,
				"z": -3.2250966429,
				"element": "C" 
			},
			{
				"x": -2.40087366,
				"y": 1.3959857125,
				"z": -2.1403361878,
				"element": "C" 
			},
			{
				"x": -1.3393731691,
				"y": 1.2770680565,
				"z": -1.2444583373,
				"element": "C" 
			},
			{
				"x": 3.930671867,
				"y": 0.4204759114,
				"z": 3.2061860779,
				"element": "H" 
			},
			{
				"x": 5.0260361136,
				"y": 0.0378129608,
				"z": 1.8567924803,
				"element": "H" 
			},
			{
				"x": 4.1112810551,
				"y": -0.5459119194,
				"z": -0.3799803174,
				"element": "H" 
			},
			{
				"x": 2.2403442468,
				"y": -0.3151186402,
				"z": -1.9662734323,
				"element": "H" 
			},
			{
				"x": -0.4083197127,
				"y": 0.5983218633,
				"z": 1.2939688867,
				"element": "H" 
			},
			{
				"x": 1.4720211723,
				"y": 0.4042817117,
				"z": 2.8740379083,
				"element": "H" 
			},
			{
				"x": 0.2494491956,
				"y": -1.3812578555,
				"z": -2.6435020292,
				"element": "H" 
			},
			{
				"x": -1.6194192699,
				"y": -1.159079406,
				"z": -4.2411787629,
				"element": "H" 
			},
			{
				"x": -3.3336411457,
				"y": 0.6159204404,
				"z": -3.9230985702,
				"element": "H" 
			},
			{
				"x": -3.1418176943,
				"y": 2.1771337808,
				"z": -1.9953884793,
				"element": "H" 
			},
			{
				"x": -1.2520301442,
				"y": 1.9778806453,
				"z": -0.4193903222,
				"element": "H" 
			}
		],
		 "valence_orbital": [ 
			{
				"type": "occ",
				"energy": -0.29088,
				"method": "rhf"
			},
			{
				"type": "occ",
				"energy": -0.2755,
				"method": "rhf"
			},
			{
				"type": "occ",
				"energy": -0.25865,
				"method": "rhf"
			},
			{
				"type": "occ",
				"energy": -0.2541,
				"method": "rhf"
			},
			{
				"type": "occ",
				"energy": -0.2285,
				"method": "rhf"
			},
			{
				"type": "unocc",
				"energy": -0.04275,
				"method": "rhf"
			},
			{
				"type": "unocc",
				"energy": -0.01104,
				"method": "rhf"
			},
			{
				"type": "unocc",
				"energy": -0.00479,
				"method": "rhf"
			},
			{
				"type": "unocc",
				"energy": 0.00684,
				"method": "rhf"
			},
			{
				"type": "unocc",
				"energy": 0.04959,
				"method": "rhf"
			}
		],
		"cosmo_sigma_profile": { 
			"-0.025": 0.0,
			"-0.024": 0.0,
			"-0.023": 0.0,
			"-0.022": 0.0,
			"-0.021": 0.0,
			"-0.02": 0.0,
			"-0.019": 0.0,
			"-0.018": 0.0,
			"-0.017": 0.0,
			"-0.016": 0.0,
			"-0.015": 0.0,
			"-0.014": 0.0,
			"-0.013": 0.0,
			"-0.012": 0.0,
			"-0.011": 0.0,
			"-0.01": 0.0,
			"-0.009": 0.0,
			"-0.008": 1.31422887731,
			"-0.007": 7.0924817179,
			"-0.006": 15.8935076563,
			"-0.005": 23.1229291565,
			"-0.004": 23.4556959351,
			"-0.003": 18.133507141,
			"-0.002": 13.8938362681,
			"-0.001": 12.003539953,
			"0.0": 12.8261870587,
			"0.001": 15.8638813443,
			"0.002": 16.3193524964,
			"0.003": 19.8077172667,
			"0.004": 22.9962625856,
			"0.005": 21.7455827185,
			"0.006": 13.3022719516,
			"0.007": 9.50424202977,
			"0.008": 0.135490869167,
			"0.009": 0.0,
			"0.01": 0.0,
			"0.011": 0.0,
			"0.012": 0.0,
			"0.013": 0.0,
			"0.014": 0.0,
			"0.015": 0.0,
			"0.016": 0.0,
			"0.017": 0.0,
			"0.018": 0.0,
			"0.019": 0.0,
			"0.02": 0.0,
			"0.021": 0.0,
			"0.022": 0.0,
			"0.023": 0.0,
			"0.024": 0.0,
			"0.025": 0.0
		}
	}
}
