{
	 "smiles": "[O-][N+](=O)C1=CC=CC(=C1)C(=O)N=C=S", 
	 "Tm": 367.15, 
	 "num_atms": 18, 
	 "gaussian": { 
		 "optdone": 1, 
		 "sigma_profile": "yes", 
		 "theory": "DFT", 
		 "functional": "B3LYP", 
		 "basiset": "6-31G**", 
		 "properties": { 
			 "R2extent": 4847.5131, 
			 "electric_dipole_moment_norm": 2.74058287778, 
			 "electric_quadrupole_moment_norm": 19.4660316523, 
			 "total_energy": -1040.51735542, 
			 "HOMO_LUMO_gap": 0.17626, 
			 "cosmo_polarized_energy": -9.36, 
			 "cosmo_cavitation_energy": 27.73, 
			 "cosmo_dispersion_energy": -20.26, 
			 "cosmo_repulsion_energy": 1.56, 
			 "cosmo_total_nonelectrostatic_energy": 9.03, 
			 "SMD_solvation_energy": 8.19 
		},
		"coords": [
			{
				"x": 0.3344678993,
				"y": 1.1509133477,
				"z": 3.8763464898,
				"element": "O" 
			},
			{
				"x": -0.3408179131,
				"y": 0.4517620703,
				"z": 3.1234510063,
				"element": "N" 
			},
			{
				"x": -1.4795483141,
				"y": 0.0545570176,
				"z": 3.3605813185,
				"element": "O" 
			},
			{
				"x": 0.2632447557,
				"y": 0.0596798592,
				"z": 1.8359011846,
				"element": "C" 
			},
			{
				"x": 1.5534198332,
				"y": 0.4945419877,
				"z": 1.5372683638,
				"element": "C" 
			},
			{
				"x": 2.1201678173,
				"y": 0.120964656,
				"z": 0.3181546626,
				"element": "C" 
			},
			{
				"x": 1.401158136,
				"y": -0.670857525,
				"z": -0.5741928873,
				"element": "C" 
			},
			{
				"x": 0.102668956,
				"y": -1.0987319308,
				"z": -0.2546898729,
				"element": "C" 
			},
			{
				"x": -0.4763704534,
				"y": -0.7312324591,
				"z": 0.9635585755,
				"element": "C" 
			},
			{
				"x": -0.6194703241,
				"y": -1.9422818658,
				"z": -1.244125949,
				"element": "C" 
			},
			{
				"x": -0.1552993834,
				"y": -2.2838022196,
				"z": -2.3111248944,
				"element": "O" 
			},
			{
				"x": -1.9205617797,
				"y": -2.323822772,
				"z": -0.8332488471,
				"element": "N" 
			},
			{
				"x": -2.8358863239,
				"y": -2.9788131375,
				"z": -1.2893890585,
				"element": "C" 
			},
			{
				"x": -4.084464395,
				"y": -3.7978360683,
				"z": -1.7691045895,
				"element": "S" 
			},
			{
				"x": 2.0847874955,
				"y": 1.1090793714,
				"z": 2.253301232,
				"element": "H" 
			},
			{
				"x": 3.1233631001,
				"y": 0.4497450941,
				"z": 0.0678531017,
				"element": "H" 
			},
			{
				"x": 1.8247284444,
				"y": -0.9713019569,
				"z": -1.5264275277,
				"element": "H" 
			},
			{
				"x": -1.4754875509,
				"y": -1.0474634691,
				"z": 1.2344876915,
				"element": "H" 
			}
		],
		 "valence_orbital": [ 
			{
				"type": "occ",
				"energy": -0.3039,
				"method": "rhf"
			},
			{
				"type": "occ",
				"energy": -0.30053,
				"method": "rhf"
			},
			{
				"type": "occ",
				"energy": -0.29943,
				"method": "rhf"
			},
			{
				"type": "occ",
				"energy": -0.28532,
				"method": "rhf"
			},
			{
				"type": "occ",
				"energy": -0.28412,
				"method": "rhf"
			},
			{
				"type": "unocc",
				"energy": -0.10786,
				"method": "rhf"
			},
			{
				"type": "unocc",
				"energy": -0.09488,
				"method": "rhf"
			},
			{
				"type": "unocc",
				"energy": -0.058,
				"method": "rhf"
			},
			{
				"type": "unocc",
				"energy": -0.03913,
				"method": "rhf"
			},
			{
				"type": "unocc",
				"energy": -0.01268,
				"method": "rhf"
			}
		],
		"cosmo_sigma_profile": { 
			"-0.025": 0.0,
			"-0.024": 0.0,
			"-0.023": 0.0,
			"-0.022": 0.0,
			"-0.021": 0.0,
			"-0.02": 0.0,
			"-0.019": 0.0,
			"-0.018": 0.0,
			"-0.017": 0.0,
			"-0.016": 0.0,
			"-0.015": 0.0,
			"-0.014": 0.0,
			"-0.013": 0.0,
			"-0.012": 0.0,
			"-0.011": 0.0,
			"-0.01": 0.0,
			"-0.009": 0.586867642114,
			"-0.008": 5.18281810992,
			"-0.007": 8.10179465541,
			"-0.006": 7.40037257335,
			"-0.005": 10.9153112337,
			"-0.004": 15.0155809892,
			"-0.003": 19.3759409487,
			"-0.002": 26.2622551522,
			"-0.001": 27.9427658287,
			"0.0": 21.6892816764,
			"0.001": 16.6442096692,
			"0.002": 18.0839780595,
			"0.003": 5.63833715513,
			"0.004": 5.13666862384,
			"0.005": 3.58298165212,
			"0.006": 5.94310466231,
			"0.007": 11.5372275207,
			"0.008": 6.99896831994,
			"0.009": 7.51952615313,
			"0.01": 4.7812872917,
			"0.011": 0.369090122689,
			"0.012": 0.0,
			"0.013": 0.0,
			"0.014": 0.0,
			"0.015": 0.0,
			"0.016": 0.0,
			"0.017": 0.0,
			"0.018": 0.0,
			"0.019": 0.0,
			"0.02": 0.0,
			"0.021": 0.0,
			"0.022": 0.0,
			"0.023": 0.0,
			"0.024": 0.0,
			"0.025": 0.0
		}
	}
}
