{
	 "smiles": "COC1=CC2=CC=C(C)N=C2C=C1", 
	 "Tm": 337.15, 
	 "num_atms": 24, 
	 "gaussian": { 
		 "optdone": 1, 
		 "sigma_profile": "yes", 
		 "theory": "DFT", 
		 "functional": "B3LYP", 
		 "basiset": "6-31G**", 
		 "properties": { 
			 "R2extent": 3041.584, 
			 "electric_dipole_moment_norm": 1.3257905453, 
			 "electric_quadrupole_moment_norm": 13.6567200821, 
			 "total_energy": -555.778383968, 
			 "HOMO_LUMO_gap": 0.16414, 
			 "cosmo_polarized_energy": -8.64, 
			 "cosmo_cavitation_energy": 27.5, 
			 "cosmo_dispersion_energy": -20.57, 
			 "cosmo_repulsion_energy": 1.61, 
			 "cosmo_total_nonelectrostatic_energy": 8.54, 
			 "SMD_solvation_energy": 3.93 
		},
		"coords": [
			{
				"x": -3.033498446,
				"y": -2.1020443199,
				"z": 3.3595216034,
				"element": "C" 
			},
			{
				"x": -2.8503458897,
				"y": -0.9915864019,
				"z": 2.496130321,
				"element": "O" 
			},
			{
				"x": -1.7646048737,
				"y": -0.9756453144,
				"z": 1.6672536387,
				"element": "C" 
			},
			{
				"x": -1.6359217041,
				"y": 0.132238307,
				"z": 0.8462791192,
				"element": "C" 
			},
			{
				"x": -0.546931462,
				"y": 0.240213972,
				"z": -0.0453882876,
				"element": "C" 
			},
			{
				"x": -0.3529421553,
				"y": 1.3483263221,
				"z": -0.9158921905,
				"element": "C" 
			},
			{
				"x": 0.7349310489,
				"y": 1.368104013,
				"z": -1.7492224831,
				"element": "C" 
			},
			{
				"x": 1.6599481085,
				"y": 0.2791143689,
				"z": -1.7350823966,
				"element": "C" 
			},
			{
				"x": 2.8587603489,
				"y": 0.2974953569,
				"z": -2.6511944411,
				"element": "C" 
			},
			{
				"x": 1.5113328185,
				"y": -0.764127318,
				"z": -0.9411487875,
				"element": "N" 
			},
			{
				"x": 0.4322270095,
				"y": -0.8016168083,
				"z": -0.1028934958,
				"element": "C" 
			},
			{
				"x": 0.2723907127,
				"y": -1.9211185624,
				"z": 0.7492966099,
				"element": "C" 
			},
			{
				"x": -0.7966552756,
				"y": -2.0133318667,
				"z": 1.6156438931,
				"element": "C" 
			},
			{
				"x": -3.9491828758,
				"y": -1.8995712232,
				"z": 3.9174170468,
				"element": "H" 
			},
			{
				"x": -2.2008103281,
				"y": -2.2118025441,
				"z": 4.0662879296,
				"element": "H" 
			},
			{
				"x": -3.1549989159,
				"y": -3.038745312,
				"z": 2.8002651165,
				"element": "H" 
			},
			{
				"x": -2.3855905631,
				"y": 0.9160062613,
				"z": 0.8992419459,
				"element": "H" 
			},
			{
				"x": -1.0697154938,
				"y": 2.1658439086,
				"z": -0.9096705151,
				"element": "H" 
			},
			{
				"x": 0.9044110599,
				"y": 2.2033520211,
				"z": -2.4229252549,
				"element": "H" 
			},
			{
				"x": 3.4482977074,
				"y": -0.608516299,
				"z": -2.5034839049,
				"element": "H" 
			},
			{
				"x": 3.4942396732,
				"y": 1.1693699552,
				"z": -2.4548588838,
				"element": "H" 
			},
			{
				"x": 2.5530453505,
				"y": 0.3534637863,
				"z": -3.7028363796,
				"element": "H" 
			},
			{
				"x": 1.0205686011,
				"y": -2.70551438,
				"z": 0.6978427841,
				"element": "H" 
			},
			{
				"x": -0.8909544561,
				"y": -2.8830079226,
				"z": 2.2552170124,
				"element": "H" 
			}
		],
		 "valence_orbital": [ 
			{
				"type": "occ",
				"energy": -0.30141,
				"method": "rhf"
			},
			{
				"type": "occ",
				"energy": -0.29288,
				"method": "rhf"
			},
			{
				"type": "occ",
				"energy": -0.24463,
				"method": "rhf"
			},
			{
				"type": "occ",
				"energy": -0.23705,
				"method": "rhf"
			},
			{
				"type": "occ",
				"energy": -0.20771,
				"method": "rhf"
			},
			{
				"type": "unocc",
				"energy": -0.04357,
				"method": "rhf"
			},
			{
				"type": "unocc",
				"energy": -0.00279,
				"method": "rhf"
			},
			{
				"type": "unocc",
				"energy": 0.02832,
				"method": "rhf"
			},
			{
				"type": "unocc",
				"energy": 0.09509,
				"method": "rhf"
			},
			{
				"type": "unocc",
				"energy": 0.0961,
				"method": "rhf"
			}
		],
		"cosmo_sigma_profile": { 
			"-0.025": 0.0,
			"-0.024": 0.0,
			"-0.023": 0.0,
			"-0.022": 0.0,
			"-0.021": 0.0,
			"-0.02": 0.0,
			"-0.019": 0.0,
			"-0.018": 0.0,
			"-0.017": 0.0,
			"-0.016": 0.0,
			"-0.015": 0.0,
			"-0.014": 0.0,
			"-0.013": 0.0,
			"-0.012": 0.0,
			"-0.011": 0.0,
			"-0.01": 0.0,
			"-0.009": 0.0,
			"-0.008": 0.0,
			"-0.007": 2.89912609322,
			"-0.006": 14.1417996834,
			"-0.005": 19.4351498499,
			"-0.004": 22.3718412591,
			"-0.003": 21.0486935525,
			"-0.002": 15.2147997394,
			"-0.001": 14.4950872718,
			"0.0": 13.6406588014,
			"0.001": 12.8344777901,
			"0.002": 15.9513818486,
			"0.003": 23.6491780779,
			"0.004": 17.7303824134,
			"0.005": 5.38861289521,
			"0.006": 4.19974948686,
			"0.007": 2.45102951479,
			"0.008": 3.52936073244,
			"0.009": 2.77974741599,
			"0.01": 2.74472730111,
			"0.011": 1.13772494321,
			"0.012": 0.298661793091,
			"0.013": 1.23952864813,
			"0.014": 0.893798852109,
			"0.015": 0.456174250434,
			"0.016": 0.605352299872,
			"0.017": 0.0252145510032,
			"0.018": 0.0,
			"0.019": 0.0,
			"0.02": 0.0,
			"0.021": 0.0,
			"0.022": 0.0,
			"0.023": 0.0,
			"0.024": 0.0,
			"0.025": 0.0
		}
	}
}
