{
	 "smiles": "CC(=O)NC1=C(C)C=CC(N)=C1", 
	 "Tm": 415.15, 
	 "num_atms": 24, 
	 "gaussian": { 
		 "optdone": 1, 
		 "sigma_profile": "yes", 
		 "theory": "DFT", 
		 "functional": "B3LYP", 
		 "basiset": "6-31G**", 
		 "properties": { 
			 "R2extent": 2443.2039, 
			 "electric_dipole_moment_norm": 2.49238033414, 
			 "electric_quadrupole_moment_norm": 17.0474519436, 
			 "total_energy": -534.9485489, 
			 "HOMO_LUMO_gap": 0.18544, 
			 "cosmo_polarized_energy": -15.38, 
			 "cosmo_cavitation_energy": 27.2, 
			 "cosmo_dispersion_energy": -19.99, 
			 "cosmo_repulsion_energy": 1.6, 
			 "cosmo_total_nonelectrostatic_energy": 8.81, 
			 "SMD_solvation_energy": 5.31 
		},
		"coords": [
			{
				"x": -2.1913100533,
				"y": -0.2113080808,
				"z": -3.0692156749,
				"element": "C" 
			},
			{
				"x": -0.902535805,
				"y": -0.3010980051,
				"z": -2.2605860545,
				"element": "C" 
			},
			{
				"x": 0.10370241,
				"y": -0.8129347932,
				"z": -2.7323579947,
				"element": "O" 
			},
			{
				"x": -0.9917314524,
				"y": 0.2288066554,
				"z": -0.9922880049,
				"element": "N" 
			},
			{
				"x": -0.0088890829,
				"y": 0.305937343,
				"z": 0.021954526,
				"element": "C" 
			},
			{
				"x": -0.3716958531,
				"y": 0.9481062223,
				"z": 1.2296552397,
				"element": "C" 
			},
			{
				"x": -1.7486687758,
				"y": 1.53311216,
				"z": 1.442577444,
				"element": "C" 
			},
			{
				"x": 0.5993029198,
				"y": 1.0265529664,
				"z": 2.2301301947,
				"element": "C" 
			},
			{
				"x": 1.8791384022,
				"y": 0.5026090883,
				"z": 2.0728942216,
				"element": "C" 
			},
			{
				"x": 2.2253763089,
				"y": -0.1328662584,
				"z": 0.8713624392,
				"element": "C" 
			},
			{
				"x": 3.4826079558,
				"y": -0.7190533845,
				"z": 0.7075379204,
				"element": "N" 
			},
			{
				"x": 1.2718538764,
				"y": -0.2258233175,
				"z": -0.1541216989,
				"element": "C" 
			},
			{
				"x": -1.9717305131,
				"y": 0.2847439674,
				"z": -4.0181402768,
				"element": "H" 
			},
			{
				"x": -2.5279337104,
				"y": -1.2253619531,
				"z": -3.3033730808,
				"element": "H" 
			},
			{
				"x": -3.0039305108,
				"y": 0.3228047986,
				"z": -2.5685510333,
				"element": "H" 
			},
			{
				"x": -1.886856857,
				"y": 0.6214060669,
				"z": -0.7475377173,
				"element": "H" 
			},
			{
				"x": -1.8213731704,
				"y": 1.9858988958,
				"z": 2.4345837698,
				"element": "H" 
			},
			{
				"x": -2.5436988756,
				"y": 0.7761818454,
				"z": 1.3814283125,
				"element": "H" 
			},
			{
				"x": -1.9899688039,
				"y": 2.3210994419,
				"z": 0.7151507576,
				"element": "H" 
			},
			{
				"x": 0.3427296642,
				"y": 1.5179944769,
				"z": 3.1656094413,
				"element": "H" 
			},
			{
				"x": 2.6049206578,
				"y": 0.579024925,
				"z": 2.8781642447,
				"element": "H" 
			},
			{
				"x": 4.2201396813,
				"y": -0.3142593769,
				"z": 1.2674950296,
				"element": "H" 
			},
			{
				"x": 3.7674451045,
				"y": -0.8525715935,
				"z": -0.2530634728,
				"element": "H" 
			},
			{
				"x": 1.5134064829,
				"y": -0.7099020905,
				"z": -1.0906085322,
				"element": "H" 
			}
		],
		 "valence_orbital": [ 
			{
				"type": "occ",
				"energy": -0.31435,
				"method": "rhf"
			},
			{
				"type": "occ",
				"energy": -0.27809,
				"method": "rhf"
			},
			{
				"type": "occ",
				"energy": -0.24711,
				"method": "rhf"
			},
			{
				"type": "occ",
				"energy": -0.21751,
				"method": "rhf"
			},
			{
				"type": "occ",
				"energy": -0.19024,
				"method": "rhf"
			},
			{
				"type": "unocc",
				"energy": -0.0048,
				"method": "rhf"
			},
			{
				"type": "unocc",
				"energy": 0.02146,
				"method": "rhf"
			},
			{
				"type": "unocc",
				"energy": 0.05553,
				"method": "rhf"
			},
			{
				"type": "unocc",
				"energy": 0.06744,
				"method": "rhf"
			},
			{
				"type": "unocc",
				"energy": 0.09091,
				"method": "rhf"
			}
		],
		"cosmo_sigma_profile": { 
			"-0.025": 0.0,
			"-0.024": 0.0,
			"-0.023": 0.0,
			"-0.022": 0.0,
			"-0.021": 0.0,
			"-0.02": 0.0,
			"-0.019": 0.0,
			"-0.018": 0.0,
			"-0.017": 0.0,
			"-0.016": 0.0,
			"-0.015": 0.0,
			"-0.014": 0.0426894998148,
			"-0.013": 0.989245325626,
			"-0.012": 3.07665921016,
			"-0.011": 3.84274946024,
			"-0.01": 3.87519522901,
			"-0.009": 5.15161581902,
			"-0.008": 4.55602568117,
			"-0.007": 4.88103125218,
			"-0.006": 6.47630269495,
			"-0.005": 14.3748588361,
			"-0.004": 15.9924932017,
			"-0.003": 15.9397943848,
			"-0.002": 19.9038542005,
			"-0.001": 14.7079309601,
			"0.0": 13.1949132534,
			"0.001": 9.13291154637,
			"0.002": 7.55469404523,
			"0.003": 9.00550954509,
			"0.004": 9.22732058068,
			"0.005": 9.75105924348,
			"0.006": 11.2834042991,
			"0.007": 9.79653311241,
			"0.008": 3.50179961749,
			"0.009": 2.35073292522,
			"0.01": 3.26325727648,
			"0.011": 1.62590804758,
			"0.012": 3.6627427824,
			"0.013": 3.88164228999,
			"0.014": 2.87674445198,
			"0.015": 0.785335944655,
			"0.016": 0.0199565920317,
			"0.017": 0.0,
			"0.018": 0.0,
			"0.019": 0.0,
			"0.02": 0.0,
			"0.021": 0.0,
			"0.022": 0.0,
			"0.023": 0.0,
			"0.024": 0.0,
			"0.025": 0.0
		}
	}
}
