{
	 "smiles": "CN(C=O)C1=CC=C(C=C1)C(=O)CCl", 
	 "Tm": 370.15, 
	 "num_atms": 24, 
	 "gaussian": { 
		 "optdone": 1, 
		 "sigma_profile": "yes", 
		 "theory": "DFT", 
		 "functional": "B3LYP", 
		 "basiset": "6-31G**", 
		 "properties": { 
			 "R2extent": 5664.4963, 
			 "electric_dipole_moment_norm": 5.81356953515, 
			 "electric_quadrupole_moment_norm": 16.9010440299, 
			 "total_energy": -1052.4834949, 
			 "HOMO_LUMO_gap": 0.16638, 
			 "cosmo_polarized_energy": -15.34, 
			 "cosmo_cavitation_energy": 29.78, 
			 "cosmo_dispersion_energy": -21.82, 
			 "cosmo_repulsion_energy": 1.69, 
			 "cosmo_total_nonelectrostatic_energy": 9.65, 
			 "SMD_solvation_energy": 6.79 
		},
		"coords": [
			{
				"x": 1.017361752,
				"y": 2.3660495522,
				"z": 2.8961718672,
				"element": "C" 
			},
			{
				"x": 1.1863395936,
				"y": 2.2522321011,
				"z": 1.4466854379,
				"element": "N" 
			},
			{
				"x": 2.4037954966,
				"y": 2.668650834,
				"z": 0.9259924036,
				"element": "C" 
			},
			{
				"x": 2.7569144337,
				"y": 2.6572381147,
				"z": -0.2364284572,
				"element": "O" 
			},
			{
				"x": 0.1171090036,
				"y": 1.726705497,
				"z": 0.6775579788,
				"element": "C" 
			},
			{
				"x": -1.0544257234,
				"y": 1.2938804456,
				"z": 1.3301545999,
				"element": "C" 
			},
			{
				"x": -2.1245153643,
				"y": 0.77811153,
				"z": 0.6076697932,
				"element": "C" 
			},
			{
				"x": -2.0670149575,
				"y": 0.6737456432,
				"z": -0.7883477205,
				"element": "C" 
			},
			{
				"x": -0.8970172844,
				"y": 1.1064282432,
				"z": -1.4343044589,
				"element": "C" 
			},
			{
				"x": 0.1787447945,
				"y": 1.6237725815,
				"z": -0.7298857976,
				"element": "C" 
			},
			{
				"x": -3.1617697383,
				"y": 0.1075700901,
				"z": -1.6178504858,
				"element": "C" 
			},
			{
				"x": -3.0578176241,
				"y": -0.0202823726,
				"z": -2.8282031557,
				"element": "O" 
			},
			{
				"x": -4.4534190474,
				"y": -0.3806183819,
				"z": -0.9509276841,
				"element": "C" 
			},
			{
				"x": -5.4494812385,
				"y": 0.9924119325,
				"z": -0.3000539347,
				"element": "Cl" 
			},
			{
				"x": 0.1689539491,
				"y": 3.0111624707,
				"z": 3.1439720163,
				"element": "H" 
			},
			{
				"x": 1.9183511926,
				"y": 2.8065357101,
				"z": 3.324116945,
				"element": "H" 
			},
			{
				"x": 0.8642215975,
				"y": 1.3848214017,
				"z": 3.3564354669,
				"element": "H" 
			},
			{
				"x": 3.066982398,
				"y": 3.0369754608,
				"z": 1.7300935635,
				"element": "H" 
			},
			{
				"x": -1.1477955977,
				"y": 1.3557907749,
				"z": 2.4060960659,
				"element": "H" 
			},
			{
				"x": -3.0122132942,
				"y": 0.4721875118,
				"z": 1.1504158976,
				"element": "H" 
			},
			{
				"x": -0.8483717266,
				"y": 1.0253399861,
				"z": -2.5150198822,
				"element": "H" 
			},
			{
				"x": 1.0670570265,
				"y": 1.9476844367,
				"z": -1.2490112892,
				"element": "H" 
			},
			{
				"x": -4.258073026,
				"y": -1.0556220698,
				"z": -0.1153666384,
				"element": "H" 
			},
			{
				"x": -5.0528166155,
				"y": -0.8796714939,
				"z": -1.7097625314,
				"element": "H" 
			}
		],
		 "valence_orbital": [ 
			{
				"type": "occ",
				"energy": -0.30428,
				"method": "rhf"
			},
			{
				"type": "occ",
				"energy": -0.27391,
				"method": "rhf"
			},
			{
				"type": "occ",
				"energy": -0.26679,
				"method": "rhf"
			},
			{
				"type": "occ",
				"energy": -0.25788,
				"method": "rhf"
			},
			{
				"type": "occ",
				"energy": -0.23827,
				"method": "rhf"
			},
			{
				"type": "unocc",
				"energy": -0.07189,
				"method": "rhf"
			},
			{
				"type": "unocc",
				"energy": -0.01569,
				"method": "rhf"
			},
			{
				"type": "unocc",
				"energy": -0.0121,
				"method": "rhf"
			},
			{
				"type": "unocc",
				"energy": 0.02065,
				"method": "rhf"
			},
			{
				"type": "unocc",
				"energy": 0.05911,
				"method": "rhf"
			}
		],
		"cosmo_sigma_profile": { 
			"-0.025": 0.0,
			"-0.024": 0.0,
			"-0.023": 0.0,
			"-0.022": 0.0,
			"-0.021": 0.0,
			"-0.02": 0.0,
			"-0.019": 0.0,
			"-0.018": 0.0,
			"-0.017": 0.0,
			"-0.016": 0.0,
			"-0.015": 0.0,
			"-0.014": 0.0,
			"-0.013": 0.0,
			"-0.012": 0.0,
			"-0.011": 0.0,
			"-0.01": 1.21684838203,
			"-0.009": 5.4893842004,
			"-0.008": 8.39828869988,
			"-0.007": 12.067902645,
			"-0.006": 17.0981190925,
			"-0.005": 15.2964400881,
			"-0.004": 16.1421318716,
			"-0.003": 16.9303251631,
			"-0.002": 9.31584540174,
			"-0.001": 12.5555602864,
			"0.0": 13.0065410858,
			"0.001": 15.0820583055,
			"0.002": 18.5659012957,
			"0.003": 21.5425993953,
			"0.004": 12.5419506699,
			"0.005": 11.2971916979,
			"0.006": 6.56943276199,
			"0.007": 3.03149447072,
			"0.008": 3.25758246346,
			"0.009": 3.46349914583,
			"0.01": 4.81608760572,
			"0.011": 6.59973401452,
			"0.012": 4.5108467253,
			"0.013": 1.49079364421,
			"0.014": 0.0527963595133,
			"0.015": 0.0,
			"0.016": 0.0,
			"0.017": 0.0,
			"0.018": 0.0,
			"0.019": 0.0,
			"0.02": 0.0,
			"0.021": 0.0,
			"0.022": 0.0,
			"0.023": 0.0,
			"0.024": 0.0,
			"0.025": 0.0
		}
	}
}
