{
	 "smiles": "COC1=CC=C(C=C1)C1CC2=CC=CC=C2C(C)(O)O1", 
	 "Tm": 375.15, 
	 "num_atms": 38, 
	 "gaussian": { 
		 "optdone": 1, 
		 "sigma_profile": "yes", 
		 "theory": "DFT", 
		 "functional": "B3LYP", 
		 "basiset": "6-31G**", 
		 "properties": { 
			 "R2extent": 6355.7388, 
			 "electric_dipole_moment_norm": 1.29315424061, 
			 "electric_quadrupole_moment_norm": 6.02679657861, 
			 "total_energy": -884.317909574, 
			 "HOMO_LUMO_gap": 0.20464, 
			 "cosmo_polarized_energy": -13.2, 
			 "cosmo_cavitation_energy": 39.53, 
			 "cosmo_dispersion_energy": -27.54, 
			 "cosmo_repulsion_energy": 2.11, 
			 "cosmo_total_nonelectrostatic_energy": 14.1, 
			 "SMD_solvation_energy": 6.98 
		},
		"coords": [
			{
				"x": 1.8750143826,
				"y": 3.8756498806,
				"z": 2.1911799157,
				"element": "C" 
			},
			{
				"x": 1.3115638415,
				"y": 2.8272085206,
				"z": 2.9616633098,
				"element": "O" 
			},
			{
				"x": 1.2390630809,
				"y": 1.5836588106,
				"z": 2.4011619884,
				"element": "C" 
			},
			{
				"x": 0.6658152548,
				"y": 0.585436671,
				"z": 3.2051901008,
				"element": "C" 
			},
			{
				"x": 0.551942983,
				"y": -0.7097069243,
				"z": 2.7241014959,
				"element": "C" 
			},
			{
				"x": 0.9944588641,
				"y": -1.0584047335,
				"z": 1.4357805229,
				"element": "C" 
			},
			{
				"x": 1.5630332721,
				"y": -0.0552581536,
				"z": 0.6512977473,
				"element": "C" 
			},
			{
				"x": 1.6913746434,
				"y": 1.2573749674,
				"z": 1.1200730936,
				"element": "C" 
			},
			{
				"x": 0.8473591491,
				"y": -2.5106807668,
				"z": 1.0001595144,
				"element": "C" 
			},
			{
				"x": 1.5377770865,
				"y": -2.9200194906,
				"z": -0.3032015969,
				"element": "C" 
			},
			{
				"x": 0.778596874,
				"y": -2.4229919464,
				"z": -1.5122362691,
				"element": "C" 
			},
			{
				"x": 1.4281155983,
				"y": -2.1940416055,
				"z": -2.7328374809,
				"element": "C" 
			},
			{
				"x": 0.7296112368,
				"y": -1.7110339379,
				"z": -3.8369267774,
				"element": "C" 
			},
			{
				"x": -0.6350728696,
				"y": -1.4339145994,
				"z": -3.7249021461,
				"element": "C" 
			},
			{
				"x": -1.2883607818,
				"y": -1.6574666167,
				"z": -2.5153215812,
				"element": "C" 
			},
			{
				"x": -0.5959023106,
				"y": -2.1678924131,
				"z": -1.4102604494,
				"element": "C" 
			},
			{
				"x": -1.348628539,
				"y": -2.4278052357,
				"z": -0.108194468,
				"element": "C" 
			},
			{
				"x": -2.4418353903,
				"y": -3.4923913981,
				"z": -0.2769287562,
				"element": "C" 
			},
			{
				"x": -1.9208406034,
				"y": -1.1833130129,
				"z": 0.263611472,
				"element": "O" 
			},
			{
				"x": -0.5288672042,
				"y": -2.9430543585,
				"z": 0.9336498039,
				"element": "O" 
			},
			{
				"x": 2.9214503044,
				"y": 3.6704551915,
				"z": 1.9296732308,
				"element": "H" 
			},
			{
				"x": 1.3055575002,
				"y": 4.0533172536,
				"z": 1.2696330402,
				"element": "H" 
			},
			{
				"x": 1.8312242549,
				"y": 4.7683677492,
				"z": 2.8173016808,
				"element": "H" 
			},
			{
				"x": 0.3258930692,
				"y": 0.8528847923,
				"z": 4.2006133728,
				"element": "H" 
			},
			{
				"x": 0.1072435396,
				"y": -1.4746950451,
				"z": 3.3561767575,
				"element": "H" 
			},
			{
				"x": 1.9079482768,
				"y": -0.2762550856,
				"z": -0.3531237519,
				"element": "H" 
			},
			{
				"x": 2.136549607,
				"y": 2.006896768,
				"z": 0.4764985089,
				"element": "H" 
			},
			{
				"x": 1.2474150719,
				"y": -3.1319526037,
				"z": 1.8093915149,
				"element": "H" 
			},
			{
				"x": 1.5807018816,
				"y": -4.016883896,
				"z": -0.3194747929,
				"element": "H" 
			},
			{
				"x": 2.5739689992,
				"y": -2.5659132884,
				"z": -0.3233973766,
				"element": "H" 
			},
			{
				"x": 2.4952527168,
				"y": -2.3903736292,
				"z": -2.8091090156,
				"element": "H" 
			},
			{
				"x": 1.2484497514,
				"y": -1.5395938306,
				"z": -4.7758921209,
				"element": "H" 
			},
			{
				"x": -1.1857626515,
				"y": -1.0403843282,
				"z": -4.5744305688,
				"element": "H" 
			},
			{
				"x": -2.3434718789,
				"y": -1.4221795691,
				"z": -2.418266508,
				"element": "H" 
			},
			{
				"x": -3.1982860982,
				"y": -3.1557906614,
				"z": -0.9890699559,
				"element": "H" 
			},
			{
				"x": -2.9206135724,
				"y": -3.6729881777,
				"z": 0.6914650641,
				"element": "H" 
			},
			{
				"x": -2.0144015164,
				"y": -4.4352520572,
				"z": -0.6271630561,
				"element": "H" 
			},
			{
				"x": -2.313637824,
				"y": -1.3132132395,
				"z": 1.1386145371,
				"element": "H" 
			}
		],
		 "valence_orbital": [ 
			{
				"type": "occ",
				"energy": -0.25995,
				"method": "rhf"
			},
			{
				"type": "occ",
				"energy": -0.24533,
				"method": "rhf"
			},
			{
				"type": "occ",
				"energy": -0.24349,
				"method": "rhf"
			},
			{
				"type": "occ",
				"energy": -0.2372,
				"method": "rhf"
			},
			{
				"type": "occ",
				"energy": -0.209,
				"method": "rhf"
			},
			{
				"type": "unocc",
				"energy": -0.00436,
				"method": "rhf"
			},
			{
				"type": "unocc",
				"energy": 0.00024,
				"method": "rhf"
			},
			{
				"type": "unocc",
				"energy": 0.00769,
				"method": "rhf"
			},
			{
				"type": "unocc",
				"energy": 0.0137,
				"method": "rhf"
			},
			{
				"type": "unocc",
				"energy": 0.08833,
				"method": "rhf"
			}
		],
		"cosmo_sigma_profile": { 
			"-0.025": 0.0,
			"-0.024": 0.0,
			"-0.023": 0.0,
			"-0.022": 0.0,
			"-0.021": 0.0,
			"-0.02": 0.0,
			"-0.019": 0.0,
			"-0.018": 0.0,
			"-0.017": 0.0,
			"-0.016": 0.0,
			"-0.015": 0.350986739525,
			"-0.014": 0.582368551667,
			"-0.013": 0.81032002504,
			"-0.012": 0.714408567796,
			"-0.011": 0.742715592484,
			"-0.01": 0.535125162849,
			"-0.009": 1.11033429452,
			"-0.008": 0.498483871473,
			"-0.007": 0.708887025897,
			"-0.006": 8.72072683375,
			"-0.005": 29.7648655728,
			"-0.004": 36.9302591793,
			"-0.003": 35.0486663418,
			"-0.002": 25.5019506246,
			"-0.001": 24.4313546614,
			"0.0": 20.4844924613,
			"0.001": 17.9467155797,
			"0.002": 14.0910103926,
			"0.003": 16.7010118861,
			"0.004": 17.156504368,
			"0.005": 18.452457071,
			"0.006": 14.0943817784,
			"0.007": 5.1642188437,
			"0.008": 4.5515910177,
			"0.009": 4.1228797167,
			"0.01": 3.92137777182,
			"0.011": 4.02631377691,
			"0.012": 2.96591611951,
			"0.013": 1.4341045257,
			"0.014": 0.26013181404,
			"0.015": 0.0,
			"0.016": 0.0,
			"0.017": 0.0,
			"0.018": 0.0,
			"0.019": 0.0,
			"0.02": 0.0,
			"0.021": 0.0,
			"0.022": 0.0,
			"0.023": 0.0,
			"0.024": 0.0,
			"0.025": 0.0
		}
	}
}
