{
	 "smiles": "CC1(C)C2CCC1(C)C(N=C/C1=CC=C(C=C1)[N+]([O-])=O)C2N=CC1=CC=C(C=C1)[N+]([O-])=O", 
	 "Tm": 443.15, 
	 "num_atms": 58, 
	 "gaussian": { 
		 "optdone": 1, 
		 "sigma_profile": "yes", 
		 "theory": "DFT", 
		 "functional": "B3LYP", 
		 "basiset": "6-31G**", 
		 "properties": { 
			 "R2extent": 18347.7473, 
			 "electric_dipole_moment_norm": 7.3751483402, 
			 "electric_quadrupole_moment_norm": 43.437032516, 
			 "total_energy": -1449.90142185, 
			 "HOMO_LUMO_gap": 0.15039, 
			 "cosmo_polarized_energy": -17.52, 
			 "cosmo_cavitation_energy": 59.85, 
			 "cosmo_dispersion_energy": -38.83, 
			 "cosmo_repulsion_energy": 2.88, 
			 "cosmo_total_nonelectrostatic_energy": 23.89, 
			 "SMD_solvation_energy": 12.66 
		},
		"coords": [
			{
				"x": -3.483167461,
				"y": 0.9797957094,
				"z": 2.8788558571,
				"element": "C" 
			},
			{
				"x": -2.4228539762,
				"y": 0.5880699543,
				"z": 1.8297165182,
				"element": "C" 
			},
			{
				"x": -1.0565663548,
				"y": 0.6968207299,
				"z": 2.5356565664,
				"element": "C" 
			},
			{
				"x": -2.6909742499,
				"y": -0.7890231815,
				"z": 1.14873065,
				"element": "C" 
			},
			{
				"x": -4.0613270735,
				"y": -0.5639229224,
				"z": 0.4688220822,
				"element": "C" 
			},
			{
				"x": -3.9449704036,
				"y": 0.9025568621,
				"z": -0.0491017544,
				"element": "C" 
			},
			{
				"x": -2.5593730246,
				"y": 1.3783100952,
				"z": 0.4729684663,
				"element": "C" 
			},
			{
				"x": -2.3956218935,
				"y": 2.8921420462,
				"z": 0.5116395509,
				"element": "C" 
			},
			{
				"x": -1.4626371904,
				"y": 0.6652233936,
				"z": -0.3865547095,
				"element": "C" 
			},
			{
				"x": -1.6436103843,
				"y": 0.889962803,
				"z": -1.8065357258,
				"element": "N" 
			},
			{
				"x": -0.7160826372,
				"y": 1.2877664308,
				"z": -2.5874371068,
				"element": "C" 
			},
			{
				"x": 0.727220395,
				"y": 1.5854258014,
				"z": -2.3580469252,
				"element": "C" 
			},
			{
				"x": 1.5654566656,
				"y": 0.8422037257,
				"z": -1.5069827315,
				"element": "C" 
			},
			{
				"x": 2.9110724554,
				"y": 1.1730247144,
				"z": -1.3724335273,
				"element": "C" 
			},
			{
				"x": 3.416935441,
				"y": 2.2511985891,
				"z": -2.0947986571,
				"element": "C" 
			},
			{
				"x": 2.6209183642,
				"y": 2.9970565402,
				"z": -2.962027505,
				"element": "C" 
			},
			{
				"x": 1.2823230468,
				"y": 2.6475628596,
				"z": -3.0956052829,
				"element": "C" 
			},
			{
				"x": 4.8386300391,
				"y": 2.6051187611,
				"z": -1.9489918318,
				"element": "N" 
			},
			{
				"x": 5.5173714893,
				"y": 1.9301584235,
				"z": -1.1762208829,
				"element": "O" 
			},
			{
				"x": 5.2591321005,
				"y": 3.5549995615,
				"z": -2.6083866284,
				"element": "O" 
			},
			{
				"x": -1.6609256014,
				"y": -0.8520279808,
				"z": -0.0255847193,
				"element": "C" 
			},
			{
				"x": -0.4070337372,
				"y": -1.4945480815,
				"z": 0.3302784158,
				"element": "N" 
			},
			{
				"x": -0.1508491884,
				"y": -2.6331962617,
				"z": -0.186503979,
				"element": "C" 
			},
			{
				"x": 1.0737205085,
				"y": -3.392955827,
				"z": 0.1235078153,
				"element": "C" 
			},
			{
				"x": 1.3131826823,
				"y": -4.6072129702,
				"z": -0.5394197583,
				"element": "C" 
			},
			{
				"x": 2.4584590398,
				"y": -5.3512639012,
				"z": -0.2721403295,
				"element": "C" 
			},
			{
				"x": 3.3603829196,
				"y": -4.8643589532,
				"z": 0.6706263363,
				"element": "C" 
			},
			{
				"x": 3.1504811251,
				"y": -3.6620251268,
				"z": 1.349404961,
				"element": "C" 
			},
			{
				"x": 2.003964781,
				"y": -2.930148395,
				"z": 1.0719915401,
				"element": "C" 
			},
			{
				"x": 4.5733473175,
				"y": -5.6462006304,
				"z": 0.9638855355,
				"element": "N" 
			},
			{
				"x": 4.7341416182,
				"y": -6.6999905337,
				"z": 0.3492199944,
				"element": "O" 
			},
			{
				"x": 5.3499613869,
				"y": -5.1973714309,
				"z": 1.8056581463,
				"element": "O" 
			},
			{
				"x": -4.498522805,
				"y": 1.0483193268,
				"z": 2.4852586452,
				"element": "H" 
			},
			{
				"x": -3.2367597749,
				"y": 1.9520986995,
				"z": 3.3191086643,
				"element": "H" 
			},
			{
				"x": -3.4924137851,
				"y": 0.2496815099,
				"z": 3.6961054389,
				"element": "H" 
			},
			{
				"x": -1.0836144717,
				"y": 0.1322255261,
				"z": 3.4746700736,
				"element": "H" 
			},
			{
				"x": -0.2257617879,
				"y": 0.3013493597,
				"z": 1.9527407554,
				"element": "H" 
			},
			{
				"x": -0.838908173,
				"y": 1.7392299704,
				"z": 2.7950410807,
				"element": "H" 
			},
			{
				"x": -2.6437869298,
				"y": -1.6661372772,
				"z": 1.801022153,
				"element": "H" 
			},
			{
				"x": -4.8780996376,
				"y": -0.6802611056,
				"z": 1.1863621061,
				"element": "H" 
			},
			{
				"x": -4.2416969841,
				"y": -1.2824248896,
				"z": -0.3367944848,
				"element": "H" 
			},
			{
				"x": -4.7449299364,
				"y": 1.5370686278,
				"z": 0.3440187305,
				"element": "H" 
			},
			{
				"x": -3.9821653444,
				"y": 0.9652480455,
				"z": -1.1381426689,
				"element": "H" 
			},
			{
				"x": -2.5063542632,
				"y": 3.3182114321,
				"z": -0.4915497681,
				"element": "H" 
			},
			{
				"x": -1.4093245499,
				"y": 3.1852866847,
				"z": 0.888863655,
				"element": "H" 
			},
			{
				"x": -3.1531316075,
				"y": 3.356609242,
				"z": 1.151820562,
				"element": "H" 
			},
			{
				"x": -0.4830767144,
				"y": 0.9936398045,
				"z": -0.0284401786,
				"element": "H" 
			},
			{
				"x": -1.0285368996,
				"y": 1.4815140253,
				"z": -3.6207014967,
				"element": "H" 
			},
			{
				"x": 1.176476923,
				"y": -0.0100311423,
				"z": -0.9620350498,
				"element": "H" 
			},
			{
				"x": 3.5719651795,
				"y": 0.6089391629,
				"z": -0.7263431532,
				"element": "H" 
			},
			{
				"x": 3.0572701134,
				"y": 3.8202323358,
				"z": -3.5136078401,
				"element": "H" 
			},
			{
				"x": 0.6490616609,
				"y": 3.2103649937,
				"z": -3.7758007982,
				"element": "H" 
			},
			{
				"x": -2.120832113,
				"y": -1.366284097,
				"z": -0.8829800483,
				"element": "H" 
			},
			{
				"x": -0.8402328114,
				"y": -3.1128607661,
				"z": -0.8999504243,
				"element": "H" 
			},
			{
				"x": 0.5959913079,
				"y": -4.9700582817,
				"z": -1.2705447375,
				"element": "H" 
			},
			{
				"x": 2.6639453372,
				"y": -6.2892131161,
				"z": -0.7722231523,
				"element": "H" 
			},
			{
				"x": 3.8806903456,
				"y": -3.328676537,
				"z": 2.0761629233,
				"element": "H" 
			},
			{
				"x": 1.804639522,
				"y": -1.9961223387,
				"z": 1.585348632,
				"element": "H" 
			}
		],
		 "valence_orbital": [ 
			{
				"type": "occ",
				"energy": -0.28612,
				"method": "rhf"
			},
			{
				"type": "occ",
				"energy": -0.27701,
				"method": "rhf"
			},
			{
				"type": "occ",
				"energy": -0.27403,
				"method": "rhf"
			},
			{
				"type": "occ",
				"energy": -0.26463,
				"method": "rhf"
			},
			{
				"type": "occ",
				"energy": -0.25523,
				"method": "rhf"
			},
			{
				"type": "unocc",
				"energy": -0.10484,
				"method": "rhf"
			},
			{
				"type": "unocc",
				"energy": -0.0998,
				"method": "rhf"
			},
			{
				"type": "unocc",
				"energy": -0.04925,
				"method": "rhf"
			},
			{
				"type": "unocc",
				"energy": -0.03818,
				"method": "rhf"
			},
			{
				"type": "unocc",
				"energy": -0.03593,
				"method": "rhf"
			}
		],
		"cosmo_sigma_profile": { 
			"-0.025": 0.0,
			"-0.024": 0.0,
			"-0.023": 0.0,
			"-0.022": 0.0,
			"-0.021": 0.0,
			"-0.02": 0.0,
			"-0.019": 0.0,
			"-0.018": 0.0,
			"-0.017": 0.0,
			"-0.016": 0.0,
			"-0.015": 0.0,
			"-0.014": 0.0,
			"-0.013": 0.0,
			"-0.012": 0.0,
			"-0.011": 0.0,
			"-0.01": 0.0,
			"-0.009": 0.127896562472,
			"-0.008": 6.12310637662,
			"-0.007": 15.9938538253,
			"-0.006": 20.3148019186,
			"-0.005": 18.0153161055,
			"-0.004": 19.8359986975,
			"-0.003": 33.2881803129,
			"-0.002": 56.4282984764,
			"-0.001": 60.4261709279,
			"0.0": 58.687572281,
			"0.001": 62.3323389845,
			"0.002": 32.7793247041,
			"0.003": 9.23023709301,
			"0.004": 8.0935132551,
			"0.005": 10.3701930829,
			"0.006": 10.3674774892,
			"0.007": 17.3964876721,
			"0.008": 16.6730888756,
			"0.009": 9.71199523491,
			"0.01": 5.46667015566,
			"0.011": 1.16633856387,
			"0.012": 0.572452187604,
			"0.013": 0.603726639721,
			"0.014": 0.0662395436472,
			"0.015": 0.0,
			"0.016": 0.0,
			"0.017": 0.0,
			"0.018": 0.0,
			"0.019": 0.0,
			"0.02": 0.0,
			"0.021": 0.0,
			"0.022": 0.0,
			"0.023": 0.0,
			"0.024": 0.0,
			"0.025": 0.0
		}
	}
}
