{
	 "smiles": "ClC(=O)C1=CC=C(Cl)C=C1", 
	 "Tm": 287.15, 
	 "num_atms": 14, 
	 "gaussian": { 
		 "optdone": 1, 
		 "sigma_profile": "yes", 
		 "theory": "DFT", 
		 "functional": "B3LYP", 
		 "basiset": "6-31G**", 
		 "properties": { 
			 "R2extent": 2668.5621, 
			 "electric_dipole_moment_norm": 2.46026790818, 
			 "electric_quadrupole_moment_norm": 10.8502505999, 
			 "total_energy": -1264.77227892, 
			 "HOMO_LUMO_gap": 0.18789, 
			 "cosmo_polarized_energy": -5.69, 
			 "cosmo_cavitation_energy": 22.56, 
			 "cosmo_dispersion_energy": -16.99, 
			 "cosmo_repulsion_energy": 1.38, 
			 "cosmo_total_nonelectrostatic_energy": 6.95, 
			 "SMD_solvation_energy": 4.24 
		},
		"coords": [
			{
				"x": -3.634814669,
				"y": 0.4397211381,
				"z": -0.3225067924,
				"element": "Cl" 
			},
			{
				"x": -2.1694800828,
				"y": -0.2029117338,
				"z": 0.5656795938,
				"element": "C" 
			},
			{
				"x": -2.319138067,
				"y": -0.6902673471,
				"z": 1.6457576014,
				"element": "O" 
			},
			{
				"x": -0.881746737,
				"y": -0.0596199557,
				"z": -0.1525887841,
				"element": "C" 
			},
			{
				"x": -0.7488633092,
				"y": 0.5203334309,
				"z": -1.4216754177,
				"element": "C" 
			},
			{
				"x": 0.5030888667,
				"y": 0.6136209368,
				"z": -2.0225388964,
				"element": "C" 
			},
			{
				"x": 1.6225105054,
				"y": 0.1236326796,
				"z": -1.3474277469,
				"element": "C" 
			},
			{
				"x": 3.1974249882,
				"y": 0.2401255186,
				"z": -2.1015660525,
				"element": "Cl" 
			},
			{
				"x": 1.5115610294,
				"y": -0.458146331,
				"z": -0.0815293523,
				"element": "C" 
			},
			{
				"x": 0.2584288849,
				"y": -0.5472449568,
				"z": 0.5109404196,
				"element": "C" 
			},
			{
				"x": -1.622666036,
				"y": 0.8978982486,
				"z": -1.938388284,
				"element": "H" 
			},
			{
				"x": 0.6132675745,
				"y": 1.0608517441,
				"z": -3.003700165,
				"element": "H" 
			},
			{
				"x": 2.3941079398,
				"y": -0.8321472375,
				"z": 0.4247173514,
				"element": "H" 
			},
			{
				"x": 0.1440191122,
				"y": -0.9939461349,
				"z": 1.4923265251,
				"element": "H" 
			}
		],
		 "valence_orbital": [ 
			{
				"type": "occ",
				"energy": -0.32567,
				"method": "rhf"
			},
			{
				"type": "occ",
				"energy": -0.32526,
				"method": "rhf"
			},
			{
				"type": "occ",
				"energy": -0.29971,
				"method": "rhf"
			},
			{
				"type": "occ",
				"energy": -0.28964,
				"method": "rhf"
			},
			{
				"type": "occ",
				"energy": -0.27434,
				"method": "rhf"
			},
			{
				"type": "unocc",
				"energy": -0.08645,
				"method": "rhf"
			},
			{
				"type": "unocc",
				"energy": -0.03763,
				"method": "rhf"
			},
			{
				"type": "unocc",
				"energy": 0.00956,
				"method": "rhf"
			},
			{
				"type": "unocc",
				"energy": 0.01434,
				"method": "rhf"
			},
			{
				"type": "unocc",
				"energy": 0.01596,
				"method": "rhf"
			}
		],
		"cosmo_sigma_profile": { 
			"-0.025": 0.0,
			"-0.024": 0.0,
			"-0.023": 0.0,
			"-0.022": 0.0,
			"-0.021": 0.0,
			"-0.02": 0.0,
			"-0.019": 0.0,
			"-0.018": 0.0,
			"-0.017": 0.0,
			"-0.016": 0.0,
			"-0.015": 0.0,
			"-0.014": 0.0,
			"-0.013": 0.0,
			"-0.012": 0.0,
			"-0.011": 0.0,
			"-0.01": 0.0,
			"-0.009": 0.373312363223,
			"-0.008": 5.32761062834,
			"-0.007": 8.09541351768,
			"-0.006": 6.08856655054,
			"-0.005": 6.59653450137,
			"-0.004": 8.5212262256,
			"-0.003": 10.837723084,
			"-0.002": 14.2638160072,
			"-0.001": 17.8145829632,
			"0.0": 23.0242761146,
			"0.001": 23.6287741944,
			"0.002": 13.0489805793,
			"0.003": 15.2560082656,
			"0.004": 15.6211093516,
			"0.005": 5.73180944785,
			"0.006": 2.77044854013,
			"0.007": 2.81013563571,
			"0.008": 3.97102207137,
			"0.009": 2.80682441169,
			"0.01": 0.286027517563,
			"0.011": 0.0,
			"0.012": 0.0,
			"0.013": 0.0,
			"0.014": 0.0,
			"0.015": 0.0,
			"0.016": 0.0,
			"0.017": 0.0,
			"0.018": 0.0,
			"0.019": 0.0,
			"0.02": 0.0,
			"0.021": 0.0,
			"0.022": 0.0,
			"0.023": 0.0,
			"0.024": 0.0,
			"0.025": 0.0
		}
	}
}
