{
	 "smiles": "CC1=CC(C(O)=O)=C(O)C(Br)=C1", 
	 "Tm": 475.15, 
	 "num_atms": 19, 
	 "gaussian": { 
		 "optdone": 1, 
		 "sigma_profile": "yes", 
		 "theory": "DFT", 
		 "functional": "B3LYP", 
		 "basiset": "6-31G**", 
		 "properties": { 
			 "R2extent": 3783.175, 
			 "electric_dipole_moment_norm": 5.17734094686, 
			 "electric_quadrupole_moment_norm": 16.007774593, 
			 "total_energy": -3106.16563252, 
			 "HOMO_LUMO_gap": 0.19166, 
			 "cosmo_polarized_energy": -12.7, 
			 "cosmo_cavitation_energy": 25.37, 
			 "cosmo_dispersion_energy": -19.55, 
			 "cosmo_repulsion_energy": 1.55, 
			 "cosmo_total_nonelectrostatic_energy": 7.36, 
			 "SMD_solvation_energy": 4.8 
		},
		"coords": [
			{
				"x": 0.0751612696,
				"y": -2.3864783288,
				"z": 1.9568138981,
				"element": "C" 
			},
			{
				"x": -0.0524053446,
				"y": -1.0308279693,
				"z": 1.3025207677,
				"element": "C" 
			},
			{
				"x": 0.4729284539,
				"y": -0.7864656845,
				"z": 0.0325564881,
				"element": "C" 
			},
			{
				"x": 0.3956718383,
				"y": 0.4653281619,
				"z": -0.5896980852,
				"element": "C" 
			},
			{
				"x": 1.0091594889,
				"y": 0.5714157823,
				"z": -1.9672318119,
				"element": "C" 
			},
			{
				"x": 0.9538083967,
				"y": 1.7585016115,
				"z": -2.5971295308,
				"element": "O" 
			},
			{
				"x": 1.5382171207,
				"y": -0.3819336338,
				"z": -2.4953549642,
				"element": "O" 
			},
			{
				"x": -0.2387606831,
				"y": 1.5213129733,
				"z": 0.0914048087,
				"element": "C" 
			},
			{
				"x": -0.323842894,
				"y": 2.7471012702,
				"z": -0.5038089654,
				"element": "O" 
			},
			{
				"x": -0.7694906055,
				"y": 1.2785338209,
				"z": 1.3636950511,
				"element": "C" 
			},
			{
				"x": -1.6385706869,
				"y": 2.7274182487,
				"z": 2.2736631336,
				"element": "Br" 
			},
			{
				"x": -0.6839902882,
				"y": 0.0292346848,
				"z": 1.9652062994,
				"element": "C" 
			},
			{
				"x": 1.0081622142,
				"y": -2.4639279962,
				"z": 2.5281922431,
				"element": "H" 
			},
			{
				"x": -0.7497220424,
				"y": -2.5765731079,
				"z": 2.6496552339,
				"element": "H" 
			},
			{
				"x": 0.0827301542,
				"y": -3.185524446,
				"z": 1.2104412701,
				"element": "H" 
			},
			{
				"x": 0.9666613607,
				"y": -1.574760422,
				"z": -0.5261808042,
				"element": "H" 
			},
			{
				"x": 0.4989187415,
				"y": 2.4201639621,
				"z": -2.0460723006,
				"element": "H" 
			},
			{
				"x": -0.7887950181,
				"y": 3.3644170952,
				"z": 0.0861351336,
				"element": "H" 
			},
			{
				"x": -1.1124414758,
				"y": -0.1155360224,
				"z": 2.9514921349,
				"element": "H" 
			}
		],
		 "valence_orbital": [ 
			{
				"type": "occ",
				"energy": -0.32496,
				"method": "rhf"
			},
			{
				"type": "occ",
				"energy": -0.30435,
				"method": "rhf"
			},
			{
				"type": "occ",
				"energy": -0.26881,
				"method": "rhf"
			},
			{
				"type": "occ",
				"energy": -0.26804,
				"method": "rhf"
			},
			{
				"type": "occ",
				"energy": -0.24723,
				"method": "rhf"
			},
			{
				"type": "unocc",
				"energy": -0.05557,
				"method": "rhf"
			},
			{
				"type": "unocc",
				"energy": -0.02237,
				"method": "rhf"
			},
			{
				"type": "unocc",
				"energy": -0.01922,
				"method": "rhf"
			},
			{
				"type": "unocc",
				"energy": 0.04824,
				"method": "rhf"
			},
			{
				"type": "unocc",
				"energy": 0.05907,
				"method": "rhf"
			}
		],
		"cosmo_sigma_profile": { 
			"-0.025": 0.0,
			"-0.024": 0.0,
			"-0.023": 0.0,
			"-0.022": 0.0,
			"-0.021": 0.0,
			"-0.02": 0.0,
			"-0.019": 0.0,
			"-0.018": 0.0,
			"-0.017": 0.0,
			"-0.016": 0.476829475893,
			"-0.015": 0.435097865591,
			"-0.014": 0.401997210934,
			"-0.013": 0.736347768864,
			"-0.012": 1.13869430127,
			"-0.011": 0.893358032091,
			"-0.01": 1.1603250312,
			"-0.009": 1.47483400999,
			"-0.008": 3.07149168025,
			"-0.007": 3.43931973078,
			"-0.006": 7.56160124924,
			"-0.005": 13.0255812844,
			"-0.004": 15.3952553556,
			"-0.003": 13.5994961692,
			"-0.002": 17.9470923041,
			"-0.001": 22.3418321727,
			"0.0": 19.6589229352,
			"0.001": 19.954295907,
			"0.002": 18.404325768,
			"0.003": 11.2119398536,
			"0.004": 4.31835417972,
			"0.005": 2.31831682206,
			"0.006": 1.82823994787,
			"0.007": 2.45606504417,
			"0.008": 2.5478806293,
			"0.009": 3.22318144331,
			"0.01": 3.60791678801,
			"0.011": 5.53581632374,
			"0.012": 5.3650677021,
			"0.013": 2.2233352049,
			"0.014": 0.43513942094,
			"0.015": 0.0,
			"0.016": 0.0,
			"0.017": 0.0,
			"0.018": 0.0,
			"0.019": 0.0,
			"0.02": 0.0,
			"0.021": 0.0,
			"0.022": 0.0,
			"0.023": 0.0,
			"0.024": 0.0,
			"0.025": 0.0
		}
	}
}
