{
	 "smiles": "O=C(N(CC(NC1=CC=CC=C1)=NC1=CC=CC=C1)C1=CC=CC=C1)C1=CC=CC=C1", 
	 "Tm": 415.15, 
	 "num_atms": 54, 
	 "gaussian": { 
		 "optdone": 1, 
		 "sigma_profile": "yes", 
		 "theory": "DFT", 
		 "functional": "B3LYP", 
		 "basiset": "6-31G**", 
		 "properties": { 
			 "R2extent": 14183.2583, 
			 "electric_dipole_moment_norm": 5.43830993048, 
			 "electric_quadrupole_moment_norm": 21.5397479245, 
			 "total_energy": -1282.20967093, 
			 "HOMO_LUMO_gap": 0.17777, 
			 "cosmo_polarized_energy": -23.25, 
			 "cosmo_cavitation_energy": 57.82, 
			 "cosmo_dispersion_energy": -36.55, 
			 "cosmo_repulsion_energy": 2.79, 
			 "cosmo_total_nonelectrostatic_energy": 24.06, 
			 "SMD_solvation_energy": 9.83 
		},
		"coords": [
			{
				"x": 3.3446703106,
				"y": 2.4678060232,
				"z": -0.8222811205,
				"element": "O" 
			},
			{
				"x": 2.179257059,
				"y": 2.4054470818,
				"z": -0.4512170922,
				"element": "C" 
			},
			{
				"x": 1.4906181474,
				"y": 1.1974059473,
				"z": -0.4582213029,
				"element": "N" 
			},
			{
				"x": 0.0455385394,
				"y": 1.0594682249,
				"z": -0.4425147783,
				"element": "C" 
			},
			{
				"x": -0.5104405219,
				"y": 0.2453610777,
				"z": 0.733647527,
				"element": "C" 
			},
			{
				"x": -1.6365687047,
				"y": -0.4776959143,
				"z": 0.3714474654,
				"element": "N" 
			},
			{
				"x": -2.7395924286,
				"y": -0.9054200112,
				"z": 1.1468325242,
				"element": "C" 
			},
			{
				"x": -3.1696088803,
				"y": -0.2069010414,
				"z": 2.2828908471,
				"element": "C" 
			},
			{
				"x": -4.2962821467,
				"y": -0.6433675922,
				"z": 2.9776759171,
				"element": "C" 
			},
			{
				"x": -5.0171169028,
				"y": -1.7574642641,
				"z": 2.543912589,
				"element": "C" 
			},
			{
				"x": -4.5975704186,
				"y": -2.441575499,
				"z": 1.4016614384,
				"element": "C" 
			},
			{
				"x": -3.4625132957,
				"y": -2.0243051931,
				"z": 0.7095256105,
				"element": "C" 
			},
			{
				"x": 0.0659009019,
				"y": 0.3516426229,
				"z": 1.8737269085,
				"element": "N" 
			},
			{
				"x": -0.1493945512,
				"y": -0.4578693953,
				"z": 2.999177749,
				"element": "C" 
			},
			{
				"x": -0.1697092813,
				"y": -1.8631577862,
				"z": 2.9273507497,
				"element": "C" 
			},
			{
				"x": -0.2743363939,
				"y": -2.6260260889,
				"z": 4.0885737166,
				"element": "C" 
			},
			{
				"x": -0.3687575904,
				"y": -2.0106811811,
				"z": 5.3389855956,
				"element": "C" 
			},
			{
				"x": -0.3382189049,
				"y": -0.6166169549,
				"z": 5.4181411682,
				"element": "C" 
			},
			{
				"x": -0.2136258473,
				"y": 0.1531676137,
				"z": 4.2633543807,
				"element": "C" 
			},
			{
				"x": 2.233654708,
				"y": 0.0110230656,
				"z": -0.8050884115,
				"element": "C" 
			},
			{
				"x": 2.8306568653,
				"y": -0.7507057711,
				"z": 0.2018663901,
				"element": "C" 
			},
			{
				"x": 3.5208962912,
				"y": -1.9177603788,
				"z": -0.1302380439,
				"element": "C" 
			},
			{
				"x": 3.6120966181,
				"y": -2.3260912659,
				"z": -1.462186674,
				"element": "C" 
			},
			{
				"x": 3.0152717238,
				"y": -1.5614787595,
				"z": -2.4671876703,
				"element": "C" 
			},
			{
				"x": 2.327881257,
				"y": -0.3925278019,
				"z": -2.1401536823,
				"element": "C" 
			},
			{
				"x": 1.4734555733,
				"y": 3.6432299172,
				"z": 0.0353171862,
				"element": "C" 
			},
			{
				"x": 0.6961880071,
				"y": 3.6710349479,
				"z": 1.2025844871,
				"element": "C" 
			},
			{
				"x": 0.1558457673,
				"y": 4.878045673,
				"z": 1.6514475667,
				"element": "C" 
			},
			{
				"x": 0.3788434473,
				"y": 6.0578339816,
				"z": 0.9398100777,
				"element": "C" 
			},
			{
				"x": 1.1638734084,
				"y": 6.0351537432,
				"z": -0.2165572027,
				"element": "C" 
			},
			{
				"x": 1.7211027003,
				"y": 4.837247835,
				"z": -0.6575469622,
				"element": "C" 
			},
			{
				"x": -0.2778572569,
				"y": 0.5887145061,
				"z": -1.382756333,
				"element": "H" 
			},
			{
				"x": -0.4123874004,
				"y": 2.0514919824,
				"z": -0.4206369476,
				"element": "H" 
			},
			{
				"x": -1.7415414324,
				"y": -0.6301607738,
				"z": -0.6219367862,
				"element": "H" 
			},
			{
				"x": -2.6283266678,
				"y": 0.6699738621,
				"z": 2.6162575097,
				"element": "H" 
			},
			{
				"x": -4.616501623,
				"y": -0.0985139813,
				"z": 3.8608872967,
				"element": "H" 
			},
			{
				"x": -5.896099726,
				"y": -2.0876725419,
				"z": 3.0887331729,
				"element": "H" 
			},
			{
				"x": -5.1485536415,
				"y": -3.309094714,
				"z": 1.0501687505,
				"element": "H" 
			},
			{
				"x": -3.1266199368,
				"y": -2.568405342,
				"z": -0.1697858582,
				"element": "H" 
			},
			{
				"x": -0.0875813751,
				"y": -2.3477634747,
				"z": 1.9596828431,
				"element": "H" 
			},
			{
				"x": -0.283455802,
				"y": -3.710168441,
				"z": 4.014571696,
				"element": "H" 
			},
			{
				"x": -0.4541870038,
				"y": -2.6102357522,
				"z": 6.2402986876,
				"element": "H" 
			},
			{
				"x": -0.3963565727,
				"y": -0.1247628792,
				"z": 6.385362278,
				"element": "H" 
			},
			{
				"x": -0.1611227111,
				"y": 1.2363094983,
				"z": 4.3215596227,
				"element": "H" 
			},
			{
				"x": 2.7417882738,
				"y": -0.4217962669,
				"z": 1.2311253004,
				"element": "H" 
			},
			{
				"x": 3.986373303,
				"y": -2.5078858676,
				"z": 0.6538423627,
				"element": "H" 
			},
			{
				"x": 4.1496896021,
				"y": -3.2347783464,
				"z": -1.7175286403,
				"element": "H" 
			},
			{
				"x": 3.0928413009,
				"y": -1.8693902766,
				"z": -3.5059904349,
				"element": "H" 
			},
			{
				"x": 1.8775250172,
				"y": 0.2192137441,
				"z": -2.9167728741,
				"element": "H" 
			},
			{
				"x": 0.5384799138,
				"y": 2.7529309957,
				"z": 1.7619616628,
				"element": "H" 
			},
			{
				"x": -0.4354125029,
				"y": 4.8964413183,
				"z": 2.5628150657,
				"element": "H" 
			},
			{
				"x": -0.0482039494,
				"y": 6.9937497246,
				"z": 1.2892146943,
				"element": "H" 
			},
			{
				"x": 1.3498908943,
				"y": 6.9531687899,
				"z": -0.7666992272,
				"element": "H" 
			},
			{
				"x": 2.3614038397,
				"y": 4.8096113801,
				"z": -1.5332107954,
				"element": "H" 
			}
		],
		 "valence_orbital": [ 
			{
				"type": "occ",
				"energy": -0.2433,
				"method": "rhf"
			},
			{
				"type": "occ",
				"energy": -0.24068,
				"method": "rhf"
			},
			{
				"type": "occ",
				"energy": -0.2325,
				"method": "rhf"
			},
			{
				"type": "occ",
				"energy": -0.22415,
				"method": "rhf"
			},
			{
				"type": "occ",
				"energy": -0.20862,
				"method": "rhf"
			},
			{
				"type": "unocc",
				"energy": -0.03085,
				"method": "rhf"
			},
			{
				"type": "unocc",
				"energy": -0.02311,
				"method": "rhf"
			},
			{
				"type": "unocc",
				"energy": -0.00978,
				"method": "rhf"
			},
			{
				"type": "unocc",
				"energy": -0.00357,
				"method": "rhf"
			},
			{
				"type": "unocc",
				"energy": -0.00154,
				"method": "rhf"
			}
		],
		"cosmo_sigma_profile": { 
			"-0.025": 0.0,
			"-0.024": 0.0,
			"-0.023": 0.0,
			"-0.022": 0.0,
			"-0.021": 0.0,
			"-0.02": 0.0,
			"-0.019": 0.0,
			"-0.018": 0.0,
			"-0.017": 0.0,
			"-0.016": 0.0731448641588,
			"-0.015": 1.19994579824,
			"-0.014": 1.05148313793,
			"-0.013": 1.73045470417,
			"-0.012": 1.39666171938,
			"-0.011": 1.29937982631,
			"-0.01": 1.82357268503,
			"-0.009": 1.36458555769,
			"-0.008": 1.69331692628,
			"-0.007": 4.31200768635,
			"-0.006": 23.5863554749,
			"-0.005": 39.1142342417,
			"-0.004": 45.3878105963,
			"-0.003": 41.0638972963,
			"-0.002": 31.4621639612,
			"-0.001": 30.8273950539,
			"0.0": 29.3131073052,
			"0.001": 29.7401888003,
			"0.002": 33.4135841837,
			"0.003": 28.6501356672,
			"0.004": 31.8815003594,
			"0.005": 31.9430007266,
			"0.006": 18.6420232162,
			"0.007": 9.52825087037,
			"0.008": 3.99403786543,
			"0.009": 2.52315256238,
			"0.01": 3.03144809182,
			"0.011": 1.77816948553,
			"0.012": 2.44694291991,
			"0.013": 4.87356954259,
			"0.014": 3.58584315976,
			"0.015": 0.25006878581,
			"0.016": 0.0,
			"0.017": 0.0,
			"0.018": 0.0,
			"0.019": 0.0,
			"0.02": 0.0,
			"0.021": 0.0,
			"0.022": 0.0,
			"0.023": 0.0,
			"0.024": 0.0,
			"0.025": 0.0
		}
	}
}
