{
	 "smiles": "NC1=C(C(=O)C2=CC(Cl)=CC=C2)C2=C(CCC2)S1", 
	 "Tm": 403.15, 
	 "num_atms": 30, 
	 "gaussian": { 
		 "optdone": 1, 
		 "sigma_profile": "yes", 
		 "theory": "DFT", 
		 "functional": "B3LYP", 
		 "basiset": "6-31G**", 
		 "properties": { 
			 "R2extent": 6019.4398, 
			 "electric_dipole_moment_norm": 2.12478761527, 
			 "electric_quadrupole_moment_norm": 11.3721082245, 
			 "total_energy": -1529.07631936, 
			 "HOMO_LUMO_gap": 0.14008, 
			 "cosmo_polarized_energy": -10.28, 
			 "cosmo_cavitation_energy": 36.08, 
			 "cosmo_dispersion_energy": -26.52, 
			 "cosmo_repulsion_energy": 2.02, 
			 "cosmo_total_nonelectrostatic_energy": 11.59, 
			 "SMD_solvation_energy": 4.95 
		},
		"coords": [
			{
				"x": -0.9611333444,
				"y": -0.7560794715,
				"z": -4.0836497805,
				"element": "N" 
			},
			{
				"x": -0.0765828485,
				"y": -0.2893510284,
				"z": -3.1788823109,
				"element": "C" 
			},
			{
				"x": -0.0450377885,
				"y": -0.6100825805,
				"z": -1.8056810092,
				"element": "C" 
			},
			{
				"x": -1.0191663617,
				"y": -1.5524856442,
				"z": -1.2779568215,
				"element": "C" 
			},
			{
				"x": -1.7230162794,
				"y": -2.2608274577,
				"z": -2.0238862509,
				"element": "O" 
			},
			{
				"x": -1.2460706775,
				"y": -1.6900906392,
				"z": 0.2029048835,
				"element": "C" 
			},
			{
				"x": -1.3579225052,
				"y": -0.5667059893,
				"z": 1.0319229897,
				"element": "C" 
			},
			{
				"x": -1.6773511356,
				"y": -0.7400048985,
				"z": 2.3776223503,
				"element": "C" 
			},
			{
				"x": -1.834857567,
				"y": 0.6765243802,
				"z": 3.4112336973,
				"element": "Cl" 
			},
			{
				"x": -1.8760131532,
				"y": -2.0080431989,
				"z": 2.9210647151,
				"element": "C" 
			},
			{
				"x": -1.7715610624,
				"y": -3.1224857107,
				"z": 2.0847426273,
				"element": "C" 
			},
			{
				"x": -1.4767204246,
				"y": -2.9671450855,
				"z": 0.7327567137,
				"element": "C" 
			},
			{
				"x": 1.0509407768,
				"y": 0.0844255702,
				"z": -1.1528565793,
				"element": "C" 
			},
			{
				"x": 1.7561872177,
				"y": 0.901436604,
				"z": -1.9750922375,
				"element": "C" 
			},
			{
				"x": 3.0027797609,
				"y": 1.4851672075,
				"z": -1.3790671046,
				"element": "C" 
			},
			{
				"x": 2.779673161,
				"y": 1.1575280524,
				"z": 0.1267769572,
				"element": "C" 
			},
			{
				"x": 1.7604815433,
				"y": -0.0174545364,
				"z": 0.1826154149,
				"element": "C" 
			},
			{
				"x": 1.1566737915,
				"y": 0.8808743938,
				"z": -3.6255350509,
				"element": "S" 
			},
			{
				"x": -1.5249677089,
				"y": -1.5370608189,
				"z": -3.7514417902,
				"element": "H" 
			},
			{
				"x": -0.8542093127,
				"y": -0.5640035129,
				"z": -5.0657986001,
				"element": "H" 
			},
			{
				"x": -1.2257748171,
				"y": 0.4306182713,
				"z": 0.6282543333,
				"element": "H" 
			},
			{
				"x": -2.1156697846,
				"y": -2.1176265781,
				"z": 3.9729145527,
				"element": "H" 
			},
			{
				"x": -1.9324036583,
				"y": -4.114506249,
				"z": 2.4962865511,
				"element": "H" 
			},
			{
				"x": -1.427352039,
				"y": -3.8244908927,
				"z": 0.0703372145,
				"element": "H" 
			},
			{
				"x": 3.903969933,
				"y": 0.9942082342,
				"z": -1.7741780131,
				"element": "H" 
			},
			{
				"x": 3.1239245789,
				"y": 2.5603720025,
				"z": -1.5545460767,
				"element": "H" 
			},
			{
				"x": 2.3430081087,
				"y": 2.0317397562,
				"z": 0.6199681053,
				"element": "H" 
			},
			{
				"x": 3.7143805084,
				"y": 0.9241314286,
				"z": 0.6439037434,
				"element": "H" 
			},
			{
				"x": 1.1064689094,
				"y": 0.0585083257,
				"z": 1.0538116951,
				"element": "H" 
			},
			{
				"x": 2.2676221789,
				"y": -0.9896899342,
				"z": 0.2603550809,
				"element": "H" 
			}
		],
		 "valence_orbital": [ 
			{
				"type": "occ",
				"energy": -0.26456,
				"method": "rhf"
			},
			{
				"type": "occ",
				"energy": -0.25466,
				"method": "rhf"
			},
			{
				"type": "occ",
				"energy": -0.2504,
				"method": "rhf"
			},
			{
				"type": "occ",
				"energy": -0.24166,
				"method": "rhf"
			},
			{
				"type": "occ",
				"energy": -0.19297,
				"method": "rhf"
			},
			{
				"type": "unocc",
				"energy": -0.05289,
				"method": "rhf"
			},
			{
				"type": "unocc",
				"energy": -0.01408,
				"method": "rhf"
			},
			{
				"type": "unocc",
				"energy": -0.00588,
				"method": "rhf"
			},
			{
				"type": "unocc",
				"energy": 0.00898,
				"method": "rhf"
			},
			{
				"type": "unocc",
				"energy": 0.01866,
				"method": "rhf"
			}
		],
		"cosmo_sigma_profile": { 
			"-0.025": 0.0,
			"-0.024": 0.0,
			"-0.023": 0.0,
			"-0.022": 0.0,
			"-0.021": 0.0,
			"-0.02": 0.0,
			"-0.019": 0.0,
			"-0.018": 0.0,
			"-0.017": 0.0,
			"-0.016": 0.085383250836,
			"-0.015": 1.16145628154,
			"-0.014": 1.36779799713,
			"-0.013": 0.741314401862,
			"-0.012": 1.61934962355,
			"-0.011": 1.43266587384,
			"-0.01": 1.68150199003,
			"-0.009": 1.84090812856,
			"-0.008": 1.91939169936,
			"-0.007": 5.55649112798,
			"-0.006": 8.58218871615,
			"-0.005": 8.9965424112,
			"-0.004": 13.3483040351,
			"-0.003": 22.9350990956,
			"-0.002": 29.1505212096,
			"-0.001": 29.8462855896,
			"0.0": 27.7612308331,
			"0.001": 25.3721762413,
			"0.002": 28.3306835434,
			"0.003": 28.5336925199,
			"0.004": 22.9230488981,
			"0.005": 13.2820529893,
			"0.006": 3.09801323836,
			"0.007": 1.60463450133,
			"0.008": 2.02748396927,
			"0.009": 1.7780267698,
			"0.01": 1.6590398131,
			"0.011": 1.70354615814,
			"0.012": 1.69572705144,
			"0.013": 1.62451985558,
			"0.014": 0.575845159829,
			"0.015": 0.0,
			"0.016": 0.0,
			"0.017": 0.0,
			"0.018": 0.0,
			"0.019": 0.0,
			"0.02": 0.0,
			"0.021": 0.0,
			"0.022": 0.0,
			"0.023": 0.0,
			"0.024": 0.0,
			"0.025": 0.0
		}
	}
}
