{
	 "smiles": "OC(=O)C1=C2C(ON=C2C2CC2)=NC(=C1)C1=C(F)C=CC=C1", 
	 "Tm": 456.15, 
	 "num_atms": 33, 
	 "gaussian": { 
		 "optdone": 1, 
		 "sigma_profile": "yes", 
		 "theory": "DFT", 
		 "functional": "B3LYP", 
		 "basiset": "6-31G**", 
		 "properties": { 
			 "R2extent": 7759.9396, 
			 "electric_dipole_moment_norm": 4.06799525196, 
			 "electric_quadrupole_moment_norm": 19.9155039045, 
			 "total_energy": -1051.27399024, 
			 "HOMO_LUMO_gap": 0.15846, 
			 "cosmo_polarized_energy": -17.08, 
			 "cosmo_cavitation_energy": 37.81, 
			 "cosmo_dispersion_energy": -27.49, 
			 "cosmo_repulsion_energy": 2.01, 
			 "cosmo_total_nonelectrostatic_energy": 12.33, 
			 "SMD_solvation_energy": 5.89 
		},
		"coords": [
			{
				"x": 0.62587522,
				"y": 3.3258972173,
				"z": 0.3952875308,
				"element": "O" 
			},
			{
				"x": 0.4031739285,
				"y": 2.4965753128,
				"z": 1.4432526592,
				"element": "C" 
			},
			{
				"x": 0.4560129138,
				"y": 2.9113986971,
				"z": 2.5747115771,
				"element": "O" 
			},
			{
				"x": 0.1635905581,
				"y": 1.0560332133,
				"z": 1.0816256398,
				"element": "C" 
			},
			{
				"x": -0.8573365182,
				"y": 0.2436332685,
				"z": 1.6168326169,
				"element": "C" 
			},
			{
				"x": -0.8165828684,
				"y": -1.1035964038,
				"z": 1.2021450595,
				"element": "C" 
			},
			{
				"x": -1.8447161337,
				"y": -1.7878528524,
				"z": 1.7359953725,
				"element": "O" 
			},
			{
				"x": -2.6058198418,
				"y": -0.8934702262,
				"z": 2.5042275893,
				"element": "N" 
			},
			{
				"x": -2.048061328,
				"y": 0.297517676,
				"z": 2.448690564,
				"element": "C" 
			},
			{
				"x": -2.7785813253,
				"y": 1.3529404104,
				"z": 3.188593228,
				"element": "C" 
			},
			{
				"x": -2.1403571356,
				"y": 2.3777513974,
				"z": 4.1085591774,
				"element": "C" 
			},
			{
				"x": -2.788641135,
				"y": 2.825995541,
				"z": 2.8313498135,
				"element": "C" 
			},
			{
				"x": 0.043789437,
				"y": -1.6991537151,
				"z": 0.3985376732,
				"element": "N" 
			},
			{
				"x": 1.0066180507,
				"y": -0.915623553,
				"z": -0.1118038617,
				"element": "C" 
			},
			{
				"x": 1.0788808417,
				"y": 0.4621385802,
				"z": 0.2101584106,
				"element": "C" 
			},
			{
				"x": 1.988015347,
				"y": -1.5946049006,
				"z": -0.9960823223,
				"element": "C" 
			},
			{
				"x": 2.8442078727,
				"y": -0.9354880938,
				"z": -1.8909057419,
				"element": "C" 
			},
			{
				"x": 2.8022322568,
				"y": 0.4169338411,
				"z": -2.0077701556,
				"element": "F" 
			},
			{
				"x": 3.7499956723,
				"y": -1.6041355124,
				"z": -2.7038701428,
				"element": "C" 
			},
			{
				"x": 3.8215106982,
				"y": -2.9940090181,
				"z": -2.6405341999,
				"element": "C" 
			},
			{
				"x": 2.9809728887,
				"y": -3.6918987376,
				"z": -1.7688803739,
				"element": "C" 
			},
			{
				"x": 2.0803256007,
				"y": -3.0003475304,
				"z": -0.9667484501,
				"element": "C" 
			},
			{
				"x": 0.4892406355,
				"y": 2.8513169056,
				"z": -0.4382442156,
				"element": "H" 
			},
			{
				"x": -3.727280381,
				"y": 0.9549182586,
				"z": 3.5362650496,
				"element": "H" 
			},
			{
				"x": -2.6533392835,
				"y": 2.5622691213,
				"z": 5.0473831584,
				"element": "H" 
			},
			{
				"x": -1.0597700642,
				"y": 2.419837109,
				"z": 4.1533353298,
				"element": "H" 
			},
			{
				"x": -2.1406659906,
				"y": 3.177253821,
				"z": 2.0366083862,
				"element": "H" 
			},
			{
				"x": -3.7511873482,
				"y": 3.3266757771,
				"z": 2.8709726884,
				"element": "H" 
			},
			{
				"x": 1.8912334152,
				"y": 1.0524386278,
				"z": -0.1887139223,
				"element": "H" 
			},
			{
				"x": 4.3759855622,
				"y": -1.024491014,
				"z": -3.3733348242,
				"element": "H" 
			},
			{
				"x": 4.528331904,
				"y": -3.5258932155,
				"z": -3.2698568532,
				"element": "H" 
			},
			{
				"x": 3.0286514856,
				"y": -4.7747292811,
				"z": -1.7140284808,
				"element": "H" 
			},
			{
				"x": 1.4186950645,
				"y": -3.5308307215,
				"z": -0.2920579797,
				"element": "H" 
			}
		],
		 "valence_orbital": [ 
			{
				"type": "occ",
				"energy": -0.29569,
				"method": "rhf"
			},
			{
				"type": "occ",
				"energy": -0.28608,
				"method": "rhf"
			},
			{
				"type": "occ",
				"energy": -0.26602,
				"method": "rhf"
			},
			{
				"type": "occ",
				"energy": -0.26179,
				"method": "rhf"
			},
			{
				"type": "occ",
				"energy": -0.24837,
				"method": "rhf"
			},
			{
				"type": "unocc",
				"energy": -0.08991,
				"method": "rhf"
			},
			{
				"type": "unocc",
				"energy": -0.04892,
				"method": "rhf"
			},
			{
				"type": "unocc",
				"energy": -0.0177,
				"method": "rhf"
			},
			{
				"type": "unocc",
				"energy": -0.00365,
				"method": "rhf"
			},
			{
				"type": "unocc",
				"energy": 0.00495,
				"method": "rhf"
			}
		],
		"cosmo_sigma_profile": { 
			"-0.025": 0.0,
			"-0.024": 0.0,
			"-0.023": 0.0,
			"-0.022": 0.0,
			"-0.021": 0.0,
			"-0.02": 0.0,
			"-0.019": 0.564180029504,
			"-0.018": 0.663107681107,
			"-0.017": 1.14123903748,
			"-0.016": 1.01306724148,
			"-0.015": 0.56326198364,
			"-0.014": 0.954010967951,
			"-0.013": 1.12863125143,
			"-0.012": 1.66720729345,
			"-0.011": 1.14293501015,
			"-0.01": 0.737074563291,
			"-0.009": 2.15066534765,
			"-0.008": 3.6516570135,
			"-0.007": 7.22905396964,
			"-0.006": 12.0800405087,
			"-0.005": 19.6479729007,
			"-0.004": 20.2999967498,
			"-0.003": 19.872510134,
			"-0.002": 22.6804635801,
			"-0.001": 26.9574049976,
			"0.0": 24.2129768345,
			"0.001": 22.1433391863,
			"0.002": 22.2150759827,
			"0.003": 24.9427438664,
			"0.004": 15.056502308,
			"0.005": 6.94393683509,
			"0.006": 7.76521322385,
			"0.007": 10.0153148731,
			"0.008": 8.87584496878,
			"0.009": 7.35163810389,
			"0.01": 5.25453550665,
			"0.011": 3.45023424739,
			"0.012": 1.516184372,
			"0.013": 0.988041772144,
			"0.014": 0.10445156499,
			"0.015": 0.0,
			"0.016": 0.0,
			"0.017": 0.0,
			"0.018": 0.0,
			"0.019": 0.0,
			"0.02": 0.0,
			"0.021": 0.0,
			"0.022": 0.0,
			"0.023": 0.0,
			"0.024": 0.0,
			"0.025": 0.0
		}
	}
}
