{
	 "smiles": "BrC1=CC=C(CC2=NN=NN2)C=C1", 
	 "Tm": 446.15, 
	 "num_atms": 20, 
	 "gaussian": { 
		 "optdone": 1, 
		 "sigma_profile": "yes", 
		 "theory": "DFT", 
		 "functional": "B3LYP", 
		 "basiset": "6-31G**", 
		 "properties": { 
			 "R2extent": 4949.3882, 
			 "electric_dipole_moment_norm": 4.74153498458, 
			 "electric_quadrupole_moment_norm": 31.4288774458, 
			 "total_energy": -3099.42809298, 
			 "HOMO_LUMO_gap": 0.21987, 
			 "cosmo_polarized_energy": -18.75, 
			 "cosmo_cavitation_energy": 27.73, 
			 "cosmo_dispersion_energy": -20.29, 
			 "cosmo_repulsion_energy": 1.61, 
			 "cosmo_total_nonelectrostatic_energy": 9.06, 
			 "SMD_solvation_energy": 1.47 
		},
		"coords": [
			{
				"x": -0.3344846574,
				"y": -4.1414280672,
				"z": -0.7452955588,
				"element": "Br" 
			},
			{
				"x": -0.3409671684,
				"y": -2.4089934114,
				"z": 0.0569102936,
				"element": "C" 
			},
			{
				"x": -0.9045845206,
				"y": -1.3345695341,
				"z": -0.6328944942,
				"element": "C" 
			},
			{
				"x": -0.9063483234,
				"y": -0.072694442,
				"z": -0.0423174243,
				"element": "C" 
			},
			{
				"x": -0.3533363139,
				"y": 0.1308593472,
				"z": 1.2303495925,
				"element": "C" 
			},
			{
				"x": -0.3503305933,
				"y": 1.5131577764,
				"z": 1.8586307751,
				"element": "C" 
			},
			{
				"x": 0.5786149159,
				"y": 2.4777622501,
				"z": 1.1836094779,
				"element": "C" 
			},
			{
				"x": 0.365310084,
				"y": 3.7633149486,
				"z": 0.9727133088,
				"element": "N" 
			},
			{
				"x": 1.486900169,
				"y": 4.2411744558,
				"z": 0.3620773624,
				"element": "N" 
			},
			{
				"x": 2.3622392705,
				"y": 3.3069695318,
				"z": 0.1910129364,
				"element": "N" 
			},
			{
				"x": 1.808663502,
				"y": 2.1848086308,
				"z": 0.7078344551,
				"element": "N" 
			},
			{
				"x": 0.20489379,
				"y": -0.9638846186,
				"z": 1.8996623487,
				"element": "C" 
			},
			{
				"x": 0.2148311162,
				"y": -2.2355394233,
				"z": 1.3218128175,
				"element": "C" 
			},
			{
				"x": -1.3370465078,
				"y": -1.4842478364,
				"z": -1.6155567618,
				"element": "H" 
			},
			{
				"x": -1.3451191746,
				"y": 0.7642004036,
				"z": -0.5794696758,
				"element": "H" 
			},
			{
				"x": -0.0747847482,
				"y": 1.4373244426,
				"z": 2.9174483453,
				"element": "H" 
			},
			{
				"x": -1.3466610585,
				"y": 1.9642702327,
				"z": 1.8289436908,
				"element": "H" 
			},
			{
				"x": 2.2941681676,
				"y": 1.3003464649,
				"z": 0.6601348213,
				"element": "H" 
			},
			{
				"x": 0.6305557404,
				"y": -0.8309544743,
				"z": 2.8912303387,
				"element": "H" 
			},
			{
				"x": 0.6456863106,
				"y": -3.0783766771,
				"z": 1.8500633508,
				"element": "H" 
			}
		],
		 "valence_orbital": [ 
			{
				"type": "occ",
				"energy": -0.29791,
				"method": "rhf"
			},
			{
				"type": "occ",
				"energy": -0.29714,
				"method": "rhf"
			},
			{
				"type": "occ",
				"energy": -0.28605,
				"method": "rhf"
			},
			{
				"type": "occ",
				"energy": -0.28288,
				"method": "rhf"
			},
			{
				"type": "occ",
				"energy": -0.25715,
				"method": "rhf"
			},
			{
				"type": "unocc",
				"energy": -0.03728,
				"method": "rhf"
			},
			{
				"type": "unocc",
				"energy": -0.0351,
				"method": "rhf"
			},
			{
				"type": "unocc",
				"energy": -0.01831,
				"method": "rhf"
			},
			{
				"type": "unocc",
				"energy": -0.00588,
				"method": "rhf"
			},
			{
				"type": "unocc",
				"energy": 0.02072,
				"method": "rhf"
			}
		],
		"cosmo_sigma_profile": { 
			"-0.025": 0.0,
			"-0.024": 0.0,
			"-0.023": 0.0,
			"-0.022": 0.0,
			"-0.021": 0.0,
			"-0.02": 0.0,
			"-0.019": 0.1446842569,
			"-0.018": 1.02184655471,
			"-0.017": 0.987571271355,
			"-0.016": 1.04350404923,
			"-0.015": 0.646053458951,
			"-0.014": 1.16554431042,
			"-0.013": 0.787270200172,
			"-0.012": 1.02016109552,
			"-0.011": 1.45192147528,
			"-0.01": 2.08976906665,
			"-0.009": 1.17546974068,
			"-0.008": 4.62889908689,
			"-0.007": 13.7649523988,
			"-0.006": 14.6660503417,
			"-0.005": 12.9209524777,
			"-0.004": 12.7371120704,
			"-0.003": 13.8770249825,
			"-0.002": 12.2656704178,
			"-0.001": 9.84101875144,
			"0.0": 10.9785599331,
			"0.001": 12.9687701146,
			"0.002": 17.1467228454,
			"0.003": 19.6833308255,
			"0.004": 15.7930626988,
			"0.005": 7.87298862433,
			"0.006": 3.12438435554,
			"0.007": 3.59249223244,
			"0.008": 4.47409153371,
			"0.009": 4.6499167376,
			"0.01": 4.98489609986,
			"0.011": 5.29461910502,
			"0.012": 3.61934843563,
			"0.013": 2.3673053379,
			"0.014": 2.1485086209,
			"0.015": 0.921069210344,
			"0.016": 0.132448235268,
			"0.017": 0.0,
			"0.018": 0.0,
			"0.019": 0.0,
			"0.02": 0.0,
			"0.021": 0.0,
			"0.022": 0.0,
			"0.023": 0.0,
			"0.024": 0.0,
			"0.025": 0.0
		}
	}
}
