{
	 "smiles": "C=CCC1=CC=C2OCOC2=C1", 
	 "Tm": 284.35, 
	 "num_atms": 22, 
	 "gaussian": { 
		 "optdone": 1, 
		 "sigma_profile": "yes", 
		 "theory": "DFT", 
		 "functional": "B3LYP", 
		 "basiset": "6-31G**", 
		 "properties": { 
			 "R2extent": 2793.8721, 
			 "electric_dipole_moment_norm": 0.278680228936, 
			 "electric_quadrupole_moment_norm": 4.32160588786, 
			 "total_energy": -537.489913174, 
			 "HOMO_LUMO_gap": 0.20318, 
			 "cosmo_polarized_energy": -5.97, 
			 "cosmo_cavitation_energy": 25.9, 
			 "cosmo_dispersion_energy": -19.13, 
			 "cosmo_repulsion_energy": 1.53, 
			 "cosmo_total_nonelectrostatic_energy": 8.31, 
			 "SMD_solvation_energy": 5.54 
		},
		"coords": [
			{
				"x": -1.1004203078,
				"y": -2.9541431853,
				"z": -0.7500395298,
				"element": "C" 
			},
			{
				"x": -0.0202138497,
				"y": -2.252590784,
				"z": -0.4048256178,
				"element": "C" 
			},
			{
				"x": 0.5509847257,
				"y": -1.1021586701,
				"z": -1.1954763805,
				"element": "C" 
			},
			{
				"x": 0.6251533313,
				"y": 0.1971681181,
				"z": -0.4066233629,
				"element": "C" 
			},
			{
				"x": 1.8301157199,
				"y": 0.8945589351,
				"z": -0.2888330669,
				"element": "C" 
			},
			{
				"x": 1.9283642858,
				"y": 2.108785849,
				"z": 0.4183886689,
				"element": "C" 
			},
			{
				"x": 0.7716595102,
				"y": 2.5853808322,
				"z": 0.9989697127,
				"element": "C" 
			},
			{
				"x": 0.5906048548,
				"y": 3.7312320978,
				"z": 1.7376395441,
				"element": "O" 
			},
			{
				"x": -0.7922686472,
				"y": 3.7481851978,
				"z": 2.1102776818,
				"element": "C" 
			},
			{
				"x": -1.4212119978,
				"y": 2.5856946235,
				"z": 1.5588182911,
				"element": "O" 
			},
			{
				"x": -0.4352578141,
				"y": 1.8973976486,
				"z": 0.8914983796,
				"element": "C" 
			},
			{
				"x": -0.5437044396,
				"y": 0.7076139463,
				"z": 0.2034503009,
				"element": "C" 
			},
			{
				"x": -1.4666814725,
				"y": -3.7761078361,
				"z": -0.1419876347,
				"element": "H" 
			},
			{
				"x": -1.6557080639,
				"y": -2.7349246978,
				"z": -1.6594578018,
				"element": "H" 
			},
			{
				"x": 0.506838072,
				"y": -2.4992148368,
				"z": 0.5171120086,
				"element": "H" 
			},
			{
				"x": 1.562792336,
				"y": -1.360517494,
				"z": -1.5346720639,
				"element": "H" 
			},
			{
				"x": -0.0525073182,
				"y": -0.9572726475,
				"z": -2.1014791389,
				"element": "H" 
			},
			{
				"x": 2.7223452401,
				"y": 0.4913160376,
				"z": -0.7594978521,
				"element": "H" 
			},
			{
				"x": 2.8669822322,
				"y": 2.6443207331,
				"z": 0.5059620579,
				"element": "H" 
			},
			{
				"x": -0.8768999251,
				"y": 3.7259975761,
				"z": 3.2043780292,
				"element": "H" 
			},
			{
				"x": -1.2695272154,
				"y": 4.6493682501,
				"z": 1.7050607092,
				"element": "H" 
			},
			{
				"x": -1.4877392566,
				"y": 0.1775103064,
				"z": 0.1393370652,
				"element": "H" 
			}
		],
		 "valence_orbital": [ 
			{
				"type": "occ",
				"energy": -0.33886,
				"method": "rhf"
			},
			{
				"type": "occ",
				"energy": -0.30347,
				"method": "rhf"
			},
			{
				"type": "occ",
				"energy": -0.25838,
				"method": "rhf"
			},
			{
				"type": "occ",
				"energy": -0.23892,
				"method": "rhf"
			},
			{
				"type": "occ",
				"energy": -0.2014,
				"method": "rhf"
			},
			{
				"type": "unocc",
				"energy": 0.00178,
				"method": "rhf"
			},
			{
				"type": "unocc",
				"energy": 0.00814,
				"method": "rhf"
			},
			{
				"type": "unocc",
				"energy": 0.03081,
				"method": "rhf"
			},
			{
				"type": "unocc",
				"energy": 0.09834,
				"method": "rhf"
			},
			{
				"type": "unocc",
				"energy": 0.10906,
				"method": "rhf"
			}
		],
		"cosmo_sigma_profile": { 
			"-0.025": 0.0,
			"-0.024": 0.0,
			"-0.023": 0.0,
			"-0.022": 0.0,
			"-0.021": 0.0,
			"-0.02": 0.0,
			"-0.019": 0.0,
			"-0.018": 0.0,
			"-0.017": 0.0,
			"-0.016": 0.0,
			"-0.015": 0.0,
			"-0.014": 0.0,
			"-0.013": 0.0,
			"-0.012": 0.0,
			"-0.011": 0.0,
			"-0.01": 0.0,
			"-0.009": 0.0,
			"-0.008": 1.16552302453,
			"-0.007": 7.28201956227,
			"-0.006": 10.0857907284,
			"-0.005": 13.221079775,
			"-0.004": 18.5302213941,
			"-0.003": 16.3431219059,
			"-0.002": 17.3966848579,
			"-0.001": 15.501298189,
			"0.0": 15.8837950889,
			"0.001": 12.3643072601,
			"0.002": 14.8419677672,
			"0.003": 17.3163746165,
			"0.004": 14.5714424586,
			"0.005": 12.8744559542,
			"0.006": 7.21794812389,
			"0.007": 3.38270865181,
			"0.008": 2.61629337936,
			"0.009": 3.50467665123,
			"0.01": 2.25912435203,
			"0.011": 0.00715525520944,
			"0.012": 0.0,
			"0.013": 0.0,
			"0.014": 0.0,
			"0.015": 0.0,
			"0.016": 0.0,
			"0.017": 0.0,
			"0.018": 0.0,
			"0.019": 0.0,
			"0.02": 0.0,
			"0.021": 0.0,
			"0.022": 0.0,
			"0.023": 0.0,
			"0.024": 0.0,
			"0.025": 0.0
		}
	}
}
