{
	 "smiles": "NCCC1=CC=C(N)C=C1", 
	 "Tm": 302.65, 
	 "num_atms": 22, 
	 "gaussian": { 
		 "optdone": 1, 
		 "sigma_profile": "yes", 
		 "theory": "DFT", 
		 "functional": "B3LYP", 
		 "basiset": "6-31G**", 
		 "properties": { 
			 "R2extent": 2881.8378, 
			 "electric_dipole_moment_norm": 3.00942170358, 
			 "electric_quadrupole_moment_norm": 15.1671237507, 
			 "total_energy": -421.590539119, 
			 "HOMO_LUMO_gap": 0.19933, 
			 "cosmo_polarized_energy": -11.27, 
			 "cosmo_cavitation_energy": 24.76, 
			 "cosmo_dispersion_energy": -17.99, 
			 "cosmo_repulsion_energy": 1.48, 
			 "cosmo_total_nonelectrostatic_energy": 8.25, 
			 "SMD_solvation_energy": 2.55 
		},
		"coords": [
			{
				"x": -4.0578502433,
				"y": 2.0401853191,
				"z": 1.6448395911,
				"element": "N" 
			},
			{
				"x": -3.7688263416,
				"y": 1.2647577147,
				"z": 0.4399406174,
				"element": "C" 
			},
			{
				"x": -2.3883626,
				"y": 1.5050742548,
				"z": -0.2243030847,
				"element": "C" 
			},
			{
				"x": -1.2206392801,
				"y": 1.1515588395,
				"z": 0.6688289818,
				"element": "C" 
			},
			{
				"x": -0.6029800589,
				"y": 2.1077577958,
				"z": 1.4870761126,
				"element": "C" 
			},
			{
				"x": 0.4424485142,
				"y": 1.773741852,
				"z": 2.3462480417,
				"element": "C" 
			},
			{
				"x": 0.9122269632,
				"y": 0.4527642069,
				"z": 2.4192534758,
				"element": "C" 
			},
			{
				"x": 1.9230621682,
				"y": 0.0970007669,
				"z": 3.3178083307,
				"element": "N" 
			},
			{
				"x": 0.3012124342,
				"y": -0.5139732649,
				"z": 1.601919766,
				"element": "C" 
			},
			{
				"x": -0.7419735515,
				"y": -0.1645652455,
				"z": 0.7498581805,
				"element": "C" 
			},
			{
				"x": -4.0149249301,
				"y": 3.0352722529,
				"z": 1.4330837148,
				"element": "H" 
			},
			{
				"x": -3.3345292336,
				"y": 1.8685712988,
				"z": 2.3404024264,
				"element": "H" 
			},
			{
				"x": -3.8580304529,
				"y": 0.201738066,
				"z": 0.6960959226,
				"element": "H" 
			},
			{
				"x": -4.5553013263,
				"y": 1.4748019378,
				"z": -0.2956822849,
				"element": "H" 
			},
			{
				"x": -2.3223866569,
				"y": 2.5598725555,
				"z": -0.5234222417,
				"element": "H" 
			},
			{
				"x": -2.3417000527,
				"y": 0.9158300384,
				"z": -1.149807545,
				"element": "H" 
			},
			{
				"x": -0.9354387317,
				"y": 3.142425409,
				"z": 1.4422403601,
				"element": "H" 
			},
			{
				"x": 0.9012980591,
				"y": 2.5409451845,
				"z": 2.9657421778,
				"element": "H" 
			},
			{
				"x": 2.5391720312,
				"y": 0.8524593528,
				"z": 3.5856909022,
				"element": "H" 
			},
			{
				"x": 2.441950514,
				"y": -0.7335916759,
				"z": 3.0669010269,
				"element": "H" 
			},
			{
				"x": 0.6499604705,
				"y": -1.5435193773,
				"z": 1.6386188066,
				"element": "H" 
			},
			{
				"x": -1.1911876951,
				"y": -0.934207282,
				"z": 0.1257667214,
				"element": "H" 
			}
		],
		 "valence_orbital": [ 
			{
				"type": "occ",
				"energy": -0.32533,
				"method": "rhf"
			},
			{
				"type": "occ",
				"energy": -0.29906,
				"method": "rhf"
			},
			{
				"type": "occ",
				"energy": -0.24486,
				"method": "rhf"
			},
			{
				"type": "occ",
				"energy": -0.2253,
				"method": "rhf"
			},
			{
				"type": "occ",
				"energy": -0.19606,
				"method": "rhf"
			},
			{
				"type": "unocc",
				"energy": 0.00327,
				"method": "rhf"
			},
			{
				"type": "unocc",
				"energy": 0.01874,
				"method": "rhf"
			},
			{
				"type": "unocc",
				"energy": 0.08164,
				"method": "rhf"
			},
			{
				"type": "unocc",
				"energy": 0.09035,
				"method": "rhf"
			},
			{
				"type": "unocc",
				"energy": 0.11338,
				"method": "rhf"
			}
		],
		"cosmo_sigma_profile": { 
			"-0.025": 0.0,
			"-0.024": 0.0,
			"-0.023": 0.0,
			"-0.022": 0.0,
			"-0.021": 0.0,
			"-0.02": 0.0,
			"-0.019": 0.0,
			"-0.018": 0.0,
			"-0.017": 0.0,
			"-0.016": 0.0,
			"-0.015": 0.0,
			"-0.014": 0.0,
			"-0.013": 0.0477762284221,
			"-0.012": 1.7052502732,
			"-0.011": 3.33673874367,
			"-0.01": 1.9279548186,
			"-0.009": 3.73140132551,
			"-0.008": 4.40641702121,
			"-0.007": 5.39732498504,
			"-0.006": 5.97413686162,
			"-0.005": 9.63870789229,
			"-0.004": 12.7746763272,
			"-0.003": 19.790449742,
			"-0.002": 20.4307095829,
			"-0.001": 16.1202781196,
			"0.0": 13.6890635279,
			"0.001": 10.020184372,
			"0.002": 7.58087864901,
			"0.003": 6.90624286947,
			"0.004": 8.4089983704,
			"0.005": 8.07256982125,
			"0.006": 8.59973853123,
			"0.007": 8.69661728451,
			"0.008": 3.11692922088,
			"0.009": 1.54977420056,
			"0.01": 1.64503691216,
			"0.011": 1.26864695746,
			"0.012": 1.35041515784,
			"0.013": 2.01555599079,
			"0.014": 0.986714521779,
			"0.015": 0.928855987503,
			"0.016": 0.721663236535,
			"0.017": 0.714486719308,
			"0.018": 0.73414786717,
			"0.019": 0.601860032416,
			"0.02": 0.557752777681,
			"0.021": 0.0489831489259,
			"0.022": 0.0,
			"0.023": 0.0,
			"0.024": 0.0,
			"0.025": 0.0
		}
	}
}
