{
	 "smiles": "CCOC(=O)C=CC1=CC2=C(OCO2)C=C1", 
	 "Tm": 340.15, 
	 "num_atms": 28, 
	 "gaussian": { 
		 "optdone": 1, 
		 "sigma_profile": "yes", 
		 "theory": "DFT", 
		 "functional": "B3LYP", 
		 "basiset": "6-31G**", 
		 "properties": { 
			 "R2extent": 5261.2902, 
			 "electric_dipole_moment_norm": 3.44253958583, 
			 "electric_quadrupole_moment_norm": 11.8674168091, 
			 "total_energy": -765.369987558, 
			 "HOMO_LUMO_gap": 0.15057, 
			 "cosmo_polarized_energy": -11.06, 
			 "cosmo_cavitation_energy": 32.48, 
			 "cosmo_dispersion_energy": -23.47, 
			 "cosmo_repulsion_energy": 1.85, 
			 "cosmo_total_nonelectrostatic_energy": 10.86, 
			 "SMD_solvation_energy": 7.4 
		},
		"coords": [
			{
				"x": 2.5258087493,
				"y": 0.3026135543,
				"z": 3.4421839652,
				"element": "C" 
			},
			{
				"x": 1.9504174178,
				"y": 1.4983068861,
				"z": 2.6975169597,
				"element": "C" 
			},
			{
				"x": 0.5737638951,
				"y": 1.2695759608,
				"z": 2.3155186897,
				"element": "O" 
			},
			{
				"x": -0.36396044,
				"y": 1.5413069017,
				"z": 3.254331442,
				"element": "C" 
			},
			{
				"x": -0.0919048024,
				"y": 1.9706135192,
				"z": 4.3623377078,
				"element": "O" 
			},
			{
				"x": -1.7550417129,
				"y": 1.2310951299,
				"z": 2.8608372973,
				"element": "C" 
			},
			{
				"x": -2.3268125496,
				"y": 0.8506198979,
				"z": 1.6959508685,
				"element": "C" 
			},
			{
				"x": -1.8514710402,
				"y": 0.6957259967,
				"z": 0.3150552651,
				"element": "C" 
			},
			{
				"x": -2.5617171977,
				"y": -0.2291700224,
				"z": -0.4980916311,
				"element": "C" 
			},
			{
				"x": -2.1628296853,
				"y": -0.3760655397,
				"z": -1.8065949968,
				"element": "C" 
			},
			{
				"x": -1.1216946097,
				"y": 0.3754019266,
				"z": -2.3481019351,
				"element": "C" 
			},
			{
				"x": -0.9567108908,
				"y": 0.0556454862,
				"z": -3.6700227781,
				"element": "O" 
			},
			{
				"x": -1.862204335,
				"y": -1.0269859788,
				"z": -3.928760995,
				"element": "C" 
			},
			{
				"x": -2.6916805926,
				"y": -1.1971389831,
				"z": -2.7748356638,
				"element": "O" 
			},
			{
				"x": -0.4345955227,
				"y": 1.3091579616,
				"z": -1.5951643824,
				"element": "C" 
			},
			{
				"x": -0.8136110991,
				"y": 1.4544417948,
				"z": -0.2527635452,
				"element": "C" 
			},
			{
				"x": 2.428904974,
				"y": -0.6098731394,
				"z": 2.8465745312,
				"element": "H" 
			},
			{
				"x": 2.01034925,
				"y": 0.1614343225,
				"z": 4.3950073319,
				"element": "H" 
			},
			{
				"x": 3.5887280741,
				"y": 0.4690490981,
				"z": 3.6474248006,
				"element": "H" 
			},
			{
				"x": 2.4695385467,
				"y": 1.6648349293,
				"z": 1.7501847936,
				"element": "H" 
			},
			{
				"x": 2.0033158033,
				"y": 2.4036419451,
				"z": 3.306721624,
				"element": "H" 
			},
			{
				"x": -2.4080326514,
				"y": 1.3016447296,
				"z": 3.7256139384,
				"element": "H" 
			},
			{
				"x": -3.3838689241,
				"y": 0.6002260206,
				"z": 1.7958563089,
				"element": "H" 
			},
			{
				"x": -3.3856994062,
				"y": -0.809708561,
				"z": -0.0971849923,
				"element": "H" 
			},
			{
				"x": -1.2882612676,
				"y": -1.946093854,
				"z": -4.1104585837,
				"element": "H" 
			},
			{
				"x": -2.4851499818,
				"y": -0.7798178214,
				"z": -4.79454541,
				"element": "H" 
			},
			{
				"x": 0.3583440888,
				"y": 1.9078663344,
				"z": -2.0287101629,
				"element": "H" 
			},
			{
				"x": -0.29652409,
				"y": 2.1784515044,
				"z": 0.3606195522,
				"element": "H" 
			}
		],
		 "valence_orbital": [ 
			{
				"type": "occ",
				"energy": -0.29112,
				"method": "rhf"
			},
			{
				"type": "occ",
				"energy": -0.27955,
				"method": "rhf"
			},
			{
				"type": "occ",
				"energy": -0.26571,
				"method": "rhf"
			},
			{
				"type": "occ",
				"energy": -0.24671,
				"method": "rhf"
			},
			{
				"type": "occ",
				"energy": -0.20808,
				"method": "rhf"
			},
			{
				"type": "unocc",
				"energy": -0.05751,
				"method": "rhf"
			},
			{
				"type": "unocc",
				"energy": -0.00382,
				"method": "rhf"
			},
			{
				"type": "unocc",
				"energy": 0.02419,
				"method": "rhf"
			},
			{
				"type": "unocc",
				"energy": 0.08917,
				"method": "rhf"
			},
			{
				"type": "unocc",
				"energy": 0.09464,
				"method": "rhf"
			}
		],
		"cosmo_sigma_profile": { 
			"-0.025": 0.0,
			"-0.024": 0.0,
			"-0.023": 0.0,
			"-0.022": 0.0,
			"-0.021": 0.0,
			"-0.02": 0.0,
			"-0.019": 0.0,
			"-0.018": 0.0,
			"-0.017": 0.0,
			"-0.016": 0.0,
			"-0.015": 0.0,
			"-0.014": 0.0,
			"-0.013": 0.0,
			"-0.012": 0.0,
			"-0.011": 0.0,
			"-0.01": 0.0,
			"-0.009": 0.0927548223092,
			"-0.008": 4.42741432208,
			"-0.007": 12.866732647,
			"-0.006": 14.981363498,
			"-0.005": 14.5756051667,
			"-0.004": 19.7332066475,
			"-0.003": 21.2038023022,
			"-0.002": 21.8834808885,
			"-0.001": 20.3383854611,
			"0.0": 19.7398542187,
			"0.001": 17.3676306721,
			"0.002": 21.3970380854,
			"0.003": 17.1826095132,
			"0.004": 12.938587945,
			"0.005": 6.3720023603,
			"0.006": 6.68998293669,
			"0.007": 5.66035853221,
			"0.008": 4.12415105588,
			"0.009": 5.91653320356,
			"0.01": 2.20762138881,
			"0.011": 2.07882716728,
			"0.012": 3.92487454497,
			"0.013": 2.84285228049,
			"0.014": 0.324255445067,
			"0.015": 0.0,
			"0.016": 0.0,
			"0.017": 0.0,
			"0.018": 0.0,
			"0.019": 0.0,
			"0.02": 0.0,
			"0.021": 0.0,
			"0.022": 0.0,
			"0.023": 0.0,
			"0.024": 0.0,
			"0.025": 0.0
		}
	}
}
