{
	 "smiles": "CON(C)C(=O)NC1=CC=C(Cl)C(Cl)=C1", 
	 "Tm": 366.35, 
	 "num_atms": 25, 
	 "gaussian": { 
		 "optdone": 1, 
		 "sigma_profile": "yes", 
		 "theory": "DFT", 
		 "functional": "B3LYP", 
		 "basiset": "6-31G**", 
		 "properties": { 
			 "R2extent": 6822.2154, 
			 "electric_dipole_moment_norm": 4.71495110685, 
			 "electric_quadrupole_moment_norm": 15.1103163885, 
			 "total_energy": -1529.26748678, 
			 "HOMO_LUMO_gap": 0.20302, 
			 "cosmo_polarized_energy": -15.33, 
			 "cosmo_cavitation_energy": 32.9, 
			 "cosmo_dispersion_energy": -24.23, 
			 "cosmo_repulsion_energy": 1.9, 
			 "cosmo_total_nonelectrostatic_energy": 10.57, 
			 "SMD_solvation_energy": 6.62 
		},
		"coords": [
			{
				"x": -1.2419677342,
				"y": 4.1493344943,
				"z": -0.2232041958,
				"element": "C" 
			},
			{
				"x": -0.0965044578,
				"y": 3.5969361317,
				"z": -0.876428054,
				"element": "O" 
			},
			{
				"x": -0.3199653215,
				"y": 2.2348295331,
				"z": -1.1812375812,
				"element": "N" 
			},
			{
				"x": -0.0658694156,
				"y": 2.0206790036,
				"z": -2.6019006421,
				"element": "C" 
			},
			{
				"x": 0.1975100703,
				"y": 1.3974651411,
				"z": -0.1713794965,
				"element": "C" 
			},
			{
				"x": 0.3404843186,
				"y": 1.7848047083,
				"z": 0.9761754599,
				"element": "O" 
			},
			{
				"x": 0.4336117384,
				"y": 0.0969529281,
				"z": -0.5924694375,
				"element": "N" 
			},
			{
				"x": 0.7924251383,
				"y": -1.006580766,
				"z": 0.203467599,
				"element": "C" 
			},
			{
				"x": 1.0212368828,
				"y": -0.9351618365,
				"z": 1.586806457,
				"element": "C" 
			},
			{
				"x": 1.3735810658,
				"y": -2.0876821701,
				"z": 2.2817002653,
				"element": "C" 
			},
			{
				"x": 1.509545916,
				"y": -3.3191562578,
				"z": 1.6383929766,
				"element": "C" 
			},
			{
				"x": 1.9567349034,
				"y": -4.7279854525,
				"z": 2.5699300394,
				"element": "Cl" 
			},
			{
				"x": 1.2831085133,
				"y": -3.3871381562,
				"z": 0.2587184113,
				"element": "C" 
			},
			{
				"x": 1.4324574779,
				"y": -4.8901936655,
				"z": -0.62143508,
				"element": "Cl" 
			},
			{
				"x": 0.9275581524,
				"y": -2.2409173724,
				"z": -0.4481238921,
				"element": "C" 
			},
			{
				"x": -1.0046156243,
				"y": 5.2074609741,
				"z": -0.0883084645,
				"element": "H" 
			},
			{
				"x": -2.1412543813,
				"y": 4.0469302152,
				"z": -0.8427158877,
				"element": "H" 
			},
			{
				"x": -1.3970305298,
				"y": 3.6769952997,
				"z": 0.7502940171,
				"element": "H" 
			},
			{
				"x": 1.0025062667,
				"y": 2.0264451905,
				"z": -2.8576492612,
				"element": "H" 
			},
			{
				"x": -0.560018248,
				"y": 2.8269563738,
				"z": -3.1441175789,
				"element": "H" 
			},
			{
				"x": -0.5223075514,
				"y": 1.0821467351,
				"z": -2.9319603965,
				"element": "H" 
			},
			{
				"x": 0.3117913125,
				"y": -0.1105503027,
				"z": -1.5707877031,
				"element": "H" 
			},
			{
				"x": 0.9235649224,
				"y": 0.011696502,
				"z": 2.0967538286,
				"element": "H" 
			},
			{
				"x": 1.550646629,
				"y": -2.0350020156,
				"z": 3.3503668054,
				"element": "H" 
			},
			{
				"x": 0.7554699559,
				"y": -2.3228652357,
				"z": -1.5169881885,
				"element": "H" 
			}
		],
		 "valence_orbital": [ 
			{
				"type": "occ",
				"energy": -0.28709,
				"method": "rhf"
			},
			{
				"type": "occ",
				"energy": -0.27783,
				"method": "rhf"
			},
			{
				"type": "occ",
				"energy": -0.25924,
				"method": "rhf"
			},
			{
				"type": "occ",
				"energy": -0.25575,
				"method": "rhf"
			},
			{
				"type": "occ",
				"energy": -0.2265,
				"method": "rhf"
			},
			{
				"type": "unocc",
				"energy": -0.02348,
				"method": "rhf"
			},
			{
				"type": "unocc",
				"energy": -0.02166,
				"method": "rhf"
			},
			{
				"type": "unocc",
				"energy": 0.00237,
				"method": "rhf"
			},
			{
				"type": "unocc",
				"energy": 0.03801,
				"method": "rhf"
			},
			{
				"type": "unocc",
				"energy": 0.05065,
				"method": "rhf"
			}
		],
		"cosmo_sigma_profile": { 
			"-0.025": 0.0,
			"-0.024": 0.0,
			"-0.023": 0.0,
			"-0.022": 0.0,
			"-0.021": 0.0,
			"-0.02": 0.0,
			"-0.019": 0.0,
			"-0.018": 0.0,
			"-0.017": 0.102111338255,
			"-0.016": 0.861951270986,
			"-0.015": 1.4250539093,
			"-0.014": 2.01318111013,
			"-0.013": 1.08563825068,
			"-0.012": 0.943912096708,
			"-0.011": 1.66957336376,
			"-0.01": 2.31030939851,
			"-0.009": 1.42253569801,
			"-0.008": 3.15592952456,
			"-0.007": 5.17954180447,
			"-0.006": 10.6126170559,
			"-0.005": 13.2739942817,
			"-0.004": 16.2882826878,
			"-0.003": 22.5371299123,
			"-0.002": 17.1410306403,
			"-0.001": 14.2522276582,
			"0.0": 20.8300449452,
			"0.001": 26.1215965679,
			"0.002": 28.3755377799,
			"0.003": 22.0590729955,
			"0.004": 20.5793944267,
			"0.005": 10.5298132778,
			"0.006": 4.22364587961,
			"0.007": 1.94728212853,
			"0.008": 2.86082613373,
			"0.009": 3.1224718201,
			"0.01": 2.6756098981,
			"0.011": 3.15575863095,
			"0.012": 2.77532082429,
			"0.013": 2.60554809571,
			"0.014": 0.869788507413,
			"0.015": 0.0,
			"0.016": 0.0,
			"0.017": 0.0,
			"0.018": 0.0,
			"0.019": 0.0,
			"0.02": 0.0,
			"0.021": 0.0,
			"0.022": 0.0,
			"0.023": 0.0,
			"0.024": 0.0,
			"0.025": 0.0
		}
	}
}
