{
	 "smiles": "O=C1CSC(=N1)N1CCCCC1", 
	 "Tm": 351.15, 
	 "num_atms": 24, 
	 "gaussian": { 
		 "optdone": 1, 
		 "sigma_profile": "yes", 
		 "theory": "DFT", 
		 "functional": "B3LYP", 
		 "basiset": "6-31G**", 
		 "properties": { 
			 "R2extent": 4111.9977, 
			 "electric_dipole_moment_norm": 6.12693250248, 
			 "electric_quadrupole_moment_norm": 24.8709675089, 
			 "total_energy": -895.011380912, 
			 "HOMO_LUMO_gap": 0.21666, 
			 "cosmo_polarized_energy": -14.55, 
			 "cosmo_cavitation_energy": 27.05, 
			 "cosmo_dispersion_energy": -21.04, 
			 "cosmo_repulsion_energy": 1.65, 
			 "cosmo_total_nonelectrostatic_energy": 7.66, 
			 "SMD_solvation_energy": 2.64 
		},
		"coords": [
			{
				"x": -0.7908360883,
				"y": 4.0010591769,
				"z": -4.076558601,
				"element": "O" 
			},
			{
				"x": -0.8448394671,
				"y": 3.5850164286,
				"z": -2.9375637998,
				"element": "C" 
			},
			{
				"x": -1.4964255606,
				"y": 4.4416754342,
				"z": -1.8139559538,
				"element": "C" 
			},
			{
				"x": -1.3998859853,
				"y": 3.4642069443,
				"z": -0.2821856784,
				"element": "S" 
			},
			{
				"x": -0.5575881092,
				"y": 2.1660234499,
				"z": -1.2207288839,
				"element": "C" 
			},
			{
				"x": -0.3611394163,
				"y": 2.366535805,
				"z": -2.4956569632,
				"element": "N" 
			},
			{
				"x": -0.1736016986,
				"y": 1.048326951,
				"z": -0.5841865244,
				"element": "N" 
			},
			{
				"x": 0.4551768394,
				"y": -0.0454060945,
				"z": -1.3541471452,
				"element": "C" 
			},
			{
				"x": 0.0512734257,
				"y": -1.3975622618,
				"z": -0.7644038936,
				"element": "C" 
			},
			{
				"x": 0.4922674504,
				"y": -1.5449265763,
				"z": 0.7112262942,
				"element": "C" 
			},
			{
				"x": 0.6084448103,
				"y": -0.1705696968,
				"z": 1.4058584536,
				"element": "C" 
			},
			{
				"x": -0.4003406268,
				"y": 0.8400828721,
				"z": 0.8545990349,
				"element": "C" 
			},
			{
				"x": -0.9562085827,
				"y": 5.3848060416,
				"z": -1.7090533148,
				"element": "H" 
			},
			{
				"x": -2.5360792525,
				"y": 4.654603077,
				"z": -2.070133894,
				"element": "H" 
			},
			{
				"x": 0.1330497641,
				"y": 0.0604783743,
				"z": -2.3900311267,
				"element": "H" 
			},
			{
				"x": 1.5467069137,
				"y": 0.0776916135,
				"z": -1.3401393833,
				"element": "H" 
			},
			{
				"x": 0.4800900401,
				"y": -2.1946044885,
				"z": -1.3801508371,
				"element": "H" 
			},
			{
				"x": -1.0376332786,
				"y": -1.4953541441,
				"z": -0.8450700482,
				"element": "H" 
			},
			{
				"x": -0.226636511,
				"y": -2.1767319156,
				"z": 1.2441558057,
				"element": "H" 
			},
			{
				"x": 1.4581401773,
				"y": -2.0578774959,
				"z": 0.7713362111,
				"element": "H" 
			},
			{
				"x": 0.4578720725,
				"y": -0.2661784241,
				"z": 2.4858387619,
				"element": "H" 
			},
			{
				"x": 1.6152277269,
				"y": 0.2398576424,
				"z": 1.2670248968,
				"element": "H" 
			},
			{
				"x": -0.2885292729,
				"y": 1.7983700933,
				"z": 1.3708486109,
				"element": "H" 
			},
			{
				"x": -1.4282053705,
				"y": 0.4908771936,
				"z": 1.0293779784,
				"element": "H" 
			}
		],
		 "valence_orbital": [ 
			{
				"type": "occ",
				"energy": -0.33276,
				"method": "rhf"
			},
			{
				"type": "occ",
				"energy": -0.27231,
				"method": "rhf"
			},
			{
				"type": "occ",
				"energy": -0.25196,
				"method": "rhf"
			},
			{
				"type": "occ",
				"energy": -0.24011,
				"method": "rhf"
			},
			{
				"type": "occ",
				"energy": -0.23619,
				"method": "rhf"
			},
			{
				"type": "unocc",
				"energy": -0.01953,
				"method": "rhf"
			},
			{
				"type": "unocc",
				"energy": 0.01039,
				"method": "rhf"
			},
			{
				"type": "unocc",
				"energy": 0.05921,
				"method": "rhf"
			},
			{
				"type": "unocc",
				"energy": 0.0678,
				"method": "rhf"
			},
			{
				"type": "unocc",
				"energy": 0.07004,
				"method": "rhf"
			}
		],
		"cosmo_sigma_profile": { 
			"-0.025": 0.0,
			"-0.024": 0.0,
			"-0.023": 0.0,
			"-0.022": 0.0,
			"-0.021": 0.0,
			"-0.02": 0.0,
			"-0.019": 0.0,
			"-0.018": 0.0,
			"-0.017": 0.0,
			"-0.016": 0.0,
			"-0.015": 0.0,
			"-0.014": 0.0,
			"-0.013": 0.0,
			"-0.012": 0.0,
			"-0.011": 0.0,
			"-0.01": 0.0,
			"-0.009": 0.011068390605,
			"-0.008": 2.56978878274,
			"-0.007": 4.40422029266,
			"-0.006": 4.93327674974,
			"-0.005": 13.6221313016,
			"-0.004": 29.8639708168,
			"-0.003": 35.7288861808,
			"-0.002": 26.7618802151,
			"-0.001": 17.7297344749,
			"0.0": 16.6143375531,
			"0.001": 6.97103721814,
			"0.002": 5.93321777898,
			"0.003": 5.30729796171,
			"0.004": 4.57248745509,
			"0.005": 4.54475837252,
			"0.006": 5.08623662973,
			"0.007": 2.72821221192,
			"0.008": 1.90291162051,
			"0.009": 2.2565238107,
			"0.01": 2.60015303338,
			"0.011": 2.78505100946,
			"0.012": 4.47299397924,
			"0.013": 6.93198357526,
			"0.014": 4.97103410744,
			"0.015": 1.06425525695,
			"0.016": 0.0,
			"0.017": 0.0,
			"0.018": 0.0,
			"0.019": 0.0,
			"0.02": 0.0,
			"0.021": 0.0,
			"0.022": 0.0,
			"0.023": 0.0,
			"0.024": 0.0,
			"0.025": 0.0
		}
	}
}
