{
	 "smiles": "CCCCCCCCOC1=CC=C(C=C1)C#N", 
	 "Tm": 298.15, 
	 "num_atms": 38, 
	 "gaussian": { 
		 "optdone": 1, 
		 "sigma_profile": "yes", 
		 "theory": "DFT", 
		 "functional": "B3LYP", 
		 "basiset": "6-31G**", 
		 "properties": { 
			 "R2extent": 9891.7763, 
			 "electric_dipole_moment_norm": 6.39983383066, 
			 "electric_quadrupole_moment_norm": 42.7901974102, 
			 "total_energy": -714.226132338, 
			 "HOMO_LUMO_gap": 0.19877, 
			 "cosmo_polarized_energy": -10.71, 
			 "cosmo_cavitation_energy": 41.09, 
			 "cosmo_dispersion_energy": -28.1, 
			 "cosmo_repulsion_energy": 2.25, 
			 "cosmo_total_nonelectrostatic_energy": 15.24, 
			 "SMD_solvation_energy": 7.75 
		},
		"coords": [
			{
				"x": -2.6763192626,
				"y": 2.9708313117,
				"z": -0.4753394227,
				"element": "C" 
			},
			{
				"x": -1.8230155175,
				"y": 3.403627128,
				"z": 0.7248210393,
				"element": "C" 
			},
			{
				"x": -0.3570205569,
				"y": 3.7655876147,
				"z": 0.3999257921,
				"element": "C" 
			},
			{
				"x": 0.6593077289,
				"y": 2.6091741893,
				"z": 0.4395402143,
				"element": "C" 
			},
			{
				"x": 0.4755017399,
				"y": 1.5133133724,
				"z": -0.6211675672,
				"element": "C" 
			},
			{
				"x": 1.6432288752,
				"y": 0.5113743653,
				"z": -0.6990906839,
				"element": "C" 
			},
			{
				"x": 1.9132223608,
				"y": -0.3140820799,
				"z": 0.570990963,
				"element": "C" 
			},
			{
				"x": 0.7618668628,
				"y": -1.2349538878,
				"z": 0.9534553381,
				"element": "C" 
			},
			{
				"x": 1.183951789,
				"y": -1.9987387501,
				"z": 2.0888311857,
				"element": "O" 
			},
			{
				"x": 0.3284157659,
				"y": -2.8941862496,
				"z": 2.6396371814,
				"element": "C" 
			},
			{
				"x": 0.8152061321,
				"y": -3.5906283195,
				"z": 3.7605236539,
				"element": "C" 
			},
			{
				"x": 0.0230529062,
				"y": -4.5289226384,
				"z": 4.3995323074,
				"element": "C" 
			},
			{
				"x": -1.2798054834,
				"y": -4.7956020671,
				"z": 3.9327184344,
				"element": "C" 
			},
			{
				"x": -1.7606992631,
				"y": -4.0991985844,
				"z": 2.8142437244,
				"element": "C" 
			},
			{
				"x": -0.9673293169,
				"y": -3.1544884019,
				"z": 2.1680038178,
				"element": "C" 
			},
			{
				"x": -2.1019373061,
				"y": -5.7647602911,
				"z": 4.5913805068,
				"element": "C" 
			},
			{
				"x": -2.7698809653,
				"y": -6.552965945,
				"z": 5.1276403773,
				"element": "N" 
			},
			{
				"x": -2.7058664946,
				"y": 3.7598084146,
				"z": -1.2355911415,
				"element": "H" 
			},
			{
				"x": -3.7085974672,
				"y": 2.7693107814,
				"z": -0.1694251373,
				"element": "H" 
			},
			{
				"x": -2.2932785877,
				"y": 2.0670257113,
				"z": -0.957767396,
				"element": "H" 
			},
			{
				"x": -2.3034876404,
				"y": 4.2780751812,
				"z": 1.1810571374,
				"element": "H" 
			},
			{
				"x": -1.8414390168,
				"y": 2.6211859704,
				"z": 1.4964430821,
				"element": "H" 
			},
			{
				"x": -0.3134412939,
				"y": 4.2572812704,
				"z": -0.5824616482,
				"element": "H" 
			},
			{
				"x": -0.0176470391,
				"y": 4.5171020591,
				"z": 1.1237282158,
				"element": "H" 
			},
			{
				"x": 1.6659029585,
				"y": 3.0356271338,
				"z": 0.3237394638,
				"element": "H" 
			},
			{
				"x": 0.6377316179,
				"y": 2.1624021305,
				"z": 1.4430972273,
				"element": "H" 
			},
			{
				"x": 0.3668476297,
				"y": 1.9855917253,
				"z": -1.6065622432,
				"element": "H" 
			},
			{
				"x": -0.463756334,
				"y": 0.9748492373,
				"z": -0.4449905799,
				"element": "H" 
			},
			{
				"x": 1.4667712309,
				"y": -0.1750973972,
				"z": -1.538336909,
				"element": "H" 
			},
			{
				"x": 2.5608511689,
				"y": 1.0597579805,
				"z": -0.9474821992,
				"element": "H" 
			},
			{
				"x": 2.8036209863,
				"y": -0.9342126557,
				"z": 0.4163819433,
				"element": "H" 
			},
			{
				"x": 2.1357490492,
				"y": 0.341138256,
				"z": 1.4204605797,
				"element": "H" 
			},
			{
				"x": -0.141045422,
				"y": -0.6658576631,
				"z": 1.2109139988,
				"element": "H" 
			},
			{
				"x": 0.5118131805,
				"y": -1.9105419361,
				"z": 0.1226323353,
				"element": "H" 
			},
			{
				"x": 1.8197929671,
				"y": -3.3731101749,
				"z": 4.1068558156,
				"element": "H" 
			},
			{
				"x": 0.4018672844,
				"y": -5.0638542841,
				"z": 5.2640350076,
				"element": "H" 
			},
			{
				"x": -2.7626328903,
				"y": -4.3005874058,
				"z": 2.449714178,
				"element": "H" 
			},
			{
				"x": -1.3623023764,
				"y": -2.6318751013,
				"z": 1.3058114074,
				"element": "H" 
			}
		],
		 "valence_orbital": [ 
			{
				"type": "occ",
				"energy": -0.31629,
				"method": "rhf"
			},
			{
				"type": "occ",
				"energy": -0.31446,
				"method": "rhf"
			},
			{
				"type": "occ",
				"energy": -0.3108,
				"method": "rhf"
			},
			{
				"type": "occ",
				"energy": -0.27306,
				"method": "rhf"
			},
			{
				"type": "occ",
				"energy": -0.23478,
				"method": "rhf"
			},
			{
				"type": "unocc",
				"energy": -0.03601,
				"method": "rhf"
			},
			{
				"type": "unocc",
				"energy": -0.02064,
				"method": "rhf"
			},
			{
				"type": "unocc",
				"energy": 0.04463,
				"method": "rhf"
			},
			{
				"type": "unocc",
				"energy": 0.06162,
				"method": "rhf"
			},
			{
				"type": "unocc",
				"energy": 0.08104,
				"method": "rhf"
			}
		],
		"cosmo_sigma_profile": { 
			"-0.025": 0.0,
			"-0.024": 0.0,
			"-0.023": 0.0,
			"-0.022": 0.0,
			"-0.021": 0.0,
			"-0.02": 0.0,
			"-0.019": 0.0,
			"-0.018": 0.0,
			"-0.017": 0.0,
			"-0.016": 0.0,
			"-0.015": 0.0,
			"-0.014": 0.0,
			"-0.013": 0.0,
			"-0.012": 0.0,
			"-0.011": 0.0,
			"-0.01": 0.0,
			"-0.009": 0.0,
			"-0.008": 2.3762837523,
			"-0.007": 8.01947762658,
			"-0.006": 10.9141082334,
			"-0.005": 12.4641940635,
			"-0.004": 13.501988414,
			"-0.003": 21.4395952881,
			"-0.002": 35.712552872,
			"-0.001": 48.5861200826,
			"0.0": 50.6341683142,
			"0.001": 39.5814169182,
			"0.002": 28.0026620776,
			"0.003": 13.9169745794,
			"0.004": 4.98140870071,
			"0.005": 3.18941830888,
			"0.006": 4.08699824366,
			"0.007": 3.62417091961,
			"0.008": 4.42621373055,
			"0.009": 4.98542987618,
			"0.01": 3.48170524089,
			"0.011": 3.14100500709,
			"0.012": 2.49412517914,
			"0.013": 2.24013460728,
			"0.014": 0.564316731962,
			"0.015": 0.0,
			"0.016": 0.0,
			"0.017": 0.0,
			"0.018": 0.0,
			"0.019": 0.0,
			"0.02": 0.0,
			"0.021": 0.0,
			"0.022": 0.0,
			"0.023": 0.0,
			"0.024": 0.0,
			"0.025": 0.0
		}
	}
}
