{
	 "smiles": "NC1=CC(F)=C(Br)C=C1", 
	 "Tm": 341.15, 
	 "num_atms": 14, 
	 "gaussian": { 
		 "optdone": 1, 
		 "sigma_profile": "yes", 
		 "theory": "DFT", 
		 "functional": "B3LYP", 
		 "basiset": "6-31G**", 
		 "properties": { 
			 "R2extent": 3474.8218, 
			 "electric_dipole_moment_norm": 4.16833245435, 
			 "electric_quadrupole_moment_norm": 5.5599687652, 
			 "total_energy": -2957.64110306, 
			 "HOMO_LUMO_gap": 0.19992, 
			 "cosmo_polarized_energy": -9.16, 
			 "cosmo_cavitation_energy": 20.9, 
			 "cosmo_dispersion_energy": -16.0, 
			 "cosmo_repulsion_energy": 1.3, 
			 "cosmo_total_nonelectrostatic_energy": 6.2, 
			 "SMD_solvation_energy": 2.96 
		},
		"coords": [
			{
				"x": 0.0802564282,
				"y": -1.1181588075,
				"z": 1.6996009832,
				"element": "N" 
			},
			{
				"x": 0.4646316491,
				"y": -0.0814273494,
				"z": 0.8554542523,
				"element": "C" 
			},
			{
				"x": 0.0555164272,
				"y": -0.0660314465,
				"z": -0.4882017789,
				"element": "C" 
			},
			{
				"x": 0.4934331673,
				"y": 0.9438802004,
				"z": -1.3329237401,
				"element": "C" 
			},
			{
				"x": 0.081084168,
				"y": 0.92996128,
				"z": -2.6114608715,
				"element": "F" 
			},
			{
				"x": 1.33701222,
				"y": 1.9597329089,
				"z": -0.886275883,
				"element": "C" 
			},
			{
				"x": 1.907418043,
				"y": 3.3259568026,
				"z": -2.0790201351,
				"element": "Br" 
			},
			{
				"x": 1.7438783417,
				"y": 1.9457616605,
				"z": 0.4476831696,
				"element": "C" 
			},
			{
				"x": 1.3164112305,
				"y": 0.9421927717,
				"z": 1.3109137429,
				"element": "C" 
			},
			{
				"x": -0.7622875044,
				"y": -1.610030362,
				"z": 1.437851743,
				"element": "H" 
			},
			{
				"x": 0.1148103123,
				"y": -0.9124740017,
				"z": 2.6879387754,
				"element": "H" 
			},
			{
				"x": -0.5967389533,
				"y": -0.8342924482,
				"z": -0.8910015976,
				"element": "H" 
			},
			{
				"x": 2.3988896463,
				"y": 2.730765606,
				"z": 0.8091974609,
				"element": "H" 
			},
			{
				"x": 1.648284824,
				"y": 0.946363185,
				"z": 2.3452438789,
				"element": "H" 
			}
		],
		 "valence_orbital": [ 
			{
				"type": "occ",
				"energy": -0.33961,
				"method": "rhf"
			},
			{
				"type": "occ",
				"energy": -0.28231,
				"method": "rhf"
			},
			{
				"type": "occ",
				"energy": -0.28187,
				"method": "rhf"
			},
			{
				"type": "occ",
				"energy": -0.25419,
				"method": "rhf"
			},
			{
				"type": "occ",
				"energy": -0.20944,
				"method": "rhf"
			},
			{
				"type": "unocc",
				"energy": -0.00952,
				"method": "rhf"
			},
			{
				"type": "unocc",
				"energy": 0.00477,
				"method": "rhf"
			},
			{
				"type": "unocc",
				"energy": 0.00935,
				"method": "rhf"
			},
			{
				"type": "unocc",
				"energy": 0.07295,
				"method": "rhf"
			},
			{
				"type": "unocc",
				"energy": 0.10928,
				"method": "rhf"
			}
		],
		"cosmo_sigma_profile": { 
			"-0.025": 0.0,
			"-0.024": 0.0,
			"-0.023": 0.0,
			"-0.022": 0.0,
			"-0.021": 0.0,
			"-0.02": 0.0,
			"-0.019": 0.0,
			"-0.018": 0.0,
			"-0.017": 0.0,
			"-0.016": 0.0,
			"-0.015": 0.0,
			"-0.014": 0.0506749029311,
			"-0.013": 2.06673573798,
			"-0.012": 2.85041707661,
			"-0.011": 3.51294897341,
			"-0.01": 2.8325041686,
			"-0.009": 2.91392836315,
			"-0.008": 3.84883663804,
			"-0.007": 5.80733828288,
			"-0.006": 6.83639447816,
			"-0.005": 5.91043472488,
			"-0.004": 6.00229099143,
			"-0.003": 6.54931737243,
			"-0.002": 6.05524024412,
			"-0.001": 6.5238401664,
			"0.0": 9.43192393896,
			"0.001": 13.602235016,
			"0.002": 14.3653309121,
			"0.003": 21.805548369,
			"0.004": 26.0539439196,
			"0.005": 15.451045399,
			"0.006": 2.83821283133,
			"0.007": 1.15453184239,
			"0.008": 0.921278200033,
			"0.009": 0.44281182214,
			"0.01": 0.399807958999,
			"0.011": 0.949323179348,
			"0.012": 0.628551046623,
			"0.013": 0.543453719592,
			"0.014": 0.114863522903,
			"0.015": 0.0,
			"0.016": 0.0,
			"0.017": 0.0,
			"0.018": 0.0,
			"0.019": 0.0,
			"0.02": 0.0,
			"0.021": 0.0,
			"0.022": 0.0,
			"0.023": 0.0,
			"0.024": 0.0,
			"0.025": 0.0
		}
	}
}
