{
	 "smiles": "O=C(C1=CC=CC=C1)C1=CC=NC=C1", 
	 "Tm": 344.15, 
	 "num_atms": 23, 
	 "gaussian": { 
		 "optdone": 1, 
		 "sigma_profile": "yes", 
		 "theory": "DFT", 
		 "functional": "B3LYP", 
		 "basiset": "6-31G**", 
		 "properties": { 
			 "R2extent": 3299.6535, 
			 "electric_dipole_moment_norm": 3.23891241932, 
			 "electric_quadrupole_moment_norm": 6.94484838999, 
			 "total_energy": -592.667917002, 
			 "HOMO_LUMO_gap": 0.17557, 
			 "cosmo_polarized_energy": -9.97, 
			 "cosmo_cavitation_energy": 27.61, 
			 "cosmo_dispersion_energy": -20.15, 
			 "cosmo_repulsion_energy": 1.56, 
			 "cosmo_total_nonelectrostatic_energy": 9.03, 
			 "SMD_solvation_energy": 3.81 
		},
		"coords": [
			{
				"x": -2.0787993716,
				"y": -1.7295791819,
				"z": -0.2391089645,
				"element": "O" 
			},
			{
				"x": -1.0535084397,
				"y": -1.1529823703,
				"z": 0.1024614018,
				"element": "C" 
			},
			{
				"x": -0.0408421295,
				"y": -0.7355110754,
				"z": -0.9176724954,
				"element": "C" 
			},
			{
				"x": 0.8400961541,
				"y": 0.3408340825,
				"z": -0.7262519429,
				"element": "C" 
			},
			{
				"x": 1.718940013,
				"y": 0.7186397289,
				"z": -1.7420320665,
				"element": "C" 
			},
			{
				"x": 1.7340655376,
				"y": 0.0198065468,
				"z": -2.9501374843,
				"element": "C" 
			},
			{
				"x": 0.8544775639,
				"y": -1.049003888,
				"z": -3.1512617515,
				"element": "C" 
			},
			{
				"x": -0.0350793515,
				"y": -1.4160910714,
				"z": -2.1468024334,
				"element": "C" 
			},
			{
				"x": -0.8267783633,
				"y": -0.876155326,
				"z": 1.5663969973,
				"element": "C" 
			},
			{
				"x": -1.9443544957,
				"y": -0.6910671016,
				"z": 2.3900374603,
				"element": "C" 
			},
			{
				"x": -1.7494218057,
				"y": -0.4875161094,
				"z": 3.7537383651,
				"element": "C" 
			},
			{
				"x": -0.5435870973,
				"y": -0.4814801974,
				"z": 4.3410425886,
				"element": "N" 
			},
			{
				"x": 0.5174367455,
				"y": -0.6858465396,
				"z": 3.5528673685,
				"element": "C" 
			},
			{
				"x": 0.4354774365,
				"y": -0.8793889923,
				"z": 2.1719280703,
				"element": "C" 
			},
			{
				"x": 0.8218947934,
				"y": 0.8999333915,
				"z": 0.2031481275,
				"element": "H" 
			},
			{
				"x": 2.3886553702,
				"y": 1.5599886428,
				"z": -1.5905561279,
				"element": "H" 
			},
			{
				"x": 2.4248989966,
				"y": 0.3102284094,
				"z": -3.7365242314,
				"element": "H" 
			},
			{
				"x": 0.8614577831,
				"y": -1.5892182193,
				"z": -4.0933755592,
				"element": "H" 
			},
			{
				"x": -0.7391952531,
				"y": -2.2290560407,
				"z": -2.2890455638,
				"element": "H" 
			},
			{
				"x": -2.9391088246,
				"y": -0.7122531849,
				"z": 1.9586716876,
				"element": "H" 
			},
			{
				"x": -2.6018338365,
				"y": -0.3257660168,
				"z": 4.4108860404,
				"element": "H" 
			},
			{
				"x": 1.4875000815,
				"y": -0.6957574996,
				"z": 4.0468875482,
				"element": "H" 
			},
			{
				"x": 1.3363084929,
				"y": -1.0511579874,
				"z": 1.5930029653,
				"element": "H" 
			}
		],
		 "valence_orbital": [ 
			{
				"type": "occ",
				"energy": -0.27216,
				"method": "rhf"
			},
			{
				"type": "occ",
				"energy": -0.2691,
				"method": "rhf"
			},
			{
				"type": "occ",
				"energy": -0.26793,
				"method": "rhf"
			},
			{
				"type": "occ",
				"energy": -0.26268,
				"method": "rhf"
			},
			{
				"type": "occ",
				"energy": -0.25333,
				"method": "rhf"
			},
			{
				"type": "unocc",
				"energy": -0.07776,
				"method": "rhf"
			},
			{
				"type": "unocc",
				"energy": -0.02895,
				"method": "rhf"
			},
			{
				"type": "unocc",
				"energy": -0.0204,
				"method": "rhf"
			},
			{
				"type": "unocc",
				"energy": -0.01343,
				"method": "rhf"
			},
			{
				"type": "unocc",
				"energy": 0.0446,
				"method": "rhf"
			}
		],
		"cosmo_sigma_profile": { 
			"-0.025": 0.0,
			"-0.024": 0.0,
			"-0.023": 0.0,
			"-0.022": 0.0,
			"-0.021": 0.0,
			"-0.02": 0.0,
			"-0.019": 0.0,
			"-0.018": 0.0,
			"-0.017": 0.0,
			"-0.016": 0.0,
			"-0.015": 0.0,
			"-0.014": 0.0,
			"-0.013": 0.0,
			"-0.012": 0.0,
			"-0.011": 0.0,
			"-0.01": 0.0,
			"-0.009": 0.0,
			"-0.008": 0.20398721251,
			"-0.007": 7.07462494286,
			"-0.006": 18.8334353741,
			"-0.005": 19.6612167984,
			"-0.004": 19.7890926277,
			"-0.003": 16.3791002096,
			"-0.002": 14.1108534192,
			"-0.001": 13.1596498316,
			"0.0": 17.3151106761,
			"0.001": 21.0129985801,
			"0.002": 15.9960343241,
			"0.003": 15.0438199093,
			"0.004": 13.7618576758,
			"0.005": 3.87307158568,
			"0.006": 2.97491339589,
			"0.007": 3.28632324636,
			"0.008": 2.76131006943,
			"0.009": 3.18040454532,
			"0.01": 3.16886193514,
			"0.011": 4.73213504134,
			"0.012": 3.01105693298,
			"0.013": 0.888554490463,
			"0.014": 0.962660692507,
			"0.015": 0.83374373765,
			"0.016": 0.635427706368,
			"0.017": 0.0326356055955,
			"0.018": 0.0,
			"0.019": 0.0,
			"0.02": 0.0,
			"0.021": 0.0,
			"0.022": 0.0,
			"0.023": 0.0,
			"0.024": 0.0,
			"0.025": 0.0
		}
	}
}
