{
	 "smiles": "COC1=C2OC(=O)[C@](CC3=CC=CC=C3)(C(C)=O)C2=C(C)C(O)=C1OC", 
	 "Tm": 412.0, 
	 "num_atms": 46, 
	 "gaussian": { 
		 "optdone": 1, 
		 "sigma_profile": "yes", 
		 "theory": "DFT", 
		 "functional": "B3LYP", 
		 "basiset": "6-31G**", 
		 "properties": { 
			 "R2extent": 10468.7684, 
			 "electric_dipole_moment_norm": 3.3978827805, 
			 "electric_quadrupole_moment_norm": 7.36982954484, 
			 "total_energy": -1225.48966508, 
			 "HOMO_LUMO_gap": 0.17648, 
			 "cosmo_polarized_energy": -19.18, 
			 "cosmo_cavitation_energy": 48.03, 
			 "cosmo_dispersion_energy": -32.38, 
			 "cosmo_repulsion_energy": 2.46, 
			 "cosmo_total_nonelectrostatic_energy": 18.11, 
			 "SMD_solvation_energy": 11.07 
		},
		"coords": [
			{
				"x": 1.5713985524,
				"y": 4.8075960544,
				"z": -1.9526469713,
				"element": "C" 
			},
			{
				"x": 0.3479036056,
				"y": 4.2016232575,
				"z": -1.5136257417,
				"element": "O" 
			},
			{
				"x": 0.4261867569,
				"y": 3.4855227328,
				"z": -0.3545072559,
				"element": "C" 
			},
			{
				"x": 0.2596540209,
				"y": 2.1049613413,
				"z": -0.3620277029,
				"element": "C" 
			},
			{
				"x": 0.079809728,
				"y": 1.3697592043,
				"z": -1.5232060735,
				"element": "O" 
			},
			{
				"x": -0.0865051456,
				"y": 0.0466124616,
				"z": -1.1781141653,
				"element": "C" 
			},
			{
				"x": -0.3235942014,
				"y": -0.7943376362,
				"z": -2.0025657052,
				"element": "O" 
			},
			{
				"x": 0.0760747623,
				"y": -0.1250141154,
				"z": 0.3471849661,
				"element": "C" 
			},
			{
				"x": 1.3480580322,
				"y": -0.984919916,
				"z": 0.6694011786,
				"element": "C" 
			},
			{
				"x": 1.4076337192,
				"y": -2.3878788891,
				"z": 0.0970646122,
				"element": "C" 
			},
			{
				"x": 0.8632018008,
				"y": -3.4758704422,
				"z": 0.7951803945,
				"element": "C" 
			},
			{
				"x": 0.9557858185,
				"y": -4.7699588198,
				"z": 0.2815939625,
				"element": "C" 
			},
			{
				"x": 1.5989797442,
				"y": -4.9990303889,
				"z": -0.9358658494,
				"element": "C" 
			},
			{
				"x": 2.1515055329,
				"y": -3.9251211562,
				"z": -1.6355616426,
				"element": "C" 
			},
			{
				"x": 2.056730279,
				"y": -2.6325152573,
				"z": -1.1208309136,
				"element": "C" 
			},
			{
				"x": -1.2063036515,
				"y": -0.7340906452,
				"z": 0.9816485388,
				"element": "C" 
			},
			{
				"x": -2.5227056766,
				"y": -0.519040708,
				"z": 0.2734372269,
				"element": "C" 
			},
			{
				"x": -1.1370647832,
				"y": -1.3278672454,
				"z": 2.0411521509,
				"element": "O" 
			},
			{
				"x": 0.2455753067,
				"y": 1.325309535,
				"z": 0.7929722356,
				"element": "C" 
			},
			{
				"x": 0.430157284,
				"y": 1.9171313287,
				"z": 2.0505339501,
				"element": "C" 
			},
			{
				"x": 0.446468008,
				"y": 1.1589560278,
				"z": 3.3591261886,
				"element": "C" 
			},
			{
				"x": 0.6200727022,
				"y": 3.314471209,
				"z": 2.0738953054,
				"element": "C" 
			},
			{
				"x": 0.8157125537,
				"y": 3.9998292441,
				"z": 3.2431439185,
				"element": "O" 
			},
			{
				"x": 0.6143356075,
				"y": 4.0920191181,
				"z": 0.9007700025,
				"element": "C" 
			},
			{
				"x": 0.839017353,
				"y": 5.443373067,
				"z": 0.9524943365,
				"element": "O" 
			},
			{
				"x": -0.2582846301,
				"y": 6.2253438524,
				"z": 1.4405408162,
				"element": "C" 
			},
			{
				"x": 2.3328870277,
				"y": 4.0439140265,
				"z": -2.1526641429,
				"element": "H" 
			},
			{
				"x": 1.9448899899,
				"y": 5.5210363452,
				"z": -1.2130809277,
				"element": "H" 
			},
			{
				"x": 1.3314126948,
				"y": 5.3273623869,
				"z": -2.8819465006,
				"element": "H" 
			},
			{
				"x": 1.4151412983,
				"y": -1.0330845478,
				"z": 1.7583612119,
				"element": "H" 
			},
			{
				"x": 2.2121384977,
				"y": -0.4098613093,
				"z": 0.3209340953,
				"element": "H" 
			},
			{
				"x": 0.3646017675,
				"y": -3.3027223784,
				"z": 1.7434340822,
				"element": "H" 
			},
			{
				"x": 0.5298685008,
				"y": -5.6005793154,
				"z": 0.83765963,
				"element": "H" 
			},
			{
				"x": 1.6737645022,
				"y": -6.0070548223,
				"z": -1.3339323713,
				"element": "H" 
			},
			{
				"x": 2.658081774,
				"y": -4.0924943097,
				"z": -2.5818094329,
				"element": "H" 
			},
			{
				"x": 2.4918990258,
				"y": -1.8034752192,
				"z": -1.6725398869,
				"element": "H" 
			},
			{
				"x": -2.6371093035,
				"y": 0.5252393829,
				"z": -0.0373553964,
				"element": "H" 
			},
			{
				"x": -2.5440039558,
				"y": -1.1289255244,
				"z": -0.6361034465,
				"element": "H" 
			},
			{
				"x": -3.3415702163,
				"y": -0.8089051072,
				"z": 0.9324905647,
				"element": "H" 
			},
			{
				"x": 1.4375116611,
				"y": 1.1941269334,
				"z": 3.832173018,
				"element": "H" 
			},
			{
				"x": -0.2761185101,
				"y": 1.5797414165,
				"z": 4.0722800371,
				"element": "H" 
			},
			{
				"x": 0.1760567496,
				"y": 0.1122848768,
				"z": 3.2299281219,
				"element": "H" 
			},
			{
				"x": 0.8116833516,
				"y": 3.3768158284,
				"z": 3.9803275288,
				"element": "H" 
			},
			{
				"x": 0.0666716061,
				"y": 7.266398197,
				"z": 1.3921700224,
				"element": "H" 
			},
			{
				"x": -0.4968979002,
				"y": 5.965285732,
				"z": 2.4762773282,
				"element": "H" 
			},
			{
				"x": -1.1434116407,
				"y": 6.0908341937,
				"z": 0.8076087021,
				"element": "H" 
			}
		],
		 "valence_orbital": [ 
			{
				"type": "occ",
				"energy": -0.26582,
				"method": "rhf"
			},
			{
				"type": "occ",
				"energy": -0.24202,
				"method": "rhf"
			},
			{
				"type": "occ",
				"energy": -0.24033,
				"method": "rhf"
			},
			{
				"type": "occ",
				"energy": -0.23256,
				"method": "rhf"
			},
			{
				"type": "occ",
				"energy": -0.21622,
				"method": "rhf"
			},
			{
				"type": "unocc",
				"energy": -0.03974,
				"method": "rhf"
			},
			{
				"type": "unocc",
				"energy": -0.02395,
				"method": "rhf"
			},
			{
				"type": "unocc",
				"energy": -0.00574,
				"method": "rhf"
			},
			{
				"type": "unocc",
				"energy": 0.00416,
				"method": "rhf"
			},
			{
				"type": "unocc",
				"energy": 0.00646,
				"method": "rhf"
			}
		],
		"cosmo_sigma_profile": { 
			"-0.025": 0.0,
			"-0.024": 0.0,
			"-0.023": 0.0,
			"-0.022": 0.0,
			"-0.021": 0.0,
			"-0.02": 0.0,
			"-0.019": 0.0,
			"-0.018": 0.0,
			"-0.017": 0.0671895989416,
			"-0.016": 0.716060834943,
			"-0.015": 0.854881028094,
			"-0.014": 1.05660373565,
			"-0.013": 0.593331315742,
			"-0.012": 0.863222334972,
			"-0.011": 1.4789934162,
			"-0.01": 1.48249290804,
			"-0.009": 1.28890274409,
			"-0.008": 2.99025991099,
			"-0.007": 4.92565001265,
			"-0.006": 16.0261924124,
			"-0.005": 28.4013653857,
			"-0.004": 34.5065256539,
			"-0.003": 43.768726593,
			"-0.002": 39.7566262395,
			"-0.001": 28.2403244163,
			"0.0": 20.5487147695,
			"0.001": 22.4776900504,
			"0.002": 22.8472274182,
			"0.003": 15.0281520518,
			"0.004": 15.737588504,
			"0.005": 14.8661225653,
			"0.006": 15.3721235335,
			"0.007": 8.69613472091,
			"0.008": 9.45336098015,
			"0.009": 8.32258869322,
			"0.01": 8.83813145625,
			"0.011": 9.78603464815,
			"0.012": 1.98685684452,
			"0.013": 0.0,
			"0.014": 0.0,
			"0.015": 0.0,
			"0.016": 0.0,
			"0.017": 0.0,
			"0.018": 0.0,
			"0.019": 0.0,
			"0.02": 0.0,
			"0.021": 0.0,
			"0.022": 0.0,
			"0.023": 0.0,
			"0.024": 0.0,
			"0.025": 0.0
		}
	}
}
