{
	 "smiles": "COC1=C(OCC2=CC=CC=C2)C=C2C(CC(C)C)N(CCC2=C1)OC1=C(C=C(C=C1[N+]([O-])=O)[N+]([O-])=O)[N+]([O-])=O", 
	 "Tm": 446.15, 
	 "num_atms": 68, 
	 "gaussian": { 
		 "optdone": 1, 
		 "sigma_profile": "yes", 
		 "theory": "DFT", 
		 "functional": "B3LYP", 
		 "basiset": "6-31G**", 
		 "properties": { 
			 "R2extent": 22312.0073, 
			 "electric_dipole_moment_norm": 4.83691052326, 
			 "electric_quadrupole_moment_norm": 19.3195680009, 
			 "total_energy": -1941.36362536, 
			 "HOMO_LUMO_gap": 0.10413, 
			 "cosmo_polarized_energy": -23.33, 
			 "cosmo_cavitation_energy": 71.23, 
			 "cosmo_dispersion_energy": -43.47, 
			 "cosmo_repulsion_energy": 3.28, 
			 "cosmo_total_nonelectrostatic_energy": 31.05, 
			 "SMD_solvation_energy": 18.82 
		},
		"coords": [
			{
				"x": -2.974561679,
				"y": -5.1692389908,
				"z": -2.6502094124,
				"element": "C" 
			},
			{
				"x": -3.1143151465,
				"y": -4.472767401,
				"z": -1.4094908522,
				"element": "O" 
			},
			{
				"x": -2.2340020663,
				"y": -3.441751374,
				"z": -1.1951159212,
				"element": "C" 
			},
			{
				"x": -2.3026492334,
				"y": -2.2391653592,
				"z": -1.9367726632,
				"element": "C" 
			},
			{
				"x": -3.2632988997,
				"y": -2.1919259109,
				"z": -2.9115539806,
				"element": "O" 
			},
			{
				"x": -3.3474842856,
				"y": -1.0441139945,
				"z": -3.7548726468,
				"element": "C" 
			},
			{
				"x": -3.992607719,
				"y": 0.1627909057,
				"z": -3.1006478852,
				"element": "C" 
			},
			{
				"x": -4.9678653437,
				"y": 0.0047091004,
				"z": -2.1093325195,
				"element": "C" 
			},
			{
				"x": -5.5916105406,
				"y": 1.1212010093,
				"z": -1.5520777794,
				"element": "C" 
			},
			{
				"x": -5.2551250092,
				"y": 2.4057322753,
				"z": -1.9852497583,
				"element": "C" 
			},
			{
				"x": -4.2857507773,
				"y": 2.5694830727,
				"z": -2.976173616,
				"element": "C" 
			},
			{
				"x": -3.6547170858,
				"y": 1.4525926219,
				"z": -3.5268340747,
				"element": "C" 
			},
			{
				"x": -1.42143418,
				"y": -1.2049777035,
				"z": -1.6299484079,
				"element": "C" 
			},
			{
				"x": -0.4762545968,
				"y": -1.3391024094,
				"z": -0.6004014094,
				"element": "C" 
			},
			{
				"x": 0.5067393202,
				"y": -0.1931326956,
				"z": -0.3584039019,
				"element": "C" 
			},
			{
				"x": 1.6192417138,
				"y": -0.2276576341,
				"z": -1.4440527442,
				"element": "C" 
			},
			{
				"x": 2.5919876775,
				"y": 0.9779235591,
				"z": -1.5592192127,
				"element": "C" 
			},
			{
				"x": 2.6944179439,
				"y": 1.450709767,
				"z": -3.0192460067,
				"element": "C" 
			},
			{
				"x": 3.9876511284,
				"y": 0.643471093,
				"z": -1.0113778319,
				"element": "C" 
			},
			{
				"x": 0.8825841406,
				"y": -0.298999243,
				"z": 1.0720424408,
				"element": "N" 
			},
			{
				"x": 1.5763313156,
				"y": -1.5488899333,
				"z": 1.3966052442,
				"element": "C" 
			},
			{
				"x": 0.518026356,
				"y": -2.6585475404,
				"z": 1.3336114926,
				"element": "C" 
			},
			{
				"x": -0.4171984083,
				"y": -2.5180093286,
				"z": 0.1489702045,
				"element": "C" 
			},
			{
				"x": -1.3035959441,
				"y": -3.5568478759,
				"z": -0.1711787246,
				"element": "C" 
			},
			{
				"x": 1.7905194789,
				"y": 0.8064117521,
				"z": 1.4148851966,
				"element": "O" 
			},
			{
				"x": 1.1610718518,
				"y": 1.7733602114,
				"z": 2.103859336,
				"element": "C" 
			},
			{
				"x": -0.0191102466,
				"y": 1.6058866773,
				"z": 2.8643274178,
				"element": "C" 
			},
			{
				"x": -0.7105578401,
				"y": 2.6805253772,
				"z": 3.4020697838,
				"element": "C" 
			},
			{
				"x": -0.1999561201,
				"y": 3.9638076092,
				"z": 3.2382378589,
				"element": "C" 
			},
			{
				"x": 0.9883117492,
				"y": 4.1846620699,
				"z": 2.5561587066,
				"element": "C" 
			},
			{
				"x": 1.6582459923,
				"y": 3.0964125328,
				"z": 2.0163090024,
				"element": "C" 
			},
			{
				"x": 2.9346660078,
				"y": 3.3733204283,
				"z": 1.340619876,
				"element": "N" 
			},
			{
				"x": 3.8426213013,
				"y": 2.5655460478,
				"z": 1.5054905583,
				"element": "O" 
			},
			{
				"x": 3.0080116036,
				"y": 4.4168871455,
				"z": 0.6943842318,
				"element": "O" 
			},
			{
				"x": -0.9267242159,
				"y": 5.1046698204,
				"z": 3.8077171893,
				"element": "N" 
			},
			{
				"x": -0.4332155917,
				"y": 6.219989291,
				"z": 3.6555110301,
				"element": "O" 
			},
			{
				"x": -1.9791921152,
				"y": 4.8649961543,
				"z": 4.3960769189,
				"element": "O" 
			},
			{
				"x": -0.5320288604,
				"y": 0.2735276612,
				"z": 3.2372397273,
				"element": "N" 
			},
			{
				"x": -1.7130205949,
				"y": 0.0415778904,
				"z": 3.0165953368,
				"element": "O" 
			},
			{
				"x": 0.2483929403,
				"y": -0.4553229292,
				"z": 3.8461214012,
				"element": "O" 
			},
			{
				"x": -1.9716192211,
				"y": -5.6063581595,
				"z": -2.7426012593,
				"element": "H" 
			},
			{
				"x": -3.7147297893,
				"y": -5.9718010897,
				"z": -2.6321222794,
				"element": "H" 
			},
			{
				"x": -3.1675777211,
				"y": -4.5135668025,
				"z": -3.5041535491,
				"element": "H" 
			},
			{
				"x": -3.9585214484,
				"y": -1.3844892361,
				"z": -4.597958712,
				"element": "H" 
			},
			{
				"x": -2.3565396782,
				"y": -0.7863937575,
				"z": -4.1526547519,
				"element": "H" 
			},
			{
				"x": -5.2249909067,
				"y": -0.9944722229,
				"z": -1.7718929028,
				"element": "H" 
			},
			{
				"x": -6.3418182602,
				"y": 0.987698187,
				"z": -0.7779531741,
				"element": "H" 
			},
			{
				"x": -5.7426981966,
				"y": 3.273476198,
				"z": -1.5505811794,
				"element": "H" 
			},
			{
				"x": -4.0147308749,
				"y": 3.5652314774,
				"z": -3.3155094841,
				"element": "H" 
			},
			{
				"x": -2.8948560287,
				"y": 1.585875713,
				"z": -4.2942635513,
				"element": "H" 
			},
			{
				"x": -1.4824279111,
				"y": -0.2649573488,
				"z": -2.1662980788,
				"element": "H" 
			},
			{
				"x": -0.0349839154,
				"y": 0.756670932,
				"z": -0.45167127,
				"element": "H" 
			},
			{
				"x": 1.0674748702,
				"y": -0.3250525862,
				"z": -2.3857001309,
				"element": "H" 
			},
			{
				"x": 2.1847248102,
				"y": -1.1628863981,
				"z": -1.355808381,
				"element": "H" 
			},
			{
				"x": 2.1836586651,
				"y": 1.8132151787,
				"z": -0.9765920924,
				"element": "H" 
			},
			{
				"x": 3.0742101796,
				"y": 0.6488191353,
				"z": -3.6642911614,
				"element": "H" 
			},
			{
				"x": 3.3770803032,
				"y": 2.3019364118,
				"z": -3.1112374436,
				"element": "H" 
			},
			{
				"x": 1.7186349225,
				"y": 1.7594475677,
				"z": -3.4112865588,
				"element": "H" 
			},
			{
				"x": 3.947697176,
				"y": 0.3104980592,
				"z": 0.0281354334,
				"element": "H" 
			},
			{
				"x": 4.6454364119,
				"y": 1.5171473097,
				"z": -1.0473636721,
				"element": "H" 
			},
			{
				"x": 4.4496980072,
				"y": -0.1512314985,
				"z": -1.6106197459,
				"element": "H" 
			},
			{
				"x": 2.4156234454,
				"y": -1.7439531503,
				"z": 0.7163968505,
				"element": "H" 
			},
			{
				"x": 1.9682506342,
				"y": -1.4546431834,
				"z": 2.4094196627,
				"element": "H" 
			},
			{
				"x": -0.0717206181,
				"y": -2.6198506354,
				"z": 2.2570457091,
				"element": "H" 
			},
			{
				"x": 1.0202241411,
				"y": -3.6327258496,
				"z": 1.3185398134,
				"element": "H" 
			},
			{
				"x": -1.2925675438,
				"y": -4.4850422679,
				"z": 0.3932975236,
				"element": "H" 
			},
			{
				"x": -1.6276629749,
				"y": 2.5217527781,
				"z": 3.9553967208,
				"element": "H" 
			},
			{
				"x": 1.3812875009,
				"y": 5.1851114888,
				"z": 2.4306540599,
				"element": "H" 
			}
		],
		 "valence_orbital": [ 
			{
				"type": "occ",
				"energy": -0.2637,
				"method": "rhf"
			},
			{
				"type": "occ",
				"energy": -0.25772,
				"method": "rhf"
			},
			{
				"type": "occ",
				"energy": -0.25279,
				"method": "rhf"
			},
			{
				"type": "occ",
				"energy": -0.24242,
				"method": "rhf"
			},
			{
				"type": "occ",
				"energy": -0.21843,
				"method": "rhf"
			},
			{
				"type": "unocc",
				"energy": -0.1143,
				"method": "rhf"
			},
			{
				"type": "unocc",
				"energy": -0.10638,
				"method": "rhf"
			},
			{
				"type": "unocc",
				"energy": -0.09332,
				"method": "rhf"
			},
			{
				"type": "unocc",
				"energy": -0.04499,
				"method": "rhf"
			},
			{
				"type": "unocc",
				"energy": -0.0246,
				"method": "rhf"
			}
		],
		"cosmo_sigma_profile": { 
			"-0.025": 0.0,
			"-0.024": 0.0,
			"-0.023": 0.0,
			"-0.022": 0.0,
			"-0.021": 0.0,
			"-0.02": 0.0,
			"-0.019": 0.0,
			"-0.018": 0.0,
			"-0.017": 0.0,
			"-0.016": 0.0,
			"-0.015": 0.0,
			"-0.014": 0.0,
			"-0.013": 0.0,
			"-0.012": 0.0212715415175,
			"-0.011": 0.765685829887,
			"-0.01": 2.33513269254,
			"-0.009": 3.26631511452,
			"-0.008": 5.00285249975,
			"-0.007": 11.5370570555,
			"-0.006": 28.9648367146,
			"-0.005": 41.1441524178,
			"-0.004": 49.2717462455,
			"-0.003": 50.1353779133,
			"-0.002": 51.1664903472,
			"-0.001": 44.5064515319,
			"0.0": 36.7842084353,
			"0.001": 38.5868709421,
			"0.002": 34.3037463555,
			"0.003": 25.7601089519,
			"0.004": 30.038026101,
			"0.005": 28.6211346259,
			"0.006": 27.053914369,
			"0.007": 26.3403819744,
			"0.008": 14.9481751805,
			"0.009": 8.20206797671,
			"0.01": 2.61025930158,
			"0.011": 2.03071592683,
			"0.012": 1.38831911563,
			"0.013": 0.0374829017186,
			"0.014": 0.0,
			"0.015": 0.0,
			"0.016": 0.0,
			"0.017": 0.0,
			"0.018": 0.0,
			"0.019": 0.0,
			"0.02": 0.0,
			"0.021": 0.0,
			"0.022": 0.0,
			"0.023": 0.0,
			"0.024": 0.0,
			"0.025": 0.0
		}
	}
}
