{
	 "smiles": "COC1=CC=C(COC(C)=O)C=C1", 
	 "Tm": 357.15, 
	 "num_atms": 25, 
	 "gaussian": { 
		 "optdone": 1, 
		 "sigma_profile": "yes", 
		 "theory": "DFT", 
		 "functional": "B3LYP", 
		 "basiset": "6-31G**", 
		 "properties": { 
			 "R2extent": 3696.1397, 
			 "electric_dipole_moment_norm": 1.11901562992, 
			 "electric_quadrupole_moment_norm": 12.5457704837, 
			 "total_energy": -613.970781883, 
			 "HOMO_LUMO_gap": 0.21655, 
			 "cosmo_polarized_energy": -9.52, 
			 "cosmo_cavitation_energy": 29.07, 
			 "cosmo_dispersion_energy": -21.03, 
			 "cosmo_repulsion_energy": 1.69, 
			 "cosmo_total_nonelectrostatic_energy": 9.72, 
			 "SMD_solvation_energy": 6.99 
		},
		"coords": [
			{
				"x": 4.918938541,
				"y": -1.177838141,
				"z": -0.0087061917,
				"element": "C" 
			},
			{
				"x": 4.286242929,
				"y": -0.6410737812,
				"z": 1.1422776332,
				"element": "O" 
			},
			{
				"x": 3.0956544816,
				"y": 0.0056076308,
				"z": 0.9832294439,
				"element": "C" 
			},
			{
				"x": 2.4430976854,
				"y": 0.1838114646,
				"z": -0.2431176147,
				"element": "C" 
			},
			{
				"x": 1.225936222,
				"y": 0.867382026,
				"z": -0.2844979409,
				"element": "C" 
			},
			{
				"x": 0.6412419317,
				"y": 1.3817659042,
				"z": 0.8771449053,
				"element": "C" 
			},
			{
				"x": -0.67682124,
				"y": 2.1074153699,
				"z": 0.8262321725,
				"element": "C" 
			},
			{
				"x": -1.810114324,
				"y": 1.205401569,
				"z": 1.0005153349,
				"element": "O" 
			},
			{
				"x": -2.3262019778,
				"y": 0.657251774,
				"z": -0.1215835061,
				"element": "C" 
			},
			{
				"x": -3.4660218422,
				"y": -0.2752337428,
				"z": 0.2169075482,
				"element": "C" 
			},
			{
				"x": -1.9214989235,
				"y": 0.8842404907,
				"z": -1.2429529887,
				"element": "O" 
			},
			{
				"x": 1.3090990322,
				"y": 1.192891048,
				"z": 2.0973691027,
				"element": "C" 
			},
			{
				"x": 2.5196601757,
				"y": 0.5158623655,
				"z": 2.156853145,
				"element": "C" 
			},
			{
				"x": 5.1664493661,
				"y": -0.3953017072,
				"z": -0.7375144841,
				"element": "H" 
			},
			{
				"x": 4.2951143967,
				"y": -1.9372619361,
				"z": -0.4974486733,
				"element": "H" 
			},
			{
				"x": 5.8405371191,
				"y": -1.6437177,
				"z": 0.3436306989,
				"element": "H" 
			},
			{
				"x": 2.8684793814,
				"y": -0.1995193517,
				"z": -1.1630033656,
				"element": "H" 
			},
			{
				"x": 0.7141200596,
				"y": 0.9930908413,
				"z": -1.2335940036,
				"element": "H" 
			},
			{
				"x": -0.7705539095,
				"y": 2.810167534,
				"z": 1.6569485171,
				"element": "H" 
			},
			{
				"x": -0.8038567769,
				"y": 2.6376335969,
				"z": -0.1193237499,
				"element": "H" 
			},
			{
				"x": -4.1917795058,
				"y": 0.2263323938,
				"z": 0.862585208,
				"element": "H" 
			},
			{
				"x": -3.0805660071,
				"y": -1.1390425891,
				"z": 0.7677617822,
				"element": "H" 
			},
			{
				"x": -3.9450250074,
				"y": -0.6116357397,
				"z": -0.7021250313,
				"element": "H" 
			},
			{
				"x": 0.8739222897,
				"y": 1.5855896945,
				"z": 3.0132455641,
				"element": "H" 
			},
			{
				"x": 3.0427459028,
				"y": 0.3705809858,
				"z": 3.0963664939,
				"element": "H" 
			}
		],
		 "valence_orbital": [ 
			{
				"type": "occ",
				"energy": -0.31646,
				"method": "rhf"
			},
			{
				"type": "occ",
				"energy": -0.29374,
				"method": "rhf"
			},
			{
				"type": "occ",
				"energy": -0.26707,
				"method": "rhf"
			},
			{
				"type": "occ",
				"energy": -0.25076,
				"method": "rhf"
			},
			{
				"type": "occ",
				"energy": -0.21852,
				"method": "rhf"
			},
			{
				"type": "unocc",
				"energy": -0.00197,
				"method": "rhf"
			},
			{
				"type": "unocc",
				"energy": 0.00296,
				"method": "rhf"
			},
			{
				"type": "unocc",
				"energy": 0.0179,
				"method": "rhf"
			},
			{
				"type": "unocc",
				"energy": 0.09541,
				"method": "rhf"
			},
			{
				"type": "unocc",
				"energy": 0.10472,
				"method": "rhf"
			}
		],
		"cosmo_sigma_profile": { 
			"-0.025": 0.0,
			"-0.024": 0.0,
			"-0.023": 0.0,
			"-0.022": 0.0,
			"-0.021": 0.0,
			"-0.02": 0.0,
			"-0.019": 0.0,
			"-0.018": 0.0,
			"-0.017": 0.0,
			"-0.016": 0.0,
			"-0.015": 0.0,
			"-0.014": 0.0,
			"-0.013": 0.0,
			"-0.012": 0.0,
			"-0.011": 0.0,
			"-0.01": 0.0,
			"-0.009": 0.0,
			"-0.008": 0.0,
			"-0.007": 1.56819988511,
			"-0.006": 15.9562143966,
			"-0.005": 23.812786458,
			"-0.004": 25.1938196164,
			"-0.003": 25.5470859329,
			"-0.002": 20.0428876369,
			"-0.001": 15.5929016693,
			"0.0": 10.8074648149,
			"0.001": 8.36082317991,
			"0.002": 11.7205925387,
			"0.003": 13.9393542511,
			"0.004": 13.2698723427,
			"0.005": 15.6556576614,
			"0.006": 7.25268185686,
			"0.007": 3.5573779273,
			"0.008": 3.46917722208,
			"0.009": 4.23842784515,
			"0.01": 3.23696427606,
			"0.011": 2.89627895777,
			"0.012": 2.78365823328,
			"0.013": 1.45607248114,
			"0.014": 0.077617801415,
			"0.015": 0.0,
			"0.016": 0.0,
			"0.017": 0.0,
			"0.018": 0.0,
			"0.019": 0.0,
			"0.02": 0.0,
			"0.021": 0.0,
			"0.022": 0.0,
			"0.023": 0.0,
			"0.024": 0.0,
			"0.025": 0.0
		}
	}
}
