{
	 "smiles": "NS(=O)(=O)CC1CCCN1", 
	 "Tm": 346.15, 
	 "num_atms": 22, 
	 "gaussian": { 
		 "optdone": 1, 
		 "sigma_profile": "yes", 
		 "theory": "DFT", 
		 "functional": "B3LYP", 
		 "basiset": "6-31G**", 
		 "properties": { 
			 "R2extent": 2934.3413, 
			 "electric_dipole_moment_norm": 4.46566532333, 
			 "electric_quadrupole_moment_norm": 12.3413034239, 
			 "total_energy": -855.831978246, 
			 "HOMO_LUMO_gap": 0.2853, 
			 "cosmo_polarized_energy": -17.25, 
			 "cosmo_cavitation_energy": 25.09, 
			 "cosmo_dispersion_energy": -19.2, 
			 "cosmo_repulsion_energy": 1.52, 
			 "cosmo_total_nonelectrostatic_energy": 7.41, 
			 "SMD_solvation_energy": 0.63 
		},
		"coords": [
			{
				"x": 1.3147742261,
				"y": 1.3097963292,
				"z": 2.3311908583,
				"element": "N" 
			},
			{
				"x": 1.4593673954,
				"y": -0.3786417727,
				"z": 2.4689360683,
				"element": "S" 
			},
			{
				"x": 2.0543219085,
				"y": -0.8774424578,
				"z": 1.2239816203,
				"element": "O" 
			},
			{
				"x": 2.0596521625,
				"y": -0.6496270185,
				"z": 3.7789982823,
				"element": "O" 
			},
			{
				"x": -0.2596904909,
				"y": -0.9414104885,
				"z": 2.5512885599,
				"element": "C" 
			},
			{
				"x": -1.0088864755,
				"y": -0.9443640326,
				"z": 1.2222006286,
				"element": "C" 
			},
			{
				"x": -1.3420079563,
				"y": 0.4335486879,
				"z": 0.5935354007,
				"element": "C" 
			},
			{
				"x": -2.6380040212,
				"y": 0.168677088,
				"z": -0.220286949,
				"element": "C" 
			},
			{
				"x": -3.0377377925,
				"y": -1.2885035765,
				"z": 0.1566796299,
				"element": "C" 
			},
			{
				"x": -2.2980411038,
				"y": -1.6441210611,
				"z": 1.3800489251,
				"element": "N" 
			},
			{
				"x": 1.7356356887,
				"y": 1.6074324093,
				"z": 1.4547276717,
				"element": "H" 
			},
			{
				"x": 1.7887263433,
				"y": 1.7383811999,
				"z": 3.1227266554,
				"element": "H" 
			},
			{
				"x": -0.1832991945,
				"y": -1.9613446889,
				"z": 2.9394417252,
				"element": "H" 
			},
			{
				"x": -0.7430243229,
				"y": -0.3149000245,
				"z": 3.3076872447,
				"element": "H" 
			},
			{
				"x": -0.4139690131,
				"y": -1.5261856948,
				"z": 0.5069974024,
				"element": "H" 
			},
			{
				"x": -1.5161051366,
				"y": 1.1731862573,
				"z": 1.3824938714,
				"element": "H" 
			},
			{
				"x": -0.525016273,
				"y": 0.8130493314,
				"z": -0.0264644846,
				"element": "H" 
			},
			{
				"x": -2.4775805609,
				"y": 0.2734667645,
				"z": -1.2975342134,
				"element": "H" 
			},
			{
				"x": -3.4230471834,
				"y": 0.8793764912,
				"z": 0.0562954296,
				"element": "H" 
			},
			{
				"x": -2.7345165917,
				"y": -1.9806500431,
				"z": -0.6378633965,
				"element": "H" 
			},
			{
				"x": -4.1118903124,
				"y": -1.4209944782,
				"z": 0.3113069722,
				"element": "H" 
			},
			{
				"x": -2.7869612959,
				"y": -1.2301292213,
				"z": 2.1752120974,
				"element": "H" 
			}
		],
		 "valence_orbital": [ 
			{
				"type": "occ",
				"energy": -0.31662,
				"method": "rhf"
			},
			{
				"type": "occ",
				"energy": -0.31277,
				"method": "rhf"
			},
			{
				"type": "occ",
				"energy": -0.30302,
				"method": "rhf"
			},
			{
				"type": "occ",
				"energy": -0.29199,
				"method": "rhf"
			},
			{
				"type": "occ",
				"energy": -0.23843,
				"method": "rhf"
			},
			{
				"type": "unocc",
				"energy": 0.04687,
				"method": "rhf"
			},
			{
				"type": "unocc",
				"energy": 0.06573,
				"method": "rhf"
			},
			{
				"type": "unocc",
				"energy": 0.07638,
				"method": "rhf"
			},
			{
				"type": "unocc",
				"energy": 0.08364,
				"method": "rhf"
			},
			{
				"type": "unocc",
				"energy": 0.09105,
				"method": "rhf"
			}
		],
		"cosmo_sigma_profile": { 
			"-0.025": 0.0,
			"-0.024": 0.0,
			"-0.023": 0.0,
			"-0.022": 0.0,
			"-0.021": 0.0,
			"-0.02": 0.0,
			"-0.019": 0.0,
			"-0.018": 0.0,
			"-0.017": 0.0,
			"-0.016": 0.0,
			"-0.015": 0.419763956553,
			"-0.014": 2.22824890698,
			"-0.013": 2.34515173892,
			"-0.012": 3.07825523103,
			"-0.011": 2.21844087408,
			"-0.01": 3.13261385502,
			"-0.009": 4.38402521489,
			"-0.008": 6.34636908553,
			"-0.007": 6.80420276209,
			"-0.006": 6.32207194279,
			"-0.005": 6.90516746983,
			"-0.004": 9.7268745973,
			"-0.003": 17.5953189808,
			"-0.002": 21.1466151013,
			"-0.001": 17.1581631075,
			"0.0": 12.3420518436,
			"0.001": 9.94497647459,
			"0.002": 5.27337906767,
			"0.003": 3.53203159483,
			"0.004": 5.02192102361,
			"0.005": 3.33588329833,
			"0.006": 4.30814756295,
			"0.007": 3.77073210407,
			"0.008": 5.09470722435,
			"0.009": 4.09754666721,
			"0.01": 5.90909060171,
			"0.011": 11.6548925696,
			"0.012": 7.23796025532,
			"0.013": 0.478327779322,
			"0.014": 0.529628077224,
			"0.015": 0.594397857321,
			"0.016": 0.335870493639,
			"0.017": 0.76137304298,
			"0.018": 0.47802520396,
			"0.019": 0.0976794570273,
			"0.02": 0.0,
			"0.021": 0.0,
			"0.022": 0.0,
			"0.023": 0.0,
			"0.024": 0.0,
			"0.025": 0.0
		}
	}
}
