{
	 "smiles": "COC1=C(C(N)=O)C(OC)=C(Cl)C=C1Cl", 
	 "Tm": 421.15, 
	 "num_atms": 24, 
	 "gaussian": { 
		 "optdone": 1, 
		 "sigma_profile": "yes", 
		 "theory": "DFT", 
		 "functional": "B3LYP", 
		 "basiset": "6-31G**", 
		 "properties": { 
			 "R2extent": 6262.3523, 
			 "electric_dipole_moment_norm": 3.48016165573, 
			 "electric_quadrupole_moment_norm": 10.6271096367, 
			 "total_energy": -1549.1638034, 
			 "HOMO_LUMO_gap": 0.18499, 
			 "cosmo_polarized_energy": -13.29, 
			 "cosmo_cavitation_energy": 31.15, 
			 "cosmo_dispersion_energy": -22.48, 
			 "cosmo_repulsion_energy": 1.77, 
			 "cosmo_total_nonelectrostatic_energy": 10.44, 
			 "SMD_solvation_energy": 6.72 
		},
		"coords": [
			{
				"x": -0.6805254017,
				"y": -2.9343579417,
				"z": -1.8184782668,
				"element": "C" 
			},
			{
				"x": -1.4793648713,
				"y": -3.1329666326,
				"z": -0.6469785547,
				"element": "O" 
			},
			{
				"x": -1.2135988906,
				"y": -2.5072518672,
				"z": 0.5156844057,
				"element": "C" 
			},
			{
				"x": -0.7286197062,
				"y": -1.1851904863,
				"z": 0.6595029542,
				"element": "C" 
			},
			{
				"x": -0.6697905776,
				"y": -0.2587814786,
				"z": -0.5379123202,
				"element": "C" 
			},
			{
				"x": 0.4597444049,
				"y": 0.5019318918,
				"z": -0.6592214892,
				"element": "N" 
			},
			{
				"x": -1.5749391313,
				"y": -0.2278303148,
				"z": -1.3629386911,
				"element": "O" 
			},
			{
				"x": -0.4422820592,
				"y": -0.6879605284,
				"z": 1.9506292286,
				"element": "C" 
			},
			{
				"x": 0.1029407878,
				"y": 0.5677839098,
				"z": 2.09612233,
				"element": "O" 
			},
			{
				"x": -0.8448757809,
				"y": 1.6185471552,
				"z": 2.352500492,
				"element": "C" 
			},
			{
				"x": -0.6801617415,
				"y": -1.4749346817,
				"z": 3.0806926665,
				"element": "C" 
			},
			{
				"x": -0.3055365595,
				"y": -0.8642872145,
				"z": 4.6794229335,
				"element": "Cl" 
			},
			{
				"x": -1.2014142199,
				"y": -2.7589754332,
				"z": 2.9474965508,
				"element": "C" 
			},
			{
				"x": -1.4574115109,
				"y": -3.2656112548,
				"z": 1.6816145777,
				"element": "C" 
			},
			{
				"x": -2.064449646,
				"y": -4.8979306333,
				"z": 1.5352959017,
				"element": "Cl" 
			},
			{
				"x": -1.1387132751,
				"y": -2.1902022559,
				"z": -2.4704408338,
				"element": "H" 
			},
			{
				"x": 0.3333240184,
				"y": -2.6153436678,
				"z": -1.5540571437,
				"element": "H" 
			},
			{
				"x": -0.6370046605,
				"y": -3.9064246276,
				"z": -2.3145277499,
				"element": "H" 
			},
			{
				"x": 0.4242040601,
				"y": 1.2228935769,
				"z": -1.3669525069,
				"element": "H" 
			},
			{
				"x": 1.0181565657,
				"y": 0.6747556345,
				"z": 0.1650810588,
				"element": "H" 
			},
			{
				"x": -0.2600872036,
				"y": 2.5320803963,
				"z": 2.4708607016,
				"element": "H" 
			},
			{
				"x": -1.4040257798,
				"y": 1.4224129792,
				"z": 3.2720005375,
				"element": "H" 
			},
			{
				"x": -1.5404507043,
				"y": 1.7301969949,
				"z": 1.512944712,
				"element": "H" 
			},
			{
				"x": -1.3805181172,
				"y": -3.3700535202,
				"z": 3.8235585058,
				"element": "H" 
			}
		],
		 "valence_orbital": [ 
			{
				"type": "occ",
				"energy": -0.30236,
				"method": "rhf"
			},
			{
				"type": "occ",
				"energy": -0.27703,
				"method": "rhf"
			},
			{
				"type": "occ",
				"energy": -0.26848,
				"method": "rhf"
			},
			{
				"type": "occ",
				"energy": -0.25592,
				"method": "rhf"
			},
			{
				"type": "occ",
				"energy": -0.22977,
				"method": "rhf"
			},
			{
				"type": "unocc",
				"energy": -0.04478,
				"method": "rhf"
			},
			{
				"type": "unocc",
				"energy": -0.01885,
				"method": "rhf"
			},
			{
				"type": "unocc",
				"energy": 0.00513,
				"method": "rhf"
			},
			{
				"type": "unocc",
				"energy": 0.02517,
				"method": "rhf"
			},
			{
				"type": "unocc",
				"energy": 0.05358,
				"method": "rhf"
			}
		],
		"cosmo_sigma_profile": { 
			"-0.025": 0.0,
			"-0.024": 0.0,
			"-0.023": 0.0,
			"-0.022": 0.0,
			"-0.021": 0.0,
			"-0.02": 0.0,
			"-0.019": 0.0,
			"-0.018": 0.0,
			"-0.017": 0.0,
			"-0.016": 0.0,
			"-0.015": 0.0,
			"-0.014": 0.722019307649,
			"-0.013": 1.30856769942,
			"-0.012": 1.06894237109,
			"-0.011": 2.01432727962,
			"-0.01": 2.4034594329,
			"-0.009": 2.08984096602,
			"-0.008": 3.20322341305,
			"-0.007": 3.81486304791,
			"-0.006": 11.0351441245,
			"-0.005": 15.3028706655,
			"-0.004": 20.3475302796,
			"-0.003": 23.9021954912,
			"-0.002": 17.5080510206,
			"-0.001": 16.8164532279,
			"0.0": 21.8660136751,
			"0.001": 21.2619093372,
			"0.002": 13.2558440416,
			"0.003": 15.4230822952,
			"0.004": 18.2226511519,
			"0.005": 9.85714765455,
			"0.006": 4.97201707037,
			"0.007": 4.10529313988,
			"0.008": 5.30144720088,
			"0.009": 3.82075863455,
			"0.01": 3.3194218854,
			"0.011": 1.48644431152,
			"0.012": 3.02283537274,
			"0.013": 3.84782517216,
			"0.014": 1.22161886801,
			"0.015": 0.0,
			"0.016": 0.0,
			"0.017": 0.0,
			"0.018": 0.0,
			"0.019": 0.0,
			"0.02": 0.0,
			"0.021": 0.0,
			"0.022": 0.0,
			"0.023": 0.0,
			"0.024": 0.0,
			"0.025": 0.0
		}
	}
}
