{
	 "smiles": "CC1=CC=CNC1=O", 
	 "Tm": 413.15, 
	 "num_atms": 15, 
	 "gaussian": { 
		 "optdone": 1, 
		 "sigma_profile": "yes", 
		 "theory": "DFT", 
		 "functional": "B3LYP", 
		 "basiset": "6-31G**", 
		 "properties": { 
			 "R2extent": 1861.5741, 
			 "electric_dipole_moment_norm": 3.65069075793, 
			 "electric_quadrupole_moment_norm": 15.2750060249, 
			 "total_energy": -362.844063395, 
			 "HOMO_LUMO_gap": 0.17823, 
			 "cosmo_polarized_energy": -12.35, 
			 "cosmo_cavitation_energy": 18.7, 
			 "cosmo_dispersion_energy": -14.08, 
			 "cosmo_repulsion_energy": 1.17, 
			 "cosmo_total_nonelectrostatic_energy": 5.79, 
			 "SMD_solvation_energy": 4.33 
		},
		"coords": [
			{
				"x": 1.0436447065,
				"y": -0.1126241263,
				"z": 0.3479178622,
				"element": "C" 
			},
			{
				"x": 0.0784936403,
				"y": 0.1327428601,
				"z": 1.4706461831,
				"element": "C" 
			},
			{
				"x": -0.284459759,
				"y": 1.3773489705,
				"z": 1.9113210621,
				"element": "C" 
			},
			{
				"x": -1.207307645,
				"y": 1.5688418547,
				"z": 2.9839810782,
				"element": "C" 
			},
			{
				"x": -1.7393863774,
				"y": 0.4674500038,
				"z": 3.5830509423,
				"element": "C" 
			},
			{
				"x": -1.3838329114,
				"y": -0.7796376301,
				"z": 3.1509585142,
				"element": "N" 
			},
			{
				"x": -0.4858044381,
				"y": -1.057215163,
				"z": 2.1055721879,
				"element": "C" 
			},
			{
				"x": -0.2373313406,
				"y": -2.2223918161,
				"z": 1.7990898647,
				"element": "O" 
			},
			{
				"x": 0.5687142765,
				"y": -0.6933356215,
				"z": -0.4506672071,
				"element": "H" 
			},
			{
				"x": 1.4171660382,
				"y": 0.8258783483,
				"z": -0.0698100914,
				"element": "H" 
			},
			{
				"x": 1.8937409565,
				"y": -0.7119388636,
				"z": 0.6924136205,
				"element": "H" 
			},
			{
				"x": 0.1444411145,
				"y": 2.2526437812,
				"z": 1.4282001651,
				"element": "H" 
			},
			{
				"x": -1.4823150199,
				"y": 2.5612429905,
				"z": 3.3186209395,
				"element": "H" 
			},
			{
				"x": -2.446793393,
				"y": 0.5085682787,
				"z": 4.4036495345,
				"element": "H" 
			},
			{
				"x": -1.772669848,
				"y": -1.6056738672,
				"z": 3.5885553442,
				"element": "H" 
			}
		],
		 "valence_orbital": [ 
			{
				"type": "occ",
				"energy": -0.36396,
				"method": "rhf"
			},
			{
				"type": "occ",
				"energy": -0.33485,
				"method": "rhf"
			},
			{
				"type": "occ",
				"energy": -0.29183,
				"method": "rhf"
			},
			{
				"type": "occ",
				"energy": -0.24477,
				"method": "rhf"
			},
			{
				"type": "occ",
				"energy": -0.21049,
				"method": "rhf"
			},
			{
				"type": "unocc",
				"energy": -0.03226,
				"method": "rhf"
			},
			{
				"type": "unocc",
				"energy": 0.01819,
				"method": "rhf"
			},
			{
				"type": "unocc",
				"energy": 0.07087,
				"method": "rhf"
			},
			{
				"type": "unocc",
				"energy": 0.1112,
				"method": "rhf"
			},
			{
				"type": "unocc",
				"energy": 0.12837,
				"method": "rhf"
			}
		],
		"cosmo_sigma_profile": { 
			"-0.025": 0.0,
			"-0.024": 0.0,
			"-0.023": 0.0,
			"-0.022": 0.0,
			"-0.021": 0.0,
			"-0.02": 0.0,
			"-0.019": 0.0,
			"-0.018": 0.0,
			"-0.017": 0.0,
			"-0.016": 0.475132630149,
			"-0.015": 1.49352710157,
			"-0.014": 1.58425870905,
			"-0.013": 1.17569356312,
			"-0.012": 0.963156680568,
			"-0.011": 0.927308849023,
			"-0.01": 0.938808944701,
			"-0.009": 2.92353691405,
			"-0.008": 3.03651739062,
			"-0.007": 3.33311913951,
			"-0.006": 6.4605693411,
			"-0.005": 8.55845974891,
			"-0.004": 9.36111691214,
			"-0.003": 9.77092438837,
			"-0.002": 9.34244227551,
			"-0.001": 8.92122199354,
			"0.0": 15.8542559883,
			"0.001": 16.3715770539,
			"0.002": 8.70544132403,
			"0.003": 8.22845302427,
			"0.004": 7.49176496652,
			"0.005": 1.81860748873,
			"0.006": 1.06346689522,
			"0.007": 1.04600305382,
			"0.008": 1.27728380452,
			"0.009": 2.02519500088,
			"0.01": 0.853585430736,
			"0.011": 1.19032847629,
			"0.012": 1.71974100253,
			"0.013": 1.44922715984,
			"0.014": 4.36221087218,
			"0.015": 5.32776493966,
			"0.016": 0.420449612632,
			"0.017": 0.0,
			"0.018": 0.0,
			"0.019": 0.0,
			"0.02": 0.0,
			"0.021": 0.0,
			"0.022": 0.0,
			"0.023": 0.0,
			"0.024": 0.0,
			"0.025": 0.0
		}
	}
}
