{
	 "smiles": "CC(=O)C1=C(C)NC(=O)NC1C1=CC=CC=C1", 
	 "Tm": 511.15, 
	 "num_atms": 31, 
	 "gaussian": { 
		 "optdone": 1, 
		 "sigma_profile": "yes", 
		 "theory": "DFT", 
		 "functional": "B3LYP", 
		 "basiset": "6-31G**", 
		 "properties": { 
			 "R2extent": 4700.5101, 
			 "electric_dipole_moment_norm": 1.88462401025, 
			 "electric_quadrupole_moment_norm": 22.6222916326, 
			 "total_energy": -763.796462218, 
			 "HOMO_LUMO_gap": 0.17912, 
			 "cosmo_polarized_energy": -18.06, 
			 "cosmo_cavitation_energy": 33.9, 
			 "cosmo_dispersion_energy": -23.69, 
			 "cosmo_repulsion_energy": 1.84, 
			 "cosmo_total_nonelectrostatic_energy": 12.05, 
			 "SMD_solvation_energy": 6.51 
		},
		"coords": [
			{
				"x": 2.8546258953,
				"y": -0.320793563,
				"z": 2.4163996911,
				"element": "C" 
			},
			{
				"x": 1.3768302348,
				"y": -0.52982343,
				"z": 2.7252147428,
				"element": "C" 
			},
			{
				"x": 0.9031957587,
				"y": -0.0305819342,
				"z": 3.7455116322,
				"element": "O" 
			},
			{
				"x": 0.5738177911,
				"y": -1.3421004255,
				"z": 1.7916988856,
				"element": "C" 
			},
			{
				"x": -0.7386710314,
				"y": -1.6293554986,
				"z": 2.0549572243,
				"element": "C" 
			},
			{
				"x": -1.529114656,
				"y": -1.1508199742,
				"z": 3.2432133377,
				"element": "C" 
			},
			{
				"x": -1.4492050552,
				"y": -2.4311956793,
				"z": 1.1824473796,
				"element": "N" 
			},
			{
				"x": -0.8866087506,
				"y": -3.2125400692,
				"z": 0.1655093402,
				"element": "C" 
			},
			{
				"x": -1.5620569286,
				"y": -4.0047116976,
				"z": -0.4731891929,
				"element": "O" 
			},
			{
				"x": 0.4601073789,
				"y": -3.0341261056,
				"z": 0.021007991,
				"element": "N" 
			},
			{
				"x": 1.2020512488,
				"y": -1.8543528047,
				"z": 0.5008591603,
				"element": "C" 
			},
			{
				"x": 1.3308496841,
				"y": -0.7990751526,
				"z": -0.6056156147,
				"element": "C" 
			},
			{
				"x": 0.3068571726,
				"y": 0.1201158053,
				"z": -0.8696683578,
				"element": "C" 
			},
			{
				"x": 0.4232661117,
				"y": 1.0276748587,
				"z": -1.9219638295,
				"element": "C" 
			},
			{
				"x": 1.5674652345,
				"y": 1.0332687512,
				"z": -2.7238715039,
				"element": "C" 
			},
			{
				"x": 2.5954623298,
				"y": 0.1257943561,
				"z": -2.4668937499,
				"element": "C" 
			},
			{
				"x": 2.4745919815,
				"y": -0.7834320887,
				"z": -1.4139196548,
				"element": "C" 
			},
			{
				"x": 3.4010906706,
				"y": -1.2710724868,
				"z": 2.4579220386,
				"element": "H" 
			},
			{
				"x": 3.2657681771,
				"y": 0.3542118537,
				"z": 3.1675303243,
				"element": "H" 
			},
			{
				"x": 3.0082352955,
				"y": 0.1013996228,
				"z": 1.4183540338,
				"element": "H" 
			},
			{
				"x": -1.5332452743,
				"y": -0.0608559511,
				"z": 3.2980345089,
				"element": "H" 
			},
			{
				"x": -1.0689165077,
				"y": -1.4891809521,
				"z": 4.1742469715,
				"element": "H" 
			},
			{
				"x": -2.5584572433,
				"y": -1.5200361348,
				"z": 3.1937074543,
				"element": "H" 
			},
			{
				"x": -2.4150779974,
				"y": -2.653412079,
				"z": 1.3761588445,
				"element": "H" 
			},
			{
				"x": 0.8314745414,
				"y": -3.5091142728,
				"z": -0.7908475593,
				"element": "H" 
			},
			{
				"x": 2.2151823483,
				"y": -2.2106091259,
				"z": 0.7184135586,
				"element": "H" 
			},
			{
				"x": -0.5805363283,
				"y": 0.1296865027,
				"z": -0.2440128728,
				"element": "H" 
			},
			{
				"x": -0.3783993694,
				"y": 1.7350175442,
				"z": -2.1144246832,
				"element": "H" 
			},
			{
				"x": 1.6578469508,
				"y": 1.7437562159,
				"z": -3.5403464332,
				"element": "H" 
			},
			{
				"x": 3.4916464919,
				"y": 0.1270384417,
				"z": -3.0807804041,
				"element": "H" 
			},
			{
				"x": 3.2806238448,
				"y": -1.4872745266,
				"z": -1.2152532632,
				"element": "H" 
			}
		],
		 "valence_orbital": [ 
			{
				"type": "occ",
				"energy": -0.26486,
				"method": "rhf"
			},
			{
				"type": "occ",
				"energy": -0.26001,
				"method": "rhf"
			},
			{
				"type": "occ",
				"energy": -0.24965,
				"method": "rhf"
			},
			{
				"type": "occ",
				"energy": -0.23707,
				"method": "rhf"
			},
			{
				"type": "occ",
				"energy": -0.22498,
				"method": "rhf"
			},
			{
				"type": "unocc",
				"energy": -0.04586,
				"method": "rhf"
			},
			{
				"type": "unocc",
				"energy": -0.01489,
				"method": "rhf"
			},
			{
				"type": "unocc",
				"energy": -0.01046,
				"method": "rhf"
			},
			{
				"type": "unocc",
				"energy": 0.04572,
				"method": "rhf"
			},
			{
				"type": "unocc",
				"energy": 0.06778,
				"method": "rhf"
			}
		],
		"cosmo_sigma_profile": { 
			"-0.025": 0.0,
			"-0.024": 0.0,
			"-0.023": 0.0,
			"-0.022": 0.0,
			"-0.021": 0.0,
			"-0.02": 0.0,
			"-0.019": 0.0,
			"-0.018": 0.0,
			"-0.017": 0.0,
			"-0.016": 0.109178795572,
			"-0.015": 0.821046500301,
			"-0.014": 1.85337620145,
			"-0.013": 2.11237830418,
			"-0.012": 1.80314028322,
			"-0.011": 1.86123053307,
			"-0.01": 2.35463363676,
			"-0.009": 2.29106949174,
			"-0.008": 2.88965720718,
			"-0.007": 6.41656755605,
			"-0.006": 12.1731604528,
			"-0.005": 17.441904028,
			"-0.004": 20.2608306318,
			"-0.003": 22.7907371354,
			"-0.002": 23.8375180511,
			"-0.001": 25.5407964045,
			"0.0": 19.9134113382,
			"0.001": 15.9737293324,
			"0.002": 13.0359505828,
			"0.003": 12.334076147,
			"0.004": 10.9884042423,
			"0.005": 12.087466148,
			"0.006": 6.30670765778,
			"0.007": 2.84418933754,
			"0.008": 3.14899429907,
			"0.009": 2.27285805443,
			"0.01": 3.21588350977,
			"0.011": 2.71983706111,
			"0.012": 4.17880563886,
			"0.013": 8.493816162,
			"0.014": 5.90594204584,
			"0.015": 0.615918476866,
			"0.016": 0.0,
			"0.017": 0.0,
			"0.018": 0.0,
			"0.019": 0.0,
			"0.02": 0.0,
			"0.021": 0.0,
			"0.022": 0.0,
			"0.023": 0.0,
			"0.024": 0.0,
			"0.025": 0.0
		}
	}
}
