{
	 "smiles": "CS(=O)(=O)C1=CC=C(OCCC(O)=O)C=C1", 
	 "Tm": 382.15, 
	 "num_atms": 28, 
	 "gaussian": { 
		 "optdone": 1, 
		 "sigma_profile": "yes", 
		 "theory": "DFT", 
		 "functional": "B3LYP", 
		 "basiset": "6-31G**", 
		 "properties": { 
			 "R2extent": 6066.1545, 
			 "electric_dipole_moment_norm": 5.78101119269, 
			 "electric_quadrupole_moment_norm": 43.5715392487, 
			 "total_energy": -1162.53296156, 
			 "HOMO_LUMO_gap": 0.21691, 
			 "cosmo_polarized_energy": -31.42, 
			 "cosmo_cavitation_energy": 34.07, 
			 "cosmo_dispersion_energy": -24.45, 
			 "cosmo_repulsion_energy": 1.88, 
			 "cosmo_total_nonelectrostatic_energy": 11.51, 
			 "SMD_solvation_energy": 6.89 
		},
		"coords": [
			{
				"x": 1.8164600384,
				"y": 3.4066323141,
				"z": -0.7689956083,
				"element": "C" 
			},
			{
				"x": 1.1886266299,
				"y": 3.2720501438,
				"z": 0.9226436744,
				"element": "S" 
			},
			{
				"x": 2.3524277496,
				"y": 3.1186735013,
				"z": 1.8099218993,
				"element": "O" 
			},
			{
				"x": 0.2182720383,
				"y": 4.3614251794,
				"z": 1.118218925,
				"element": "O" 
			},
			{
				"x": 0.2842469504,
				"y": 1.7232603332,
				"z": 0.9247296019,
				"element": "C" 
			},
			{
				"x": -1.0834487949,
				"y": 1.7268581726,
				"z": 0.659916338,
				"element": "C" 
			},
			{
				"x": -1.7951524233,
				"y": 0.5267256236,
				"z": 0.6536806681,
				"element": "C" 
			},
			{
				"x": -1.1250207465,
				"y": -0.6751231105,
				"z": 0.9193047548,
				"element": "C" 
			},
			{
				"x": -1.7128915005,
				"y": -1.9069433421,
				"z": 0.9621870576,
				"element": "O" 
			},
			{
				"x": -3.0932002358,
				"y": -2.059134687,
				"z": 0.6507070821,
				"element": "C" 
			},
			{
				"x": -3.3587224052,
				"y": -2.0774104509,
				"z": -0.8597285193,
				"element": "C" 
			},
			{
				"x": -2.5102484141,
				"y": -3.0857113967,
				"z": -1.6337000717,
				"element": "C" 
			},
			{
				"x": -2.5889261426,
				"y": -4.3802593423,
				"z": -1.2252394499,
				"element": "O" 
			},
			{
				"x": -1.8168689572,
				"y": -2.7883718698,
				"z": -2.5710148596,
				"element": "O" 
			},
			{
				"x": 0.2519971873,
				"y": -0.6687578066,
				"z": 1.1961013427,
				"element": "C" 
			},
			{
				"x": 0.9554839137,
				"y": 0.5265938197,
				"z": 1.2027812486,
				"element": "C" 
			},
			{
				"x": 0.9756813455,
				"y": 3.438087365,
				"z": -1.4632067993,
				"element": "H" 
			},
			{
				"x": 2.3811187309,
				"y": 4.3403328697,
				"z": -0.8120525118,
				"element": "H" 
			},
			{
				"x": 2.4690353208,
				"y": 2.5582155382,
				"z": -0.9793215209,
				"element": "H" 
			},
			{
				"x": -1.5915848516,
				"y": 2.667754352,
				"z": 0.476821141,
				"element": "H" 
			},
			{
				"x": -2.8586013626,
				"y": 0.5477795044,
				"z": 0.4486247388,
				"element": "H" 
			},
			{
				"x": -3.6978545749,
				"y": -1.2841794503,
				"z": 1.1361100119,
				"element": "H" 
			},
			{
				"x": -3.3728414363,
				"y": -3.0111833815,
				"z": 1.1151014049,
				"element": "H" 
			},
			{
				"x": -4.4212424638,
				"y": -2.3046485461,
				"z": -1.0220694592,
				"element": "H" 
			},
			{
				"x": -3.1577768919,
				"y": -1.1015977404,
				"z": -1.3039047543,
				"element": "H" 
			},
			{
				"x": -3.1857869108,
				"y": -4.4717802794,
				"z": -0.4697813813,
				"element": "H" 
			},
			{
				"x": 0.7407040226,
				"y": -1.6128969174,
				"z": 1.4106068059,
				"element": "H" 
			},
			{
				"x": 2.0137141847,
				"y": 0.544109604,
				"z": 1.4412582408,
				"element": "H" 
			}
		],
		 "valence_orbital": [ 
			{
				"type": "occ",
				"energy": -0.29217,
				"method": "rhf"
			},
			{
				"type": "occ",
				"energy": -0.28499,
				"method": "rhf"
			},
			{
				"type": "occ",
				"energy": -0.28165,
				"method": "rhf"
			},
			{
				"type": "occ",
				"energy": -0.27762,
				"method": "rhf"
			},
			{
				"type": "occ",
				"energy": -0.25029,
				"method": "rhf"
			},
			{
				"type": "unocc",
				"energy": -0.03338,
				"method": "rhf"
			},
			{
				"type": "unocc",
				"energy": -0.02826,
				"method": "rhf"
			},
			{
				"type": "unocc",
				"energy": -0.0043,
				"method": "rhf"
			},
			{
				"type": "unocc",
				"energy": 0.02737,
				"method": "rhf"
			},
			{
				"type": "unocc",
				"energy": 0.06288,
				"method": "rhf"
			}
		],
		"cosmo_sigma_profile": { 
			"-0.025": -15.1754436509,
			"-0.024": 0.416948446469,
			"-0.023": 0.310348747092,
			"-0.022": 0.0101761534967,
			"-0.021": 0.275694580775,
			"-0.02": 0.517596377802,
			"-0.019": 0.44251010871,
			"-0.018": 0.601005668681,
			"-0.017": 0.351279855331,
			"-0.016": 0.987360602523,
			"-0.015": 0.561249347676,
			"-0.014": 0.411293946581,
			"-0.013": 0.731555130644,
			"-0.012": 1.29974579166,
			"-0.011": 1.35447803987,
			"-0.01": 2.08852561667,
			"-0.009": 4.34124304538,
			"-0.008": 12.9553769577,
			"-0.007": 19.5464562746,
			"-0.006": 19.5825211806,
			"-0.005": 18.33339808,
			"-0.004": 17.2964528984,
			"-0.003": 14.0346186305,
			"-0.002": 9.30033954432,
			"-0.001": 8.33523130998,
			"0.0": 10.7763125588,
			"0.001": 12.4009208027,
			"0.002": 19.7917278247,
			"0.003": 14.0571523658,
			"0.004": 6.58197177559,
			"0.005": 5.19924229639,
			"0.006": 5.37008753431,
			"0.007": 5.27734832665,
			"0.008": 7.17551725564,
			"0.009": 6.43301461616,
			"0.01": 8.41426168438,
			"0.011": 14.3716735308,
			"0.012": 15.1328746696,
			"0.013": 4.05973442215,
			"0.014": 0.061344179342,
			"0.015": 14.0022559101,
			"0.016": -8.19299563038,
			"0.017": -3.53279096846,
			"0.018": -1.86525429826,
			"0.019": 1.0306746673,
			"0.02": 8.86183388285,
			"0.021": -9.68532320315,
			"0.022": 0.0,
			"0.023": 23.7280775741,
			"0.024": -14.5321972822,
			"0.025": -7.99396831654
		}
	}
}
