{
	 "smiles": "FC(F)(F)C1=C(C=CC(Br)=C1)C#N", 
	 "Tm": 309.15, 
	 "num_atms": 16, 
	 "gaussian": { 
		 "optdone": 1, 
		 "sigma_profile": "yes", 
		 "theory": "DFT", 
		 "functional": "B3LYP", 
		 "basiset": "6-31G**", 
		 "properties": { 
			 "R2extent": 4359.9996, 
			 "electric_dipole_moment_norm": 4.28582145335, 
			 "electric_quadrupole_moment_norm": 8.881852939, 
			 "total_energy": -3232.31821466, 
			 "HOMO_LUMO_gap": 0.19197, 
			 "cosmo_polarized_energy": -8.8, 
			 "cosmo_cavitation_energy": 25.62, 
			 "cosmo_dispersion_energy": -18.09, 
			 "cosmo_repulsion_energy": 1.38, 
			 "cosmo_total_nonelectrostatic_energy": 8.9, 
			 "SMD_solvation_energy": 5.54 
		},
		"coords": [
			{
				"x": -1.6903195245,
				"y": 0.9156357888,
				"z": -2.411761789,
				"element": "F" 
			},
			{
				"x": -0.5400071765,
				"y": 0.4583704605,
				"z": -1.8764134188,
				"element": "C" 
			},
			{
				"x": -0.2698080408,
				"y": -0.7321981496,
				"z": -2.446008878,
				"element": "F" 
			},
			{
				"x": 0.4419167475,
				"y": 1.3097809819,
				"z": -2.2311361216,
				"element": "F" 
			},
			{
				"x": -0.6381112078,
				"y": 0.3341865454,
				"z": -0.3710960902,
				"element": "C" 
			},
			{
				"x": 0.4628836217,
				"y": -0.1278300077,
				"z": 0.3805364553,
				"element": "C" 
			},
			{
				"x": 0.3465106241,
				"y": -0.2339629934,
				"z": 1.77503385,
				"element": "C" 
			},
			{
				"x": -0.8390418194,
				"y": 0.1107691176,
				"z": 2.417951782,
				"element": "C" 
			},
			{
				"x": -1.9160755825,
				"y": 0.5650447171,
				"z": 1.6595058196,
				"element": "C" 
			},
			{
				"x": -3.5413893192,
				"y": 1.0390124877,
				"z": 2.5244516509,
				"element": "Br" 
			},
			{
				"x": -1.8232369083,
				"y": 0.6787331675,
				"z": 0.2718728154,
				"element": "C" 
			},
			{
				"x": 1.7054767512,
				"y": -0.4955026073,
				"z": -0.233778749,
				"element": "C" 
			},
			{
				"x": 2.7324162695,
				"y": -0.8060025038,
				"z": -0.6813685593,
				"element": "N" 
			},
			{
				"x": 1.1937949427,
				"y": -0.5892204755,
				"z": 2.351258424,
				"element": "H" 
			},
			{
				"x": -0.9239369897,
				"y": 0.0270473378,
				"z": 3.4950039685,
				"element": "H" 
			},
			{
				"x": -2.6664723882,
				"y": 1.0328361333,
				"z": -0.3063511598,
				"element": "H" 
			}
		],
		 "valence_orbital": [ 
			{
				"type": "occ",
				"energy": -0.34463,
				"method": "rhf"
			},
			{
				"type": "occ",
				"energy": -0.33081,
				"method": "rhf"
			},
			{
				"type": "occ",
				"energy": -0.31437,
				"method": "rhf"
			},
			{
				"type": "occ",
				"energy": -0.30573,
				"method": "rhf"
			},
			{
				"type": "occ",
				"energy": -0.27318,
				"method": "rhf"
			},
			{
				"type": "unocc",
				"energy": -0.08121,
				"method": "rhf"
			},
			{
				"type": "unocc",
				"energy": -0.0565,
				"method": "rhf"
			},
			{
				"type": "unocc",
				"energy": -0.02034,
				"method": "rhf"
			},
			{
				"type": "unocc",
				"energy": 0.02015,
				"method": "rhf"
			},
			{
				"type": "unocc",
				"energy": 0.0519,
				"method": "rhf"
			}
		],
		"cosmo_sigma_profile": { 
			"-0.025": 0.0,
			"-0.024": 0.0,
			"-0.023": 0.0,
			"-0.022": 0.0,
			"-0.021": 0.0,
			"-0.02": 0.0,
			"-0.019": 0.0,
			"-0.018": 0.0,
			"-0.017": 0.0,
			"-0.016": 0.0,
			"-0.015": 0.0,
			"-0.014": 0.0,
			"-0.013": 0.0,
			"-0.012": 0.0,
			"-0.011": 0.0,
			"-0.01": 0.564129116684,
			"-0.009": 4.70998197337,
			"-0.008": 6.03283084391,
			"-0.007": 5.26002039057,
			"-0.006": 5.49316124637,
			"-0.005": 8.22184960772,
			"-0.004": 9.489696356,
			"-0.003": 14.7551909933,
			"-0.002": 20.0427967683,
			"-0.001": 22.0039540363,
			"0.0": 16.4535045131,
			"0.001": 17.6889566219,
			"0.002": 33.3801934099,
			"0.003": 20.2693389862,
			"0.004": 5.2072666676,
			"0.005": 2.81948107972,
			"0.006": 2.78650608317,
			"0.007": 3.03782031174,
			"0.008": 3.04694935815,
			"0.009": 3.21111326916,
			"0.01": 2.47187556083,
			"0.011": 2.64874819327,
			"0.012": 1.6866428291,
			"0.013": 0.174653866505,
			"0.014": 0.0,
			"0.015": 0.0,
			"0.016": 0.0,
			"0.017": 0.0,
			"0.018": 0.0,
			"0.019": 0.0,
			"0.02": 0.0,
			"0.021": 0.0,
			"0.022": 0.0,
			"0.023": 0.0,
			"0.024": 0.0,
			"0.025": 0.0
		}
	}
}
