{
	 "smiles": "CCN(CC)S(=O)(=O)C1=CC=C(C=C1)C1=CSC(N)=N1", 
	 "Tm": 508.15, 
	 "num_atms": 37, 
	 "gaussian": { 
		 "optdone": 1, 
		 "sigma_profile": "yes", 
		 "theory": "DFT", 
		 "functional": "B3LYP", 
		 "basiset": "6-31G**", 
		 "properties": { 
			 "R2extent": 10382.3328, 
			 "electric_dipole_moment_norm": 7.11169447178, 
			 "electric_quadrupole_moment_norm": 29.9293943535, 
			 "total_energy": -1616.64339644, 
			 "HOMO_LUMO_gap": 0.1608, 
			 "cosmo_polarized_energy": -20.2, 
			 "cosmo_cavitation_energy": 42.75, 
			 "cosmo_dispersion_energy": -30.97, 
			 "cosmo_repulsion_energy": 2.3, 
			 "cosmo_total_nonelectrostatic_energy": 14.08, 
			 "SMD_solvation_energy": 5.12 
		},
		"coords": [
			{
				"x": 4.2491349384,
				"y": -1.899641136,
				"z": 0.4342430559,
				"element": "C" 
			},
			{
				"x": 2.8126638219,
				"y": -1.5605679408,
				"z": 0.0301121427,
				"element": "C" 
			},
			{
				"x": 1.8421009702,
				"y": -1.7788305192,
				"z": 1.1130076755,
				"element": "N" 
			},
			{
				"x": 1.2397733959,
				"y": -3.1074559144,
				"z": 1.2805915109,
				"element": "C" 
			},
			{
				"x": 0.142473726,
				"y": -3.4377090193,
				"z": 0.2630720466,
				"element": "C" 
			},
			{
				"x": 1.3940104371,
				"y": -0.4987673802,
				"z": 2.0845088939,
				"element": "S" 
			},
			{
				"x": 2.5274495469,
				"y": 0.4324459312,
				"z": 2.0976891844,
				"element": "O" 
			},
			{
				"x": 0.8399160352,
				"y": -1.0717245785,
				"z": 3.315531918,
				"element": "O" 
			},
			{
				"x": 0.0466568958,
				"y": 0.350552277,
				"z": 1.2504855941,
				"element": "C" 
			},
			{
				"x": 0.3282924685,
				"y": 1.3965394624,
				"z": 0.3667281117,
				"element": "C" 
			},
			{
				"x": -0.7151479244,
				"y": 2.0272207117,
				"z": -0.3023725512,
				"element": "C" 
			},
			{
				"x": -2.0495027107,
				"y": 1.6328097668,
				"z": -0.0998438988,
				"element": "C" 
			},
			{
				"x": -2.3100783423,
				"y": 0.5913923143,
				"z": 0.8083726586,
				"element": "C" 
			},
			{
				"x": -1.272635332,
				"y": -0.0457646984,
				"z": 1.4824256395,
				"element": "C" 
			},
			{
				"x": -3.1715901661,
				"y": 2.2864327513,
				"z": -0.7985272182,
				"element": "C" 
			},
			{
				"x": -3.0778603402,
				"y": 3.3131463249,
				"z": -1.6996100948,
				"element": "C" 
			},
			{
				"x": -4.6585262036,
				"y": 3.7770558457,
				"z": -2.2677820439,
				"element": "S" 
			},
			{
				"x": -5.3380631339,
				"y": 2.5075813122,
				"z": -1.2358406053,
				"element": "C" 
			},
			{
				"x": -6.6970611472,
				"y": 2.3280214116,
				"z": -1.1367619183,
				"element": "N" 
			},
			{
				"x": -4.4620223152,
				"y": 1.8366683527,
				"z": -0.5510638902,
				"element": "N" 
			},
			{
				"x": 4.3331690212,
				"y": -2.9380925504,
				"z": 0.7709152774,
				"element": "H" 
			},
			{
				"x": 4.5729184337,
				"y": -1.2444491003,
				"z": 1.2458894977,
				"element": "H" 
			},
			{
				"x": 4.9254675045,
				"y": -1.7663690604,
				"z": -0.4175184267,
				"element": "H" 
			},
			{
				"x": 2.7553285129,
				"y": -0.5187641613,
				"z": -0.2947019347,
				"element": "H" 
			},
			{
				"x": 2.4961734466,
				"y": -2.1707355407,
				"z": -0.8239878354,
				"element": "H" 
			},
			{
				"x": 2.0511558195,
				"y": -3.842765358,
				"z": 1.2116533978,
				"element": "H" 
			},
			{
				"x": 0.8526541275,
				"y": -3.1664659594,
				"z": 2.2990734836,
				"element": "H" 
			},
			{
				"x": -0.6988368513,
				"y": -2.7446029456,
				"z": 0.3500234609,
				"element": "H" 
			},
			{
				"x": 0.5143161305,
				"y": -3.388684413,
				"z": -0.7656477511,
				"element": "H" 
			},
			{
				"x": -0.2313531217,
				"y": -4.4533338794,
				"z": 0.4324085528,
				"element": "H" 
			},
			{
				"x": 1.3524190824,
				"y": 1.7263175841,
				"z": 0.2323237253,
				"element": "H" 
			},
			{
				"x": -0.4837192596,
				"y": 2.842166331,
				"z": -0.9808549808,
				"element": "H" 
			},
			{
				"x": -3.339331543,
				"y": 0.299979015,
				"z": 0.9814586279,
				"element": "H" 
			},
			{
				"x": -1.4799967618,
				"y": -0.8291248321,
				"z": 2.2034926618,
				"element": "H" 
			},
			{
				"x": -2.2010020734,
				"y": 3.8231865122,
				"z": -2.0680614664,
				"element": "H" 
			},
			{
				"x": -6.9530100865,
				"y": 1.4689316408,
				"z": -0.668176611,
				"element": "H" 
			},
			{
				"x": -7.2522370018,
				"y": 2.5358014425,
				"z": -1.95405589,
				"element": "H" 
			}
		],
		 "valence_orbital": [ 
			{
				"type": "occ",
				"energy": -0.28239,
				"method": "rhf"
			},
			{
				"type": "occ",
				"energy": -0.26743,
				"method": "rhf"
			},
			{
				"type": "occ",
				"energy": -0.26138,
				"method": "rhf"
			},
			{
				"type": "occ",
				"energy": -0.23843,
				"method": "rhf"
			},
			{
				"type": "occ",
				"energy": -0.21077,
				"method": "rhf"
			},
			{
				"type": "unocc",
				"energy": -0.04997,
				"method": "rhf"
			},
			{
				"type": "unocc",
				"energy": -0.0147,
				"method": "rhf"
			},
			{
				"type": "unocc",
				"energy": -0.00126,
				"method": "rhf"
			},
			{
				"type": "unocc",
				"energy": 0.00451,
				"method": "rhf"
			},
			{
				"type": "unocc",
				"energy": 0.05656,
				"method": "rhf"
			}
		],
		"cosmo_sigma_profile": { 
			"-0.025": 0.0,
			"-0.024": 0.0,
			"-0.023": 0.0,
			"-0.022": 0.0,
			"-0.021": 0.0,
			"-0.02": 0.0,
			"-0.019": 0.0,
			"-0.018": 0.0,
			"-0.017": 0.0,
			"-0.016": 0.0,
			"-0.015": 0.580331243744,
			"-0.014": 2.49773917464,
			"-0.013": 2.13405623603,
			"-0.012": 2.55035927861,
			"-0.011": 2.94781482788,
			"-0.01": 3.28502991134,
			"-0.009": 4.7772506636,
			"-0.008": 4.17788984819,
			"-0.007": 5.47060279606,
			"-0.006": 8.47404499506,
			"-0.005": 18.6890714499,
			"-0.004": 23.2171694368,
			"-0.003": 28.1764111981,
			"-0.002": 27.2471212052,
			"-0.001": 22.8283639064,
			"0.0": 29.9662535315,
			"0.001": 27.8243632999,
			"0.002": 28.7059334887,
			"0.003": 31.9442793435,
			"0.004": 14.2088741581,
			"0.005": 7.8217920833,
			"0.006": 6.11203358376,
			"0.007": 4.85828733335,
			"0.008": 6.40234591913,
			"0.009": 5.36551505132,
			"0.01": 7.51588187302,
			"0.011": 8.53522673171,
			"0.012": 5.14003950794,
			"0.013": 0.0234334002448,
			"0.014": 0.0,
			"0.015": 0.0,
			"0.016": 0.0,
			"0.017": 0.0,
			"0.018": 0.0,
			"0.019": 0.0,
			"0.02": 0.0,
			"0.021": 0.0,
			"0.022": 0.0,
			"0.023": 0.0,
			"0.024": 0.0,
			"0.025": 0.0
		}
	}
}
