{
	 "smiles": "NC1=CC(=CC=C1)N1C(=O)N(C2CC2)C(O)=C1O", 
	 "Tm": 438.15, 
	 "num_atms": 31, 
	 "gaussian": { 
		 "optdone": 1, 
		 "sigma_profile": "yes", 
		 "theory": "DFT", 
		 "functional": "B3LYP", 
		 "basiset": "6-31G**", 
		 "properties": { 
			 "R2extent": 5693.6754, 
			 "electric_dipole_moment_norm": 4.05754151427, 
			 "electric_quadrupole_moment_norm": 17.1507303113, 
			 "total_energy": -854.988991961, 
			 "HOMO_LUMO_gap": 0.17276, 
			 "cosmo_polarized_energy": -20.13, 
			 "cosmo_cavitation_energy": 34.58, 
			 "cosmo_dispersion_energy": -25.33, 
			 "cosmo_repulsion_energy": 1.95, 
			 "cosmo_total_nonelectrostatic_energy": 11.2, 
			 "SMD_solvation_energy": 6.72 
		},
		"coords": [
			{
				"x": 4.8328729713,
				"y": -2.4531399937,
				"z": 0.5789783408,
				"element": "N" 
			},
			{
				"x": 4.1757884973,
				"y": -1.2991484269,
				"z": 0.1540926408,
				"element": "C" 
			},
			{
				"x": 2.7832063901,
				"y": -1.3045611485,
				"z": -0.0160712172,
				"element": "C" 
			},
			{
				"x": 2.1291055491,
				"y": -0.1722751424,
				"z": -0.513208949,
				"element": "C" 
			},
			{
				"x": 2.8566899783,
				"y": 0.984164527,
				"z": -0.8393157925,
				"element": "C" 
			},
			{
				"x": 4.237573233,
				"y": 0.9847955097,
				"z": -0.6411634114,
				"element": "C" 
			},
			{
				"x": 4.9022279057,
				"y": -0.1342581081,
				"z": -0.1506946908,
				"element": "C" 
			},
			{
				"x": 0.7171930745,
				"y": -0.1921151221,
				"z": -0.6756790547,
				"element": "N" 
			},
			{
				"x": -0.0428177475,
				"y": -1.3286993737,
				"z": -0.9932968275,
				"element": "C" 
			},
			{
				"x": 0.3537978382,
				"y": -2.4797152809,
				"z": -1.1685936328,
				"element": "O" 
			},
			{
				"x": -1.3596761238,
				"y": -0.8870815067,
				"z": -1.0669493009,
				"element": "N" 
			},
			{
				"x": -2.5141308719,
				"y": -1.6973527076,
				"z": -1.3825746097,
				"element": "C" 
			},
			{
				"x": -2.6549125323,
				"y": -3.1186097569,
				"z": -0.9058792871,
				"element": "C" 
			},
			{
				"x": -2.4577198279,
				"y": -2.8229226418,
				"z": -2.3799079244,
				"element": "C" 
			},
			{
				"x": -1.4138793405,
				"y": 0.4720644798,
				"z": -0.7664273161,
				"element": "C" 
			},
			{
				"x": -2.6106599245,
				"y": 1.1097474057,
				"z": -0.7617050906,
				"element": "O" 
			},
			{
				"x": -0.1650291275,
				"y": 0.9133985341,
				"z": -0.5243232647,
				"element": "C" 
			},
			{
				"x": 0.2137336506,
				"y": 2.1968070768,
				"z": -0.2531954257,
				"element": "O" 
			},
			{
				"x": 5.717966903,
				"y": -2.3059334238,
				"z": 1.0429686979,
				"element": "H" 
			},
			{
				"x": 4.255743417,
				"y": -3.1323189634,
				"z": 1.0544927606,
				"element": "H" 
			},
			{
				"x": 2.210117093,
				"y": -2.1978775182,
				"z": 0.1979504224,
				"element": "H" 
			},
			{
				"x": 2.3561244299,
				"y": 1.8509460701,
				"z": -1.2496539851,
				"element": "H" 
			},
			{
				"x": 4.8072539379,
				"y": 1.8764088129,
				"z": -0.888382973,
				"element": "H" 
			},
			{
				"x": 5.98105624,
				"y": -0.1207174463,
				"z": -0.0195388889,
				"element": "H" 
			},
			{
				"x": -3.4042566675,
				"y": -1.0797800538,
				"z": -1.3783960093,
				"element": "H" 
			},
			{
				"x": -3.6314337784,
				"y": -3.4326744369,
				"z": -0.5489975816,
				"element": "H" 
			},
			{
				"x": -1.806349126,
				"y": -3.5574193176,
				"z": -0.395036462,
				"element": "H" 
			},
			{
				"x": -3.295824016,
				"y": -2.9279514381,
				"z": -3.0625927522,
				"element": "H" 
			},
			{
				"x": -1.4868797462,
				"y": -3.0775449478,
				"z": -2.7875528355,
				"element": "H" 
			},
			{
				"x": -2.433313445,
				"y": 2.0503899326,
				"z": -0.6213982594,
				"element": "H" 
			},
			{
				"x": 0.6614311658,
				"y": 2.2244744065,
				"z": 0.6063526797,
				"element": "H" 
			}
		],
		 "valence_orbital": [ 
			{
				"type": "occ",
				"energy": -0.26288,
				"method": "rhf"
			},
			{
				"type": "occ",
				"energy": -0.2554,
				"method": "rhf"
			},
			{
				"type": "occ",
				"energy": -0.22807,
				"method": "rhf"
			},
			{
				"type": "occ",
				"energy": -0.19881,
				"method": "rhf"
			},
			{
				"type": "occ",
				"energy": -0.17275,
				"method": "rhf"
			},
			{
				"type": "unocc",
				"energy": 1e-05,
				"method": "rhf"
			},
			{
				"type": "unocc",
				"energy": 0.01736,
				"method": "rhf"
			},
			{
				"type": "unocc",
				"energy": 0.04629,
				"method": "rhf"
			},
			{
				"type": "unocc",
				"energy": 0.06813,
				"method": "rhf"
			},
			{
				"type": "unocc",
				"energy": 0.0761,
				"method": "rhf"
			}
		],
		"cosmo_sigma_profile": { 
			"-0.025": 0.0,
			"-0.024": 0.0,
			"-0.023": 0.0,
			"-0.022": 0.0,
			"-0.021": 0.0,
			"-0.02": 0.0,
			"-0.019": 0.0,
			"-0.018": 0.825421514047,
			"-0.017": 1.69224005087,
			"-0.016": 1.8921913761,
			"-0.015": 0.905876253455,
			"-0.014": 1.65010738831,
			"-0.013": 1.82014681679,
			"-0.012": 3.54567221583,
			"-0.011": 4.43396181841,
			"-0.01": 5.39226570835,
			"-0.009": 4.17628472557,
			"-0.008": 4.86987560062,
			"-0.007": 4.20967795316,
			"-0.006": 8.06039289458,
			"-0.005": 13.4377888404,
			"-0.004": 14.1188563816,
			"-0.003": 15.2573505083,
			"-0.002": 14.2019586209,
			"-0.001": 16.5204036428,
			"0.0": 20.3500956255,
			"0.001": 24.3146956554,
			"0.002": 22.5569641972,
			"0.003": 16.3067222407,
			"0.004": 13.7442258422,
			"0.005": 12.7237110413,
			"0.006": 15.0989778636,
			"0.007": 8.48115366636,
			"0.008": 5.30300327871,
			"0.009": 3.89260829182,
			"0.01": 2.9636986846,
			"0.011": 3.06885115162,
			"0.012": 2.52250744077,
			"0.013": 2.86286543814,
			"0.014": 3.0607943085,
			"0.015": 0.343559632479,
			"0.016": 0.0,
			"0.017": 0.0,
			"0.018": 0.0,
			"0.019": 0.0,
			"0.02": 0.0,
			"0.021": 0.0,
			"0.022": 0.0,
			"0.023": 0.0,
			"0.024": 0.0,
			"0.025": 0.0
		}
	}
}
