{
	 "smiles": "CC1CNC2=C(O1)C=CC(Cl)=C2", 
	 "Tm": 349.15, 
	 "num_atms": 22, 
	 "gaussian": { 
		 "optdone": 1, 
		 "sigma_profile": "yes", 
		 "theory": "DFT", 
		 "functional": "B3LYP", 
		 "basiset": "6-31G**", 
		 "properties": { 
			 "R2extent": 3568.3167, 
			 "electric_dipole_moment_norm": 3.94174737141, 
			 "electric_quadrupole_moment_norm": 13.5173058407, 
			 "total_energy": -939.150947344, 
			 "HOMO_LUMO_gap": 0.19557, 
			 "cosmo_polarized_energy": -8.88, 
			 "cosmo_cavitation_energy": 26.25, 
			 "cosmo_dispersion_energy": -19.88, 
			 "cosmo_repulsion_energy": 1.59, 
			 "cosmo_total_nonelectrostatic_energy": 7.96, 
			 "SMD_solvation_energy": 3.36 
		},
		"coords": [
			{
				"x": 0.2333708998,
				"y": -2.2302576189,
				"z": 0.0394316568,
				"element": "C" 
			},
			{
				"x": -0.6335699814,
				"y": -1.3520646492,
				"z": -0.8601905186,
				"element": "C" 
			},
			{
				"x": -2.1010610866,
				"y": -1.275717188,
				"z": -0.4216174907,
				"element": "C" 
			},
			{
				"x": -2.1598270472,
				"y": -0.6148423774,
				"z": 0.8745312875,
				"element": "N" 
			},
			{
				"x": -1.4639901393,
				"y": 0.5953206588,
				"z": 0.9647327257,
				"element": "C" 
			},
			{
				"x": -0.4126926719,
				"y": 0.8518349886,
				"z": 0.0577409453,
				"element": "C" 
			},
			{
				"x": -0.087735295,
				"y": -0.0226199865,
				"z": -0.9508837983,
				"element": "O" 
			},
			{
				"x": 0.3159134006,
				"y": 2.0354127117,
				"z": 0.1492004634,
				"element": "C" 
			},
			{
				"x": 0.0257929165,
				"y": 2.9841724094,
				"z": 1.1305653442,
				"element": "C" 
			},
			{
				"x": -1.007269869,
				"y": 2.7198124181,
				"z": 2.0265319816,
				"element": "C" 
			},
			{
				"x": -1.3945323785,
				"y": 3.8960638445,
				"z": 3.2810016363,
				"element": "Cl" 
			},
			{
				"x": -1.7509261996,
				"y": 1.544716118,
				"z": 1.9536482315,
				"element": "C" 
			},
			{
				"x": -0.10512916,
				"y": -3.2710057696,
				"z": -0.0049551172,
				"element": "H" 
			},
			{
				"x": 1.273786707,
				"y": -2.1908833232,
				"z": -0.2935956196,
				"element": "H" 
			},
			{
				"x": 0.183051,
				"y": -1.8977766758,
				"z": 1.0790568825,
				"element": "H" 
			},
			{
				"x": -0.5958624453,
				"y": -1.7268894576,
				"z": -1.8882509523,
				"element": "H" 
			},
			{
				"x": -2.5148987753,
				"y": -2.2848171367,
				"z": -0.330719814,
				"element": "H" 
			},
			{
				"x": -2.6715244969,
				"y": -0.7408896702,
				"z": -1.1981629519,
				"element": "H" 
			},
			{
				"x": -3.073164158,
				"y": -0.6042312916,
				"z": 1.308649522,
				"element": "H" 
			},
			{
				"x": 1.1142672892,
				"y": 2.2019784712,
				"z": -0.5666419159,
				"element": "H" 
			},
			{
				"x": 0.5934002666,
				"y": 3.9045241728,
				"z": 1.1986736072,
				"element": "H" 
			},
			{
				"x": -2.5528987756,
				"y": 1.3610593516,
				"z": 2.6617538947,
				"element": "H" 
			}
		],
		 "valence_orbital": [ 
			{
				"type": "occ",
				"energy": -0.30825,
				"method": "rhf"
			},
			{
				"type": "occ",
				"energy": -0.3024,
				"method": "rhf"
			},
			{
				"type": "occ",
				"energy": -0.28681,
				"method": "rhf"
			},
			{
				"type": "occ",
				"energy": -0.22834,
				"method": "rhf"
			},
			{
				"type": "occ",
				"energy": -0.19564,
				"method": "rhf"
			},
			{
				"type": "unocc",
				"energy": -7e-05,
				"method": "rhf"
			},
			{
				"type": "unocc",
				"energy": 0.01406,
				"method": "rhf"
			},
			{
				"type": "unocc",
				"energy": 0.0386,
				"method": "rhf"
			},
			{
				"type": "unocc",
				"energy": 0.06878,
				"method": "rhf"
			},
			{
				"type": "unocc",
				"energy": 0.10313,
				"method": "rhf"
			}
		],
		"cosmo_sigma_profile": { 
			"-0.025": 0.0,
			"-0.024": 0.0,
			"-0.023": 0.0,
			"-0.022": 0.0,
			"-0.021": 0.0,
			"-0.02": 0.0,
			"-0.019": 0.0,
			"-0.018": 0.0,
			"-0.017": 0.0,
			"-0.016": 0.0,
			"-0.015": 0.0,
			"-0.014": 0.0590511991516,
			"-0.013": 1.0051674945,
			"-0.012": 1.50240921575,
			"-0.011": 1.87235733251,
			"-0.01": 1.00365957812,
			"-0.009": 1.66506189369,
			"-0.008": 2.37382817149,
			"-0.007": 2.74693523191,
			"-0.006": 8.36797849703,
			"-0.005": 14.5199106439,
			"-0.004": 15.8018282151,
			"-0.003": 17.2251491677,
			"-0.002": 14.6128920532,
			"-0.001": 12.8312178543,
			"0.0": 14.1371656913,
			"0.001": 12.9438373821,
			"0.002": 13.5627280311,
			"0.003": 15.9070830358,
			"0.004": 21.4777448401,
			"0.005": 21.5654045841,
			"0.006": 6.14506450588,
			"0.007": 2.47381386016,
			"0.008": 1.66649007596,
			"0.009": 1.35967746323,
			"0.01": 2.07224990991,
			"0.011": 1.01037900396,
			"0.012": 7.55270627184e-05,
			"0.013": 0.0,
			"0.014": 0.0,
			"0.015": 0.0,
			"0.016": 0.0,
			"0.017": 0.0,
			"0.018": 0.0,
			"0.019": 0.0,
			"0.02": 0.0,
			"0.021": 0.0,
			"0.022": 0.0,
			"0.023": 0.0,
			"0.024": 0.0,
			"0.025": 0.0
		}
	}
}
