{
	 "smiles": "ClC1=C2NCCC2=CC=C1", 
	 "Tm": 303.15, 
	 "num_atms": 18, 
	 "gaussian": { 
		 "optdone": 1, 
		 "sigma_profile": "yes", 
		 "theory": "DFT", 
		 "functional": "B3LYP", 
		 "basiset": "6-31G**", 
		 "properties": { 
			 "R2extent": 2245.3626, 
			 "electric_dipole_moment_norm": 2.44275719219, 
			 "electric_quadrupole_moment_norm": 7.13612765791, 
			 "total_energy": -824.619288039, 
			 "HOMO_LUMO_gap": 0.19371, 
			 "cosmo_polarized_energy": -5.91, 
			 "cosmo_cavitation_energy": 22.5, 
			 "cosmo_dispersion_energy": -17.34, 
			 "cosmo_repulsion_energy": 1.41, 
			 "cosmo_total_nonelectrostatic_energy": 6.58, 
			 "SMD_solvation_energy": 1.92 
		},
		"coords": [
			{
				"x": 2.2504187258,
				"y": -3.3543051016,
				"z": 0.4289227355,
				"element": "Cl" 
			},
			{
				"x": 1.9311203732,
				"y": -1.6593875143,
				"z": 0.0630547893,
				"element": "C" 
			},
			{
				"x": 0.7192085951,
				"y": -1.0913382962,
				"z": 0.4516700274,
				"element": "C" 
			},
			{
				"x": -0.3272820341,
				"y": -1.6591771706,
				"z": 1.1706731068,
				"element": "N" 
			},
			{
				"x": -1.515727527,
				"y": -0.8051438354,
				"z": 0.984379533,
				"element": "C" 
			},
			{
				"x": -0.9124867436,
				"y": 0.5948122309,
				"z": 0.7086045523,
				"element": "C" 
			},
			{
				"x": 0.4497237431,
				"y": 0.2541397634,
				"z": 0.1363901509,
				"element": "C" 
			},
			{
				"x": 1.3820279198,
				"y": 1.0237481347,
				"z": -0.5408231371,
				"element": "C" 
			},
			{
				"x": 2.6004433164,
				"y": 0.4437999147,
				"z": -0.9272184092,
				"element": "C" 
			},
			{
				"x": 2.8722857699,
				"y": -0.8914030395,
				"z": -0.6273733678,
				"element": "C" 
			},
			{
				"x": -0.4518399003,
				"y": -2.6594621327,
				"z": 1.08125888,
				"element": "H" 
			},
			{
				"x": -2.1539812924,
				"y": -0.8268542117,
				"z": 1.8718759888,
				"element": "H" 
			},
			{
				"x": -2.1141009266,
				"y": -1.1366788581,
				"z": 0.1217073164,
				"element": "H" 
			},
			{
				"x": -0.8029729207,
				"y": 1.1574742618,
				"z": 1.6453059888,
				"element": "H" 
			},
			{
				"x": -1.537979976,
				"y": 1.1913916832,
				"z": 0.0384767058,
				"element": "H" 
			},
			{
				"x": 1.1707821948,
				"y": 2.0624091624,
				"z": -0.7804427509,
				"element": "H" 
			},
			{
				"x": 3.3375110107,
				"y": 1.0309830369,
				"z": -1.4654923974,
				"element": "H" 
			},
			{
				"x": 3.8083496718,
				"y": -1.3485080279,
				"z": -0.9298697126,
				"element": "H" 
			}
		],
		 "valence_orbital": [ 
			{
				"type": "occ",
				"energy": -0.32497,
				"method": "rhf"
			},
			{
				"type": "occ",
				"energy": -0.30882,
				"method": "rhf"
			},
			{
				"type": "occ",
				"energy": -0.29843,
				"method": "rhf"
			},
			{
				"type": "occ",
				"energy": -0.23833,
				"method": "rhf"
			},
			{
				"type": "occ",
				"energy": -0.19814,
				"method": "rhf"
			},
			{
				"type": "unocc",
				"energy": -0.00443,
				"method": "rhf"
			},
			{
				"type": "unocc",
				"energy": 0.01312,
				"method": "rhf"
			},
			{
				"type": "unocc",
				"energy": 0.03714,
				"method": "rhf"
			},
			{
				"type": "unocc",
				"energy": 0.08893,
				"method": "rhf"
			},
			{
				"type": "unocc",
				"energy": 0.11597,
				"method": "rhf"
			}
		],
		"cosmo_sigma_profile": { 
			"-0.025": 0.0,
			"-0.024": 0.0,
			"-0.023": 0.0,
			"-0.022": 0.0,
			"-0.021": 0.0,
			"-0.02": 0.0,
			"-0.019": 0.0,
			"-0.018": 0.0,
			"-0.017": 0.0,
			"-0.016": 0.0,
			"-0.015": 0.0,
			"-0.014": 0.0,
			"-0.013": 0.0570856438628,
			"-0.012": 0.628642223192,
			"-0.011": 0.879349544948,
			"-0.01": 1.20135940451,
			"-0.009": 0.845492094611,
			"-0.008": 0.965565313247,
			"-0.007": 1.46818640713,
			"-0.006": 4.18003911276,
			"-0.005": 9.82314426208,
			"-0.004": 18.7941516131,
			"-0.003": 20.1739741164,
			"-0.002": 17.6186560786,
			"-0.001": 14.9909525902,
			"0.0": 8.93182149171,
			"0.001": 10.5067841274,
			"0.002": 9.91022065733,
			"0.003": 15.2988470371,
			"0.004": 15.5446965492,
			"0.005": 16.2774650513,
			"0.006": 8.10822255653,
			"0.007": 1.25965862698,
			"0.008": 1.1787740196,
			"0.009": 0.46466662869,
			"0.01": 0.68293579794,
			"0.011": 0.232450830753,
			"0.012": 0.816369002963,
			"0.013": 0.281220660945,
			"0.014": 0.0,
			"0.015": 0.0,
			"0.016": 0.0,
			"0.017": 0.0,
			"0.018": 0.0,
			"0.019": 0.0,
			"0.02": 0.0,
			"0.021": 0.0,
			"0.022": 0.0,
			"0.023": 0.0,
			"0.024": 0.0,
			"0.025": 0.0
		}
	}
}
