{
	 "smiles": "OCC1=C(Cl)N=C2C=CC=CN12", 
	 "Tm": 451.15, 
	 "num_atms": 19, 
	 "gaussian": { 
		 "optdone": 1, 
		 "sigma_profile": "yes", 
		 "theory": "DFT", 
		 "functional": "B3LYP", 
		 "basiset": "6-31G**", 
		 "properties": { 
			 "R2extent": 2742.496, 
			 "electric_dipole_moment_norm": 4.77117345943, 
			 "electric_quadrupole_moment_norm": 13.9677331658, 
			 "total_energy": -953.969506788, 
			 "HOMO_LUMO_gap": 0.17721, 
			 "cosmo_polarized_energy": -13.26, 
			 "cosmo_cavitation_energy": 24.82, 
			 "cosmo_dispersion_energy": -18.74, 
			 "cosmo_repulsion_energy": 1.5, 
			 "cosmo_total_nonelectrostatic_energy": 7.57, 
			 "SMD_solvation_energy": 2.47 
		},
		"coords": [
			{
				"x": -0.3390588448,
				"y": -2.9828074851,
				"z": 0.5302013354,
				"element": "O" 
			},
			{
				"x": -1.5690625984,
				"y": -2.3838474088,
				"z": 0.1089193837,
				"element": "C" 
			},
			{
				"x": -1.3351156695,
				"y": -0.9551576776,
				"z": -0.2201807938,
				"element": "C" 
			},
			{
				"x": -1.9519881895,
				"y": 0.2174639357,
				"z": 0.1898533519,
				"element": "C" 
			},
			{
				"x": -3.2275257476,
				"y": 0.30779225,
				"z": 1.3662713026,
				"element": "Cl" 
			},
			{
				"x": -1.4888855341,
				"y": 1.3242949162,
				"z": -0.4212154583,
				"element": "N" 
			},
			{
				"x": -0.5406199281,
				"y": 0.8742722774,
				"z": -1.2467872334,
				"element": "C" 
			},
			{
				"x": 0.2963176255,
				"y": 1.5709860273,
				"z": -2.1454714808,
				"element": "C" 
			},
			{
				"x": 1.207852799,
				"y": 0.8703048487,
				"z": -2.9000320546,
				"element": "C" 
			},
			{
				"x": 1.3183903954,
				"y": -0.54166055,
				"z": -2.766945917,
				"element": "C" 
			},
			{
				"x": 0.5164830417,
				"y": -1.2227664105,
				"z": -1.893029335,
				"element": "C" 
			},
			{
				"x": -0.4104776345,
				"y": -0.5232011233,
				"z": -1.1577047534,
				"element": "N" 
			},
			{
				"x": -0.510991128,
				"y": -3.9187209053,
				"z": 0.6972571713,
				"element": "H" 
			},
			{
				"x": -1.9669308632,
				"y": -2.9160504889,
				"z": -0.7726753346,
				"element": "H" 
			},
			{
				"x": -2.3367668854,
				"y": -2.4258223512,
				"z": 0.8923030201,
				"element": "H" 
			},
			{
				"x": 0.188688922,
				"y": 2.6473344284,
				"z": -2.2098267564,
				"element": "H" 
			},
			{
				"x": 1.8563356075,
				"y": 1.3937909301,
				"z": -3.5947398967,
				"element": "H" 
			},
			{
				"x": 2.0494588429,
				"y": -1.0945207541,
				"z": -3.3455593547,
				"element": "H" 
			},
			{
				"x": 0.572895789,
				"y": -2.2849844591,
				"z": -1.6980371964,
				"element": "H" 
			}
		],
		 "valence_orbital": [ 
			{
				"type": "occ",
				"energy": -0.31399,
				"method": "rhf"
			},
			{
				"type": "occ",
				"energy": -0.28908,
				"method": "rhf"
			},
			{
				"type": "occ",
				"energy": -0.28111,
				"method": "rhf"
			},
			{
				"type": "occ",
				"energy": -0.24093,
				"method": "rhf"
			},
			{
				"type": "occ",
				"energy": -0.21366,
				"method": "rhf"
			},
			{
				"type": "unocc",
				"energy": -0.03645,
				"method": "rhf"
			},
			{
				"type": "unocc",
				"energy": -0.0074,
				"method": "rhf"
			},
			{
				"type": "unocc",
				"energy": 0.04249,
				"method": "rhf"
			},
			{
				"type": "unocc",
				"energy": 0.04892,
				"method": "rhf"
			},
			{
				"type": "unocc",
				"energy": 0.08044,
				"method": "rhf"
			}
		],
		"cosmo_sigma_profile": { 
			"-0.025": 0.0,
			"-0.024": 0.0,
			"-0.023": 0.0,
			"-0.022": 0.0,
			"-0.021": 0.0,
			"-0.02": 0.0,
			"-0.019": 0.0,
			"-0.018": 0.0,
			"-0.017": 0.144871366249,
			"-0.016": 0.922555013139,
			"-0.015": 1.21508733296,
			"-0.014": 1.11263992759,
			"-0.013": 0.752437343254,
			"-0.012": 0.999958211378,
			"-0.011": 1.0163468451,
			"-0.01": 0.934575471451,
			"-0.009": 0.440985965267,
			"-0.008": 2.56561414647,
			"-0.007": 8.89632477372,
			"-0.006": 11.8120125571,
			"-0.005": 15.7370355582,
			"-0.004": 10.6961666465,
			"-0.003": 10.3208491285,
			"-0.002": 10.0421340174,
			"-0.001": 12.9785128672,
			"0.0": 14.2305167054,
			"0.001": 15.3421434609,
			"0.002": 18.844990904,
			"0.003": 18.3785002051,
			"0.004": 12.2045818011,
			"0.005": 6.89521060211,
			"0.006": 3.45150714462,
			"0.007": 3.60449266845,
			"0.008": 2.94944191104,
			"0.009": 2.37740864519,
			"0.01": 2.64254742908,
			"0.011": 2.00204818767,
			"0.012": 2.04616249066,
			"0.013": 1.97088345308,
			"0.014": 1.64161737383,
			"0.015": 1.04958201662,
			"0.016": 0.793423943153,
			"0.017": 0.205444687584,
			"0.018": 0.0,
			"0.019": 0.0,
			"0.02": 0.0,
			"0.021": 0.0,
			"0.022": 0.0,
			"0.023": 0.0,
			"0.024": 0.0,
			"0.025": 0.0
		}
	}
}
