{
	 "smiles": "FC1=C(Cl)C=C(Cl)C=N1", 
	 "Tm": 315.15, 
	 "num_atms": 11, 
	 "gaussian": { 
		 "optdone": 1, 
		 "sigma_profile": "yes", 
		 "theory": "DFT", 
		 "functional": "B3LYP", 
		 "basiset": "6-31G**", 
		 "properties": { 
			 "R2extent": 2226.3773, 
			 "electric_dipole_moment_norm": 1.63924084259, 
			 "electric_quadrupole_moment_norm": 6.57697499463, 
			 "total_energy": -1266.69878791, 
			 "HOMO_LUMO_gap": 0.20574, 
			 "cosmo_polarized_energy": -4.81, 
			 "cosmo_cavitation_energy": 19.98, 
			 "cosmo_dispersion_energy": -15.14, 
			 "cosmo_repulsion_energy": 1.22, 
			 "cosmo_total_nonelectrostatic_energy": 6.06, 
			 "SMD_solvation_energy": 2.0 
		},
		"coords": [
			{
				"x": 1.7574790525,
				"y": -3.5169739379,
				"z": 0.2139548148,
				"element": "F" 
			},
			{
				"x": 0.944919979,
				"y": -2.4710429127,
				"z": 0.3649576528,
				"element": "C" 
			},
			{
				"x": 0.7749609778,
				"y": -1.58115641,
				"z": -0.7050330478,
				"element": "C" 
			},
			{
				"x": 1.6072235106,
				"y": -1.8279233234,
				"z": -2.2126309028,
				"element": "Cl" 
			},
			{
				"x": -0.0779326057,
				"y": -0.4983225794,
				"z": -0.5223159239,
				"element": "C" 
			},
			{
				"x": -0.7125496812,
				"y": -0.3631860022,
				"z": 0.714230379,
				"element": "C" 
			},
			{
				"x": -1.7964235029,
				"y": 0.9765696132,
				"z": 1.0059576167,
				"element": "Cl" 
			},
			{
				"x": -0.4754143501,
				"y": -1.3046244138,
				"z": 1.7144371817,
				"element": "C" 
			},
			{
				"x": 0.3475134602,
				"y": -2.3424985137,
				"z": 1.5268048918,
				"element": "N" 
			},
			{
				"x": -0.2412892645,
				"y": 0.216419702,
				"z": -1.320067122,
				"element": "H" 
			},
			{
				"x": -0.9572875757,
				"y": -1.220661222,
				"z": 2.6840044598,
				"element": "H" 
			}
		],
		 "valence_orbital": [ 
			{
				"type": "occ",
				"energy": -0.3492,
				"method": "rhf"
			},
			{
				"type": "occ",
				"energy": -0.33433,
				"method": "rhf"
			},
			{
				"type": "occ",
				"energy": -0.30076,
				"method": "rhf"
			},
			{
				"type": "occ",
				"energy": -0.30072,
				"method": "rhf"
			},
			{
				"type": "occ",
				"energy": -0.26552,
				"method": "rhf"
			},
			{
				"type": "unocc",
				"energy": -0.05978,
				"method": "rhf"
			},
			{
				"type": "unocc",
				"energy": -0.03746,
				"method": "rhf"
			},
			{
				"type": "unocc",
				"energy": -0.00724,
				"method": "rhf"
			},
			{
				"type": "unocc",
				"energy": 0.03106,
				"method": "rhf"
			},
			{
				"type": "unocc",
				"energy": 0.11211,
				"method": "rhf"
			}
		],
		"cosmo_sigma_profile": { 
			"-0.025": 0.0,
			"-0.024": 0.0,
			"-0.023": 0.0,
			"-0.022": 0.0,
			"-0.021": 0.0,
			"-0.02": 0.0,
			"-0.019": 0.0,
			"-0.018": 0.0,
			"-0.017": 0.0,
			"-0.016": 0.0,
			"-0.015": 0.0,
			"-0.014": 0.0,
			"-0.013": 0.0,
			"-0.012": 0.0,
			"-0.011": 0.0781036484948,
			"-0.01": 1.67192273409,
			"-0.009": 2.37179591834,
			"-0.008": 3.76009713947,
			"-0.007": 3.12668257071,
			"-0.006": 3.05711089353,
			"-0.005": 3.75956906743,
			"-0.004": 9.5448797313,
			"-0.003": 13.1156256368,
			"-0.002": 18.3385709914,
			"-0.001": 18.6557477699,
			"0.0": 10.3293934329,
			"0.001": 11.6150375046,
			"0.002": 18.1918747658,
			"0.003": 26.9201386667,
			"0.004": 12.0981269182,
			"0.005": 1.88558179942,
			"0.006": 1.13776673655,
			"0.007": 1.57843198608,
			"0.008": 1.21349720875,
			"0.009": 0.797895744455,
			"0.01": 1.08496922375,
			"0.011": 0.977532995688,
			"0.012": 0.920214330823,
			"0.013": 0.365546725726,
			"0.014": 0.0,
			"0.015": 0.0,
			"0.016": 0.0,
			"0.017": 0.0,
			"0.018": 0.0,
			"0.019": 0.0,
			"0.02": 0.0,
			"0.021": 0.0,
			"0.022": 0.0,
			"0.023": 0.0,
			"0.024": 0.0,
			"0.025": 0.0
		}
	}
}
