{
	 "smiles": "COC1=CC=C(C=C1C(F)(F)F)C#N", 
	 "Tm": 372.15, 
	 "num_atms": 20, 
	 "gaussian": { 
		 "optdone": 1, 
		 "sigma_profile": "yes", 
		 "theory": "DFT", 
		 "functional": "B3LYP", 
		 "basiset": "6-31G**", 
		 "properties": { 
			 "R2extent": 3060.0092, 
			 "electric_dipole_moment_norm": 5.78768073238, 
			 "electric_quadrupole_moment_norm": 20.2520216258, 
			 "total_energy": -776.046049708, 
			 "HOMO_LUMO_gap": 0.19722, 
			 "cosmo_polarized_energy": -11.75, 
			 "cosmo_cavitation_energy": 27.04, 
			 "cosmo_dispersion_energy": -18.56, 
			 "cosmo_repulsion_energy": 1.41, 
			 "cosmo_total_nonelectrostatic_energy": 9.88, 
			 "SMD_solvation_energy": 8.05 
		},
		"coords": [
			{
				"x": 2.7105279496,
				"y": -0.3448911576,
				"z": 0.9463409021,
				"element": "C" 
			},
			{
				"x": 1.5742840268,
				"y": -0.1940002842,
				"z": 0.1004575497,
				"element": "O" 
			},
			{
				"x": 0.3423902548,
				"y": -0.403498984,
				"z": 0.6103159841,
				"element": "C" 
			},
			{
				"x": 0.0889920516,
				"y": -0.76678248,
				"z": 1.9405448776,
				"element": "C" 
			},
			{
				"x": -1.2177032525,
				"y": -0.9614844643,
				"z": 2.3760813291,
				"element": "C" 
			},
			{
				"x": -2.2951674429,
				"y": -0.7977818663,
				"z": 1.4943246544,
				"element": "C" 
			},
			{
				"x": -2.0406025841,
				"y": -0.4336410195,
				"z": 0.1608759544,
				"element": "C" 
			},
			{
				"x": -0.7410684771,
				"y": -0.2370504333,
				"z": -0.2835468626,
				"element": "C" 
			},
			{
				"x": -0.4812017088,
				"y": 0.1538234031,
				"z": -1.7183284288,
				"element": "C" 
			},
			{
				"x": 0.2814416637,
				"y": -0.7576072869,
				"z": -2.3560502954,
				"element": "F" 
			},
			{
				"x": 0.1509502167,
				"y": 1.3418546438,
				"z": -1.8077687544,
				"element": "F" 
			},
			{
				"x": -1.6365585921,
				"y": 0.2633729255,
				"z": -2.4127966581,
				"element": "F" 
			},
			{
				"x": -3.6391210861,
				"y": -0.9987778563,
				"z": 1.9452931446,
				"element": "C" 
			},
			{
				"x": -4.7296927554,
				"y": -1.1631185851,
				"z": 2.3160661784,
				"element": "N" 
			},
			{
				"x": 2.7876736507,
				"y": -1.3683010454,
				"z": 1.3315598147,
				"element": "H" 
			},
			{
				"x": 2.6809639681,
				"y": 0.3620807138,
				"z": 1.7836205316,
				"element": "H" 
			},
			{
				"x": 3.574608907,
				"y": -0.1276281669,
				"z": 0.318719657,
				"element": "H" 
			},
			{
				"x": 0.9054970248,
				"y": -0.898767626,
				"z": 2.6390295697,
				"element": "H" 
			},
			{
				"x": -1.4065636098,
				"y": -1.2424990331,
				"z": 3.406799868,
				"element": "H" 
			},
			{
				"x": -2.864550205,
				"y": -0.3042013973,
				"z": -0.5299390163,
				"element": "H" 
			}
		],
		 "valence_orbital": [ 
			{
				"type": "occ",
				"energy": -0.35534,
				"method": "rhf"
			},
			{
				"type": "occ",
				"energy": -0.3331,
				"method": "rhf"
			},
			{
				"type": "occ",
				"energy": -0.33066,
				"method": "rhf"
			},
			{
				"type": "occ",
				"energy": -0.29256,
				"method": "rhf"
			},
			{
				"type": "occ",
				"energy": -0.25207,
				"method": "rhf"
			},
			{
				"type": "unocc",
				"energy": -0.05485,
				"method": "rhf"
			},
			{
				"type": "unocc",
				"energy": -0.04223,
				"method": "rhf"
			},
			{
				"type": "unocc",
				"energy": 0.03244,
				"method": "rhf"
			},
			{
				"type": "unocc",
				"energy": 0.06463,
				"method": "rhf"
			},
			{
				"type": "unocc",
				"energy": 0.06673,
				"method": "rhf"
			}
		],
		"cosmo_sigma_profile": { 
			"-0.025": 0.0,
			"-0.024": 0.0,
			"-0.023": 0.0,
			"-0.022": 0.0,
			"-0.021": 0.0,
			"-0.02": 0.0,
			"-0.019": 0.0,
			"-0.018": 0.0,
			"-0.017": 0.0,
			"-0.016": 0.0,
			"-0.015": 0.0,
			"-0.014": 0.0,
			"-0.013": 0.0,
			"-0.012": 0.0,
			"-0.011": 0.0,
			"-0.01": 0.0,
			"-0.009": 1.95002380747,
			"-0.008": 7.01920970688,
			"-0.007": 11.4851757509,
			"-0.006": 13.7593422568,
			"-0.005": 12.1760606727,
			"-0.004": 13.6544076434,
			"-0.003": 11.8579160542,
			"-0.002": 11.2579820226,
			"-0.001": 16.3592011648,
			"0.0": 19.7713617925,
			"0.001": 14.6925529471,
			"0.002": 19.8787459485,
			"0.003": 24.7467103364,
			"0.004": 6.82559665958,
			"0.005": 5.01992397621,
			"0.006": 5.13525349592,
			"0.007": 5.4437610631,
			"0.008": 3.55359717795,
			"0.009": 3.62843976041,
			"0.01": 2.98921432251,
			"0.011": 3.00295879976,
			"0.012": 2.40001143107,
			"0.013": 1.66976363227,
			"0.014": 0.0711769428513,
			"0.015": 0.0,
			"0.016": 0.0,
			"0.017": 0.0,
			"0.018": 0.0,
			"0.019": 0.0,
			"0.02": 0.0,
			"0.021": 0.0,
			"0.022": 0.0,
			"0.023": 0.0,
			"0.024": 0.0,
			"0.025": 0.0
		}
	}
}
