{
	 "smiles": "OCC(=O)NC1=CC=C(C=C1)C(F)(F)F", 
	 "Tm": 378.15, 
	 "num_atms": 23, 
	 "gaussian": { 
		 "optdone": 1, 
		 "sigma_profile": "yes", 
		 "theory": "DFT", 
		 "functional": "B3LYP", 
		 "basiset": "6-31G**", 
		 "properties": { 
			 "R2extent": 6811.8185, 
			 "electric_dipole_moment_norm": 2.00537152169, 
			 "electric_quadrupole_moment_norm": 16.476643061, 
			 "total_energy": -852.509097518, 
			 "HOMO_LUMO_gap": 0.20424, 
			 "cosmo_polarized_energy": -13.44, 
			 "cosmo_cavitation_energy": 28.87, 
			 "cosmo_dispersion_energy": -20.87, 
			 "cosmo_repulsion_energy": 1.57, 
			 "cosmo_total_nonelectrostatic_energy": 9.57, 
			 "SMD_solvation_energy": 6.74 
		},
		"coords": [
			{
				"x": 1.0617866774,
				"y": -2.4206307845,
				"z": -1.0819706002,
				"element": "O" 
			},
			{
				"x": 1.176963078,
				"y": -1.110390174,
				"z": -0.6089879862,
				"element": "C" 
			},
			{
				"x": 1.1906594315,
				"y": -0.1389738744,
				"z": -1.7905060922,
				"element": "C" 
			},
			{
				"x": 1.3385582597,
				"y": -0.585822889,
				"z": -2.9237674957,
				"element": "O" 
			},
			{
				"x": 1.0380614297,
				"y": 1.2165964799,
				"z": -1.6061088901,
				"element": "N" 
			},
			{
				"x": 0.7406180131,
				"y": 1.9969160288,
				"z": -0.4707572969,
				"element": "C" 
			},
			{
				"x": 1.1704939619,
				"y": 1.6755226424,
				"z": 0.8250548857,
				"element": "C" 
			},
			{
				"x": 0.8450600203,
				"y": 2.5068291351,
				"z": 1.8943590509,
				"element": "C" 
			},
			{
				"x": 0.1110744205,
				"y": 3.6755894229,
				"z": 1.6899050339,
				"element": "C" 
			},
			{
				"x": -0.2986453289,
				"y": 4.0127686656,
				"z": 0.3964165491,
				"element": "C" 
			},
			{
				"x": 0.008353184,
				"y": 3.1799160924,
				"z": -0.6713967184,
				"element": "C" 
			},
			{
				"x": -0.1799217188,
				"y": 4.6009492015,
				"z": 2.8381887509,
				"element": "C" 
			},
			{
				"x": 0.7828735485,
				"y": 5.5421437063,
				"z": 2.9794995902,
				"element": "F" 
			},
			{
				"x": -1.3472386325,
				"y": 5.2601971789,
				"z": 2.6654461177,
				"element": "F" 
			},
			{
				"x": -0.2540027356,
				"y": 3.9366233448,
				"z": 4.0122559415,
				"element": "F" 
			},
			{
				"x": 1.2418785055,
				"y": -2.3597044634,
				"z": -2.0377909124,
				"element": "H" 
			},
			{
				"x": 0.3479363872,
				"y": -0.8721709573,
				"z": 0.0711565075,
				"element": "H" 
			},
			{
				"x": 2.112817457,
				"y": -0.9710612855,
				"z": -0.0398023288,
				"element": "H" 
			},
			{
				"x": 0.9909650696,
				"y": 1.6983120216,
				"z": -2.4968278839,
				"element": "H" 
			},
			{
				"x": 1.7784551413,
				"y": 0.7993296511,
				"z": 1.0065714075,
				"element": "H" 
			},
			{
				"x": 1.1740466771,
				"y": 2.2450834799,
				"z": 2.894079064,
				"element": "H" 
			},
			{
				"x": -0.873090978,
				"y": 4.9174161072,
				"z": 0.2292327039,
				"element": "H" 
			},
			{
				"x": -0.3317018686,
				"y": 3.4349612699,
				"z": -1.6712493981,
				"element": "H" 
			}
		],
		 "valence_orbital": [ 
			{
				"type": "occ",
				"energy": -0.32997,
				"method": "rhf"
			},
			{
				"type": "occ",
				"energy": -0.29099,
				"method": "rhf"
			},
			{
				"type": "occ",
				"energy": -0.28513,
				"method": "rhf"
			},
			{
				"type": "occ",
				"energy": -0.27335,
				"method": "rhf"
			},
			{
				"type": "occ",
				"energy": -0.25119,
				"method": "rhf"
			},
			{
				"type": "unocc",
				"energy": -0.04695,
				"method": "rhf"
			},
			{
				"type": "unocc",
				"energy": -0.03496,
				"method": "rhf"
			},
			{
				"type": "unocc",
				"energy": 0.00814,
				"method": "rhf"
			},
			{
				"type": "unocc",
				"energy": 0.06408,
				"method": "rhf"
			},
			{
				"type": "unocc",
				"energy": 0.0799,
				"method": "rhf"
			}
		],
		"cosmo_sigma_profile": { 
			"-0.025": 0.0,
			"-0.024": 0.0,
			"-0.023": 0.0,
			"-0.022": 0.0,
			"-0.021": 0.0,
			"-0.02": 0.0,
			"-0.019": 0.0,
			"-0.018": 0.0,
			"-0.017": 0.0,
			"-0.016": 0.0984741008317,
			"-0.015": 1.14072646315,
			"-0.014": 1.00757136412,
			"-0.013": 1.41147401732,
			"-0.012": 1.10546751434,
			"-0.011": 1.35358367993,
			"-0.01": 1.4857037119,
			"-0.009": 4.29713542178,
			"-0.008": 5.87048180656,
			"-0.007": 8.98917564458,
			"-0.006": 12.7698577212,
			"-0.005": 12.0600837625,
			"-0.004": 11.3629359841,
			"-0.003": 10.8650148808,
			"-0.002": 10.6903274737,
			"-0.001": 12.2685416397,
			"0.0": 15.8079900562,
			"0.001": 17.50390227,
			"0.002": 29.3406838226,
			"0.003": 38.1423884493,
			"0.004": 5.30262866095,
			"0.005": 2.21054797203,
			"0.006": 1.47550349407,
			"0.007": 2.75189983856,
			"0.008": 2.55210773202,
			"0.009": 1.6941116708,
			"0.01": 3.9159982641,
			"0.011": 4.41055720533,
			"0.012": 4.17710455619,
			"0.013": 2.55578083387,
			"0.014": 2.02134933154,
			"0.015": 0.0,
			"0.016": 0.0,
			"0.017": 0.0,
			"0.018": 0.0,
			"0.019": 0.0,
			"0.02": 0.0,
			"0.021": 0.0,
			"0.022": 0.0,
			"0.023": 0.0,
			"0.024": 0.0,
			"0.025": 0.0
		}
	}
}
