{
	 "smiles": "CC(=O)CCCCC(O)=O", 
	 "Tm": 308.15, 
	 "num_atms": 22, 
	 "gaussian": { 
		 "optdone": 1, 
		 "sigma_profile": "yes", 
		 "theory": "DFT", 
		 "functional": "B3LYP", 
		 "basiset": "6-31G**", 
		 "properties": { 
			 "R2extent": 2264.3979, 
			 "electric_dipole_moment_norm": 2.54552619511, 
			 "electric_quadrupole_moment_norm": 9.81659180317, 
			 "total_energy": -499.672970232, 
			 "HOMO_LUMO_gap": 0.234, 
			 "cosmo_polarized_energy": -13.24, 
			 "cosmo_cavitation_energy": 25.54, 
			 "cosmo_dispersion_energy": -17.84, 
			 "cosmo_repulsion_energy": 1.5, 
			 "cosmo_total_nonelectrostatic_energy": 9.2, 
			 "SMD_solvation_energy": 5.87 
		},
		"coords": [
			{
				"x": 2.503323136,
				"y": 1.1195594113,
				"z": 0.6831478264,
				"element": "C" 
			},
			{
				"x": 1.6113776367,
				"y": 0.2659128648,
				"z": -0.2025173506,
				"element": "C" 
			},
			{
				"x": 1.9238607177,
				"y": -0.0097439672,
				"z": -1.3457321594,
				"element": "O" 
			},
			{
				"x": 0.3057048487,
				"y": -0.2203024283,
				"z": 0.41963235,
				"element": "C" 
			},
			{
				"x": -0.6176820884,
				"y": -0.9249688365,
				"z": -0.5781695474,
				"element": "C" 
			},
			{
				"x": -1.8333906754,
				"y": -1.6308510678,
				"z": 0.0415345403,
				"element": "C" 
			},
			{
				"x": -2.8741183271,
				"y": -0.7025062722,
				"z": 0.7060487079,
				"element": "C" 
			},
			{
				"x": -2.465150268,
				"y": -0.1294116961,
				"z": 2.045155446,
				"element": "C" 
			},
			{
				"x": -2.1773597968,
				"y": -1.1046983781,
				"z": 2.9455283593,
				"element": "O" 
			},
			{
				"x": -2.4028475622,
				"y": 1.0473580496,
				"z": 2.3313677474,
				"element": "O" 
			},
			{
				"x": 2.667993399,
				"y": 0.6416884132,
				"z": 1.6553078852,
				"element": "H" 
			},
			{
				"x": 3.4590452192,
				"y": 1.2946443111,
				"z": 0.1871451494,
				"element": "H" 
			},
			{
				"x": 2.01693754,
				"y": 2.0824348953,
				"z": 0.8807619278,
				"element": "H" 
			},
			{
				"x": -0.1851671135,
				"y": 0.6381206269,
				"z": 0.8954425112,
				"element": "H" 
			},
			{
				"x": 0.5710850453,
				"y": -0.8958841523,
				"z": 1.2476406832,
				"element": "H" 
			},
			{
				"x": -0.9573740827,
				"y": -0.1970815545,
				"z": -1.3256116471,
				"element": "H" 
			},
			{
				"x": -0.0259105089,
				"y": -1.6599696685,
				"z": -1.1333875123,
				"element": "H" 
			},
			{
				"x": -2.3482140896,
				"y": -2.1814729441,
				"z": -0.7541829192,
				"element": "H" 
			},
			{
				"x": -1.5065865799,
				"y": -2.380018077,
				"z": 0.7721939068,
				"element": "H" 
			},
			{
				"x": -3.1213856672,
				"y": 0.1408671764,
				"z": 0.0560986691,
				"element": "H" 
			},
			{
				"x": -3.7945426462,
				"y": -1.2739696493,
				"z": 0.8785559718,
				"element": "H" 
			},
			{
				"x": -1.9441981367,
				"y": -0.6461070566,
				"z": 3.7702394543,
				"element": "H" 
			}
		],
		 "valence_orbital": [ 
			{
				"type": "occ",
				"energy": -0.33883,
				"method": "rhf"
			},
			{
				"type": "occ",
				"energy": -0.33821,
				"method": "rhf"
			},
			{
				"type": "occ",
				"energy": -0.31853,
				"method": "rhf"
			},
			{
				"type": "occ",
				"energy": -0.27574,
				"method": "rhf"
			},
			{
				"type": "occ",
				"energy": -0.24381,
				"method": "rhf"
			},
			{
				"type": "unocc",
				"energy": -0.00981,
				"method": "rhf"
			},
			{
				"type": "unocc",
				"energy": 0.00223,
				"method": "rhf"
			},
			{
				"type": "unocc",
				"energy": 0.0666,
				"method": "rhf"
			},
			{
				"type": "unocc",
				"energy": 0.09261,
				"method": "rhf"
			},
			{
				"type": "unocc",
				"energy": 0.10385,
				"method": "rhf"
			}
		],
		"cosmo_sigma_profile": { 
			"-0.025": 0.0,
			"-0.024": 0.0,
			"-0.023": 0.0,
			"-0.022": 0.0,
			"-0.021": 0.0,
			"-0.02": 0.0,
			"-0.019": 0.0,
			"-0.018": 0.500642466055,
			"-0.017": 0.845089553509,
			"-0.016": 0.788582071013,
			"-0.015": 1.12570593308,
			"-0.014": 0.612020743026,
			"-0.013": 0.573931391059,
			"-0.012": 0.763122438732,
			"-0.011": 0.631965199766,
			"-0.01": 0.696646863939,
			"-0.009": 0.349208193698,
			"-0.008": 0.617340166326,
			"-0.007": 1.55865911337,
			"-0.006": 10.6443766756,
			"-0.005": 13.3726191233,
			"-0.004": 15.5996134011,
			"-0.003": 25.7766507051,
			"-0.002": 26.417039747,
			"-0.001": 21.7625578455,
			"0.0": 12.5399435777,
			"0.001": 5.75078325411,
			"0.002": 5.43330456171,
			"0.003": 5.72330111542,
			"0.004": 3.31230457498,
			"0.005": 3.88831221171,
			"0.006": 4.33608883216,
			"0.007": 3.75087909525,
			"0.008": 4.36668845885,
			"0.009": 3.90113990054,
			"0.01": 4.28422278339,
			"0.011": 5.55544040419,
			"0.012": 9.17684109379,
			"0.013": 3.93359169595,
			"0.014": 0.210661172119,
			"0.015": 0.0,
			"0.016": 0.0,
			"0.017": 0.0,
			"0.018": 0.0,
			"0.019": 0.0,
			"0.02": 0.0,
			"0.021": 0.0,
			"0.022": 0.0,
			"0.023": 0.0,
			"0.024": 0.0,
			"0.025": 0.0
		}
	}
}
