{
	 "smiles": "[O-][N+](=O)C1=C(Cl)N=C(Cl)C=C1", 
	 "Tm": 337.15, 
	 "num_atms": 13, 
	 "gaussian": { 
		 "optdone": 1, 
		 "sigma_profile": "yes", 
		 "theory": "DFT", 
		 "functional": "B3LYP", 
		 "basiset": "6-31G**", 
		 "properties": { 
			 "R2extent": 3862.147, 
			 "electric_dipole_moment_norm": 3.35922379874, 
			 "electric_quadrupole_moment_norm": 10.5675178661, 
			 "total_energy": -1371.94965752, 
			 "HOMO_LUMO_gap": 0.17793, 
			 "cosmo_polarized_energy": -9.65, 
			 "cosmo_cavitation_energy": 22.49, 
			 "cosmo_dispersion_energy": -17.03, 
			 "cosmo_repulsion_energy": 1.38, 
			 "cosmo_total_nonelectrostatic_energy": 6.84, 
			 "SMD_solvation_energy": 4.34 
		},
		"coords": [
			{
				"x": 1.8472243812,
				"y": -0.5840600159,
				"z": 2.2391573766,
				"element": "O" 
			},
			{
				"x": 2.5636198176,
				"y": -0.1306313616,
				"z": 1.346076906,
				"element": "N" 
			},
			{
				"x": 3.7877987745,
				"y": -0.1012302845,
				"z": 1.362802712,
				"element": "O" 
			},
			{
				"x": 1.867515728,
				"y": 0.4520158472,
				"z": 0.1874609135,
				"element": "C" 
			},
			{
				"x": 2.3957493955,
				"y": 0.5132798596,
				"z": -1.1138410815,
				"element": "C" 
			},
			{
				"x": 3.9199158988,
				"y": -0.1912646917,
				"z": -1.5584026788,
				"element": "Cl" 
			},
			{
				"x": 1.7225086679,
				"y": 1.0767966129,
				"z": -2.1082249437,
				"element": "N" 
			},
			{
				"x": 0.5317707652,
				"y": 1.5980879475,
				"z": -1.8699052278,
				"element": "C" 
			},
			{
				"x": -0.2799820352,
				"y": 2.3511173811,
				"z": -3.2211322038,
				"element": "Cl" 
			},
			{
				"x": -0.1010506834,
				"y": 1.5741295701,
				"z": -0.6231536392,
				"element": "C" 
			},
			{
				"x": 0.5933774526,
				"y": 0.976059011,
				"z": 0.4165203576,
				"element": "C" 
			},
			{
				"x": -1.0854962453,
				"y": 2.0022507805,
				"z": -0.4837330596,
				"element": "H" 
			},
			{
				"x": 0.1750480827,
				"y": 0.9027493436,
				"z": 1.4132745687,
				"element": "H" 
			}
		],
		 "valence_orbital": [ 
			{
				"type": "occ",
				"energy": -0.32835,
				"method": "rhf"
			},
			{
				"type": "occ",
				"energy": -0.32396,
				"method": "rhf"
			},
			{
				"type": "occ",
				"energy": -0.31402,
				"method": "rhf"
			},
			{
				"type": "occ",
				"energy": -0.3042,
				"method": "rhf"
			},
			{
				"type": "occ",
				"energy": -0.28814,
				"method": "rhf"
			},
			{
				"type": "unocc",
				"energy": -0.11021,
				"method": "rhf"
			},
			{
				"type": "unocc",
				"energy": -0.07228,
				"method": "rhf"
			},
			{
				"type": "unocc",
				"energy": -0.04018,
				"method": "rhf"
			},
			{
				"type": "unocc",
				"energy": -0.00258,
				"method": "rhf"
			},
			{
				"type": "unocc",
				"energy": 0.02065,
				"method": "rhf"
			}
		],
		"cosmo_sigma_profile": { 
			"-0.025": 0.0,
			"-0.024": 0.0,
			"-0.023": 0.0,
			"-0.022": 0.0,
			"-0.021": 0.0,
			"-0.02": 0.0,
			"-0.019": 0.0,
			"-0.018": 0.0,
			"-0.017": 0.0,
			"-0.016": 0.0,
			"-0.015": 0.0,
			"-0.014": 0.0,
			"-0.013": 0.0,
			"-0.012": 0.0,
			"-0.011": 0.30017933882,
			"-0.01": 3.83171732325,
			"-0.009": 5.64958538692,
			"-0.008": 4.69103650644,
			"-0.007": 5.43638375819,
			"-0.006": 6.15674607934,
			"-0.005": 9.88130503069,
			"-0.004": 11.8796886538,
			"-0.003": 15.0489640169,
			"-0.002": 14.1877866778,
			"-0.001": 10.8473238301,
			"0.0": 9.31435614584,
			"0.001": 11.3365678685,
			"0.002": 15.8376338092,
			"0.003": 16.6639798129,
			"0.004": 8.04202576524,
			"0.005": 6.91799253288,
			"0.006": 8.13158207584,
			"0.007": 12.2538704468,
			"0.008": 5.47655505975,
			"0.009": 3.38455686727,
			"0.01": 0.976237214197,
			"0.011": 0.558995047447,
			"0.012": 0.0179311348955,
			"0.013": 0.0,
			"0.014": 0.0,
			"0.015": 0.0,
			"0.016": 0.0,
			"0.017": 0.0,
			"0.018": 0.0,
			"0.019": 0.0,
			"0.02": 0.0,
			"0.021": 0.0,
			"0.022": 0.0,
			"0.023": 0.0,
			"0.024": 0.0,
			"0.025": 0.0
		}
	}
}
