{
	 "smiles": "OC(=O)C1=CC(Cl)=C(Cl)C(Cl)=C1Cl", 
	 "Tm": 467.15, 
	 "num_atms": 15, 
	 "gaussian": { 
		 "optdone": 1, 
		 "sigma_profile": "yes", 
		 "theory": "DFT", 
		 "functional": "B3LYP", 
		 "basiset": "6-31G**", 
		 "properties": { 
			 "R2extent": 4560.7864, 
			 "electric_dipole_moment_norm": 1.35658678676, 
			 "electric_quadrupole_moment_norm": 9.54892462008, 
			 "total_energy": -2259.15862068, 
			 "HOMO_LUMO_gap": 0.18492, 
			 "cosmo_polarized_energy": -8.1, 
			 "cosmo_cavitation_energy": 27.1, 
			 "cosmo_dispersion_energy": -20.68, 
			 "cosmo_repulsion_energy": 1.63, 
			 "cosmo_total_nonelectrostatic_energy": 8.05, 
			 "SMD_solvation_energy": 5.0 
		},
		"coords": [
			{
				"x": -2.7002261106,
				"y": 0.0247671644,
				"z": 3.6335052549,
				"element": "O" 
			},
			{
				"x": -2.318803639,
				"y": 0.7654230941,
				"z": 2.5796355431,
				"element": "C" 
			},
			{
				"x": -2.8782769657,
				"y": 1.8005367192,
				"z": 2.2767738299,
				"element": "O" 
			},
			{
				"x": -1.1215265291,
				"y": 0.2514373932,
				"z": 1.8294777469,
				"element": "C" 
			},
			{
				"x": -0.529258624,
				"y": 1.2118559855,
				"z": 1.0019811482,
				"element": "C" 
			},
			{
				"x": 0.5975098917,
				"y": 0.9292665722,
				"z": 0.2460303739,
				"element": "C" 
			},
			{
				"x": 1.2773806326,
				"y": 2.1898978867,
				"z": -0.7447526985,
				"element": "Cl" 
			},
			{
				"x": 1.1670093457,
				"y": -0.3525138776,
				"z": 0.2897608583,
				"element": "C" 
			},
			{
				"x": 2.5766972891,
				"y": -0.7134724297,
				"z": -0.6487215443,
				"element": "Cl" 
			},
			{
				"x": 0.5741388365,
				"y": -1.3388451145,
				"z": 1.1006438726,
				"element": "C" 
			},
			{
				"x": 1.265481155,
				"y": -2.9316220444,
				"z": 1.1382567661,
				"element": "Cl" 
			},
			{
				"x": -0.5688305206,
				"y": -1.0441380381,
				"z": 1.872110225,
				"element": "C" 
			},
			{
				"x": -1.274125666,
				"y": -2.322232203,
				"z": 2.8159120024,
				"element": "Cl" 
			},
			{
				"x": -3.4639360908,
				"y": 0.4884877588,
				"z": 4.0178711486,
				"element": "H" 
			},
			{
				"x": -0.9787330049,
				"y": 2.1962511331,
				"z": 0.9649154729,
				"element": "H" 
			}
		],
		 "valence_orbital": [ 
			{
				"type": "occ",
				"energy": -0.32745,
				"method": "rhf"
			},
			{
				"type": "occ",
				"energy": -0.31164,
				"method": "rhf"
			},
			{
				"type": "occ",
				"energy": -0.29969,
				"method": "rhf"
			},
			{
				"type": "occ",
				"energy": -0.27533,
				"method": "rhf"
			},
			{
				"type": "occ",
				"energy": -0.26537,
				"method": "rhf"
			},
			{
				"type": "unocc",
				"energy": -0.08045,
				"method": "rhf"
			},
			{
				"type": "unocc",
				"energy": -0.05061,
				"method": "rhf"
			},
			{
				"type": "unocc",
				"energy": -0.03845,
				"method": "rhf"
			},
			{
				"type": "unocc",
				"energy": 0.01454,
				"method": "rhf"
			},
			{
				"type": "unocc",
				"energy": 0.01922,
				"method": "rhf"
			}
		],
		"cosmo_sigma_profile": { 
			"-0.025": 0.0,
			"-0.024": 0.0,
			"-0.023": 0.0,
			"-0.022": 0.0,
			"-0.021": 0.0,
			"-0.02": 0.00174580968971,
			"-0.019": 0.582880610392,
			"-0.018": 0.973491240466,
			"-0.017": 1.18786124619,
			"-0.016": 0.369508892652,
			"-0.015": 0.67252425256,
			"-0.014": 0.833478797335,
			"-0.013": 1.19514931963,
			"-0.012": 0.422196792932,
			"-0.011": 0.498276393117,
			"-0.01": 0.342569497388,
			"-0.009": 0.849893776986,
			"-0.008": 1.35263131291,
			"-0.007": 2.28651646186,
			"-0.006": 2.89611768524,
			"-0.005": 4.97956000984,
			"-0.004": 10.9076159888,
			"-0.003": 24.164974427,
			"-0.002": 27.9133826666,
			"-0.001": 21.4650611759,
			"0.0": 14.9440343504,
			"0.001": 18.3296993308,
			"0.002": 25.5942508374,
			"0.003": 32.5043798835,
			"0.004": 10.9041679991,
			"0.005": 3.22266088203,
			"0.006": 3.47419758236,
			"0.007": 3.21738124313,
			"0.008": 2.37803877541,
			"0.009": 1.68518658101,
			"0.01": 3.45534208539,
			"0.011": 3.48054787888,
			"0.012": 0.160235976905,
			"0.013": 0.0,
			"0.014": 0.0,
			"0.015": 0.0,
			"0.016": 0.0,
			"0.017": 0.0,
			"0.018": 0.0,
			"0.019": 0.0,
			"0.02": 0.0,
			"0.021": 0.0,
			"0.022": 0.0,
			"0.023": 0.0,
			"0.024": 0.0,
			"0.025": 0.0
		}
	}
}
