{
	 "smiles": "FC1=CC2=C(C=C1)C(=O)C(=O)N2", 
	 "Tm": 458.15, 
	 "num_atms": 16, 
	 "gaussian": { 
		 "optdone": 1, 
		 "sigma_profile": "yes", 
		 "theory": "DFT", 
		 "functional": "B3LYP", 
		 "basiset": "6-31G**", 
		 "properties": { 
			 "R2extent": 2907.0759, 
			 "electric_dipole_moment_norm": 4.63006457406, 
			 "electric_quadrupole_moment_norm": 13.9302130257, 
			 "total_energy": -612.294555557, 
			 "HOMO_LUMO_gap": 0.14774, 
			 "cosmo_polarized_energy": -15.01, 
			 "cosmo_cavitation_energy": 22.19, 
			 "cosmo_dispersion_energy": -16.28, 
			 "cosmo_repulsion_energy": 1.26, 
			 "cosmo_total_nonelectrostatic_energy": 7.18, 
			 "SMD_solvation_energy": 5.7 
		},
		"coords": [
			{
				"x": 3.0015410171,
				"y": 2.905653951,
				"z": 2.4582715933,
				"element": "F" 
			},
			{
				"x": 2.4524151014,
				"y": 2.0724396279,
				"z": 1.5599013727,
				"element": "C" 
			},
			{
				"x": 2.6288194741,
				"y": 0.7000471624,
				"z": 1.7569623893,
				"element": "C" 
			},
			{
				"x": 2.049051586,
				"y": -0.1342281831,
				"z": 0.8110336056,
				"element": "C" 
			},
			{
				"x": 1.3248380181,
				"y": 0.386569932,
				"z": -0.2835144218,
				"element": "C" 
			},
			{
				"x": 1.1718227225,
				"y": 1.7619548943,
				"z": -0.4440417916,
				"element": "C" 
			},
			{
				"x": 1.7435188584,
				"y": 2.6241491641,
				"z": 0.4909742753,
				"element": "C" 
			},
			{
				"x": 0.8471361249,
				"y": -0.7455650268,
				"z": -1.088157467,
				"element": "C" 
			},
			{
				"x": 0.1908824312,
				"y": -0.7707301574,
				"z": -2.1064240042,
				"element": "O" 
			},
			{
				"x": 1.3737315063,
				"y": -2.0226009638,
				"z": -0.3406173629,
				"element": "C" 
			},
			{
				"x": 1.2197877376,
				"y": -3.1823813947,
				"z": -0.6440283672,
				"element": "O" 
			},
			{
				"x": 2.0664392487,
				"y": -1.5318736689,
				"z": 0.7604233085,
				"element": "N" 
			},
			{
				"x": 3.1914710391,
				"y": 0.3382484945,
				"z": 2.6097477288,
				"element": "H" 
			},
			{
				"x": 0.6120028835,
				"y": 2.1458554471,
				"z": -1.2911677843,
				"element": "H" 
			},
			{
				"x": 1.6554870532,
				"y": 3.7013860109,
				"z": 0.4144689522,
				"element": "H" 
			},
			{
				"x": 2.5210551979,
				"y": -2.1328252896,
				"z": 1.4323679733,
				"element": "H" 
			}
		],
		 "valence_orbital": [ 
			{
				"type": "occ",
				"energy": -0.33262,
				"method": "rhf"
			},
			{
				"type": "occ",
				"energy": -0.3146,
				"method": "rhf"
			},
			{
				"type": "occ",
				"energy": -0.27975,
				"method": "rhf"
			},
			{
				"type": "occ",
				"energy": -0.25143,
				"method": "rhf"
			},
			{
				"type": "occ",
				"energy": -0.24775,
				"method": "rhf"
			},
			{
				"type": "unocc",
				"energy": -0.10001,
				"method": "rhf"
			},
			{
				"type": "unocc",
				"energy": -0.03264,
				"method": "rhf"
			},
			{
				"type": "unocc",
				"energy": 0.00555,
				"method": "rhf"
			},
			{
				"type": "unocc",
				"energy": 0.06952,
				"method": "rhf"
			},
			{
				"type": "unocc",
				"energy": 0.07603,
				"method": "rhf"
			}
		],
		"cosmo_sigma_profile": { 
			"-0.025": 0.0,
			"-0.024": 0.0,
			"-0.023": 0.0,
			"-0.022": 0.0,
			"-0.021": 0.0,
			"-0.02": 0.0,
			"-0.019": 0.0,
			"-0.018": 0.0,
			"-0.017": 0.546501455103,
			"-0.016": 1.84975899085,
			"-0.015": 1.63437351155,
			"-0.014": 0.969528515394,
			"-0.013": 1.08942695528,
			"-0.012": 1.47138704,
			"-0.011": 1.01821405615,
			"-0.01": 1.62654965435,
			"-0.009": 2.5327041859,
			"-0.008": 6.32110365391,
			"-0.007": 6.36198458283,
			"-0.006": 8.2049929405,
			"-0.005": 6.96124851578,
			"-0.004": 7.34553433482,
			"-0.003": 8.91143860269,
			"-0.002": 10.5170512878,
			"-0.001": 17.5853400052,
			"0.0": 18.0339462952,
			"0.001": 13.4042879208,
			"0.002": 9.33741450443,
			"0.003": 11.2126065659,
			"0.004": 5.72460076442,
			"0.005": 2.13784864529,
			"0.006": 2.53888980491,
			"0.007": 3.37188988573,
			"0.008": 3.59349282052,
			"0.009": 4.48477743211,
			"0.01": 8.51991658957,
			"0.011": 9.01726426672,
			"0.012": 3.18718601191,
			"0.013": 0.128231196361,
			"0.014": 0.0,
			"0.015": 0.0,
			"0.016": 0.0,
			"0.017": 0.0,
			"0.018": 0.0,
			"0.019": 0.0,
			"0.02": 0.0,
			"0.021": 0.0,
			"0.022": 0.0,
			"0.023": 0.0,
			"0.024": 0.0,
			"0.025": 0.0
		}
	}
}
