{
	 "smiles": "CC1=CC=C(O1)C1=NC(C)=C(S1)C(O)=O", 
	 "Tm": 489.15, 
	 "num_atms": 24, 
	 "gaussian": { 
		 "optdone": 1, 
		 "sigma_profile": "yes", 
		 "theory": "DFT", 
		 "functional": "B3LYP", 
		 "basiset": "6-31G**", 
		 "properties": { 
			 "R2extent": 4788.5279, 
			 "electric_dipole_moment_norm": 2.54286515175, 
			 "electric_quadrupole_moment_norm": 21.6112061931, 
			 "total_energy": -1065.10535094, 
			 "HOMO_LUMO_gap": 0.14079, 
			 "cosmo_polarized_energy": -11.7, 
			 "cosmo_cavitation_energy": 31.05, 
			 "cosmo_dispersion_energy": -23.09, 
			 "cosmo_repulsion_energy": 1.79, 
			 "cosmo_total_nonelectrostatic_energy": 9.75, 
			 "SMD_solvation_energy": 5.43 
		},
		"coords": [
			{
				"x": 3.8307389952,
				"y": 2.3737126597,
				"z": -0.0742151358,
				"element": "C" 
			},
			{
				"x": 2.8142505071,
				"y": 1.405296006,
				"z": -0.5636723242,
				"element": "C" 
			},
			{
				"x": 2.7159124711,
				"y": 0.622735707,
				"z": -1.6836293154,
				"element": "C" 
			},
			{
				"x": 1.4916772462,
				"y": -0.0984472201,
				"z": -1.5799779168,
				"element": "C" 
			},
			{
				"x": 0.916225627,
				"y": 0.2911464951,
				"z": -0.3969242625,
				"element": "C" 
			},
			{
				"x": 1.7197221806,
				"y": 1.2101069103,
				"z": 0.2289847208,
				"element": "O" 
			},
			{
				"x": -0.3104577843,
				"y": -0.0795251283,
				"z": 0.254383813,
				"element": "C" 
			},
			{
				"x": -1.1569414978,
				"y": -0.9529375394,
				"z": -0.2577117646,
				"element": "N" 
			},
			{
				"x": -2.2430117877,
				"y": -1.1316025998,
				"z": 0.5512696087,
				"element": "C" 
			},
			{
				"x": -3.3074713327,
				"y": -2.0973993746,
				"z": 0.1134624123,
				"element": "C" 
			},
			{
				"x": -2.2317407857,
				"y": -0.3762551893,
				"z": 1.7155923095,
				"element": "C" 
			},
			{
				"x": -0.786884991,
				"y": 0.6016461728,
				"z": 1.7915855455,
				"element": "S" 
			},
			{
				"x": -3.1835101411,
				"y": -0.2796722944,
				"z": 2.8180957378,
				"element": "C" 
			},
			{
				"x": -4.2714053453,
				"y": -1.0804073835,
				"z": 2.659686866,
				"element": "O" 
			},
			{
				"x": -3.0435032534,
				"y": 0.4369175158,
				"z": 3.7935063682,
				"element": "O" 
			},
			{
				"x": 4.2406322292,
				"y": 2.0653939961,
				"z": 0.894270329,
				"element": "H" 
			},
			{
				"x": 3.3991986886,
				"y": 3.3727723286,
				"z": 0.0549611989,
				"element": "H" 
			},
			{
				"x": 4.6525947969,
				"y": 2.4431725561,
				"z": -0.7899629937,
				"element": "H" 
			},
			{
				"x": 3.4379960707,
				"y": 0.5720776349,
				"z": -2.485956855,
				"element": "H" 
			},
			{
				"x": 1.0741041042,
				"y": -0.8125438485,
				"z": -2.2735468759,
				"element": "H" 
			},
			{
				"x": -3.4407646341,
				"y": -2.8992292953,
				"z": 0.8451275913,
				"element": "H" 
			},
			{
				"x": -4.2763139886,
				"y": -1.6004257616,
				"z": 0.011597883,
				"element": "H" 
			},
			{
				"x": -3.0197281795,
				"y": -2.5284167646,
				"z": -0.8464809284,
				"element": "H" 
			},
			{
				"x": -4.8182191957,
				"y": -0.925515583,
				"z": 3.4477539883,
				"element": "H" 
			}
		],
		 "valence_orbital": [ 
			{
				"type": "occ",
				"energy": -0.29346,
				"method": "rhf"
			},
			{
				"type": "occ",
				"energy": -0.28199,
				"method": "rhf"
			},
			{
				"type": "occ",
				"energy": -0.2695,
				"method": "rhf"
			},
			{
				"type": "occ",
				"energy": -0.26458,
				"method": "rhf"
			},
			{
				"type": "occ",
				"energy": -0.21092,
				"method": "rhf"
			},
			{
				"type": "unocc",
				"energy": -0.07013,
				"method": "rhf"
			},
			{
				"type": "unocc",
				"energy": -0.00628,
				"method": "rhf"
			},
			{
				"type": "unocc",
				"energy": 0.02204,
				"method": "rhf"
			},
			{
				"type": "unocc",
				"energy": 0.03813,
				"method": "rhf"
			},
			{
				"type": "unocc",
				"energy": 0.07531,
				"method": "rhf"
			}
		],
		"cosmo_sigma_profile": { 
			"-0.025": 0.0,
			"-0.024": 0.0,
			"-0.023": 0.0,
			"-0.022": 0.0,
			"-0.021": 0.0,
			"-0.02": 0.0,
			"-0.019": 0.0,
			"-0.018": 0.833113850482,
			"-0.017": 0.759227313419,
			"-0.016": 1.11542222103,
			"-0.015": 0.75014148442,
			"-0.014": 0.866219684874,
			"-0.013": 0.244060569421,
			"-0.012": 0.312163519007,
			"-0.011": 1.18196984558,
			"-0.01": 0.8971802516,
			"-0.009": 0.394861863952,
			"-0.008": 2.00793403198,
			"-0.007": 3.95444313772,
			"-0.006": 8.66658554069,
			"-0.005": 13.612642285,
			"-0.004": 14.6307303317,
			"-0.003": 15.6518245169,
			"-0.002": 21.7122816353,
			"-0.001": 28.2706851078,
			"0.0": 26.3682705999,
			"0.001": 23.8115974408,
			"0.002": 23.5309254977,
			"0.003": 16.5551872434,
			"0.004": 10.6417716782,
			"0.005": 7.62083164681,
			"0.006": 4.79980215255,
			"0.007": 2.57674464663,
			"0.008": 2.15537335616,
			"0.009": 3.14898023013,
			"0.01": 2.85319644549,
			"0.011": 4.29387450755,
			"0.012": 5.7547450149,
			"0.013": 0.376578131965,
			"0.014": 0.0,
			"0.015": 0.0,
			"0.016": 0.0,
			"0.017": 0.0,
			"0.018": 0.0,
			"0.019": 0.0,
			"0.02": 0.0,
			"0.021": 0.0,
			"0.022": 0.0,
			"0.023": 0.0,
			"0.024": 0.0,
			"0.025": 0.0
		}
	}
}
