{
	 "smiles": "CN(C)S(=O)(=O)C1=C(C)OC(=C1)C(O)=O", 
	 "Tm": 425.15, 
	 "num_atms": 26, 
	 "gaussian": { 
		 "optdone": 1, 
		 "sigma_profile": "yes", 
		 "theory": "DFT", 
		 "functional": "B3LYP", 
		 "basiset": "6-31G**", 
		 "properties": { 
			 "R2extent": 3952.4496, 
			 "electric_dipole_moment_norm": 3.47978440999, 
			 "electric_quadrupole_moment_norm": 31.8882525761, 
			 "total_energy": -1140.44763253, 
			 "HOMO_LUMO_gap": 0.19658, 
			 "cosmo_polarized_energy": -23.58, 
			 "cosmo_cavitation_energy": 31.6, 
			 "cosmo_dispersion_energy": -22.55, 
			 "cosmo_repulsion_energy": 1.73, 
			 "cosmo_total_nonelectrostatic_energy": 10.78, 
			 "SMD_solvation_energy": 5.9 
		},
		"coords": [
			{
				"x": 0.5381818617,
				"y": -2.2435224598,
				"z": -1.5533620741,
				"element": "C" 
			},
			{
				"x": -0.8594458185,
				"y": -1.9551687568,
				"z": -1.2241508291,
				"element": "N" 
			},
			{
				"x": -1.4324007149,
				"y": -2.7913889079,
				"z": -0.1658198724,
				"element": "C" 
			},
			{
				"x": -1.3026589318,
				"y": -0.3299021638,
				"z": -1.2173083028,
				"element": "S" 
			},
			{
				"x": -2.7383230444,
				"y": -0.2940237475,
				"z": -0.9409087137,
				"element": "O" 
			},
			{
				"x": -0.7205320999,
				"y": 0.2632803451,
				"z": -2.4223006463,
				"element": "O" 
			},
			{
				"x": -0.5133083841,
				"y": 0.4231501225,
				"z": 0.1861792306,
				"element": "C" 
			},
			{
				"x": 0.7087794172,
				"y": 1.0597557988,
				"z": 0.246853243,
				"element": "C" 
			},
			{
				"x": 1.7495409791,
				"y": 1.414023588,
				"z": -0.7537462387,
				"element": "C" 
			},
			{
				"x": 0.9330804084,
				"y": 1.453756297,
				"z": 1.5222722158,
				"element": "O" 
			},
			{
				"x": -0.1427952021,
				"y": 1.0849466956,
				"z": 2.2866087651,
				"element": "C" 
			},
			{
				"x": -1.0615730529,
				"y": 0.4409092195,
				"z": 1.5058972049,
				"element": "C" 
			},
			{
				"x": -0.0630021882,
				"y": 1.4062571732,
				"z": 3.7268055037,
				"element": "C" 
			},
			{
				"x": -1.2278697735,
				"y": 1.2645029005,
				"z": 4.4135855633,
				"element": "O" 
			},
			{
				"x": 0.9516760457,
				"y": 1.7490426387,
				"z": 4.2802112265,
				"element": "O" 
			},
			{
				"x": 1.2195496194,
				"y": -2.0618787392,
				"z": -0.707519102,
				"element": "H" 
			},
			{
				"x": 0.6083029492,
				"y": -3.2984068849,
				"z": -1.8324783039,
				"element": "H" 
			},
			{
				"x": 0.8421720584,
				"y": -1.6397497803,
				"z": -2.4078016038,
				"element": "H" 
			},
			{
				"x": -1.3489945644,
				"y": -3.8356435378,
				"z": -0.4795618212,
				"element": "H" 
			},
			{
				"x": -0.9108839416,
				"y": -2.6748658205,
				"z": 0.7967586513,
				"element": "H" 
			},
			{
				"x": -2.4878716758,
				"y": -2.5498319056,
				"z": -0.0452849171,
				"element": "H" 
			},
			{
				"x": 2.6827683324,
				"y": 0.876019345,
				"z": -0.5535740938,
				"element": "H" 
			},
			{
				"x": 1.3960160135,
				"y": 1.1736354519,
				"z": -1.7558610081,
				"element": "H" 
			},
			{
				"x": 1.969973183,
				"y": 2.4848805055,
				"z": -0.6985630169,
				"element": "H" 
			},
			{
				"x": -2.0167467392,
				"y": 0.0261785599,
				"z": 1.7945788772,
				"element": "H" 
			},
			{
				"x": -1.9736347368,
				"y": 1.1455440631,
				"z": 3.8084900624,
				"element": "H" 
			}
		],
		 "valence_orbital": [ 
			{
				"type": "occ",
				"energy": -0.31458,
				"method": "rhf"
			},
			{
				"type": "occ",
				"energy": -0.31312,
				"method": "rhf"
			},
			{
				"type": "occ",
				"energy": -0.28819,
				"method": "rhf"
			},
			{
				"type": "occ",
				"energy": -0.27859,
				"method": "rhf"
			},
			{
				"type": "occ",
				"energy": -0.25939,
				"method": "rhf"
			},
			{
				"type": "unocc",
				"energy": -0.06281,
				"method": "rhf"
			},
			{
				"type": "unocc",
				"energy": -0.01717,
				"method": "rhf"
			},
			{
				"type": "unocc",
				"energy": 0.04269,
				"method": "rhf"
			},
			{
				"type": "unocc",
				"energy": 0.05531,
				"method": "rhf"
			},
			{
				"type": "unocc",
				"energy": 0.06837,
				"method": "rhf"
			}
		],
		"cosmo_sigma_profile": { 
			"-0.025": 0.0,
			"-0.024": 0.0,
			"-0.023": 0.0,
			"-0.022": 0.0,
			"-0.021": 0.0,
			"-0.02": 0.210500060435,
			"-0.019": 0.72254508137,
			"-0.018": 1.67522886803,
			"-0.017": 1.23394759154,
			"-0.016": 0.907751124714,
			"-0.015": 0.942574387642,
			"-0.014": 1.11804097038,
			"-0.013": 1.13811347327,
			"-0.012": 1.42236472737,
			"-0.011": 1.24649229372,
			"-0.01": 1.45421682213,
			"-0.009": 1.36397106929,
			"-0.008": 1.47286161938,
			"-0.007": 4.88634448861,
			"-0.006": 12.224632284,
			"-0.005": 20.2805442935,
			"-0.004": 27.1943028507,
			"-0.003": 31.6705705446,
			"-0.002": 25.3772224528,
			"-0.001": 11.8376662879,
			"0.0": 7.61368859127,
			"0.001": 7.4181869597,
			"0.002": 5.50112627382,
			"0.003": 6.07152454668,
			"0.004": 6.4089640486,
			"0.005": 7.35536861853,
			"0.006": 6.60777318668,
			"0.007": 7.54790542607,
			"0.008": 7.62565695677,
			"0.009": 8.82595133656,
			"0.01": 12.2492315884,
			"0.011": 13.3528583717,
			"0.012": 5.43021494775,
			"0.013": 0.541240782057,
			"0.014": 0.0,
			"0.015": 0.0,
			"0.016": 0.0,
			"0.017": 0.0,
			"0.018": 0.0,
			"0.019": 0.0,
			"0.02": 0.0,
			"0.021": 0.0,
			"0.022": 0.0,
			"0.023": 0.0,
			"0.024": 0.0,
			"0.025": 0.0
		}
	}
}
