{
	 "smiles": "CCC(=O)C1=CC=C(N)C=C1", 
	 "Tm": 413.15, 
	 "num_atms": 22, 
	 "gaussian": { 
		 "optdone": 1, 
		 "sigma_profile": "yes", 
		 "theory": "DFT", 
		 "functional": "B3LYP", 
		 "basiset": "6-31G**", 
		 "properties": { 
			 "R2extent": 2182.4361, 
			 "electric_dipole_moment_norm": 4.7506132541, 
			 "electric_quadrupole_moment_norm": 13.6344460507, 
			 "total_energy": -479.575247777, 
			 "HOMO_LUMO_gap": 0.17409, 
			 "cosmo_polarized_energy": -13.67, 
			 "cosmo_cavitation_energy": 25.46, 
			 "cosmo_dispersion_energy": -18.58, 
			 "cosmo_repulsion_energy": 1.5, 
			 "cosmo_total_nonelectrostatic_energy": 8.38, 
			 "SMD_solvation_energy": 4.92 
		},
		"coords": [
			{
				"x": 1.9545611225,
				"y": -2.529495779,
				"z": -0.8542406789,
				"element": "C" 
			},
			{
				"x": 2.4240411298,
				"y": -1.0863335419,
				"z": -1.1181967001,
				"element": "C" 
			},
			{
				"x": 1.2707678741,
				"y": -0.1911226853,
				"z": -1.5666271179,
				"element": "C" 
			},
			{
				"x": 1.075864897,
				"y": -0.0139555321,
				"z": -2.7642853552,
				"element": "O" 
			},
			{
				"x": 0.3715077473,
				"y": 0.4207995399,
				"z": -0.5494357495,
				"element": "C" 
			},
			{
				"x": -0.7186198062,
				"y": 1.1886985917,
				"z": -0.9999054614,
				"element": "C" 
			},
			{
				"x": -1.5950690387,
				"y": 1.7891453825,
				"z": -0.1128883991,
				"element": "C" 
			},
			{
				"x": -1.4156185245,
				"y": 1.6425344755,
				"z": 1.2787178922,
				"element": "C" 
			},
			{
				"x": -2.3172402399,
				"y": 2.2002740473,
				"z": 2.1695547942,
				"element": "N" 
			},
			{
				"x": -0.3286578289,
				"y": 0.874868414,
				"z": 1.7386523774,
				"element": "C" 
			},
			{
				"x": 0.5443725932,
				"y": 0.2783979123,
				"z": 0.8380241376,
				"element": "C" 
			},
			{
				"x": 1.4856999108,
				"y": -2.9477318086,
				"z": -1.7500045349,
				"element": "H" 
			},
			{
				"x": 1.2239312835,
				"y": -2.5746722737,
				"z": -0.0406159364,
				"element": "H" 
			},
			{
				"x": 2.8017271508,
				"y": -3.1678401592,
				"z": -0.5848656526,
				"element": "H" 
			},
			{
				"x": 3.1525118009,
				"y": -1.0796904639,
				"z": -1.9334384541,
				"element": "H" 
			},
			{
				"x": 2.9159934157,
				"y": -0.6812748044,
				"z": -0.2271047809,
				"element": "H" 
			},
			{
				"x": -0.8506308908,
				"y": 1.2995611128,
				"z": -2.0711984238,
				"element": "H" 
			},
			{
				"x": -2.431991921,
				"y": 2.3761591085,
				"z": -0.4836397172,
				"element": "H" 
			},
			{
				"x": -1.9982922948,
				"y": 2.3295447296,
				"z": 3.1184684549,
				"element": "H" 
			},
			{
				"x": -2.8787111501,
				"y": 2.9657233739,
				"z": 1.8263229146,
				"element": "H" 
			},
			{
				"x": -0.1771255292,
				"y": 0.7493239843,
				"z": 2.8078675568,
				"element": "H" 
			},
			{
				"x": 1.3721782986,
				"y": -0.3035136242,
				"z": 1.2303388345,
				"element": "H" 
			}
		],
		 "valence_orbital": [ 
			{
				"type": "occ",
				"energy": -0.33825,
				"method": "rhf"
			},
			{
				"type": "occ",
				"energy": -0.30673,
				"method": "rhf"
			},
			{
				"type": "occ",
				"energy": -0.25476,
				"method": "rhf"
			},
			{
				"type": "occ",
				"energy": -0.23026,
				"method": "rhf"
			},
			{
				"type": "occ",
				"energy": -0.2111,
				"method": "rhf"
			},
			{
				"type": "unocc",
				"energy": -0.03701,
				"method": "rhf"
			},
			{
				"type": "unocc",
				"energy": -0.00321,
				"method": "rhf"
			},
			{
				"type": "unocc",
				"energy": 0.05441,
				"method": "rhf"
			},
			{
				"type": "unocc",
				"energy": 0.07374,
				"method": "rhf"
			},
			{
				"type": "unocc",
				"energy": 0.0946,
				"method": "rhf"
			}
		],
		"cosmo_sigma_profile": { 
			"-0.025": 0.0,
			"-0.024": 0.0,
			"-0.023": 0.0,
			"-0.022": 0.0,
			"-0.021": 0.0,
			"-0.02": 0.0,
			"-0.019": 0.0,
			"-0.018": 0.0,
			"-0.017": 0.0,
			"-0.016": 0.0,
			"-0.015": 0.0,
			"-0.014": 0.244513826426,
			"-0.013": 2.16912417884,
			"-0.012": 2.85399757534,
			"-0.011": 2.76678511989,
			"-0.01": 3.58501718244,
			"-0.009": 2.63487497935,
			"-0.008": 2.86953931585,
			"-0.007": 3.97379546694,
			"-0.006": 7.64857137482,
			"-0.005": 8.08300029399,
			"-0.004": 11.4911461257,
			"-0.003": 16.7170200478,
			"-0.002": 17.2079481481,
			"-0.001": 18.3604344562,
			"0.0": 17.6048630049,
			"0.001": 11.8570802723,
			"0.002": 8.75514513443,
			"0.003": 9.01880566773,
			"0.004": 12.8621502468,
			"0.005": 14.1462904623,
			"0.006": 4.25052175156,
			"0.007": 2.60867111457,
			"0.008": 2.23699198911,
			"0.009": 2.2036283639,
			"0.01": 2.82666028911,
			"0.011": 2.17793344373,
			"0.012": 3.4954189269,
			"0.013": 4.52466732442,
			"0.014": 1.65358772659,
			"0.015": 0.225773723911,
			"0.016": 0.0,
			"0.017": 0.0,
			"0.018": 0.0,
			"0.019": 0.0,
			"0.02": 0.0,
			"0.021": 0.0,
			"0.022": 0.0,
			"0.023": 0.0,
			"0.024": 0.0,
			"0.025": 0.0
		}
	}
}
