{
	 "smiles": "OC(=O)C(F)(F)Cl", 
	 "Tm": 296.65, 
	 "num_atms": 8, 
	 "gaussian": { 
		 "optdone": 1, 
		 "sigma_profile": "yes", 
		 "theory": "DFT", 
		 "functional": "B3LYP", 
		 "basiset": "6-31G**", 
		 "properties": { 
			 "R2extent": 974.1258, 
			 "electric_dipole_moment_norm": 2.84984675553, 
			 "electric_quadrupole_moment_norm": 3.43918400496, 
			 "total_energy": -887.11956321, 
			 "HOMO_LUMO_gap": 0.25357, 
			 "cosmo_polarized_energy": -8.94, 
			 "cosmo_cavitation_energy": 15.65, 
			 "cosmo_dispersion_energy": -11.47, 
			 "cosmo_repulsion_energy": 0.96, 
			 "cosmo_total_nonelectrostatic_energy": 5.14, 
			 "SMD_solvation_energy": 4.7 
		},
		"coords": [
			{
				"x": -0.7378914418,
				"y": -1.0007000374,
				"z": -0.1742992323,
				"element": "O" 
			},
			{
				"x": -0.6452075922,
				"y": 0.2282434947,
				"z": 0.3522909596,
				"element": "C" 
			},
			{
				"x": -0.9964069147,
				"y": 0.516946895,
				"z": 1.4603245474,
				"element": "O" 
			},
			{
				"x": -0.0050496989,
				"y": 1.2794590323,
				"z": -0.5957945558,
				"element": "C" 
			},
			{
				"x": -0.593634731,
				"y": 2.4632377628,
				"z": -0.4377177641,
				"element": "F" 
			},
			{
				"x": -0.1665449954,
				"y": 0.8886205423,
				"z": -1.8929231837,
				"element": "F" 
			},
			{
				"x": 1.7497161892,
				"y": 1.4269531798,
				"z": -0.26892269,
				"element": "Cl" 
			},
			{
				"x": -0.4680808152,
				"y": -0.9879608695,
				"z": -1.1064580812,
				"element": "H" 
			}
		],
		 "valence_orbital": [ 
			{
				"type": "occ",
				"energy": -0.4013,
				"method": "rhf"
			},
			{
				"type": "occ",
				"energy": -0.35905,
				"method": "rhf"
			},
			{
				"type": "occ",
				"energy": -0.35551,
				"method": "rhf"
			},
			{
				"type": "occ",
				"energy": -0.34686,
				"method": "rhf"
			},
			{
				"type": "occ",
				"energy": -0.30849,
				"method": "rhf"
			},
			{
				"type": "unocc",
				"energy": -0.05492,
				"method": "rhf"
			},
			{
				"type": "unocc",
				"energy": 0.01305,
				"method": "rhf"
			},
			{
				"type": "unocc",
				"energy": 0.05396,
				"method": "rhf"
			},
			{
				"type": "unocc",
				"energy": 0.09564,
				"method": "rhf"
			},
			{
				"type": "unocc",
				"energy": 0.15209,
				"method": "rhf"
			}
		],
		"cosmo_sigma_profile": { 
			"-0.025": 0.0,
			"-0.024": 0.0,
			"-0.023": 0.0,
			"-0.022": 0.0,
			"-0.021": 0.0,
			"-0.02": 0.0508086502257,
			"-0.019": 0.809214599308,
			"-0.018": 0.608355531422,
			"-0.017": 0.705818233776,
			"-0.016": 1.1859391229,
			"-0.015": 1.1982488693,
			"-0.014": 0.859602743224,
			"-0.013": 1.0971092938,
			"-0.012": 1.01393122339,
			"-0.011": 1.31033547251,
			"-0.01": 2.23259473305,
			"-0.009": 1.56086746802,
			"-0.008": 1.160975766,
			"-0.007": 1.66940680011,
			"-0.006": 1.75512647606,
			"-0.005": 2.31605909879,
			"-0.004": 5.06779455736,
			"-0.003": 5.04655312494,
			"-0.002": 5.99724082259,
			"-0.001": 9.19447001733,
			"0.0": 13.845888606,
			"0.001": 24.6569598434,
			"0.002": 14.685689581,
			"0.003": 3.44000843393,
			"0.004": 2.41902356573,
			"0.005": 2.41207784068,
			"0.006": 4.16404442863,
			"0.007": 4.27635987223,
			"0.008": 4.12037459358,
			"0.009": 5.18636127596,
			"0.01": 3.58891507242,
			"0.011": 0.376533377321,
			"0.012": 0.0,
			"0.013": 0.0,
			"0.014": 0.0,
			"0.015": 0.0,
			"0.016": 0.0,
			"0.017": 0.0,
			"0.018": 0.0,
			"0.019": 0.0,
			"0.02": 0.0,
			"0.021": 0.0,
			"0.022": 0.0,
			"0.023": 0.0,
			"0.024": 0.0,
			"0.025": 0.0
		}
	}
}
