{
	 "smiles": "CCCCCCCCCCCCCCN", 
	 "Tm": 356.25, 
	 "num_atms": 46, 
	 "gaussian": { 
		 "optdone": 1, 
		 "sigma_profile": "yes", 
		 "theory": "DFT", 
		 "functional": "B3LYP", 
		 "basiset": "6-31G**", 
		 "properties": { 
			 "R2extent": 7975.8023, 
			 "electric_dipole_moment_norm": 1.31083395592, 
			 "electric_quadrupole_moment_norm": 9.87112226548, 
			 "total_energy": -606.963203091, 
			 "HOMO_LUMO_gap": 0.30789, 
			 "cosmo_polarized_energy": -5.05, 
			 "cosmo_cavitation_energy": 44.98, 
			 "cosmo_dispersion_energy": -30.7, 
			 "cosmo_repulsion_energy": 2.56, 
			 "cosmo_total_nonelectrostatic_energy": 16.85, 
			 "SMD_solvation_energy": 5.06 
		},
		"coords": [
			{
				"x": -0.2943277052,
				"y": 2.4217306968,
				"z": -4.7199791826,
				"element": "C" 
			},
			{
				"x": 1.1583427756,
				"y": 2.2692732431,
				"z": -4.2578177729,
				"element": "C" 
			},
			{
				"x": 1.2961218685,
				"y": 1.5193498761,
				"z": -2.926306448,
				"element": "C" 
			},
			{
				"x": 2.7521504362,
				"y": 1.3653360228,
				"z": -2.4647500636,
				"element": "C" 
			},
			{
				"x": 2.9391950653,
				"y": 0.5539394764,
				"z": -1.171939396,
				"element": "C" 
			},
			{
				"x": 2.3647858788,
				"y": 1.2105419677,
				"z": 0.0918727557,
				"element": "C" 
			},
			{
				"x": 2.6390478904,
				"y": 0.3975564077,
				"z": 1.3651161108,
				"element": "C" 
			},
			{
				"x": 2.1652671049,
				"y": 1.0626514432,
				"z": 2.6694237141,
				"element": "C" 
			},
			{
				"x": 0.648264121,
				"y": 1.3037624834,
				"z": 2.7897879306,
				"element": "C" 
			},
			{
				"x": -0.2389785726,
				"y": 0.0484727565,
				"z": 2.7139974853,
				"element": "C" 
			},
			{
				"x": -0.0048444114,
				"y": -0.9639160827,
				"z": 3.8462153727,
				"element": "C" 
			},
			{
				"x": -1.001279574,
				"y": -2.13488727,
				"z": 3.8699447097,
				"element": "C" 
			},
			{
				"x": -0.8793010122,
				"y": -3.1016955834,
				"z": 2.6842827183,
				"element": "C" 
			},
			{
				"x": -1.874906524,
				"y": -4.2667452123,
				"z": 2.7343587209,
				"element": "C" 
			},
			{
				"x": -3.2594221297,
				"y": -3.7829579504,
				"z": 2.6625113577,
				"element": "N" 
			},
			{
				"x": -0.8883683766,
				"y": 2.9759917653,
				"z": -3.9841833028,
				"element": "H" 
			},
			{
				"x": -0.7708774462,
				"y": 1.4443074703,
				"z": -4.8581394175,
				"element": "H" 
			},
			{
				"x": -0.3586521371,
				"y": 2.9597553259,
				"z": -5.6715655936,
				"element": "H" 
			},
			{
				"x": 1.618063799,
				"y": 3.2625211565,
				"z": -4.1620342853,
				"element": "H" 
			},
			{
				"x": 1.7353881366,
				"y": 1.7428777367,
				"z": -5.0304972782,
				"element": "H" 
			},
			{
				"x": 0.8404727905,
				"y": 0.5228707326,
				"z": -3.0236352744,
				"element": "H" 
			},
			{
				"x": 0.712022766,
				"y": 2.0458754535,
				"z": -2.1598390042,
				"element": "H" 
			},
			{
				"x": 3.3250561338,
				"y": 0.8827588132,
				"z": -3.2685152963,
				"element": "H" 
			},
			{
				"x": 3.1979597662,
				"y": 2.3620433677,
				"z": -2.3339608765,
				"element": "H" 
			},
			{
				"x": 4.0129563471,
				"y": 0.3787787975,
				"z": -1.0190106724,
				"element": "H" 
			},
			{
				"x": 2.4876837892,
				"y": -0.4405758792,
				"z": -1.3007492417,
				"element": "H" 
			},
			{
				"x": 1.2843618113,
				"y": 1.3566869696,
				"z": -0.0268016993,
				"element": "H" 
			},
			{
				"x": 2.7974697546,
				"y": 2.2157786384,
				"z": 0.204490651,
				"element": "H" 
			},
			{
				"x": 2.1814727153,
				"y": -0.5961720833,
				"z": 1.264577572,
				"element": "H" 
			},
			{
				"x": 3.720342538,
				"y": 0.2185838037,
				"z": 1.4425268094,
				"element": "H" 
			},
			{
				"x": 2.5035677717,
				"y": 0.4524714672,
				"z": 3.516362833,
				"element": "H" 
			},
			{
				"x": 2.6763872417,
				"y": 2.0293578516,
				"z": 2.776996214,
				"element": "H" 
			},
			{
				"x": 0.4569369058,
				"y": 1.8123993344,
				"z": 3.7447674496,
				"element": "H" 
			},
			{
				"x": 0.3295654942,
				"y": 2.007285679,
				"z": 2.0100752526,
				"element": "H" 
			},
			{
				"x": -1.2903028543,
				"y": 0.3667280924,
				"z": 2.7422339909,
				"element": "H" 
			},
			{
				"x": -0.1021686567,
				"y": -0.4394310369,
				"z": 1.7406137589,
				"element": "H" 
			},
			{
				"x": -0.0659218733,
				"y": -0.4320223473,
				"z": 4.8060500347,
				"element": "H" 
			},
			{
				"x": 1.0176696619,
				"y": -1.3618514922,
				"z": 3.7872530445,
				"element": "H" 
			},
			{
				"x": -2.0280085724,
				"y": -1.7535988427,
				"z": 3.9113506878,
				"element": "H" 
			},
			{
				"x": -0.8528954995,
				"y": -2.7061870595,
				"z": 4.7969475965,
				"element": "H" 
			},
			{
				"x": -1.0206946868,
				"y": -2.5616828936,
				"z": 1.7373258743,
				"element": "H" 
			},
			{
				"x": 0.1381665852,
				"y": -3.5152238152,
				"z": 2.646807659,
				"element": "H" 
			},
			{
				"x": -1.7591834862,
				"y": -4.7982946532,
				"z": 3.6880025115,
				"element": "H" 
			},
			{
				"x": -1.6155119278,
				"y": -4.9902431697,
				"z": 1.9404806037,
				"element": "H" 
			},
			{
				"x": -3.9068781729,
				"y": -4.5596108681,
				"z": 2.7699782374,
				"element": "H" 
			},
			{
				"x": -3.4359955297,
				"y": -3.3917905893,
				"z": 1.7392731486,
				"element": "H" 
			}
		],
		 "valence_orbital": [ 
			{
				"type": "occ",
				"energy": -0.30331,
				"method": "rhf"
			},
			{
				"type": "occ",
				"energy": -0.30061,
				"method": "rhf"
			},
			{
				"type": "occ",
				"energy": -0.2973,
				"method": "rhf"
			},
			{
				"type": "occ",
				"energy": -0.29214,
				"method": "rhf"
			},
			{
				"type": "occ",
				"energy": -0.22801,
				"method": "rhf"
			},
			{
				"type": "unocc",
				"energy": 0.07988,
				"method": "rhf"
			},
			{
				"type": "unocc",
				"energy": 0.08534,
				"method": "rhf"
			},
			{
				"type": "unocc",
				"energy": 0.09519,
				"method": "rhf"
			},
			{
				"type": "unocc",
				"energy": 0.10731,
				"method": "rhf"
			},
			{
				"type": "unocc",
				"energy": 0.10906,
				"method": "rhf"
			}
		],
		"cosmo_sigma_profile": { 
			"-0.025": 0.0,
			"-0.024": 0.0,
			"-0.023": 0.0,
			"-0.022": 0.0,
			"-0.021": 0.0,
			"-0.02": 0.0,
			"-0.019": 0.0,
			"-0.018": 0.0,
			"-0.017": 0.0,
			"-0.016": 0.0,
			"-0.015": 0.0,
			"-0.014": 0.0,
			"-0.013": 0.0,
			"-0.012": 0.0,
			"-0.011": 0.0,
			"-0.01": 0.174718829105,
			"-0.009": 2.21210725214,
			"-0.008": 2.73877610347,
			"-0.007": 2.56247579864,
			"-0.006": 3.20786018411,
			"-0.005": 2.65663022791,
			"-0.004": 2.54064572604,
			"-0.003": 5.39414059322,
			"-0.002": 35.5183697857,
			"-0.001": 79.9002454294,
			"0.0": 86.7686306364,
			"0.001": 70.6147263234,
			"0.002": 32.4024538799,
			"0.003": 2.49721970837,
			"0.004": 1.7430624322,
			"0.005": 1.23052830901,
			"0.006": 1.07438570671,
			"0.007": 1.04695148197,
			"0.008": 1.14677037865,
			"0.009": 0.606021696111,
			"0.01": 0.549447420031,
			"0.011": 0.935149996157,
			"0.012": 1.13601577223,
			"0.013": 0.688060344908,
			"0.014": 0.65315505209,
			"0.015": 0.602813178502,
			"0.016": 0.834878808118,
			"0.017": 0.391344974071,
			"0.018": 0.596930950513,
			"0.019": 0.0639019560402,
			"0.02": 0.0,
			"0.021": 0.0,
			"0.022": 0.0,
			"0.023": 0.0,
			"0.024": 0.0,
			"0.025": 0.0
		}
	}
}
