{
	 "smiles": "CCOC(=O)CC1=CC=C(C=C1)C(C)=O", 
	 "Tm": 329.15, 
	 "num_atms": 29, 
	 "gaussian": { 
		 "optdone": 1, 
		 "sigma_profile": "yes", 
		 "theory": "DFT", 
		 "functional": "B3LYP", 
		 "basiset": "6-31G**", 
		 "properties": { 
			 "R2extent": 5513.6022, 
			 "electric_dipole_moment_norm": 4.48638580708, 
			 "electric_quadrupole_moment_norm": 14.1193855312, 
			 "total_energy": -691.410374057, 
			 "HOMO_LUMO_gap": 0.19076, 
			 "cosmo_polarized_energy": -12.56, 
			 "cosmo_cavitation_energy": 33.4, 
			 "cosmo_dispersion_energy": -23.64, 
			 "cosmo_repulsion_energy": 1.88, 
			 "cosmo_total_nonelectrostatic_energy": 11.65, 
			 "SMD_solvation_energy": 7.34 
		},
		"coords": [
			{
				"x": -4.6908611522,
				"y": -0.5128078008,
				"z": -1.4779227216,
				"element": "C" 
			},
			{
				"x": -3.2419281412,
				"y": -0.9722447696,
				"z": -1.5300539074,
				"element": "C" 
			},
			{
				"x": -2.4469568394,
				"y": -0.3233764745,
				"z": -0.5044709207,
				"element": "O" 
			},
			{
				"x": -1.9330044402,
				"y": 0.8836634067,
				"z": -0.8153383854,
				"element": "C" 
			},
			{
				"x": -2.1013967876,
				"y": 1.4484676781,
				"z": -1.8758423924,
				"element": "O" 
			},
			{
				"x": -1.0876327144,
				"y": 1.4347385412,
				"z": 0.3247517048,
				"element": "C" 
			},
			{
				"x": 0.3982739487,
				"y": 1.2803344224,
				"z": 0.0453961273,
				"element": "C" 
			},
			{
				"x": 1.2095868327,
				"y": 0.5321962163,
				"z": 0.9052689563,
				"element": "C" 
			},
			{
				"x": 2.5759655558,
				"y": 0.399864231,
				"z": 0.6593136688,
				"element": "C" 
			},
			{
				"x": 3.1592845464,
				"y": 1.0119782301,
				"z": -0.4583834909,
				"element": "C" 
			},
			{
				"x": 2.3414086502,
				"y": 1.7573707057,
				"z": -1.3237823179,
				"element": "C" 
			},
			{
				"x": 0.9811351614,
				"y": 1.8907115515,
				"z": -1.0771735089,
				"element": "C" 
			},
			{
				"x": 4.620517024,
				"y": 0.9079462728,
				"z": -0.7751195109,
				"element": "C" 
			},
			{
				"x": 5.5168885086,
				"y": 0.1012621238,
				"z": 0.1504620233,
				"element": "C" 
			},
			{
				"x": 5.0854542269,
				"y": 1.461491074,
				"z": -1.7604596615,
				"element": "O" 
			},
			{
				"x": -5.2839275152,
				"y": -1.0731641012,
				"z": -2.2082707925,
				"element": "H" 
			},
			{
				"x": -5.1188900145,
				"y": -0.6828310995,
				"z": -0.4855810242,
				"element": "H" 
			},
			{
				"x": -4.7658540857,
				"y": 0.5501160996,
				"z": -1.7199211373,
				"element": "H" 
			},
			{
				"x": -2.7951836165,
				"y": -0.7624558891,
				"z": -2.5046102761,
				"element": "H" 
			},
			{
				"x": -3.1498455414,
				"y": -2.0379616458,
				"z": -1.308125068,
				"element": "H" 
			},
			{
				"x": -1.3541314581,
				"y": 0.9314197313,
				"z": 1.256063513,
				"element": "H" 
			},
			{
				"x": -1.3389243964,
				"y": 2.4968294883,
				"z": 0.4170305847,
				"element": "H" 
			},
			{
				"x": 0.770500071,
				"y": 0.0515581822,
				"z": 1.7754005189,
				"element": "H" 
			},
			{
				"x": 3.1810260779,
				"y": -0.184516205,
				"z": 1.3450752299,
				"element": "H" 
			},
			{
				"x": 2.8032841647,
				"y": 2.2249439376,
				"z": -2.1869330945,
				"element": "H" 
			},
			{
				"x": 0.3534447479,
				"y": 2.4578023897,
				"z": -1.7576642196,
				"element": "H" 
			},
			{
				"x": 5.1857014538,
				"y": -0.9414458049,
				"z": 0.2092997864,
				"element": "H" 
			},
			{
				"x": 5.4991539615,
				"y": 0.5072452352,
				"z": 1.1679653611,
				"element": "H" 
			},
			{
				"x": 6.5362117712,
				"y": 0.1358642731,
				"z": -0.2348750448,
				"element": "H" 
			}
		],
		 "valence_orbital": [ 
			{
				"type": "occ",
				"energy": -0.30374,
				"method": "rhf"
			},
			{
				"type": "occ",
				"energy": -0.27891,
				"method": "rhf"
			},
			{
				"type": "occ",
				"energy": -0.25974,
				"method": "rhf"
			},
			{
				"type": "occ",
				"energy": -0.25136,
				"method": "rhf"
			},
			{
				"type": "occ",
				"energy": -0.24579,
				"method": "rhf"
			},
			{
				"type": "unocc",
				"energy": -0.05503,
				"method": "rhf"
			},
			{
				"type": "unocc",
				"energy": -0.01019,
				"method": "rhf"
			},
			{
				"type": "unocc",
				"energy": 0.00516,
				"method": "rhf"
			},
			{
				"type": "unocc",
				"energy": 0.04215,
				"method": "rhf"
			},
			{
				"type": "unocc",
				"energy": 0.09057,
				"method": "rhf"
			}
		],
		"cosmo_sigma_profile": { 
			"-0.025": 0.0,
			"-0.024": 0.0,
			"-0.023": 0.0,
			"-0.022": 0.0,
			"-0.021": 0.0,
			"-0.02": 0.0,
			"-0.019": 0.0,
			"-0.018": 0.0,
			"-0.017": 0.0,
			"-0.016": 0.0,
			"-0.015": 0.0,
			"-0.014": 0.0,
			"-0.013": 0.0,
			"-0.012": 0.0,
			"-0.011": 0.0,
			"-0.01": 0.0,
			"-0.009": 0.0,
			"-0.008": 0.0,
			"-0.007": 4.11521748173,
			"-0.006": 17.1543099433,
			"-0.005": 21.5229414314,
			"-0.004": 27.3790368846,
			"-0.003": 26.2160491005,
			"-0.002": 25.4482704783,
			"-0.001": 22.8623525661,
			"0.0": 22.0459634601,
			"0.001": 14.2760423936,
			"0.002": 14.0260605917,
			"0.003": 16.0716167958,
			"0.004": 14.0332778051,
			"0.005": 4.48098213162,
			"0.006": 4.25095638764,
			"0.007": 4.59442415405,
			"0.008": 3.34224062251,
			"0.009": 3.53951170066,
			"0.01": 4.43911109079,
			"0.011": 5.01600080258,
			"0.012": 7.46339398357,
			"0.013": 1.77432596814,
			"0.014": 0.244591063216,
			"0.015": 0.0,
			"0.016": 0.0,
			"0.017": 0.0,
			"0.018": 0.0,
			"0.019": 0.0,
			"0.02": 0.0,
			"0.021": 0.0,
			"0.022": 0.0,
			"0.023": 0.0,
			"0.024": 0.0,
			"0.025": 0.0
		}
	}
}
