{
	 "smiles": "NC1=NN=C(CC2=CC=CC=C2)N1", 
	 "Tm": 445.15, 
	 "num_atms": 23, 
	 "gaussian": { 
		 "optdone": 1, 
		 "sigma_profile": "yes", 
		 "theory": "DFT", 
		 "functional": "B3LYP", 
		 "basiset": "6-31G**", 
		 "properties": { 
			 "R2extent": 3269.6548, 
			 "electric_dipole_moment_norm": 5.28769066512, 
			 "electric_quadrupole_moment_norm": 24.8570473802, 
			 "total_energy": -567.977180018, 
			 "HOMO_LUMO_gap": 0.20744, 
			 "cosmo_polarized_energy": -22.78, 
			 "cosmo_cavitation_energy": 27.68, 
			 "cosmo_dispersion_energy": -19.91, 
			 "cosmo_repulsion_energy": 1.61, 
			 "cosmo_total_nonelectrostatic_energy": 9.37, 
			 "SMD_solvation_energy": 2.24 
		},
		"coords": [
			{
				"x": 1.8008964157,
				"y": 3.6255268301,
				"z": 2.0939603953,
				"element": "N" 
			},
			{
				"x": 1.2814996691,
				"y": 2.3894616481,
				"z": 2.4658164203,
				"element": "C" 
			},
			{
				"x": 0.6953195529,
				"y": 2.0994658801,
				"z": 3.6026989299,
				"element": "N" 
			},
			{
				"x": 0.4184389029,
				"y": 0.7367368002,
				"z": 3.5832815395,
				"element": "N" 
			},
			{
				"x": 0.8335863947,
				"y": 0.2562955754,
				"z": 2.4391453934,
				"element": "C" 
			},
			{
				"x": 0.727078693,
				"y": -1.1667893553,
				"z": 1.9848898638,
				"element": "C" 
			},
			{
				"x": 0.0105702824,
				"y": -1.3310799223,
				"z": 0.6532941519,
				"element": "C" 
			},
			{
				"x": -1.319615965,
				"y": -0.9102397239,
				"z": 0.5077239409,
				"element": "C" 
			},
			{
				"x": -1.981504578,
				"y": -1.0574278136,
				"z": -0.7099998552,
				"element": "C" 
			},
			{
				"x": -1.3230252565,
				"y": -1.6253129378,
				"z": -1.8047803645,
				"element": "C" 
			},
			{
				"x": -0.0000163757,
				"y": -2.0452939638,
				"z": -1.6711394224,
				"element": "C" 
			},
			{
				"x": 0.6610393274,
				"y": -1.8973768663,
				"z": -0.4485216782,
				"element": "C" 
			},
			{
				"x": 1.397603441,
				"y": 1.2675954246,
				"z": 1.687148642,
				"element": "N" 
			},
			{
				"x": 1.4379419305,
				"y": 3.970803818,
				"z": 1.2109731775,
				"element": "H" 
			},
			{
				"x": 1.6168082881,
				"y": 4.3002164797,
				"z": 2.828584541,
				"element": "H" 
			},
			{
				"x": 0.1960600299,
				"y": -1.698127345,
				"z": 2.7811507188,
				"element": "H" 
			},
			{
				"x": 1.726511625,
				"y": -1.6155787348,
				"z": 1.9177312181,
				"element": "H" 
			},
			{
				"x": -1.8318819091,
				"y": -0.4645290062,
				"z": 1.3567074865,
				"element": "H" 
			},
			{
				"x": -3.0131677777,
				"y": -0.7305530716,
				"z": -0.8056320832,
				"element": "H" 
			},
			{
				"x": -1.8398377056,
				"y": -1.7403532582,
				"z": -2.7531786697,
				"element": "H" 
			},
			{
				"x": 0.5195773855,
				"y": -2.4900786559,
				"z": -2.5152647675,
				"element": "H" 
			},
			{
				"x": 1.690464156,
				"y": -2.2341832806,
				"z": -0.3478380612,
				"element": "H" 
			},
			{
				"x": 1.8306534733,
				"y": 1.1889214789,
				"z": 0.7796484832,
				"element": "H" 
			}
		],
		 "valence_orbital": [ 
			{
				"type": "occ",
				"energy": -0.29076,
				"method": "rhf"
			},
			{
				"type": "occ",
				"energy": -0.25669,
				"method": "rhf"
			},
			{
				"type": "occ",
				"energy": -0.25184,
				"method": "rhf"
			},
			{
				"type": "occ",
				"energy": -0.24298,
				"method": "rhf"
			},
			{
				"type": "occ",
				"energy": -0.21797,
				"method": "rhf"
			},
			{
				"type": "unocc",
				"energy": -0.01053,
				"method": "rhf"
			},
			{
				"type": "unocc",
				"energy": -0.00761,
				"method": "rhf"
			},
			{
				"type": "unocc",
				"energy": 0.03159,
				"method": "rhf"
			},
			{
				"type": "unocc",
				"energy": 0.06151,
				"method": "rhf"
			},
			{
				"type": "unocc",
				"energy": 0.0689,
				"method": "rhf"
			}
		],
		"cosmo_sigma_profile": { 
			"-0.025": 0.0,
			"-0.024": 0.0,
			"-0.023": 0.0,
			"-0.022": 0.0,
			"-0.021": 0.0,
			"-0.02": 0.0,
			"-0.019": 0.0,
			"-0.018": 0.0,
			"-0.017": 0.380216635416,
			"-0.016": 1.37835956813,
			"-0.015": 1.14540779031,
			"-0.014": 1.75082659563,
			"-0.013": 3.99341291107,
			"-0.012": 4.75429003103,
			"-0.011": 3.0758908337,
			"-0.01": 4.31562990764,
			"-0.009": 2.60748739019,
			"-0.008": 2.95780040878,
			"-0.007": 3.05992683442,
			"-0.006": 10.4155548389,
			"-0.005": 16.6110922677,
			"-0.004": 16.072138235,
			"-0.003": 15.7561839398,
			"-0.002": 14.1909798076,
			"-0.001": 10.6930158386,
			"0.0": 11.9294113209,
			"0.001": 11.5993390469,
			"0.002": 10.7364237583,
			"0.003": 10.4391719502,
			"0.004": 10.0909719851,
			"0.005": 10.8988303863,
			"0.006": 9.27568412565,
			"0.007": 2.56941113127,
			"0.008": 1.81521671868,
			"0.009": 2.7253316195,
			"0.01": 2.84590435273,
			"0.011": 2.07918169657,
			"0.012": 2.30289466329,
			"0.013": 3.27958769635,
			"0.014": 3.66188758658,
			"0.015": 4.02309187693,
			"0.016": 2.83731975978,
			"0.017": 2.56068134913,
			"0.018": 1.24803694843,
			"0.019": 0.0125084105959,
			"0.02": 0.0,
			"0.021": 0.0,
			"0.022": 0.0,
			"0.023": 0.0,
			"0.024": 0.0,
			"0.025": 0.0
		}
	}
}
