{
	 "smiles": "ClCC1=CC(Br)=CC2=C1OCOC2", 
	 "Tm": 376.15, 
	 "num_atms": 21, 
	 "gaussian": { 
		 "optdone": 1, 
		 "sigma_profile": "yes", 
		 "theory": "DFT", 
		 "functional": "B3LYP", 
		 "basiset": "6-31G**", 
		 "properties": { 
			 "R2extent": 5426.2575, 
			 "electric_dipole_moment_norm": 2.16857759372, 
			 "electric_quadrupole_moment_norm": 9.76995099937, 
			 "total_energy": -3529.80902244, 
			 "HOMO_LUMO_gap": 0.18933, 
			 "cosmo_polarized_energy": -9.6, 
			 "cosmo_cavitation_energy": 28.58, 
			 "cosmo_dispersion_energy": -21.56, 
			 "cosmo_repulsion_energy": 1.72, 
			 "cosmo_total_nonelectrostatic_energy": 8.74, 
			 "SMD_solvation_energy": 3.62 
		},
		"coords": [
			{
				"x": -1.98231921,
				"y": -1.1598632335,
				"z": -1.735127771,
				"element": "Cl" 
			},
			{
				"x": -0.4749380181,
				"y": -1.9782065292,
				"z": -1.0746913664,
				"element": "C" 
			},
			{
				"x": -0.046884691,
				"y": -1.4023589688,
				"z": 0.2382676106,
				"element": "C" 
			},
			{
				"x": -0.4497976796,
				"y": -1.9828352699,
				"z": 1.4432498591,
				"element": "C" 
			},
			{
				"x": -0.0450557433,
				"y": -1.4311590027,
				"z": 2.6567774296,
				"element": "C" 
			},
			{
				"x": -0.6062097779,
				"y": -2.2405821544,
				"z": 4.2944631481,
				"element": "Br" 
			},
			{
				"x": 0.7716661734,
				"y": -0.3050884401,
				"z": 2.6917496784,
				"element": "C" 
			},
			{
				"x": 1.1890899242,
				"y": 0.2890251348,
				"z": 1.4989934299,
				"element": "C" 
			},
			{
				"x": 0.7669065548,
				"y": -0.2557528112,
				"z": 0.2781368924,
				"element": "C" 
			},
			{
				"x": 1.1453792345,
				"y": 0.2933412128,
				"z": -0.9143211492,
				"element": "O" 
			},
			{
				"x": 1.6886971068,
				"y": 1.6089913432,
				"z": -0.8008539094,
				"element": "C" 
			},
			{
				"x": 2.6680890242,
				"y": 1.6917077978,
				"z": 0.1866158394,
				"element": "O" 
			},
			{
				"x": 2.1064742837,
				"y": 1.4934161068,
				"z": 1.4834480194,
				"element": "C" 
			},
			{
				"x": 0.2836708924,
				"y": -1.8425711592,
				"z": -1.8433253851,
				"element": "H" 
			},
			{
				"x": -0.7326228216,
				"y": -3.0328211827,
				"z": -0.9843092684,
				"element": "H" 
			},
			{
				"x": -1.0844253685,
				"y": -2.8622955343,
				"z": 1.4305326765,
				"element": "H" 
			},
			{
				"x": 1.0937779034,
				"y": 0.1030040737,
				"z": 3.6446372054,
				"element": "H" 
			},
			{
				"x": 2.1577783273,
				"y": 1.8263271419,
				"z": -1.7602234059,
				"element": "H" 
			},
			{
				"x": 0.8601170742,
				"y": 2.3079926317,
				"z": -0.6016888575,
				"element": "H" 
			},
			{
				"x": 2.9528317374,
				"y": 1.3490639876,
				"z": 2.1608662824,
				"element": "H" 
			},
			{
				"x": 1.5689750734,
				"y": 2.4004648557,
				"z": 1.8053030417,
				"element": "H" 
			}
		],
		 "valence_orbital": [ 
			{
				"type": "occ",
				"energy": -0.29477,
				"method": "rhf"
			},
			{
				"type": "occ",
				"energy": -0.29068,
				"method": "rhf"
			},
			{
				"type": "occ",
				"energy": -0.28957,
				"method": "rhf"
			},
			{
				"type": "occ",
				"energy": -0.26514,
				"method": "rhf"
			},
			{
				"type": "occ",
				"energy": -0.23082,
				"method": "rhf"
			},
			{
				"type": "unocc",
				"energy": -0.04149,
				"method": "rhf"
			},
			{
				"type": "unocc",
				"energy": -0.015,
				"method": "rhf"
			},
			{
				"type": "unocc",
				"energy": 0.00191,
				"method": "rhf"
			},
			{
				"type": "unocc",
				"energy": 0.03573,
				"method": "rhf"
			},
			{
				"type": "unocc",
				"energy": 0.08739,
				"method": "rhf"
			}
		],
		"cosmo_sigma_profile": { 
			"-0.025": 0.0,
			"-0.024": 0.0,
			"-0.023": 0.0,
			"-0.022": 0.0,
			"-0.021": 0.0,
			"-0.02": 0.0,
			"-0.019": 0.0,
			"-0.018": 0.0,
			"-0.017": 0.0,
			"-0.016": 0.0,
			"-0.015": 0.0,
			"-0.014": 0.0,
			"-0.013": 0.0,
			"-0.012": 0.0,
			"-0.011": 0.0,
			"-0.01": 0.0,
			"-0.009": 0.597620728877,
			"-0.008": 7.67820132423,
			"-0.007": 14.5527738917,
			"-0.006": 18.1079789512,
			"-0.005": 16.0711042049,
			"-0.004": 13.917922946,
			"-0.003": 10.28920598,
			"-0.002": 9.15549009701,
			"-0.001": 10.1803490068,
			"0.0": 11.8930021014,
			"0.001": 17.231293883,
			"0.002": 23.4581473975,
			"0.003": 18.5212896213,
			"0.004": 16.8638427462,
			"0.005": 16.0593761171,
			"0.006": 13.0976855469,
			"0.007": 10.084221297,
			"0.008": 1.3667806453,
			"0.009": 0.58071697608,
			"0.01": 1.69373733254,
			"0.011": 1.74647191933,
			"0.012": 0.170116654757,
			"0.013": 0.0,
			"0.014": 0.0,
			"0.015": 0.0,
			"0.016": 0.0,
			"0.017": 0.0,
			"0.018": 0.0,
			"0.019": 0.0,
			"0.02": 0.0,
			"0.021": 0.0,
			"0.022": 0.0,
			"0.023": 0.0,
			"0.024": 0.0,
			"0.025": 0.0
		}
	}
}
