{
	 "smiles": "ClC1=CC2=C(C=C1)C(=O)OC(=O)N2", 
	 "Tm": 524.15, 
	 "num_atms": 17, 
	 "gaussian": { 
		 "optdone": 1, 
		 "sigma_profile": "yes", 
		 "theory": "DFT", 
		 "functional": "B3LYP", 
		 "basiset": "6-31G**", 
		 "properties": { 
			 "R2extent": 3670.4916, 
			 "electric_dipole_moment_norm": 4.83823832919, 
			 "electric_quadrupole_moment_norm": 7.08023169183, 
			 "total_energy": -1047.91094268, 
			 "HOMO_LUMO_gap": 0.18151, 
			 "cosmo_polarized_energy": -16.49, 
			 "cosmo_cavitation_energy": 24.38, 
			 "cosmo_dispersion_energy": -18.53, 
			 "cosmo_repulsion_energy": 1.44, 
			 "cosmo_total_nonelectrostatic_energy": 7.3, 
			 "SMD_solvation_energy": 6.01 
		},
		"coords": [
			{
				"x": 3.3506320412,
				"y": -1.6398692041,
				"z": 3.7895591563,
				"element": "Cl" 
			},
			{
				"x": 2.371042247,
				"y": -1.2942378047,
				"z": 2.3819306365,
				"element": "C" 
			},
			{
				"x": 1.0925742098,
				"y": -0.779131183,
				"z": 2.5684913502,
				"element": "C" 
			},
			{
				"x": 0.3118819134,
				"y": -0.5039237753,
				"z": 1.4390705213,
				"element": "C" 
			},
			{
				"x": 0.8183641922,
				"y": -0.7463370044,
				"z": 0.1522984657,
				"element": "C" 
			},
			{
				"x": 2.1101976086,
				"y": -1.2657596017,
				"z": -0.001217182,
				"element": "C" 
			},
			{
				"x": 2.8971671813,
				"y": -1.544153722,
				"z": 1.1068978214,
				"element": "C" 
			},
			{
				"x": -0.011109777,
				"y": -0.4529757171,
				"z": -1.0217966176,
				"element": "C" 
			},
			{
				"x": 0.3016411688,
				"y": -0.6138736208,
				"z": -2.1720155057,
				"element": "O" 
			},
			{
				"x": -1.2848129011,
				"y": 0.0626549853,
				"z": -0.7548435061,
				"element": "O" 
			},
			{
				"x": -1.8040196767,
				"y": 0.3089379028,
				"z": 0.493203681,
				"element": "C" 
			},
			{
				"x": -2.9137829715,
				"y": 0.755242858,
				"z": 0.6248376978,
				"element": "O" 
			},
			{
				"x": -0.9701840861,
				"y": 0.0103502479,
				"z": 1.5538711663,
				"element": "N" 
			},
			{
				"x": 0.7126833197,
				"y": -0.5961991859,
				"z": 3.5675386394,
				"element": "H" 
			},
			{
				"x": 2.4747758417,
				"y": -1.4428324145,
				"z": -1.0073281963,
				"element": "H" 
			},
			{
				"x": 3.8974436576,
				"y": -1.945974736,
				"z": 1.0003515417,
				"element": "H" 
			},
			{
				"x": -1.368293969,
				"y": 0.1977819756,
				"z": 2.46355033,
				"element": "H" 
			}
		],
		 "valence_orbital": [ 
			{
				"type": "occ",
				"energy": -0.3314,
				"method": "rhf"
			},
			{
				"type": "occ",
				"energy": -0.32027,
				"method": "rhf"
			},
			{
				"type": "occ",
				"energy": -0.29325,
				"method": "rhf"
			},
			{
				"type": "occ",
				"energy": -0.28463,
				"method": "rhf"
			},
			{
				"type": "occ",
				"energy": -0.26031,
				"method": "rhf"
			},
			{
				"type": "unocc",
				"energy": -0.0788,
				"method": "rhf"
			},
			{
				"type": "unocc",
				"energy": -0.04357,
				"method": "rhf"
			},
			{
				"type": "unocc",
				"energy": 0.00385,
				"method": "rhf"
			},
			{
				"type": "unocc",
				"energy": 0.00459,
				"method": "rhf"
			},
			{
				"type": "unocc",
				"energy": 0.04279,
				"method": "rhf"
			}
		],
		"cosmo_sigma_profile": { 
			"-0.025": 0.0,
			"-0.024": 0.0,
			"-0.023": 0.0,
			"-0.022": 0.0,
			"-0.021": 0.0,
			"-0.02": 0.0,
			"-0.019": 0.0,
			"-0.018": 0.507611173026,
			"-0.017": 1.29448399569,
			"-0.016": 1.49193205116,
			"-0.015": 1.40429164312,
			"-0.014": 1.2696214558,
			"-0.013": 1.21201086909,
			"-0.012": 1.13307234974,
			"-0.011": 1.12310475575,
			"-0.01": 2.22325834417,
			"-0.009": 3.52463980638,
			"-0.008": 5.9275166025,
			"-0.007": 7.36968204522,
			"-0.006": 7.41815230546,
			"-0.005": 7.95644522943,
			"-0.004": 8.60558830993,
			"-0.003": 11.3049038887,
			"-0.002": 12.9344476009,
			"-0.001": 15.59158332,
			"0.0": 20.0591014337,
			"0.001": 15.1733594067,
			"0.002": 9.54508555476,
			"0.003": 11.3026594343,
			"0.004": 9.81005347756,
			"0.005": 2.36345959059,
			"0.006": 2.65882148198,
			"0.007": 4.87616398037,
			"0.008": 6.18225619049,
			"0.009": 5.45418887102,
			"0.01": 8.24144913141,
			"0.011": 8.981038978,
			"0.012": 2.48926552003,
			"0.013": 0.0671898061022,
			"0.014": 0.0,
			"0.015": 0.0,
			"0.016": 0.0,
			"0.017": 0.0,
			"0.018": 0.0,
			"0.019": 0.0,
			"0.02": 0.0,
			"0.021": 0.0,
			"0.022": 0.0,
			"0.023": 0.0,
			"0.024": 0.0,
			"0.025": 0.0
		}
	}
}
