{
	 "smiles": "OC(=O)CN1C=CC=CC1=O", 
	 "Tm": 494.15, 
	 "num_atms": 18, 
	 "gaussian": { 
		 "optdone": 1, 
		 "sigma_profile": "yes", 
		 "theory": "DFT", 
		 "functional": "B3LYP", 
		 "basiset": "6-31G**", 
		 "properties": { 
			 "R2extent": 1685.1062, 
			 "electric_dipole_moment_norm": 4.74036811334, 
			 "electric_quadrupole_moment_norm": 7.05101054247, 
			 "total_energy": -551.396137798, 
			 "HOMO_LUMO_gap": 0.17582, 
			 "cosmo_polarized_energy": -18.34, 
			 "cosmo_cavitation_energy": 22.77, 
			 "cosmo_dispersion_energy": -16.52, 
			 "cosmo_repulsion_energy": 1.34, 
			 "cosmo_total_nonelectrostatic_energy": 7.6, 
			 "SMD_solvation_energy": 6.18 
		},
		"coords": [
			{
				"x": -0.3623810978,
				"y": 1.9144690698,
				"z": -1.5990643846,
				"element": "O" 
			},
			{
				"x": 0.8486317666,
				"y": 2.0927784367,
				"z": -1.0347290201,
				"element": "C" 
			},
			{
				"x": 1.7062748734,
				"y": 2.8116214066,
				"z": -1.4895678569,
				"element": "O" 
			},
			{
				"x": 1.0023239641,
				"y": 1.3532107281,
				"z": 0.2907682143,
				"element": "C" 
			},
			{
				"x": 0.095958042,
				"y": 0.2295714331,
				"z": 0.4761581876,
				"element": "N" 
			},
			{
				"x": -0.9558917415,
				"y": 0.2958394535,
				"z": 1.3478151872,
				"element": "C" 
			},
			{
				"x": -1.8062398468,
				"y": -0.7565019167,
				"z": 1.5193895277,
				"element": "C" 
			},
			{
				"x": -1.5785403347,
				"y": -1.9395438473,
				"z": 0.7594036984,
				"element": "C" 
			},
			{
				"x": -0.5401174635,
				"y": -2.0159391266,
				"z": -0.1241461638,
				"element": "C" 
			},
			{
				"x": 0.3647561002,
				"y": -0.9063222184,
				"z": -0.3373728531,
				"element": "C" 
			},
			{
				"x": 1.3067612586,
				"y": -0.8672195572,
				"z": -1.1278660392,
				"element": "O" 
			},
			{
				"x": -0.3496059824,
				"y": 2.4172256044,
				"z": -2.4308926608,
				"element": "H" 
			},
			{
				"x": 2.0347293414,
				"y": 1.003028845,
				"z": 0.3279018622,
				"element": "H" 
			},
			{
				"x": 0.8454275459,
				"y": 2.0743447716,
				"z": 1.0981046853,
				"element": "H" 
			},
			{
				"x": -1.062737361,
				"y": 1.2293980626,
				"z": 1.8897311639,
				"element": "H" 
			},
			{
				"x": -2.6280721488,
				"y": -0.6804570159,
				"z": 2.2201243639,
				"element": "H" 
			},
			{
				"x": -2.243307579,
				"y": -2.7899873065,
				"z": 0.8861113274,
				"element": "H" 
			},
			{
				"x": -0.3485693368,
				"y": -2.9025168229,
				"z": -0.7172692395,
				"element": "H" 
			}
		],
		 "valence_orbital": [ 
			{
				"type": "occ",
				"energy": -0.32342,
				"method": "rhf"
			},
			{
				"type": "occ",
				"energy": -0.30939,
				"method": "rhf"
			},
			{
				"type": "occ",
				"energy": -0.27882,
				"method": "rhf"
			},
			{
				"type": "occ",
				"energy": -0.25294,
				"method": "rhf"
			},
			{
				"type": "occ",
				"energy": -0.21973,
				"method": "rhf"
			},
			{
				"type": "unocc",
				"energy": -0.04391,
				"method": "rhf"
			},
			{
				"type": "unocc",
				"energy": 0.00407,
				"method": "rhf"
			},
			{
				"type": "unocc",
				"energy": 0.01203,
				"method": "rhf"
			},
			{
				"type": "unocc",
				"energy": 0.06963,
				"method": "rhf"
			},
			{
				"type": "unocc",
				"energy": 0.0795,
				"method": "rhf"
			}
		],
		"cosmo_sigma_profile": { 
			"-0.025": 0.0,
			"-0.024": 0.0,
			"-0.023": 0.0,
			"-0.022": 0.0,
			"-0.021": 0.0,
			"-0.02": 0.0,
			"-0.019": 0.4978979726,
			"-0.018": 0.96221423515,
			"-0.017": 0.839796884697,
			"-0.016": 0.894494967777,
			"-0.015": 1.05872303712,
			"-0.014": 0.112019936661,
			"-0.013": 0.483511143399,
			"-0.012": 1.31922578981,
			"-0.011": 3.66194988994,
			"-0.01": 3.99932765182,
			"-0.009": 4.34770392475,
			"-0.008": 4.11462562282,
			"-0.007": 10.2008181731,
			"-0.006": 11.2716516762,
			"-0.005": 11.4409822368,
			"-0.004": 8.83541719788,
			"-0.003": 8.41332238809,
			"-0.002": 7.19225125863,
			"-0.001": 7.85045907363,
			"0.0": 8.64741322815,
			"0.001": 9.77607057401,
			"0.002": 11.5469526354,
			"0.003": 12.6487774273,
			"0.004": 6.33402667106,
			"0.005": 4.90238997684,
			"0.006": 5.09914253913,
			"0.007": 4.96674865313,
			"0.008": 3.70044789836,
			"0.009": 3.40802899164,
			"0.01": 3.76347581942,
			"0.011": 6.31524563011,
			"0.012": 4.52230086437,
			"0.013": 2.43267686164,
			"0.014": 4.04361353019,
			"0.015": 1.76693365978,
			"0.016": 0.18755601756,
			"0.017": 0.0,
			"0.018": 0.0,
			"0.019": 0.0,
			"0.02": 0.0,
			"0.021": 0.0,
			"0.022": 0.0,
			"0.023": 0.0,
			"0.024": 0.0,
			"0.025": 0.0
		}
	}
}
