{
	 "smiles": "C1=CC=C(C=C1)C#CC#CC1=CC=CC=C1", 
	 "Tm": 359.65, 
	 "num_atms": 26, 
	 "gaussian": { 
		 "optdone": 1, 
		 "sigma_profile": "yes", 
		 "theory": "DFT", 
		 "functional": "B3LYP", 
		 "basiset": "6-31G**", 
		 "properties": { 
			 "R2extent": 8148.558, 
			 "electric_dipole_moment_norm": 0.0, 
			 "electric_quadrupole_moment_norm": 20.2622898286, 
			 "total_energy": -615.623360712, 
			 "HOMO_LUMO_gap": 0.14687, 
			 "cosmo_polarized_energy": -7.02, 
			 "cosmo_cavitation_energy": 33.57, 
			 "cosmo_dispersion_energy": -24.08, 
			 "cosmo_repulsion_energy": 1.89, 
			 "cosmo_total_nonelectrostatic_energy": 11.38, 
			 "SMD_solvation_energy": 6.06 
		},
		"coords": [
			{
				"x": 3.7218968841,
				"y": -5.1749986546,
				"z": -0.4300172202,
				"element": "C" 
			},
			{
				"x": 2.3808995518,
				"y": -5.163472433,
				"z": -0.8230192585,
				"element": "C" 
			},
			{
				"x": 1.5720447929,
				"y": -4.0694955992,
				"z": -0.5296320595,
				"element": "C" 
			},
			{
				"x": 2.0988932407,
				"y": -2.9619596384,
				"z": 0.1674296641,
				"element": "C" 
			},
			{
				"x": 3.4538084318,
				"y": -2.9835202187,
				"z": 0.5596585651,
				"element": "C" 
			},
			{
				"x": 4.2534540589,
				"y": -4.0828161383,
				"z": 0.2609429285,
				"element": "C" 
			},
			{
				"x": 1.2773805956,
				"y": -1.8418216643,
				"z": 0.469829876,
				"element": "C" 
			},
			{
				"x": 0.571443059,
				"y": -0.8793643048,
				"z": 0.7296517913,
				"element": "C" 
			},
			{
				"x": -0.2140543659,
				"y": 0.1915430695,
				"z": 1.0187394364,
				"element": "C" 
			},
			{
				"x": -0.9200102183,
				"y": 1.1539920291,
				"z": 1.2785418196,
				"element": "C" 
			},
			{
				"x": -1.7415274494,
				"y": 2.2741317607,
				"z": 1.5809251153,
				"element": "C" 
			},
			{
				"x": -3.0964654385,
				"y": 2.2956537545,
				"z": 1.1887802245,
				"element": "C" 
			},
			{
				"x": -3.8961041893,
				"y": 3.3949603642,
				"z": 1.4874796261,
				"element": "C" 
			},
			{
				"x": -3.364514856,
				"y": 4.4871927383,
				"z": 2.1783342916,
				"element": "C" 
			},
			{
				"x": -2.0234903423,
				"y": 4.4757085378,
				"z": 2.5712479052,
				"element": "C" 
			},
			{
				"x": -1.2146434903,
				"y": 3.3817224096,
				"z": 2.2778772317,
				"element": "C" 
			},
			{
				"x": 4.3494543649,
				"y": -6.0307082163,
				"z": -0.6610378815,
				"element": "H" 
			},
			{
				"x": 1.9640960052,
				"y": -6.0104401702,
				"z": -1.3602218392,
				"element": "H" 
			},
			{
				"x": 0.5302133727,
				"y": -4.0560187655,
				"z": -0.8327521741,
				"element": "H" 
			},
			{
				"x": 3.8621209463,
				"y": -2.1331604909,
				"z": 1.0959834423,
				"element": "H" 
			},
			{
				"x": 5.2952335874,
				"y": -4.0880259621,
				"z": 0.5680839809,
				"element": "H" 
			},
			{
				"x": -3.5048051839,
				"y": 1.4452563911,
				"z": 0.6525357663,
				"element": "H" 
			},
			{
				"x": -4.9379033795,
				"y": 3.4001385914,
				"z": 1.1804048396,
				"element": "H" 
			},
			{
				"x": -3.9920671069,
				"y": 5.3429099453,
				"z": 2.4093410134,
				"element": "H" 
			},
			{
				"x": -1.6066618003,
				"y": 5.3227171262,
				"z": 3.1083666659,
				"element": "H" 
			},
			{
				"x": -0.1727910704,
				"y": 3.3682755388,
				"z": 2.5809262491,
				"element": "H" 
			}
		],
		 "valence_orbital": [ 
			{
				"type": "occ",
				"energy": -0.25931,
				"method": "rhf"
			},
			{
				"type": "occ",
				"energy": -0.25855,
				"method": "rhf"
			},
			{
				"type": "occ",
				"energy": -0.25854,
				"method": "rhf"
			},
			{
				"type": "occ",
				"energy": -0.23943,
				"method": "rhf"
			},
			{
				"type": "occ",
				"energy": -0.20702,
				"method": "rhf"
			},
			{
				"type": "unocc",
				"energy": -0.06015,
				"method": "rhf"
			},
			{
				"type": "unocc",
				"energy": -0.01059,
				"method": "rhf"
			},
			{
				"type": "unocc",
				"energy": -0.00985,
				"method": "rhf"
			},
			{
				"type": "unocc",
				"energy": -0.00701,
				"method": "rhf"
			},
			{
				"type": "unocc",
				"energy": -0.007,
				"method": "rhf"
			}
		],
		"cosmo_sigma_profile": { 
			"-0.025": 0.0,
			"-0.024": 0.0,
			"-0.023": 0.0,
			"-0.022": 0.0,
			"-0.021": 0.0,
			"-0.02": 0.0,
			"-0.019": 0.0,
			"-0.018": 0.0,
			"-0.017": 0.0,
			"-0.016": 0.0,
			"-0.015": 0.0,
			"-0.014": 0.0,
			"-0.013": 0.0,
			"-0.012": 0.0,
			"-0.011": 0.0,
			"-0.01": 0.0,
			"-0.009": 0.0,
			"-0.008": 0.0,
			"-0.007": 3.9439622549,
			"-0.006": 20.9004810428,
			"-0.005": 23.6472103232,
			"-0.004": 20.7354958975,
			"-0.003": 16.0803020811,
			"-0.002": 15.0956215667,
			"-0.001": 13.6402163911,
			"0.0": 15.2070091543,
			"0.001": 17.1405822331,
			"0.002": 26.046718202,
			"0.003": 38.9300915013,
			"0.004": 49.5189099394,
			"0.005": 12.1005200276,
			"0.006": 0.0,
			"0.007": 0.0,
			"0.008": 0.0,
			"0.009": 0.0,
			"0.01": 0.0,
			"0.011": 0.0,
			"0.012": 0.0,
			"0.013": 0.0,
			"0.014": 0.0,
			"0.015": 0.0,
			"0.016": 0.0,
			"0.017": 0.0,
			"0.018": 0.0,
			"0.019": 0.0,
			"0.02": 0.0,
			"0.021": 0.0,
			"0.022": 0.0,
			"0.023": 0.0,
			"0.024": 0.0,
			"0.025": 0.0
		}
	}
}
