{
	 "smiles": "CC1=NC(=CO1)C1=CC=C(C=C1)S(Cl)(=O)=O", 
	 "Tm": 358.15, 
	 "num_atms": 24, 
	 "gaussian": { 
		 "optdone": 1, 
		 "sigma_profile": "yes", 
		 "theory": "DFT", 
		 "functional": "B3LYP", 
		 "basiset": "6-31G**", 
		 "properties": { 
			 "R2extent": 7591.723, 
			 "electric_dipole_moment_norm": 7.51999354322, 
			 "electric_quadrupole_moment_norm": 21.7086172192, 
			 "total_energy": -1524.61842973, 
			 "HOMO_LUMO_gap": 0.15567, 
			 "cosmo_polarized_energy": -12.62, 
			 "cosmo_cavitation_energy": 32.78, 
			 "cosmo_dispersion_energy": -24.52, 
			 "cosmo_repulsion_energy": 1.85, 
			 "cosmo_total_nonelectrostatic_energy": 10.11, 
			 "SMD_solvation_energy": 3.8 
		},
		"coords": [
			{
				"x": -1.9233683629,
				"y": -3.8940578027,
				"z": -1.6253075704,
				"element": "C" 
			},
			{
				"x": -1.0254519337,
				"y": -2.7094945328,
				"z": -1.5922996879,
				"element": "C" 
			},
			{
				"x": -1.1130595666,
				"y": -1.6428147889,
				"z": -0.8625456586,
				"element": "N" 
			},
			{
				"x": -0.019292319,
				"y": -0.8541307601,
				"z": -1.2277772436,
				"element": "C" 
			},
			{
				"x": 0.6833565516,
				"y": -1.5199041072,
				"z": -2.1893762194,
				"element": "C" 
			},
			{
				"x": 0.052791342,
				"y": -2.7066397976,
				"z": -2.4325537142,
				"element": "O" 
			},
			{
				"x": 0.22638239,
				"y": 0.450331772,
				"z": -0.609536023,
				"element": "C" 
			},
			{
				"x": -0.6575751329,
				"y": 0.9255235382,
				"z": 0.3752050231,
				"element": "C" 
			},
			{
				"x": -0.4493755057,
				"y": 2.1594883258,
				"z": 0.9814337674,
				"element": "C" 
			},
			{
				"x": 0.6532347559,
				"y": 2.9209992264,
				"z": 0.5905264775,
				"element": "C" 
			},
			{
				"x": 1.549862267,
				"y": 2.4784047899,
				"z": -0.3851748733,
				"element": "C" 
			},
			{
				"x": 1.3279312454,
				"y": 1.2435130673,
				"z": -0.9810256222,
				"element": "C" 
			},
			{
				"x": 0.92125957,
				"y": 4.5103906212,
				"z": 1.3482985014,
				"element": "S" 
			},
			{
				"x": 2.1590506302,
				"y": 3.9873819306,
				"z": 3.0149499699,
				"element": "Cl" 
			},
			{
				"x": 1.7532668214,
				"y": 5.3311396424,
				"z": 0.4763994798,
				"element": "O" 
			},
			{
				"x": -0.3295433279,
				"y": 4.9975305061,
				"z": 1.9168587303,
				"element": "O" 
			},
			{
				"x": -1.3763755269,
				"y": -4.8074277335,
				"z": -1.3700210548,
				"element": "H" 
			},
			{
				"x": -2.3534639458,
				"y": -4.0319416838,
				"z": -2.6226071003,
				"element": "H" 
			},
			{
				"x": -2.7290201617,
				"y": -3.7470402493,
				"z": -0.905776164,
				"element": "H" 
			},
			{
				"x": 1.5742498841,
				"y": -1.3228350707,
				"z": -2.7628059126,
				"element": "H" 
			},
			{
				"x": -1.5073484233,
				"y": 0.3123030363,
				"z": 0.6519247007,
				"element": "H" 
			},
			{
				"x": -1.1316574056,
				"y": 2.5343088772,
				"z": 1.736064142,
				"element": "H" 
			},
			{
				"x": 2.392380822,
				"y": 3.0966519567,
				"z": -0.6734544748,
				"element": "H" 
			},
			{
				"x": 2.0174653326,
				"y": 0.8965192364,
				"z": -1.744199473,
				"element": "H" 
			}
		],
		 "valence_orbital": [ 
			{
				"type": "occ",
				"energy": -0.30776,
				"method": "rhf"
			},
			{
				"type": "occ",
				"energy": -0.30673,
				"method": "rhf"
			},
			{
				"type": "occ",
				"energy": -0.29721,
				"method": "rhf"
			},
			{
				"type": "occ",
				"energy": -0.28429,
				"method": "rhf"
			},
			{
				"type": "occ",
				"energy": -0.24488,
				"method": "rhf"
			},
			{
				"type": "unocc",
				"energy": -0.08921,
				"method": "rhf"
			},
			{
				"type": "unocc",
				"energy": -0.05279,
				"method": "rhf"
			},
			{
				"type": "unocc",
				"energy": -0.03391,
				"method": "rhf"
			},
			{
				"type": "unocc",
				"energy": -0.00846,
				"method": "rhf"
			},
			{
				"type": "unocc",
				"energy": 0.03715,
				"method": "rhf"
			}
		],
		"cosmo_sigma_profile": { 
			"-0.025": 0.0,
			"-0.024": 0.0,
			"-0.023": 0.0,
			"-0.022": 0.0,
			"-0.021": 0.0,
			"-0.02": 0.0,
			"-0.019": 0.0,
			"-0.018": 0.0,
			"-0.017": 0.0,
			"-0.016": 0.0,
			"-0.015": 0.0,
			"-0.014": 0.0,
			"-0.013": 0.0,
			"-0.012": 0.0,
			"-0.011": 1.40786406431,
			"-0.01": 2.82908745499,
			"-0.009": 3.45869580815,
			"-0.008": 5.45942054703,
			"-0.007": 8.10260781956,
			"-0.006": 14.1309917629,
			"-0.005": 14.0662665573,
			"-0.004": 13.9326985396,
			"-0.003": 16.5585954745,
			"-0.002": 20.321898048,
			"-0.001": 18.7856725094,
			"0.0": 22.2036896941,
			"0.001": 33.0780958744,
			"0.002": 18.7724460222,
			"0.003": 16.6806422434,
			"0.004": 15.2763145543,
			"0.005": 5.94530555561,
			"0.006": 6.69430378479,
			"0.007": 7.57794351906,
			"0.008": 11.3073285431,
			"0.009": 6.75086379882,
			"0.01": 0.985745589647,
			"0.011": 0.946115946815,
			"0.012": 1.072618752,
			"0.013": 0.250595463976,
			"0.014": 0.0,
			"0.015": 0.0,
			"0.016": 0.0,
			"0.017": 0.0,
			"0.018": 0.0,
			"0.019": 0.0,
			"0.02": 0.0,
			"0.021": 0.0,
			"0.022": 0.0,
			"0.023": 0.0,
			"0.024": 0.0,
			"0.025": 0.0
		}
	}
}
