{
	 "smiles": "NC(=O)CCC(O)=O", 
	 "Tm": 428.15, 
	 "num_atms": 15, 
	 "gaussian": { 
		 "optdone": 1, 
		 "sigma_profile": "yes", 
		 "theory": "DFT", 
		 "functional": "B3LYP", 
		 "basiset": "6-31G**", 
		 "properties": { 
			 "R2extent": 1352.2218, 
			 "electric_dipole_moment_norm": 2.9610164623, 
			 "electric_quadrupole_moment_norm": 14.0189390479, 
			 "total_energy": -437.097284714, 
			 "HOMO_LUMO_gap": 0.23252, 
			 "cosmo_polarized_energy": -19.34, 
			 "cosmo_cavitation_energy": 19.11, 
			 "cosmo_dispersion_energy": -14.14, 
			 "cosmo_repulsion_energy": 1.21, 
			 "cosmo_total_nonelectrostatic_energy": 6.18, 
			 "SMD_solvation_energy": 5.09 
		},
		"coords": [
			{
				"x": -2.7702380996,
				"y": 0.5064945715,
				"z": -1.1729498116,
				"element": "N" 
			},
			{
				"x": -1.4953818487,
				"y": 0.9577413432,
				"z": -1.358459564,
				"element": "C" 
			},
			{
				"x": -1.2260614954,
				"y": 2.0919308411,
				"z": -1.7311761232,
				"element": "O" 
			},
			{
				"x": -0.3961656531,
				"y": -0.071786903,
				"z": -1.071055271,
				"element": "C" 
			},
			{
				"x": 0.0857476013,
				"y": -0.0184483489,
				"z": 0.3863549322,
				"element": "C" 
			},
			{
				"x": -0.8749020403,
				"y": -0.6716229072,
				"z": 1.3726906823,
				"element": "C" 
			},
			{
				"x": -0.504050697,
				"y": -0.6141661259,
				"z": 2.6739579866,
				"element": "O" 
			},
			{
				"x": -1.9017288805,
				"y": -1.2354979543,
				"z": 1.0699814844,
				"element": "O" 
			},
			{
				"x": -3.5050082492,
				"y": 1.1981733685,
				"z": -1.2180062475,
				"element": "H" 
			},
			{
				"x": -2.9173681385,
				"y": -0.3178246336,
				"z": -0.6043172934,
				"element": "H" 
			},
			{
				"x": -0.7322830142,
				"y": -1.085987267,
				"z": -1.3046359335,
				"element": "H" 
			},
			{
				"x": 0.438655559,
				"y": 0.1812917139,
				"z": -1.7277256967,
				"element": "H" 
			},
			{
				"x": 1.0513104113,
				"y": -0.5337961146,
				"z": 0.4811880818,
				"element": "H" 
			},
			{
				"x": 0.2611839805,
				"y": 1.0225253617,
				"z": 0.6889904171,
				"element": "H" 
			},
			{
				"x": 0.3306905643,
				"y": -0.1326269454,
				"z": 2.7670623565,
				"element": "H" 
			}
		],
		 "valence_orbital": [ 
			{
				"type": "occ",
				"energy": -0.36138,
				"method": "rhf"
			},
			{
				"type": "occ",
				"energy": -0.33497,
				"method": "rhf"
			},
			{
				"type": "occ",
				"energy": -0.29336,
				"method": "rhf"
			},
			{
				"type": "occ",
				"energy": -0.26324,
				"method": "rhf"
			},
			{
				"type": "occ",
				"energy": -0.2428,
				"method": "rhf"
			},
			{
				"type": "unocc",
				"energy": -0.01028,
				"method": "rhf"
			},
			{
				"type": "unocc",
				"energy": 0.02315,
				"method": "rhf"
			},
			{
				"type": "unocc",
				"energy": 0.04863,
				"method": "rhf"
			},
			{
				"type": "unocc",
				"energy": 0.09179,
				"method": "rhf"
			},
			{
				"type": "unocc",
				"energy": 0.11441,
				"method": "rhf"
			}
		],
		"cosmo_sigma_profile": { 
			"-0.025": 0.0,
			"-0.024": 0.0,
			"-0.023": 0.0,
			"-0.022": 0.0,
			"-0.021": 0.0,
			"-0.02": 0.191230208257,
			"-0.019": 0.958224019033,
			"-0.018": 1.28359984726,
			"-0.017": 0.803243192725,
			"-0.016": 1.39176952328,
			"-0.015": 1.0131035107,
			"-0.014": 1.08317254923,
			"-0.013": 2.03035051172,
			"-0.012": 2.84528536282,
			"-0.011": 2.4275926713,
			"-0.01": 2.08513288414,
			"-0.009": 4.01096407201,
			"-0.008": 5.21041759125,
			"-0.007": 6.41600605933,
			"-0.006": 5.88492555047,
			"-0.005": 9.51625068133,
			"-0.004": 10.0469103894,
			"-0.003": 8.63852000009,
			"-0.002": 8.55247963963,
			"-0.001": 6.56201549253,
			"0.0": 5.19337705233,
			"0.001": 4.50269158668,
			"0.002": 3.63073165178,
			"0.003": 3.70872093518,
			"0.004": 4.37939756978,
			"0.005": 3.76682286283,
			"0.006": 4.41804638598,
			"0.007": 3.65460373539,
			"0.008": 4.75935969277,
			"0.009": 4.85853141508,
			"0.01": 6.22908279286,
			"0.011": 3.91482462454,
			"0.012": 3.98844877112,
			"0.013": 3.97664758851,
			"0.014": 5.4026387642,
			"0.015": 2.44256624144,
			"0.016": 0.0859795580401,
			"0.017": 0.0,
			"0.018": 0.0,
			"0.019": 0.0,
			"0.02": 0.0,
			"0.021": 0.0,
			"0.022": 0.0,
			"0.023": 0.0,
			"0.024": 0.0,
			"0.025": 0.0
		}
	}
}
