{
	 "smiles": "NC1=NN(CC2=CC(Br)=CC=C2)C=N1", 
	 "Tm": 421.15, 
	 "num_atms": 23, 
	 "gaussian": { 
		 "optdone": 1, 
		 "sigma_profile": "yes", 
		 "theory": "DFT", 
		 "functional": "B3LYP", 
		 "basiset": "6-31G**", 
		 "properties": { 
			 "R2extent": 4676.3208, 
			 "electric_dipole_moment_norm": 2.59121425204, 
			 "electric_quadrupole_moment_norm": 18.1180812911, 
			 "total_energy": -3138.78267226, 
			 "HOMO_LUMO_gap": 0.18948, 
			 "cosmo_polarized_energy": -15.15, 
			 "cosmo_cavitation_energy": 30.18, 
			 "cosmo_dispersion_energy": -22.03, 
			 "cosmo_repulsion_energy": 1.76, 
			 "cosmo_total_nonelectrostatic_energy": 9.91, 
			 "SMD_solvation_energy": 1.57 
		},
		"coords": [
			{
				"x": 0.7529134634,
				"y": 4.2464848852,
				"z": 1.3539743139,
				"element": "N" 
			},
			{
				"x": -0.1463312926,
				"y": 3.2261235036,
				"z": 1.5900507995,
				"element": "C" 
			},
			{
				"x": -0.8988689047,
				"y": 2.6896085434,
				"z": 0.6315328832,
				"element": "N" 
			},
			{
				"x": -1.664751731,
				"y": 1.7978911376,
				"z": 1.3404773536,
				"element": "N" 
			},
			{
				"x": -2.6027191991,
				"y": 0.9224157346,
				"z": 0.6553312728,
				"element": "C" 
			},
			{
				"x": -1.970674093,
				"y": -0.3242804919,
				"z": 0.0573901365,
				"element": "C" 
			},
			{
				"x": -0.8550572511,
				"y": -0.215960695,
				"z": -0.7841887109,
				"element": "C" 
			},
			{
				"x": -0.3078865347,
				"y": -1.3679517052,
				"z": -1.3401601998,
				"element": "C" 
			},
			{
				"x": 1.217881327,
				"y": -1.218305406,
				"z": -2.4847577966,
				"element": "Br" 
			},
			{
				"x": -0.8451405566,
				"y": -2.630649391,
				"z": -1.0875080333,
				"element": "C" 
			},
			{
				"x": -1.9565815885,
				"y": -2.7296673224,
				"z": -0.2519625676,
				"element": "C" 
			},
			{
				"x": -2.5149577211,
				"y": -1.5848845383,
				"z": 0.3202467435,
				"element": "C" 
			},
			{
				"x": -1.3204863046,
				"y": 1.845013431,
				"z": 2.6416722917,
				"element": "C" 
			},
			{
				"x": -0.3681313483,
				"y": 2.7398581147,
				"z": 2.8481345418,
				"element": "N" 
			},
			{
				"x": 1.4871470509,
				"y": 4.2976153673,
				"z": 2.0459970499,
				"element": "H" 
			},
			{
				"x": 1.0887149075,
				"y": 4.2919772458,
				"z": 0.4021896436,
				"element": "H" 
			},
			{
				"x": -3.0779558368,
				"y": 1.5257060762,
				"z": -0.1244406844,
				"element": "H" 
			},
			{
				"x": -3.3774616949,
				"y": 0.6400393801,
				"z": 1.3736609683,
				"element": "H" 
			},
			{
				"x": -0.4233703744,
				"y": 0.7580803946,
				"z": -0.9843568587,
				"element": "H" 
			},
			{
				"x": -0.4016565946,
				"y": -3.513254498,
				"z": -1.5337417801,
				"element": "H" 
			},
			{
				"x": -2.3840710973,
				"y": -3.7057954365,
				"z": -0.0427752093,
				"element": "H" 
			},
			{
				"x": -3.3787676737,
				"y": -1.6747439025,
				"z": 0.9738854387,
				"element": "H" 
			},
			{
				"x": -1.7859869519,
				"y": 1.2258795726,
				"z": 3.3968484037,
				"element": "H" 
			}
		],
		 "valence_orbital": [ 
			{
				"type": "occ",
				"energy": -0.27922,
				"method": "rhf"
			},
			{
				"type": "occ",
				"energy": -0.27152,
				"method": "rhf"
			},
			{
				"type": "occ",
				"energy": -0.26351,
				"method": "rhf"
			},
			{
				"type": "occ",
				"energy": -0.24663,
				"method": "rhf"
			},
			{
				"type": "occ",
				"energy": -0.21286,
				"method": "rhf"
			},
			{
				"type": "unocc",
				"energy": -0.02338,
				"method": "rhf"
			},
			{
				"type": "unocc",
				"energy": -0.01873,
				"method": "rhf"
			},
			{
				"type": "unocc",
				"energy": 0.00615,
				"method": "rhf"
			},
			{
				"type": "unocc",
				"energy": 0.0139,
				"method": "rhf"
			},
			{
				"type": "unocc",
				"energy": 0.07177,
				"method": "rhf"
			}
		],
		"cosmo_sigma_profile": { 
			"-0.025": 0.0,
			"-0.024": 0.0,
			"-0.023": 0.0,
			"-0.022": 0.0,
			"-0.021": 0.0,
			"-0.02": 0.0,
			"-0.019": 0.0,
			"-0.018": 0.0,
			"-0.017": 0.0,
			"-0.016": 0.0,
			"-0.015": 0.0,
			"-0.014": 0.028395248077,
			"-0.013": 1.35193495975,
			"-0.012": 2.41859255287,
			"-0.011": 2.3098742018,
			"-0.01": 4.93510302128,
			"-0.009": 5.88160051031,
			"-0.008": 6.44339303735,
			"-0.007": 10.7372500654,
			"-0.006": 12.2989052792,
			"-0.005": 13.2001228133,
			"-0.004": 12.4674336791,
			"-0.003": 11.7512546603,
			"-0.002": 11.8867396281,
			"-0.001": 12.4037979205,
			"0.0": 12.4602783687,
			"0.001": 18.4908620201,
			"0.002": 23.2447154241,
			"0.003": 22.0657892197,
			"0.004": 20.9672716218,
			"0.005": 10.1248797075,
			"0.006": 4.12219611552,
			"0.007": 3.98439999857,
			"0.008": 3.70371107927,
			"0.009": 2.49433252464,
			"0.01": 2.65274387197,
			"0.011": 2.41574926082,
			"0.012": 3.02723586838,
			"0.013": 2.30515051477,
			"0.014": 1.69080636822,
			"0.015": 1.44457519767,
			"0.016": 1.07058560753,
			"0.017": 0.38116908435,
			"0.018": 0.0,
			"0.019": 0.0,
			"0.02": 0.0,
			"0.021": 0.0,
			"0.022": 0.0,
			"0.023": 0.0,
			"0.024": 0.0,
			"0.025": 0.0
		}
	}
}
