{
	 "smiles": "COC(=O)C1CN(C)C(=O)C1", 
	 "Tm": 288.15, 
	 "num_atms": 22, 
	 "gaussian": { 
		 "optdone": 1, 
		 "sigma_profile": "yes", 
		 "theory": "DFT", 
		 "functional": "B3LYP", 
		 "basiset": "6-31G**", 
		 "properties": { 
			 "R2extent": 3116.591, 
			 "electric_dipole_moment_norm": 3.63703609825, 
			 "electric_quadrupole_moment_norm": 18.4635860136, 
			 "total_energy": -553.822212006, 
			 "HOMO_LUMO_gap": 0.23674, 
			 "cosmo_polarized_energy": -13.34, 
			 "cosmo_cavitation_energy": 25.46, 
			 "cosmo_dispersion_energy": -18.53, 
			 "cosmo_repulsion_energy": 1.52, 
			 "cosmo_total_nonelectrostatic_energy": 8.45, 
			 "SMD_solvation_energy": 6.22 
		},
		"coords": [
			{
				"x": 3.1805129107,
				"y": 0.4867172568,
				"z": -3.335162354,
				"element": "C" 
			},
			{
				"x": 2.1486781821,
				"y": -0.4179824806,
				"z": -2.9029330317,
				"element": "O" 
			},
			{
				"x": 1.2523986943,
				"y": 0.0987477358,
				"z": -2.0369443066,
				"element": "C" 
			},
			{
				"x": 1.2992924518,
				"y": 1.2371437323,
				"z": -1.6197451538,
				"element": "O" 
			},
			{
				"x": 0.1733766417,
				"y": -0.9116904988,
				"z": -1.7038210847,
				"element": "C" 
			},
			{
				"x": -0.4165314223,
				"y": -0.7170355872,
				"z": -0.2887231901,
				"element": "C" 
			},
			{
				"x": -1.8025337385,
				"y": -1.1329960338,
				"z": -0.4382526911,
				"element": "N" 
			},
			{
				"x": -2.6951044065,
				"y": -1.2802857537,
				"z": 0.6900620905,
				"element": "C" 
			},
			{
				"x": -2.2459019532,
				"y": -1.1552964703,
				"z": -1.735968104,
				"element": "C" 
			},
			{
				"x": -3.3847315957,
				"y": -1.3984752579,
				"z": -2.1016561238,
				"element": "O" 
			},
			{
				"x": -1.0602215828,
				"y": -0.7853090527,
				"z": -2.6303795852,
				"element": "C" 
			},
			{
				"x": 3.7673580973,
				"y": 0.8349539418,
				"z": -2.481744825,
				"element": "H" 
			},
			{
				"x": 3.8039707967,
				"y": -0.0852296816,
				"z": -4.0218773427,
				"element": "H" 
			},
			{
				"x": 2.7455841199,
				"y": 1.3524923041,
				"z": -3.8404982395,
				"element": "H" 
			},
			{
				"x": 0.5912299574,
				"y": -1.9167912831,
				"z": -1.8034786416,
				"element": "H" 
			},
			{
				"x": -0.3374444605,
				"y": 0.3337355179,
				"z": 0.0209060158,
				"element": "H" 
			},
			{
				"x": 0.0973084565,
				"y": -1.3332775947,
				"z": 0.4585113391,
				"element": "H" 
			},
			{
				"x": -3.6752973257,
				"y": -1.558897499,
				"z": 0.2993610309,
				"element": "H" 
			},
			{
				"x": -2.7851315183,
				"y": -0.3420265949,
				"z": 1.2532324846,
				"element": "H" 
			},
			{
				"x": -2.3388045816,
				"y": -2.0610788582,
				"z": 1.372528696,
				"element": "H" 
			},
			{
				"x": -1.2071724243,
				"y": 0.2473968714,
				"z": -2.9687390679,
				"element": "H" 
			},
			{
				"x": -1.018235299,
				"y": -1.4255147138,
				"z": -3.5129779151,
				"element": "H" 
			}
		],
		 "valence_orbital": [ 
			{
				"type": "occ",
				"energy": -0.34096,
				"method": "rhf"
			},
			{
				"type": "occ",
				"energy": -0.31154,
				"method": "rhf"
			},
			{
				"type": "occ",
				"energy": -0.28416,
				"method": "rhf"
			},
			{
				"type": "occ",
				"energy": -0.24713,
				"method": "rhf"
			},
			{
				"type": "occ",
				"energy": -0.23728,
				"method": "rhf"
			},
			{
				"type": "unocc",
				"energy": -0.00054,
				"method": "rhf"
			},
			{
				"type": "unocc",
				"energy": 0.031,
				"method": "rhf"
			},
			{
				"type": "unocc",
				"energy": 0.08348,
				"method": "rhf"
			},
			{
				"type": "unocc",
				"energy": 0.10229,
				"method": "rhf"
			},
			{
				"type": "unocc",
				"energy": 0.10711,
				"method": "rhf"
			}
		],
		"cosmo_sigma_profile": { 
			"-0.025": 0.0,
			"-0.024": 0.0,
			"-0.023": 0.0,
			"-0.022": 0.0,
			"-0.021": 0.0,
			"-0.02": 0.0,
			"-0.019": 0.0,
			"-0.018": 0.0,
			"-0.017": 0.0,
			"-0.016": 0.0,
			"-0.015": 0.0,
			"-0.014": 0.0,
			"-0.013": 0.0,
			"-0.012": 0.0,
			"-0.011": 0.0,
			"-0.01": 0.0,
			"-0.009": 0.0,
			"-0.008": 0.0,
			"-0.007": 1.71987362424,
			"-0.006": 15.9675791474,
			"-0.005": 26.2962834295,
			"-0.004": 26.3732970148,
			"-0.003": 26.0612652821,
			"-0.002": 19.4719942896,
			"-0.001": 11.8085718183,
			"0.0": 7.97522491978,
			"0.001": 5.87138178489,
			"0.002": 6.43108586068,
			"0.003": 5.17495903421,
			"0.004": 4.26622141776,
			"0.005": 4.03310507672,
			"0.006": 3.31156570552,
			"0.007": 3.56119053583,
			"0.008": 5.22069283396,
			"0.009": 2.85070313068,
			"0.01": 2.86862206371,
			"0.011": 4.64275251615,
			"0.012": 5.90058978694,
			"0.013": 3.73509407176,
			"0.014": 5.32516811131,
			"0.015": 1.11327089713,
			"0.016": 0.0,
			"0.017": 0.0,
			"0.018": 0.0,
			"0.019": 0.0,
			"0.02": 0.0,
			"0.021": 0.0,
			"0.022": 0.0,
			"0.023": 0.0,
			"0.024": 0.0,
			"0.025": 0.0
		}
	}
}
