{
	 "smiles": "NC1=C(C=NC=C1)C(=O)C(F)(F)F", 
	 "Tm": 444.15, 
	 "num_atms": 18, 
	 "gaussian": { 
		 "optdone": 1, 
		 "sigma_profile": "yes", 
		 "theory": "DFT", 
		 "functional": "B3LYP", 
		 "basiset": "6-31G**", 
		 "properties": { 
			 "R2extent": 2531.8986, 
			 "electric_dipole_moment_norm": 4.97733383048, 
			 "electric_quadrupole_moment_norm": 12.8963331145, 
			 "total_energy": -753.993787726, 
			 "HOMO_LUMO_gap": 0.16452, 
			 "cosmo_polarized_energy": -13.07, 
			 "cosmo_cavitation_energy": 23.71, 
			 "cosmo_dispersion_energy": -17.34, 
			 "cosmo_repulsion_energy": 1.3, 
			 "cosmo_total_nonelectrostatic_energy": 7.67, 
			 "SMD_solvation_energy": 4.33 
		},
		"coords": [
			{
				"x": 0.3013202418,
				"y": -2.7511494577,
				"z": -0.7928125656,
				"element": "N" 
			},
			{
				"x": -0.07260165,
				"y": -1.8685147075,
				"z": 0.173269955,
				"element": "C" 
			},
			{
				"x": -0.0017604558,
				"y": -0.4481112097,
				"z": 0.0601594257,
				"element": "C" 
			},
			{
				"x": -0.3731146628,
				"y": 0.3124359508,
				"z": 1.1948117397,
				"element": "C" 
			},
			{
				"x": -0.8179176172,
				"y": -0.1700635281,
				"z": 2.3463738461,
				"element": "N" 
			},
			{
				"x": -0.9062628947,
				"y": -1.5142675257,
				"z": 2.4221968345,
				"element": "C" 
			},
			{
				"x": -0.5602307527,
				"y": -2.3753701233,
				"z": 1.4013292203,
				"element": "C" 
			},
			{
				"x": 0.4032364658,
				"y": 0.3679825595,
				"z": -1.1053509965,
				"element": "C" 
			},
			{
				"x": 0.770904141,
				"y": 1.5253284587,
				"z": -1.0119774896,
				"element": "O" 
			},
			{
				"x": 0.2813841799,
				"y": -0.1857491163,
				"z": -2.5546925081,
				"element": "C" 
			},
			{
				"x": 0.3242039918,
				"y": 0.7971012532,
				"z": -3.4470224328,
				"element": "F" 
			},
			{
				"x": 1.3246890504,
				"y": -1.0307016714,
				"z": -2.8300110074,
				"element": "F" 
			},
			{
				"x": -0.8551655321,
				"y": -0.8826662419,
				"z": -2.7339621779,
				"element": "F" 
			},
			{
				"x": 0.8275153558,
				"y": -2.4637867036,
				"z": -1.6005892188,
				"element": "H" 
			},
			{
				"x": 0.3200197263,
				"y": -3.7313319483,
				"z": -0.5625337413,
				"element": "H" 
			},
			{
				"x": -0.304956374,
				"y": 1.3939789858,
				"z": 1.1095956875,
				"element": "H" 
			},
			{
				"x": -1.2693888453,
				"y": -1.9164447934,
				"z": 3.366249088,
				"element": "H" 
			},
			{
				"x": -0.6419743682,
				"y": -3.4496701811,
				"z": 1.5410663415,
				"element": "H" 
			}
		],
		 "valence_orbital": [ 
			{
				"type": "occ",
				"energy": -0.36015,
				"method": "rhf"
			},
			{
				"type": "occ",
				"energy": -0.28747,
				"method": "rhf"
			},
			{
				"type": "occ",
				"energy": -0.27476,
				"method": "rhf"
			},
			{
				"type": "occ",
				"energy": -0.2587,
				"method": "rhf"
			},
			{
				"type": "occ",
				"energy": -0.24393,
				"method": "rhf"
			},
			{
				"type": "unocc",
				"energy": -0.07941,
				"method": "rhf"
			},
			{
				"type": "unocc",
				"energy": -0.01664,
				"method": "rhf"
			},
			{
				"type": "unocc",
				"energy": 0.00529,
				"method": "rhf"
			},
			{
				"type": "unocc",
				"energy": 0.06706,
				"method": "rhf"
			},
			{
				"type": "unocc",
				"energy": 0.10094,
				"method": "rhf"
			}
		],
		"cosmo_sigma_profile": { 
			"-0.025": 0.0,
			"-0.024": 0.0,
			"-0.023": 0.0,
			"-0.022": 0.0,
			"-0.021": 0.0,
			"-0.02": 0.0,
			"-0.019": 0.0,
			"-0.018": 0.0,
			"-0.017": 0.0,
			"-0.016": 0.0236127526666,
			"-0.015": 1.13014520289,
			"-0.014": 1.3368831322,
			"-0.013": 2.1816123921,
			"-0.012": 1.84355558649,
			"-0.011": 1.87970410618,
			"-0.01": 2.59010070361,
			"-0.009": 3.08276882005,
			"-0.008": 3.26818916492,
			"-0.007": 5.32676400019,
			"-0.006": 7.71089509763,
			"-0.005": 8.18135321314,
			"-0.004": 8.04582390459,
			"-0.003": 8.66509418346,
			"-0.002": 9.39898646521,
			"-0.001": 10.8882446131,
			"0.0": 17.4180106796,
			"0.001": 28.2310257934,
			"0.002": 25.9415043351,
			"0.003": 7.31984338813,
			"0.004": 5.56297463991,
			"0.005": 4.87090367252,
			"0.006": 2.95579578561,
			"0.007": 3.84795563496,
			"0.008": 3.62958653549,
			"0.009": 3.83859978809,
			"0.01": 4.54785354508,
			"0.011": 2.22755012789,
			"0.012": 1.07061793128,
			"0.013": 1.20262562799,
			"0.014": 0.499099889258,
			"0.015": 0.942339116378,
			"0.016": 0.975580736377,
			"0.017": 0.320149332619,
			"0.018": 0.0,
			"0.019": 0.0,
			"0.02": 0.0,
			"0.021": 0.0,
			"0.022": 0.0,
			"0.023": 0.0,
			"0.024": 0.0,
			"0.025": 0.0
		}
	}
}
