{
	 "smiles": "CS(=O)(=O)NC1=CC2=NN(N=C2C=C1)C1CCCC1", 
	 "Tm": 399.15, 
	 "num_atms": 35, 
	 "gaussian": { 
		 "optdone": 1, 
		 "sigma_profile": "yes", 
		 "theory": "DFT", 
		 "functional": "B3LYP", 
		 "basiset": "6-31G**", 
		 "properties": { 
			 "R2extent": 9569.5139, 
			 "electric_dipole_moment_norm": 5.7897358584, 
			 "electric_quadrupole_moment_norm": 26.4115755516, 
			 "total_energy": -1234.47501209, 
			 "HOMO_LUMO_gap": 0.17245, 
			 "cosmo_polarized_energy": -18.94, 
			 "cosmo_cavitation_energy": 38.98, 
			 "cosmo_dispersion_energy": -28.76, 
			 "cosmo_repulsion_energy": 2.17, 
			 "cosmo_total_nonelectrostatic_energy": 12.39, 
			 "SMD_solvation_energy": 3.35 
		},
		"coords": [
			{
				"x": 3.2138925963,
				"y": -2.9527182019,
				"z": -3.1989717788,
				"element": "C" 
			},
			{
				"x": 4.052451272,
				"y": -3.5915280857,
				"z": -1.7321071736,
				"element": "S" 
			},
			{
				"x": 5.4807829581,
				"y": -3.7072108093,
				"z": -2.0232355443,
				"element": "O" 
			},
			{
				"x": 3.2678289933,
				"y": -4.7256438442,
				"z": -1.247790107,
				"element": "O" 
			},
			{
				"x": 3.9602998332,
				"y": -2.3486324958,
				"z": -0.5813586087,
				"element": "N" 
			},
			{
				"x": 2.7405722581,
				"y": -1.737292054,
				"z": -0.1747265754,
				"element": "C" 
			},
			{
				"x": 2.6286069499,
				"y": -0.358087618,
				"z": -0.2059859454,
				"element": "C" 
			},
			{
				"x": 1.4272948967,
				"y": 0.2021172906,
				"z": 0.2788172309,
				"element": "C" 
			},
			{
				"x": 1.0408497285,
				"y": 1.4953237029,
				"z": 0.379866929,
				"element": "N" 
			},
			{
				"x": -0.1860183823,
				"y": 1.3965416223,
				"z": 0.8874475064,
				"element": "N" 
			},
			{
				"x": -0.65684735,
				"y": 0.1803343795,
				"z": 1.1303496607,
				"element": "N" 
			},
			{
				"x": 0.3638534347,
				"y": -0.6215514396,
				"z": 0.7464663064,
				"element": "C" 
			},
			{
				"x": 0.4934583173,
				"y": -2.028761073,
				"z": 0.7603030152,
				"element": "C" 
			},
			{
				"x": 1.6790750558,
				"y": -2.5675548483,
				"z": 0.3151979672,
				"element": "C" 
			},
			{
				"x": -0.9926378103,
				"y": 2.5967798834,
				"z": 1.1454787549,
				"element": "C" 
			},
			{
				"x": -2.3242842681,
				"y": 2.595786095,
				"z": 0.3388908483,
				"element": "C" 
			},
			{
				"x": -3.4308283164,
				"y": 2.3528758698,
				"z": 1.3795324763,
				"element": "C" 
			},
			{
				"x": -2.8989189574,
				"y": 3.0736795182,
				"z": 2.6284202873,
				"element": "C" 
			},
			{
				"x": -1.4029545968,
				"y": 2.7060763953,
				"z": 2.6430596911,
				"element": "C" 
			},
			{
				"x": 3.767321034,
				"y": -2.0936748797,
				"z": -3.5802100458,
				"element": "H" 
			},
			{
				"x": 2.1932193223,
				"y": -2.6765216373,
				"z": -2.9308708608,
				"element": "H" 
			},
			{
				"x": 3.2072065378,
				"y": -3.759257151,
				"z": -3.9340037564,
				"element": "H" 
			},
			{
				"x": 4.7441100989,
				"y": -1.7160730743,
				"z": -0.7053326894,
				"element": "H" 
			},
			{
				"x": 3.4286522915,
				"y": 0.2731723334,
				"z": -0.5803305182,
				"element": "H" 
			},
			{
				"x": -0.307389553,
				"y": -2.6601889721,
				"z": 1.1296059861,
				"element": "H" 
			},
			{
				"x": 1.8386191893,
				"y": -3.6387297955,
				"z": 0.3319829341,
				"element": "H" 
			},
			{
				"x": -0.3395072643,
				"y": 3.4130815936,
				"z": 0.8374652888,
				"element": "H" 
			},
			{
				"x": -2.3087038763,
				"y": 1.8582662274,
				"z": -0.4667625516,
				"element": "H" 
			},
			{
				"x": -2.450877508,
				"y": 3.5829532173,
				"z": -0.1197449869,
				"element": "H" 
			},
			{
				"x": -4.4083711089,
				"y": 2.7180112221,
				"z": 1.0501855797,
				"element": "H" 
			},
			{
				"x": -3.5218220812,
				"y": 1.2794536491,
				"z": 1.5798305835,
				"element": "H" 
			},
			{
				"x": -3.0259516297,
				"y": 4.1582165824,
				"z": 2.5172448844,
				"element": "H" 
			},
			{
				"x": -3.4082685355,
				"y": 2.7788751066,
				"z": 3.5507840824,
				"element": "H" 
			},
			{
				"x": -0.7812157799,
				"y": 3.4247219092,
				"z": 3.1839829419,
				"element": "H" 
			},
			{
				"x": -1.2667977497,
				"y": 1.7274593816,
				"z": 3.1116181876,
				"element": "H" 
			}
		],
		 "valence_orbital": [ 
			{
				"type": "occ",
				"energy": -0.30852,
				"method": "rhf"
			},
			{
				"type": "occ",
				"energy": -0.30168,
				"method": "rhf"
			},
			{
				"type": "occ",
				"energy": -0.29944,
				"method": "rhf"
			},
			{
				"type": "occ",
				"energy": -0.24622,
				"method": "rhf"
			},
			{
				"type": "occ",
				"energy": -0.22732,
				"method": "rhf"
			},
			{
				"type": "unocc",
				"energy": -0.05487,
				"method": "rhf"
			},
			{
				"type": "unocc",
				"energy": 0.00737,
				"method": "rhf"
			},
			{
				"type": "unocc",
				"energy": 0.02372,
				"method": "rhf"
			},
			{
				"type": "unocc",
				"energy": 0.05968,
				"method": "rhf"
			},
			{
				"type": "unocc",
				"energy": 0.07139,
				"method": "rhf"
			}
		],
		"cosmo_sigma_profile": { 
			"-0.025": 0.0,
			"-0.024": 0.0,
			"-0.023": 0.0,
			"-0.022": 0.0,
			"-0.021": 0.0,
			"-0.02": 0.0,
			"-0.019": 0.0,
			"-0.018": 0.0,
			"-0.017": 0.0,
			"-0.016": 0.316315832791,
			"-0.015": 1.31235455766,
			"-0.014": 1.08926640578,
			"-0.013": 1.42460138145,
			"-0.012": 1.89691549885,
			"-0.011": 1.18073736829,
			"-0.01": 1.6542008571,
			"-0.009": 4.29859552825,
			"-0.008": 7.17758423143,
			"-0.007": 9.20765548648,
			"-0.006": 9.68566060956,
			"-0.005": 15.3070519599,
			"-0.004": 22.172050614,
			"-0.003": 26.1200894181,
			"-0.002": 27.0449877043,
			"-0.001": 27.8514891946,
			"0.0": 27.0473772455,
			"0.001": 20.3035648079,
			"0.002": 18.278878153,
			"0.003": 17.7540780045,
			"0.004": 9.81905085901,
			"0.005": 7.05101279662,
			"0.006": 6.36665251594,
			"0.007": 5.46296443975,
			"0.008": 6.9167514282,
			"0.009": 5.07598654901,
			"0.01": 9.29378687096,
			"0.011": 12.1153825946,
			"0.012": 3.81467486134,
			"0.013": 0.893691660835,
			"0.014": 0.491703356487,
			"0.015": 0.0244129027877,
			"0.016": 0.0,
			"0.017": 0.0,
			"0.018": 0.0,
			"0.019": 0.0,
			"0.02": 0.0,
			"0.021": 0.0,
			"0.022": 0.0,
			"0.023": 0.0,
			"0.024": 0.0,
			"0.025": 0.0
		}
	}
}
