{
	 "smiles": "OC1=CC2=CC=CC=C2C=C1O", 
	 "Tm": 436.15, 
	 "num_atms": 20, 
	 "gaussian": { 
		 "optdone": 1, 
		 "sigma_profile": "yes", 
		 "theory": "DFT", 
		 "functional": "B3LYP", 
		 "basiset": "6-31G**", 
		 "properties": { 
			 "R2extent": 2156.9204, 
			 "electric_dipole_moment_norm": 2.60505940431, 
			 "electric_quadrupole_moment_norm": 12.1527457967, 
			 "total_energy": -536.337274373, 
			 "HOMO_LUMO_gap": 0.17445, 
			 "cosmo_polarized_energy": -11.28, 
			 "cosmo_cavitation_energy": 23.78, 
			 "cosmo_dispersion_energy": -18.16, 
			 "cosmo_repulsion_energy": 1.42, 
			 "cosmo_total_nonelectrostatic_energy": 7.04, 
			 "SMD_solvation_energy": 4.4 
		},
		"coords": [
			{
				"x": -2.0114887685,
				"y": 3.0735333968,
				"z": -0.5311956171,
				"element": "O" 
			},
			{
				"x": -1.2527729702,
				"y": 1.9586444269,
				"z": -0.3474391477,
				"element": "C" 
			},
			{
				"x": -0.5013830441,
				"y": 1.4374103554,
				"z": -1.3730515294,
				"element": "C" 
			},
			{
				"x": 0.2899865252,
				"y": 0.2729757963,
				"z": -1.1782660395,
				"element": "C" 
			},
			{
				"x": 1.076195005,
				"y": -0.2877995539,
				"z": -2.2196234372,
				"element": "C" 
			},
			{
				"x": 1.8353725511,
				"y": -1.4178350907,
				"z": -2.0059208144,
				"element": "C" 
			},
			{
				"x": 1.8437682138,
				"y": -2.0421794205,
				"z": -0.7360410285,
				"element": "C" 
			},
			{
				"x": 1.0918552738,
				"y": -1.5232787189,
				"z": 0.2959496569,
				"element": "C" 
			},
			{
				"x": 0.299758715,
				"y": -0.3610903344,
				"z": 0.107907109,
				"element": "C" 
			},
			{
				"x": -0.48685127,
				"y": 0.1983572344,
				"z": 1.1531406418,
				"element": "C" 
			},
			{
				"x": -1.2397202207,
				"y": 1.323698662,
				"z": 0.9313786502,
				"element": "C" 
			},
			{
				"x": -2.0320170402,
				"y": 1.9428601171,
				"z": 1.8687652812,
				"element": "O" 
			},
			{
				"x": -2.4545491367,
				"y": 3.2676282166,
				"z": 0.3083933965,
				"element": "H" 
			},
			{
				"x": -0.5212020146,
				"y": 1.9308475529,
				"z": -2.3397514187,
				"element": "H" 
			},
			{
				"x": 1.0684838127,
				"y": 0.1931900795,
				"z": -3.1944600028,
				"element": "H" 
			},
			{
				"x": 2.4308310307,
				"y": -1.8333207935,
				"z": -2.8137820574,
				"element": "H" 
			},
			{
				"x": 2.4452024401,
				"y": -2.9325076479,
				"z": -0.5769067076,
				"element": "H" 
			},
			{
				"x": 1.0963573881,
				"y": -2.0009254911,
				"z": 1.2728545729,
				"element": "H" 
			},
			{
				"x": -0.4865135691,
				"y": -0.2751729285,
				"z": 2.1332188033,
				"element": "H" 
			},
			{
				"x": -1.9804129215,
				"y": 1.4682641413,
				"z": 2.7076296885,
				"element": "H" 
			}
		],
		 "valence_orbital": [ 
			{
				"type": "occ",
				"energy": -0.32913,
				"method": "rhf"
			},
			{
				"type": "occ",
				"energy": -0.29298,
				"method": "rhf"
			},
			{
				"type": "occ",
				"energy": -0.27397,
				"method": "rhf"
			},
			{
				"type": "occ",
				"energy": -0.21382,
				"method": "rhf"
			},
			{
				"type": "occ",
				"energy": -0.20291,
				"method": "rhf"
			},
			{
				"type": "unocc",
				"energy": -0.02846,
				"method": "rhf"
			},
			{
				"type": "unocc",
				"energy": 0.0059,
				"method": "rhf"
			},
			{
				"type": "unocc",
				"energy": 0.0374,
				"method": "rhf"
			},
			{
				"type": "unocc",
				"energy": 0.04969,
				"method": "rhf"
			},
			{
				"type": "unocc",
				"energy": 0.09568,
				"method": "rhf"
			}
		],
		"cosmo_sigma_profile": { 
			"-0.025": 0.0,
			"-0.024": 0.0,
			"-0.023": 0.0,
			"-0.022": 0.0,
			"-0.021": 0.0,
			"-0.02": 0.0,
			"-0.019": 0.210762876064,
			"-0.018": 0.857164713382,
			"-0.017": 1.22024010833,
			"-0.016": 1.32963507757,
			"-0.015": 0.840267411285,
			"-0.014": 1.41150713816,
			"-0.013": 1.60715088087,
			"-0.012": 1.33154146218,
			"-0.011": 1.42385098298,
			"-0.01": 2.23549993952,
			"-0.009": 1.5698876397,
			"-0.008": 1.07908079809,
			"-0.007": 2.56446717849,
			"-0.006": 8.1847963312,
			"-0.005": 13.0640742235,
			"-0.004": 11.5258300575,
			"-0.003": 10.6365818635,
			"-0.002": 9.88982144097,
			"-0.001": 9.20727843424,
			"0.0": 10.1409263797,
			"0.001": 9.79914720653,
			"0.002": 11.3575950307,
			"0.003": 15.4321795474,
			"0.004": 21.0367280191,
			"0.005": 19.9538505378,
			"0.006": 11.3507580256,
			"0.007": 3.48084158122,
			"0.008": 1.58827281048,
			"0.009": 1.09269831595,
			"0.01": 1.95929688656,
			"0.011": 1.99764660777,
			"0.012": 0.673885957634,
			"0.013": 0.0,
			"0.014": 0.0,
			"0.015": 0.0,
			"0.016": 0.0,
			"0.017": 0.0,
			"0.018": 0.0,
			"0.019": 0.0,
			"0.02": 0.0,
			"0.021": 0.0,
			"0.022": 0.0,
			"0.023": 0.0,
			"0.024": 0.0,
			"0.025": 0.0
		}
	}
}
