{
	 "smiles": "BrC1=CC(C=O)=C(OCC#C)C=C1", 
	 "Tm": 369.15, 
	 "num_atms": 20, 
	 "gaussian": { 
		 "optdone": 1, 
		 "sigma_profile": "yes", 
		 "theory": "DFT", 
		 "functional": "B3LYP", 
		 "basiset": "6-31G**", 
		 "properties": { 
			 "R2extent": 4279.8756, 
			 "electric_dipole_moment_norm": 3.24080172025, 
			 "electric_quadrupole_moment_norm": 15.0550203929, 
			 "total_energy": -3107.02645934, 
			 "HOMO_LUMO_gap": 0.1687, 
			 "cosmo_polarized_energy": -12.84, 
			 "cosmo_cavitation_energy": 28.48, 
			 "cosmo_dispersion_energy": -20.19, 
			 "cosmo_repulsion_energy": 1.6, 
			 "cosmo_total_nonelectrostatic_energy": 9.89, 
			 "SMD_solvation_energy": 6.51 
		},
		"coords": [
			{
				"x": -1.405055062,
				"y": 0.2072486993,
				"z": 3.2669631915,
				"element": "Br" 
			},
			{
				"x": -0.8265234369,
				"y": 0.3282582061,
				"z": 1.4508032948,
				"element": "C" 
			},
			{
				"x": -1.5589377799,
				"y": 1.070687035,
				"z": 0.5344858073,
				"element": "C" 
			},
			{
				"x": -1.1497358743,
				"y": 1.1737069454,
				"z": -0.8019784932,
				"element": "C" 
			},
			{
				"x": -1.999580994,
				"y": 2.0018649149,
				"z": -1.6924623913,
				"element": "C" 
			},
			{
				"x": -1.8208469698,
				"y": 2.2349874752,
				"z": -2.8697500047,
				"element": "O" 
			},
			{
				"x": 0.0307936496,
				"y": 0.504351269,
				"z": -1.2163802272,
				"element": "C" 
			},
			{
				"x": 0.3873981651,
				"y": 0.6443950982,
				"z": -2.515189427,
				"element": "O" 
			},
			{
				"x": 1.6323058986,
				"y": 0.1051332095,
				"z": -2.9696406844,
				"element": "C" 
			},
			{
				"x": 1.6279782564,
				"y": -1.3507370741,
				"z": -3.1273330579,
				"element": "C" 
			},
			{
				"x": 1.6380345569,
				"y": -2.549586792,
				"z": -3.2679139384,
				"element": "C" 
			},
			{
				"x": 0.7554483133,
				"y": -0.2479193852,
				"z": -0.2812973532,
				"element": "C" 
			},
			{
				"x": 0.3299970744,
				"y": -0.3332317098,
				"z": 1.0440383992,
				"element": "C" 
			},
			{
				"x": -2.4619241496,
				"y": 1.5860014584,
				"z": 0.8474427206,
				"element": "H" 
			},
			{
				"x": -2.8800757933,
				"y": 2.4283665228,
				"z": -1.1578647953,
				"element": "H" 
			},
			{
				"x": 2.4469894225,
				"y": 0.4179749945,
				"z": -2.3023408711,
				"element": "H" 
			},
			{
				"x": 1.7925445081,
				"y": 0.5849701911,
				"z": -3.939178116,
				"element": "H" 
			},
			{
				"x": 1.6370059074,
				"y": -3.6077296255,
				"z": -3.3962858762,
				"element": "H" 
			},
			{
				"x": 1.6394816363,
				"y": -0.7967560062,
				"z": -0.5799495741,
				"element": "H" 
			},
			{
				"x": 0.8994026712,
				"y": -0.9212854266,
				"z": 1.7551313965,
				"element": "H" 
			}
		],
		 "valence_orbital": [ 
			{
				"type": "occ",
				"energy": -0.29412,
				"method": "rhf"
			},
			{
				"type": "occ",
				"energy": -0.28725,
				"method": "rhf"
			},
			{
				"type": "occ",
				"energy": -0.27672,
				"method": "rhf"
			},
			{
				"type": "occ",
				"energy": -0.24859,
				"method": "rhf"
			},
			{
				"type": "occ",
				"energy": -0.23461,
				"method": "rhf"
			},
			{
				"type": "unocc",
				"energy": -0.06591,
				"method": "rhf"
			},
			{
				"type": "unocc",
				"energy": -0.01661,
				"method": "rhf"
			},
			{
				"type": "unocc",
				"energy": 0.0004,
				"method": "rhf"
			},
			{
				"type": "unocc",
				"energy": 0.01178,
				"method": "rhf"
			},
			{
				"type": "unocc",
				"energy": 0.02844,
				"method": "rhf"
			}
		],
		"cosmo_sigma_profile": { 
			"-0.025": 0.0,
			"-0.024": 0.0,
			"-0.023": 0.0,
			"-0.022": 0.0,
			"-0.021": 0.0,
			"-0.02": 0.0,
			"-0.019": 0.0,
			"-0.018": 0.0,
			"-0.017": 0.0,
			"-0.016": 0.0,
			"-0.015": 0.0,
			"-0.014": 0.0,
			"-0.013": 0.216838038573,
			"-0.012": 1.299755584,
			"-0.011": 0.927524289595,
			"-0.01": 0.699080990736,
			"-0.009": 5.56951113377,
			"-0.008": 11.154399327,
			"-0.007": 12.0651807467,
			"-0.006": 12.8601663371,
			"-0.005": 10.6214001028,
			"-0.004": 10.8505022828,
			"-0.003": 9.92910009042,
			"-0.002": 11.9456682633,
			"-0.001": 12.9432910247,
			"0.0": 17.6954956857,
			"0.001": 21.6412556474,
			"0.002": 19.7345801386,
			"0.003": 15.2888297521,
			"0.004": 20.2468984285,
			"0.005": 12.1504882887,
			"0.006": 4.40703188608,
			"0.007": 2.49795124995,
			"0.008": 1.71609801858,
			"0.009": 2.67754155636,
			"0.01": 2.44415621932,
			"0.011": 4.09445395359,
			"0.012": 4.31000775746,
			"0.013": 2.06689050611,
			"0.014": 1.39393547707,
			"0.015": 0.110293447932,
			"0.016": 0.0,
			"0.017": 0.0,
			"0.018": 0.0,
			"0.019": 0.0,
			"0.02": 0.0,
			"0.021": 0.0,
			"0.022": 0.0,
			"0.023": 0.0,
			"0.024": 0.0,
			"0.025": 0.0
		}
	}
}
