{
	 "smiles": "CC(N)CCC1=CC=C(O)C=C1", 
	 "Tm": 385.15, 
	 "num_atms": 27, 
	 "gaussian": { 
		 "optdone": 1, 
		 "sigma_profile": "yes", 
		 "theory": "DFT", 
		 "functional": "B3LYP", 
		 "basiset": "6-31G**", 
		 "properties": { 
			 "R2extent": 3832.6097, 
			 "electric_dipole_moment_norm": 1.61878124835, 
			 "electric_quadrupole_moment_norm": 11.6166667366, 
			 "total_energy": -520.085490396, 
			 "HOMO_LUMO_gap": 0.2111, 
			 "cosmo_polarized_energy": -11.99, 
			 "cosmo_cavitation_energy": 29.71, 
			 "cosmo_dispersion_energy": -21.19, 
			 "cosmo_repulsion_energy": 1.72, 
			 "cosmo_total_nonelectrostatic_energy": 10.23, 
			 "SMD_solvation_energy": 3.95 
		},
		"coords": [
			{
				"x": -1.6283500295,
				"y": -2.7797187555,
				"z": -0.3075823581,
				"element": "C" 
			},
			{
				"x": -1.6305561042,
				"y": -1.3808735329,
				"z": -0.9321418002,
				"element": "C" 
			},
			{
				"x": -1.5304503023,
				"y": -1.5215025236,
				"z": -2.3928365002,
				"element": "N" 
			},
			{
				"x": -0.551109122,
				"y": -0.4869028913,
				"z": -0.2826000666,
				"element": "C" 
			},
			{
				"x": -0.5514075878,
				"y": 0.9723713519,
				"z": -0.7782245447,
				"element": "C" 
			},
			{
				"x": 0.5014560099,
				"y": 1.8313249226,
				"z": -0.1109291125,
				"element": "C" 
			},
			{
				"x": 0.2203020885,
				"y": 2.545570675,
				"z": 1.0594424146,
				"element": "C" 
			},
			{
				"x": 1.1967217028,
				"y": 3.3103204,
				"z": 1.6989668642,
				"element": "C" 
			},
			{
				"x": 2.4892351043,
				"y": 3.3732731634,
				"z": 1.1700442812,
				"element": "C" 
			},
			{
				"x": 3.4915945137,
				"y": 4.1060268284,
				"z": 1.7447317105,
				"element": "O" 
			},
			{
				"x": 2.7919014072,
				"y": 2.6688534515,
				"z": -0.0000952172,
				"element": "C" 
			},
			{
				"x": 1.8047456897,
				"y": 1.911701475,
				"z": -0.6244108171,
				"element": "C" 
			},
			{
				"x": -0.6669160676,
				"y": -3.2797831563,
				"z": -0.4811539481,
				"element": "H" 
			},
			{
				"x": -2.4131981,
				"y": -3.3966573842,
				"z": -0.7527810309,
				"element": "H" 
			},
			{
				"x": -1.7857881133,
				"y": -2.7324505461,
				"z": 0.7747565274,
				"element": "H" 
			},
			{
				"x": -2.6106221266,
				"y": -0.9213753973,
				"z": -0.7358733177,
				"element": "H" 
			},
			{
				"x": -1.6054638666,
				"y": -0.613923227,
				"z": -2.8452702864,
				"element": "H" 
			},
			{
				"x": -0.6119124445,
				"y": -1.8893629942,
				"z": -2.6379446679,
				"element": "H" 
			},
			{
				"x": 0.4386860628,
				"y": -0.9308218998,
				"z": -0.4642700479,
				"element": "H" 
			},
			{
				"x": -0.6895823405,
				"y": -0.4881557862,
				"z": 0.8068089454,
				"element": "H" 
			},
			{
				"x": -1.5447924954,
				"y": 1.4071833469,
				"z": -0.6048783653,
				"element": "H" 
			},
			{
				"x": -0.3920847138,
				"y": 0.9851227045,
				"z": -1.8638312147,
				"element": "H" 
			},
			{
				"x": -0.7816441566,
				"y": 2.5099447471,
				"z": 1.4809082158,
				"element": "H" 
			},
			{
				"x": 0.9514774741,
				"y": 3.8611127059,
				"z": 2.6051778946,
				"element": "H" 
			},
			{
				"x": 3.1497312262,
				"y": 4.5392213092,
				"z": 2.5373781466,
				"element": "H" 
			},
			{
				"x": 3.7968831483,
				"y": 2.7309875841,
				"z": -0.4047252655,
				"element": "H" 
			},
			{
				"x": 2.0521431432,
				"y": 1.3729134289,
				"z": -1.5363664393,
				"element": "H" 
			}
		],
		 "valence_orbital": [ 
			{
				"type": "occ",
				"energy": -0.32509,
				"method": "rhf"
			},
			{
				"type": "occ",
				"energy": -0.31546,
				"method": "rhf"
			},
			{
				"type": "occ",
				"energy": -0.24917,
				"method": "rhf"
			},
			{
				"type": "occ",
				"energy": -0.23203,
				"method": "rhf"
			},
			{
				"type": "occ",
				"energy": -0.21185,
				"method": "rhf"
			},
			{
				"type": "unocc",
				"energy": -0.00075,
				"method": "rhf"
			},
			{
				"type": "unocc",
				"energy": 0.01566,
				"method": "rhf"
			},
			{
				"type": "unocc",
				"energy": 0.07111,
				"method": "rhf"
			},
			{
				"type": "unocc",
				"energy": 0.07847,
				"method": "rhf"
			},
			{
				"type": "unocc",
				"energy": 0.09664,
				"method": "rhf"
			}
		],
		"cosmo_sigma_profile": { 
			"-0.025": 0.0,
			"-0.024": 0.0,
			"-0.023": 0.0,
			"-0.022": 0.0,
			"-0.021": 0.0,
			"-0.02": 0.0,
			"-0.019": 0.0,
			"-0.018": 0.0805813810186,
			"-0.017": 0.852353017937,
			"-0.016": 1.4768997892,
			"-0.015": 0.734310701001,
			"-0.014": 0.864900557077,
			"-0.013": 1.06657503418,
			"-0.012": 1.11275023632,
			"-0.011": 1.0559478022,
			"-0.01": 0.812021001723,
			"-0.009": 2.05722229493,
			"-0.008": 3.95030655363,
			"-0.007": 4.24587861279,
			"-0.006": 5.38101638831,
			"-0.005": 10.7012770012,
			"-0.004": 13.6242276796,
			"-0.003": 20.9100788225,
			"-0.002": 27.0413941868,
			"-0.001": 22.0184535956,
			"0.0": 17.3896584968,
			"0.001": 18.3885946371,
			"0.002": 12.8285759381,
			"0.003": 10.5315055849,
			"0.004": 11.6274760533,
			"0.005": 10.8095903796,
			"0.006": 10.7346128967,
			"0.007": 4.83579260543,
			"0.008": 2.87253841577,
			"0.009": 1.756262339,
			"0.01": 2.35425991281,
			"0.011": 2.85739787866,
			"0.012": 1.96677079951,
			"0.013": 0.484412198375,
			"0.014": 0.700514146464,
			"0.015": 0.605177064157,
			"0.016": 0.481947398346,
			"0.017": 0.831956621156,
			"0.018": 0.545407021912,
			"0.019": 0.545684014936,
			"0.02": 0.370469750096,
			"0.021": 0.0,
			"0.022": 0.0,
			"0.023": 0.0,
			"0.024": 0.0,
			"0.025": 0.0
		}
	}
}
