{
	 "smiles": "COCCS(=O)(=O)CC1=CC(=CC=C1)S(Cl)(=O)=O", 
	 "Tm": 383.15, 
	 "num_atms": 31, 
	 "gaussian": { 
		 "optdone": 1, 
		 "sigma_profile": "yes", 
		 "theory": "DFT", 
		 "functional": "B3LYP", 
		 "basiset": "6-31G**", 
		 "properties": { 
			 "R2extent": 7097.4193, 
			 "electric_dipole_moment_norm": 1.08974836086, 
			 "electric_quadrupole_moment_norm": 31.4802939191, 
			 "total_energy": -2021.4366421, 
			 "HOMO_LUMO_gap": 0.1688, 
			 "cosmo_polarized_energy": -22.78, 
			 "cosmo_cavitation_energy": 39.63, 
			 "cosmo_dispersion_energy": -27.15, 
			 "cosmo_repulsion_energy": 2.0, 
			 "cosmo_total_nonelectrostatic_energy": 14.48, 
			 "SMD_solvation_energy": 4.96 
		},
		"coords": [
			{
				"x": -3.5392971392,
				"y": 1.5390388314,
				"z": 0.1247326851,
				"element": "C" 
			},
			{
				"x": -2.5245314226,
				"y": 2.4241593842,
				"z": -0.3189133699,
				"element": "O" 
			},
			{
				"x": -1.2095163128,
				"y": 1.935131236,
				"z": -0.1607970209,
				"element": "C" 
			},
			{
				"x": -0.7299810135,
				"y": 2.1020831145,
				"z": 1.2910778808,
				"element": "C" 
			},
			{
				"x": 1.0529388527,
				"y": 1.8290556921,
				"z": 1.5479748961,
				"element": "S" 
			},
			{
				"x": 1.767940456,
				"y": 2.2404657053,
				"z": 0.3262996551,
				"element": "O" 
			},
			{
				"x": 1.4026580425,
				"y": 2.4071487796,
				"z": 2.8538727132,
				"element": "O" 
			},
			{
				"x": 1.2809705061,
				"y": 0.0104886823,
				"z": 1.7473169579,
				"element": "C" 
			},
			{
				"x": 0.987365319,
				"y": -0.8316544864,
				"z": 0.5370025873,
				"element": "C" 
			},
			{
				"x": -0.0702445219,
				"y": -1.7471401766,
				"z": 0.5592092542,
				"element": "C" 
			},
			{
				"x": -0.3084560995,
				"y": -2.5343910035,
				"z": -0.567393637,
				"element": "C" 
			},
			{
				"x": 0.4667410122,
				"y": -2.4466124347,
				"z": -1.7226351317,
				"element": "C" 
			},
			{
				"x": 1.5171805117,
				"y": -1.5284781113,
				"z": -1.7365128136,
				"element": "C" 
			},
			{
				"x": 1.7754616928,
				"y": -0.7304361055,
				"z": -0.6222763788,
				"element": "C" 
			},
			{
				"x": -1.6498822556,
				"y": -3.7147855675,
				"z": -0.5122324128,
				"element": "S" 
			},
			{
				"x": -3.2547117855,
				"y": -2.5548175694,
				"z": -1.3226250812,
				"element": "Cl" 
			},
			{
				"x": -2.0045006652,
				"y": -3.9772410545,
				"z": 0.8768188204,
				"element": "O" 
			},
			{
				"x": -1.3991698674,
				"y": -4.7805486779,
				"z": -1.472716714,
				"element": "O" 
			},
			{
				"x": -3.4526185869,
				"y": 0.5524016721,
				"z": -0.3537473537,
				"element": "H" 
			},
			{
				"x": -3.5336338293,
				"y": 1.3998906102,
				"z": 1.2161591383,
				"element": "H" 
			},
			{
				"x": -4.4940572975,
				"y": 1.987367883,
				"z": -0.1581656359,
				"element": "H" 
			},
			{
				"x": -1.1385632612,
				"y": 0.8854734943,
				"z": -0.4791638705,
				"element": "H" 
			},
			{
				"x": -0.5678498552,
				"y": 2.5321768001,
				"z": -0.8127630865,
				"element": "H" 
			},
			{
				"x": -0.8703555808,
				"y": 3.1393278961,
				"z": 1.6102475233,
				"element": "H" 
			},
			{
				"x": -1.2527651599,
				"y": 1.4571442057,
				"z": 2.0032106043,
				"element": "H" 
			},
			{
				"x": 0.6819046998,
				"y": -0.2766804172,
				"z": 2.6145474894,
				"element": "H" 
			},
			{
				"x": 2.3356584892,
				"y": -0.0383970438,
				"z": 2.0366140819,
				"element": "H" 
			},
			{
				"x": -0.6902295637,
				"y": -1.8672532707,
				"z": 1.441554209,
				"element": "H" 
			},
			{
				"x": 0.2584251542,
				"y": -3.084330044,
				"z": -2.5741982188,
				"element": "H" 
			},
			{
				"x": 2.1406889715,
				"y": -1.4391745472,
				"z": -2.620179529,
				"element": "H" 
			},
			{
				"x": 2.5844305099,
				"y": -0.0083134769,
				"z": -0.6484182421,
				"element": "H" 
			}
		],
		 "valence_orbital": [ 
			{
				"type": "occ",
				"energy": -0.31696,
				"method": "rhf"
			},
			{
				"type": "occ",
				"energy": -0.31241,
				"method": "rhf"
			},
			{
				"type": "occ",
				"energy": -0.30148,
				"method": "rhf"
			},
			{
				"type": "occ",
				"energy": -0.28607,
				"method": "rhf"
			},
			{
				"type": "occ",
				"energy": -0.27171,
				"method": "rhf"
			},
			{
				"type": "unocc",
				"energy": -0.10291,
				"method": "rhf"
			},
			{
				"type": "unocc",
				"energy": -0.0618,
				"method": "rhf"
			},
			{
				"type": "unocc",
				"energy": -0.05511,
				"method": "rhf"
			},
			{
				"type": "unocc",
				"energy": 0.03287,
				"method": "rhf"
			},
			{
				"type": "unocc",
				"energy": 0.03753,
				"method": "rhf"
			}
		],
		"cosmo_sigma_profile": { 
			"-0.025": 0.0,
			"-0.024": 0.0,
			"-0.023": 0.0,
			"-0.022": 0.0,
			"-0.021": 0.0,
			"-0.02": 0.0,
			"-0.019": 0.0,
			"-0.018": 0.0,
			"-0.017": 0.0,
			"-0.016": 0.0,
			"-0.015": 0.0,
			"-0.014": 0.0,
			"-0.013": 0.0848153469503,
			"-0.012": 0.803633620659,
			"-0.011": 2.50516161052,
			"-0.01": 4.8471096305,
			"-0.009": 7.08502084147,
			"-0.008": 11.2673452502,
			"-0.007": 15.2595080287,
			"-0.006": 15.0321413246,
			"-0.005": 17.628728421,
			"-0.004": 18.6538619057,
			"-0.003": 21.7506872662,
			"-0.002": 27.0532923531,
			"-0.001": 24.6263112929,
			"0.0": 22.2872696284,
			"0.001": 18.0183322599,
			"0.002": 12.305945294,
			"0.003": 15.4268586962,
			"0.004": 12.7893502356,
			"0.005": 6.81475514156,
			"0.006": 6.11838347188,
			"0.007": 9.86603454635,
			"0.008": 13.9939716496,
			"0.009": 7.93125772774,
			"0.01": 5.70470555343,
			"0.011": 9.72216568726,
			"0.012": 8.73825657648,
			"0.013": 1.11119794597,
			"0.014": 0.0,
			"0.015": 0.0,
			"0.016": 0.0,
			"0.017": 0.0,
			"0.018": 0.0,
			"0.019": 0.0,
			"0.02": 0.0,
			"0.021": 0.0,
			"0.022": 0.0,
			"0.023": 0.0,
			"0.024": 0.0,
			"0.025": 0.0
		}
	}
}
