{
	 "smiles": "CCC1=C2NC=C(CC(O)=O)C2=CC=C1", 
	 "Tm": 449.15, 
	 "num_atms": 28, 
	 "gaussian": { 
		 "optdone": 1, 
		 "sigma_profile": "yes", 
		 "theory": "DFT", 
		 "functional": "B3LYP", 
		 "basiset": "6-31G**", 
		 "properties": { 
			 "R2extent": 4027.8694, 
			 "electric_dipole_moment_norm": 3.60565985501, 
			 "electric_quadrupole_moment_norm": 6.20637552441, 
			 "total_energy": -670.343140005, 
			 "HOMO_LUMO_gap": 0.18991, 
			 "cosmo_polarized_energy": -14.97, 
			 "cosmo_cavitation_energy": 31.75, 
			 "cosmo_dispersion_energy": -22.42, 
			 "cosmo_repulsion_energy": 1.77, 
			 "cosmo_total_nonelectrostatic_energy": 11.11, 
			 "SMD_solvation_energy": 6.25 
		},
		"coords": [
			{
				"x": 1.2103678356,
				"y": 2.5494835831,
				"z": 3.4478612677,
				"element": "C" 
			},
			{
				"x": 0.0852162277,
				"y": 2.5049248414,
				"z": 2.3963904129,
				"element": "C" 
			},
			{
				"x": 0.059863316,
				"y": 1.2228420756,
				"z": 1.5942791509,
				"element": "C" 
			},
			{
				"x": 0.9665201988,
				"y": 0.984965854,
				"z": 0.5462653437,
				"element": "C" 
			},
			{
				"x": 1.9635712851,
				"y": 1.7980985115,
				"z": 0.0371452911,
				"element": "N" 
			},
			{
				"x": 2.599467856,
				"y": 1.1450180868,
				"z": -1.0007948205,
				"element": "C" 
			},
			{
				"x": 2.0396376915,
				"y": -0.0941719669,
				"z": -1.1826746731,
				"element": "C" 
			},
			{
				"x": 2.4591016366,
				"y": -1.1263131515,
				"z": -2.1954877876,
				"element": "C" 
			},
			{
				"x": 1.3687245214,
				"y": -1.3906257319,
				"z": -3.220460457,
				"element": "C" 
			},
			{
				"x": 1.3777365714,
				"y": -0.475192839,
				"z": -4.2186671134,
				"element": "O" 
			},
			{
				"x": 0.5585891011,
				"y": -2.290568637,
				"z": -3.1693362112,
				"element": "O" 
			},
			{
				"x": 0.9844330878,
				"y": -0.2197116555,
				"z": -0.20622659,
				"element": "C" 
			},
			{
				"x": 0.0561523957,
				"y": -1.2322900968,
				"z": 0.097344398,
				"element": "C" 
			},
			{
				"x": -0.8442314789,
				"y": -1.0132255122,
				"z": 1.1305482758,
				"element": "C" 
			},
			{
				"x": -0.8394374855,
				"y": 0.1923389288,
				"z": 1.8621088865,
				"element": "C" 
			},
			{
				"x": 1.0947877822,
				"y": 1.7368108668,
				"z": 4.1713874934,
				"element": "H" 
			},
			{
				"x": 2.1970025373,
				"y": 2.4353494412,
				"z": 2.986089731,
				"element": "H" 
			},
			{
				"x": 1.2006738824,
				"y": 3.4981093291,
				"z": 3.9951416247,
				"element": "H" 
			},
			{
				"x": 0.1859093317,
				"y": 3.3662633675,
				"z": 1.7203475154,
				"element": "H" 
			},
			{
				"x": -0.880726248,
				"y": 2.630764933,
				"z": 2.8978083998,
				"element": "H" 
			},
			{
				"x": 2.1914870773,
				"y": 2.7210276736,
				"z": 0.3664410918,
				"element": "H" 
			},
			{
				"x": 3.4143370867,
				"y": 1.6161175931,
				"z": -1.5327566701,
				"element": "H" 
			},
			{
				"x": 2.6719616622,
				"y": -2.0838270338,
				"z": -1.7097876605,
				"element": "H" 
			},
			{
				"x": 3.3610945896,
				"y": -0.7912878745,
				"z": -2.7158320662,
				"element": "H" 
			},
			{
				"x": 0.6264399052,
				"y": -0.6990323667,
				"z": -4.7935969582,
				"element": "H" 
			},
			{
				"x": 0.0355253227,
				"y": -2.150108106,
				"z": -0.4817231869,
				"element": "H" 
			},
			{
				"x": -1.574238795,
				"y": -1.7781180826,
				"z": 1.3791823585,
				"element": "H" 
			},
			{
				"x": -1.5652668946,
				"y": 0.3295579689,
				"z": 2.6603029533,
				"element": "H" 
			}
		],
		 "valence_orbital": [ 
			{
				"type": "occ",
				"energy": -0.31247,
				"method": "rhf"
			},
			{
				"type": "occ",
				"energy": -0.27599,
				"method": "rhf"
			},
			{
				"type": "occ",
				"energy": -0.25836,
				"method": "rhf"
			},
			{
				"type": "occ",
				"energy": -0.21589,
				"method": "rhf"
			},
			{
				"type": "occ",
				"energy": -0.19704,
				"method": "rhf"
			},
			{
				"type": "unocc",
				"energy": -0.00713,
				"method": "rhf"
			},
			{
				"type": "unocc",
				"energy": 0.01472,
				"method": "rhf"
			},
			{
				"type": "unocc",
				"energy": 0.03097,
				"method": "rhf"
			},
			{
				"type": "unocc",
				"energy": 0.06094,
				"method": "rhf"
			},
			{
				"type": "unocc",
				"energy": 0.07552,
				"method": "rhf"
			}
		],
		"cosmo_sigma_profile": { 
			"-0.025": 0.0,
			"-0.024": 0.0,
			"-0.023": 0.0,
			"-0.022": 0.0,
			"-0.021": 0.0,
			"-0.02": 0.0,
			"-0.019": 0.0,
			"-0.018": 0.66618910163,
			"-0.017": 0.876985057394,
			"-0.016": 0.888744296007,
			"-0.015": 1.52500776125,
			"-0.014": 1.94403859947,
			"-0.013": 1.65896032938,
			"-0.012": 1.47521090305,
			"-0.011": 1.21955365301,
			"-0.01": 3.17289234398,
			"-0.009": 2.71514987314,
			"-0.008": 3.7532919361,
			"-0.007": 5.19586196516,
			"-0.006": 6.4696376404,
			"-0.005": 9.87160617498,
			"-0.004": 14.6429260929,
			"-0.003": 20.3415302426,
			"-0.002": 21.1743986108,
			"-0.001": 22.4384336922,
			"0.0": 19.5769853886,
			"0.001": 17.3846893213,
			"0.002": 12.4244724936,
			"0.003": 10.5650300793,
			"0.004": 12.8417179026,
			"0.005": 17.8791238325,
			"0.006": 12.5198769992,
			"0.007": 9.81254571194,
			"0.008": 4.70022491516,
			"0.009": 3.14454109171,
			"0.01": 2.71169168534,
			"0.011": 3.07929363272,
			"0.012": 3.88510483697,
			"0.013": 0.342472928685,
			"0.014": 0.0,
			"0.015": 0.0,
			"0.016": 0.0,
			"0.017": 0.0,
			"0.018": 0.0,
			"0.019": 0.0,
			"0.02": 0.0,
			"0.021": 0.0,
			"0.022": 0.0,
			"0.023": 0.0,
			"0.024": 0.0,
			"0.025": 0.0
		}
	}
}
