{
	 "smiles": "NC1=CC=C(C=C1)C(=O)N1CCC(CO)CC1", 
	 "Tm": 412.15, 
	 "num_atms": 35, 
	 "gaussian": { 
		 "optdone": 1, 
		 "sigma_profile": "yes", 
		 "theory": "DFT", 
		 "functional": "B3LYP", 
		 "basiset": "6-31G**", 
		 "properties": { 
			 "R2extent": 6153.7927, 
			 "electric_dipole_moment_norm": 3.44155146119, 
			 "electric_quadrupole_moment_norm": 34.2289319224, 
			 "total_energy": -766.191892722, 
			 "HOMO_LUMO_gap": 0.19371, 
			 "cosmo_polarized_energy": -20.46, 
			 "cosmo_cavitation_energy": 36.33, 
			 "cosmo_dispersion_energy": -26.34, 
			 "cosmo_repulsion_energy": 2.06, 
			 "cosmo_total_nonelectrostatic_energy": 12.05, 
			 "SMD_solvation_energy": 5.32 
		},
		"coords": [
			{
				"x": 1.6366639052,
				"y": 2.311467514,
				"z": -5.3986434113,
				"element": "N" 
			},
			{
				"x": 0.9624021369,
				"y": 2.0239307221,
				"z": -4.2156816703,
				"element": "C" 
			},
			{
				"x": 0.4926159239,
				"y": 0.7252610594,
				"z": -3.9511081374,
				"element": "C" 
			},
			{
				"x": -0.1216125409,
				"y": 0.4285397262,
				"z": -2.7387598419,
				"element": "C" 
			},
			{
				"x": -0.2977281783,
				"y": 1.4115578537,
				"z": -1.7537769258,
				"element": "C" 
			},
			{
				"x": 0.1427611354,
				"y": 2.7138566096,
				"z": -2.0373596615,
				"element": "C" 
			},
			{
				"x": 0.7746508039,
				"y": 3.0166035511,
				"z": -3.234787956,
				"element": "C" 
			},
			{
				"x": -1.0436692112,
				"y": 1.1949451933,
				"z": -0.4712659893,
				"element": "C" 
			},
			{
				"x": -1.7661505937,
				"y": 2.0848276088,
				"z": -0.0165470118,
				"element": "O" 
			},
			{
				"x": -0.9411701496,
				"y": -0.0199782871,
				"z": 0.1724648639,
				"element": "N" 
			},
			{
				"x": 0.1890457954,
				"y": -0.949668731,
				"z": 0.032473157,
				"element": "C" 
			},
			{
				"x": 0.7178033835,
				"y": -1.3637834537,
				"z": 1.4107445116,
				"element": "C" 
			},
			{
				"x": -0.3553560741,
				"y": -2.1085887833,
				"z": 2.2388882806,
				"element": "C" 
			},
			{
				"x": -0.0982494464,
				"y": -1.9166532716,
				"z": 3.7329797444,
				"element": "C" 
			},
			{
				"x": -0.9917568386,
				"y": -2.7552055803,
				"z": 4.4548190625,
				"element": "O" 
			},
			{
				"x": -1.7750928427,
				"y": -1.6448903443,
				"z": 1.8287136767,
				"element": "C" 
			},
			{
				"x": -1.7986739768,
				"y": -0.1912218361,
				"z": 1.3586086352,
				"element": "C" 
			},
			{
				"x": 1.6391253761,
				"y": 3.2833251366,
				"z": -5.6749571922,
				"element": "H" 
			},
			{
				"x": 1.4460132584,
				"y": 1.6917128758,
				"z": -6.1734575739,
				"element": "H" 
			},
			{
				"x": 0.6076589817,
				"y": -0.0500458631,
				"z": -4.704793509,
				"element": "H" 
			},
			{
				"x": -0.4962216316,
				"y": -0.5770476491,
				"z": -2.5743726648,
				"element": "H" 
			},
			{
				"x": -0.0339404744,
				"y": 3.4892121851,
				"z": -1.2991358624,
				"element": "H" 
			},
			{
				"x": 1.1228072849,
				"y": 4.0289518039,
				"z": -3.4256112318,
				"element": "H" 
			},
			{
				"x": -0.1087750482,
				"y": -1.8485147084,
				"z": -0.5281986055,
				"element": "H" 
			},
			{
				"x": 0.9771030193,
				"y": -0.4610263305,
				"z": -0.5415632212,
				"element": "H" 
			},
			{
				"x": 1.0399636961,
				"y": -0.4561963352,
				"z": 1.938844953,
				"element": "H" 
			},
			{
				"x": 1.6107013302,
				"y": -1.9863487898,
				"z": 1.2850355938,
				"element": "H" 
			},
			{
				"x": -0.2758703941,
				"y": -3.1852796908,
				"z": 2.0441784111,
				"element": "H" 
			},
			{
				"x": 0.9519154256,
				"y": -2.1659194187,
				"z": 3.9588539571,
				"element": "H" 
			},
			{
				"x": -0.2447651881,
				"y": -0.8553291893,
				"z": 3.9966000734,
				"element": "H" 
			},
			{
				"x": -0.8995961779,
				"y": -2.5581768871,
				"z": 5.3947265674,
				"element": "H" 
			},
			{
				"x": -2.4590586526,
				"y": -1.7744996622,
				"z": 2.672458048,
				"element": "H" 
			},
			{
				"x": -2.1542354067,
				"y": -2.2818450535,
				"z": 1.0210538619,
				"element": "H" 
			},
			{
				"x": -2.8099950305,
				"y": 0.1247125923,
				"z": 1.0920170514,
				"element": "H" 
			},
			{
				"x": -1.4739136003,
				"y": 0.4879154332,
				"z": 2.1603600169,
				"element": "H" 
			}
		],
		 "valence_orbital": [ 
			{
				"type": "occ",
				"energy": -0.26823,
				"method": "rhf"
			},
			{
				"type": "occ",
				"energy": -0.24882,
				"method": "rhf"
			},
			{
				"type": "occ",
				"energy": -0.23515,
				"method": "rhf"
			},
			{
				"type": "occ",
				"energy": -0.22021,
				"method": "rhf"
			},
			{
				"type": "occ",
				"energy": -0.20265,
				"method": "rhf"
			},
			{
				"type": "unocc",
				"energy": -0.00894,
				"method": "rhf"
			},
			{
				"type": "unocc",
				"energy": 0.00233,
				"method": "rhf"
			},
			{
				"type": "unocc",
				"energy": 0.06797,
				"method": "rhf"
			},
			{
				"type": "unocc",
				"energy": 0.07324,
				"method": "rhf"
			},
			{
				"type": "unocc",
				"energy": 0.08097,
				"method": "rhf"
			}
		],
		"cosmo_sigma_profile": { 
			"-0.025": 0.0,
			"-0.024": 0.0,
			"-0.023": 0.0,
			"-0.022": 0.0,
			"-0.021": 0.0,
			"-0.02": 0.0,
			"-0.019": 0.0,
			"-0.018": 0.0,
			"-0.017": 0.0,
			"-0.016": 0.272992945428,
			"-0.015": 0.955698369864,
			"-0.014": 1.30054126169,
			"-0.013": 1.61370301756,
			"-0.012": 3.78746825566,
			"-0.011": 3.86624464874,
			"-0.01": 3.65004290896,
			"-0.009": 3.97206889568,
			"-0.008": 3.89042917476,
			"-0.007": 3.91212351859,
			"-0.006": 6.61742219148,
			"-0.005": 8.24633708085,
			"-0.004": 20.5953322614,
			"-0.003": 37.0174863008,
			"-0.002": 37.1195993149,
			"-0.001": 24.4751275639,
			"0.0": 17.1458075945,
			"0.001": 13.0108152006,
			"0.002": 10.878544668,
			"0.003": 10.3149596885,
			"0.004": 9.21813290801,
			"0.005": 13.8559783139,
			"0.006": 10.5285783896,
			"0.007": 4.53104971708,
			"0.008": 3.9169530981,
			"0.009": 4.0392142137,
			"0.01": 3.19826162013,
			"0.011": 3.71633532866,
			"0.012": 3.71116322067,
			"0.013": 3.73694455832,
			"0.014": 5.52866099822,
			"0.015": 4.50456785359,
			"0.016": 0.247733476104,
			"0.017": 0.0,
			"0.018": 0.0,
			"0.019": 0.0,
			"0.02": 0.0,
			"0.021": 0.0,
			"0.022": 0.0,
			"0.023": 0.0,
			"0.024": 0.0,
			"0.025": 0.0
		}
	}
}
