{
	 "smiles": "CC(=O)C(=N/C1=CC=CC=C1)C1=CC(C(=NC2=CC=CC=C2)C(C)=O)=C(C=C1[N+]([O-])=O)[N+]([O-])=O", 
	 "Tm": 447.15, 
	 "num_atms": 52, 
	 "gaussian": { 
		 "optdone": 1, 
		 "sigma_profile": "yes", 
		 "theory": "DFT", 
		 "functional": "B3LYP", 
		 "basiset": "6-31G**", 
		 "properties": { 
			 "R2extent": 18698.1691, 
			 "electric_dipole_moment_norm": 4.40428039979, 
			 "electric_quadrupole_moment_norm": 25.1906042182, 
			 "total_energy": -1595.492005, 
			 "HOMO_LUMO_gap": 0.11063, 
			 "cosmo_polarized_energy": -18.56, 
			 "cosmo_cavitation_energy": 59.3, 
			 "cosmo_dispersion_energy": -38.15, 
			 "cosmo_repulsion_energy": 2.86, 
			 "cosmo_total_nonelectrostatic_energy": 24.01, 
			 "SMD_solvation_energy": 12.72 
		},
		"coords": [
			{
				"x": -0.7174221575,
				"y": -2.3360476995,
				"z": -2.9863737205,
				"element": "C" 
			},
			{
				"x": -0.1112996918,
				"y": -1.4184666339,
				"z": -1.9550137689,
				"element": "C" 
			},
			{
				"x": 0.9920706596,
				"y": -1.5809894986,
				"z": -1.4662320295,
				"element": "O" 
			},
			{
				"x": -0.9944553046,
				"y": -0.2681707515,
				"z": -1.4537342433,
				"element": "C" 
			},
			{
				"x": -1.3921931819,
				"y": 0.7383498416,
				"z": -2.1298805571,
				"element": "N" 
			},
			{
				"x": -0.9958705749,
				"y": 0.9677083008,
				"z": -3.4628821612,
				"element": "C" 
			},
			{
				"x": -1.9957691201,
				"y": 1.3086982126,
				"z": -4.3889793272,
				"element": "C" 
			},
			{
				"x": -1.6563318594,
				"y": 1.5749127371,
				"z": -5.712402465,
				"element": "C" 
			},
			{
				"x": -0.3180743333,
				"y": 1.5502980843,
				"z": -6.1185698383,
				"element": "C" 
			},
			{
				"x": 0.6799783654,
				"y": 1.250226369,
				"z": -5.1906869943,
				"element": "C" 
			},
			{
				"x": 0.3497559585,
				"y": 0.9537975204,
				"z": -3.8675893331,
				"element": "C" 
			},
			{
				"x": -1.3994104565,
				"y": -0.3355537461,
				"z": -0.0141142298,
				"element": "C" 
			},
			{
				"x": -0.4176224108,
				"y": -0.3744110065,
				"z": 0.9812928573,
				"element": "C" 
			},
			{
				"x": -0.7242782988,
				"y": -0.3308076167,
				"z": 2.3478215709,
				"element": "C" 
			},
			{
				"x": 0.4214413063,
				"y": -0.4431108693,
				"z": 3.3105542423,
				"element": "C" 
			},
			{
				"x": 1.4790720877,
				"y": 0.2136626474,
				"z": 3.0195592289,
				"element": "N" 
			},
			{
				"x": 2.7093949446,
				"y": 0.0476281785,
				"z": 3.6816636922,
				"element": "C" 
			},
			{
				"x": 3.3767567093,
				"y": 1.1906654007,
				"z": 4.1523508675,
				"element": "C" 
			},
			{
				"x": 4.6223499218,
				"y": 1.0679142423,
				"z": 4.7619154046,
				"element": "C" 
			},
			{
				"x": 5.2399151883,
				"y": -0.1823505279,
				"z": 4.8673902211,
				"element": "C" 
			},
			{
				"x": 4.5977198433,
				"y": -1.3133765501,
				"z": 4.3611581261,
				"element": "C" 
			},
			{
				"x": 3.3363886646,
				"y": -1.2066146223,
				"z": 3.775025016,
				"element": "C" 
			},
			{
				"x": 0.2510785075,
				"y": -1.4732700037,
				"z": 4.4353541126,
				"element": "C" 
			},
			{
				"x": 0.7833329057,
				"y": -1.1874835135,
				"z": 5.8222696533,
				"element": "C" 
			},
			{
				"x": -0.3386450379,
				"y": -2.5031838714,
				"z": 4.1623989041,
				"element": "O" 
			},
			{
				"x": -2.080620718,
				"y": -0.2143438296,
				"z": 2.6951303291,
				"element": "C" 
			},
			{
				"x": -3.0883570358,
				"y": -0.2003270822,
				"z": 1.7372831712,
				"element": "C" 
			},
			{
				"x": -2.7397507467,
				"y": -0.2865615997,
				"z": 0.3983460505,
				"element": "C" 
			},
			{
				"x": -3.8461156846,
				"y": -0.3833880529,
				"z": -0.5710222204,
				"element": "N" 
			},
			{
				"x": -4.8795044922,
				"y": 0.2222270662,
				"z": -0.3061627415,
				"element": "O" 
			},
			{
				"x": -3.6737487782,
				"y": -1.1020942055,
				"z": -1.5540837719,
				"element": "O" 
			},
			{
				"x": -2.5060818743,
				"y": -0.034816273,
				"z": 4.0921912017,
				"element": "N" 
			},
			{
				"x": -3.6946604473,
				"y": -0.1797319801,
				"z": 4.3544421098,
				"element": "O" 
			},
			{
				"x": -1.641841569,
				"y": 0.2827144533,
				"z": 4.913854657,
				"element": "O" 
			},
			{
				"x": -1.6084097101,
				"y": -2.8092084658,
				"z": -2.5568453294,
				"element": "H" 
			},
			{
				"x": 0.0116914528,
				"y": -3.0947224235,
				"z": -3.2748356528,
				"element": "H" 
			},
			{
				"x": -1.0502161719,
				"y": -1.7725980742,
				"z": -3.8625113313,
				"element": "H" 
			},
			{
				"x": -3.0275723635,
				"y": 1.3413004058,
				"z": -4.0546109834,
				"element": "H" 
			},
			{
				"x": -2.4374955004,
				"y": 1.8169572286,
				"z": -6.4270843286,
				"element": "H" 
			},
			{
				"x": -0.0562099919,
				"y": 1.7771393527,
				"z": -7.1475499758,
				"element": "H" 
			},
			{
				"x": 1.7230913062,
				"y": 1.2474547067,
				"z": -5.49332684,
				"element": "H" 
			},
			{
				"x": 1.1283616496,
				"y": 0.7432608279,
				"z": -3.1415717762,
				"element": "H" 
			},
			{
				"x": 0.6229160147,
				"y": -0.4423602331,
				"z": 0.6888337647,
				"element": "H" 
			},
			{
				"x": 2.8987920001,
				"y": 2.1588704488,
				"z": 4.0431765627,
				"element": "H" 
			},
			{
				"x": 5.1210835461,
				"y": 1.9544451824,
				"z": 5.1426984739,
				"element": "H" 
			},
			{
				"x": 6.2197028377,
				"y": -0.27026011,
				"z": 5.3266661085,
				"element": "H" 
			},
			{
				"x": 5.0787581497,
				"y": -2.2855453105,
				"z": 4.4190106526,
				"element": "H" 
			},
			{
				"x": 2.8470333574,
				"y": -2.0822758794,
				"z": 3.3586377111,
				"element": "H" 
			},
			{
				"x": 1.5797188395,
				"y": -1.8969170803,
				"z": 6.0632697723,
				"element": "H" 
			},
			{
				"x": -0.0389893286,
				"y": -1.3480220219,
				"z": 6.5247365797,
				"element": "H" 
			},
			{
				"x": 1.1643153336,
				"y": -0.1723023573,
				"z": 5.9315792355,
				"element": "H" 
			},
			{
				"x": -4.1252727099,
				"y": -0.1228193172,
				"z": 2.0351533421,
				"element": "H" 
			}
		],
		 "valence_orbital": [ 
			{
				"type": "occ",
				"energy": -0.26805,
				"method": "rhf"
			},
			{
				"type": "occ",
				"energy": -0.26402,
				"method": "rhf"
			},
			{
				"type": "occ",
				"energy": -0.26369,
				"method": "rhf"
			},
			{
				"type": "occ",
				"energy": -0.23474,
				"method": "rhf"
			},
			{
				"type": "occ",
				"energy": -0.23186,
				"method": "rhf"
			},
			{
				"type": "unocc",
				"energy": -0.12123,
				"method": "rhf"
			},
			{
				"type": "unocc",
				"energy": -0.10164,
				"method": "rhf"
			},
			{
				"type": "unocc",
				"energy": -0.07668,
				"method": "rhf"
			},
			{
				"type": "unocc",
				"energy": -0.07107,
				"method": "rhf"
			},
			{
				"type": "unocc",
				"energy": -0.04138,
				"method": "rhf"
			}
		],
		"cosmo_sigma_profile": { 
			"-0.025": 0.0,
			"-0.024": 0.0,
			"-0.023": 0.0,
			"-0.022": 0.0,
			"-0.021": 0.0,
			"-0.02": 0.0,
			"-0.019": 0.0,
			"-0.018": 0.0,
			"-0.017": 0.0,
			"-0.016": 0.0,
			"-0.015": 0.0,
			"-0.014": 0.0,
			"-0.013": 0.0,
			"-0.012": 0.0,
			"-0.011": 0.0,
			"-0.01": 0.329982022438,
			"-0.009": 1.67435487436,
			"-0.008": 3.67770602907,
			"-0.007": 8.82333760244,
			"-0.006": 28.2176608816,
			"-0.005": 41.9592006533,
			"-0.004": 47.3427271948,
			"-0.003": 39.6700096127,
			"-0.002": 41.1481937014,
			"-0.001": 36.4863346916,
			"0.0": 27.6024060367,
			"0.001": 25.652969495,
			"0.002": 26.8462795769,
			"0.003": 28.2242235305,
			"0.004": 30.6368178331,
			"0.005": 23.0328498023,
			"0.006": 16.1634838603,
			"0.007": 15.3187591863,
			"0.008": 10.5991453994,
			"0.009": 8.26038951527,
			"0.01": 7.97181293882,
			"0.011": 5.01020498056,
			"0.012": 1.06160649024,
			"0.013": 0.0,
			"0.014": 0.0,
			"0.015": 0.0,
			"0.016": 0.0,
			"0.017": 0.0,
			"0.018": 0.0,
			"0.019": 0.0,
			"0.02": 0.0,
			"0.021": 0.0,
			"0.022": 0.0,
			"0.023": 0.0,
			"0.024": 0.0,
			"0.025": 0.0
		}
	}
}
