{
	 "smiles": "CC(C)(C)C(=O)OCC(=O)C1(O)CCC2C3CCC4=CC(=O)C=CC4(C)C3C(O)CC12C", 
	 "Tm": 506.15, 
	 "num_atms": 68, 
	 "gaussian": { 
		 "optdone": 1, 
		 "sigma_profile": "yes", 
		 "theory": "DFT", 
		 "functional": "B3LYP", 
		 "basiset": "6-31G**", 
		 "properties": { 
			 "R2extent": 18413.4382, 
			 "electric_dipole_moment_norm": 5.35422535387, 
			 "electric_quadrupole_moment_norm": 41.0505288681, 
			 "total_energy": -1463.78679949, 
			 "HOMO_LUMO_gap": 0.17854, 
			 "cosmo_polarized_energy": -27.75, 
			 "cosmo_cavitation_energy": 61.62, 
			 "cosmo_dispersion_energy": -40.72, 
			 "cosmo_repulsion_energy": 2.99, 
			 "cosmo_total_nonelectrostatic_energy": 23.89, 
			 "SMD_solvation_energy": 11.29 
		},
		"coords": [
			{
				"x": -2.0366317969,
				"y": -5.9112343797,
				"z": 2.5443739903,
				"element": "C" 
			},
			{
				"x": -1.080881119,
				"y": -5.7854752462,
				"z": 1.3351188328,
				"element": "C" 
			},
			{
				"x": -1.514544378,
				"y": -6.7625070922,
				"z": 0.2198327991,
				"element": "C" 
			},
			{
				"x": 0.3650341785,
				"y": -6.0759576462,
				"z": 1.7655916863,
				"element": "C" 
			},
			{
				"x": -1.1599974115,
				"y": -4.3498660079,
				"z": 0.8129168067,
				"element": "C" 
			},
			{
				"x": -0.2458096355,
				"y": -3.5512632913,
				"z": 0.7878386899,
				"element": "O" 
			},
			{
				"x": -2.4059270104,
				"y": -4.0485478388,
				"z": 0.3612023195,
				"element": "O" 
			},
			{
				"x": -2.6019784661,
				"y": -2.6942175939,
				"z": -0.0323698627,
				"element": "C" 
			},
			{
				"x": -2.6863378992,
				"y": -1.7714221719,
				"z": 1.1860449826,
				"element": "C" 
			},
			{
				"x": -2.7338357343,
				"y": -2.2176891609,
				"z": 2.3134340682,
				"element": "O" 
			},
			{
				"x": -2.6874368799,
				"y": -0.2656609965,
				"z": 0.8983288376,
				"element": "C" 
			},
			{
				"x": -3.2980421676,
				"y": -0.1547510077,
				"z": -0.3936529589,
				"element": "O" 
			},
			{
				"x": -3.4562484291,
				"y": 0.5545745109,
				"z": 1.9746817778,
				"element": "C" 
			},
			{
				"x": -2.6568550956,
				"y": 1.8683037244,
				"z": 2.207620423,
				"element": "C" 
			},
			{
				"x": -1.5973127941,
				"y": 1.8565106109,
				"z": 1.0939007568,
				"element": "C" 
			},
			{
				"x": -0.4001569032,
				"y": 2.8320835196,
				"z": 1.1863207513,
				"element": "C" 
			},
			{
				"x": -0.8724652452,
				"y": 4.2140768133,
				"z": 0.6853327056,
				"element": "C" 
			},
			{
				"x": 0.2461829765,
				"y": 5.2573303332,
				"z": 0.5919227825,
				"element": "C" 
			},
			{
				"x": 1.3819567635,
				"y": 4.7328186012,
				"z": -0.2450289705,
				"element": "C" 
			},
			{
				"x": 1.869449016,
				"y": 5.4214010084,
				"z": -1.293410431,
				"element": "C" 
			},
			{
				"x": 3.0087893331,
				"y": 4.9586421761,
				"z": -2.110682572,
				"element": "C" 
			},
			{
				"x": 3.4441845561,
				"y": 5.6245802076,
				"z": -3.0494030264,
				"element": "O" 
			},
			{
				"x": 3.5866385451,
				"y": 3.6616637784,
				"z": -1.7224948598,
				"element": "C" 
			},
			{
				"x": 3.076660145,
				"y": 2.934554942,
				"z": -0.7173199205,
				"element": "C" 
			},
			{
				"x": 1.9631149664,
				"y": 3.3985096876,
				"z": 0.1907788839,
				"element": "C" 
			},
			{
				"x": 2.6584694242,
				"y": 3.6099519961,
				"z": 1.5800467281,
				"element": "C" 
			},
			{
				"x": 0.847237228,
				"y": 2.2885356649,
				"z": 0.399013968,
				"element": "C" 
			},
			{
				"x": 0.3390377478,
				"y": 1.5058030256,
				"z": -0.8315919912,
				"element": "C" 
			},
			{
				"x": 1.4365040206,
				"y": 1.1257435339,
				"z": -1.6520088107,
				"element": "O" 
			},
			{
				"x": -0.4137140564,
				"y": 0.2156496821,
				"z": -0.38171657,
				"element": "C" 
			},
			{
				"x": -1.2260779525,
				"y": 0.3654236071,
				"z": 0.9256692843,
				"element": "C" 
			},
			{
				"x": -0.4542304495,
				"y": -0.1976538816,
				"z": 2.1422070574,
				"element": "C" 
			},
			{
				"x": -1.9743979186,
				"y": -6.9237950536,
				"z": 2.9571096201,
				"element": "H" 
			},
			{
				"x": -1.7702329354,
				"y": -5.2018190553,
				"z": 3.3336866328,
				"element": "H" 
			},
			{
				"x": -3.0709737862,
				"y": -5.7163119362,
				"z": 2.2523730602,
				"element": "H" 
			},
			{
				"x": -2.5398148989,
				"y": -6.5676735291,
				"z": -0.1034017303,
				"element": "H" 
			},
			{
				"x": -0.8577558299,
				"y": -6.6859700159,
				"z": -0.6534459462,
				"element": "H" 
			},
			{
				"x": -1.4593257912,
				"y": -7.7913062709,
				"z": 0.5908555458,
				"element": "H" 
			},
			{
				"x": 0.690007716,
				"y": -5.3864420635,
				"z": 2.5489387232,
				"element": "H" 
			},
			{
				"x": 1.0578267057,
				"y": -5.9721616785,
				"z": 0.9258616189,
				"element": "H" 
			},
			{
				"x": 0.4384857613,
				"y": -7.0983070169,
				"z": 2.150261584,
				"element": "H" 
			},
			{
				"x": -3.5487139461,
				"y": -2.6608251491,
				"z": -0.5758401741,
				"element": "H" 
			},
			{
				"x": -1.8061285884,
				"y": -2.3593094602,
				"z": -0.7022583942,
				"element": "H" 
			},
			{
				"x": -3.4097796106,
				"y": 0.7810899936,
				"z": -0.6026299181,
				"element": "H" 
			},
			{
				"x": -4.4701292187,
				"y": 0.7397195638,
				"z": 1.6068669581,
				"element": "H" 
			},
			{
				"x": -3.5479901377,
				"y": -0.0350820045,
				"z": 2.8889301302,
				"element": "H" 
			},
			{
				"x": -2.1767531583,
				"y": 1.8634746355,
				"z": 3.1919193885,
				"element": "H" 
			},
			{
				"x": -3.2975856469,
				"y": 2.7543820864,
				"z": 2.1713089674,
				"element": "H" 
			},
			{
				"x": -2.1230011549,
				"y": 2.1312754857,
				"z": 0.1637685162,
				"element": "H" 
			},
			{
				"x": -0.1132568796,
				"y": 2.9316975935,
				"z": 2.2408892873,
				"element": "H" 
			},
			{
				"x": -1.3150934625,
				"y": 4.099302566,
				"z": -0.3133861749,
				"element": "H" 
			},
			{
				"x": -1.6744514929,
				"y": 4.5784586773,
				"z": 1.3382826831,
				"element": "H" 
			},
			{
				"x": 0.6056592994,
				"y": 5.4999340372,
				"z": 1.6017225242,
				"element": "H" 
			},
			{
				"x": -0.1356748577,
				"y": 6.1900160967,
				"z": 0.1645090125,
				"element": "H" 
			},
			{
				"x": 1.449618186,
				"y": 6.3844534794,
				"z": -1.5751475379,
				"element": "H" 
			},
			{
				"x": 4.4269132372,
				"y": 3.3092889661,
				"z": -2.3135263369,
				"element": "H" 
			},
			{
				"x": 3.5126237967,
				"y": 1.9708913225,
				"z": -0.4684681755,
				"element": "H" 
			},
			{
				"x": 1.9451985499,
				"y": 3.8809552899,
				"z": 2.3622105761,
				"element": "H" 
			},
			{
				"x": 3.1641001977,
				"y": 2.6903249288,
				"z": 1.8909613256,
				"element": "H" 
			},
			{
				"x": 3.4070435069,
				"y": 4.4032525929,
				"z": 1.507839693,
				"element": "H" 
			},
			{
				"x": 1.3427191639,
				"y": 1.5389086031,
				"z": 1.0252294158,
				"element": "H" 
			},
			{
				"x": -0.3386096067,
				"y": 2.1536873855,
				"z": -1.4106016411,
				"element": "H" 
			},
			{
				"x": 1.0861399187,
				"y": 0.7107689227,
				"z": -2.4507365117,
				"element": "H" 
			},
			{
				"x": -1.079170711,
				"y": -0.09039949,
				"z": -1.1971490304,
				"element": "H" 
			},
			{
				"x": 0.3469277769,
				"y": -0.5633898762,
				"z": -0.2687561518,
				"element": "H" 
			},
			{
				"x": 0.437678676,
				"y": 0.3938680257,
				"z": 2.3587071564,
				"element": "H" 
			},
			{
				"x": -0.1326474016,
				"y": -1.2230919373,
				"z": 1.9435662551,
				"element": "H" 
			},
			{
				"x": -1.0638309352,
				"y": -0.2207768234,
				"z": 3.0482508908,
				"element": "H" 
			}
		],
		 "valence_orbital": [ 
			{
				"type": "occ",
				"energy": -0.27107,
				"method": "rhf"
			},
			{
				"type": "occ",
				"energy": -0.25558,
				"method": "rhf"
			},
			{
				"type": "occ",
				"energy": -0.25311,
				"method": "rhf"
			},
			{
				"type": "occ",
				"energy": -0.24291,
				"method": "rhf"
			},
			{
				"type": "occ",
				"energy": -0.22286,
				"method": "rhf"
			},
			{
				"type": "unocc",
				"energy": -0.04432,
				"method": "rhf"
			},
			{
				"type": "unocc",
				"energy": -0.02963,
				"method": "rhf"
			},
			{
				"type": "unocc",
				"energy": 0.00819,
				"method": "rhf"
			},
			{
				"type": "unocc",
				"energy": 0.01005,
				"method": "rhf"
			},
			{
				"type": "unocc",
				"energy": 0.039,
				"method": "rhf"
			}
		],
		"cosmo_sigma_profile": { 
			"-0.025": 0.0,
			"-0.024": 0.0,
			"-0.023": 0.0,
			"-0.022": 0.0,
			"-0.021": 0.0,
			"-0.02": 0.0,
			"-0.019": 0.0,
			"-0.018": 0.0,
			"-0.017": 0.0,
			"-0.016": 0.16106031498,
			"-0.015": 2.07119511701,
			"-0.014": 1.82868189753,
			"-0.013": 1.9518446307,
			"-0.012": 1.71279257867,
			"-0.011": 1.94552786118,
			"-0.01": 2.04029552969,
			"-0.009": 1.76796860851,
			"-0.008": 2.95917312187,
			"-0.007": 4.3915338304,
			"-0.006": 8.3692405085,
			"-0.005": 18.9341378912,
			"-0.004": 38.4991345647,
			"-0.003": 61.053377386,
			"-0.002": 56.4854941363,
			"-0.001": 52.301916045,
			"0.0": 49.8444458446,
			"0.001": 38.86262892,
			"0.002": 21.4136769287,
			"0.003": 17.4366875379,
			"0.004": 13.6032155583,
			"0.005": 12.0773830314,
			"0.006": 12.5605909845,
			"0.007": 7.39834350465,
			"0.008": 9.66313069776,
			"0.009": 9.4886395638,
			"0.01": 6.32020874432,
			"0.011": 5.57872966545,
			"0.012": 4.31510477662,
			"0.013": 3.97890653449,
			"0.014": 4.70793086544,
			"0.015": 2.71386568588,
			"0.016": 0.206567250846,
			"0.017": 0.0,
			"0.018": 0.0,
			"0.019": 0.0,
			"0.02": 0.0,
			"0.021": 0.0,
			"0.022": 0.0,
			"0.023": 0.0,
			"0.024": 0.0,
			"0.025": 0.0
		}
	}
}
