{
	 "smiles": "CC1=NN=C(CO)O1", 
	 "Tm": 403.15, 
	 "num_atms": 14, 
	 "gaussian": { 
		 "optdone": 1, 
		 "sigma_profile": "yes", 
		 "theory": "DFT", 
		 "functional": "B3LYP", 
		 "basiset": "6-31G**", 
		 "properties": { 
			 "R2extent": 1360.7213, 
			 "electric_dipole_moment_norm": 4.15680318153, 
			 "electric_quadrupole_moment_norm": 11.678472246, 
			 "total_energy": -415.950195182, 
			 "HOMO_LUMO_gap": 0.25824, 
			 "cosmo_polarized_energy": -14.26, 
			 "cosmo_cavitation_energy": 18.66, 
			 "cosmo_dispersion_energy": -14.0, 
			 "cosmo_repulsion_energy": 1.2, 
			 "cosmo_total_nonelectrostatic_energy": 5.86, 
			 "SMD_solvation_energy": 2.02 
		},
		"coords": [
			{
				"x": 1.855147556,
				"y": 1.399318184,
				"z": 3.1201560058,
				"element": "C" 
			},
			{
				"x": 0.9871570414,
				"y": 1.3906351002,
				"z": 1.9158043873,
				"element": "C" 
			},
			{
				"x": 0.0276067251,
				"y": 2.2001023455,
				"z": 1.6007012692,
				"element": "N" 
			},
			{
				"x": -0.4641810044,
				"y": 1.7722860814,
				"z": 0.3600055302,
				"element": "N" 
			},
			{
				"x": 0.2330786873,
				"y": 0.7355951128,
				"z": 0.0300961681,
				"element": "C" 
			},
			{
				"x": 0.1350033182,
				"y": -0.128380139,
				"z": -1.1868048682,
				"element": "C" 
			},
			{
				"x": 1.3556960876,
				"y": -0.2104706553,
				"z": -1.9032020153,
				"element": "O" 
			},
			{
				"x": 1.1788321144,
				"y": 0.4214021811,
				"z": 0.9677893191,
				"element": "O" 
			},
			{
				"x": 1.7620659503,
				"y": 0.4620649546,
				"z": 3.6780488713,
				"element": "H" 
			},
			{
				"x": 2.9072338859,
				"y": 1.5228511634,
				"z": 2.8437988472,
				"element": "H" 
			},
			{
				"x": 1.5551197458,
				"y": 2.2286632841,
				"z": 3.7613883094,
				"element": "H" 
			},
			{
				"x": -0.6045643388,
				"y": 0.3230247861,
				"z": -1.8506083352,
				"element": "H" 
			},
			{
				"x": -0.2335798157,
				"y": -1.1250021462,
				"z": -0.897089749,
				"element": "H" 
			},
			{
				"x": 2.0037840469,
				"y": -0.6475902525,
				"z": -1.3352837398,
				"element": "H" 
			}
		],
		 "valence_orbital": [ 
			{
				"type": "occ",
				"energy": -0.34544,
				"method": "rhf"
			},
			{
				"type": "occ",
				"energy": -0.32405,
				"method": "rhf"
			},
			{
				"type": "occ",
				"energy": -0.29226,
				"method": "rhf"
			},
			{
				"type": "occ",
				"energy": -0.2784,
				"method": "rhf"
			},
			{
				"type": "occ",
				"energy": -0.27361,
				"method": "rhf"
			},
			{
				"type": "unocc",
				"energy": -0.01537,
				"method": "rhf"
			},
			{
				"type": "unocc",
				"energy": 0.02861,
				"method": "rhf"
			},
			{
				"type": "unocc",
				"energy": 0.07318,
				"method": "rhf"
			},
			{
				"type": "unocc",
				"energy": 0.09888,
				"method": "rhf"
			},
			{
				"type": "unocc",
				"energy": 0.12117,
				"method": "rhf"
			}
		],
		"cosmo_sigma_profile": { 
			"-0.025": 0.0,
			"-0.024": 0.0,
			"-0.023": 0.0,
			"-0.022": 0.0,
			"-0.021": 0.0,
			"-0.02": 0.0,
			"-0.019": 0.0,
			"-0.018": 0.0,
			"-0.017": 0.00564794225953,
			"-0.016": 0.625533533196,
			"-0.015": 1.05370042004,
			"-0.014": 0.87738929695,
			"-0.013": 0.913094921906,
			"-0.012": 0.540199077011,
			"-0.011": 0.915274318709,
			"-0.01": 0.989834636855,
			"-0.009": 0.870315164067,
			"-0.008": 1.99424241027,
			"-0.007": 11.212519189,
			"-0.006": 12.2894457107,
			"-0.005": 11.3225704272,
			"-0.004": 13.7583200552,
			"-0.003": 14.1334513928,
			"-0.002": 10.3229811607,
			"-0.001": 5.74723390968,
			"0.0": 4.40327660988,
			"0.001": 5.27765353538,
			"0.002": 4.76897281674,
			"0.003": 3.8323121899,
			"0.004": 4.48535642981,
			"0.005": 2.75931640027,
			"0.006": 2.50925752521,
			"0.007": 3.6789014749,
			"0.008": 2.83729622206,
			"0.009": 3.16903481575,
			"0.01": 4.09843121733,
			"0.011": 3.39443513215,
			"0.012": 6.12832274237,
			"0.013": 4.47445892385,
			"0.014": 2.36036325209,
			"0.015": 2.15378324149,
			"0.016": 0.234724115328,
			"0.017": 0.0,
			"0.018": 0.0,
			"0.019": 0.0,
			"0.02": 0.0,
			"0.021": 0.0,
			"0.022": 0.0,
			"0.023": 0.0,
			"0.024": 0.0,
			"0.025": 0.0
		}
	}
}
