{
	 "smiles": "CCOC(=O)C1=CNC=C1C1=CC=CC=C1", 
	 "Tm": 400.15, 
	 "num_atms": 29, 
	 "gaussian": { 
		 "optdone": 1, 
		 "sigma_profile": "yes", 
		 "theory": "DFT", 
		 "functional": "B3LYP", 
		 "basiset": "6-31G**", 
		 "properties": { 
			 "R2extent": 4584.8512, 
			 "electric_dipole_moment_norm": 4.15699234303, 
			 "electric_quadrupole_moment_norm": 12.8669296268, 
			 "total_energy": -708.431078186, 
			 "HOMO_LUMO_gap": 0.19138, 
			 "cosmo_polarized_energy": -14.98, 
			 "cosmo_cavitation_energy": 32.94, 
			 "cosmo_dispersion_energy": -23.84, 
			 "cosmo_repulsion_energy": 1.88, 
			 "cosmo_total_nonelectrostatic_energy": 10.98, 
			 "SMD_solvation_energy": 6.74 
		},
		"coords": [
			{
				"x": -3.2876568869,
				"y": -2.0907698237,
				"z": 1.9070183756,
				"element": "C" 
			},
			{
				"x": -3.3372702315,
				"y": -1.0791477083,
				"z": 0.7708192538,
				"element": "C" 
			},
			{
				"x": -2.366760168,
				"y": -1.3849253509,
				"z": -0.2529040254,
				"element": "O" 
			},
			{
				"x": -1.1048875935,
				"y": -0.9052958084,
				"z": -0.0514484995,
				"element": "C" 
			},
			{
				"x": -0.7997042046,
				"y": -0.2532982957,
				"z": 0.9305081334,
				"element": "O" 
			},
			{
				"x": -0.2180716878,
				"y": -1.2812527875,
				"z": -1.1600401356,
				"element": "C" 
			},
			{
				"x": -0.6445111765,
				"y": -2.0050782858,
				"z": -2.2641962367,
				"element": "C" 
			},
			{
				"x": 0.4326617282,
				"y": -2.2256480103,
				"z": -3.0653001912,
				"element": "N" 
			},
			{
				"x": 1.5568434355,
				"y": -1.6622928839,
				"z": -2.5029296154,
				"element": "C" 
			},
			{
				"x": 1.2053221861,
				"y": -1.0607239865,
				"z": -1.3097706295,
				"element": "C" 
			},
			{
				"x": 2.1801905922,
				"y": -0.3659365308,
				"z": -0.4418095122,
				"element": "C" 
			},
			{
				"x": 3.46940306,
				"y": -0.9058826771,
				"z": -0.2842425667,
				"element": "C" 
			},
			{
				"x": 4.4400399786,
				"y": -0.2450134822,
				"z": 0.4675464578,
				"element": "C" 
			},
			{
				"x": 4.1393969242,
				"y": 0.9698016476,
				"z": 1.085045828,
				"element": "C" 
			},
			{
				"x": 2.8605098569,
				"y": 1.5127005826,
				"z": 0.9436055145,
				"element": "C" 
			},
			{
				"x": 1.8905268278,
				"y": 0.8555427251,
				"z": 0.1887568895,
				"element": "C" 
			},
			{
				"x": -3.4269067646,
				"y": -3.1083068427,
				"z": 1.5294409402,
				"element": "H" 
			},
			{
				"x": -2.3279658115,
				"y": -2.0340873964,
				"z": 2.4260746156,
				"element": "H" 
			},
			{
				"x": -4.0832847925,
				"y": -1.8801858221,
				"z": 2.6298542696,
				"element": "H" 
			},
			{
				"x": -3.1562560588,
				"y": -0.0672155753,
				"z": 1.141322533,
				"element": "H" 
			},
			{
				"x": -4.2996586403,
				"y": -1.1083995652,
				"z": 0.2527838108,
				"element": "H" 
			},
			{
				"x": -1.6287587163,
				"y": -2.3719634122,
				"z": -2.5075741845,
				"element": "H" 
			},
			{
				"x": 0.408360962,
				"y": -2.7119081785,
				"z": -3.9474994321,
				"element": "H" 
			},
			{
				"x": 2.5126507398,
				"y": -1.6997148276,
				"z": -3.0029736262,
				"element": "H" 
			},
			{
				"x": 3.7015515615,
				"y": -1.8641150602,
				"z": -0.7405727225,
				"element": "H" 
			},
			{
				"x": 5.4272427702,
				"y": -0.6853633767,
				"z": 0.5786420601,
				"element": "H" 
			},
			{
				"x": 4.8912531621,
				"y": 1.484873789,
				"z": 1.6763835798,
				"element": "H" 
			},
			{
				"x": 2.6147360442,
				"y": 2.4561880969,
				"z": 1.4231432855,
				"element": "H" 
			},
			{
				"x": 0.8993029036,
				"y": 1.280318847,
				"z": 0.0953158305,
				"element": "H" 
			}
		],
		 "valence_orbital": [ 
			{
				"type": "occ",
				"energy": -0.26891,
				"method": "rhf"
			},
			{
				"type": "occ",
				"energy": -0.25989,
				"method": "rhf"
			},
			{
				"type": "occ",
				"energy": -0.23545,
				"method": "rhf"
			},
			{
				"type": "occ",
				"energy": -0.23357,
				"method": "rhf"
			},
			{
				"type": "occ",
				"energy": -0.20734,
				"method": "rhf"
			},
			{
				"type": "unocc",
				"energy": -0.01596,
				"method": "rhf"
			},
			{
				"type": "unocc",
				"energy": 0.00406,
				"method": "rhf"
			},
			{
				"type": "unocc",
				"energy": 0.01438,
				"method": "rhf"
			},
			{
				"type": "unocc",
				"energy": 0.05365,
				"method": "rhf"
			},
			{
				"type": "unocc",
				"energy": 0.06748,
				"method": "rhf"
			}
		],
		"cosmo_sigma_profile": { 
			"-0.025": 0.0,
			"-0.024": 0.0,
			"-0.023": 0.0,
			"-0.022": 0.0,
			"-0.021": 0.0,
			"-0.02": 0.0,
			"-0.019": 0.0,
			"-0.018": 0.0,
			"-0.017": 0.368198409234,
			"-0.016": 2.06920749544,
			"-0.015": 1.46433540838,
			"-0.014": 1.05067050028,
			"-0.013": 1.51245949662,
			"-0.012": 1.16429967144,
			"-0.011": 1.11107043335,
			"-0.01": 1.25918882994,
			"-0.009": 1.53832461104,
			"-0.008": 4.08710717327,
			"-0.007": 4.45260599755,
			"-0.006": 5.12068499923,
			"-0.005": 14.0177544095,
			"-0.004": 19.6853044171,
			"-0.003": 22.9779841217,
			"-0.002": 21.8513887227,
			"-0.001": 18.9780549035,
			"0.0": 21.8695579974,
			"0.001": 16.7882094518,
			"0.002": 13.8493297654,
			"0.003": 16.5778638787,
			"0.004": 20.4973076312,
			"0.005": 18.1845602377,
			"0.006": 12.76297979,
			"0.007": 6.1292357647,
			"0.008": 1.51034812768,
			"0.009": 2.49170467604,
			"0.01": 2.23547856577,
			"0.011": 2.09687037251,
			"0.012": 3.01636088601,
			"0.013": 1.6765115608,
			"0.014": 0.0,
			"0.015": 0.0,
			"0.016": 0.0,
			"0.017": 0.0,
			"0.018": 0.0,
			"0.019": 0.0,
			"0.02": 0.0,
			"0.021": 0.0,
			"0.022": 0.0,
			"0.023": 0.0,
			"0.024": 0.0,
			"0.025": 0.0
		}
	}
}
