{
	 "smiles": "CN1N=CC2=C1N=CN=C2NCCN", 
	 "Tm": 570.15, 
	 "num_atms": 26, 
	 "gaussian": { 
		 "optdone": 1, 
		 "sigma_profile": "yes", 
		 "theory": "DFT", 
		 "functional": "B3LYP", 
		 "basiset": "6-31G**", 
		 "properties": { 
			 "R2extent": 3434.4529, 
			 "electric_dipole_moment_norm": 2.59529254806, 
			 "electric_quadrupole_moment_norm": 12.9663863902, 
			 "total_energy": -640.585240578, 
			 "HOMO_LUMO_gap": 0.18823, 
			 "cosmo_polarized_energy": -17.43, 
			 "cosmo_cavitation_energy": 29.75, 
			 "cosmo_dispersion_energy": -21.69, 
			 "cosmo_repulsion_energy": 1.73, 
			 "cosmo_total_nonelectrostatic_energy": 9.79, 
			 "SMD_solvation_energy": 0.53 
		},
		"coords": [
			{
				"x": -2.0937080334,
				"y": -0.3004007409,
				"z": 4.1794971043,
				"element": "C" 
			},
			{
				"x": -1.1196149829,
				"y": -0.1802800493,
				"z": 3.1136658443,
				"element": "N" 
			},
			{
				"x": 0.2083267547,
				"y": -0.0435604622,
				"z": 3.3900899558,
				"element": "N" 
			},
			{
				"x": 0.8254988655,
				"y": 0.041678167,
				"z": 2.2211024318,
				"element": "C" 
			},
			{
				"x": -0.1016320026,
				"y": -0.0399775392,
				"z": 1.1448220311,
				"element": "C" 
			},
			{
				"x": -1.3551466602,
				"y": -0.183066508,
				"z": 1.7732227168,
				"element": "C" 
			},
			{
				"x": -2.5489261198,
				"y": -0.2966987523,
				"z": 1.1607795525,
				"element": "N" 
			},
			{
				"x": -2.4303148465,
				"y": -0.2600738629,
				"z": -0.1623120464,
				"element": "C" 
			},
			{
				"x": -1.3148518141,
				"y": -0.1339839164,
				"z": -0.908454787,
				"element": "N" 
			},
			{
				"x": -0.1369399335,
				"y": -0.0198896746,
				"z": -0.2756721781,
				"element": "C" 
			},
			{
				"x": 0.9891807085,
				"y": 0.1149150476,
				"z": -1.0257963019,
				"element": "N" 
			},
			{
				"x": 0.9933406947,
				"y": 0.1814951844,
				"z": -2.484999317,
				"element": "C" 
			},
			{
				"x": 0.9932799461,
				"y": -1.2030461474,
				"z": -3.1609550991,
				"element": "C" 
			},
			{
				"x": 2.1156834149,
				"y": -2.0823959311,
				"z": -2.842434156,
				"element": "N" 
			},
			{
				"x": -2.0696254599,
				"y": 0.587799509,
				"z": 4.8165474432,
				"element": "H" 
			},
			{
				"x": -3.0766386816,
				"y": -0.3972775043,
				"z": 3.7170229285,
				"element": "H" 
			},
			{
				"x": -1.8818458931,
				"y": -1.1833318246,
				"z": 4.7884632179,
				"element": "H" 
			},
			{
				"x": 1.9017032798,
				"y": 0.1567798955,
				"z": 2.2004666962,
				"element": "H" 
			},
			{
				"x": -3.3560263059,
				"y": -0.3453200544,
				"z": -0.7287629439,
				"element": "H" 
			},
			{
				"x": 1.862695181,
				"y": 0.2134620302,
				"z": -0.5348203614,
				"element": "H" 
			},
			{
				"x": 0.1138898962,
				"y": 0.7476412375,
				"z": -2.8053745641,
				"element": "H" 
			},
			{
				"x": 1.8867911314,
				"y": 0.744416117,
				"z": -2.7808602334,
				"element": "H" 
			},
			{
				"x": 0.9663976023,
				"y": -1.0516069341,
				"z": -4.2474178497,
				"element": "H" 
			},
			{
				"x": 0.0652025664,
				"y": -1.7160182198,
				"z": -2.8896345973,
				"element": "H" 
			},
			{
				"x": 2.9988014746,
				"y": -1.6382287786,
				"z": -3.0854404379,
				"element": "H" 
			},
			{
				"x": 2.1410792173,
				"y": -2.2610302881,
				"z": -1.8414450495,
				"element": "H" 
			}
		],
		 "valence_orbital": [ 
			{
				"type": "occ",
				"energy": -0.27493,
				"method": "rhf"
			},
			{
				"type": "occ",
				"energy": -0.25578,
				"method": "rhf"
			},
			{
				"type": "occ",
				"energy": -0.25531,
				"method": "rhf"
			},
			{
				"type": "occ",
				"energy": -0.23755,
				"method": "rhf"
			},
			{
				"type": "occ",
				"energy": -0.21747,
				"method": "rhf"
			},
			{
				"type": "unocc",
				"energy": -0.02924,
				"method": "rhf"
			},
			{
				"type": "unocc",
				"energy": 0.0088,
				"method": "rhf"
			},
			{
				"type": "unocc",
				"energy": 0.04513,
				"method": "rhf"
			},
			{
				"type": "unocc",
				"energy": 0.05569,
				"method": "rhf"
			},
			{
				"type": "unocc",
				"energy": 0.09548,
				"method": "rhf"
			}
		],
		"cosmo_sigma_profile": { 
			"-0.025": 0.0,
			"-0.024": 0.0,
			"-0.023": 0.0,
			"-0.022": 0.0,
			"-0.021": 0.0,
			"-0.02": 0.0,
			"-0.019": 0.0,
			"-0.018": 0.0,
			"-0.017": 0.0,
			"-0.016": 0.0,
			"-0.015": 0.311737083806,
			"-0.014": 1.02441992079,
			"-0.013": 1.64793125823,
			"-0.012": 1.39228691879,
			"-0.011": 1.62040429565,
			"-0.01": 1.80283578204,
			"-0.009": 4.66735062849,
			"-0.008": 5.9973547636,
			"-0.007": 6.76757859861,
			"-0.006": 14.8084924388,
			"-0.005": 14.3403013218,
			"-0.004": 14.0896609398,
			"-0.003": 21.4388488808,
			"-0.002": 16.2806968171,
			"-0.001": 13.7800666547,
			"0.0": 17.9638366757,
			"0.001": 18.361143025,
			"0.002": 14.2589863349,
			"0.003": 10.766996955,
			"0.004": 6.25954386703,
			"0.005": 7.21924966825,
			"0.006": 4.73798336463,
			"0.007": 6.09135233957,
			"0.008": 4.97066986729,
			"0.009": 3.76585443779,
			"0.01": 3.66766642395,
			"0.011": 3.64452702826,
			"0.012": 3.00517626101,
			"0.013": 3.54079514226,
			"0.014": 2.83258382522,
			"0.015": 1.42726102837,
			"0.016": 0.7431789898,
			"0.017": 0.43492353704,
			"0.018": 0.687587254274,
			"0.019": 0.736338177793,
			"0.02": 0.342198418824,
			"0.021": 0.0,
			"0.022": 0.0,
			"0.023": 0.0,
			"0.024": 0.0,
			"0.025": 0.0
		}
	}
}
