{
	 "smiles": "CC1(C)CC(=O)CC(=O)C1", 
	 "Tm": 421.15, 
	 "num_atms": 22, 
	 "gaussian": { 
		 "optdone": 1, 
		 "sigma_profile": "yes", 
		 "theory": "DFT", 
		 "functional": "B3LYP", 
		 "basiset": "6-31G**", 
		 "properties": { 
			 "R2extent": 1760.0599, 
			 "electric_dipole_moment_norm": 2.09717441812, 
			 "electric_quadrupole_moment_norm": 11.978811747, 
			 "total_energy": -462.531839662, 
			 "HOMO_LUMO_gap": 0.2134, 
			 "cosmo_polarized_energy": -11.0, 
			 "cosmo_cavitation_energy": 24.0, 
			 "cosmo_dispersion_energy": -16.98, 
			 "cosmo_repulsion_energy": 1.37, 
			 "cosmo_total_nonelectrostatic_energy": 8.4, 
			 "SMD_solvation_energy": 5.17 
		},
		"coords": [
			{
				"x": -0.1437713306,
				"y": -1.8289495573,
				"z": 2.7109054308,
				"element": "C" 
			},
			{
				"x": -0.2740160916,
				"y": -1.2347139934,
				"z": 1.2970457823,
				"element": "C" 
			},
			{
				"x": -1.6507052399,
				"y": -1.5835539039,
				"z": 0.7036279408,
				"element": "C" 
			},
			{
				"x": 0.8493216249,
				"y": -1.8383121078,
				"z": 0.386095263,
				"element": "C" 
			},
			{
				"x": 1.2950521032,
				"y": -0.871807477,
				"z": -0.6961309691,
				"element": "C" 
			},
			{
				"x": 1.1734672762,
				"y": -1.0800170167,
				"z": -1.8862051545,
				"element": "O" 
			},
			{
				"x": 1.9072114205,
				"y": 0.4155735772,
				"z": -0.139175802,
				"element": "C" 
			},
			{
				"x": 1.3036333223,
				"y": 0.7831177208,
				"z": 1.2184259193,
				"element": "C" 
			},
			{
				"x": 1.9282553827,
				"y": 1.3719264214,
				"z": 2.0772343568,
				"element": "O" 
			},
			{
				"x": -0.134574057,
				"y": 0.3242680012,
				"z": 1.3768004537,
				"element": "C" 
			},
			{
				"x": -0.9743276744,
				"y": -1.5053593332,
				"z": 3.3475198066,
				"element": "H" 
			},
			{
				"x": 0.7890923866,
				"y": -1.5120638795,
				"z": 3.1897370941,
				"element": "H" 
			},
			{
				"x": -0.1531603982,
				"y": -2.9238798588,
				"z": 2.6763368434,
				"element": "H" 
			},
			{
				"x": -1.8218864748,
				"y": -2.6652220708,
				"z": 0.726156645,
				"element": "H" 
			},
			{
				"x": -1.7286829602,
				"y": -1.2532536862,
				"z": -0.3378884833,
				"element": "H" 
			},
			{
				"x": -2.4541035273,
				"y": -1.1038298918,
				"z": 1.2733361988,
				"element": "H" 
			},
			{
				"x": 0.5218426118,
				"y": -2.7753341327,
				"z": -0.0702177947,
				"element": "H" 
			},
			{
				"x": 1.731318565,
				"y": -2.0506438571,
				"z": 1.006963897,
				"element": "H" 
			},
			{
				"x": 2.9912004776,
				"y": 0.2990673469,
				"z": -0.0243716506,
				"element": "H" 
			},
			{
				"x": 1.7407067462,
				"y": 1.2262722597,
				"z": -0.8580893757,
				"element": "H" 
			},
			{
				"x": -0.7050678725,
				"y": 0.7725116777,
				"z": 0.5509143225,
				"element": "H" 
			},
			{
				"x": -0.5407062907,
				"y": 0.7060037613,
				"z": 2.3163792757,
				"element": "H" 
			}
		],
		 "valence_orbital": [ 
			{
				"type": "occ",
				"energy": -0.34701,
				"method": "rhf"
			},
			{
				"type": "occ",
				"energy": -0.34248,
				"method": "rhf"
			},
			{
				"type": "occ",
				"energy": -0.33152,
				"method": "rhf"
			},
			{
				"type": "occ",
				"energy": -0.26208,
				"method": "rhf"
			},
			{
				"type": "occ",
				"energy": -0.24361,
				"method": "rhf"
			},
			{
				"type": "unocc",
				"energy": -0.03021,
				"method": "rhf"
			},
			{
				"type": "unocc",
				"energy": -0.0247,
				"method": "rhf"
			},
			{
				"type": "unocc",
				"energy": 0.07235,
				"method": "rhf"
			},
			{
				"type": "unocc",
				"energy": 0.11177,
				"method": "rhf"
			},
			{
				"type": "unocc",
				"energy": 0.11459,
				"method": "rhf"
			}
		],
		"cosmo_sigma_profile": { 
			"-0.025": 0.0,
			"-0.024": 0.0,
			"-0.023": 0.0,
			"-0.022": 0.0,
			"-0.021": 0.0,
			"-0.02": 0.0,
			"-0.019": 0.0,
			"-0.018": 0.0,
			"-0.017": 0.0,
			"-0.016": 0.0,
			"-0.015": 0.0,
			"-0.014": 0.0,
			"-0.013": 0.0,
			"-0.012": 0.0,
			"-0.011": 0.0,
			"-0.01": 0.0,
			"-0.009": 0.0307721313095,
			"-0.008": 5.20453651646,
			"-0.007": 9.42499989291,
			"-0.006": 8.34247913798,
			"-0.005": 8.4738856375,
			"-0.004": 16.5740190044,
			"-0.003": 25.8611177937,
			"-0.002": 21.4512548893,
			"-0.001": 17.7859192405,
			"0.0": 15.5583890136,
			"0.001": 10.8575816623,
			"0.002": 3.91142134823,
			"0.003": 2.46788528685,
			"0.004": 3.28989105705,
			"0.005": 2.25992559964,
			"0.006": 2.37285209631,
			"0.007": 2.73035768233,
			"0.008": 3.80951351866,
			"0.009": 3.45347312539,
			"0.01": 4.13358981906,
			"0.011": 7.68595029966,
			"0.012": 8.3679949625,
			"0.013": 2.50395705564,
			"0.014": 0.0209385346755,
			"0.015": 0.0,
			"0.016": 0.0,
			"0.017": 0.0,
			"0.018": 0.0,
			"0.019": 0.0,
			"0.02": 0.0,
			"0.021": 0.0,
			"0.022": 0.0,
			"0.023": 0.0,
			"0.024": 0.0,
			"0.025": 0.0
		}
	}
}
