{
	 "smiles": "NC1=CC2=C(C=C1)N=CS2", 
	 "Tm": 360.65, 
	 "num_atms": 16, 
	 "gaussian": { 
		 "optdone": 1, 
		 "sigma_profile": "yes", 
		 "theory": "DFT", 
		 "functional": "B3LYP", 
		 "basiset": "6-31G**", 
		 "properties": { 
			 "R2extent": 2094.0106, 
			 "electric_dipole_moment_norm": 2.92202748447, 
			 "electric_quadrupole_moment_norm": 10.0663970729, 
			 "total_energy": -778.054626153, 
			 "HOMO_LUMO_gap": 0.17866, 
			 "cosmo_polarized_energy": -10.99, 
			 "cosmo_cavitation_energy": 21.61, 
			 "cosmo_dispersion_energy": -17.03, 
			 "cosmo_repulsion_energy": 1.31, 
			 "cosmo_total_nonelectrostatic_energy": 5.89, 
			 "SMD_solvation_energy": 1.84 
		},
		"coords": [
			{
				"x": -0.7276792742,
				"y": 1.3552568144,
				"z": 2.7579615551,
				"element": "N" 
			},
			{
				"x": -0.7211601789,
				"y": 0.8716933124,
				"z": 1.4489178618,
				"element": "C" 
			},
			{
				"x": -1.8187604703,
				"y": 0.1588710105,
				"z": 0.9471126561,
				"element": "C" 
			},
			{
				"x": -1.793722406,
				"y": -0.2531135535,
				"z": -0.385192603,
				"element": "C" 
			},
			{
				"x": -0.6964161889,
				"y": 0.02336182,
				"z": -1.2363587951,
				"element": "C" 
			},
			{
				"x": 0.3955416941,
				"y": 0.7369967016,
				"z": -0.7198632528,
				"element": "C" 
			},
			{
				"x": 0.3785287332,
				"y": 1.1526340337,
				"z": 0.6007541598,
				"element": "C" 
			},
			{
				"x": -0.8087005611,
				"y": -0.4531461075,
				"z": -2.5348675132,
				"element": "N" 
			},
			{
				"x": -1.9299625479,
				"y": -1.0693425845,
				"z": -2.6980091734,
				"element": "C" 
			},
			{
				"x": -3.0007067884,
				"y": -1.1509156041,
				"z": -1.2859835739,
				"element": "S" 
			},
			{
				"x": -1.3386978384,
				"y": 0.8666501031,
				"z": 3.3976228554,
				"element": "H" 
			},
			{
				"x": 0.1843575595,
				"y": 1.5217661521,
				"z": 3.1599705465,
				"element": "H" 
			},
			{
				"x": -2.6684106829,
				"y": -0.0576683314,
				"z": 1.5879892037,
				"element": "H" 
			},
			{
				"x": 1.2414790329,
				"y": 0.9526563129,
				"z": -1.3643067811,
				"element": "H" 
			},
			{
				"x": 1.2200049281,
				"y": 1.7115957851,
				"z": 1.00171296,
				"element": "H" 
			},
			{
				"x": -2.2438950109,
				"y": -1.5275958648,
				"z": -3.6290601059,
				"element": "H" 
			}
		],
		 "valence_orbital": [ 
			{
				"type": "occ",
				"energy": -0.29824,
				"method": "rhf"
			},
			{
				"type": "occ",
				"energy": -0.29447,
				"method": "rhf"
			},
			{
				"type": "occ",
				"energy": -0.27022,
				"method": "rhf"
			},
			{
				"type": "occ",
				"energy": -0.23359,
				"method": "rhf"
			},
			{
				"type": "occ",
				"energy": -0.2017,
				"method": "rhf"
			},
			{
				"type": "unocc",
				"energy": -0.02304,
				"method": "rhf"
			},
			{
				"type": "unocc",
				"energy": -0.00308,
				"method": "rhf"
			},
			{
				"type": "unocc",
				"energy": 0.01575,
				"method": "rhf"
			},
			{
				"type": "unocc",
				"energy": 0.04524,
				"method": "rhf"
			},
			{
				"type": "unocc",
				"energy": 0.07685,
				"method": "rhf"
			}
		],
		"cosmo_sigma_profile": { 
			"-0.025": 0.0,
			"-0.024": 0.0,
			"-0.023": 0.0,
			"-0.022": 0.0,
			"-0.021": 0.0,
			"-0.02": 0.0,
			"-0.019": 0.0,
			"-0.018": 0.0,
			"-0.017": 0.0,
			"-0.016": 0.0,
			"-0.015": 0.0,
			"-0.014": 0.0,
			"-0.013": 0.866840375808,
			"-0.012": 2.98420279474,
			"-0.011": 2.76862504003,
			"-0.01": 3.87950990885,
			"-0.009": 6.17269568815,
			"-0.008": 4.497461292,
			"-0.007": 6.75453486414,
			"-0.006": 8.47710399138,
			"-0.005": 7.97016409201,
			"-0.004": 8.43540735736,
			"-0.003": 6.34448992919,
			"-0.002": 6.41124973372,
			"-0.001": 7.70775046764,
			"0.0": 8.79387836338,
			"0.001": 13.1273031963,
			"0.002": 14.3501612523,
			"0.003": 15.6094473582,
			"0.004": 16.6602998686,
			"0.005": 13.5930859836,
			"0.006": 4.46564991007,
			"0.007": 2.5324537861,
			"0.008": 2.2299413848,
			"0.009": 1.88064893611,
			"0.01": 1.60757349291,
			"0.011": 1.40034551326,
			"0.012": 1.68787279685,
			"0.013": 2.10420531145,
			"0.014": 1.31917242421,
			"0.015": 0.69704310477,
			"0.016": 0.269806858161,
			"0.017": 0.0,
			"0.018": 0.0,
			"0.019": 0.0,
			"0.02": 0.0,
			"0.021": 0.0,
			"0.022": 0.0,
			"0.023": 0.0,
			"0.024": 0.0,
			"0.025": 0.0
		}
	}
}
