{
	 "smiles": "CN(C)S(=O)(=O)C1=CC(C(O)=O)=C(C)C=C1", 
	 "Tm": 447.15, 
	 "num_atms": 29, 
	 "gaussian": { 
		 "optdone": 1, 
		 "sigma_profile": "yes", 
		 "theory": "DFT", 
		 "functional": "B3LYP", 
		 "basiset": "6-31G**", 
		 "properties": { 
			 "R2extent": 4472.4804, 
			 "electric_dipole_moment_norm": 6.39159788003, 
			 "electric_quadrupole_moment_norm": 20.0945067879, 
			 "total_energy": -1142.68059169, 
			 "HOMO_LUMO_gap": 0.18801, 
			 "cosmo_polarized_energy": -18.48, 
			 "cosmo_cavitation_energy": 33.55, 
			 "cosmo_dispersion_energy": -24.09, 
			 "cosmo_repulsion_energy": 1.82, 
			 "cosmo_total_nonelectrostatic_energy": 11.29, 
			 "SMD_solvation_energy": 5.5 
		},
		"coords": [
			{
				"x": 0.0197472019,
				"y": 0.782037881,
				"z": 3.6003050437,
				"element": "C" 
			},
			{
				"x": 1.0160219821,
				"y": 1.3256107627,
				"z": 2.6753796815,
				"element": "N" 
			},
			{
				"x": 0.5792651224,
				"y": 2.4929407787,
				"z": 1.9059149176,
				"element": "C" 
			},
			{
				"x": 1.9697507572,
				"y": 0.1986765113,
				"z": 1.8549213711,
				"element": "S" 
			},
			{
				"x": 2.9437006388,
				"y": 0.9689312465,
				"z": 1.0814647092,
				"element": "O" 
			},
			{
				"x": 2.3708290907,
				"y": -0.7999487233,
				"z": 2.8481770603,
				"element": "O" 
			},
			{
				"x": 0.8898117266,
				"y": -0.6370767314,
				"z": 0.6821859568,
				"element": "C" 
			},
			{
				"x": 0.6673415572,
				"y": -0.0835543621,
				"z": -0.5735567593,
				"element": "C" 
			},
			{
				"x": -0.1960542967,
				"y": -0.7085344157,
				"z": -1.4863620121,
				"element": "C" 
			},
			{
				"x": -0.3280696257,
				"y": 0.0130489302,
				"z": -2.7898804271,
				"element": "C" 
			},
			{
				"x": -1.0774358982,
				"y": -0.6259320561,
				"z": -3.7200095122,
				"element": "O" 
			},
			{
				"x": 0.1876354732,
				"y": 1.0882485401,
				"z": -3.0243392012,
				"element": "O" 
			},
			{
				"x": -0.8502993863,
				"y": -1.916138781,
				"z": -1.1360644942,
				"element": "C" 
			},
			{
				"x": -1.7973730109,
				"y": -2.6706693805,
				"z": -2.0394477871,
				"element": "C" 
			},
			{
				"x": -0.5949671136,
				"y": -2.4461060983,
				"z": 0.1389397365,
				"element": "C" 
			},
			{
				"x": 0.260101648,
				"y": -1.8290011875,
				"z": 1.0467438823,
				"element": "C" 
			},
			{
				"x": -0.2729111206,
				"y": 1.579837751,
				"z": 4.2891038638,
				"element": "H" 
			},
			{
				"x": -0.8838970208,
				"y": 0.4167748344,
				"z": 3.0875706916,
				"element": "H" 
			},
			{
				"x": 0.4657242776,
				"y": -0.027249828,
				"z": 4.1777063786,
				"element": "H" 
			},
			{
				"x": 1.4089329187,
				"y": 2.8601452722,
				"z": 1.3027413619,
				"element": "H" 
			},
			{
				"x": -0.2824622301,
				"y": 2.2767919052,
				"z": 1.2556020854,
				"element": "H" 
			},
			{
				"x": 0.2909274026,
				"y": 3.2753790358,
				"z": 2.6139528092,
				"element": "H" 
			},
			{
				"x": 1.1738448716,
				"y": 0.8244131557,
				"z": -0.8791175974,
				"element": "H" 
			},
			{
				"x": -1.0662879675,
				"y": -0.0460135389,
				"z": -4.5002734942,
				"element": "H" 
			},
			{
				"x": -1.2987417094,
				"y": -3.0043850013,
				"z": -2.953267815,
				"element": "H" 
			},
			{
				"x": -2.1924473894,
				"y": -3.5467938119,
				"z": -1.519651453,
				"element": "H" 
			},
			{
				"x": -2.6363443695,
				"y": -2.0462906881,
				"z": -2.3571232685,
				"element": "H" 
			},
			{
				"x": -1.0793761541,
				"y": -3.3764094225,
				"z": 0.4210528266,
				"element": "H" 
			},
			{
				"x": 0.4615326242,
				"y": -2.2721325783,
				"z": 2.0159314453,
				"element": "H" 
			}
		],
		 "valence_orbital": [ 
			{
				"type": "occ",
				"energy": -0.30008,
				"method": "rhf"
			},
			{
				"type": "occ",
				"energy": -0.28957,
				"method": "rhf"
			},
			{
				"type": "occ",
				"energy": -0.27887,
				"method": "rhf"
			},
			{
				"type": "occ",
				"energy": -0.2772,
				"method": "rhf"
			},
			{
				"type": "occ",
				"energy": -0.254,
				"method": "rhf"
			},
			{
				"type": "unocc",
				"energy": -0.06599,
				"method": "rhf"
			},
			{
				"type": "unocc",
				"energy": -0.03812,
				"method": "rhf"
			},
			{
				"type": "unocc",
				"energy": 0.03241,
				"method": "rhf"
			},
			{
				"type": "unocc",
				"energy": 0.05813,
				"method": "rhf"
			},
			{
				"type": "unocc",
				"energy": 0.07323,
				"method": "rhf"
			}
		],
		"cosmo_sigma_profile": { 
			"-0.025": 0.0,
			"-0.024": 0.0,
			"-0.023": 0.0,
			"-0.022": 0.0,
			"-0.021": 0.0,
			"-0.02": 0.0,
			"-0.019": 0.12581868062,
			"-0.018": 0.751621111349,
			"-0.017": 1.07942249302,
			"-0.016": 0.625867400149,
			"-0.015": 0.58407427682,
			"-0.014": 0.854440185097,
			"-0.013": 0.380333980755,
			"-0.012": 1.0038966883,
			"-0.011": 0.849897485176,
			"-0.01": 0.961431139271,
			"-0.009": 0.311144691993,
			"-0.008": 0.75809898175,
			"-0.007": 5.96180679373,
			"-0.006": 12.0334024008,
			"-0.005": 15.4847219834,
			"-0.004": 24.8055137393,
			"-0.003": 33.1615476632,
			"-0.002": 27.5035427865,
			"-0.001": 20.7694427131,
			"0.0": 18.9038992295,
			"0.001": 18.0722851595,
			"0.002": 11.5944328117,
			"0.003": 6.24219161616,
			"0.004": 7.10070592936,
			"0.005": 7.57950039214,
			"0.006": 5.45995363838,
			"0.007": 4.93765547288,
			"0.008": 6.26981151975,
			"0.009": 4.9733290206,
			"0.01": 9.49811681167,
			"0.011": 11.7468264225,
			"0.012": 5.34636996791,
			"0.013": 0.00750318561294,
			"0.014": 0.0,
			"0.015": 0.0,
			"0.016": 0.0,
			"0.017": 0.0,
			"0.018": 0.0,
			"0.019": 0.0,
			"0.02": 0.0,
			"0.021": 0.0,
			"0.022": 0.0,
			"0.023": 0.0,
			"0.024": 0.0,
			"0.025": 0.0
		}
	}
}
