{
	 "smiles": "COC(=O)C1=CC(=CC(=C1)C(=O)OC)[N+]([O-])=O", 
	 "Tm": 395.15, 
	 "num_atms": 26, 
	 "gaussian": { 
		 "optdone": 1, 
		 "sigma_profile": "yes", 
		 "theory": "DFT", 
		 "functional": "B3LYP", 
		 "basiset": "6-31G**", 
		 "properties": { 
			 "R2extent": 5635.7446, 
			 "electric_dipole_moment_norm": 4.39303442964, 
			 "electric_quadrupole_moment_norm": 16.5419085755, 
			 "total_energy": -892.501733944, 
			 "HOMO_LUMO_gap": 0.19126, 
			 "cosmo_polarized_energy": -13.18, 
			 "cosmo_cavitation_energy": 32.92, 
			 "cosmo_dispersion_energy": -23.53, 
			 "cosmo_repulsion_energy": 1.83, 
			 "cosmo_total_nonelectrostatic_energy": 11.23, 
			 "SMD_solvation_energy": 11.23 
		},
		"coords": [
			{
				"x": -2.36610626,
				"y": -4.5839777811,
				"z": -1.2072731993,
				"element": "C" 
			},
			{
				"x": -2.2053946027,
				"y": -3.2281558719,
				"z": -0.7535814996,
				"element": "O" 
			},
			{
				"x": -0.9517578755,
				"y": -2.8827646863,
				"z": -0.4024659214,
				"element": "C" 
			},
			{
				"x": -0.0018459813,
				"y": -3.6370886498,
				"z": -0.4529864358,
				"element": "O" 
			},
			{
				"x": -0.8648792408,
				"y": -1.4617415024,
				"z": 0.0571864564,
				"element": "C" 
			},
			{
				"x": 0.390897419,
				"y": -0.9863280843,
				"z": 0.4496077602,
				"element": "C" 
			},
			{
				"x": 0.5001305092,
				"y": 0.3303682885,
				"z": 0.8812362912,
				"element": "C" 
			},
			{
				"x": -0.5930855899,
				"y": 1.1906687146,
				"z": 0.9367053775,
				"element": "C" 
			},
			{
				"x": -1.8437176133,
				"y": 0.7062710283,
				"z": 0.5423434161,
				"element": "C" 
			},
			{
				"x": -1.9780726876,
				"y": -0.6166919744,
				"z": 0.1039347096,
				"element": "C" 
			},
			{
				"x": -3.071368975,
				"y": 1.5599980192,
				"z": 0.5695359507,
				"element": "C" 
			},
			{
				"x": -4.1728403411,
				"y": 1.1736432036,
				"z": 0.2346346515,
				"element": "O" 
			},
			{
				"x": -2.8146395733,
				"y": 2.8074489866,
				"z": 1.0084813793,
				"element": "O" 
			},
			{
				"x": -3.9507655208,
				"y": 3.6884720386,
				"z": 1.0620761933,
				"element": "C" 
			},
			{
				"x": 1.8226243262,
				"y": 0.8375114832,
				"z": 1.2966455,
				"element": "N" 
			},
			{
				"x": 2.7719723715,
				"y": 0.0597943188,
				"z": 1.2385282379,
				"element": "O" 
			},
			{
				"x": 1.8879196603,
				"y": 2.0060675026,
				"z": 1.6740162058,
				"element": "O" 
			},
			{
				"x": -2.074824402,
				"y": -5.2860376199,
				"z": -0.4224743926,
				"element": "H" 
			},
			{
				"x": -1.750976403,
				"y": -4.7658769572,
				"z": -2.0916800286,
				"element": "H" 
			},
			{
				"x": -3.423996559,
				"y": -4.6889039218,
				"z": -1.4452271504,
				"element": "H" 
			},
			{
				"x": 1.2573587828,
				"y": -1.6346902559,
				"z": 0.4160687198,
				"element": "H" 
			},
			{
				"x": -0.4638347001,
				"y": 2.2083865993,
				"z": 1.2791753049,
				"element": "H" 
			},
			{
				"x": -2.9561157946,
				"y": -0.971802818,
				"z": -0.1969970206,
				"element": "H" 
			},
			{
				"x": -4.7116951608,
				"y": 3.2892141643,
				"z": 1.736769665,
				"element": "H" 
			},
			{
				"x": -4.3868197088,
				"y": 3.8097109978,
				"z": 0.067697207,
				"element": "H" 
			},
			{
				"x": -3.5668660796,
				"y": 4.6381047774,
				"z": 1.4329426219,
				"element": "H" 
			}
		],
		 "valence_orbital": [ 
			{
				"type": "occ",
				"energy": -0.3,
				"method": "rhf"
			},
			{
				"type": "occ",
				"energy": -0.29597,
				"method": "rhf"
			},
			{
				"type": "occ",
				"energy": -0.29509,
				"method": "rhf"
			},
			{
				"type": "occ",
				"energy": -0.29158,
				"method": "rhf"
			},
			{
				"type": "occ",
				"energy": -0.29047,
				"method": "rhf"
			},
			{
				"type": "unocc",
				"energy": -0.09921,
				"method": "rhf"
			},
			{
				"type": "unocc",
				"energy": -0.07926,
				"method": "rhf"
			},
			{
				"type": "unocc",
				"energy": -0.04549,
				"method": "rhf"
			},
			{
				"type": "unocc",
				"energy": 0.02728,
				"method": "rhf"
			},
			{
				"type": "unocc",
				"energy": 0.06069,
				"method": "rhf"
			}
		],
		"cosmo_sigma_profile": { 
			"-0.025": 0.0,
			"-0.024": 0.0,
			"-0.023": 0.0,
			"-0.022": 0.0,
			"-0.021": 0.0,
			"-0.02": 0.0,
			"-0.019": 0.0,
			"-0.018": 0.0,
			"-0.017": 0.0,
			"-0.016": 0.0,
			"-0.015": 0.0,
			"-0.014": 0.0,
			"-0.013": 0.0,
			"-0.012": 0.0,
			"-0.011": 0.0,
			"-0.01": 0.0,
			"-0.009": 0.0,
			"-0.008": 0.771045652865,
			"-0.007": 6.05588462288,
			"-0.006": 13.901458087,
			"-0.005": 21.4127817517,
			"-0.004": 32.4601828988,
			"-0.003": 33.0857998364,
			"-0.002": 33.1959527977,
			"-0.001": 17.7012296211,
			"0.0": 11.1106574389,
			"0.001": 9.30293334488,
			"0.002": 8.9029916652,
			"0.003": 9.53511618685,
			"0.004": 8.40558521657,
			"0.005": 6.71547483554,
			"0.006": 9.00660447071,
			"0.007": 12.1146408549,
			"0.008": 7.11871817275,
			"0.009": 7.49513271159,
			"0.01": 5.49793856388,
			"0.011": 8.41310950674,
			"0.012": 1.58249170192,
			"0.013": 0.0,
			"0.014": 0.0,
			"0.015": 0.0,
			"0.016": 0.0,
			"0.017": 0.0,
			"0.018": 0.0,
			"0.019": 0.0,
			"0.02": 0.0,
			"0.021": 0.0,
			"0.022": 0.0,
			"0.023": 0.0,
			"0.024": 0.0,
			"0.025": 0.0
		}
	}
}
