{
	 "smiles": "CCOC(=O)C1=CSN=N1", 
	 "Tm": 360.15, 
	 "num_atms": 16, 
	 "gaussian": { 
		 "optdone": 1, 
		 "sigma_profile": "yes", 
		 "theory": "DFT", 
		 "functional": "B3LYP", 
		 "basiset": "6-31G**", 
		 "properties": { 
			 "R2extent": 2624.5456, 
			 "electric_dipole_moment_norm": 1.49029518553, 
			 "electric_quadrupole_moment_norm": 12.7268565958, 
			 "total_energy": -852.249036725, 
			 "HOMO_LUMO_gap": 0.19768, 
			 "cosmo_polarized_energy": -10.06, 
			 "cosmo_cavitation_energy": 23.05, 
			 "cosmo_dispersion_energy": -17.53, 
			 "cosmo_repulsion_energy": 1.4, 
			 "cosmo_total_nonelectrostatic_energy": 6.92, 
			 "SMD_solvation_energy": 3.61 
		},
		"coords": [
			{
				"x": -2.7329749008,
				"y": 1.5370801081,
				"z": -2.7852067298,
				"element": "C" 
			},
			{
				"x": -3.0070502531,
				"y": 0.5432782857,
				"z": -1.673591561,
				"element": "C" 
			},
			{
				"x": -1.9043811662,
				"y": 0.6286460848,
				"z": -0.7366178844,
				"element": "O" 
			},
			{
				"x": -1.9772520976,
				"y": -0.1879914493,
				"z": 0.3219642539,
				"element": "C" 
			},
			{
				"x": -2.8819880257,
				"y": -0.9711654361,
				"z": 0.5387129012,
				"element": "O" 
			},
			{
				"x": -0.8126329942,
				"y": -0.0408021911,
				"z": 1.2329340264,
				"element": "C" 
			},
			{
				"x": -0.6656728972,
				"y": -0.7748458883,
				"z": 2.387936444,
				"element": "C" 
			},
			{
				"x": 0.7758535277,
				"y": -0.3361854396,
				"z": 3.1609093783,
				"element": "S" 
			},
			{
				"x": 1.1387956076,
				"y": 0.8469986358,
				"z": 1.8733384589,
				"element": "N" 
			},
			{
				"x": 0.2209725758,
				"y": 0.8389989308,
				"z": 1.0061456514,
				"element": "N" 
			},
			{
				"x": -1.7962365032,
				"y": 1.3015626514,
				"z": -3.2977749149,
				"element": "H" 
			},
			{
				"x": -3.545683388,
				"y": 1.5043792069,
				"z": -3.5174300981,
				"element": "H" 
			},
			{
				"x": -2.6634322671,
				"y": 2.5547330708,
				"z": -2.3912265643,
				"element": "H" 
			},
			{
				"x": -3.9368779459,
				"y": 0.7631667238,
				"z": -1.1399012981,
				"element": "H" 
			},
			{
				"x": -3.073109795,
				"y": -0.4848945678,
				"z": -2.0427135312,
				"element": "H" 
			},
			{
				"x": -1.3602294773,
				"y": -1.5188587261,
				"z": 2.7515214679,
				"element": "H" 
			}
		],
		 "valence_orbital": [ 
			{
				"type": "occ",
				"energy": -0.32684,
				"method": "rhf"
			},
			{
				"type": "occ",
				"energy": -0.30867,
				"method": "rhf"
			},
			{
				"type": "occ",
				"energy": -0.28904,
				"method": "rhf"
			},
			{
				"type": "occ",
				"energy": -0.28381,
				"method": "rhf"
			},
			{
				"type": "occ",
				"energy": -0.27232,
				"method": "rhf"
			},
			{
				"type": "unocc",
				"energy": -0.07464,
				"method": "rhf"
			},
			{
				"type": "unocc",
				"energy": -0.03665,
				"method": "rhf"
			},
			{
				"type": "unocc",
				"energy": -0.02649,
				"method": "rhf"
			},
			{
				"type": "unocc",
				"energy": 0.07212,
				"method": "rhf"
			},
			{
				"type": "unocc",
				"energy": 0.08982,
				"method": "rhf"
			}
		],
		"cosmo_sigma_profile": { 
			"-0.025": 0.0,
			"-0.024": 0.0,
			"-0.023": 0.0,
			"-0.022": 0.0,
			"-0.021": 0.0,
			"-0.02": 0.0,
			"-0.019": 0.0,
			"-0.018": 0.0,
			"-0.017": 0.0,
			"-0.016": 0.0,
			"-0.015": 0.0,
			"-0.014": 0.0,
			"-0.013": 0.0,
			"-0.012": 0.670157434872,
			"-0.011": 2.13297123926,
			"-0.01": 1.43663904666,
			"-0.009": 1.65867954821,
			"-0.008": 1.77035822547,
			"-0.007": 1.7839606491,
			"-0.006": 3.93186557379,
			"-0.005": 11.2973276023,
			"-0.004": 21.5862548938,
			"-0.003": 23.5308929453,
			"-0.002": 22.1393034442,
			"-0.001": 20.2606118422,
			"0.0": 15.5705128216,
			"0.001": 6.09484572221,
			"0.002": 4.70001691932,
			"0.003": 4.06171084329,
			"0.004": 4.71115179777,
			"0.005": 4.30273997483,
			"0.006": 4.12511466982,
			"0.007": 3.89497410312,
			"0.008": 5.54699015186,
			"0.009": 5.79372626477,
			"0.01": 5.3663161784,
			"0.011": 6.60561315883,
			"0.012": 3.74593331441,
			"0.013": 0.115011044661,
			"0.014": 0.0,
			"0.015": 0.0,
			"0.016": 0.0,
			"0.017": 0.0,
			"0.018": 0.0,
			"0.019": 0.0,
			"0.02": 0.0,
			"0.021": 0.0,
			"0.022": 0.0,
			"0.023": 0.0,
			"0.024": 0.0,
			"0.025": 0.0
		}
	}
}
