{
	 "smiles": "OC(=O)C1=CNC(=C1)C#N", 
	 "Tm": 503.15, 
	 "num_atms": 14, 
	 "gaussian": { 
		 "optdone": 1, 
		 "sigma_profile": "yes", 
		 "theory": "DFT", 
		 "functional": "B3LYP", 
		 "basiset": "6-31G**", 
		 "properties": { 
			 "R2extent": 2005.9881, 
			 "electric_dipole_moment_norm": 6.10143447887, 
			 "electric_quadrupole_moment_norm": 23.3999188093, 
			 "total_energy": -490.976428874, 
			 "HOMO_LUMO_gap": 0.21242, 
			 "cosmo_polarized_energy": -25.47, 
			 "cosmo_cavitation_energy": 20.65, 
			 "cosmo_dispersion_energy": -14.73, 
			 "cosmo_repulsion_energy": 1.21, 
			 "cosmo_total_nonelectrostatic_energy": 7.13, 
			 "SMD_solvation_energy": 6.5 
		},
		"coords": [
			{
				"x": 2.9417925005,
				"y": -0.5046759488,
				"z": 0.1451329193,
				"element": "O" 
			},
			{
				"x": 2.024042038,
				"y": 0.4884684424,
				"z": 0.3077424124,
				"element": "C" 
			},
			{
				"x": 2.2907813333,
				"y": 1.6151457868,
				"z": -0.0372829649,
				"element": "O" 
			},
			{
				"x": 0.7221577851,
				"y": 0.1226578925,
				"z": 0.9117940356,
				"element": "C" 
			},
			{
				"x": 0.2575034521,
				"y": -1.1110608238,
				"z": 1.3596478846,
				"element": "C" 
			},
			{
				"x": -1.0037782762,
				"y": -0.941484311,
				"z": 1.8345006818,
				"element": "N" 
			},
			{
				"x": -1.3763661763,
				"y": 0.3898777402,
				"z": 1.7050669101,
				"element": "C" 
			},
			{
				"x": -0.3159418379,
				"y": 1.0669388023,
				"z": 1.1331584963,
				"element": "C" 
			},
			{
				"x": -2.6507983062,
				"y": 0.8430180797,
				"z": 2.125651662,
				"element": "C" 
			},
			{
				"x": -3.7019561751,
				"y": 1.2012385653,
				"z": 2.4758212308,
				"element": "N" 
			},
			{
				"x": 2.6020219463,
				"y": -1.3522327381,
				"z": 0.4609111062,
				"element": "H" 
			},
			{
				"x": 0.7179680056,
				"y": -2.0890535459,
				"z": 1.3792028892,
				"element": "H" 
			},
			{
				"x": -1.5901312386,
				"y": -1.6644211392,
				"z": 2.2241228535,
				"element": "H" 
			},
			{
				"x": -0.2713950507,
				"y": 2.1182831975,
				"z": 0.8937298831,
				"element": "H" 
			}
		],
		 "valence_orbital": [ 
			{
				"type": "occ",
				"energy": -0.35001,
				"method": "rhf"
			},
			{
				"type": "occ",
				"energy": -0.32508,
				"method": "rhf"
			},
			{
				"type": "occ",
				"energy": -0.28995,
				"method": "rhf"
			},
			{
				"type": "occ",
				"energy": -0.2819,
				"method": "rhf"
			},
			{
				"type": "occ",
				"energy": -0.25983,
				"method": "rhf"
			},
			{
				"type": "unocc",
				"energy": -0.04741,
				"method": "rhf"
			},
			{
				"type": "unocc",
				"energy": -0.03618,
				"method": "rhf"
			},
			{
				"type": "unocc",
				"energy": 0.00129,
				"method": "rhf"
			},
			{
				"type": "unocc",
				"energy": 0.03399,
				"method": "rhf"
			},
			{
				"type": "unocc",
				"energy": 0.05082,
				"method": "rhf"
			}
		],
		"cosmo_sigma_profile": { 
			"-0.025": 0.0,
			"-0.024": 0.0,
			"-0.023": 0.0,
			"-0.022": 0.0,
			"-0.021": 0.0,
			"-0.02": 0.601060163654,
			"-0.019": 1.05060448366,
			"-0.018": 2.70983251471,
			"-0.017": 2.75027498659,
			"-0.016": 2.8144640697,
			"-0.015": 2.78190836506,
			"-0.014": 1.79128779377,
			"-0.013": 2.3151579167,
			"-0.012": 3.17650588637,
			"-0.011": 3.72155017612,
			"-0.01": 2.52263541319,
			"-0.009": 2.37560401144,
			"-0.008": 3.6452232896,
			"-0.007": 4.66366204473,
			"-0.006": 3.69150901436,
			"-0.005": 3.90428088349,
			"-0.004": 4.77689518308,
			"-0.003": 6.33585778963,
			"-0.002": 7.42410620815,
			"-0.001": 9.37981248082,
			"0.0": 10.8900926642,
			"0.001": 11.6637701871,
			"0.002": 8.99850213753,
			"0.003": 5.12776426367,
			"0.004": 4.89602682552,
			"0.005": 4.25337020079,
			"0.006": 4.54465925237,
			"0.007": 5.72605663581,
			"0.008": 5.89840528452,
			"0.009": 6.16531346541,
			"0.01": 7.67162976404,
			"0.011": 7.89844542649,
			"0.012": 7.75688614309,
			"0.013": 3.07103457647,
			"0.014": 0.272143674109,
			"0.015": 0.0,
			"0.016": 0.0,
			"0.017": 0.0,
			"0.018": 0.0,
			"0.019": 0.0,
			"0.02": 0.0,
			"0.021": 0.0,
			"0.022": 0.0,
			"0.023": 0.0,
			"0.024": 0.0,
			"0.025": 0.0
		}
	}
}
