{
	 "smiles": "CCOCOCC", 
	 "Tm": 206.95, 
	 "num_atms": 19, 
	 "gaussian": { 
		 "optdone": 1, 
		 "sigma_profile": "yes", 
		 "theory": "DFT", 
		 "functional": "B3LYP", 
		 "basiset": "6-31G**", 
		 "properties": { 
			 "R2extent": 1497.7157, 
			 "electric_dipole_moment_norm": 0.27307815731, 
			 "electric_quadrupole_moment_norm": 4.45879098299, 
			 "total_energy": -348.198929612, 
			 "HOMO_LUMO_gap": 0.35549, 
			 "cosmo_polarized_energy": -4.88, 
			 "cosmo_cavitation_energy": 21.42, 
			 "cosmo_dispersion_energy": -15.69, 
			 "cosmo_repulsion_energy": 1.37, 
			 "cosmo_total_nonelectrostatic_energy": 7.09, 
			 "SMD_solvation_energy": 4.39 
		},
		"coords": [
			{
				"x": 2.717224029,
				"y": -0.7968733278,
				"z": -0.6227237958,
				"element": "C" 
			},
			{
				"x": 1.4189737246,
				"y": -0.2727205296,
				"z": -0.0158531341,
				"element": "C" 
			},
			{
				"x": 1.4110886342,
				"y": 1.1564813498,
				"z": 0.0856555365,
				"element": "O" 
			},
			{
				"x": 0.9492493585,
				"y": 1.8143241179,
				"z": -1.0677126422,
				"element": "C" 
			},
			{
				"x": -0.4248676673,
				"y": 1.6513669226,
				"z": -1.3025004118,
				"element": "O" 
			},
			{
				"x": -1.2563331881,
				"y": 2.279264439,
				"z": -0.325798219,
				"element": "C" 
			},
			{
				"x": -2.7056080448,
				"y": 2.0323904583,
				"z": -0.7079806195,
				"element": "C" 
			},
			{
				"x": 2.850848547,
				"y": -0.4492219222,
				"z": -1.6523554136,
				"element": "H" 
			},
			{
				"x": 2.7151626452,
				"y": -1.8922965044,
				"z": -0.6397533366,
				"element": "H" 
			},
			{
				"x": 3.5772949948,
				"y": -0.4613406525,
				"z": -0.0357896483,
				"element": "H" 
			},
			{
				"x": 0.5467120114,
				"y": -0.6094490509,
				"z": -0.589909214,
				"element": "H" 
			},
			{
				"x": 1.3033480392,
				"y": -0.6430364952,
				"z": 1.0079882097,
				"element": "H" 
			},
			{
				"x": 1.2028048058,
				"y": 2.8731315462,
				"z": -0.9142741451,
				"element": "H" 
			},
			{
				"x": 1.4408214128,
				"y": 1.4413409349,
				"z": -1.9759901681,
				"element": "H" 
			},
			{
				"x": -1.0386898819,
				"y": 3.3597899535,
				"z": -0.2975282473,
				"element": "H" 
			},
			{
				"x": -1.0373584588,
				"y": 1.8752188451,
				"z": 0.6709435589,
				"element": "H" 
			},
			{
				"x": -2.9186562321,
				"y": 2.4401562664,
				"z": -1.7005217377,
				"element": "H" 
			},
			{
				"x": -3.3765371987,
				"y": 2.50772976,
				"z": 0.0146373029,
				"element": "H" 
			},
			{
				"x": -2.9211775308,
				"y": 0.9599438888,
				"z": -0.7262338748,
				"element": "H" 
			}
		],
		 "valence_orbital": [ 
			{
				"type": "occ",
				"energy": -0.353,
				"method": "rhf"
			},
			{
				"type": "occ",
				"energy": -0.3369,
				"method": "rhf"
			},
			{
				"type": "occ",
				"energy": -0.29275,
				"method": "rhf"
			},
			{
				"type": "occ",
				"energy": -0.26641,
				"method": "rhf"
			},
			{
				"type": "occ",
				"energy": -0.26207,
				"method": "rhf"
			},
			{
				"type": "unocc",
				"energy": 0.09342,
				"method": "rhf"
			},
			{
				"type": "unocc",
				"energy": 0.10928,
				"method": "rhf"
			},
			{
				"type": "unocc",
				"energy": 0.12738,
				"method": "rhf"
			},
			{
				"type": "unocc",
				"energy": 0.13187,
				"method": "rhf"
			},
			{
				"type": "unocc",
				"energy": 0.14416,
				"method": "rhf"
			}
		],
		"cosmo_sigma_profile": { 
			"-0.025": 0.0,
			"-0.024": 0.0,
			"-0.023": 0.0,
			"-0.022": 0.0,
			"-0.021": 0.0,
			"-0.02": 0.0,
			"-0.019": 0.0,
			"-0.018": 0.0,
			"-0.017": 0.0,
			"-0.016": 0.0,
			"-0.015": 0.0,
			"-0.014": 0.0,
			"-0.013": 0.0,
			"-0.012": 0.0,
			"-0.011": 0.0,
			"-0.01": 0.0,
			"-0.009": 0.0,
			"-0.008": 0.0,
			"-0.007": 0.0,
			"-0.006": 0.215194718297,
			"-0.005": 5.26464947809,
			"-0.004": 15.7343703457,
			"-0.003": 24.8073005473,
			"-0.002": 27.2966770194,
			"-0.001": 22.5984786643,
			"0.0": 19.8542100457,
			"0.001": 14.6113409424,
			"0.002": 6.19973259423,
			"0.003": 4.13613477455,
			"0.004": 3.37467805917,
			"0.005": 3.18285030758,
			"0.006": 2.63652556678,
			"0.007": 2.93975586343,
			"0.008": 2.40533432918,
			"0.009": 2.15238632065,
			"0.01": 1.50352279701,
			"0.011": 2.31256021759,
			"0.012": 2.41220975719,
			"0.013": 2.01238300582,
			"0.014": 0.239890198686,
			"0.015": 0.0,
			"0.016": 0.0,
			"0.017": 0.0,
			"0.018": 0.0,
			"0.019": 0.0,
			"0.02": 0.0,
			"0.021": 0.0,
			"0.022": 0.0,
			"0.023": 0.0,
			"0.024": 0.0,
			"0.025": 0.0
		}
	}
}
