{
	 "smiles": "OC(=O)C1=CC(OCC(F)(F)F)=CC(OCC(F)(F)F)=C1", 
	 "Tm": 415.15, 
	 "num_atms": 29, 
	 "gaussian": { 
		 "optdone": 1, 
		 "sigma_profile": "yes", 
		 "theory": "DFT", 
		 "functional": "B3LYP", 
		 "basiset": "6-31G**", 
		 "properties": { 
			 "R2extent": 8602.4264, 
			 "electric_dipole_moment_norm": 2.10822625446, 
			 "electric_quadrupole_moment_norm": 17.5993867584, 
			 "total_energy": -1323.93228668, 
			 "HOMO_LUMO_gap": 0.18129, 
			 "cosmo_polarized_energy": -14.85, 
			 "cosmo_cavitation_energy": 37.95, 
			 "cosmo_dispersion_energy": -26.0, 
			 "cosmo_repulsion_energy": 1.9, 
			 "cosmo_total_nonelectrostatic_energy": 13.85, 
			 "SMD_solvation_energy": 10.45 
		},
		"coords": [
			{
				"x": 4.6681335532,
				"y": -0.8445482714,
				"z": 0.730573538,
				"element": "O" 
			},
			{
				"x": 4.0917961425,
				"y": 0.321056719,
				"z": 1.1196879613,
				"element": "C" 
			},
			{
				"x": 4.7286719755,
				"y": 1.2130752746,
				"z": 1.6416176973,
				"element": "O" 
			},
			{
				"x": 2.6295051458,
				"y": 0.3691551326,
				"z": 0.836746488,
				"element": "C" 
			},
			{
				"x": 1.9446049899,
				"y": 1.5251152606,
				"z": 1.1988223851,
				"element": "C" 
			},
			{
				"x": 0.5695775005,
				"y": 1.6135570335,
				"z": 0.9496812835,
				"element": "C" 
			},
			{
				"x": -0.0148532249,
				"y": 2.7929333081,
				"z": 1.3414580659,
				"element": "O" 
			},
			{
				"x": -1.270874123,
				"y": 3.1772013927,
				"z": 0.8252873353,
				"element": "C" 
			},
			{
				"x": -2.4166863105,
				"y": 2.8288146813,
				"z": 1.7675568405,
				"element": "C" 
			},
			{
				"x": -2.2343119481,
				"y": 3.3617309015,
				"z": 2.9855659252,
				"element": "F" 
			},
			{
				"x": -2.5708381093,
				"y": 1.4966189903,
				"z": 1.9210659938,
				"element": "F" 
			},
			{
				"x": -3.5670534477,
				"y": 3.3209234078,
				"z": 1.2583224701,
				"element": "F" 
			},
			{
				"x": -0.1092985438,
				"y": 0.5540204286,
				"z": 0.3525005809,
				"element": "C" 
			},
			{
				"x": 0.6015176928,
				"y": -0.5983963623,
				"z": -0.0174033287,
				"element": "C" 
			},
			{
				"x": -0.1613300932,
				"y": -1.573435337,
				"z": -0.6010875057,
				"element": "O" 
			},
			{
				"x": 0.4691244697,
				"y": -2.7773417328,
				"z": -0.9765269161,
				"element": "C" 
			},
			{
				"x": -0.5937201675,
				"y": -3.6756565953,
				"z": -1.5844767645,
				"element": "C" 
			},
			{
				"x": -0.0175072875,
				"y": -4.8392112671,
				"z": -1.9574659169,
				"element": "F" 
			},
			{
				"x": -1.1541398473,
				"y": -3.1200218881,
				"z": -2.672224614,
				"element": "F" 
			},
			{
				"x": -1.5724821784,
				"y": -3.9561531574,
				"z": -0.7082976399,
				"element": "F" 
			},
			{
				"x": 1.970137569,
				"y": -0.7069545657,
				"z": 0.2182899958,
				"element": "C" 
			},
			{
				"x": 5.6078583869,
				"y": -0.7641727397,
				"z": 0.9625957697,
				"element": "H" 
			},
			{
				"x": 2.4705391587,
				"y": 2.3489150779,
				"z": 1.6652662281,
				"element": "H" 
			},
			{
				"x": -1.4748277071,
				"y": 2.7404984176,
				"z": -0.1576013176,
				"element": "H" 
			},
			{
				"x": -1.2547529597,
				"y": 4.2662540312,
				"z": 0.729481267,
				"element": "H" 
			},
			{
				"x": -1.1792059207,
				"y": 0.5626867438,
				"z": 0.1946050522,
				"element": "H" 
			},
			{
				"x": 1.2504553676,
				"y": -2.6145879037,
				"z": -1.7293025287,
				"element": "H" 
			},
			{
				"x": 0.9066774334,
				"y": -3.2974420113,
				"z": -0.1153794246,
				"element": "H" 
			},
			{
				"x": 2.5340824834,
				"y": -1.5880349694,
				"z": -0.053758921,
				"element": "H" 
			}
		],
		 "valence_orbital": [ 
			{
				"type": "occ",
				"energy": -0.33195,
				"method": "rhf"
			},
			{
				"type": "occ",
				"energy": -0.31913,
				"method": "rhf"
			},
			{
				"type": "occ",
				"energy": -0.28523,
				"method": "rhf"
			},
			{
				"type": "occ",
				"energy": -0.25781,
				"method": "rhf"
			},
			{
				"type": "occ",
				"energy": -0.23935,
				"method": "rhf"
			},
			{
				"type": "unocc",
				"energy": -0.05806,
				"method": "rhf"
			},
			{
				"type": "unocc",
				"energy": -0.00497,
				"method": "rhf"
			},
			{
				"type": "unocc",
				"energy": 0.05076,
				"method": "rhf"
			},
			{
				"type": "unocc",
				"energy": 0.0665,
				"method": "rhf"
			},
			{
				"type": "unocc",
				"energy": 0.07727,
				"method": "rhf"
			}
		],
		"cosmo_sigma_profile": { 
			"-0.025": 0.0,
			"-0.024": 0.0,
			"-0.023": 0.0,
			"-0.022": 0.0,
			"-0.021": 0.0,
			"-0.02": 0.0,
			"-0.019": 0.136119179567,
			"-0.018": 0.956460966082,
			"-0.017": 0.87085447239,
			"-0.016": 0.735638991781,
			"-0.015": 0.571213308915,
			"-0.014": 0.823743005497,
			"-0.013": 0.779991314461,
			"-0.012": 0.966209578983,
			"-0.011": 1.01024371879,
			"-0.01": 2.59427104328,
			"-0.009": 10.3154954476,
			"-0.008": 12.9057517141,
			"-0.007": 9.83955994661,
			"-0.006": 10.5177732868,
			"-0.005": 7.2955841366,
			"-0.004": 7.84391784436,
			"-0.003": 9.30264974556,
			"-0.002": 10.6187031887,
			"-0.001": 13.1415886588,
			"0.0": 19.654409186,
			"0.001": 29.3534396826,
			"0.002": 68.2473181238,
			"0.003": 44.8714514671,
			"0.004": 8.58957384288,
			"0.005": 7.03386578051,
			"0.006": 6.34301244612,
			"0.007": 4.30035790164,
			"0.008": 2.96778790573,
			"0.009": 1.52749742649,
			"0.01": 2.47620697449,
			"0.011": 4.51427786806,
			"0.012": 2.46239241974,
			"0.013": 0.0,
			"0.014": 0.0,
			"0.015": 0.0,
			"0.016": 0.0,
			"0.017": 0.0,
			"0.018": 0.0,
			"0.019": 0.0,
			"0.02": 0.0,
			"0.021": 0.0,
			"0.022": 0.0,
			"0.023": 0.0,
			"0.024": 0.0,
			"0.025": 0.0
		}
	}
}
