{
	 "smiles": "COCCN1N=NC(C(O)=O)=C1C(F)(F)F", 
	 "Tm": 329.15, 
	 "num_atms": 24, 
	 "gaussian": { 
		 "optdone": 1, 
		 "sigma_profile": "yes", 
		 "theory": "DFT", 
		 "functional": "B3LYP", 
		 "basiset": "6-31G**", 
		 "properties": { 
			 "R2extent": 3971.1037, 
			 "electric_dipole_moment_norm": 8.28642629545, 
			 "electric_quadrupole_moment_norm": 17.8046212366, 
			 "total_energy": -960.954939506, 
			 "HOMO_LUMO_gap": 0.22082, 
			 "cosmo_polarized_energy": -19.22, 
			 "cosmo_cavitation_energy": 29.73, 
			 "cosmo_dispersion_energy": -20.65, 
			 "cosmo_repulsion_energy": 1.57, 
			 "cosmo_total_nonelectrostatic_energy": 10.66, 
			 "SMD_solvation_energy": 6.2 
		},
		"coords": [
			{
				"x": -2.8619172295,
				"y": 0.8157068346,
				"z": 0.9479730431,
				"element": "C" 
			},
			{
				"x": -2.2997458915,
				"y": -0.0115707359,
				"z": -0.0550063325,
				"element": "O" 
			},
			{
				"x": -2.3670842701,
				"y": -1.3853376438,
				"z": 0.251056848,
				"element": "C" 
			},
			{
				"x": -1.6260910204,
				"y": -2.1518177504,
				"z": -0.8404589523,
				"element": "C" 
			},
			{
				"x": -0.2093914834,
				"y": -1.7818029449,
				"z": -0.8812984881,
				"element": "N" 
			},
			{
				"x": 0.652315388,
				"y": -2.4909669272,
				"z": -0.1131990047,
				"element": "N" 
			},
			{
				"x": 1.8246376242,
				"y": -1.9407659428,
				"z": -0.1965414509,
				"element": "N" 
			},
			{
				"x": 1.7489618443,
				"y": -0.8464654023,
				"z": -1.0059524511,
				"element": "C" 
			},
			{
				"x": 2.97197053,
				"y": -0.0313755128,
				"z": -1.2886692889,
				"element": "C" 
			},
			{
				"x": 2.7704495671,
				"y": 1.2815403504,
				"z": -1.5596863853,
				"element": "O" 
			},
			{
				"x": 4.0798178243,
				"y": -0.5008241594,
				"z": -1.2779477504,
				"element": "O" 
			},
			{
				"x": 0.4380426063,
				"y": -0.7334330819,
				"z": -1.4535956723,
				"element": "C" 
			},
			{
				"x": -0.1372762998,
				"y": 0.2648822482,
				"z": -2.4102999779,
				"element": "C" 
			},
			{
				"x": -1.3855025546,
				"y": -0.0200568039,
				"z": -2.8040585183,
				"element": "F" 
			},
			{
				"x": 0.631181899,
				"y": 0.3584314036,
				"z": -3.5103856055,
				"element": "F" 
			},
			{
				"x": -0.1563918992,
				"y": 1.5063155665,
				"z": -1.8447627616,
				"element": "F" 
			},
			{
				"x": -3.9337686631,
				"y": 0.6109644463,
				"z": 1.0876231329,
				"element": "H" 
			},
			{
				"x": -2.351933922,
				"y": 0.6839229358,
				"z": 1.9138056098,
				"element": "H" 
			},
			{
				"x": -2.737647518,
				"y": 1.8483889992,
				"z": 0.6164183541,
				"element": "H" 
			},
			{
				"x": -3.4101870482,
				"y": -1.7416329726,
				"z": 0.2862019549,
				"element": "H" 
			},
			{
				"x": -1.9044349834,
				"y": -1.5985963913,
				"z": 1.2277572451,
				"element": "H" 
			},
			{
				"x": -1.6510487821,
				"y": -3.2224706115,
				"z": -0.6308453707,
				"element": "H" 
			},
			{
				"x": -2.0688909048,
				"y": -1.9613289638,
				"z": -1.8165775083,
				"element": "H" 
			},
			{
				"x": 1.8494351867,
				"y": 1.5460930598,
				"z": -1.417450669,
				"element": "H" 
			}
		],
		 "valence_orbital": [ 
			{
				"type": "occ",
				"energy": -0.31865,
				"method": "rhf"
			},
			{
				"type": "occ",
				"energy": -0.29608,
				"method": "rhf"
			},
			{
				"type": "occ",
				"energy": -0.29335,
				"method": "rhf"
			},
			{
				"type": "occ",
				"energy": -0.28615,
				"method": "rhf"
			},
			{
				"type": "occ",
				"energy": -0.2758,
				"method": "rhf"
			},
			{
				"type": "unocc",
				"energy": -0.05498,
				"method": "rhf"
			},
			{
				"type": "unocc",
				"energy": -0.02692,
				"method": "rhf"
			},
			{
				"type": "unocc",
				"energy": 0.06075,
				"method": "rhf"
			},
			{
				"type": "unocc",
				"energy": 0.06574,
				"method": "rhf"
			},
			{
				"type": "unocc",
				"energy": 0.07558,
				"method": "rhf"
			}
		],
		"cosmo_sigma_profile": { 
			"-0.025": 0.0,
			"-0.024": 0.0,
			"-0.023": 0.0,
			"-0.022": 0.0,
			"-0.021": 0.0,
			"-0.02": 0.0,
			"-0.019": 0.0,
			"-0.018": 0.0,
			"-0.017": 0.0,
			"-0.016": 0.0560533566043,
			"-0.015": 0.596105487498,
			"-0.014": 1.00465443207,
			"-0.013": 0.770450830903,
			"-0.012": 1.0707780698,
			"-0.011": 1.21381586081,
			"-0.01": 1.43464514357,
			"-0.009": 2.73401091623,
			"-0.008": 5.79249871698,
			"-0.007": 8.07930842438,
			"-0.006": 11.294243118,
			"-0.005": 20.0508717817,
			"-0.004": 22.6441032556,
			"-0.003": 19.5748270785,
			"-0.002": 16.9406422379,
			"-0.001": 11.0774976131,
			"0.0": 13.8645928541,
			"0.001": 20.754744672,
			"0.002": 11.1095064935,
			"0.003": 5.55074744842,
			"0.004": 7.57391546621,
			"0.005": 5.53892130053,
			"0.006": 5.28599621798,
			"0.007": 5.32621194736,
			"0.008": 7.72800474058,
			"0.009": 8.28367640702,
			"0.01": 7.61830343562,
			"0.011": 7.68061937421,
			"0.012": 4.4370681488,
			"0.013": 1.50241338903,
			"0.014": 0.536593748982,
			"0.015": 0.0,
			"0.016": 0.0,
			"0.017": 0.0,
			"0.018": 0.0,
			"0.019": 0.0,
			"0.02": 0.0,
			"0.021": 0.0,
			"0.022": 0.0,
			"0.023": 0.0,
			"0.024": 0.0,
			"0.025": 0.0
		}
	}
}
