{
	 "smiles": "C1CCCC2OC2CC1", 
	 "Tm": 327.65, 
	 "num_atms": 23, 
	 "gaussian": { 
		 "optdone": 1, 
		 "sigma_profile": "yes", 
		 "theory": "DFT", 
		 "functional": "B3LYP", 
		 "basiset": "6-31G**", 
		 "properties": { 
			 "R2extent": 1199.2621, 
			 "electric_dipole_moment_norm": 1.66335651921, 
			 "electric_quadrupole_moment_norm": 4.09072785577, 
			 "total_energy": -388.473858987, 
			 "HOMO_LUMO_gap": 0.33297, 
			 "cosmo_polarized_energy": -3.89, 
			 "cosmo_cavitation_energy": 22.2, 
			 "cosmo_dispersion_energy": -17.36, 
			 "cosmo_repulsion_energy": 1.42, 
			 "cosmo_total_nonelectrostatic_energy": 6.26, 
			 "SMD_solvation_energy": 2.61 
		},
		"coords": [
			{
				"x": 0.0829048837,
				"y": 1.9300552648,
				"z": 0.872928348,
				"element": "C" 
			},
			{
				"x": -0.5712123599,
				"y": 0.7009948043,
				"z": 1.5435605691,
				"element": "C" 
			},
			{
				"x": -1.3834827452,
				"y": -0.2475693948,
				"z": 0.6332976661,
				"element": "C" 
			},
			{
				"x": -0.6403372618,
				"y": -1.261932588,
				"z": -0.2620430291,
				"element": "C" 
			},
			{
				"x": -0.0014325358,
				"y": -0.7250321093,
				"z": -1.5398490767,
				"element": "C" 
			},
			{
				"x": -0.0702206736,
				"y": 0.6844451678,
				"z": -1.7991747099,
				"element": "O" 
			},
			{
				"x": 1.2208232485,
				"y": 0.1030488939,
				"z": -1.5361541863,
				"element": "C" 
			},
			{
				"x": 1.9469215896,
				"y": 0.4511450724,
				"z": -0.2433575161,
				"element": "C" 
			},
			{
				"x": 1.5539847021,
				"y": 1.7761158538,
				"z": 0.4320151693,
				"element": "C" 
			},
			{
				"x": -0.5256487501,
				"y": 2.2237630107,
				"z": 0.0146249256,
				"element": "H" 
			},
			{
				"x": 0.0503207815,
				"y": 2.7694496474,
				"z": 1.5793933042,
				"element": "H" 
			},
			{
				"x": 0.176167455,
				"y": 0.1243333727,
				"z": 2.1079512263,
				"element": "H" 
			},
			{
				"x": -1.2758943733,
				"y": 1.0723503776,
				"z": 2.2980153876,
				"element": "H" 
			},
			{
				"x": -2.0519093261,
				"y": 0.3528138113,
				"z": 0.0047391815,
				"element": "H" 
			},
			{
				"x": -2.0336402128,
				"y": -0.840859076,
				"z": 1.2890301991,
				"element": "H" 
			},
			{
				"x": -1.364829976,
				"y": -2.0293525158,
				"z": -0.5597793886,
				"element": "H" 
			},
			{
				"x": 0.1195058907,
				"y": -1.7915876446,
				"z": 0.3310517302,
				"element": "H" 
			},
			{
				"x": -0.1856046447,
				"y": -1.3321228537,
				"z": -2.4292007014,
				"element": "H" 
			},
			{
				"x": 1.8496905142,
				"y": 0.0654072197,
				"z": -2.4282147304,
				"element": "H" 
			},
			{
				"x": 1.8159887466,
				"y": -0.3662375418,
				"z": 0.4774956119,
				"element": "H" 
			},
			{
				"x": 3.0212504732,
				"y": 0.479401998,
				"z": -0.4599760774,
				"element": "H" 
			},
			{
				"x": 2.1996745734,
				"y": 1.8813447969,
				"z": 1.3143181569,
				"element": "H" 
			},
			{
				"x": 1.8093800004,
				"y": 2.6120244327,
				"z": -0.23117206,
				"element": "H" 
			}
		],
		 "valence_orbital": [ 
			{
				"type": "occ",
				"energy": -0.32183,
				"method": "rhf"
			},
			{
				"type": "occ",
				"energy": -0.30822,
				"method": "rhf"
			},
			{
				"type": "occ",
				"energy": -0.29937,
				"method": "rhf"
			},
			{
				"type": "occ",
				"energy": -0.27441,
				"method": "rhf"
			},
			{
				"type": "occ",
				"energy": -0.2551,
				"method": "rhf"
			},
			{
				"type": "unocc",
				"energy": 0.07787,
				"method": "rhf"
			},
			{
				"type": "unocc",
				"energy": 0.09735,
				"method": "rhf"
			},
			{
				"type": "unocc",
				"energy": 0.10094,
				"method": "rhf"
			},
			{
				"type": "unocc",
				"energy": 0.11725,
				"method": "rhf"
			},
			{
				"type": "unocc",
				"energy": 0.12211,
				"method": "rhf"
			}
		],
		"cosmo_sigma_profile": { 
			"-0.025": 0.0,
			"-0.024": 0.0,
			"-0.023": 0.0,
			"-0.022": 0.0,
			"-0.021": 0.0,
			"-0.02": 0.0,
			"-0.019": 0.0,
			"-0.018": 0.0,
			"-0.017": 0.0,
			"-0.016": 0.0,
			"-0.015": 0.0,
			"-0.014": 0.0,
			"-0.013": 0.0,
			"-0.012": 0.0,
			"-0.011": 0.0,
			"-0.01": 0.0,
			"-0.009": 0.0,
			"-0.008": 0.0,
			"-0.007": 0.0,
			"-0.006": 1.2447439191e-05,
			"-0.005": 3.35218180077,
			"-0.004": 8.56970666748,
			"-0.003": 17.3300905995,
			"-0.002": 25.4337584554,
			"-0.001": 32.853356626,
			"0.0": 33.6349678561,
			"0.001": 22.2369624378,
			"0.002": 8.84711536788,
			"0.003": 1.15525984288,
			"0.004": 1.76765074684,
			"0.005": 2.64693564669,
			"0.006": 1.95262112679,
			"0.007": 1.25148696422,
			"0.008": 1.80711014407,
			"0.009": 1.59205642517,
			"0.01": 1.24255406577,
			"0.011": 1.43390312231,
			"0.012": 1.77256300505,
			"0.013": 1.63565632183,
			"0.014": 0.21144138603,
			"0.015": 0.0,
			"0.016": 0.0,
			"0.017": 0.0,
			"0.018": 0.0,
			"0.019": 0.0,
			"0.02": 0.0,
			"0.021": 0.0,
			"0.022": 0.0,
			"0.023": 0.0,
			"0.024": 0.0,
			"0.025": 0.0
		}
	}
}
