{
	 "smiles": "COC1=CC=C(C=O)C(OC)=C1OC", 
	 "Tm": 313.15, 
	 "num_atms": 26, 
	 "gaussian": { 
		 "optdone": 1, 
		 "sigma_profile": "yes", 
		 "theory": "DFT", 
		 "functional": "B3LYP", 
		 "basiset": "6-31G**", 
		 "properties": { 
			 "R2extent": 3570.4375, 
			 "electric_dipole_moment_norm": 4.64364994589, 
			 "electric_quadrupole_moment_norm": 17.8474821992, 
			 "total_energy": -689.13323689, 
			 "HOMO_LUMO_gap": 0.17977, 
			 "cosmo_polarized_energy": -11.73, 
			 "cosmo_cavitation_energy": 30.04, 
			 "cosmo_dispersion_energy": -21.07, 
			 "cosmo_repulsion_energy": 1.67, 
			 "cosmo_total_nonelectrostatic_energy": 10.63, 
			 "SMD_solvation_energy": 8.65 
		},
		"coords": [
			{
				"x": -2.0883141394,
				"y": -3.8478412493,
				"z": 0.6168896236,
				"element": "C" 
			},
			{
				"x": -2.4088877955,
				"y": -2.4700732377,
				"z": 0.4694709843,
				"element": "O" 
			},
			{
				"x": -1.4282181119,
				"y": -1.5533936605,
				"z": 0.6739899167,
				"element": "C" 
			},
			{
				"x": -0.1106304814,
				"y": -1.8625210258,
				"z": 1.0474931816,
				"element": "C" 
			},
			{
				"x": 0.802359386,
				"y": -0.8351624275,
				"z": 1.2447515285,
				"element": "C" 
			},
			{
				"x": 0.4436169412,
				"y": 0.5071362496,
				"z": 1.0687202853,
				"element": "C" 
			},
			{
				"x": 1.4517492407,
				"y": 1.5646286362,
				"z": 1.2831025386,
				"element": "C" 
			},
			{
				"x": 2.6086543301,
				"y": 1.342556462,
				"z": 1.6042747991,
				"element": "O" 
			},
			{
				"x": -0.8826204865,
				"y": 0.8170917781,
				"z": 0.6955635489,
				"element": "C" 
			},
			{
				"x": -1.2518034824,
				"y": 2.1327219807,
				"z": 0.5885020373,
				"element": "O" 
			},
			{
				"x": -1.6389716146,
				"y": 2.5807949744,
				"z": -0.7187738088,
				"element": "C" 
			},
			{
				"x": -1.816772165,
				"y": -0.2070074381,
				"z": 0.498545157,
				"element": "C" 
			},
			{
				"x": -3.0987503445,
				"y": 0.0961816158,
				"z": 0.106934001,
				"element": "O" 
			},
			{
				"x": -4.0610201813,
				"y": 0.0891415979,
				"z": 1.1675352526,
				"element": "C" 
			},
			{
				"x": -1.763464661,
				"y": -4.0796024446,
				"z": 1.6386261343,
				"element": "H" 
			},
			{
				"x": -1.3080947465,
				"y": -4.1557938533,
				"z": -0.0894554545,
				"element": "H" 
			},
			{
				"x": -3.0077209509,
				"y": -4.3921790434,
				"z": 0.3980261237,
				"element": "H" 
			},
			{
				"x": 0.1961691223,
				"y": -2.8918656604,
				"z": 1.1869308894,
				"element": "H" 
			},
			{
				"x": 1.8260927718,
				"y": -1.0474802029,
				"z": 1.5359767199,
				"element": "H" 
			},
			{
				"x": 1.0897935391,
				"y": 2.5989128219,
				"z": 1.1328404732,
				"element": "H" 
			},
			{
				"x": -2.5071856594,
				"y": 2.0284029595,
				"z": -1.0849508663,
				"element": "H" 
			},
			{
				"x": -1.8870615849,
				"y": 3.6382708232,
				"z": -0.6104649439,
				"element": "H" 
			},
			{
				"x": -0.8054761968,
				"y": 2.4754062227,
				"z": -1.424258456,
				"element": "H" 
			},
			{
				"x": -4.1470569525,
				"y": -0.9075422864,
				"z": 1.6130283191,
				"element": "H" 
			},
			{
				"x": -3.796278774,
				"y": 0.8198050283,
				"z": 1.940880042,
				"element": "H" 
			},
			{
				"x": -5.0157070027,
				"y": 0.3672113796,
				"z": 0.7164219734,
				"element": "H" 
			}
		],
		 "valence_orbital": [ 
			{
				"type": "occ",
				"energy": -0.29449,
				"method": "rhf"
			},
			{
				"type": "occ",
				"energy": -0.27698,
				"method": "rhf"
			},
			{
				"type": "occ",
				"energy": -0.24179,
				"method": "rhf"
			},
			{
				"type": "occ",
				"energy": -0.23545,
				"method": "rhf"
			},
			{
				"type": "occ",
				"energy": -0.22805,
				"method": "rhf"
			},
			{
				"type": "unocc",
				"energy": -0.04828,
				"method": "rhf"
			},
			{
				"type": "unocc",
				"energy": -0.00512,
				"method": "rhf"
			},
			{
				"type": "unocc",
				"energy": 0.05247,
				"method": "rhf"
			},
			{
				"type": "unocc",
				"energy": 0.06903,
				"method": "rhf"
			},
			{
				"type": "unocc",
				"energy": 0.09053,
				"method": "rhf"
			}
		],
		"cosmo_sigma_profile": { 
			"-0.025": 0.0,
			"-0.024": 0.0,
			"-0.023": 0.0,
			"-0.022": 0.0,
			"-0.021": 0.0,
			"-0.02": 0.0,
			"-0.019": 0.0,
			"-0.018": 0.0,
			"-0.017": 0.0,
			"-0.016": 0.0,
			"-0.015": 0.0,
			"-0.014": 0.0,
			"-0.013": 0.0,
			"-0.012": 0.0,
			"-0.011": 0.0,
			"-0.01": 0.0,
			"-0.009": 0.0,
			"-0.008": 0.207056657506,
			"-0.007": 3.46340435542,
			"-0.006": 13.1117563091,
			"-0.005": 20.6955547662,
			"-0.004": 26.4701929999,
			"-0.003": 29.8676596166,
			"-0.002": 22.6149451913,
			"-0.001": 15.1453459384,
			"0.0": 14.3144440119,
			"0.001": 16.2409471945,
			"0.002": 15.0601355664,
			"0.003": 13.374631161,
			"0.004": 9.22537609691,
			"0.005": 5.18439685438,
			"0.006": 4.55191671991,
			"0.007": 4.48965799851,
			"0.008": 3.02345918548,
			"0.009": 3.75013887321,
			"0.01": 5.44408386713,
			"0.011": 4.75769908415,
			"0.012": 5.43726209516,
			"0.013": 1.82808506389,
			"0.014": 0.318661777109,
			"0.015": 0.0,
			"0.016": 0.0,
			"0.017": 0.0,
			"0.018": 0.0,
			"0.019": 0.0,
			"0.02": 0.0,
			"0.021": 0.0,
			"0.022": 0.0,
			"0.023": 0.0,
			"0.024": 0.0,
			"0.025": 0.0
		}
	}
}
