{
	 "smiles": "COCC1=CC(CNC(=O)CCl)=CC=C1", 
	 "Tm": 315.15, 
	 "num_atms": 29, 
	 "gaussian": { 
		 "optdone": 1, 
		 "sigma_profile": "yes", 
		 "theory": "DFT", 
		 "functional": "B3LYP", 
		 "basiset": "6-31G**", 
		 "properties": { 
			 "R2extent": 5575.0909, 
			 "electric_dipole_moment_norm": 1.82027496275, 
			 "electric_quadrupole_moment_norm": 9.43764393639, 
			 "total_energy": -1093.00514897, 
			 "HOMO_LUMO_gap": 0.2325, 
			 "cosmo_polarized_energy": -12.67, 
			 "cosmo_cavitation_energy": 34.49, 
			 "cosmo_dispersion_energy": -24.19, 
			 "cosmo_repulsion_energy": 1.97, 
			 "cosmo_total_nonelectrostatic_energy": 12.28, 
			 "SMD_solvation_energy": 6.01 
		},
		"coords": [
			{
				"x": -1.0477395175,
				"y": -2.6392466134,
				"z": -1.8059610629,
				"element": "C" 
			},
			{
				"x": 0.0652007852,
				"y": -3.0415010387,
				"z": -1.027770448,
				"element": "O" 
			},
			{
				"x": 0.8954278156,
				"y": -1.9623825051,
				"z": -0.6337776193,
				"element": "C" 
			},
			{
				"x": 0.2924550565,
				"y": -1.0808098065,
				"z": 0.4474379459,
				"element": "C" 
			},
			{
				"x": 0.5259187229,
				"y": 0.2956055136,
				"z": 0.4578111644,
				"element": "C" 
			},
			{
				"x": 0.0212158957,
				"y": 1.1076013905,
				"z": 1.4843695627,
				"element": "C" 
			},
			{
				"x": 0.2809299416,
				"y": 2.6024885931,
				"z": 1.4654760745,
				"element": "C" 
			},
			{
				"x": -0.4810347703,
				"y": 3.3156033043,
				"z": 0.4393342677,
				"element": "N" 
			},
			{
				"x": 0.0561065868,
				"y": 3.6276126887,
				"z": -0.760895907,
				"element": "C" 
			},
			{
				"x": 1.2130336353,
				"y": 3.3928247743,
				"z": -1.0964919843,
				"element": "O" 
			},
			{
				"x": -0.8269124539,
				"y": 4.346959849,
				"z": -1.7838274563,
				"element": "C" 
			},
			{
				"x": -2.5490536317,
				"y": 4.6706623603,
				"z": -1.3015763205,
				"element": "Cl" 
			},
			{
				"x": -0.7336133986,
				"y": 0.5218533412,
				"z": 2.5041668683,
				"element": "C" 
			},
			{
				"x": -0.9805376556,
				"y": -0.8539569523,
				"z": 2.4976663335,
				"element": "C" 
			},
			{
				"x": -0.4695977473,
				"y": -1.6518390202,
				"z": 1.4769137427,
				"element": "C" 
			},
			{
				"x": -0.7291900694,
				"y": -2.1318103847,
				"z": -2.7299949643,
				"element": "H" 
			},
			{
				"x": -1.5953170296,
				"y": -3.5464403203,
				"z": -2.0723576223,
				"element": "H" 
			},
			{
				"x": -1.7190016431,
				"y": -1.9664999503,
				"z": -1.2542929797,
				"element": "H" 
			},
			{
				"x": 1.1753361691,
				"y": -1.3457139956,
				"z": -1.5032827454,
				"element": "H" 
			},
			{
				"x": 1.8135489231,
				"y": -2.430585251,
				"z": -0.2585371213,
				"element": "H" 
			},
			{
				"x": 1.1089371663,
				"y": 0.7553316228,
				"z": -0.3374552097,
				"element": "H" 
			},
			{
				"x": 1.3339829756,
				"y": 2.8054292843,
				"z": 1.2559194712,
				"element": "H" 
			},
			{
				"x": 0.036141844,
				"y": 3.0410865742,
				"z": 2.4380865872,
				"element": "H" 
			},
			{
				"x": -1.4690890579,
				"y": 3.4738296056,
				"z": 0.5798732801,
				"element": "H" 
			},
			{
				"x": -0.8564766799,
				"y": 3.7466441859,
				"z": -2.6930951378,
				"element": "H" 
			},
			{
				"x": -0.3707310565,
				"y": 5.3104172947,
				"z": -2.0123373632,
				"element": "H" 
			},
			{
				"x": -1.1299661351,
				"y": 1.140511012,
				"z": 3.3061672182,
				"element": "H" 
			},
			{
				"x": -1.5702038787,
				"y": -1.3014953826,
				"z": 3.2929416363,
				"element": "H" 
			},
			{
				"x": -0.6586707925,
				"y": -2.7209801737,
				"z": 1.4610897893,
				"element": "H" 
			}
		],
		 "valence_orbital": [ 
			{
				"type": "occ",
				"energy": -0.27061,
				"method": "rhf"
			},
			{
				"type": "occ",
				"energy": -0.26173,
				"method": "rhf"
			},
			{
				"type": "occ",
				"energy": -0.25827,
				"method": "rhf"
			},
			{
				"type": "occ",
				"energy": -0.24906,
				"method": "rhf"
			},
			{
				"type": "occ",
				"energy": -0.24451,
				"method": "rhf"
			},
			{
				"type": "unocc",
				"energy": -0.01201,
				"method": "rhf"
			},
			{
				"type": "unocc",
				"energy": -0.00624,
				"method": "rhf"
			},
			{
				"type": "unocc",
				"energy": 0.01131,
				"method": "rhf"
			},
			{
				"type": "unocc",
				"energy": 0.01696,
				"method": "rhf"
			},
			{
				"type": "unocc",
				"energy": 0.08967,
				"method": "rhf"
			}
		],
		"cosmo_sigma_profile": { 
			"-0.025": 0.0,
			"-0.024": 0.0,
			"-0.023": 0.0,
			"-0.022": 0.0,
			"-0.021": 0.0,
			"-0.02": 0.0,
			"-0.019": 0.0,
			"-0.018": 0.0,
			"-0.017": 0.0,
			"-0.016": 0.0,
			"-0.015": 0.0,
			"-0.014": 0.0,
			"-0.013": 0.385796160468,
			"-0.012": 0.771851069997,
			"-0.011": 0.785544812972,
			"-0.01": 1.14283548678,
			"-0.009": 3.46790048112,
			"-0.008": 4.82830517415,
			"-0.007": 6.09293287085,
			"-0.006": 11.2438934141,
			"-0.005": 19.8493841349,
			"-0.004": 26.3778936289,
			"-0.003": 25.5199256858,
			"-0.002": 25.3699792055,
			"-0.001": 18.8165030479,
			"0.0": 18.3554152029,
			"0.001": 15.7993029437,
			"0.002": 16.3776212631,
			"0.003": 13.0013528445,
			"0.004": 15.8937478955,
			"0.005": 17.9144718046,
			"0.006": 9.35315050959,
			"0.007": 2.63522739256,
			"0.008": 2.37710034384,
			"0.009": 1.95018452252,
			"0.01": 2.59449577681,
			"0.011": 2.38236633106,
			"0.012": 3.96436491483,
			"0.013": 5.09410408444,
			"0.014": 2.31718620223,
			"0.015": 0.0866396319854,
			"0.016": 0.0363231162931,
			"0.017": 0.0,
			"0.018": 0.0,
			"0.019": 0.0,
			"0.02": 0.0,
			"0.021": 0.0,
			"0.022": 0.0,
			"0.023": 0.0,
			"0.024": 0.0,
			"0.025": 0.0
		}
	}
}
