{
	 "smiles": "NCCCCCO", 
	 "Tm": 309.95, 
	 "num_atms": 20, 
	 "gaussian": { 
		 "optdone": 1, 
		 "sigma_profile": "yes", 
		 "theory": "DFT", 
		 "functional": "B3LYP", 
		 "basiset": "6-31G**", 
		 "properties": { 
			 "R2extent": 1521.3294, 
			 "electric_dipole_moment_norm": 2.36328692503, 
			 "electric_quadrupole_moment_norm": 4.98686343306, 
			 "total_energy": -328.333219335, 
			 "HOMO_LUMO_gap": 0.2775, 
			 "cosmo_polarized_energy": -8.83, 
			 "cosmo_cavitation_energy": 20.73, 
			 "cosmo_dispersion_energy": -15.58, 
			 "cosmo_repulsion_energy": 1.33, 
			 "cosmo_total_nonelectrostatic_energy": 6.49, 
			 "SMD_solvation_energy": 1.97 
		},
		"coords": [
			{
				"x": -1.8983161612,
				"y": 0.0669937735,
				"z": 0.4318006367,
				"element": "N" 
			},
			{
				"x": -1.8159395959,
				"y": 0.0218366874,
				"z": 1.893797394,
				"element": "C" 
			},
			{
				"x": -0.5821207011,
				"y": 0.7764345572,
				"z": 2.4069068504,
				"element": "C" 
			},
			{
				"x": 0.7708579672,
				"y": 0.2532907151,
				"z": 1.8928718353,
				"element": "C" 
			},
			{
				"x": 1.1487672195,
				"y": -1.1781758146,
				"z": 2.351988438,
				"element": "C" 
			},
			{
				"x": 1.2688759976,
				"y": -2.192811204,
				"z": 1.21305029,
				"element": "C" 
			},
			{
				"x": 0.0544239203,
				"y": -2.3811072046,
				"z": 0.4832225829,
				"element": "O" 
			},
			{
				"x": -2.8218714853,
				"y": -0.2313926854,
				"z": 0.1290689419,
				"element": "H" 
			},
			{
				"x": -1.2371965033,
				"y": -0.6047915548,
				"z": 0.0453114903,
				"element": "H" 
			},
			{
				"x": -2.7088501899,
				"y": 0.5088344161,
				"z": 2.3039012081,
				"element": "H" 
			},
			{
				"x": -1.8169018363,
				"y": -1.0049149867,
				"z": 2.3097284906,
				"element": "H" 
			},
			{
				"x": -0.5881856098,
				"y": 0.7548815511,
				"z": 3.5059145466,
				"element": "H" 
			},
			{
				"x": -0.683740244,
				"y": 1.8257960224,
				"z": 2.1059795745,
				"element": "H" 
			},
			{
				"x": 0.7681427088,
				"y": 0.3005252656,
				"z": 0.7976627334,
				"element": "H" 
			},
			{
				"x": 1.5488543551,
				"y": 0.9531699159,
				"z": 2.2186382857,
				"element": "H" 
			},
			{
				"x": 2.1092730876,
				"y": -1.1663890161,
				"z": 2.882951262,
				"element": "H" 
			},
			{
				"x": 0.4171283746,
				"y": -1.5537880149,
				"z": 3.0820844743,
				"element": "H" 
			},
			{
				"x": 1.9964211208,
				"y": -1.8428244594,
				"z": 0.472924744,
				"element": "H" 
			},
			{
				"x": 1.6355935907,
				"y": -3.1557808913,
				"z": 1.6007955577,
				"element": "H" 
			},
			{
				"x": -0.5967160151,
				"y": -2.7534870724,
				"z": 1.0925006635,
				"element": "H" 
			}
		],
		 "valence_orbital": [ 
			{
				"type": "occ",
				"energy": -0.32385,
				"method": "rhf"
			},
			{
				"type": "occ",
				"energy": -0.31874,
				"method": "rhf"
			},
			{
				"type": "occ",
				"energy": -0.31103,
				"method": "rhf"
			},
			{
				"type": "occ",
				"energy": -0.27419,
				"method": "rhf"
			},
			{
				"type": "occ",
				"energy": -0.21928,
				"method": "rhf"
			},
			{
				"type": "unocc",
				"energy": 0.05822,
				"method": "rhf"
			},
			{
				"type": "unocc",
				"energy": 0.10354,
				"method": "rhf"
			},
			{
				"type": "unocc",
				"energy": 0.11301,
				"method": "rhf"
			},
			{
				"type": "unocc",
				"energy": 0.1152,
				"method": "rhf"
			},
			{
				"type": "unocc",
				"energy": 0.13648,
				"method": "rhf"
			}
		],
		"cosmo_sigma_profile": { 
			"-0.025": 0.0,
			"-0.024": 0.0,
			"-0.023": 0.0,
			"-0.022": 0.0,
			"-0.021": 0.0,
			"-0.02": 0.0,
			"-0.019": 0.0,
			"-0.018": 0.0,
			"-0.017": 0.0,
			"-0.016": 0.0,
			"-0.015": 0.143207488751,
			"-0.014": 0.692665050437,
			"-0.013": 0.785023348958,
			"-0.012": 0.940764019429,
			"-0.011": 1.11853099251,
			"-0.01": 0.967941858502,
			"-0.009": 2.08958351243,
			"-0.008": 2.92716858537,
			"-0.007": 2.56721079795,
			"-0.006": 2.9605230984,
			"-0.005": 2.70975806463,
			"-0.004": 5.39558413097,
			"-0.003": 14.3608254352,
			"-0.002": 23.3705089183,
			"-0.001": 25.23303148,
			"0.0": 22.037859026,
			"0.001": 16.1010599497,
			"0.002": 7.14683424073,
			"0.003": 2.87977546598,
			"0.004": 2.51301226324,
			"0.005": 2.34005685124,
			"0.006": 1.71835680163,
			"0.007": 1.98260223962,
			"0.008": 1.33499441813,
			"0.009": 2.2133239059,
			"0.01": 1.74077336604,
			"0.011": 1.67247588346,
			"0.012": 1.3251200821,
			"0.013": 1.89020515016,
			"0.014": 1.83619082207,
			"0.015": 0.616756063863,
			"0.016": 0.490311682992,
			"0.017": 0.570539961241,
			"0.018": 0.760565850184,
			"0.019": 0.515700261115,
			"0.02": 0.455597791705,
			"0.021": 0.252487549049,
			"0.022": 0.0,
			"0.023": 0.0,
			"0.024": 0.0,
			"0.025": 0.0
		}
	}
}
