{
	 "smiles": "CCOC(=O)C1=C(CBr)N=C(S1)C1=CC=CC=N1", 
	 "Tm": 375.15, 
	 "num_atms": 29, 
	 "gaussian": { 
		 "optdone": 1, 
		 "sigma_profile": "yes", 
		 "theory": "DFT", 
		 "functional": "B3LYP", 
		 "basiset": "6-31G**", 
		 "properties": { 
			 "R2extent": 8572.3025, 
			 "electric_dipole_moment_norm": 4.08837873246, 
			 "electric_quadrupole_moment_norm": 25.0577133835, 
			 "total_energy": -3693.46949545, 
			 "HOMO_LUMO_gap": 0.15563, 
			 "cosmo_polarized_energy": -11.73, 
			 "cosmo_cavitation_energy": 38.3, 
			 "cosmo_dispersion_energy": -28.02, 
			 "cosmo_repulsion_energy": 2.18, 
			 "cosmo_total_nonelectrostatic_energy": 12.47, 
			 "SMD_solvation_energy": 3.7 
		},
		"coords": [
			{
				"x": 4.6544971164,
				"y": 2.1526720175,
				"z": -1.2935385436,
				"element": "C" 
			},
			{
				"x": 3.8630870156,
				"y": 1.0278374259,
				"z": -1.9321073303,
				"element": "C" 
			},
			{
				"x": 2.5724004992,
				"y": 0.979728018,
				"z": -1.2773523205,
				"element": "O" 
			},
			{
				"x": 1.7178008355,
				"y": 0.0346644215,
				"z": -1.7224426028,
				"element": "C" 
			},
			{
				"x": 1.9833609595,
				"y": -0.7482079366,
				"z": -2.6167843181,
				"element": "O" 
			},
			{
				"x": 0.4432171379,
				"y": 0.0745497825,
				"z": -0.9842375967,
				"element": "C" 
			},
			{
				"x": -0.6833292752,
				"y": -0.7040053602,
				"z": -1.2009346465,
				"element": "C" 
			},
			{
				"x": -0.8445715218,
				"y": -1.7449085144,
				"z": -2.2521129036,
				"element": "C" 
			},
			{
				"x": -1.8956805967,
				"y": -1.0406062145,
				"z": -3.7999556986,
				"element": "Br" 
			},
			{
				"x": -1.7231136095,
				"y": -0.4652812268,
				"z": -0.3443502963,
				"element": "N" 
			},
			{
				"x": -1.4268378879,
				"y": 0.4772226868,
				"z": 0.5164922611,
				"element": "C" 
			},
			{
				"x": 0.1736732145,
				"y": 1.1598521283,
				"z": 0.3512877923,
				"element": "S" 
			},
			{
				"x": -2.3371761324,
				"y": 0.9585467286,
				"z": 1.56347981,
				"element": "C" 
			},
			{
				"x": -3.6289020704,
				"y": 0.4283443741,
				"z": 1.6888916903,
				"element": "C" 
			},
			{
				"x": -4.4469443033,
				"y": 0.9250126641,
				"z": 2.6995337848,
				"element": "C" 
			},
			{
				"x": -3.9536588078,
				"y": 1.9232404275,
				"z": 3.5406679173,
				"element": "C" 
			},
			{
				"x": -2.6514424308,
				"y": 2.38523938,
				"z": 3.3311276089,
				"element": "C" 
			},
			{
				"x": -1.8535861501,
				"y": 1.9202892874,
				"z": 2.3680664825,
				"element": "N" 
			},
			{
				"x": 4.1441501757,
				"y": 3.1114535068,
				"z": -1.4209701865,
				"element": "H" 
			},
			{
				"x": 5.6406621391,
				"y": 2.221997195,
				"z": -1.7628670679,
				"element": "H" 
			},
			{
				"x": 4.7939219062,
				"y": 1.9751857543,
				"z": -0.2234202531,
				"element": "H" 
			},
			{
				"x": 3.7056450779,
				"y": 1.188138991,
				"z": -3.0030469352,
				"element": "H" 
			},
			{
				"x": 4.3529715158,
				"y": 0.0565959304,
				"z": -1.8115466537,
				"element": "H" 
			},
			{
				"x": 0.1064051559,
				"y": -2.0540132585,
				"z": -2.6724906041,
				"element": "H" 
			},
			{
				"x": -1.4321945513,
				"y": -2.5824157614,
				"z": -1.8826503928,
				"element": "H" 
			},
			{
				"x": -3.9570984218,
				"y": -0.3443473662,
				"z": 1.0034876094,
				"element": "H" 
			},
			{
				"x": -5.4542320601,
				"y": 0.5400581244,
				"z": 2.8281671126,
				"element": "H" 
			},
			{
				"x": -4.5589428973,
				"y": 2.3378431229,
				"z": 4.3402077472,
				"element": "H" 
			},
			{
				"x": -2.2323820329,
				"y": 3.1634136717,
				"z": 3.9658985337,
				"element": "H" 
			}
		],
		 "valence_orbital": [ 
			{
				"type": "occ",
				"energy": -0.28309,
				"method": "rhf"
			},
			{
				"type": "occ",
				"energy": -0.27382,
				"method": "rhf"
			},
			{
				"type": "occ",
				"energy": -0.26594,
				"method": "rhf"
			},
			{
				"type": "occ",
				"energy": -0.26166,
				"method": "rhf"
			},
			{
				"type": "occ",
				"energy": -0.23978,
				"method": "rhf"
			},
			{
				"type": "unocc",
				"energy": -0.08415,
				"method": "rhf"
			},
			{
				"type": "unocc",
				"energy": -0.04119,
				"method": "rhf"
			},
			{
				"type": "unocc",
				"energy": -0.03376,
				"method": "rhf"
			},
			{
				"type": "unocc",
				"energy": 0.01469,
				"method": "rhf"
			},
			{
				"type": "unocc",
				"energy": 0.02608,
				"method": "rhf"
			}
		],
		"cosmo_sigma_profile": { 
			"-0.025": 0.0,
			"-0.024": 0.0,
			"-0.023": 0.0,
			"-0.022": 0.0,
			"-0.021": 0.0,
			"-0.02": 0.0,
			"-0.019": 0.0,
			"-0.018": 0.0,
			"-0.017": 0.0,
			"-0.016": 0.0,
			"-0.015": 0.0,
			"-0.014": 0.0,
			"-0.013": 0.0,
			"-0.012": 0.0,
			"-0.011": 0.0,
			"-0.01": 0.0,
			"-0.009": 0.265550411966,
			"-0.008": 3.82766369447,
			"-0.007": 10.2788538857,
			"-0.006": 13.0418945431,
			"-0.005": 18.4397710855,
			"-0.004": 25.2387150121,
			"-0.003": 22.4298879355,
			"-0.002": 26.7431016116,
			"-0.001": 28.4560591655,
			"0.0": 30.3628370687,
			"0.001": 31.3779198398,
			"0.002": 23.0631319472,
			"0.003": 13.8720218966,
			"0.004": 13.8411825605,
			"0.005": 14.4641711458,
			"0.006": 14.9640123484,
			"0.007": 5.27388194893,
			"0.008": 4.29347268965,
			"0.009": 3.7282082278,
			"0.01": 3.83506115963,
			"0.011": 3.67912497875,
			"0.012": 0.707569867972,
			"0.013": 0.0,
			"0.014": 0.0,
			"0.015": 0.0,
			"0.016": 0.0,
			"0.017": 0.0,
			"0.018": 0.0,
			"0.019": 0.0,
			"0.02": 0.0,
			"0.021": 0.0,
			"0.022": 0.0,
			"0.023": 0.0,
			"0.024": 0.0,
			"0.025": 0.0
		}
	}
}
