{
	 "smiles": "CCC1CCC1", 
	 "Tm": 130.15, 
	 "num_atms": 18, 
	 "gaussian": { 
		 "optdone": 1, 
		 "sigma_profile": "yes", 
		 "theory": "DFT", 
		 "functional": "B3LYP", 
		 "basiset": "6-31G**", 
		 "properties": { 
			 "R2extent": 822.44, 
			 "electric_dipole_moment_norm": 0.0399265575776, 
			 "electric_quadrupole_moment_norm": 0.884395652409, 
			 "total_energy": -235.854709491, 
			 "HOMO_LUMO_gap": 0.37563, 
			 "cosmo_polarized_energy": -0.57, 
			 "cosmo_cavitation_energy": 19.08, 
			 "cosmo_dispersion_energy": -14.26, 
			 "cosmo_repulsion_energy": 1.24, 
			 "cosmo_total_nonelectrostatic_energy": 6.06, 
			 "SMD_solvation_energy": 2.9 
		},
		"coords": [
			{
				"x": 1.7648023071,
				"y": 1.7499062778,
				"z": -0.4118666208,
				"element": "C" 
			},
			{
				"x": 0.2596084852,
				"y": 1.7158865025,
				"z": -0.6970844646,
				"element": "C" 
			},
			{
				"x": -0.4614752678,
				"y": 0.5418647242,
				"z": -0.0292220614,
				"element": "C" 
			},
			{
				"x": -0.2114183013,
				"y": -0.8474656261,
				"z": -0.6957417149,
				"element": "C" 
			},
			{
				"x": -1.6019018899,
				"y": -0.7500672664,
				"z": -1.3806959315,
				"element": "C" 
			},
			{
				"x": -1.9660281704,
				"y": 0.4109270106,
				"z": -0.4153914378,
				"element": "C" 
			},
			{
				"x": 2.2475917087,
				"y": 2.595697074,
				"z": -0.912449654,
				"element": "H" 
			},
			{
				"x": 2.2586591414,
				"y": 0.8350966145,
				"z": -0.7577458569,
				"element": "H" 
			},
			{
				"x": 1.9599283446,
				"y": 1.8432096653,
				"z": 0.6627087509,
				"element": "H" 
			},
			{
				"x": 0.0911827171,
				"y": 1.6776004826,
				"z": -1.7827067894,
				"element": "H" 
			},
			{
				"x": -0.1989706403,
				"y": 2.6530494021,
				"z": -0.3525676993,
				"element": "H" 
			},
			{
				"x": -0.2663089829,
				"y": 0.57220909,
				"z": 1.0500961146,
				"element": "H" 
			},
			{
				"x": -0.1641112637,
				"y": -1.6589050385,
				"z": 0.0370801104,
				"element": "H" 
			},
			{
				"x": 0.6617210735,
				"y": -0.9303183908,
				"z": -1.3517086423,
				"element": "H" 
			},
			{
				"x": -2.2352863683,
				"y": -1.6413613778,
				"z": -1.3479989516,
				"element": "H" 
			},
			{
				"x": -1.5327600555,
				"y": -0.421392259,
				"z": -2.4220332207,
				"element": "H" 
			},
			{
				"x": -2.5845512461,
				"y": 0.0768003843,
				"z": 0.4234653306,
				"element": "H" 
			},
			{
				"x": -2.4357815913,
				"y": 1.2974627308,
				"z": -0.8552372613,
				"element": "H" 
			}
		],
		 "valence_orbital": [ 
			{
				"type": "occ",
				"energy": -0.34159,
				"method": "rhf"
			},
			{
				"type": "occ",
				"energy": -0.32559,
				"method": "rhf"
			},
			{
				"type": "occ",
				"energy": -0.30025,
				"method": "rhf"
			},
			{
				"type": "occ",
				"energy": -0.28892,
				"method": "rhf"
			},
			{
				"type": "occ",
				"energy": -0.28669,
				"method": "rhf"
			},
			{
				"type": "unocc",
				"energy": 0.08894,
				"method": "rhf"
			},
			{
				"type": "unocc",
				"energy": 0.10013,
				"method": "rhf"
			},
			{
				"type": "unocc",
				"energy": 0.11399,
				"method": "rhf"
			},
			{
				"type": "unocc",
				"energy": 0.13464,
				"method": "rhf"
			},
			{
				"type": "unocc",
				"energy": 0.15138,
				"method": "rhf"
			}
		],
		"cosmo_sigma_profile": { 
			"-0.025": 0.0,
			"-0.024": 0.0,
			"-0.023": 0.0,
			"-0.022": 0.0,
			"-0.021": 0.0,
			"-0.02": 0.0,
			"-0.019": 0.0,
			"-0.018": 0.0,
			"-0.017": 0.0,
			"-0.016": 0.0,
			"-0.015": 0.0,
			"-0.014": 0.0,
			"-0.013": 0.0,
			"-0.012": 0.0,
			"-0.011": 0.0,
			"-0.01": 0.0,
			"-0.009": 0.0,
			"-0.008": 0.0,
			"-0.007": 0.0,
			"-0.006": 0.0,
			"-0.005": 0.0,
			"-0.004": 0.0,
			"-0.003": 3.99667153614,
			"-0.002": 22.8197304433,
			"-0.001": 28.6358280591,
			"0.0": 35.1335831372,
			"0.001": 30.0785378469,
			"0.002": 21.7103250916,
			"0.003": 4.55505218377,
			"0.004": 0.0,
			"0.005": 0.0,
			"0.006": 0.0,
			"0.007": 0.0,
			"0.008": 0.0,
			"0.009": 0.0,
			"0.01": 0.0,
			"0.011": 0.0,
			"0.012": 0.0,
			"0.013": 0.0,
			"0.014": 0.0,
			"0.015": 0.0,
			"0.016": 0.0,
			"0.017": 0.0,
			"0.018": 0.0,
			"0.019": 0.0,
			"0.02": 0.0,
			"0.021": 0.0,
			"0.022": 0.0,
			"0.023": 0.0,
			"0.024": 0.0,
			"0.025": 0.0
		}
	}
}
