{
	 "smiles": "CC1(C)C2CCC1(C)C(=O)C2=C/N(O)C1=CC=CC=C1", 
	 "Tm": 379.15, 
	 "num_atms": 41, 
	 "gaussian": { 
		 "optdone": 1, 
		 "sigma_profile": "yes", 
		 "theory": "DFT", 
		 "functional": "B3LYP", 
		 "basiset": "6-31G**", 
		 "properties": { 
			 "R2extent": 6944.436, 
			 "electric_dipole_moment_norm": 3.12874868598, 
			 "electric_quadrupole_moment_norm": 8.78705994745, 
			 "total_energy": -865.609808001, 
			 "HOMO_LUMO_gap": 0.14022, 
			 "cosmo_polarized_energy": -9.68, 
			 "cosmo_cavitation_energy": 40.56, 
			 "cosmo_dispersion_energy": -28.66, 
			 "cosmo_repulsion_energy": 2.15, 
			 "cosmo_total_nonelectrostatic_energy": 14.06, 
			 "SMD_solvation_energy": 7.72 
		},
		"coords": [
			{
				"x": 2.9681582644,
				"y": 3.0277316742,
				"z": -1.8820269934,
				"element": "C" 
			},
			{
				"x": 2.2379997672,
				"y": 1.7639020148,
				"z": -1.3975796112,
				"element": "C" 
			},
			{
				"x": 3.3094642008,
				"y": 0.7433354513,
				"z": -0.9739506514,
				"element": "C" 
			},
			{
				"x": 1.1545542739,
				"y": 2.0291816898,
				"z": -0.2951828427,
				"element": "C" 
			},
			{
				"x": 0.1430214813,
				"y": 2.9544274394,
				"z": -1.0320682658,
				"element": "C" 
			},
			{
				"x": 0.1273985472,
				"y": 2.3536971301,
				"z": -2.470180762,
				"element": "C" 
			},
			{
				"x": 1.1819946035,
				"y": 1.1911665127,
				"z": -2.4151269927,
				"element": "C" 
			},
			{
				"x": 1.6433277106,
				"y": 0.6800090442,
				"z": -3.7688524371,
				"element": "C" 
			},
			{
				"x": 0.4877376791,
				"y": 0.1370942612,
				"z": -1.5434920837,
				"element": "C" 
			},
			{
				"x": -0.0617480563,
				"y": -0.8926838314,
				"z": -1.9803681527,
				"element": "O" 
			},
			{
				"x": 0.4984718362,
				"y": 0.6585276414,
				"z": -0.1898509616,
				"element": "C" 
			},
			{
				"x": -0.0678130513,
				"y": 0.1208552308,
				"z": 0.9352467679,
				"element": "C" 
			},
			{
				"x": -0.5284171319,
				"y": -1.1442973916,
				"z": 1.0843401773,
				"element": "N" 
			},
			{
				"x": -0.062327456,
				"y": -2.1375163117,
				"z": 0.2350560219,
				"element": "O" 
			},
			{
				"x": -1.2801268897,
				"y": -1.6059431699,
				"z": 2.1848898463,
				"element": "C" 
			},
			{
				"x": -1.2662740485,
				"y": -2.9712555093,
				"z": 2.5084827272,
				"element": "C" 
			},
			{
				"x": -1.9869112571,
				"y": -3.424468171,
				"z": 3.6105118965,
				"element": "C" 
			},
			{
				"x": -2.7210949997,
				"y": -2.5381730015,
				"z": 4.4019895592,
				"element": "C" 
			},
			{
				"x": -2.7441057931,
				"y": -1.1837286706,
				"z": 4.0659279576,
				"element": "C" 
			},
			{
				"x": -2.042876206,
				"y": -0.713965058,
				"z": 2.9569450182,
				"element": "C" 
			},
			{
				"x": 3.5647155788,
				"y": 3.452081876,
				"z": -1.0662114022,
				"element": "H" 
			},
			{
				"x": 2.3034755042,
				"y": 3.8130976417,
				"z": -2.2463029926,
				"element": "H" 
			},
			{
				"x": 3.6602971525,
				"y": 2.7803540969,
				"z": -2.6942002922,
				"element": "H" 
			},
			{
				"x": 3.9734588767,
				"y": 0.5100364258,
				"z": -1.8133017775,
				"element": "H" 
			},
			{
				"x": 3.9320701508,
				"y": 1.158187197,
				"z": -0.1729662908,
				"element": "H" 
			},
			{
				"x": 2.885653807,
				"y": -0.1953913478,
				"z": -0.6098105113,
				"element": "H" 
			},
			{
				"x": 1.5342169302,
				"y": 2.430216223,
				"z": 0.6491794644,
				"element": "H" 
			},
			{
				"x": 0.4753710407,
				"y": 3.9971377216,
				"z": -1.0326118479,
				"element": "H" 
			},
			{
				"x": -0.8402476829,
				"y": 2.9268727391,
				"z": -0.5549088013,
				"element": "H" 
			},
			{
				"x": 0.4275557457,
				"y": 3.0887603454,
				"z": -3.2235180657,
				"element": "H" 
			},
			{
				"x": -0.8563764075,
				"y": 1.9776481284,
				"z": -2.7659732767,
				"element": "H" 
			},
			{
				"x": 2.0623653766,
				"y": 1.4894491332,
				"z": -4.3755234705,
				"element": "H" 
			},
			{
				"x": 0.8027889712,
				"y": 0.2407438332,
				"z": -4.3141788889,
				"element": "H" 
			},
			{
				"x": 2.4038279502,
				"y": -0.1002177808,
				"z": -3.6644936049,
				"element": "H" 
			},
			{
				"x": -0.1713688851,
				"y": 0.7303041065,
				"z": 1.8292101175,
				"element": "H" 
			},
			{
				"x": -0.2092513864,
				"y": -1.7829143625,
				"z": -0.7049081504,
				"element": "H" 
			},
			{
				"x": -0.6919522605,
				"y": -3.6521340781,
				"z": 1.8947030695,
				"element": "H" 
			},
			{
				"x": -1.968141755,
				"y": -4.4828983024,
				"z": 3.8540267909,
				"element": "H" 
			},
			{
				"x": -3.2787005765,
				"y": -2.899808154,
				"z": 5.260273843,
				"element": "H" 
			},
			{
				"x": -3.3307559689,
				"y": -0.4848075782,
				"z": 4.6551240138,
				"element": "H" 
			},
			{
				"x": -2.1197356367,
				"y": 0.3308851611,
				"z": 2.6767818563,
				"element": "H" 
			}
		],
		 "valence_orbital": [ 
			{
				"type": "occ",
				"energy": -0.28676,
				"method": "rhf"
			},
			{
				"type": "occ",
				"energy": -0.2619,
				"method": "rhf"
			},
			{
				"type": "occ",
				"energy": -0.25521,
				"method": "rhf"
			},
			{
				"type": "occ",
				"energy": -0.2459,
				"method": "rhf"
			},
			{
				"type": "occ",
				"energy": -0.19376,
				"method": "rhf"
			},
			{
				"type": "unocc",
				"energy": -0.05354,
				"method": "rhf"
			},
			{
				"type": "unocc",
				"energy": -0.00585,
				"method": "rhf"
			},
			{
				"type": "unocc",
				"energy": 0.01305,
				"method": "rhf"
			},
			{
				"type": "unocc",
				"energy": 0.07117,
				"method": "rhf"
			},
			{
				"type": "unocc",
				"energy": 0.07595,
				"method": "rhf"
			}
		],
		"cosmo_sigma_profile": { 
			"-0.025": 0.0,
			"-0.024": 0.0,
			"-0.023": 0.0,
			"-0.022": 0.0,
			"-0.021": 0.0,
			"-0.02": 0.0,
			"-0.019": 0.0,
			"-0.018": 0.0,
			"-0.017": 0.0,
			"-0.016": 0.0,
			"-0.015": 0.0,
			"-0.014": 0.0,
			"-0.013": 0.0,
			"-0.012": 0.0,
			"-0.011": 0.0,
			"-0.01": 0.0105844892664,
			"-0.009": 1.61489393193,
			"-0.008": 2.65198403755,
			"-0.007": 3.07041435271,
			"-0.006": 7.58665998142,
			"-0.005": 11.7450964748,
			"-0.004": 16.6912586997,
			"-0.003": 28.4056190393,
			"-0.002": 42.3220009152,
			"-0.001": 43.4650498837,
			"0.0": 37.5361557714,
			"0.001": 37.9611135381,
			"0.002": 21.9495734815,
			"0.003": 13.4912454987,
			"0.004": 13.2416972066,
			"0.005": 13.3362390773,
			"0.006": 5.93335779991,
			"0.007": 3.96461101473,
			"0.008": 2.39603121797,
			"0.009": 2.76208052451,
			"0.01": 2.42426805556,
			"0.011": 2.60350716309,
			"0.012": 2.0901747457,
			"0.013": 0.997833464355,
			"0.014": 0.0102071109167,
			"0.015": 0.0,
			"0.016": 0.0,
			"0.017": 0.0,
			"0.018": 0.0,
			"0.019": 0.0,
			"0.02": 0.0,
			"0.021": 0.0,
			"0.022": 0.0,
			"0.023": 0.0,
			"0.024": 0.0,
			"0.025": 0.0
		}
	}
}
