{
	 "smiles": "OC(=O)C1CCC(=O)NC1", 
	 "Tm": 448.15, 
	 "num_atms": 19, 
	 "gaussian": { 
		 "optdone": 1, 
		 "sigma_profile": "yes", 
		 "theory": "DFT", 
		 "functional": "B3LYP", 
		 "basiset": "6-31G**", 
		 "properties": { 
			 "R2extent": 2423.1778, 
			 "electric_dipole_moment_norm": 0.963373847476, 
			 "electric_quadrupole_moment_norm": 31.0042423941, 
			 "total_energy": -514.502762432, 
			 "HOMO_LUMO_gap": 0.25013, 
			 "cosmo_polarized_energy": -22.34, 
			 "cosmo_cavitation_energy": 22.1, 
			 "cosmo_dispersion_energy": -16.39, 
			 "cosmo_repulsion_energy": 1.34, 
			 "cosmo_total_nonelectrostatic_energy": 7.05, 
			 "SMD_solvation_energy": 4.52 
		},
		"coords": [
			{
				"x": 1.7446145396,
				"y": -3.0216558322,
				"z": -0.3798524457,
				"element": "O" 
			},
			{
				"x": 1.0519560258,
				"y": -3.1983866943,
				"z": 0.7813297138,
				"element": "C" 
			},
			{
				"x": 0.6772693659,
				"y": -4.2996519862,
				"z": 1.094179015,
				"element": "O" 
			},
			{
				"x": 0.7486380775,
				"y": -1.9381426492,
				"z": 1.5918153162,
				"element": "C" 
			},
			{
				"x": 1.9587814877,
				"y": -0.9682202877,
				"z": 1.7617920989,
				"element": "C" 
			},
			{
				"x": 1.7549700021,
				"y": 0.3920928218,
				"z": 1.063052465,
				"element": "C" 
			},
			{
				"x": 0.4314350896,
				"y": 1.0318434609,
				"z": 1.4711098812,
				"element": "C" 
			},
			{
				"x": 0.3000156899,
				"y": 2.2077999475,
				"z": 1.771723245,
				"element": "O" 
			},
			{
				"x": -0.6022548461,
				"y": 0.1292750096,
				"z": 1.4931704257,
				"element": "N" 
			},
			{
				"x": -0.4633163065,
				"y": -1.2104245404,
				"z": 0.9466258317,
				"element": "C" 
			},
			{
				"x": 1.9923201519,
				"y": -2.0936824582,
				"z": -0.4962273189,
				"element": "H" 
			},
			{
				"x": 0.4365605397,
				"y": -2.3000040821,
				"z": 2.5729721411,
				"element": "H" 
			},
			{
				"x": 2.8883851139,
				"y": -1.4348423159,
				"z": 1.4171519514,
				"element": "H" 
			},
			{
				"x": 2.1011324106,
				"y": -0.78309796,
				"z": 2.8300615526,
				"element": "H" 
			},
			{
				"x": 1.7567411776,
				"y": 0.2776885802,
				"z": -0.03149799,
				"element": "H" 
			},
			{
				"x": 2.5544781452,
				"y": 1.0926922133,
				"z": 1.3100225602,
				"element": "H" 
			},
			{
				"x": -1.519374022,
				"y": 0.5056191872,
				"z": 1.6915656106,
				"element": "H" 
			},
			{
				"x": -1.378211008,
				"y": -1.7728149968,
				"z": 1.1441411815,
				"element": "H" 
			},
			{
				"x": -0.3404416345,
				"y": -1.1807874176,
				"z": -0.1471352352,
				"element": "H" 
			}
		],
		 "valence_orbital": [ 
			{
				"type": "occ",
				"energy": -0.35823,
				"method": "rhf"
			},
			{
				"type": "occ",
				"energy": -0.3255,
				"method": "rhf"
			},
			{
				"type": "occ",
				"energy": -0.28039,
				"method": "rhf"
			},
			{
				"type": "occ",
				"energy": -0.26354,
				"method": "rhf"
			},
			{
				"type": "occ",
				"energy": -0.25464,
				"method": "rhf"
			},
			{
				"type": "unocc",
				"energy": -0.00451,
				"method": "rhf"
			},
			{
				"type": "unocc",
				"energy": 0.00979,
				"method": "rhf"
			},
			{
				"type": "unocc",
				"energy": 0.03087,
				"method": "rhf"
			},
			{
				"type": "unocc",
				"energy": 0.07058,
				"method": "rhf"
			},
			{
				"type": "unocc",
				"energy": 0.08782,
				"method": "rhf"
			}
		],
		"cosmo_sigma_profile": { 
			"-0.025": 0.0,
			"-0.024": 0.0,
			"-0.023": 0.0,
			"-0.022": 0.0,
			"-0.021": 0.0,
			"-0.02": 0.0,
			"-0.019": 0.0,
			"-0.018": 0.0,
			"-0.017": 0.00318611916535,
			"-0.016": 0.815385822336,
			"-0.015": 2.07550974874,
			"-0.014": 2.84834795914,
			"-0.013": 2.81215141098,
			"-0.012": 2.32779856414,
			"-0.011": 2.40625117334,
			"-0.01": 3.04135680261,
			"-0.009": 1.81371043874,
			"-0.008": 4.13241835431,
			"-0.007": 6.31872805485,
			"-0.006": 12.46636208,
			"-0.005": 17.031222456,
			"-0.004": 14.9466988868,
			"-0.003": 12.3647011539,
			"-0.002": 9.70979863394,
			"-0.001": 6.09776290033,
			"0.0": 4.838321909,
			"0.001": 3.9932181071,
			"0.002": 2.7529533319,
			"0.003": 4.27331635155,
			"0.004": 3.85713657148,
			"0.005": 3.43660488969,
			"0.006": 3.06291606514,
			"0.007": 3.33555189544,
			"0.008": 3.29413828831,
			"0.009": 4.5394545411,
			"0.01": 6.68064703802,
			"0.011": 7.32021899318,
			"0.012": 6.81187841004,
			"0.013": 5.50246561177,
			"0.014": 5.75870655517,
			"0.015": 2.04830156711,
			"0.016": 0.054136719703,
			"0.017": 0.0,
			"0.018": 0.0,
			"0.019": 0.0,
			"0.02": 0.0,
			"0.021": 0.0,
			"0.022": 0.0,
			"0.023": 0.0,
			"0.024": 0.0,
			"0.025": 0.0
		}
	}
}
