{
	 "smiles": "C[Si](C)(C)C1=CN=C(S1)[Si](C)(C)C", 
	 "Tm": 328.15, 
	 "num_atms": 32, 
	 "gaussian": { 
		 "optdone": 1, 
		 "sigma_profile": "yes", 
		 "theory": "DFT", 
		 "functional": "B3LYP", 
		 "basiset": "6-31G**", 
		 "properties": { 
			 "R2extent": 5324.0942, 
			 "electric_dipole_moment_norm": 1.04745868654, 
			 "electric_quadrupole_moment_norm": 9.31082367946, 
			 "total_energy": -1386.43092775, 
			 "HOMO_LUMO_gap": 0.20512, 
			 "cosmo_polarized_energy": -5.64, 
			 "cosmo_cavitation_energy": 39.11, 
			 "cosmo_dispersion_energy": -22.78, 
			 "cosmo_repulsion_energy": 2.02, 
			 "cosmo_total_nonelectrostatic_energy": 18.35, 
			 "SMD_solvation_energy": 8.87 
		},
		"coords": [
			{
				"x": 0.2562561609,
				"y": -2.154642112,
				"z": 4.0615046263,
				"element": "C" 
			},
			{
				"x": -1.0116021546,
				"y": -2.304248802,
				"z": 2.6676644409,
				"element": "Si" 
			},
			{
				"x": -2.6765552641,
				"y": -1.6010654046,
				"z": 3.2226757071,
				"element": "C" 
			},
			{
				"x": -1.2176678153,
				"y": -4.1150412988,
				"z": 2.1647003423,
				"element": "C" 
			},
			{
				"x": -0.3706274132,
				"y": -1.3141090326,
				"z": 1.1975567538,
				"element": "C" 
			},
			{
				"x": 0.7950189776,
				"y": -0.585187855,
				"z": 1.1014482275,
				"element": "C" 
			},
			{
				"x": 1.0463898022,
				"y": 0.0576466426,
				"z": -0.0842982522,
				"element": "N" 
			},
			{
				"x": 0.0908336906,
				"y": -0.1412350943,
				"z": -0.962008355,
				"element": "C" 
			},
			{
				"x": -1.20047772,
				"y": -1.1686320506,
				"z": -0.328165318,
				"element": "S" 
			},
			{
				"x": 0.1362541399,
				"y": 0.6116112438,
				"z": -2.7044731057,
				"element": "Si" 
			},
			{
				"x": -1.41839633,
				"y": 0.0768375601,
				"z": -3.6365259761,
				"element": "C" 
			},
			{
				"x": 0.1974108813,
				"y": 2.4895085574,
				"z": -2.5231245386,
				"element": "C" 
			},
			{
				"x": 1.6893840361,
				"y": -0.0227521063,
				"z": -3.569538802,
				"element": "C" 
			},
			{
				"x": 1.2327382684,
				"y": -2.5521015732,
				"z": 3.7654636364,
				"element": "H" 
			},
			{
				"x": 0.396069552,
				"y": -1.1139672631,
				"z": 4.3723105914,
				"element": "H" 
			},
			{
				"x": -0.0766545403,
				"y": -2.7188525756,
				"z": 4.9399232496,
				"element": "H" 
			},
			{
				"x": -2.5847295296,
				"y": -0.5503264668,
				"z": 3.5168534715,
				"element": "H" 
			},
			{
				"x": -3.0688386636,
				"y": -2.1570609081,
				"z": 4.0819061696,
				"element": "H" 
			},
			{
				"x": -3.4224895607,
				"y": -1.6573650896,
				"z": 2.4226164288,
				"element": "H" 
			},
			{
				"x": -0.2658156994,
				"y": -4.5463462343,
				"z": 1.8376210545,
				"element": "H" 
			},
			{
				"x": -1.9312788909,
				"y": -4.2236316182,
				"z": 1.3408856967,
				"element": "H" 
			},
			{
				"x": -1.5867920994,
				"y": -4.7146058274,
				"z": 3.0046672091,
				"element": "H" 
			},
			{
				"x": 1.519293291,
				"y": -0.4917309877,
				"z": 1.9036963754,
				"element": "H" 
			},
			{
				"x": -2.3302077045,
				"y": 0.4211717645,
				"z": -3.1369077754,
				"element": "H" 
			},
			{
				"x": -1.4196130042,
				"y": 0.4972298576,
				"z": -4.6485221515,
				"element": "H" 
			},
			{
				"x": -1.4797148807,
				"y": -1.0123892244,
				"z": -3.7333113969,
				"element": "H" 
			},
			{
				"x": -0.708708504,
				"y": 2.8737117229,
				"z": -2.0431666683,
				"element": "H" 
			},
			{
				"x": 0.2935956849,
				"y": 2.9774369972,
				"z": -3.4997029949,
				"element": "H" 
			},
			{
				"x": 1.0527225076,
				"y": 2.7872082864,
				"z": -1.9085670522,
				"element": "H" 
			},
			{
				"x": 1.8024685205,
				"y": 0.431517641,
				"z": -4.5604513874,
				"element": "H" 
			},
			{
				"x": 2.5805356854,
				"y": 0.2177531371,
				"z": -2.9814596532,
				"element": "H" 
			},
			{
				"x": 1.6580985763,
				"y": -1.1095418859,
				"z": -3.6995705533,
				"element": "H" 
			}
		],
		 "valence_orbital": [ 
			{
				"type": "occ",
				"energy": -0.29982,
				"method": "rhf"
			},
			{
				"type": "occ",
				"energy": -0.29896,
				"method": "rhf"
			},
			{
				"type": "occ",
				"energy": -0.27029,
				"method": "rhf"
			},
			{
				"type": "occ",
				"energy": -0.25481,
				"method": "rhf"
			},
			{
				"type": "occ",
				"energy": -0.23576,
				"method": "rhf"
			},
			{
				"type": "unocc",
				"energy": -0.03064,
				"method": "rhf"
			},
			{
				"type": "unocc",
				"energy": 0.03068,
				"method": "rhf"
			},
			{
				"type": "unocc",
				"energy": 0.04326,
				"method": "rhf"
			},
			{
				"type": "unocc",
				"energy": 0.05988,
				"method": "rhf"
			},
			{
				"type": "unocc",
				"energy": 0.07593,
				"method": "rhf"
			}
		],
		"cosmo_sigma_profile": { 
			"-0.025": 0.0,
			"-0.024": 0.0,
			"-0.023": 0.0,
			"-0.022": 0.0,
			"-0.021": 0.0,
			"-0.02": 0.0,
			"-0.019": 0.0,
			"-0.018": 0.0,
			"-0.017": 0.0,
			"-0.016": 0.0,
			"-0.015": 0.0,
			"-0.014": 0.0,
			"-0.013": 0.0,
			"-0.012": 0.0,
			"-0.011": 0.0,
			"-0.01": 0.0,
			"-0.009": 0.0,
			"-0.008": 0.0,
			"-0.007": 0.144884820161,
			"-0.006": 1.09507879632,
			"-0.005": 1.94596273643,
			"-0.004": 19.6020888983,
			"-0.003": 41.4057723783,
			"-0.002": 40.2969455482,
			"-0.001": 38.9830327814,
			"0.0": 34.8940813834,
			"0.001": 47.9889319102,
			"0.002": 28.7072240034,
			"0.003": 19.8681358547,
			"0.004": 9.99385607026,
			"0.005": 3.2931056386,
			"0.006": 2.18732783956,
			"0.007": 1.88584193297,
			"0.008": 1.7130171168,
			"0.009": 1.59482430242,
			"0.01": 0.874957640096,
			"0.011": 0.954495368739,
			"0.012": 1.14522038498,
			"0.013": 0.589760711447,
			"0.014": 0.702864837039,
			"0.015": 0.775528198299,
			"0.016": 0.10055026601,
			"0.017": 0.0,
			"0.018": 0.0,
			"0.019": 0.0,
			"0.02": 0.0,
			"0.021": 0.0,
			"0.022": 0.0,
			"0.023": 0.0,
			"0.024": 0.0,
			"0.025": 0.0
		}
	}
}
