{
	 "smiles": "CCOC1=C(C=CC(=C1)N1CCC(O)CC1)[N+]([O-])=O", 
	 "Tm": 383.15, 
	 "num_atms": 37, 
	 "gaussian": { 
		 "optdone": 1, 
		 "sigma_profile": "yes", 
		 "theory": "DFT", 
		 "functional": "B3LYP", 
		 "basiset": "6-31G**", 
		 "properties": { 
			 "R2extent": 7690.3921, 
			 "electric_dipole_moment_norm": 8.35377028832, 
			 "electric_quadrupole_moment_norm": 14.2185698542, 
			 "total_energy": -916.510015027, 
			 "HOMO_LUMO_gap": 0.14662, 
			 "cosmo_polarized_energy": -18.73, 
			 "cosmo_cavitation_energy": 38.86, 
			 "cosmo_dispersion_energy": -28.05, 
			 "cosmo_repulsion_energy": 2.17, 
			 "cosmo_total_nonelectrostatic_energy": 12.97, 
			 "SMD_solvation_energy": 7.5 
		},
		"coords": [
			{
				"x": 1.8252203311,
				"y": 1.8622099134,
				"z": -4.5458988762,
				"element": "C" 
			},
			{
				"x": 0.6892168085,
				"y": 1.184828618,
				"z": -3.8051010717,
				"element": "C" 
			},
			{
				"x": 0.7364630334,
				"y": 1.6367760966,
				"z": -2.4361377335,
				"element": "O" 
			},
			{
				"x": -0.293519763,
				"y": 1.237695656,
				"z": -1.6360071932,
				"element": "C" 
			},
			{
				"x": -1.51098532,
				"y": 1.9476581775,
				"z": -1.5080940747,
				"element": "C" 
			},
			{
				"x": -2.458039727,
				"y": 1.5087451141,
				"z": -0.5726001995,
				"element": "C" 
			},
			{
				"x": -2.2429229191,
				"y": 0.3922188811,
				"z": 0.2100024067,
				"element": "C" 
			},
			{
				"x": -1.0285190296,
				"y": -0.3372282635,
				"z": 0.1070168821,
				"element": "C" 
			},
			{
				"x": -0.0745943068,
				"y": 0.1235933631,
				"z": -0.8300528937,
				"element": "C" 
			},
			{
				"x": -0.7878036579,
				"y": -1.4456657393,
				"z": 0.8829009205,
				"element": "N" 
			},
			{
				"x": 0.3243499857,
				"y": -2.3515051915,
				"z": 0.5838916961,
				"element": "C" 
			},
			{
				"x": 0.0202800901,
				"y": -3.7599680689,
				"z": 1.1034016478,
				"element": "C" 
			},
			{
				"x": -0.2002318982,
				"y": -3.8020798898,
				"z": 2.6305426138,
				"element": "C" 
			},
			{
				"x": -1.1409562738,
				"y": -4.8135221687,
				"z": 2.9872693555,
				"element": "O" 
			},
			{
				"x": -0.7674902904,
				"y": -2.4637152205,
				"z": 3.1246671677,
				"element": "C" 
			},
			{
				"x": -1.6089938155,
				"y": -1.7536110968,
				"z": 2.0615165343,
				"element": "C" 
			},
			{
				"x": -1.8290789894,
				"y": 3.1413474637,
				"z": -2.2703376222,
				"element": "N" 
			},
			{
				"x": -2.782785769,
				"y": 3.8279886228,
				"z": -1.884191622,
				"element": "O" 
			},
			{
				"x": -1.1503813328,
				"y": 3.418512276,
				"z": -3.26441824,
				"element": "O" 
			},
			{
				"x": 1.6874293205,
				"y": 2.9462469688,
				"z": -4.5306891936,
				"element": "H" 
			},
			{
				"x": 1.8477513544,
				"y": 1.5259546202,
				"z": -5.5873811558,
				"element": "H" 
			},
			{
				"x": 2.7880950579,
				"y": 1.6257104714,
				"z": -4.083126036,
				"element": "H" 
			},
			{
				"x": -0.2761602475,
				"y": 1.4540120832,
				"z": -4.2428591756,
				"element": "H" 
			},
			{
				"x": 0.7946564704,
				"y": 0.0901525702,
				"z": -3.8195512651,
				"element": "H" 
			},
			{
				"x": -3.3808749527,
				"y": 2.0693979726,
				"z": -0.4901386876,
				"element": "H" 
			},
			{
				"x": -3.0269317859,
				"y": 0.0675987521,
				"z": 0.8820171643,
				"element": "H" 
			},
			{
				"x": 0.8977048691,
				"y": -0.3433572377,
				"z": -0.9197611839,
				"element": "H" 
			},
			{
				"x": 1.2715378668,
				"y": -1.9810658643,
				"z": 1.009019434,
				"element": "H" 
			},
			{
				"x": 0.4590659864,
				"y": -2.3943768779,
				"z": -0.5007795537,
				"element": "H" 
			},
			{
				"x": -0.9020402298,
				"y": -4.1147417244,
				"z": 0.6287883854,
				"element": "H" 
			},
			{
				"x": 0.8256191994,
				"y": -4.4389246975,
				"z": 0.8011199465,
				"element": "H" 
			},
			{
				"x": 0.7589170975,
				"y": -3.9869341981,
				"z": 3.1390296955,
				"element": "H" 
			},
			{
				"x": -0.8142808584,
				"y": -5.6605061847,
				"z": 2.656185238,
				"element": "H" 
			},
			{
				"x": -1.3736869876,
				"y": -2.6522215004,
				"z": 4.015440946,
				"element": "H" 
			},
			{
				"x": 0.0548407853,
				"y": -1.8030783702,
				"z": 3.4208864753,
				"element": "H" 
			},
			{
				"x": -2.4786393508,
				"y": -2.3721446716,
				"z": 1.7948174748,
				"element": "H" 
			},
			{
				"x": -1.9894307512,
				"y": -0.8170006549,
				"z": 2.4764117936,
				"element": "H" 
			}
		],
		 "valence_orbital": [ 
			{
				"type": "occ",
				"energy": -0.28162,
				"method": "rhf"
			},
			{
				"type": "occ",
				"energy": -0.26737,
				"method": "rhf"
			},
			{
				"type": "occ",
				"energy": -0.26111,
				"method": "rhf"
			},
			{
				"type": "occ",
				"energy": -0.25182,
				"method": "rhf"
			},
			{
				"type": "occ",
				"energy": -0.21005,
				"method": "rhf"
			},
			{
				"type": "unocc",
				"energy": -0.06343,
				"method": "rhf"
			},
			{
				"type": "unocc",
				"energy": -0.00961,
				"method": "rhf"
			},
			{
				"type": "unocc",
				"energy": 0.02564,
				"method": "rhf"
			},
			{
				"type": "unocc",
				"energy": 0.05681,
				"method": "rhf"
			},
			{
				"type": "unocc",
				"energy": 0.0714,
				"method": "rhf"
			}
		],
		"cosmo_sigma_profile": { 
			"-0.025": 0.0,
			"-0.024": 0.0,
			"-0.023": 0.0,
			"-0.022": 0.0,
			"-0.021": 0.0,
			"-0.02": 0.0,
			"-0.019": 0.0,
			"-0.018": 0.0,
			"-0.017": 0.0,
			"-0.016": 0.0849229214743,
			"-0.015": 1.07855071998,
			"-0.014": 0.929681332093,
			"-0.013": 0.682450583506,
			"-0.012": 1.14147262586,
			"-0.011": 1.07872483628,
			"-0.01": 0.628959459858,
			"-0.009": 0.917619329306,
			"-0.008": 0.885368141867,
			"-0.007": 3.847598106,
			"-0.006": 8.45742804306,
			"-0.005": 15.5019079245,
			"-0.004": 36.9135769251,
			"-0.003": 43.5560271748,
			"-0.002": 31.4963717505,
			"-0.001": 24.4060605365,
			"0.0": 21.3392008441,
			"0.001": 17.3345255093,
			"0.002": 15.9639980117,
			"0.003": 15.0745991191,
			"0.004": 8.66410844421,
			"0.005": 5.86585311167,
			"0.006": 5.21500437475,
			"0.007": 5.48689753103,
			"0.008": 7.29318119236,
			"0.009": 9.80713282512,
			"0.01": 7.58735425171,
			"0.011": 7.07520151265,
			"0.012": 3.10382833357,
			"0.013": 1.59176265509,
			"0.014": 1.46052203145,
			"0.015": 0.0230906094578,
			"0.016": 0.0,
			"0.017": 0.0,
			"0.018": 0.0,
			"0.019": 0.0,
			"0.02": 0.0,
			"0.021": 0.0,
			"0.022": 0.0,
			"0.023": 0.0,
			"0.024": 0.0,
			"0.025": 0.0
		}
	}
}
