{
	 "smiles": "CCOC1=C(OC(F)F)C(Br)=CC(C=O)=C1", 
	 "Tm": 368.15, 
	 "num_atms": 25, 
	 "gaussian": { 
		 "optdone": 1, 
		 "sigma_profile": "yes", 
		 "theory": "DFT", 
		 "functional": "B3LYP", 
		 "basiset": "6-31G**", 
		 "properties": { 
			 "R2extent": 6688.4337, 
			 "electric_dipole_moment_norm": 3.59355122546, 
			 "electric_quadrupole_moment_norm": 13.7717460327, 
			 "total_energy": -3383.21319681, 
			 "HOMO_LUMO_gap": 0.18225, 
			 "cosmo_polarized_energy": -10.59, 
			 "cosmo_cavitation_energy": 32.86, 
			 "cosmo_dispersion_energy": -23.05, 
			 "cosmo_repulsion_energy": 1.77, 
			 "cosmo_total_nonelectrostatic_energy": 11.58, 
			 "SMD_solvation_energy": 7.0 
		},
		"coords": [
			{
				"x": 1.953768136,
				"y": -2.2614886863,
				"z": 0.5514149475,
				"element": "C" 
			},
			{
				"x": 1.0743800809,
				"y": -1.0276551606,
				"z": 0.5864070832,
				"element": "C" 
			},
			{
				"x": 0.0002473039,
				"y": -1.2299691196,
				"z": -0.3673631537,
				"element": "O" 
			},
			{
				"x": -0.8700448344,
				"y": -0.1792097702,
				"z": -0.5010509723,
				"element": "C" 
			},
			{
				"x": -0.5245412883,
				"y": 0.9239007799,
				"z": -1.3073474334,
				"element": "C" 
			},
			{
				"x": 0.7171542825,
				"y": 1.0125790406,
				"z": -1.8878824259,
				"element": "O" 
			},
			{
				"x": 1.1366417273,
				"y": -0.0068480751,
				"z": -2.7302170276,
				"element": "C" 
			},
			{
				"x": 1.3659416961,
				"y": 0.5216804738,
				"z": -3.9506624526,
				"element": "F" 
			},
			{
				"x": 2.3225327378,
				"y": -0.4731529667,
				"z": -2.2692275051,
				"element": "F" 
			},
			{
				"x": -1.432531469,
				"y": 1.9837370772,
				"z": -1.4621530598,
				"element": "C" 
			},
			{
				"x": -0.9625458544,
				"y": 3.4772176857,
				"z": -2.5390419681,
				"element": "Br" 
			},
			{
				"x": -2.6723882241,
				"y": 1.9449206641,
				"z": -0.8383842865,
				"element": "C" 
			},
			{
				"x": -3.0219717528,
				"y": 0.8355631346,
				"z": -0.0575866138,
				"element": "C" 
			},
			{
				"x": -4.3512050915,
				"y": 0.7859266208,
				"z": 0.5976153953,
				"element": "C" 
			},
			{
				"x": -5.1900566072,
				"y": 1.6609419154,
				"z": 0.5152255307,
				"element": "O" 
			},
			{
				"x": -2.1205981477,
				"y": -0.2206553808,
				"z": 0.1101381492,
				"element": "C" 
			},
			{
				"x": 2.7641567852,
				"y": -2.1614245293,
				"z": 1.2799526674,
				"element": "H" 
			},
			{
				"x": 1.3764905185,
				"y": -3.1579686446,
				"z": 0.7947593774,
				"element": "H" 
			},
			{
				"x": 2.3928258534,
				"y": -2.3826619944,
				"z": -0.4417174474,
				"element": "H" 
			},
			{
				"x": 1.6408420599,
				"y": -0.1314757669,
				"z": 0.3114555476,
				"element": "H" 
			},
			{
				"x": 0.6344096261,
				"y": -0.871742397,
				"z": 1.5800016878,
				"element": "H" 
			},
			{
				"x": 0.4179315156,
				"y": -0.8248496615,
				"z": -2.8035638186,
				"element": "H" 
			},
			{
				"x": -3.3834388355,
				"y": 2.7545222561,
				"z": -0.9538673813,
				"element": "H" 
			},
			{
				"x": -4.5388249595,
				"y": -0.1359616293,
				"z": 1.190998411,
				"element": "H" 
			},
			{
				"x": -2.3763752587,
				"y": -1.0860258659,
				"z": 0.7149967492,
				"element": "H" 
			}
		],
		 "valence_orbital": [ 
			{
				"type": "occ",
				"energy": -0.30075,
				"method": "rhf"
			},
			{
				"type": "occ",
				"energy": -0.29499,
				"method": "rhf"
			},
			{
				"type": "occ",
				"energy": -0.26816,
				"method": "rhf"
			},
			{
				"type": "occ",
				"energy": -0.26455,
				"method": "rhf"
			},
			{
				"type": "occ",
				"energy": -0.26044,
				"method": "rhf"
			},
			{
				"type": "unocc",
				"energy": -0.07819,
				"method": "rhf"
			},
			{
				"type": "unocc",
				"energy": -0.03446,
				"method": "rhf"
			},
			{
				"type": "unocc",
				"energy": -0.00736,
				"method": "rhf"
			},
			{
				"type": "unocc",
				"energy": 0.02156,
				"method": "rhf"
			},
			{
				"type": "unocc",
				"energy": 0.08081,
				"method": "rhf"
			}
		],
		"cosmo_sigma_profile": { 
			"-0.025": 0.0,
			"-0.024": 0.0,
			"-0.023": 0.0,
			"-0.022": 0.0,
			"-0.021": 0.0,
			"-0.02": 0.0,
			"-0.019": 0.0,
			"-0.018": 0.0,
			"-0.017": 0.0,
			"-0.016": 0.0,
			"-0.015": 0.0,
			"-0.014": 0.0,
			"-0.013": 0.0,
			"-0.012": 0.00116393302079,
			"-0.011": 1.40322610625,
			"-0.01": 1.7531106451,
			"-0.009": 3.46117146672,
			"-0.008": 5.02795251124,
			"-0.007": 6.31567132107,
			"-0.006": 6.57605403221,
			"-0.005": 11.3022729834,
			"-0.004": 19.9611181606,
			"-0.003": 22.0708001061,
			"-0.002": 21.1593855472,
			"-0.001": 23.2343803626,
			"0.0": 30.1366278999,
			"0.001": 20.2019144108,
			"0.002": 14.8969272497,
			"0.003": 25.8700637536,
			"0.004": 22.3309645154,
			"0.005": 5.52349051416,
			"0.006": 4.47413592741,
			"0.007": 4.54209415797,
			"0.008": 3.08201125487,
			"0.009": 2.74421643332,
			"0.01": 3.56902440871,
			"0.011": 4.25987366936,
			"0.012": 1.55923064073,
			"0.013": 0.193900622334,
			"0.014": 0.0,
			"0.015": 0.0,
			"0.016": 0.0,
			"0.017": 0.0,
			"0.018": 0.0,
			"0.019": 0.0,
			"0.02": 0.0,
			"0.021": 0.0,
			"0.022": 0.0,
			"0.023": 0.0,
			"0.024": 0.0,
			"0.025": 0.0
		}
	}
}
