{
	 "smiles": "COC1=C(NS(C)(=O)=O)C=C(N)C=C1", 
	 "Tm": 399.15, 
	 "num_atms": 26, 
	 "gaussian": { 
		 "optdone": 1, 
		 "sigma_profile": "yes", 
		 "theory": "DFT", 
		 "functional": "B3LYP", 
		 "basiset": "6-31G**", 
		 "properties": { 
			 "R2extent": 3832.4378, 
			 "electric_dipole_moment_norm": 5.96862031042, 
			 "electric_quadrupole_moment_norm": 16.5381978066, 
			 "total_energy": -1045.35943981, 
			 "HOMO_LUMO_gap": 0.17536, 
			 "cosmo_polarized_energy": -25.55, 
			 "cosmo_cavitation_energy": 31.01, 
			 "cosmo_dispersion_energy": -22.46, 
			 "cosmo_repulsion_energy": 1.74, 
			 "cosmo_total_nonelectrostatic_energy": 10.29, 
			 "SMD_solvation_energy": 5.69 
		},
		"coords": [
			{
				"x": 1.8375261352,
				"y": 3.0733219256,
				"z": -0.0681645562,
				"element": "C" 
			},
			{
				"x": 0.5807008763,
				"y": 2.520584172,
				"z": 0.2793253175,
				"element": "O" 
			},
			{
				"x": 0.5563894173,
				"y": 1.4452088219,
				"z": 1.1074124361,
				"element": "C" 
			},
			{
				"x": -0.69346663,
				"y": 0.8198793059,
				"z": 1.3097995231,
				"element": "C" 
			},
			{
				"x": -1.8467064378,
				"y": 1.329802011,
				"z": 0.6394124502,
				"element": "N" 
			},
			{
				"x": -2.2355788307,
				"y": 0.884416688,
				"z": -0.9441821131,
				"element": "S" 
			},
			{
				"x": -2.6204271932,
				"y": -0.882749981,
				"z": -0.8714095638,
				"element": "C" 
			},
			{
				"x": -1.0394956848,
				"y": 1.0150736475,
				"z": -1.769918722,
				"element": "O" 
			},
			{
				"x": -3.4784278207,
				"y": 1.5977785593,
				"z": -1.2406116694,
				"element": "O" 
			},
			{
				"x": -0.8055358035,
				"y": -0.2547346337,
				"z": 2.1956217606,
				"element": "C" 
			},
			{
				"x": 0.3039707812,
				"y": -0.7493179253,
				"z": 2.8980026469,
				"element": "C" 
			},
			{
				"x": 0.1597183419,
				"y": -1.778248977,
				"z": 3.8412173903,
				"element": "N" 
			},
			{
				"x": 1.5446861116,
				"y": -0.1428719994,
				"z": 2.6648775368,
				"element": "C" 
			},
			{
				"x": 1.6683067163,
				"y": 0.9333684431,
				"z": 1.7860774524,
				"element": "C" 
			},
			{
				"x": 2.4903661663,
				"y": 2.32692353,
				"z": -0.5387739362,
				"element": "H" 
			},
			{
				"x": 2.3510262208,
				"y": 3.5026692975,
				"z": 0.8031524975,
				"element": "H" 
			},
			{
				"x": 1.6258078078,
				"y": 3.8674044469,
				"z": -0.7852359251,
				"element": "H" 
			},
			{
				"x": -2.6877036825,
				"y": 1.4330719781,
				"z": 1.1971812541,
				"element": "H" 
			},
			{
				"x": -3.5088027886,
				"y": -1.0329194101,
				"z": -0.2560844404,
				"element": "H" 
			},
			{
				"x": -2.8121636392,
				"y": -1.2073836816,
				"z": -1.8955843211,
				"element": "H" 
			},
			{
				"x": -1.7607648889,
				"y": -1.4145658852,
				"z": -0.4616495458,
				"element": "H" 
			},
			{
				"x": -1.7839893765,
				"y": -0.7053817413,
				"z": 2.3474964006,
				"element": "H" 
			},
			{
				"x": 1.007866769,
				"y": -2.3006127145,
				"z": 4.0172527881,
				"element": "H" 
			},
			{
				"x": -0.616352151,
				"y": -2.4026700494,
				"z": 3.6653404033,
				"element": "H" 
			},
			{
				"x": 2.4268459762,
				"y": -0.506855899,
				"z": 3.1855909933,
				"element": "H" 
			},
			{
				"x": 2.6442036077,
				"y": 1.3827100706,
				"z": 1.6463539422,
				"element": "H" 
			}
		],
		 "valence_orbital": [ 
			{
				"type": "occ",
				"energy": -0.29159,
				"method": "rhf"
			},
			{
				"type": "occ",
				"energy": -0.28708,
				"method": "rhf"
			},
			{
				"type": "occ",
				"energy": -0.27757,
				"method": "rhf"
			},
			{
				"type": "occ",
				"energy": -0.24826,
				"method": "rhf"
			},
			{
				"type": "occ",
				"energy": -0.19325,
				"method": "rhf"
			},
			{
				"type": "unocc",
				"energy": -0.01789,
				"method": "rhf"
			},
			{
				"type": "unocc",
				"energy": 0.0176,
				"method": "rhf"
			},
			{
				"type": "unocc",
				"energy": 0.06682,
				"method": "rhf"
			},
			{
				"type": "unocc",
				"energy": 0.07276,
				"method": "rhf"
			},
			{
				"type": "unocc",
				"energy": 0.08571,
				"method": "rhf"
			}
		],
		"cosmo_sigma_profile": { 
			"-0.025": 0.0,
			"-0.024": 0.0,
			"-0.023": 0.0,
			"-0.022": 0.0,
			"-0.021": 0.0,
			"-0.02": 0.0,
			"-0.019": 0.0,
			"-0.018": 0.0,
			"-0.017": 0.0,
			"-0.016": 0.0166370947601,
			"-0.015": 0.914284999991,
			"-0.014": 1.19130448375,
			"-0.013": 1.33724616052,
			"-0.012": 3.34118192763,
			"-0.011": 4.0886082275,
			"-0.01": 4.78524168619,
			"-0.009": 6.0699591852,
			"-0.008": 7.92600582273,
			"-0.007": 10.551287991,
			"-0.006": 15.2973384595,
			"-0.005": 19.6868421632,
			"-0.004": 21.1425424428,
			"-0.003": 19.2948385341,
			"-0.002": 10.9216143824,
			"-0.001": 8.0408212952,
			"0.0": 5.65475371027,
			"0.001": 7.23814572668,
			"0.002": 7.07406343928,
			"0.003": 7.48234067516,
			"0.004": 10.774583618,
			"0.005": 12.4154376115,
			"0.006": 8.4485560693,
			"0.007": 4.65140330051,
			"0.008": 4.98324385589,
			"0.009": 5.80516244569,
			"0.01": 6.8822396269,
			"0.011": 13.8768431104,
			"0.012": 10.1371202089,
			"0.013": 3.042395384,
			"0.014": 1.22891980836,
			"0.015": 0.540678222255,
			"0.016": 0.101548385565,
			"0.017": 0.0,
			"0.018": 0.0,
			"0.019": 0.0,
			"0.02": 0.0,
			"0.021": 0.0,
			"0.022": 0.0,
			"0.023": 0.0,
			"0.024": 0.0,
			"0.025": 0.0
		}
	}
}
