{
	 "smiles": "S=C1NC2=C(O1)C=CC=N2", 
	 "Tm": 517.15, 
	 "num_atms": 14, 
	 "gaussian": { 
		 "optdone": 1, 
		 "sigma_profile": "yes", 
		 "theory": "DFT", 
		 "functional": "B3LYP", 
		 "basiset": "6-31G**", 
		 "properties": { 
			 "R2extent": 3459.698, 
			 "electric_dipole_moment_norm": 4.49696956183, 
			 "electric_quadrupole_moment_norm": 17.4283231394, 
			 "total_energy": -813.962311882, 
			 "HOMO_LUMO_gap": 0.16848, 
			 "cosmo_polarized_energy": -13.21, 
			 "cosmo_cavitation_energy": 20.69, 
			 "cosmo_dispersion_energy": -16.42, 
			 "cosmo_repulsion_energy": 1.27, 
			 "cosmo_total_nonelectrostatic_energy": 5.55, 
			 "SMD_solvation_energy": 1.23 
		},
		"coords": [
			{
				"x": -2.8866843701,
				"y": 4.1583369544,
				"z": -2.1983282648,
				"element": "S" 
			},
			{
				"x": -2.3686820715,
				"y": 2.7312396333,
				"z": -1.5785344523,
				"element": "C" 
			},
			{
				"x": -2.6514073977,
				"y": 2.1571321979,
				"z": -0.3645691029,
				"element": "N" 
			},
			{
				"x": -2.0042475716,
				"y": 0.9363363064,
				"z": -0.2349824336,
				"element": "C" 
			},
			{
				"x": -1.2994642141,
				"y": 0.7733724959,
				"z": -1.4322705858,
				"element": "C" 
			},
			{
				"x": -1.5222148204,
				"y": 1.8598527036,
				"z": -2.2412548365,
				"element": "O" 
			},
			{
				"x": -0.5348190045,
				"y": -0.3548591573,
				"z": -1.6398233744,
				"element": "C" 
			},
			{
				"x": -0.5401927439,
				"y": -1.2734701784,
				"z": -0.5754078912,
				"element": "C" 
			},
			{
				"x": -1.2804983645,
				"y": -1.0146555601,
				"z": 0.5817358758,
				"element": "C" 
			},
			{
				"x": -2.0274192289,
				"y": 0.0924073345,
				"z": 0.7787322568,
				"element": "N" 
			},
			{
				"x": -3.2536919532,
				"y": 2.5938559704,
				"z": 0.3173098543,
				"element": "H" 
			},
			{
				"x": 0.0256471627,
				"y": -0.5183911862,
				"z": -2.5530709759,
				"element": "H" 
			},
			{
				"x": 0.0326854983,
				"y": -2.1915071459,
				"z": -0.6474112015,
				"element": "H" 
			},
			{
				"x": -1.2777109208,
				"y": -1.7313503684,
				"z": 1.3984751323,
				"element": "H" 
			}
		],
		 "valence_orbital": [ 
			{
				"type": "occ",
				"energy": -0.30073,
				"method": "rhf"
			},
			{
				"type": "occ",
				"energy": -0.29751,
				"method": "rhf"
			},
			{
				"type": "occ",
				"energy": -0.29405,
				"method": "rhf"
			},
			{
				"type": "occ",
				"energy": -0.23214,
				"method": "rhf"
			},
			{
				"type": "occ",
				"energy": -0.22754,
				"method": "rhf"
			},
			{
				"type": "unocc",
				"energy": -0.05906,
				"method": "rhf"
			},
			{
				"type": "unocc",
				"energy": -0.02343,
				"method": "rhf"
			},
			{
				"type": "unocc",
				"energy": -0.0087,
				"method": "rhf"
			},
			{
				"type": "unocc",
				"energy": 0.06628,
				"method": "rhf"
			},
			{
				"type": "unocc",
				"energy": 0.08167,
				"method": "rhf"
			}
		],
		"cosmo_sigma_profile": { 
			"-0.025": 0.0,
			"-0.024": 0.0,
			"-0.023": 0.0,
			"-0.022": 0.0,
			"-0.021": 0.0,
			"-0.02": 0.0,
			"-0.019": 0.0275680061826,
			"-0.018": 1.02203520898,
			"-0.017": 1.38836934939,
			"-0.016": 0.831880241589,
			"-0.015": 0.611166318994,
			"-0.014": 1.26775122274,
			"-0.013": 0.754885204982,
			"-0.012": 0.749810620146,
			"-0.011": 0.716413766389,
			"-0.01": 1.2156608687,
			"-0.009": 3.18325090242,
			"-0.008": 4.29087341583,
			"-0.007": 8.79684843678,
			"-0.006": 9.20509148643,
			"-0.005": 8.38205212649,
			"-0.004": 7.88698253793,
			"-0.003": 10.3043223663,
			"-0.002": 10.4634668593,
			"-0.001": 10.588606443,
			"0.0": 9.65124044997,
			"0.001": 12.3127932179,
			"0.002": 8.71781084309,
			"0.003": 5.66793269816,
			"0.004": 5.32098710147,
			"0.005": 6.35175174174,
			"0.006": 7.50593600554,
			"0.007": 9.56811989415,
			"0.008": 9.11977162539,
			"0.009": 6.12519462162,
			"0.01": 3.8497647767,
			"0.011": 2.28757829799,
			"0.012": 0.730069426587,
			"0.013": 0.658817858964,
			"0.014": 0.820419819139,
			"0.015": 0.103896810965,
			"0.016": 0.0,
			"0.017": 0.0,
			"0.018": 0.0,
			"0.019": 0.0,
			"0.02": 0.0,
			"0.021": 0.0,
			"0.022": 0.0,
			"0.023": 0.0,
			"0.024": 0.0,
			"0.025": 0.0
		}
	}
}
