{
	 "smiles": "IC1=CC=C2NC(=O)C(=O)C2=C1", 
	 "Tm": 558.15, 
	 "num_atms": 16, 
	 "gaussian": { 
		 "optdone": 1, 
		 "sigma_profile": "no", 
		 "theory": "DFT", 
		 "functional": "B3LYP", 
		 "basiset": "6-31G**", 
		 "properties": { 
			 "R2extent": 2258.527, 
			 "electric_dipole_moment_norm": 5.16326843579, 
			 "electric_quadrupole_moment_norm": 13.21687865, 
			 "total_energy": -523.843367425, 
			 "HOMO_LUMO_gap": 0.13255, 
			 "cosmo_polarized_energy": -100060.98, 
			 "cosmo_cavitation_energy": 24.91, 
			 "cosmo_dispersion_energy": -19.78, 
			 "cosmo_repulsion_energy": 1.54, 
			 "cosmo_total_nonelectrostatic_energy": 6.67, 
			 "SMD_solvation_energy": 4.71 
		},
		"coords": [
			{
				"x": -1.8349118573,
				"y": -1.9349408704,
				"z": 3.4847696087,
				"element": "I" 
			},
			{
				"x": -1.5763988158,
				"y": -1.0309902928,
				"z": 1.5866980677,
				"element": "C" 
			},
			{
				"x": -2.6716077576,
				"y": -0.4252319336,
				"z": 0.9563423761,
				"element": "C" 
			},
			{
				"x": -2.5434664732,
				"y": 0.1835225264,
				"z": -0.2987628669,
				"element": "C" 
			},
			{
				"x": -1.2928112183,
				"y": 0.169389782,
				"z": -0.9037857936,
				"element": "C" 
			},
			{
				"x": -0.9076326105,
				"y": 0.7020020258,
				"z": -2.1402209432,
				"element": "N" 
			},
			{
				"x": 0.4387521913,
				"y": 0.4892730803,
				"z": -2.4054456224,
				"element": "C" 
			},
			{
				"x": 1.0528079172,
				"y": 0.8328552384,
				"z": -3.3880704587,
				"element": "O" 
			},
			{
				"x": 0.9777562038,
				"y": -0.2905535372,
				"z": -1.1527298208,
				"element": "C" 
			},
			{
				"x": 2.1216492566,
				"y": -0.6586199702,
				"z": -1.0118411788,
				"element": "O" 
			},
			{
				"x": -0.1929449467,
				"y": -0.4399787567,
				"z": -0.2685438501,
				"element": "C" 
			},
			{
				"x": -0.3190574807,
				"y": -1.0449140153,
				"z": 0.9779972806,
				"element": "C" 
			},
			{
				"x": -3.6401242184,
				"y": -0.4241430518,
				"z": 1.4442356655,
				"element": "H" 
			},
			{
				"x": -3.402380652,
				"y": 0.648033387,
				"z": -0.7725468203,
				"element": "H" 
			},
			{
				"x": -1.519749084,
				"y": 1.1873470412,
				"z": -2.7799245432,
				"element": "H" 
			},
			{
				"x": 0.5431195455,
				"y": -1.5072506532,
				"z": 1.4459288995,
				"element": "H" 
			}
		],
		 "valence_orbital": [ 
			{
				"type": "occ",
				"energy": -0.29284,
				"method": "rhf"
			},
			{
				"type": "occ",
				"energy": -0.28866,
				"method": "rhf"
			},
			{
				"type": "occ",
				"energy": -0.28101,
				"method": "rhf"
			},
			{
				"type": "occ",
				"energy": -0.25607,
				"method": "rhf"
			},
			{
				"type": "occ",
				"energy": -0.2405,
				"method": "rhf"
			},
			{
				"type": "unocc",
				"energy": -0.10795,
				"method": "rhf"
			},
			{
				"type": "unocc",
				"energy": -0.05152,
				"method": "rhf"
			},
			{
				"type": "unocc",
				"energy": -0.03733,
				"method": "rhf"
			},
			{
				"type": "unocc",
				"energy": -0.0087,
				"method": "rhf"
			},
			{
				"type": "unocc",
				"energy": 0.03571,
				"method": "rhf"
			}
		],
		"cosmo_sigma_profile": { 
			"0.0": 0.0,
			"0.0": 0.0,
			"0.0": 0.0,
			"0.0": 0.0,
			"0.0": 0.0,
			"0.0": 0.0,
			"0.0": 0.0,
			"0.0": 0.0,
			"0.0": 0.0,
			"0.0": 0.0,
			"0.0": 0.0,
			"0.0": 0.0,
			"0.0": 0.0,
			"0.0": 0.0,
			"0.0": 0.0,
			"0.0": 0.0,
			"0.0": 0.0,
			"0.0": 0.0,
			"0.0": 0.0,
			"0.0": 0.0,
			"0.0": 0.0,
			"0.0": 0.0,
			"0.0": 0.0,
			"0.0": 0.0,
			"0.0": 0.0,
			"0.0": 0.0,
			"0.0": 0.0,
			"0.0": 0.0,
			"0.0": 0.0,
			"0.0": 0.0,
			"0.0": 0.0,
			"0.0": 0.0,
			"0.0": 0.0,
			"0.0": 0.0,
			"0.0": 0.0,
			"0.0": 0.0,
			"0.0": 0.0,
			"0.0": 0.0,
			"0.0": 0.0,
			"0.0": 0.0,
			"0.0": 0.0,
			"0.0": 0.0,
			"0.0": 0.0,
			"0.0": 0.0,
			"0.0": 0.0,
			"0.0": 0.0,
			"0.0": 0.0,
			"0.0": 0.0,
			"0.0": 0.0,
			"0.0": 0.0,
			"0.0": 0.0
		}
	}
}
