{
	 "smiles": "NC1=NN(CCC2=NC=CC=C2)C=C1", 
	 "Tm": 343.15, 
	 "num_atms": 26, 
	 "gaussian": { 
		 "optdone": 1, 
		 "sigma_profile": "yes", 
		 "theory": "DFT", 
		 "functional": "B3LYP", 
		 "basiset": "6-31G**", 
		 "properties": { 
			 "R2extent": 3233.7836, 
			 "electric_dipole_moment_norm": 0.954204495902, 
			 "electric_quadrupole_moment_norm": 6.94958527612, 
			 "total_energy": -607.283290471, 
			 "HOMO_LUMO_gap": 0.1695, 
			 "cosmo_polarized_energy": -13.34, 
			 "cosmo_cavitation_energy": 30.28, 
			 "cosmo_dispersion_energy": -21.08, 
			 "cosmo_repulsion_energy": 1.7, 
			 "cosmo_total_nonelectrostatic_energy": 10.9, 
			 "SMD_solvation_energy": 3.2 
		},
		"coords": [
			{
				"x": 2.4001461741,
				"y": 2.6011447954,
				"z": 0.7876904636,
				"element": "N" 
			},
			{
				"x": 1.6396548878,
				"y": 1.9943050412,
				"z": -0.2169392779,
				"element": "C" 
			},
			{
				"x": 1.8822196112,
				"y": 0.7355178789,
				"z": -0.5857013613,
				"element": "N" 
			},
			{
				"x": 0.927709509,
				"y": 0.4598872575,
				"z": -1.5196762299,
				"element": "N" 
			},
			{
				"x": 0.8548671372,
				"y": -0.8722914703,
				"z": -2.0915880895,
				"element": "C" 
			},
			{
				"x": 0.4054096034,
				"y": -1.9327371151,
				"z": -1.0723401972,
				"element": "C" 
			},
			{
				"x": -1.0307029437,
				"y": -1.7510475352,
				"z": -0.6318285297,
				"element": "C" 
			},
			{
				"x": -1.9593913504,
				"y": -1.8182671793,
				"z": -1.6025296842,
				"element": "N" 
			},
			{
				"x": -3.242927136,
				"y": -1.6694494708,
				"z": -1.2586940696,
				"element": "C" 
			},
			{
				"x": -3.6739635651,
				"y": -1.4470796758,
				"z": 0.0500748256,
				"element": "C" 
			},
			{
				"x": -2.7091683288,
				"y": -1.3688011869,
				"z": 1.052776407,
				"element": "C" 
			},
			{
				"x": -1.3673314355,
				"y": -1.521353281,
				"z": 0.7073030173,
				"element": "C" 
			},
			{
				"x": 0.107661835,
				"y": 1.5170946532,
				"z": -1.7359431909,
				"element": "C" 
			},
			{
				"x": 0.5321609375,
				"y": 2.5432418427,
				"z": -0.9130204167,
				"element": "C" 
			},
			{
				"x": 3.2577053948,
				"y": 2.089325891,
				"z": 0.959707735,
				"element": "H" 
			},
			{
				"x": 2.5996212446,
				"y": 3.5761826056,
				"z": 0.6019021573,
				"element": "H" 
			},
			{
				"x": 0.1448598154,
				"y": -0.8400337053,
				"z": -2.9212561276,
				"element": "H" 
			},
			{
				"x": 1.8431892142,
				"y": -1.1318391331,
				"z": -2.4842779536,
				"element": "H" 
			},
			{
				"x": 1.0794142597,
				"y": -1.9039238798,
				"z": -0.2119688572,
				"element": "H" 
			},
			{
				"x": 0.5082867223,
				"y": -2.9154916026,
				"z": -1.5488220239,
				"element": "H" 
			},
			{
				"x": -3.9655220776,
				"y": -1.7321985555,
				"z": -2.0713015448,
				"element": "H" 
			},
			{
				"x": -4.731014796,
				"y": -1.3355592773,
				"z": 0.2698447289,
				"element": "H" 
			},
			{
				"x": -2.9944251129,
				"y": -1.1890551203,
				"z": 2.08552134,
				"element": "H" 
			},
			{
				"x": -0.5866892757,
				"y": -1.4575576969,
				"z": 1.4587174858,
				"element": "H" 
			},
			{
				"x": -0.7066097643,
				"y": 1.4601687556,
				"z": -2.4440738274,
				"element": "H" 
			},
			{
				"x": 0.1065394396,
				"y": 3.5310171642,
				"z": -0.8186767789,
				"element": "H" 
			}
		],
		 "valence_orbital": [ 
			{
				"type": "occ",
				"energy": -0.27469,
				"method": "rhf"
			},
			{
				"type": "occ",
				"energy": -0.25403,
				"method": "rhf"
			},
			{
				"type": "occ",
				"energy": -0.25289,
				"method": "rhf"
			},
			{
				"type": "occ",
				"energy": -0.22816,
				"method": "rhf"
			},
			{
				"type": "occ",
				"energy": -0.19303,
				"method": "rhf"
			},
			{
				"type": "unocc",
				"energy": -0.02353,
				"method": "rhf"
			},
			{
				"type": "unocc",
				"energy": -0.00736,
				"method": "rhf"
			},
			{
				"type": "unocc",
				"energy": 0.03691,
				"method": "rhf"
			},
			{
				"type": "unocc",
				"energy": 0.08641,
				"method": "rhf"
			},
			{
				"type": "unocc",
				"energy": 0.09713,
				"method": "rhf"
			}
		],
		"cosmo_sigma_profile": { 
			"-0.025": 0.0,
			"-0.024": 0.0,
			"-0.023": 0.0,
			"-0.022": 0.0,
			"-0.021": 0.0,
			"-0.02": 0.0,
			"-0.019": 0.0,
			"-0.018": 0.0,
			"-0.017": 0.0,
			"-0.016": 0.0,
			"-0.015": 0.0,
			"-0.014": 0.0,
			"-0.013": 0.00909001880863,
			"-0.012": 1.31912300594,
			"-0.011": 2.56291844425,
			"-0.01": 1.97983244665,
			"-0.009": 2.67806565835,
			"-0.008": 4.48472519686,
			"-0.007": 6.62676108031,
			"-0.006": 15.1251603452,
			"-0.005": 21.1066748654,
			"-0.004": 20.4662613118,
			"-0.003": 17.0503877942,
			"-0.002": 15.4353206342,
			"-0.001": 14.5142267251,
			"0.0": 12.3370601832,
			"0.001": 11.8641211202,
			"0.002": 16.6822181314,
			"0.003": 18.6181387458,
			"0.004": 11.8013119852,
			"0.005": 7.49826060779,
			"0.006": 8.24549057892,
			"0.007": 7.08151446497,
			"0.008": 4.51682114965,
			"0.009": 2.56533979488,
			"0.01": 2.91222032332,
			"0.011": 3.17343758906,
			"0.012": 2.25712892241,
			"0.013": 2.02201049497,
			"0.014": 2.26984003287,
			"0.015": 2.00606578722,
			"0.016": 1.25013064222,
			"0.017": 0.078442055759,
			"0.018": 0.0,
			"0.019": 0.0,
			"0.02": 0.0,
			"0.021": 0.0,
			"0.022": 0.0,
			"0.023": 0.0,
			"0.024": 0.0,
			"0.025": 0.0
		}
	}
}
