{
	 "smiles": "CCOC(=O)C1=CN=C(NCC2=CC=CC=C2)S1", 
	 "Tm": 413.15, 
	 "num_atms": 32, 
	 "gaussian": { 
		 "optdone": 1, 
		 "sigma_profile": "yes", 
		 "theory": "DFT", 
		 "functional": "B3LYP", 
		 "basiset": "6-31G**", 
		 "properties": { 
			 "R2extent": 9371.556, 
			 "electric_dipole_moment_norm": 3.06591072277, 
			 "electric_quadrupole_moment_norm": 16.7947020733, 
			 "total_energy": -1161.97265209, 
			 "HOMO_LUMO_gap": 0.17345, 
			 "cosmo_polarized_energy": -13.38, 
			 "cosmo_cavitation_energy": 38.54, 
			 "cosmo_dispersion_energy": -28.2, 
			 "cosmo_repulsion_energy": 2.16, 
			 "cosmo_total_nonelectrostatic_energy": 12.49, 
			 "SMD_solvation_energy": 5.19 
		},
		"coords": [
			{
				"x": -1.2460221067,
				"y": -5.8889900932,
				"z": 3.4324633833,
				"element": "C" 
			},
			{
				"x": -2.2683906305,
				"y": -4.7643772246,
				"z": 3.3589681025,
				"element": "C" 
			},
			{
				"x": -1.6288245662,
				"y": -3.4794877087,
				"z": 3.1827447447,
				"element": "O" 
			},
			{
				"x": -1.3341730337,
				"y": -3.1280520046,
				"z": 1.9051558593,
				"element": "C" 
			},
			{
				"x": -1.5834360211,
				"y": -3.8179812002,
				"z": 0.9303247676,
				"element": "O" 
			},
			{
				"x": -0.688957242,
				"y": -1.821974701,
				"z": 1.8459343437,
				"element": "C" 
			},
			{
				"x": -0.352061778,
				"y": -0.9433885861,
				"z": 2.8455425661,
				"element": "C" 
			},
			{
				"x": 0.2507455921,
				"y": 0.2219074256,
				"z": 2.4792429775,
				"element": "N" 
			},
			{
				"x": 0.3994128454,
				"y": 0.2589645927,
				"z": 1.168429113,
				"element": "C" 
			},
			{
				"x": 1.0078742017,
				"y": 1.2919915258,
				"z": 0.5314922813,
				"element": "N" 
			},
			{
				"x": 0.9918607337,
				"y": 1.4823123355,
				"z": -0.9138131778,
				"element": "C" 
			},
			{
				"x": 1.9513101633,
				"y": 2.5765605398,
				"z": -1.3314074531,
				"element": "C" 
			},
			{
				"x": 1.5049549214,
				"y": 3.6592046164,
				"z": -2.0961428409,
				"element": "C" 
			},
			{
				"x": 2.3930079086,
				"y": 4.6598235249,
				"z": -2.4974707739,
				"element": "C" 
			},
			{
				"x": 3.7367734731,
				"y": 4.5893113407,
				"z": -2.1301018287,
				"element": "C" 
			},
			{
				"x": 4.1902019469,
				"y": 3.5133881649,
				"z": -1.3620430855,
				"element": "C" 
			},
			{
				"x": 3.3039268321,
				"y": 2.5124177235,
				"z": -0.9670530743,
				"element": "C" 
			},
			{
				"x": -0.2186423719,
				"y": -1.1425133653,
				"z": 0.2923349708,
				"element": "S" 
			},
			{
				"x": -0.7158991822,
				"y": -5.9862047613,
				"z": 2.481996719,
				"element": "H" 
			},
			{
				"x": -0.5179929665,
				"y": -5.7027245179,
				"z": 4.2276095366,
				"element": "H" 
			},
			{
				"x": -1.7509134843,
				"y": -6.8378569837,
				"z": 3.6433205869,
				"element": "H" 
			},
			{
				"x": -2.9706615199,
				"y": -4.9253634104,
				"z": 2.5375845681,
				"element": "H" 
			},
			{
				"x": -2.8221428144,
				"y": -4.6649859027,
				"z": 4.2959262411,
				"element": "H" 
			},
			{
				"x": -0.5442127746,
				"y": -1.1365151339,
				"z": 3.8945710056,
				"element": "H" 
			},
			{
				"x": 1.1691825925,
				"y": 2.1033198733,
				"z": 1.114200012,
				"element": "H" 
			},
			{
				"x": -0.021253866,
				"y": 1.7126849729,
				"z": -1.2757081432,
				"element": "H" 
			},
			{
				"x": 1.285495279,
				"y": 0.5314507689,
				"z": -1.3797126303,
				"element": "H" 
			},
			{
				"x": 0.4571155191,
				"y": 3.7202069116,
				"z": -2.379270591,
				"element": "H" 
			},
			{
				"x": 2.0325095569,
				"y": 5.4946418647,
				"z": -3.0914131048,
				"element": "H" 
			},
			{
				"x": 4.4281987902,
				"y": 5.367951232,
				"z": -2.4387600304,
				"element": "H" 
			},
			{
				"x": 5.2357535171,
				"y": 3.4526516908,
				"z": -1.0740363025,
				"element": "H" 
			},
			{
				"x": 3.657360485,
				"y": 1.6757264897,
				"z": -0.3705087427,
				"element": "H" 
			}
		],
		 "valence_orbital": [ 
			{
				"type": "occ",
				"energy": -0.2771,
				"method": "rhf"
			},
			{
				"type": "occ",
				"energy": -0.26298,
				"method": "rhf"
			},
			{
				"type": "occ",
				"energy": -0.26065,
				"method": "rhf"
			},
			{
				"type": "occ",
				"energy": -0.2582,
				"method": "rhf"
			},
			{
				"type": "occ",
				"energy": -0.2112,
				"method": "rhf"
			},
			{
				"type": "unocc",
				"energy": -0.03775,
				"method": "rhf"
			},
			{
				"type": "unocc",
				"energy": -0.01987,
				"method": "rhf"
			},
			{
				"type": "unocc",
				"energy": -0.01362,
				"method": "rhf"
			},
			{
				"type": "unocc",
				"energy": 0.01947,
				"method": "rhf"
			},
			{
				"type": "unocc",
				"energy": 0.03506,
				"method": "rhf"
			}
		],
		"cosmo_sigma_profile": { 
			"-0.025": 0.0,
			"-0.024": 0.0,
			"-0.023": 0.0,
			"-0.022": 0.0,
			"-0.021": 0.0,
			"-0.02": 0.0,
			"-0.019": 0.0,
			"-0.018": 0.0,
			"-0.017": 0.0,
			"-0.016": 0.0,
			"-0.015": 0.156284934493,
			"-0.014": 0.565302574118,
			"-0.013": 0.879083802342,
			"-0.012": 0.810175991446,
			"-0.011": 1.14261864045,
			"-0.01": 0.472552658069,
			"-0.009": 0.880212093795,
			"-0.008": 1.45552847016,
			"-0.007": 3.64048118666,
			"-0.006": 14.4621094008,
			"-0.005": 23.1946652176,
			"-0.004": 29.9568524475,
			"-0.003": 26.6765344279,
			"-0.002": 23.6203151961,
			"-0.001": 23.8641248156,
			"0.0": 26.4681046539,
			"0.001": 23.1812278469,
			"0.002": 24.4195363629,
			"0.003": 20.0631314774,
			"0.004": 15.9142062758,
			"0.005": 13.9308766903,
			"0.006": 9.30204175341,
			"0.007": 3.79355216935,
			"0.008": 2.62633239597,
			"0.009": 2.47441315472,
			"0.01": 2.8578216253,
			"0.011": 3.04631632588,
			"0.012": 5.46882988092,
			"0.013": 1.99592466113,
			"0.014": 0.915542407059,
			"0.015": 0.54629872038,
			"0.016": 0.00467035651573,
			"0.017": 0.0,
			"0.018": 0.0,
			"0.019": 0.0,
			"0.02": 0.0,
			"0.021": 0.0,
			"0.022": 0.0,
			"0.023": 0.0,
			"0.024": 0.0,
			"0.025": 0.0
		}
	}
}
