{
	 "smiles": "O1C2C(C3C1C(=C/C1=CC=CC=C1)C1=C3C=CC=C1)C1=C(C=CC=C1)C2=CC1=CC=CC=C1", 
	 "Tm": 487.15, 
	 "num_atms": 57, 
	 "gaussian": { 
		 "optdone": 1, 
		 "sigma_profile": "yes", 
		 "theory": "DFT", 
		 "functional": "B3LYP", 
		 "basiset": "6-31G**", 
		 "properties": { 
			 "R2extent": 15016.4553, 
			 "electric_dipole_moment_norm": 1.43479507596, 
			 "electric_quadrupole_moment_norm": 6.96994215471, 
			 "total_energy": -1309.08663386, 
			 "HOMO_LUMO_gap": 0.15055, 
			 "cosmo_polarized_energy": -12.93, 
			 "cosmo_cavitation_energy": 58.63, 
			 "cosmo_dispersion_energy": -39.5, 
			 "cosmo_repulsion_energy": 2.92, 
			 "cosmo_total_nonelectrostatic_energy": 22.05, 
			 "SMD_solvation_energy": 8.33 
		},
		"coords": [
			{
				"x": 0.2908015871,
				"y": -0.6883294185,
				"z": 0.2744405626,
				"element": "O" 
			},
			{
				"x": 0.0971982224,
				"y": 0.661577078,
				"z": -0.198126595,
				"element": "C" 
			},
			{
				"x": -0.0524857197,
				"y": 1.5472211373,
				"z": 1.0661707389,
				"element": "C" 
			},
			{
				"x": -0.4426638458,
				"y": 0.5609135478,
				"z": 2.1840510816,
				"element": "C" 
			},
			{
				"x": 0.0996457602,
				"y": -0.8092151955,
				"z": 1.6999794023,
				"element": "C" 
			},
			{
				"x": -0.9908312951,
				"y": -1.8230654391,
				"z": 2.0087390701,
				"element": "C" 
			},
			{
				"x": -0.8604984267,
				"y": -3.1648493209,
				"z": 2.0960091769,
				"element": "C" 
			},
			{
				"x": 0.3227115538,
				"y": -4.0017078272,
				"z": 1.8704976362,
				"element": "C" 
			},
			{
				"x": 0.3783751848,
				"y": -5.2580755845,
				"z": 2.5079900679,
				"element": "C" 
			},
			{
				"x": 1.4774979939,
				"y": -6.0984507745,
				"z": 2.3556494242,
				"element": "C" 
			},
			{
				"x": 2.5478882439,
				"y": -5.7091769131,
				"z": 1.5467516812,
				"element": "C" 
			},
			{
				"x": 2.4984715845,
				"y": -4.4791821198,
				"z": 0.8871564056,
				"element": "C" 
			},
			{
				"x": 1.4000568944,
				"y": -3.6339996923,
				"z": 1.0378035478,
				"element": "C" 
			},
			{
				"x": -2.2201007372,
				"y": -1.0608586251,
				"z": 2.2734067048,
				"element": "C" 
			},
			{
				"x": -1.927819463,
				"y": 0.3125054464,
				"z": 2.3651759606,
				"element": "C" 
			},
			{
				"x": -2.9356288252,
				"y": 1.2372533153,
				"z": 2.626179844,
				"element": "C" 
			},
			{
				"x": -4.2489466115,
				"y": 0.786666348,
				"z": 2.7895698076,
				"element": "C" 
			},
			{
				"x": -4.5449340172,
				"y": -0.5787461381,
				"z": 2.6933579165,
				"element": "C" 
			},
			{
				"x": -3.5377960073,
				"y": -1.5077417206,
				"z": 2.4345527905,
				"element": "C" 
			},
			{
				"x": 1.3065960278,
				"y": 2.2065731476,
				"z": 1.2018965371,
				"element": "C" 
			},
			{
				"x": 2.0871815653,
				"y": 1.9840185273,
				"z": 0.0524813747,
				"element": "C" 
			},
			{
				"x": 3.374285735,
				"y": 2.5295229917,
				"z": -0.0352791558,
				"element": "C" 
			},
			{
				"x": 3.8619946603,
				"y": 3.2969340562,
				"z": 1.0218854527,
				"element": "C" 
			},
			{
				"x": 3.0797372602,
				"y": 3.5208208942,
				"z": 2.1616859359,
				"element": "C" 
			},
			{
				"x": 1.795800316,
				"y": 2.9754548647,
				"z": 2.2547157233,
				"element": "C" 
			},
			{
				"x": 1.343749216,
				"y": 1.1599932761,
				"z": -0.9121125679,
				"element": "C" 
			},
			{
				"x": 1.6864300002,
				"y": 0.953552465,
				"z": -2.2024210443,
				"element": "C" 
			},
			{
				"x": 1.0005041694,
				"y": 0.1670431844,
				"z": -3.233013481,
				"element": "C" 
			},
			{
				"x": 0.1484776571,
				"y": -0.9219437537,
				"z": -2.954827232,
				"element": "C" 
			},
			{
				"x": -0.4801701458,
				"y": -1.6112443627,
				"z": -3.9907748912,
				"element": "C" 
			},
			{
				"x": -0.26938586,
				"y": -1.2454238704,
				"z": -5.3219950795,
				"element": "C" 
			},
			{
				"x": 0.5910010319,
				"y": -0.1845418302,
				"z": -5.6149765598,
				"element": "C" 
			},
			{
				"x": 1.2215299868,
				"y": 0.505709044,
				"z": -4.5836970821,
				"element": "C" 
			},
			{
				"x": -0.7859801091,
				"y": 0.6775447862,
				"z": -0.8454493276,
				"element": "H" 
			},
			{
				"x": -0.8316880692,
				"y": 2.3064177194,
				"z": 0.9296639408,
				"element": "H" 
			},
			{
				"x": 0.013147446,
				"y": 0.8547186179,
				"z": 3.1369689323,
				"element": "H" 
			},
			{
				"x": 1.0583214014,
				"y": -1.0808867922,
				"z": 2.154281057,
				"element": "H" 
			},
			{
				"x": -1.7411446577,
				"y": -3.7197391644,
				"z": 2.4204974436,
				"element": "H" 
			},
			{
				"x": -0.451437247,
				"y": -5.5658585302,
				"z": 3.1396526116,
				"element": "H" 
			},
			{
				"x": 1.4983542635,
				"y": -7.0580021203,
				"z": 2.8648201248,
				"element": "H" 
			},
			{
				"x": 3.4051275107,
				"y": -6.3643087858,
				"z": 1.4206945484,
				"element": "H" 
			},
			{
				"x": 3.3155533061,
				"y": -4.1792642986,
				"z": 0.2368023697,
				"element": "H" 
			},
			{
				"x": 1.3599664976,
				"y": -2.7057364332,
				"z": 0.4792048809,
				"element": "H" 
			},
			{
				"x": -2.7092424901,
				"y": 2.2979672226,
				"z": 2.7037329999,
				"element": "H" 
			},
			{
				"x": -5.0444169398,
				"y": 1.4988363815,
				"z": 2.9891162121,
				"element": "H" 
			},
			{
				"x": -5.570102801,
				"y": -0.9165469297,
				"z": 2.8159842451,
				"element": "H" 
			},
			{
				"x": -3.7796616311,
				"y": -2.5632439438,
				"z": 2.3469218735,
				"element": "H" 
			},
			{
				"x": 3.9943650985,
				"y": 2.3488171764,
				"z": -0.9088398717,
				"element": "H" 
			},
			{
				"x": 4.8605982289,
				"y": 3.7206060336,
				"z": 0.9634835037,
				"element": "H" 
			},
			{
				"x": 3.4741313721,
				"y": 4.1186014449,
				"z": 2.978318933,
				"element": "H" 
			},
			{
				"x": 1.1904956068,
				"y": 3.1533101398,
				"z": 3.1403518107,
				"element": "H" 
			},
			{
				"x": 2.576838808,
				"y": 1.4720072472,
				"z": -2.5589634527,
				"element": "H" 
			},
			{
				"x": 0.0094161872,
				"y": -1.252582099,
				"z": -1.9317568043,
				"element": "H" 
			},
			{
				"x": -1.1285266334,
				"y": -2.4506559773,
				"z": -3.7550707982,
				"element": "H" 
			},
			{
				"x": -0.7591309341,
				"y": -1.7903594471,
				"z": -6.12395799,
				"element": "H" 
			},
			{
				"x": 0.7726984646,
				"y": 0.1023331273,
				"z": -6.6470220883,
				"element": "H" 
			},
			{
				"x": 1.8894436246,
				"y": 1.3312178874,
				"z": -4.8176583091,
				"element": "H" 
			}
		],
		 "valence_orbital": [ 
			{
				"type": "occ",
				"energy": -0.24667,
				"method": "rhf"
			},
			{
				"type": "occ",
				"energy": -0.24451,
				"method": "rhf"
			},
			{
				"type": "occ",
				"energy": -0.24419,
				"method": "rhf"
			},
			{
				"type": "occ",
				"energy": -0.20463,
				"method": "rhf"
			},
			{
				"type": "occ",
				"energy": -0.20069,
				"method": "rhf"
			},
			{
				"type": "unocc",
				"energy": -0.05014,
				"method": "rhf"
			},
			{
				"type": "unocc",
				"energy": -0.04558,
				"method": "rhf"
			},
			{
				"type": "unocc",
				"energy": -0.01028,
				"method": "rhf"
			},
			{
				"type": "unocc",
				"energy": 0.0002,
				"method": "rhf"
			},
			{
				"type": "unocc",
				"energy": 0.00455,
				"method": "rhf"
			}
		],
		"cosmo_sigma_profile": { 
			"-0.025": 0.0,
			"-0.024": 0.0,
			"-0.023": 0.0,
			"-0.022": 0.0,
			"-0.021": 0.0,
			"-0.02": 0.0,
			"-0.019": 0.0,
			"-0.018": 0.0,
			"-0.017": 0.0,
			"-0.016": 0.0,
			"-0.015": 0.0,
			"-0.014": 0.0,
			"-0.013": 0.0,
			"-0.012": 0.0,
			"-0.011": 0.0,
			"-0.01": 0.0,
			"-0.009": 0.0,
			"-0.008": 0.0,
			"-0.007": 0.881513988458,
			"-0.006": 22.2095262345,
			"-0.005": 48.1873980455,
			"-0.004": 47.2700181327,
			"-0.003": 43.9043157862,
			"-0.002": 31.5219533629,
			"-0.001": 30.3421569612,
			"0.0": 27.8068213845,
			"0.001": 28.2777991952,
			"0.002": 32.5581734718,
			"0.003": 38.1872803054,
			"0.004": 45.7795128027,
			"0.005": 44.2454168334,
			"0.006": 23.8960042741,
			"0.007": 2.41731132528,
			"0.008": 1.93238121044,
			"0.009": 0.641253438142,
			"0.01": 0.0101711996328,
			"0.011": 0.0,
			"0.012": 0.0,
			"0.013": 0.0,
			"0.014": 0.0,
			"0.015": 0.0,
			"0.016": 0.0,
			"0.017": 0.0,
			"0.018": 0.0,
			"0.019": 0.0,
			"0.02": 0.0,
			"0.021": 0.0,
			"0.022": 0.0,
			"0.023": 0.0,
			"0.024": 0.0,
			"0.025": 0.0
		}
	}
}
