{
	 "smiles": "O=CC1=C(C=CC=C1)N1C=NC=N1", 
	 "Tm": 387.15, 
	 "num_atms": 20, 
	 "gaussian": { 
		 "optdone": 1, 
		 "sigma_profile": "yes", 
		 "theory": "DFT", 
		 "functional": "B3LYP", 
		 "basiset": "6-31G**", 
		 "properties": { 
			 "R2extent": 2487.1549, 
			 "electric_dipole_moment_norm": 3.37040808212, 
			 "electric_quadrupole_moment_norm": 5.77488479452, 
			 "total_energy": -586.619357293, 
			 "HOMO_LUMO_gap": 0.17882, 
			 "cosmo_polarized_energy": -12.42, 
			 "cosmo_cavitation_energy": 25.08, 
			 "cosmo_dispersion_energy": -18.23, 
			 "cosmo_repulsion_energy": 1.41, 
			 "cosmo_total_nonelectrostatic_energy": 8.26, 
			 "SMD_solvation_energy": 3.37 
		},
		"coords": [
			{
				"x": 2.6694825888,
				"y": 2.8476383809,
				"z": 0.082516895,
				"element": "O" 
			},
			{
				"x": 1.5849312051,
				"y": 2.3224334968,
				"z": -0.0884742288,
				"element": "C" 
			},
			{
				"x": 1.2684230018,
				"y": 0.9404513311,
				"z": 0.3611619733,
				"element": "C" 
			},
			{
				"x": 0.0706162928,
				"y": 0.2706652098,
				"z": 0.0420134416,
				"element": "C" 
			},
			{
				"x": -0.2319709822,
				"y": -0.962664325,
				"z": 0.6272913732,
				"element": "C" 
			},
			{
				"x": 0.6721755813,
				"y": -1.5496316423,
				"z": 1.5076474638,
				"element": "C" 
			},
			{
				"x": 1.8888335514,
				"y": -0.9211785288,
				"z": 1.7988418165,
				"element": "C" 
			},
			{
				"x": 2.17734555,
				"y": 0.3117072492,
				"z": 1.2296046881,
				"element": "C" 
			},
			{
				"x": -0.8529508314,
				"y": 0.8071978369,
				"z": -0.8978685684,
				"element": "N" 
			},
			{
				"x": -0.631402996,
				"y": 1.3251369763,
				"z": -2.1401290415,
				"element": "C" 
			},
			{
				"x": -1.7726933809,
				"y": 1.6123737324,
				"z": -2.731684506,
				"element": "N" 
			},
			{
				"x": -2.6944080566,
				"y": 1.2338507583,
				"z": -1.7988291604,
				"element": "C" 
			},
			{
				"x": -2.1990901196,
				"y": 0.7325457645,
				"z": -0.6794579965,
				"element": "N" 
			},
			{
				"x": 0.757699802,
				"y": 2.8826393848,
				"z": -0.5646399741,
				"element": "H" 
			},
			{
				"x": -1.1701432956,
				"y": -1.4436503737,
				"z": 0.3768358199,
				"element": "H" 
			},
			{
				"x": 0.43184474,
				"y": -2.5078943664,
				"z": 1.9581887475,
				"element": "H" 
			},
			{
				"x": 2.5971922775,
				"y": -1.3896606792,
				"z": 2.4748530509,
				"element": "H" 
			},
			{
				"x": 3.0969553614,
				"y": 0.8412018783,
				"z": 1.4563348759,
				"element": "H" 
			},
			{
				"x": 0.3576562445,
				"y": 1.4403828799,
				"z": -2.5604035677,
				"element": "H" 
			},
			{
				"x": -3.7606965343,
				"y": 1.3330550364,
				"z": -1.9485031023,
				"element": "H" 
			}
		],
		 "valence_orbital": [ 
			{
				"type": "occ",
				"energy": -0.29151,
				"method": "rhf"
			},
			{
				"type": "occ",
				"energy": -0.2879,
				"method": "rhf"
			},
			{
				"type": "occ",
				"energy": -0.27913,
				"method": "rhf"
			},
			{
				"type": "occ",
				"energy": -0.26952,
				"method": "rhf"
			},
			{
				"type": "occ",
				"energy": -0.25865,
				"method": "rhf"
			},
			{
				"type": "unocc",
				"energy": -0.07983,
				"method": "rhf"
			},
			{
				"type": "unocc",
				"energy": -0.04069,
				"method": "rhf"
			},
			{
				"type": "unocc",
				"energy": 0.00032,
				"method": "rhf"
			},
			{
				"type": "unocc",
				"energy": 0.02126,
				"method": "rhf"
			},
			{
				"type": "unocc",
				"energy": 0.04044,
				"method": "rhf"
			}
		],
		"cosmo_sigma_profile": { 
			"-0.025": 0.0,
			"-0.024": 0.0,
			"-0.023": 0.0,
			"-0.022": 0.0,
			"-0.021": 0.0,
			"-0.02": 0.0,
			"-0.019": 0.0,
			"-0.018": 0.0,
			"-0.017": 0.0,
			"-0.016": 0.0,
			"-0.015": 0.0,
			"-0.014": 0.0,
			"-0.013": 0.0,
			"-0.012": 0.511009085132,
			"-0.011": 2.52762384907,
			"-0.01": 1.95989354357,
			"-0.009": 3.71587371033,
			"-0.008": 4.69210672283,
			"-0.007": 13.3337808131,
			"-0.006": 13.7551639357,
			"-0.005": 11.9402180064,
			"-0.004": 11.9091397817,
			"-0.003": 12.6776109308,
			"-0.002": 10.8573538772,
			"-0.001": 11.7323644135,
			"0.0": 14.3586140059,
			"0.001": 16.9412702877,
			"0.002": 16.8455834636,
			"0.003": 9.23099094665,
			"0.004": 5.07107514188,
			"0.005": 4.01494811158,
			"0.006": 4.77751478633,
			"0.007": 4.2065637954,
			"0.008": 3.55558501347,
			"0.009": 4.76036722293,
			"0.01": 5.12089387939,
			"0.011": 6.06921603254,
			"0.012": 3.58342286837,
			"0.013": 1.8327724931,
			"0.014": 1.60992649484,
			"0.015": 0.852595153412,
			"0.016": 0.57606841367,
			"0.017": 0.0,
			"0.018": 0.0,
			"0.019": 0.0,
			"0.02": 0.0,
			"0.021": 0.0,
			"0.022": 0.0,
			"0.023": 0.0,
			"0.024": 0.0,
			"0.025": 0.0
		}
	}
}
