{
	 "smiles": "COC1=C(NC(=O)NC2CCNCC2)C=CC=C1", 
	 "Tm": 357.15, 
	 "num_atms": 37, 
	 "gaussian": { 
		 "optdone": 1, 
		 "sigma_profile": "yes", 
		 "theory": "DFT", 
		 "functional": "B3LYP", 
		 "basiset": "6-31G**", 
		 "properties": { 
			 "R2extent": 5590.7615, 
			 "electric_dipole_moment_norm": 2.75683388328, 
			 "electric_quadrupole_moment_norm": 21.5948304849, 
			 "total_energy": -821.54510005, 
			 "HOMO_LUMO_gap": 0.19888, 
			 "cosmo_polarized_energy": -14.76, 
			 "cosmo_cavitation_energy": 37.83, 
			 "cosmo_dispersion_energy": -26.89, 
			 "cosmo_repulsion_energy": 2.1, 
			 "cosmo_total_nonelectrostatic_energy": 13.04, 
			 "SMD_solvation_energy": 4.68 
		},
		"coords": [
			{
				"x": 0.7800688849,
				"y": -2.7588508262,
				"z": -4.2325595169,
				"element": "C" 
			},
			{
				"x": 0.6626184695,
				"y": -1.7064412973,
				"z": -3.2885460393,
				"element": "O" 
			},
			{
				"x": -0.5415372593,
				"y": -1.5316631514,
				"z": -2.6561942502,
				"element": "C" 
			},
			{
				"x": -0.5939656658,
				"y": -0.4160063346,
				"z": -1.783372669,
				"element": "C" 
			},
			{
				"x": 0.5793272406,
				"y": 0.3542998416,
				"z": -1.6828391339,
				"element": "N" 
			},
			{
				"x": 0.8607240108,
				"y": 1.4927744644,
				"z": -0.9284556259,
				"element": "C" 
			},
			{
				"x": 1.5561228755,
				"y": 2.388529303,
				"z": -1.3933736969,
				"element": "O" 
			},
			{
				"x": 0.3374748303,
				"y": 1.551992424,
				"z": 0.3565462165,
				"element": "N" 
			},
			{
				"x": 0.3715111043,
				"y": 0.410252294,
				"z": 1.295548328,
				"element": "C" 
			},
			{
				"x": 1.8078382049,
				"y": -0.0358369664,
				"z": 1.6500040277,
				"element": "C" 
			},
			{
				"x": 2.5145764952,
				"y": 0.9790631124,
				"z": 2.5547423453,
				"element": "C" 
			},
			{
				"x": 1.7147881762,
				"y": 1.1937505557,
				"z": 3.7636588036,
				"element": "N" 
			},
			{
				"x": 0.4025265645,
				"y": 1.7629776969,
				"z": 3.459710052,
				"element": "C" 
			},
			{
				"x": -0.3898086092,
				"y": 0.7855174196,
				"z": 2.5808687428,
				"element": "C" 
			},
			{
				"x": -1.7961825539,
				"y": -0.13246359,
				"z": -1.1296889644,
				"element": "C" 
			},
			{
				"x": -2.9133288361,
				"y": -0.9554148451,
				"z": -1.3050990234,
				"element": "C" 
			},
			{
				"x": -2.8481337021,
				"y": -2.0573462687,
				"z": -2.1504345336,
				"element": "C" 
			},
			{
				"x": -1.6602493673,
				"y": -2.3421225742,
				"z": -2.8345807684,
				"element": "C" 
			},
			{
				"x": 1.7957902689,
				"y": -2.6996866367,
				"z": -4.6264108112,
				"element": "H" 
			},
			{
				"x": 0.0636703097,
				"y": -2.6437855533,
				"z": -5.0558296955,
				"element": "H" 
			},
			{
				"x": 0.6322320708,
				"y": -3.7390422952,
				"z": -3.7619158891,
				"element": "H" 
			},
			{
				"x": 1.1681202191,
				"y": 0.3091310889,
				"z": -2.5047534984,
				"element": "H" 
			},
			{
				"x": 0.6340192837,
				"y": 2.428951991,
				"z": 0.7690123768,
				"element": "H" 
			},
			{
				"x": -0.1488165523,
				"y": -0.4198826828,
				"z": 0.8136478698,
				"element": "H" 
			},
			{
				"x": 2.3841680161,
				"y": -0.1989820738,
				"z": 0.7329700266,
				"element": "H" 
			},
			{
				"x": 1.7502071066,
				"y": -0.9944028277,
				"z": 2.1796429637,
				"element": "H" 
			},
			{
				"x": 2.6933296321,
				"y": 1.913803486,
				"z": 1.9879013802,
				"element": "H" 
			},
			{
				"x": 3.4971636059,
				"y": 0.5946761433,
				"z": 2.8484597502,
				"element": "H" 
			},
			{
				"x": 2.2147109566,
				"y": 1.8006291682,
				"z": 4.4070288639,
				"element": "H" 
			},
			{
				"x": -0.1358421625,
				"y": 1.931848148,
				"z": 4.3987108431,
				"element": "H" 
			},
			{
				"x": 0.4693462794,
				"y": 2.7503877113,
				"z": 2.9572259026,
				"element": "H" 
			},
			{
				"x": -0.5591292704,
				"y": -0.1302038775,
				"z": 3.1576077785,
				"element": "H" 
			},
			{
				"x": -1.3673851114,
				"y": 1.2086244698,
				"z": 2.3253935519,
				"element": "H" 
			},
			{
				"x": -1.8519805808,
				"y": 0.7423931004,
				"z": -0.4926664633,
				"element": "H" 
			},
			{
				"x": -3.835041748,
				"y": -0.7181886068,
				"z": -0.7826716467,
				"element": "H" 
			},
			{
				"x": -3.7128324633,
				"y": -2.6984213674,
				"z": -2.2910138721,
				"element": "H" 
			},
			{
				"x": -1.6152007231,
				"y": -3.1958606434,
				"z": -3.5004737252,
				"element": "H" 
			}
		],
		 "valence_orbital": [ 
			{
				"type": "occ",
				"energy": -0.26338,
				"method": "rhf"
			},
			{
				"type": "occ",
				"energy": -0.23891,
				"method": "rhf"
			},
			{
				"type": "occ",
				"energy": -0.23451,
				"method": "rhf"
			},
			{
				"type": "occ",
				"energy": -0.22231,
				"method": "rhf"
			},
			{
				"type": "occ",
				"energy": -0.20173,
				"method": "rhf"
			},
			{
				"type": "unocc",
				"energy": -0.00285,
				"method": "rhf"
			},
			{
				"type": "unocc",
				"energy": 0.01114,
				"method": "rhf"
			},
			{
				"type": "unocc",
				"energy": 0.05447,
				"method": "rhf"
			},
			{
				"type": "unocc",
				"energy": 0.07058,
				"method": "rhf"
			},
			{
				"type": "unocc",
				"energy": 0.08641,
				"method": "rhf"
			}
		],
		"cosmo_sigma_profile": { 
			"-0.025": 0.0,
			"-0.024": 0.0,
			"-0.023": 0.0,
			"-0.022": 0.0,
			"-0.021": 0.0,
			"-0.02": 0.0,
			"-0.019": 0.0,
			"-0.018": 0.0,
			"-0.017": 0.0,
			"-0.016": 0.0,
			"-0.015": 0.0,
			"-0.014": 0.0,
			"-0.013": 0.0,
			"-0.012": 0.0,
			"-0.011": 0.170776258276,
			"-0.01": 2.01717808636,
			"-0.009": 3.46683864701,
			"-0.008": 3.26224204224,
			"-0.007": 2.98352581553,
			"-0.006": 10.906650516,
			"-0.005": 19.1857869412,
			"-0.004": 23.2657676456,
			"-0.003": 35.7642901818,
			"-0.002": 33.0873554225,
			"-0.001": 34.2504854514,
			"0.0": 26.342895274,
			"0.001": 14.7668900909,
			"0.002": 13.2168061827,
			"0.003": 13.6623746481,
			"0.004": 11.8608098235,
			"0.005": 11.4619492439,
			"0.006": 9.09466723269,
			"0.007": 4.03700907348,
			"0.008": 2.66884516874,
			"0.009": 1.62614314416,
			"0.01": 1.68772158472,
			"0.011": 1.83518304633,
			"0.012": 2.80961667002,
			"0.013": 4.1387173521,
			"0.014": 6.23144164802,
			"0.015": 1.28328725163,
			"0.016": 0.226721268984,
			"0.017": 0.574903163676,
			"0.018": 0.503505275444,
			"0.019": 0.0,
			"0.02": 0.0,
			"0.021": 0.0,
			"0.022": 0.0,
			"0.023": 0.0,
			"0.024": 0.0,
			"0.025": 0.0
		}
	}
}
