{
	 "smiles": "OCC=C", 
	 "Tm": 144.15, 
	 "num_atms": 10, 
	 "gaussian": { 
		 "optdone": 1, 
		 "sigma_profile": "yes", 
		 "theory": "DFT", 
		 "functional": "B3LYP", 
		 "basiset": "6-31G**", 
		 "properties": { 
			 "R2extent": 393.6965, 
			 "electric_dipole_moment_norm": 1.53822525659, 
			 "electric_quadrupole_moment_norm": 4.316643402, 
			 "total_energy": -193.119908077, 
			 "HOMO_LUMO_gap": 0.26581, 
			 "cosmo_polarized_energy": -5.69, 
			 "cosmo_cavitation_energy": 13.46, 
			 "cosmo_dispersion_energy": -9.86, 
			 "cosmo_repulsion_energy": 0.92, 
			 "cosmo_total_nonelectrostatic_energy": 4.53, 
			 "SMD_solvation_energy": 3.33 
		},
		"coords": [
			{
				"x": 0.4311880924,
				"y": 0.2752747754,
				"z": 1.9653853083,
				"element": "O" 
			},
			{
				"x": 0.8087571627,
				"y": 1.0105547598,
				"z": 0.803822885,
				"element": "C" 
			},
			{
				"x": 0.7829770548,
				"y": 0.1645348314,
				"z": -0.439227685,
				"element": "C" 
			},
			{
				"x": 0.0850994443,
				"y": 0.4595033579,
				"z": -1.5365587258,
				"element": "C" 
			},
			{
				"x": -0.4488813893,
				"y": -0.0872020018,
				"z": 1.7979138137,
				"element": "H" 
			},
			{
				"x": 0.180131151,
				"y": 1.9044515691,
				"z": 0.6629263453,
				"element": "H" 
			},
			{
				"x": 1.8286079164,
				"y": 1.3593316839,
				"z": 1.0061063334,
				"element": "H" 
			},
			{
				"x": 1.3737145508,
				"y": -0.7502095535,
				"z": -0.3936337652,
				"element": "H" 
			},
			{
				"x": -0.5166759123,
				"y": 1.3638011385,
				"z": -1.6008129204,
				"element": "H" 
			},
			{
				"x": 0.0936819291,
				"y": -0.1810405607,
				"z": -2.4136215893,
				"element": "H" 
			}
		],
		 "valence_orbital": [ 
			{
				"type": "occ",
				"energy": -0.42385,
				"method": "rhf"
			},
			{
				"type": "occ",
				"energy": -0.36517,
				"method": "rhf"
			},
			{
				"type": "occ",
				"energy": -0.32621,
				"method": "rhf"
			},
			{
				"type": "occ",
				"energy": -0.27938,
				"method": "rhf"
			},
			{
				"type": "occ",
				"energy": -0.2595,
				"method": "rhf"
			},
			{
				"type": "unocc",
				"energy": 0.00631,
				"method": "rhf"
			},
			{
				"type": "unocc",
				"energy": 0.09798,
				"method": "rhf"
			},
			{
				"type": "unocc",
				"energy": 0.11964,
				"method": "rhf"
			},
			{
				"type": "unocc",
				"energy": 0.12801,
				"method": "rhf"
			},
			{
				"type": "unocc",
				"energy": 0.15173,
				"method": "rhf"
			}
		],
		"cosmo_sigma_profile": { 
			"-0.025": 0.0,
			"-0.024": 0.0,
			"-0.023": 0.0,
			"-0.022": 0.0,
			"-0.021": 0.0,
			"-0.02": 0.0,
			"-0.019": 0.0,
			"-0.018": 0.0,
			"-0.017": 0.0,
			"-0.016": 0.0329484657383,
			"-0.015": 0.682810518901,
			"-0.014": 0.926244443675,
			"-0.013": 0.60542142585,
			"-0.012": 1.1697172314,
			"-0.011": 0.740168114234,
			"-0.01": 0.53240509077,
			"-0.009": 0.540571845418,
			"-0.008": 0.540768665226,
			"-0.007": 1.10546341563,
			"-0.006": 1.37686380752,
			"-0.005": 6.22086463228,
			"-0.004": 12.3472753211,
			"-0.003": 10.4878644118,
			"-0.002": 11.0451812673,
			"-0.001": 9.89800006637,
			"0.0": 7.86481008939,
			"0.001": 5.66047224819,
			"0.002": 4.8419415813,
			"0.003": 4.92941214865,
			"0.004": 4.17681895446,
			"0.005": 4.27024136825,
			"0.006": 3.08847372635,
			"0.007": 1.55666177583,
			"0.008": 1.06202516785,
			"0.009": 0.918855472606,
			"0.01": 1.02431537064,
			"0.011": 1.47963087381,
			"0.012": 1.36054744729,
			"0.013": 1.84987276445,
			"0.014": 2.36201520829,
			"0.015": 0.849123296443,
			"0.016": 0.0,
			"0.017": 0.0,
			"0.018": 0.0,
			"0.019": 0.0,
			"0.02": 0.0,
			"0.021": 0.0,
			"0.022": 0.0,
			"0.023": 0.0,
			"0.024": 0.0,
			"0.025": 0.0
		}
	}
}
