{
	 "smiles": "CC(=O)C=C1NC(=O)C2=CC=CC=C12", 
	 "Tm": 381.0, 
	 "num_atms": 23, 
	 "gaussian": { 
		 "optdone": 1, 
		 "sigma_profile": "yes", 
		 "theory": "DFT", 
		 "functional": "B3LYP", 
		 "basiset": "6-31G**", 
		 "properties": { 
			 "R2extent": 3007.5745, 
			 "electric_dipole_moment_norm": 1.46130764044, 
			 "electric_quadrupole_moment_norm": 20.5915681593, 
			 "total_energy": -629.809225709, 
			 "HOMO_LUMO_gap": 0.1526, 
			 "cosmo_polarized_energy": -13.89, 
			 "cosmo_cavitation_energy": 27.68, 
			 "cosmo_dispersion_energy": -20.37, 
			 "cosmo_repulsion_energy": 1.58, 
			 "cosmo_total_nonelectrostatic_energy": 8.89, 
			 "SMD_solvation_energy": 5.9 
		},
		"coords": [
			{
				"x": -2.8728049973,
				"y": -0.2689973566,
				"z": 3.4496112844,
				"element": "C" 
			},
			{
				"x": -1.8594110325,
				"y": 0.2026330639,
				"z": 2.4146010344,
				"element": "C" 
			},
			{
				"x": -1.1926626861,
				"y": 1.2130309744,
				"z": 2.6233976307,
				"element": "O" 
			},
			{
				"x": -1.7725764751,
				"y": -0.6329909502,
				"z": 1.2119647624,
				"element": "C" 
			},
			{
				"x": -0.9782608022,
				"y": -0.4903114069,
				"z": 0.1124061561,
				"element": "C" 
			},
			{
				"x": -1.05190814,
				"y": -1.4076644026,
				"z": -0.9355379338,
				"element": "N" 
			},
			{
				"x": -0.1808530159,
				"y": -1.1373992031,
				"z": -1.9956911777,
				"element": "C" 
			},
			{
				"x": -0.0741181625,
				"y": -1.8005067663,
				"z": -3.0097823516,
				"element": "O" 
			},
			{
				"x": 0.5280996252,
				"y": 0.0950531766,
				"z": -1.5726586332,
				"element": "C" 
			},
			{
				"x": 1.5078255813,
				"y": 0.8020491152,
				"z": -2.2540657082,
				"element": "C" 
			},
			{
				"x": 2.0291794686,
				"y": 1.9454724842,
				"z": -1.641522153,
				"element": "C" 
			},
			{
				"x": 1.5659226139,
				"y": 2.3476185585,
				"z": -0.3832434409,
				"element": "C" 
			},
			{
				"x": 0.5769322959,
				"y": 1.6320806287,
				"z": 0.302214937,
				"element": "C" 
			},
			{
				"x": 0.0543939795,
				"y": 0.4896219431,
				"z": -0.3072199953,
				"element": "C" 
			},
			{
				"x": -2.6355790504,
				"y": -1.2839886358,
				"z": 3.7893270079,
				"element": "H" 
			},
			{
				"x": -2.8629571716,
				"y": 0.4119357682,
				"z": 4.301084186,
				"element": "H" 
			},
			{
				"x": -3.8801308863,
				"y": -0.3013268348,
				"z": 3.018100672,
				"element": "H" 
			},
			{
				"x": -2.4424537517,
				"y": -1.4910139667,
				"z": 1.2012564516,
				"element": "H" 
			},
			{
				"x": -1.6711780061,
				"y": -2.2046336831,
				"z": -0.9473979342,
				"element": "H" 
			},
			{
				"x": 1.8473075818,
				"y": 0.4660519089,
				"z": -3.2287082825,
				"element": "H" 
			},
			{
				"x": 2.7977948582,
				"y": 2.5260318977,
				"z": -2.1431047855,
				"element": "H" 
			},
			{
				"x": 1.9829098237,
				"y": 3.2387063694,
				"z": 0.0769585195,
				"element": "H" 
			},
			{
				"x": 0.2176283498,
				"y": 1.9409473173,
				"z": 1.274509754,
				"element": "H" 
			}
		],
		 "valence_orbital": [ 
			{
				"type": "occ",
				"energy": -0.2705,
				"method": "rhf"
			},
			{
				"type": "occ",
				"energy": -0.2695,
				"method": "rhf"
			},
			{
				"type": "occ",
				"energy": -0.26549,
				"method": "rhf"
			},
			{
				"type": "occ",
				"energy": -0.24756,
				"method": "rhf"
			},
			{
				"type": "occ",
				"energy": -0.23953,
				"method": "rhf"
			},
			{
				"type": "unocc",
				"energy": -0.08693,
				"method": "rhf"
			},
			{
				"type": "unocc",
				"energy": -0.03214,
				"method": "rhf"
			},
			{
				"type": "unocc",
				"energy": 0.00192,
				"method": "rhf"
			},
			{
				"type": "unocc",
				"energy": 0.05103,
				"method": "rhf"
			},
			{
				"type": "unocc",
				"energy": 0.07357,
				"method": "rhf"
			}
		],
		"cosmo_sigma_profile": { 
			"-0.025": 0.0,
			"-0.024": 0.0,
			"-0.023": 0.0,
			"-0.022": 0.0,
			"-0.021": 0.0,
			"-0.02": 0.0,
			"-0.019": 0.0,
			"-0.018": 0.0,
			"-0.017": 0.0,
			"-0.016": 1.10370483982,
			"-0.015": 1.21046938955,
			"-0.014": 1.65409291808,
			"-0.013": 1.20590855243,
			"-0.012": 0.831086248639,
			"-0.011": 1.43440891609,
			"-0.01": 0.937126243414,
			"-0.009": 1.12068425699,
			"-0.008": 1.84312993672,
			"-0.007": 5.48898709107,
			"-0.006": 11.4329418541,
			"-0.005": 16.0510011924,
			"-0.004": 13.6326047729,
			"-0.003": 15.0871597728,
			"-0.002": 15.6214516249,
			"-0.001": 19.396652091,
			"0.0": 19.4051126058,
			"0.001": 16.8345471961,
			"0.002": 19.5103360081,
			"0.003": 17.0426285377,
			"0.004": 5.36044886201,
			"0.005": 3.05329611539,
			"0.006": 3.81289737641,
			"0.007": 3.30421186505,
			"0.008": 2.51537437911,
			"0.009": 3.3411735274,
			"0.01": 3.65466027279,
			"0.011": 4.66972187482,
			"0.012": 7.26692508347,
			"0.013": 3.55216378348,
			"0.014": 0.67597771639,
			"0.015": 0.0,
			"0.016": 0.0,
			"0.017": 0.0,
			"0.018": 0.0,
			"0.019": 0.0,
			"0.02": 0.0,
			"0.021": 0.0,
			"0.022": 0.0,
			"0.023": 0.0,
			"0.024": 0.0,
			"0.025": 0.0
		}
	}
}
