{
	 "smiles": "COC(=O)C1=NNC(=O)C2=NOC(C)=C12", 
	 "Tm": 489.15, 
	 "num_atms": 22, 
	 "gaussian": { 
		 "optdone": 1, 
		 "sigma_profile": "yes", 
		 "theory": "DFT", 
		 "functional": "B3LYP", 
		 "basiset": "6-31G**", 
		 "properties": { 
			 "R2extent": 3599.3232, 
			 "electric_dipole_moment_norm": 5.24522603898, 
			 "electric_quadrupole_moment_norm": 19.3423224001, 
			 "total_energy": -774.154058131, 
			 "HOMO_LUMO_gap": 0.16404, 
			 "cosmo_polarized_energy": -15.99, 
			 "cosmo_cavitation_energy": 27.69, 
			 "cosmo_dispersion_energy": -20.61, 
			 "cosmo_repulsion_energy": 1.61, 
			 "cosmo_total_nonelectrostatic_energy": 8.68, 
			 "SMD_solvation_energy": 6.29 
		},
		"coords": [
			{
				"x": 0.808054553,
				"y": -2.6967215136,
				"z": -1.6918705847,
				"element": "C" 
			},
			{
				"x": 1.0801182079,
				"y": -1.3872857164,
				"z": -1.1635363381,
				"element": "O" 
			},
			{
				"x": 0.0351133304,
				"y": -0.7756194026,
				"z": -0.5930373823,
				"element": "C" 
			},
			{
				"x": -1.0773961707,
				"y": -1.2644435158,
				"z": -0.510830226,
				"element": "O" 
			},
			{
				"x": 0.3630502682,
				"y": 0.5801405026,
				"z": -0.0590205549,
				"element": "C" 
			},
			{
				"x": 1.5909148502,
				"y": 0.9950801407,
				"z": -0.2062930754,
				"element": "N" 
			},
			{
				"x": 1.9261890623,
				"y": 2.2121867152,
				"z": 0.262045343,
				"element": "N" 
			},
			{
				"x": 1.1436042075,
				"y": 3.17433274,
				"z": 0.9207890101,
				"element": "C" 
			},
			{
				"x": 1.6162773133,
				"y": 4.2359881765,
				"z": 1.2793701408,
				"element": "O" 
			},
			{
				"x": -0.2352198156,
				"y": 2.689180403,
				"z": 1.0773381422,
				"element": "C" 
			},
			{
				"x": -1.2120116172,
				"y": 3.3538593319,
				"z": 1.6526870581,
				"element": "N" 
			},
			{
				"x": -2.2982894524,
				"y": 2.4922992153,
				"z": 1.5551268424,
				"element": "O" 
			},
			{
				"x": -1.9733755923,
				"y": 1.3386016367,
				"z": 0.9341577795,
				"element": "C" 
			},
			{
				"x": -3.0906291017,
				"y": 0.3646948542,
				"z": 0.7932321006,
				"element": "C" 
			},
			{
				"x": -0.6328752982,
				"y": 1.4033671024,
				"z": 0.5946347061,
				"element": "C" 
			},
			{
				"x": 0.4733217085,
				"y": -3.3694745431,
				"z": -0.8984512283,
				"element": "H" 
			},
			{
				"x": 0.0358292277,
				"y": -2.6471953558,
				"z": -2.4634313718,
				"element": "H" 
			},
			{
				"x": 1.7518401597,
				"y": -3.0399016119,
				"z": -2.1139639465,
				"element": "H" 
			},
			{
				"x": 2.8955498444,
				"y": 2.4664043839,
				"z": 0.1118928632,
				"element": "H" 
			},
			{
				"x": -3.9932558025,
				"y": 0.7893683743,
				"z": 1.237029901,
				"element": "H" 
			},
			{
				"x": -3.2707177205,
				"y": 0.130781043,
				"z": -0.2580531867,
				"element": "H" 
			},
			{
				"x": -2.8462921619,
				"y": -0.5793429607,
				"z": 1.2845840074,
				"element": "H" 
			}
		],
		 "valence_orbital": [ 
			{
				"type": "occ",
				"energy": -0.31848,
				"method": "rhf"
			},
			{
				"type": "occ",
				"energy": -0.29703,
				"method": "rhf"
			},
			{
				"type": "occ",
				"energy": -0.29439,
				"method": "rhf"
			},
			{
				"type": "occ",
				"energy": -0.27359,
				"method": "rhf"
			},
			{
				"type": "occ",
				"energy": -0.24782,
				"method": "rhf"
			},
			{
				"type": "unocc",
				"energy": -0.08378,
				"method": "rhf"
			},
			{
				"type": "unocc",
				"energy": -0.04988,
				"method": "rhf"
			},
			{
				"type": "unocc",
				"energy": -0.00892,
				"method": "rhf"
			},
			{
				"type": "unocc",
				"energy": 0.05882,
				"method": "rhf"
			},
			{
				"type": "unocc",
				"energy": 0.07864,
				"method": "rhf"
			}
		],
		"cosmo_sigma_profile": { 
			"-0.025": 0.0,
			"-0.024": 0.0,
			"-0.023": 0.0,
			"-0.022": 0.0,
			"-0.021": 0.0,
			"-0.02": 0.0,
			"-0.019": 0.0,
			"-0.018": 0.0,
			"-0.017": 0.767188004589,
			"-0.016": 1.19472889361,
			"-0.015": 1.06299257367,
			"-0.014": 0.359702437824,
			"-0.013": 0.948925636925,
			"-0.012": 0.817951598801,
			"-0.011": 1.26998488078,
			"-0.01": 0.817080151917,
			"-0.009": 0.894952403503,
			"-0.008": 0.815550630236,
			"-0.007": 4.56820929701,
			"-0.006": 14.0747518668,
			"-0.005": 18.4240746579,
			"-0.004": 27.8755233316,
			"-0.003": 28.8704629218,
			"-0.002": 17.8540844866,
			"-0.001": 9.39233912273,
			"0.0": 7.37404927834,
			"0.001": 7.84464203563,
			"0.002": 7.00813677513,
			"0.003": 5.98774776785,
			"0.004": 6.36134681373,
			"0.005": 6.83100424437,
			"0.006": 8.57984945233,
			"0.007": 5.24649651485,
			"0.008": 6.67840446441,
			"0.009": 6.19233838399,
			"0.01": 6.72450589714,
			"0.011": 9.11162831237,
			"0.012": 6.02474306732,
			"0.013": 1.64300155632,
			"0.014": 0.416231573864,
			"0.015": 0.0,
			"0.016": 0.0,
			"0.017": 0.0,
			"0.018": 0.0,
			"0.019": 0.0,
			"0.02": 0.0,
			"0.021": 0.0,
			"0.022": 0.0,
			"0.023": 0.0,
			"0.024": 0.0,
			"0.025": 0.0
		}
	}
}
