{
	 "smiles": "CNC(C(N)=O)C1=CC(F)=CC=C1", 
	 "Tm": 427.15, 
	 "num_atms": 24, 
	 "gaussian": { 
		 "optdone": 1, 
		 "sigma_profile": "yes", 
		 "theory": "DFT", 
		 "functional": "B3LYP", 
		 "basiset": "6-31G**", 
		 "properties": { 
			 "R2extent": 2779.6922, 
			 "electric_dipole_moment_norm": 3.64253756192, 
			 "electric_quadrupole_moment_norm": 9.82789336989, 
			 "total_energy": -634.156292661, 
			 "HOMO_LUMO_gap": 0.2187, 
			 "cosmo_polarized_energy": -14.09, 
			 "cosmo_cavitation_energy": 27.71, 
			 "cosmo_dispersion_energy": -19.65, 
			 "cosmo_repulsion_energy": 1.56, 
			 "cosmo_total_nonelectrostatic_energy": 9.61, 
			 "SMD_solvation_energy": 5.06 
		},
		"coords": [
			{
				"x": -2.0787442962,
				"y": -0.8747331164,
				"z": 0.0709579468,
				"element": "C" 
			},
			{
				"x": -1.4675840132,
				"y": 0.2368313683,
				"z": 0.806540205,
				"element": "N" 
			},
			{
				"x": -0.0093491135,
				"y": 0.1365155425,
				"z": 1.0308378272,
				"element": "C" 
			},
			{
				"x": 0.2977467967,
				"y": -0.8459982022,
				"z": 2.1881859205,
				"element": "C" 
			},
			{
				"x": -0.7224334731,
				"y": -0.9603045025,
				"z": 3.078856974,
				"element": "N" 
			},
			{
				"x": 1.3773194683,
				"y": -1.4067197573,
				"z": 2.3122185868,
				"element": "O" 
			},
			{
				"x": 0.8237819572,
				"y": -0.1056691396,
				"z": -0.2228110576,
				"element": "C" 
			},
			{
				"x": 1.1931046406,
				"y": 1.0047451364,
				"z": -0.9933234096,
				"element": "C" 
			},
			{
				"x": 1.8763676112,
				"y": 0.8178258712,
				"z": -2.1883398946,
				"element": "C" 
			},
			{
				"x": 2.2262619441,
				"y": 1.9034810733,
				"z": -2.9132395764,
				"element": "F" 
			},
			{
				"x": 2.2126973189,
				"y": -0.4455899916,
				"z": -2.6575474367,
				"element": "C" 
			},
			{
				"x": 1.8470004564,
				"y": -1.549715914,
				"z": -1.8859421761,
				"element": "C" 
			},
			{
				"x": 1.1601843032,
				"y": -1.3870556926,
				"z": -0.6818518927,
				"element": "C" 
			},
			{
				"x": -3.1502895012,
				"y": -0.6788620538,
				"z": -0.0298806348,
				"element": "H" 
			},
			{
				"x": -1.6576577178,
				"y": -1.0443286946,
				"z": -0.9300870633,
				"element": "H" 
			},
			{
				"x": -1.9614496161,
				"y": -1.7983697419,
				"z": 0.646690721,
				"element": "H" 
			},
			{
				"x": -1.6615072323,
				"y": 1.1065822227,
				"z": 0.3183756283,
				"element": "H" 
			},
			{
				"x": 0.2865342099,
				"y": 1.1159274538,
				"z": 1.4308466185,
				"element": "H" 
			},
			{
				"x": -1.5836236757,
				"y": -0.4629978398,
				"z": 2.9026175342,
				"element": "H" 
			},
			{
				"x": -0.5860529632,
				"y": -1.5202485728,
				"z": 3.9054090704,
				"element": "H" 
			},
			{
				"x": 0.9640283966,
				"y": 2.0172759916,
				"z": -0.6728574772,
				"element": "H" 
			},
			{
				"x": 2.7510719996,
				"y": -0.5482193023,
				"z": -3.5933723057,
				"element": "H" 
			},
			{
				"x": 2.1073163587,
				"y": -2.5478117499,
				"z": -2.2257211354,
				"element": "H" 
			},
			{
				"x": 0.9167761408,
				"y": -2.2541603884,
				"z": -0.0797629726,
				"element": "H" 
			}
		],
		 "valence_orbital": [ 
			{
				"type": "occ",
				"energy": -0.26444,
				"method": "rhf"
			},
			{
				"type": "occ",
				"energy": -0.26245,
				"method": "rhf"
			},
			{
				"type": "occ",
				"energy": -0.25176,
				"method": "rhf"
			},
			{
				"type": "occ",
				"energy": -0.24161,
				"method": "rhf"
			},
			{
				"type": "occ",
				"energy": -0.23051,
				"method": "rhf"
			},
			{
				"type": "unocc",
				"energy": -0.01181,
				"method": "rhf"
			},
			{
				"type": "unocc",
				"energy": 0.0036,
				"method": "rhf"
			},
			{
				"type": "unocc",
				"energy": 0.02569,
				"method": "rhf"
			},
			{
				"type": "unocc",
				"energy": 0.08197,
				"method": "rhf"
			},
			{
				"type": "unocc",
				"energy": 0.09454,
				"method": "rhf"
			}
		],
		"cosmo_sigma_profile": { 
			"-0.025": 0.0,
			"-0.024": 0.0,
			"-0.023": 0.0,
			"-0.022": 0.0,
			"-0.021": 0.0,
			"-0.02": 0.0,
			"-0.019": 0.0,
			"-0.018": 0.0,
			"-0.017": 0.0,
			"-0.016": 0.0,
			"-0.015": 0.0,
			"-0.014": 0.539069178843,
			"-0.013": 1.07601051397,
			"-0.012": 1.37659831722,
			"-0.011": 2.11203075747,
			"-0.01": 2.90088455301,
			"-0.009": 3.19828734198,
			"-0.008": 5.24947720654,
			"-0.007": 8.5581040171,
			"-0.006": 10.3176516914,
			"-0.005": 10.8400258254,
			"-0.004": 14.379355579,
			"-0.003": 12.6198236819,
			"-0.002": 14.3578265088,
			"-0.001": 16.5928488273,
			"0.0": 16.7292716987,
			"0.001": 16.5374718665,
			"0.002": 13.9728265333,
			"0.003": 14.199306126,
			"0.004": 18.0269659812,
			"0.005": 10.9919498728,
			"0.006": 2.80635798649,
			"0.007": 2.3366702403,
			"0.008": 1.9226362314,
			"0.009": 1.98193968683,
			"0.01": 1.5693140432,
			"0.011": 1.5682515956,
			"0.012": 2.19081912115,
			"0.013": 2.53598048927,
			"0.014": 5.88314942449,
			"0.015": 1.53547459573,
			"0.016": 0.0,
			"0.017": 0.0,
			"0.018": 0.0,
			"0.019": 0.0,
			"0.02": 0.0,
			"0.021": 0.0,
			"0.022": 0.0,
			"0.023": 0.0,
			"0.024": 0.0,
			"0.025": 0.0
		}
	}
}
