{
	 "smiles": "COC(=O)C1=CC=C(C=C1)C(C)=O", 
	 "Tm": 367.15, 
	 "num_atms": 23, 
	 "gaussian": { 
		 "optdone": 1, 
		 "sigma_profile": "yes", 
		 "theory": "DFT", 
		 "functional": "B3LYP", 
		 "basiset": "6-31G**", 
		 "properties": { 
			 "R2extent": 3487.3093, 
			 "electric_dipole_moment_norm": 1.2992298257, 
			 "electric_quadrupole_moment_norm": 22.6674367944, 
			 "total_energy": -612.777713809, 
			 "HOMO_LUMO_gap": 0.17748, 
			 "cosmo_polarized_energy": -10.86, 
			 "cosmo_cavitation_energy": 27.84, 
			 "cosmo_dispersion_energy": -20.22, 
			 "cosmo_repulsion_energy": 1.59, 
			 "cosmo_total_nonelectrostatic_energy": 9.22, 
			 "SMD_solvation_energy": 7.13 
		},
		"coords": [
			{
				"x": -4.3510946588,
				"y": 0.2986863671,
				"z": -2.6870024315,
				"element": "C" 
			},
			{
				"x": -3.2490097487,
				"y": 0.0014357003,
				"z": -1.8150145424,
				"element": "O" 
			},
			{
				"x": -2.0620007647,
				"y": 0.5288199888,
				"z": -2.1868979532,
				"element": "C" 
			},
			{
				"x": -1.9180056317,
				"y": 1.2085390115,
				"z": -3.1843853966,
				"element": "O" 
			},
			{
				"x": -0.962195328,
				"y": 0.1816858099,
				"z": -1.2389367849,
				"element": "C" 
			},
			{
				"x": -1.1717110183,
				"y": -0.6067697397,
				"z": -0.0971242456,
				"element": "C" 
			},
			{
				"x": -0.1078349444,
				"y": -0.8965388427,
				"z": 0.7484145106,
				"element": "C" 
			},
			{
				"x": 1.1790527442,
				"y": -0.4078659132,
				"z": 0.4726826133,
				"element": "C" 
			},
			{
				"x": 1.381351203,
				"y": 0.3801573789,
				"z": -0.6710903838,
				"element": "C" 
			},
			{
				"x": 0.3187486617,
				"y": 0.672802102,
				"z": -1.520577357,
				"element": "C" 
			},
			{
				"x": 2.2871324731,
				"y": -0.7569554359,
				"z": 1.4265518427,
				"element": "C" 
			},
			{
				"x": 3.6868675114,
				"y": -0.2387629709,
				"z": 1.1469252764,
				"element": "C" 
			},
			{
				"x": 2.0618368288,
				"y": -1.4461802418,
				"z": 2.4091788149,
				"element": "O" 
			},
			{
				"x": -5.2163358174,
				"y": -0.1958518458,
				"z": -2.246053653,
				"element": "H" 
			},
			{
				"x": -4.5134103502,
				"y": 1.3777407412,
				"z": -2.7467788647,
				"element": "H" 
			},
			{
				"x": -4.1595844192,
				"y": -0.0844507484,
				"z": -3.6923904113,
				"element": "H" 
			},
			{
				"x": -2.1646464507,
				"y": -0.9847014187,
				"z": 0.1170344537,
				"element": "H" 
			},
			{
				"x": -0.2446565698,
				"y": -1.5036564764,
				"z": 1.6367694847,
				"element": "H" 
			},
			{
				"x": 2.3674588535,
				"y": 0.7683202013,
				"z": -0.9035681718,
				"element": "H" 
			},
			{
				"x": 0.4581965634,
				"y": 1.2801449963,
				"z": -2.4082631573,
				"element": "H" 
			},
			{
				"x": 4.052363454,
				"y": -0.5968669272,
				"z": 0.1781203009,
				"element": "H" 
			},
			{
				"x": 4.3522697067,
				"y": -0.5882772675,
				"z": 1.9366136136,
				"element": "H" 
			},
			{
				"x": 3.7019077023,
				"y": 0.8563455311,
				"z": 1.1165924422,
				"element": "H" 
			}
		],
		 "valence_orbital": [ 
			{
				"type": "occ",
				"energy": -0.30795,
				"method": "rhf"
			},
			{
				"type": "occ",
				"energy": -0.28042,
				"method": "rhf"
			},
			{
				"type": "occ",
				"energy": -0.27004,
				"method": "rhf"
			},
			{
				"type": "occ",
				"energy": -0.26564,
				"method": "rhf"
			},
			{
				"type": "occ",
				"energy": -0.25436,
				"method": "rhf"
			},
			{
				"type": "unocc",
				"energy": -0.07688,
				"method": "rhf"
			},
			{
				"type": "unocc",
				"energy": -0.01646,
				"method": "rhf"
			},
			{
				"type": "unocc",
				"energy": -0.00365,
				"method": "rhf"
			},
			{
				"type": "unocc",
				"energy": 0.07142,
				"method": "rhf"
			},
			{
				"type": "unocc",
				"energy": 0.08773,
				"method": "rhf"
			}
		],
		"cosmo_sigma_profile": { 
			"-0.025": 0.0,
			"-0.024": 0.0,
			"-0.023": 0.0,
			"-0.022": 0.0,
			"-0.021": 0.0,
			"-0.02": 0.0,
			"-0.019": 0.0,
			"-0.018": 0.0,
			"-0.017": 0.0,
			"-0.016": 0.0,
			"-0.015": 0.0,
			"-0.014": 0.0,
			"-0.013": 0.0,
			"-0.012": 0.0,
			"-0.011": 0.0,
			"-0.01": 0.0,
			"-0.009": 0.0,
			"-0.008": 0.133984445402,
			"-0.007": 6.03314540678,
			"-0.006": 17.9997379608,
			"-0.005": 19.2507738369,
			"-0.004": 18.9636923874,
			"-0.003": 21.2545969765,
			"-0.002": 17.3457450877,
			"-0.001": 16.7463780157,
			"0.0": 14.8274454864,
			"0.001": 17.3760530133,
			"0.002": 19.9957019142,
			"0.003": 10.2458350946,
			"0.004": 4.87488589451,
			"0.005": 6.02395850848,
			"0.006": 3.31467198014,
			"0.007": 2.37156986823,
			"0.008": 3.49968358302,
			"0.009": 3.57837953975,
			"0.01": 3.92426679919,
			"0.011": 7.00936651659,
			"0.012": 6.4590270583,
			"0.013": 0.869937144062,
			"0.014": 0.0154126840872,
			"0.015": 0.0,
			"0.016": 0.0,
			"0.017": 0.0,
			"0.018": 0.0,
			"0.019": 0.0,
			"0.02": 0.0,
			"0.021": 0.0,
			"0.022": 0.0,
			"0.023": 0.0,
			"0.024": 0.0,
			"0.025": 0.0
		}
	}
}
