{
	 "smiles": "CC1=C(C(N)=O)C(=O)NC=C1", 
	 "Tm": 509.15, 
	 "num_atms": 19, 
	 "gaussian": { 
		 "optdone": 1, 
		 "sigma_profile": "yes", 
		 "theory": "DFT", 
		 "functional": "B3LYP", 
		 "basiset": "6-31G**", 
		 "properties": { 
			 "R2extent": 1895.6157, 
			 "electric_dipole_moment_norm": 4.80731493144, 
			 "electric_quadrupole_moment_norm": 5.05156295616, 
			 "total_energy": -531.553567757, 
			 "HOMO_LUMO_gap": 0.1706, 
			 "cosmo_polarized_energy": -16.83, 
			 "cosmo_cavitation_energy": 22.47, 
			 "cosmo_dispersion_energy": -17.29, 
			 "cosmo_repulsion_energy": 1.38, 
			 "cosmo_total_nonelectrostatic_energy": 6.56, 
			 "SMD_solvation_energy": 5.35 
		},
		"coords": [
			{
				"x": -1.6027724765,
				"y": -0.6007595461,
				"z": 1.9571728734,
				"element": "C" 
			},
			{
				"x": -0.5972463197,
				"y": -0.636617354,
				"z": 0.832043425,
				"element": "C" 
			},
			{
				"x": -0.9221094268,
				"y": -0.4497082784,
				"z": -0.5115668182,
				"element": "C" 
			},
			{
				"x": -2.352155064,
				"y": -0.1910047041,
				"z": -0.927584064,
				"element": "C" 
			},
			{
				"x": -2.5679221653,
				"y": -0.0263266316,
				"z": -2.2561627457,
				"element": "N" 
			},
			{
				"x": -3.2693056259,
				"y": -0.1335440332,
				"z": -0.1053593938,
				"element": "O" 
			},
			{
				"x": 0.1273215215,
				"y": -0.5034609539,
				"z": -1.5294877803,
				"element": "C" 
			},
			{
				"x": 0.0084724734,
				"y": -0.3599272226,
				"z": -2.756262278,
				"element": "O" 
			},
			{
				"x": 1.4176371315,
				"y": -0.7475303435,
				"z": -1.0431415629,
				"element": "N" 
			},
			{
				"x": 1.7385868853,
				"y": -0.9298020852,
				"z": 0.2620464031,
				"element": "C" 
			},
			{
				"x": 0.7602336456,
				"y": -0.8796727711,
				"z": 1.2077263339,
				"element": "C" 
			},
			{
				"x": -1.1032709253,
				"y": -0.7769994889,
				"z": 2.913917475,
				"element": "H" 
			},
			{
				"x": -2.1250223962,
				"y": 0.3575898673,
				"z": 1.9867228893,
				"element": "H" 
			},
			{
				"x": -2.385611441,
				"y": -1.3470989663,
				"z": 1.8085264722,
				"element": "H" 
			},
			{
				"x": -3.5185413199,
				"y": 0.1483764069,
				"z": -2.5417766149,
				"element": "H" 
			},
			{
				"x": -1.7900317059,
				"y": -0.0764864911,
				"z": -2.9080979494,
				"element": "H" 
			},
			{
				"x": 2.1246367414,
				"y": -0.7794434783,
				"z": -1.7675801594,
				"element": "H" 
			},
			{
				"x": 2.7839721411,
				"y": -1.1102127609,
				"z": 0.486170262,
				"element": "H" 
			},
			{
				"x": 1.0142283268,
				"y": -1.025071165,
				"z": 2.2502932326,
				"element": "H" 
			}
		],
		 "valence_orbital": [ 
			{
				"type": "occ",
				"energy": -0.29428,
				"method": "rhf"
			},
			{
				"type": "occ",
				"energy": -0.2673,
				"method": "rhf"
			},
			{
				"type": "occ",
				"energy": -0.24501,
				"method": "rhf"
			},
			{
				"type": "occ",
				"energy": -0.235,
				"method": "rhf"
			},
			{
				"type": "occ",
				"energy": -0.22939,
				"method": "rhf"
			},
			{
				"type": "unocc",
				"energy": -0.05879,
				"method": "rhf"
			},
			{
				"type": "unocc",
				"energy": -0.00022,
				"method": "rhf"
			},
			{
				"type": "unocc",
				"energy": 0.05813,
				"method": "rhf"
			},
			{
				"type": "unocc",
				"energy": 0.05929,
				"method": "rhf"
			},
			{
				"type": "unocc",
				"energy": 0.11196,
				"method": "rhf"
			}
		],
		"cosmo_sigma_profile": { 
			"-0.025": 0.0,
			"-0.024": 0.0,
			"-0.023": 0.0,
			"-0.022": 0.0,
			"-0.021": 0.0,
			"-0.02": 0.0,
			"-0.019": 0.0,
			"-0.018": 0.0,
			"-0.017": 0.267692834072,
			"-0.016": 1.49703489317,
			"-0.015": 1.6155558042,
			"-0.014": 1.29217679367,
			"-0.013": 1.70899836984,
			"-0.012": 2.18647830644,
			"-0.011": 2.79627881629,
			"-0.01": 3.98196604788,
			"-0.009": 3.3284127976,
			"-0.008": 3.43433544132,
			"-0.007": 6.4469599781,
			"-0.006": 6.32074419338,
			"-0.005": 6.12493825097,
			"-0.004": 6.91318720696,
			"-0.003": 8.73404913545,
			"-0.002": 10.9867508327,
			"-0.001": 16.8332791164,
			"0.0": 19.1432214532,
			"0.001": 14.6281382797,
			"0.002": 10.3253139694,
			"0.003": 6.70362637871,
			"0.004": 5.37561314061,
			"0.005": 5.44816516792,
			"0.006": 3.8212427933,
			"0.007": 3.01732906327,
			"0.008": 2.35058523764,
			"0.009": 2.74945369498,
			"0.01": 2.85449393945,
			"0.011": 2.9647473368,
			"0.012": 3.12312829785,
			"0.013": 4.87817920894,
			"0.014": 3.82257002989,
			"0.015": 2.5989690835,
			"0.016": 0.402058070355,
			"0.017": 0.0,
			"0.018": 0.0,
			"0.019": 0.0,
			"0.02": 0.0,
			"0.021": 0.0,
			"0.022": 0.0,
			"0.023": 0.0,
			"0.024": 0.0,
			"0.025": 0.0
		}
	}
}
