{
	 "smiles": "CCCCC1=NC2(CCCC2)C(=O)N1CC1=CC=C(C=C1)C1=CC=CC=C1C1=NN=NN1", 
	 "Tm": 453.15, 
	 "num_atms": 60, 
	 "gaussian": { 
		 "optdone": 1, 
		 "sigma_profile": "yes", 
		 "theory": "DFT", 
		 "functional": "B3LYP", 
		 "basiset": "6-31G**", 
		 "properties": { 
			 "R2extent": 19026.0795, 
			 "electric_dipole_moment_norm": 7.88311823265, 
			 "electric_quadrupole_moment_norm": 46.7303384598, 
			 "total_energy": -1373.26225057, 
			 "HOMO_LUMO_gap": 0.18693, 
			 "cosmo_polarized_energy": -24.55, 
			 "cosmo_cavitation_energy": 61.56, 
			 "cosmo_dispersion_energy": -40.42, 
			 "cosmo_repulsion_energy": 3.06, 
			 "cosmo_total_nonelectrostatic_energy": 24.21, 
			 "SMD_solvation_energy": 5.21 
		},
		"coords": [
			{
				"x": -0.4292212325,
				"y": -0.2313795469,
				"z": 5.9262435434,
				"element": "C" 
			},
			{
				"x": 0.1683754403,
				"y": 0.182817802,
				"z": 4.5764089984,
				"element": "C" 
			},
			{
				"x": -0.5267067551,
				"y": -0.43391441,
				"z": 3.3522562326,
				"element": "C" 
			},
			{
				"x": -0.3951494861,
				"y": -1.9709362148,
				"z": 3.2717751279,
				"element": "C" 
			},
			{
				"x": -1.0680184109,
				"y": -2.5427737698,
				"z": 2.0574409359,
				"element": "C" 
			},
			{
				"x": -2.2963146472,
				"y": -2.9142223604,
				"z": 2.0400608175,
				"element": "N" 
			},
			{
				"x": -2.6024612678,
				"y": -3.3737496962,
				"z": 0.6774175897,
				"element": "C" 
			},
			{
				"x": -3.105754209,
				"y": -4.8364231015,
				"z": 0.6908686482,
				"element": "C" 
			},
			{
				"x": -4.581386982,
				"y": -4.6950992446,
				"z": 1.0866801898,
				"element": "C" 
			},
			{
				"x": -5.0634950941,
				"y": -3.4604045077,
				"z": 0.2941492865,
				"element": "C" 
			},
			{
				"x": -3.7965779034,
				"y": -2.5876385422,
				"z": 0.0600317243,
				"element": "C" 
			},
			{
				"x": -1.3029171438,
				"y": -3.1959501707,
				"z": -0.1022902761,
				"element": "C" 
			},
			{
				"x": -1.0614891451,
				"y": -3.4394174636,
				"z": -1.2742098515,
				"element": "O" 
			},
			{
				"x": -0.398918335,
				"y": -2.6782063155,
				"z": 0.8169166544,
				"element": "N" 
			},
			{
				"x": 1.0042482233,
				"y": -2.4537819584,
				"z": 0.4774519023,
				"element": "C" 
			},
			{
				"x": 1.3235276353,
				"y": -1.0463612509,
				"z": 0.0036307394,
				"element": "C" 
			},
			{
				"x": 2.2243005188,
				"y": -0.2361619931,
				"z": 0.7016237799,
				"element": "C" 
			},
			{
				"x": 2.5292140619,
				"y": 1.0508065083,
				"z": 0.2506041144,
				"element": "C" 
			},
			{
				"x": 1.9412018652,
				"y": 1.5572132098,
				"z": -0.9173881258,
				"element": "C" 
			},
			{
				"x": 1.0363882831,
				"y": 0.7384332223,
				"z": -1.6183680774,
				"element": "C" 
			},
			{
				"x": 0.7353649704,
				"y": -0.544874726,
				"z": -1.1681739447,
				"element": "C" 
			},
			{
				"x": 2.2330575149,
				"y": 2.9510480637,
				"z": -1.3729206992,
				"element": "C" 
			},
			{
				"x": 1.7478154764,
				"y": 4.0094421736,
				"z": -0.5900401875,
				"element": "C" 
			},
			{
				"x": 1.9382802302,
				"y": 5.3386301511,
				"z": -0.9609859253,
				"element": "C" 
			},
			{
				"x": 2.6273607689,
				"y": 5.6352909362,
				"z": -2.1380928757,
				"element": "C" 
			},
			{
				"x": 3.1320862682,
				"y": 4.6038214797,
				"z": -2.9208678004,
				"element": "C" 
			},
			{
				"x": 2.9523497334,
				"y": 3.2581816365,
				"z": -2.5521080273,
				"element": "C" 
			},
			{
				"x": 3.5830174183,
				"y": 2.257718032,
				"z": -3.4267318474,
				"element": "C" 
			},
			{
				"x": 4.1333507091,
				"y": 2.5247191303,
				"z": -4.6070905439,
				"element": "N" 
			},
			{
				"x": 4.6452453064,
				"y": 1.3609189961,
				"z": -5.0721591823,
				"element": "N" 
			},
			{
				"x": 4.439095439,
				"y": 0.3923149692,
				"z": -4.2383356484,
				"element": "N" 
			},
			{
				"x": 3.7745629158,
				"y": 0.9374246277,
				"z": -3.1967544853,
				"element": "N" 
			},
			{
				"x": -1.4966703502,
				"y": 0.0118785304,
				"z": 5.9754342698,
				"element": "H" 
			},
			{
				"x": -0.3263190924,
				"y": -1.3057857767,
				"z": 6.1103606541,
				"element": "H" 
			},
			{
				"x": 0.0686750894,
				"y": 0.2887871192,
				"z": 6.7508216413,
				"element": "H" 
			},
			{
				"x": 0.1176564738,
				"y": 1.2749419147,
				"z": 4.4837623033,
				"element": "H" 
			},
			{
				"x": 1.2373133527,
				"y": -0.0721458737,
				"z": 4.5539338803,
				"element": "H" 
			},
			{
				"x": -1.5945980138,
				"y": -0.1832134566,
				"z": 3.3647751857,
				"element": "H" 
			},
			{
				"x": -0.1106863134,
				"y": 0.0120408873,
				"z": 2.4417268245,
				"element": "H" 
			},
			{
				"x": 0.6637914715,
				"y": -2.2557510564,
				"z": 3.2989434888,
				"element": "H" 
			},
			{
				"x": -0.8788322326,
				"y": -2.4316882001,
				"z": 4.1363308468,
				"element": "H" 
			},
			{
				"x": -2.5217169189,
				"y": -5.4633283101,
				"z": 1.3708054014,
				"element": "H" 
			},
			{
				"x": -3.0056739802,
				"y": -5.2397440353,
				"z": -0.3241981298,
				"element": "H" 
			},
			{
				"x": -5.1654395568,
				"y": -5.5955650096,
				"z": 0.8723038698,
				"element": "H" 
			},
			{
				"x": -4.6454744349,
				"y": -4.5013358334,
				"z": 2.1620783769,
				"element": "H" 
			},
			{
				"x": -5.8461470424,
				"y": -2.9126341867,
				"z": 0.8265168588,
				"element": "H" 
			},
			{
				"x": -5.4869416406,
				"y": -3.7668256178,
				"z": -0.6683029,
				"element": "H" 
			},
			{
				"x": -3.8689378825,
				"y": -1.6015186988,
				"z": 0.5250867756,
				"element": "H" 
			},
			{
				"x": -3.6090304402,
				"y": -2.4447031727,
				"z": -1.0083705821,
				"element": "H" 
			},
			{
				"x": 1.6264276782,
				"y": -2.7147028316,
				"z": 1.3375292451,
				"element": "H" 
			},
			{
				"x": 1.2250482948,
				"y": -3.1661701458,
				"z": -0.3246585996,
				"element": "H" 
			},
			{
				"x": 2.6988837292,
				"y": -0.6107805546,
				"z": 1.605367673,
				"element": "H" 
			},
			{
				"x": 3.2321359271,
				"y": 1.666624073,
				"z": 0.8041803483,
				"element": "H" 
			},
			{
				"x": 0.5683931567,
				"y": 1.1152448467,
				"z": -2.5233377935,
				"element": "H" 
			},
			{
				"x": 0.0442430952,
				"y": -1.1710971704,
				"z": -1.7248305909,
				"element": "H" 
			},
			{
				"x": 1.1954253751,
				"y": 3.7724902247,
				"z": 0.3143617188,
				"element": "H" 
			},
			{
				"x": 1.5452774596,
				"y": 6.1360538668,
				"z": -0.3373025598,
				"element": "H" 
			},
			{
				"x": 2.7788938715,
				"y": 6.6664969997,
				"z": -2.4418897342,
				"element": "H" 
			},
			{
				"x": 3.6862388985,
				"y": 4.8145761954,
				"z": -3.828589297,
				"element": "H" 
			},
			{
				"x": 3.4784318589,
				"y": 0.3671696062,
				"z": -2.4180819617,
				"element": "H" 
			}
		],
		 "valence_orbital": [ 
			{
				"type": "occ",
				"energy": -0.2758,
				"method": "rhf"
			},
			{
				"type": "occ",
				"energy": -0.26044,
				"method": "rhf"
			},
			{
				"type": "occ",
				"energy": -0.24988,
				"method": "rhf"
			},
			{
				"type": "occ",
				"energy": -0.24723,
				"method": "rhf"
			},
			{
				"type": "occ",
				"energy": -0.2432,
				"method": "rhf"
			},
			{
				"type": "unocc",
				"energy": -0.05627,
				"method": "rhf"
			},
			{
				"type": "unocc",
				"energy": -0.03566,
				"method": "rhf"
			},
			{
				"type": "unocc",
				"energy": -0.03116,
				"method": "rhf"
			},
			{
				"type": "unocc",
				"energy": -0.01738,
				"method": "rhf"
			},
			{
				"type": "unocc",
				"energy": -0.01453,
				"method": "rhf"
			}
		],
		"cosmo_sigma_profile": { 
			"-0.025": 0.0,
			"-0.024": 0.0,
			"-0.023": 0.0,
			"-0.022": 0.0,
			"-0.021": 0.0,
			"-0.02": 0.0,
			"-0.019": 0.0,
			"-0.018": 0.0,
			"-0.017": 0.0,
			"-0.016": 0.0,
			"-0.015": 0.0318183811475,
			"-0.014": 0.588703006029,
			"-0.013": 0.829386165276,
			"-0.012": 0.748848176042,
			"-0.011": 0.523538768624,
			"-0.01": 1.05486999062,
			"-0.009": 2.19752959218,
			"-0.008": 3.7869903585,
			"-0.007": 8.37608950095,
			"-0.006": 18.5206399062,
			"-0.005": 22.8888996329,
			"-0.004": 31.2325517831,
			"-0.003": 48.5299844913,
			"-0.002": 60.6028832084,
			"-0.001": 57.9896189369,
			"0.0": 56.4794439603,
			"0.001": 46.8797001083,
			"0.002": 24.3380476729,
			"0.003": 20.5235149842,
			"0.004": 15.339561431,
			"0.005": 6.19063563483,
			"0.006": 6.69331918616,
			"0.007": 5.35762562774,
			"0.008": 8.40104333897,
			"0.009": 7.10082524786,
			"0.01": 6.76667074801,
			"0.011": 8.30277356666,
			"0.012": 6.60927644256,
			"0.013": 5.88660185746,
			"0.014": 2.05849642491,
			"0.015": 1.01386359368,
			"0.016": 0.578124688115,
			"0.017": 0.249434369032,
			"0.018": 0.0,
			"0.019": 0.0,
			"0.02": 0.0,
			"0.021": 0.0,
			"0.022": 0.0,
			"0.023": 0.0,
			"0.024": 0.0,
			"0.025": 0.0
		}
	}
}
