{
	 "smiles": "FC1=C(F)C(F)=C(OC(=O)C2=C(C=CC(=C2)C(F)(F)F)N2CCOCC2)C(F)=C1F", 
	 "Tm": 365.15, 
	 "num_atms": 41, 
	 "gaussian": { 
		 "optdone": 1, 
		 "sigma_profile": "yes", 
		 "theory": "DFT", 
		 "functional": "B3LYP", 
		 "basiset": "6-31G**", 
		 "properties": { 
			 "R2extent": 14756.0437, 
			 "electric_dipole_moment_norm": 5.55571364003, 
			 "electric_quadrupole_moment_norm": 16.2041082519, 
			 "total_energy": -1771.59426527, 
			 "HOMO_LUMO_gap": 0.15924, 
			 "cosmo_polarized_energy": -12.98, 
			 "cosmo_cavitation_energy": 48.92, 
			 "cosmo_dispersion_energy": -32.58, 
			 "cosmo_repulsion_energy": 2.26, 
			 "cosmo_total_nonelectrostatic_energy": 18.6, 
			 "SMD_solvation_energy": 11.71 
		},
		"coords": [
			{
				"x": 2.7252283326,
				"y": 6.2483026324,
				"z": 1.5702073432,
				"element": "F" 
			},
			{
				"x": 2.2154103101,
				"y": 5.1035010438,
				"z": 1.109783182,
				"element": "C" 
			},
			{
				"x": 1.070887992,
				"y": 5.11894792,
				"z": 0.3167462474,
				"element": "C" 
			},
			{
				"x": 0.4780707926,
				"y": 6.2793515702,
				"z": 0.018297969,
				"element": "F" 
			},
			{
				"x": 0.5406648527,
				"y": 3.9207755033,
				"z": -0.1583562024,
				"element": "C" 
			},
			{
				"x": -0.5684069745,
				"y": 3.9579096654,
				"z": -0.9113678649,
				"element": "F" 
			},
			{
				"x": 1.1540136642,
				"y": 2.7034845223,
				"z": 0.1322855621,
				"element": "C" 
			},
			{
				"x": 0.675886148,
				"y": 1.5292604845,
				"z": -0.4063936978,
				"element": "O" 
			},
			{
				"x": 0.0834712735,
				"y": 0.6407973938,
				"z": 0.4922799031,
				"element": "C" 
			},
			{
				"x": -0.1186267774,
				"y": 0.955059894,
				"z": 1.6404278616,
				"element": "O" 
			},
			{
				"x": -0.1229800214,
				"y": -0.7107909931,
				"z": -0.0835760271,
				"element": "C" 
			},
			{
				"x": -0.2942723273,
				"y": -1.038997386,
				"z": -1.4630479482,
				"element": "C" 
			},
			{
				"x": -0.1596273662,
				"y": -2.4060857726,
				"z": -1.8160305831,
				"element": "C" 
			},
			{
				"x": 0.0320977204,
				"y": -3.3916859293,
				"z": -0.8654862103,
				"element": "C" 
			},
			{
				"x": 0.0885125599,
				"y": -3.068730978,
				"z": 0.4975964839,
				"element": "C" 
			},
			{
				"x": 0.009944193,
				"y": -1.7364653876,
				"z": 0.8693651213,
				"element": "C" 
			},
			{
				"x": 0.2079957337,
				"y": -4.157742172,
				"z": 1.5221426977,
				"element": "C" 
			},
			{
				"x": 1.0696664274,
				"y": -5.1229091586,
				"z": 1.1212844679,
				"element": "F" 
			},
			{
				"x": 0.6406543335,
				"y": -3.6926067409,
				"z": 2.7130772605,
				"element": "F" 
			},
			{
				"x": -0.9784292187,
				"y": -4.7734426072,
				"z": 1.7445398658,
				"element": "F" 
			},
			{
				"x": -0.6034931293,
				"y": -0.0882020213,
				"z": -2.4175343456,
				"element": "N" 
			},
			{
				"x": -1.5717501852,
				"y": 0.9852359051,
				"z": -2.1366129744,
				"element": "C" 
			},
			{
				"x": -2.644450935,
				"y": 1.0260274947,
				"z": -3.2486362537,
				"element": "C" 
			},
			{
				"x": -2.9450341966,
				"y": -0.2813781162,
				"z": -3.7028241248,
				"element": "O" 
			},
			{
				"x": -1.8554794457,
				"y": -0.8519095606,
				"z": -4.4191011098,
				"element": "C" 
			},
			{
				"x": -0.5014851531,
				"y": -0.3760226504,
				"z": -3.843685846,
				"element": "C" 
			},
			{
				"x": 2.3009067151,
				"y": 2.7017138926,
				"z": 0.929471295,
				"element": "C" 
			},
			{
				"x": 2.8960040096,
				"y": 1.5432957564,
				"z": 1.2252721142,
				"element": "F" 
			},
			{
				"x": 2.8314571436,
				"y": 3.891403969,
				"z": 1.4189114444,
				"element": "C" 
			},
			{
				"x": 3.9301955976,
				"y": 3.8769755595,
				"z": 2.1787045992,
				"element": "F" 
			},
			{
				"x": -0.2642521909,
				"y": -2.7057672421,
				"z": -2.8507809955,
				"element": "H" 
			},
			{
				"x": 0.1138675044,
				"y": -4.4275461904,
				"z": -1.1791695893,
				"element": "H" 
			},
			{
				"x": 0.1048694356,
				"y": -1.4512160179,
				"z": 1.9101511855,
				"element": "H" 
			},
			{
				"x": -2.0509366822,
				"y": 0.7651412708,
				"z": -1.1783929052,
				"element": "H" 
			},
			{
				"x": -1.0840771265,
				"y": 1.9606398749,
				"z": -2.0514090794,
				"element": "H" 
			},
			{
				"x": -3.5709204639,
				"y": 1.4493266469,
				"z": -2.8520224971,
				"element": "H" 
			},
			{
				"x": -2.3215011407,
				"y": 1.6675399157,
				"z": -4.0839627207,
				"element": "H" 
			},
			{
				"x": -1.9722773797,
				"y": -1.936140615,
				"z": -4.3277092877,
				"element": "H" 
			},
			{
				"x": -1.9107477987,
				"y": -0.5920475561,
				"z": -5.4890841569,
				"element": "H" 
			},
			{
				"x": 0.2915892443,
				"y": -1.1008512595,
				"z": -4.0338142455,
				"element": "H" 
			},
			{
				"x": -0.1906454707,
				"y": 0.5516474396,
				"z": -4.3391459383,
				"element": "H" 
			}
		],
		 "valence_orbital": [ 
			{
				"type": "occ",
				"energy": -0.27564,
				"method": "rhf"
			},
			{
				"type": "occ",
				"energy": -0.27061,
				"method": "rhf"
			},
			{
				"type": "occ",
				"energy": -0.26746,
				"method": "rhf"
			},
			{
				"type": "occ",
				"energy": -0.26449,
				"method": "rhf"
			},
			{
				"type": "occ",
				"energy": -0.21933,
				"method": "rhf"
			},
			{
				"type": "unocc",
				"energy": -0.06009,
				"method": "rhf"
			},
			{
				"type": "unocc",
				"energy": -0.03146,
				"method": "rhf"
			},
			{
				"type": "unocc",
				"energy": -0.02433,
				"method": "rhf"
			},
			{
				"type": "unocc",
				"energy": -0.02413,
				"method": "rhf"
			},
			{
				"type": "unocc",
				"energy": -0.00583,
				"method": "rhf"
			}
		],
		"cosmo_sigma_profile": { 
			"-0.025": 0.0,
			"-0.024": 0.0,
			"-0.023": 0.0,
			"-0.022": 0.0,
			"-0.021": 0.0,
			"-0.02": 0.0,
			"-0.019": 0.0,
			"-0.018": 0.0,
			"-0.017": 0.0,
			"-0.016": 0.0,
			"-0.015": 0.0,
			"-0.014": 0.0,
			"-0.013": 0.0,
			"-0.012": 0.0,
			"-0.011": 0.0,
			"-0.01": 0.0768757068449,
			"-0.009": 1.40152631166,
			"-0.008": 3.00882606532,
			"-0.007": 6.26520582645,
			"-0.006": 16.5397398566,
			"-0.005": 23.5145839417,
			"-0.004": 39.0313491531,
			"-0.003": 32.1858438464,
			"-0.002": 24.3838396651,
			"-0.001": 23.6305645799,
			"0.0": 24.8128875593,
			"0.001": 34.956982653,
			"0.002": 73.1927325747,
			"0.003": 51.5162349961,
			"0.004": 8.92719628636,
			"0.005": 3.98317632733,
			"0.006": 4.41854342659,
			"0.007": 4.33093967554,
			"0.008": 2.58982632458,
			"0.009": 3.13119600494,
			"0.01": 4.55127326767,
			"0.011": 3.52060216888,
			"0.012": 1.64807031125,
			"0.013": 1.36043882944,
			"0.014": 0.125303029207,
			"0.015": 0.0,
			"0.016": 0.0,
			"0.017": 0.0,
			"0.018": 0.0,
			"0.019": 0.0,
			"0.02": 0.0,
			"0.021": 0.0,
			"0.022": 0.0,
			"0.023": 0.0,
			"0.024": 0.0,
			"0.025": 0.0
		}
	}
}
