{
	 "smiles": "O=C1CCC(CC1)C1=CC=CC=C1", 
	 "Tm": 352.95, 
	 "num_atms": 27, 
	 "gaussian": { 
		 "optdone": 1, 
		 "sigma_profile": "yes", 
		 "theory": "DFT", 
		 "functional": "B3LYP", 
		 "basiset": "6-31G**", 
		 "properties": { 
			 "R2extent": 2854.148, 
			 "electric_dipole_moment_norm": 3.13447154238, 
			 "electric_quadrupole_moment_norm": 16.7170493009, 
			 "total_energy": -540.945575778, 
			 "HOMO_LUMO_gap": 0.22381, 
			 "cosmo_polarized_energy": -9.01, 
			 "cosmo_cavitation_energy": 28.07, 
			 "cosmo_dispersion_energy": -20.61, 
			 "cosmo_repulsion_energy": 1.62, 
			 "cosmo_total_nonelectrostatic_energy": 9.08, 
			 "SMD_solvation_energy": 4.75 
		},
		"coords": [
			{
				"x": 3.5985978075,
				"y": -2.0140067051,
				"z": -1.8690140985,
				"element": "O" 
			},
			{
				"x": 2.5616400307,
				"y": -1.5292124674,
				"z": -1.4570003086,
				"element": "C" 
			},
			{
				"x": 2.4551987058,
				"y": -0.869830435,
				"z": -0.0885085176,
				"element": "C" 
			},
			{
				"x": 1.1979156734,
				"y": -1.3155818213,
				"z": 0.6921555318,
				"element": "C" 
			},
			{
				"x": -0.1104103869,
				"y": -1.2403999996,
				"z": -0.124827784,
				"element": "C" 
			},
			{
				"x": 0.0845885591,
				"y": -2.0387823846,
				"z": -1.4384001993,
				"element": "C" 
			},
			{
				"x": 1.2763314517,
				"y": -1.5248684094,
				"z": -2.2699415818,
				"element": "C" 
			},
			{
				"x": -0.6649149569,
				"y": 0.1695553304,
				"z": -0.3600134843,
				"element": "C" 
			},
			{
				"x": -1.8377390001,
				"y": 0.3282148031,
				"z": -1.1189619335,
				"element": "C" 
			},
			{
				"x": -2.4058027742,
				"y": 1.5832208881,
				"z": -1.3294115158,
				"element": "C" 
			},
			{
				"x": -1.8147854868,
				"y": 2.7231362379,
				"z": -0.7801121855,
				"element": "C" 
			},
			{
				"x": -0.6600932435,
				"y": 2.5856802456,
				"z": -0.0128246664,
				"element": "C" 
			},
			{
				"x": -0.0958215564,
				"y": 1.3239025894,
				"z": 0.1961181759,
				"element": "C" 
			},
			{
				"x": 3.3702788917,
				"y": -1.0830341109,
				"z": 0.4706018473,
				"element": "H" 
			},
			{
				"x": 2.4214813078,
				"y": 0.2137038624,
				"z": -0.2649791485,
				"element": "H" 
			},
			{
				"x": 1.3359410704,
				"y": -2.3602199298,
				"z": 0.9968290447,
				"element": "H" 
			},
			{
				"x": 1.1121753292,
				"y": -0.7417795261,
				"z": 1.6212481914,
				"element": "H" 
			},
			{
				"x": -0.8756832934,
				"y": -1.7741842412,
				"z": 0.4568845129,
				"element": "H" 
			},
			{
				"x": 0.2560770783,
				"y": -3.0912794968,
				"z": -1.1784988913,
				"element": "H" 
			},
			{
				"x": -0.8225864451,
				"y": -2.0185894752,
				"z": -2.049347325,
				"element": "H" 
			},
			{
				"x": 1.0749543188,
				"y": -0.4896991566,
				"z": -2.580395889,
				"element": "H" 
			},
			{
				"x": 1.4318928816,
				"y": -2.1227252214,
				"z": -3.1717497143,
				"element": "H" 
			},
			{
				"x": -2.3256433346,
				"y": -0.5453874499,
				"z": -1.5428178432,
				"element": "H" 
			},
			{
				"x": -3.3139471183,
				"y": 1.6701142027,
				"z": -1.9195405866,
				"element": "H" 
			},
			{
				"x": -2.2538298905,
				"y": 3.7030085471,
				"z": -0.9433264865,
				"element": "H" 
			},
			{
				"x": -0.1919882101,
				"y": 3.4603512831,
				"z": 0.4302502526,
				"element": "H" 
			},
			{
				"x": 0.7938725908,
				"y": 1.2525928404,
				"z": 0.812084603,
				"element": "H" 
			}
		],
		 "valence_orbital": [ 
			{
				"type": "occ",
				"energy": -0.32151,
				"method": "rhf"
			},
			{
				"type": "occ",
				"energy": -0.3203,
				"method": "rhf"
			},
			{
				"type": "occ",
				"energy": -0.25334,
				"method": "rhf"
			},
			{
				"type": "occ",
				"energy": -0.24534,
				"method": "rhf"
			},
			{
				"type": "occ",
				"energy": -0.23369,
				"method": "rhf"
			},
			{
				"type": "unocc",
				"energy": -0.00988,
				"method": "rhf"
			},
			{
				"type": "unocc",
				"energy": -0.0075,
				"method": "rhf"
			},
			{
				"type": "unocc",
				"energy": -0.00436,
				"method": "rhf"
			},
			{
				"type": "unocc",
				"energy": 0.07943,
				"method": "rhf"
			},
			{
				"type": "unocc",
				"energy": 0.09591,
				"method": "rhf"
			}
		],
		"cosmo_sigma_profile": { 
			"-0.025": 0.0,
			"-0.024": 0.0,
			"-0.023": 0.0,
			"-0.022": 0.0,
			"-0.021": 0.0,
			"-0.02": 0.0,
			"-0.019": 0.0,
			"-0.018": 0.0,
			"-0.017": 0.0,
			"-0.016": 0.0,
			"-0.015": 0.0,
			"-0.014": 0.0,
			"-0.013": 0.0,
			"-0.012": 0.0,
			"-0.011": 0.0,
			"-0.01": 0.0,
			"-0.009": 0.0,
			"-0.008": 0.0,
			"-0.007": 0.0248874491562,
			"-0.006": 4.83655234616,
			"-0.005": 17.5523255433,
			"-0.004": 27.4413101833,
			"-0.003": 31.5371647186,
			"-0.002": 27.0271124862,
			"-0.001": 25.1301000008,
			"0.0": 14.6936843524,
			"0.001": 8.20487056692,
			"0.002": 9.15457086561,
			"0.003": 8.05804629322,
			"0.004": 8.37398123726,
			"0.005": 8.97794611748,
			"0.006": 8.77085900509,
			"0.007": 4.49865561714,
			"0.008": 1.59193101995,
			"0.009": 1.09792420624,
			"0.01": 2.05977844916,
			"0.011": 2.77178154581,
			"0.012": 4.68891202214,
			"0.013": 3.36112135662,
			"0.014": 0.913176759385,
			"0.015": 0.0,
			"0.016": 0.0,
			"0.017": 0.0,
			"0.018": 0.0,
			"0.019": 0.0,
			"0.02": 0.0,
			"0.021": 0.0,
			"0.022": 0.0,
			"0.023": 0.0,
			"0.024": 0.0,
			"0.025": 0.0
		}
	}
}
