{
	 "smiles": "CCC(Cl)=O", 
	 "Tm": 179.15, 
	 "num_atms": 10, 
	 "gaussian": { 
		 "optdone": 1, 
		 "sigma_profile": "yes", 
		 "theory": "DFT", 
		 "functional": "B3LYP", 
		 "basiset": "6-31G**", 
		 "properties": { 
			 "R2extent": 711.6461, 
			 "electric_dipole_moment_norm": 3.08810108157, 
			 "electric_quadrupole_moment_norm": 4.74173485657, 
			 "total_energy": -652.759389798, 
			 "HOMO_LUMO_gap": 0.25405, 
			 "cosmo_polarized_energy": -5.1, 
			 "cosmo_cavitation_energy": 15.56, 
			 "cosmo_dispersion_energy": -11.54, 
			 "cosmo_repulsion_energy": 1.04, 
			 "cosmo_total_nonelectrostatic_energy": 5.07, 
			 "SMD_solvation_energy": 3.59 
		},
		"coords": [
			{
				"x": -0.2363655955,
				"y": 0.3937390006,
				"z": 1.3294768672,
				"element": "C" 
			},
			{
				"x": 0.8276372006,
				"y": -0.4194472755,
				"z": 0.5726769474,
				"element": "C" 
			},
			{
				"x": 1.2877458354,
				"y": 0.2572867293,
				"z": -0.6970484597,
				"element": "C" 
			},
			{
				"x": -0.0219812416,
				"y": 0.2738049615,
				"z": -1.9913623571,
				"element": "Cl" 
			},
			{
				"x": 2.3431356439,
				"y": 0.7541238134,
				"z": -0.9190961986,
				"element": "O" 
			},
			{
				"x": -0.5100815406,
				"y": -0.1318945798,
				"z": 2.2482146766,
				"element": "H" 
			},
			{
				"x": 0.144348548,
				"y": 1.3817392883,
				"z": 1.6031990389,
				"element": "H" 
			},
			{
				"x": -1.1372438838,
				"y": 0.5235805466,
				"z": 0.7257194738,
				"element": "H" 
			},
			{
				"x": 0.4298207552,
				"y": -1.4043734084,
				"z": 0.3086061777,
				"element": "H" 
			},
			{
				"x": 1.7232842783,
				"y": -0.5550590761,
				"z": 1.1859138337,
				"element": "H" 
			}
		],
		 "valence_orbital": [ 
			{
				"type": "occ",
				"energy": -0.38771,
				"method": "rhf"
			},
			{
				"type": "occ",
				"energy": -0.37681,
				"method": "rhf"
			},
			{
				"type": "occ",
				"energy": -0.32016,
				"method": "rhf"
			},
			{
				"type": "occ",
				"energy": -0.31747,
				"method": "rhf"
			},
			{
				"type": "occ",
				"energy": -0.29508,
				"method": "rhf"
			},
			{
				"type": "unocc",
				"energy": -0.04103,
				"method": "rhf"
			},
			{
				"type": "unocc",
				"energy": 0.01657,
				"method": "rhf"
			},
			{
				"type": "unocc",
				"energy": 0.09359,
				"method": "rhf"
			},
			{
				"type": "unocc",
				"energy": 0.12923,
				"method": "rhf"
			},
			{
				"type": "unocc",
				"energy": 0.13307,
				"method": "rhf"
			}
		],
		"cosmo_sigma_profile": { 
			"-0.025": 0.0,
			"-0.024": 0.0,
			"-0.023": 0.0,
			"-0.022": 0.0,
			"-0.021": 0.0,
			"-0.02": 0.0,
			"-0.019": 0.0,
			"-0.018": 0.0,
			"-0.017": 0.0,
			"-0.016": 0.0,
			"-0.015": 0.0,
			"-0.014": 0.0,
			"-0.013": 0.0,
			"-0.012": 0.0,
			"-0.011": 0.0,
			"-0.01": 0.0,
			"-0.009": 0.0,
			"-0.008": 0.129202276087,
			"-0.007": 3.59775865639,
			"-0.006": 5.98787702303,
			"-0.005": 10.8612933538,
			"-0.004": 13.5443232535,
			"-0.003": 11.3488426436,
			"-0.002": 9.10001063968,
			"-0.001": 11.0449325095,
			"0.0": 7.7414665519,
			"0.001": 5.15406620189,
			"0.002": 6.62033303505,
			"0.003": 5.99126772935,
			"0.004": 10.0113111266,
			"0.005": 9.42372391507,
			"0.006": 3.86116364527,
			"0.007": 3.37587194365,
			"0.008": 5.1641915976,
			"0.009": 2.2789726123,
			"0.01": 0.0196220916886,
			"0.011": 0.0,
			"0.012": 0.0,
			"0.013": 0.0,
			"0.014": 0.0,
			"0.015": 0.0,
			"0.016": 0.0,
			"0.017": 0.0,
			"0.018": 0.0,
			"0.019": 0.0,
			"0.02": 0.0,
			"0.021": 0.0,
			"0.022": 0.0,
			"0.023": 0.0,
			"0.024": 0.0,
			"0.025": 0.0
		}
	}
}
