{
	 "smiles": "CC(=O)OC1CCCC2=C(C)C=CC(C)=C12", 
	 "Tm": 325.15, 
	 "num_atms": 34, 
	 "gaussian": { 
		 "optdone": 1, 
		 "sigma_profile": "yes", 
		 "theory": "DFT", 
		 "functional": "B3LYP", 
		 "basiset": "6-31G**", 
		 "properties": { 
			 "R2extent": 4457.5721, 
			 "electric_dipole_moment_norm": 1.87249582643, 
			 "electric_quadrupole_moment_norm": 10.2221751032, 
			 "total_energy": -694.828071187, 
			 "HOMO_LUMO_gap": 0.22465, 
			 "cosmo_polarized_energy": -8.21, 
			 "cosmo_cavitation_energy": 34.64, 
			 "cosmo_dispersion_energy": -24.58, 
			 "cosmo_repulsion_energy": 1.9, 
			 "cosmo_total_nonelectrostatic_energy": 11.96, 
			 "SMD_solvation_energy": 6.13 
		},
		"coords": [
			{
				"x": -0.3845473729,
				"y": 1.1631510983,
				"z": -3.9428271618,
				"element": "C" 
			},
			{
				"x": 0.295479569,
				"y": 1.4233500288,
				"z": -2.618007152,
				"element": "C" 
			},
			{
				"x": 1.4567831495,
				"y": 1.7476276235,
				"z": -2.4838255952,
				"element": "O" 
			},
			{
				"x": -0.5646018403,
				"y": 1.2272117105,
				"z": -1.5927756366,
				"element": "O" 
			},
			{
				"x": -0.0460849247,
				"y": 1.4503791429,
				"z": -0.2422214842,
				"element": "C" 
			},
			{
				"x": -0.2230884948,
				"y": 2.9360526605,
				"z": 0.0758728779,
				"element": "C" 
			},
			{
				"x": -0.1714105079,
				"y": 3.1822289719,
				"z": 1.5801316187,
				"element": "C" 
			},
			{
				"x": -1.3308728129,
				"y": 2.4439591626,
				"z": 2.252026221,
				"element": "C" 
			},
			{
				"x": -1.4055940345,
				"y": 0.976047763,
				"z": 1.8631948705,
				"element": "C" 
			},
			{
				"x": -2.1083189213,
				"y": 0.0850344598,
				"z": 2.7049356891,
				"element": "C" 
			},
			{
				"x": -2.8357279963,
				"y": 0.5731009745,
				"z": 3.9373633266,
				"element": "C" 
			},
			{
				"x": -2.1215038603,
				"y": -1.272748691,
				"z": 2.3878470438,
				"element": "C" 
			},
			{
				"x": -1.4363835894,
				"y": -1.7536924912,
				"z": 1.2758353006,
				"element": "C" 
			},
			{
				"x": -0.7493819,
				"y": -0.8911595174,
				"z": 0.420599694,
				"element": "C" 
			},
			{
				"x": -0.0130716754,
				"y": -1.4816248552,
				"z": -0.762092449,
				"element": "C" 
			},
			{
				"x": -0.7668622075,
				"y": 0.4962518378,
				"z": 0.700283509,
				"element": "C" 
			},
			{
				"x": 0.2689668782,
				"y": 1.482577066,
				"z": -4.7542053567,
				"element": "H" 
			},
			{
				"x": -0.5942676062,
				"y": 0.0935137563,
				"z": -4.0461490668,
				"element": "H" 
			},
			{
				"x": -1.3409228856,
				"y": 1.6898064691,
				"z": -3.9929236856,
				"element": "H" 
			},
			{
				"x": 1.0224825365,
				"y": 1.2119352611,
				"z": -0.271684382,
				"element": "H" 
			},
			{
				"x": -1.2007830108,
				"y": 3.252626221,
				"z": -0.3091707614,
				"element": "H" 
			},
			{
				"x": 0.5407996785,
				"y": 3.5041803927,
				"z": -0.4630883386,
				"element": "H" 
			},
			{
				"x": -0.2271019566,
				"y": 4.2547097226,
				"z": 1.796446865,
				"element": "H" 
			},
			{
				"x": 0.7836846663,
				"y": 2.8260712944,
				"z": 1.9887767775,
				"element": "H" 
			},
			{
				"x": -2.276067685,
				"y": 2.9447183939,
				"z": 1.9905766153,
				"element": "H" 
			},
			{
				"x": -1.24448181,
				"y": 2.5285929011,
				"z": 3.3405343884,
				"element": "H" 
			},
			{
				"x": -2.1461608679,
				"y": 0.9682651853,
				"z": 4.6940583356,
				"element": "H" 
			},
			{
				"x": -3.5445408779,
				"y": 1.3765875859,
				"z": 3.705958847,
				"element": "H" 
			},
			{
				"x": -3.3977049728,
				"y": -0.2418927781,
				"z": 4.4012539517,
				"element": "H" 
			},
			{
				"x": -2.6574739884,
				"y": -1.9660604114,
				"z": 3.0314950684,
				"element": "H" 
			},
			{
				"x": -1.4323129286,
				"y": -2.8206514719,
				"z": 1.0672071835,
				"element": "H" 
			},
			{
				"x": 0.9613954392,
				"y": -1.0100356343,
				"z": -0.9253876895,
				"element": "H" 
			},
			{
				"x": 0.157249381,
				"y": -2.5505035218,
				"z": -0.6051896764,
				"element": "H" 
			},
			{
				"x": -0.5839725703,
				"y": -1.3673103111,
				"z": -1.6893497479,
				"element": "H" 
			}
		],
		 "valence_orbital": [ 
			{
				"type": "occ",
				"energy": -0.31093,
				"method": "rhf"
			},
			{
				"type": "occ",
				"energy": -0.28687,
				"method": "rhf"
			},
			{
				"type": "occ",
				"energy": -0.2696,
				"method": "rhf"
			},
			{
				"type": "occ",
				"energy": -0.23373,
				"method": "rhf"
			},
			{
				"type": "occ",
				"energy": -0.22517,
				"method": "rhf"
			},
			{
				"type": "unocc",
				"energy": -0.00052,
				"method": "rhf"
			},
			{
				"type": "unocc",
				"energy": 0.00497,
				"method": "rhf"
			},
			{
				"type": "unocc",
				"energy": 0.01636,
				"method": "rhf"
			},
			{
				"type": "unocc",
				"energy": 0.08776,
				"method": "rhf"
			},
			{
				"type": "unocc",
				"energy": 0.09199,
				"method": "rhf"
			}
		],
		"cosmo_sigma_profile": { 
			"-0.025": 0.0,
			"-0.024": 0.0,
			"-0.023": 0.0,
			"-0.022": 0.0,
			"-0.021": 0.0,
			"-0.02": 0.0,
			"-0.019": 0.0,
			"-0.018": 0.0,
			"-0.017": 0.0,
			"-0.016": 0.0,
			"-0.015": 0.0,
			"-0.014": 0.0,
			"-0.013": 0.0,
			"-0.012": 0.0,
			"-0.011": 0.0,
			"-0.01": 0.0,
			"-0.009": 0.0,
			"-0.008": 0.0,
			"-0.007": 0.300814592788,
			"-0.006": 3.79180681947,
			"-0.005": 10.4482426176,
			"-0.004": 26.2120421492,
			"-0.003": 37.4722220302,
			"-0.002": 38.4082155475,
			"-0.001": 38.3122473995,
			"0.0": 30.8345533227,
			"0.001": 17.1123019874,
			"0.002": 10.4878732861,
			"0.003": 9.38762893806,
			"0.004": 7.96593236533,
			"0.005": 8.33259288145,
			"0.006": 10.5343876718,
			"0.007": 6.62303441117,
			"0.008": 2.16631883482,
			"0.009": 1.82989557656,
			"0.01": 2.19454968881,
			"0.011": 2.39025540811,
			"0.012": 4.36485947863,
			"0.013": 1.68165785355,
			"0.014": 0.0842997622456,
			"0.015": 0.0,
			"0.016": 0.0,
			"0.017": 0.0,
			"0.018": 0.0,
			"0.019": 0.0,
			"0.02": 0.0,
			"0.021": 0.0,
			"0.022": 0.0,
			"0.023": 0.0,
			"0.024": 0.0,
			"0.025": 0.0
		}
	}
}
