{
	 "smiles": "CC1=NC2=C(C=CN2)C(Cl)=N1", 
	 "Tm": 473.15, 
	 "num_atms": 17, 
	 "gaussian": { 
		 "optdone": 1, 
		 "sigma_profile": "yes", 
		 "theory": "DFT", 
		 "functional": "B3LYP", 
		 "basiset": "6-31G**", 
		 "properties": { 
			 "R2extent": 3279.4767, 
			 "electric_dipole_moment_norm": 4.09878168728, 
			 "electric_quadrupole_moment_norm": 17.7139153188, 
			 "total_energy": -894.821555787, 
			 "HOMO_LUMO_gap": 0.18918, 
			 "cosmo_polarized_energy": -10.71, 
			 "cosmo_cavitation_energy": 23.2, 
			 "cosmo_dispersion_energy": -17.72, 
			 "cosmo_repulsion_energy": 1.43, 
			 "cosmo_total_nonelectrostatic_energy": 6.91, 
			 "SMD_solvation_energy": 0.87 
		},
		"coords": [
			{
				"x": -1.4981560036,
				"y": -1.4300089581,
				"z": -0.7160220474,
				"element": "C" 
			},
			{
				"x": -0.1533294075,
				"y": -0.8161342521,
				"z": -0.9897933219,
				"element": "C" 
			},
			{
				"x": 0.7762008265,
				"y": -0.8832700167,
				"z": -0.0331602087,
				"element": "N" 
			},
			{
				"x": 1.9355889618,
				"y": -0.3125898037,
				"z": -0.3654497596,
				"element": "C" 
			},
			{
				"x": 2.2361540918,
				"y": 0.3271529264,
				"z": -1.5980617243,
				"element": "C" 
			},
			{
				"x": 3.5875810344,
				"y": 0.794181612,
				"z": -1.5233120517,
				"element": "C" 
			},
			{
				"x": 4.0507641719,
				"y": 0.4340098779,
				"z": -0.2850105567,
				"element": "C" 
			},
			{
				"x": 3.056235009,
				"y": -0.2339595256,
				"z": 0.4158561132,
				"element": "N" 
			},
			{
				"x": 1.1620891116,
				"y": 0.3143014966,
				"z": -2.4927971314,
				"element": "C" 
			},
			{
				"x": 1.3435188215,
				"y": 1.0609818384,
				"z": -4.0772889351,
				"element": "Cl" 
			},
			{
				"x": 0.0035987369,
				"y": -0.2355822335,
				"z": -2.2081747664,
				"element": "N" 
			},
			{
				"x": -1.7202644401,
				"y": -2.2041668951,
				"z": -1.4576973956,
				"element": "H" 
			},
			{
				"x": -1.5186695114,
				"y": -1.8665419667,
				"z": 0.2831481349,
				"element": "H" 
			},
			{
				"x": -2.285118655,
				"y": -0.6734680523,
				"z": -0.8003782088,
				"element": "H" 
			},
			{
				"x": 4.1377661095,
				"y": 1.3244023579,
				"z": -2.285741481,
				"element": "H" 
			},
			{
				"x": 5.0186711744,
				"y": 0.5981961103,
				"z": 0.165421091,
				"element": "H" 
			},
			{
				"x": 3.1255699684,
				"y": -0.6085045159,
				"z": 1.3492622495,
				"element": "H" 
			}
		],
		 "valence_orbital": [ 
			{
				"type": "occ",
				"energy": -0.30618,
				"method": "rhf"
			},
			{
				"type": "occ",
				"energy": -0.29736,
				"method": "rhf"
			},
			{
				"type": "occ",
				"energy": -0.26784,
				"method": "rhf"
			},
			{
				"type": "occ",
				"energy": -0.25972,
				"method": "rhf"
			},
			{
				"type": "occ",
				"energy": -0.2295,
				"method": "rhf"
			},
			{
				"type": "unocc",
				"energy": -0.04032,
				"method": "rhf"
			},
			{
				"type": "unocc",
				"energy": -0.00688,
				"method": "rhf"
			},
			{
				"type": "unocc",
				"energy": 0.03809,
				"method": "rhf"
			},
			{
				"type": "unocc",
				"energy": 0.04605,
				"method": "rhf"
			},
			{
				"type": "unocc",
				"energy": 0.07453,
				"method": "rhf"
			}
		],
		"cosmo_sigma_profile": { 
			"-0.025": 0.0,
			"-0.024": 0.0,
			"-0.023": 0.0,
			"-0.022": 0.0,
			"-0.021": 0.0,
			"-0.02": 0.0,
			"-0.019": 0.0,
			"-0.018": 0.0,
			"-0.017": 0.749321362657,
			"-0.016": 1.55624432974,
			"-0.015": 1.24201396789,
			"-0.014": 1.2175767995,
			"-0.013": 1.1062523669,
			"-0.012": 0.673559151754,
			"-0.011": 1.0333809034,
			"-0.01": 1.71294949151,
			"-0.009": 3.29618746519,
			"-0.008": 2.26116588723,
			"-0.007": 3.8755924716,
			"-0.006": 3.4780194586,
			"-0.005": 7.13773165095,
			"-0.004": 9.202945368,
			"-0.003": 9.080601586,
			"-0.002": 12.7503007732,
			"-0.001": 18.7572028995,
			"0.0": 22.8018713808,
			"0.001": 17.7744180781,
			"0.002": 14.0884364775,
			"0.003": 13.78961119,
			"0.004": 14.2452730478,
			"0.005": 7.65737982845,
			"0.006": 3.2554127297,
			"0.007": 2.64526840048,
			"0.008": 2.33873620833,
			"0.009": 2.10157419096,
			"0.01": 2.31038661989,
			"0.011": 1.94918397274,
			"0.012": 1.72857852407,
			"0.013": 1.4008682707,
			"0.014": 1.26436021766,
			"0.015": 0.216113576297,
			"0.016": 0.0,
			"0.017": 0.0,
			"0.018": 0.0,
			"0.019": 0.0,
			"0.02": 0.0,
			"0.021": 0.0,
			"0.022": 0.0,
			"0.023": 0.0,
			"0.024": 0.0,
			"0.025": 0.0
		}
	}
}
