{
	 "smiles": "[O-][N+](=O)C1=CC(=CC=C1)N1C=CC=C1", 
	 "Tm": 346.15, 
	 "num_atms": 22, 
	 "gaussian": { 
		 "optdone": 1, 
		 "sigma_profile": "yes", 
		 "theory": "DFT", 
		 "functional": "B3LYP", 
		 "basiset": "6-31G**", 
		 "properties": { 
			 "R2extent": 4000.0161, 
			 "electric_dipole_moment_norm": 4.19831578374, 
			 "electric_quadrupole_moment_norm": 20.7574551126, 
			 "total_energy": -645.717641175, 
			 "HOMO_LUMO_gap": 0.13284, 
			 "cosmo_polarized_energy": -10.17, 
			 "cosmo_cavitation_energy": 26.87, 
			 "cosmo_dispersion_energy": -19.91, 
			 "cosmo_repulsion_energy": 1.51, 
			 "cosmo_total_nonelectrostatic_energy": 8.47, 
			 "SMD_solvation_energy": 7.59 
		},
		"coords": [
			{
				"x": -4.3476466742,
				"y": -3.2176219899,
				"z": 1.4937620725,
				"element": "O" 
			},
			{
				"x": -3.7953409383,
				"y": -2.446831364,
				"z": 0.7108652313,
				"element": "N" 
			},
			{
				"x": -4.3011942523,
				"y": -2.0193093796,
				"z": -0.3262510398,
				"element": "O" 
			},
			{
				"x": -2.4273533054,
				"y": -2.0042269832,
				"z": 1.0421010225,
				"element": "C" 
			},
			{
				"x": -1.7925719687,
				"y": -1.1322608044,
				"z": 0.1649464763,
				"element": "C" 
			},
			{
				"x": -0.4931021166,
				"y": -0.6961795836,
				"z": 0.45544486,
				"element": "C" 
			},
			{
				"x": 0.122685253,
				"y": -1.1609454998,
				"z": 1.6314621246,
				"element": "C" 
			},
			{
				"x": -0.5422931869,
				"y": -2.0349420494,
				"z": 2.4893480594,
				"element": "C" 
			},
			{
				"x": -1.8339822755,
				"y": -2.474197697,
				"z": 2.2095475705,
				"element": "C" 
			},
			{
				"x": 0.177484167,
				"y": 0.1893331091,
				"z": -0.4160036601,
				"element": "N" 
			},
			{
				"x": 1.4619070446,
				"y": 0.6947714978,
				"z": -0.2430122389,
				"element": "C" 
			},
			{
				"x": 1.7542341425,
				"y": 1.5177323556,
				"z": -1.2990800229,
				"element": "C" 
			},
			{
				"x": 0.6161224045,
				"y": 1.528047307,
				"z": -2.1610969084,
				"element": "C" 
			},
			{
				"x": -0.3307440088,
				"y": 0.7110549491,
				"z": -1.6011443836,
				"element": "C" 
			},
			{
				"x": -2.3300755299,
				"y": -0.8193039588,
				"z": -0.7179823567,
				"element": "H" 
			},
			{
				"x": 1.1258875542,
				"y": -0.844157225,
				"z": 1.8864857945,
				"element": "H" 
			},
			{
				"x": -0.0408748489,
				"y": -2.3761476246,
				"z": 3.3893528871,
				"element": "H" 
			},
			{
				"x": -2.3731681939,
				"y": -3.1520719561,
				"z": 2.8576192206,
				"element": "H" 
			},
			{
				"x": 2.0634094897,
				"y": 0.4320941392,
				"z": 0.6107155022,
				"element": "H" 
			},
			{
				"x": 2.6821164218,
				"y": 2.0540433767,
				"z": -1.4390121122,
				"element": "H" 
			},
			{
				"x": 0.5055693709,
				"y": 2.0736647149,
				"z": -3.0874537243,
				"element": "H" 
			},
			{
				"x": -1.3185685491,
				"y": 0.461954666,
				"z": -1.9503143745,
				"element": "H" 
			}
		],
		 "valence_orbital": [ 
			{
				"type": "occ",
				"energy": -0.30425,
				"method": "rhf"
			},
			{
				"type": "occ",
				"energy": -0.29474,
				"method": "rhf"
			},
			{
				"type": "occ",
				"energy": -0.28791,
				"method": "rhf"
			},
			{
				"type": "occ",
				"energy": -0.23456,
				"method": "rhf"
			},
			{
				"type": "occ",
				"energy": -0.2258,
				"method": "rhf"
			},
			{
				"type": "unocc",
				"energy": -0.09296,
				"method": "rhf"
			},
			{
				"type": "unocc",
				"energy": -0.03882,
				"method": "rhf"
			},
			{
				"type": "unocc",
				"energy": -0.00907,
				"method": "rhf"
			},
			{
				"type": "unocc",
				"energy": 0.04283,
				"method": "rhf"
			},
			{
				"type": "unocc",
				"energy": 0.0678,
				"method": "rhf"
			}
		],
		"cosmo_sigma_profile": { 
			"-0.025": 0.0,
			"-0.024": 0.0,
			"-0.023": 0.0,
			"-0.022": 0.0,
			"-0.021": 0.0,
			"-0.02": 0.0,
			"-0.019": 0.0,
			"-0.018": 0.0,
			"-0.017": 0.0,
			"-0.016": 0.0,
			"-0.015": 0.0,
			"-0.014": 0.0,
			"-0.013": 0.0,
			"-0.012": 0.00838413911981,
			"-0.011": 1.51937060315,
			"-0.01": 2.29546746836,
			"-0.009": 3.48070829696,
			"-0.008": 4.59981605378,
			"-0.007": 8.58780506751,
			"-0.006": 12.5820292518,
			"-0.005": 12.3487498091,
			"-0.004": 10.9666367552,
			"-0.003": 12.3082210753,
			"-0.002": 14.0987741154,
			"-0.001": 18.7981416723,
			"0.0": 19.0519735297,
			"0.001": 19.4418620438,
			"0.002": 13.3474706738,
			"0.003": 8.18336075093,
			"0.004": 9.0133974363,
			"0.005": 7.74275338528,
			"0.006": 10.0547308658,
			"0.007": 14.1820689839,
			"0.008": 8.02375287338,
			"0.009": 4.13810117641,
			"0.01": 2.26784678807,
			"0.011": 0.0586218537612,
			"0.012": 0.0,
			"0.013": 0.0,
			"0.014": 0.0,
			"0.015": 0.0,
			"0.016": 0.0,
			"0.017": 0.0,
			"0.018": 0.0,
			"0.019": 0.0,
			"0.02": 0.0,
			"0.021": 0.0,
			"0.022": 0.0,
			"0.023": 0.0,
			"0.024": 0.0,
			"0.025": 0.0
		}
	}
}
