{
	 "smiles": "FC1=C(C=C2CCC(=O)NC2=C1)S(Cl)(=O)=O", 
	 "Tm": 481.15, 
	 "num_atms": 23, 
	 "gaussian": { 
		 "optdone": 1, 
		 "sigma_profile": "yes", 
		 "theory": "DFT", 
		 "functional": "B3LYP", 
		 "basiset": "6-31G**", 
		 "properties": { 
			 "R2extent": 6335.3699, 
			 "electric_dipole_moment_norm": 4.15530331745, 
			 "electric_quadrupole_moment_norm": 30.8146754427, 
			 "total_energy": -1585.76893649, 
			 "HOMO_LUMO_gap": 0.16771, 
			 "cosmo_polarized_energy": -17.84, 
			 "cosmo_cavitation_energy": 31.07, 
			 "cosmo_dispersion_energy": -23.3, 
			 "cosmo_repulsion_energy": 1.75, 
			 "cosmo_total_nonelectrostatic_energy": 9.52, 
			 "SMD_solvation_energy": 4.64 
		},
		"coords": [
			{
				"x": 3.230575694,
				"y": -1.4397817827,
				"z": 2.1632705929,
				"element": "F" 
			},
			{
				"x": 2.262540906,
				"y": -0.8723101222,
				"z": 1.4387428296,
				"element": "C" 
			},
			{
				"x": 1.682781956,
				"y": 0.3299383937,
				"z": 1.8548594958,
				"element": "C" 
			},
			{
				"x": 0.6492687451,
				"y": 0.8948963871,
				"z": 1.0964957411,
				"element": "C" 
			},
			{
				"x": 0.2036637803,
				"y": 0.2864238083,
				"z": -0.0688091299,
				"element": "C" 
			},
			{
				"x": -0.8485250502,
				"y": 0.8910752902,
				"z": -0.9692229828,
				"element": "C" 
			},
			{
				"x": -1.6966842384,
				"y": -0.2022604572,
				"z": -1.6351646522,
				"element": "C" 
			},
			{
				"x": -0.8493437696,
				"y": -1.2823752614,
				"z": -2.2858502935,
				"element": "C" 
			},
			{
				"x": -1.1695823038,
				"y": -1.9119133073,
				"z": -3.2756765693,
				"element": "O" 
			},
			{
				"x": 0.3479025066,
				"y": -1.5558619893,
				"z": -1.6269016893,
				"element": "N" 
			},
			{
				"x": 0.7964206895,
				"y": -0.9341213169,
				"z": -0.4649821748,
				"element": "C" 
			},
			{
				"x": 1.827265072,
				"y": -1.5105734009,
				"z": 0.2889597921,
				"element": "C" 
			},
			{
				"x": 2.2454283932,
				"y": 1.185966853,
				"z": 3.3051911904,
				"element": "S" 
			},
			{
				"x": 1.5290936497,
				"y": -0.0848932076,
				"z": 4.8577799598,
				"element": "Cl" 
			},
			{
				"x": 3.697879643,
				"y": 1.1528820161,
				"z": 3.3866822006,
				"element": "O" 
			},
			{
				"x": 1.4927972639,
				"y": 2.4299047047,
				"z": 3.418986075,
				"element": "O" 
			},
			{
				"x": 0.2129477153,
				"y": 1.8306806743,
				"z": 1.4291390834,
				"element": "H" 
			},
			{
				"x": -1.4859890133,
				"y": 1.5793801264,
				"z": -0.4069127595,
				"element": "H" 
			},
			{
				"x": -0.3544968465,
				"y": 1.4880570565,
				"z": -1.7489131545,
				"element": "H" 
			},
			{
				"x": -2.3615467466,
				"y": 0.2009273617,
				"z": -2.401125563,
				"element": "H" 
			},
			{
				"x": -2.3267285422,
				"y": -0.6995645935,
				"z": -0.8851295896,
				"element": "H" 
			},
			{
				"x": 0.857746373,
				"y": -2.3501263762,
				"z": -1.9940108612,
				"element": "H" 
			},
			{
				"x": 2.2858841229,
				"y": -2.4512508569,
				"z": 0.003492459,
				"element": "H" 
			}
		],
		 "valence_orbital": [ 
			{
				"type": "occ",
				"energy": -0.32721,
				"method": "rhf"
			},
			{
				"type": "occ",
				"energy": -0.31341,
				"method": "rhf"
			},
			{
				"type": "occ",
				"energy": -0.28659,
				"method": "rhf"
			},
			{
				"type": "occ",
				"energy": -0.28163,
				"method": "rhf"
			},
			{
				"type": "occ",
				"energy": -0.2579,
				"method": "rhf"
			},
			{
				"type": "unocc",
				"energy": -0.09019,
				"method": "rhf"
			},
			{
				"type": "unocc",
				"energy": -0.05411,
				"method": "rhf"
			},
			{
				"type": "unocc",
				"energy": -0.04288,
				"method": "rhf"
			},
			{
				"type": "unocc",
				"energy": -0.0006,
				"method": "rhf"
			},
			{
				"type": "unocc",
				"energy": 0.03784,
				"method": "rhf"
			}
		],
		"cosmo_sigma_profile": { 
			"-0.025": 0.0,
			"-0.024": 0.0,
			"-0.023": 0.0,
			"-0.022": 0.0,
			"-0.021": 0.0,
			"-0.02": 0.0,
			"-0.019": 0.0,
			"-0.018": 0.0,
			"-0.017": 0.0,
			"-0.016": 0.861829045995,
			"-0.015": 1.40831250365,
			"-0.014": 1.72722286935,
			"-0.013": 1.20999985006,
			"-0.012": 1.05242711749,
			"-0.011": 1.17406933692,
			"-0.01": 2.05493635562,
			"-0.009": 2.73713119426,
			"-0.008": 3.37075929042,
			"-0.007": 7.3046120047,
			"-0.006": 12.6066936214,
			"-0.005": 16.5049793193,
			"-0.004": 16.0927894435,
			"-0.003": 16.4391669695,
			"-0.002": 20.9987020802,
			"-0.001": 20.5735454023,
			"0.0": 19.0245272469,
			"0.001": 11.3516193188,
			"0.002": 14.8083435307,
			"0.003": 20.7080340168,
			"0.004": 10.2955252464,
			"0.005": 5.04371184918,
			"0.006": 5.84331353043,
			"0.007": 7.11844111622,
			"0.008": 11.9203567238,
			"0.009": 6.08521309904,
			"0.01": 1.7579236041,
			"0.011": 2.46060931497,
			"0.012": 5.16324514824,
			"0.013": 3.21384464453,
			"0.014": 0.322582343385,
			"0.015": 0.0,
			"0.016": 0.0,
			"0.017": 0.0,
			"0.018": 0.0,
			"0.019": 0.0,
			"0.02": 0.0,
			"0.021": 0.0,
			"0.022": 0.0,
			"0.023": 0.0,
			"0.024": 0.0,
			"0.025": 0.0
		}
	}
}
