{
	 "smiles": "NC1=CC(NC(=O)CCN2CCOCC2)=C(F)C=C1", 
	 "Tm": 393.15, 
	 "num_atms": 37, 
	 "gaussian": { 
		 "optdone": 1, 
		 "sigma_profile": "yes", 
		 "theory": "DFT", 
		 "functional": "B3LYP", 
		 "basiset": "6-31G**", 
		 "properties": { 
			 "R2extent": 7040.9478, 
			 "electric_dipole_moment_norm": 1.87440255548, 
			 "electric_quadrupole_moment_norm": 22.7759348342, 
			 "total_energy": -920.770852283, 
			 "HOMO_LUMO_gap": 0.18373, 
			 "cosmo_polarized_energy": -17.47, 
			 "cosmo_cavitation_energy": 38.49, 
			 "cosmo_dispersion_energy": -27.43, 
			 "cosmo_repulsion_energy": 2.08, 
			 "cosmo_total_nonelectrostatic_energy": 13.14, 
			 "SMD_solvation_energy": 6.79 
		},
		"coords": [
			{
				"x": -3.8246102402,
				"y": -3.871953444,
				"z": 0.7349065807,
				"element": "N" 
			},
			{
				"x": -2.6502066302,
				"y": -3.126045421,
				"z": 0.5809659614,
				"element": "C" 
			},
			{
				"x": -2.7059133472,
				"y": -1.7225617934,
				"z": 0.6275214389,
				"element": "C" 
			},
			{
				"x": -1.5530593097,
				"y": -0.9582719753,
				"z": 0.4153261934,
				"element": "C" 
			},
			{
				"x": -1.503544706,
				"y": 0.441841204,
				"z": 0.4399835143,
				"element": "N" 
			},
			{
				"x": -2.5076720272,
				"y": 1.3216459095,
				"z": 0.7527638498,
				"element": "C" 
			},
			{
				"x": -3.6558534007,
				"y": 1.0058206657,
				"z": 1.0449809007,
				"element": "O" 
			},
			{
				"x": -2.0857411023,
				"y": 2.7946803652,
				"z": 0.6788386735,
				"element": "C" 
			},
			{
				"x": -0.6906757398,
				"y": 3.1377466514,
				"z": 1.2359605396,
				"element": "C" 
			},
			{
				"x": 0.3987860691,
				"y": 2.5413367907,
				"z": 0.4404344248,
				"element": "N" 
			},
			{
				"x": 0.7313983702,
				"y": 3.282495625,
				"z": -0.7906069928,
				"element": "C" 
			},
			{
				"x": 1.6266814111,
				"y": 4.4970546895,
				"z": -0.5225198167,
				"element": "C" 
			},
			{
				"x": 2.8100479436,
				"y": 4.1146327211,
				"z": 0.1684593734,
				"element": "O" 
			},
			{
				"x": 2.5047536577,
				"y": 3.4875847161,
				"z": 1.4097390094,
				"element": "C" 
			},
			{
				"x": 1.6346584871,
				"y": 2.2478180553,
				"z": 1.1890820616,
				"element": "C" 
			},
			{
				"x": -0.3482016622,
				"y": -1.630883337,
				"z": 0.1592612883,
				"element": "C" 
			},
			{
				"x": 0.775401331,
				"y": -0.8798396706,
				"z": -0.0414559651,
				"element": "F" 
			},
			{
				"x": -0.2746058404,
				"y": -3.0095712543,
				"z": 0.1112123979,
				"element": "C" 
			},
			{
				"x": -1.427662186,
				"y": -3.7664660275,
				"z": 0.3223006537,
				"element": "C" 
			},
			{
				"x": -3.6871053847,
				"y": -4.8119557755,
				"z": 1.0804387477,
				"element": "H" 
			},
			{
				"x": -4.5614913805,
				"y": -3.3957542997,
				"z": 1.2372764018,
				"element": "H" 
			},
			{
				"x": -3.6361350765,
				"y": -1.2075687626,
				"z": 0.8274847003,
				"element": "H" 
			},
			{
				"x": -0.5967609486,
				"y": 0.8803825717,
				"z": 0.2449041962,
				"element": "H" 
			},
			{
				"x": -2.1644328911,
				"y": 3.118624492,
				"z": -0.3673634009,
				"element": "H" 
			},
			{
				"x": -2.8457620513,
				"y": 3.3520172949,
				"z": 1.2321712842,
				"element": "H" 
			},
			{
				"x": -0.6081988771,
				"y": 4.2323925407,
				"z": 1.3218170657,
				"element": "H" 
			},
			{
				"x": -0.6108516246,
				"y": 2.7425712702,
				"z": 2.2543249256,
				"element": "H" 
			},
			{
				"x": 1.2615609952,
				"y": 2.5961837308,
				"z": -1.4619269646,
				"element": "H" 
			},
			{
				"x": -0.1908129328,
				"y": 3.589091001,
				"z": -1.2951541373,
				"element": "H" 
			},
			{
				"x": 1.9479120459,
				"y": 4.9539752687,
				"z": -1.4636847688,
				"element": "H" 
			},
			{
				"x": 1.0822881288,
				"y": 5.2627219757,
				"z": 0.0561992697,
				"element": "H" 
			},
			{
				"x": 1.9993615525,
				"y": 4.202558635,
				"z": 2.08175129,
				"element": "H" 
			},
			{
				"x": 3.4621870786,
				"y": 3.2150550809,
				"z": 1.864539328,
				"element": "H" 
			},
			{
				"x": 1.3722923394,
				"y": 1.7797632,
				"z": 2.1437974643,
				"element": "H" 
			},
			{
				"x": 2.2047882107,
				"y": 1.5135268142,
				"z": 0.6076438431,
				"element": "H" 
			},
			{
				"x": 0.6818902667,
				"y": -3.4809164785,
				"z": -0.0885296412,
				"element": "H" 
			},
			{
				"x": -1.3793105283,
				"y": -4.8507330296,
				"z": 0.2789563093,
				"element": "H" 
			}
		],
		 "valence_orbital": [ 
			{
				"type": "occ",
				"energy": -0.27887,
				"method": "rhf"
			},
			{
				"type": "occ",
				"energy": -0.24212,
				"method": "rhf"
			},
			{
				"type": "occ",
				"energy": -0.22073,
				"method": "rhf"
			},
			{
				"type": "occ",
				"energy": -0.21881,
				"method": "rhf"
			},
			{
				"type": "occ",
				"energy": -0.18979,
				"method": "rhf"
			},
			{
				"type": "unocc",
				"energy": -0.00606,
				"method": "rhf"
			},
			{
				"type": "unocc",
				"energy": 0.02347,
				"method": "rhf"
			},
			{
				"type": "unocc",
				"energy": 0.05158,
				"method": "rhf"
			},
			{
				"type": "unocc",
				"energy": 0.07194,
				"method": "rhf"
			},
			{
				"type": "unocc",
				"energy": 0.08445,
				"method": "rhf"
			}
		],
		"cosmo_sigma_profile": { 
			"-0.025": 0.0,
			"-0.024": 0.0,
			"-0.023": 0.0,
			"-0.022": 0.0,
			"-0.021": 0.0,
			"-0.02": 0.0,
			"-0.019": 0.0,
			"-0.018": 0.0,
			"-0.017": 0.0,
			"-0.016": 0.0,
			"-0.015": 0.0,
			"-0.014": 0.0,
			"-0.013": 0.124235372829,
			"-0.012": 2.15088840495,
			"-0.011": 2.90396154336,
			"-0.01": 2.82923143629,
			"-0.009": 2.85166170126,
			"-0.008": 3.38462186952,
			"-0.007": 4.4501576295,
			"-0.006": 10.8502408108,
			"-0.005": 24.4581396212,
			"-0.004": 34.1178742866,
			"-0.003": 35.1780016174,
			"-0.002": 24.1268613854,
			"-0.001": 18.3785690661,
			"0.0": 14.2256336902,
			"0.001": 12.6211378657,
			"0.002": 17.3393155889,
			"0.003": 15.9352213683,
			"0.004": 16.3522989179,
			"0.005": 17.9190817655,
			"0.006": 8.87072996399,
			"0.007": 4.52247832915,
			"0.008": 3.67686608204,
			"0.009": 3.31405726842,
			"0.01": 3.1526709563,
			"0.011": 3.39641498891,
			"0.012": 5.19909265592,
			"0.013": 5.68100734676,
			"0.014": 3.58914456292,
			"0.015": 0.979224850946,
			"0.016": 0.0366675939068,
			"0.017": 0.0,
			"0.018": 0.0,
			"0.019": 0.0,
			"0.02": 0.0,
			"0.021": 0.0,
			"0.022": 0.0,
			"0.023": 0.0,
			"0.024": 0.0,
			"0.025": 0.0
		}
	}
}
