{
	 "smiles": "CN(C)S(=O)(=O)C1=CC(NC(=S)NN)=CC=C1", 
	 "Tm": 429.15, 
	 "num_atms": 31, 
	 "gaussian": { 
		 "optdone": 1, 
		 "sigma_profile": "yes", 
		 "theory": "DFT", 
		 "functional": "B3LYP", 
		 "basiset": "6-31G**", 
		 "properties": { 
			 "R2extent": 8474.709, 
			 "electric_dipole_moment_norm": 5.05567544844, 
			 "electric_quadrupole_moment_norm": 28.6372845556, 
			 "total_energy": -1517.12439776, 
			 "HOMO_LUMO_gap": 0.16176, 
			 "cosmo_polarized_energy": -25.26, 
			 "cosmo_cavitation_energy": 37.1, 
			 "cosmo_dispersion_energy": -26.25, 
			 "cosmo_repulsion_energy": 1.97, 
			 "cosmo_total_nonelectrostatic_energy": 12.82, 
			 "SMD_solvation_energy": 4.21 
		},
		"coords": [
			{
				"x": 1.2655695699,
				"y": 0.0014526019,
				"z": -1.9780552554,
				"element": "C" 
			},
			{
				"x": 1.0333376202,
				"y": -1.1274217153,
				"z": -1.0736244045,
				"element": "N" 
			},
			{
				"x": 0.5328876642,
				"y": -2.3474167047,
				"z": -1.712475946,
				"element": "C" 
			},
			{
				"x": 0.4014064792,
				"y": -0.7535196748,
				"z": 0.4431814827,
				"element": "S" 
			},
			{
				"x": 1.1373243688,
				"y": 0.4171003864,
				"z": 0.9226151073,
				"element": "O" 
			},
			{
				"x": 0.3534821308,
				"y": -2.0096603893,
				"z": 1.1956322501,
				"element": "O" 
			},
			{
				"x": -1.3083304497,
				"y": -0.2359179408,
				"z": 0.1929423497,
				"element": "C" 
			},
			{
				"x": -2.3007757305,
				"y": -1.217931441,
				"z": 0.1648520187,
				"element": "C" 
			},
			{
				"x": -3.6362378996,
				"y": -0.8349498168,
				"z": -0.0169673513,
				"element": "C" 
			},
			{
				"x": -4.700411845,
				"y": -1.7631562387,
				"z": -0.0572114477,
				"element": "N" 
			},
			{
				"x": -4.6919519557,
				"y": -3.1152871201,
				"z": 0.2410042464,
				"element": "C" 
			},
			{
				"x": -5.589263346,
				"y": -4.200283967,
				"z": -0.666256611,
				"element": "S" 
			},
			{
				"x": -3.9603597201,
				"y": -3.5175689394,
				"z": 1.321207119,
				"element": "N" 
			},
			{
				"x": -3.6947851222,
				"y": -2.736285425,
				"z": 2.4654059332,
				"element": "N" 
			},
			{
				"x": -3.9406131554,
				"y": 0.523614776,
				"z": -0.207372858,
				"element": "C" 
			},
			{
				"x": -2.9322710144,
				"y": 1.4831048546,
				"z": -0.196904885,
				"element": "C" 
			},
			{
				"x": -1.6011170448,
				"y": 1.1163880879,
				"z": 0.0146914122,
				"element": "C" 
			},
			{
				"x": 1.9718858214,
				"y": -0.3229944129,
				"z": -2.7474772127,
				"element": "H" 
			},
			{
				"x": 1.7136385953,
				"y": 0.824294495,
				"z": -1.4219698878,
				"element": "H" 
			},
			{
				"x": 0.344636516,
				"y": 0.3462870168,
				"z": -2.4727449951,
				"element": "H" 
			},
			{
				"x": 0.4705681245,
				"y": -3.1445430179,
				"z": -0.9723953796,
				"element": "H" 
			},
			{
				"x": 1.2521111468,
				"y": -2.6440142042,
				"z": -2.4811879647,
				"element": "H" 
			},
			{
				"x": -0.4488671763,
				"y": -2.2065264198,
				"z": -2.1897528884,
				"element": "H" 
			},
			{
				"x": -2.0342734681,
				"y": -2.2609399493,
				"z": 0.2871157379,
				"element": "H" 
			},
			{
				"x": -5.4236654859,
				"y": -1.5487489728,
				"z": -0.7320741917,
				"element": "H" 
			},
			{
				"x": -4.0549856339,
				"y": -4.5053458854,
				"z": 1.5207649771,
				"element": "H" 
			},
			{
				"x": -2.8161337428,
				"y": -2.235740744,
				"z": 2.3481528734,
				"element": "H" 
			},
			{
				"x": -4.4398091052,
				"y": -2.0551251896,
				"z": 2.5946278814,
				"element": "H" 
			},
			{
				"x": -4.975900016,
				"y": 0.8216549071,
				"z": -0.3484136959,
				"element": "H" 
			},
			{
				"x": -3.1891659532,
				"y": 2.5289287891,
				"z": -0.3344371083,
				"element": "H" 
			},
			{
				"x": -0.8112301722,
				"y": 1.8558522541,
				"z": 0.0733286941,
				"element": "H" 
			}
		],
		 "valence_orbital": [ 
			{
				"type": "occ",
				"energy": -0.28386,
				"method": "rhf"
			},
			{
				"type": "occ",
				"energy": -0.26467,
				"method": "rhf"
			},
			{
				"type": "occ",
				"energy": -0.25702,
				"method": "rhf"
			},
			{
				"type": "occ",
				"energy": -0.23162,
				"method": "rhf"
			},
			{
				"type": "occ",
				"energy": -0.21657,
				"method": "rhf"
			},
			{
				"type": "unocc",
				"energy": -0.05481,
				"method": "rhf"
			},
			{
				"type": "unocc",
				"energy": -0.05008,
				"method": "rhf"
			},
			{
				"type": "unocc",
				"energy": -0.0101,
				"method": "rhf"
			},
			{
				"type": "unocc",
				"energy": 0.04953,
				"method": "rhf"
			},
			{
				"type": "unocc",
				"energy": 0.05654,
				"method": "rhf"
			}
		],
		"cosmo_sigma_profile": { 
			"-0.025": 0.0,
			"-0.024": 0.0,
			"-0.023": 0.0,
			"-0.022": 0.0,
			"-0.021": 0.0,
			"-0.02": 0.0,
			"-0.019": 0.0,
			"-0.018": 0.0,
			"-0.017": 0.0,
			"-0.016": 0.0282749118108,
			"-0.015": 0.685597246909,
			"-0.014": 1.53002502538,
			"-0.013": 2.32733264964,
			"-0.012": 3.6558249718,
			"-0.011": 2.5481862492,
			"-0.01": 3.83674065946,
			"-0.009": 4.64014910538,
			"-0.008": 5.28028550275,
			"-0.007": 9.7219050666,
			"-0.006": 16.0450654305,
			"-0.005": 19.9297329352,
			"-0.004": 25.6646512999,
			"-0.003": 30.040727776,
			"-0.002": 23.2735015984,
			"-0.001": 14.6835350619,
			"0.0": 13.1434635922,
			"0.001": 13.1322279147,
			"0.002": 12.5762144055,
			"0.003": 9.32586956137,
			"0.004": 7.71531792871,
			"0.005": 7.9474951343,
			"0.006": 7.66164392312,
			"0.007": 8.03598993892,
			"0.008": 9.78137134543,
			"0.009": 11.0261841729,
			"0.01": 13.2286317988,
			"0.011": 12.7277057723,
			"0.012": 4.88426626598,
			"0.013": 0.605419630128,
			"0.014": 0.550029502469,
			"0.015": 0.42646288732,
			"0.016": 0.0,
			"0.017": 0.0,
			"0.018": 0.0,
			"0.019": 0.0,
			"0.02": 0.0,
			"0.021": 0.0,
			"0.022": 0.0,
			"0.023": 0.0,
			"0.024": 0.0,
			"0.025": 0.0
		}
	}
}
