{
	 "smiles": "CC1=CC=C(SCCC(O)=O)C=C1", 
	 "Tm": 345.15, 
	 "num_atms": 25, 
	 "gaussian": { 
		 "optdone": 1, 
		 "sigma_profile": "yes", 
		 "theory": "DFT", 
		 "functional": "B3LYP", 
		 "basiset": "6-31G**", 
		 "properties": { 
			 "R2extent": 5315.3515, 
			 "electric_dipole_moment_norm": 4.35891270043, 
			 "electric_quadrupole_moment_norm": 27.0663331397, 
			 "total_energy": -936.94700871, 
			 "HOMO_LUMO_gap": 0.20404, 
			 "cosmo_polarized_energy": -16.29, 
			 "cosmo_cavitation_energy": 30.9, 
			 "cosmo_dispersion_energy": -22.06, 
			 "cosmo_repulsion_energy": 1.74, 
			 "cosmo_total_nonelectrostatic_energy": 10.59, 
			 "SMD_solvation_energy": 5.88 
		},
		"coords": [
			{
				"x": 1.2402171335,
				"y": -3.0562992304,
				"z": -0.958498712,
				"element": "C" 
			},
			{
				"x": 0.5118821137,
				"y": -2.0032089414,
				"z": -0.1576322649,
				"element": "C" 
			},
			{
				"x": 0.1469800943,
				"y": -0.7788331914,
				"z": -0.7282937814,
				"element": "C" 
			},
			{
				"x": -0.5028804134,
				"y": 0.2042334598,
				"z": 0.0214628158,
				"element": "C" 
			},
			{
				"x": -0.8189280489,
				"y": -0.0256117234,
				"z": 1.3652609646,
				"element": "C" 
			},
			{
				"x": -1.7197728827,
				"y": 1.2163632929,
				"z": 2.2987083712,
				"element": "S" 
			},
			{
				"x": -0.4697857109,
				"y": 1.7020432565,
				"z": 3.5580024671,
				"element": "C" 
			},
			{
				"x": 0.7266727823,
				"y": 2.4482991219,
				"z": 2.9733672363,
				"element": "C" 
			},
			{
				"x": 1.7442636219,
				"y": 2.8315373232,
				"z": 4.0413995272,
				"element": "C" 
			},
			{
				"x": 2.8343698855,
				"y": 3.5092060546,
				"z": 3.5884820772,
				"element": "O" 
			},
			{
				"x": 1.6356029389,
				"y": 2.5760304441,
				"z": 5.2142881395,
				"element": "O" 
			},
			{
				"x": -0.4749293613,
				"y": -1.2578118096,
				"z": 1.941532628,
				"element": "C" 
			},
			{
				"x": 0.1903818589,
				"y": -2.2233691158,
				"z": 1.1909813977,
				"element": "C" 
			},
			{
				"x": 0.8071983956,
				"y": -4.0494380595,
				"z": -0.7994444629,
				"element": "H" 
			},
			{
				"x": 1.2051345948,
				"y": -2.8403329547,
				"z": -2.0298142182,
				"element": "H" 
			},
			{
				"x": 2.296262645,
				"y": -3.115990887,
				"z": -0.6677158725,
				"element": "H" 
			},
			{
				"x": 0.3781824275,
				"y": -0.5856973344,
				"z": -1.7729748552,
				"element": "H" 
			},
			{
				"x": -0.772115064,
				"y": 1.1509319886,
				"z": -0.4367717402,
				"element": "H" 
			},
			{
				"x": -0.1391553375,
				"y": 0.8194687592,
				"z": 4.109237776,
				"element": "H" 
			},
			{
				"x": -1.0095774645,
				"y": 2.3363263827,
				"z": 4.2657131508,
				"element": "H" 
			},
			{
				"x": 0.3931706937,
				"y": 3.3567031905,
				"z": 2.4549623691,
				"element": "H" 
			},
			{
				"x": 1.2265246924,
				"y": 1.8278162525,
				"z": 2.2177931508,
				"element": "H" 
			},
			{
				"x": 2.7768858638,
				"y": 3.6346871187,
				"z": 2.6304708087,
				"element": "H" 
			},
			{
				"x": -0.7395892364,
				"y": -1.4618214955,
				"z": 2.974845304,
				"element": "H" 
			},
			{
				"x": 0.4507037779,
				"y": -3.172031902,
				"z": 1.6545377235,
				"element": "H" 
			}
		],
		 "valence_orbital": [ 
			{
				"type": "occ",
				"energy": -0.31718,
				"method": "rhf"
			},
			{
				"type": "occ",
				"energy": -0.27669,
				"method": "rhf"
			},
			{
				"type": "occ",
				"energy": -0.26041,
				"method": "rhf"
			},
			{
				"type": "occ",
				"energy": -0.25669,
				"method": "rhf"
			},
			{
				"type": "occ",
				"energy": -0.22489,
				"method": "rhf"
			},
			{
				"type": "unocc",
				"energy": -0.02085,
				"method": "rhf"
			},
			{
				"type": "unocc",
				"energy": -0.0125,
				"method": "rhf"
			},
			{
				"type": "unocc",
				"energy": 0.008,
				"method": "rhf"
			},
			{
				"type": "unocc",
				"energy": 0.04499,
				"method": "rhf"
			},
			{
				"type": "unocc",
				"energy": 0.0528,
				"method": "rhf"
			}
		],
		"cosmo_sigma_profile": { 
			"-0.025": 0.0,
			"-0.024": 0.0,
			"-0.023": 0.0,
			"-0.022": 0.0,
			"-0.021": 0.0,
			"-0.02": 0.0,
			"-0.019": 0.744969423015,
			"-0.018": 0.985611110852,
			"-0.017": 1.11560571057,
			"-0.016": 1.27211477909,
			"-0.015": 0.936289107361,
			"-0.014": 1.13893958412,
			"-0.013": 0.944703362096,
			"-0.012": 1.04306892803,
			"-0.011": 1.47800188856,
			"-0.01": 1.52398464982,
			"-0.009": 1.34946740646,
			"-0.008": 2.00319138669,
			"-0.007": 3.13507625271,
			"-0.006": 10.9012301563,
			"-0.005": 18.2974750024,
			"-0.004": 20.9401078504,
			"-0.003": 18.468330102,
			"-0.002": 17.9254065922,
			"-0.001": 18.3696310352,
			"0.0": 18.5899800339,
			"0.001": 14.7615299791,
			"0.002": 11.6504871294,
			"0.003": 12.417701635,
			"0.004": 12.8635943783,
			"0.005": 13.6820255041,
			"0.006": 6.81748087505,
			"0.007": 4.91686984721,
			"0.008": 4.74901623004,
			"0.009": 4.78097227825,
			"0.01": 6.19452478891,
			"0.011": 5.22737832664,
			"0.012": 5.35474425341,
			"0.013": 1.53342987431,
			"0.014": 0.00748637758077,
			"0.015": 0.0,
			"0.016": 0.0,
			"0.017": 0.0,
			"0.018": 0.0,
			"0.019": 0.0,
			"0.02": 0.0,
			"0.021": 0.0,
			"0.022": 0.0,
			"0.023": 0.0,
			"0.024": 0.0,
			"0.0": 0.0
		}
	}
}
