{
	 "smiles": "OCC1=CC=C(C=C1)C1=CN=CN=C1", 
	 "Tm": 401.15, 
	 "num_atms": 24, 
	 "gaussian": { 
		 "optdone": 1, 
		 "sigma_profile": "yes", 
		 "theory": "DFT", 
		 "functional": "B3LYP", 
		 "basiset": "6-31G**", 
		 "properties": { 
			 "R2extent": 4676.9245, 
			 "electric_dipole_moment_norm": 2.46439912555, 
			 "electric_quadrupole_moment_norm": 15.2107673853, 
			 "total_energy": -609.909444933, 
			 "HOMO_LUMO_gap": 0.19066, 
			 "cosmo_polarized_energy": -12.31, 
			 "cosmo_cavitation_energy": 28.42, 
			 "cosmo_dispersion_energy": -20.89, 
			 "cosmo_repulsion_energy": 1.62, 
			 "cosmo_total_nonelectrostatic_energy": 9.15, 
			 "SMD_solvation_energy": 1.87 
		},
		"coords": [
			{
				"x": -1.3031914856,
				"y": 3.405378416,
				"z": -3.2497975196,
				"element": "O" 
			},
			{
				"x": -1.057060709,
				"y": 2.1613158586,
				"z": -3.8876272585,
				"element": "C" 
			},
			{
				"x": -0.4060279574,
				"y": 1.1296230094,
				"z": -2.9858394229,
				"element": "C" 
			},
			{
				"x": 0.4103212161,
				"y": 0.1241026883,
				"z": -3.5167611795,
				"element": "C" 
			},
			{
				"x": 0.9810729823,
				"y": -0.8425690676,
				"z": -2.6925180508,
				"element": "C" 
			},
			{
				"x": 0.7564557626,
				"y": -0.8288867006,
				"z": -1.3054402382,
				"element": "C" 
			},
			{
				"x": -0.0587347695,
				"y": 0.1861072616,
				"z": -0.7765781656,
				"element": "C" 
			},
			{
				"x": -0.630477356,
				"y": 1.1492224758,
				"z": -1.6042036598,
				"element": "C" 
			},
			{
				"x": 1.365179898,
				"y": -1.8512240718,
				"z": -0.4272188414,
				"element": "C" 
			},
			{
				"x": 1.8548695831,
				"y": -1.5544184059,
				"z": 0.8539908125,
				"element": "C" 
			},
			{
				"x": 2.4013360045,
				"y": -2.4696081063,
				"z": 1.6591349126,
				"element": "N" 
			},
			{
				"x": 2.4726059803,
				"y": -3.7124253863,
				"z": 1.1706703583,
				"element": "C" 
			},
			{
				"x": 2.0508924245,
				"y": -4.1271794084,
				"z": -0.0286898468,
				"element": "N" 
			},
			{
				"x": 1.4981428231,
				"y": -3.194928845,
				"z": -0.8095799303,
				"element": "C" 
			},
			{
				"x": -0.4521003804,
				"y": 3.7538089875,
				"z": -2.9518773347,
				"element": "H" 
			},
			{
				"x": -0.4537977483,
				"y": 2.2847888099,
				"z": -4.8009878959,
				"element": "H" 
			},
			{
				"x": -2.0434665734,
				"y": 1.8052838431,
				"z": -4.2091862896,
				"element": "H" 
			},
			{
				"x": 0.6127919458,
				"y": 0.1026408684,
				"z": -4.5851670658,
				"element": "H" 
			},
			{
				"x": 1.6345514845,
				"y": -1.5953846556,
				"z": -3.1238110192,
				"element": "H" 
			},
			{
				"x": -0.2683379599,
				"y": 0.2053686535,
				"z": 0.2891323132,
				"element": "H" 
			},
			{
				"x": -1.2624561103,
				"y": 1.9265630961,
				"z": -1.1862619583,
				"element": "H" 
			},
			{
				"x": 1.8183729681,
				"y": -0.5345085151,
				"z": 1.2341267567,
				"element": "H" 
			},
			{
				"x": 2.9200504979,
				"y": -4.4649749315,
				"z": 1.8168290461,
				"element": "H" 
			},
			{
				"x": 1.1272074792,
				"y": -3.5306958741,
				"z": -1.7769385223,
				"element": "H" 
			}
		],
		 "valence_orbital": [ 
			{
				"type": "occ",
				"energy": -0.30142,
				"method": "rhf"
			},
			{
				"type": "occ",
				"energy": -0.28361,
				"method": "rhf"
			},
			{
				"type": "occ",
				"energy": -0.26428,
				"method": "rhf"
			},
			{
				"type": "occ",
				"energy": -0.25371,
				"method": "rhf"
			},
			{
				"type": "occ",
				"energy": -0.23965,
				"method": "rhf"
			},
			{
				"type": "unocc",
				"energy": -0.04899,
				"method": "rhf"
			},
			{
				"type": "unocc",
				"energy": -0.04253,
				"method": "rhf"
			},
			{
				"type": "unocc",
				"energy": -0.01645,
				"method": "rhf"
			},
			{
				"type": "unocc",
				"energy": 0.00559,
				"method": "rhf"
			},
			{
				"type": "unocc",
				"energy": 0.07737,
				"method": "rhf"
			}
		],
		"cosmo_sigma_profile": { 
			"-0.025": 0.0,
			"-0.024": 0.0,
			"-0.023": 0.0,
			"-0.022": 0.0,
			"-0.021": 0.0,
			"-0.02": 0.0,
			"-0.019": 0.0,
			"-0.018": 0.0,
			"-0.017": 0.0,
			"-0.016": 0.211373027701,
			"-0.015": 0.963820158385,
			"-0.014": 0.909440406624,
			"-0.013": 0.942253279998,
			"-0.012": 0.508600544927,
			"-0.011": 1.06461262347,
			"-0.01": 0.990698200978,
			"-0.009": 0.765831064728,
			"-0.008": 1.88552731457,
			"-0.007": 9.22293155485,
			"-0.006": 13.7453950084,
			"-0.005": 17.9715284508,
			"-0.004": 17.7507129107,
			"-0.003": 15.8155710996,
			"-0.002": 15.6778354728,
			"-0.001": 19.0476308968,
			"0.0": 19.4438225474,
			"0.001": 13.6859416403,
			"0.002": 9.75339203541,
			"0.003": 12.6705006397,
			"0.004": 13.0130635247,
			"0.005": 9.49632134617,
			"0.006": 4.17963844077,
			"0.007": 4.52250548994,
			"0.008": 2.2266675343,
			"0.009": 1.92631469902,
			"0.01": 4.07265865746,
			"0.011": 2.83636366709,
			"0.012": 3.21897596073,
			"0.013": 3.43823242246,
			"0.014": 3.47482666881,
			"0.015": 1.5959983495,
			"0.016": 0.307473909941,
			"0.017": 0.0,
			"0.018": 0.0,
			"0.019": 0.0,
			"0.02": 0.0,
			"0.021": 0.0,
			"0.022": 0.0,
			"0.023": 0.0,
			"0.024": 0.0,
			"0.025": 0.0
		}
	}
}
