{
	 "smiles": "CCOC(=O)C1=C(C)N2N=C(C)N=C2S1", 
	 "Tm": 361.15, 
	 "num_atms": 26, 
	 "gaussian": { 
		 "optdone": 1, 
		 "sigma_profile": "yes", 
		 "theory": "DFT", 
		 "functional": "B3LYP", 
		 "basiset": "6-31G**", 
		 "properties": { 
			 "R2extent": 4640.125, 
			 "electric_dipole_moment_norm": 1.69509511533, 
			 "electric_quadrupole_moment_norm": 11.4151323475, 
			 "total_energy": -1062.47987283, 
			 "HOMO_LUMO_gap": 0.17925, 
			 "cosmo_polarized_energy": -9.61, 
			 "cosmo_cavitation_energy": 32.08, 
			 "cosmo_dispersion_energy": -23.87, 
			 "cosmo_repulsion_energy": 1.85, 
			 "cosmo_total_nonelectrostatic_energy": 10.06, 
			 "SMD_solvation_energy": 3.68 
		},
		"coords": [
			{
				"x": 3.2228283659,
				"y": 3.4487713189,
				"z": -2.0833194468,
				"element": "C" 
			},
			{
				"x": 1.741737339,
				"y": 3.5301312484,
				"z": -1.768700925,
				"element": "C" 
			},
			{
				"x": 1.4002544168,
				"y": 2.3638370996,
				"z": -0.9817309709,
				"element": "O" 
			},
			{
				"x": 0.1083876349,
				"y": 2.2610994304,
				"z": -0.6003701018,
				"element": "C" 
			},
			{
				"x": -0.7473657435,
				"y": 3.0804781936,
				"z": -0.8823310345,
				"element": "O" 
			},
			{
				"x": -0.1069937076,
				"y": 1.0401217119,
				"z": 0.1883913964,
				"element": "C" 
			},
			{
				"x": -1.2923959047,
				"y": 0.6186907086,
				"z": 0.7355284323,
				"element": "C" 
			},
			{
				"x": -2.6495581278,
				"y": 1.2349575138,
				"z": 0.7005700818,
				"element": "C" 
			},
			{
				"x": -1.0992260656,
				"y": -0.5737771093,
				"z": 1.4057870058,
				"element": "N" 
			},
			{
				"x": -1.9366862454,
				"y": -1.3889297246,
				"z": 2.1050323018,
				"element": "N" 
			},
			{
				"x": -1.1044991801,
				"y": -2.3615892581,
				"z": 2.4853286091,
				"element": "C" 
			},
			{
				"x": -1.5658788828,
				"y": -3.5260594311,
				"z": 3.302181099,
				"element": "C" 
			},
			{
				"x": 0.2041487999,
				"y": -2.2268250165,
				"z": 2.079833635,
				"element": "N" 
			},
			{
				"x": 0.1665222881,
				"y": -1.0946333971,
				"z": 1.4062625901,
				"element": "C" 
			},
			{
				"x": 1.2539934215,
				"y": -0.0687561079,
				"z": 0.5189346208,
				"element": "S" 
			},
			{
				"x": 3.4531000191,
				"y": 2.5439403575,
				"z": -2.6527623338,
				"element": "H" 
			},
			{
				"x": 3.818187998,
				"y": 3.4407394428,
				"z": -1.1659923966,
				"element": "H" 
			},
			{
				"x": 3.5208025942,
				"y": 4.3164516499,
				"z": -2.6798701542,
				"element": "H" 
			},
			{
				"x": 1.4893347762,
				"y": 4.4259715962,
				"z": -1.1930847829,
				"element": "H" 
			},
			{
				"x": 1.1259325254,
				"y": 3.5335476515,
				"z": -2.6733414323,
				"element": "H" 
			},
			{
				"x": -2.6247487164,
				"y": 2.1633150099,
				"z": 0.1341362657,
				"element": "H" 
			},
			{
				"x": -3.3627134185,
				"y": 0.5376882059,
				"z": 0.2477474149,
				"element": "H" 
			},
			{
				"x": -2.9965467803,
				"y": 1.4275091712,
				"z": 1.7215632948,
				"element": "H" 
			},
			{
				"x": -1.9777679645,
				"y": -3.1931199388,
				"z": 4.2598806063,
				"element": "H" 
			},
			{
				"x": -2.3511780592,
				"y": -4.0824136265,
				"z": 2.7812410168,
				"element": "H" 
			},
			{
				"x": -0.7240713827,
				"y": -4.1932467002,
				"z": 3.4910852082,
				"element": "H" 
			}
		],
		 "valence_orbital": [ 
			{
				"type": "occ",
				"energy": -0.31086,
				"method": "rhf"
			},
			{
				"type": "occ",
				"energy": -0.28863,
				"method": "rhf"
			},
			{
				"type": "occ",
				"energy": -0.28269,
				"method": "rhf"
			},
			{
				"type": "occ",
				"energy": -0.25173,
				"method": "rhf"
			},
			{
				"type": "occ",
				"energy": -0.23844,
				"method": "rhf"
			},
			{
				"type": "unocc",
				"energy": -0.05919,
				"method": "rhf"
			},
			{
				"type": "unocc",
				"energy": 0.00517,
				"method": "rhf"
			},
			{
				"type": "unocc",
				"energy": 0.01703,
				"method": "rhf"
			},
			{
				"type": "unocc",
				"energy": 0.04718,
				"method": "rhf"
			},
			{
				"type": "unocc",
				"energy": 0.0685,
				"method": "rhf"
			}
		],
		"cosmo_sigma_profile": { 
			"-0.025": 0.0,
			"-0.024": 0.0,
			"-0.023": 0.0,
			"-0.022": 0.0,
			"-0.021": 0.0,
			"-0.02": 0.0,
			"-0.019": 0.0,
			"-0.018": 0.0,
			"-0.017": 0.0,
			"-0.016": 0.0,
			"-0.015": 0.0,
			"-0.014": 0.0,
			"-0.013": 0.0,
			"-0.012": 0.0,
			"-0.011": 0.0,
			"-0.01": 0.0,
			"-0.009": 0.0,
			"-0.008": 0.0,
			"-0.007": 0.952056012389,
			"-0.006": 7.29292199134,
			"-0.005": 17.8132103216,
			"-0.004": 27.0778293032,
			"-0.003": 31.6071813704,
			"-0.002": 32.7182505911,
			"-0.001": 31.4862467953,
			"0.0": 25.0613594213,
			"0.001": 13.869960289,
			"0.002": 13.6987551129,
			"0.003": 10.2310452002,
			"0.004": 8.37175166363,
			"0.005": 6.06481062319,
			"0.006": 4.54112532253,
			"0.007": 2.52623674876,
			"0.008": 4.11208338136,
			"0.009": 3.35910585421,
			"0.01": 4.56165125858,
			"0.011": 5.4600618598,
			"0.012": 2.12566745034,
			"0.013": 2.36318416231,
			"0.014": 1.16797212929,
			"0.015": 0.761118134717,
			"0.016": 0.381831571465,
			"0.017": 0.0,
			"0.018": 0.0,
			"0.019": 0.0,
			"0.02": 0.0,
			"0.021": 0.0,
			"0.022": 0.0,
			"0.023": 0.0,
			"0.024": 0.0,
			"0.025": 0.0
		}
	}
}
