{
	 "smiles": "CSCCC(NC(=O)C1=C(Br)C=CC=C1)C(O)=O", 
	 "Tm": 445.15, 
	 "num_atms": 32, 
	 "gaussian": { 
		 "optdone": 1, 
		 "sigma_profile": "yes", 
		 "theory": "DFT", 
		 "functional": "B3LYP", 
		 "basiset": "6-31G**", 
		 "properties": { 
			 "R2extent": 7687.2812, 
			 "electric_dipole_moment_norm": 6.13903178115, 
			 "electric_quadrupole_moment_norm": 20.8429150996, 
			 "total_energy": -3715.75661797, 
			 "HOMO_LUMO_gap": 0.2077, 
			 "cosmo_polarized_energy": -21.63, 
			 "cosmo_cavitation_energy": 40.22, 
			 "cosmo_dispersion_energy": -27.41, 
			 "cosmo_repulsion_energy": 2.15, 
			 "cosmo_total_nonelectrostatic_energy": 14.96, 
			 "SMD_solvation_energy": 6.86 
		},
		"coords": [
			{
				"x": -2.9348807428,
				"y": -2.9269193471,
				"z": 1.1873862756,
				"element": "C" 
			},
			{
				"x": -2.5880116234,
				"y": -1.419720538,
				"z": 0.2152504682,
				"element": "S" 
			},
			{
				"x": -3.2516736209,
				"y": -0.12995502,
				"z": 1.3514395166,
				"element": "C" 
			},
			{
				"x": -2.3865471342,
				"y": 0.201425816,
				"z": 2.5777624058,
				"element": "C" 
			},
			{
				"x": -1.2256359535,
				"y": 1.1810612454,
				"z": 2.3134348017,
				"element": "C" 
			},
			{
				"x": -0.2839250228,
				"y": 0.6689084195,
				"z": 1.3387027278,
				"element": "N" 
			},
			{
				"x": 0.6933837086,
				"y": 1.4917974576,
				"z": 0.8501958367,
				"element": "C" 
			},
			{
				"x": 0.817937986,
				"y": 2.6495881957,
				"z": 1.2291586742,
				"element": "O" 
			},
			{
				"x": 1.6268786208,
				"y": 0.8377133252,
				"z": -0.136706906,
				"element": "C" 
			},
			{
				"x": 1.9380781929,
				"y": 1.3953347449,
				"z": -1.3845062784,
				"element": "C" 
			},
			{
				"x": 1.085620407,
				"y": 2.9878662513,
				"z": -2.0049251955,
				"element": "Br" 
			},
			{
				"x": 2.8547840407,
				"y": 0.7801672999,
				"z": -2.2365977685,
				"element": "C" 
			},
			{
				"x": 3.4859163619,
				"y": -0.4003779986,
				"z": -1.8439419114,
				"element": "C" 
			},
			{
				"x": 3.1932534432,
				"y": -0.9709514823,
				"z": -0.6054996441,
				"element": "C" 
			},
			{
				"x": 2.2667024317,
				"y": -0.3552353708,
				"z": 0.2338242652,
				"element": "C" 
			},
			{
				"x": -0.5774371431,
				"y": 1.5266010974,
				"z": 3.6587194722,
				"element": "C" 
			},
			{
				"x": 0.5603513793,
				"y": 0.8426016425,
				"z": 3.9027632031,
				"element": "O" 
			},
			{
				"x": -1.0786911634,
				"y": 2.2879097732,
				"z": 4.4549864834,
				"element": "O" 
			},
			{
				"x": -4.0098198844,
				"y": -3.0467328679,
				"z": 1.3461920274,
				"element": "H" 
			},
			{
				"x": -2.5686419548,
				"y": -3.7706481077,
				"z": 0.5987174241,
				"element": "H" 
			},
			{
				"x": -2.4166797298,
				"y": -2.9211944116,
				"z": 2.1494896576,
				"element": "H" 
			},
			{
				"x": -3.3933581881,
				"y": 0.7575225538,
				"z": 0.7267300365,
				"element": "H" 
			},
			{
				"x": -4.2460844877,
				"y": -0.4577898207,
				"z": 1.669935305,
				"element": "H" 
			},
			{
				"x": -3.0213466436,
				"y": 0.6758520319,
				"z": 3.333879052,
				"element": "H" 
			},
			{
				"x": -1.9972737836,
				"y": -0.7190364394,
				"z": 3.0297474311,
				"element": "H" 
			},
			{
				"x": -1.6360505626,
				"y": 2.1340094292,
				"z": 1.9583296486,
				"element": "H" 
			},
			{
				"x": -0.4619073659,
				"y": -0.2315110423,
				"z": 0.9101984222,
				"element": "H" 
			},
			{
				"x": 3.0672941662,
				"y": 1.2256367024,
				"z": -3.2017091207,
				"element": "H" 
			},
			{
				"x": 4.2037980087,
				"y": -0.8693585882,
				"z": -2.5102819411,
				"element": "H" 
			},
			{
				"x": 3.6843739843,
				"y": -1.8871916375,
				"z": -0.2925923025,
				"element": "H" 
			},
			{
				"x": 2.0428747867,
				"y": -0.7815075362,
				"z": 1.2072187636,
				"element": "H" 
			},
			{
				"x": 0.8696174866,
				"y": 1.1475342224,
				"z": 4.7724991697,
				"element": "H" 
			}
		],
		 "valence_orbital": [ 
			{
				"type": "occ",
				"energy": -0.26628,
				"method": "rhf"
			},
			{
				"type": "occ",
				"energy": -0.25485,
				"method": "rhf"
			},
			{
				"type": "occ",
				"energy": -0.24865,
				"method": "rhf"
			},
			{
				"type": "occ",
				"energy": -0.24176,
				"method": "rhf"
			},
			{
				"type": "occ",
				"energy": -0.2385,
				"method": "rhf"
			},
			{
				"type": "unocc",
				"energy": -0.0308,
				"method": "rhf"
			},
			{
				"type": "unocc",
				"energy": -0.01739,
				"method": "rhf"
			},
			{
				"type": "unocc",
				"energy": 0.00654,
				"method": "rhf"
			},
			{
				"type": "unocc",
				"energy": 0.01203,
				"method": "rhf"
			},
			{
				"type": "unocc",
				"energy": 0.02535,
				"method": "rhf"
			}
		],
		"cosmo_sigma_profile": { 
			"-0.025": 0.0,
			"-0.024": 0.0,
			"-0.023": 0.0,
			"-0.022": 0.0,
			"-0.021": 0.0,
			"-0.02": 0.0,
			"-0.019": 0.147122710516,
			"-0.018": 0.860660188794,
			"-0.017": 0.794003406854,
			"-0.016": 1.4126062765,
			"-0.015": 0.320843179905,
			"-0.014": 0.796113525828,
			"-0.013": 0.619118664307,
			"-0.012": 0.484291907563,
			"-0.011": 1.21262407345,
			"-0.01": 0.623939297115,
			"-0.009": 0.306559683546,
			"-0.008": 0.871996229396,
			"-0.007": 9.45395048151,
			"-0.006": 25.3099984934,
			"-0.005": 29.5588822174,
			"-0.004": 26.1211178313,
			"-0.003": 24.6399849617,
			"-0.002": 22.5542064351,
			"-0.001": 20.4725960827,
			"0.0": 16.4093694791,
			"0.001": 17.265545998,
			"0.002": 21.887531947,
			"0.003": 22.4564254595,
			"0.004": 17.6012643465,
			"0.005": 12.2476935419,
			"0.006": 8.39067628614,
			"0.007": 6.05265982287,
			"0.008": 6.08490572118,
			"0.009": 4.25527842495,
			"0.01": 5.117787359,
			"0.011": 6.99342009452,
			"0.012": 6.4304854664,
			"0.013": 4.37531805631,
			"0.014": 1.31249475969,
			"0.015": 0.0374938770348,
			"0.016": 0.0,
			"0.017": 0.0,
			"0.018": 0.0,
			"0.019": 0.0,
			"0.02": 0.0,
			"0.021": 0.0,
			"0.022": 0.0,
			"0.023": 0.0,
			"0.024": 0.0,
			"0.025": 0.0
		}
	}
}
