{
	 "smiles": "CON(C)S(=O)(=O)C1=C(Cl)C=CC(=C1)C(O)=O", 
	 "Tm": 502.15, 
	 "num_atms": 27, 
	 "gaussian": { 
		 "optdone": 1, 
		 "sigma_profile": "yes", 
		 "theory": "DFT", 
		 "functional": "B3LYP", 
		 "basiset": "6-31G**", 
		 "properties": { 
			 "R2extent": 5897.4435, 
			 "electric_dipole_moment_norm": 6.19207861465, 
			 "electric_quadrupole_moment_norm": 31.7483474082, 
			 "total_energy": -1638.08999884, 
			 "HOMO_LUMO_gap": 0.18145, 
			 "cosmo_polarized_energy": -23.81, 
			 "cosmo_cavitation_energy": 34.64, 
			 "cosmo_dispersion_energy": -24.52, 
			 "cosmo_repulsion_energy": 1.85, 
			 "cosmo_total_nonelectrostatic_energy": 11.97, 
			 "SMD_solvation_energy": 7.35 
		},
		"coords": [
			{
				"x": -1.981193731,
				"y": 0.4666026031,
				"z": -2.3651139404,
				"element": "C" 
			},
			{
				"x": -0.5978922784,
				"y": 0.8362231767,
				"z": -2.3239587905,
				"element": "O" 
			},
			{
				"x": 0.0816830603,
				"y": 0.0666846866,
				"z": -1.3343102307,
				"element": "N" 
			},
			{
				"x": 1.3423894326,
				"y": -0.3755717163,
				"z": -1.9482988696,
				"element": "C" 
			},
			{
				"x": 0.3538362287,
				"y": 1.1572615419,
				"z": 0.0228587664,
				"element": "S" 
			},
			{
				"x": 1.5662655699,
				"y": 1.961551561,
				"z": -0.1649034189,
				"element": "O" 
			},
			{
				"x": -0.9270056068,
				"y": 1.7947340493,
				"z": 0.3132070327,
				"element": "O" 
			},
			{
				"x": 0.7388676176,
				"y": -0.0621655728,
				"z": 1.3116669127,
				"element": "C" 
			},
			{
				"x": -0.1848654623,
				"y": -0.9866217342,
				"z": 1.8328249704,
				"element": "C" 
			},
			{
				"x": -1.821279526,
				"y": -1.1237075423,
				"z": 1.2563034055,
				"element": "Cl" 
			},
			{
				"x": 0.2089402775,
				"y": -1.8517478779,
				"z": 2.8567999463,
				"element": "C" 
			},
			{
				"x": 1.4997100895,
				"y": -1.7867624371,
				"z": 3.3736077539,
				"element": "C" 
			},
			{
				"x": 2.4217922899,
				"y": -0.8607766823,
				"z": 2.8718740912,
				"element": "C" 
			},
			{
				"x": 2.0324401352,
				"y": -0.0135819951,
				"z": 1.8293416713,
				"element": "C" 
			},
			{
				"x": 3.8392449459,
				"y": -0.7618365016,
				"z": 3.3574494975,
				"element": "C" 
			},
			{
				"x": 4.0884506918,
				"y": -1.2238198489,
				"z": 4.6105209665,
				"element": "O" 
			},
			{
				"x": 4.7323871404,
				"y": -0.3088583218,
				"z": 2.684263132,
				"element": "O" 
			},
			{
				"x": -2.0916345414,
				"y": -0.6073060643,
				"z": -2.5503857859,
				"element": "H" 
			},
			{
				"x": -2.4903023135,
				"y": 0.7459279607,
				"z": -1.4401228398,
				"element": "H" 
			},
			{
				"x": -2.3922909875,
				"y": 1.0347857085,
				"z": -3.2030044262,
				"element": "H" 
			},
			{
				"x": 1.9334892862,
				"y": -0.9041881532,
				"z": -1.1967448796,
				"element": "H" 
			},
			{
				"x": 1.0813084032,
				"y": -1.0728394066,
				"z": -2.746276855,
				"element": "H" 
			},
			{
				"x": 1.9214773392,
				"y": 0.4606059651,
				"z": -2.3525223356,
				"element": "H" 
			},
			{
				"x": -0.5027960251,
				"y": -2.5746158444,
				"z": 3.2389799195,
				"element": "H" 
			},
			{
				"x": 1.7839324017,
				"y": -2.4945663382,
				"z": 4.1478983972,
				"element": "H" 
			},
			{
				"x": 2.7453629736,
				"y": 0.6943182872,
				"z": 1.4214559429,
				"element": "H" 
			},
			{
				"x": 3.2621825887,
				"y": -1.3737295029,
				"z": 5.0902899662,
				"element": "H" 
			}
		],
		 "valence_orbital": [ 
			{
				"type": "occ",
				"energy": -0.30672,
				"method": "rhf"
			},
			{
				"type": "occ",
				"energy": -0.29339,
				"method": "rhf"
			},
			{
				"type": "occ",
				"energy": -0.29027,
				"method": "rhf"
			},
			{
				"type": "occ",
				"energy": -0.2794,
				"method": "rhf"
			},
			{
				"type": "occ",
				"energy": -0.26351,
				"method": "rhf"
			},
			{
				"type": "unocc",
				"energy": -0.08206,
				"method": "rhf"
			},
			{
				"type": "unocc",
				"energy": -0.06228,
				"method": "rhf"
			},
			{
				"type": "unocc",
				"energy": -0.00428,
				"method": "rhf"
			},
			{
				"type": "unocc",
				"energy": 0.01066,
				"method": "rhf"
			},
			{
				"type": "unocc",
				"energy": 0.0426,
				"method": "rhf"
			}
		],
		"cosmo_sigma_profile": { 
			"-0.025": 0.0,
			"-0.024": 0.0,
			"-0.023": 0.0,
			"-0.022": 0.0,
			"-0.021": 0.0,
			"-0.02": 0.162502864719,
			"-0.019": 1.00917821494,
			"-0.018": 1.09717786024,
			"-0.017": 1.13094994165,
			"-0.016": 1.16726381821,
			"-0.015": 0.932274688783,
			"-0.014": 0.919480486081,
			"-0.013": 1.18372239158,
			"-0.012": 1.57133118811,
			"-0.011": 1.2813470222,
			"-0.01": 1.82574805216,
			"-0.009": 4.48544291237,
			"-0.008": 4.68476480978,
			"-0.007": 6.24476921099,
			"-0.006": 12.3395798607,
			"-0.005": 16.8770762586,
			"-0.004": 20.6316152268,
			"-0.003": 27.1984289126,
			"-0.002": 23.5267435727,
			"-0.001": 21.4015563399,
			"0.0": 16.0350268596,
			"0.001": 10.9913427461,
			"0.002": 11.7107593664,
			"0.003": 11.5572484009,
			"0.004": 8.67989795349,
			"0.005": 8.01642284904,
			"0.006": 8.83011719914,
			"0.007": 8.74239822764,
			"0.008": 9.17188491731,
			"0.009": 12.1057005445,
			"0.01": 12.7152024338,
			"0.011": 7.63163683021,
			"0.012": 2.47878547021,
			"0.013": 0.27493489878,
			"0.014": 0.0,
			"0.015": 0.0,
			"0.016": 0.0,
			"0.017": 0.0,
			"0.018": 0.0,
			"0.019": 0.0,
			"0.02": 0.0,
			"0.021": 0.0,
			"0.022": 0.0,
			"0.023": 0.0,
			"0.024": 0.0,
			"0.025": 0.0
		}
	}
}
