{
	 "smiles": "CC(C)C(NC(=O)NC1=CC=CC=C1)C(O)=O", 
	 "Tm": 414.15, 
	 "num_atms": 33, 
	 "gaussian": { 
		 "optdone": 1, 
		 "sigma_profile": "yes", 
		 "theory": "DFT", 
		 "functional": "B3LYP", 
		 "basiset": "6-31G**", 
		 "properties": { 
			 "R2extent": 6801.4815, 
			 "electric_dipole_moment_norm": 1.30679622742, 
			 "electric_quadrupole_moment_norm": 16.9264587989, 
			 "total_energy": -802.140334428, 
			 "HOMO_LUMO_gap": 0.21218, 
			 "cosmo_polarized_energy": -18.68, 
			 "cosmo_cavitation_energy": 36.15, 
			 "cosmo_dispersion_energy": -24.78, 
			 "cosmo_repulsion_energy": 1.93, 
			 "cosmo_total_nonelectrostatic_energy": 13.3, 
			 "SMD_solvation_energy": 7.6 
		},
		"coords": [
			{
				"x": -4.7591966596,
				"y": 2.4998774652,
				"z": 2.100534344,
				"element": "C" 
			},
			{
				"x": -3.7697001904,
				"y": 1.6266238341,
				"z": 1.3148601493,
				"element": "C" 
			},
			{
				"x": -4.4923776393,
				"y": 0.7067159877,
				"z": 0.3235536917,
				"element": "C" 
			},
			{
				"x": -2.7798627459,
				"y": 0.8439592216,
				"z": 2.2402721265,
				"element": "C" 
			},
			{
				"x": -1.7009155846,
				"y": 0.2297999091,
				"z": 1.4961485148,
				"element": "N" 
			},
			{
				"x": -0.5996711684,
				"y": 0.9618441274,
				"z": 1.1472946046,
				"element": "C" 
			},
			{
				"x": -0.5178642576,
				"y": 2.1728629607,
				"z": 1.3469757342,
				"element": "O" 
			},
			{
				"x": 0.4451282377,
				"y": 0.2825391,
				"z": 0.5278083492,
				"element": "N" 
			},
			{
				"x": 0.5912873007,
				"y": -1.0797437176,
				"z": 0.1881781851,
				"element": "C" 
			},
			{
				"x": 1.1621191721,
				"y": -1.4068241276,
				"z": -1.0522509376,
				"element": "C" 
			},
			{
				"x": 1.3639750531,
				"y": -2.7382950427,
				"z": -1.4075245319,
				"element": "C" 
			},
			{
				"x": 0.9820516465,
				"y": -3.7670278735,
				"z": -0.5432295034,
				"element": "C" 
			},
			{
				"x": 0.4180626174,
				"y": -3.4457627715,
				"z": 0.6914816703,
				"element": "C" 
			},
			{
				"x": 0.2380950349,
				"y": -2.1144556762,
				"z": 1.0693999603,
				"element": "C" 
			},
			{
				"x": -3.4624802564,
				"y": -0.2711513347,
				"z": 3.0372824825,
				"element": "C" 
			},
			{
				"x": -4.2536352748,
				"y": 0.1198474764,
				"z": 4.0628115899,
				"element": "O" 
			},
			{
				"x": -3.3397592692,
				"y": -1.4450545942,
				"z": 2.7762649832,
				"element": "O" 
			},
			{
				"x": -5.2967530911,
				"y": 3.1667894328,
				"z": 1.4196718106,
				"element": "H" 
			},
			{
				"x": -4.2468183669,
				"y": 3.1378386354,
				"z": 2.8323294764,
				"element": "H" 
			},
			{
				"x": -5.5168030514,
				"y": 1.9013111866,
				"z": 2.6196016982,
				"element": "H" 
			},
			{
				"x": -3.1066668839,
				"y": 2.2977007302,
				"z": 0.7576747373,
				"element": "H" 
			},
			{
				"x": -5.0757563172,
				"y": 1.2984077015,
				"z": -0.3890717998,
				"element": "H" 
			},
			{
				"x": -5.1833160028,
				"y": 0.0246722242,
				"z": 0.8325293478,
				"element": "H" 
			},
			{
				"x": -3.7816941493,
				"y": 0.1024295681,
				"z": -0.2472406912,
				"element": "H" 
			},
			{
				"x": -2.3387709459,
				"y": 1.5729685422,
				"z": 2.9325599402,
				"element": "H" 
			},
			{
				"x": -1.7698499391,
				"y": -0.7658681812,
				"z": 1.3376929284,
				"element": "H" 
			},
			{
				"x": 1.1079883714,
				"y": 0.9323360288,
				"z": 0.1289606544,
				"element": "H" 
			},
			{
				"x": 1.4379870465,
				"y": -0.6091880942,
				"z": -1.7370355458,
				"element": "H" 
			},
			{
				"x": 1.8094229739,
				"y": -2.9716278851,
				"z": -2.3703893146,
				"element": "H" 
			},
			{
				"x": 1.1284100104,
				"y": -4.8046201479,
				"z": -0.826598133,
				"element": "H" 
			},
			{
				"x": 0.131269431,
				"y": -4.2335506532,
				"z": 1.3818615713,
				"element": "H" 
			},
			{
				"x": -0.1499215078,
				"y": -1.8838142249,
				"z": 2.0556984242,
				"element": "H" 
			},
			{
				"x": -4.2232835938,
				"y": 1.0819601926,
				"z": 4.1638934827,
				"element": "H" 
			}
		],
		 "valence_orbital": [ 
			{
				"type": "occ",
				"energy": -0.28663,
				"method": "rhf"
			},
			{
				"type": "occ",
				"energy": -0.26147,
				"method": "rhf"
			},
			{
				"type": "occ",
				"energy": -0.25882,
				"method": "rhf"
			},
			{
				"type": "occ",
				"energy": -0.25334,
				"method": "rhf"
			},
			{
				"type": "occ",
				"energy": -0.22345,
				"method": "rhf"
			},
			{
				"type": "unocc",
				"energy": -0.01127,
				"method": "rhf"
			},
			{
				"type": "unocc",
				"energy": -0.00912,
				"method": "rhf"
			},
			{
				"type": "unocc",
				"energy": -0.00336,
				"method": "rhf"
			},
			{
				"type": "unocc",
				"energy": 0.04932,
				"method": "rhf"
			},
			{
				"type": "unocc",
				"energy": 0.0655,
				"method": "rhf"
			}
		],
		"cosmo_sigma_profile": { 
			"-0.025": 0.0,
			"-0.024": 0.0,
			"-0.023": 0.0,
			"-0.022": 0.0,
			"-0.021": 0.0,
			"-0.02": 0.0,
			"-0.019": 0.0,
			"-0.018": 0.3450926987,
			"-0.017": 1.46078005391,
			"-0.016": 1.07389382302,
			"-0.015": 1.12915057156,
			"-0.014": 1.61941145873,
			"-0.013": 1.63696303475,
			"-0.012": 2.27912475476,
			"-0.011": 2.19081761966,
			"-0.01": 2.42589579781,
			"-0.009": 2.29857551297,
			"-0.008": 3.33890608797,
			"-0.007": 3.45794776952,
			"-0.006": 10.7807365231,
			"-0.005": 13.788189883,
			"-0.004": 21.39157733,
			"-0.003": 26.9736795966,
			"-0.002": 25.0505272924,
			"-0.001": 23.2277039788,
			"0.0": 24.4502409133,
			"0.001": 23.0711701602,
			"0.002": 11.8088815708,
			"0.003": 12.1027419803,
			"0.004": 12.5681687894,
			"0.005": 13.9027951448,
			"0.006": 6.21731572317,
			"0.007": 3.64501230853,
			"0.008": 4.46871763044,
			"0.009": 5.31761368801,
			"0.01": 5.25531221561,
			"0.011": 4.63979176345,
			"0.012": 3.93085200038,
			"0.013": 2.53968716839,
			"0.014": 5.33816412086,
			"0.015": 1.27350019102,
			"0.016": 0.0,
			"0.017": 0.0,
			"0.018": 0.0,
			"0.019": 0.0,
			"0.02": 0.0,
			"0.021": 0.0,
			"0.022": 0.0,
			"0.023": 0.0,
			"0.024": 0.0,
			"0.025": 0.0
		}
	}
}
