{
	 "smiles": "CC1=CC(C(O)C(O)=O)=C(C)C=C1", 
	 "Tm": 389.15, 
	 "num_atms": 25, 
	 "gaussian": { 
		 "optdone": 1, 
		 "sigma_profile": "yes", 
		 "theory": "DFT", 
		 "functional": "B3LYP", 
		 "basiset": "6-31G**", 
		 "properties": { 
			 "R2extent": 3010.7566, 
			 "electric_dipole_moment_norm": 4.92427085973, 
			 "electric_quadrupole_moment_norm": 21.7446379475, 
			 "total_energy": -613.982608882, 
			 "HOMO_LUMO_gap": 0.22006, 
			 "cosmo_polarized_energy": -14.42, 
			 "cosmo_cavitation_energy": 28.09, 
			 "cosmo_dispersion_energy": -20.1, 
			 "cosmo_repulsion_energy": 1.6, 
			 "cosmo_total_nonelectrostatic_energy": 9.58, 
			 "SMD_solvation_energy": 6.01 
		},
		"coords": [
			{
				"x": -2.0379523951,
				"y": 1.428733481,
				"z": 2.3464990755,
				"element": "C" 
			},
			{
				"x": -1.005287061,
				"y": 0.6475473038,
				"z": 1.5691679404,
				"element": "C" 
			},
			{
				"x": -1.3395846957,
				"y": -0.0095345807,
				"z": 0.3801248918,
				"element": "C" 
			},
			{
				"x": -0.4135292231,
				"y": -0.770746005,
				"z": -0.3424015317,
				"element": "C" 
			},
			{
				"x": -0.8767307595,
				"y": -1.3964950113,
				"z": -1.6442079358,
				"element": "C" 
			},
			{
				"x": -0.2293364141,
				"y": -0.8363137198,
				"z": -2.8021338171,
				"element": "O" 
			},
			{
				"x": -0.6872462991,
				"y": -2.9265317888,
				"z": -1.704299571,
				"element": "C" 
			},
			{
				"x": -0.0220782748,
				"y": -3.3658430894,
				"z": -2.7866424038,
				"element": "O" 
			},
			{
				"x": -1.1306112581,
				"y": -3.6661125674,
				"z": -0.8612744013,
				"element": "O" 
			},
			{
				"x": 0.9148343198,
				"y": -0.8876300602,
				"z": 0.1247967976,
				"element": "C" 
			},
			{
				"x": 1.9585395743,
				"y": -1.7234080444,
				"z": -0.5814403612,
				"element": "C" 
			},
			{
				"x": 1.2481694302,
				"y": -0.2174208868,
				"z": 1.3069751945,
				"element": "C" 
			},
			{
				"x": 0.3139385455,
				"y": 0.5349460826,
				"z": 2.0177038784,
				"element": "C" 
			},
			{
				"x": -2.5327682486,
				"y": 0.7950367545,
				"z": 3.0929702865,
				"element": "H" 
			},
			{
				"x": -1.5847675591,
				"y": 2.2681960065,
				"z": 2.8824652087,
				"element": "H" 
			},
			{
				"x": -2.8182278143,
				"y": 1.8267283581,
				"z": 1.6908181426,
				"element": "H" 
			},
			{
				"x": -2.3571879821,
				"y": 0.0694726225,
				"z": 0.0031589253,
				"element": "H" 
			},
			{
				"x": -1.9604777071,
				"y": -1.2399198519,
				"z": -1.7316834115,
				"element": "H" 
			},
			{
				"x": 0.0686019529,
				"y": 0.0558848254,
				"z": -2.5846587136,
				"element": "H" 
			},
			{
				"x": 0.2360355468,
				"y": -2.5758990892,
				"z": -3.2995316278,
				"element": "H" 
			},
			{
				"x": 1.7656013845,
				"y": -2.7938399845,
				"z": -0.4450119484,
				"element": "H" 
			},
			{
				"x": 1.9786233777,
				"y": -1.5339790476,
				"z": -1.65768195,
				"element": "H" 
			},
			{
				"x": 2.9540557522,
				"y": -1.5149495274,
				"z": -0.1811526768,
				"element": "H" 
			},
			{
				"x": 2.2666237966,
				"y": -0.2903052657,
				"z": 1.6801486009,
				"element": "H" 
			},
			{
				"x": 0.6169620114,
				"y": 1.0401830859,
				"z": 2.9315914079,
				"element": "H" 
			}
		],
		 "valence_orbital": [ 
			{
				"type": "occ",
				"energy": -0.31721,
				"method": "rhf"
			},
			{
				"type": "occ",
				"energy": -0.29973,
				"method": "rhf"
			},
			{
				"type": "occ",
				"energy": -0.26342,
				"method": "rhf"
			},
			{
				"type": "occ",
				"energy": -0.25657,
				"method": "rhf"
			},
			{
				"type": "occ",
				"energy": -0.24162,
				"method": "rhf"
			},
			{
				"type": "unocc",
				"energy": -0.02156,
				"method": "rhf"
			},
			{
				"type": "unocc",
				"energy": -0.00801,
				"method": "rhf"
			},
			{
				"type": "unocc",
				"energy": 0.01554,
				"method": "rhf"
			},
			{
				"type": "unocc",
				"energy": 0.06327,
				"method": "rhf"
			},
			{
				"type": "unocc",
				"energy": 0.09606,
				"method": "rhf"
			}
		],
		"cosmo_sigma_profile": { 
			"-0.025": 0.0,
			"-0.024": 0.0,
			"-0.023": 0.0,
			"-0.022": 0.0,
			"-0.021": 0.0,
			"-0.02": 0.0,
			"-0.019": 0.0,
			"-0.018": 0.0,
			"-0.017": 0.545313624895,
			"-0.016": 0.460187239545,
			"-0.015": 0.923857457062,
			"-0.014": 0.997584690981,
			"-0.013": 1.05497564575,
			"-0.012": 0.556830226971,
			"-0.011": 1.25805398599,
			"-0.01": 1.42904162344,
			"-0.009": 2.02044444169,
			"-0.008": 2.9284534088,
			"-0.007": 6.0441753894,
			"-0.006": 7.01858717534,
			"-0.005": 13.6564301478,
			"-0.004": 20.5972624245,
			"-0.003": 17.8574047802,
			"-0.002": 18.6201286809,
			"-0.001": 18.6739111195,
			"0.0": 21.4557350673,
			"0.001": 12.9980424943,
			"0.002": 8.38459414604,
			"0.003": 8.55877800056,
			"0.004": 9.00864465751,
			"0.005": 10.5542136475,
			"0.006": 6.60407979036,
			"0.007": 3.65153956021,
			"0.008": 3.13905373948,
			"0.009": 3.94386182796,
			"0.01": 5.80649536684,
			"0.011": 4.60103176991,
			"0.012": 5.78853722964,
			"0.013": 2.02856441229,
			"0.014": 0.115494869307,
			"0.015": 0.0,
			"0.016": 0.0,
			"0.017": 0.0,
			"0.018": 0.0,
			"0.019": 0.0,
			"0.02": 0.0,
			"0.021": 0.0,
			"0.022": 0.0,
			"0.023": 0.0,
			"0.024": 0.0,
			"0.025": 0.0
		}
	}
}
