{
	 "smiles": "N[C@@H]([C@H](O)[C@@H](O)COC(N)=O)C(=O)N[C@@H]([C@H]1O[C@H]([C@H](O)[C@@H]1O)N1C=C(C(O)=O)C(=O)NC1=O)C(O)=O", 
	 "Tm": 453.15, 
	 "num_atms": 59, 
	 "gaussian": { 
		 "optdone": 1, 
		 "sigma_profile": "yes", 
		 "theory": "DFT", 
		 "functional": "B3LYP", 
		 "basiset": "6-31G**", 
		 "properties": { 
			 "R2extent": 15559.2227, 
			 "electric_dipole_moment_norm": 5.90147091326, 
			 "electric_quadrupole_moment_norm": 31.3334506148, 
			 "total_energy": -1988.62086375, 
			 "HOMO_LUMO_gap": 0.15318, 
			 "cosmo_polarized_energy": -48.88, 
			 "cosmo_cavitation_energy": 59.25, 
			 "cosmo_dispersion_energy": -38.46, 
			 "cosmo_repulsion_energy": 2.86, 
			 "cosmo_total_nonelectrostatic_energy": 23.66, 
			 "SMD_solvation_energy": 13.5 
		},
		"coords": [
			{
				"x": -1.3129132237,
				"y": -3.9886189659,
				"z": -0.8700173223,
				"element": "N" 
			},
			{
				"x": -1.2572449996,
				"y": -2.6188167221,
				"z": -0.3459129773,
				"element": "C" 
			},
			{
				"x": 0.1980567199,
				"y": -2.0899690062,
				"z": -0.5689370406,
				"element": "C" 
			},
			{
				"x": 0.6012858032,
				"y": -1.0774685783,
				"z": 0.3573662588,
				"element": "O" 
			},
			{
				"x": 0.4615294374,
				"y": -1.5608070546,
				"z": -1.9814120356,
				"element": "C" 
			},
			{
				"x": -0.2503410066,
				"y": -0.3463034932,
				"z": -2.138039088,
				"element": "O" 
			},
			{
				"x": 1.9686242767,
				"y": -1.3776198298,
				"z": -2.2264219064,
				"element": "C" 
			},
			{
				"x": 2.3623508252,
				"y": -1.5769201803,
				"z": -3.607414842,
				"element": "O" 
			},
			{
				"x": 2.0367563496,
				"y": -0.6158897715,
				"z": -4.4979374741,
				"element": "C" 
			},
			{
				"x": 2.640049038,
				"y": -0.8430493954,
				"z": -5.6918468516,
				"element": "N" 
			},
			{
				"x": 1.3086850998,
				"y": 0.3439472967,
				"z": -4.2684729122,
				"element": "O" 
			},
			{
				"x": -2.4245460662,
				"y": -1.7932996481,
				"z": -0.9656852767,
				"element": "C" 
			},
			{
				"x": -2.9956543757,
				"y": -2.200912525,
				"z": -1.9701886516,
				"element": "O" 
			},
			{
				"x": -2.8720513779,
				"y": -0.6682179289,
				"z": -0.3254574733,
				"element": "N" 
			},
			{
				"x": -2.2700547323,
				"y": -0.0253001014,
				"z": 0.8128395941,
				"element": "C" 
			},
			{
				"x": -2.3587653643,
				"y": 1.515243264,
				"z": 0.7180929528,
				"element": "C" 
			},
			{
				"x": -1.4686807746,
				"y": 2.0706317153,
				"z": 1.7442883555,
				"element": "O" 
			},
			{
				"x": -0.4094638545,
				"y": 2.7946553706,
				"z": 1.1631668699,
				"element": "C" 
			},
			{
				"x": -0.4391405245,
				"y": 2.5043016736,
				"z": -0.354381499,
				"element": "C" 
			},
			{
				"x": -0.0827427236,
				"y": 3.6213328937,
				"z": -1.1388718075,
				"element": "O" 
			},
			{
				"x": -1.9207655213,
				"y": 2.1687493462,
				"z": -0.597709321,
				"element": "C" 
			},
			{
				"x": -2.6671485885,
				"y": 3.3624385984,
				"z": -0.7428937266,
				"element": "O" 
			},
			{
				"x": 0.8783265128,
				"y": 2.3912555427,
				"z": 1.7960281527,
				"element": "N" 
			},
			{
				"x": 1.0686358725,
				"y": 1.179154804,
				"z": 2.3763400499,
				"element": "C" 
			},
			{
				"x": 2.2586612171,
				"y": 0.7639256627,
				"z": 2.9022766389,
				"element": "C" 
			},
			{
				"x": 2.3078143589,
				"y": -0.626760656,
				"z": 3.3975829251,
				"element": "C" 
			},
			{
				"x": 3.2977864123,
				"y": -0.8752045127,
				"z": 4.2603062677,
				"element": "O" 
			},
			{
				"x": 1.5071093141,
				"y": -1.4925415824,
				"z": 3.0563403053,
				"element": "O" 
			},
			{
				"x": 3.4108376642,
				"y": 1.6695867932,
				"z": 2.8786997513,
				"element": "C" 
			},
			{
				"x": 4.5293390827,
				"y": 1.4836068935,
				"z": 3.3130828647,
				"element": "O" 
			},
			{
				"x": 3.114780339,
				"y": 2.8904810181,
				"z": 2.2121037054,
				"element": "N" 
			},
			{
				"x": 1.9527994345,
				"y": 3.2688638412,
				"z": 1.5915449007,
				"element": "C" 
			},
			{
				"x": 1.8415089038,
				"y": 4.2821946525,
				"z": 0.90918409,
				"element": "O" 
			},
			{
				"x": -2.8336560296,
				"y": -0.5832377916,
				"z": 2.1490673908,
				"element": "C" 
			},
			{
				"x": -2.5550283459,
				"y": 0.1281938993,
				"z": 3.2636345939,
				"element": "O" 
			},
			{
				"x": -3.4306575537,
				"y": -1.628886639,
				"z": 2.2121073175,
				"element": "O" 
			},
			{
				"x": -1.7656848135,
				"y": -3.932630209,
				"z": -1.7834095043,
				"element": "H" 
			},
			{
				"x": -1.9534063717,
				"y": -4.5327051362,
				"z": -0.2972291738,
				"element": "H" 
			},
			{
				"x": -1.4065332516,
				"y": -2.6538013723,
				"z": 0.7383678067,
				"element": "H" 
			},
			{
				"x": 0.8124630572,
				"y": -2.9873548078,
				"z": -0.4301212268,
				"element": "H" 
			},
			{
				"x": 0.8452245561,
				"y": -1.4837673184,
				"z": 1.2090468665,
				"element": "H" 
			},
			{
				"x": 0.1044744183,
				"y": -2.3290179281,
				"z": -2.687524547,
				"element": "H" 
			},
			{
				"x": 0.0925624754,
				"y": 0.0726342555,
				"z": -2.952077738,
				"element": "H" 
			},
			{
				"x": 2.2823658253,
				"y": -0.3848710079,
				"z": -1.8944948841,
				"element": "H" 
			},
			{
				"x": 2.5454839567,
				"y": -2.1361649169,
				"z": -1.6945441437,
				"element": "H" 
			},
			{
				"x": 3.1532187924,
				"y": -1.6951989641,
				"z": -5.8470395051,
				"element": "H" 
			},
			{
				"x": 2.3542544032,
				"y": -0.2796875648,
				"z": -6.4751433116,
				"element": "H" 
			},
			{
				"x": -3.7521323836,
				"y": -0.3218610886,
				"z": -0.685923161,
				"element": "H" 
			},
			{
				"x": -1.2040652905,
				"y": -0.2796425385,
				"z": 0.7981994228,
				"element": "H" 
			},
			{
				"x": -3.3663390492,
				"y": 1.8686687464,
				"z": 0.9591788545,
				"element": "H" 
			},
			{
				"x": -0.5225491151,
				"y": 3.8646284797,
				"z": 1.3565150007,
				"element": "H" 
			},
			{
				"x": 0.1746403857,
				"y": 1.623044245,
				"z": -0.580980614,
				"element": "H" 
			},
			{
				"x": 0.6713018957,
				"y": 4.061040756,
				"z": -0.7096213379,
				"element": "H" 
			},
			{
				"x": -2.038756774,
				"y": 1.4943822955,
				"z": -1.4519592092,
				"element": "H" 
			},
			{
				"x": -2.0779770884,
				"y": 3.978561407,
				"z": -1.2095288989,
				"element": "H" 
			},
			{
				"x": 0.201559648,
				"y": 0.5371839693,
				"z": 2.4202292704,
				"element": "H" 
			},
			{
				"x": 3.2314436817,
				"y": -1.8183419077,
				"z": 4.4888723447,
				"element": "H" 
			},
			{
				"x": 3.9002944386,
				"y": 3.5199306127,
				"z": 2.0900589538,
				"element": "H" 
			},
			{
				"x": -2.0925249958,
				"y": 0.9566311098,
				"z": 3.0378759559,
				"element": "H" 
			}
		],
		 "valence_orbital": [ 
			{
				"type": "occ",
				"energy": -0.27146,
				"method": "rhf"
			},
			{
				"type": "occ",
				"energy": -0.26582,
				"method": "rhf"
			},
			{
				"type": "occ",
				"energy": -0.25359,
				"method": "rhf"
			},
			{
				"type": "occ",
				"energy": -0.2505,
				"method": "rhf"
			},
			{
				"type": "occ",
				"energy": -0.23606,
				"method": "rhf"
			},
			{
				"type": "unocc",
				"energy": -0.08288,
				"method": "rhf"
			},
			{
				"type": "unocc",
				"energy": -0.03842,
				"method": "rhf"
			},
			{
				"type": "unocc",
				"energy": 0.00336,
				"method": "rhf"
			},
			{
				"type": "unocc",
				"energy": 0.0054,
				"method": "rhf"
			},
			{
				"type": "unocc",
				"energy": 0.02376,
				"method": "rhf"
			}
		],
		"cosmo_sigma_profile": { 
			"-0.025": 0.0,
			"-0.024": 0.0,
			"-0.023": 0.0,
			"-0.022": 0.0,
			"-0.021": 0.0,
			"-0.02": 0.0,
			"-0.019": 0.556939251459,
			"-0.018": 1.20393812624,
			"-0.017": 1.02769680684,
			"-0.016": 2.28592204211,
			"-0.015": 3.37968454684,
			"-0.014": 5.59684265658,
			"-0.013": 5.83610085319,
			"-0.012": 5.61827352221,
			"-0.011": 7.20422179073,
			"-0.01": 8.24520367752,
			"-0.009": 11.8004040189,
			"-0.008": 18.0526313613,
			"-0.007": 19.2422355623,
			"-0.006": 21.168306139,
			"-0.005": 26.609805722,
			"-0.004": 27.0099636085,
			"-0.003": 27.2002825409,
			"-0.002": 25.376607801,
			"-0.001": 24.1918081091,
			"0.0": 19.7498259269,
			"0.001": 17.2080753768,
			"0.002": 18.8143225359,
			"0.003": 16.689588768,
			"0.004": 15.4070595811,
			"0.005": 15.1665483016,
			"0.006": 14.3139773631,
			"0.007": 14.7960459173,
			"0.008": 12.7330467815,
			"0.009": 12.9097086078,
			"0.01": 17.0272120839,
			"0.011": 17.3846006486,
			"0.012": 17.3122736286,
			"0.013": 9.75685593266,
			"0.014": 3.4899664306,
			"0.015": 0.770320362065,
			"0.016": 0.579410467618,
			"0.017": 0.46682295895,
			"0.018": 0.17167992905,
			"0.019": 0.0,
			"0.02": 0.0,
			"0.021": 0.0,
			"0.022": 0.0,
			"0.023": 0.0,
			"0.024": 0.0,
			"0.025": 0.0
		}
	}
}
