{
	 "smiles": "CC1CCC2=CC(=C(CCC(C)=O)C=C2N1C(=O)C1=CC=C(C=C1)[N+]([O-])=O)[N+]([O-])=O", 
	 "Tm": 446.15, 
	 "num_atms": 51, 
	 "gaussian": { 
		 "optdone": 1, 
		 "sigma_profile": "yes", 
		 "theory": "DFT", 
		 "functional": "B3LYP", 
		 "basiset": "6-31G**", 
		 "properties": { 
			 "R2extent": 13336.8582, 
			 "electric_dipole_moment_norm": 3.73393357868, 
			 "electric_quadrupole_moment_norm": 38.7242486963, 
			 "total_energy": -1428.31367702, 
			 "HOMO_LUMO_gap": 0.13179, 
			 "cosmo_polarized_energy": -23.44, 
			 "cosmo_cavitation_energy": 53.88, 
			 "cosmo_dispersion_energy": -35.42, 
			 "cosmo_repulsion_energy": 2.67, 
			 "cosmo_total_nonelectrostatic_energy": 21.13, 
			 "SMD_solvation_energy": 13.27 
		},
		"coords": [
			{
				"x": 2.7595957415,
				"y": 3.3847994767,
				"z": -0.5529191339,
				"element": "C" 
			},
			{
				"x": 2.2649854191,
				"y": 2.5406160519,
				"z": 0.6300369487,
				"element": "C" 
			},
			{
				"x": 1.3676060181,
				"y": 3.3575416533,
				"z": 1.5692329969,
				"element": "C" 
			},
			{
				"x": -0.0624598317,
				"y": 3.4591707062,
				"z": 1.016449212,
				"element": "C" 
			},
			{
				"x": -0.6195725996,
				"y": 2.0621950269,
				"z": 0.9730085014,
				"element": "C" 
			},
			{
				"x": -1.9035049909,
				"y": 1.750519412,
				"z": 1.3896478534,
				"element": "C" 
			},
			{
				"x": -2.3474211895,
				"y": 0.4267456145,
				"z": 1.4651709371,
				"element": "C" 
			},
			{
				"x": -1.4905200637,
				"y": -0.6488813117,
				"z": 1.1593794635,
				"element": "C" 
			},
			{
				"x": -1.8245848116,
				"y": -2.1255516387,
				"z": 1.2540998891,
				"element": "C" 
			},
			{
				"x": -1.4075968386,
				"y": -2.7783247287,
				"z": 2.602318334,
				"element": "C" 
			},
			{
				"x": -2.0395739534,
				"y": -2.1296294363,
				"z": 3.8361651903,
				"element": "C" 
			},
			{
				"x": -3.1860964316,
				"y": -2.8627081235,
				"z": 4.4999085026,
				"element": "C" 
			},
			{
				"x": -1.6008119687,
				"y": -1.0784422888,
				"z": 4.2661377167,
				"element": "O" 
			},
			{
				"x": -0.2006094644,
				"y": -0.3147448061,
				"z": 0.7354197079,
				"element": "C" 
			},
			{
				"x": 0.2423930692,
				"y": 1.0086016233,
				"z": 0.5944253615,
				"element": "C" 
			},
			{
				"x": 1.5416124796,
				"y": 1.3184218976,
				"z": 0.1316913406,
				"element": "N" 
			},
			{
				"x": 2.3372529102,
				"y": 0.4251504067,
				"z": -0.5936756674,
				"element": "C" 
			},
			{
				"x": 3.5579100227,
				"y": 0.4429541489,
				"z": -0.4943989945,
				"element": "O" 
			},
			{
				"x": 1.6994609152,
				"y": -0.4755551376,
				"z": -1.6192783868,
				"element": "C" 
			},
			{
				"x": 0.5872990979,
				"y": -0.0841829348,
				"z": -2.3797500255,
				"element": "C" 
			},
			{
				"x": 0.1118931045,
				"y": -0.9002180459,
				"z": -3.4015542285,
				"element": "C" 
			},
			{
				"x": 0.7556883501,
				"y": -2.1124402107,
				"z": -3.6430416803,
				"element": "C" 
			},
			{
				"x": 1.8689747575,
				"y": -2.5214233009,
				"z": -2.9110436124,
				"element": "C" 
			},
			{
				"x": 2.3462528805,
				"y": -1.6865417842,
				"z": -1.9062165323,
				"element": "C" 
			},
			{
				"x": 0.2465075282,
				"y": -2.9870196863,
				"z": -4.7149348981,
				"element": "N" 
			},
			{
				"x": -0.7281337337,
				"y": -2.5944433682,
				"z": -5.3542056548,
				"element": "O" 
			},
			{
				"x": 0.8274257699,
				"y": -4.0549301701,
				"z": -4.9009703904,
				"element": "O" 
			},
			{
				"x": -3.7371987353,
				"y": 0.246262383,
				"z": 1.8945981507,
				"element": "N" 
			},
			{
				"x": -4.1195202838,
				"y": -0.8785770026,
				"z": 2.2350723209,
				"element": "O" 
			},
			{
				"x": -4.4692538291,
				"y": 1.236512161,
				"z": 1.8921651978,
				"element": "O" 
			},
			{
				"x": 1.9255181277,
				"y": 3.7956218369,
				"z": -1.1306722061,
				"element": "H" 
			},
			{
				"x": 3.3940913418,
				"y": 2.8004896335,
				"z": -1.2205070566,
				"element": "H" 
			},
			{
				"x": 3.3561967245,
				"y": 4.2207459648,
				"z": -0.1747751083,
				"element": "H" 
			},
			{
				"x": 3.136603646,
				"y": 2.1748476506,
				"z": 1.180440007,
				"element": "H" 
			},
			{
				"x": 1.8177405976,
				"y": 4.3470601127,
				"z": 1.6946279599,
				"element": "H" 
			},
			{
				"x": 1.328917541,
				"y": 2.8918713194,
				"z": 2.5600585142,
				"element": "H" 
			},
			{
				"x": -0.6874067103,
				"y": 4.0970124593,
				"z": 1.6479351419,
				"element": "H" 
			},
			{
				"x": -0.0494839799,
				"y": 3.9156075778,
				"z": 0.0176630813,
				"element": "H" 
			},
			{
				"x": -2.5900396579,
				"y": 2.5378872149,
				"z": 1.6752569887,
				"element": "H" 
			},
			{
				"x": -1.2702506141,
				"y": -2.6426101526,
				"z": 0.4632876843,
				"element": "H" 
			},
			{
				"x": -2.8847430155,
				"y": -2.2953460039,
				"z": 1.0776844173,
				"element": "H" 
			},
			{
				"x": -0.3223455992,
				"y": -2.6844486923,
				"z": 2.7174050217,
				"element": "H" 
			},
			{
				"x": -1.6538559832,
				"y": -3.8445989273,
				"z": 2.5533009188,
				"element": "H" 
			},
			{
				"x": -3.5973579407,
				"y": -2.2569897627,
				"z": 5.3082408837,
				"element": "H" 
			},
			{
				"x": -3.9695778226,
				"y": -3.0882462542,
				"z": 3.7697051661,
				"element": "H" 
			},
			{
				"x": -2.829062998,
				"y": -3.8186147208,
				"z": 4.9036224731,
				"element": "H" 
			},
			{
				"x": 0.4805969251,
				"y": -1.1293309984,
				"z": 0.5210449852,
				"element": "H" 
			},
			{
				"x": 0.0989679937,
				"y": 0.8629996679,
				"z": -2.180292799,
				"element": "H" 
			},
			{
				"x": -0.7386658933,
				"y": -0.6180633338,
				"z": -4.0090789284,
				"element": "H" 
			},
			{
				"x": 2.3425049589,
				"y": -3.4670132367,
				"z": -3.1430760387,
				"element": "H" 
			},
			{
				"x": 3.23035302,
				"y": -1.9548579423,
				"z": -1.3386095262,
				"element": "H" 
			}
		],
		 "valence_orbital": [ 
			{
				"type": "occ",
				"energy": -0.28745,
				"method": "rhf"
			},
			{
				"type": "occ",
				"energy": -0.2797,
				"method": "rhf"
			},
			{
				"type": "occ",
				"energy": -0.269,
				"method": "rhf"
			},
			{
				"type": "occ",
				"energy": -0.24392,
				"method": "rhf"
			},
			{
				"type": "occ",
				"energy": -0.23915,
				"method": "rhf"
			},
			{
				"type": "unocc",
				"energy": -0.10736,
				"method": "rhf"
			},
			{
				"type": "unocc",
				"energy": -0.08867,
				"method": "rhf"
			},
			{
				"type": "unocc",
				"energy": -0.04663,
				"method": "rhf"
			},
			{
				"type": "unocc",
				"energy": -0.04214,
				"method": "rhf"
			},
			{
				"type": "unocc",
				"energy": -0.02897,
				"method": "rhf"
			}
		],
		"cosmo_sigma_profile": { 
			"-0.025": 0.0,
			"-0.024": 0.0,
			"-0.023": 0.0,
			"-0.022": 0.0,
			"-0.021": 0.0,
			"-0.02": 0.0,
			"-0.019": 0.0,
			"-0.018": 0.0,
			"-0.017": 0.0,
			"-0.016": 0.0,
			"-0.015": 0.0,
			"-0.014": 0.0,
			"-0.013": 0.0,
			"-0.012": 0.0,
			"-0.011": 0.0,
			"-0.01": 0.0,
			"-0.009": 0.106923818931,
			"-0.008": 3.76833736218,
			"-0.007": 11.7222557601,
			"-0.006": 18.1107311267,
			"-0.005": 33.9956104007,
			"-0.004": 46.6480557611,
			"-0.003": 47.9379855894,
			"-0.002": 45.6301364733,
			"-0.001": 40.0224219652,
			"0.0": 33.6550607859,
			"0.001": 23.2654739493,
			"0.002": 13.9761023105,
			"0.003": 9.45020070002,
			"0.004": 10.3872482434,
			"0.005": 8.81968864006,
			"0.006": 11.2990598875,
			"0.007": 16.0975748646,
			"0.008": 15.7326445788,
			"0.009": 10.451104142,
			"0.01": 10.1734891362,
			"0.011": 5.87061075117,
			"0.012": 6.3344623168,
			"0.013": 2.87071927044,
			"0.014": 0.588014590757,
			"0.015": 0.0,
			"0.016": 0.0,
			"0.017": 0.0,
			"0.018": 0.0,
			"0.019": 0.0,
			"0.02": 0.0,
			"0.021": 0.0,
			"0.022": 0.0,
			"0.023": 0.0,
			"0.024": 0.0,
			"0.025": 0.0
		}
	}
}
