{
	 "smiles": "IC1=CC=CC(=C1)C#N", 
	 "Tm": 313.15, 
	 "num_atms": 13, 
	 "gaussian": { 
		 "optdone": 1, 
		 "sigma_profile": "no", 
		 "theory": "DFT", 
		 "functional": "B3LYP", 
		 "basiset": "6-31G**", 
		 "properties": { 
			 "R2extent": 1627.6512, 
			 "electric_dipole_moment_norm": 3.8857536592, 
			 "electric_quadrupole_moment_norm": 12.1387086558, 
			 "total_energy": -335.272555858, 
			 "HOMO_LUMO_gap": 0.19433, 
			 "cosmo_polarized_energy": -98357.47, 
			 "cosmo_cavitation_energy": 21.86, 
			 "cosmo_dispersion_energy": -16.99, 
			 "cosmo_repulsion_energy": 1.36, 
			 "cosmo_total_nonelectrostatic_energy": 6.22, 
			 "SMD_solvation_energy": 4.33 
		},
		"coords": [
			{
				"x": -1.4286837873,
				"y": 3.7255752122,
				"z": 0.7719069386,
				"element": "I" 
			},
			{
				"x": -0.5089132474,
				"y": 1.9999321225,
				"z": -0.0388136857,
				"element": "C" 
			},
			{
				"x": 0.78648984,
				"y": 1.6548072433,
				"z": 0.3572119892,
				"element": "C" 
			},
			{
				"x": 1.3885138363,
				"y": 0.515214523,
				"z": -0.181036469,
				"element": "C" 
			},
			{
				"x": 0.7122443259,
				"y": -0.2766666673,
				"z": -1.1048416946,
				"element": "C" 
			},
			{
				"x": -0.5887678979,
				"y": 0.0786915462,
				"z": -1.4961114616,
				"element": "C" 
			},
			{
				"x": -1.2058041301,
				"y": 1.2229035662,
				"z": -0.9619674597,
				"element": "C" 
			},
			{
				"x": -1.2983246278,
				"y": -0.7278058984,
				"z": -2.4474921284,
				"element": "C" 
			},
			{
				"x": -1.8706934502,
				"y": -1.3836766947,
				"z": -3.2188974444,
				"element": "N" 
			},
			{
				"x": 1.3214048232,
				"y": 2.2651510659,
				"z": 1.0760861285,
				"element": "H" 
			},
			{
				"x": 2.3942035234,
				"y": 0.2472937276,
				"z": 0.1264176947,
				"element": "H" 
			},
			{
				"x": 1.177614338,
				"y": -1.1616613537,
				"z": -1.5239754959,
				"element": "H" 
			},
			{
				"x": -2.2097835459,
				"y": 1.4868416072,
				"z": -1.2714869118,
				"element": "H" 
			}
		],
		 "valence_orbital": [ 
			{
				"type": "occ",
				"energy": -0.3382,
				"method": "rhf"
			},
			{
				"type": "occ",
				"energy": -0.31415,
				"method": "rhf"
			},
			{
				"type": "occ",
				"energy": -0.28345,
				"method": "rhf"
			},
			{
				"type": "occ",
				"energy": -0.28155,
				"method": "rhf"
			},
			{
				"type": "occ",
				"energy": -0.25937,
				"method": "rhf"
			},
			{
				"type": "unocc",
				"energy": -0.06504,
				"method": "rhf"
			},
			{
				"type": "unocc",
				"energy": -0.05511,
				"method": "rhf"
			},
			{
				"type": "unocc",
				"energy": -0.04125,
				"method": "rhf"
			},
			{
				"type": "unocc",
				"energy": 0.02791,
				"method": "rhf"
			},
			{
				"type": "unocc",
				"energy": 0.0349,
				"method": "rhf"
			}
		],
		"cosmo_sigma_profile": { 
			"0.0": 0.0,
			"0.0": 0.0,
			"0.0": 0.0,
			"0.0": 0.0,
			"0.0": 0.0,
			"0.0": 0.0,
			"0.0": 0.0,
			"0.0": 0.0,
			"0.0": 0.0,
			"0.0": 0.0,
			"0.0": 0.0,
			"0.0": 0.0,
			"0.0": 0.0,
			"0.0": 0.0,
			"0.0": 0.0,
			"0.0": 0.0,
			"0.0": 0.0,
			"0.0": 0.0,
			"0.0": 0.0,
			"0.0": 0.0,
			"0.0": 0.0,
			"0.0": 0.0,
			"0.0": 0.0,
			"0.0": 0.0,
			"0.0": 0.0,
			"0.0": 0.0,
			"0.0": 0.0,
			"0.0": 0.0,
			"0.0": 0.0,
			"0.0": 0.0,
			"0.0": 0.0,
			"0.0": 0.0,
			"0.0": 0.0,
			"0.0": 0.0,
			"0.0": 0.0,
			"0.0": 0.0,
			"0.0": 0.0,
			"0.0": 0.0,
			"0.0": 0.0,
			"0.0": 0.0,
			"0.0": 0.0,
			"0.0": 0.0,
			"0.0": 0.0,
			"0.0": 0.0,
			"0.0": 0.0,
			"0.0": 0.0,
			"0.0": 0.0,
			"0.0": 0.0,
			"0.0": 0.0,
			"0.0": 0.0,
			"0.0": 0.0
		}
	}
}
