{
	 "smiles": "CC(C)N1C2=C(C=C(C=C2)C(Cl)=O)N=C1C(F)(F)F", 
	 "Tm": 375.15, 
	 "num_atms": 29, 
	 "gaussian": { 
		 "optdone": 1, 
		 "sigma_profile": "yes", 
		 "theory": "DFT", 
		 "functional": "B3LYP", 
		 "basiset": "6-31G**", 
		 "properties": { 
			 "R2extent": 7150.9361, 
			 "electric_dipole_moment_norm": 6.48409939313, 
			 "electric_quadrupole_moment_norm": 16.6798643903, 
			 "total_energy": -1407.77531516, 
			 "HOMO_LUMO_gap": 0.18305, 
			 "cosmo_polarized_energy": -11.03, 
			 "cosmo_cavitation_energy": 35.99, 
			 "cosmo_dispersion_energy": -25.08, 
			 "cosmo_repulsion_energy": 1.85, 
			 "cosmo_total_nonelectrostatic_energy": 12.77, 
			 "SMD_solvation_energy": 6.05 
		},
		"coords": [
			{
				"x": -1.99245193,
				"y": 3.6647650728,
				"z": 1.2325509586,
				"element": "C" 
			},
			{
				"x": -0.5217869997,
				"y": 3.2697731252,
				"z": 1.054168439,
				"element": "C" 
			},
			{
				"x": 0.2153980413,
				"y": 3.0143943226,
				"z": 2.3740449799,
				"element": "C" 
			},
			{
				"x": -0.3919321021,
				"y": 2.1087072601,
				"z": 0.1416926871,
				"element": "N" 
			},
			{
				"x": -0.8686184759,
				"y": 0.823354849,
				"z": 0.3287997534,
				"element": "C" 
			},
			{
				"x": -0.4800181776,
				"y": 0.1044663093,
				"z": -0.831250396,
				"element": "C" 
			},
			{
				"x": -0.8011595874,
				"y": -1.2458319825,
				"z": -0.9817125522,
				"element": "C" 
			},
			{
				"x": -1.5159248255,
				"y": -1.8638324273,
				"z": 0.0453242235,
				"element": "C" 
			},
			{
				"x": -1.9005470779,
				"y": -1.1345776136,
				"z": 1.2038861909,
				"element": "C" 
			},
			{
				"x": -1.5881181645,
				"y": 0.2035893434,
				"z": 1.3642859368,
				"element": "C" 
			},
			{
				"x": -1.922987964,
				"y": -3.2853485862,
				"z": 0.0200610075,
				"element": "C" 
			},
			{
				"x": -1.4225573227,
				"y": -4.2169965341,
				"z": -1.4770010667,
				"element": "Cl" 
			},
			{
				"x": -2.5341794286,
				"y": -3.8601670843,
				"z": 0.8714661857,
				"element": "O" 
			},
			{
				"x": 0.2130868254,
				"y": 0.9277214864,
				"z": -1.6992878174,
				"element": "N" 
			},
			{
				"x": 0.240146866,
				"y": 2.0834235699,
				"z": -1.0922878143,
				"element": "C" 
			},
			{
				"x": 0.9046979947,
				"y": 3.2983905986,
				"z": -1.6811790657,
				"element": "C" 
			},
			{
				"x": 1.4418665127,
				"y": 3.0326137342,
				"z": -2.8683009937,
				"element": "F" 
			},
			{
				"x": 0.0158811691,
				"y": 4.3127761355,
				"z": -1.8316393366,
				"element": "F" 
			},
			{
				"x": 1.8836256398,
				"y": 3.7606721644,
				"z": -0.8628616069,
				"element": "F" 
			},
			{
				"x": -2.5728679953,
				"y": 2.884528319,
				"z": 1.7316990552,
				"element": "H" 
			},
			{
				"x": -2.4546706187,
				"y": 3.8703664248,
				"z": 0.2632861166,
				"element": "H" 
			},
			{
				"x": -2.0553599757,
				"y": 4.571562561,
				"z": 1.8412463973,
				"element": "H" 
			},
			{
				"x": -0.0178459158,
				"y": 4.0925984351,
				"z": 0.5481335811,
				"element": "H" 
			},
			{
				"x": 0.1750682016,
				"y": 3.9144185073,
				"z": 2.9945985586,
				"element": "H" 
			},
			{
				"x": 1.2655243028,
				"y": 2.7746164111,
				"z": 2.186598776,
				"element": "H" 
			},
			{
				"x": -0.2283405877,
				"y": 2.1937516098,
				"z": 2.9436580259,
				"element": "H" 
			},
			{
				"x": -0.4996374359,
				"y": -1.7844092158,
				"z": -1.8709261793,
				"element": "H" 
			},
			{
				"x": -2.4544269834,
				"y": -1.6594106645,
				"z": 1.9736711469,
				"element": "H" 
			},
			{
				"x": -1.8946639851,
				"y": 0.7326838688,
				"z": 2.2581748086,
				"element": "H" 
			}
		],
		 "valence_orbital": [ 
			{
				"type": "occ",
				"energy": -0.3155,
				"method": "rhf"
			},
			{
				"type": "occ",
				"energy": -0.30314,
				"method": "rhf"
			},
			{
				"type": "occ",
				"energy": -0.28982,
				"method": "rhf"
			},
			{
				"type": "occ",
				"energy": -0.26186,
				"method": "rhf"
			},
			{
				"type": "occ",
				"energy": -0.25635,
				"method": "rhf"
			},
			{
				"type": "unocc",
				"energy": -0.0733,
				"method": "rhf"
			},
			{
				"type": "unocc",
				"energy": -0.04841,
				"method": "rhf"
			},
			{
				"type": "unocc",
				"energy": 0.01144,
				"method": "rhf"
			},
			{
				"type": "unocc",
				"energy": 0.02125,
				"method": "rhf"
			},
			{
				"type": "unocc",
				"energy": 0.0407,
				"method": "rhf"
			}
		],
		"cosmo_sigma_profile": { 
			"-0.025": 0.0,
			"-0.024": 0.0,
			"-0.023": 0.0,
			"-0.022": 0.0,
			"-0.021": 0.0,
			"-0.02": 0.0,
			"-0.019": 0.0,
			"-0.018": 0.0,
			"-0.017": 0.0,
			"-0.016": 0.0,
			"-0.015": 0.0,
			"-0.014": 0.0,
			"-0.013": 0.0,
			"-0.012": 0.0,
			"-0.011": 0.000812331159544,
			"-0.01": 0.124611471777,
			"-0.009": 0.772167830749,
			"-0.008": 3.22227489234,
			"-0.007": 4.49989946159,
			"-0.006": 7.44854001271,
			"-0.005": 12.6027747664,
			"-0.004": 22.0147573185,
			"-0.003": 26.4286791879,
			"-0.002": 27.8520989079,
			"-0.001": 34.1731802049,
			"0.0": 30.0555938737,
			"0.001": 31.4724195067,
			"0.002": 34.3098290612,
			"0.003": 12.5113866171,
			"0.004": 9.96298286215,
			"0.005": 8.75464076502,
			"0.006": 4.88934271332,
			"0.007": 3.80436955043,
			"0.008": 5.10375384925,
			"0.009": 4.80530970097,
			"0.01": 1.90409570075,
			"0.011": 0.763794207672,
			"0.012": 1.1786908317,
			"0.013": 0.935761496885,
			"0.014": 0.827862833854,
			"0.015": 0.160526937249,
			"0.016": 0.0,
			"0.017": 0.0,
			"0.018": 0.0,
			"0.019": 0.0,
			"0.02": 0.0,
			"0.021": 0.0,
			"0.022": 0.0,
			"0.023": 0.0,
			"0.024": 0.0,
			"0.025": 0.0
		}
	}
}
