{
	 "smiles": "C1=CC2=C(C=C1)C1=CC3=C(N=C1C=C2)C1=C(C=CC=C1)C=C3", 
	 "Tm": 499.15, 
	 "num_atms": 35, 
	 "gaussian": { 
		 "optdone": 1, 
		 "sigma_profile": "yes", 
		 "theory": "DFT", 
		 "functional": "B3LYP", 
		 "basiset": "6-31G**", 
		 "properties": { 
			 "R2extent": 7918.7743, 
			 "electric_dipole_moment_norm": 1.59494411187, 
			 "electric_quadrupole_moment_norm": 14.8269609661, 
			 "total_energy": -862.872205835, 
			 "HOMO_LUMO_gap": 0.14246, 
			 "cosmo_polarized_energy": -9.52, 
			 "cosmo_cavitation_energy": 38.13, 
			 "cosmo_dispersion_energy": -28.51, 
			 "cosmo_repulsion_energy": 2.05, 
			 "cosmo_total_nonelectrostatic_energy": 11.67, 
			 "SMD_solvation_energy": 4.23 
		},
		"coords": [
			{
				"x": -4.6562244234,
				"y": 1.4466029452,
				"z": -3.6778269493,
				"element": "C" 
			},
			{
				"x": -4.1423513013,
				"y": 0.1689245736,
				"z": -3.5527326934,
				"element": "C" 
			},
			{
				"x": -3.0670849099,
				"y": -0.1018094582,
				"z": -2.677793609,
				"element": "C" 
			},
			{
				"x": -2.5015444429,
				"y": 0.9583250774,
				"z": -1.9107094057,
				"element": "C" 
			},
			{
				"x": -3.0465801613,
				"y": 2.2526869015,
				"z": -2.0588796223,
				"element": "C" 
			},
			{
				"x": -4.1013782353,
				"y": 2.4950241497,
				"z": -2.9231196488,
				"element": "C" 
			},
			{
				"x": -1.3911479414,
				"y": 0.661780798,
				"z": -1.0115711632,
				"element": "C" 
			},
			{
				"x": -0.7557661112,
				"y": 1.6138205469,
				"z": -0.2105237927,
				"element": "C" 
			},
			{
				"x": 0.3041834572,
				"y": 1.2573787451,
				"z": 0.6289685542,
				"element": "C" 
			},
			{
				"x": 0.7162815729,
				"y": -0.1146675887,
				"z": 0.6401094406,
				"element": "C" 
			},
			{
				"x": 0.1206036071,
				"y": -1.0409975136,
				"z": -0.1194170512,
				"element": "N" 
			},
			{
				"x": -0.8962544275,
				"y": -0.6833292786,
				"z": -0.9206342158,
				"element": "C" 
			},
			{
				"x": -1.5041750153,
				"y": -1.7152462545,
				"z": -1.7177029753,
				"element": "C" 
			},
			{
				"x": -2.5374562519,
				"y": -1.434787937,
				"z": -2.5530932832,
				"element": "C" 
			},
			{
				"x": 1.8185701795,
				"y": -0.5186049187,
				"z": 1.5044954747,
				"element": "C" 
			},
			{
				"x": 2.4581569641,
				"y": 0.4595060005,
				"z": 2.3160886328,
				"element": "C" 
			},
			{
				"x": 3.5258644339,
				"y": 0.0636419032,
				"z": 3.15222891,
				"element": "C" 
			},
			{
				"x": 3.9481182799,
				"y": -1.2537406438,
				"z": 3.1860489138,
				"element": "C" 
			},
			{
				"x": 3.3125068879,
				"y": -2.2181576177,
				"z": 2.381408529,
				"element": "C" 
			},
			{
				"x": 2.2637036624,
				"y": -1.8550750401,
				"z": 1.5535196345,
				"element": "C" 
			},
			{
				"x": 2.0082430677,
				"y": 1.8271587704,
				"z": 2.2707621289,
				"element": "C" 
			},
			{
				"x": 0.9810005771,
				"y": 2.2097317911,
				"z": 1.4666356107,
				"element": "C" 
			},
			{
				"x": -5.4832162503,
				"y": 1.6404637851,
				"z": -4.3544392106,
				"element": "H" 
			},
			{
				"x": -4.5623188044,
				"y": -0.6504584031,
				"z": -4.1305764289,
				"element": "H" 
			},
			{
				"x": -2.6383239851,
				"y": 3.0806393797,
				"z": -1.4891698434,
				"element": "H" 
			},
			{
				"x": -4.500433771,
				"y": 3.5007911065,
				"z": -3.0168045541,
				"element": "H" 
			},
			{
				"x": -1.0732729365,
				"y": 2.6521689385,
				"z": -0.2240028732,
				"element": "H" 
			},
			{
				"x": -1.0991341864,
				"y": -2.7167472032,
				"z": -1.6178479125,
				"element": "H" 
			},
			{
				"x": -2.9898955186,
				"y": -2.2217689435,
				"z": -3.1511465391,
				"element": "H" 
			},
			{
				"x": 4.0130048405,
				"y": 0.8126635969,
				"z": 3.7714335548,
				"element": "H" 
			},
			{
				"x": 4.7704179166,
				"y": -1.5443412026,
				"z": 3.8336381738,
				"element": "H" 
			},
			{
				"x": 3.6468132893,
				"y": -3.2512378858,
				"z": 2.4106990129,
				"element": "H" 
			},
			{
				"x": 1.761461961,
				"y": -2.5829533509,
				"z": 0.9264451294,
				"element": "H" 
			},
			{
				"x": 2.5133598586,
				"y": 2.5550856214,
				"z": 2.9003622913,
				"element": "H" 
			},
			{
				"x": 0.6518681182,
				"y": 3.245528609,
				"z": 1.4424477803,
				"element": "H" 
			}
		],
		 "valence_orbital": [ 
			{
				"type": "occ",
				"energy": -0.25829,
				"method": "rhf"
			},
			{
				"type": "occ",
				"energy": -0.25169,
				"method": "rhf"
			},
			{
				"type": "occ",
				"energy": -0.2354,
				"method": "rhf"
			},
			{
				"type": "occ",
				"energy": -0.21978,
				"method": "rhf"
			},
			{
				"type": "occ",
				"energy": -0.20793,
				"method": "rhf"
			},
			{
				"type": "unocc",
				"energy": -0.06547,
				"method": "rhf"
			},
			{
				"type": "unocc",
				"energy": -0.04587,
				"method": "rhf"
			},
			{
				"type": "unocc",
				"energy": -0.02182,
				"method": "rhf"
			},
			{
				"type": "unocc",
				"energy": 0.0026,
				"method": "rhf"
			},
			{
				"type": "unocc",
				"energy": 0.00487,
				"method": "rhf"
			}
		],
		"cosmo_sigma_profile": { 
			"-0.025": 0.0,
			"-0.024": 0.0,
			"-0.023": 0.0,
			"-0.022": 0.0,
			"-0.021": 0.0,
			"-0.02": 0.0,
			"-0.019": 0.0,
			"-0.018": 0.0,
			"-0.017": 0.0,
			"-0.016": 0.0,
			"-0.015": 0.0,
			"-0.014": 0.0,
			"-0.013": 0.0,
			"-0.012": 0.0,
			"-0.011": 0.0,
			"-0.01": 0.0,
			"-0.009": 0.949018991456,
			"-0.008": 2.23739704284,
			"-0.007": 6.09466135978,
			"-0.006": 21.6692271067,
			"-0.005": 22.7788545064,
			"-0.004": 24.0849160214,
			"-0.003": 19.0438759204,
			"-0.002": 16.7593064484,
			"-0.001": 14.9455945783,
			"0.0": 16.5336571875,
			"0.001": 27.8485845134,
			"0.002": 37.705174804,
			"0.003": 35.6436528566,
			"0.004": 33.8527282015,
			"0.005": 18.4006175309,
			"0.006": 2.3621410078,
			"0.007": 1.47879456343,
			"0.008": 2.33988488327,
			"0.009": 1.36733854163,
			"0.01": 1.46531151385,
			"0.011": 0.680701030418,
			"0.012": 0.0,
			"0.013": 0.0,
			"0.014": 0.0,
			"0.015": 0.0,
			"0.016": 0.0,
			"0.017": 0.0,
			"0.018": 0.0,
			"0.019": 0.0,
			"0.02": 0.0,
			"0.021": 0.0,
			"0.022": 0.0,
			"0.023": 0.0,
			"0.024": 0.0,
			"0.025": 0.0
		}
	}
}
