{
	 "smiles": "C1COCCOC2=CC=CC=C2OCCOCCOCCOCCOC2=C(OCCOCCO1)C=CC=C2", 
	 "Tm": 379.15, 
	 "num_atms": 78, 
	 "gaussian": { 
		 "optdone": 1, 
		 "sigma_profile": "yes", 
		 "theory": "DFT", 
		 "functional": "B3LYP", 
		 "basiset": "6-31G**", 
		 "properties": { 
			 "R2extent": 24351.3611, 
			 "electric_dipole_moment_norm": 4.78006033226, 
			 "electric_quadrupole_moment_norm": 20.5362362525, 
			 "total_energy": -1843.1703468, 
			 "HOMO_LUMO_gap": 0.2001, 
			 "cosmo_polarized_energy": -26.74, 
			 "cosmo_cavitation_energy": 78.31, 
			 "cosmo_dispersion_energy": -46.98, 
			 "cosmo_repulsion_energy": 3.6, 
			 "cosmo_total_nonelectrostatic_energy": 34.94, 
			 "SMD_solvation_energy": 12.43 
		},
		"coords": [
			{
				"x": 3.370001443,
				"y": -3.3532780636,
				"z": 1.449938065,
				"element": "C" 
			},
			{
				"x": 3.4210663341,
				"y": -1.8439861792,
				"z": 1.6823393076,
				"element": "C" 
			},
			{
				"x": 3.9939741257,
				"y": -1.1374757725,
				"z": 0.5924318181,
				"element": "O" 
			},
			{
				"x": 3.0639775591,
				"y": -0.6745601217,
				"z": -0.3738328264,
				"element": "C" 
			},
			{
				"x": 3.8835675314,
				"y": -0.0664235359,
				"z": -1.5122189917,
				"element": "C" 
			},
			{
				"x": 3.0634240213,
				"y": 0.6851535232,
				"z": -2.4040881537,
				"element": "O" 
			},
			{
				"x": 2.7725381839,
				"y": 1.9902248807,
				"z": -2.1114238709,
				"element": "C" 
			},
			{
				"x": 3.1866709737,
				"y": 2.6704189302,
				"z": -0.9610960144,
				"element": "C" 
			},
			{
				"x": 2.8765362654,
				"y": 4.0236452096,
				"z": -0.7888535137,
				"element": "C" 
			},
			{
				"x": 2.1487096349,
				"y": 4.7101587453,
				"z": -1.7560151543,
				"element": "C" 
			},
			{
				"x": 1.712725582,
				"y": 4.0288115694,
				"z": -2.8956447742,
				"element": "C" 
			},
			{
				"x": 2.0065790088,
				"y": 2.6800377242,
				"z": -3.0806367797,
				"element": "C" 
			},
			{
				"x": 1.6201009426,
				"y": 2.0671697795,
				"z": -4.2502784874,
				"element": "O" 
			},
			{
				"x": 0.637569488,
				"y": 1.0282753704,
				"z": -4.1423921317,
				"element": "C" 
			},
			{
				"x": -0.7674055215,
				"y": 1.6202150094,
				"z": -4.0675586238,
				"element": "C" 
			},
			{
				"x": -1.6680482955,
				"y": 0.5334229081,
				"z": -3.9516988853,
				"element": "O" 
			},
			{
				"x": -3.0335058423,
				"y": 0.8682332104,
				"z": -4.0988395689,
				"element": "C" 
			},
			{
				"x": -3.6351776439,
				"y": 1.6482550372,
				"z": -2.9350120623,
				"element": "C" 
			},
			{
				"x": -3.5922117045,
				"y": 0.8502643157,
				"z": -1.7716031944,
				"element": "O" 
			},
			{
				"x": -4.1613385428,
				"y": 1.4764427998,
				"z": -0.6406272093,
				"element": "C" 
			},
			{
				"x": -3.9717620809,
				"y": 0.5766007073,
				"z": 0.5644787772,
				"element": "C" 
			},
			{
				"x": -2.6138153163,
				"y": 0.6191822932,
				"z": 0.961222607,
				"element": "O" 
			},
			{
				"x": -2.2672341842,
				"y": -0.3751824099,
				"z": 1.901866315,
				"element": "C" 
			},
			{
				"x": -0.7791783571,
				"y": -0.1960118353,
				"z": 2.1895394705,
				"element": "C" 
			},
			{
				"x": -0.270284639,
				"y": -1.2354295471,
				"z": 3.0388492236,
				"element": "O" 
			},
			{
				"x": -0.5887179457,
				"y": -1.1495021379,
				"z": 4.3818386473,
				"element": "C" 
			},
			{
				"x": -1.3565768847,
				"y": -2.1781104745,
				"z": 4.9615895318,
				"element": "C" 
			},
			{
				"x": -1.8705164655,
				"y": -3.1991358638,
				"z": 4.1994013797,
				"element": "O" 
			},
			{
				"x": -0.9295021497,
				"y": -4.1461952576,
				"z": 3.6676387481,
				"element": "C" 
			},
			{
				"x": -1.362088514,
				"y": -4.4590681861,
				"z": 2.2355694162,
				"element": "C" 
			},
			{
				"x": -0.5802131917,
				"y": -5.4576282378,
				"z": 1.5985205899,
				"element": "O" 
			},
			{
				"x": 0.8081166342,
				"y": -5.1864601343,
				"z": 1.4372719995,
				"element": "C" 
			},
			{
				"x": 1.1181835683,
				"y": -3.8504710497,
				"z": 0.7454878301,
				"element": "C" 
			},
			{
				"x": 2.4977411663,
				"y": -3.7632176857,
				"z": 0.401179974,
				"element": "O" 
			},
			{
				"x": -1.6588291617,
				"y": -2.1258718542,
				"z": 6.3237794424,
				"element": "C" 
			},
			{
				"x": -1.2105698077,
				"y": -1.0630890103,
				"z": 7.1091801548,
				"element": "C" 
			},
			{
				"x": -0.4369155793,
				"y": -0.0524985719,
				"z": 6.5364006947,
				"element": "C" 
			},
			{
				"x": -0.1232583075,
				"y": -0.0999271988,
				"z": 5.1770648261,
				"element": "C" 
			},
			{
				"x": 4.3672552098,
				"y": -3.6918558088,
				"z": 1.151066861,
				"element": "H" 
			},
			{
				"x": 3.1196462397,
				"y": -3.8483343161,
				"z": 2.4012200685,
				"element": "H" 
			},
			{
				"x": 4.0697687015,
				"y": -1.6627739171,
				"z": 2.549363919,
				"element": "H" 
			},
			{
				"x": 2.4264178134,
				"y": -1.4458253256,
				"z": 1.9325589871,
				"element": "H" 
			},
			{
				"x": 2.4399973912,
				"y": -1.4908935519,
				"z": -0.7556433741,
				"element": "H" 
			},
			{
				"x": 2.4018514024,
				"y": 0.0917965744,
				"z": 0.0610501329,
				"element": "H" 
			},
			{
				"x": 4.3317760656,
				"y": -0.8557242835,
				"z": -2.1202201681,
				"element": "H" 
			},
			{
				"x": 4.6956435041,
				"y": 0.5444287369,
				"z": -1.1030823405,
				"element": "H" 
			},
			{
				"x": 3.7578285103,
				"y": 2.1574689822,
				"z": -0.1962334453,
				"element": "H" 
			},
			{
				"x": 3.2142027412,
				"y": 4.5330315745,
				"z": 0.108915935,
				"element": "H" 
			},
			{
				"x": 1.9125955942,
				"y": 5.761919344,
				"z": -1.6276741661,
				"element": "H" 
			},
			{
				"x": 1.1445717457,
				"y": 4.5319362967,
				"z": -3.671924184,
				"element": "H" 
			},
			{
				"x": 0.8257204746,
				"y": 0.3906114126,
				"z": -3.2747048779,
				"element": "H" 
			},
			{
				"x": 0.7398453279,
				"y": 0.4189256846,
				"z": -5.0439290296,
				"element": "H" 
			},
			{
				"x": -0.8343553046,
				"y": 2.2994499654,
				"z": -3.2047538975,
				"element": "H" 
			},
			{
				"x": -0.9730306022,
				"y": 2.2104171119,
				"z": -4.9759664851,
				"element": "H" 
			},
			{
				"x": -3.1963611866,
				"y": 1.4476663318,
				"z": -5.0239627117,
				"element": "H" 
			},
			{
				"x": -3.564572437,
				"y": -0.0841904605,
				"z": -4.1935904751,
				"element": "H" 
			},
			{
				"x": -3.0978679551,
				"y": 2.5978453395,
				"z": -2.7751057439,
				"element": "H" 
			},
			{
				"x": -4.6761178899,
				"y": 1.9100190831,
				"z": -3.1987829422,
				"element": "H" 
			},
			{
				"x": -5.2403573023,
				"y": 1.6552651907,
				"z": -0.7925379987,
				"element": "H" 
			},
			{
				"x": -3.6857331729,
				"y": 2.4513666445,
				"z": -0.4453423726,
				"element": "H" 
			},
			{
				"x": -4.2685498928,
				"y": -0.4488751154,
				"z": 0.2950504472,
				"element": "H" 
			},
			{
				"x": -4.6275483172,
				"y": 0.9142910249,
				"z": 1.3847128711,
				"element": "H" 
			},
			{
				"x": -2.8531098529,
				"y": -0.2765468321,
				"z": 2.8304575732,
				"element": "H" 
			},
			{
				"x": -2.4516731122,
				"y": -1.3837205968,
				"z": 1.5011513638,
				"element": "H" 
			},
			{
				"x": -0.2160020601,
				"y": -0.2674878038,
				"z": 1.2561589087,
				"element": "H" 
			},
			{
				"x": -0.5972417673,
				"y": 0.7927153047,
				"z": 2.6256856287,
				"element": "H" 
			},
			{
				"x": -0.9418893666,
				"y": -5.055864516,
				"z": 4.2824128961,
				"element": "H" 
			},
			{
				"x": 0.0801528979,
				"y": -3.7263849468,
				"z": 3.6927565615,
				"element": "H" 
			},
			{
				"x": -1.3749231765,
				"y": -3.5210178793,
				"z": 1.666307022,
				"element": "H" 
			},
			{
				"x": -2.3837237195,
				"y": -4.8503648176,
				"z": 2.2491482338,
				"element": "H" 
			},
			{
				"x": 1.1925048089,
				"y": -5.9964075237,
				"z": 0.8111149797,
				"element": "H" 
			},
			{
				"x": 1.3340450217,
				"y": -5.2434536054,
				"z": 2.4027996269,
				"element": "H" 
			},
			{
				"x": 0.5595802731,
				"y": -3.7961608307,
				"z": -0.1947227171,
				"element": "H" 
			},
			{
				"x": 0.812455902,
				"y": -3.0002634351,
				"z": 1.3686745009,
				"element": "H" 
			},
			{
				"x": -2.261618993,
				"y": -2.924890779,
				"z": 6.743677062,
				"element": "H" 
			},
			{
				"x": -1.4575541502,
				"y": -1.0314201849,
				"z": 8.1659801558,
				"element": "H" 
			},
			{
				"x": -0.0727792913,
				"y": 0.7705282185,
				"z": 7.1437469359,
				"element": "H" 
			},
			{
				"x": 0.4874175978,
				"y": 0.6747848239,
				"z": 4.7230976821,
				"element": "H" 
			}
		],
		 "valence_orbital": [ 
			{
				"type": "occ",
				"energy": -0.2503,
				"method": "rhf"
			},
			{
				"type": "occ",
				"energy": -0.23599,
				"method": "rhf"
			},
			{
				"type": "occ",
				"energy": -0.23334,
				"method": "rhf"
			},
			{
				"type": "occ",
				"energy": -0.23263,
				"method": "rhf"
			},
			{
				"type": "occ",
				"energy": -0.20907,
				"method": "rhf"
			},
			{
				"type": "unocc",
				"energy": -0.00897,
				"method": "rhf"
			},
			{
				"type": "unocc",
				"energy": -0.00318,
				"method": "rhf"
			},
			{
				"type": "unocc",
				"energy": 0.00543,
				"method": "rhf"
			},
			{
				"type": "unocc",
				"energy": 0.01519,
				"method": "rhf"
			},
			{
				"type": "unocc",
				"energy": 0.05237,
				"method": "rhf"
			}
		],
		"cosmo_sigma_profile": { 
			"-0.025": 0.0,
			"-0.024": 0.0,
			"-0.023": 0.0,
			"-0.022": 0.0,
			"-0.021": 0.0,
			"-0.02": 0.0,
			"-0.019": 0.0,
			"-0.018": 0.0,
			"-0.017": 0.0,
			"-0.016": 0.0,
			"-0.015": 0.0,
			"-0.014": 0.0,
			"-0.013": 0.0,
			"-0.012": 0.0,
			"-0.011": 0.0,
			"-0.01": 0.0,
			"-0.009": 0.0463313739889,
			"-0.008": 0.503804719646,
			"-0.007": 3.31526863412,
			"-0.006": 17.4496972075,
			"-0.005": 41.8792977135,
			"-0.004": 90.7318581033,
			"-0.003": 87.5939675202,
			"-0.002": 66.1464126834,
			"-0.001": 51.0236818367,
			"0.0": 35.7521412305,
			"0.001": 26.1092356135,
			"0.002": 25.985414157,
			"0.003": 28.7541556727,
			"0.004": 29.7033788216,
			"0.005": 25.6463168753,
			"0.006": 17.9824053327,
			"0.007": 9.9838090609,
			"0.008": 9.62502814192,
			"0.009": 9.03907878569,
			"0.01": 8.88793942852,
			"0.011": 10.1966919209,
			"0.012": 8.36028156049,
			"0.013": 5.695236296,
			"0.014": 2.38917134749,
			"0.015": 0.37646014621,
			"0.016": 0.0,
			"0.017": 0.0,
			"0.018": 0.0,
			"0.019": 0.0,
			"0.02": 0.0,
			"0.021": 0.0,
			"0.022": 0.0,
			"0.023": 0.0,
			"0.024": 0.0,
			"0.025": 0.0
		}
	}
}
