{
	 "smiles": "OCC1(O)OC[C@@H](O)[C@@H](O)[C@@H]1O", 
	 "Tm": 392.15, 
	 "num_atms": 24, 
	 "gaussian": { 
		 "optdone": 1, 
		 "sigma_profile": "yes", 
		 "theory": "DFT", 
		 "functional": "B3LYP", 
		 "basiset": "6-31G**", 
		 "properties": { 
			 "R2extent": 1944.0155, 
			 "electric_dipole_moment_norm": 4.78560344471, 
			 "electric_quadrupole_moment_norm": 5.50344863972, 
			 "total_energy": -687.168448922, 
			 "HOMO_LUMO_gap": 0.28482, 
			 "cosmo_polarized_energy": -19.73, 
			 "cosmo_cavitation_energy": 25.06, 
			 "cosmo_dispersion_energy": -19.07, 
			 "cosmo_repulsion_energy": 1.53, 
			 "cosmo_total_nonelectrostatic_energy": 7.52, 
			 "SMD_solvation_energy": 4.15 
		},
		"coords": [
			{
				"x": -1.0109770258,
				"y": -1.2085723267,
				"z": 2.502797583,
				"element": "O" 
			},
			{
				"x": -1.0754687403,
				"y": -1.0597160699,
				"z": 1.0848163704,
				"element": "C" 
			},
			{
				"x": -0.8051561937,
				"y": 0.4299432152,
				"z": 0.8060555579,
				"element": "C" 
			},
			{
				"x": -1.6649989076,
				"y": 1.1905918431,
				"z": 1.6106191461,
				"element": "O" 
			},
			{
				"x": 0.5183372584,
				"y": 0.7937514483,
				"z": 1.1838259387,
				"element": "O" 
			},
			{
				"x": 1.5573790657,
				"y": 0.3226044605,
				"z": 0.3287856228,
				"element": "C" 
			},
			{
				"x": 1.3750655369,
				"y": 0.8279388367,
				"z": -1.1085236443,
				"element": "C" 
			},
			{
				"x": 2.3908620551,
				"y": 0.3260660911,
				"z": -1.9581111902,
				"element": "O" 
			},
			{
				"x": -0.0136178203,
				"y": 0.4470331116,
				"z": -1.63250807,
				"element": "C" 
			},
			{
				"x": 0.006076103,
				"y": -0.9774363796,
				"z": -1.8238803925,
				"element": "O" 
			},
			{
				"x": -1.1151392871,
				"y": 0.8655937303,
				"z": -0.6488830196,
				"element": "C" 
			},
			{
				"x": -1.2085129432,
				"y": 2.2735635073,
				"z": -0.725609226,
				"element": "O" 
			},
			{
				"x": -1.4237739651,
				"y": -2.0459148083,
				"z": 2.7423681742,
				"element": "H" 
			},
			{
				"x": -0.3484413739,
				"y": -1.6977820211,
				"z": 0.5724626968,
				"element": "H" 
			},
			{
				"x": -2.0760073357,
				"y": -1.3056489563,
				"z": 0.7031075769,
				"element": "H" 
			},
			{
				"x": -1.5890622637,
				"y": 0.8136832862,
				"z": 2.5023825747,
				"element": "H" 
			},
			{
				"x": 2.4911029046,
				"y": 0.7070903303,
				"z": 0.7453515675,
				"element": "H" 
			},
			{
				"x": 1.6180301235,
				"y": -0.775809539,
				"z": 0.3299531558,
				"element": "H" 
			},
			{
				"x": 1.4463054724,
				"y": 1.9188058408,
				"z": -1.1111054955,
				"element": "H" 
			},
			{
				"x": 2.1171686649,
				"y": -0.5774499067,
				"z": -2.1788666688,
				"element": "H" 
			},
			{
				"x": -0.1871220958,
				"y": 0.9579127375,
				"z": -2.5881305599,
				"element": "H" 
			},
			{
				"x": -0.6796046852,
				"y": -1.2104540381,
				"z": -2.4610915631,
				"element": "H" 
			},
			{
				"x": -2.0675863074,
				"y": 0.3939750556,
				"z": -0.950032979,
				"element": "H" 
			},
			{
				"x": -1.5461582398,
				"y": 2.5686305511,
				"z": 0.1345168441,
				"element": "H" 
			}
		],
		 "valence_orbital": [ 
			{
				"type": "occ",
				"energy": -0.29291,
				"method": "rhf"
			},
			{
				"type": "occ",
				"energy": -0.28544,
				"method": "rhf"
			},
			{
				"type": "occ",
				"energy": -0.27609,
				"method": "rhf"
			},
			{
				"type": "occ",
				"energy": -0.2635,
				"method": "rhf"
			},
			{
				"type": "occ",
				"energy": -0.24104,
				"method": "rhf"
			},
			{
				"type": "unocc",
				"energy": 0.04378,
				"method": "rhf"
			},
			{
				"type": "unocc",
				"energy": 0.05349,
				"method": "rhf"
			},
			{
				"type": "unocc",
				"energy": 0.09611,
				"method": "rhf"
			},
			{
				"type": "unocc",
				"energy": 0.10938,
				"method": "rhf"
			},
			{
				"type": "unocc",
				"energy": 0.11741,
				"method": "rhf"
			}
		],
		"cosmo_sigma_profile": { 
			"-0.025": 0.0,
			"-0.024": 0.0,
			"-0.023": 0.0,
			"-0.022": 0.0,
			"-0.021": 0.0,
			"-0.02": 0.0,
			"-0.019": 0.0,
			"-0.018": 0.0,
			"-0.017": 0.936750207733,
			"-0.016": 2.33015860045,
			"-0.015": 2.01053820529,
			"-0.014": 1.44801488711,
			"-0.013": 3.00778604351,
			"-0.012": 2.33660840698,
			"-0.011": 3.42508237734,
			"-0.01": 3.74172977712,
			"-0.009": 2.5611809665,
			"-0.008": 3.56368647863,
			"-0.007": 4.64557696711,
			"-0.006": 6.12262577948,
			"-0.005": 13.1794941564,
			"-0.004": 16.1540393156,
			"-0.003": 13.7046090638,
			"-0.002": 11.2582760423,
			"-0.001": 9.26783182959,
			"0.0": 7.94435222469,
			"0.001": 10.2837951806,
			"0.002": 7.33887615118,
			"0.003": 6.00299141194,
			"0.004": 6.21441687182,
			"0.005": 6.91169822801,
			"0.006": 7.13714489318,
			"0.007": 5.48981613966,
			"0.008": 5.41978579232,
			"0.009": 6.08219244705,
			"0.01": 4.79302019059,
			"0.011": 5.69008289521,
			"0.012": 5.19356936257,
			"0.013": 5.17138889101,
			"0.014": 3.41393475755,
			"0.015": 0.110373357592,
			"0.016": 0.0,
			"0.017": 0.0,
			"0.018": 0.0,
			"0.019": 0.0,
			"0.02": 0.0,
			"0.021": 0.0,
			"0.022": 0.0,
			"0.023": 0.0,
			"0.024": 0.0,
			"0.025": 0.0
		}
	}
}
