{
	 "smiles": "ClC1=CC=CC=C1C(=O)C1=CC=CC=C1", 
	 "Tm": 319.15, 
	 "num_atms": 24, 
	 "gaussian": { 
		 "optdone": 1, 
		 "sigma_profile": "yes", 
		 "theory": "DFT", 
		 "functional": "B3LYP", 
		 "basiset": "6-31G**", 
		 "properties": { 
			 "R2extent": 3625.9632, 
			 "electric_dipole_moment_norm": 2.98136632771, 
			 "electric_quadrupole_moment_norm": 13.8955024907, 
			 "total_energy": -1036.21992095, 
			 "HOMO_LUMO_gap": 0.18455, 
			 "cosmo_polarized_energy": -9.06, 
			 "cosmo_cavitation_energy": 30.22, 
			 "cosmo_dispersion_energy": -21.54, 
			 "cosmo_repulsion_energy": 1.68, 
			 "cosmo_total_nonelectrostatic_energy": 10.36, 
			 "SMD_solvation_energy": 5.34 
		},
		"coords": [
			{
				"x": 1.4890470984,
				"y": -0.2334391993,
				"z": -1.0146401244,
				"element": "Cl" 
			},
			{
				"x": -0.1301488263,
				"y": 0.2537824682,
				"z": -1.5063441827,
				"element": "C" 
			},
			{
				"x": -0.4320361031,
				"y": 0.2241147588,
				"z": -2.8689570695,
				"element": "C" 
			},
			{
				"x": -1.6847041452,
				"y": 0.6510559301,
				"z": -3.3062816156,
				"element": "C" 
			},
			{
				"x": -2.622030429,
				"y": 1.1276136941,
				"z": -2.3876847074,
				"element": "C" 
			},
			{
				"x": -2.30219811,
				"y": 1.1665990268,
				"z": -1.0335969461,
				"element": "C" 
			},
			{
				"x": -1.0614486432,
				"y": 0.7085124025,
				"z": -0.562854951,
				"element": "C" 
			},
			{
				"x": -0.8063695644,
				"y": 0.8237358961,
				"z": 0.9249988032,
				"element": "C" 
			},
			{
				"x": -0.9245880106,
				"y": 1.9204389722,
				"z": 1.4535929567,
				"element": "O" 
			},
			{
				"x": -0.5095772573,
				"y": -0.3967790756,
				"z": 1.7325066139,
				"element": "C" 
			},
			{
				"x": -0.0883602547,
				"y": -0.2232611179,
				"z": 3.0608610615,
				"element": "C" 
			},
			{
				"x": 0.1578816767,
				"y": -1.328512056,
				"z": 3.8687636442,
				"element": "C" 
			},
			{
				"x": -0.0290692794,
				"y": -2.6192747498,
				"z": 3.3631100844,
				"element": "C" 
			},
			{
				"x": -0.4608989264,
				"y": -2.8001350248,
				"z": 2.0475830154,
				"element": "C" 
			},
			{
				"x": -0.6968077664,
				"y": -1.6938233735,
				"z": 1.232633188,
				"element": "C" 
			},
			{
				"x": 0.3163428266,
				"y": -0.1215876366,
				"z": -3.5734613143,
				"element": "H" 
			},
			{
				"x": -1.9193983674,
				"y": 0.6216295896,
				"z": -4.3660659826,
				"element": "H" 
			},
			{
				"x": -3.5931608261,
				"y": 1.4754175448,
				"z": -2.7257706604,
				"element": "H" 
			},
			{
				"x": -3.0124389385,
				"y": 1.5555393639,
				"z": -0.310810492,
				"element": "H" 
			},
			{
				"x": 0.0369072442,
				"y": 0.7877679077,
				"z": 3.4336300284,
				"element": "H" 
			},
			{
				"x": 0.4921742238,
				"y": -1.1887359654,
				"z": 4.8926258975,
				"element": "H" 
			},
			{
				"x": 0.1598308187,
				"y": -3.4823877618,
				"z": 3.9952478959,
				"element": "H" 
			},
			{
				"x": -0.612802825,
				"y": -3.8018419609,
				"z": 1.6567074577,
				"element": "H" 
			},
			{
				"x": -1.0350456156,
				"y": -1.8366296332,
				"z": 0.2115073992,
				"element": "H" 
			}
		],
		 "valence_orbital": [ 
			{
				"type": "occ",
				"energy": -0.27316,
				"method": "rhf"
			},
			{
				"type": "occ",
				"energy": -0.25988,
				"method": "rhf"
			},
			{
				"type": "occ",
				"energy": -0.25858,
				"method": "rhf"
			},
			{
				"type": "occ",
				"energy": -0.25424,
				"method": "rhf"
			},
			{
				"type": "occ",
				"energy": -0.24911,
				"method": "rhf"
			},
			{
				"type": "unocc",
				"energy": -0.06456,
				"method": "rhf"
			},
			{
				"type": "unocc",
				"energy": -0.02145,
				"method": "rhf"
			},
			{
				"type": "unocc",
				"energy": -0.01959,
				"method": "rhf"
			},
			{
				"type": "unocc",
				"energy": -0.00763,
				"method": "rhf"
			},
			{
				"type": "unocc",
				"energy": 0.02569,
				"method": "rhf"
			}
		],
		"cosmo_sigma_profile": { 
			"-0.025": 0.0,
			"-0.024": 0.0,
			"-0.023": 0.0,
			"-0.022": 0.0,
			"-0.021": 0.0,
			"-0.02": 0.0,
			"-0.019": 0.0,
			"-0.018": 0.0,
			"-0.017": 0.0,
			"-0.016": 0.0,
			"-0.015": 0.0,
			"-0.014": 0.0,
			"-0.013": 0.0,
			"-0.012": 0.0,
			"-0.011": 0.0,
			"-0.01": 0.0,
			"-0.009": 0.0,
			"-0.008": 0.528709526002,
			"-0.007": 8.22267046268,
			"-0.006": 17.5449497043,
			"-0.005": 20.2446072683,
			"-0.004": 17.9123511914,
			"-0.003": 14.064531462,
			"-0.002": 16.0338127914,
			"-0.001": 14.1548640985,
			"0.0": 19.8218729461,
			"0.001": 20.0182759245,
			"0.002": 23.5070933098,
			"0.003": 27.1156737601,
			"0.004": 23.3210370684,
			"0.005": 6.38921786136,
			"0.006": 1.83661494528,
			"0.007": 1.69271496988,
			"0.008": 2.28089633736,
			"0.009": 1.78011861476,
			"0.01": 2.17929254207,
			"0.011": 4.31218035241,
			"0.012": 2.10888273158,
			"0.013": 0.24654716688,
			"0.014": 0.0,
			"0.015": 0.0,
			"0.016": 0.0,
			"0.017": 0.0,
			"0.018": 0.0,
			"0.019": 0.0,
			"0.02": 0.0,
			"0.021": 0.0,
			"0.022": 0.0,
			"0.023": 0.0,
			"0.024": 0.0,
			"0.025": 0.0
		}
	}
}
