{
	 "smiles": "[O-][N+](=O)C1=CC=CC=C1C(=O)CBr", 
	 "Tm": 328.15, 
	 "num_atms": 19, 
	 "gaussian": { 
		 "optdone": 1, 
		 "sigma_profile": "yes", 
		 "theory": "DFT", 
		 "functional": "B3LYP", 
		 "basiset": "6-31G**", 
		 "properties": { 
			 "R2extent": 5107.0411, 
			 "electric_dipole_moment_norm": 4.19795196852, 
			 "electric_quadrupole_moment_norm": 8.0102367749, 
			 "total_energy": -3160.18024485, 
			 "HOMO_LUMO_gap": 0.15765, 
			 "cosmo_polarized_energy": -11.51, 
			 "cosmo_cavitation_energy": 26.69, 
			 "cosmo_dispersion_energy": -19.25, 
			 "cosmo_repulsion_energy": 1.54, 
			 "cosmo_total_nonelectrostatic_energy": 8.97, 
			 "SMD_solvation_energy": 5.96 
		},
		"coords": [
			{
				"x": 1.007149144,
				"y": 3.2051135383,
				"z": -0.7821136017,
				"element": "O" 
			},
			{
				"x": 1.2650734625,
				"y": 2.0057214986,
				"z": -0.7785629413,
				"element": "N" 
			},
			{
				"x": 1.8734579681,
				"y": 1.4224305789,
				"z": -1.6830865831,
				"element": "O" 
			},
			{
				"x": 0.8198118649,
				"y": 1.1998696323,
				"z": 0.3664135456,
				"element": "C" 
			},
			{
				"x": 0.0284562333,
				"y": 1.8260940694,
				"z": 1.3297334201,
				"element": "C" 
			},
			{
				"x": -0.4496036273,
				"y": 1.0795700175,
				"z": 2.4016398492,
				"element": "C" 
			},
			{
				"x": -0.1460126631,
				"y": -0.2813504662,
				"z": 2.4895082244,
				"element": "C" 
			},
			{
				"x": 0.6400910955,
				"y": -0.8933146393,
				"z": 1.5135746961,
				"element": "C" 
			},
			{
				"x": 1.1547287928,
				"y": -0.1592223542,
				"z": 0.4384068357,
				"element": "C" 
			},
			{
				"x": 1.9938887794,
				"y": -0.9097642584,
				"z": -0.577924697,
				"element": "C" 
			},
			{
				"x": 1.4931976095,
				"y": -1.7906010159,
				"z": -1.2439251974,
				"element": "O" 
			},
			{
				"x": 3.4918538265,
				"y": -0.6488053819,
				"z": -0.6146133985,
				"element": "C" 
			},
			{
				"x": 4.3248147048,
				"y": -1.6145837369,
				"z": 0.9054640977,
				"element": "Br" 
			},
			{
				"x": -0.2047759662,
				"y": 2.8768796421,
				"z": 1.2127962094,
				"element": "H" 
			},
			{
				"x": -1.0653568652,
				"y": 1.5554394692,
				"z": 3.1577923505,
				"element": "H" 
			},
			{
				"x": -0.525607541,
				"y": -0.8707562031,
				"z": 3.3184271736,
				"element": "H" 
			},
			{
				"x": 0.8728519152,
				"y": -1.9504216728,
				"z": 1.5806914005,
				"element": "H" 
			},
			{
				"x": 3.9181734456,
				"y": -1.0711336878,
				"z": -1.5216559694,
				"element": "H" 
			},
			{
				"x": 3.7610078209,
				"y": 0.3959349703,
				"z": -0.4900654143,
				"element": "H" 
			}
		],
		 "valence_orbital": [ 
			{
				"type": "occ",
				"energy": -0.30211,
				"method": "rhf"
			},
			{
				"type": "occ",
				"energy": -0.29597,
				"method": "rhf"
			},
			{
				"type": "occ",
				"energy": -0.29318,
				"method": "rhf"
			},
			{
				"type": "occ",
				"energy": -0.28567,
				"method": "rhf"
			},
			{
				"type": "occ",
				"energy": -0.26605,
				"method": "rhf"
			},
			{
				"type": "unocc",
				"energy": -0.1084,
				"method": "rhf"
			},
			{
				"type": "unocc",
				"energy": -0.06437,
				"method": "rhf"
			},
			{
				"type": "unocc",
				"energy": -0.03925,
				"method": "rhf"
			},
			{
				"type": "unocc",
				"energy": -0.01462,
				"method": "rhf"
			},
			{
				"type": "unocc",
				"energy": 0.02152,
				"method": "rhf"
			}
		],
		"cosmo_sigma_profile": { 
			"-0.025": 0.0,
			"-0.024": 0.0,
			"-0.023": 0.0,
			"-0.022": 0.0,
			"-0.021": 0.0,
			"-0.02": 0.0,
			"-0.019": 0.0,
			"-0.018": 0.0,
			"-0.017": 0.0,
			"-0.016": 0.0,
			"-0.015": 0.0,
			"-0.014": 0.0,
			"-0.013": 0.000218051750135,
			"-0.012": 0.172269404313,
			"-0.011": 0.542468525688,
			"-0.01": 1.21854724279,
			"-0.009": 2.786215613,
			"-0.008": 9.84319938667,
			"-0.007": 13.1641756121,
			"-0.006": 12.1253012189,
			"-0.005": 11.022042446,
			"-0.004": 12.2038753175,
			"-0.003": 11.3376274918,
			"-0.002": 12.3902782356,
			"-0.001": 14.3314501991,
			"0.0": 15.1096983867,
			"0.001": 18.1065473156,
			"0.002": 12.7409002191,
			"0.003": 11.1377537931,
			"0.004": 12.7475855325,
			"0.005": 11.564308945,
			"0.006": 7.48288031702,
			"0.007": 8.12510603533,
			"0.008": 6.01631463851,
			"0.009": 5.79499969461,
			"0.01": 4.78397830422,
			"0.011": 2.53755651478,
			"0.012": 0.147735897384,
			"0.013": 0.0,
			"0.014": 0.0,
			"0.015": 0.0,
			"0.016": 0.0,
			"0.017": 0.0,
			"0.018": 0.0,
			"0.019": 0.0,
			"0.02": 0.0,
			"0.021": 0.0,
			"0.022": 0.0,
			"0.023": 0.0,
			"0.024": 0.0,
			"0.025": 0.0
		}
	}
}
