{
	 "smiles": "C1CC(CCN1)C1=NC(=NO1)C1=NC=CN=C1", 
	 "Tm": 361.15, 
	 "num_atms": 30, 
	 "gaussian": { 
		 "optdone": 1, 
		 "sigma_profile": "yes", 
		 "theory": "DFT", 
		 "functional": "B3LYP", 
		 "basiset": "6-31G**", 
		 "properties": { 
			 "R2extent": 6406.7284, 
			 "electric_dipole_moment_norm": 2.01011991185, 
			 "electric_quadrupole_moment_norm": 10.2104712888, 
			 "total_energy": -775.922594414, 
			 "HOMO_LUMO_gap": 0.14716, 
			 "cosmo_polarized_energy": -13.8, 
			 "cosmo_cavitation_energy": 33.03, 
			 "cosmo_dispersion_energy": -24.57, 
			 "cosmo_repulsion_energy": 1.89, 
			 "cosmo_total_nonelectrostatic_energy": 10.35, 
			 "SMD_solvation_energy": -2.65 
		},
		"coords": [
			{
				"x": 1.837253238,
				"y": 0.0890058024,
				"z": -3.3583849603,
				"element": "C" 
			},
			{
				"x": 1.8219752784,
				"y": -0.027812639,
				"z": -1.812651522,
				"element": "C" 
			},
			{
				"x": 0.8040801791,
				"y": 0.9582625208,
				"z": -1.1605393344,
				"element": "C" 
			},
			{
				"x": 0.5239895551,
				"y": 2.1453544611,
				"z": -2.1178061899,
				"element": "C" 
			},
			{
				"x": -0.0031356283,
				"y": 1.6794188243,
				"z": -3.4973841709,
				"element": "C" 
			},
			{
				"x": 0.5311854493,
				"y": 0.3820135766,
				"z": -3.942599634,
				"element": "N" 
			},
			{
				"x": -0.4702898934,
				"y": 0.3017687124,
				"z": -0.7221030354,
				"element": "C" 
			},
			{
				"x": -1.1450130598,
				"y": 0.5300765738,
				"z": 0.3671814706,
				"element": "N" 
			},
			{
				"x": -2.2240637108,
				"y": -0.3157272099,
				"z": 0.2363725106,
				"element": "C" 
			},
			{
				"x": -2.2277199488,
				"y": -1.0343563022,
				"z": -0.8651872439,
				"element": "N" 
			},
			{
				"x": -1.0569256868,
				"y": -0.6260801958,
				"z": -1.5139084678,
				"element": "O" 
			},
			{
				"x": -3.305167681,
				"y": -0.4361277238,
				"z": 1.2340621236,
				"element": "C" 
			},
			{
				"x": -3.2349307577,
				"y": 0.3383844644,
				"z": 2.3250897623,
				"element": "N" 
			},
			{
				"x": -4.2276732286,
				"y": 0.2063863806,
				"z": 3.2078681202,
				"element": "C" 
			},
			{
				"x": -5.2828991947,
				"y": -0.6866895181,
				"z": 3.0104560867,
				"element": "C" 
			},
			{
				"x": -5.3580443561,
				"y": -1.462862167,
				"z": 1.9220138559,
				"element": "N" 
			},
			{
				"x": -4.3680690127,
				"y": -1.3348315169,
				"z": 1.0371569501,
				"element": "C" 
			},
			{
				"x": 2.2239835919,
				"y": -0.8370308679,
				"z": -3.7966037922,
				"element": "H" 
			},
			{
				"x": 2.5275717324,
				"y": 0.8847034281,
				"z": -3.6658729904,
				"element": "H" 
			},
			{
				"x": 2.8217853004,
				"y": 0.179776237,
				"z": -1.4141740636,
				"element": "H" 
			},
			{
				"x": 1.5799829075,
				"y": -1.0550544212,
				"z": -1.5207656711,
				"element": "H" 
			},
			{
				"x": 1.2215907709,
				"y": 1.3621682645,
				"z": -0.2343457273,
				"element": "H" 
			},
			{
				"x": 1.4720163613,
				"y": 2.6815076045,
				"z": -2.2413804464,
				"element": "H" 
			},
			{
				"x": -0.174143214,
				"y": 2.8510379604,
				"z": -1.655978804,
				"element": "H" 
			},
			{
				"x": 0.2429912453,
				"y": 2.449908865,
				"z": -4.2412134738,
				"element": "H" 
			},
			{
				"x": -1.0952957891,
				"y": 1.6050430192,
				"z": -3.4796069662,
				"element": "H" 
			},
			{
				"x": -0.1186126261,
				"y": -0.3542489889,
				"z": -3.6842241081,
				"element": "H" 
			},
			{
				"x": -4.1816088967,
				"y": 0.8300722547,
				"z": 4.0982047195,
				"element": "H" 
			},
			{
				"x": -6.0827433118,
				"y": -0.7792084663,
				"z": 3.7419831583,
				"element": "H" 
			},
			{
				"x": -4.4074696131,
				"y": -1.9552589326,
				"z": 0.1457418442,
				"element": "H" 
			}
		],
		 "valence_orbital": [ 
			{
				"type": "occ",
				"energy": -0.3017,
				"method": "rhf"
			},
			{
				"type": "occ",
				"energy": -0.30035,
				"method": "rhf"
			},
			{
				"type": "occ",
				"energy": -0.26648,
				"method": "rhf"
			},
			{
				"type": "occ",
				"energy": -0.25579,
				"method": "rhf"
			},
			{
				"type": "occ",
				"energy": -0.21678,
				"method": "rhf"
			},
			{
				"type": "unocc",
				"energy": -0.06962,
				"method": "rhf"
			},
			{
				"type": "unocc",
				"energy": -0.04989,
				"method": "rhf"
			},
			{
				"type": "unocc",
				"energy": -0.01305,
				"method": "rhf"
			},
			{
				"type": "unocc",
				"energy": 0.05158,
				"method": "rhf"
			},
			{
				"type": "unocc",
				"energy": 0.06187,
				"method": "rhf"
			}
		],
		"cosmo_sigma_profile": { 
			"-0.025": 0.0,
			"-0.024": 0.0,
			"-0.023": 0.0,
			"-0.022": 0.0,
			"-0.021": 0.0,
			"-0.02": 0.0,
			"-0.019": 0.0,
			"-0.018": 0.0,
			"-0.017": 0.0,
			"-0.016": 0.0,
			"-0.015": 0.0,
			"-0.014": 0.0,
			"-0.013": 0.0,
			"-0.012": 0.0,
			"-0.011": 0.0,
			"-0.01": 0.0,
			"-0.009": 0.230526883207,
			"-0.008": 5.27438823721,
			"-0.007": 7.26744899232,
			"-0.006": 7.15062284995,
			"-0.005": 12.0923987274,
			"-0.004": 30.6743580026,
			"-0.003": 40.2820437633,
			"-0.002": 34.2430683196,
			"-0.001": 28.745353453,
			"0.0": 16.2983869283,
			"0.001": 11.0649053062,
			"0.002": 7.63715279332,
			"0.003": 6.8176588424,
			"0.004": 6.45457923643,
			"0.005": 5.68660677816,
			"0.006": 6.51561320082,
			"0.007": 4.40920963798,
			"0.008": 3.80007749125,
			"0.009": 4.52030333537,
			"0.01": 4.31054204857,
			"0.011": 4.36428318185,
			"0.012": 2.74088803922,
			"0.013": 2.89361179423,
			"0.014": 2.75431419193,
			"0.015": 1.72749174339,
			"0.016": 2.42624787129,
			"0.017": 1.10718934851,
			"0.018": 0.553093260422,
			"0.019": 0.143773486754,
			"0.02": 0.0,
			"0.021": 0.0,
			"0.022": 0.0,
			"0.023": 0.0,
			"0.024": 0.0,
			"0.025": 0.0
		}
	}
}
