{
	 "smiles": "CC1=CC(=O)OC2=C1C=CC(OCC(Cl)=O)=C2", 
	 "Tm": 402.15, 
	 "num_atms": 26, 
	 "gaussian": { 
		 "optdone": 1, 
		 "sigma_profile": "yes", 
		 "theory": "DFT", 
		 "functional": "B3LYP", 
		 "basiset": "6-31G**", 
		 "properties": { 
			 "R2extent": 5757.7233, 
			 "electric_dipole_moment_norm": 5.96759317146, 
			 "electric_quadrupole_moment_norm": 21.7206673535, 
			 "total_energy": -1223.78645448, 
			 "HOMO_LUMO_gap": 0.16675, 
			 "cosmo_polarized_energy": -16.41, 
			 "cosmo_cavitation_energy": 33.13, 
			 "cosmo_dispersion_energy": -23.78, 
			 "cosmo_repulsion_energy": 1.85, 
			 "cosmo_total_nonelectrostatic_energy": 11.2, 
			 "SMD_solvation_energy": 7.57 
		},
		"coords": [
			{
				"x": 2.6484508435,
				"y": 2.183804375,
				"z": 2.6884180875,
				"element": "C" 
			},
			{
				"x": 1.1698431188,
				"y": 1.9731183605,
				"z": 2.5053788564,
				"element": "C" 
			},
			{
				"x": 0.2805177095,
				"y": 2.3635208853,
				"z": 3.4547279575,
				"element": "C" 
			},
			{
				"x": -1.1561079285,
				"y": 2.1820496771,
				"z": 3.323785773,
				"element": "C" 
			},
			{
				"x": -1.9992520792,
				"y": 2.5085258487,
				"z": 4.1245875681,
				"element": "O" 
			},
			{
				"x": -1.589427082,
				"y": 1.564985884,
				"z": 2.1421975391,
				"element": "O" 
			},
			{
				"x": -0.7239514565,
				"y": 1.1632889535,
				"z": 1.1736735111,
				"element": "C" 
			},
			{
				"x": 0.6667175612,
				"y": 1.3416982649,
				"z": 1.297497145,
				"element": "C" 
			},
			{
				"x": 1.4752203968,
				"y": 0.8887143659,
				"z": 0.2338688924,
				"element": "C" 
			},
			{
				"x": 0.9281700671,
				"y": 0.295356278,
				"z": -0.8884125739,
				"element": "C" 
			},
			{
				"x": -0.4659207052,
				"y": 0.1331113553,
				"z": -0.9801309763,
				"element": "C" 
			},
			{
				"x": -0.9042414408,
				"y": -0.4605092262,
				"z": -2.1360329971,
				"element": "O" 
			},
			{
				"x": -2.2846270447,
				"y": -0.6052221934,
				"z": -2.3432300405,
				"element": "C" 
			},
			{
				"x": -2.9703079868,
				"y": -1.7237537167,
				"z": -1.5491477358,
				"element": "C" 
			},
			{
				"x": -1.9066983801,
				"y": -3.1387344291,
				"z": -1.2074473994,
				"element": "Cl" 
			},
			{
				"x": -4.1187238193,
				"y": -1.7125271193,
				"z": -1.2384741151,
				"element": "O" 
			},
			{
				"x": -1.3000824951,
				"y": 0.5623279382,
				"z": 0.0489437179,
				"element": "C" 
			},
			{
				"x": 2.8593277134,
				"y": 2.6677321231,
				"z": 3.6440559442,
				"element": "H" 
			},
			{
				"x": 3.0591685285,
				"y": 2.8107529087,
				"z": 1.8887063343,
				"element": "H" 
			},
			{
				"x": 3.1883197753,
				"y": 1.2303949046,
				"z": 2.6605017923,
				"element": "H" 
			},
			{
				"x": 0.5999598082,
				"y": 2.8393585958,
				"z": 4.3748120801,
				"element": "H" 
			},
			{
				"x": 2.5515271781,
				"y": 1.008385044,
				"z": 0.2950978524,
				"element": "H" 
			},
			{
				"x": 1.5476939682,
				"y": -0.0528334605,
				"z": -1.7069060445,
				"element": "H" 
			},
			{
				"x": -2.8430269163,
				"y": 0.316174539,
				"z": -2.1435363943,
				"element": "H" 
			},
			{
				"x": -2.4054535508,
				"y": -0.8618881543,
				"z": -3.40118747,
				"element": "H" 
			},
			{
				"x": -2.376795783,
				"y": 0.449467998,
				"z": 0.0336526956,
				"element": "H" 
			}
		],
		 "valence_orbital": [ 
			{
				"type": "occ",
				"energy": -0.31294,
				"method": "rhf"
			},
			{
				"type": "occ",
				"energy": -0.29307,
				"method": "rhf"
			},
			{
				"type": "occ",
				"energy": -0.2728,
				"method": "rhf"
			},
			{
				"type": "occ",
				"energy": -0.26201,
				"method": "rhf"
			},
			{
				"type": "occ",
				"energy": -0.23145,
				"method": "rhf"
			},
			{
				"type": "unocc",
				"energy": -0.0647,
				"method": "rhf"
			},
			{
				"type": "unocc",
				"energy": -0.05988,
				"method": "rhf"
			},
			{
				"type": "unocc",
				"energy": -0.01983,
				"method": "rhf"
			},
			{
				"type": "unocc",
				"energy": 0.00083,
				"method": "rhf"
			},
			{
				"type": "unocc",
				"energy": 0.0113,
				"method": "rhf"
			}
		],
		"cosmo_sigma_profile": { 
			"-0.025": 0.0,
			"-0.024": 0.0,
			"-0.023": 0.0,
			"-0.022": 0.0,
			"-0.021": 0.0,
			"-0.02": 0.0,
			"-0.019": 0.0,
			"-0.018": 0.0,
			"-0.017": 0.0,
			"-0.016": 0.0,
			"-0.015": 0.0,
			"-0.014": 0.0,
			"-0.013": 0.0,
			"-0.012": 0.381216932532,
			"-0.011": 2.57832888167,
			"-0.01": 3.79418512975,
			"-0.009": 4.9348432136,
			"-0.008": 5.40986255369,
			"-0.007": 11.6639735996,
			"-0.006": 14.8285009393,
			"-0.005": 14.9085401144,
			"-0.004": 15.1480623389,
			"-0.003": 14.712300605,
			"-0.002": 18.156999383,
			"-0.001": 19.8520562591,
			"0.0": 19.633703071,
			"0.001": 24.6293365774,
			"0.002": 21.0179591554,
			"0.003": 18.1130086646,
			"0.004": 11.6622772365,
			"0.005": 6.94026745732,
			"0.006": 5.77026167261,
			"0.007": 7.79585942428,
			"0.008": 6.88894876414,
			"0.009": 3.21869412893,
			"0.01": 2.48764075569,
			"0.011": 3.36889303652,
			"0.012": 6.45347839228,
			"0.013": 3.42050195107,
			"0.014": 0.156733396734,
			"0.015": 0.0,
			"0.016": 0.0,
			"0.017": 0.0,
			"0.018": 0.0,
			"0.019": 0.0,
			"0.02": 0.0,
			"0.021": 0.0,
			"0.022": 0.0,
			"0.023": 0.0,
			"0.024": 0.0,
			"0.025": 0.0
		}
	}
}
