{
	 "smiles": "CC1=C(C=CC(N)=C1)S(N)(=O)=O", 
	 "Tm": 443.15, 
	 "num_atms": 22, 
	 "gaussian": { 
		 "optdone": 1, 
		 "sigma_profile": "yes", 
		 "theory": "DFT", 
		 "functional": "B3LYP", 
		 "basiset": "6-31G**", 
		 "properties": { 
			 "R2extent": 2737.5471, 
			 "electric_dipole_moment_norm": 7.14611294271, 
			 "electric_quadrupole_moment_norm": 18.2267851611, 
			 "total_energy": -930.850587006, 
			 "HOMO_LUMO_gap": 0.20011, 
			 "cosmo_polarized_energy": -22.91, 
			 "cosmo_cavitation_energy": 26.37, 
			 "cosmo_dispersion_energy": -20.19, 
			 "cosmo_repulsion_energy": 1.55, 
			 "cosmo_total_nonelectrostatic_energy": 7.72, 
			 "SMD_solvation_energy": 4.14 
		},
		"coords": [
			{
				"x": -0.3077786485,
				"y": -0.5364151683,
				"z": -1.4428284278,
				"element": "C" 
			},
			{
				"x": 0.0782880364,
				"y": 0.2790899343,
				"z": -0.2300683427,
				"element": "C" 
			},
			{
				"x": -0.0110005267,
				"y": -0.2054571506,
				"z": 1.0943658332,
				"element": "C" 
			},
			{
				"x": 0.3575055768,
				"y": 0.606653282,
				"z": 2.1729025758,
				"element": "C" 
			},
			{
				"x": 0.809648622,
				"y": 1.9021175272,
				"z": 1.9679579228,
				"element": "C" 
			},
			{
				"x": 0.9054690189,
				"y": 2.412946529,
				"z": 0.6623175513,
				"element": "C" 
			},
			{
				"x": 1.3082194529,
				"y": 3.7193633188,
				"z": 0.4364592026,
				"element": "N" 
			},
			{
				"x": 0.534854806,
				"y": 1.5838602766,
				"z": -0.4130607754,
				"element": "C" 
			},
			{
				"x": -0.5500652385,
				"y": -1.8721800577,
				"z": 1.4930457073,
				"element": "S" 
			},
			{
				"x": -2.1891838896,
				"y": -1.9805867903,
				"z": 1.111523693,
				"element": "N" 
			},
			{
				"x": 0.1151497302,
				"y": -2.8217770081,
				"z": 0.5982861864,
				"element": "O" 
			},
			{
				"x": -0.4816218913,
				"y": -2.0073773516,
				"z": 2.9482222686,
				"element": "O" 
			},
			{
				"x": 0.0052285809,
				"y": -0.0319852047,
				"z": -2.3599559962,
				"element": "H" 
			},
			{
				"x": 0.1374707683,
				"y": -1.5327984844,
				"z": -1.4135545896,
				"element": "H" 
			},
			{
				"x": -1.3968231447,
				"y": -0.6638815675,
				"z": -1.504702351,
				"element": "H" 
			},
			{
				"x": 0.2942005173,
				"y": 0.1998800577,
				"z": 3.1757244672,
				"element": "H" 
			},
			{
				"x": 1.0931748605,
				"y": 2.5202831195,
				"z": 2.8153713437,
				"element": "H" 
			},
			{
				"x": 1.6573704301,
				"y": 3.9299254781,
				"z": -0.4872222674,
				"element": "H" 
			},
			{
				"x": 1.8442364634,
				"y": 4.1567014745,
				"z": 1.1719133552,
				"element": "H" 
			},
			{
				"x": 0.6086223617,
				"y": 1.9737841946,
				"z": -1.4257398757,
				"element": "H" 
			},
			{
				"x": -2.7539391992,
				"y": -1.3163343747,
				"z": 1.6317681703,
				"element": "H" 
			},
			{
				"x": -2.362826687,
				"y": -1.9524120345,
				"z": 0.1122743481,
				"element": "H" 
			}
		],
		 "valence_orbital": [ 
			{
				"type": "occ",
				"energy": -0.29827,
				"method": "rhf"
			},
			{
				"type": "occ",
				"energy": -0.29318,
				"method": "rhf"
			},
			{
				"type": "occ",
				"energy": -0.29188,
				"method": "rhf"
			},
			{
				"type": "occ",
				"energy": -0.25898,
				"method": "rhf"
			},
			{
				"type": "occ",
				"energy": -0.22085,
				"method": "rhf"
			},
			{
				"type": "unocc",
				"energy": -0.02074,
				"method": "rhf"
			},
			{
				"type": "unocc",
				"energy": -0.012,
				"method": "rhf"
			},
			{
				"type": "unocc",
				"energy": 0.05572,
				"method": "rhf"
			},
			{
				"type": "unocc",
				"energy": 0.06263,
				"method": "rhf"
			},
			{
				"type": "unocc",
				"energy": 0.08335,
				"method": "rhf"
			}
		],
		"cosmo_sigma_profile": { 
			"-0.025": 0.0,
			"-0.024": 0.0,
			"-0.023": 0.0,
			"-0.022": 0.0,
			"-0.021": 0.0,
			"-0.02": 0.0,
			"-0.019": 0.0,
			"-0.018": 0.0,
			"-0.017": 0.0,
			"-0.016": 0.0,
			"-0.015": 0.710390373847,
			"-0.014": 2.16320194536,
			"-0.013": 4.65887564047,
			"-0.012": 6.3093709865,
			"-0.011": 5.93888564634,
			"-0.01": 5.51209961666,
			"-0.009": 5.27816969741,
			"-0.008": 4.50894230797,
			"-0.007": 6.22968738593,
			"-0.006": 8.30169290336,
			"-0.005": 9.63844671651,
			"-0.004": 8.43932882397,
			"-0.003": 9.3498475685,
			"-0.002": 9.72846347103,
			"-0.001": 12.2899356097,
			"0.0": 12.175722965,
			"0.001": 9.04217835286,
			"0.002": 9.12648137415,
			"0.003": 8.75533386032,
			"0.004": 15.0067040916,
			"0.005": 8.57342399536,
			"0.006": 4.0030224318,
			"0.007": 4.77166628436,
			"0.008": 5.77862384496,
			"0.009": 5.85381680627,
			"0.01": 6.81099442971,
			"0.011": 7.94938126717,
			"0.012": 10.164457824,
			"0.013": 1.56838939407,
			"0.014": 0.00944524474357,
			"0.015": 0.0,
			"0.016": 0.0,
			"0.017": 0.0,
			"0.018": 0.0,
			"0.019": 0.0,
			"0.02": 0.0,
			"0.021": 0.0,
			"0.022": 0.0,
			"0.023": 0.0,
			"0.024": 0.0,
			"0.025": 0.0
		}
	}
}
