{
	 "smiles": "CCS(=O)(=O)NC1=C(OC)C=C(N)C=C1", 
	 "Tm": 403.15, 
	 "num_atms": 29, 
	 "gaussian": { 
		 "optdone": 1, 
		 "sigma_profile": "yes", 
		 "theory": "DFT", 
		 "functional": "B3LYP", 
		 "basiset": "6-31G**", 
		 "properties": { 
			 "R2extent": 4818.1162, 
			 "electric_dipole_moment_norm": 8.00809020803, 
			 "electric_quadrupole_moment_norm": 22.1799708113, 
			 "total_energy": -1084.68771544, 
			 "HOMO_LUMO_gap": 0.1959, 
			 "cosmo_polarized_energy": -21.33, 
			 "cosmo_cavitation_energy": 33.28, 
			 "cosmo_dispersion_energy": -23.67, 
			 "cosmo_repulsion_energy": 1.83, 
			 "cosmo_total_nonelectrostatic_energy": 11.44, 
			 "SMD_solvation_energy": 5.47 
		},
		"coords": [
			{
				"x": -1.5370331396,
				"y": -1.9510145803,
				"z": 0.7547778039,
				"element": "C" 
			},
			{
				"x": -1.7589063365,
				"y": -2.325754034,
				"z": -0.7073155438,
				"element": "C" 
			},
			{
				"x": -2.9467229948,
				"y": -1.2560971411,
				"z": -1.597246986,
				"element": "S" 
			},
			{
				"x": -4.0010940046,
				"y": -0.87558946,
				"z": -0.6545847713,
				"element": "O" 
			},
			{
				"x": -3.2445423182,
				"y": -1.9253361549,
				"z": -2.8660986404,
				"element": "O" 
			},
			{
				"x": -2.13436484,
				"y": 0.1622875592,
				"z": -2.0526090697,
				"element": "N" 
			},
			{
				"x": -1.5470948561,
				"y": 1.0364361472,
				"z": -1.0932472818,
				"element": "C" 
			},
			{
				"x": -0.144781509,
				"y": 1.1888186871,
				"z": -1.0570545112,
				"element": "C" 
			},
			{
				"x": 0.5455019658,
				"y": 0.4189926346,
				"z": -1.9578165596,
				"element": "O" 
			},
			{
				"x": 1.951697592,
				"y": 0.5912735673,
				"z": -2.0586058518,
				"element": "C" 
			},
			{
				"x": 0.4501774726,
				"y": 2.0735746388,
				"z": -0.1592730132,
				"element": "C" 
			},
			{
				"x": -0.3441562699,
				"y": 2.8072298543,
				"z": 0.7426799392,
				"element": "C" 
			},
			{
				"x": 0.2508851921,
				"y": 3.7280673994,
				"z": 1.6066354025,
				"element": "N" 
			},
			{
				"x": -1.7374761712,
				"y": 2.6450656156,
				"z": 0.7123074044,
				"element": "C" 
			},
			{
				"x": -2.3257544538,
				"y": 1.7832725802,
				"z": -0.209661173,
				"element": "C" 
			},
			{
				"x": -2.4903538847,
				"y": -1.9016027778,
				"z": 1.2851991115,
				"element": "H" 
			},
			{
				"x": -1.0372252424,
				"y": -0.9857306894,
				"z": 0.8566948019,
				"element": "H" 
			},
			{
				"x": -0.9120125123,
				"y": -2.7131184422,
				"z": 1.2317494732,
				"element": "H" 
			},
			{
				"x": -2.2031752281,
				"y": -3.3207801735,
				"z": -0.8072361246,
				"element": "H" 
			},
			{
				"x": -0.8390875877,
				"y": -2.3037500239,
				"z": -1.2984492965,
				"element": "H" 
			},
			{
				"x": -1.526412244,
				"y": -0.0422393419,
				"z": -2.8406025996,
				"element": "H" 
			},
			{
				"x": 2.2109380843,
				"y": 1.6233441776,
				"z": -2.3244031327,
				"element": "H" 
			},
			{
				"x": 2.2822999588,
				"y": -0.0806023212,
				"z": -2.8519901267,
				"element": "H" 
			},
			{
				"x": 2.4582007077,
				"y": 0.3217345854,
				"z": -1.1232538449,
				"element": "H" 
			},
			{
				"x": 1.5261526026,
				"y": 2.206733134,
				"z": -0.1452885545,
				"element": "H" 
			},
			{
				"x": -0.3013985904,
				"y": 3.9708400833,
				"z": 2.4173948265,
				"element": "H" 
			},
			{
				"x": 1.2129135779,
				"y": 3.536966046,
				"z": 1.8501634554,
				"element": "H" 
			},
			{
				"x": -2.3616957863,
				"y": 3.2129881677,
				"z": 1.396239864,
				"element": "H" 
			},
			{
				"x": -3.4023791842,
				"y": 1.6627902624,
				"z": -0.2449050011,
				"element": "H" 
			}
		],
		 "valence_orbital": [ 
			{
				"type": "occ",
				"energy": -0.29117,
				"method": "rhf"
			},
			{
				"type": "occ",
				"energy": -0.2863,
				"method": "rhf"
			},
			{
				"type": "occ",
				"energy": -0.27352,
				"method": "rhf"
			},
			{
				"type": "occ",
				"energy": -0.23936,
				"method": "rhf"
			},
			{
				"type": "occ",
				"energy": -0.19668,
				"method": "rhf"
			},
			{
				"type": "unocc",
				"energy": -0.00078,
				"method": "rhf"
			},
			{
				"type": "unocc",
				"energy": 0.00821,
				"method": "rhf"
			},
			{
				"type": "unocc",
				"energy": 0.0625,
				"method": "rhf"
			},
			{
				"type": "unocc",
				"energy": 0.07323,
				"method": "rhf"
			},
			{
				"type": "unocc",
				"energy": 0.08171,
				"method": "rhf"
			}
		],
		"cosmo_sigma_profile": { 
			"-0.025": 0.0,
			"-0.024": 0.0,
			"-0.023": 0.0,
			"-0.022": 0.0,
			"-0.021": 0.0,
			"-0.02": 0.0,
			"-0.019": 0.0,
			"-0.018": 0.0,
			"-0.017": 0.0,
			"-0.016": 0.0,
			"-0.015": 0.0,
			"-0.014": 0.0,
			"-0.013": 0.445054312845,
			"-0.012": 3.03703198947,
			"-0.011": 3.49777206243,
			"-0.01": 4.03878039223,
			"-0.009": 4.9855146763,
			"-0.008": 5.25327217804,
			"-0.007": 8.05182302284,
			"-0.006": 13.2219636685,
			"-0.005": 20.2996538297,
			"-0.004": 22.7098129175,
			"-0.003": 20.7780771751,
			"-0.002": 15.4786333079,
			"-0.001": 18.4494556822,
			"0.0": 13.520230293,
			"0.001": 10.5958138215,
			"0.002": 10.7777937859,
			"0.003": 11.9104722471,
			"0.004": 13.0883875123,
			"0.005": 11.5706700617,
			"0.006": 9.45268765454,
			"0.007": 4.37400549652,
			"0.008": 5.94649977304,
			"0.009": 5.4799993322,
			"0.01": 6.00397819492,
			"0.011": 9.82860706157,
			"0.012": 7.87299697332,
			"0.013": 1.09238739067,
			"0.014": 0.605936454269,
			"0.015": 0.0589832435007,
			"0.016": 0.0,
			"0.017": 0.0,
			"0.018": 0.0,
			"0.019": 0.0,
			"0.02": 0.0,
			"0.021": 0.0,
			"0.022": 0.0,
			"0.023": 0.0,
			"0.024": 0.0,
			"0.025": 0.0
		}
	}
}
