{
	 "smiles": "CC(=O)CC(O)C(Cl)(Cl)Cl", 
	 "Tm": 348.65, 
	 "num_atms": 17, 
	 "gaussian": { 
		 "optdone": 1, 
		 "sigma_profile": "yes", 
		 "theory": "DFT", 
		 "functional": "B3LYP", 
		 "basiset": "6-31G**", 
		 "properties": { 
			 "R2extent": 3705.1348, 
			 "electric_dipole_moment_norm": 3.1192117017, 
			 "electric_quadrupole_moment_norm": 8.95221218303, 
			 "total_energy": -1725.75301617, 
			 "HOMO_LUMO_gap": 0.19832, 
			 "cosmo_polarized_energy": -11.81, 
			 "cosmo_cavitation_energy": 25.6, 
			 "cosmo_dispersion_energy": -18.48, 
			 "cosmo_repulsion_energy": 1.51, 
			 "cosmo_total_nonelectrostatic_energy": 8.63, 
			 "SMD_solvation_energy": 4.19 
		},
		"coords": [
			{
				"x": 1.7188190786,
				"y": 0.4168431938,
				"z": -0.2119434446,
				"element": "C" 
			},
			{
				"x": 0.8366675184,
				"y": -0.4520004879,
				"z": 0.6638975833,
				"element": "C" 
			},
			{
				"x": 1.2832227528,
				"y": -1.0792163072,
				"z": 1.6021610111,
				"element": "O" 
			},
			{
				"x": -0.651818041,
				"y": -0.5741958358,
				"z": 0.3110275661,
				"element": "C" 
			},
			{
				"x": -1.2874693626,
				"y": 0.7250401407,
				"z": -0.1824655886,
				"element": "C" 
			},
			{
				"x": -1.1210919017,
				"y": 1.6757770791,
				"z": 0.838171739,
				"element": "O" 
			},
			{
				"x": -2.7956914415,
				"y": 0.5734175643,
				"z": -0.5624670973,
				"element": "C" 
			},
			{
				"x": -3.788728596,
				"y": 0.0246504549,
				"z": 0.8191708842,
				"element": "Cl" 
			},
			{
				"x": -2.9712183473,
				"y": -0.5698877492,
				"z": -1.9417810444,
				"element": "Cl" 
			},
			{
				"x": -3.4000746998,
				"y": 2.2057577688,
				"z": -1.1014922157,
				"element": "Cl" 
			},
			{
				"x": 1.4462575237,
				"y": 1.4689981801,
				"z": -0.074648992,
				"element": "H" 
			},
			{
				"x": 1.5879802123,
				"y": 0.1764413974,
				"z": -1.273514656,
				"element": "H" 
			},
			{
				"x": 2.7614661925,
				"y": 0.2737371862,
				"z": 0.0737314454,
				"element": "H" 
			},
			{
				"x": -1.1655882425,
				"y": -0.9347121549,
				"z": 1.2041110886,
				"element": "H" 
			},
			{
				"x": -0.7407090604,
				"y": -1.3434261146,
				"z": -0.464790417,
				"element": "H" 
			},
			{
				"x": -0.8093706063,
				"y": 1.0467244846,
				"z": -1.1197849685,
				"element": "H" 
			},
			{
				"x": -1.4457529791,
				"y": 2.5324511998,
				"z": 0.5253171065,
				"element": "H" 
			}
		],
		 "valence_orbital": [ 
			{
				"type": "occ",
				"energy": -0.3355,
				"method": "rhf"
			},
			{
				"type": "occ",
				"energy": -0.3306,
				"method": "rhf"
			},
			{
				"type": "occ",
				"energy": -0.31867,
				"method": "rhf"
			},
			{
				"type": "occ",
				"energy": -0.31026,
				"method": "rhf"
			},
			{
				"type": "occ",
				"energy": -0.25218,
				"method": "rhf"
			},
			{
				"type": "unocc",
				"energy": -0.05386,
				"method": "rhf"
			},
			{
				"type": "unocc",
				"energy": -0.02267,
				"method": "rhf"
			},
			{
				"type": "unocc",
				"energy": -0.01158,
				"method": "rhf"
			},
			{
				"type": "unocc",
				"energy": -0.00445,
				"method": "rhf"
			},
			{
				"type": "unocc",
				"energy": 0.0611,
				"method": "rhf"
			}
		],
		"cosmo_sigma_profile": { 
			"-0.025": 0.0,
			"-0.024": 0.0,
			"-0.023": 0.0,
			"-0.022": 0.0,
			"-0.021": 0.0,
			"-0.02": 0.0,
			"-0.019": 0.0,
			"-0.018": 0.0,
			"-0.017": 0.0,
			"-0.016": 0.0234359987931,
			"-0.015": 0.424973197709,
			"-0.014": 1.12703738903,
			"-0.013": 0.822434488229,
			"-0.012": 0.552345989659,
			"-0.011": 1.20740993563,
			"-0.01": 1.02103381555,
			"-0.009": 1.41635842295,
			"-0.008": 5.43451233592,
			"-0.007": 8.29685460884,
			"-0.006": 7.26467176656,
			"-0.005": 8.057344693,
			"-0.004": 12.8516060598,
			"-0.003": 15.7121663839,
			"-0.002": 16.8782124089,
			"-0.001": 16.7900016707,
			"0.0": 15.5001164955,
			"0.001": 15.0708167438,
			"0.002": 19.7817204973,
			"0.003": 26.7608378228,
			"0.004": 4.65662672834,
			"0.005": 4.28894985935,
			"0.006": 2.95129960597,
			"0.007": 1.5223276547,
			"0.008": 3.1281149607,
			"0.009": 3.34185617321,
			"0.01": 3.28158326491,
			"0.011": 4.43119346133,
			"0.012": 4.36647930026,
			"0.013": 1.4220539957,
			"0.014": 0.0,
			"0.015": 0.0,
			"0.016": 0.0,
			"0.017": 0.0,
			"0.018": 0.0,
			"0.019": 0.0,
			"0.02": 0.0,
			"0.021": 0.0,
			"0.022": 0.0,
			"0.023": 0.0,
			"0.024": 0.0,
			"0.025": 0.0
		}
	}
}
