{
	 "smiles": "N1C=CN=C1C1=NC=CC=C1", 
	 "Tm": 407.15, 
	 "num_atms": 18, 
	 "gaussian": { 
		 "optdone": 1, 
		 "sigma_profile": "yes", 
		 "theory": "DFT", 
		 "functional": "B3LYP", 
		 "basiset": "6-31G**", 
		 "properties": { 
			 "R2extent": 2037.8999, 
			 "electric_dipole_moment_norm": 1.98684628998, 
			 "electric_quadrupole_moment_norm": 12.6475519821, 
			 "total_energy": -473.32723574, 
			 "HOMO_LUMO_gap": 0.1719, 
			 "cosmo_polarized_energy": -10.19, 
			 "cosmo_cavitation_energy": 22.46, 
			 "cosmo_dispersion_energy": -17.05, 
			 "cosmo_repulsion_energy": 1.35, 
			 "cosmo_total_nonelectrostatic_energy": 6.76, 
			 "SMD_solvation_energy": 1.64 
		},
		"coords": [
			{
				"x": 2.1730995176,
				"y": -1.5452573148,
				"z": 0.9994054935,
				"element": "N" 
			},
			{
				"x": 2.7023665222,
				"y": -2.810009473,
				"z": 0.9512046721,
				"element": "C" 
			},
			{
				"x": 1.7029979313,
				"y": -3.598276906,
				"z": 0.4195426525,
				"element": "C" 
			},
			{
				"x": 0.5879365388,
				"y": -2.8499448502,
				"z": 0.1453798114,
				"element": "N" 
			},
			{
				"x": 0.9004266412,
				"y": -1.6132329853,
				"z": 0.505721836,
				"element": "C" 
			},
			{
				"x": 0.0554219874,
				"y": -0.42394519,
				"z": 0.4200799514,
				"element": "C" 
			},
			{
				"x": 0.6097049487,
				"y": 0.7253365563,
				"z": 0.8546023499,
				"element": "N" 
			},
			{
				"x": -0.1327892877,
				"y": 1.8347597721,
				"z": 0.7921517631,
				"element": "C" 
			},
			{
				"x": -1.4400840725,
				"y": 1.8638431266,
				"z": 0.3047092773,
				"element": "C" 
			},
			{
				"x": -2.0045405204,
				"y": 0.6668124161,
				"z": -0.1430100458,
				"element": "C" 
			},
			{
				"x": -1.2500244528,
				"y": -0.4993526086,
				"z": -0.0871391394,
				"element": "C" 
			},
			{
				"x": 2.5929489315,
				"y": -0.6867263348,
				"z": 1.3262534179,
				"element": "H" 
			},
			{
				"x": 3.7038575475,
				"y": -3.0325149744,
				"z": 1.2855390417,
				"element": "H" 
			},
			{
				"x": 1.7331827822,
				"y": -4.66100106,
				"z": 0.2226291016,
				"element": "H" 
			},
			{
				"x": 0.3411609072,
				"y": 2.7473100868,
				"z": 1.1499313281,
				"element": "H" 
			},
			{
				"x": -1.9949273877,
				"y": 2.7959773864,
				"z": 0.2782702092,
				"element": "H" 
			},
			{
				"x": -3.0192524491,
				"y": 0.6447366079,
				"z": -0.5300848645,
				"element": "H" 
			},
			{
				"x": -1.6336860853,
				"y": -1.4571142551,
				"z": -0.419686856,
				"element": "H" 
			}
		],
		 "valence_orbital": [ 
			{
				"type": "occ",
				"energy": -0.28508,
				"method": "rhf"
			},
			{
				"type": "occ",
				"energy": -0.27196,
				"method": "rhf"
			},
			{
				"type": "occ",
				"energy": -0.27071,
				"method": "rhf"
			},
			{
				"type": "occ",
				"energy": -0.26264,
				"method": "rhf"
			},
			{
				"type": "occ",
				"energy": -0.21121,
				"method": "rhf"
			},
			{
				"type": "unocc",
				"energy": -0.03931,
				"method": "rhf"
			},
			{
				"type": "unocc",
				"energy": -0.01916,
				"method": "rhf"
			},
			{
				"type": "unocc",
				"energy": 0.05296,
				"method": "rhf"
			},
			{
				"type": "unocc",
				"energy": 0.08103,
				"method": "rhf"
			},
			{
				"type": "unocc",
				"energy": 0.09474,
				"method": "rhf"
			}
		],
		"cosmo_sigma_profile": { 
			"-0.025": 0.0,
			"-0.024": 0.0,
			"-0.023": 0.0,
			"-0.022": 0.0,
			"-0.021": 0.0,
			"-0.02": 0.0,
			"-0.019": 0.0,
			"-0.018": 0.0,
			"-0.017": 0.0,
			"-0.016": 0.0,
			"-0.015": 0.909530894535,
			"-0.014": 0.841897659826,
			"-0.013": 0.534328090119,
			"-0.012": 0.763868089239,
			"-0.011": 1.1624672639,
			"-0.01": 0.857199315479,
			"-0.009": 1.62192136977,
			"-0.008": 3.34300863797,
			"-0.007": 7.64896155735,
			"-0.006": 11.7518106294,
			"-0.005": 12.5810453695,
			"-0.004": 10.8300537455,
			"-0.003": 9.5130403205,
			"-0.002": 6.98124353075,
			"-0.001": 9.94377283379,
			"0.0": 9.27288846212,
			"0.001": 17.9014588147,
			"0.002": 21.1686297728,
			"0.003": 15.5232763181,
			"0.004": 8.45433120514,
			"0.005": 6.95485691431,
			"0.006": 4.07987187993,
			"0.007": 4.04243075712,
			"0.008": 2.76227485749,
			"0.009": 2.59941893181,
			"0.01": 2.86025957502,
			"0.011": 1.17415191421,
			"0.012": 0.913149536173,
			"0.013": 1.3326950394,
			"0.014": 0.857214462749,
			"0.015": 1.0487598728,
			"0.016": 0.691287364833,
			"0.017": 0.262911595812,
			"0.018": 0.0,
			"0.019": 0.0,
			"0.02": 0.0,
			"0.021": 0.0,
			"0.022": 0.0,
			"0.023": 0.0,
			"0.024": 0.0,
			"0.025": 0.0
		}
	}
}
