{
	 "smiles": "CCOC1=C(CCl)C=C(C=C1)[N+]([O-])=O", 
	 "Tm": 342.15, 
	 "num_atms": 24, 
	 "gaussian": { 
		 "optdone": 1, 
		 "sigma_profile": "yes", 
		 "theory": "DFT", 
		 "functional": "B3LYP", 
		 "basiset": "6-31G**", 
		 "properties": { 
			 "R2extent": 4496.8887, 
			 "electric_dipole_moment_norm": 6.19722550582, 
			 "electric_quadrupole_moment_norm": 11.8748171603, 
			 "total_energy": -1089.50486077, 
			 "HOMO_LUMO_gap": 0.1686, 
			 "cosmo_polarized_energy": -12.82, 
			 "cosmo_cavitation_energy": 30.54, 
			 "cosmo_dispersion_energy": -21.68, 
			 "cosmo_repulsion_energy": 1.74, 
			 "cosmo_total_nonelectrostatic_energy": 10.6, 
			 "SMD_solvation_energy": 7.53 
		},
		"coords": [
			{
				"x": -4.0488368548,
				"y": -1.6385767962,
				"z": 1.0390325264,
				"element": "C" 
			},
			{
				"x": -2.9724600572,
				"y": -0.6674895013,
				"z": 0.5909136893,
				"element": "C" 
			},
			{
				"x": -1.7088679802,
				"y": -1.2060443651,
				"z": 1.0071558171,
				"element": "O" 
			},
			{
				"x": -0.5723885281,
				"y": -0.5207038278,
				"z": 0.7587045884,
				"element": "C" 
			},
			{
				"x": 0.6195355399,
				"y": -1.117390708,
				"z": 1.2428823368,
				"element": "C" 
			},
			{
				"x": 0.5649653305,
				"y": -2.4172920422,
				"z": 1.9828005381,
				"element": "C" 
			},
			{
				"x": 0.1325049046,
				"y": -2.1932991482,
				"z": 3.752874282,
				"element": "Cl" 
			},
			{
				"x": 1.8316731617,
				"y": -0.4753648639,
				"z": 1.0196026156,
				"element": "C" 
			},
			{
				"x": 1.8638228579,
				"y": 0.735407159,
				"z": 0.3265552878,
				"element": "C" 
			},
			{
				"x": 0.6984560872,
				"y": 1.3286868218,
				"z": -0.1500950281,
				"element": "C" 
			},
			{
				"x": -0.5228968564,
				"y": 0.6986877652,
				"z": 0.0650312717,
				"element": "C" 
			},
			{
				"x": 3.1499478752,
				"y": 1.3924400252,
				"z": 0.0941307206,
				"element": "N" 
			},
			{
				"x": 4.1634566358,
				"y": 0.8332080605,
				"z": 0.5161922901,
				"element": "O" 
			},
			{
				"x": 3.1437744608,
				"y": 2.4655647791,
				"z": -0.5115155517,
				"element": "O" 
			},
			{
				"x": -5.0336125048,
				"y": -1.2621339262,
				"z": 0.7466662947,
				"element": "H" 
			},
			{
				"x": -3.9022136233,
				"y": -2.6191672468,
				"z": 0.5780528767,
				"element": "H" 
			},
			{
				"x": -4.0299409337,
				"y": -1.7592710354,
				"z": 2.1252380419,
				"element": "H" 
			},
			{
				"x": -2.9768622647,
				"y": -0.5451253794,
				"z": -0.5002797119,
				"element": "H" 
			},
			{
				"x": -3.1145457165,
				"y": 0.3200263255,
				"z": 1.048307466,
				"element": "H" 
			},
			{
				"x": 1.5330631805,
				"y": -2.9165248906,
				"z": 1.9785418353,
				"element": "H" 
			},
			{
				"x": -0.2002813834,
				"y": -3.080246891,
				"z": 1.58320643,
				"element": "H" 
			},
			{
				"x": 2.7612008257,
				"y": -0.9009501779,
				"z": 1.3789695782,
				"element": "H" 
			},
			{
				"x": 0.7608692655,
				"y": 2.2691899369,
				"z": -0.6831362961,
				"element": "H" 
			},
			{
				"x": -1.4287634223,
				"y": 1.1587699267,
				"z": -0.3084318989,
				"element": "H" 
			}
		],
		 "valence_orbital": [ 
			{
				"type": "occ",
				"energy": -0.30002,
				"method": "rhf"
			},
			{
				"type": "occ",
				"energy": -0.29624,
				"method": "rhf"
			},
			{
				"type": "occ",
				"energy": -0.2867,
				"method": "rhf"
			},
			{
				"type": "occ",
				"energy": -0.28014,
				"method": "rhf"
			},
			{
				"type": "occ",
				"energy": -0.25257,
				"method": "rhf"
			},
			{
				"type": "unocc",
				"energy": -0.08397,
				"method": "rhf"
			},
			{
				"type": "unocc",
				"energy": -0.04478,
				"method": "rhf"
			},
			{
				"type": "unocc",
				"energy": 0.00111,
				"method": "rhf"
			},
			{
				"type": "unocc",
				"energy": 0.03777,
				"method": "rhf"
			},
			{
				"type": "unocc",
				"energy": 0.07618,
				"method": "rhf"
			}
		],
		"cosmo_sigma_profile": { 
			"-0.025": 0.0,
			"-0.024": 0.0,
			"-0.023": 0.0,
			"-0.022": 0.0,
			"-0.021": 0.0,
			"-0.02": 0.0,
			"-0.019": 0.0,
			"-0.018": 0.0,
			"-0.017": 0.0,
			"-0.016": 0.0,
			"-0.015": 0.0,
			"-0.014": 0.0,
			"-0.013": 0.0,
			"-0.012": 0.0,
			"-0.011": 0.0,
			"-0.01": 0.088283516102,
			"-0.009": 1.90501862779,
			"-0.008": 6.73748380322,
			"-0.007": 9.05886923652,
			"-0.006": 13.2369561447,
			"-0.005": 16.4298969538,
			"-0.004": 20.8473061611,
			"-0.003": 17.6864590289,
			"-0.002": 15.8699480647,
			"-0.001": 19.698079951,
			"0.0": 23.1011281444,
			"0.001": 17.0206762505,
			"0.002": 11.2446018618,
			"0.003": 9.37263247988,
			"0.004": 7.46155081002,
			"0.005": 10.4028215569,
			"0.006": 13.0146418239,
			"0.007": 12.1708347508,
			"0.008": 10.2422382593,
			"0.009": 4.78853078435,
			"0.01": 3.89782835454,
			"0.011": 0.816758889766,
			"0.012": 0.0,
			"0.013": 0.0,
			"0.014": 0.0,
			"0.015": 0.0,
			"0.016": 0.0,
			"0.017": 0.0,
			"0.018": 0.0,
			"0.019": 0.0,
			"0.02": 0.0,
			"0.021": 0.0,
			"0.022": 0.0,
			"0.023": 0.0,
			"0.024": 0.0,
			"0.025": 0.0
		}
	}
}
