{
	 "smiles": "COC1=CC(Br)=C(C=CC(O)=O)C=C1OC", 
	 "Tm": 529.15, 
	 "num_atms": 27, 
	 "gaussian": { 
		 "optdone": 1, 
		 "sigma_profile": "yes", 
		 "theory": "DFT", 
		 "functional": "B3LYP", 
		 "basiset": "6-31G**", 
		 "properties": { 
			 "R2extent": 6808.8016, 
			 "electric_dipole_moment_norm": 3.55282514487, 
			 "electric_quadrupole_moment_norm": 19.747188392, 
			 "total_energy": -3298.06596852, 
			 "HOMO_LUMO_gap": 0.15942, 
			 "cosmo_polarized_energy": -12.32, 
			 "cosmo_cavitation_energy": 34.27, 
			 "cosmo_dispersion_energy": -24.65, 
			 "cosmo_repulsion_energy": 1.95, 
			 "cosmo_total_nonelectrostatic_energy": 11.56, 
			 "SMD_solvation_energy": 7.71 
		},
		"coords": [
			{
				"x": 2.4636501682,
				"y": 2.1524158691,
				"z": -1.2251713748,
				"element": "C" 
			},
			{
				"x": 2.3851955561,
				"y": 1.24680989,
				"z": -0.112258772,
				"element": "O" 
			},
			{
				"x": 1.226241184,
				"y": 0.5232266076,
				"z": -0.0222404043,
				"element": "C" 
			},
			{
				"x": 1.296824722,
				"y": -0.8640844193,
				"z": -0.1420416156,
				"element": "C" 
			},
			{
				"x": 0.1478574065,
				"y": -1.6424645078,
				"z": -0.0284348622,
				"element": "C" 
			},
			{
				"x": 0.3693937916,
				"y": -3.5352602051,
				"z": -0.2238852061,
				"element": "Br" 
			},
			{
				"x": -1.1204036743,
				"y": -1.0672304056,
				"z": 0.1916548813,
				"element": "C" 
			},
			{
				"x": -2.3349679045,
				"y": -1.8760821182,
				"z": 0.2979555602,
				"element": "C" 
			},
			{
				"x": -3.6010039141,
				"y": -1.4169543545,
				"z": 0.3013016557,
				"element": "C" 
			},
			{
				"x": -4.7837205112,
				"y": -2.2849052347,
				"z": 0.4278273255,
				"element": "C" 
			},
			{
				"x": -4.4888707628,
				"y": -3.6070328074,
				"z": 0.5478207523,
				"element": "O" 
			},
			{
				"x": -5.9298432141,
				"y": -1.8761276258,
				"z": 0.4276104634,
				"element": "O" 
			},
			{
				"x": -1.1564391715,
				"y": 0.3353874611,
				"z": 0.3325462817,
				"element": "C" 
			},
			{
				"x": -0.0216291591,
				"y": 1.1283848811,
				"z": 0.2390747386,
				"element": "C" 
			},
			{
				"x": -0.1476392899,
				"y": 2.4904736645,
				"z": 0.3744836875,
				"element": "O" 
			},
			{
				"x": 0.4354939222,
				"y": 3.0330380813,
				"z": 1.5684366591,
				"element": "C" 
			},
			{
				"x": 1.6542179949,
				"y": 2.8869461953,
				"z": -1.1995262755,
				"element": "H" 
			},
			{
				"x": 3.4278204138,
				"y": 2.6554984115,
				"z": -1.135678856,
				"element": "H" 
			},
			{
				"x": 2.4286326446,
				"y": 1.5989469777,
				"z": -2.1710231751,
				"element": "H" 
			},
			{
				"x": 2.2611459499,
				"y": -1.3197616356,
				"z": -0.3310842285,
				"element": "H" 
			},
			{
				"x": -2.1877962017,
				"y": -2.9484200423,
				"z": 0.3719006204,
				"element": "H" 
			},
			{
				"x": -3.8501472275,
				"y": -0.3660759745,
				"z": 0.2005114074,
				"element": "H" 
			},
			{
				"x": -5.3453530404,
				"y": -4.0585849888,
				"z": 0.6182608026,
				"element": "H" 
			},
			{
				"x": -2.0947154637,
				"y": 0.8369520338,
				"z": 0.5420895826,
				"element": "H" 
			},
			{
				"x": 0.2617095633,
				"y": 4.1098156894,
				"z": 1.529002264,
				"element": "H" 
			},
			{
				"x": -0.0528800273,
				"y": 2.6184085191,
				"z": 2.4585561003,
				"element": "H" 
			},
			{
				"x": 1.510226245,
				"y": 2.8318800381,
				"z": 1.6146119873,
				"element": "H" 
			}
		],
		 "valence_orbital": [ 
			{
				"type": "occ",
				"energy": -0.29139,
				"method": "rhf"
			},
			{
				"type": "occ",
				"energy": -0.27926,
				"method": "rhf"
			},
			{
				"type": "occ",
				"energy": -0.27015,
				"method": "rhf"
			},
			{
				"type": "occ",
				"energy": -0.25211,
				"method": "rhf"
			},
			{
				"type": "occ",
				"energy": -0.23166,
				"method": "rhf"
			},
			{
				"type": "unocc",
				"energy": -0.07224,
				"method": "rhf"
			},
			{
				"type": "unocc",
				"energy": -0.02078,
				"method": "rhf"
			},
			{
				"type": "unocc",
				"energy": -0.00044,
				"method": "rhf"
			},
			{
				"type": "unocc",
				"energy": 0.01315,
				"method": "rhf"
			},
			{
				"type": "unocc",
				"energy": 0.07675,
				"method": "rhf"
			}
		],
		"cosmo_sigma_profile": { 
			"-0.025": 0.0,
			"-0.024": 0.0,
			"-0.023": 0.0,
			"-0.022": 0.0,
			"-0.021": 0.0,
			"-0.02": 0.0,
			"-0.019": 0.0,
			"-0.018": 0.54385760367,
			"-0.017": 1.2159244599,
			"-0.016": 0.378573359151,
			"-0.015": 1.02031484132,
			"-0.014": 1.05668172872,
			"-0.013": 0.0339475242315,
			"-0.012": 0.174109922903,
			"-0.011": 1.09986937256,
			"-0.01": 1.24348889154,
			"-0.009": 2.35373256907,
			"-0.008": 2.71157330782,
			"-0.007": 3.69115206866,
			"-0.006": 7.49269500545,
			"-0.005": 14.6916937264,
			"-0.004": 18.6539359093,
			"-0.003": 26.4152526782,
			"-0.002": 26.0276867476,
			"-0.001": 22.4980378956,
			"0.0": 24.639870044,
			"0.001": 30.9441960088,
			"0.002": 24.5119045037,
			"0.003": 14.1596507629,
			"0.004": 12.0539689357,
			"0.005": 6.28872159443,
			"0.006": 5.38933833094,
			"0.007": 4.04213213458,
			"0.008": 4.43278006476,
			"0.009": 2.84852915751,
			"0.01": 4.29728773219,
			"0.011": 3.9087631692,
			"0.012": 5.61064270461,
			"0.013": 2.11805869419,
			"0.014": 0.0459538793662,
			"0.015": 0.0,
			"0.016": 0.0,
			"0.017": 0.0,
			"0.018": 0.0,
			"0.019": 0.0,
			"0.02": 0.0,
			"0.021": 0.0,
			"0.022": 0.0,
			"0.023": 0.0,
			"0.024": 0.0,
			"0.025": 0.0
		}
	}
}
