{
	 "smiles": "C1CO1", 
	 "Tm": 162.15, 
	 "num_atms": 7, 
	 "gaussian": { 
		 "optdone": 1, 
		 "sigma_profile": "yes", 
		 "theory": "DFT", 
		 "functional": "B3LYP", 
		 "basiset": "6-31G**", 
		 "properties": { 
			 "R2extent": 259.1016, 
			 "electric_dipole_moment_norm": 1.94561805347, 
			 "electric_quadrupole_moment_norm": 4.35199246553, 
			 "total_energy": -153.788958942, 
			 "HOMO_LUMO_gap": 0.37165, 
			 "cosmo_polarized_energy": -4.61, 
			 "cosmo_cavitation_energy": 10.14, 
			 "cosmo_dispersion_energy": -7.72, 
			 "cosmo_repulsion_energy": 0.75, 
			 "cosmo_total_nonelectrostatic_energy": 3.17, 
			 "SMD_solvation_energy": 2.48 
		},
		"coords": [
			{
				"x": -0.9189466968,
				"y": 0.8811188792,
				"z": -0.0079101143,
				"element": "C" 
			},
			{
				"x": 0.3540631325,
				"y": 1.6137821716,
				"z": -0.062856025,
				"element": "C" 
			},
			{
				"x": -0.1266331299,
				"y": 0.8895588258,
				"z": -1.1976854934,
				"element": "O" 
			},
			{
				"x": -1.8591708997,
				"y": 1.4297882311,
				"z": -0.0652323698,
				"element": "H" 
			},
			{
				"x": -0.9690886638,
				"y": -0.0730670588,
				"z": 0.5168369658,
				"element": "H" 
			},
			{
				"x": 1.2370221315,
				"y": 1.1966273399,
				"z": 0.4216107493,
				"element": "H" 
			},
			{
				"x": 0.3469541262,
				"y": 2.6994916112,
				"z": -0.1604637125,
				"element": "H" 
			}
		],
		 "valence_orbital": [ 
			{
				"type": "occ",
				"energy": -0.47902,
				"method": "rhf"
			},
			{
				"type": "occ",
				"energy": -0.39276,
				"method": "rhf"
			},
			{
				"type": "occ",
				"energy": -0.38493,
				"method": "rhf"
			},
			{
				"type": "occ",
				"energy": -0.3115,
				"method": "rhf"
			},
			{
				"type": "occ",
				"energy": -0.26659,
				"method": "rhf"
			},
			{
				"type": "unocc",
				"energy": 0.10506,
				"method": "rhf"
			},
			{
				"type": "unocc",
				"energy": 0.10578,
				"method": "rhf"
			},
			{
				"type": "unocc",
				"energy": 0.12584,
				"method": "rhf"
			},
			{
				"type": "unocc",
				"energy": 0.14153,
				"method": "rhf"
			},
			{
				"type": "unocc",
				"energy": 0.15027,
				"method": "rhf"
			}
		],
		"cosmo_sigma_profile": { 
			"-0.025": 0.0,
			"-0.024": 0.0,
			"-0.023": 0.0,
			"-0.022": 0.0,
			"-0.021": 0.0,
			"-0.02": 0.0,
			"-0.019": 0.0,
			"-0.018": 0.0,
			"-0.017": 0.0,
			"-0.016": 0.0,
			"-0.015": 0.0,
			"-0.014": 0.0,
			"-0.013": 0.0,
			"-0.012": 0.0,
			"-0.011": 0.0,
			"-0.01": 0.0,
			"-0.009": 0.0,
			"-0.008": 0.0,
			"-0.007": 0.445130307248,
			"-0.006": 8.0075064831,
			"-0.005": 9.09175972607,
			"-0.004": 9.47560633586,
			"-0.003": 10.4253961607,
			"-0.002": 6.39428632293,
			"-0.001": 5.72285576539,
			"0.0": 5.6908877078,
			"0.001": 3.05003965056,
			"0.002": 1.19353650471,
			"0.003": 0.859263124326,
			"0.004": 2.37268945562,
			"0.005": 1.541546839,
			"0.006": 1.29899306262,
			"0.007": 1.35293398428,
			"0.008": 2.05061797155,
			"0.009": 1.23662086975,
			"0.01": 1.88495631001,
			"0.011": 3.60020702618,
			"0.012": 3.28865181214,
			"0.013": 1.25421852322,
			"0.014": 0.0,
			"0.015": 0.0,
			"0.016": 0.0,
			"0.017": 0.0,
			"0.018": 0.0,
			"0.019": 0.0,
			"0.02": 0.0,
			"0.021": 0.0,
			"0.022": 0.0,
			"0.023": 0.0,
			"0.024": 0.0,
			"0.025": 0.0
		}
	}
}
