{
	 "smiles": "CCC1=CC=C(C=C1)[N+]([O-])=O", 
	 "Tm": 261.15, 
	 "num_atms": 20, 
	 "gaussian": { 
		 "optdone": 1, 
		 "sigma_profile": "yes", 
		 "theory": "DFT", 
		 "functional": "B3LYP", 
		 "basiset": "6-31G**", 
		 "properties": { 
			 "R2extent": 2750.4624, 
			 "electric_dipole_moment_norm": 5.22445510364, 
			 "electric_quadrupole_moment_norm": 16.0459171742, 
			 "total_energy": -515.386281328, 
			 "HOMO_LUMO_gap": 0.18517, 
			 "cosmo_polarized_energy": -7.89, 
			 "cosmo_cavitation_energy": 24.4, 
			 "cosmo_dispersion_energy": -17.69, 
			 "cosmo_repulsion_energy": 1.43, 
			 "cosmo_total_nonelectrostatic_energy": 8.14, 
			 "SMD_solvation_energy": 6.47 
		},
		"coords": [
			{
				"x": -1.3980321358,
				"y": -1.9341525131,
				"z": -0.8044144469,
				"element": "C" 
			},
			{
				"x": -0.3245452249,
				"y": -1.1036397923,
				"z": -1.5328282404,
				"element": "C" 
			},
			{
				"x": 0.2094394805,
				"y": 0.0288818636,
				"z": -0.6841374865,
				"element": "C" 
			},
			{
				"x": 1.3089629833,
				"y": -0.1677955803,
				"z": 0.1661547258,
				"element": "C" 
			},
			{
				"x": 1.7846482255,
				"y": 0.8560159796,
				"z": 0.9796873565,
				"element": "C" 
			},
			{
				"x": 1.1460151426,
				"y": 2.0940914073,
				"z": 0.9368919048,
				"element": "C" 
			},
			{
				"x": 0.052974031,
				"y": 2.3283136937,
				"z": 0.1044871636,
				"element": "C" 
			},
			{
				"x": -0.4061195379,
				"y": 1.290405069,
				"z": -0.7006727004,
				"element": "C" 
			},
			{
				"x": 1.6418093657,
				"y": 3.1836143881,
				"z": 1.7887590116,
				"element": "N" 
			},
			{
				"x": 1.05955108,
				"y": 4.2668909096,
				"z": 1.7291688353,
				"element": "O" 
			},
			{
				"x": 2.6098793106,
				"y": 2.948933113,
				"z": 2.5125206758,
				"element": "O" 
			},
			{
				"x": -0.9962842554,
				"y": -2.3798409884,
				"z": 0.1110716281,
				"element": "H" 
			},
			{
				"x": -1.7622968487,
				"y": -2.7433177163,
				"z": -1.4451676746,
				"element": "H" 
			},
			{
				"x": -2.2533178147,
				"y": -1.3115201794,
				"z": -0.5234086755,
				"element": "H" 
			},
			{
				"x": 0.5026164058,
				"y": -1.7597546536,
				"z": -1.8272725776,
				"element": "H" 
			},
			{
				"x": -0.7478319165,
				"y": -0.6970973009,
				"z": -2.4585358004,
				"element": "H" 
			},
			{
				"x": 1.801565656,
				"y": -1.1361910065,
				"z": 0.1872905057,
				"element": "H" 
			},
			{
				"x": 2.6340713464,
				"y": 0.7177731854,
				"z": 1.6368791899,
				"element": "H" 
			},
			{
				"x": -0.4110023438,
				"y": 3.3066883427,
				"z": 0.0978898953,
				"element": "H" 
			},
			{
				"x": -1.2547029497,
				"y": 1.4623017788,
				"z": -1.3573632901,
				"element": "H" 
			}
		],
		 "valence_orbital": [ 
			{
				"type": "occ",
				"energy": -0.30554,
				"method": "rhf"
			},
			{
				"type": "occ",
				"energy": -0.30307,
				"method": "rhf"
			},
			{
				"type": "occ",
				"energy": -0.28642,
				"method": "rhf"
			},
			{
				"type": "occ",
				"energy": -0.27525,
				"method": "rhf"
			},
			{
				"type": "occ",
				"energy": -0.27001,
				"method": "rhf"
			},
			{
				"type": "unocc",
				"energy": -0.08484,
				"method": "rhf"
			},
			{
				"type": "unocc",
				"energy": -0.02515,
				"method": "rhf"
			},
			{
				"type": "unocc",
				"energy": 0.00352,
				"method": "rhf"
			},
			{
				"type": "unocc",
				"energy": 0.0758,
				"method": "rhf"
			},
			{
				"type": "unocc",
				"energy": 0.10233,
				"method": "rhf"
			}
		],
		"cosmo_sigma_profile": { 
			"-0.025": 0.0,
			"-0.024": 0.0,
			"-0.023": 0.0,
			"-0.022": 0.0,
			"-0.021": 0.0,
			"-0.02": 0.0,
			"-0.019": 0.0,
			"-0.018": 0.0,
			"-0.017": 0.0,
			"-0.016": 0.0,
			"-0.015": 0.0,
			"-0.014": 0.0,
			"-0.013": 0.0,
			"-0.012": 0.0,
			"-0.011": 0.0,
			"-0.01": 0.0,
			"-0.009": 0.0,
			"-0.008": 0.307580187588,
			"-0.007": 4.07813634578,
			"-0.006": 9.46658128224,
			"-0.005": 11.6107125275,
			"-0.004": 14.2420750441,
			"-0.003": 18.1192033746,
			"-0.002": 18.7037063835,
			"-0.001": 23.3543222075,
			"0.0": 19.4284735944,
			"0.001": 18.6167986691,
			"0.002": 14.7394472827,
			"0.003": 7.48067550447,
			"0.004": 3.26474950164,
			"0.005": 2.89745781018,
			"0.006": 3.3326037146,
			"0.007": 5.94631261588,
			"0.008": 9.50235217432,
			"0.009": 4.84047859848,
			"0.01": 3.29573715805,
			"0.011": 0.585647333298,
			"0.012": 0.0,
			"0.013": 0.0,
			"0.014": 0.0,
			"0.015": 0.0,
			"0.016": 0.0,
			"0.017": 0.0,
			"0.018": 0.0,
			"0.019": 0.0,
			"0.02": 0.0,
			"0.021": 0.0,
			"0.022": 0.0,
			"0.023": 0.0,
			"0.024": 0.0,
			"0.025": 0.0
		}
	}
}
