{
	 "smiles": "CC1(C)OC(=O)C2CCCCC12", 
	 "Tm": 353.15, 
	 "num_atms": 28, 
	 "gaussian": { 
		 "optdone": 1, 
		 "sigma_profile": "yes", 
		 "theory": "DFT", 
		 "functional": "B3LYP", 
		 "basiset": "6-31G**", 
		 "properties": { 
			 "R2extent": 2150.9125, 
			 "electric_dipole_moment_norm": 4.33514023879, 
			 "electric_quadrupole_moment_norm": 11.2682628564, 
			 "total_energy": -541.185951567, 
			 "HOMO_LUMO_gap": 0.271, 
			 "cosmo_polarized_energy": -10.0, 
			 "cosmo_cavitation_energy": 27.14, 
			 "cosmo_dispersion_energy": -19.96, 
			 "cosmo_repulsion_energy": 1.57, 
			 "cosmo_total_nonelectrostatic_energy": 8.75, 
			 "SMD_solvation_energy": 4.78 
		},
		"coords": [
			{
				"x": 0.6805935548,
				"y": 0.3585005575,
				"z": -2.4837747576,
				"element": "C" 
			},
			{
				"x": 0.7213606634,
				"y": -0.941890399,
				"z": -1.6861957331,
				"element": "C" 
			},
			{
				"x": 1.1426838857,
				"y": -2.1104344686,
				"z": -2.5867448559,
				"element": "C" 
			},
			{
				"x": 1.7695941244,
				"y": -0.7771070185,
				"z": -0.6771463575,
				"element": "O" 
			},
			{
				"x": 1.4291831259,
				"y": -1.361096197,
				"z": 0.5000787022,
				"element": "C" 
			},
			{
				"x": 2.1688236441,
				"y": -1.3788176567,
				"z": 1.4531450291,
				"element": "O" 
			},
			{
				"x": 0.0208286954,
				"y": -1.9461359137,
				"z": 0.4059199058,
				"element": "C" 
			},
			{
				"x": -0.7923555438,
				"y": -1.6969245684,
				"z": 1.6832584081,
				"element": "C" 
			},
			{
				"x": -0.983154563,
				"y": -0.1914836687,
				"z": 1.9804319316,
				"element": "C" 
			},
			{
				"x": -1.0452735395,
				"y": 0.6728739401,
				"z": 0.6948580954,
				"element": "C" 
			},
			{
				"x": -1.5235362634,
				"y": -0.140619771,
				"z": -0.5172729823,
				"element": "C" 
			},
			{
				"x": -0.56799921,
				"y": -1.3028272281,
				"z": -0.8736414739,
				"element": "C" 
			},
			{
				"x": 0.492246815,
				"y": 1.2203877552,
				"z": -1.8403996468,
				"element": "H" 
			},
			{
				"x": -0.1012962084,
				"y": 0.3155902835,
				"z": -3.2485462576,
				"element": "H" 
			},
			{
				"x": 1.6394598095,
				"y": 0.5147182647,
				"z": -2.9862482757,
				"element": "H" 
			},
			{
				"x": 0.4371515014,
				"y": -2.2300252268,
				"z": -3.4153738478,
				"element": "H" 
			},
			{
				"x": 1.1751273918,
				"y": -3.0517292132,
				"z": -2.0290734241,
				"element": "H" 
			},
			{
				"x": 2.1379547179,
				"y": -1.9278469285,
				"z": -3.0013983134,
				"element": "H" 
			},
			{
				"x": 0.1480114916,
				"y": -3.0276101059,
				"z": 0.2684044258,
				"element": "H" 
			},
			{
				"x": -1.7659359286,
				"y": -2.187431967,
				"z": 1.5660883397,
				"element": "H" 
			},
			{
				"x": -0.2911894732,
				"y": -2.1851984137,
				"z": 2.5241598027,
				"element": "H" 
			},
			{
				"x": -1.9019967444,
				"y": -0.0627211523,
				"z": 2.5634365965,
				"element": "H" 
			},
			{
				"x": -0.1623441621,
				"y": 0.1605396443,
				"z": 2.6126721996,
				"element": "H" 
			},
			{
				"x": -0.0537170635,
				"y": 1.0896815765,
				"z": 0.4819392338,
				"element": "H" 
			},
			{
				"x": -1.7048975518,
				"y": 1.5332690325,
				"z": 0.8516362595,
				"element": "H" 
			},
			{
				"x": -1.6781232656,
				"y": 0.5074449057,
				"z": -1.3856642907,
				"element": "H" 
			},
			{
				"x": -2.5075017163,
				"y": -0.5704083227,
				"z": -0.2889804534,
				"element": "H" 
			},
			{
				"x": -1.1338981873,
				"y": -2.0395977404,
				"z": -1.4535682599,
				"element": "H" 
			}
		],
		 "valence_orbital": [ 
			{
				"type": "occ",
				"energy": -0.31712,
				"method": "rhf"
			},
			{
				"type": "occ",
				"energy": -0.30789,
				"method": "rhf"
			},
			{
				"type": "occ",
				"energy": -0.30371,
				"method": "rhf"
			},
			{
				"type": "occ",
				"energy": -0.28297,
				"method": "rhf"
			},
			{
				"type": "occ",
				"energy": -0.25517,
				"method": "rhf"
			},
			{
				"type": "unocc",
				"energy": 0.01583,
				"method": "rhf"
			},
			{
				"type": "unocc",
				"energy": 0.06517,
				"method": "rhf"
			},
			{
				"type": "unocc",
				"energy": 0.09808,
				"method": "rhf"
			},
			{
				"type": "unocc",
				"energy": 0.10201,
				"method": "rhf"
			},
			{
				"type": "unocc",
				"energy": 0.11115,
				"method": "rhf"
			}
		],
		"cosmo_sigma_profile": { 
			"-0.025": 0.0,
			"-0.024": 0.0,
			"-0.023": 0.0,
			"-0.022": 0.0,
			"-0.021": 0.0,
			"-0.02": 0.0,
			"-0.019": 0.0,
			"-0.018": 0.0,
			"-0.017": 0.0,
			"-0.016": 0.0,
			"-0.015": 0.0,
			"-0.014": 0.0,
			"-0.013": 0.0,
			"-0.012": 0.0,
			"-0.011": 0.0,
			"-0.01": 0.0,
			"-0.009": 0.0,
			"-0.008": 0.00279598146638,
			"-0.007": 0.929407890594,
			"-0.006": 3.85096485434,
			"-0.005": 5.65987579725,
			"-0.004": 18.1566331113,
			"-0.003": 33.3146195211,
			"-0.002": 33.901572283,
			"-0.001": 30.5480940725,
			"0.0": 30.3159445117,
			"0.001": 14.7434864649,
			"0.002": 3.2806354013,
			"0.003": 2.18845810428,
			"0.004": 2.13097319995,
			"0.005": 3.09082886158,
			"0.006": 2.6715413529,
			"0.007": 2.12678643448,
			"0.008": 2.13945955289,
			"0.009": 2.69480167399,
			"0.01": 3.90275199794,
			"0.011": 3.88553664175,
			"0.012": 5.67196010287,
			"0.013": 3.74825906502,
			"0.014": 0.408265113842,
			"0.015": 0.0,
			"0.016": 0.0,
			"0.017": 0.0,
			"0.018": 0.0,
			"0.019": 0.0,
			"0.02": 0.0,
			"0.021": 0.0,
			"0.022": 0.0,
			"0.023": 0.0,
			"0.024": 0.0,
			"0.025": 0.0
		}
	}
}
