{
	 "smiles": "CC1=CSC(CC(N)=NO)=N1", 
	 "Tm": 400.15, 
	 "num_atms": 20, 
	 "gaussian": { 
		 "optdone": 1, 
		 "sigma_profile": "yes", 
		 "theory": "DFT", 
		 "functional": "B3LYP", 
		 "basiset": "6-31G**", 
		 "properties": { 
			 "R2extent": 2558.9763, 
			 "electric_dipole_moment_norm": 2.38621458381, 
			 "electric_quadrupole_moment_norm": 3.37869360996, 
			 "total_energy": -871.675484485, 
			 "HOMO_LUMO_gap": 0.18314, 
			 "cosmo_polarized_energy": -13.71, 
			 "cosmo_cavitation_energy": 25.92, 
			 "cosmo_dispersion_energy": -19.48, 
			 "cosmo_repulsion_energy": 1.57, 
			 "cosmo_total_nonelectrostatic_energy": 8.01, 
			 "SMD_solvation_energy": 2.62 
		},
		"coords": [
			{
				"x": -2.6343910963,
				"y": -2.0360151772,
				"z": -0.9279685111,
				"element": "C" 
			},
			{
				"x": -1.8000673211,
				"y": -0.9876708363,
				"z": -0.2530178273,
				"element": "C" 
			},
			{
				"x": -2.0724717907,
				"y": -0.3917470407,
				"z": 0.9481267992,
				"element": "C" 
			},
			{
				"x": -0.8482005393,
				"y": 0.7730011938,
				"z": 1.3366282079,
				"element": "S" 
			},
			{
				"x": -0.0316391318,
				"y": 0.3611873122,
				"z": -0.1743509567,
				"element": "C" 
			},
			{
				"x": 1.2698693937,
				"y": 1.0109760207,
				"z": -0.5707095123,
				"element": "C" 
			},
			{
				"x": 2.4869154505,
				"y": 0.1634890465,
				"z": -0.2674982378,
				"element": "C" 
			},
			{
				"x": 2.7076324654,
				"y": -0.216176664,
				"z": 1.0369466988,
				"element": "N" 
			},
			{
				"x": 3.2837168775,
				"y": -0.0714090772,
				"z": -1.252711707,
				"element": "N" 
			},
			{
				"x": 4.3912000115,
				"y": -0.8452803104,
				"z": -0.7883144882,
				"element": "O" 
			},
			{
				"x": -0.6421554033,
				"y": -0.5511112348,
				"z": -0.869487354,
				"element": "N" 
			},
			{
				"x": -2.9696123083,
				"y": -1.6877191937,
				"z": -1.9106759683,
				"element": "H" 
			},
			{
				"x": -2.0499995058,
				"y": -2.9477222871,
				"z": -1.0909724811,
				"element": "H" 
			},
			{
				"x": -3.5137734635,
				"y": -2.2887434827,
				"z": -0.3306875233,
				"element": "H" 
			},
			{
				"x": -2.9140927688,
				"y": -0.5615475241,
				"z": 1.6044596813,
				"element": "H" 
			},
			{
				"x": 1.259573169,
				"y": 1.1900690461,
				"z": -1.6475948692,
				"element": "H" 
			},
			{
				"x": 1.3715963087,
				"y": 1.9762761396,
				"z": -0.0605846142,
				"element": "H" 
			},
			{
				"x": 3.422568605,
				"y": -0.9233102673,
				"z": 1.143031459,
				"element": "H" 
			},
			{
				"x": 1.888984285,
				"y": -0.3445586758,
				"z": 1.6145675176,
				"element": "H" 
			},
			{
				"x": 4.8680467623,
				"y": -1.0168869875,
				"z": -1.6089863133,
				"element": "H" 
			}
		],
		 "valence_orbital": [ 
			{
				"type": "occ",
				"energy": -0.28513,
				"method": "rhf"
			},
			{
				"type": "occ",
				"energy": -0.27421,
				"method": "rhf"
			},
			{
				"type": "occ",
				"energy": -0.26866,
				"method": "rhf"
			},
			{
				"type": "occ",
				"energy": -0.24035,
				"method": "rhf"
			},
			{
				"type": "occ",
				"energy": -0.21121,
				"method": "rhf"
			},
			{
				"type": "unocc",
				"energy": -0.02807,
				"method": "rhf"
			},
			{
				"type": "unocc",
				"energy": 0.01033,
				"method": "rhf"
			},
			{
				"type": "unocc",
				"energy": 0.04045,
				"method": "rhf"
			},
			{
				"type": "unocc",
				"energy": 0.04554,
				"method": "rhf"
			},
			{
				"type": "unocc",
				"energy": 0.07783,
				"method": "rhf"
			}
		],
		"cosmo_sigma_profile": { 
			"-0.025": 0.0,
			"-0.024": 0.0,
			"-0.023": 0.0,
			"-0.022": 0.0,
			"-0.021": 0.0,
			"-0.02": 0.0,
			"-0.019": 0.0,
			"-0.018": 0.0,
			"-0.017": 0.26080151196,
			"-0.016": 0.977399929283,
			"-0.015": 1.14330781454,
			"-0.014": 0.558390989587,
			"-0.013": 0.489680591036,
			"-0.012": 1.08690227437,
			"-0.011": 2.23084710468,
			"-0.01": 3.0184493624,
			"-0.009": 3.6514795373,
			"-0.008": 5.3960962503,
			"-0.007": 8.15123426352,
			"-0.006": 8.45856544577,
			"-0.005": 11.0409448417,
			"-0.004": 12.5349306842,
			"-0.003": 14.0483795941,
			"-0.002": 13.6163427805,
			"-0.001": 14.5956448524,
			"0.0": 15.8226108693,
			"0.001": 12.8290722815,
			"0.002": 13.9684335878,
			"0.003": 12.0816872434,
			"0.004": 6.9454132371,
			"0.005": 6.11235804043,
			"0.006": 5.65440839539,
			"0.007": 6.56090300015,
			"0.008": 6.07491255664,
			"0.009": 5.17128342228,
			"0.01": 3.22965604288,
			"0.011": 4.59391969819,
			"0.012": 2.26700741059,
			"0.013": 1.30265106972,
			"0.014": 2.32508249982,
			"0.015": 1.10892460162,
			"0.016": 0.0282770123337,
			"0.017": 0.0,
			"0.018": 0.0,
			"0.019": 0.0,
			"0.02": 0.0,
			"0.021": 0.0,
			"0.022": 0.0,
			"0.023": 0.0,
			"0.024": 0.0,
			"0.025": 0.0
		}
	}
}
