{
	 "smiles": "CSC(SC)=NC1=NN=C(S1)C1=CC=C(C=C1)[N+]([O-])=O", 
	 "Tm": 523.15, 
	 "num_atms": 30, 
	 "gaussian": { 
		 "optdone": 1, 
		 "sigma_profile": "yes", 
		 "theory": "DFT", 
		 "functional": "B3LYP", 
		 "basiset": "6-31G**", 
		 "properties": { 
			 "R2extent": 13113.793, 
			 "electric_dipole_moment_norm": 5.24713038813, 
			 "electric_quadrupole_moment_norm": 25.9836044626, 
			 "total_energy": -1989.07541338, 
			 "HOMO_LUMO_gap": 0.13288, 
			 "cosmo_polarized_energy": -14.54, 
			 "cosmo_cavitation_energy": 40.88, 
			 "cosmo_dispersion_energy": -30.47, 
			 "cosmo_repulsion_energy": 2.2, 
			 "cosmo_total_nonelectrostatic_energy": 12.61, 
			 "SMD_solvation_energy": 6.87 
		},
		"coords": [
			{
				"x": -6.1499540487,
				"y": 1.1453856467,
				"z": 2.8212797159,
				"element": "C" 
			},
			{
				"x": -5.8097428222,
				"y": -0.2692527213,
				"z": 3.92175364,
				"element": "S" 
			},
			{
				"x": -4.181784086,
				"y": -0.7371879107,
				"z": 3.3979390561,
				"element": "C" 
			},
			{
				"x": -3.4774535904,
				"y": -1.782762479,
				"z": 4.6513579346,
				"element": "S" 
			},
			{
				"x": -2.333434819,
				"y": -2.8878360004,
				"z": 3.7539916284,
				"element": "C" 
			},
			{
				"x": -3.7420547837,
				"y": -0.3175617396,
				"z": 2.2640120471,
				"element": "N" 
			},
			{
				"x": -2.4689013598,
				"y": -0.310439235,
				"z": 1.7915819875,
				"element": "C" 
			},
			{
				"x": -1.3380422468,
				"y": -0.3078062687,
				"z": 2.4702598907,
				"element": "N" 
			},
			{
				"x": -0.24450179,
				"y": -0.1798383516,
				"z": 1.6840749006,
				"element": "N" 
			},
			{
				"x": -0.5056889154,
				"y": -0.0799830823,
				"z": 0.4024185771,
				"element": "C" 
			},
			{
				"x": -2.2258831852,
				"y": -0.1264992351,
				"z": 0.0496161231,
				"element": "S" 
			},
			{
				"x": 0.5449318285,
				"y": 0.0478806311,
				"z": -0.6122895151,
				"element": "C" 
			},
			{
				"x": 1.8913527431,
				"y": 0.0980893056,
				"z": -0.2001267218,
				"element": "C" 
			},
			{
				"x": 2.910325791,
				"y": 0.2186041585,
				"z": -1.1344781035,
				"element": "C" 
			},
			{
				"x": 2.5798612163,
				"y": 0.2894693871,
				"z": -2.4884466896,
				"element": "C" 
			},
			{
				"x": 1.2583541821,
				"y": 0.2430228361,
				"z": -2.9270045988,
				"element": "C" 
			},
			{
				"x": 0.2446083644,
				"y": 0.1222503967,
				"z": -1.9837540576,
				"element": "C" 
			},
			{
				"x": 3.6556273635,
				"y": 0.4170332838,
				"z": -3.4818729216,
				"element": "N" 
			},
			{
				"x": 3.3324812108,
				"y": 0.4777244829,
				"z": -4.66825725,
				"element": "O" 
			},
			{
				"x": 4.8135067123,
				"y": 0.4550499765,
				"z": -3.0665895468,
				"element": "O" 
			},
			{
				"x": -7.148891817,
				"y": 1.4960056081,
				"z": 3.0890602468,
				"element": "H" 
			},
			{
				"x": -5.4204194657,
				"y": 1.9401561643,
				"z": 2.9822754991,
				"element": "H" 
			},
			{
				"x": -6.1287397734,
				"y": 0.8254001068,
				"z": 1.7798203831,
				"element": "H" 
			},
			{
				"x": -2.1611773967,
				"y": -3.7251736606,
				"z": 4.4334417997,
				"element": "H" 
			},
			{
				"x": -2.7992633115,
				"y": -3.2595159253,
				"z": 2.8397233037,
				"element": "H" 
			},
			{
				"x": -1.4018278793,
				"y": -2.3696070447,
				"z": 3.5303915628,
				"element": "H" 
			},
			{
				"x": 2.1148732843,
				"y": 0.0420151964,
				"z": 0.8587117479,
				"element": "H" 
			},
			{
				"x": 3.9509022773,
				"y": 0.259258012,
				"z": -0.8380752473,
				"element": "H" 
			},
			{
				"x": 1.0462111301,
				"y": 0.3012687482,
				"z": -3.9869815651,
				"element": "H" 
			},
			{
				"x": -0.7868748129,
				"y": 0.0845497136,
				"z": -2.3203338269,
				"element": "H" 
			}
		],
		 "valence_orbital": [ 
			{
				"type": "occ",
				"energy": -0.28448,
				"method": "rhf"
			},
			{
				"type": "occ",
				"energy": -0.2808,
				"method": "rhf"
			},
			{
				"type": "occ",
				"energy": -0.26626,
				"method": "rhf"
			},
			{
				"type": "occ",
				"energy": -0.2585,
				"method": "rhf"
			},
			{
				"type": "occ",
				"energy": -0.23692,
				"method": "rhf"
			},
			{
				"type": "unocc",
				"energy": -0.10404,
				"method": "rhf"
			},
			{
				"type": "unocc",
				"energy": -0.07269,
				"method": "rhf"
			},
			{
				"type": "unocc",
				"energy": -0.03611,
				"method": "rhf"
			},
			{
				"type": "unocc",
				"energy": -0.03206,
				"method": "rhf"
			},
			{
				"type": "unocc",
				"energy": -0.00848,
				"method": "rhf"
			}
		],
		"cosmo_sigma_profile": { 
			"-0.025": 0.0,
			"-0.024": 0.0,
			"-0.023": 0.0,
			"-0.022": 0.0,
			"-0.021": 0.0,
			"-0.02": 0.0,
			"-0.019": 0.0,
			"-0.018": 0.0,
			"-0.017": 0.0,
			"-0.016": 0.0,
			"-0.015": 0.0,
			"-0.014": 0.0,
			"-0.013": 0.0,
			"-0.012": 0.0,
			"-0.011": 0.0,
			"-0.01": 0.0,
			"-0.009": 0.528334054017,
			"-0.008": 6.86219536637,
			"-0.007": 14.238835453,
			"-0.006": 18.1576877405,
			"-0.005": 17.6508151241,
			"-0.004": 19.3123315854,
			"-0.003": 27.2301857968,
			"-0.002": 33.3720424156,
			"-0.001": 26.6562710131,
			"0.0": 32.8876958949,
			"0.001": 30.4724798545,
			"0.002": 19.4037846854,
			"0.003": 16.2973427667,
			"0.004": 14.3748118355,
			"0.005": 11.3862666467,
			"0.006": 9.52306130061,
			"0.007": 10.4839700022,
			"0.008": 9.0263518133,
			"0.009": 6.88493105504,
			"0.01": 4.81764938726,
			"0.011": 3.11756334255,
			"0.012": 1.55846832891,
			"0.013": 0.582743592167,
			"0.014": 0.0209143774648,
			"0.015": 0.0,
			"0.016": 0.0,
			"0.017": 0.0,
			"0.018": 0.0,
			"0.019": 0.0,
			"0.02": 0.0,
			"0.021": 0.0,
			"0.022": 0.0,
			"0.023": 0.0,
			"0.024": 0.0,
			"0.025": 0.0
		}
	}
}
