{
	 "smiles": "OC1=C(C=C(Br)C=C1)C1=NNN=N1", 
	 "Tm": 462.15, 
	 "num_atms": 18, 
	 "gaussian": { 
		 "optdone": 1, 
		 "sigma_profile": "yes", 
		 "theory": "DFT", 
		 "functional": "B3LYP", 
		 "basiset": "6-31G**", 
		 "properties": { 
			 "R2extent": 4052.5867, 
			 "electric_dipole_moment_norm": 2.96202593844, 
			 "electric_quadrupole_moment_norm": 17.5480748762, 
			 "total_energy": -3135.34868967, 
			 "HOMO_LUMO_gap": 0.16471, 
			 "cosmo_polarized_energy": -11.98, 
			 "cosmo_cavitation_energy": 25.38, 
			 "cosmo_dispersion_energy": -19.86, 
			 "cosmo_repulsion_energy": 1.56, 
			 "cosmo_total_nonelectrostatic_energy": 7.07, 
			 "SMD_solvation_energy": 1.52 
		},
		"coords": [
			{
				"x": -2.8591048718,
				"y": 0.1129150012,
				"z": -0.1551214987,
				"element": "O" 
			},
			{
				"x": -1.6665453735,
				"y": 0.5984448479,
				"z": 0.2416224443,
				"element": "C" 
			},
			{
				"x": -0.4226943903,
				"y": 0.0055085457,
				"z": -0.0873060057,
				"element": "C" 
			},
			{
				"x": 0.7706948111,
				"y": 0.588552872,
				"z": 0.375459192,
				"element": "C" 
			},
			{
				"x": 0.7296508031,
				"y": 1.7361864041,
				"z": 1.1485377877,
				"element": "C" 
			},
			{
				"x": 2.3579152609,
				"y": 2.5202008941,
				"z": 1.7721837412,
				"element": "Br" 
			},
			{
				"x": -0.4940718368,
				"y": 2.3298155055,
				"z": 1.4790481345,
				"element": "C" 
			},
			{
				"x": -1.6765562626,
				"y": 1.7624344362,
				"z": 1.0274879897,
				"element": "C" 
			},
			{
				"x": -0.3695025684,
				"y": -1.2037870065,
				"z": -0.9013601705,
				"element": "C" 
			},
			{
				"x": 0.740991762,
				"y": -1.8488158478,
				"z": -1.2732624898,
				"element": "N" 
			},
			{
				"x": 0.230176628,
				"y": -2.8516685882,
				"z": -1.9801943963,
				"element": "N" 
			},
			{
				"x": -1.0890653994,
				"y": -2.8712702562,
				"z": -2.0697818078,
				"element": "N" 
			},
			{
				"x": -1.4859347863,
				"y": -1.8278285968,
				"z": -1.3872131478,
				"element": "N" 
			},
			{
				"x": -2.7276496038,
				"y": -0.6970102275,
				"z": -0.6945911317,
				"element": "H" 
			},
			{
				"x": 1.7174614166,
				"y": 0.1282311877,
				"z": 0.1190023582,
				"element": "H" 
			},
			{
				"x": -0.5159494037,
				"y": 3.2285246304,
				"z": 2.0850119215,
				"element": "H" 
			},
			{
				"x": -2.6367303128,
				"y": 2.2043673422,
				"z": 1.2707403307,
				"element": "H" 
			},
			{
				"x": 0.8066141277,
				"y": -3.5554011441,
				"z": -2.4224632513,
				"element": "H" 
			}
		],
		 "valence_orbital": [ 
			{
				"type": "occ",
				"energy": -0.31836,
				"method": "rhf"
			},
			{
				"type": "occ",
				"energy": -0.29171,
				"method": "rhf"
			},
			{
				"type": "occ",
				"energy": -0.28646,
				"method": "rhf"
			},
			{
				"type": "occ",
				"energy": -0.26023,
				"method": "rhf"
			},
			{
				"type": "occ",
				"energy": -0.22212,
				"method": "rhf"
			},
			{
				"type": "unocc",
				"energy": -0.05741,
				"method": "rhf"
			},
			{
				"type": "unocc",
				"energy": -0.04119,
				"method": "rhf"
			},
			{
				"type": "unocc",
				"energy": -0.00469,
				"method": "rhf"
			},
			{
				"type": "unocc",
				"energy": 0.00778,
				"method": "rhf"
			},
			{
				"type": "unocc",
				"energy": 0.04823,
				"method": "rhf"
			}
		],
		"cosmo_sigma_profile": { 
			"-0.025": 0.0,
			"-0.024": 0.0,
			"-0.023": 0.0,
			"-0.022": 0.0,
			"-0.021": 0.00819952039888,
			"-0.02": 1.85550093355,
			"-0.019": 2.01301978557,
			"-0.018": 0.733245968437,
			"-0.017": 0.978867171886,
			"-0.016": 1.43295737321,
			"-0.015": 0.963140059648,
			"-0.014": 0.286916714089,
			"-0.013": 0.619740439524,
			"-0.012": 0.612240823683,
			"-0.011": 0.975336976353,
			"-0.01": 0.807647671283,
			"-0.009": 0.645140432854,
			"-0.008": 1.31778540807,
			"-0.007": 5.31829477351,
			"-0.006": 5.43842907131,
			"-0.005": 7.77783861216,
			"-0.004": 11.8086579907,
			"-0.003": 12.9510032009,
			"-0.002": 12.9436411617,
			"-0.001": 12.7264932755,
			"0.0": 16.0340775858,
			"0.001": 17.2096882015,
			"0.002": 24.9983021919,
			"0.003": 17.4721784522,
			"0.004": 15.3561487895,
			"0.005": 12.780451376,
			"0.006": 5.55842324028,
			"0.007": 3.27064401017,
			"0.008": 4.35581777836,
			"0.009": 3.46767936362,
			"0.01": 3.56694620837,
			"0.011": 2.05865923056,
			"0.012": 0.074608239616,
			"0.013": 0.0,
			"0.014": 0.0,
			"0.015": 0.0,
			"0.016": 0.0,
			"0.017": 0.0,
			"0.018": 0.0,
			"0.019": 0.0,
			"0.02": 0.0,
			"0.021": 0.0,
			"0.022": 0.0,
			"0.023": 0.0,
			"0.024": 0.0,
			"0.025": 0.0
		}
	}
}
