{
	 "smiles": "[O-][N+](=O)C1=CC(C#N)=C(C=C1)S(Cl)(=O)=O", 
	 "Tm": 373.15, 
	 "num_atms": 18, 
	 "gaussian": { 
		 "optdone": 1, 
		 "sigma_profile": "yes", 
		 "theory": "DFT", 
		 "functional": "B3LYP", 
		 "basiset": "6-31G**", 
		 "properties": { 
			 "R2extent": 5832.7472, 
			 "electric_dipole_moment_norm": 3.54254478306, 
			 "electric_quadrupole_moment_norm": 17.2025246217, 
			 "total_energy": -1537.1206511, 
			 "HOMO_LUMO_gap": 0.17721, 
			 "cosmo_polarized_energy": -16.5, 
			 "cosmo_cavitation_energy": 28.62, 
			 "cosmo_dispersion_energy": -20.62, 
			 "cosmo_repulsion_energy": 1.56, 
			 "cosmo_total_nonelectrostatic_energy": 9.56, 
			 "SMD_solvation_energy": 7.13 
		},
		"coords": [
			{
				"x": -3.4356063287,
				"y": -1.3669908141,
				"z": 1.1047784943,
				"element": "O" 
			},
			{
				"x": -3.7330294639,
				"y": -0.8452388605,
				"z": 0.0350688893,
				"element": "N" 
			},
			{
				"x": -4.834841628,
				"y": -0.8906445687,
				"z": -0.5027484255,
				"element": "O" 
			},
			{
				"x": -2.6692505786,
				"y": -0.0941009229,
				"z": -0.6711026996,
				"element": "C" 
			},
			{
				"x": -1.4097344495,
				"y": -0.0253556303,
				"z": -0.0881677291,
				"element": "C" 
			},
			{
				"x": -0.3920768932,
				"y": 0.6828429401,
				"z": -0.7430427125,
				"element": "C" 
			},
			{
				"x": 0.9016033599,
				"y": 0.7220472843,
				"z": -0.1256348484,
				"element": "C" 
			},
			{
				"x": 1.9225713262,
				"y": 0.6942430776,
				"z": 0.4282586115,
				"element": "N" 
			},
			{
				"x": -0.6919977939,
				"y": 1.2979450374,
				"z": -1.9767056741,
				"element": "C" 
			},
			{
				"x": -1.9607127527,
				"y": 1.214207088,
				"z": -2.5451873374,
				"element": "C" 
			},
			{
				"x": -2.9682885192,
				"y": 0.5105968299,
				"z": -1.8863903492,
				"element": "C" 
			},
			{
				"x": 0.528648366,
				"y": 2.2828882255,
				"z": -2.8757635549,
				"element": "S" 
			},
			{
				"x": 1.7938297149,
				"y": 0.7643440395,
				"z": -3.6117178866,
				"element": "Cl" 
			},
			{
				"x": -0.1375455091,
				"y": 2.8721555307,
				"z": -4.0289182068,
				"element": "O" 
			},
			{
				"x": 1.295978521,
				"y": 3.0743261161,
				"z": -1.928456103,
				"element": "O" 
			},
			{
				"x": -1.2243031979,
				"y": -0.5146275671,
				"z": 0.8595058719,
				"element": "H" 
			},
			{
				"x": -2.1521332916,
				"y": 1.701862411,
				"z": -3.4935435947,
				"element": "H" 
			},
			{
				"x": -3.9664108816,
				"y": 0.4269997834,
				"z": -2.2975327452,
				"element": "H" 
			}
		],
		 "valence_orbital": [ 
			{
				"type": "occ",
				"energy": -0.34418,
				"method": "rhf"
			},
			{
				"type": "occ",
				"energy": -0.33796,
				"method": "rhf"
			},
			{
				"type": "occ",
				"energy": -0.33427,
				"method": "rhf"
			},
			{
				"type": "occ",
				"energy": -0.33027,
				"method": "rhf"
			},
			{
				"type": "occ",
				"energy": -0.31874,
				"method": "rhf"
			},
			{
				"type": "unocc",
				"energy": -0.14153,
				"method": "rhf"
			},
			{
				"type": "unocc",
				"energy": -0.10576,
				"method": "rhf"
			},
			{
				"type": "unocc",
				"energy": -0.09764,
				"method": "rhf"
			},
			{
				"type": "unocc",
				"energy": -0.06102,
				"method": "rhf"
			},
			{
				"type": "unocc",
				"energy": -0.00432,
				"method": "rhf"
			}
		],
		"cosmo_sigma_profile": { 
			"-0.025": 0.0,
			"-0.024": 0.0,
			"-0.023": 0.0,
			"-0.022": 0.0,
			"-0.021": 0.0,
			"-0.02": 0.0,
			"-0.019": 0.0,
			"-0.018": 0.0,
			"-0.017": 0.0,
			"-0.016": 0.0,
			"-0.015": 0.0,
			"-0.014": 0.0,
			"-0.013": 0.0,
			"-0.012": 0.0406637522764,
			"-0.011": 2.03097935977,
			"-0.01": 5.93424289856,
			"-0.009": 6.31746355928,
			"-0.008": 7.25104855717,
			"-0.007": 8.27927732953,
			"-0.006": 12.5586253342,
			"-0.005": 23.002270829,
			"-0.004": 15.5783417661,
			"-0.003": 13.1944140387,
			"-0.002": 7.69674699567,
			"-0.001": 8.41870787238,
			"0.0": 10.5194361421,
			"0.001": 14.2984136752,
			"0.002": 17.315859977,
			"0.003": 8.94709647359,
			"0.004": 7.06824654765,
			"0.005": 11.2105075283,
			"0.006": 17.0998212963,
			"0.007": 18.6227251433,
			"0.008": 11.5822343438,
			"0.009": 3.65613846847,
			"0.01": 2.58856211696,
			"0.011": 1.91995422539,
			"0.012": 0.235716266377,
			"0.013": 0.0,
			"0.014": 0.0,
			"0.015": 0.0,
			"0.016": 0.0,
			"0.017": 0.0,
			"0.018": 0.0,
			"0.019": 0.0,
			"0.02": 0.0,
			"0.021": 0.0,
			"0.022": 0.0,
			"0.023": 0.0,
			"0.024": 0.0,
			"0.025": 0.0
		}
	}
}
