{
	 "smiles": "CCN(CC)C1=CC=C(C=C1)C#N", 
	 "Tm": 339.65, 
	 "num_atms": 27, 
	 "gaussian": { 
		 "optdone": 1, 
		 "sigma_profile": "yes", 
		 "theory": "DFT", 
		 "functional": "B3LYP", 
		 "basiset": "6-31G**", 
		 "properties": { 
			 "R2extent": 3849.3628, 
			 "electric_dipole_moment_norm": 7.74356563735, 
			 "electric_quadrupole_moment_norm": 26.9283472545, 
			 "total_energy": -537.102741809, 
			 "HOMO_LUMO_gap": 0.17884, 
			 "cosmo_polarized_energy": -12.07, 
			 "cosmo_cavitation_energy": 30.27, 
			 "cosmo_dispersion_energy": -21.06, 
			 "cosmo_repulsion_energy": 1.67, 
			 "cosmo_total_nonelectrostatic_energy": 10.88, 
			 "SMD_solvation_energy": 6.47 
		},
		"coords": [
			{
				"x": 1.2668598605,
				"y": -2.9383068484,
				"z": 2.4398968365,
				"element": "C" 
			},
			{
				"x": 0.875122726,
				"y": -1.4551095746,
				"z": 2.4185054014,
				"element": "C" 
			},
			{
				"x": 0.3491811465,
				"y": -0.9989698177,
				"z": 1.1327389914,
				"element": "N" 
			},
			{
				"x": -1.1017175468,
				"y": -1.0659023271,
				"z": 0.9645045992,
				"element": "C" 
			},
			{
				"x": -1.8334994936,
				"y": 0.2254516465,
				"z": 1.3526608475,
				"element": "C" 
			},
			{
				"x": 1.176983241,
				"y": -0.5317024954,
				"z": 0.1323422746,
				"element": "C" 
			},
			{
				"x": 0.6543680455,
				"y": 0.0267749537,
				"z": -1.0633832877,
				"element": "C" 
			},
			{
				"x": 1.4884883525,
				"y": 0.4923860828,
				"z": -2.0667087849,
				"element": "C" 
			},
			{
				"x": 2.8868227497,
				"y": 0.433852244,
				"z": -1.9340354646,
				"element": "C" 
			},
			{
				"x": 3.4181024074,
				"y": -0.1143432692,
				"z": -0.7535313973,
				"element": "C" 
			},
			{
				"x": 2.590299283,
				"y": -0.5872271248,
				"z": 0.2516281328,
				"element": "C" 
			},
			{
				"x": 3.74368319,
				"y": 0.9177816061,
				"z": -2.9695435284,
				"element": "C" 
			},
			{
				"x": 4.4423929666,
				"y": 1.3124220939,
				"z": -3.8139493943,
				"element": "N" 
			},
			{
				"x": 2.0500263157,
				"y": -3.1529497748,
				"z": 1.7073598614,
				"element": "H" 
			},
			{
				"x": 0.406469341,
				"y": -3.5730899954,
				"z": 2.2047566441,
				"element": "H" 
			},
			{
				"x": 1.6360053297,
				"y": -3.2226560808,
				"z": 3.4310964979,
				"element": "H" 
			},
			{
				"x": 0.1029702601,
				"y": -1.2683153709,
				"z": 3.1728038107,
				"element": "H" 
			},
			{
				"x": 1.7258372678,
				"y": -0.82885249,
				"z": 2.7049002706,
				"element": "H" 
			},
			{
				"x": -1.3344277181,
				"y": -1.3438806163,
				"z": -0.0682149502,
				"element": "H" 
			},
			{
				"x": -1.4650414714,
				"y": -1.893948154,
				"z": 1.5828917844,
				"element": "H" 
			},
			{
				"x": -2.9144468787,
				"y": 0.107318554,
				"z": 1.2215200955,
				"element": "H" 
			},
			{
				"x": -1.6460635164,
				"y": 0.4808119801,
				"z": 2.4005934595,
				"element": "H" 
			},
			{
				"x": -1.5034622114,
				"y": 1.068754258,
				"z": 0.7395069856,
				"element": "H" 
			},
			{
				"x": -0.4150555919,
				"y": 0.114528456,
				"z": -1.2056477472,
				"element": "H" 
			},
			{
				"x": 1.0554012334,
				"y": 0.9169379679,
				"z": -2.9668071409,
				"element": "H" 
			},
			{
				"x": 4.4948119395,
				"y": -0.1754448615,
				"z": -0.6312627618,
				"element": "H" 
			},
			{
				"x": 3.0495887723,
				"y": -1.0195210421,
				"z": 1.131277964,
				"element": "H" 
			}
		],
		 "valence_orbital": [ 
			{
				"type": "occ",
				"energy": -0.3394,
				"method": "rhf"
			},
			{
				"type": "occ",
				"energy": -0.3107,
				"method": "rhf"
			},
			{
				"type": "occ",
				"energy": -0.28578,
				"method": "rhf"
			},
			{
				"type": "occ",
				"energy": -0.26346,
				"method": "rhf"
			},
			{
				"type": "occ",
				"energy": -0.20249,
				"method": "rhf"
			},
			{
				"type": "unocc",
				"energy": -0.02365,
				"method": "rhf"
			},
			{
				"type": "unocc",
				"energy": -0.01246,
				"method": "rhf"
			},
			{
				"type": "unocc",
				"energy": 0.05353,
				"method": "rhf"
			},
			{
				"type": "unocc",
				"energy": 0.06256,
				"method": "rhf"
			},
			{
				"type": "unocc",
				"energy": 0.08791,
				"method": "rhf"
			}
		],
		"cosmo_sigma_profile": { 
			"-0.025": 0.0,
			"-0.024": 0.0,
			"-0.023": 0.0,
			"-0.022": 0.0,
			"-0.021": 0.0,
			"-0.02": 0.0,
			"-0.019": 0.0,
			"-0.018": 0.0,
			"-0.017": 0.0,
			"-0.016": 0.0,
			"-0.015": 0.0,
			"-0.014": 0.0,
			"-0.013": 0.0,
			"-0.012": 0.0,
			"-0.011": 0.0,
			"-0.01": 0.0,
			"-0.009": 0.0,
			"-0.008": 0.0756634925194,
			"-0.007": 4.93545740035,
			"-0.006": 8.68540089048,
			"-0.005": 18.3150598461,
			"-0.004": 21.5608503166,
			"-0.003": 27.6664536605,
			"-0.002": 25.1259858215,
			"-0.001": 21.3679561959,
			"0.0": 22.3912032437,
			"0.001": 20.521610915,
			"0.002": 13.7596208919,
			"0.003": 11.4558048206,
			"0.004": 13.0511380235,
			"0.005": 6.01852651014,
			"0.006": 1.92239788906,
			"0.007": 2.54424716601,
			"0.008": 2.78573329288,
			"0.009": 3.47817615052,
			"0.01": 3.6187322533,
			"0.011": 3.73655795273,
			"0.012": 2.64603095668,
			"0.013": 2.65902932126,
			"0.014": 1.68296331098,
			"0.015": 0.0828718017489,
			"0.016": 0.0,
			"0.017": 0.0,
			"0.018": 0.0,
			"0.019": 0.0,
			"0.02": 0.0,
			"0.021": 0.0,
			"0.022": 0.0,
			"0.023": 0.0,
			"0.024": 0.0,
			"0.025": 0.0
		}
	}
}
