{
	 "smiles": "CCOC(=O)C=C1/SCC(=O)N1CC1=C(OCC)C=CC(=C1)C(C)=O", 
	 "Tm": 449.15, 
	 "num_atms": 46, 
	 "gaussian": { 
		 "optdone": 1, 
		 "sigma_profile": "yes", 
		 "theory": "DFT", 
		 "functional": "B3LYP", 
		 "basiset": "6-31G**", 
		 "properties": { 
			 "R2extent": 11108.5572, 
			 "electric_dipole_moment_norm": 3.96925729325, 
			 "electric_quadrupole_moment_norm": 33.5433509298, 
			 "total_energy": -1527.66218356, 
			 "HOMO_LUMO_gap": 0.1794, 
			 "cosmo_polarized_energy": -19.48, 
			 "cosmo_cavitation_energy": 50.53, 
			 "cosmo_dispersion_energy": -33.98, 
			 "cosmo_repulsion_energy": 2.55, 
			 "cosmo_total_nonelectrostatic_energy": 19.1, 
			 "SMD_solvation_energy": 10.67 
		},
		"coords": [
			{
				"x": 4.2716990769,
				"y": -3.1678183166,
				"z": 1.6361860162,
				"element": "C" 
			},
			{
				"x": 2.7597278458,
				"y": -3.3289372611,
				"z": 1.5705524515,
				"element": "C" 
			},
			{
				"x": 2.1001455465,
				"y": -2.0588259599,
				"z": 1.3700202244,
				"element": "O" 
			},
			{
				"x": 1.9896966551,
				"y": -1.6338449677,
				"z": 0.0803316877,
				"element": "C" 
			},
			{
				"x": 2.4080401856,
				"y": -2.2778188565,
				"z": -0.8737947309,
				"element": "O" 
			},
			{
				"x": 1.3213908081,
				"y": -0.3471628753,
				"z": 0.0038961624,
				"element": "C" 
			},
			{
				"x": 1.1099528863,
				"y": 0.2603464301,
				"z": -1.190876797,
				"element": "C" 
			},
			{
				"x": 1.5830360738,
				"y": -0.4238802126,
				"z": -2.7598334733,
				"element": "S" 
			},
			{
				"x": 0.9103031253,
				"y": 1.0285355467,
				"z": -3.6505008906,
				"element": "C" 
			},
			{
				"x": 0.333328021,
				"y": 1.9870770955,
				"z": -2.6246206647,
				"element": "C" 
			},
			{
				"x": -0.2031016905,
				"y": 3.0482352896,
				"z": -2.8929982865,
				"element": "O" 
			},
			{
				"x": 0.4976771713,
				"y": 1.50325649,
				"z": -1.3353821562,
				"element": "N" 
			},
			{
				"x": 0.0623552609,
				"y": 2.3354920231,
				"z": -0.1955522604,
				"element": "C" 
			},
			{
				"x": -1.3278445728,
				"y": 2.0113999917,
				"z": 0.320090967,
				"element": "C" 
			},
			{
				"x": -1.5299539001,
				"y": 1.4489323178,
				"z": 1.5994254803,
				"element": "C" 
			},
			{
				"x": -0.4122140888,
				"y": 1.2041466238,
				"z": 2.3388896513,
				"element": "O" 
			},
			{
				"x": -0.5339476536,
				"y": 0.56122509,
				"z": 3.6164016006,
				"element": "C" 
			},
			{
				"x": 0.868851145,
				"y": 0.3082116396,
				"z": 4.1391070542,
				"element": "C" 
			},
			{
				"x": -2.8318281031,
				"y": 1.1798577805,
				"z": 2.0523757721,
				"element": "C" 
			},
			{
				"x": -3.921580158,
				"y": 1.4683286535,
				"z": 1.2417722687,
				"element": "C" 
			},
			{
				"x": -3.7478531172,
				"y": 2.0353572991,
				"z": -0.0283024998,
				"element": "C" 
			},
			{
				"x": -2.4432533891,
				"y": 2.3035701583,
				"z": -0.4660384202,
				"element": "C" 
			},
			{
				"x": -4.9622577177,
				"y": 2.333787372,
				"z": -0.847879674,
				"element": "C" 
			},
			{
				"x": -4.784097,
				"y": 2.9598798145,
				"z": -2.2210264615,
				"element": "C" 
			},
			{
				"x": -6.0798104433,
				"y": 2.0793606563,
				"z": -0.4203947552,
				"element": "O" 
			},
			{
				"x": 4.7397540135,
				"y": -4.1315346568,
				"z": 1.8637990094,
				"element": "H" 
			},
			{
				"x": 4.6599098836,
				"y": -2.815742571,
				"z": 0.6775182729,
				"element": "H" 
			},
			{
				"x": 4.5549347886,
				"y": -2.4555150808,
				"z": 2.4170340203,
				"element": "H" 
			},
			{
				"x": 2.4733700286,
				"y": -4.0077749464,
				"z": 0.7637184076,
				"element": "H" 
			},
			{
				"x": 2.3561626135,
				"y": -3.6999378939,
				"z": 2.5162363372,
				"element": "H" 
			},
			{
				"x": 0.9786880642,
				"y": 0.1076279052,
				"z": 0.9221842665,
				"element": "H" 
			},
			{
				"x": 0.122891548,
				"y": 0.7311585447,
				"z": -4.3477286491,
				"element": "H" 
			},
			{
				"x": 1.692166086,
				"y": 1.5411142426,
				"z": -4.2170659213,
				"element": "H" 
			},
			{
				"x": 0.8062066303,
				"y": 2.2443406228,
				"z": 0.5950196515,
				"element": "H" 
			},
			{
				"x": 0.0797208534,
				"y": 3.3590607394,
				"z": -0.5758177747,
				"element": "H" 
			},
			{
				"x": -1.1022791198,
				"y": 1.2094233834,
				"z": 4.2964188553,
				"element": "H" 
			},
			{
				"x": -1.0844088355,
				"y": -0.3810654651,
				"z": 3.5008929069,
				"element": "H" 
			},
			{
				"x": 0.8143796903,
				"y": -0.1488260905,
				"z": 5.1320528685,
				"element": "H" 
			},
			{
				"x": 1.413938215,
				"y": -0.3686482982,
				"z": 3.4753308968,
				"element": "H" 
			},
			{
				"x": 1.4255175347,
				"y": 1.2459740248,
				"z": 4.2228324641,
				"element": "H" 
			},
			{
				"x": -2.9949229674,
				"y": 0.7502549371,
				"z": 3.0330183173,
				"element": "H" 
			},
			{
				"x": -4.9327584095,
				"y": 1.2658212772,
				"z": 1.5788985296,
				"element": "H" 
			},
			{
				"x": -2.2702720675,
				"y": 2.7547474497,
				"z": -1.4379859026,
				"element": "H" 
			},
			{
				"x": -4.2754202606,
				"y": 3.9276068986,
				"z": -2.1500124464,
				"element": "H" 
			},
			{
				"x": -4.1743006372,
				"y": 2.3222183672,
				"z": -2.8703329074,
				"element": "H" 
			},
			{
				"x": -5.7676396193,
				"y": 3.0997847875,
				"z": -2.6702594686,
				"element": "H" 
			}
		],
		 "valence_orbital": [ 
			{
				"type": "occ",
				"energy": -0.26274,
				"method": "rhf"
			},
			{
				"type": "occ",
				"energy": -0.26058,
				"method": "rhf"
			},
			{
				"type": "occ",
				"energy": -0.24334,
				"method": "rhf"
			},
			{
				"type": "occ",
				"energy": -0.23562,
				"method": "rhf"
			},
			{
				"type": "occ",
				"energy": -0.22774,
				"method": "rhf"
			},
			{
				"type": "unocc",
				"energy": -0.04834,
				"method": "rhf"
			},
			{
				"type": "unocc",
				"energy": -0.04355,
				"method": "rhf"
			},
			{
				"type": "unocc",
				"energy": -0.02175,
				"method": "rhf"
			},
			{
				"type": "unocc",
				"energy": 0.01005,
				"method": "rhf"
			},
			{
				"type": "unocc",
				"energy": 0.02107,
				"method": "rhf"
			}
		],
		"cosmo_sigma_profile": { 
			"-0.025": 0.0,
			"-0.024": 0.0,
			"-0.023": 0.0,
			"-0.022": 0.0,
			"-0.021": 0.0,
			"-0.02": 0.0,
			"-0.019": 0.0,
			"-0.018": 0.0,
			"-0.017": 0.0,
			"-0.016": 0.0,
			"-0.015": 0.0,
			"-0.014": 0.0,
			"-0.013": 0.0,
			"-0.012": 0.0,
			"-0.011": 0.0,
			"-0.01": 0.0,
			"-0.009": 2.84800257285,
			"-0.008": 5.30305592764,
			"-0.007": 8.1718884628,
			"-0.006": 18.5715538276,
			"-0.005": 31.7997340486,
			"-0.004": 39.1662082531,
			"-0.003": 35.3384682544,
			"-0.002": 31.8172994072,
			"-0.001": 35.2174437977,
			"0.0": 39.0519936667,
			"0.001": 30.0976984953,
			"0.002": 25.645174743,
			"0.003": 23.0858534333,
			"0.004": 15.1580568236,
			"0.005": 7.56313840053,
			"0.006": 8.30477404375,
			"0.007": 7.49469846238,
			"0.008": 4.79457493082,
			"0.009": 4.71533485851,
			"0.01": 6.34305313843,
			"0.011": 7.87850456497,
			"0.012": 10.0458746253,
			"0.013": 3.83392321639,
			"0.014": 0.432586828299,
			"0.015": 0.0,
			"0.016": 0.0,
			"0.017": 0.0,
			"0.018": 0.0,
			"0.019": 0.0,
			"0.02": 0.0,
			"0.021": 0.0,
			"0.022": 0.0,
			"0.023": 0.0,
			"0.024": 0.0,
			"0.025": 0.0
		}
	}
}
