{
	 "smiles": "ClC(Cl)C(=O)NNC(=O)C1=CC=CC=C1", 
	 "Tm": 458.15, 
	 "num_atms": 23, 
	 "gaussian": { 
		 "optdone": 1, 
		 "sigma_profile": "yes", 
		 "theory": "DFT", 
		 "functional": "B3LYP", 
		 "basiset": "6-31G**", 
		 "properties": { 
			 "R2extent": 7569.5536, 
			 "electric_dipole_moment_norm": 3.31468051251, 
			 "electric_quadrupole_moment_norm": 17.0625111754, 
			 "total_energy": -1528.08999515, 
			 "HOMO_LUMO_gap": 0.20576, 
			 "cosmo_polarized_energy": -18.41, 
			 "cosmo_cavitation_energy": 31.97, 
			 "cosmo_dispersion_energy": -22.36, 
			 "cosmo_repulsion_energy": 1.78, 
			 "cosmo_total_nonelectrostatic_energy": 11.39, 
			 "SMD_solvation_energy": 6.78 
		},
		"coords": [
			{
				"x": 3.924137594,
				"y": -3.4385793381,
				"z": 3.1212650132,
				"element": "Cl" 
			},
			{
				"x": 2.3610061484,
				"y": -2.5249728712,
				"z": 3.1674919629,
				"element": "C" 
			},
			{
				"x": 1.6631942891,
				"y": -2.4856061095,
				"z": 4.8007725824,
				"element": "Cl" 
			},
			{
				"x": 2.6342925314,
				"y": -1.0949488225,
				"z": 2.6519949441,
				"element": "C" 
			},
			{
				"x": 2.8798982711,
				"y": -0.1527901112,
				"z": 3.3729786451,
				"element": "O" 
			},
			{
				"x": 2.5881132059,
				"y": -0.9680092393,
				"z": 1.2813866863,
				"element": "N" 
			},
			{
				"x": 2.4589548863,
				"y": -2.0427420975,
				"z": 0.4151368972,
				"element": "N" 
			},
			{
				"x": 1.5600948514,
				"y": -2.042553055,
				"z": -0.6649963425,
				"element": "C" 
			},
			{
				"x": 1.846535642,
				"y": -2.7249725253,
				"z": -1.6362328063,
				"element": "O" 
			},
			{
				"x": 0.2971759979,
				"y": -1.246242602,
				"z": -0.5898615555,
				"element": "C" 
			},
			{
				"x": -0.3720114777,
				"y": -0.9211075313,
				"z": 0.6001345592,
				"element": "C" 
			},
			{
				"x": -1.5812718282,
				"y": -0.2284501223,
				"z": 0.5562887265,
				"element": "C" 
			},
			{
				"x": -2.1271197751,
				"y": 0.1557801655,
				"z": -0.6699571922,
				"element": "C" 
			},
			{
				"x": -1.4703636502,
				"y": -0.1713571454,
				"z": -1.8589751631,
				"element": "C" 
			},
			{
				"x": -0.2718936782,
				"y": -0.8780730488,
				"z": -1.8196005214,
				"element": "C" 
			},
			{
				"x": 1.6798126726,
				"y": -3.0707775919,
				"z": 2.520165666,
				"element": "H" 
			},
			{
				"x": 2.9080021605,
				"y": -0.074774667,
				"z": 0.9186826798,
				"element": "H" 
			},
			{
				"x": 3.3262970782,
				"y": -2.5151917027,
				"z": 0.1690072885,
				"element": "H" 
			},
			{
				"x": 0.0303269337,
				"y": -1.2182663964,
				"z": 1.5602453832,
				"element": "H" 
			},
			{
				"x": -2.0965285398,
				"y": 0.0099646358,
				"z": 1.4817164402,
				"element": "H" 
			},
			{
				"x": -3.0648406727,
				"y": 0.7030719574,
				"z": -0.6987590472,
				"element": "H" 
			},
			{
				"x": -1.896092673,
				"y": 0.1180383971,
				"z": -2.8150190288,
				"element": "H" 
			},
			{
				"x": 0.2406800323,
				"y": -1.1620401784,
				"z": -2.7322658177,
				"element": "H" 
			}
		],
		 "valence_orbital": [ 
			{
				"type": "occ",
				"energy": -0.29612,
				"method": "rhf"
			},
			{
				"type": "occ",
				"energy": -0.28678,
				"method": "rhf"
			},
			{
				"type": "occ",
				"energy": -0.27803,
				"method": "rhf"
			},
			{
				"type": "occ",
				"energy": -0.27054,
				"method": "rhf"
			},
			{
				"type": "occ",
				"energy": -0.26692,
				"method": "rhf"
			},
			{
				"type": "unocc",
				"energy": -0.06116,
				"method": "rhf"
			},
			{
				"type": "unocc",
				"energy": -0.04752,
				"method": "rhf"
			},
			{
				"type": "unocc",
				"energy": -0.02056,
				"method": "rhf"
			},
			{
				"type": "unocc",
				"energy": -0.00961,
				"method": "rhf"
			},
			{
				"type": "unocc",
				"energy": 0.02743,
				"method": "rhf"
			}
		],
		"cosmo_sigma_profile": { 
			"-0.025": 0.0,
			"-0.024": 0.0,
			"-0.023": 0.0,
			"-0.022": 0.0,
			"-0.021": 0.0,
			"-0.02": 0.0,
			"-0.019": 0.0,
			"-0.018": 0.0,
			"-0.017": 0.0669799784383,
			"-0.016": 1.26963024043,
			"-0.015": 1.40623540454,
			"-0.014": 1.73462278804,
			"-0.013": 2.32861867811,
			"-0.012": 1.74376413246,
			"-0.011": 4.14291634838,
			"-0.01": 4.87741349028,
			"-0.009": 4.86645835658,
			"-0.008": 3.81645468475,
			"-0.007": 6.22452146194,
			"-0.006": 12.4456581294,
			"-0.005": 13.842195795,
			"-0.004": 14.2281539246,
			"-0.003": 13.4584960255,
			"-0.002": 14.5833154984,
			"-0.001": 14.4343392854,
			"0.0": 15.1422907124,
			"0.001": 17.3267147141,
			"0.002": 19.7074879873,
			"0.003": 25.724884273,
			"0.004": 26.803716236,
			"0.005": 5.01734402862,
			"0.006": 2.65634646143,
			"0.007": 3.22778351255,
			"0.008": 3.13406902097,
			"0.009": 3.95646065071,
			"0.01": 4.26561167212,
			"0.011": 7.92325144608,
			"0.012": 8.27674369872,
			"0.013": 1.43655554864,
			"0.014": 0.0,
			"0.015": 0.0,
			"0.016": 0.0,
			"0.017": 0.0,
			"0.018": 0.0,
			"0.019": 0.0,
			"0.02": 0.0,
			"0.021": 0.0,
			"0.022": 0.0,
			"0.023": 0.0,
			"0.024": 0.0,
			"0.025": 0.0
		}
	}
}
