{
	 "smiles": "OC(=O)C1=CC(Cl)=C(Br)C=C1", 
	 "Tm": 495.15, 
	 "num_atms": 15, 
	 "gaussian": { 
		 "optdone": 1, 
		 "sigma_profile": "yes", 
		 "theory": "DFT", 
		 "functional": "B3LYP", 
		 "basiset": "6-31G**", 
		 "properties": { 
			 "R2extent": 4291.7293, 
			 "electric_dipole_moment_norm": 4.05822694905, 
			 "electric_quadrupole_moment_norm": 14.9010686436, 
			 "total_energy": -3451.20098201, 
			 "HOMO_LUMO_gap": 0.19522, 
			 "cosmo_polarized_energy": -13.97, 
			 "cosmo_cavitation_energy": 24.12, 
			 "cosmo_dispersion_energy": -18.41, 
			 "cosmo_repulsion_energy": 1.47, 
			 "cosmo_total_nonelectrostatic_energy": 7.18, 
			 "SMD_solvation_energy": 4.0 
		},
		"coords": [
			{
				"x": -2.2918621913,
				"y": -0.045081929,
				"z": 2.4427045055,
				"element": "O" 
			},
			{
				"x": -1.3362209535,
				"y": -0.8702244429,
				"z": 1.9407317589,
				"element": "C" 
			},
			{
				"x": -0.7801499128,
				"y": -1.6648371001,
				"z": 2.6598543886,
				"element": "O" 
			},
			{
				"x": -1.027894329,
				"y": -0.7352785789,
				"z": 0.4773470527,
				"element": "C" 
			},
			{
				"x": 0.1934094528,
				"y": -1.2512033869,
				"z": 0.033221366,
				"element": "C" 
			},
			{
				"x": 0.5511074714,
				"y": -1.1687392071,
				"z": -1.3104323056,
				"element": "C" 
			},
			{
				"x": 2.0955927839,
				"y": -1.8106522421,
				"z": -1.8022801436,
				"element": "Cl" 
			},
			{
				"x": -0.3289863571,
				"y": -0.580172659,
				"z": -2.2320641753,
				"element": "C" 
			},
			{
				"x": 0.097147684,
				"y": -0.4404064923,
				"z": -4.074011375,
				"element": "Br" 
			},
			{
				"x": -1.5598808872,
				"y": -0.0866848307,
				"z": -1.7935985831,
				"element": "C" 
			},
			{
				"x": -1.908429732,
				"y": -0.160973894,
				"z": -0.4486020144,
				"element": "C" 
			},
			{
				"x": -2.5163589045,
				"y": 0.6444604084,
				"z": 1.8029111731,
				"element": "H" 
			},
			{
				"x": 0.8591038079,
				"y": -1.7172246968,
				"z": 0.7502155493,
				"element": "H" 
			},
			{
				"x": -2.2412164561,
				"y": 0.3480315091,
				"z": -2.5155502706,
				"element": "H" 
			},
			{
				"x": -2.8887614765,
				"y": 0.1972875423,
				"z": -0.1464469267,
				"element": "H" 
			}
		],
		 "valence_orbital": [ 
			{
				"type": "occ",
				"energy": -0.32576,
				"method": "rhf"
			},
			{
				"type": "occ",
				"energy": -0.3028,
				"method": "rhf"
			},
			{
				"type": "occ",
				"energy": -0.28844,
				"method": "rhf"
			},
			{
				"type": "occ",
				"energy": -0.27853,
				"method": "rhf"
			},
			{
				"type": "occ",
				"energy": -0.26631,
				"method": "rhf"
			},
			{
				"type": "unocc",
				"energy": -0.07109,
				"method": "rhf"
			},
			{
				"type": "unocc",
				"energy": -0.04507,
				"method": "rhf"
			},
			{
				"type": "unocc",
				"energy": -0.02592,
				"method": "rhf"
			},
			{
				"type": "unocc",
				"energy": 0.02754,
				"method": "rhf"
			},
			{
				"type": "unocc",
				"energy": 0.03862,
				"method": "rhf"
			}
		],
		"cosmo_sigma_profile": { 
			"-0.025": 0.0,
			"-0.024": 0.0,
			"-0.023": 0.0,
			"-0.022": 0.0,
			"-0.021": 0.0,
			"-0.02": 0.0,
			"-0.019": 0.743332755499,
			"-0.018": 0.893059526212,
			"-0.017": 0.930178601011,
			"-0.016": 1.38959526253,
			"-0.015": 1.26600702676,
			"-0.014": 1.06957601299,
			"-0.013": 0.838292419425,
			"-0.012": 1.24685028306,
			"-0.011": 1.25173253879,
			"-0.01": 1.4370805557,
			"-0.009": 2.37423999624,
			"-0.008": 4.5218471998,
			"-0.007": 5.46255002083,
			"-0.006": 5.18774829725,
			"-0.005": 6.77792896293,
			"-0.004": 8.06009231252,
			"-0.003": 9.72364518208,
			"-0.002": 11.4875557708,
			"-0.001": 18.4251079423,
			"0.0": 24.6968959341,
			"0.001": 16.387675241,
			"0.002": 13.7987424636,
			"0.003": 18.8035290072,
			"0.004": 12.6039754801,
			"0.005": 5.41044955898,
			"0.006": 1.72692914271,
			"0.007": 2.6419060298,
			"0.008": 2.92167688055,
			"0.009": 3.35205304706,
			"0.01": 5.474619902,
			"0.011": 5.32834360234,
			"0.012": 3.00969397598,
			"0.013": 0.538502618822,
			"0.014": 0.0,
			"0.015": 0.0,
			"0.016": 0.0,
			"0.017": 0.0,
			"0.018": 0.0,
			"0.019": 0.0,
			"0.02": 0.0,
			"0.021": 0.0,
			"0.022": 0.0,
			"0.023": 0.0,
			"0.024": 0.0,
			"0.025": 0.0
		}
	}
}
