{
	 "smiles": "COC(=O)C1=C(C)NC(C)=C(C1C1=CC(=CC=C1)[N+]([O-])=O)C(=O)OCCN(C)CC1=CC=CC=C1", 
	 "Tm": 410.15, 
	 "num_atms": 64, 
	 "gaussian": { 
		 "optdone": 1, 
		 "sigma_profile": "yes", 
		 "theory": "DFT", 
		 "functional": "B3LYP", 
		 "basiset": "6-31G**", 
		 "properties": { 
			 "R2extent": 16608.3502, 
			 "electric_dipole_moment_norm": 5.1258190009, 
			 "electric_quadrupole_moment_norm": 39.1541827382, 
			 "total_energy": -1623.75741956, 
			 "HOMO_LUMO_gap": 0.13274, 
			 "cosmo_polarized_energy": -23.97, 
			 "cosmo_cavitation_energy": 66.64, 
			 "cosmo_dispersion_energy": -39.95, 
			 "cosmo_repulsion_energy": 2.96, 
			 "cosmo_total_nonelectrostatic_energy": 29.65, 
			 "SMD_solvation_energy": 15.09 
		},
		"coords": [
			{
				"x": -1.5180928918,
				"y": 2.2559561478,
				"z": 2.2521487074,
				"element": "C" 
			},
			{
				"x": -1.0624259356,
				"y": 1.0442086361,
				"z": 1.6329958489,
				"element": "O" 
			},
			{
				"x": -1.801890823,
				"y": -0.0643383687,
				"z": 1.9233652421,
				"element": "C" 
			},
			{
				"x": -2.8067368236,
				"y": 0.0002807699,
				"z": 2.6155872903,
				"element": "O" 
			},
			{
				"x": -1.2312520347,
				"y": -1.2746198573,
				"z": 1.3139370909,
				"element": "C" 
			},
			{
				"x": -1.8503948536,
				"y": -2.4766987248,
				"z": 1.4912267581,
				"element": "C" 
			},
			{
				"x": -3.0884352235,
				"y": -2.7387793823,
				"z": 2.3085051816,
				"element": "C" 
			},
			{
				"x": -1.3377898377,
				"y": -3.5939710679,
				"z": 0.8530812058,
				"element": "N" 
			},
			{
				"x": -0.3860684011,
				"y": -3.5459337919,
				"z": -0.1528378579,
				"element": "C" 
			},
			{
				"x": -0.2144698795,
				"y": -4.8352224654,
				"z": -0.9129636618,
				"element": "C" 
			},
			{
				"x": 0.2652787424,
				"y": -2.3720869468,
				"z": -0.3856616046,
				"element": "C" 
			},
			{
				"x": 0.0867905661,
				"y": -1.1762834655,
				"z": 0.5523621124,
				"element": "C" 
			},
			{
				"x": 1.2888136772,
				"y": -1.0430852958,
				"z": 1.5025501008,
				"element": "C" 
			},
			{
				"x": 1.4124314322,
				"y": -1.8794917135,
				"z": 2.6156177261,
				"element": "C" 
			},
			{
				"x": 2.5193672593,
				"y": -1.7532752952,
				"z": 3.4510591196,
				"element": "C" 
			},
			{
				"x": 3.5222688695,
				"y": -0.8121604527,
				"z": 3.224731328,
				"element": "C" 
			},
			{
				"x": 3.3961362131,
				"y": 0.0180432601,
				"z": 2.1140852053,
				"element": "C" 
			},
			{
				"x": 2.2948772604,
				"y": -0.0957510183,
				"z": 1.2605322936,
				"element": "C" 
			},
			{
				"x": 2.6315551326,
				"y": -2.6445670416,
				"z": 4.6163734285,
				"element": "N" 
			},
			{
				"x": 3.6139732714,
				"y": -2.5123080919,
				"z": 5.3468409403,
				"element": "O" 
			},
			{
				"x": 1.7379150526,
				"y": -3.4733799403,
				"z": 4.7952120714,
				"element": "O" 
			},
			{
				"x": 1.1864127143,
				"y": -2.2623241038,
				"z": -1.5274803598,
				"element": "C" 
			},
			{
				"x": 1.5317730635,
				"y": -3.1660879468,
				"z": -2.2745934131,
				"element": "O" 
			},
			{
				"x": 1.6261757968,
				"y": -0.9835939581,
				"z": -1.6837397519,
				"element": "O" 
			},
			{
				"x": 2.5579883786,
				"y": -0.7462157387,
				"z": -2.7505223837,
				"element": "C" 
			},
			{
				"x": 2.5083081576,
				"y": 0.7297878328,
				"z": -3.1175760547,
				"element": "C" 
			},
			{
				"x": 2.8710578989,
				"y": 1.6449819012,
				"z": -2.0321005993,
				"element": "N" 
			},
			{
				"x": 4.2949522102,
				"y": 1.5899910894,
				"z": -1.7154241879,
				"element": "C" 
			},
			{
				"x": 2.4614842357,
				"y": 3.0244640066,
				"z": -2.3288688209,
				"element": "C" 
			},
			{
				"x": 0.9595779329,
				"y": 3.211375869,
				"z": -2.4341290786,
				"element": "C" 
			},
			{
				"x": 0.4073635687,
				"y": 3.9294636504,
				"z": -3.500967102,
				"element": "C" 
			},
			{
				"x": -0.9714846041,
				"y": 4.1372474098,
				"z": -3.5880319074,
				"element": "C" 
			},
			{
				"x": -1.818829139,
				"y": 3.6151116384,
				"z": -2.610901184,
				"element": "C" 
			},
			{
				"x": -1.2782612467,
				"y": 2.8906617057,
				"z": -1.5449336609,
				"element": "C" 
			},
			{
				"x": 0.0994463017,
				"y": 2.6957517907,
				"z": -1.4536784829,
				"element": "C" 
			},
			{
				"x": -0.8579389534,
				"y": 3.0408775813,
				"z": 1.8833354587,
				"element": "H" 
			},
			{
				"x": -2.5552642513,
				"y": 2.4667349444,
				"z": 1.9803260259,
				"element": "H" 
			},
			{
				"x": -1.4519530173,
				"y": 2.1786074023,
				"z": 3.3406523714,
				"element": "H" 
			},
			{
				"x": -3.95485227,
				"y": -2.2317617302,
				"z": 1.8759419933,
				"element": "H" 
			},
			{
				"x": -3.2976712525,
				"y": -3.8124237807,
				"z": 2.3596847568,
				"element": "H" 
			},
			{
				"x": -2.9820110767,
				"y": -2.3447012089,
				"z": 3.3197233667,
				"element": "H" 
			},
			{
				"x": -1.8209866351,
				"y": -4.4681898042,
				"z": 0.9917336881,
				"element": "H" 
			},
			{
				"x": 0.832121334,
				"y": -5.1417336337,
				"z": -0.9321544255,
				"element": "H" 
			},
			{
				"x": -0.5131819421,
				"y": -4.7153230985,
				"z": -1.9574248764,
				"element": "H" 
			},
			{
				"x": -0.8155321991,
				"y": -5.6326634047,
				"z": -0.4634620279,
				"element": "H" 
			},
			{
				"x": 0.0685988122,
				"y": -0.2704799,
				"z": -0.0546078981,
				"element": "H" 
			},
			{
				"x": 0.6628996675,
				"y": -2.6241145097,
				"z": 2.8514348416,
				"element": "H" 
			},
			{
				"x": 4.3617258142,
				"y": -0.7479318023,
				"z": 3.9051624058,
				"element": "H" 
			},
			{
				"x": 4.1610582815,
				"y": 0.7618958808,
				"z": 1.9118283455,
				"element": "H" 
			},
			{
				"x": 2.2220685693,
				"y": 0.5441379282,
				"z": 0.3855264246,
				"element": "H" 
			},
			{
				"x": 3.5533289847,
				"y": -1.069770375,
				"z": -2.4262868646,
				"element": "H" 
			},
			{
				"x": 2.2862792055,
				"y": -1.3550511781,
				"z": -3.6170880009,
				"element": "H" 
			},
			{
				"x": 1.4860257388,
				"y": 0.9635763404,
				"z": -3.4261852764,
				"element": "H" 
			},
			{
				"x": 3.1567707269,
				"y": 0.8741664724,
				"z": -4.0053702237,
				"element": "H" 
			},
			{
				"x": 4.5131573844,
				"y": 2.2732022529,
				"z": -0.8887022331,
				"element": "H" 
			},
			{
				"x": 4.9401204373,
				"y": 1.8721794117,
				"z": -2.5695392553,
				"element": "H" 
			},
			{
				"x": 4.5778568078,
				"y": 0.5838210164,
				"z": -1.3957953511,
				"element": "H" 
			},
			{
				"x": 2.93861739,
				"y": 3.4015563148,
				"z": -3.2545734267,
				"element": "H" 
			},
			{
				"x": 2.8446609446,
				"y": 3.650775694,
				"z": -1.5126021975,
				"element": "H" 
			},
			{
				"x": 1.0624085301,
				"y": 4.3285309701,
				"z": -4.2720197512,
				"element": "H" 
			},
			{
				"x": -1.3812367301,
				"y": 4.6982108974,
				"z": -4.4233744145,
				"element": "H" 
			},
			{
				"x": -2.8922820181,
				"y": 3.7668138044,
				"z": -2.6803199356,
				"element": "H" 
			},
			{
				"x": -1.9281318772,
				"y": 2.4685914777,
				"z": -0.7842279094,
				"element": "H" 
			},
			{
				"x": 0.5115275525,
				"y": 2.1307149959,
				"z": -0.6240171501,
				"element": "H" 
			}
		],
		 "valence_orbital": [ 
			{
				"type": "occ",
				"energy": -0.25148,
				"method": "rhf"
			},
			{
				"type": "occ",
				"energy": -0.25105,
				"method": "rhf"
			},
			{
				"type": "occ",
				"energy": -0.24644,
				"method": "rhf"
			},
			{
				"type": "occ",
				"energy": -0.22687,
				"method": "rhf"
			},
			{
				"type": "occ",
				"energy": -0.21102,
				"method": "rhf"
			},
			{
				"type": "unocc",
				"energy": -0.07828,
				"method": "rhf"
			},
			{
				"type": "unocc",
				"energy": -0.05414,
				"method": "rhf"
			},
			{
				"type": "unocc",
				"energy": -0.01263,
				"method": "rhf"
			},
			{
				"type": "unocc",
				"energy": -0.00731,
				"method": "rhf"
			},
			{
				"type": "unocc",
				"energy": -0.00219,
				"method": "rhf"
			}
		],
		"cosmo_sigma_profile": { 
			"-0.025": 0.0,
			"-0.024": 0.0,
			"-0.023": 0.0,
			"-0.022": 0.0,
			"-0.021": 0.0,
			"-0.02": 0.0,
			"-0.019": 0.0,
			"-0.018": 0.0,
			"-0.017": 0.0,
			"-0.016": 0.396462472315,
			"-0.015": 1.56750229873,
			"-0.014": 1.25823635622,
			"-0.013": 1.24518950955,
			"-0.012": 2.12728563817,
			"-0.011": 1.29204119322,
			"-0.01": 0.994234377395,
			"-0.009": 1.81874586079,
			"-0.008": 1.40803538941,
			"-0.007": 4.37402647109,
			"-0.006": 11.0871684473,
			"-0.005": 30.7031776502,
			"-0.004": 46.0626232196,
			"-0.003": 54.587072313,
			"-0.002": 59.1972638297,
			"-0.001": 62.3534876657,
			"0.0": 47.7817491798,
			"0.001": 38.0807800439,
			"0.002": 35.6530753645,
			"0.003": 24.2600502097,
			"0.004": 17.5028969062,
			"0.005": 16.3647865745,
			"0.006": 15.7303343569,
			"0.007": 11.0914625411,
			"0.008": 12.591132505,
			"0.009": 8.08831729513,
			"0.01": 6.03515278848,
			"0.011": 3.10824090957,
			"0.012": 5.23825763044,
			"0.013": 4.89272017244,
			"0.014": 0.194474714742,
			"0.015": 0.0,
			"0.016": 0.0,
			"0.017": 0.0,
			"0.018": 0.0,
			"0.019": 0.0,
			"0.02": 0.0,
			"0.021": 0.0,
			"0.022": 0.0,
			"0.023": 0.0,
			"0.024": 0.0,
			"0.025": 0.0
		}
	}
}
