{
	 "smiles": "CCCCCNC1=NCC(S1)C1=CC=CC=C1", 
	 "Tm": 340.15, 
	 "num_atms": 37, 
	 "gaussian": { 
		 "optdone": 1, 
		 "sigma_profile": "yes", 
		 "theory": "DFT", 
		 "functional": "B3LYP", 
		 "basiset": "6-31G**", 
		 "properties": { 
			 "R2extent": 7481.2547, 
			 "electric_dipole_moment_norm": 0.905982566057, 
			 "electric_quadrupole_moment_norm": 15.8660287451, 
			 "total_energy": -1053.24575897, 
			 "HOMO_LUMO_gap": 0.19454, 
			 "cosmo_polarized_energy": -9.82, 
			 "cosmo_cavitation_energy": 40.08, 
			 "cosmo_dispersion_energy": -28.61, 
			 "cosmo_repulsion_energy": 2.23, 
			 "cosmo_total_nonelectrostatic_energy": 13.7, 
			 "SMD_solvation_energy": 2.14 
		},
		"coords": [
			{
				"x": 4.6049730595,
				"y": 0.3473988404,
				"z": 2.3928272489,
				"element": "C" 
			},
			{
				"x": 3.9661018682,
				"y": -0.5367827602,
				"z": 1.3151507688,
				"element": "C" 
			},
			{
				"x": 4.4549986298,
				"y": -0.2534061413,
				"z": -0.115879594,
				"element": "C" 
			},
			{
				"x": 4.1573771948,
				"y": 1.1564791023,
				"z": -0.6543972337,
				"element": "C" 
			},
			{
				"x": 2.6683888803,
				"y": 1.5045277776,
				"z": -0.7773624552,
				"element": "C" 
			},
			{
				"x": 1.989845037,
				"y": 0.6055351953,
				"z": -1.7024951204,
				"element": "N" 
			},
			{
				"x": 0.6401047076,
				"y": 0.3831377829,
				"z": -1.7388052167,
				"element": "C" 
			},
			{
				"x": 0.0414819245,
				"y": -0.1631521099,
				"z": -2.7288550526,
				"element": "N" 
			},
			{
				"x": -1.3920162212,
				"y": -0.24482013,
				"z": -2.5259246364,
				"element": "C" 
			},
			{
				"x": -1.7400847372,
				"y": -0.1799467583,
				"z": -1.0087024149,
				"element": "C" 
			},
			{
				"x": -0.358783723,
				"y": 0.8378742952,
				"z": -0.2937285609,
				"element": "S" 
			},
			{
				"x": -3.1215737105,
				"y": 0.3436526198,
				"z": -0.6933927805,
				"element": "C" 
			},
			{
				"x": -3.5096607673,
				"y": 1.6526640733,
				"z": -1.0190625993,
				"element": "C" 
			},
			{
				"x": -4.806020906,
				"y": 2.0941893142,
				"z": -0.7616636963,
				"element": "C" 
			},
			{
				"x": -5.7395035168,
				"y": 1.2362409219,
				"z": -0.1734847951,
				"element": "C" 
			},
			{
				"x": -5.3644078514,
				"y": -0.0653613055,
				"z": 0.1579410535,
				"element": "C" 
			},
			{
				"x": -4.0639680025,
				"y": -0.5048042248,
				"z": -0.0983460633,
				"element": "C" 
			},
			{
				"x": 4.2693207728,
				"y": 0.0529936796,
				"z": 3.3925015507,
				"element": "H" 
			},
			{
				"x": 5.6983677221,
				"y": 0.2678981402,
				"z": 2.3727927022,
				"element": "H" 
			},
			{
				"x": 4.3496070601,
				"y": 1.4047727496,
				"z": 2.2638590341,
				"element": "H" 
			},
			{
				"x": 2.8736288716,
				"y": -0.4436448558,
				"z": 1.3611688503,
				"element": "H" 
			},
			{
				"x": 4.1810859856,
				"y": -1.5881574624,
				"z": 1.5440183732,
				"element": "H" 
			},
			{
				"x": 5.5407324015,
				"y": -0.4137141577,
				"z": -0.1586752144,
				"element": "H" 
			},
			{
				"x": 4.0066537638,
				"y": -0.9899414543,
				"z": -0.7928302879,
				"element": "H" 
			},
			{
				"x": 4.6267403161,
				"y": 1.267172079,
				"z": -1.6421459981,
				"element": "H" 
			},
			{
				"x": 4.6256534985,
				"y": 1.9174341794,
				"z": -0.0188885169,
				"element": "H" 
			},
			{
				"x": 2.180698136,
				"y": 1.4143028422,
				"z": 0.198202515,
				"element": "H" 
			},
			{
				"x": 2.5651785662,
				"y": 2.5560037667,
				"z": -1.0880305624,
				"element": "H" 
			},
			{
				"x": 2.419849378,
				"y": 0.4857212464,
				"z": -2.6119983483,
				"element": "H" 
			},
			{
				"x": -1.7903496535,
				"y": -1.1760540856,
				"z": -2.9453690326,
				"element": "H" 
			},
			{
				"x": -1.8892566313,
				"y": 0.580661592,
				"z": -3.0566115931,
				"element": "H" 
			},
			{
				"x": -1.6304583341,
				"y": -1.178145277,
				"z": -0.5747134157,
				"element": "H" 
			},
			{
				"x": -2.7858464495,
				"y": 2.329994702,
				"z": -1.4627092757,
				"element": "H" 
			},
			{
				"x": -5.088296303,
				"y": 3.1116086638,
				"z": -1.0174807349,
				"element": "H" 
			},
			{
				"x": -6.7491157204,
				"y": 1.5827721608,
				"z": 0.0276050492,
				"element": "H" 
			},
			{
				"x": -6.0803149868,
				"y": -0.739742579,
				"z": 0.6192432859,
				"element": "H" 
			},
			{
				"x": -3.7765302597,
				"y": -1.5197624229,
				"z": 0.1651427677,
				"element": "H" 
			}
		],
		 "valence_orbital": [ 
			{
				"type": "occ",
				"energy": -0.26034,
				"method": "rhf"
			},
			{
				"type": "occ",
				"energy": -0.25119,
				"method": "rhf"
			},
			{
				"type": "occ",
				"energy": -0.2423,
				"method": "rhf"
			},
			{
				"type": "occ",
				"energy": -0.23478,
				"method": "rhf"
			},
			{
				"type": "occ",
				"energy": -0.20869,
				"method": "rhf"
			},
			{
				"type": "unocc",
				"energy": -0.01415,
				"method": "rhf"
			},
			{
				"type": "unocc",
				"energy": -0.00189,
				"method": "rhf"
			},
			{
				"type": "unocc",
				"energy": 0.02382,
				"method": "rhf"
			},
			{
				"type": "unocc",
				"energy": 0.03854,
				"method": "rhf"
			},
			{
				"type": "unocc",
				"energy": 0.07234,
				"method": "rhf"
			}
		],
		"cosmo_sigma_profile": { 
			"-0.025": 0.0,
			"-0.024": 0.0,
			"-0.023": 0.0,
			"-0.022": 0.0,
			"-0.021": 0.0,
			"-0.02": 0.0,
			"-0.019": 0.0,
			"-0.018": 0.0,
			"-0.017": 0.0,
			"-0.016": 0.0,
			"-0.015": 0.0,
			"-0.014": 0.0,
			"-0.013": 0.47269375674,
			"-0.012": 0.796406444925,
			"-0.011": 1.11923905767,
			"-0.01": 1.03482126564,
			"-0.009": 1.08576127844,
			"-0.008": 1.07768238955,
			"-0.007": 1.31870982868,
			"-0.006": 8.35057527714,
			"-0.005": 15.0462484882,
			"-0.004": 22.3500304403,
			"-0.003": 32.1700811496,
			"-0.002": 35.3860426446,
			"-0.001": 35.508988119,
			"0.0": 36.5295978144,
			"0.001": 32.0187084474,
			"0.002": 20.3056856871,
			"0.003": 15.4189042594,
			"0.004": 15.567570141,
			"0.005": 13.7992865727,
			"0.006": 10.2462933791,
			"0.007": 4.55154008116,
			"0.008": 2.55039103185,
			"0.009": 1.61137647334,
			"0.01": 0.951545133226,
			"0.011": 1.49062359671,
			"0.012": 0.871899383593,
			"0.013": 1.10398047829,
			"0.014": 0.534448263183,
			"0.015": 1.25624135828,
			"0.016": 1.16959084463,
			"0.017": 0.468042706126,
			"0.018": 0.0,
			"0.019": 0.0,
			"0.02": 0.0,
			"0.021": 0.0,
			"0.022": 0.0,
			"0.023": 0.0,
			"0.024": 0.0,
			"0.025": 0.0
		}
	}
}
