{
	 "smiles": "CC1=CC2=CC=CC=C2OC1=O", 
	 "Tm": 364.15, 
	 "num_atms": 20, 
	 "gaussian": { 
		 "optdone": 1, 
		 "sigma_profile": "yes", 
		 "theory": "DFT", 
		 "functional": "B3LYP", 
		 "basiset": "6-31G**", 
		 "properties": { 
			 "R2extent": 2071.8351, 
			 "electric_dipole_moment_norm": 4.27606312044, 
			 "electric_quadrupole_moment_norm": 11.6690524311, 
			 "total_energy": -536.346618779, 
			 "HOMO_LUMO_gap": 0.17006, 
			 "cosmo_polarized_energy": -9.99, 
			 "cosmo_cavitation_energy": 24.16, 
			 "cosmo_dispersion_energy": -18.08, 
			 "cosmo_repulsion_energy": 1.42, 
			 "cosmo_total_nonelectrostatic_energy": 7.5, 
			 "SMD_solvation_energy": 5.26 
		},
		"coords": [
			{
				"x": 2.0471524244,
				"y": 1.4453923973,
				"z": -2.7621249097,
				"element": "C" 
			},
			{
				"x": 1.2646255476,
				"y": 0.7895238293,
				"z": -1.6619245161,
				"element": "C" 
			},
			{
				"x": -0.0344792748,
				"y": 1.0562795116,
				"z": -1.3812486867,
				"element": "C" 
			},
			{
				"x": -0.7309481549,
				"y": 0.390799359,
				"z": -0.3089892271,
				"element": "C" 
			},
			{
				"x": -2.0773675354,
				"y": 0.6292216849,
				"z": 0.0252644429,
				"element": "C" 
			},
			{
				"x": -2.6771475891,
				"y": -0.0542045224,
				"z": 1.0742874993,
				"element": "C" 
			},
			{
				"x": -1.9382907377,
				"y": -0.9924898129,
				"z": 1.8112775616,
				"element": "C" 
			},
			{
				"x": -0.606059155,
				"y": -1.2472880471,
				"z": 1.5020704856,
				"element": "C" 
			},
			{
				"x": -0.0123164806,
				"y": -0.5546455218,
				"z": 0.4452696444,
				"element": "C" 
			},
			{
				"x": 1.2964753386,
				"y": -0.8278748809,
				"z": 0.1676511946,
				"element": "O" 
			},
			{
				"x": 1.9956592342,
				"y": -0.2032541909,
				"z": -0.8589382399,
				"element": "C" 
			},
			{
				"x": 3.1532675681,
				"y": -0.5149062769,
				"z": -1.0243527028,
				"element": "O" 
			},
			{
				"x": 2.4269228882,
				"y": 0.6976989764,
				"z": -3.4664784583,
				"element": "H" 
			},
			{
				"x": 1.432052802,
				"y": 2.1658189435,
				"z": -3.3070745808,
				"element": "H" 
			},
			{
				"x": 2.925274236,
				"y": 1.9609162741,
				"z": -2.3589906878,
				"element": "H" 
			},
			{
				"x": -0.5780607749,
				"y": 1.7899393865,
				"z": -1.9731482182,
				"element": "H" 
			},
			{
				"x": -2.6400687831,
				"y": 1.35787924,
				"z": -0.5521368782,
				"element": "H" 
			},
			{
				"x": -3.7159018194,
				"y": 0.1363830014,
				"z": 1.3245725565,
				"element": "H" 
			},
			{
				"x": -2.4074813323,
				"y": -1.5269540863,
				"z": 2.631721676,
				"element": "H" 
			},
			{
				"x": -0.015208402,
				"y": -1.9676352646,
				"z": 2.0572920447,
				"element": "H" 
			}
		],
		 "valence_orbital": [ 
			{
				"type": "occ",
				"energy": -0.34083,
				"method": "rhf"
			},
			{
				"type": "occ",
				"energy": -0.31419,
				"method": "rhf"
			},
			{
				"type": "occ",
				"energy": -0.27268,
				"method": "rhf"
			},
			{
				"type": "occ",
				"energy": -0.25371,
				"method": "rhf"
			},
			{
				"type": "occ",
				"energy": -0.23278,
				"method": "rhf"
			},
			{
				"type": "unocc",
				"energy": -0.06272,
				"method": "rhf"
			},
			{
				"type": "unocc",
				"energy": -0.01134,
				"method": "rhf"
			},
			{
				"type": "unocc",
				"energy": 0.00274,
				"method": "rhf"
			},
			{
				"type": "unocc",
				"energy": 0.08367,
				"method": "rhf"
			},
			{
				"type": "unocc",
				"energy": 0.08484,
				"method": "rhf"
			}
		],
		"cosmo_sigma_profile": { 
			"-0.025": 0.0,
			"-0.024": 0.0,
			"-0.023": 0.0,
			"-0.022": 0.0,
			"-0.021": 0.0,
			"-0.02": 0.0,
			"-0.019": 0.0,
			"-0.018": 0.0,
			"-0.017": 0.0,
			"-0.016": 0.0,
			"-0.015": 0.0,
			"-0.014": 0.0,
			"-0.013": 0.0,
			"-0.012": 0.0,
			"-0.011": 0.0,
			"-0.01": 0.0,
			"-0.009": 0.0,
			"-0.008": 1.98666966315,
			"-0.007": 8.39255788336,
			"-0.006": 11.0064397708,
			"-0.005": 13.9156515479,
			"-0.004": 16.026494766,
			"-0.003": 14.5360410939,
			"-0.002": 15.5772488456,
			"-0.001": 17.3902661982,
			"0.0": 17.9045215131,
			"0.001": 17.0650744759,
			"0.002": 12.0727134116,
			"0.003": 12.8548820971,
			"0.004": 8.62332561518,
			"0.005": 2.55113028175,
			"0.006": 2.47788501889,
			"0.007": 1.88026003851,
			"0.008": 2.31381315404,
			"0.009": 2.44500915658,
			"0.01": 2.92733279511,
			"0.011": 3.25519705329,
			"0.012": 5.98764446623,
			"0.013": 2.41013211329,
			"0.014": 0.15012934562,
			"0.015": 0.0,
			"0.016": 0.0,
			"0.017": 0.0,
			"0.018": 0.0,
			"0.019": 0.0,
			"0.02": 0.0,
			"0.021": 0.0,
			"0.022": 0.0,
			"0.023": 0.0,
			"0.024": 0.0,
			"0.025": 0.0
		}
	}
}
