{
	 "smiles": "NC(=O)C1=NOC(=C1)C1=CC=CC=C1", 
	 "Tm": 476.15, 
	 "num_atms": 22, 
	 "gaussian": { 
		 "optdone": 1, 
		 "sigma_profile": "yes", 
		 "theory": "DFT", 
		 "functional": "B3LYP", 
		 "basiset": "6-31G**", 
		 "properties": { 
			 "R2extent": 4314.2426, 
			 "electric_dipole_moment_norm": 2.11877006303, 
			 "electric_quadrupole_moment_norm": 18.3552920595, 
			 "total_energy": -645.808080176, 
			 "HOMO_LUMO_gap": 0.17927, 
			 "cosmo_polarized_energy": -13.0, 
			 "cosmo_cavitation_energy": 27.53, 
			 "cosmo_dispersion_energy": -20.45, 
			 "cosmo_repulsion_energy": 1.6, 
			 "cosmo_total_nonelectrostatic_energy": 8.68, 
			 "SMD_solvation_energy": 5.42 
		},
		"coords": [
			{
				"x": -0.1933435674,
				"y": 0.9077418116,
				"z": -5.7051922713,
				"element": "N" 
			},
			{
				"x": -0.5586852848,
				"y": 1.4192756661,
				"z": -4.5004299203,
				"element": "C" 
			},
			{
				"x": -1.06389089,
				"y": 2.5220819774,
				"z": -4.3379569364,
				"element": "O" 
			},
			{
				"x": -0.2950005486,
				"y": 0.5147036332,
				"z": -3.334516705,
				"element": "C" 
			},
			{
				"x": 0.2479144885,
				"y": -0.675211935,
				"z": -3.4926594721,
				"element": "N" 
			},
			{
				"x": 0.3368482581,
				"y": -1.2123569655,
				"z": -2.2176631533,
				"element": "O" 
			},
			{
				"x": -0.1588227554,
				"y": -0.3256812365,
				"z": -1.31160888,
				"element": "C" 
			},
			{
				"x": -0.5767959563,
				"y": 0.7969835125,
				"z": -1.975120051,
				"element": "C" 
			},
			{
				"x": -0.1452881122,
				"y": -0.7254377395,
				"z": 0.0935976805,
				"element": "C" 
			},
			{
				"x": 0.3617166071,
				"y": -1.9777775235,
				"z": 0.4801484581,
				"element": "C" 
			},
			{
				"x": 0.3688010725,
				"y": -2.3464158026,
				"z": 1.8233987206,
				"element": "C" 
			},
			{
				"x": -0.1271579278,
				"y": -1.4760234289,
				"z": 2.7962993677,
				"element": "C" 
			},
			{
				"x": -0.6327159404,
				"y": -0.2293682729,
				"z": 2.4185718049,
				"element": "C" 
			},
			{
				"x": -0.64282749,
				"y": 0.1454443847,
				"z": 1.0780834639,
				"element": "C" 
			},
			{
				"x": -0.34320072,
				"y": 1.4649042817,
				"z": -6.5313464212,
				"element": "H" 
			},
			{
				"x": 0.2194497344,
				"y": -0.0101399479,
				"z": -5.7734464061,
				"element": "H" 
			},
			{
				"x": -1.0195342828,
				"y": 1.6995981727,
				"z": -1.5874736394,
				"element": "H" 
			},
			{
				"x": 0.7468787826,
				"y": -2.6537933373,
				"z": -0.2752180838,
				"element": "H" 
			},
			{
				"x": 0.7629990745,
				"y": -3.3166039566,
				"z": 2.1108657228,
				"element": "H" 
			},
			{
				"x": -0.1201841793,
				"y": -1.766483658,
				"z": 3.842669831,
				"element": "H" 
			},
			{
				"x": -1.0199615548,
				"y": 0.4523537455,
				"z": 3.1698825788,
				"element": "H" 
			},
			{
				"x": -1.0372988076,
				"y": 1.1157066189,
				"z": 0.7927143116,
				"element": "H" 
			}
		],
		 "valence_orbital": [ 
			{
				"type": "occ",
				"energy": -0.29974,
				"method": "rhf"
			},
			{
				"type": "occ",
				"energy": -0.27221,
				"method": "rhf"
			},
			{
				"type": "occ",
				"energy": -0.26489,
				"method": "rhf"
			},
			{
				"type": "occ",
				"energy": -0.26104,
				"method": "rhf"
			},
			{
				"type": "occ",
				"energy": -0.2377,
				"method": "rhf"
			},
			{
				"type": "unocc",
				"energy": -0.05843,
				"method": "rhf"
			},
			{
				"type": "unocc",
				"energy": -0.025,
				"method": "rhf"
			},
			{
				"type": "unocc",
				"energy": -0.01291,
				"method": "rhf"
			},
			{
				"type": "unocc",
				"energy": 0.05114,
				"method": "rhf"
			},
			{
				"type": "unocc",
				"energy": 0.0749,
				"method": "rhf"
			}
		],
		"cosmo_sigma_profile": { 
			"-0.025": 0.0,
			"-0.024": 0.0,
			"-0.023": 0.0,
			"-0.022": 0.0,
			"-0.021": 0.0,
			"-0.02": 0.0,
			"-0.019": 0.0,
			"-0.018": 0.0,
			"-0.017": 0.0,
			"-0.016": 0.0,
			"-0.015": 0.570703472982,
			"-0.014": 1.54717961994,
			"-0.013": 2.16093110097,
			"-0.012": 1.75180072297,
			"-0.011": 1.59283623184,
			"-0.01": 2.30186343995,
			"-0.009": 3.86496954224,
			"-0.008": 3.70360992622,
			"-0.007": 4.82021091831,
			"-0.006": 12.0275947328,
			"-0.005": 13.1418621495,
			"-0.004": 12.1607754243,
			"-0.003": 11.1610389283,
			"-0.002": 11.1979526328,
			"-0.001": 17.8071907264,
			"0.0": 20.8851107113,
			"0.001": 19.3829848276,
			"0.002": 14.7664165811,
			"0.003": 15.1733572801,
			"0.004": 15.4174649068,
			"0.005": 6.10796976041,
			"0.006": 4.57328726861,
			"0.007": 4.41144009879,
			"0.008": 2.98741265532,
			"0.009": 2.81081727898,
			"0.01": 2.67449063745,
			"0.011": 2.1669168048,
			"0.012": 3.34121719819,
			"0.013": 5.56473707443,
			"0.014": 1.30280707257,
			"0.015": 0.0,
			"0.016": 0.0,
			"0.017": 0.0,
			"0.018": 0.0,
			"0.019": 0.0,
			"0.02": 0.0,
			"0.021": 0.0,
			"0.022": 0.0,
			"0.023": 0.0,
			"0.024": 0.0,
			"0.025": 0.0
		}
	}
}
