{
	 "smiles": "CC1=CC(=NC2=CC(O)=NN12)C1=CC=CC=C1", 
	 "Tm": 505.15, 
	 "num_atms": 28, 
	 "gaussian": { 
		 "optdone": 1, 
		 "sigma_profile": "yes", 
		 "theory": "DFT", 
		 "functional": "B3LYP", 
		 "basiset": "6-31G**", 
		 "properties": { 
			 "R2extent": 5173.7292, 
			 "electric_dipole_moment_norm": 1.47993608646, 
			 "electric_quadrupole_moment_norm": 15.2502242718, 
			 "total_energy": -741.47818248, 
			 "HOMO_LUMO_gap": 0.15854, 
			 "cosmo_polarized_energy": -15.23, 
			 "cosmo_cavitation_energy": 32.36, 
			 "cosmo_dispersion_energy": -24.08, 
			 "cosmo_repulsion_energy": 1.84, 
			 "cosmo_total_nonelectrostatic_energy": 10.12, 
			 "SMD_solvation_energy": 3.92 
		},
		"coords": [
			{
				"x": -2.1503234698,
				"y": 0.9892220284,
				"z": 1.6836687802,
				"element": "C" 
			},
			{
				"x": -1.2339514377,
				"y": 0.516292834,
				"z": 0.6024753045,
				"element": "C" 
			},
			{
				"x": 0.136245791,
				"y": 0.6503249343,
				"z": 0.5877255149,
				"element": "C" 
			},
			{
				"x": 0.899715022,
				"y": 0.1609496862,
				"z": -0.5135427617,
				"element": "C" 
			},
			{
				"x": 0.3229733865,
				"y": -0.421319573,
				"z": -1.5618472759,
				"element": "N" 
			},
			{
				"x": -1.0117403528,
				"y": -0.5537692482,
				"z": -1.5529559755,
				"element": "C" 
			},
			{
				"x": -1.9205155547,
				"y": -1.1030659453,
				"z": -2.457325512,
				"element": "C" 
			},
			{
				"x": -3.1734330047,
				"y": -0.9281587304,
				"z": -1.8416685024,
				"element": "C" 
			},
			{
				"x": -4.3935684716,
				"y": -1.2865254898,
				"z": -2.2976618035,
				"element": "O" 
			},
			{
				"x": -3.1201700029,
				"y": -0.3250837317,
				"z": -0.6470377837,
				"element": "N" 
			},
			{
				"x": -1.7944124799,
				"y": -0.0985418488,
				"z": -0.475225774,
				"element": "N" 
			},
			{
				"x": 2.3791793014,
				"y": 0.2958472431,
				"z": -0.5483680521,
				"element": "C" 
			},
			{
				"x": 3.1325750229,
				"y": 0.5451407062,
				"z": 0.6107089521,
				"element": "C" 
			},
			{
				"x": 4.5199996877,
				"y": 0.6685298267,
				"z": 0.546460404,
				"element": "C" 
			},
			{
				"x": 5.1801647847,
				"y": 0.5462412931,
				"z": -0.6769742724,
				"element": "C" 
			},
			{
				"x": 4.4418701951,
				"y": 0.2909967856,
				"z": -1.8357295271,
				"element": "C" 
			},
			{
				"x": 3.057180328,
				"y": 0.1639032566,
				"z": -1.7726234608,
				"element": "C" 
			},
			{
				"x": -1.5829689676,
				"y": 1.4695722198,
				"z": 2.4825338411,
				"element": "H" 
			},
			{
				"x": -2.8845978177,
				"y": 1.6940769139,
				"z": 1.2805493452,
				"element": "H" 
			},
			{
				"x": -2.7206146325,
				"y": 0.1496716572,
				"z": 2.0942135665,
				"element": "H" 
			},
			{
				"x": 0.6116983723,
				"y": 1.1597232116,
				"z": 1.4150246579,
				"element": "H" 
			},
			{
				"x": -1.6882168602,
				"y": -1.5568227735,
				"z": -3.4081674459,
				"element": "H" 
			},
			{
				"x": -4.2865432107,
				"y": -1.7080828068,
				"z": -3.1591011895,
				"element": "H" 
			},
			{
				"x": 2.6433708998,
				"y": 0.6185238653,
				"z": 1.5766457985,
				"element": "H" 
			},
			{
				"x": 5.0853178231,
				"y": 0.8543408204,
				"z": 1.4552001452,
				"element": "H" 
			},
			{
				"x": 6.2607451361,
				"y": 0.6449354074,
				"z": -0.7268224002,
				"element": "H" 
			},
			{
				"x": 4.9477526561,
				"y": 0.1923629593,
				"z": -2.7920430374,
				"element": "H" 
			},
			{
				"x": 2.4752678561,
				"y": -0.0386855016,
				"z": -2.6645115361,
				"element": "H" 
			}
		],
		 "valence_orbital": [ 
			{
				"type": "occ",
				"energy": -0.26203,
				"method": "rhf"
			},
			{
				"type": "occ",
				"energy": -0.26069,
				"method": "rhf"
			},
			{
				"type": "occ",
				"energy": -0.25206,
				"method": "rhf"
			},
			{
				"type": "occ",
				"energy": -0.2226,
				"method": "rhf"
			},
			{
				"type": "occ",
				"energy": -0.21348,
				"method": "rhf"
			},
			{
				"type": "unocc",
				"energy": -0.05494,
				"method": "rhf"
			},
			{
				"type": "unocc",
				"energy": -0.01526,
				"method": "rhf"
			},
			{
				"type": "unocc",
				"energy": 0.00082,
				"method": "rhf"
			},
			{
				"type": "unocc",
				"energy": 0.02805,
				"method": "rhf"
			},
			{
				"type": "unocc",
				"energy": 0.066,
				"method": "rhf"
			}
		],
		"cosmo_sigma_profile": { 
			"-0.025": 0.0,
			"-0.024": 0.0,
			"-0.023": 0.0,
			"-0.022": 0.0,
			"-0.021": 0.0,
			"-0.02": 0.0,
			"-0.019": 0.473617506804,
			"-0.018": 0.91896350153,
			"-0.017": 1.27154990291,
			"-0.016": 1.11356146569,
			"-0.015": 0.713370791909,
			"-0.014": 1.03488592053,
			"-0.013": 0.369190466565,
			"-0.012": 0.872229959001,
			"-0.011": 1.27219688945,
			"-0.01": 1.27902833737,
			"-0.009": 1.03602406702,
			"-0.008": 3.83172606694,
			"-0.007": 6.64626161171,
			"-0.006": 12.4159948979,
			"-0.005": 16.574365057,
			"-0.004": 19.0351133962,
			"-0.003": 16.7332041314,
			"-0.002": 20.6046148948,
			"-0.001": 18.3648922351,
			"0.0": 15.6868371018,
			"0.001": 17.6560694222,
			"0.002": 18.8688171159,
			"0.003": 15.4634704087,
			"0.004": 17.5396541217,
			"0.005": 16.7598376098,
			"0.006": 5.82878842419,
			"0.007": 4.20207324127,
			"0.008": 3.638655562,
			"0.009": 4.37530946973,
			"0.01": 5.54465654038,
			"0.011": 5.02401135368,
			"0.012": 2.19337322141,
			"0.013": 1.03857280769,
			"0.014": 1.18829519792,
			"0.015": 0.205242113637,
			"0.016": 0.0,
			"0.017": 0.0,
			"0.018": 0.0,
			"0.019": 0.0,
			"0.02": 0.0,
			"0.021": 0.0,
			"0.022": 0.0,
			"0.023": 0.0,
			"0.024": 0.0,
			"0.025": 0.0
		}
	}
}
