{
	 "smiles": "OC(=O)C1=C(OCC(=O)N2CCCCC2)C=C(S1)C1=CC=CC=C1", 
	 "Tm": 438.15, 
	 "num_atms": 43, 
	 "gaussian": { 
		 "optdone": 1, 
		 "sigma_profile": "yes", 
		 "theory": "DFT", 
		 "functional": "B3LYP", 
		 "basiset": "6-31G**", 
		 "properties": { 
			 "R2extent": 13265.8737, 
			 "electric_dipole_moment_norm": 2.70071129334, 
			 "electric_quadrupole_moment_norm": 31.9290533789, 
			 "total_energy": -1451.20719808, 
			 "HOMO_LUMO_gap": 0.15792, 
			 "cosmo_polarized_energy": -19.4, 
			 "cosmo_cavitation_energy": 46.88, 
			 "cosmo_dispersion_energy": -33.97, 
			 "cosmo_repulsion_energy": 2.54, 
			 "cosmo_total_nonelectrostatic_energy": 15.45, 
			 "SMD_solvation_energy": 8.13 
		},
		"coords": [
			{
				"x": -1.8061080854,
				"y": -3.099076995,
				"z": -4.6353862952,
				"element": "O" 
			},
			{
				"x": -1.177073248,
				"y": -2.072913471,
				"z": -3.9962685379,
				"element": "C" 
			},
			{
				"x": -0.7413807187,
				"y": -1.1492009123,
				"z": -4.6534889548,
				"element": "O" 
			},
			{
				"x": -1.0866026997,
				"y": -2.1693595985,
				"z": -2.5313036981,
				"element": "C" 
			},
			{
				"x": -0.1800666626,
				"y": -1.5501720051,
				"z": -1.6780264502,
				"element": "C" 
			},
			{
				"x": 0.832415634,
				"y": -0.7194751142,
				"z": -2.038257905,
				"element": "O" 
			},
			{
				"x": 0.5097973824,
				"y": 0.5728376398,
				"z": -2.5431577214,
				"element": "C" 
			},
			{
				"x": 0.1126602668,
				"y": 1.5220190735,
				"z": -1.3992277946,
				"element": "C" 
			},
			{
				"x": 0.0525117152,
				"y": 1.1185054525,
				"z": -0.2418332952,
				"element": "O" 
			},
			{
				"x": -0.1633589945,
				"y": 2.8183563563,
				"z": -1.7479661349,
				"element": "N" 
			},
			{
				"x": -0.1442341718,
				"y": 3.3608303317,
				"z": -3.107352696,
				"element": "C" 
			},
			{
				"x": 0.7706385141,
				"y": 4.5923622511,
				"z": -3.1930122306,
				"element": "C" 
			},
			{
				"x": 0.384550352,
				"y": 5.6400545208,
				"z": -2.1384188414,
				"element": "C" 
			},
			{
				"x": 0.3471043695,
				"y": 5.013503548,
				"z": -0.7363298081,
				"element": "C" 
			},
			{
				"x": -0.5571459621,
				"y": 3.7748726434,
				"z": -0.7094092526,
				"element": "C" 
			},
			{
				"x": -0.3088846883,
				"y": -1.9628770725,
				"z": -0.3221862578,
				"element": "C" 
			},
			{
				"x": -1.3047360502,
				"y": -2.8846373565,
				"z": -0.1126598394,
				"element": "C" 
			},
			{
				"x": -2.1213314406,
				"y": -3.2555934504,
				"z": -1.6166887095,
				"element": "S" 
			},
			{
				"x": -1.7300863239,
				"y": -3.494979177,
				"z": 1.1529001206,
				"element": "C" 
			},
			{
				"x": -0.8162131751,
				"y": -3.609686295,
				"z": 2.2168727863,
				"element": "C" 
			},
			{
				"x": -1.2032038449,
				"y": -4.1802661174,
				"z": 3.4266004546,
				"element": "C" 
			},
			{
				"x": -2.5051005913,
				"y": -4.6567472678,
				"z": 3.5977613868,
				"element": "C" 
			},
			{
				"x": -3.4191554257,
				"y": -4.5542443597,
				"z": 2.5474364534,
				"element": "C" 
			},
			{
				"x": -3.0379683754,
				"y": -3.9767653986,
				"z": 1.3383324209,
				"element": "C" 
			},
			{
				"x": -1.92446866,
				"y": -3.8550142203,
				"z": -4.0412111383,
				"element": "H" 
			},
			{
				"x": 1.4247869911,
				"y": 0.9236262671,
				"z": -3.0297315635,
				"element": "H" 
			},
			{
				"x": -0.2667108387,
				"y": 0.4964637449,
				"z": -3.3086296553,
				"element": "H" 
			},
			{
				"x": 0.1757796144,
				"y": 2.5975913771,
				"z": -3.8162582186,
				"element": "H" 
			},
			{
				"x": -1.1698375331,
				"y": 3.646991561,
				"z": -3.3884443297,
				"element": "H" 
			},
			{
				"x": 0.7108095832,
				"y": 5.0155575503,
				"z": -4.2024965149,
				"element": "H" 
			},
			{
				"x": 1.8091077032,
				"y": 4.2735559875,
				"z": -3.0355440326,
				"element": "H" 
			},
			{
				"x": -0.6078345235,
				"y": 6.0466336754,
				"z": -2.3806355757,
				"element": "H" 
			},
			{
				"x": 1.0834766881,
				"y": 6.4834968107,
				"z": -2.1656619523,
				"element": "H" 
			},
			{
				"x": -0.0117162273,
				"y": 5.7398262656,
				"z": 0.0022401513,
				"element": "H" 
			},
			{
				"x": 1.3603169982,
				"y": 4.7195230737,
				"z": -0.4340578055,
				"element": "H" 
			},
			{
				"x": -1.6023038949,
				"y": 4.0741096079,
				"z": -0.8835441986,
				"element": "H" 
			},
			{
				"x": -0.508423617,
				"y": 3.252772543,
				"z": 0.2458509076,
				"element": "H" 
			},
			{
				"x": 0.2931053085,
				"y": -1.5154708362,
				"z": 0.4565135867,
				"element": "H" 
			},
			{
				"x": 0.2045673031,
				"y": -3.265833318,
				"z": 2.0844447269,
				"element": "H" 
			},
			{
				"x": -0.4826178139,
				"y": -4.2613063304,
				"z": 4.2351927443,
				"element": "H" 
			},
			{
				"x": -2.8038166726,
				"y": -5.1047141845,
				"z": 4.5407850689,
				"element": "H" 
			},
			{
				"x": -4.4355011262,
				"y": -4.9164364857,
				"z": 2.6716042271,
				"element": "H" 
			},
			{
				"x": -3.7668470585,
				"y": -3.8781203152,
				"z": 0.5388543722,
				"element": "H" 
			}
		],
		 "valence_orbital": [ 
			{
				"type": "occ",
				"energy": -0.26077,
				"method": "rhf"
			},
			{
				"type": "occ",
				"energy": -0.25743,
				"method": "rhf"
			},
			{
				"type": "occ",
				"energy": -0.23977,
				"method": "rhf"
			},
			{
				"type": "occ",
				"energy": -0.23662,
				"method": "rhf"
			},
			{
				"type": "occ",
				"energy": -0.22191,
				"method": "rhf"
			},
			{
				"type": "unocc",
				"energy": -0.06399,
				"method": "rhf"
			},
			{
				"type": "unocc",
				"energy": -0.01344,
				"method": "rhf"
			},
			{
				"type": "unocc",
				"energy": -0.00723,
				"method": "rhf"
			},
			{
				"type": "unocc",
				"energy": 0.00738,
				"method": "rhf"
			},
			{
				"type": "unocc",
				"energy": 0.02764,
				"method": "rhf"
			}
		],
		"cosmo_sigma_profile": { 
			"-0.025": 0.0,
			"-0.024": 0.0,
			"-0.023": 0.0,
			"-0.022": 0.0,
			"-0.021": 0.0,
			"-0.02": 0.0,
			"-0.019": 0.0,
			"-0.018": 0.0443291755834,
			"-0.017": 0.580527116383,
			"-0.016": 0.711452551428,
			"-0.015": 0.625174233022,
			"-0.014": 1.01623820549,
			"-0.013": 1.03343755068,
			"-0.012": 1.23846479909,
			"-0.011": 1.09313159343,
			"-0.01": 0.925158742267,
			"-0.009": 0.53596751924,
			"-0.008": 3.20186819439,
			"-0.007": 9.03193773392,
			"-0.006": 15.2996385711,
			"-0.005": 18.9137144758,
			"-0.004": 28.1081678244,
			"-0.003": 39.6030802632,
			"-0.002": 40.7458936145,
			"-0.001": 33.7160559214,
			"0.0": 32.8867461923,
			"0.001": 28.4259972881,
			"0.002": 21.3257811022,
			"0.003": 16.4064470068,
			"0.004": 16.727828827,
			"0.005": 12.0512114613,
			"0.006": 4.82811407024,
			"0.007": 6.28125104137,
			"0.008": 6.4328179502,
			"0.009": 6.71154249694,
			"0.01": 8.57061711625,
			"0.011": 5.71647920094,
			"0.012": 5.5613611102,
			"0.013": 3.87355917312,
			"0.014": 1.29936335175,
			"0.015": 0.0,
			"0.016": 0.0,
			"0.017": 0.0,
			"0.018": 0.0,
			"0.019": 0.0,
			"0.02": 0.0,
			"0.021": 0.0,
			"0.022": 0.0,
			"0.023": 0.0,
			"0.024": 0.0,
			"0.025": 0.0
		}
	}
}
