{
	 "smiles": "OC1C=C2CCN3CC4=C(C=C5OCOC5=C4)C(C23)C1O", 
	 "Tm": 553.15, 
	 "num_atms": 38, 
	 "gaussian": { 
		 "optdone": 1, 
		 "sigma_profile": "yes", 
		 "theory": "DFT", 
		 "functional": "B3LYP", 
		 "basiset": "6-31G**", 
		 "properties": { 
			 "R2extent": 6167.9601, 
			 "electric_dipole_moment_norm": 2.07928835422, 
			 "electric_quadrupole_moment_norm": 11.0523386543, 
			 "total_energy": -975.523825704, 
			 "HOMO_LUMO_gap": 0.19041, 
			 "cosmo_polarized_energy": -13.56, 
			 "cosmo_cavitation_energy": 37.36, 
			 "cosmo_dispersion_energy": -27.9, 
			 "cosmo_repulsion_energy": 2.1, 
			 "cosmo_total_nonelectrostatic_energy": 11.56, 
			 "SMD_solvation_energy": 3.34 
		},
		"coords": [
			{
				"x": -1.090375431,
				"y": 3.0172825249,
				"z": 1.980621695,
				"element": "O" 
			},
			{
				"x": -1.8478009162,
				"y": 2.0078105632,
				"z": 1.2851764552,
				"element": "C" 
			},
			{
				"x": -2.2743351748,
				"y": 0.8405578491,
				"z": 2.1394078981,
				"element": "C" 
			},
			{
				"x": -1.3357650171,
				"y": -0.0245491299,
				"z": 2.5287373756,
				"element": "C" 
			},
			{
				"x": -1.4699590836,
				"y": -1.3694512894,
				"z": 3.1938040998,
				"element": "C" 
			},
			{
				"x": -0.2832341884,
				"y": -2.1201644654,
				"z": 2.5679215923,
				"element": "C" 
			},
			{
				"x": 0.7576470499,
				"y": -1.0858589436,
				"z": 2.5351028499,
				"element": "N" 
			},
			{
				"x": 1.9426795333,
				"y": -1.3903533018,
				"z": 1.7461878448,
				"element": "C" 
			},
			{
				"x": 1.6867514623,
				"y": -1.3328440623,
				"z": 0.2534138955,
				"element": "C" 
			},
			{
				"x": 0.888307121,
				"y": -0.2853702145,
				"z": -0.2380978935,
				"element": "C" 
			},
			{
				"x": 0.6606922584,
				"y": -0.1655305122,
				"z": -1.6285473806,
				"element": "C" 
			},
			{
				"x": 1.2245892157,
				"y": -1.1166332939,
				"z": -2.4530816474,
				"element": "C" 
			},
			{
				"x": 1.1216879702,
				"y": -1.2264051709,
				"z": -3.8233697582,
				"element": "O" 
			},
			{
				"x": 2.0171882359,
				"y": -2.2795700333,
				"z": -4.189603437,
				"element": "C" 
			},
			{
				"x": 2.3999285237,
				"y": -2.9739850244,
				"z": -2.9964365415,
				"element": "O" 
			},
			{
				"x": 1.9948037796,
				"y": -2.1641277026,
				"z": -1.9593008558,
				"element": "C" 
			},
			{
				"x": 2.2417912538,
				"y": -2.2992074669,
				"z": -0.6092043069,
				"element": "C" 
			},
			{
				"x": 0.3464566299,
				"y": 0.7596013845,
				"z": 0.7352287878,
				"element": "C" 
			},
			{
				"x": 0.1277595555,
				"y": 0.2049837914,
				"z": 2.2015388569,
				"element": "C" 
			},
			{
				"x": -0.9102184894,
				"y": 1.4993510163,
				"z": 0.1786812261,
				"element": "C" 
			},
			{
				"x": -0.5459115567,
				"y": 2.5673626483,
				"z": -0.686406834,
				"element": "O" 
			},
			{
				"x": -1.6146095716,
				"y": 3.3252861883,
				"z": 2.7301039534,
				"element": "H" 
			},
			{
				"x": -2.7172540857,
				"y": 2.4740097936,
				"z": 0.8011024748,
				"element": "H" 
			},
			{
				"x": -3.3308688243,
				"y": 0.6707829581,
				"z": 2.3330395474,
				"element": "H" 
			},
			{
				"x": -2.4382597484,
				"y": -1.8453084337,
				"z": 3.0160696643,
				"element": "H" 
			},
			{
				"x": -1.3189879376,
				"y": -1.2849293437,
				"z": 4.2778464309,
				"element": "H" 
			},
			{
				"x": -0.5596067515,
				"y": -2.4955153296,
				"z": 1.5664470029,
				"element": "H" 
			},
			{
				"x": 0.0534335802,
				"y": -2.9734725964,
				"z": 3.1673366075,
				"element": "H" 
			},
			{
				"x": 2.7262819691,
				"y": -0.6684032809,
				"z": 2.0232661246,
				"element": "H" 
			},
			{
				"x": 2.317894195,
				"y": -2.3781208066,
				"z": 2.036502632,
				"element": "H" 
			},
			{
				"x": 0.0970736787,
				"y": 0.6622458506,
				"z": -2.0413562136,
				"element": "H" 
			},
			{
				"x": 2.9119235258,
				"y": -1.8533045564,
				"z": -4.6681100806,
				"element": "H" 
			},
			{
				"x": 1.5086596488,
				"y": -2.9727166505,
				"z": -4.8666676331,
				"element": "H" 
			},
			{
				"x": 2.8438602403,
				"y": -3.1166229189,
				"z": -0.2249801135,
				"element": "H" 
			},
			{
				"x": 1.1147370785,
				"y": 1.5384399452,
				"z": 0.8260367722,
				"element": "H" 
			},
			{
				"x": 0.5269426642,
				"y": 0.975779418,
				"z": 2.873564921,
				"element": "H" 
			},
			{
				"x": -1.4936522744,
				"y": 0.8042038941,
				"z": -0.4321215225,
				"element": "H" 
			},
			{
				"x": -0.2471501193,
				"y": 3.2849467022,
				"z": -0.1075544898,
				"element": "H" 
			}
		],
		 "valence_orbital": [ 
			{
				"type": "occ",
				"energy": -0.26658,
				"method": "rhf"
			},
			{
				"type": "occ",
				"energy": -0.24242,
				"method": "rhf"
			},
			{
				"type": "occ",
				"energy": -0.23425,
				"method": "rhf"
			},
			{
				"type": "occ",
				"energy": -0.20235,
				"method": "rhf"
			},
			{
				"type": "occ",
				"energy": -0.19404,
				"method": "rhf"
			},
			{
				"type": "unocc",
				"energy": -0.00363,
				"method": "rhf"
			},
			{
				"type": "unocc",
				"energy": 0.00678,
				"method": "rhf"
			},
			{
				"type": "unocc",
				"energy": 0.01709,
				"method": "rhf"
			},
			{
				"type": "unocc",
				"energy": 0.08119,
				"method": "rhf"
			},
			{
				"type": "unocc",
				"energy": 0.10167,
				"method": "rhf"
			}
		],
		"cosmo_sigma_profile": { 
			"-0.025": 0.0,
			"-0.024": 0.0,
			"-0.023": 0.0,
			"-0.022": 0.0,
			"-0.021": 0.0,
			"-0.02": 0.0,
			"-0.019": 0.0,
			"-0.018": 0.0,
			"-0.017": 0.0,
			"-0.016": 0.237936719651,
			"-0.015": 0.919741650952,
			"-0.014": 0.989149054334,
			"-0.013": 1.00837582086,
			"-0.012": 1.44497667982,
			"-0.011": 0.928006136718,
			"-0.01": 0.896381278205,
			"-0.009": 1.36504138747,
			"-0.008": 3.96561935785,
			"-0.007": 6.83913231599,
			"-0.006": 11.5871536748,
			"-0.005": 12.5764904151,
			"-0.004": 26.7364640137,
			"-0.003": 28.8594471366,
			"-0.002": 26.1927134709,
			"-0.001": 26.1954646793,
			"0.0": 23.2148614735,
			"0.001": 16.8120079532,
			"0.002": 15.5527700387,
			"0.003": 18.7630013829,
			"0.004": 16.4567511678,
			"0.005": 13.6236236491,
			"0.006": 5.92223904925,
			"0.007": 5.04592773962,
			"0.008": 8.04669291256,
			"0.009": 5.77947512781,
			"0.01": 5.4711576836,
			"0.011": 2.47645512461,
			"0.012": 1.47339882128,
			"0.013": 1.66558676653,
			"0.014": 1.37409405038,
			"0.015": 0.509072832294,
			"0.016": 0.130648490583,
			"0.017": 0.0,
			"0.018": 0.0,
			"0.019": 0.0,
			"0.02": 0.0,
			"0.021": 0.0,
			"0.022": 0.0,
			"0.023": 0.0,
			"0.024": 0.0,
			"0.025": 0.0
		}
	}
}
