{
	 "smiles": "CC1=CC(Br)=CN=C1Br", 
	 "Tm": 318.15, 
	 "num_atms": 14, 
	 "gaussian": { 
		 "optdone": 1, 
		 "sigma_profile": "yes", 
		 "theory": "DFT", 
		 "functional": "B3LYP", 
		 "basiset": "6-31G**", 
		 "properties": { 
			 "R2extent": 3846.6452, 
			 "electric_dipole_moment_norm": 2.46468770841, 
			 "electric_quadrupole_moment_norm": 4.57945068977, 
			 "total_energy": -5429.21097712, 
			 "HOMO_LUMO_gap": 0.20507, 
			 "cosmo_polarized_energy": -5.84, 
			 "cosmo_cavitation_energy": 22.76, 
			 "cosmo_dispersion_energy": -17.74, 
			 "cosmo_repulsion_energy": 1.45, 
			 "cosmo_total_nonelectrostatic_energy": 6.47, 
			 "SMD_solvation_energy": 0.41 
		},
		"coords": [
			{
				"x": -1.1956292416,
				"y": -1.6012624935,
				"z": 0.0549434348,
				"element": "C" 
			},
			{
				"x": -0.6591465779,
				"y": -0.1970769366,
				"z": 0.0970702769,
				"element": "C" 
			},
			{
				"x": -0.81079005,
				"y": 0.672832005,
				"z": -0.9869391087,
				"element": "C" 
			},
			{
				"x": -0.3018959174,
				"y": 1.9680368059,
				"z": -0.9157634119,
				"element": "C" 
			},
			{
				"x": -0.4983340774,
				"y": 3.1671857669,
				"z": -2.3813244871,
				"element": "Br" 
			},
			{
				"x": 0.3544885025,
				"y": 2.3813785917,
				"z": 0.239988022,
				"element": "C" 
			},
			{
				"x": 0.5076557897,
				"y": 1.5612894722,
				"z": 1.2853016506,
				"element": "N" 
			},
			{
				"x": 0.0222615825,
				"y": 0.3390787389,
				"z": 1.2062338284,
				"element": "C" 
			},
			{
				"x": 0.290976188,
				"y": -0.7671949967,
				"z": 2.7584684718,
				"element": "Br" 
			},
			{
				"x": -1.9192650785,
				"y": -1.7698766541,
				"z": 0.8589281264,
				"element": "H" 
			},
			{
				"x": -1.6859976928,
				"y": -1.8000285445,
				"z": -0.9010779687,
				"element": "H" 
			},
			{
				"x": -0.3931800629,
				"y": -2.3329919615,
				"z": 0.1932268524,
				"element": "H" 
			},
			{
				"x": -1.324693871,
				"y": 0.3370016897,
				"z": -1.8815191684,
				"element": "H" 
			},
			{
				"x": 0.7633505068,
				"y": 3.3833285166,
				"z": 0.3299634815,
				"element": "H" 
			}
		],
		 "valence_orbital": [ 
			{
				"type": "occ",
				"energy": -0.30354,
				"method": "rhf"
			},
			{
				"type": "occ",
				"energy": -0.29333,
				"method": "rhf"
			},
			{
				"type": "occ",
				"energy": -0.29279,
				"method": "rhf"
			},
			{
				"type": "occ",
				"energy": -0.2772,
				"method": "rhf"
			},
			{
				"type": "occ",
				"energy": -0.25044,
				"method": "rhf"
			},
			{
				"type": "unocc",
				"energy": -0.04537,
				"method": "rhf"
			},
			{
				"type": "unocc",
				"energy": -0.03554,
				"method": "rhf"
			},
			{
				"type": "unocc",
				"energy": -0.00558,
				"method": "rhf"
			},
			{
				"type": "unocc",
				"energy": 0.00528,
				"method": "rhf"
			},
			{
				"type": "unocc",
				"energy": 0.10247,
				"method": "rhf"
			}
		],
		"cosmo_sigma_profile": { 
			"-0.025": 0.0,
			"-0.024": 0.0,
			"-0.023": 0.0,
			"-0.022": 0.0,
			"-0.021": 0.0,
			"-0.02": 0.0,
			"-0.019": 0.0,
			"-0.018": 0.0,
			"-0.017": 0.0,
			"-0.016": 0.0,
			"-0.015": 0.0,
			"-0.014": 0.0,
			"-0.013": 0.0,
			"-0.012": 0.0,
			"-0.011": 0.0,
			"-0.01": 0.0,
			"-0.009": 0.561779435345,
			"-0.008": 4.17443619629,
			"-0.007": 4.08620698135,
			"-0.006": 4.63003987618,
			"-0.005": 9.17154531682,
			"-0.004": 11.1870336247,
			"-0.003": 13.1864074135,
			"-0.002": 17.9984802271,
			"-0.001": 25.0022859556,
			"0.0": 22.3475217511,
			"0.001": 13.0213719256,
			"0.002": 12.3519270494,
			"0.003": 17.6055258704,
			"0.004": 17.6625723581,
			"0.005": 5.08287483508,
			"0.006": 2.66963752686,
			"0.007": 1.61267574145,
			"0.008": 1.32362705914,
			"0.009": 1.50499807345,
			"0.01": 0.953217770964,
			"0.011": 1.17792977002,
			"0.012": 0.612805188426,
			"0.013": 1.0199289913,
			"0.014": 0.213628826881,
			"0.015": 0.0,
			"0.016": 0.0,
			"0.017": 0.0,
			"0.018": 0.0,
			"0.019": 0.0,
			"0.02": 0.0,
			"0.021": 0.0,
			"0.022": 0.0,
			"0.023": 0.0,
			"0.024": 0.0,
			"0.025": 0.0
		}
	}
}
