{
	 "smiles": "CS(=O)(=O)C1=CC=C(C(C=O)C=O)C(=C1)[N+]([O-])=O", 
	 "Tm": 489.15, 
	 "num_atms": 27, 
	 "gaussian": { 
		 "optdone": 1, 
		 "sigma_profile": "yes", 
		 "theory": "DFT", 
		 "functional": "B3LYP", 
		 "basiset": "6-31G**", 
		 "properties": { 
			 "R2extent": 5524.0948, 
			 "electric_dipole_moment_norm": 1.95554854964, 
			 "electric_quadrupole_moment_norm": 29.2854241511, 
			 "total_energy": -1290.55898406, 
			 "HOMO_LUMO_gap": 0.15815, 
			 "cosmo_polarized_energy": -24.87, 
			 "cosmo_cavitation_energy": 34.71, 
			 "cosmo_dispersion_energy": -24.15, 
			 "cosmo_repulsion_energy": 1.85, 
			 "cosmo_total_nonelectrostatic_energy": 12.41, 
			 "SMD_solvation_energy": 9.67 
		},
		"coords": [
			{
				"x": 1.6416140663,
				"y": -1.7508064114,
				"z": -3.1905034749,
				"element": "C" 
			},
			{
				"x": 2.2035415684,
				"y": -2.0275690087,
				"z": -1.4951514668,
				"element": "S" 
			},
			{
				"x": 3.5334755138,
				"y": -1.4196068329,
				"z": -1.3564222176,
				"element": "O" 
			},
			{
				"x": 1.959992024,
				"y": -3.4386134298,
				"z": -1.1642188335,
				"element": "O" 
			},
			{
				"x": 1.0538708518,
				"y": -1.0451770358,
				"z": -0.5041947095,
				"element": "C" 
			},
			{
				"x": -0.1074534498,
				"y": -1.6352173769,
				"z": -0.0061407876,
				"element": "C" 
			},
			{
				"x": -0.9763615979,
				"y": -0.8706071913,
				"z": 0.7673206776,
				"element": "C" 
			},
			{
				"x": -0.7256226838,
				"y": 0.4799862303,
				"z": 1.0549628285,
				"element": "C" 
			},
			{
				"x": -1.7321916952,
				"y": 1.2201909939,
				"z": 1.9097319914,
				"element": "C" 
			},
			{
				"x": -2.9794457483,
				"y": 1.6479226709,
				"z": 1.122047505,
				"element": "C" 
			},
			{
				"x": -3.2024724702,
				"y": 1.3214967146,
				"z": -0.0177411593,
				"element": "O" 
			},
			{
				"x": -2.1434380534,
				"y": 0.3946517452,
				"z": 3.1336059904,
				"element": "C" 
			},
			{
				"x": -3.2903646827,
				"y": 0.1674492095,
				"z": 3.4418018427,
				"element": "O" 
			},
			{
				"x": 0.4553488383,
				"y": 1.03418136,
				"z": 0.5259042529,
				"element": "C" 
			},
			{
				"x": 1.3558013367,
				"y": 0.2827084364,
				"z": -0.2291048005,
				"element": "C" 
			},
			{
				"x": 0.8190802175,
				"y": 2.453459754,
				"z": 0.7217935719,
				"element": "N" 
			},
			{
				"x": 2.0070258281,
				"y": 2.7472455577,
				"z": 0.636317149,
				"element": "O" 
			},
			{
				"x": -0.0878917438,
				"y": 3.2623060169,
				"z": 0.9319088698,
				"element": "O" 
			},
			{
				"x": 0.6143527468,
				"y": -2.1033740639,
				"z": -3.2922572749,
				"element": "H" 
			},
			{
				"x": 1.7229877602,
				"y": -0.6893875013,
				"z": -3.4284639415,
				"element": "H" 
			},
			{
				"x": 2.3088123618,
				"y": -2.3349165591,
				"z": -3.8279583757,
				"element": "H" 
			},
			{
				"x": -0.3116138079,
				"y": -2.6814585831,
				"z": -0.207477941,
				"element": "H" 
			},
			{
				"x": -1.8803519418,
				"y": -1.3280081297,
				"z": 1.1575424655,
				"element": "H" 
			},
			{
				"x": -1.2878969512,
				"y": 2.1402556264,
				"z": 2.3077651311,
				"element": "H" 
			},
			{
				"x": -3.6749950867,
				"y": 2.2894255549,
				"z": 1.6967363893,
				"element": "H" 
			},
			{
				"x": -1.2923079637,
				"y": 0.0217218916,
				"z": 3.7426383133,
				"element": "H" 
			},
			{
				"x": 2.2765047626,
				"y": 0.7343403616,
				"z": -0.5782419957,
				"element": "H" 
			}
		],
		 "valence_orbital": [ 
			{
				"type": "occ",
				"energy": -0.3106,
				"method": "rhf"
			},
			{
				"type": "occ",
				"energy": -0.30568,
				"method": "rhf"
			},
			{
				"type": "occ",
				"energy": -0.30339,
				"method": "rhf"
			},
			{
				"type": "occ",
				"energy": -0.29561,
				"method": "rhf"
			},
			{
				"type": "occ",
				"energy": -0.27368,
				"method": "rhf"
			},
			{
				"type": "unocc",
				"energy": -0.11553,
				"method": "rhf"
			},
			{
				"type": "unocc",
				"energy": -0.07295,
				"method": "rhf"
			},
			{
				"type": "unocc",
				"energy": -0.06183,
				"method": "rhf"
			},
			{
				"type": "unocc",
				"energy": -0.04491,
				"method": "rhf"
			},
			{
				"type": "unocc",
				"energy": -0.03532,
				"method": "rhf"
			}
		],
		"cosmo_sigma_profile": { 
			"-0.025": 0.0,
			"-0.024": 0.0,
			"-0.023": 0.0,
			"-0.022": 0.0,
			"-0.021": 0.0,
			"-0.02": 0.0,
			"-0.019": 0.0,
			"-0.018": 0.0,
			"-0.017": 0.0,
			"-0.016": 0.0,
			"-0.015": 0.0,
			"-0.014": 0.0,
			"-0.013": 0.0281673844923,
			"-0.012": 0.5927465203,
			"-0.011": 2.23483303297,
			"-0.01": 5.27453724347,
			"-0.009": 14.5549371347,
			"-0.008": 20.4413935936,
			"-0.007": 17.7810466705,
			"-0.006": 15.0149853171,
			"-0.005": 16.2557775329,
			"-0.004": 13.7431668251,
			"-0.003": 12.6170376838,
			"-0.002": 15.6186681352,
			"-0.001": 13.1699655581,
			"0.0": 10.7451356904,
			"0.001": 8.9509700799,
			"0.002": 7.96380546984,
			"0.003": 9.19236333972,
			"0.004": 7.32611464509,
			"0.005": 8.41626929871,
			"0.006": 9.73219133025,
			"0.007": 13.7189063725,
			"0.008": 12.5558703591,
			"0.009": 11.3886430932,
			"0.01": 13.9851370232,
			"0.011": 12.6695142577,
			"0.012": 4.19072375918,
			"0.013": 0.0,
			"0.014": 0.0,
			"0.015": 0.0,
			"0.016": 0.0,
			"0.017": 0.0,
			"0.018": 0.0,
			"0.019": 0.0,
			"0.02": 0.0,
			"0.021": 0.0,
			"0.022": 0.0,
			"0.023": 0.0,
			"0.024": 0.0,
			"0.025": 0.0
		}
	}
}
