{
	 "smiles": "OC(=O)C1=CC=C(C=C1)C1=CSC=C1", 
	 "Tm": 555.15, 
	 "num_atms": 22, 
	 "gaussian": { 
		 "optdone": 1, 
		 "sigma_profile": "yes", 
		 "theory": "DFT", 
		 "functional": "B3LYP", 
		 "basiset": "6-31G**", 
		 "properties": { 
			 "R2extent": 5019.9378, 
			 "electric_dipole_moment_norm": 5.03066352383, 
			 "electric_quadrupole_moment_norm": 31.3191481042, 
			 "total_energy": -972.625827422, 
			 "HOMO_LUMO_gap": 0.17295, 
			 "cosmo_polarized_energy": -15.49, 
			 "cosmo_cavitation_energy": 28.51, 
			 "cosmo_dispersion_energy": -21.58, 
			 "cosmo_repulsion_energy": 1.61, 
			 "cosmo_total_nonelectrostatic_energy": 8.54, 
			 "SMD_solvation_energy": 5.99 
		},
		"coords": [
			{
				"x": 5.303111182,
				"y": 0.3252609838,
				"z": -2.1583331,
				"element": "O" 
			},
			{
				"x": 4.6618765102,
				"y": -0.2544031856,
				"z": -1.1065437352,
				"element": "C" 
			},
			{
				"x": 5.3036960317,
				"y": -0.7576390779,
				"z": -0.2141066109,
				"element": "O" 
			},
			{
				"x": 3.1651049606,
				"y": -0.225179221,
				"z": -1.1289179262,
				"element": "C" 
			},
			{
				"x": 2.4135739961,
				"y": -0.0331943792,
				"z": -2.2966301365,
				"element": "C" 
			},
			{
				"x": 1.0224619863,
				"y": -0.0297818438,
				"z": -2.2521360611,
				"element": "C" 
			},
			{
				"x": 0.3373678453,
				"y": -0.2193994856,
				"z": -1.0395702462,
				"element": "C" 
			},
			{
				"x": 1.1006210304,
				"y": -0.4327663229,
				"z": 0.1242076014,
				"element": "C" 
			},
			{
				"x": 2.4881744089,
				"y": -0.4398579224,
				"z": 0.0802141567,
				"element": "C" 
			},
			{
				"x": -1.1375587408,
				"y": -0.1986525371,
				"z": -0.9938211844,
				"element": "C" 
			},
			{
				"x": -1.8745256482,
				"y": 0.2100421053,
				"z": 0.0955710253,
				"element": "C" 
			},
			{
				"x": -3.576203889,
				"y": 0.1203041835,
				"z": -0.1908728625,
				"element": "S" 
			},
			{
				"x": -3.3193757618,
				"y": -0.482067984,
				"z": -1.797058159,
				"element": "C" 
			},
			{
				"x": -1.9901418961,
				"y": -0.5951214718,
				"z": -2.0830112759,
				"element": "C" 
			},
			{
				"x": 4.6747000419,
				"y": 0.8246334174,
				"z": -2.6975811349,
				"element": "H" 
			},
			{
				"x": 2.9018724276,
				"y": 0.0839409135,
				"z": -3.2614855015,
				"element": "H" 
			},
			{
				"x": 0.4614124929,
				"y": 0.1372125798,
				"z": -3.1660569053,
				"element": "H" 
			},
			{
				"x": 0.5946876734,
				"y": -0.6218233462,
				"z": 1.0659076447,
				"element": "H" 
			},
			{
				"x": 3.0754171,
				"y": -0.6204695859,
				"z": 0.9741474319,
				"element": "H" 
			},
			{
				"x": -1.507669374,
				"y": 0.5960419193,
				"z": 1.0361639102,
				"element": "H" 
			},
			{
				"x": -4.1630275709,
				"y": -0.7306841959,
				"z": -2.4255231563,
				"element": "H" 
			},
			{
				"x": -1.6189748063,
				"y": -0.9804955431,
				"z": -3.0254637744,
				"element": "H" 
			}
		],
		 "valence_orbital": [ 
			{
				"type": "occ",
				"energy": -0.29255,
				"method": "rhf"
			},
			{
				"type": "occ",
				"energy": -0.27385,
				"method": "rhf"
			},
			{
				"type": "occ",
				"energy": -0.26916,
				"method": "rhf"
			},
			{
				"type": "occ",
				"energy": -0.25548,
				"method": "rhf"
			},
			{
				"type": "occ",
				"energy": -0.23365,
				"method": "rhf"
			},
			{
				"type": "unocc",
				"energy": -0.0607,
				"method": "rhf"
			},
			{
				"type": "unocc",
				"energy": -0.02383,
				"method": "rhf"
			},
			{
				"type": "unocc",
				"energy": -0.01744,
				"method": "rhf"
			},
			{
				"type": "unocc",
				"energy": 0.02132,
				"method": "rhf"
			},
			{
				"type": "unocc",
				"energy": 0.03311,
				"method": "rhf"
			}
		],
		"cosmo_sigma_profile": { 
			"-0.025": 0.0,
			"-0.024": 0.0,
			"-0.023": 0.0,
			"-0.022": 0.0,
			"-0.021": 0.0,
			"-0.02": 0.0,
			"-0.019": 0.142429773396,
			"-0.018": 0.552428769613,
			"-0.017": 1.20116357898,
			"-0.016": 1.17297375838,
			"-0.015": 0.609596868353,
			"-0.014": 0.76295082822,
			"-0.013": 1.13022846524,
			"-0.012": 1.55702876637,
			"-0.011": 1.12197230111,
			"-0.01": 1.13391358803,
			"-0.009": 1.99697012089,
			"-0.008": 6.30312419301,
			"-0.007": 9.87091856919,
			"-0.006": 13.8767081209,
			"-0.005": 12.1893263375,
			"-0.004": 11.3694354133,
			"-0.003": 12.6780593406,
			"-0.002": 11.7713666567,
			"-0.001": 12.2595037232,
			"0.0": 12.770723619,
			"0.001": 14.8030612692,
			"0.002": 22.0046972385,
			"0.003": 26.3106766487,
			"0.004": 19.4368751665,
			"0.005": 6.81427361363,
			"0.006": 2.74134309063,
			"0.007": 2.58135029887,
			"0.008": 2.5922515855,
			"0.009": 3.13000427445,
			"0.01": 4.14734809439,
			"0.011": 5.56994354329,
			"0.012": 5.13091361885,
			"0.013": 1.89538293949,
			"0.014": 0.122404144829,
			"0.015": 0.0,
			"0.016": 0.0,
			"0.017": 0.0,
			"0.018": 0.0,
			"0.019": 0.0,
			"0.02": 0.0,
			"0.021": 0.0,
			"0.022": 0.0,
			"0.023": 0.0,
			"0.024": 0.0,
			"0.025": 0.0
		}
	}
}
