{
	 "smiles": "ClCCC(=O)NC1=CC=C(C=C1)C#N", 
	 "Tm": 426.15, 
	 "num_atms": 23, 
	 "gaussian": { 
		 "optdone": 1, 
		 "sigma_profile": "yes", 
		 "theory": "DFT", 
		 "functional": "B3LYP", 
		 "basiset": "6-31G**", 
		 "properties": { 
			 "R2extent": 4933.8715, 
			 "electric_dipole_moment_norm": 2.80189675399, 
			 "electric_quadrupole_moment_norm": 28.9857959477, 
			 "total_energy": -1031.41100335, 
			 "HOMO_LUMO_gap": 0.18611, 
			 "cosmo_polarized_energy": -18.33, 
			 "cosmo_cavitation_energy": 30.6, 
			 "cosmo_dispersion_energy": -21.68, 
			 "cosmo_repulsion_energy": 1.73, 
			 "cosmo_total_nonelectrostatic_energy": 10.65, 
			 "SMD_solvation_energy": 6.76 
		},
		"coords": [
			{
				"x": -4.7061479792,
				"y": 0.3361333593,
				"z": -0.5086056896,
				"element": "Cl" 
			},
			{
				"x": -3.7605838007,
				"y": -1.1946681419,
				"z": -0.2767607324,
				"element": "C" 
			},
			{
				"x": -2.3045053312,
				"y": -0.8738195939,
				"z": 0.0438687309,
				"element": "C" 
			},
			{
				"x": -1.532463498,
				"y": -2.1613278909,
				"z": 0.2942331052,
				"element": "C" 
			},
			{
				"x": -2.1015794825,
				"y": -3.2154487479,
				"z": 0.5392070363,
				"element": "O" 
			},
			{
				"x": -0.1465228,
				"y": -2.1514151684,
				"z": 0.2177194686,
				"element": "N" 
			},
			{
				"x": 0.7958482374,
				"y": -1.1568795968,
				"z": -0.096412933,
				"element": "C" 
			},
			{
				"x": 0.6396317471,
				"y": 0.1969530089,
				"z": 0.2443510033,
				"element": "C" 
			},
			{
				"x": 1.6243866402,
				"y": 1.1212906758,
				"z": -0.0860245409,
				"element": "C" 
			},
			{
				"x": 2.7985420488,
				"y": 0.7145831102,
				"z": -0.7389211533,
				"element": "C" 
			},
			{
				"x": 2.9698868101,
				"y": -0.6446546263,
				"z": -1.054842379,
				"element": "C" 
			},
			{
				"x": 1.979407743,
				"y": -1.5627501337,
				"z": -0.7407634303,
				"element": "C" 
			},
			{
				"x": 3.8133790108,
				"y": 1.669419074,
				"z": -1.0695256936,
				"element": "C" 
			},
			{
				"x": 4.6386516684,
				"y": 2.4441489864,
				"z": -1.3388536723,
				"element": "N" 
			},
			{
				"x": -3.8547744692,
				"y": -1.7673451529,
				"z": -1.1991412608,
				"element": "H" 
			},
			{
				"x": -4.2321777171,
				"y": -1.7500940666,
				"z": 0.5312008649,
				"element": "H" 
			},
			{
				"x": -2.2644947655,
				"y": -0.2488365044,
				"z": 0.9438145904,
				"element": "H" 
			},
			{
				"x": -1.84867738,
				"y": -0.2941609889,
				"z": -0.7644041232,
				"element": "H" 
			},
			{
				"x": 0.2154447737,
				"y": -3.0954481627,
				"z": 0.2928911613,
				"element": "H" 
			},
			{
				"x": -0.2316280517,
				"y": 0.5322071016,
				"z": 0.790714225,
				"element": "H" 
			},
			{
				"x": 1.493615577,
				"y": 2.1646410302,
				"z": 0.1802572396,
				"element": "H" 
			},
			{
				"x": 3.8757616164,
				"y": -0.9707539078,
				"z": -1.5543744763,
				"element": "H" 
			},
			{
				"x": 2.1109994023,
				"y": -2.6082736632,
				"z": -1.0046273409,
				"element": "H" 
			}
		],
		 "valence_orbital": [ 
			{
				"type": "occ",
				"energy": -0.30905,
				"method": "rhf"
			},
			{
				"type": "occ",
				"energy": -0.30294,
				"method": "rhf"
			},
			{
				"type": "occ",
				"energy": -0.29197,
				"method": "rhf"
			},
			{
				"type": "occ",
				"energy": -0.28194,
				"method": "rhf"
			},
			{
				"type": "occ",
				"energy": -0.25123,
				"method": "rhf"
			},
			{
				"type": "unocc",
				"energy": -0.06512,
				"method": "rhf"
			},
			{
				"type": "unocc",
				"energy": -0.04095,
				"method": "rhf"
			},
			{
				"type": "unocc",
				"energy": -0.00419,
				"method": "rhf"
			},
			{
				"type": "unocc",
				"energy": 0.02131,
				"method": "rhf"
			},
			{
				"type": "unocc",
				"energy": 0.02948,
				"method": "rhf"
			}
		],
		"cosmo_sigma_profile": { 
			"-0.025": 0.0,
			"-0.024": 0.0,
			"-0.023": 0.0,
			"-0.022": 0.0,
			"-0.021": 0.0,
			"-0.02": 0.0,
			"-0.019": 0.0,
			"-0.018": 0.0,
			"-0.017": 0.0,
			"-0.016": 0.0,
			"-0.015": 0.736626629435,
			"-0.014": 1.35830136588,
			"-0.013": 1.63693579984,
			"-0.012": 0.704987070093,
			"-0.011": 1.15885867137,
			"-0.01": 2.50195333656,
			"-0.009": 3.72029468912,
			"-0.008": 9.08971795848,
			"-0.007": 15.1991579175,
			"-0.006": 18.2101963292,
			"-0.005": 13.681479804,
			"-0.004": 11.9953051016,
			"-0.003": 11.9281686198,
			"-0.002": 13.1358739612,
			"-0.001": 14.4725616722,
			"0.0": 16.2021947423,
			"0.001": 17.8637050381,
			"0.002": 17.5089372833,
			"0.003": 9.1582280948,
			"0.004": 7.42075525426,
			"0.005": 8.79526615696,
			"0.006": 13.6859075513,
			"0.007": 6.71147668339,
			"0.008": 4.84537450566,
			"0.009": 4.51474149628,
			"0.01": 5.20657094522,
			"0.011": 4.8936318247,
			"0.012": 7.11404453611,
			"0.013": 3.93989228135,
			"0.014": 0.201707389858,
			"0.015": 0.0,
			"0.016": 0.0,
			"0.017": 0.0,
			"0.018": 0.0,
			"0.019": 0.0,
			"0.02": 0.0,
			"0.021": 0.0,
			"0.022": 0.0,
			"0.023": 0.0,
			"0.024": 0.0,
			"0.025": 0.0
		}
	}
}
