{
	 "smiles": "CCOC(=O)C(C(C)=O)C(=O)C1=CC=C(C=C1)C(=O)C(C(C)=O)C(=O)OCC", 
	 "Tm": 372.15, 
	 "num_atms": 50, 
	 "gaussian": { 
		 "optdone": 1, 
		 "sigma_profile": "yes", 
		 "theory": "DFT", 
		 "functional": "B3LYP", 
		 "basiset": "6-31G**", 
		 "properties": { 
			 "R2extent": 15036.9445, 
			 "electric_dipole_moment_norm": 2.62621210491, 
			 "electric_quadrupole_moment_norm": 32.4389716492, 
			 "total_energy": -1377.19427481, 
			 "HOMO_LUMO_gap": 0.16191, 
			 "cosmo_polarized_energy": -21.17, 
			 "cosmo_cavitation_energy": 55.7, 
			 "cosmo_dispersion_energy": -35.77, 
			 "cosmo_repulsion_energy": 2.8, 
			 "cosmo_total_nonelectrostatic_energy": 22.73, 
			 "SMD_solvation_energy": 13.73 
		},
		"coords": [
			{
				"x": -1.5232380885,
				"y": 4.3072162317,
				"z": 1.1635248578,
				"element": "C" 
			},
			{
				"x": -1.701150965,
				"y": 5.268477148,
				"z": -0.0000568005,
				"element": "C" 
			},
			{
				"x": -1.4899562699,
				"y": 4.5926745188,
				"z": -1.2717359552,
				"element": "O" 
			},
			{
				"x": -0.2337290913,
				"y": 4.5494560763,
				"z": -1.7414758618,
				"element": "C" 
			},
			{
				"x": 0.7280212348,
				"y": 5.0570342128,
				"z": -1.2017962425,
				"element": "O" 
			},
			{
				"x": -0.1985043162,
				"y": 3.7827958765,
				"z": -3.0652133402,
				"element": "C" 
			},
			{
				"x": 1.2235765964,
				"y": 3.7480665145,
				"z": -3.6674006429,
				"element": "C" 
			},
			{
				"x": 1.7541942405,
				"y": 5.0564323202,
				"z": -4.2074578888,
				"element": "C" 
			},
			{
				"x": 1.8533046639,
				"y": 2.711609293,
				"z": -3.7187807399,
				"element": "O" 
			},
			{
				"x": -0.8536770584,
				"y": 2.3832359855,
				"z": -2.9809587266,
				"element": "C" 
			},
			{
				"x": -1.7005810746,
				"y": 2.0987240345,
				"z": -3.808819916,
				"element": "O" 
			},
			{
				"x": -0.475355442,
				"y": 1.4169426413,
				"z": -1.9009933746,
				"element": "C" 
			},
			{
				"x": 0.6333403217,
				"y": 1.5929900378,
				"z": -1.0561829679,
				"element": "C" 
			},
			{
				"x": 0.9157264239,
				"y": 0.6515938439,
				"z": -0.0737558983,
				"element": "C" 
			},
			{
				"x": 0.1095874145,
				"y": -0.4883689414,
				"z": 0.0769132173,
				"element": "C" 
			},
			{
				"x": -0.9991437208,
				"y": -0.6663640468,
				"z": -0.7685877139,
				"element": "C" 
			},
			{
				"x": -1.2856777757,
				"y": 0.2816432223,
				"z": -1.7441469624,
				"element": "C" 
			},
			{
				"x": 0.4737033946,
				"y": -1.4535721869,
				"z": 1.1580979848,
				"element": "C" 
			},
			{
				"x": 1.2855990455,
				"y": -1.1678992794,
				"z": 2.0233737549,
				"element": "O" 
			},
			{
				"x": -0.2183142217,
				"y": -2.8362383395,
				"z": 1.1881691108,
				"element": "C" 
			},
			{
				"x": -1.5450827649,
				"y": -2.7305733651,
				"z": 1.9826776724,
				"element": "C" 
			},
			{
				"x": -1.4717941822,
				"y": -2.5676020903,
				"z": 3.4791317688,
				"element": "C" 
			},
			{
				"x": -2.5934893606,
				"y": -2.7407988464,
				"z": 1.3668051499,
				"element": "O" 
			},
			{
				"x": 0.7631214812,
				"y": -3.8777271426,
				"z": 1.7250688999,
				"element": "C" 
			},
			{
				"x": 0.6552255853,
				"y": -4.5070416968,
				"z": 2.7540935466,
				"element": "O" 
			},
			{
				"x": 1.7717335039,
				"y": -4.0278170173,
				"z": 0.8505324523,
				"element": "O" 
			},
			{
				"x": 2.8077578606,
				"y": -4.9709413033,
				"z": 1.2278586257,
				"element": "C" 
			},
			{
				"x": 3.8510418143,
				"y": -4.9618281186,
				"z": 0.1278606942,
				"element": "C" 
			},
			{
				"x": -1.7559406936,
				"y": 4.8207250972,
				"z": 2.1021110125,
				"element": "H" 
			},
			{
				"x": -2.1922137042,
				"y": 3.4478306648,
				"z": 1.0661179872,
				"element": "H" 
			},
			{
				"x": -0.4928089309,
				"y": 3.9474271997,
				"z": 1.2175121362,
				"element": "H" 
			},
			{
				"x": -1.0090590739,
				"y": 6.1106074077,
				"z": 0.0647160045,
				"element": "H" 
			},
			{
				"x": -2.7257502655,
				"y": 5.6405615293,
				"z": -0.0642343677,
				"element": "H" 
			},
			{
				"x": -0.8468568761,
				"y": 4.3325982476,
				"z": -3.757472109,
				"element": "H" 
			},
			{
				"x": 1.7936270597,
				"y": 5.7958034279,
				"z": -3.4016804029,
				"element": "H" 
			},
			{
				"x": 2.7515081446,
				"y": 4.9003980516,
				"z": -4.6204141845,
				"element": "H" 
			},
			{
				"x": 1.0881055327,
				"y": 5.4458075797,
				"z": -4.9861742859,
				"element": "H" 
			},
			{
				"x": 1.288288606,
				"y": 2.4473954445,
				"z": -1.1720000807,
				"element": "H" 
			},
			{
				"x": 1.7667058166,
				"y": 0.77482109,
				"z": 0.5870448657,
				"element": "H" 
			},
			{
				"x": -1.6581808914,
				"y": -1.5190791457,
				"z": -0.6443564623,
				"element": "H" 
			},
			{
				"x": -2.1394485113,
				"y": 0.1626632722,
				"z": -2.401923348,
				"element": "H" 
			},
			{
				"x": -0.4865173658,
				"y": -3.1332471894,
				"z": 0.1722625527,
				"element": "H" 
			},
			{
				"x": -0.6940852339,
				"y": -1.8487419809,
				"z": 3.7547289498,
				"element": "H" 
			},
			{
				"x": -1.1792122953,
				"y": -3.5232145742,
				"z": 3.9235763363,
				"element": "H" 
			},
			{
				"x": -2.4462713057,
				"y": -2.2541927952,
				"z": 3.8558385853,
				"element": "H" 
			},
			{
				"x": 3.2203809853,
				"y": -4.6640285113,
				"z": 2.193372384,
				"element": "H" 
			},
			{
				"x": 2.3511547176,
				"y": -5.95685209,
				"z": 1.3582172734,
				"element": "H" 
			},
			{
				"x": 3.4152014081,
				"y": -5.2630758615,
				"z": -0.8289494701,
				"element": "H" 
			},
			{
				"x": 4.6541080935,
				"y": -5.6626562232,
				"z": 0.3759882868,
				"element": "H" 
			},
			{
				"x": 4.286925534,
				"y": -3.9657702235,
				"z": 0.0110736327,
				"element": "H" 
			}
		],
		 "valence_orbital": [ 
			{
				"type": "occ",
				"energy": -0.27417,
				"method": "rhf"
			},
			{
				"type": "occ",
				"energy": -0.27095,
				"method": "rhf"
			},
			{
				"type": "occ",
				"energy": -0.26916,
				"method": "rhf"
			},
			{
				"type": "occ",
				"energy": -0.25886,
				"method": "rhf"
			},
			{
				"type": "occ",
				"energy": -0.25705,
				"method": "rhf"
			},
			{
				"type": "unocc",
				"energy": -0.09514,
				"method": "rhf"
			},
			{
				"type": "unocc",
				"energy": -0.043,
				"method": "rhf"
			},
			{
				"type": "unocc",
				"energy": -0.03355,
				"method": "rhf"
			},
			{
				"type": "unocc",
				"energy": -0.02527,
				"method": "rhf"
			},
			{
				"type": "unocc",
				"energy": -0.01417,
				"method": "rhf"
			}
		],
		"cosmo_sigma_profile": { 
			"-0.025": 0.0,
			"-0.024": 0.0,
			"-0.023": 0.0,
			"-0.022": 0.0,
			"-0.021": 0.0,
			"-0.02": 0.0,
			"-0.019": 0.0,
			"-0.018": 0.0,
			"-0.017": 0.0,
			"-0.016": 0.0,
			"-0.015": 0.0,
			"-0.014": 0.0,
			"-0.013": 0.0,
			"-0.012": 0.0,
			"-0.011": 0.119349159777,
			"-0.01": 2.14661585544,
			"-0.009": 4.45117115936,
			"-0.008": 5.4385905061,
			"-0.007": 9.14010175953,
			"-0.006": 19.0901305659,
			"-0.005": 30.8753967217,
			"-0.004": 43.4029334181,
			"-0.003": 43.1534890734,
			"-0.002": 42.652207173,
			"-0.001": 39.6246382822,
			"0.0": 36.0061410221,
			"0.001": 32.548005891,
			"0.002": 20.4370724301,
			"0.003": 13.1618941893,
			"0.004": 12.3643176259,
			"0.005": 13.7637968597,
			"0.006": 9.88258450015,
			"0.007": 10.6468012219,
			"0.008": 9.29062340118,
			"0.009": 11.9490719744,
			"0.01": 18.2055735231,
			"0.011": 10.8912839984,
			"0.012": 1.84020581238,
			"0.013": 0.0,
			"0.014": 0.0,
			"0.015": 0.0,
			"0.016": 0.0,
			"0.017": 0.0,
			"0.018": 0.0,
			"0.019": 0.0,
			"0.02": 0.0,
			"0.021": 0.0,
			"0.022": 0.0,
			"0.023": 0.0,
			"0.024": 0.0,
			"0.025": 0.0
		}
	}
}
