{
	 "smiles": "CN(C)CCN1C=NC2=C1C(=O)N(C)C(=O)N2C", 
	 "Tm": 368.15, 
	 "num_atms": 35, 
	 "gaussian": { 
		 "optdone": 1, 
		 "sigma_profile": "yes", 
		 "theory": "DFT", 
		 "functional": "B3LYP", 
		 "basiset": "6-31G**", 
		 "properties": { 
			 "R2extent": 6394.2168, 
			 "electric_dipole_moment_norm": 3.69764285187, 
			 "electric_quadrupole_moment_norm": 7.23198415098, 
			 "total_energy": -853.657603354, 
			 "HOMO_LUMO_gap": 0.17678, 
			 "cosmo_polarized_energy": -15.2, 
			 "cosmo_cavitation_energy": 37.25, 
			 "cosmo_dispersion_energy": -26.29, 
			 "cosmo_repulsion_energy": 1.99, 
			 "cosmo_total_nonelectrostatic_energy": 12.95, 
			 "SMD_solvation_energy": 3.99 
		},
		"coords": [
			{
				"x": -1.8329550594,
				"y": -2.0580949848,
				"z": -3.0883379671,
				"element": "C" 
			},
			{
				"x": -0.4949031459,
				"y": -2.058917721,
				"z": -2.5213248411,
				"element": "N" 
			},
			{
				"x": 0.0107726873,
				"y": -3.3986700479,
				"z": -2.2533747004,
				"element": "C" 
			},
			{
				"x": -0.2809473543,
				"y": -1.1046652473,
				"z": -1.4479745105,
				"element": "C" 
			},
			{
				"x": -1.0533790641,
				"y": -1.3799075364,
				"z": -0.1326221128,
				"element": "C" 
			},
			{
				"x": -0.7334786683,
				"y": -0.3914421821,
				"z": 0.8970124573,
				"element": "N" 
			},
			{
				"x": -1.483024571,
				"y": 0.6708077162,
				"z": 1.2879607291,
				"element": "C" 
			},
			{
				"x": -0.905083705,
				"y": 1.4237420612,
				"z": 2.2215288009,
				"element": "N" 
			},
			{
				"x": 0.2865677272,
				"y": 0.8067340908,
				"z": 2.4341539205,
				"element": "C" 
			},
			{
				"x": 0.4389102091,
				"y": -0.3125371964,
				"z": 1.637382873,
				"element": "C" 
			},
			{
				"x": 1.5998053671,
				"y": -1.1510970156,
				"z": 1.6679641566,
				"element": "C" 
			},
			{
				"x": 1.7963670246,
				"y": -2.1549780103,
				"z": 0.9831413171,
				"element": "O" 
			},
			{
				"x": 2.5468484002,
				"y": -0.6794569343,
				"z": 2.6100873149,
				"element": "N" 
			},
			{
				"x": 3.7973112648,
				"y": -1.4312037354,
				"z": 2.7621633579,
				"element": "C" 
			},
			{
				"x": 2.430928876,
				"y": 0.4542711364,
				"z": 3.4392558773,
				"element": "C" 
			},
			{
				"x": 3.3266743011,
				"y": 0.75584601,
				"z": 4.2155444296,
				"element": "O" 
			},
			{
				"x": 1.2573780785,
				"y": 1.1993850086,
				"z": 3.3251027758,
				"element": "N" 
			},
			{
				"x": 1.0669159251,
				"y": 2.3885559962,
				"z": 4.1537799687,
				"element": "C" 
			},
			{
				"x": -2.1316981213,
				"y": -1.0332963038,
				"z": -3.3340502359,
				"element": "H" 
			},
			{
				"x": -2.6110917899,
				"y": -2.4934321884,
				"z": -2.4320195299,
				"element": "H" 
			},
			{
				"x": -1.8342562953,
				"y": -2.6384852291,
				"z": -4.017511937,
				"element": "H" 
			},
			{
				"x": 0.0730586251,
				"y": -3.9584106288,
				"z": -3.1934170008,
				"element": "H" 
			},
			{
				"x": -0.6167294381,
				"y": -3.9891374879,
				"z": -1.5600220728,
				"element": "H" 
			},
			{
				"x": 1.0133716813,
				"y": -3.3346373403,
				"z": -1.8218204602,
				"element": "H" 
			},
			{
				"x": 0.7863444729,
				"y": -1.0934349569,
				"z": -1.2062305222,
				"element": "H" 
			},
			{
				"x": -0.5529963334,
				"y": -0.1040684529,
				"z": -1.8080272024,
				"element": "H" 
			},
			{
				"x": -2.1347722257,
				"y": -1.3422647519,
				"z": -0.2903227291,
				"element": "H" 
			},
			{
				"x": -0.792467406,
				"y": -2.3651280512,
				"z": 0.2579642728,
				"element": "H" 
			},
			{
				"x": -2.4624037955,
				"y": 0.8574567659,
				"z": 0.8680437998,
				"element": "H" 
			},
			{
				"x": 3.8969830739,
				"y": -1.7865707555,
				"z": 3.7898944506,
				"element": "H" 
			},
			{
				"x": 4.6499523954,
				"y": -0.7866753972,
				"z": 2.5386237994,
				"element": "H" 
			},
			{
				"x": 3.7577137646,
				"y": -2.2687477386,
				"z": 2.0693793009,
				"element": "H" 
			},
			{
				"x": 0.9475641278,
				"y": 3.2718587297,
				"z": 3.5209164058,
				"element": "H" 
			},
			{
				"x": 0.1703856135,
				"y": 2.2759974703,
				"z": 4.7687115999,
				"element": "H" 
			},
			{
				"x": 1.9480333581,
				"y": 2.4914049089,
				"z": 4.7833442144,
				"element": "H" 
			}
		],
		 "valence_orbital": [ 
			{
				"type": "occ",
				"energy": -0.28133,
				"method": "rhf"
			},
			{
				"type": "occ",
				"energy": -0.26647,
				"method": "rhf"
			},
			{
				"type": "occ",
				"energy": -0.25973,
				"method": "rhf"
			},
			{
				"type": "occ",
				"energy": -0.22286,
				"method": "rhf"
			},
			{
				"type": "occ",
				"energy": -0.20911,
				"method": "rhf"
			},
			{
				"type": "unocc",
				"energy": -0.03233,
				"method": "rhf"
			},
			{
				"type": "unocc",
				"energy": 0.02341,
				"method": "rhf"
			},
			{
				"type": "unocc",
				"energy": 0.03597,
				"method": "rhf"
			},
			{
				"type": "unocc",
				"energy": 0.07087,
				"method": "rhf"
			},
			{
				"type": "unocc",
				"energy": 0.09669,
				"method": "rhf"
			}
		],
		"cosmo_sigma_profile": { 
			"-0.025": 0.0,
			"-0.024": 0.0,
			"-0.023": 0.0,
			"-0.022": 0.0,
			"-0.021": 0.0,
			"-0.02": 0.0,
			"-0.019": 0.0,
			"-0.018": 0.0,
			"-0.017": 0.0,
			"-0.016": 0.0,
			"-0.015": 0.0,
			"-0.014": 0.0,
			"-0.013": 0.0,
			"-0.012": 0.0,
			"-0.011": 0.164799434522,
			"-0.01": 2.91541532657,
			"-0.009": 2.25720959847,
			"-0.008": 2.47094180019,
			"-0.007": 2.85689753378,
			"-0.006": 5.88530441365,
			"-0.005": 16.7638243378,
			"-0.004": 29.24544698,
			"-0.003": 37.9686325184,
			"-0.002": 44.8555959883,
			"-0.001": 34.5174385757,
			"0.0": 26.7673101648,
			"0.001": 10.2623643598,
			"0.002": 8.82011935997,
			"0.003": 8.20677379032,
			"0.004": 7.92489037036,
			"0.005": 5.5791008585,
			"0.006": 5.45428964414,
			"0.007": 5.5253507044,
			"0.008": 5.70429308574,
			"0.009": 4.07396181496,
			"0.01": 5.12017478592,
			"0.011": 4.99188476665,
			"0.012": 6.66603620911,
			"0.013": 5.84655167952,
			"0.014": 1.15068171585,
			"0.015": 1.25717066627,
			"0.016": 0.250880680149,
			"0.017": 0.0,
			"0.018": 0.0,
			"0.019": 0.0,
			"0.02": 0.0,
			"0.021": 0.0,
			"0.022": 0.0,
			"0.023": 0.0,
			"0.024": 0.0,
			"0.025": 0.0
		}
	}
}
