{
	 "smiles": "FC1=CC=C2N=C(C=C(Cl)C2=C1)C(F)(F)F", 
	 "Tm": 353.15, 
	 "num_atms": 20, 
	 "gaussian": { 
		 "optdone": 1, 
		 "sigma_profile": "yes", 
		 "theory": "DFT", 
		 "functional": "B3LYP", 
		 "basiset": "6-31G**", 
		 "properties": { 
			 "R2extent": 5221.5977, 
			 "electric_dipole_moment_norm": 1.99443287428, 
			 "electric_quadrupole_moment_norm": 13.5650763931, 
			 "total_energy": -1297.78307437, 
			 "HOMO_LUMO_gap": 0.16932, 
			 "cosmo_polarized_energy": -5.54, 
			 "cosmo_cavitation_energy": 28.76, 
			 "cosmo_dispersion_energy": -20.7, 
			 "cosmo_repulsion_energy": 1.51, 
			 "cosmo_total_nonelectrostatic_energy": 9.56, 
			 "SMD_solvation_energy": 4.85 
		},
		"coords": [
			{
				"x": 1.6203857054,
				"y": 1.98508427,
				"z": -2.2940524346,
				"element": "F" 
			},
			{
				"x": 1.3255385842,
				"y": 0.9899887778,
				"z": -1.4389657431,
				"element": "C" 
			},
			{
				"x": 2.4013115835,
				"y": 0.2890718668,
				"z": -0.851420422,
				"element": "C" 
			},
			{
				"x": 2.1306162785,
				"y": -0.7321838602,
				"z": 0.0257583548,
				"element": "C" 
			},
			{
				"x": 0.7892233206,
				"y": -1.0842591581,
				"z": 0.3424477399,
				"element": "C" 
			},
			{
				"x": 0.5888805907,
				"y": -2.1036138295,
				"z": 1.2171923017,
				"element": "N" 
			},
			{
				"x": -0.6511153321,
				"y": -2.4283118036,
				"z": 1.5095630356,
				"element": "C" 
			},
			{
				"x": -1.794817473,
				"y": -1.7908084468,
				"z": 0.9769857677,
				"element": "C" 
			},
			{
				"x": -1.5992436129,
				"y": -0.7577796422,
				"z": 0.0904190856,
				"element": "C" 
			},
			{
				"x": -2.9899255438,
				"y": 0.0559847816,
				"z": -0.5900858956,
				"element": "Cl" 
			},
			{
				"x": -0.2852430749,
				"y": -0.3525793816,
				"z": -0.2714337257,
				"element": "C" 
			},
			{
				"x": 0.0115448748,
				"y": 0.6982809562,
				"z": -1.1742035709,
				"element": "C" 
			},
			{
				"x": -0.8055106682,
				"y": -3.5771264478,
				"z": 2.4920717528,
				"element": "C" 
			},
			{
				"x": -0.2541684695,
				"y": -4.706284489,
				"z": 2.0120975538,
				"element": "F" 
			},
			{
				"x": -2.1098143574,
				"y": -3.8339227408,
				"z": 2.7443933368,
				"element": "F" 
			},
			{
				"x": -0.2109204637,
				"y": -3.2987593171,
				"z": 3.6656951026,
				"element": "F" 
			},
			{
				"x": 3.4160656003,
				"y": 0.5739932832,
				"z": -1.1069144289,
				"element": "H" 
			},
			{
				"x": 2.9219682986,
				"y": -1.2998457134,
				"z": 0.5025264856,
				"element": "H" 
			},
			{
				"x": -2.7888662082,
				"y": -2.1089252269,
				"z": 1.2608982084,
				"element": "H" 
			},
			{
				"x": -0.7779096331,
				"y": 1.2656961213,
				"z": -1.6507725043,
				"element": "H" 
			}
		],
		 "valence_orbital": [ 
			{
				"type": "occ",
				"energy": -0.33756,
				"method": "rhf"
			},
			{
				"type": "occ",
				"energy": -0.30982,
				"method": "rhf"
			},
			{
				"type": "occ",
				"energy": -0.28809,
				"method": "rhf"
			},
			{
				"type": "occ",
				"energy": -0.2774,
				"method": "rhf"
			},
			{
				"type": "occ",
				"energy": -0.25327,
				"method": "rhf"
			},
			{
				"type": "unocc",
				"energy": -0.08395,
				"method": "rhf"
			},
			{
				"type": "unocc",
				"energy": -0.04634,
				"method": "rhf"
			},
			{
				"type": "unocc",
				"energy": -0.00529,
				"method": "rhf"
			},
			{
				"type": "unocc",
				"energy": 0.01006,
				"method": "rhf"
			},
			{
				"type": "unocc",
				"energy": 0.05719,
				"method": "rhf"
			}
		],
		"cosmo_sigma_profile": { 
			"-0.025": 0.0,
			"-0.024": 0.0,
			"-0.023": 0.0,
			"-0.022": 0.0,
			"-0.021": 0.0,
			"-0.02": 0.0,
			"-0.019": 0.0,
			"-0.018": 0.0,
			"-0.017": 0.0,
			"-0.016": 0.0,
			"-0.015": 0.0,
			"-0.014": 0.0,
			"-0.013": 0.0,
			"-0.012": 0.0,
			"-0.011": 0.0,
			"-0.01": 0.0,
			"-0.009": 1.10980217354,
			"-0.008": 3.98966597097,
			"-0.007": 6.22843032595,
			"-0.006": 6.7913831714,
			"-0.005": 7.17712032298,
			"-0.004": 10.5401548458,
			"-0.003": 11.7557910458,
			"-0.002": 19.5975240012,
			"-0.001": 31.207776077,
			"0.0": 25.8981522101,
			"0.001": 23.2753985753,
			"0.002": 34.2465295882,
			"0.003": 32.5085626283,
			"0.004": 10.7926607211,
			"0.005": 2.71187251062,
			"0.006": 1.65184524732,
			"0.007": 1.24617239573,
			"0.008": 1.49610049821,
			"0.009": 1.15632049712,
			"0.01": 0.870929424337,
			"0.011": 0.453791649014,
			"0.012": 0.612598751155,
			"0.013": 0.0113200527549,
			"0.014": 0.0,
			"0.015": 0.0,
			"0.016": 0.0,
			"0.017": 0.0,
			"0.018": 0.0,
			"0.019": 0.0,
			"0.02": 0.0,
			"0.021": 0.0,
			"0.022": 0.0,
			"0.023": 0.0,
			"0.024": 0.0,
			"0.025": 0.0
		}
	}
}
