{
	 "smiles": "OC1=CC=C(Cl)C=C1CC1=C(O)C=CC(Cl)=C1", 
	 "Tm": 451.15, 
	 "num_atms": 27, 
	 "gaussian": { 
		 "optdone": 1, 
		 "sigma_profile": "yes", 
		 "theory": "DFT", 
		 "functional": "B3LYP", 
		 "basiset": "6-31G**", 
		 "properties": { 
			 "R2extent": 6324.7293, 
			 "electric_dipole_moment_norm": 3.37732212411, 
			 "electric_quadrupole_moment_norm": 16.6861257496, 
			 "total_energy": -1572.24346017, 
			 "HOMO_LUMO_gap": 0.18439, 
			 "cosmo_polarized_energy": -13.63, 
			 "cosmo_cavitation_energy": 34.63, 
			 "cosmo_dispersion_energy": -24.92, 
			 "cosmo_repulsion_energy": 1.94, 
			 "cosmo_total_nonelectrostatic_energy": 11.65, 
			 "SMD_solvation_energy": 5.42 
		},
		"coords": [
			{
				"x": 1.5452516661,
				"y": 0.4132622907,
				"z": -1.8318688467,
				"element": "O" 
			},
			{
				"x": 1.8919834841,
				"y": 0.154039279,
				"z": -0.5392398563,
				"element": "C" 
			},
			{
				"x": 3.0458389215,
				"y": -0.5545899363,
				"z": -0.1973539779,
				"element": "C" 
			},
			{
				"x": 3.3788529863,
				"y": -0.7711480325,
				"z": 1.1404312782,
				"element": "C" 
			},
			{
				"x": 2.5493333291,
				"y": -0.2631565945,
				"z": 2.1343545239,
				"element": "C" 
			},
			{
				"x": 2.9586047365,
				"y": -0.5050680202,
				"z": 3.8257882406,
				"element": "Cl" 
			},
			{
				"x": 1.3927389737,
				"y": 0.4462816601,
				"z": 1.8004704466,
				"element": "C" 
			},
			{
				"x": 1.0368521618,
				"y": 0.655042467,
				"z": 0.4634375126,
				"element": "C" 
			},
			{
				"x": -0.2238396513,
				"y": 1.418684477,
				"z": 0.0926960217,
				"element": "C" 
			},
			{
				"x": -1.3038890193,
				"y": 0.6033909913,
				"z": -0.6047145813,
				"element": "C" 
			},
			{
				"x": -1.9414581478,
				"y": -0.4743823685,
				"z": 0.0398662993,
				"element": "C" 
			},
			{
				"x": -1.6063672867,
				"y": -0.8869252276,
				"z": 1.2999618819,
				"element": "O" 
			},
			{
				"x": -2.9909319944,
				"y": -1.1536469903,
				"z": -0.5872323364,
				"element": "C" 
			},
			{
				"x": -3.4147916753,
				"y": -0.7852684562,
				"z": -1.8605440583,
				"element": "C" 
			},
			{
				"x": -2.7687993491,
				"y": 0.2661110032,
				"z": -2.5086991884,
				"element": "C" 
			},
			{
				"x": -3.2772534235,
				"y": 0.7371980929,
				"z": -4.1290498256,
				"element": "Cl" 
			},
			{
				"x": -1.7268680672,
				"y": 0.9524318683,
				"z": -1.8917527346,
				"element": "C" 
			},
			{
				"x": 2.1856811584,
				"y": 0.0063333794,
				"z": -2.4296610252,
				"element": "H" 
			},
			{
				"x": 3.695810924,
				"y": -0.938381081,
				"z": -0.980525729,
				"element": "H" 
			},
			{
				"x": 4.2750198674,
				"y": -1.3223174039,
				"z": 1.4017749901,
				"element": "H" 
			},
			{
				"x": 0.7705191065,
				"y": 0.8560040078,
				"z": 2.5914832086,
				"element": "H" 
			},
			{
				"x": -0.6389086792,
				"y": 1.8580005952,
				"z": 1.0085764546,
				"element": "H" 
			},
			{
				"x": 0.0470280013,
				"y": 2.2541261281,
				"z": -0.5607065257,
				"element": "H" 
			},
			{
				"x": -0.6887643763,
				"y": -0.6463031927,
				"z": 1.4909240278,
				"element": "H" 
			},
			{
				"x": -3.4627089574,
				"y": -1.9747591899,
				"z": -0.0578423875,
				"element": "H" 
			},
			{
				"x": -4.2278806646,
				"y": -1.312591528,
				"z": -2.3468706117,
				"element": "H" 
			},
			{
				"x": -1.2382540247,
				"y": 1.7699317814,
				"z": -2.4109032011,
				"element": "H" 
			}
		],
		 "valence_orbital": [ 
			{
				"type": "occ",
				"energy": -0.30352,
				"method": "rhf"
			},
			{
				"type": "occ",
				"energy": -0.27544,
				"method": "rhf"
			},
			{
				"type": "occ",
				"energy": -0.2535,
				"method": "rhf"
			},
			{
				"type": "occ",
				"energy": -0.23576,
				"method": "rhf"
			},
			{
				"type": "occ",
				"energy": -0.21753,
				"method": "rhf"
			},
			{
				"type": "unocc",
				"energy": -0.03314,
				"method": "rhf"
			},
			{
				"type": "unocc",
				"energy": -0.01778,
				"method": "rhf"
			},
			{
				"type": "unocc",
				"energy": -0.0063,
				"method": "rhf"
			},
			{
				"type": "unocc",
				"energy": 0.00411,
				"method": "rhf"
			},
			{
				"type": "unocc",
				"energy": 0.02169,
				"method": "rhf"
			}
		],
		"cosmo_sigma_profile": { 
			"-0.025": 0.0,
			"-0.024": 0.0,
			"-0.023": 0.0,
			"-0.022": 0.0,
			"-0.021": 0.0,
			"-0.02": 0.0,
			"-0.019": 0.0941686461757,
			"-0.018": 0.954580272014,
			"-0.017": 1.32102856634,
			"-0.016": 1.2956411465,
			"-0.015": 0.722601412115,
			"-0.014": 1.05098784203,
			"-0.013": 0.819455372123,
			"-0.012": 1.02351491331,
			"-0.011": 1.30085461314,
			"-0.01": 2.1057490347,
			"-0.009": 3.12004052565,
			"-0.008": 4.78153285916,
			"-0.007": 10.5172054904,
			"-0.006": 12.8425925205,
			"-0.005": 13.2934309456,
			"-0.004": 13.7721279592,
			"-0.003": 11.989476475,
			"-0.002": 14.6136179487,
			"-0.001": 15.5049243765,
			"0.0": 16.128388834,
			"0.001": 20.7275572715,
			"0.002": 28.3357943596,
			"0.003": 32.9241847733,
			"0.004": 30.3188977569,
			"0.005": 23.0859218942,
			"0.006": 6.06664871565,
			"0.007": 3.53030904309,
			"0.008": 2.85532428603,
			"0.009": 2.37373731667,
			"0.01": 1.24730845173,
			"0.011": 2.02994214852,
			"0.012": 0.611494431633,
			"0.013": 0.0,
			"0.014": 0.0,
			"0.015": 0.0,
			"0.016": 0.0,
			"0.017": 0.0,
			"0.018": 0.0,
			"0.019": 0.0,
			"0.02": 0.0,
			"0.021": 0.0,
			"0.022": 0.0,
			"0.023": 0.0,
			"0.024": 0.0,
			"0.025": 0.0
		}
	}
}
