{
	 "smiles": "CC(C)C1=NC=CN1CC1=CC(N)=CC=C1", 
	 "Tm": 362.15, 
	 "num_atms": 33, 
	 "gaussian": { 
		 "optdone": 1, 
		 "sigma_profile": "yes", 
		 "theory": "DFT", 
		 "functional": "B3LYP", 
		 "basiset": "6-31G**", 
		 "properties": { 
			 "R2extent": 4199.651, 
			 "electric_dipole_moment_norm": 3.01396474764, 
			 "electric_quadrupole_moment_norm": 14.5860848277, 
			 "total_energy": -669.8919213, 
			 "HOMO_LUMO_gap": 0.20378, 
			 "cosmo_polarized_energy": -14.87, 
			 "cosmo_cavitation_energy": 34.84, 
			 "cosmo_dispersion_energy": -23.95, 
			 "cosmo_repulsion_energy": 1.89, 
			 "cosmo_total_nonelectrostatic_energy": 12.78, 
			 "SMD_solvation_energy": 4.33 
		},
		"coords": [
			{
				"x": 1.640835473,
				"y": 3.2815181633,
				"z": 1.4282481994,
				"element": "C" 
			},
			{
				"x": 1.4366684398,
				"y": 2.63996776,
				"z": 0.0399862968,
				"element": "C" 
			},
			{
				"x": -0.047072363,
				"y": 2.3303137536,
				"z": -0.2354650986,
				"element": "C" 
			},
			{
				"x": 2.3768609969,
				"y": 1.4857538561,
				"z": -0.217871526,
				"element": "C" 
			},
			{
				"x": 3.3737931034,
				"y": 1.5702080661,
				"z": -1.0835283255,
				"element": "N" 
			},
			{
				"x": 4.0382013868,
				"y": 0.368432547,
				"z": -1.022864823,
				"element": "C" 
			},
			{
				"x": 3.4443173779,
				"y": -0.4583104903,
				"z": -0.1073179102,
				"element": "C" 
			},
			{
				"x": 2.3779895075,
				"y": 0.257212487,
				"z": 0.4141018761,
				"element": "N" 
			},
			{
				"x": 1.4332145343,
				"y": -0.291236036,
				"z": 1.3789606756,
				"element": "C" 
			},
			{
				"x": 0.267851972,
				"y": -1.0759676451,
				"z": 0.7882786167,
				"element": "C" 
			},
			{
				"x": 0.2814667228,
				"y": -1.5307427736,
				"z": -0.529003274,
				"element": "C" 
			},
			{
				"x": -0.7908323029,
				"y": -2.2817481701,
				"z": -1.044416373,
				"element": "C" 
			},
			{
				"x": -0.7403816703,
				"y": -2.7751725065,
				"z": -2.3475746625,
				"element": "N" 
			},
			{
				"x": -1.8812344916,
				"y": -2.5706414462,
				"z": -0.2071900787,
				"element": "C" 
			},
			{
				"x": -1.8901664018,
				"y": -2.1134624329,
				"z": 1.1083500702,
				"element": "C" 
			},
			{
				"x": -0.827097828,
				"y": -1.3658760559,
				"z": 1.6140575849,
				"element": "C" 
			},
			{
				"x": 2.6925471697,
				"y": 3.5344542712,
				"z": 1.5908591914,
				"element": "H" 
			},
			{
				"x": 1.3230731639,
				"y": 2.622723142,
				"z": 2.2439821162,
				"element": "H" 
			},
			{
				"x": 1.052376465,
				"y": 4.2019281328,
				"z": 1.5083104433,
				"element": "H" 
			},
			{
				"x": 1.7609285333,
				"y": 3.3761018653,
				"z": -0.7031510984,
				"element": "H" 
			},
			{
				"x": -0.6356525072,
				"y": 3.25238313,
				"z": -0.1779474827,
				"element": "H" 
			},
			{
				"x": -0.1814815585,
				"y": 1.9047485476,
				"z": -1.2342044305,
				"element": "H" 
			},
			{
				"x": -0.4709576999,
				"y": 1.6240278016,
				"z": 0.4844206863,
				"element": "H" 
			},
			{
				"x": 4.9083069489,
				"y": 0.1705506491,
				"z": -1.6340861791,
				"element": "H" 
			},
			{
				"x": 3.6631011942,
				"y": -1.4619949002,
				"z": 0.2257723721,
				"element": "H" 
			},
			{
				"x": 2.0040388183,
				"y": -0.9406985701,
				"z": 2.0534176387,
				"element": "H" 
			},
			{
				"x": 1.0498571924,
				"y": 0.5240932323,
				"z": 1.9958325574,
				"element": "H" 
			},
			{
				"x": 1.129392031,
				"y": -1.305232746,
				"z": -1.1694770575,
				"element": "H" 
			},
			{
				"x": -1.6352355233,
				"y": -2.9859795432,
				"z": -2.7667973389,
				"element": "H" 
			},
			{
				"x": -0.1334819533,
				"y": -2.2702591776,
				"z": -2.9784700395,
				"element": "H" 
			},
			{
				"x": -2.7155368729,
				"y": -3.1523915006,
				"z": -0.5910080649,
				"element": "H" 
			},
			{
				"x": -2.7427363875,
				"y": -2.3374519268,
				"z": 1.7436764212,
				"element": "H" 
			},
			{
				"x": -0.8481534709,
				"y": -1.0093514841,
				"z": 2.6406190166,
				"element": "H" 
			}
		],
		 "valence_orbital": [ 
			{
				"type": "occ",
				"energy": -0.25904,
				"method": "rhf"
			},
			{
				"type": "occ",
				"energy": -0.25191,
				"method": "rhf"
			},
			{
				"type": "occ",
				"energy": -0.2458,
				"method": "rhf"
			},
			{
				"type": "occ",
				"energy": -0.2111,
				"method": "rhf"
			},
			{
				"type": "occ",
				"energy": -0.20443,
				"method": "rhf"
			},
			{
				"type": "unocc",
				"energy": -0.00065,
				"method": "rhf"
			},
			{
				"type": "unocc",
				"energy": 0.01012,
				"method": "rhf"
			},
			{
				"type": "unocc",
				"energy": 0.03364,
				"method": "rhf"
			},
			{
				"type": "unocc",
				"energy": 0.07602,
				"method": "rhf"
			},
			{
				"type": "unocc",
				"energy": 0.07946,
				"method": "rhf"
			}
		],
		"cosmo_sigma_profile": { 
			"-0.025": 0.0,
			"-0.024": 0.0,
			"-0.023": 0.0,
			"-0.022": 0.0,
			"-0.021": 0.0,
			"-0.02": 0.0,
			"-0.019": 0.0,
			"-0.018": 0.0,
			"-0.017": 0.0,
			"-0.016": 0.0,
			"-0.015": 0.0,
			"-0.014": 0.0,
			"-0.013": 0.0799043753015,
			"-0.012": 2.24460045043,
			"-0.011": 2.83997987951,
			"-0.01": 2.46519822214,
			"-0.009": 3.32988785591,
			"-0.008": 5.5664507384,
			"-0.007": 7.55186833441,
			"-0.006": 11.3109339906,
			"-0.005": 16.289595907,
			"-0.004": 16.2671989479,
			"-0.003": 22.6846248256,
			"-0.002": 23.2067937149,
			"-0.001": 22.7999480155,
			"0.0": 27.1053683341,
			"0.001": 22.9275279312,
			"0.002": 12.650445615,
			"0.003": 11.2184584727,
			"0.004": 11.5866038265,
			"0.005": 10.6439206712,
			"0.006": 13.5084822636,
			"0.007": 8.6277690586,
			"0.008": 2.98703793651,
			"0.009": 2.62220307112,
			"0.01": 2.31573139129,
			"0.011": 1.89500089052,
			"0.012": 1.72265399709,
			"0.013": 1.96342816638,
			"0.014": 1.86319567509,
			"0.015": 1.0800604816,
			"0.016": 0.693507089333,
			"0.017": 1.41520988846,
			"0.018": 0.616424739983,
			"0.019": 0.544025330978,
			"0.02": 0.0,
			"0.021": 0.0,
			"0.022": 0.0,
			"0.023": 0.0,
			"0.024": 0.0,
			"0.025": 0.0
		}
	}
}
