{
	 "smiles": "NNC(=O)C1=CC=CC2=CC=CC=C12", 
	 "Tm": 440.15, 
	 "num_atms": 24, 
	 "gaussian": { 
		 "optdone": 1, 
		 "sigma_profile": "yes", 
		 "theory": "DFT", 
		 "functional": "B3LYP", 
		 "basiset": "6-31G**", 
		 "properties": { 
			 "R2extent": 2939.9787, 
			 "electric_dipole_moment_norm": 3.78529509154, 
			 "electric_quadrupole_moment_norm": 22.8585708394, 
			 "total_energy": -609.906921897, 
			 "HOMO_LUMO_gap": 0.16724, 
			 "cosmo_polarized_energy": -15.89, 
			 "cosmo_cavitation_energy": 27.76, 
			 "cosmo_dispersion_energy": -20.54, 
			 "cosmo_repulsion_energy": 1.63, 
			 "cosmo_total_nonelectrostatic_energy": 8.84, 
			 "SMD_solvation_energy": 5.76 
		},
		"coords": [
			{
				"x": -3.7096932733,
				"y": -0.487830864,
				"z": -1.4264597796,
				"element": "N" 
			},
			{
				"x": -3.7028649514,
				"y": -0.8150093066,
				"z": -0.0618151104,
				"element": "N" 
			},
			{
				"x": -2.6196771678,
				"y": -0.5980901978,
				"z": 0.7734921115,
				"element": "C" 
			},
			{
				"x": -2.8165511528,
				"y": -0.5563849835,
				"z": 1.9843784167,
				"element": "O" 
			},
			{
				"x": -1.254690444,
				"y": -0.4929987977,
				"z": 0.1612640851,
				"element": "C" 
			},
			{
				"x": -0.8861542716,
				"y": -1.3727117932,
				"z": -0.8408202638,
				"element": "C" 
			},
			{
				"x": 0.4174407884,
				"y": -1.3666441313,
				"z": -1.3812782358,
				"element": "C" 
			},
			{
				"x": 1.3447062194,
				"y": -0.4579347803,
				"z": -0.9278964886,
				"element": "C" 
			},
			{
				"x": 1.0134780165,
				"y": 0.4712611048,
				"z": 0.093187489,
				"element": "C" 
			},
			{
				"x": 1.9666223139,
				"y": 1.4181224318,
				"z": 0.5580136927,
				"element": "C" 
			},
			{
				"x": 1.6464490621,
				"y": 2.3151325082,
				"z": 1.5495743019,
				"element": "C" 
			},
			{
				"x": 0.3522673038,
				"y": 2.2978518854,
				"z": 2.1218959363,
				"element": "C" 
			},
			{
				"x": -0.5955698989,
				"y": 1.3926638969,
				"z": 1.6990038512,
				"element": "C" 
			},
			{
				"x": -0.301367864,
				"y": 0.4524777022,
				"z": 0.6708627044,
				"element": "C" 
			},
			{
				"x": -4.2252332543,
				"y": 0.3755851236,
				"z": -1.5857042391,
				"element": "H" 
			},
			{
				"x": -4.1559444999,
				"y": -1.2348772641,
				"z": -1.9505653512,
				"element": "H" 
			},
			{
				"x": -4.5777201957,
				"y": -0.8259908601,
				"z": 0.4570480495,
				"element": "H" 
			},
			{
				"x": -1.6105954703,
				"y": -2.0884681746,
				"z": -1.2113514492,
				"element": "H" 
			},
			{
				"x": 0.6791925539,
				"y": -2.0798295963,
				"z": -2.1572537413,
				"element": "H" 
			},
			{
				"x": 2.3488650503,
				"y": -0.4389267764,
				"z": -1.3441028692,
				"element": "H" 
			},
			{
				"x": 2.9572594368,
				"y": 1.4188515211,
				"z": 0.1102524944,
				"element": "H" 
			},
			{
				"x": 2.3826095838,
				"y": 3.0345243239,
				"z": 1.8966565796,
				"element": "H" 
			},
			{
				"x": 0.1050638541,
				"y": 3.0044436567,
				"z": 2.9091983649,
				"element": "H" 
			},
			{
				"x": -1.5733917395,
				"y": 1.3711833716,
				"z": 2.1623194509,
				"element": "H" 
			}
		],
		 "valence_orbital": [ 
			{
				"type": "occ",
				"energy": -0.27864,
				"method": "rhf"
			},
			{
				"type": "occ",
				"energy": -0.26015,
				"method": "rhf"
			},
			{
				"type": "occ",
				"energy": -0.24418,
				"method": "rhf"
			},
			{
				"type": "occ",
				"energy": -0.23847,
				"method": "rhf"
			},
			{
				"type": "occ",
				"energy": -0.21089,
				"method": "rhf"
			},
			{
				"type": "unocc",
				"energy": -0.04365,
				"method": "rhf"
			},
			{
				"type": "unocc",
				"energy": -0.00414,
				"method": "rhf"
			},
			{
				"type": "unocc",
				"energy": 0.00885,
				"method": "rhf"
			},
			{
				"type": "unocc",
				"energy": 0.05911,
				"method": "rhf"
			},
			{
				"type": "unocc",
				"energy": 0.06534,
				"method": "rhf"
			}
		],
		"cosmo_sigma_profile": { 
			"-0.025": 0.0,
			"-0.024": 0.0,
			"-0.023": 0.0,
			"-0.022": 0.0,
			"-0.021": 0.0,
			"-0.02": 0.0,
			"-0.019": 0.0,
			"-0.018": 0.0,
			"-0.017": 0.0,
			"-0.016": 0.0,
			"-0.015": 0.0,
			"-0.014": 0.00398861214184,
			"-0.013": 0.927540900793,
			"-0.012": 2.97089498693,
			"-0.011": 5.5664686987,
			"-0.01": 5.28739867834,
			"-0.009": 3.96845754768,
			"-0.008": 3.38836916035,
			"-0.007": 3.72975961995,
			"-0.006": 11.9015737319,
			"-0.005": 14.7868570568,
			"-0.004": 14.9261121308,
			"-0.003": 14.4186496346,
			"-0.002": 12.0809279494,
			"-0.001": 10.2738780161,
			"0.0": 11.2641205727,
			"0.001": 11.1013792042,
			"0.002": 11.2375141772,
			"0.003": 19.2429985649,
			"0.004": 23.0149738983,
			"0.005": 13.8187661533,
			"0.006": 3.27837582857,
			"0.007": 2.9858267381,
			"0.008": 2.74822482523,
			"0.009": 1.96613802382,
			"0.01": 2.01677116852,
			"0.011": 3.03920485081,
			"0.012": 2.78763440231,
			"0.013": 4.47025243985,
			"0.014": 3.85204857434,
			"0.015": 0.210709928254,
			"0.016": 0.0,
			"0.017": 0.0,
			"0.018": 0.0,
			"0.019": 0.0,
			"0.02": 0.0,
			"0.021": 0.0,
			"0.022": 0.0,
			"0.023": 0.0,
			"0.024": 0.0,
			"0.025": 0.0
		}
	}
}
