{
	 "smiles": "CCC1=CC=C(C=C1)N1N=C(C(O)=O)C2=C1CCC2", 
	 "Tm": 457.15, 
	 "num_atms": 35, 
	 "gaussian": { 
		 "optdone": 1, 
		 "sigma_profile": "yes", 
		 "theory": "DFT", 
		 "functional": "B3LYP", 
		 "basiset": "6-31G**", 
		 "properties": { 
			 "R2extent": 6868.2208, 
			 "electric_dipole_moment_norm": 7.17708574353, 
			 "electric_quadrupole_moment_norm": 22.0040451372, 
			 "total_energy": -841.195995696, 
			 "HOMO_LUMO_gap": 0.18659, 
			 "cosmo_polarized_energy": -13.81, 
			 "cosmo_cavitation_energy": 38.29, 
			 "cosmo_dispersion_energy": -27.5, 
			 "cosmo_repulsion_energy": 2.14, 
			 "cosmo_total_nonelectrostatic_energy": 12.93, 
			 "SMD_solvation_energy": 6.39 
		},
		"coords": [
			{
				"x": 2.1548315788,
				"y": 1.0825087706,
				"z": -5.6202796248,
				"element": "C" 
			},
			{
				"x": 2.2288441585,
				"y": -0.3153262923,
				"z": -4.979026877,
				"element": "C" 
			},
			{
				"x": 1.5397856817,
				"y": -0.3823860109,
				"z": -3.633101362,
				"element": "C" 
			},
			{
				"x": 0.1873697111,
				"y": -0.7297601396,
				"z": -3.5281321073,
				"element": "C" 
			},
			{
				"x": -0.4656630575,
				"y": -0.7518835651,
				"z": -2.2966931698,
				"element": "C" 
			},
			{
				"x": 0.2426138685,
				"y": -0.4368062852,
				"z": -1.1335316383,
				"element": "C" 
			},
			{
				"x": 1.5948839208,
				"y": -0.0881197402,
				"z": -1.2123279466,
				"element": "C" 
			},
			{
				"x": 2.2249792331,
				"y": -0.0595034852,
				"z": -2.4527420992,
				"element": "C" 
			},
			{
				"x": -0.4027796808,
				"y": -0.4721454115,
				"z": 0.1330543426,
				"element": "N" 
			},
			{
				"x": 0.0692088838,
				"y": 0.279967706,
				"z": 1.1592673405,
				"element": "N" 
			},
			{
				"x": -0.7169882374,
				"y": 0.004647295,
				"z": 2.2110238866,
				"element": "C" 
			},
			{
				"x": -0.467597062,
				"y": 0.6760327397,
				"z": 3.5088840585,
				"element": "C" 
			},
			{
				"x": 0.5600101186,
				"y": 1.5550323974,
				"z": 3.498972621,
				"element": "O" 
			},
			{
				"x": -1.1236109543,
				"y": 0.4624221634,
				"z": 4.5035244223,
				"element": "O" 
			},
			{
				"x": -1.7023200342,
				"y": -0.9427721312,
				"z": 1.8678187752,
				"element": "C" 
			},
			{
				"x": -1.4722030916,
				"y": -1.223958204,
				"z": 0.5439398898,
				"element": "C" 
			},
			{
				"x": -2.4221257276,
				"y": -2.2333253439,
				"z": -0.031951112,
				"element": "C" 
			},
			{
				"x": -3.082857108,
				"y": -2.7866992293,
				"z": 1.2769752202,
				"element": "C" 
			},
			{
				"x": -2.8686638727,
				"y": -1.7198122248,
				"z": 2.4027353261,
				"element": "C" 
			},
			{
				"x": 2.6263363264,
				"y": 1.8341680235,
				"z": -4.9790424966,
				"element": "H" 
			},
			{
				"x": 1.1152994715,
				"y": 1.3873560216,
				"z": -5.7784050034,
				"element": "H" 
			},
			{
				"x": 2.6641010525,
				"y": 1.0950219613,
				"z": -6.5894264539,
				"element": "H" 
			},
			{
				"x": 1.7771040404,
				"y": -1.0485625741,
				"z": -5.6575467779,
				"element": "H" 
			},
			{
				"x": 3.2804163396,
				"y": -0.6042818497,
				"z": -4.864746909,
				"element": "H" 
			},
			{
				"x": -0.3722502912,
				"y": -0.9800876675,
				"z": -4.4258631424,
				"element": "H" 
			},
			{
				"x": -1.5201255103,
				"y": -0.9978201711,
				"z": -2.2481927779,
				"element": "H" 
			},
			{
				"x": 2.1341732326,
				"y": 0.1510147246,
				"z": -0.3039760547,
				"element": "H" 
			},
			{
				"x": 3.2775902546,
				"y": 0.2078528115,
				"z": -2.5027613808,
				"element": "H" 
			},
			{
				"x": 0.9318614089,
				"y": 1.5665549379,
				"z": 2.5987267807,
				"element": "H" 
			},
			{
				"x": -3.1658928704,
				"y": -1.7574561213,
				"z": -0.6855077305,
				"element": "H" 
			},
			{
				"x": -1.9362227896,
				"y": -3.0200944618,
				"z": -0.6181300398,
				"element": "H" 
			},
			{
				"x": -4.1373214431,
				"y": -3.0334649179,
				"z": 1.1277691241,
				"element": "H" 
			},
			{
				"x": -2.5701590494,
				"y": -3.7108869067,
				"z": 1.5614787729,
				"element": "H" 
			},
			{
				"x": -2.6771754001,
				"y": -2.1766648899,
				"z": 3.3773741527,
				"element": "H" 
			},
			{
				"x": -3.7488531012,
				"y": -1.0759619293,
				"z": 2.5249399906,
				"element": "H" 
			}
		],
		 "valence_orbital": [ 
			{
				"type": "occ",
				"energy": -0.28916,
				"method": "rhf"
			},
			{
				"type": "occ",
				"energy": -0.26667,
				"method": "rhf"
			},
			{
				"type": "occ",
				"energy": -0.26183,
				"method": "rhf"
			},
			{
				"type": "occ",
				"energy": -0.24822,
				"method": "rhf"
			},
			{
				"type": "occ",
				"energy": -0.23145,
				"method": "rhf"
			},
			{
				"type": "unocc",
				"energy": -0.04486,
				"method": "rhf"
			},
			{
				"type": "unocc",
				"energy": -0.01844,
				"method": "rhf"
			},
			{
				"type": "unocc",
				"energy": -0.00333,
				"method": "rhf"
			},
			{
				"type": "unocc",
				"energy": 0.03405,
				"method": "rhf"
			},
			{
				"type": "unocc",
				"energy": 0.07532,
				"method": "rhf"
			}
		],
		"cosmo_sigma_profile": { 
			"-0.025": 0.0,
			"-0.024": 0.0,
			"-0.023": 0.0,
			"-0.022": 0.0,
			"-0.021": 0.0,
			"-0.02": 0.0,
			"-0.019": 0.0,
			"-0.018": 0.0,
			"-0.017": 0.0,
			"-0.016": 0.0,
			"-0.015": 0.0198415523533,
			"-0.014": 0.47245728035,
			"-0.013": 0.471943598582,
			"-0.012": 0.819587848782,
			"-0.011": 0.706779144091,
			"-0.01": 0.517471821517,
			"-0.009": 0.394775497391,
			"-0.008": 0.485451408819,
			"-0.007": 2.70422048776,
			"-0.006": 8.25946767733,
			"-0.005": 14.8240399346,
			"-0.004": 26.4079227372,
			"-0.003": 35.9907159385,
			"-0.002": 35.6085347992,
			"-0.001": 33.5545306,
			"0.0": 30.8412148242,
			"0.001": 25.2083039564,
			"0.002": 17.5275095105,
			"0.003": 13.6074951153,
			"0.004": 14.0201751965,
			"0.005": 9.19568142185,
			"0.006": 3.75137808517,
			"0.007": 3.74298327696,
			"0.008": 3.1210118999,
			"0.009": 3.50737841493,
			"0.01": 5.29465126361,
			"0.011": 4.87422278281,
			"0.012": 5.16217723272,
			"0.013": 2.00737284967,
			"0.014": 0.212882848022,
			"0.015": 0.0,
			"0.016": 0.0,
			"0.017": 0.0,
			"0.018": 0.0,
			"0.019": 0.0,
			"0.02": 0.0,
			"0.021": 0.0,
			"0.022": 0.0,
			"0.023": 0.0,
			"0.024": 0.0,
			"0.025": 0.0
		}
	}
}
