{
	 "smiles": "C(C1CCNCC1)N1C=CC=N1", 
	 "Tm": 319.15, 
	 "num_atms": 27, 
	 "gaussian": { 
		 "optdone": 1, 
		 "sigma_profile": "yes", 
		 "theory": "DFT", 
		 "functional": "B3LYP", 
		 "basiset": "6-31G**", 
		 "properties": { 
			 "R2extent": 2535.697, 
			 "electric_dipole_moment_norm": 2.89047259285, 
			 "electric_quadrupole_moment_norm": 5.93764422646, 
			 "total_energy": -516.228292932, 
			 "HOMO_LUMO_gap": 0.23398, 
			 "cosmo_polarized_energy": -10.37, 
			 "cosmo_cavitation_energy": 27.84, 
			 "cosmo_dispersion_energy": -20.3, 
			 "cosmo_repulsion_energy": 1.6, 
			 "cosmo_total_nonelectrostatic_energy": 9.14, 
			 "SMD_solvation_energy": 1.18 
		},
		"coords": [
			{
				"x": 0.2524376575,
				"y": 0.6680701121,
				"z": 0.9518395154,
				"element": "C" 
			},
			{
				"x": 0.9687652999,
				"y": -0.3710940358,
				"z": 0.0607835898,
				"element": "C" 
			},
			{
				"x": 0.1603939943,
				"y": -1.6743228287,
				"z": -0.1231288372,
				"element": "C" 
			},
			{
				"x": 0.1864097358,
				"y": -2.5591825299,
				"z": 1.1359614233,
				"element": "C" 
			},
			{
				"x": 1.5338602798,
				"y": -2.8483982828,
				"z": 1.643392227,
				"element": "N" 
			},
			{
				"x": 2.31084421,
				"y": -1.6240669284,
				"z": 1.8527908232,
				"element": "C" 
			},
			{
				"x": 2.3712513292,
				"y": -0.6976811568,
				"z": 0.6220922945,
				"element": "C" 
			},
			{
				"x": -1.0232195373,
				"y": 1.1222472866,
				"z": 0.4149721334,
				"element": "N" 
			},
			{
				"x": -1.2384905394,
				"y": 2.0840161523,
				"z": -0.523181117,
				"element": "C" 
			},
			{
				"x": -2.6000567418,
				"y": 2.1182582729,
				"z": -0.7603870424,
				"element": "C" 
			},
			{
				"x": -3.1270075246,
				"y": 1.1235576578,
				"z": 0.0909736796,
				"element": "C" 
			},
			{
				"x": -2.1721609023,
				"y": 0.5199585113,
				"z": 0.8008032366,
				"element": "N" 
			},
			{
				"x": 0.8952966423,
				"y": 1.546634574,
				"z": 1.0758583577,
				"element": "H" 
			},
			{
				"x": 0.0380401337,
				"y": 0.2721931006,
				"z": 1.9460870879,
				"element": "H" 
			},
			{
				"x": 1.0928048046,
				"y": 0.0999894102,
				"z": -0.9239089695,
				"element": "H" 
			},
			{
				"x": 0.5991591444,
				"y": -2.235874201,
				"z": -0.9598279661,
				"element": "H" 
			},
			{
				"x": -0.8743465022,
				"y": -1.4452339751,
				"z": -0.3980034377,
				"element": "H" 
			},
			{
				"x": -0.3797993008,
				"y": -2.074949769,
				"z": 1.9420867127,
				"element": "H" 
			},
			{
				"x": -0.3194954693,
				"y": -3.5102000765,
				"z": 0.9365878865,
				"element": "H" 
			},
			{
				"x": 2.0211927468,
				"y": -3.4346460306,
				"z": 0.9671743954,
				"element": "H" 
			},
			{
				"x": 1.8659214413,
				"y": -1.0910209802,
				"z": 2.7043324133,
				"element": "H" 
			},
			{
				"x": 3.3245749643,
				"y": -1.9023032665,
				"z": 2.162502825,
				"element": "H" 
			},
			{
				"x": 2.9145434779,
				"y": 0.2252540701,
				"z": 0.8678628998,
				"element": "H" 
			},
			{
				"x": 2.9512258355,
				"y": -1.1992569352,
				"z": -0.1644510588,
				"element": "H" 
			},
			{
				"x": -0.4240453138,
				"y": 2.6640691096,
				"z": -0.9331423186,
				"element": "H" 
			},
			{
				"x": -3.1307797342,
				"y": 2.7720033703,
				"z": -1.4362635332,
				"element": "H" 
			},
			{
				"x": -4.1589201318,
				"y": 0.8266793688,
				"z": 0.2239927793,
				"element": "H" 
			}
		],
		 "valence_orbital": [ 
			{
				"type": "occ",
				"energy": -0.31208,
				"method": "rhf"
			},
			{
				"type": "occ",
				"energy": -0.28103,
				"method": "rhf"
			},
			{
				"type": "occ",
				"energy": -0.24254,
				"method": "rhf"
			},
			{
				"type": "occ",
				"energy": -0.23905,
				"method": "rhf"
			},
			{
				"type": "occ",
				"energy": -0.21164,
				"method": "rhf"
			},
			{
				"type": "unocc",
				"energy": 0.02234,
				"method": "rhf"
			},
			{
				"type": "unocc",
				"energy": 0.07189,
				"method": "rhf"
			},
			{
				"type": "unocc",
				"energy": 0.0754,
				"method": "rhf"
			},
			{
				"type": "unocc",
				"energy": 0.09736,
				"method": "rhf"
			},
			{
				"type": "unocc",
				"energy": 0.10455,
				"method": "rhf"
			}
		],
		"cosmo_sigma_profile": { 
			"-0.025": 0.0,
			"-0.024": 0.0,
			"-0.023": 0.0,
			"-0.022": 0.0,
			"-0.021": 0.0,
			"-0.02": 0.0,
			"-0.019": 0.0,
			"-0.018": 0.0,
			"-0.017": 0.0,
			"-0.016": 0.0,
			"-0.015": 0.0,
			"-0.014": 0.0,
			"-0.013": 0.0,
			"-0.012": 0.0,
			"-0.011": 0.0,
			"-0.01": 0.0537488893681,
			"-0.009": 1.22496219808,
			"-0.008": 3.822451803,
			"-0.007": 4.88952092656,
			"-0.006": 8.62854282736,
			"-0.005": 12.5262369408,
			"-0.004": 14.9680952067,
			"-0.003": 25.6974133427,
			"-0.002": 25.7813056355,
			"-0.001": 23.7415247603,
			"0.0": 20.6747921817,
			"0.001": 14.4784873597,
			"0.002": 8.72607056796,
			"0.003": 7.14786511488,
			"0.004": 7.50467386345,
			"0.005": 8.97479132185,
			"0.006": 7.32592980293,
			"0.007": 3.94817169223,
			"0.008": 2.22762595846,
			"0.009": 2.59368105503,
			"0.01": 2.26012844623,
			"0.011": 0.901073334075,
			"0.012": 2.34283916844,
			"0.013": 1.51479290171,
			"0.014": 1.52460119591,
			"0.015": 1.4988055223,
			"0.016": 0.67082187206,
			"0.017": 0.223229753866,
			"0.018": 0.694124219874,
			"0.019": 0.534942188928,
			"0.02": 0.0,
			"0.021": 0.0,
			"0.022": 0.0,
			"0.023": 0.0,
			"0.024": 0.0,
			"0.025": 0.0
		}
	}
}
