{
	 "smiles": "NC1=C(C2=C(CCCC2)S1)C1=NC2=C(S1)C=CC=C2", 
	 "Tm": 375.15, 
	 "num_atms": 33, 
	 "gaussian": { 
		 "optdone": 1, 
		 "sigma_profile": "yes", 
		 "theory": "DFT", 
		 "functional": "B3LYP", 
		 "basiset": "6-31G**", 
		 "properties": { 
			 "R2extent": 7147.3403, 
			 "electric_dipole_moment_norm": 0.905195056328, 
			 "electric_quadrupole_moment_norm": 12.8120500947, 
			 "total_energy": -1485.93828987, 
			 "HOMO_LUMO_gap": 0.14437, 
			 "cosmo_polarized_energy": -8.38, 
			 "cosmo_cavitation_energy": 37.26, 
			 "cosmo_dispersion_energy": -29.04, 
			 "cosmo_repulsion_energy": 2.12, 
			 "cosmo_total_nonelectrostatic_energy": 10.34, 
			 "SMD_solvation_energy": 3.54 
		},
		"coords": [
			{
				"x": -0.588005963,
				"y": 1.43554607,
				"z": -2.446382075,
				"element": "N" 
			},
			{
				"x": -1.3315757478,
				"y": 0.6553079285,
				"z": -1.6222072075,
				"element": "C" 
			},
			{
				"x": -1.0778171925,
				"y": 0.3537343404,
				"z": -0.2762798682,
				"element": "C" 
			},
			{
				"x": -2.145129541,
				"y": -0.4575190216,
				"z": 0.2993157123,
				"element": "C" 
			},
			{
				"x": -3.1267090663,
				"y": -0.773294247,
				"z": -0.5903547007,
				"element": "C" 
			},
			{
				"x": -4.3481293319,
				"y": -1.6100075405,
				"z": -0.3314429911,
				"element": "C" 
			},
			{
				"x": -4.1774146896,
				"y": -2.3922582114,
				"z": 0.9817507888,
				"element": "C" 
			},
			{
				"x": -3.6254838288,
				"y": -1.4807387426,
				"z": 2.0839273009,
				"element": "C" 
			},
			{
				"x": -2.2278243363,
				"y": -0.9398756815,
				"z": 1.7315992903,
				"element": "C" 
			},
			{
				"x": -2.8270613171,
				"y": -0.0617006828,
				"z": -2.1759487545,
				"element": "S" 
			},
			{
				"x": 0.1516552717,
				"y": 0.7993096412,
				"z": 0.3398703252,
				"element": "C" 
			},
			{
				"x": 1.0358221808,
				"y": 1.557873656,
				"z": -0.2714740235,
				"element": "N" 
			},
			{
				"x": 2.1448426404,
				"y": 1.8198468594,
				"z": 0.5063107957,
				"element": "C" 
			},
			{
				"x": 2.1297934791,
				"y": 1.2380384448,
				"z": 1.7955533514,
				"element": "C" 
			},
			{
				"x": 0.6469233697,
				"y": 0.3285937631,
				"z": 2.0017965415,
				"element": "S" 
			},
			{
				"x": 3.1822074683,
				"y": 1.4222693108,
				"z": 2.6935041059,
				"element": "C" 
			},
			{
				"x": 4.266091517,
				"y": 2.199585274,
				"z": 2.2880618992,
				"element": "C" 
			},
			{
				"x": 4.2944941207,
				"y": 2.7826675301,
				"z": 1.0103947213,
				"element": "C" 
			},
			{
				"x": 3.2445243673,
				"y": 2.6004413339,
				"z": 0.1172230557,
				"element": "C" 
			},
			{
				"x": 0.3082405061,
				"y": 1.722198779,
				"z": -2.0507398763,
				"element": "H" 
			},
			{
				"x": -0.6921758745,
				"y": 1.3452119213,
				"z": -3.4445606133,
				"element": "H" 
			},
			{
				"x": -5.2429244887,
				"y": -0.9725707855,
				"z": -0.2695576607,
				"element": "H" 
			},
			{
				"x": -4.5256705155,
				"y": -2.3027671629,
				"z": -1.1639067824,
				"element": "H" 
			},
			{
				"x": -5.1379874402,
				"y": -2.8247803001,
				"z": 1.2829714131,
				"element": "H" 
			},
			{
				"x": -3.4858392905,
				"y": -3.2290911367,
				"z": 0.8196470616,
				"element": "H" 
			},
			{
				"x": -4.3134719219,
				"y": -0.6373305644,
				"z": 2.2284924264,
				"element": "H" 
			},
			{
				"x": -3.5778995974,
				"y": -2.0158162685,
				"z": 3.0387616176,
				"element": "H" 
			},
			{
				"x": -1.4753737047,
				"y": -1.7228175601,
				"z": 1.9036547657,
				"element": "H" 
			},
			{
				"x": -1.9774846813,
				"y": -0.1243970005,
				"z": 2.4194461112,
				"element": "H" 
			},
			{
				"x": 3.1610161237,
				"y": 0.9725336299,
				"z": 3.6812013767,
				"element": "H" 
			},
			{
				"x": 5.0966792875,
				"y": 2.35486746,
				"z": 2.969981152,
				"element": "H" 
			},
			{
				"x": 5.1489908696,
				"y": 3.3852353539,
				"z": 0.7168458553,
				"element": "H" 
			},
			{
				"x": 3.2567973271,
				"y": 3.0491036099,
				"z": -0.8709551146,
				"element": "H" 
			}
		],
		 "valence_orbital": [ 
			{
				"type": "occ",
				"energy": -0.27284,
				"method": "rhf"
			},
			{
				"type": "occ",
				"energy": -0.26292,
				"method": "rhf"
			},
			{
				"type": "occ",
				"energy": -0.22898,
				"method": "rhf"
			},
			{
				"type": "occ",
				"energy": -0.22166,
				"method": "rhf"
			},
			{
				"type": "occ",
				"energy": -0.18095,
				"method": "rhf"
			},
			{
				"type": "unocc",
				"energy": -0.03658,
				"method": "rhf"
			},
			{
				"type": "unocc",
				"energy": 0.00026,
				"method": "rhf"
			},
			{
				"type": "unocc",
				"energy": 0.00962,
				"method": "rhf"
			},
			{
				"type": "unocc",
				"energy": 0.01186,
				"method": "rhf"
			},
			{
				"type": "unocc",
				"energy": 0.02433,
				"method": "rhf"
			}
		],
		"cosmo_sigma_profile": { 
			"-0.025": 0.0,
			"-0.024": 0.0,
			"-0.023": 0.0,
			"-0.022": 0.0,
			"-0.021": 0.0,
			"-0.02": 0.0,
			"-0.019": 0.0,
			"-0.018": 0.0,
			"-0.017": 0.0,
			"-0.016": 0.0,
			"-0.015": 0.183288918209,
			"-0.014": 1.43849765287,
			"-0.013": 0.886683138499,
			"-0.012": 1.33543327166,
			"-0.011": 1.29103107597,
			"-0.01": 1.71707194093,
			"-0.009": 1.35256095921,
			"-0.008": 1.68139725307,
			"-0.007": 2.96167361487,
			"-0.006": 7.7053490757,
			"-0.005": 10.1574411166,
			"-0.004": 15.1420900294,
			"-0.003": 25.065684891,
			"-0.002": 33.2582702918,
			"-0.001": 32.113801356,
			"0.0": 27.3191625103,
			"0.001": 23.0207947345,
			"0.002": 23.3398471671,
			"0.003": 27.9609721093,
			"0.004": 28.2540512847,
			"0.005": 23.3461881182,
			"0.006": 6.55798672934,
			"0.007": 1.83156379505,
			"0.008": 1.56043915657,
			"0.009": 0.674271400244,
			"0.01": 0.1884063648,
			"0.011": 0.0,
			"0.012": 0.0,
			"0.013": 0.0,
			"0.014": 0.0,
			"0.015": 0.0,
			"0.016": 0.0,
			"0.017": 0.0,
			"0.018": 0.0,
			"0.019": 0.0,
			"0.02": 0.0,
			"0.021": 0.0,
			"0.022": 0.0,
			"0.023": 0.0,
			"0.024": 0.0,
			"0.025": 0.0
		}
	}
}
