{
	 "smiles": "NC1=NC(C=CC2=CC=CC=C2)=CS1", 
	 "Tm": 421.15, 
	 "num_atms": 24, 
	 "gaussian": { 
		 "optdone": 1, 
		 "sigma_profile": "yes", 
		 "theory": "DFT", 
		 "functional": "B3LYP", 
		 "basiset": "6-31G**", 
		 "properties": { 
			 "R2extent": 4191.0666, 
			 "electric_dipole_moment_norm": 2.35234824803, 
			 "electric_quadrupole_moment_norm": 17.4073126568, 
			 "total_energy": -932.867757425, 
			 "HOMO_LUMO_gap": 0.15031, 
			 "cosmo_polarized_energy": -12.06, 
			 "cosmo_cavitation_energy": 29.9, 
			 "cosmo_dispersion_energy": -22.45, 
			 "cosmo_repulsion_energy": 1.7, 
			 "cosmo_total_nonelectrostatic_energy": 9.15, 
			 "SMD_solvation_energy": 4.3 
		},
		"coords": [
			{
				"x": -3.5804537963,
				"y": 1.5785800557,
				"z": -0.4470993418,
				"element": "N" 
			},
			{
				"x": -2.2561250393,
				"y": 1.8156678626,
				"z": -0.7337479318,
				"element": "C" 
			},
			{
				"x": -1.3118383828,
				"y": 0.9339818991,
				"z": -0.6044063701,
				"element": "N" 
			},
			{
				"x": -0.0865805872,
				"y": 1.4250779499,
				"z": -1.0381162649,
				"element": "C" 
			},
			{
				"x": 1.1695099371,
				"y": 0.6858804701,
				"z": -1.0161970752,
				"element": "C" 
			},
			{
				"x": 1.56402035,
				"y": -0.5606442276,
				"z": -0.6515893811,
				"element": "C" 
			},
			{
				"x": 0.9287334422,
				"y": -1.7710650295,
				"z": -0.1168133095,
				"element": "C" 
			},
			{
				"x": 1.7861614087,
				"y": -2.8608566192,
				"z": 0.1503880177,
				"element": "C" 
			},
			{
				"x": 1.302797409,
				"y": -4.0648305472,
				"z": 0.6542070756,
				"element": "C" 
			},
			{
				"x": -0.0621898098,
				"y": -4.2166706226,
				"z": 0.9047213788,
				"element": "C" 
			},
			{
				"x": -0.9268042023,
				"y": -3.1506990449,
				"z": 0.6447168651,
				"element": "C" 
			},
			{
				"x": -0.4459333091,
				"y": -1.9434400664,
				"z": 0.1420772247,
				"element": "C" 
			},
			{
				"x": -0.1249401182,
				"y": 2.7211996362,
				"z": -1.4976245111,
				"element": "C" 
			},
			{
				"x": -1.7385454263,
				"y": 3.3666716091,
				"z": -1.4143933133,
				"element": "S" 
			},
			{
				"x": -4.1346689555,
				"y": 2.3713974395,
				"z": -0.1571778635,
				"element": "H" 
			},
			{
				"x": -3.7256378344,
				"y": 0.7492636086,
				"z": 0.1135938933,
				"element": "H" 
			},
			{
				"x": 1.9835405141,
				"y": 1.3073737332,
				"z": -1.3860354834,
				"element": "H" 
			},
			{
				"x": 2.6343600389,
				"y": -0.7111410097,
				"z": -0.7916659355,
				"element": "H" 
			},
			{
				"x": 2.8507753161,
				"y": -2.7532480361,
				"z": -0.0433584263,
				"element": "H" 
			},
			{
				"x": 1.9900631317,
				"y": -4.8833659248,
				"z": 0.8495861594,
				"element": "H" 
			},
			{
				"x": -0.4472511291,
				"y": -5.1540116182,
				"z": 1.2964684796,
				"element": "H" 
			},
			{
				"x": -1.991397489,
				"y": -3.2611699309,
				"z": 0.8350014872,
				"element": "H" 
			},
			{
				"x": -1.1222679138,
				"y": -1.1210858241,
				"z": -0.0529286461,
				"element": "H" 
			},
			{
				"x": 0.692072445,
				"y": 3.3225342372,
				"z": -1.8683067278,
				"element": "H" 
			}
		],
		 "valence_orbital": [ 
			{
				"type": "occ",
				"energy": -0.2742,
				"method": "rhf"
			},
			{
				"type": "occ",
				"energy": -0.27225,
				"method": "rhf"
			},
			{
				"type": "occ",
				"energy": -0.23871,
				"method": "rhf"
			},
			{
				"type": "occ",
				"energy": -0.23555,
				"method": "rhf"
			},
			{
				"type": "occ",
				"energy": -0.19205,
				"method": "rhf"
			},
			{
				"type": "unocc",
				"energy": -0.04174,
				"method": "rhf"
			},
			{
				"type": "unocc",
				"energy": 0.00137,
				"method": "rhf"
			},
			{
				"type": "unocc",
				"energy": 0.00912,
				"method": "rhf"
			},
			{
				"type": "unocc",
				"energy": 0.01271,
				"method": "rhf"
			},
			{
				"type": "unocc",
				"energy": 0.04625,
				"method": "rhf"
			}
		],
		"cosmo_sigma_profile": { 
			"-0.025": 0.0,
			"-0.024": 0.0,
			"-0.023": 0.0,
			"-0.022": 0.0,
			"-0.021": 0.0,
			"-0.02": 0.0,
			"-0.019": 0.0,
			"-0.018": 0.0,
			"-0.017": 0.0,
			"-0.016": 0.0,
			"-0.015": 0.379818252799,
			"-0.014": 2.13384579277,
			"-0.013": 2.86042184338,
			"-0.012": 2.50380848374,
			"-0.011": 2.77774948762,
			"-0.01": 2.39310289385,
			"-0.009": 2.19028100246,
			"-0.008": 3.63945746772,
			"-0.007": 4.85566395847,
			"-0.006": 8.49414608829,
			"-0.005": 14.918301493,
			"-0.004": 14.6098327492,
			"-0.003": 16.2890148222,
			"-0.002": 11.4945947981,
			"-0.001": 11.9096708057,
			"0.0": 12.3264952986,
			"0.001": 16.199163215,
			"0.002": 17.0029808651,
			"0.003": 20.4219526302,
			"0.004": 24.6820122946,
			"0.005": 23.961934534,
			"0.006": 16.6164226916,
			"0.007": 4.56724197999,
			"0.008": 2.29392853049,
			"0.009": 1.11479173651,
			"0.01": 0.719720884852,
			"0.011": 0.574988314669,
			"0.012": 0.168229999175,
			"0.013": 0.0,
			"0.014": 0.0,
			"0.015": 0.0,
			"0.016": 0.0,
			"0.017": 0.0,
			"0.018": 0.0,
			"0.019": 0.0,
			"0.02": 0.0,
			"0.021": 0.0,
			"0.022": 0.0,
			"0.023": 0.0,
			"0.024": 0.0,
			"0.025": 0.0
		}
	}
}
