{
	 "smiles": "ClC1=CC=C(NC(=O)CNCC2=CN=CC=C2)C=C1", 
	 "Tm": 355.15, 
	 "num_atms": 33, 
	 "gaussian": { 
		 "optdone": 1, 
		 "sigma_profile": "yes", 
		 "theory": "DFT", 
		 "functional": "B3LYP", 
		 "basiset": "6-31G**", 
		 "properties": { 
			 "R2extent": 7810.5735, 
			 "electric_dipole_moment_norm": 1.94649730028, 
			 "electric_quadrupole_moment_norm": 16.1278235736, 
			 "total_energy": -1241.59916812, 
			 "HOMO_LUMO_gap": 0.20158, 
			 "cosmo_polarized_energy": -16.67, 
			 "cosmo_cavitation_energy": 39.39, 
			 "cosmo_dispersion_energy": -27.17, 
			 "cosmo_repulsion_energy": 2.15, 
			 "cosmo_total_nonelectrostatic_energy": 14.37, 
			 "SMD_solvation_energy": 3.49 
		},
		"coords": [
			{
				"x": 3.5150433053,
				"y": -4.7792922567,
				"z": -0.290541325,
				"element": "Cl" 
			},
			{
				"x": 2.0259626084,
				"y": -4.0110501871,
				"z": -0.8145657704,
				"element": "C" 
			},
			{
				"x": 2.0814320743,
				"y": -2.868469688,
				"z": -1.6101477381,
				"element": "C" 
			},
			{
				"x": 0.8987410484,
				"y": -2.2660337929,
				"z": -2.0370909037,
				"element": "C" 
			},
			{
				"x": -0.344211819,
				"y": -2.7809655378,
				"z": -1.6442540252,
				"element": "C" 
			},
			{
				"x": -1.5707113185,
				"y": -2.2170611023,
				"z": -2.0662614354,
				"element": "N" 
			},
			{
				"x": -1.9987627377,
				"y": -0.9055365679,
				"z": -2.1333421373,
				"element": "C" 
			},
			{
				"x": -3.1526175546,
				"y": -0.6615540344,
				"z": -2.463887369,
				"element": "O" 
			},
			{
				"x": -1.0212873974,
				"y": 0.2338031081,
				"z": -1.7964621811,
				"element": "C" 
			},
			{
				"x": -1.7025235246,
				"y": 1.4772467452,
				"z": -1.4759489358,
				"element": "N" 
			},
			{
				"x": -2.3452737731,
				"y": 1.4766270953,
				"z": -0.1546292189,
				"element": "C" 
			},
			{
				"x": -1.3432927081,
				"y": 1.6304816107,
				"z": 0.9718293871,
				"element": "C" 
			},
			{
				"x": -1.4675908494,
				"y": 0.8957016661,
				"z": 2.1563814363,
				"element": "C" 
			},
			{
				"x": -0.6471545778,
				"y": 1.00682119,
				"z": 3.2087426811,
				"element": "N" 
			},
			{
				"x": 0.3616768388,
				"y": 1.8794901745,
				"z": 3.1062526984,
				"element": "C" 
			},
			{
				"x": 0.591935293,
				"y": 2.6579087165,
				"z": 1.9692887825,
				"element": "C" 
			},
			{
				"x": -0.2739926313,
				"y": 2.5297710944,
				"z": 0.8865487192,
				"element": "C" 
			},
			{
				"x": -0.378326508,
				"y": -3.9353350302,
				"z": -0.847042165,
				"element": "C" 
			},
			{
				"x": 0.7982899829,
				"y": -4.5558878793,
				"z": -0.4377958048,
				"element": "C" 
			},
			{
				"x": 3.0403443614,
				"y": -2.4632341198,
				"z": -1.9132737648,
				"element": "H" 
			},
			{
				"x": 0.9514606114,
				"y": -1.408372433,
				"z": -2.6967995189,
				"element": "H" 
			},
			{
				"x": -2.3353881933,
				"y": -2.8638347476,
				"z": -2.2226343561,
				"element": "H" 
			},
			{
				"x": -0.3585644918,
				"y": -0.0488667969,
				"z": -0.9730264334,
				"element": "H" 
			},
			{
				"x": -0.3804275489,
				"y": 0.3978619593,
				"z": -2.6728166417,
				"element": "H" 
			},
			{
				"x": -2.4272696593,
				"y": 1.614436507,
				"z": -2.1767749577,
				"element": "H" 
			},
			{
				"x": -3.0331519867,
				"y": 2.3314752474,
				"z": -0.1397335404,
				"element": "H" 
			},
			{
				"x": -2.9648656228,
				"y": 0.5827977514,
				"z": 0.026336265,
				"element": "H" 
			},
			{
				"x": -2.2787055914,
				"y": 0.1740885342,
				"z": 2.2591472002,
				"element": "H" 
			},
			{
				"x": 1.01978785,
				"y": 1.9572603264,
				"z": 3.9702584385,
				"element": "H" 
			},
			{
				"x": 1.431393786,
				"y": 3.3461140448,
				"z": 1.9380242705,
				"element": "H" 
			},
			{
				"x": -0.1320697315,
				"y": 3.102295266,
				"z": -0.0251578833,
				"element": "H" 
			},
			{
				"x": -1.3362349354,
				"y": -4.3432638857,
				"z": -0.5370033398,
				"element": "H" 
			},
			{
				"x": 0.7637554009,
				"y": -5.4469229775,
				"z": 0.1789795672,
				"element": "H" 
			}
		],
		 "valence_orbital": [ 
			{
				"type": "occ",
				"energy": -0.27168,
				"method": "rhf"
			},
			{
				"type": "occ",
				"energy": -0.254,
				"method": "rhf"
			},
			{
				"type": "occ",
				"energy": -0.24868,
				"method": "rhf"
			},
			{
				"type": "occ",
				"energy": -0.23986,
				"method": "rhf"
			},
			{
				"type": "occ",
				"energy": -0.23334,
				"method": "rhf"
			},
			{
				"type": "unocc",
				"energy": -0.03176,
				"method": "rhf"
			},
			{
				"type": "unocc",
				"energy": -0.02869,
				"method": "rhf"
			},
			{
				"type": "unocc",
				"energy": -0.02123,
				"method": "rhf"
			},
			{
				"type": "unocc",
				"energy": -0.00795,
				"method": "rhf"
			},
			{
				"type": "unocc",
				"energy": 0.01866,
				"method": "rhf"
			}
		],
		"cosmo_sigma_profile": { 
			"-0.025": 0.0,
			"-0.024": 0.0,
			"-0.023": 0.0,
			"-0.022": 0.0,
			"-0.021": 0.0,
			"-0.02": 0.0,
			"-0.019": 0.0,
			"-0.018": 0.0,
			"-0.017": 0.0,
			"-0.016": 0.0,
			"-0.015": 0.127881546862,
			"-0.014": 1.03106131756,
			"-0.013": 1.32056605892,
			"-0.012": 1.14961026231,
			"-0.011": 0.906630190992,
			"-0.01": 1.41461508011,
			"-0.009": 3.45277106814,
			"-0.008": 5.86199898229,
			"-0.007": 10.6823821674,
			"-0.006": 18.0543335614,
			"-0.005": 23.6356544402,
			"-0.004": 22.7954116247,
			"-0.003": 20.3687213524,
			"-0.002": 19.082872208,
			"-0.001": 20.6251285823,
			"0.0": 19.8100564199,
			"0.001": 23.0398519396,
			"0.002": 28.7610924217,
			"0.003": 31.3383515564,
			"0.004": 17.2493298064,
			"0.005": 11.231862822,
			"0.006": 4.35554693427,
			"0.007": 3.30319481868,
			"0.008": 3.67641681956,
			"0.009": 2.22945785989,
			"0.01": 2.62998605359,
			"0.011": 3.86553074887,
			"0.012": 4.41704816947,
			"0.013": 5.8972738709,
			"0.014": 1.34269855174,
			"0.015": 1.39211862508,
			"0.016": 0.665305504191,
			"0.017": 0.640749336187,
			"0.018": 0.0,
			"0.019": 0.0,
			"0.02": 0.0,
			"0.021": 0.0,
			"0.022": 0.0,
			"0.023": 0.0,
			"0.024": 0.0,
			"0.025": 0.0
		}
	}
}
