{
	 "smiles": "CC1=CC=C2OC=NC2=C1", 
	 "Tm": 316.15, 
	 "num_atms": 17, 
	 "gaussian": { 
		 "optdone": 1, 
		 "sigma_profile": "yes", 
		 "theory": "DFT", 
		 "functional": "B3LYP", 
		 "basiset": "6-31G**", 
		 "properties": { 
			 "R2extent": 2284.4848, 
			 "electric_dipole_moment_norm": 1.44624609593, 
			 "electric_quadrupole_moment_norm": 5.02490638321, 
			 "total_energy": -439.04230878, 
			 "HOMO_LUMO_gap": 0.20923, 
			 "cosmo_polarized_energy": -6.39, 
			 "cosmo_cavitation_energy": 20.97, 
			 "cosmo_dispersion_energy": -15.9, 
			 "cosmo_repulsion_energy": 1.26, 
			 "cosmo_total_nonelectrostatic_energy": 6.33, 
			 "SMD_solvation_energy": 2.69 
		},
		"coords": [
			{
				"x": -2.2146482449,
				"y": 0.0638382789,
				"z": 2.1545351666,
				"element": "C" 
			},
			{
				"x": -1.0464253136,
				"y": 0.8981173409,
				"z": 1.6782405402,
				"element": "C" 
			},
			{
				"x": -0.5886656549,
				"y": 1.9744747024,
				"z": 2.4748784189,
				"element": "C" 
			},
			{
				"x": 0.4813078327,
				"y": 2.7868224032,
				"z": 2.1014640104,
				"element": "C" 
			},
			{
				"x": 1.0787372079,
				"y": 2.474751325,
				"z": 0.8882370738,
				"element": "C" 
			},
			{
				"x": 2.1404281699,
				"y": 3.086478294,
				"z": 0.2628164648,
				"element": "O" 
			},
			{
				"x": 2.2914346828,
				"y": 2.3623776413,
				"z": -0.8904729153,
				"element": "C" 
			},
			{
				"x": 1.469572373,
				"y": 1.3838939354,
				"z": -1.0688808692,
				"element": "N" 
			},
			{
				"x": 0.6575799421,
				"y": 1.4204062194,
				"z": 0.0712682417,
				"element": "C" 
			},
			{
				"x": -0.4173429786,
				"y": 0.6168414306,
				"z": 0.4629144451,
				"element": "C" 
			},
			{
				"x": -2.0008355465,
				"y": -0.408935769,
				"z": 3.1200705823,
				"element": "H" 
			},
			{
				"x": -3.1144120251,
				"y": 0.6754722098,
				"z": 2.288162336,
				"element": "H" 
			},
			{
				"x": -2.4543312533,
				"y": -0.7292684502,
				"z": 1.4414313256,
				"element": "H" 
			},
			{
				"x": -1.0929661683,
				"y": 2.1751022893,
				"z": 3.4165952549,
				"element": "H" 
			},
			{
				"x": 0.8237462009,
				"y": 3.6090750299,
				"z": 2.7198189108,
				"element": "H" 
			},
			{
				"x": 3.0903934212,
				"y": 2.683302823,
				"z": -1.5440465039,
				"element": "H" 
			},
			{
				"x": -0.7487726454,
				"y": -0.202849704,
				"z": -0.1667324828,
				"element": "H" 
			}
		],
		 "valence_orbital": [ 
			{
				"type": "occ",
				"energy": -0.34824,
				"method": "rhf"
			},
			{
				"type": "occ",
				"energy": -0.32914,
				"method": "rhf"
			},
			{
				"type": "occ",
				"energy": -0.29101,
				"method": "rhf"
			},
			{
				"type": "occ",
				"energy": -0.24178,
				"method": "rhf"
			},
			{
				"type": "occ",
				"energy": -0.23535,
				"method": "rhf"
			},
			{
				"type": "unocc",
				"energy": -0.02612,
				"method": "rhf"
			},
			{
				"type": "unocc",
				"energy": 0.00777,
				"method": "rhf"
			},
			{
				"type": "unocc",
				"energy": 0.03672,
				"method": "rhf"
			},
			{
				"type": "unocc",
				"energy": 0.09617,
				"method": "rhf"
			},
			{
				"type": "unocc",
				"energy": 0.11962,
				"method": "rhf"
			}
		],
		"cosmo_sigma_profile": { 
			"-0.025": 0.0,
			"-0.024": 0.0,
			"-0.023": 0.0,
			"-0.022": 0.0,
			"-0.021": 0.0,
			"-0.02": 0.0,
			"-0.019": 0.0,
			"-0.018": 0.0,
			"-0.017": 0.0,
			"-0.016": 0.0,
			"-0.015": 0.0,
			"-0.014": 0.0,
			"-0.013": 0.0,
			"-0.012": 0.0269712382612,
			"-0.011": 1.94990747559,
			"-0.01": 1.61306469997,
			"-0.009": 1.91332027469,
			"-0.008": 1.57711071947,
			"-0.007": 3.55910686134,
			"-0.006": 5.65645770293,
			"-0.005": 8.59948596684,
			"-0.004": 12.2126454969,
			"-0.003": 13.8765849151,
			"-0.002": 15.3969457291,
			"-0.001": 14.491912906,
			"0.0": 15.6776339084,
			"0.001": 13.3877935373,
			"0.002": 10.6197263464,
			"0.003": 12.7287934928,
			"0.004": 13.4777343571,
			"0.005": 6.24195718454,
			"0.006": 3.01940563438,
			"0.007": 3.21061040118,
			"0.008": 1.41723586873,
			"0.009": 1.17258725239,
			"0.01": 0.862164242891,
			"0.011": 1.47039212238,
			"0.012": 0.918358346839,
			"0.013": 1.05912884708,
			"0.014": 0.999012764779,
			"0.015": 0.932710009176,
			"0.016": 0.351587695554,
			"0.017": 0.0,
			"0.018": 0.0,
			"0.019": 0.0,
			"0.02": 0.0,
			"0.021": 0.0,
			"0.022": 0.0,
			"0.023": 0.0,
			"0.024": 0.0,
			"0.025": 0.0
		}
	}
}
