{
	 "smiles": "NC(=O)C1=CC(F)=CC(F)=C1", 
	 "Tm": 429.15, 
	 "num_atms": 16, 
	 "gaussian": { 
		 "optdone": 1, 
		 "sigma_profile": "yes", 
		 "theory": "DFT", 
		 "functional": "B3LYP", 
		 "basiset": "6-31G**", 
		 "properties": { 
			 "R2extent": 2515.8627, 
			 "electric_dipole_moment_norm": 3.22153972349, 
			 "electric_quadrupole_moment_norm": 19.0980459749, 
			 "total_energy": -599.417768313, 
			 "HOMO_LUMO_gap": 0.20421, 
			 "cosmo_polarized_energy": -12.18, 
			 "cosmo_cavitation_energy": 21.95, 
			 "cosmo_dispersion_energy": -15.94, 
			 "cosmo_repulsion_energy": 1.24, 
			 "cosmo_total_nonelectrostatic_energy": 7.24, 
			 "SMD_solvation_energy": 5.67 
		},
		"coords": [
			{
				"x": -2.5343464328,
				"y": -3.036555811,
				"z": -0.2601635844,
				"element": "N" 
			},
			{
				"x": -1.1825519419,
				"y": -3.2742866966,
				"z": -0.2734396787,
				"element": "C" 
			},
			{
				"x": -0.7194151397,
				"y": -4.4060790548,
				"z": -0.2360291429,
				"element": "O" 
			},
			{
				"x": -0.2943302349,
				"y": -2.0575727641,
				"z": -0.3123856154,
				"element": "C" 
			},
			{
				"x": -0.7414815545,
				"y": -0.7771684847,
				"z": 0.0409711841,
				"element": "C" 
			},
			{
				"x": 0.1558168029,
				"y": 0.2828550992,
				"z": -0.0215911289,
				"element": "C" 
			},
			{
				"x": -0.2671768755,
				"y": 1.513596338,
				"z": 0.3253315955,
				"element": "F" 
			},
			{
				"x": 1.4768816986,
				"y": 0.1218226065,
				"z": -0.4221025164,
				"element": "C" 
			},
			{
				"x": 1.8875188446,
				"y": -1.1654833953,
				"z": -0.7561709318,
				"element": "C" 
			},
			{
				"x": 3.1634036506,
				"y": -1.3481178521,
				"z": -1.1424279819,
				"element": "F" 
			},
			{
				"x": 1.0338070639,
				"y": -2.2583639976,
				"z": -0.704214402,
				"element": "C" 
			},
			{
				"x": -3.1195858457,
				"y": -3.8551215651,
				"z": -0.3462169816,
				"element": "H" 
			},
			{
				"x": -2.9075791617,
				"y": -2.1681179394,
				"z": -0.6100391958,
				"element": "H" 
			},
			{
				"x": -1.7470827992,
				"y": -0.5917269752,
				"z": 0.4000063763,
				"element": "H" 
			},
			{
				"x": 2.1597750138,
				"y": 0.9614169387,
				"z": -0.4644276694,
				"element": "H" 
			},
			{
				"x": 1.3787469116,
				"y": -3.2538964468,
				"z": -0.9552003266,
				"element": "H" 
			}
		],
		 "valence_orbital": [ 
			{
				"type": "occ",
				"energy": -0.35812,
				"method": "rhf"
			},
			{
				"type": "occ",
				"energy": -0.28282,
				"method": "rhf"
			},
			{
				"type": "occ",
				"energy": -0.27242,
				"method": "rhf"
			},
			{
				"type": "occ",
				"energy": -0.26248,
				"method": "rhf"
			},
			{
				"type": "occ",
				"energy": -0.25611,
				"method": "rhf"
			},
			{
				"type": "unocc",
				"energy": -0.0519,
				"method": "rhf"
			},
			{
				"type": "unocc",
				"energy": -0.01206,
				"method": "rhf"
			},
			{
				"type": "unocc",
				"energy": 0.04938,
				"method": "rhf"
			},
			{
				"type": "unocc",
				"energy": 0.06586,
				"method": "rhf"
			},
			{
				"type": "unocc",
				"energy": 0.09488,
				"method": "rhf"
			}
		],
		"cosmo_sigma_profile": { 
			"-0.025": 0.0,
			"-0.024": 0.0,
			"-0.023": 0.0,
			"-0.022": 0.0,
			"-0.021": 0.0,
			"-0.02": 0.0,
			"-0.019": 0.0,
			"-0.018": 0.0,
			"-0.017": 0.0,
			"-0.016": 0.0,
			"-0.015": 0.358428480964,
			"-0.014": 2.27753617031,
			"-0.013": 2.60362926171,
			"-0.012": 2.69202799172,
			"-0.011": 2.50525993914,
			"-0.01": 2.93591400315,
			"-0.009": 4.03191829066,
			"-0.008": 3.9510586575,
			"-0.007": 4.4872487602,
			"-0.006": 5.21283622813,
			"-0.005": 5.0215982716,
			"-0.004": 4.63634842839,
			"-0.003": 5.43414740121,
			"-0.002": 7.9430054132,
			"-0.001": 14.7109366426,
			"0.0": 23.8150612242,
			"0.001": 18.1822029607,
			"0.002": 9.40619655538,
			"0.003": 15.0025532012,
			"0.004": 18.7812625003,
			"0.005": 2.53472402069,
			"0.006": 2.32065169778,
			"0.007": 1.42259666463,
			"0.008": 1.2438624586,
			"0.009": 1.60659677035,
			"0.01": 2.18738456415,
			"0.011": 1.49446159487,
			"0.012": 2.2361697893,
			"0.013": 5.76243261914,
			"0.014": 1.48250796481,
			"0.015": 0.000518026351003,
			"0.016": 0.0,
			"0.017": 0.0,
			"0.018": 0.0,
			"0.019": 0.0,
			"0.02": 0.0,
			"0.021": 0.0,
			"0.022": 0.0,
			"0.023": 0.0,
			"0.024": 0.0,
			"0.025": 0.0
		}
	}
}
