{
	 "smiles": "CN1C(=C(O)NC2=CC=CC=N2)C(=O)C2=C(C=CS2)S1(=O)=O", 
	 "Tm": 484.15, 
	 "num_atms": 33, 
	 "gaussian": { 
		 "optdone": 1, 
		 "sigma_profile": "yes", 
		 "theory": "DFT", 
		 "functional": "B3LYP", 
		 "basiset": "6-31G**", 
		 "properties": { 
			 "R2extent": 8018.258, 
			 "electric_dipole_moment_norm": 1.84861114083, 
			 "electric_quadrupole_moment_norm": 25.2339287712, 
			 "total_energy": -1763.4498738, 
			 "HOMO_LUMO_gap": 0.14064, 
			 "cosmo_polarized_energy": -16.51, 
			 "cosmo_cavitation_energy": 39.17, 
			 "cosmo_dispersion_energy": -28.51, 
			 "cosmo_repulsion_energy": 2.03, 
			 "cosmo_total_nonelectrostatic_energy": 12.69, 
			 "SMD_solvation_energy": 5.72 
		},
		"coords": [
			{
				"x": -0.0483564177,
				"y": 1.4224493198,
				"z": 0.8783161624,
				"element": "C" 
			},
			{
				"x": -0.4168793371,
				"y": 0.4878197479,
				"z": -0.2061027462,
				"element": "N" 
			},
			{
				"x": -1.0972882485,
				"y": 1.0681177186,
				"z": -1.3283709231,
				"element": "C" 
			},
			{
				"x": -0.3828926905,
				"y": 1.7669300371,
				"z": -2.3218932013,
				"element": "C" 
			},
			{
				"x": -1.0333391714,
				"y": 2.5124182042,
				"z": -3.1919424352,
				"element": "O" 
			},
			{
				"x": 0.9657036964,
				"y": 1.8554936438,
				"z": -2.4653131267,
				"element": "N" 
			},
			{
				"x": 2.0404653231,
				"y": 1.0033156421,
				"z": -2.1212771014,
				"element": "C" 
			},
			{
				"x": 1.9001180015,
				"y": -0.3752571523,
				"z": -1.9208665427,
				"element": "C" 
			},
			{
				"x": 3.0527853536,
				"y": -1.0989130846,
				"z": -1.6306305214,
				"element": "C" 
			},
			{
				"x": 4.2857758575,
				"y": -0.445802532,
				"z": -1.5788477901,
				"element": "C" 
			},
			{
				"x": 4.309822287,
				"y": 0.9230559786,
				"z": -1.837646302,
				"element": "C" 
			},
			{
				"x": 3.213857843,
				"y": 1.6438828121,
				"z": -2.101224062,
				"element": "N" 
			},
			{
				"x": -2.5318244112,
				"y": 1.1155961401,
				"z": -1.3884901284,
				"element": "C" 
			},
			{
				"x": -3.1721530789,
				"y": 1.7884635863,
				"z": -2.249314872,
				"element": "O" 
			},
			{
				"x": -3.2689039483,
				"y": 0.3110187432,
				"z": -0.409390449,
				"element": "C" 
			},
			{
				"x": -2.7394349605,
				"y": -0.6580107703,
				"z": 0.4176993022,
				"element": "C" 
			},
			{
				"x": -3.6921854801,
				"y": -1.3000144901,
				"z": 1.2508510296,
				"element": "C" 
			},
			{
				"x": -4.9497747559,
				"y": -0.7963739095,
				"z": 1.0341114441,
				"element": "C" 
			},
			{
				"x": -4.983894483,
				"y": 0.4409731919,
				"z": -0.1777079822,
				"element": "S" 
			},
			{
				"x": -1.0042134035,
				"y": -1.0246780352,
				"z": 0.276744624,
				"element": "S" 
			},
			{
				"x": -0.4665916162,
				"y": -1.3277316703,
				"z": 1.6033709731,
				"element": "O" 
			},
			{
				"x": -0.8166745064,
				"y": -1.954404988,
				"z": -0.8380054204,
				"element": "O" 
			},
			{
				"x": 0.6098175677,
				"y": 2.1813750626,
				"z": 0.4498736739,
				"element": "H" 
			},
			{
				"x": 0.4934194771,
				"y": 0.8777787636,
				"z": 1.6503607708,
				"element": "H" 
			},
			{
				"x": -0.9265903347,
				"y": 1.9138963701,
				"z": 1.3164652114,
				"element": "H" 
			},
			{
				"x": -2.040420522,
				"y": 2.3911900287,
				"z": -2.9687787753,
				"element": "H" 
			},
			{
				"x": 1.2568110634,
				"y": 2.6448081285,
				"z": -3.0316252655,
				"element": "H" 
			},
			{
				"x": 0.938989873,
				"y": -0.866031253,
				"z": -1.9914378811,
				"element": "H" 
			},
			{
				"x": 2.9820480897,
				"y": -2.1687943849,
				"z": -1.4599241237,
				"element": "H" 
			},
			{
				"x": 5.2029484946,
				"y": -0.9821027594,
				"z": -1.3601940518,
				"element": "H" 
			},
			{
				"x": 5.2485983105,
				"y": 1.4733552353,
				"z": -1.8346539958,
				"element": "H" 
			},
			{
				"x": -3.4517280556,
				"y": -2.0754223901,
				"z": 1.9670325587,
				"element": "H" 
			},
			{
				"x": -5.8676158167,
				"y": -1.0855009348,
				"z": 1.5281119471,
				"element": "H" 
			}
		],
		 "valence_orbital": [ 
			{
				"type": "occ",
				"energy": -0.27746,
				"method": "rhf"
			},
			{
				"type": "occ",
				"energy": -0.27372,
				"method": "rhf"
			},
			{
				"type": "occ",
				"energy": -0.26509,
				"method": "rhf"
			},
			{
				"type": "occ",
				"energy": -0.24841,
				"method": "rhf"
			},
			{
				"type": "occ",
				"energy": -0.22824,
				"method": "rhf"
			},
			{
				"type": "unocc",
				"energy": -0.0876,
				"method": "rhf"
			},
			{
				"type": "unocc",
				"energy": -0.03396,
				"method": "rhf"
			},
			{
				"type": "unocc",
				"energy": -0.02399,
				"method": "rhf"
			},
			{
				"type": "unocc",
				"energy": 0.0013,
				"method": "rhf"
			},
			{
				"type": "unocc",
				"energy": 0.00639,
				"method": "rhf"
			}
		],
		"cosmo_sigma_profile": { 
			"-0.025": 0.0,
			"-0.024": 0.0,
			"-0.023": 0.0,
			"-0.022": 0.0,
			"-0.021": 0.0,
			"-0.02": 0.0,
			"-0.019": 0.0,
			"-0.018": 0.0,
			"-0.017": 0.0,
			"-0.016": 0.00270816083396,
			"-0.015": 0.474989649777,
			"-0.014": 0.667024401757,
			"-0.013": 0.756288237998,
			"-0.012": 0.814089072594,
			"-0.011": 1.36577309461,
			"-0.01": 3.24513970967,
			"-0.009": 3.7278149455,
			"-0.008": 4.63558038779,
			"-0.007": 9.36313429486,
			"-0.006": 13.7632606053,
			"-0.005": 21.2556029744,
			"-0.004": 22.3680256289,
			"-0.003": 24.8929235337,
			"-0.002": 23.366406928,
			"-0.001": 22.8198205385,
			"0.0": 29.4532205732,
			"0.001": 28.5883812786,
			"0.002": 25.0093825326,
			"0.003": 15.5669398192,
			"0.004": 7.37401510213,
			"0.005": 6.92585886596,
			"0.006": 6.70355328033,
			"0.007": 7.58769818466,
			"0.008": 7.28673661637,
			"0.009": 9.67402835432,
			"0.01": 11.1557992476,
			"0.011": 6.10125784424,
			"0.012": 1.21053477765,
			"0.013": 0.606359672752,
			"0.014": 0.637064856717,
			"0.015": 0.0495049823476,
			"0.016": 0.0,
			"0.017": 0.0,
			"0.018": 0.0,
			"0.019": 0.0,
			"0.02": 0.0,
			"0.021": 0.0,
			"0.022": 0.0,
			"0.023": 0.0,
			"0.024": 0.0,
			"0.025": 0.0
		}
	}
}
