{
	 "smiles": "C1=CN(C=N1)C1=CC=CC=C1", 
	 "Tm": 286.15, 
	 "num_atms": 19, 
	 "gaussian": { 
		 "optdone": 1, 
		 "sigma_profile": "yes", 
		 "theory": "DFT", 
		 "functional": "B3LYP", 
		 "basiset": "6-31G**", 
		 "properties": { 
			 "R2extent": 1947.1959, 
			 "electric_dipole_moment_norm": 3.52522522543, 
			 "electric_quadrupole_moment_norm": 8.98409638305, 
			 "total_energy": -457.267826303, 
			 "HOMO_LUMO_gap": 0.19763, 
			 "cosmo_polarized_energy": -10.12, 
			 "cosmo_cavitation_energy": 22.75, 
			 "cosmo_dispersion_energy": -17.17, 
			 "cosmo_repulsion_energy": 1.32, 
			 "cosmo_total_nonelectrostatic_energy": 6.91, 
			 "SMD_solvation_energy": 3.1 
		},
		"coords": [
			{
				"x": -0.8759954549,
				"y": -2.4076492296,
				"z": 1.644795297,
				"element": "C" 
			},
			{
				"x": 0.1954388489,
				"y": -1.8282168125,
				"z": 1.0229545213,
				"element": "C" 
			},
			{
				"x": -0.3348720919,
				"y": -0.9385419761,
				"z": 0.0947766541,
				"element": "N" 
			},
			{
				"x": -1.7053762111,
				"y": -1.0460792058,
				"z": 0.2243505999,
				"element": "C" 
			},
			{
				"x": -2.0606153913,
				"y": -1.9138576125,
				"z": 1.140633312,
				"element": "N" 
			},
			{
				"x": 0.3829302891,
				"y": -0.0966772603,
				"z": -0.7982886249,
				"element": "C" 
			},
			{
				"x": 1.7845465385,
				"y": -0.105197289,
				"z": -0.8107942726,
				"element": "C" 
			},
			{
				"x": 2.4844165727,
				"y": 0.721827652,
				"z": -1.6879395918,
				"element": "C" 
			},
			{
				"x": 1.8053233605,
				"y": 1.5679475366,
				"z": -2.5640724813,
				"element": "C" 
			},
			{
				"x": 0.41019179,
				"y": 1.5766006399,
				"z": -2.5518501514,
				"element": "C" 
			},
			{
				"x": -0.3000774874,
				"y": 0.7544526572,
				"z": -1.6795923086,
				"element": "C" 
			},
			{
				"x": -0.8622475143,
				"y": -3.1530536725,
				"z": 2.427883882,
				"element": "H" 
			},
			{
				"x": 1.254555643,
				"y": -1.9671196154,
				"z": 1.1562878263,
				"element": "H" 
			},
			{
				"x": -2.3913988541,
				"y": -0.46800803,
				"z": -0.3750074087,
				"element": "H" 
			},
			{
				"x": 2.3377124861,
				"y": -0.752505194,
				"z": -0.1413262368,
				"element": "H" 
			},
			{
				"x": 3.5701828757,
				"y": 0.6996279471,
				"z": -1.681308541,
				"element": "H" 
			},
			{
				"x": 2.3538719438,
				"y": 2.210371834,
				"z": -3.2455393672,
				"element": "H" 
			},
			{
				"x": -0.1376766125,
				"y": 2.2281915665,
				"z": -3.2261302404,
				"element": "H" 
			},
			{
				"x": -1.3827107308,
				"y": 0.7838860645,
				"z": -1.6935328678,
				"element": "H" 
			}
		],
		 "valence_orbital": [ 
			{
				"type": "occ",
				"energy": -0.30853,
				"method": "rhf"
			},
			{
				"type": "occ",
				"energy": -0.26658,
				"method": "rhf"
			},
			{
				"type": "occ",
				"energy": -0.26622,
				"method": "rhf"
			},
			{
				"type": "occ",
				"energy": -0.24115,
				"method": "rhf"
			},
			{
				"type": "occ",
				"energy": -0.22538,
				"method": "rhf"
			},
			{
				"type": "unocc",
				"energy": -0.02775,
				"method": "rhf"
			},
			{
				"type": "unocc",
				"energy": -0.01628,
				"method": "rhf"
			},
			{
				"type": "unocc",
				"energy": 0.04546,
				"method": "rhf"
			},
			{
				"type": "unocc",
				"energy": 0.07105,
				"method": "rhf"
			},
			{
				"type": "unocc",
				"energy": 0.07374,
				"method": "rhf"
			}
		],
		"cosmo_sigma_profile": { 
			"-0.025": 0.0,
			"-0.024": 0.0,
			"-0.023": 0.0,
			"-0.022": 0.0,
			"-0.021": 0.0,
			"-0.02": 0.0,
			"-0.019": 0.0,
			"-0.018": 0.0,
			"-0.017": 0.0,
			"-0.016": 0.0,
			"-0.015": 0.0,
			"-0.014": 0.0,
			"-0.013": 0.0,
			"-0.012": 0.0166366754057,
			"-0.011": 1.07716265545,
			"-0.01": 3.4009809279,
			"-0.009": 2.75055528453,
			"-0.008": 4.66967877056,
			"-0.007": 4.41681553055,
			"-0.006": 12.4957230679,
			"-0.005": 13.4883692722,
			"-0.004": 13.3167596663,
			"-0.003": 10.8392453238,
			"-0.002": 10.5404669812,
			"-0.001": 9.91351137516,
			"0.0": 11.8982009662,
			"0.001": 14.4374915885,
			"0.002": 11.0805442851,
			"0.003": 13.7982068107,
			"0.004": 13.9321715149,
			"0.005": 14.092983434,
			"0.006": 2.83528636295,
			"0.007": 1.43729219681,
			"0.008": 1.67877679639,
			"0.009": 1.88134560488,
			"0.01": 0.996319395534,
			"0.011": 0.853179215167,
			"0.012": 2.00246700888,
			"0.013": 1.286862817,
			"0.014": 0.747430213161,
			"0.015": 1.08176232923,
			"0.016": 1.35597912609,
			"0.017": 1.05693648934,
			"0.018": 0.41348251934,
			"0.019": 0.0,
			"0.02": 0.0,
			"0.021": 0.0,
			"0.022": 0.0,
			"0.023": 0.0,
			"0.024": 0.0,
			"0.025": 0.0
		}
	}
}
