{
	 "smiles": "COC1=CC=C(C=C2N=C(S)N(CC3=CC=CC=C3)C2=O)C=C1", 
	 "Tm": 290.15, 
	 "num_atms": 39, 
	 "gaussian": { 
		 "optdone": 1, 
		 "sigma_profile": "yes", 
		 "theory": "DFT", 
		 "functional": "B3LYP", 
		 "basiset": "6-31G**", 
		 "properties": { 
			 "R2extent": 12109.1457, 
			 "electric_dipole_moment_norm": 2.89268442282, 
			 "electric_quadrupole_moment_norm": 21.7032679353, 
			 "total_energy": -1353.68590957, 
			 "HOMO_LUMO_gap": 0.12561, 
			 "cosmo_polarized_energy": -15.41, 
			 "cosmo_cavitation_energy": 45.06, 
			 "cosmo_dispersion_energy": -32.31, 
			 "cosmo_repulsion_energy": 2.38, 
			 "cosmo_total_nonelectrostatic_energy": 15.13, 
			 "SMD_solvation_energy": 6.32 
		},
		"coords": [
			{
				"x": -4.1690096239,
				"y": -5.4612279036,
				"z": -0.6051883463,
				"element": "C" 
			},
			{
				"x": -4.7868562614,
				"y": -4.1810990323,
				"z": -0.5958402276,
				"element": "O" 
			},
			{
				"x": -3.9946798262,
				"y": -3.0774370513,
				"z": -0.5970077337,
				"element": "C" 
			},
			{
				"x": -4.6680179707,
				"y": -1.8436967069,
				"z": -0.5885026922,
				"element": "C" 
			},
			{
				"x": -3.9446470508,
				"y": -0.6660354547,
				"z": -0.5893270729,
				"element": "C" 
			},
			{
				"x": -2.5267823122,
				"y": -0.6595952669,
				"z": -0.598144248,
				"element": "C" 
			},
			{
				"x": -1.8763979692,
				"y": 0.6331529816,
				"z": -0.5981740121,
				"element": "C" 
			},
			{
				"x": -0.5743907226,
				"y": 1.0472916952,
				"z": -0.5987667799,
				"element": "C" 
			},
			{
				"x": -0.2875775623,
				"y": 2.4271393731,
				"z": -0.5885067854,
				"element": "N" 
			},
			{
				"x": 1.0004948489,
				"y": 2.5324393175,
				"z": -0.5904493758,
				"element": "C" 
			},
			{
				"x": 1.8123284491,
				"y": 4.1001836761,
				"z": -0.6836032075,
				"element": "S" 
			},
			{
				"x": 1.6772051107,
				"y": 1.3114951081,
				"z": -0.5936151674,
				"element": "N" 
			},
			{
				"x": 3.1056234539,
				"y": 1.0404201818,
				"z": -0.6841831161,
				"element": "C" 
			},
			{
				"x": 3.8817590675,
				"y": 1.3431931251,
				"z": 0.5860663175,
				"element": "C" 
			},
			{
				"x": 5.055215854,
				"y": 2.1048975389,
				"z": 0.5345629686,
				"element": "C" 
			},
			{
				"x": 5.7890621956,
				"y": 2.3621496085,
				"z": 1.6959951718,
				"element": "C" 
			},
			{
				"x": 5.3517427553,
				"y": 1.8612600323,
				"z": 2.9215752898,
				"element": "C" 
			},
			{
				"x": 4.1815309204,
				"y": 1.0984211935,
				"z": 2.9807975272,
				"element": "C" 
			},
			{
				"x": 3.4522493254,
				"y": 0.8394403051,
				"z": 1.8218076471,
				"element": "C" 
			},
			{
				"x": 0.7077153254,
				"y": 0.2949951365,
				"z": -0.5959001276,
				"element": "C" 
			},
			{
				"x": 0.9824799181,
				"y": -0.9017118983,
				"z": -0.5949950955,
				"element": "O" 
			},
			{
				"x": -1.8714500962,
				"y": -1.9097061335,
				"z": -0.6070982707,
				"element": "C" 
			},
			{
				"x": -2.5918829138,
				"y": -3.0999985726,
				"z": -0.6063161563,
				"element": "C" 
			},
			{
				"x": -3.5571957069,
				"y": -5.6066861678,
				"z": -1.5039650191,
				"element": "H" 
			},
			{
				"x": -3.5451378704,
				"y": -5.6139496156,
				"z": 0.2840588329,
				"element": "H" 
			},
			{
				"x": -4.9835416866,
				"y": -6.1867387514,
				"z": -0.6026329294,
				"element": "H" 
			},
			{
				"x": -5.7528669747,
				"y": -1.8436167367,
				"z": -0.5816641944,
				"element": "H" 
			},
			{
				"x": -4.4760565843,
				"y": 0.2819752454,
				"z": -0.5827827081,
				"element": "H" 
			},
			{
				"x": -2.5648650674,
				"y": 1.4771757088,
				"z": -0.5966640164,
				"element": "H" 
			},
			{
				"x": 2.9415856378,
				"y": 3.7194967807,
				"z": -0.0495395245,
				"element": "H" 
			},
			{
				"x": 3.5261603744,
				"y": 1.5980259933,
				"z": -1.5277858906,
				"element": "H" 
			},
			{
				"x": 3.1686520994,
				"y": -0.0268500763,
				"z": -0.9218515676,
				"element": "H" 
			},
			{
				"x": 5.4016721508,
				"y": 2.4938595536,
				"z": -0.420511212,
				"element": "H" 
			},
			{
				"x": 6.6971547008,
				"y": 2.9555313187,
				"z": 1.6404723575,
				"element": "H" 
			},
			{
				"x": 5.917347425,
				"y": 2.0626765604,
				"z": 3.8265813527,
				"element": "H" 
			},
			{
				"x": 3.8384902082,
				"y": 0.7028394431,
				"z": 3.9324658106,
				"element": "H" 
			},
			{
				"x": 2.5471565785,
				"y": 0.2404992103,
				"z": 1.869370382,
				"element": "H" 
			},
			{
				"x": -0.7882646016,
				"y": -1.9390904237,
				"z": -0.6147395283,
				"element": "H" 
			},
			{
				"x": -2.0522055978,
				"y": -4.0396192962,
				"z": -0.6136986521,
				"element": "H" 
			}
		],
		 "valence_orbital": [ 
			{
				"type": "occ",
				"energy": -0.25705,
				"method": "rhf"
			},
			{
				"type": "occ",
				"energy": -0.25567,
				"method": "rhf"
			},
			{
				"type": "occ",
				"energy": -0.25202,
				"method": "rhf"
			},
			{
				"type": "occ",
				"energy": -0.2442,
				"method": "rhf"
			},
			{
				"type": "occ",
				"energy": -0.19778,
				"method": "rhf"
			},
			{
				"type": "unocc",
				"energy": -0.07217,
				"method": "rhf"
			},
			{
				"type": "unocc",
				"energy": -0.018,
				"method": "rhf"
			},
			{
				"type": "unocc",
				"energy": -0.01293,
				"method": "rhf"
			},
			{
				"type": "unocc",
				"energy": -0.00302,
				"method": "rhf"
			},
			{
				"type": "unocc",
				"energy": 0.01861,
				"method": "rhf"
			}
		],
		"cosmo_sigma_profile": { 
			"-0.025": 0.0,
			"-0.024": 0.0,
			"-0.023": 0.0,
			"-0.022": 0.0,
			"-0.021": 0.0,
			"-0.02": 0.0,
			"-0.019": 0.0,
			"-0.018": 0.0,
			"-0.017": 0.0,
			"-0.016": 0.0,
			"-0.015": 0.0,
			"-0.014": 0.0,
			"-0.013": 0.0,
			"-0.012": 0.0,
			"-0.011": 0.0,
			"-0.01": 0.122045782157,
			"-0.009": 0.94118908085,
			"-0.008": 3.28052273166,
			"-0.007": 10.3261920715,
			"-0.006": 25.31172577,
			"-0.005": 30.4256801463,
			"-0.004": 32.5389170805,
			"-0.003": 28.8371471754,
			"-0.002": 23.3941830534,
			"-0.001": 18.5603580882,
			"0.0": 22.5298017373,
			"0.001": 26.6783374514,
			"0.002": 29.1330723563,
			"0.003": 31.0520937086,
			"0.004": 27.5240062109,
			"0.005": 17.5899858776,
			"0.006": 9.02087683381,
			"0.007": 5.16590464834,
			"0.008": 4.34128044542,
			"0.009": 4.77823588379,
			"0.01": 3.74558743004,
			"0.011": 2.78042283422,
			"0.012": 2.83467544533,
			"0.013": 1.12618156645,
			"0.014": 1.09976374275,
			"0.015": 0.578134894466,
			"0.016": 0.343986304276,
			"0.017": 0.0,
			"0.018": 0.0,
			"0.019": 0.0,
			"0.02": 0.0,
			"0.021": 0.0,
			"0.022": 0.0,
			"0.023": 0.0,
			"0.024": 0.0,
			"0.025": 0.0
		}
	}
}
