{
	 "smiles": "CC(CC1=C(Cl)C=CC=C1)C(O)=O", 
	 "Tm": 330.15, 
	 "num_atms": 24, 
	 "gaussian": { 
		 "optdone": 1, 
		 "sigma_profile": "yes", 
		 "theory": "DFT", 
		 "functional": "B3LYP", 
		 "basiset": "6-31G**", 
		 "properties": { 
			 "R2extent": 3486.9804, 
			 "electric_dipole_moment_norm": 3.24661652494, 
			 "electric_quadrupole_moment_norm": 10.5189454034, 
			 "total_energy": -998.359483919, 
			 "HOMO_LUMO_gap": 0.22923, 
			 "cosmo_polarized_energy": -10.37, 
			 "cosmo_cavitation_energy": 29.28, 
			 "cosmo_dispersion_energy": -20.58, 
			 "cosmo_repulsion_energy": 1.64, 
			 "cosmo_total_nonelectrostatic_energy": 10.34, 
			 "SMD_solvation_energy": 5.83 
		},
		"coords": [
			{
				"x": 0.3837488269,
				"y": 2.1366588168,
				"z": 0.6843591332,
				"element": "C" 
			},
			{
				"x": 1.154227242,
				"y": 1.4601254837,
				"z": -0.4643427924,
				"element": "C" 
			},
			{
				"x": 0.2289466937,
				"y": 1.0284148458,
				"z": -1.6369310957,
				"element": "C" 
			},
			{
				"x": -0.7867083311,
				"y": -0.0260539512,
				"z": -1.2580579377,
				"element": "C" 
			},
			{
				"x": -0.4729484862,
				"y": -1.3912305822,
				"z": -1.1597506134,
				"element": "C" 
			},
			{
				"x": 1.164759219,
				"y": -1.9536183472,
				"z": -1.5039429091,
				"element": "Cl" 
			},
			{
				"x": -1.4231551702,
				"y": -2.3496091615,
				"z": -0.8070698516,
				"element": "C" 
			},
			{
				"x": -2.7324717529,
				"y": -1.9534144164,
				"z": -0.5385108546,
				"element": "C" 
			},
			{
				"x": -3.0805368396,
				"y": -0.6058033252,
				"z": -0.6299715997,
				"element": "C" 
			},
			{
				"x": -2.1161029804,
				"y": 0.3351475975,
				"z": -0.9868377721,
				"element": "C" 
			},
			{
				"x": 2.2499051379,
				"y": 2.3845202397,
				"z": -0.9678382889,
				"element": "C" 
			},
			{
				"x": 1.7480968459,
				"y": 3.4723933646,
				"z": -1.6108822875,
				"element": "O" 
			},
			{
				"x": 3.4402182698,
				"y": 2.217576826,
				"z": -0.8208806622,
				"element": "O" 
			},
			{
				"x": -0.367724547,
				"y": 1.4550926642,
				"z": 1.0913921131,
				"element": "H" 
			},
			{
				"x": -0.1223550991,
				"y": 3.0426488847,
				"z": 0.3368988856,
				"element": "H" 
			},
			{
				"x": 1.0623318702,
				"y": 2.4148893397,
				"z": 1.4965023131,
				"element": "H" 
			},
			{
				"x": 1.677372391,
				"y": 0.5808321199,
				"z": -0.0801290298,
				"element": "H" 
			},
			{
				"x": -0.2948795261,
				"y": 1.91299788,
				"z": -2.0112215218,
				"element": "H" 
			},
			{
				"x": 0.8528330638,
				"y": 0.6554934864,
				"z": -2.4558779321,
				"element": "H" 
			},
			{
				"x": -1.133338285,
				"y": -3.3929354667,
				"z": -0.7485472089,
				"element": "H" 
			},
			{
				"x": -3.4735393786,
				"y": -2.6981411393,
				"z": -0.2644412215,
				"element": "H" 
			},
			{
				"x": -4.0989858235,
				"y": -0.2875629644,
				"z": -0.4290348442,
				"element": "H" 
			},
			{
				"x": -2.3913682894,
				"y": 1.3834209456,
				"z": -1.0659315162,
				"element": "H" 
			},
			{
				"x": 2.5179749488,
				"y": 4.0009568599,
				"z": -1.8805525055,
				"element": "H" 
			}
		],
		 "valence_orbital": [ 
			{
				"type": "occ",
				"energy": -0.31687,
				"method": "rhf"
			},
			{
				"type": "occ",
				"energy": -0.3124,
				"method": "rhf"
			},
			{
				"type": "occ",
				"energy": -0.2705,
				"method": "rhf"
			},
			{
				"type": "occ",
				"energy": -0.25868,
				"method": "rhf"
			},
			{
				"type": "occ",
				"energy": -0.24673,
				"method": "rhf"
			},
			{
				"type": "unocc",
				"energy": -0.0175,
				"method": "rhf"
			},
			{
				"type": "unocc",
				"energy": -0.01565,
				"method": "rhf"
			},
			{
				"type": "unocc",
				"energy": 0.01095,
				"method": "rhf"
			},
			{
				"type": "unocc",
				"energy": 0.02994,
				"method": "rhf"
			},
			{
				"type": "unocc",
				"energy": 0.07331,
				"method": "rhf"
			}
		],
		"cosmo_sigma_profile": { 
			"-0.025": 0.0,
			"-0.024": 0.0,
			"-0.023": 0.0,
			"-0.022": 0.0,
			"-0.021": 0.0,
			"-0.02": 0.0,
			"-0.019": 0.0,
			"-0.018": 0.423627867247,
			"-0.017": 1.08794832759,
			"-0.016": 0.778045228908,
			"-0.015": 0.89246730489,
			"-0.014": 0.588702575661,
			"-0.013": 0.989763878514,
			"-0.012": 0.843858768837,
			"-0.011": 0.185420251603,
			"-0.01": 0.680275987744,
			"-0.009": 0.617381928893,
			"-0.008": 0.812465756833,
			"-0.007": 3.04584143273,
			"-0.006": 9.27611323627,
			"-0.005": 12.9488668894,
			"-0.004": 17.6207679465,
			"-0.003": 16.8238802941,
			"-0.002": 22.1359953233,
			"-0.001": 21.1583998874,
			"0.0": 22.5071934959,
			"0.001": 16.8363852849,
			"0.002": 18.0421685536,
			"0.003": 15.8270780195,
			"0.004": 17.2614688021,
			"0.005": 10.6992815054,
			"0.006": 2.61886379044,
			"0.007": 2.55698382232,
			"0.008": 3.07593007396,
			"0.009": 1.75477213443,
			"0.01": 1.67235408303,
			"0.011": 3.93029902588,
			"0.012": 4.66270191838,
			"0.013": 1.2588199228,
			"0.014": 0.0,
			"0.015": 0.0,
			"0.016": 0.0,
			"0.017": 0.0,
			"0.018": 0.0,
			"0.019": 0.0,
			"0.02": 0.0,
			"0.021": 0.0,
			"0.022": 0.0,
			"0.023": 0.0,
			"0.024": 0.0,
			"0.025": 0.0
		}
	}
}
