{
	 "smiles": "COC1=C(C=C(/C(O)=O)C2=CC=CC=C2)C=CC=C1", 
	 "Tm": 431.15, 
	 "num_atms": 33, 
	 "gaussian": { 
		 "optdone": 1, 
		 "sigma_profile": "yes", 
		 "theory": "DFT", 
		 "functional": "B3LYP", 
		 "basiset": "6-31G**", 
		 "properties": { 
			 "R2extent": 6053.8447, 
			 "electric_dipole_moment_norm": 3.31100985501, 
			 "electric_quadrupole_moment_norm": 12.0345396493, 
			 "total_energy": -843.799115924, 
			 "HOMO_LUMO_gap": 0.16065, 
			 "cosmo_polarized_energy": -13.2, 
			 "cosmo_cavitation_energy": 37.34, 
			 "cosmo_dispersion_energy": -26.28, 
			 "cosmo_repulsion_energy": 2.03, 
			 "cosmo_total_nonelectrostatic_energy": 13.1, 
			 "SMD_solvation_energy": 7.9 
		},
		"coords": [
			{
				"x": 3.952779113,
				"y": 0.5750076674,
				"z": 1.5574673165,
				"element": "C" 
			},
			{
				"x": 2.6812022173,
				"y": 0.1738449162,
				"z": 1.0720367227,
				"element": "O" 
			},
			{
				"x": 2.4624535108,
				"y": 0.1845364321,
				"z": -0.2764593185,
				"element": "C" 
			},
			{
				"x": 1.1855277489,
				"y": -0.2720290657,
				"z": -0.6911912295,
				"element": "C" 
			},
			{
				"x": 0.2443453282,
				"y": -0.7603414613,
				"z": 0.3240153027,
				"element": "C" 
			},
			{
				"x": -1.1061689986,
				"y": -0.7063283777,
				"z": 0.3208919988,
				"element": "C" 
			},
			{
				"x": -1.8722131824,
				"y": -0.028186072,
				"z": -0.7771819521,
				"element": "C" 
			},
			{
				"x": -1.6034638416,
				"y": 1.2938778973,
				"z": -0.8499219825,
				"element": "O" 
			},
			{
				"x": -2.6765501483,
				"y": -0.5661798026,
				"z": -1.5136724306,
				"element": "O" 
			},
			{
				"x": -1.9162594464,
				"y": -1.3137403273,
				"z": 1.412347458,
				"element": "C" 
			},
			{
				"x": -1.4644452512,
				"y": -1.2473639548,
				"z": 2.7431459507,
				"element": "C" 
			},
			{
				"x": -2.1958245726,
				"y": -1.8302338244,
				"z": 3.7757263733,
				"element": "C" 
			},
			{
				"x": -3.4008090528,
				"y": -2.4816819109,
				"z": 3.5037409249,
				"element": "C" 
			},
			{
				"x": -3.8675547155,
				"y": -2.5393638786,
				"z": 2.1897122288,
				"element": "C" 
			},
			{
				"x": -3.1382568423,
				"y": -1.9593777277,
				"z": 1.1520155665,
				"element": "C" 
			},
			{
				"x": 0.9131080667,
				"y": -0.2998559315,
				"z": -2.0667945335,
				"element": "C" 
			},
			{
				"x": 1.8477201077,
				"y": 0.134307905,
				"z": -3.0060717734,
				"element": "C" 
			},
			{
				"x": 3.0894451071,
				"y": 0.5967309454,
				"z": -2.5755521252,
				"element": "C" 
			},
			{
				"x": 3.4032909318,
				"y": 0.6190802893,
				"z": -1.214236824,
				"element": "C" 
			},
			{
				"x": 3.909780259,
				"y": 0.4615763705,
				"z": 2.6417385295,
				"element": "H" 
			},
			{
				"x": 4.7566802451,
				"y": -0.0568969901,
				"z": 1.1590310459,
				"element": "H" 
			},
			{
				"x": 4.1650766216,
				"y": 1.6235401638,
				"z": 1.3134528854,
				"element": "H" 
			},
			{
				"x": 0.7106683803,
				"y": -1.2523656742,
				"z": 1.1734034161,
				"element": "H" 
			},
			{
				"x": -2.136884875,
				"y": 1.6346661264,
				"z": -1.588886305,
				"element": "H" 
			},
			{
				"x": -0.5470708478,
				"y": -0.7121521375,
				"z": 2.9685025251,
				"element": "H" 
			},
			{
				"x": -1.8306354405,
				"y": -1.7622824861,
				"z": 4.7967355094,
				"element": "H" 
			},
			{
				"x": -3.9735749047,
				"y": -2.9318493795,
				"z": 4.3094552604,
				"element": "H" 
			},
			{
				"x": -4.8045816189,
				"y": -3.0420982465,
				"z": 1.9668739591,
				"element": "H" 
			},
			{
				"x": -3.5009600402,
				"y": -2.0142643196,
				"z": 0.1321744869,
				"element": "H" 
			},
			{
				"x": -0.035514846,
				"y": -0.7042571999,
				"z": -2.4050242902,
				"element": "H" 
			},
			{
				"x": 1.6116690652,
				"y": 0.095041854,
				"z": -4.0648154816,
				"element": "H" 
			},
			{
				"x": 3.8285557924,
				"y": 0.9349695891,
				"z": -3.296096487,
				"element": "H" 
			},
			{
				"x": 4.3748661299,
				"y": 0.9772686114,
				"z": -0.8959627279,
				"element": "H" 
			}
		],
		 "valence_orbital": [ 
			{
				"type": "occ",
				"energy": -0.2724,
				"method": "rhf"
			},
			{
				"type": "occ",
				"energy": -0.25384,
				"method": "rhf"
			},
			{
				"type": "occ",
				"energy": -0.24541,
				"method": "rhf"
			},
			{
				"type": "occ",
				"energy": -0.2326,
				"method": "rhf"
			},
			{
				"type": "occ",
				"energy": -0.20828,
				"method": "rhf"
			},
			{
				"type": "unocc",
				"energy": -0.04763,
				"method": "rhf"
			},
			{
				"type": "unocc",
				"energy": -0.00043,
				"method": "rhf"
			},
			{
				"type": "unocc",
				"energy": 0.00467,
				"method": "rhf"
			},
			{
				"type": "unocc",
				"energy": 0.01045,
				"method": "rhf"
			},
			{
				"type": "unocc",
				"energy": 0.01743,
				"method": "rhf"
			}
		],
		"cosmo_sigma_profile": { 
			"-0.025": 0.0,
			"-0.024": 0.0,
			"-0.023": 0.0,
			"-0.022": 0.0,
			"-0.021": 0.0,
			"-0.02": 0.0,
			"-0.019": 0.0382267632648,
			"-0.018": 0.813515727862,
			"-0.017": 0.915323251669,
			"-0.016": 1.00537731694,
			"-0.015": 0.671376438196,
			"-0.014": 0.857089798889,
			"-0.013": 0.670449236409,
			"-0.012": 0.384523423629,
			"-0.011": 0.514290568324,
			"-0.01": 1.01665390688,
			"-0.009": 0.795634569048,
			"-0.008": 0.577414571887,
			"-0.007": 1.73252192994,
			"-0.006": 14.3237811859,
			"-0.005": 26.449071193,
			"-0.004": 28.746864652,
			"-0.003": 27.1453381919,
			"-0.002": 19.3244068869,
			"-0.001": 16.172250706,
			"0.0": 15.7395959166,
			"0.001": 18.0697113173,
			"0.002": 22.61086092,
			"0.003": 22.1329860159,
			"0.004": 22.9889447231,
			"0.005": 22.7932056051,
			"0.006": 11.0916047012,
			"0.007": 5.01788745949,
			"0.008": 4.46292043306,
			"0.009": 3.71027303656,
			"0.01": 2.26173046605,
			"0.011": 4.35666719202,
			"0.012": 1.10303685511,
			"0.013": 0.0,
			"0.014": 0.0,
			"0.015": 0.0,
			"0.016": 0.0,
			"0.017": 0.0,
			"0.018": 0.0,
			"0.019": 0.0,
			"0.02": 0.0,
			"0.021": 0.0,
			"0.022": 0.0,
			"0.023": 0.0,
			"0.024": 0.0,
			"0.025": 0.0
		}
	}
}
