{
	 "smiles": "NC1(CO)CCC2=C1C=CC=C2", 
	 "Tm": 374.15, 
	 "num_atms": 25, 
	 "gaussian": { 
		 "optdone": 1, 
		 "sigma_profile": "yes", 
		 "theory": "DFT", 
		 "functional": "B3LYP", 
		 "basiset": "6-31G**", 
		 "properties": { 
			 "R2extent": 2229.1782, 
			 "electric_dipole_moment_norm": 2.65501122596, 
			 "electric_quadrupole_moment_norm": 6.33452668477, 
			 "total_energy": -518.86384014, 
			 "HOMO_LUMO_gap": 0.23043, 
			 "cosmo_polarized_energy": -12.73, 
			 "cosmo_cavitation_energy": 26.76, 
			 "cosmo_dispersion_energy": -19.38, 
			 "cosmo_repulsion_energy": 1.55, 
			 "cosmo_total_nonelectrostatic_energy": 8.93, 
			 "SMD_solvation_energy": 3.37 
		},
		"coords": [
			{
				"x": 0.0807953398,
				"y": 0.6505531675,
				"z": 1.7810880531,
				"element": "N" 
			},
			{
				"x": 0.328625715,
				"y": 0.2268181675,
				"z": 0.3918848957,
				"element": "C" 
			},
			{
				"x": 1.6730025409,
				"y": 0.7977593475,
				"z": -0.110319897,
				"element": "C" 
			},
			{
				"x": 1.8572041364,
				"y": 0.4774648845,
				"z": -1.4810050637,
				"element": "O" 
			},
			{
				"x": -0.8546389785,
				"y": 0.6618230829,
				"z": -0.5212746245,
				"element": "C" 
			},
			{
				"x": -1.0817544182,
				"y": -0.49202415,
				"z": -1.5276710439,
				"element": "C" 
			},
			{
				"x": -0.5002026577,
				"y": -1.6925488281,
				"z": -0.8147617062,
				"element": "C" 
			},
			{
				"x": 0.2957501569,
				"y": -1.2915556026,
				"z": 0.263804992,
				"element": "C" 
			},
			{
				"x": 0.9507206757,
				"y": -2.236467515,
				"z": 1.0514182606,
				"element": "C" 
			},
			{
				"x": 0.7957359858,
				"y": -3.5946885673,
				"z": 0.758486747,
				"element": "C" 
			},
			{
				"x": -0.0024566894,
				"y": -3.9965224285,
				"z": -0.3167273028,
				"element": "C" 
			},
			{
				"x": -0.652969707,
				"y": -3.0466527834,
				"z": -1.1098884105,
				"element": "C" 
			},
			{
				"x": 0.8332461829,
				"y": 0.3267339376,
				"z": 2.3864547995,
				"element": "H" 
			},
			{
				"x": 0.0946866629,
				"y": 1.6682886619,
				"z": 1.8333930452,
				"element": "H" 
			},
			{
				"x": 2.4849099508,
				"y": 0.3846597589,
				"z": 0.5116367287,
				"element": "H" 
			},
			{
				"x": 1.6608569863,
				"y": 1.8912568495,
				"z": 0.0435959755,
				"element": "H" 
			},
			{
				"x": 2.7353253632,
				"y": 0.773171651,
				"z": -1.7489503397,
				"element": "H" 
			},
			{
				"x": -0.6682283497,
				"y": 1.6206532757,
				"z": -1.0145960802,
				"element": "H" 
			},
			{
				"x": -1.7316744101,
				"y": 0.7724773021,
				"z": 0.1241498847,
				"element": "H" 
			},
			{
				"x": -2.1388182613,
				"y": -0.6206637842,
				"z": -1.7860582623,
				"element": "H" 
			},
			{
				"x": -0.5344978335,
				"y": -0.3073411014,
				"z": -2.458914667,
				"element": "H" 
			},
			{
				"x": 1.5708167167,
				"y": -1.9340090575,
				"z": 1.8926374195,
				"element": "H" 
			},
			{
				"x": 1.2931479866,
				"y": -4.3409648521,
				"z": 1.3717114259,
				"element": "H" 
			},
			{
				"x": -0.1210020484,
				"y": -5.0545185778,
				"z": -0.5342996235,
				"element": "H" 
			},
			{
				"x": -1.2749810462,
				"y": -3.3640028386,
				"z": -1.943295206,
				"element": "H" 
			}
		],
		 "valence_orbital": [ 
			{
				"type": "occ",
				"energy": -0.31206,
				"method": "rhf"
			},
			{
				"type": "occ",
				"energy": -0.26896,
				"method": "rhf"
			},
			{
				"type": "occ",
				"energy": -0.23752,
				"method": "rhf"
			},
			{
				"type": "occ",
				"energy": -0.23567,
				"method": "rhf"
			},
			{
				"type": "occ",
				"energy": -0.22458,
				"method": "rhf"
			},
			{
				"type": "unocc",
				"energy": 0.00585,
				"method": "rhf"
			},
			{
				"type": "unocc",
				"energy": 0.01403,
				"method": "rhf"
			},
			{
				"type": "unocc",
				"energy": 0.07196,
				"method": "rhf"
			},
			{
				"type": "unocc",
				"energy": 0.07492,
				"method": "rhf"
			},
			{
				"type": "unocc",
				"energy": 0.1116,
				"method": "rhf"
			}
		],
		"cosmo_sigma_profile": { 
			"-0.025": 0.0,
			"-0.024": 0.0,
			"-0.023": 0.0,
			"-0.022": 0.0,
			"-0.021": 0.0,
			"-0.02": 0.0,
			"-0.019": 0.0,
			"-0.018": 0.0,
			"-0.017": 0.0,
			"-0.016": 0.324813872861,
			"-0.015": 1.29184694558,
			"-0.014": 0.637546111261,
			"-0.013": 1.06256741499,
			"-0.012": 1.24903754985,
			"-0.011": 0.602517119568,
			"-0.01": 1.03223525916,
			"-0.009": 2.46844886796,
			"-0.008": 3.49350436598,
			"-0.007": 6.98467354668,
			"-0.006": 7.35565527147,
			"-0.005": 12.067736774,
			"-0.004": 12.4959908223,
			"-0.003": 21.3029075485,
			"-0.002": 20.5602557978,
			"-0.001": 18.7530094123,
			"0.0": 15.0802946696,
			"0.001": 13.3173578405,
			"0.002": 7.8300741946,
			"0.003": 7.28037316149,
			"0.004": 8.34408459607,
			"0.005": 8.37945419913,
			"0.006": 9.13213245395,
			"0.007": 7.92430773161,
			"0.008": 3.72224206911,
			"0.009": 3.84549093075,
			"0.01": 2.85564964822,
			"0.011": 2.35136290885,
			"0.012": 2.03741326515,
			"0.013": 1.07896616652,
			"0.014": 1.13661427146,
			"0.015": 0.760653790753,
			"0.016": 0.33027896519,
			"0.017": 0.614274579504,
			"0.018": 0.457398264866,
			"0.019": 0.580286620623,
			"0.02": 0.0144515457811,
			"0.021": 0.0,
			"0.022": 0.0,
			"0.023": 0.0,
			"0.024": 0.0,
			"0.025": 0.0
		}
	}
}
