{
	 "smiles": "CNC(=O)CN1C=NC(N)=N1", 
	 "Tm": 423.15, 
	 "num_atms": 20, 
	 "gaussian": { 
		 "optdone": 1, 
		 "sigma_profile": "yes", 
		 "theory": "DFT", 
		 "functional": "B3LYP", 
		 "basiset": "6-31G**", 
		 "properties": { 
			 "R2extent": 2755.0469, 
			 "electric_dipole_moment_norm": 2.58673475447, 
			 "electric_quadrupole_moment_norm": 17.903988383, 
			 "total_energy": -544.942720076, 
			 "HOMO_LUMO_gap": 0.22472, 
			 "cosmo_polarized_energy": -17.33, 
			 "cosmo_cavitation_energy": 24.4, 
			 "cosmo_dispersion_energy": -18.0, 
			 "cosmo_repulsion_energy": 1.49, 
			 "cosmo_total_nonelectrostatic_energy": 7.89, 
			 "SMD_solvation_energy": 2.53 
		},
		"coords": [
			{
				"x": -0.9105903888,
				"y": -4.2167244811,
				"z": 1.1161242005,
				"element": "C" 
			},
			{
				"x": -0.1528070008,
				"y": -3.1602407645,
				"z": 0.4705241991,
				"element": "N" 
			},
			{
				"x": 1.0723803105,
				"y": -3.3780352047,
				"z": -0.0653728867,
				"element": "C" 
			},
			{
				"x": 1.6661434824,
				"y": -4.4502774403,
				"z": -0.0647722982,
				"element": "O" 
			},
			{
				"x": 1.7149527967,
				"y": -2.1683370992,
				"z": -0.7745098761,
				"element": "C" 
			},
			{
				"x": 1.3840298402,
				"y": -0.859004205,
				"z": -0.2426843919,
				"element": "N" 
			},
			{
				"x": 2.1742530091,
				"y": 0.0443140027,
				"z": 0.3655755408,
				"element": "C" 
			},
			{
				"x": 1.4909275899,
				"y": 1.1262442859,
				"z": 0.7042984553,
				"element": "N" 
			},
			{
				"x": 0.2324521979,
				"y": 0.8274769072,
				"z": 0.2691301611,
				"element": "C" 
			},
			{
				"x": -0.8046502985,
				"y": 1.7261592971,
				"z": 0.3771117276,
				"element": "N" 
			},
			{
				"x": 0.1015749008,
				"y": -0.3653847441,
				"z": -0.3134636436,
				"element": "N" 
			},
			{
				"x": -0.282883592,
				"y": -5.1080883978,
				"z": 1.1421698632,
				"element": "H" 
			},
			{
				"x": -1.1816279756,
				"y": -3.9361507728,
				"z": 2.1397283306,
				"element": "H" 
			},
			{
				"x": -1.8278606167,
				"y": -4.4445169325,
				"z": 0.5608453179,
				"element": "H" 
			},
			{
				"x": -0.5581572064,
				"y": -2.236816936,
				"z": 0.3515263203,
				"element": "H" 
			},
			{
				"x": 1.4328727773,
				"y": -2.2022537644,
				"z": -1.8328748074,
				"element": "H" 
			},
			{
				"x": 2.7951430694,
				"y": -2.3020273596,
				"z": -0.7071248929,
				"element": "H" 
			},
			{
				"x": 3.2298457205,
				"y": -0.1202184055,
				"z": 0.5350998631,
				"element": "H" 
			},
			{
				"x": -1.7292118949,
				"y": 1.3235035032,
				"z": 0.330629204,
				"element": "H" 
			},
			{
				"x": -0.6812867209,
				"y": 2.4043785115,
				"z": 1.1148396133,
				"element": "H" 
			}
		],
		 "valence_orbital": [ 
			{
				"type": "occ",
				"energy": -0.2922,
				"method": "rhf"
			},
			{
				"type": "occ",
				"energy": -0.28245,
				"method": "rhf"
			},
			{
				"type": "occ",
				"energy": -0.25456,
				"method": "rhf"
			},
			{
				"type": "occ",
				"energy": -0.24996,
				"method": "rhf"
			},
			{
				"type": "occ",
				"energy": -0.22207,
				"method": "rhf"
			},
			{
				"type": "unocc",
				"energy": 0.00265,
				"method": "rhf"
			},
			{
				"type": "unocc",
				"energy": 0.02679,
				"method": "rhf"
			},
			{
				"type": "unocc",
				"energy": 0.06219,
				"method": "rhf"
			},
			{
				"type": "unocc",
				"energy": 0.08742,
				"method": "rhf"
			},
			{
				"type": "unocc",
				"energy": 0.09529,
				"method": "rhf"
			}
		],
		"cosmo_sigma_profile": { 
			"-0.025": 0.0,
			"-0.024": 0.0,
			"-0.023": 0.0,
			"-0.022": 0.0,
			"-0.021": 0.0,
			"-0.02": 0.0,
			"-0.019": 0.0,
			"-0.018": 0.0,
			"-0.017": 0.0,
			"-0.016": 0.0,
			"-0.015": 0.0,
			"-0.014": 0.268131960683,
			"-0.013": 2.10985742167,
			"-0.012": 1.96540353464,
			"-0.011": 4.10226425994,
			"-0.01": 5.71842214249,
			"-0.009": 5.172552283,
			"-0.008": 7.42684871625,
			"-0.007": 7.77265067654,
			"-0.006": 6.45550707297,
			"-0.005": 12.1253010036,
			"-0.004": 13.3513867578,
			"-0.003": 11.8513357407,
			"-0.002": 14.7426890374,
			"-0.001": 13.8025188742,
			"0.0": 10.4936285624,
			"0.001": 9.08339276619,
			"0.002": 8.19130208969,
			"0.003": 5.58536245935,
			"0.004": 4.57885843184,
			"0.005": 3.6650061353,
			"0.006": 5.05815557309,
			"0.007": 5.70007237245,
			"0.008": 4.52921557291,
			"0.009": 4.25835472457,
			"0.01": 3.34882397894,
			"0.011": 3.36908049835,
			"0.012": 4.34470268374,
			"0.013": 5.87426760476,
			"0.014": 5.69479085393,
			"0.015": 1.70240093023,
			"0.016": 0.979582229537,
			"0.017": 0.145451690844,
			"0.018": 0.0,
			"0.019": 0.0,
			"0.02": 0.0,
			"0.021": 0.0,
			"0.022": 0.0,
			"0.023": 0.0,
			"0.024": 0.0,
			"0.025": 0.0
		}
	}
}
