{
	 "smiles": "CN(C)C(=O)C1=CC(N)=C(Cl)C=C1", 
	 "Tm": 350.15, 
	 "num_atms": 24, 
	 "gaussian": { 
		 "optdone": 1, 
		 "sigma_profile": "yes", 
		 "theory": "DFT", 
		 "functional": "B3LYP", 
		 "basiset": "6-31G**", 
		 "properties": { 
			 "R2extent": 4258.1544, 
			 "electric_dipole_moment_norm": 1.73786521342, 
			 "electric_quadrupole_moment_norm": 15.8475896486, 
			 "total_energy": -994.521361485, 
			 "HOMO_LUMO_gap": 0.18475, 
			 "cosmo_polarized_energy": -13.23, 
			 "cosmo_cavitation_energy": 29.04, 
			 "cosmo_dispersion_energy": -21.33, 
			 "cosmo_repulsion_energy": 1.7, 
			 "cosmo_total_nonelectrostatic_energy": 9.41, 
			 "SMD_solvation_energy": 5.18 
		},
		"coords": [
			{
				"x": -1.3001911323,
				"y": -0.1589508783,
				"z": -1.7567603936,
				"element": "C" 
			},
			{
				"x": -1.4402349101,
				"y": 0.8053341875,
				"z": -0.6735370951,
				"element": "N" 
			},
			{
				"x": -2.4061528034,
				"y": 1.8681522251,
				"z": -0.9211138387,
				"element": "C" 
			},
			{
				"x": -1.0437872827,
				"y": 0.5928645646,
				"z": 0.6295699924,
				"element": "C" 
			},
			{
				"x": -1.5279414374,
				"y": 1.2265143594,
				"z": 1.5660124941,
				"element": "O" 
			},
			{
				"x": 0.0527232621,
				"y": -0.4070264801,
				"z": 0.8953492744,
				"element": "C" 
			},
			{
				"x": -0.0661988973,
				"y": -1.184817483,
				"z": 2.0469129004,
				"element": "C" 
			},
			{
				"x": 0.9337919027,
				"y": -2.0911852848,
				"z": 2.4371764214,
				"element": "C" 
			},
			{
				"x": 0.7640670524,
				"y": -2.9081573112,
				"z": 3.5421246561,
				"element": "N" 
			},
			{
				"x": 2.0860855504,
				"y": -2.1585879826,
				"z": 1.6277637883,
				"element": "C" 
			},
			{
				"x": 3.3872833488,
				"y": -3.2592341222,
				"z": 2.0804247036,
				"element": "Cl" 
			},
			{
				"x": 2.2322230835,
				"y": -1.3669495245,
				"z": 0.4930050171,
				"element": "C" 
			},
			{
				"x": 1.2160279905,
				"y": -0.4916523067,
				"z": 0.1160272547,
				"element": "C" 
			},
			{
				"x": -0.8103034579,
				"y": 0.295560983,
				"z": -2.6272368102,
				"element": "H" 
			},
			{
				"x": -2.290552639,
				"y": -0.5128871418,
				"z": -2.0747906649,
				"element": "H" 
			},
			{
				"x": -0.7166359069,
				"y": -1.0196918042,
				"z": -1.4373884976,
				"element": "H" 
			},
			{
				"x": -2.364187211,
				"y": 2.5832164258,
				"z": -0.1015625857,
				"element": "H" 
			},
			{
				"x": -2.1659164652,
				"y": 2.365798138,
				"z": -1.8670817481,
				"element": "H" 
			},
			{
				"x": -3.4294493136,
				"y": 1.4729955397,
				"z": -0.988180927,
				"element": "H" 
			},
			{
				"x": -0.9542055463,
				"y": -1.0724078573,
				"z": 2.661636864,
				"element": "H" 
			},
			{
				"x": 1.6080577584,
				"y": -3.2909836919,
				"z": 3.9439201141,
				"element": "H" 
			},
			{
				"x": 0.101053947,
				"y": -2.5789426926,
				"z": 4.2286461932,
				"element": "H" 
			},
			{
				"x": 3.1474322647,
				"y": -1.4355336985,
				"z": -0.0850286313,
				"element": "H" 
			},
			{
				"x": 1.3441108427,
				"y": 0.1390718367,
				"z": -0.7567884813,
				"element": "H" 
			}
		],
		 "valence_orbital": [ 
			{
				"type": "occ",
				"energy": -0.31738,
				"method": "rhf"
			},
			{
				"type": "occ",
				"energy": -0.2603,
				"method": "rhf"
			},
			{
				"type": "occ",
				"energy": -0.24237,
				"method": "rhf"
			},
			{
				"type": "occ",
				"energy": -0.23375,
				"method": "rhf"
			},
			{
				"type": "occ",
				"energy": -0.2134,
				"method": "rhf"
			},
			{
				"type": "unocc",
				"energy": -0.02865,
				"method": "rhf"
			},
			{
				"type": "unocc",
				"energy": -0.00051,
				"method": "rhf"
			},
			{
				"type": "unocc",
				"energy": 0.02859,
				"method": "rhf"
			},
			{
				"type": "unocc",
				"energy": 0.05137,
				"method": "rhf"
			},
			{
				"type": "unocc",
				"energy": 0.08436,
				"method": "rhf"
			}
		],
		"cosmo_sigma_profile": { 
			"-0.025": 0.0,
			"-0.024": 0.0,
			"-0.023": 0.0,
			"-0.022": 0.0,
			"-0.021": 0.0,
			"-0.02": 0.0,
			"-0.019": 0.0,
			"-0.018": 0.0,
			"-0.017": 0.0,
			"-0.016": 0.0,
			"-0.015": 0.0,
			"-0.014": 0.157796341975,
			"-0.013": 1.28858888562,
			"-0.012": 1.91433864237,
			"-0.011": 2.44491027808,
			"-0.01": 2.38599374169,
			"-0.009": 2.61793225784,
			"-0.008": 2.76799206603,
			"-0.007": 3.68633750145,
			"-0.006": 5.75923646402,
			"-0.005": 13.192995539,
			"-0.004": 21.9102018242,
			"-0.003": 19.8551400025,
			"-0.002": 26.6771450237,
			"-0.001": 17.7140173481,
			"0.0": 11.7628371349,
			"0.001": 13.508966681,
			"0.002": 15.7924500639,
			"0.003": 17.9803908573,
			"0.004": 16.5573967075,
			"0.005": 8.12472153247,
			"0.006": 3.13697535168,
			"0.007": 2.87842315899,
			"0.008": 1.78416027495,
			"0.009": 2.31172999445,
			"0.01": 2.61505600368,
			"0.011": 2.41480763405,
			"0.012": 2.20071961578,
			"0.013": 3.72654547007,
			"0.014": 4.46648790836,
			"0.015": 0.724098731422,
			"0.016": 0.0,
			"0.017": 0.0,
			"0.018": 0.0,
			"0.019": 0.0,
			"0.02": 0.0,
			"0.021": 0.0,
			"0.022": 0.0,
			"0.023": 0.0,
			"0.024": 0.0,
			"0.025": 0.0
		}
	}
}
