{
	 "smiles": "NC1=CC(I)=C(C=C1)C(O)=O", 
	 "Tm": 434.15, 
	 "num_atms": 17, 
	 "gaussian": { 
		 "optdone": 1, 
		 "sigma_profile": "yes", 
		 "theory": "DFT", 
		 "functional": "B3LYP", 
		 "basiset": "6-31G**", 
		 "properties": { 
			 "R2extent": 2022.0545, 
			 "electric_dipole_moment_norm": 6.76281377535, 
			 "electric_quadrupole_moment_norm": 11.3722090413, 
			 "total_energy": -486.953063014, 
			 "HOMO_LUMO_gap": 0.17039, 
			 "cosmo_polarized_energy": -17.02, 
			 "cosmo_cavitation_energy": 24.35, 
			 "cosmo_dispersion_energy": -19.62, 
			 "cosmo_repulsion_energy": 1.53, 
			 "cosmo_total_nonelectrostatic_energy": 6.26, 
			 "SMD_solvation_energy": 4.48 
		},
		"coords": [
			{
				"x": 1.9373821987,
				"y": -2.6274128744,
				"z": 2.0427412226,
				"element": "N" 
			},
			{
				"x": 1.1569660379,
				"y": -1.7020700192,
				"z": 1.3787149639,
				"element": "C" 
			},
			{
				"x": -0.1271225121,
				"y": -1.3765497204,
				"z": 1.8526530851,
				"element": "C" 
			},
			{
				"x": -0.9397549019,
				"y": -0.4891704152,
				"z": 1.1517936155,
				"element": "C" 
			},
			{
				"x": -2.8180008898,
				"y": -0.1002416216,
				"z": 2.110292531,
				"element": "I" 
			},
			{
				"x": -0.5203240702,
				"y": 0.1243961833,
				"z": -0.0436290009,
				"element": "C" 
			},
			{
				"x": 0.7813393545,
				"y": -0.2044078611,
				"z": -0.4790835979,
				"element": "C" 
			},
			{
				"x": 1.6012554718,
				"y": -1.0910323013,
				"z": 0.1916004833,
				"element": "C" 
			},
			{
				"x": -1.2301388451,
				"y": 1.1063477713,
				"z": -0.9411610374,
				"element": "C" 
			},
			{
				"x": -2.5778244882,
				"y": 1.1738168526,
				"z": -0.9248971792,
				"element": "O" 
			},
			{
				"x": -0.613083194,
				"y": 1.8073984189,
				"z": -1.71337878,
				"element": "O" 
			},
			{
				"x": 2.9279677574,
				"y": -2.6135416808,
				"z": 1.8507520017,
				"element": "H" 
			},
			{
				"x": 1.7107230758,
				"y": -2.8195022684,
				"z": 3.0071129631,
				"element": "H" 
			},
			{
				"x": -0.4800253238,
				"y": -1.824203804,
				"z": 2.7752605134,
				"element": "H" 
			},
			{
				"x": 1.1258143395,
				"y": 0.2827894162,
				"z": -1.3843647141,
				"element": "H" 
			},
			{
				"x": 2.5903903187,
				"y": -1.3176581931,
				"z": -0.1964919309,
				"element": "H" 
			},
			{
				"x": -2.9657643291,
				"y": 0.5574421173,
				"z": -0.2832151391,
				"element": "H" 
			}
		],
		 "valence_orbital": [ 
			{
				"type": "occ",
				"energy": -0.29864,
				"method": "rhf"
			},
			{
				"type": "occ",
				"energy": -0.28563,
				"method": "rhf"
			},
			{
				"type": "occ",
				"energy": -0.26708,
				"method": "rhf"
			},
			{
				"type": "occ",
				"energy": -0.25795,
				"method": "rhf"
			},
			{
				"type": "occ",
				"energy": -0.22909,
				"method": "rhf"
			},
			{
				"type": "unocc",
				"energy": -0.0587,
				"method": "rhf"
			},
			{
				"type": "unocc",
				"energy": -0.04185,
				"method": "rhf"
			},
			{
				"type": "unocc",
				"energy": -0.02532,
				"method": "rhf"
			},
			{
				"type": "unocc",
				"energy": 0.03392,
				"method": "rhf"
			},
			{
				"type": "unocc",
				"energy": 0.04401,
				"method": "rhf"
			}
		],
		"cosmo_sigma_profile": { 
			"-0.025": 0.0,
			"-0.024": 0.0,
			"-0.023": 0.0,
			"-0.022": 0.0,
			"-0.021": 0.0,
			"-0.02": 0.0,
			"-0.019": 0.0,
			"-0.018": 0.0,
			"-0.017": 0.0,
			"-0.016": 0.0,
			"-0.015": 0.0,
			"-0.014": 1.14112699315,
			"-0.013": 3.07983787166,
			"-0.012": 4.23040655835,
			"-0.011": 4.05871566506,
			"-0.01": 4.34183094674,
			"-0.009": 4.40756883027,
			"-0.008": 4.97505681294,
			"-0.007": 5.72654970808,
			"-0.006": 7.12585830083,
			"-0.005": 8.03512323334,
			"-0.004": 9.07899660227,
			"-0.003": 9.52019343964,
			"-0.002": 9.81218621913,
			"-0.001": 11.0298292577,
			"0.0": 13.293345394,
			"0.001": 15.3370607893,
			"0.002": 16.6903115679,
			"0.003": 23.4867151216,
			"0.004": 9.09581443153,
			"0.005": 2.97734455075,
			"0.006": 2.71638882753,
			"0.007": 3.49963601345,
			"0.008": 3.66393759736,
			"0.009": 3.22675582891,
			"0.01": 4.51230611878,
			"0.011": 5.74687301043,
			"0.012": 5.67677774663,
			"0.013": 2.59282065834,
			"0.014": 0.624326312385,
			"0.015": 0.0,
			"0.016": 0.0,
			"0.017": 0.0,
			"0.018": 0.0,
			"0.019": 0.0,
			"0.02": 0.0,
			"0.021": 0.0,
			"0.022": 0.0,
			"0.023": 0.0,
			"0.024": 0.0,
			"0.025": 0.0
		}
	}
}
