{
	 "smiles": "CN1C(=O)N(C)C2=C1C=CC(N)=C2", 
	 "Tm": 422.15, 
	 "num_atms": 24, 
	 "gaussian": { 
		 "optdone": 1, 
		 "sigma_profile": "yes", 
		 "theory": "DFT", 
		 "functional": "B3LYP", 
		 "basiset": "6-31G**", 
		 "properties": { 
			 "R2extent": 2832.3848, 
			 "electric_dipole_moment_norm": 3.59485268822, 
			 "electric_quadrupole_moment_norm": 17.0080238276, 
			 "total_energy": -589.104585495, 
			 "HOMO_LUMO_gap": 0.18168, 
			 "cosmo_polarized_energy": -14.27, 
			 "cosmo_cavitation_energy": 27.32, 
			 "cosmo_dispersion_energy": -20.11, 
			 "cosmo_repulsion_energy": 1.57, 
			 "cosmo_total_nonelectrostatic_energy": 8.79, 
			 "SMD_solvation_energy": 5.37 
		},
		"coords": [
			{
				"x": -3.5311114082,
				"y": -1.5038734189,
				"z": 0.4637710914,
				"element": "C" 
			},
			{
				"x": -2.151390397,
				"y": -1.4787977636,
				"z": 0.0345539353,
				"element": "N" 
			},
			{
				"x": -1.6471572373,
				"y": -2.338992279,
				"z": -0.9363720525,
				"element": "C" 
			},
			{
				"x": -2.2533420435,
				"y": -3.2079273373,
				"z": -1.5485629682,
				"element": "O" 
			},
			{
				"x": -0.2938286748,
				"y": -2.0055157518,
				"z": -1.0712867868,
				"element": "N" 
			},
			{
				"x": 0.5857582089,
				"y": -2.6791395439,
				"z": -2.0001496995,
				"element": "C" 
			},
			{
				"x": 0.0319773767,
				"y": -0.9663738162,
				"z": -0.2096875884,
				"element": "C" 
			},
			{
				"x": -1.1426625862,
				"y": -0.6296801131,
				"z": 0.492996597,
				"element": "C" 
			},
			{
				"x": -1.1288626785,
				"y": 0.3849504387,
				"z": 1.4377296602,
				"element": "C" 
			},
			{
				"x": 0.077926043,
				"y": 1.0570357078,
				"z": 1.6710341443,
				"element": "C" 
			},
			{
				"x": 1.2528162031,
				"y": 0.7268903651,
				"z": 0.9726823032,
				"element": "C" 
			},
			{
				"x": 2.4316218975,
				"y": 1.461242101,
				"z": 1.1808956168,
				"element": "N" 
			},
			{
				"x": 1.2320046572,
				"y": -0.305635955,
				"z": 0.0128780804,
				"element": "C" 
			},
			{
				"x": -4.0329239282,
				"y": -2.2880543407,
				"z": -0.1050040848,
				"element": "H" 
			},
			{
				"x": -4.0220951853,
				"y": -0.5437571359,
				"z": 0.2678019275,
				"element": "H" 
			},
			{
				"x": -3.6069457998,
				"y": -1.7280021412,
				"z": 1.5339971767,
				"element": "H" 
			},
			{
				"x": 0.9942685905,
				"y": -1.9767033596,
				"z": -2.7353708673,
				"element": "H" 
			},
			{
				"x": 1.4156072878,
				"y": -3.1654562813,
				"z": -1.4748945936,
				"element": "H" 
			},
			{
				"x": -0.0078242457,
				"y": -3.4359546064,
				"z": -2.5150450697,
				"element": "H" 
			},
			{
				"x": -2.0232476719,
				"y": 0.6560928092,
				"z": 1.9895326686,
				"element": "H" 
			},
			{
				"x": 0.1069273229,
				"y": 1.858054108,
				"z": 2.4045944348,
				"element": "H" 
			},
			{
				"x": 3.2814933772,
				"y": 0.9472118201,
				"z": 0.989062751,
				"element": "H" 
			},
			{
				"x": 2.4820970749,
				"y": 1.9124035075,
				"z": 2.0847942495,
				"element": "H" 
			},
			{
				"x": 2.1304938168,
				"y": -0.5651170134,
				"z": -0.5389509257,
				"element": "H" 
			}
		],
		 "valence_orbital": [ 
			{
				"type": "occ",
				"energy": -0.29593,
				"method": "rhf"
			},
			{
				"type": "occ",
				"energy": -0.26186,
				"method": "rhf"
			},
			{
				"type": "occ",
				"energy": -0.2595,
				"method": "rhf"
			},
			{
				"type": "occ",
				"energy": -0.21923,
				"method": "rhf"
			},
			{
				"type": "occ",
				"energy": -0.17946,
				"method": "rhf"
			},
			{
				"type": "unocc",
				"energy": 0.00222,
				"method": "rhf"
			},
			{
				"type": "unocc",
				"energy": 0.02932,
				"method": "rhf"
			},
			{
				"type": "unocc",
				"energy": 0.07526,
				"method": "rhf"
			},
			{
				"type": "unocc",
				"energy": 0.08184,
				"method": "rhf"
			},
			{
				"type": "unocc",
				"energy": 0.09897,
				"method": "rhf"
			}
		],
		"cosmo_sigma_profile": { 
			"-0.025": 0.0,
			"-0.024": 0.0,
			"-0.023": 0.0,
			"-0.022": 0.0,
			"-0.021": 0.0,
			"-0.02": 0.0,
			"-0.019": 0.0,
			"-0.018": 0.0,
			"-0.017": 0.0,
			"-0.016": 0.0,
			"-0.015": 0.0,
			"-0.014": 0.0,
			"-0.013": 0.0338838364012,
			"-0.012": 1.47906463265,
			"-0.011": 3.09230839956,
			"-0.01": 2.69266286141,
			"-0.009": 2.74100385862,
			"-0.008": 3.58933152187,
			"-0.007": 3.67278149275,
			"-0.006": 7.73910939489,
			"-0.005": 20.2546714764,
			"-0.004": 22.0932479439,
			"-0.003": 20.7210724515,
			"-0.002": 19.170629415,
			"-0.001": 11.0400258309,
			"0.0": 13.8449429244,
			"0.001": 11.7625944068,
			"0.002": 8.29322512571,
			"0.003": 7.72305143422,
			"0.004": 7.76050578113,
			"0.005": 10.0783079078,
			"0.006": 10.5299669296,
			"0.007": 5.79625204151,
			"0.008": 2.13475630036,
			"0.009": 2.69363298003,
			"0.01": 1.86731171096,
			"0.011": 2.04543543745,
			"0.012": 2.56132854948,
			"0.013": 3.22523048391,
			"0.014": 6.80443135248,
			"0.015": 0.881005474431,
			"0.016": 0.202323131768,
			"0.017": 0.0,
			"0.018": 0.0,
			"0.019": 0.0,
			"0.02": 0.0,
			"0.021": 0.0,
			"0.022": 0.0,
			"0.023": 0.0,
			"0.024": 0.0,
			"0.025": 0.0
		}
	}
}
