{
	 "smiles": "ClCC(=O)C1=CC2=C(CCCC2)C=C1", 
	 "Tm": 336.15, 
	 "num_atms": 27, 
	 "gaussian": { 
		 "optdone": 1, 
		 "sigma_profile": "yes", 
		 "theory": "DFT", 
		 "functional": "B3LYP", 
		 "basiset": "6-31G**", 
		 "properties": { 
			 "R2extent": 4244.9787, 
			 "electric_dipole_moment_norm": 4.01175896335, 
			 "electric_quadrupole_moment_norm": 11.6787246859, 
			 "total_energy": -1000.54378884, 
			 "HOMO_LUMO_gap": 0.18035, 
			 "cosmo_polarized_energy": -8.61, 
			 "cosmo_cavitation_energy": 30.84, 
			 "cosmo_dispersion_energy": -22.57, 
			 "cosmo_repulsion_energy": 1.79, 
			 "cosmo_total_nonelectrostatic_energy": 10.07, 
			 "SMD_solvation_energy": 4.64 
		},
		"coords": [
			{
				"x": -4.0745802284,
				"y": 1.1310227773,
				"z": -0.7406395641,
				"element": "Cl" 
			},
			{
				"x": -3.7125790548,
				"y": -0.1178322179,
				"z": -2.0098009857,
				"element": "C" 
			},
			{
				"x": -3.0491065513,
				"y": -1.3652092568,
				"z": -1.4143019514,
				"element": "C" 
			},
			{
				"x": -3.6955551867,
				"y": -2.4014127372,
				"z": -1.3933491837,
				"element": "O" 
			},
			{
				"x": -1.6455934913,
				"y": -1.2987815976,
				"z": -0.923328763,
				"element": "C" 
			},
			{
				"x": -0.858840574,
				"y": -0.1372303864,
				"z": -1.0021977419,
				"element": "C" 
			},
			{
				"x": 0.4611050017,
				"y": -0.1375692975,
				"z": -0.554883302,
				"element": "C" 
			},
			{
				"x": 1.0106532115,
				"y": -1.3134214103,
				"z": -0.007128682,
				"element": "C" 
			},
			{
				"x": 2.4387676475,
				"y": -1.239764249,
				"z": 0.4693208854,
				"element": "C" 
			},
			{
				"x": 2.6725333399,
				"y": 0.0089478171,
				"z": 1.3536181583,
				"element": "C" 
			},
			{
				"x": 2.0531122872,
				"y": 1.3067750518,
				"z": 0.757778074,
				"element": "C" 
			},
			{
				"x": 1.3563076965,
				"y": 1.0765645497,
				"z": -0.6036560705,
				"element": "C" 
			},
			{
				"x": 0.2251262653,
				"y": -2.468226614,
				"z": 0.0805697962,
				"element": "C" 
			},
			{
				"x": -1.0877158545,
				"y": -2.4658680248,
				"z": -0.3767466675,
				"element": "C" 
			},
			{
				"x": -4.6645492683,
				"y": -0.4195638408,
				"z": -2.4421266846,
				"element": "H" 
			},
			{
				"x": -3.0878882684,
				"y": 0.3659682365,
				"z": -2.7628974371,
				"element": "H" 
			},
			{
				"x": -1.2752470555,
				"y": 0.7833160366,
				"z": -1.3995172693,
				"element": "H" 
			},
			{
				"x": 2.7179215447,
				"y": -2.1492674204,
				"z": 1.0109733877,
				"element": "H" 
			},
			{
				"x": 3.1027228731,
				"y": -1.1843595243,
				"z": -0.4059851943,
				"element": "H" 
			},
			{
				"x": 2.2368932749,
				"y": -0.1822362697,
				"z": 2.3397606388,
				"element": "H" 
			},
			{
				"x": 3.7489797551,
				"y": 0.1337288573,
				"z": 1.5109108573,
				"element": "H" 
			},
			{
				"x": 1.3130767387,
				"y": 1.7102079747,
				"z": 1.4566536093,
				"element": "H" 
			},
			{
				"x": 2.8204954098,
				"y": 2.0790556723,
				"z": 0.6401680827,
				"element": "H" 
			},
			{
				"x": 2.1242733273,
				"y": 0.9288228898,
				"z": -1.3771642556,
				"element": "H" 
			},
			{
				"x": 0.790473901,
				"y": 1.9669301458,
				"z": -0.8965279001,
				"element": "H" 
			},
			{
				"x": 0.6482793291,
				"y": -3.3730860193,
				"z": 0.5096848508,
				"element": "H" 
			},
			{
				"x": -1.7060660704,
				"y": -3.355211143,
				"z": -0.3202866874,
				"element": "H" 
			}
		],
		 "valence_orbital": [ 
			{
				"type": "occ",
				"energy": -0.31295,
				"method": "rhf"
			},
			{
				"type": "occ",
				"energy": -0.30276,
				"method": "rhf"
			},
			{
				"type": "occ",
				"energy": -0.25671,
				"method": "rhf"
			},
			{
				"type": "occ",
				"energy": -0.25512,
				"method": "rhf"
			},
			{
				"type": "occ",
				"energy": -0.24664,
				"method": "rhf"
			},
			{
				"type": "unocc",
				"energy": -0.06629,
				"method": "rhf"
			},
			{
				"type": "unocc",
				"energy": -0.00805,
				"method": "rhf"
			},
			{
				"type": "unocc",
				"energy": 0.00618,
				"method": "rhf"
			},
			{
				"type": "unocc",
				"energy": 0.05543,
				"method": "rhf"
			},
			{
				"type": "unocc",
				"energy": 0.07827,
				"method": "rhf"
			}
		],
		"cosmo_sigma_profile": { 
			"-0.025": 0.0,
			"-0.024": 0.0,
			"-0.023": 0.0,
			"-0.022": 0.0,
			"-0.021": 0.0,
			"-0.02": 0.0,
			"-0.019": 0.0,
			"-0.018": 0.0,
			"-0.017": 0.0,
			"-0.016": 0.0,
			"-0.015": 0.0,
			"-0.014": 0.0,
			"-0.013": 0.0,
			"-0.012": 0.0,
			"-0.011": 0.0,
			"-0.01": 0.0,
			"-0.009": 1.98356365333,
			"-0.008": 4.46312077643,
			"-0.007": 4.70574091264,
			"-0.006": 6.43871502627,
			"-0.005": 10.146007285,
			"-0.004": 16.928582164,
			"-0.003": 21.5207533626,
			"-0.002": 26.9345591493,
			"-0.001": 30.2964033342,
			"0.0": 25.3349772559,
			"0.001": 19.5371478309,
			"0.002": 12.6610491324,
			"0.003": 14.541334668,
			"0.004": 19.3379845849,
			"0.005": 11.7392159939,
			"0.006": 5.37658125594,
			"0.007": 1.08448532134,
			"0.008": 1.88867720723,
			"0.009": 1.94560806996,
			"0.01": 2.56047090167,
			"0.011": 3.99962778416,
			"0.012": 1.81408224713,
			"0.013": 0.147959044621,
			"0.014": 0.0,
			"0.015": 0.0,
			"0.016": 0.0,
			"0.017": 0.0,
			"0.018": 0.0,
			"0.019": 0.0,
			"0.02": 0.0,
			"0.021": 0.0,
			"0.022": 0.0,
			"0.023": 0.0,
			"0.024": 0.0,
			"0.025": 0.0
		}
	}
}
