{
	 "smiles": "COC1=C(OC)C=C(CO)C=C1", 
	 "Tm": 295.15, 
	 "num_atms": 24, 
	 "gaussian": { 
		 "optdone": 1, 
		 "sigma_profile": "yes", 
		 "theory": "DFT", 
		 "functional": "B3LYP", 
		 "basiset": "6-31G**", 
		 "properties": { 
			 "R2extent": 3179.1358, 
			 "electric_dipole_moment_norm": 2.83354390825, 
			 "electric_quadrupole_moment_norm": 9.05962768275, 
			 "total_energy": -575.818846335, 
			 "HOMO_LUMO_gap": 0.21323, 
			 "cosmo_polarized_energy": -10.8, 
			 "cosmo_cavitation_energy": 27.28, 
			 "cosmo_dispersion_energy": -19.91, 
			 "cosmo_repulsion_energy": 1.61, 
			 "cosmo_total_nonelectrostatic_energy": 8.98, 
			 "SMD_solvation_energy": 6.31 
		},
		"coords": [
			{
				"x": 0.5407791487,
				"y": 1.2840960075,
				"z": -2.0191978402,
				"element": "C" 
			},
			{
				"x": -0.5957100734,
				"y": 0.9558821277,
				"z": -1.2363088731,
				"element": "O" 
			},
			{
				"x": -0.4300380691,
				"y": 0.8226557032,
				"z": 0.1140976897,
				"element": "C" 
			},
			{
				"x": -1.5970563987,
				"y": 0.5408554594,
				"z": 0.8611659053,
				"element": "C" 
			},
			{
				"x": -2.831323961,
				"y": 0.4490427126,
				"z": 0.264888718,
				"element": "O" 
			},
			{
				"x": -3.0269224516,
				"y": -0.6674948508,
				"z": -0.6053231207,
				"element": "C" 
			},
			{
				"x": -1.5134047637,
				"y": 0.4111724944,
				"z": 2.2438619406,
				"element": "C" 
			},
			{
				"x": -0.2962957112,
				"y": 0.5598634449,
				"z": 2.9221699087,
				"element": "C" 
			},
			{
				"x": -0.2337164693,
				"y": 0.4591342403,
				"z": 4.4337756551,
				"element": "C" 
			},
			{
				"x": 1.0035823198,
				"y": -0.0444335862,
				"z": 4.9205190414,
				"element": "O" 
			},
			{
				"x": 0.8521478506,
				"y": 0.8225017947,
				"z": 2.1747434535,
				"element": "C" 
			},
			{
				"x": 0.7900318349,
				"y": 0.9499559668,
				"z": 0.7838238358,
				"element": "C" 
			},
			{
				"x": 0.9787085794,
				"y": 2.2423632398,
				"z": -1.712279645,
				"element": "H" 
			},
			{
				"x": 0.1847570482,
				"y": 1.365002101,
				"z": -3.0474121174,
				"element": "H" 
			},
			{
				"x": 1.3118766133,
				"y": 0.5045043506,
				"z": -1.9645955927,
				"element": "H" 
			},
			{
				"x": -2.3559863141,
				"y": -0.6288902985,
				"z": -1.4682724612,
				"element": "H" 
			},
			{
				"x": -4.0629441761,
				"y": -0.6087335059,
				"z": -0.945804867,
				"element": "H" 
			},
			{
				"x": -2.8783352709,
				"y": -1.6135887135,
				"z": -0.0679077477,
				"element": "H" 
			},
			{
				"x": -2.4321744385,
				"y": 0.1960828786,
				"z": 2.7831730791,
				"element": "H" 
			},
			{
				"x": -1.0848468464,
				"y": -0.1381136218,
				"z": 4.7984854562,
				"element": "H" 
			},
			{
				"x": -0.3316525759,
				"y": 1.4536204372,
				"z": 4.88615479,
				"element": "H" 
			},
			{
				"x": 1.1498378502,
				"y": -0.9009219084,
				"z": 4.4967343946,
				"element": "H" 
			},
			{
				"x": 1.8040503228,
				"y": 0.928261806,
				"z": 2.6854040857,
				"element": "H" 
			},
			{
				"x": 1.6978359521,
				"y": 1.1607817204,
				"z": 0.2305043111,
				"element": "H" 
			}
		],
		 "valence_orbital": [ 
			{
				"type": "occ",
				"energy": -0.31454,
				"method": "rhf"
			},
			{
				"type": "occ",
				"energy": -0.27608,
				"method": "rhf"
			},
			{
				"type": "occ",
				"energy": -0.26653,
				"method": "rhf"
			},
			{
				"type": "occ",
				"energy": -0.23865,
				"method": "rhf"
			},
			{
				"type": "occ",
				"energy": -0.21033,
				"method": "rhf"
			},
			{
				"type": "unocc",
				"energy": 0.0029,
				"method": "rhf"
			},
			{
				"type": "unocc",
				"energy": 0.00869,
				"method": "rhf"
			},
			{
				"type": "unocc",
				"energy": 0.08772,
				"method": "rhf"
			},
			{
				"type": "unocc",
				"energy": 0.09301,
				"method": "rhf"
			},
			{
				"type": "unocc",
				"energy": 0.09909,
				"method": "rhf"
			}
		],
		"cosmo_sigma_profile": { 
			"-0.025": 0.0,
			"-0.024": 0.0,
			"-0.023": 0.0,
			"-0.022": 0.0,
			"-0.021": 0.0,
			"-0.02": 0.0,
			"-0.019": 0.0,
			"-0.018": 0.0,
			"-0.017": 0.0,
			"-0.016": 0.112420970787,
			"-0.015": 0.658019076352,
			"-0.014": 0.912535319627,
			"-0.013": 1.00881892027,
			"-0.012": 0.451709836404,
			"-0.011": 0.938674922925,
			"-0.01": 0.815458911138,
			"-0.009": 0.821686109699,
			"-0.008": 0.336677173979,
			"-0.007": 1.44716500454,
			"-0.006": 7.83584493686,
			"-0.005": 19.4543250145,
			"-0.004": 23.4230776176,
			"-0.003": 25.0991655641,
			"-0.002": 21.3723301843,
			"-0.001": 13.3422852289,
			"0.0": 11.7428444227,
			"0.001": 9.36823772084,
			"0.002": 10.2562007766,
			"0.003": 12.6747266179,
			"0.004": 11.8183100615,
			"0.005": 11.0132646196,
			"0.006": 6.24659060058,
			"0.007": 3.52908074926,
			"0.008": 2.77780511963,
			"0.009": 3.60894705466,
			"0.01": 3.31908900166,
			"0.011": 3.97786286317,
			"0.012": 2.66472699665,
			"0.013": 1.81352201623,
			"0.014": 2.00871935662,
			"0.015": 0.20895970947,
			"0.016": 0.0,
			"0.017": 0.0,
			"0.018": 0.0,
			"0.019": 0.0,
			"0.02": 0.0,
			"0.021": 0.0,
			"0.022": 0.0,
			"0.023": 0.0,
			"0.024": 0.0,
			"0.025": 0.0
		}
	}
}
