{
	 "smiles": "COC1=CC2=C(C=C1)C(OC(C)=O)=C(OC)C(OC)=C2OC(C)=O", 
	 "Tm": 350.65, 
	 "num_atms": 42, 
	 "gaussian": { 
		 "optdone": 1, 
		 "sigma_profile": "yes", 
		 "theory": "DFT", 
		 "functional": "B3LYP", 
		 "basiset": "6-31G**", 
		 "properties": { 
			 "R2extent": 8545.6239, 
			 "electric_dipole_moment_norm": 3.42201139975, 
			 "electric_quadrupole_moment_norm": 22.9581705001, 
			 "total_energy": -1185.20198545, 
			 "HOMO_LUMO_gap": 0.15926, 
			 "cosmo_polarized_energy": -18.04, 
			 "cosmo_cavitation_energy": 46.4, 
			 "cosmo_dispersion_energy": -31.01, 
			 "cosmo_repulsion_energy": 2.4, 
			 "cosmo_total_nonelectrostatic_energy": 17.79, 
			 "SMD_solvation_energy": 12.23 
		},
		"coords": [
			{
				"x": -1.1355589625,
				"y": -3.2656221835,
				"z": 4.8715934507,
				"element": "C" 
			},
			{
				"x": -0.3621878824,
				"y": -2.1770086301,
				"z": 4.3928774717,
				"element": "O" 
			},
			{
				"x": -0.4987118459,
				"y": -1.7979247991,
				"z": 3.0879138482,
				"element": "C" 
			},
			{
				"x": 0.2735859906,
				"y": -0.7242175986,
				"z": 2.6808596953,
				"element": "C" 
			},
			{
				"x": 0.2066834954,
				"y": -0.2496286774,
				"z": 1.3522333204,
				"element": "C" 
			},
			{
				"x": -0.6678534614,
				"y": -0.8964178854,
				"z": 0.4186222923,
				"element": "C" 
			},
			{
				"x": -1.4396254166,
				"y": -1.9951773219,
				"z": 0.865398223,
				"element": "C" 
			},
			{
				"x": -1.3655218005,
				"y": -2.441183822,
				"z": 2.1674191939,
				"element": "C" 
			},
			{
				"x": -0.70330075,
				"y": -0.426531147,
				"z": -0.9205801264,
				"element": "C" 
			},
			{
				"x": -1.4712949804,
				"y": -1.1210759005,
				"z": -1.8505022562,
				"element": "O" 
			},
			{
				"x": -2.5935555908,
				"y": -0.4974281116,
				"z": -2.3577031013,
				"element": "C" 
			},
			{
				"x": -3.1847162578,
				"y": -1.340998766,
				"z": -3.458798399,
				"element": "C" 
			},
			{
				"x": -3.0127376861,
				"y": 0.5564711611,
				"z": -1.9591353625,
				"element": "O" 
			},
			{
				"x": 0.0662829492,
				"y": 0.6382938426,
				"z": -1.3359330383,
				"element": "C" 
			},
			{
				"x": 0.0101417349,
				"y": 1.0480126214,
				"z": -2.645426816,
				"element": "O" 
			},
			{
				"x": 1.1752841527,
				"y": 0.7174313456,
				"z": -3.4148992894,
				"element": "C" 
			},
			{
				"x": 0.9037857129,
				"y": 1.3181050227,
				"z": -0.397978868,
				"element": "C" 
			},
			{
				"x": 1.6913142385,
				"y": 2.3634679871,
				"z": -0.794847833,
				"element": "O" 
			},
			{
				"x": 0.9798444225,
				"y": 3.5511183473,
				"z": -1.2070222862,
				"element": "C" 
			},
			{
				"x": 0.9702288616,
				"y": 0.8642436394,
				"z": 0.9044039513,
				"element": "C" 
			},
			{
				"x": 1.8671339782,
				"y": 1.4371367059,
				"z": 1.8027407247,
				"element": "O" 
			},
			{
				"x": 1.6521562549,
				"y": 2.7194101758,
				"z": 2.240617928,
				"element": "C" 
			},
			{
				"x": 2.7997559008,
				"y": 3.1546671951,
				"z": 3.1165483355,
				"element": "C" 
			},
			{
				"x": 0.6839693258,
				"y": 3.3795497553,
				"z": 1.957423463,
				"element": "O" 
			},
			{
				"x": -2.2122490304,
				"y": -3.0668344048,
				"z": 4.7942059767,
				"element": "H" 
			},
			{
				"x": -0.9033023811,
				"y": -4.1972459055,
				"z": 4.3394326639,
				"element": "H" 
			},
			{
				"x": -0.8698898339,
				"y": -3.3815300451,
				"z": 5.9235729891,
				"element": "H" 
			},
			{
				"x": 0.9349058432,
				"y": -0.2508720059,
				"z": 3.3958670695,
				"element": "H" 
			},
			{
				"x": -2.0947500185,
				"y": -2.4932848962,
				"z": 0.1595662331,
				"element": "H" 
			},
			{
				"x": -1.971857653,
				"y": -3.2842694517,
				"z": 2.4758735517,
				"element": "H" 
			},
			{
				"x": -2.5058920659,
				"y": -1.3435573663,
				"z": -4.3173963129,
				"element": "H" 
			},
			{
				"x": -3.3018644616,
				"y": -2.3772178793,
				"z": -3.130656146,
				"element": "H" 
			},
			{
				"x": -4.1471153795,
				"y": -0.9253827139,
				"z": -3.7553098087,
				"element": "H" 
			},
			{
				"x": 1.3128027984,
				"y": -0.3696059986,
				"z": -3.4612008338,
				"element": "H" 
			},
			{
				"x": 0.9958783784,
				"y": 1.1044184899,
				"z": -4.4199886973,
				"element": "H" 
			},
			{
				"x": 2.0712466179,
				"y": 1.1841638308,
				"z": -2.9940782242,
				"element": "H" 
			},
			{
				"x": 0.3487387449,
				"y": 3.3465990784,
				"z": -2.0749980922,
				"element": "H" 
			},
			{
				"x": 0.3788373732,
				"y": 3.929787873,
				"z": -0.377000582,
				"element": "H" 
			},
			{
				"x": 1.751374175,
				"y": 4.2778312542,
				"z": -1.4685886344,
				"element": "H" 
			},
			{
				"x": 3.7134928444,
				"y": 3.2118125923,
				"z": 2.5169908547,
				"element": "H" 
			},
			{
				"x": 2.974654307,
				"y": 2.4228593131,
				"z": 3.9098453853,
				"element": "H" 
			},
			{
				"x": 2.5776873579,
				"y": 4.1311352795,
				"z": 3.5454380855,
				"element": "H" 
			}
		],
		 "valence_orbital": [ 
			{
				"type": "occ",
				"energy": -0.27318,
				"method": "rhf"
			},
			{
				"type": "occ",
				"energy": -0.26673,
				"method": "rhf"
			},
			{
				"type": "occ",
				"energy": -0.26132,
				"method": "rhf"
			},
			{
				"type": "occ",
				"energy": -0.22374,
				"method": "rhf"
			},
			{
				"type": "occ",
				"energy": -0.19802,
				"method": "rhf"
			},
			{
				"type": "unocc",
				"energy": -0.03876,
				"method": "rhf"
			},
			{
				"type": "unocc",
				"energy": -0.00294,
				"method": "rhf"
			},
			{
				"type": "unocc",
				"energy": 0.00923,
				"method": "rhf"
			},
			{
				"type": "unocc",
				"energy": 0.01118,
				"method": "rhf"
			},
			{
				"type": "unocc",
				"energy": 0.0388,
				"method": "rhf"
			}
		],
		"cosmo_sigma_profile": { 
			"-0.025": 0.0,
			"-0.024": 0.0,
			"-0.023": 0.0,
			"-0.022": 0.0,
			"-0.021": 0.0,
			"-0.02": 0.0,
			"-0.019": 0.0,
			"-0.018": 0.0,
			"-0.017": 0.0,
			"-0.016": 0.0,
			"-0.015": 0.0,
			"-0.014": 0.0,
			"-0.013": 0.0,
			"-0.012": 0.0,
			"-0.011": 0.0,
			"-0.01": 0.0,
			"-0.009": 0.0,
			"-0.008": 0.0246305048203,
			"-0.007": 6.5560794392,
			"-0.006": 23.933018095,
			"-0.005": 32.3455479144,
			"-0.004": 36.926761572,
			"-0.003": 43.88309891,
			"-0.002": 36.7936687535,
			"-0.001": 21.4429049809,
			"0.0": 17.9317566233,
			"0.001": 21.1714760095,
			"0.002": 22.3503333321,
			"0.003": 25.4286534846,
			"0.004": 17.2687143003,
			"0.005": 10.3314719154,
			"0.006": 7.7612987237,
			"0.007": 8.27706462476,
			"0.008": 6.7696177345,
			"0.009": 7.69930246118,
			"0.01": 9.37558801834,
			"0.011": 9.02305718118,
			"0.012": 3.40516110971,
			"0.013": 0.112979636624,
			"0.014": 0.0,
			"0.015": 0.0,
			"0.016": 0.0,
			"0.017": 0.0,
			"0.018": 0.0,
			"0.019": 0.0,
			"0.02": 0.0,
			"0.021": 0.0,
			"0.022": 0.0,
			"0.023": 0.0,
			"0.024": 0.0,
			"0.025": 0.0
		}
	}
}
