{
	 "smiles": "CC(=N/C1=C(O)C=CC=C1)C1=C(O)C2=CC=CC=C2N(C2=CC=CC=C2)C1=O", 
	 "Tm": 541.15, 
	 "num_atms": 46, 
	 "gaussian": { 
		 "optdone": 1, 
		 "sigma_profile": "yes", 
		 "theory": "DFT", 
		 "functional": "B3LYP", 
		 "basiset": "6-31G**", 
		 "properties": { 
			 "R2extent": 12992.0625, 
			 "electric_dipole_moment_norm": 3.37119657985, 
			 "electric_quadrupole_moment_norm": 13.8679869754, 
			 "total_energy": -1222.50289065, 
			 "HOMO_LUMO_gap": 0.13814, 
			 "cosmo_polarized_energy": -15.48, 
			 "cosmo_cavitation_energy": 49.31, 
			 "cosmo_dispersion_energy": -34.62, 
			 "cosmo_repulsion_energy": 2.55, 
			 "cosmo_total_nonelectrostatic_energy": 17.24, 
			 "SMD_solvation_energy": 8.94 
		},
		"coords": [
			{
				"x": 0.179901191,
				"y": 2.6568745831,
				"z": 0.1121093861,
				"element": "C" 
			},
			{
				"x": 0.3347880207,
				"y": 1.4198304624,
				"z": 0.9584048298,
				"element": "C" 
			},
			{
				"x": 0.673689965,
				"y": 1.4775733967,
				"z": 2.2272958144,
				"element": "N" 
			},
			{
				"x": 0.7952926087,
				"y": 2.653437945,
				"z": 3.0005507603,
				"element": "C" 
			},
			{
				"x": 1.9662156393,
				"y": 2.7768380947,
				"z": 3.7807304547,
				"element": "C" 
			},
			{
				"x": 2.9668883455,
				"y": 1.8580498836,
				"z": 3.6949360263,
				"element": "O" 
			},
			{
				"x": 2.1228961657,
				"y": 3.8596507254,
				"z": 4.6473207192,
				"element": "C" 
			},
			{
				"x": 1.1124878272,
				"y": 4.8135166789,
				"z": 4.7590886665,
				"element": "C" 
			},
			{
				"x": -0.0600830665,
				"y": 4.6919276293,
				"z": 4.00910744,
				"element": "C" 
			},
			{
				"x": -0.2165435728,
				"y": 3.6137153491,
				"z": 3.1390685796,
				"element": "C" 
			},
			{
				"x": 0.1609999009,
				"y": 0.0797037887,
				"z": 0.3910232774,
				"element": "C" 
			},
			{
				"x": 0.3745911709,
				"y": -1.0534972823,
				"z": 1.1952757155,
				"element": "C" 
			},
			{
				"x": 0.7213969965,
				"y": -0.9607022984,
				"z": 2.461062133,
				"element": "O" 
			},
			{
				"x": 0.2250319556,
				"y": -2.3902640255,
				"z": 0.6623961598,
				"element": "C" 
			},
			{
				"x": 0.4515440816,
				"y": -3.5216615898,
				"z": 1.4698677943,
				"element": "C" 
			},
			{
				"x": 0.3138641056,
				"y": -4.7980613976,
				"z": 0.9525376108,
				"element": "C" 
			},
			{
				"x": -0.0551881213,
				"y": -4.9558423118,
				"z": -0.3924133178,
				"element": "C" 
			},
			{
				"x": -0.2848103079,
				"y": -3.8571376945,
				"z": -1.2083013067,
				"element": "C" 
			},
			{
				"x": -0.1484171663,
				"y": -2.5534003496,
				"z": -0.690897683,
				"element": "C" 
			},
			{
				"x": -0.3748832414,
				"y": -1.4251677681,
				"z": -1.4743984121,
				"element": "N" 
			},
			{
				"x": -0.7769116121,
				"y": -1.5746933906,
				"z": -2.8541423742,
				"element": "C" 
			},
			{
				"x": 0.1937974247,
				"y": -1.6393569874,
				"z": -3.8546879544,
				"element": "C" 
			},
			{
				"x": -0.1952747003,
				"y": -1.798806284,
				"z": -5.1851584339,
				"element": "C" 
			},
			{
				"x": -1.5493848779,
				"y": -1.8926876032,
				"z": -5.5127419597,
				"element": "C" 
			},
			{
				"x": -2.5162998767,
				"y": -1.8252883857,
				"z": -4.5074432766,
				"element": "C" 
			},
			{
				"x": -2.1319250912,
				"y": -1.6659597914,
				"z": -3.1757484939,
				"element": "C" 
			},
			{
				"x": -0.2583773857,
				"y": -0.0936023078,
				"z": -1.0041138996,
				"element": "C" 
			},
			{
				"x": -0.5159646083,
				"y": 0.8213385306,
				"z": -1.7833248333,
				"element": "O" 
			},
			{
				"x": 0.7289119065,
				"y": 2.5382782464,
				"z": -0.8223690987,
				"element": "H" 
			},
			{
				"x": 0.5290502055,
				"y": 3.534774197,
				"z": 0.6551328708,
				"element": "H" 
			},
			{
				"x": -0.8624172029,
				"y": 2.8006751176,
				"z": -0.185774308,
				"element": "H" 
			},
			{
				"x": 2.6998164712,
				"y": 1.1921902934,
				"z": 3.0426777879,
				"element": "H" 
			},
			{
				"x": 3.0389723252,
				"y": 3.9316132302,
				"z": 5.2243011502,
				"element": "H" 
			},
			{
				"x": 1.2407151599,
				"y": 5.6510271771,
				"z": 5.4384070368,
				"element": "H" 
			},
			{
				"x": -0.8541037612,
				"y": 5.4254680587,
				"z": 4.1073055657,
				"element": "H" 
			},
			{
				"x": -1.1354466201,
				"y": 3.4934019492,
				"z": 2.5737719903,
				"element": "H" 
			},
			{
				"x": 0.7415046119,
				"y": 0.0791914205,
				"z": 2.651907505,
				"element": "H" 
			},
			{
				"x": 0.735629227,
				"y": -3.3606523738,
				"z": 2.5033905407,
				"element": "H" 
			},
			{
				"x": 0.4894189926,
				"y": -5.6666036001,
				"z": 1.5788446964,
				"element": "H" 
			},
			{
				"x": -0.1654752539,
				"y": -5.9527084483,
				"z": -0.8097192417,
				"element": "H" 
			},
			{
				"x": -0.5699007332,
				"y": -3.9970158595,
				"z": -2.2430136746,
				"element": "H" 
			},
			{
				"x": 1.2425291798,
				"y": -1.5597817058,
				"z": -3.5865410849,
				"element": "H" 
			},
			{
				"x": 0.5593561702,
				"y": -1.8468976564,
				"z": -5.9645521048,
				"element": "H" 
			},
			{
				"x": -1.8505039381,
				"y": -2.0157340253,
				"z": -6.5489012464,
				"element": "H" 
			},
			{
				"x": -3.5704966384,
				"y": -1.8937516998,
				"z": -4.7588799161,
				"element": "H" 
			},
			{
				"x": -2.8730818724,
				"y": -1.6065019208,
				"z": -2.3850918912,
				"element": "H" 
			}
		],
		 "valence_orbital": [ 
			{
				"type": "occ",
				"energy": -0.25012,
				"method": "rhf"
			},
			{
				"type": "occ",
				"energy": -0.24658,
				"method": "rhf"
			},
			{
				"type": "occ",
				"energy": -0.23326,
				"method": "rhf"
			},
			{
				"type": "occ",
				"energy": -0.22395,
				"method": "rhf"
			},
			{
				"type": "occ",
				"energy": -0.20737,
				"method": "rhf"
			},
			{
				"type": "unocc",
				"energy": -0.06923,
				"method": "rhf"
			},
			{
				"type": "unocc",
				"energy": -0.0226,
				"method": "rhf"
			},
			{
				"type": "unocc",
				"energy": -0.01447,
				"method": "rhf"
			},
			{
				"type": "unocc",
				"energy": -0.01179,
				"method": "rhf"
			},
			{
				"type": "unocc",
				"energy": -0.0025,
				"method": "rhf"
			}
		],
		"cosmo_sigma_profile": { 
			"-0.025": 0.0,
			"-0.024": 0.0,
			"-0.023": 0.0,
			"-0.022": 0.0,
			"-0.021": 0.0,
			"-0.02": 0.0,
			"-0.019": 0.0,
			"-0.018": 0.0,
			"-0.017": 0.0,
			"-0.016": 0.0,
			"-0.015": 0.0,
			"-0.014": 0.0900797857676,
			"-0.013": 0.470193311052,
			"-0.012": 0.708474039821,
			"-0.011": 1.13544561429,
			"-0.01": 1.26004510093,
			"-0.009": 1.55284761231,
			"-0.008": 1.52724357801,
			"-0.007": 5.07752773926,
			"-0.006": 22.2564702964,
			"-0.005": 31.1642769651,
			"-0.004": 32.2545193782,
			"-0.003": 31.7912458534,
			"-0.002": 33.5664110003,
			"-0.001": 33.6098993745,
			"0.0": 32.4050015338,
			"0.001": 26.8946796144,
			"0.002": 27.9229344345,
			"0.003": 28.9965317887,
			"0.004": 26.9634808065,
			"0.005": 16.7343752513,
			"0.006": 9.96996437023,
			"0.007": 5.11715566881,
			"0.008": 6.02330592959,
			"0.009": 3.39711584102,
			"0.01": 3.46201308391,
			"0.011": 3.99659010975,
			"0.012": 2.59362318863,
			"0.013": 2.88218425593,
			"0.014": 2.13412090079,
			"0.015": 0.115741654832,
			"0.016": 0.0,
			"0.017": 0.0,
			"0.018": 0.0,
			"0.019": 0.0,
			"0.02": 0.0,
			"0.021": 0.0,
			"0.022": 0.0,
			"0.023": 0.0,
			"0.024": 0.0,
			"0.025": 0.0
		}
	}
}
