{
	 "smiles": "CCOC1=CC=C(N)C(N)=C1", 
	 "Tm": 344.65, 
	 "num_atms": 23, 
	 "gaussian": { 
		 "optdone": 1, 
		 "sigma_profile": "yes", 
		 "theory": "DFT", 
		 "functional": "B3LYP", 
		 "basiset": "6-31G**", 
		 "properties": { 
			 "R2extent": 2474.9066, 
			 "electric_dipole_moment_norm": 2.32109093962, 
			 "electric_quadrupole_moment_norm": 12.7489963781, 
			 "total_energy": -496.802382195, 
			 "HOMO_LUMO_gap": 0.19032, 
			 "cosmo_polarized_energy": -13.21, 
			 "cosmo_cavitation_energy": 25.73, 
			 "cosmo_dispersion_energy": -19.28, 
			 "cosmo_repulsion_energy": 1.58, 
			 "cosmo_total_nonelectrostatic_energy": 8.02, 
			 "SMD_solvation_energy": 4.69 
		},
		"coords": [
			{
				"x": 0.4415281281,
				"y": -0.1442046008,
				"z": 3.6414609607,
				"element": "C" 
			},
			{
				"x": 1.1109290596,
				"y": 0.6189915673,
				"z": 2.5014279522,
				"element": "C" 
			},
			{
				"x": 0.9467887771,
				"y": -0.0209361438,
				"z": 1.2379653586,
				"element": "O" 
			},
			{
				"x": -0.231990006,
				"y": 0.1320198963,
				"z": 0.5501746202,
				"element": "C" 
			},
			{
				"x": -1.310972257,
				"y": 0.9249034011,
				"z": 0.9496266706,
				"element": "C" 
			},
			{
				"x": -2.4333110442,
				"y": 1.0198052668,
				"z": 0.1198057433,
				"element": "C" 
			},
			{
				"x": -2.5263142395,
				"y": 0.3254619505,
				"z": -1.0860363894,
				"element": "C" 
			},
			{
				"x": -3.6382912192,
				"y": 0.4970604038,
				"z": -1.9367700455,
				"element": "N" 
			},
			{
				"x": -1.4484654418,
				"y": -0.5141775828,
				"z": -1.4595012699,
				"element": "C" 
			},
			{
				"x": -1.5343604614,
				"y": -1.2267135952,
				"z": -2.68155192,
				"element": "N" 
			},
			{
				"x": -0.3171559514,
				"y": -0.5883238993,
				"z": -0.6482625072,
				"element": "C" 
			},
			{
				"x": -0.6420802137,
				"y": -0.198334866,
				"z": 3.5075989799,
				"element": "H" 
			},
			{
				"x": 0.8300098206,
				"y": -1.1656054737,
				"z": 3.6915246418,
				"element": "H" 
			},
			{
				"x": 0.6453903781,
				"y": 0.3499304757,
				"z": 4.5976847462,
				"element": "H" 
			},
			{
				"x": 2.1939760042,
				"y": 0.6499471646,
				"z": 2.6550535764,
				"element": "H" 
			},
			{
				"x": 0.7593062988,
				"y": 1.658007926,
				"z": 2.4538933403,
				"element": "H" 
			},
			{
				"x": -1.2922180708,
				"y": 1.4852012766,
				"z": 1.8762711587,
				"element": "H" 
			},
			{
				"x": -3.2541909358,
				"y": 1.6714655325,
				"z": 0.4076808882,
				"element": "H" 
			},
			{
				"x": -3.555848133,
				"y": 0.0236452149,
				"z": -2.8251088162,
				"element": "H" 
			},
			{
				"x": -4.5420237052,
				"y": 0.3524675334,
				"z": -1.5074366703,
				"element": "H" 
			},
			{
				"x": -0.7230262458,
				"y": -1.8129855959,
				"z": -2.8394770584,
				"element": "H" 
			},
			{
				"x": -2.368782191,
				"y": -1.8051506674,
				"z": -2.7301860189,
				"element": "H" 
			},
			{
				"x": 0.5178016492,
				"y": -1.226175185,
				"z": -0.9250379416,
				"element": "H" 
			}
		],
		 "valence_orbital": [ 
			{
				"type": "occ",
				"energy": -0.30822,
				"method": "rhf"
			},
			{
				"type": "occ",
				"energy": -0.29473,
				"method": "rhf"
			},
			{
				"type": "occ",
				"energy": -0.2587,
				"method": "rhf"
			},
			{
				"type": "occ",
				"energy": -0.21145,
				"method": "rhf"
			},
			{
				"type": "occ",
				"energy": -0.1733,
				"method": "rhf"
			},
			{
				"type": "unocc",
				"energy": 0.01702,
				"method": "rhf"
			},
			{
				"type": "unocc",
				"energy": 0.03829,
				"method": "rhf"
			},
			{
				"type": "unocc",
				"energy": 0.07376,
				"method": "rhf"
			},
			{
				"type": "unocc",
				"energy": 0.09859,
				"method": "rhf"
			},
			{
				"type": "unocc",
				"energy": 0.11292,
				"method": "rhf"
			}
		],
		"cosmo_sigma_profile": { 
			"-0.025": 0.0,
			"-0.024": 0.0,
			"-0.023": 0.0,
			"-0.022": 0.0,
			"-0.021": 0.0,
			"-0.02": 0.0,
			"-0.019": 0.0,
			"-0.018": 0.0,
			"-0.017": 0.0,
			"-0.016": 0.0,
			"-0.015": 0.0,
			"-0.014": 0.0,
			"-0.013": 0.0,
			"-0.012": 1.43217687868,
			"-0.011": 4.73786104757,
			"-0.01": 5.28293682186,
			"-0.009": 4.75016843326,
			"-0.008": 4.79070574097,
			"-0.007": 4.75151905379,
			"-0.006": 6.27001075821,
			"-0.005": 10.3806533557,
			"-0.004": 15.3395692514,
			"-0.003": 18.8899712488,
			"-0.002": 15.1550493219,
			"-0.001": 13.3191007914,
			"0.0": 13.0465879375,
			"0.001": 10.3171640334,
			"0.002": 7.39499693953,
			"0.003": 4.81058109497,
			"0.004": 8.09275318809,
			"0.005": 9.60580529194,
			"0.006": 11.7419236509,
			"0.007": 11.9400008338,
			"0.008": 5.60385284351,
			"0.009": 2.76760230219,
			"0.01": 1.82773665351,
			"0.011": 3.18398735403,
			"0.012": 2.70359170478,
			"0.013": 0.840867241946,
			"0.014": 1.12499972293,
			"0.015": 0.893121784521,
			"0.016": 0.912579072017,
			"0.017": 0.0,
			"0.018": 0.0,
			"0.019": 0.0,
			"0.02": 0.0,
			"0.021": 0.0,
			"0.022": 0.0,
			"0.023": 0.0,
			"0.024": 0.0,
			"0.025": 0.0
		}
	}
}
