{
	 "smiles": "CC1=CSC(NCCC2=CC=CC=C2)=N1", 
	 "Tm": 354.15, 
	 "num_atms": 29, 
	 "gaussian": { 
		 "optdone": 1, 
		 "sigma_profile": "yes", 
		 "theory": "DFT", 
		 "functional": "B3LYP", 
		 "basiset": "6-31G**", 
		 "properties": { 
			 "R2extent": 5761.8492, 
			 "electric_dipole_moment_norm": 1.20691072164, 
			 "electric_quadrupole_moment_norm": 9.90802894425, 
			 "total_energy": -973.412367333, 
			 "HOMO_LUMO_gap": 0.19127, 
			 "cosmo_polarized_energy": -9.06, 
			 "cosmo_cavitation_energy": 34.12, 
			 "cosmo_dispersion_energy": -24.26, 
			 "cosmo_repulsion_energy": 1.88, 
			 "cosmo_total_nonelectrostatic_energy": 11.74, 
			 "SMD_solvation_energy": 3.4 
		},
		"coords": [
			{
				"x": 3.8187588107,
				"y": -3.9281002505,
				"z": -0.1675961805,
				"element": "C" 
			},
			{
				"x": 3.462176427,
				"y": -2.8486736877,
				"z": 0.8109047355,
				"element": "C" 
			},
			{
				"x": 3.681141702,
				"y": -2.89074619,
				"z": 2.1540391487,
				"element": "C" 
			},
			{
				"x": 3.1112948687,
				"y": -1.4170213428,
				"z": 2.9124375867,
				"element": "S" 
			},
			{
				"x": 2.6048813039,
				"y": -0.8609176936,
				"z": 1.3037680614,
				"element": "C" 
			},
			{
				"x": 2.0626313814,
				"y": 0.3874981997,
				"z": 1.1367448826,
				"element": "N" 
			},
			{
				"x": 1.4593877772,
				"y": 0.753156846,
				"z": -0.1414460544,
				"element": "C" 
			},
			{
				"x": 0.0498343135,
				"y": 0.1610481316,
				"z": -0.3759573944,
				"element": "C" 
			},
			{
				"x": -0.9675814691,
				"y": 0.6358135698,
				"z": 0.6377468025,
				"element": "C" 
			},
			{
				"x": -1.6651985231,
				"y": 1.8378265635,
				"z": 0.4455271998,
				"element": "C" 
			},
			{
				"x": -2.5687501267,
				"y": 2.3053426254,
				"z": 1.4001015159,
				"element": "C" 
			},
			{
				"x": -2.7906104752,
				"y": 1.5771708742,
				"z": 2.5712134364,
				"element": "C" 
			},
			{
				"x": -2.1051771238,
				"y": 0.3789913447,
				"z": 2.7764043038,
				"element": "C" 
			},
			{
				"x": -1.2027008317,
				"y": -0.0864415163,
				"z": 1.8172220749,
				"element": "C" 
			},
			{
				"x": 2.8462810338,
				"y": -1.700218181,
				"z": 0.3356350125,
				"element": "N" 
			},
			{
				"x": 4.2867986608,
				"y": -4.7792489927,
				"z": 0.3330873471,
				"element": "H" 
			},
			{
				"x": 4.5111180796,
				"y": -3.5476981696,
				"z": -0.9268154814,
				"element": "H" 
			},
			{
				"x": 2.9261346679,
				"y": -4.2824269604,
				"z": -0.6950558408,
				"element": "H" 
			},
			{
				"x": 4.128482589,
				"y": -3.6775827706,
				"z": 2.7433385935,
				"element": "H" 
			},
			{
				"x": 1.6280285639,
				"y": 0.7911305659,
				"z": 1.9551112503,
				"element": "H" 
			},
			{
				"x": 2.1341501187,
				"y": 0.408940874,
				"z": -0.9279923759,
				"element": "H" 
			},
			{
				"x": 1.4170807246,
				"y": 1.8468201738,
				"z": -0.1815125108,
				"element": "H" 
			},
			{
				"x": -0.2673916243,
				"y": 0.4443904539,
				"z": -1.3869727645,
				"element": "H" 
			},
			{
				"x": 0.1327759283,
				"y": -0.9302653387,
				"z": -0.3583227397,
				"element": "H" 
			},
			{
				"x": -1.5024260184,
				"y": 2.4086590402,
				"z": -0.4661237227,
				"element": "H" 
			},
			{
				"x": -3.1030677521,
				"y": 3.2356439563,
				"z": 1.2279746849,
				"element": "H" 
			},
			{
				"x": -3.4959965927,
				"y": 1.9382320951,
				"z": 3.3141152913,
				"element": "H" 
			},
			{
				"x": -2.2758955823,
				"y": -0.1985892491,
				"z": 3.680716646,
				"element": "H" 
			},
			{
				"x": -0.6829608316,
				"y": -1.0277349709,
				"z": 1.978606491,
				"element": "H" 
			}
		],
		 "valence_orbital": [ 
			{
				"type": "occ",
				"energy": -0.26387,
				"method": "rhf"
			},
			{
				"type": "occ",
				"energy": -0.2624,
				"method": "rhf"
			},
			{
				"type": "occ",
				"energy": -0.2514,
				"method": "rhf"
			},
			{
				"type": "occ",
				"energy": -0.24387,
				"method": "rhf"
			},
			{
				"type": "occ",
				"energy": -0.19561,
				"method": "rhf"
			},
			{
				"type": "unocc",
				"energy": -0.00434,
				"method": "rhf"
			},
			{
				"type": "unocc",
				"energy": -0.00352,
				"method": "rhf"
			},
			{
				"type": "unocc",
				"energy": 0.00792,
				"method": "rhf"
			},
			{
				"type": "unocc",
				"energy": 0.01787,
				"method": "rhf"
			},
			{
				"type": "unocc",
				"energy": 0.06798,
				"method": "rhf"
			}
		],
		"cosmo_sigma_profile": { 
			"-0.025": 0.0,
			"-0.024": 0.0,
			"-0.023": 0.0,
			"-0.022": 0.0,
			"-0.021": 0.0,
			"-0.02": 0.0,
			"-0.019": 0.0,
			"-0.018": 0.0,
			"-0.017": 0.0,
			"-0.016": 0.0,
			"-0.015": 0.0,
			"-0.014": 0.0767248032976,
			"-0.013": 0.678414504169,
			"-0.012": 0.812651208022,
			"-0.011": 1.04770662852,
			"-0.01": 0.946468574459,
			"-0.009": 1.33726768812,
			"-0.008": 1.49401202615,
			"-0.007": 3.13278833409,
			"-0.006": 5.3354505516,
			"-0.005": 14.9961147113,
			"-0.004": 27.4814933038,
			"-0.003": 30.4696439592,
			"-0.002": 24.2725593601,
			"-0.001": 23.0692125583,
			"0.0": 22.3133142777,
			"0.001": 16.291579945,
			"0.002": 17.0407400999,
			"0.003": 19.0599432398,
			"0.004": 17.8147724949,
			"0.005": 19.4124507885,
			"0.006": 13.7454498927,
			"0.007": 3.94137955793,
			"0.008": 1.88354106485,
			"0.009": 2.13038223838,
			"0.01": 1.37490892896,
			"0.011": 0.280441200462,
			"0.012": 0.907653751453,
			"0.013": 0.806742063855,
			"0.014": 0.644214217114,
			"0.015": 0.0031447242519,
			"0.016": 0.0,
			"0.017": 0.0,
			"0.018": 0.0,
			"0.019": 0.0,
			"0.02": 0.0,
			"0.021": 0.0,
			"0.022": 0.0,
			"0.023": 0.0,
			"0.024": 0.0,
			"0.025": 0.0
		}
	}
}
