{
	 "smiles": "NC(=NO)C1CCCCCC1", 
	 "Tm": 361.15, 
	 "num_atms": 27, 
	 "gaussian": { 
		 "optdone": 1, 
		 "sigma_profile": "yes", 
		 "theory": "DFT", 
		 "functional": "B3LYP", 
		 "basiset": "6-31G**", 
		 "properties": { 
			 "R2extent": 2393.2392, 
			 "electric_dipole_moment_norm": 1.72915352124, 
			 "electric_quadrupole_moment_norm": 5.163561334, 
			 "total_energy": -499.181694455, 
			 "HOMO_LUMO_gap": 0.25382, 
			 "cosmo_polarized_energy": -10.46, 
			 "cosmo_cavitation_energy": 27.1, 
			 "cosmo_dispersion_energy": -20.28, 
			 "cosmo_repulsion_energy": 1.66, 
			 "cosmo_total_nonelectrostatic_energy": 8.48, 
			 "SMD_solvation_energy": 3.68 
		},
		"coords": [
			{
				"x": -3.1677951187,
				"y": 0.8654800104,
				"z": -1.0447689074,
				"element": "N" 
			},
			{
				"x": -2.4318035184,
				"y": 0.0576605571,
				"z": -0.2032107556,
				"element": "C" 
			},
			{
				"x": -2.9505776878,
				"y": -0.845999413,
				"z": 0.5563562289,
				"element": "N" 
			},
			{
				"x": -4.3631304802,
				"y": -0.9100509464,
				"z": 0.324059218,
				"element": "O" 
			},
			{
				"x": -0.9284412492,
				"y": 0.2762246391,
				"z": -0.169801927,
				"element": "C" 
			},
			{
				"x": -0.256394238,
				"y": -0.3023859121,
				"z": 1.0943879269,
				"element": "C" 
			},
			{
				"x": 0.9787711684,
				"y": 0.5003261819,
				"z": 1.541260228,
				"element": "C" 
			},
			{
				"x": 2.2360469727,
				"y": 0.3754237736,
				"z": 0.6676591422,
				"element": "C" 
			},
			{
				"x": 2.0518749083,
				"y": 0.6566696681,
				"z": -0.8335748289,
				"element": "C" 
			},
			{
				"x": 1.2093708575,
				"y": -0.4108239399,
				"z": -1.5568879061,
				"element": "C" 
			},
			{
				"x": -0.3214836268,
				"y": -0.2327048861,
				"z": -1.5094201687,
				"element": "C" 
			},
			{
				"x": -4.1031591396,
				"y": 0.532992492,
				"z": -1.2344918085,
				"element": "H" 
			},
			{
				"x": -2.6849332468,
				"y": 1.2724193986,
				"z": -1.8305530096,
				"element": "H" 
			},
			{
				"x": -4.6238033653,
				"y": -1.6269973684,
				"z": 0.9137399465,
				"element": "H" 
			},
			{
				"x": -0.7912223104,
				"y": 1.3669758661,
				"z": -0.1353794509,
				"element": "H" 
			},
			{
				"x": -0.9896672136,
				"y": -0.2925926654,
				"z": 1.9045499835,
				"element": "H" 
			},
			{
				"x": 0.0012747913,
				"y": -1.3578475766,
				"z": 0.9416904049,
				"element": "H" 
			},
			{
				"x": 0.6929428717,
				"y": 1.5598538923,
				"z": 1.6124128859,
				"element": "H" 
			},
			{
				"x": 1.2434023347,
				"y": 0.1948150473,
				"z": 2.561694404,
				"element": "H" 
			},
			{
				"x": 2.6450610942,
				"y": -0.6398033303,
				"z": 0.7727339995,
				"element": "H" 
			},
			{
				"x": 3.0025494582,
				"y": 1.0514138852,
				"z": 1.0685868676,
				"element": "H" 
			},
			{
				"x": 3.0463713377,
				"y": 0.6862784455,
				"z": -1.29581513,
				"element": "H" 
			},
			{
				"x": 1.6212579771,
				"y": 1.6565232209,
				"z": -0.9864712827,
				"element": "H" 
			},
			{
				"x": 1.500348595,
				"y": -0.4530738603,
				"z": -2.6137274378,
				"element": "H" 
			},
			{
				"x": 1.4743787616,
				"y": -1.3913448605,
				"z": -1.141235811,
				"element": "H" 
			},
			{
				"x": -0.6168399836,
				"y": 0.4600171611,
				"z": -2.3091566437,
				"element": "H" 
			},
			{
				"x": -0.7866999502,
				"y": -1.1948494799,
				"z": -1.7567361681,
				"element": "H" 
			}
		],
		 "valence_orbital": [ 
			{
				"type": "occ",
				"energy": -0.30667,
				"method": "rhf"
			},
			{
				"type": "occ",
				"energy": -0.30186,
				"method": "rhf"
			},
			{
				"type": "occ",
				"energy": -0.29477,
				"method": "rhf"
			},
			{
				"type": "occ",
				"energy": -0.26028,
				"method": "rhf"
			},
			{
				"type": "occ",
				"energy": -0.20412,
				"method": "rhf"
			},
			{
				"type": "unocc",
				"energy": 0.0497,
				"method": "rhf"
			},
			{
				"type": "unocc",
				"energy": 0.07064,
				"method": "rhf"
			},
			{
				"type": "unocc",
				"energy": 0.07821,
				"method": "rhf"
			},
			{
				"type": "unocc",
				"energy": 0.09639,
				"method": "rhf"
			},
			{
				"type": "unocc",
				"energy": 0.10952,
				"method": "rhf"
			}
		],
		"cosmo_sigma_profile": { 
			"-0.025": 0.0,
			"-0.024": 0.0,
			"-0.023": 0.0,
			"-0.022": 0.0,
			"-0.021": 0.0,
			"-0.02": 0.0,
			"-0.019": 0.0,
			"-0.018": 0.0,
			"-0.017": 0.0296199336184,
			"-0.016": 0.746516744648,
			"-0.015": 1.03458536138,
			"-0.014": 0.609024193153,
			"-0.013": 1.41444056173,
			"-0.012": 1.54325689734,
			"-0.011": 2.76262302177,
			"-0.01": 2.69381646975,
			"-0.009": 3.18959190204,
			"-0.008": 2.47266120776,
			"-0.007": 2.64323737968,
			"-0.006": 3.08886042534,
			"-0.005": 2.82528062442,
			"-0.004": 2.90221007757,
			"-0.003": 8.92441273474,
			"-0.002": 29.159702275,
			"-0.001": 34.1234696495,
			"0.0": 34.2652358247,
			"0.001": 25.1124727013,
			"0.002": 8.37735067472,
			"0.003": 3.61548433041,
			"0.004": 2.87225722917,
			"0.005": 2.88094547029,
			"0.006": 3.87827265368,
			"0.007": 4.46805257824,
			"0.008": 4.18734359828,
			"0.009": 5.3051125505,
			"0.01": 4.60993826368,
			"0.011": 3.61052770112,
			"0.012": 1.84708303674,
			"0.013": 1.33411589767,
			"0.014": 1.07518586791,
			"0.015": 0.416034706037,
			"0.016": 0.0,
			"0.017": 0.0,
			"0.018": 0.0,
			"0.019": 0.0,
			"0.02": 0.0,
			"0.021": 0.0,
			"0.022": 0.0,
			"0.023": 0.0,
			"0.024": 0.0,
			"0.025": 0.0
		}
	}
}
