{
	 "smiles": "OC1=CC=C(NC(=O)C2=CC=C(Cl)C=C2)C=C1", 
	 "Tm": 520.15, 
	 "num_atms": 27, 
	 "gaussian": { 
		 "optdone": 1, 
		 "sigma_profile": "yes", 
		 "theory": "DFT", 
		 "functional": "B3LYP", 
		 "basiset": "6-31G**", 
		 "properties": { 
			 "R2extent": 5922.6668, 
			 "electric_dipole_moment_norm": 4.39305489381, 
			 "electric_quadrupole_moment_norm": 14.217077859, 
			 "total_energy": -1166.8110103, 
			 "HOMO_LUMO_gap": 0.17427, 
			 "cosmo_polarized_energy": -16.09, 
			 "cosmo_cavitation_energy": 33.88, 
			 "cosmo_dispersion_energy": -24.1, 
			 "cosmo_repulsion_energy": 1.89, 
			 "cosmo_total_nonelectrostatic_energy": 11.67, 
			 "SMD_solvation_energy": 6.37 
		},
		"coords": [
			{
				"x": 0.9583119211,
				"y": 3.8767999295,
				"z": 1.3337576668,
				"element": "O" 
			},
			{
				"x": 0.4653233852,
				"y": 2.9503272001,
				"z": 0.4606119076,
				"element": "C" 
			},
			{
				"x": 0.9697439691,
				"y": 2.7793795593,
				"z": -0.8326370028,
				"element": "C" 
			},
			{
				"x": 0.4282143906,
				"y": 1.8039250379,
				"z": -1.6690433465,
				"element": "C" 
			},
			{
				"x": -0.6349311437,
				"y": 1.0033879055,
				"z": -1.2377742145,
				"element": "C" 
			},
			{
				"x": -1.1954807911,
				"y": 0.0542759638,
				"z": -2.139499336,
				"element": "N" 
			},
			{
				"x": -1.7027840554,
				"y": -1.2092628006,
				"z": -1.8982942569,
				"element": "C" 
			},
			{
				"x": -2.517416082,
				"y": -1.6983331334,
				"z": -2.6746786025,
				"element": "O" 
			},
			{
				"x": -1.1990443756,
				"y": -1.9941507275,
				"z": -0.7216628983,
				"element": "C" 
			},
			{
				"x": 0.097003003,
				"y": -1.8726308257,
				"z": -0.2014540629,
				"element": "C" 
			},
			{
				"x": 0.5259197452,
				"y": -2.6993868929,
				"z": 0.8354123625,
				"element": "C" 
			},
			{
				"x": -0.3545958098,
				"y": -3.6460573792,
				"z": 1.3590719553,
				"element": "C" 
			},
			{
				"x": 0.1760409816,
				"y": -4.6791297331,
				"z": 2.6765863606,
				"element": "Cl" 
			},
			{
				"x": -1.6458735219,
				"y": -3.7929464051,
				"z": 0.8504753155,
				"element": "C" 
			},
			{
				"x": -2.0544238538,
				"y": -2.9731522832,
				"z": -0.1975194105,
				"element": "C" 
			},
			{
				"x": -1.1507789977,
				"y": 1.1985056121,
				"z": 0.052269746,
				"element": "C" 
			},
			{
				"x": -0.5962534663,
				"y": 2.1502986728,
				"z": 0.9004350129,
				"element": "C" 
			},
			{
				"x": 1.6762463169,
				"y": 4.3649970872,
				"z": 0.9104211124,
				"element": "H" 
			},
			{
				"x": 1.7922084287,
				"y": 3.398309099,
				"z": -1.1846331745,
				"element": "H" 
			},
			{
				"x": 0.8346568862,
				"y": 1.658863444,
				"z": -2.6657959386,
				"element": "H" 
			},
			{
				"x": -1.5405112162,
				"y": 0.4174854654,
				"z": -3.0208465213,
				"element": "H" 
			},
			{
				"x": 0.7841217635,
				"y": -1.1410084367,
				"z": -0.6107845427,
				"element": "H" 
			},
			{
				"x": 1.5310719807,
				"y": -2.6134964842,
				"z": 1.2326750591,
				"element": "H" 
			},
			{
				"x": -2.3117391769,
				"y": -4.5422937448,
				"z": 1.2636892809,
				"element": "H" 
			},
			{
				"x": -3.0411691398,
				"y": -3.0863969259,
				"z": -0.6333765555,
				"element": "H" 
			},
			{
				"x": -1.9908808032,
				"y": 0.6013079985,
				"z": 0.390301458,
				"element": "H" 
			},
			{
				"x": -0.9865803385,
				"y": 2.3015827969,
				"z": 1.9011926261,
				"element": "H" 
			}
		],
		 "valence_orbital": [ 
			{
				"type": "occ",
				"energy": -0.27113,
				"method": "rhf"
			},
			{
				"type": "occ",
				"energy": -0.26642,
				"method": "rhf"
			},
			{
				"type": "occ",
				"energy": -0.25888,
				"method": "rhf"
			},
			{
				"type": "occ",
				"energy": -0.24603,
				"method": "rhf"
			},
			{
				"type": "occ",
				"energy": -0.21946,
				"method": "rhf"
			},
			{
				"type": "unocc",
				"energy": -0.04519,
				"method": "rhf"
			},
			{
				"type": "unocc",
				"energy": -0.02312,
				"method": "rhf"
			},
			{
				"type": "unocc",
				"energy": -0.01174,
				"method": "rhf"
			},
			{
				"type": "unocc",
				"energy": -0.00116,
				"method": "rhf"
			},
			{
				"type": "unocc",
				"energy": 0.02782,
				"method": "rhf"
			}
		],
		"cosmo_sigma_profile": { 
			"-0.025": 0.0,
			"-0.024": 0.0,
			"-0.023": 0.0,
			"-0.022": 0.0,
			"-0.021": 0.0,
			"-0.02": 0.0,
			"-0.019": 0.0,
			"-0.018": 0.406332951437,
			"-0.017": 1.22048880154,
			"-0.016": 1.46215347419,
			"-0.015": 0.667471484418,
			"-0.014": 1.3180691901,
			"-0.013": 2.2741700557,
			"-0.012": 1.99020732352,
			"-0.011": 1.65777211534,
			"-0.01": 2.22857447547,
			"-0.009": 2.17404095713,
			"-0.008": 3.39710569671,
			"-0.007": 8.47800837331,
			"-0.006": 15.2014464141,
			"-0.005": 16.6783295586,
			"-0.004": 13.2166016454,
			"-0.003": 12.772555504,
			"-0.002": 15.5128406564,
			"-0.001": 16.8338644499,
			"0.0": 17.1665285786,
			"0.001": 23.2944322709,
			"0.002": 26.9790982494,
			"0.003": 26.4572949155,
			"0.004": 23.7998873281,
			"0.005": 9.54763820744,
			"0.006": 3.07788084395,
			"0.007": 3.43505642318,
			"0.008": 2.75821357256,
			"0.009": 2.35345242631,
			"0.01": 3.44387387453,
			"0.011": 3.38949153146,
			"0.012": 3.17823302902,
			"0.013": 5.2463046064,
			"0.014": 1.90892258045,
			"0.015": 0.0,
			"0.016": 0.0,
			"0.017": 0.0,
			"0.018": 0.0,
			"0.019": 0.0,
			"0.02": 0.0,
			"0.021": 0.0,
			"0.022": 0.0,
			"0.023": 0.0,
			"0.024": 0.0,
			"0.025": 0.0
		}
	}
}
