{
	 "smiles": "COC(=O)C1=C(CCO)C(=O)N(N1)C1=CC=C(C=C1)C(O)=O", 
	 "Tm": 507.15, 
	 "num_atms": 36, 
	 "gaussian": { 
		 "optdone": 1, 
		 "sigma_profile": "yes", 
		 "theory": "DFT", 
		 "functional": "B3LYP", 
		 "basiset": "6-31G**", 
		 "properties": { 
			 "R2extent": 9715.9494, 
			 "electric_dipole_moment_norm": 8.46374678319, 
			 "electric_quadrupole_moment_norm": 20.8267724782, 
			 "total_energy": -1102.76234331, 
			 "HOMO_LUMO_gap": 0.15056, 
			 "cosmo_polarized_energy": -27.4, 
			 "cosmo_cavitation_energy": 40.92, 
			 "cosmo_dispersion_energy": -29.62, 
			 "cosmo_repulsion_energy": 2.25, 
			 "cosmo_total_nonelectrostatic_energy": 13.55, 
			 "SMD_solvation_energy": 9.88 
		},
		"coords": [
			{
				"x": -3.6969995378,
				"y": 1.7201879657,
				"z": -4.5285559283,
				"element": "C" 
			},
			{
				"x": -2.5092860787,
				"y": 1.213690882,
				"z": -3.8849510798,
				"element": "O" 
			},
			{
				"x": -2.5094754282,
				"y": 1.2820165187,
				"z": -2.5472051993,
				"element": "C" 
			},
			{
				"x": -3.4264312903,
				"y": 1.7192360172,
				"z": -1.8763538248,
				"element": "O" 
			},
			{
				"x": -1.2589317004,
				"y": 0.7842249233,
				"z": -1.9263540828,
				"element": "C" 
			},
			{
				"x": -0.0125116028,
				"y": 0.4772442621,
				"z": -2.3960277724,
				"element": "C" 
			},
			{
				"x": 0.4864066045,
				"y": 0.3676940666,
				"z": -3.8091970045,
				"element": "C" 
			},
			{
				"x": 1.8662085512,
				"y": 1.0136503461,
				"z": -4.0805533143,
				"element": "C" 
			},
			{
				"x": 2.9554026306,
				"y": 0.2035949942,
				"z": -3.7145950346,
				"element": "O" 
			},
			{
				"x": 0.8181528204,
				"y": 0.2278372795,
				"z": -1.2098687361,
				"element": "C" 
			},
			{
				"x": 2.0083349462,
				"y": -0.0852362805,
				"z": -1.1226348856,
				"element": "O" 
			},
			{
				"x": -0.0318028455,
				"y": 0.4098815885,
				"z": -0.1055333002,
				"element": "N" 
			},
			{
				"x": -1.3315525601,
				"y": 0.6471440945,
				"z": -0.545087686,
				"element": "N" 
			},
			{
				"x": 0.1992316826,
				"y": 0.0724273092,
				"z": 1.2441409486,
				"element": "C" 
			},
			{
				"x": 1.5077229584,
				"y": 0.0807583945,
				"z": 1.7586148304,
				"element": "C" 
			},
			{
				"x": 1.7128517735,
				"y": -0.2198115439,
				"z": 3.0982495011,
				"element": "C" 
			},
			{
				"x": 0.6427764701,
				"y": -0.5419006435,
				"z": 3.9453952239,
				"element": "C" 
			},
			{
				"x": -0.6561684128,
				"y": -0.5348082564,
				"z": 3.420872357,
				"element": "C" 
			},
			{
				"x": -0.8840045419,
				"y": -0.2335079868,
				"z": 2.0817076598,
				"element": "C" 
			},
			{
				"x": 0.9490168901,
				"y": -0.8365991726,
				"z": 5.3811858712,
				"element": "C" 
			},
			{
				"x": 0.0086536801,
				"y": -1.5307618238,
				"z": 6.0792769975,
				"element": "O" 
			},
			{
				"x": 1.9697837947,
				"y": -0.4884643254,
				"z": 5.9262038715,
				"element": "O" 
			},
			{
				"x": -4.5735474344,
				"y": 1.1562667917,
				"z": -4.2026943261,
				"element": "H" 
			},
			{
				"x": -3.5260107849,
				"y": 1.586939514,
				"z": -5.5956383868,
				"element": "H" 
			},
			{
				"x": -3.8394879593,
				"y": 2.7757610401,
				"z": -4.2869647994,
				"element": "H" 
			},
			{
				"x": 0.5753535062,
				"y": -0.6926015529,
				"z": -4.0821062607,
				"element": "H" 
			},
			{
				"x": -0.2631170555,
				"y": 0.8039444449,
				"z": -4.4731745275,
				"element": "H" 
			},
			{
				"x": 1.9030630272,
				"y": 2.0094251869,
				"z": -3.6049402462,
				"element": "H" 
			},
			{
				"x": 1.9499801533,
				"y": 1.1751815066,
				"z": -5.1610810065,
				"element": "H" 
			},
			{
				"x": 2.8686037084,
				"y": 0.0267703156,
				"z": -2.7594525411,
				"element": "H" 
			},
			{
				"x": -1.8280448727,
				"y": 1.3846215806,
				"z": -0.0489102409,
				"element": "H" 
			},
			{
				"x": 2.3373542844,
				"y": 0.3104767314,
				"z": 1.104788803,
				"element": "H" 
			},
			{
				"x": 2.7137850869,
				"y": -0.2047126912,
				"z": 3.5155104162,
				"element": "H" 
			},
			{
				"x": -1.5161591676,
				"y": -0.7347237634,
				"z": 4.055218425,
				"element": "H" 
			},
			{
				"x": -1.8921838462,
				"y": -0.2557961779,
				"z": 1.6851014834,
				"element": "H" 
			},
			{
				"x": -0.6550674498,
				"y": -1.8939515355,
				"z": 5.4771137953,
				"element": "H" 
			}
		],
		 "valence_orbital": [ 
			{
				"type": "occ",
				"energy": -0.27865,
				"method": "rhf"
			},
			{
				"type": "occ",
				"energy": -0.27435,
				"method": "rhf"
			},
			{
				"type": "occ",
				"energy": -0.26363,
				"method": "rhf"
			},
			{
				"type": "occ",
				"energy": -0.24675,
				"method": "rhf"
			},
			{
				"type": "occ",
				"energy": -0.23851,
				"method": "rhf"
			},
			{
				"type": "unocc",
				"energy": -0.08795,
				"method": "rhf"
			},
			{
				"type": "unocc",
				"energy": -0.05068,
				"method": "rhf"
			},
			{
				"type": "unocc",
				"energy": -0.03106,
				"method": "rhf"
			},
			{
				"type": "unocc",
				"energy": 0.01833,
				"method": "rhf"
			},
			{
				"type": "unocc",
				"energy": 0.04535,
				"method": "rhf"
			}
		],
		"cosmo_sigma_profile": { 
			"-0.025": 0.0,
			"-0.024": 0.0,
			"-0.023": 0.0,
			"-0.022": 0.0,
			"-0.021": 0.0,
			"-0.02": 0.0,
			"-0.019": 0.314590782814,
			"-0.018": 0.828978750805,
			"-0.017": 1.30257857483,
			"-0.016": 1.49329921251,
			"-0.015": 1.60557144768,
			"-0.014": 1.88374719895,
			"-0.013": 2.28581000528,
			"-0.012": 2.58039916707,
			"-0.011": 2.49023725158,
			"-0.01": 3.05112235146,
			"-0.009": 2.78741547393,
			"-0.008": 3.23937416163,
			"-0.007": 8.49321467583,
			"-0.006": 13.9585108874,
			"-0.005": 18.9944720218,
			"-0.004": 25.7695514897,
			"-0.003": 27.4545910819,
			"-0.002": 29.3696772216,
			"-0.001": 25.2315074422,
			"0.0": 19.053794056,
			"0.001": 19.3229242624,
			"0.002": 22.4927458925,
			"0.003": 13.6981790672,
			"0.004": 8.41010203105,
			"0.005": 7.09132443381,
			"0.006": 7.7568461119,
			"0.007": 5.12133302577,
			"0.008": 7.47664582168,
			"0.009": 8.64007970271,
			"0.01": 9.94430877043,
			"0.011": 10.4586515787,
			"0.012": 6.06179819334,
			"0.013": 2.7674591719,
			"0.014": 1.80612427087,
			"0.015": 2.32614753201,
			"0.016": 0.813736053665,
			"0.017": 0.0,
			"0.018": 0.0,
			"0.019": 0.0,
			"0.02": 0.0,
			"0.021": 0.0,
			"0.022": 0.0,
			"0.023": 0.0,
			"0.024": 0.0,
			"0.025": 0.0
		}
	}
}
