{
	 "smiles": "CCNC(=O)NC(=O)C(C)Cl", 
	 "Tm": 400.15, 
	 "num_atms": 22, 
	 "gaussian": { 
		 "optdone": 1, 
		 "sigma_profile": "yes", 
		 "theory": "DFT", 
		 "functional": "B3LYP", 
		 "basiset": "6-31G**", 
		 "properties": { 
			 "R2extent": 3017.4917, 
			 "electric_dipole_moment_norm": 4.24171400733, 
			 "electric_quadrupole_moment_norm": 14.8738192049, 
			 "total_energy": -955.452570097, 
			 "HOMO_LUMO_gap": 0.23904, 
			 "cosmo_polarized_energy": -19.99, 
			 "cosmo_cavitation_energy": 27.78, 
			 "cosmo_dispersion_energy": -20.0, 
			 "cosmo_repulsion_energy": 1.66, 
			 "cosmo_total_nonelectrostatic_energy": 9.44, 
			 "SMD_solvation_energy": 5.3 
		},
		"coords": [
			{
				"x": -2.627169281,
				"y": -2.5889617412,
				"z": 1.7470789014,
				"element": "C" 
			},
			{
				"x": -2.4106552095,
				"y": -1.1600376156,
				"z": 2.2519065793,
				"element": "C" 
			},
			{
				"x": -1.2805357402,
				"y": -0.4790718884,
				"z": 1.6224483952,
				"element": "N" 
			},
			{
				"x": -1.4426729725,
				"y": 0.1206775776,
				"z": 0.3937421653,
				"element": "C" 
			},
			{
				"x": -2.5044898852,
				"y": 0.2265536365,
				"z": -0.1837779542,
				"element": "O" 
			},
			{
				"x": -0.2151861736,
				"y": 0.6537291911,
				"z": -0.0887159673,
				"element": "N" 
			},
			{
				"x": 0.0163387827,
				"y": 1.1170149649,
				"z": -1.3645965555,
				"element": "C" 
			},
			{
				"x": -0.7465622984,
				"y": 1.0385507239,
				"z": -2.3051518246,
				"element": "O" 
			},
			{
				"x": 1.385833927,
				"y": 1.7863462186,
				"z": -1.6266622944,
				"element": "C" 
			},
			{
				"x": 2.1248656226,
				"y": 1.0955081189,
				"z": -2.7675758904,
				"element": "C" 
			},
			{
				"x": 2.4825990013,
				"y": 1.9002613984,
				"z": -0.1510966975,
				"element": "Cl" 
			},
			{
				"x": -2.8315796281,
				"y": -2.5841251082,
				"z": 0.6731649121,
				"element": "H" 
			},
			{
				"x": -1.7475797099,
				"y": -3.2158387809,
				"z": 1.9319952794,
				"element": "H" 
			},
			{
				"x": -3.480175318,
				"y": -3.0486031809,
				"z": 2.2572483598,
				"element": "H" 
			},
			{
				"x": -2.2418769314,
				"y": -1.1502603222,
				"z": 3.3340435677,
				"element": "H" 
			},
			{
				"x": -3.2944398789,
				"y": -0.5521747357,
				"z": 2.0473992385,
				"element": "H" 
			},
			{
				"x": -0.3556422496,
				"y": -0.8013052585,
				"z": 1.8727694859,
				"element": "H" 
			},
			{
				"x": 0.5321479582,
				"y": 0.7996152974,
				"z": 0.5782378602,
				"element": "H" 
			},
			{
				"x": 1.1723827236,
				"y": 2.8264368276,
				"z": -1.8809760086,
				"element": "H" 
			},
			{
				"x": 1.4549405668,
				"y": 1.0510625037,
				"z": -3.6294906609,
				"element": "H" 
			},
			{
				"x": 3.0251140383,
				"y": 1.6517452078,
				"z": -3.0361886421,
				"element": "H" 
			},
			{
				"x": 2.4093426556,
				"y": 0.0769769655,
				"z": -2.4898022494,
				"element": "H" 
			}
		],
		 "valence_orbital": [ 
			{
				"type": "occ",
				"energy": -0.31684,
				"method": "rhf"
			},
			{
				"type": "occ",
				"energy": -0.28861,
				"method": "rhf"
			},
			{
				"type": "occ",
				"energy": -0.28272,
				"method": "rhf"
			},
			{
				"type": "occ",
				"energy": -0.26161,
				"method": "rhf"
			},
			{
				"type": "occ",
				"energy": -0.25395,
				"method": "rhf"
			},
			{
				"type": "unocc",
				"energy": -0.01491,
				"method": "rhf"
			},
			{
				"type": "unocc",
				"energy": 0.00268,
				"method": "rhf"
			},
			{
				"type": "unocc",
				"energy": 0.05472,
				"method": "rhf"
			},
			{
				"type": "unocc",
				"energy": 0.06549,
				"method": "rhf"
			},
			{
				"type": "unocc",
				"energy": 0.10221,
				"method": "rhf"
			}
		],
		"cosmo_sigma_profile": { 
			"-0.025": 0.0,
			"-0.024": 0.0,
			"-0.023": 0.0,
			"-0.022": 0.0,
			"-0.021": 0.0,
			"-0.02": 0.0,
			"-0.019": 0.0,
			"-0.018": 0.00083616828796,
			"-0.017": 0.41547383656,
			"-0.016": 1.06969288247,
			"-0.015": 1.39440561964,
			"-0.014": 1.57519736162,
			"-0.013": 1.49343061291,
			"-0.012": 2.14921411962,
			"-0.011": 1.72542428493,
			"-0.01": 1.03766110743,
			"-0.009": 3.30137425524,
			"-0.008": 4.17037473108,
			"-0.007": 4.02022527631,
			"-0.006": 6.4942308216,
			"-0.005": 13.2515319697,
			"-0.004": 15.7589282552,
			"-0.003": 19.4233653597,
			"-0.002": 21.6215377284,
			"-0.001": 22.3278978818,
			"0.0": 16.4185841346,
			"0.001": 13.1526065491,
			"0.002": 8.90989993355,
			"0.003": 7.82693310762,
			"0.004": 7.79611115507,
			"0.005": 8.73153414494,
			"0.006": 4.75894822457,
			"0.007": 2.14977602836,
			"0.008": 2.92552298232,
			"0.009": 2.42038888229,
			"0.01": 2.32858405621,
			"0.011": 3.69387610191,
			"0.012": 6.61296447846,
			"0.013": 5.19083819885,
			"0.014": 2.47744223344,
			"0.015": 1.42533382178,
			"0.016": 1.4820433095,
			"0.017": 0.786054264409,
			"0.018": 0.0678889665139,
			"0.019": 0.0,
			"0.02": 0.0,
			"0.021": 0.0,
			"0.022": 0.0,
			"0.023": 0.0,
			"0.024": 0.0,
			"0.025": 0.0
		}
	}
}
