{
	 "smiles": "OC(=O)C1=CC=C(CC2CC(=O)NC2=O)C=C1", 
	 "Tm": 517.15, 
	 "num_atms": 28, 
	 "gaussian": { 
		 "optdone": 1, 
		 "sigma_profile": "yes", 
		 "theory": "DFT", 
		 "functional": "B3LYP", 
		 "basiset": "6-31G**", 
		 "properties": { 
			 "R2extent": 5063.073, 
			 "electric_dipole_moment_norm": 5.00213322893, 
			 "electric_quadrupole_moment_norm": 19.5527615316, 
			 "total_energy": -819.600529297, 
			 "HOMO_LUMO_gap": 0.20754, 
			 "cosmo_polarized_energy": -24.55, 
			 "cosmo_cavitation_energy": 32.54, 
			 "cosmo_dispersion_energy": -23.16, 
			 "cosmo_repulsion_energy": 1.81, 
			 "cosmo_total_nonelectrostatic_energy": 11.19, 
			 "SMD_solvation_energy": 7.64 
		},
		"coords": [
			{
				"x": -2.1102770976,
				"y": 3.1175361739,
				"z": 3.2483817125,
				"element": "O" 
			},
			{
				"x": -2.1211840895,
				"y": 1.7948892436,
				"z": 2.9317867342,
				"element": "C" 
			},
			{
				"x": -2.3955991028,
				"y": 0.9748297678,
				"z": 3.7761382153,
				"element": "O" 
			},
			{
				"x": -1.7840205834,
				"y": 1.4345624797,
				"z": 1.5158561637,
				"element": "C" 
			},
			{
				"x": -2.1735897468,
				"y": 0.1703006255,
				"z": 1.0565203967,
				"element": "C" 
			},
			{
				"x": -1.8897493946,
				"y": -0.2204716306,
				"z": -0.2487104497,
				"element": "C" 
			},
			{
				"x": -1.1922414333,
				"y": 0.6264486643,
				"z": -1.1243478265,
				"element": "C" 
			},
			{
				"x": -0.8757627743,
				"y": 0.1892240527,
				"z": -2.5394792386,
				"element": "C" 
			},
			{
				"x": 0.551724395,
				"y": -0.3656161412,
				"z": -2.7551062634,
				"element": "C" 
			},
			{
				"x": 1.021530676,
				"y": -1.5229282072,
				"z": -1.8522123643,
				"element": "C" 
			},
			{
				"x": 2.4689680785,
				"y": -1.1956182454,
				"z": -1.4933999111,
				"element": "C" 
			},
			{
				"x": 3.2795167972,
				"y": -1.8938530924,
				"z": -0.9295228716,
				"element": "O" 
			},
			{
				"x": 2.7001125825,
				"y": 0.1144848416,
				"z": -1.9229646969,
				"element": "N" 
			},
			{
				"x": 1.637659309,
				"y": 0.7072076848,
				"z": -2.5899343692,
				"element": "C" 
			},
			{
				"x": 1.6056700266,
				"y": 1.8549036728,
				"z": -2.9845122953,
				"element": "O" 
			},
			{
				"x": -0.7892407744,
				"y": 1.8856477756,
				"z": -0.6533741325,
				"element": "C" 
			},
			{
				"x": -1.0812906459,
				"y": 2.284053614,
				"z": 0.6493240756,
				"element": "C" 
			},
			{
				"x": -2.0340172407,
				"y": 3.6535873203,
				"z": 2.4471303543,
				"element": "H" 
			},
			{
				"x": -2.7033329568,
				"y": -0.4867824225,
				"z": 1.7377933633,
				"element": "H" 
			},
			{
				"x": -2.2221290222,
				"y": -1.1947216782,
				"z": -0.5987562338,
				"element": "H" 
			},
			{
				"x": -0.9942247638,
				"y": 1.0367728249,
				"z": -3.2223378898,
				"element": "H" 
			},
			{
				"x": -1.5911358756,
				"y": -0.5787259851,
				"z": -2.8521239472,
				"element": "H" 
			},
			{
				"x": 0.6179266315,
				"y": -0.6752151453,
				"z": -3.806855226,
				"element": "H" 
			},
			{
				"x": 0.4544120525,
				"y": -1.5688445232,
				"z": -0.915879721,
				"element": "H" 
			},
			{
				"x": 0.9671338039,
				"y": -2.5094594069,
				"z": -2.3178136296,
				"element": "H" 
			},
			{
				"x": 3.5712524607,
				"y": 0.5985670568,
				"z": -1.7438408543,
				"element": "H" 
			},
			{
				"x": -0.2393807404,
				"y": 2.5504422341,
				"z": -1.3121400916,
				"element": "H" 
			},
			{
				"x": -0.7223305712,
				"y": 3.2533784457,
				"z": 0.9880809968,
				"element": "H" 
			}
		],
		 "valence_orbital": [ 
			{
				"type": "occ",
				"energy": -0.29634,
				"method": "rhf"
			},
			{
				"type": "occ",
				"energy": -0.27841,
				"method": "rhf"
			},
			{
				"type": "occ",
				"energy": -0.27641,
				"method": "rhf"
			},
			{
				"type": "occ",
				"energy": -0.26961,
				"method": "rhf"
			},
			{
				"type": "occ",
				"energy": -0.26365,
				"method": "rhf"
			},
			{
				"type": "unocc",
				"energy": -0.05611,
				"method": "rhf"
			},
			{
				"type": "unocc",
				"energy": -0.03281,
				"method": "rhf"
			},
			{
				"type": "unocc",
				"energy": -0.0287,
				"method": "rhf"
			},
			{
				"type": "unocc",
				"energy": 0.01615,
				"method": "rhf"
			},
			{
				"type": "unocc",
				"energy": 0.04032,
				"method": "rhf"
			}
		],
		"cosmo_sigma_profile": { 
			"-0.025": 0.0,
			"-0.024": 0.0,
			"-0.023": 0.0,
			"-0.022": 0.0,
			"-0.021": 0.0,
			"-0.02": 0.0,
			"-0.019": 0.152336734955,
			"-0.018": 0.664338560839,
			"-0.017": 1.30062721706,
			"-0.016": 2.23016510952,
			"-0.015": 2.34859907619,
			"-0.014": 1.98084454668,
			"-0.013": 1.3043987043,
			"-0.012": 2.1178163817,
			"-0.011": 2.3304928535,
			"-0.01": 1.79712206837,
			"-0.009": 2.15246574577,
			"-0.008": 4.86651326683,
			"-0.007": 10.0454492497,
			"-0.006": 17.4468720656,
			"-0.005": 21.0574602351,
			"-0.004": 19.6816904206,
			"-0.003": 16.8241972134,
			"-0.002": 16.4009578269,
			"-0.001": 12.5206715488,
			"0.0": 11.3512808802,
			"0.001": 10.8979890828,
			"0.002": 13.15083727,
			"0.003": 14.9577368557,
			"0.004": 6.24778545369,
			"0.005": 5.38499560562,
			"0.006": 4.88896773967,
			"0.007": 4.48689221274,
			"0.008": 5.72491167269,
			"0.009": 6.53889956409,
			"0.01": 7.60067260379,
			"0.011": 12.5185395589,
			"0.012": 14.4339806546,
			"0.013": 3.35212113198,
			"0.014": 0.104249872689,
			"0.015": 0.0,
			"0.016": 0.0,
			"0.017": 0.0,
			"0.018": 0.0,
			"0.019": 0.0,
			"0.02": 0.0,
			"0.021": 0.0,
			"0.022": 0.0,
			"0.023": 0.0,
			"0.024": 0.0,
			"0.025": 0.0
		}
	}
}
