{
	 "smiles": "FC1=C(F)C=C2C(Cl)=NC=NC2=C1", 
	 "Tm": 363.15, 
	 "num_atms": 16, 
	 "gaussian": { 
		 "optdone": 1, 
		 "sigma_profile": "yes", 
		 "theory": "DFT", 
		 "functional": "B3LYP", 
		 "basiset": "6-31G**", 
		 "properties": { 
			 "R2extent": 3374.0305, 
			 "electric_dipole_moment_norm": 0.866634732745, 
			 "electric_quadrupole_moment_norm": 6.38911050304, 
			 "total_energy": -1076.01696302, 
			 "HOMO_LUMO_gap": 0.17822, 
			 "cosmo_polarized_energy": -6.18, 
			 "cosmo_cavitation_energy": 23.84, 
			 "cosmo_dispersion_energy": -17.81, 
			 "cosmo_repulsion_energy": 1.33, 
			 "cosmo_total_nonelectrostatic_energy": 7.37, 
			 "SMD_solvation_energy": 1.92 
		},
		"coords": [
			{
				"x": 3.277060091,
				"y": -0.9387923375,
				"z": -0.5683322581,
				"element": "F" 
			},
			{
				"x": 2.1825845964,
				"y": -0.5670573862,
				"z": 0.1038145961,
				"element": "C" 
			},
			{
				"x": 2.3547725748,
				"y": -0.1046301861,
				"z": 1.4340885377,
				"element": "C" 
			},
			{
				"x": 3.5997650127,
				"y": -0.0722008328,
				"z": 1.9249676913,
				"element": "F" 
			},
			{
				"x": 1.2842631857,
				"y": 0.2943069763,
				"z": 2.1886771501,
				"element": "C" 
			},
			{
				"x": -0.0130029738,
				"y": 0.2403395455,
				"z": 1.621880066,
				"element": "C" 
			},
			{
				"x": -1.2210585652,
				"y": 0.6180462474,
				"z": 2.2737531748,
				"element": "C" 
			},
			{
				"x": -1.1560693014,
				"y": 1.2109384431,
				"z": 3.928369983,
				"element": "Cl" 
			},
			{
				"x": -2.3961671442,
				"y": 0.5534790538,
				"z": 1.7172544452,
				"element": "N" 
			},
			{
				"x": -2.4391218398,
				"y": 0.0937913162,
				"z": 0.4363701932,
				"element": "C" 
			},
			{
				"x": -1.4239202523,
				"y": -0.2923351719,
				"z": -0.300814785,
				"element": "N" 
			},
			{
				"x": -0.1927211693,
				"y": -0.2255314987,
				"z": 0.2799051817,
				"element": "C" 
			},
			{
				"x": 0.9412195343,
				"y": -0.6304236163,
				"z": -0.4707915489,
				"element": "C" 
			},
			{
				"x": 1.4384647933,
				"y": 0.643884139,
				"z": 3.201977782,
				"element": "H" 
			},
			{
				"x": -3.4298276784,
				"y": 0.0478458381,
				"z": -0.0090506063,
				"element": "H" 
			},
			{
				"x": 0.8118591361,
				"y": -0.9838605299,
				"z": -1.4865696027,
				"element": "H" 
			}
		],
		 "valence_orbital": [ 
			{
				"type": "occ",
				"energy": -0.32381,
				"method": "rhf"
			},
			{
				"type": "occ",
				"energy": -0.31869,
				"method": "rhf"
			},
			{
				"type": "occ",
				"energy": -0.28299,
				"method": "rhf"
			},
			{
				"type": "occ",
				"energy": -0.27639,
				"method": "rhf"
			},
			{
				"type": "occ",
				"energy": -0.26402,
				"method": "rhf"
			},
			{
				"type": "unocc",
				"energy": -0.0858,
				"method": "rhf"
			},
			{
				"type": "unocc",
				"energy": -0.04956,
				"method": "rhf"
			},
			{
				"type": "unocc",
				"energy": -0.0103,
				"method": "rhf"
			},
			{
				"type": "unocc",
				"energy": 0.01759,
				"method": "rhf"
			},
			{
				"type": "unocc",
				"energy": 0.05846,
				"method": "rhf"
			}
		],
		"cosmo_sigma_profile": { 
			"-0.025": 0.0,
			"-0.024": 0.0,
			"-0.023": 0.0,
			"-0.022": 0.0,
			"-0.021": 0.0,
			"-0.02": 0.0,
			"-0.019": 0.0,
			"-0.018": 0.0,
			"-0.017": 0.0,
			"-0.016": 0.0,
			"-0.015": 0.0,
			"-0.014": 0.0,
			"-0.013": 0.0,
			"-0.012": 0.0,
			"-0.011": 0.0,
			"-0.01": 0.125053550947,
			"-0.009": 2.17615279683,
			"-0.008": 4.56208194214,
			"-0.007": 4.39756381319,
			"-0.006": 4.09849630025,
			"-0.005": 6.57583928999,
			"-0.004": 11.5563384485,
			"-0.003": 20.4291304194,
			"-0.002": 23.9762503534,
			"-0.001": 20.8434744982,
			"0.0": 15.3473447874,
			"0.001": 11.7165676198,
			"0.002": 18.5656796337,
			"0.003": 26.2949044115,
			"0.004": 6.18364931517,
			"0.005": 2.76516946118,
			"0.006": 3.06622438951,
			"0.007": 2.81109718946,
			"0.008": 1.74118512094,
			"0.009": 2.14813129925,
			"0.01": 1.5989306745,
			"0.011": 1.84776190965,
			"0.012": 1.81162161203,
			"0.013": 1.09230536179,
			"0.014": 0.695320540923,
			"0.015": 0.0312997403017,
			"0.016": 0.0,
			"0.017": 0.0,
			"0.018": 0.0,
			"0.019": 0.0,
			"0.02": 0.0,
			"0.021": 0.0,
			"0.022": 0.0,
			"0.023": 0.0,
			"0.024": 0.0,
			"0.025": 0.0
		}
	}
}
