{
	 "smiles": "CC(CC1=NN=C(S)O1)C1=CC=CC=C1", 
	 "Tm": 376.15, 
	 "num_atms": 27, 
	 "gaussian": { 
		 "optdone": 1, 
		 "sigma_profile": "yes", 
		 "theory": "DFT", 
		 "functional": "B3LYP", 
		 "basiset": "6-31G**", 
		 "properties": { 
			 "R2extent": 5755.5424, 
			 "electric_dipole_moment_norm": 4.37640394502, 
			 "electric_quadrupole_moment_norm": 21.3198576585, 
			 "total_energy": -1009.28513765, 
			 "HOMO_LUMO_gap": 0.22746, 
			 "cosmo_polarized_energy": -13.65, 
			 "cosmo_cavitation_energy": 33.18, 
			 "cosmo_dispersion_energy": -23.84, 
			 "cosmo_repulsion_energy": 1.84, 
			 "cosmo_total_nonelectrostatic_energy": 11.18, 
			 "SMD_solvation_energy": 3.33 
		},
		"coords": [
			{
				"x": -0.5356613231,
				"y": -0.4848969261,
				"z": -1.3701671697,
				"element": "C" 
			},
			{
				"x": -0.2975183447,
				"y": -0.4201228514,
				"z": 0.1486562122,
				"element": "C" 
			},
			{
				"x": 1.1906478415,
				"y": -0.1122676673,
				"z": 0.4835801339,
				"element": "C" 
			},
			{
				"x": 2.1436331081,
				"y": -1.144036288,
				"z": -0.0064938363,
				"element": "C" 
			},
			{
				"x": 3.0689545077,
				"y": -1.0469155048,
				"z": -0.9049957812,
				"element": "N" 
			},
			{
				"x": 3.6932694698,
				"y": -2.3005305247,
				"z": -0.9878887703,
				"element": "N" 
			},
			{
				"x": 3.0780902483,
				"y": -3.0531781498,
				"z": -0.1352127331,
				"element": "C" 
			},
			{
				"x": 3.381810594,
				"y": -4.7572551403,
				"z": 0.1687061566,
				"element": "S" 
			},
			{
				"x": 2.0797163167,
				"y": -2.4098029432,
				"z": 0.5340120834,
				"element": "O" 
			},
			{
				"x": -1.2125647736,
				"y": 0.5837475106,
				"z": 0.8360375502,
				"element": "C" 
			},
			{
				"x": -2.1028586944,
				"y": 0.1649866749,
				"z": 1.832892097,
				"element": "C" 
			},
			{
				"x": -2.9456728642,
				"y": 1.0745758616,
				"z": 2.4749381679,
				"element": "C" 
			},
			{
				"x": -2.9088890594,
				"y": 2.4256460413,
				"z": 2.129729895,
				"element": "C" 
			},
			{
				"x": -2.0249953421,
				"y": 2.858153694,
				"z": 1.1385912191,
				"element": "C" 
			},
			{
				"x": -1.1865174464,
				"y": 1.9454574604,
				"z": 0.4986985194,
				"element": "C" 
			},
			{
				"x": 0.0996846358,
				"y": -1.2421059699,
				"z": -1.8398157752,
				"element": "H" 
			},
			{
				"x": -1.5791909244,
				"y": -0.7328021466,
				"z": -1.5843207656,
				"element": "H" 
			},
			{
				"x": -0.3134490968,
				"y": 0.4739963959,
				"z": -1.8496819248,
				"element": "H" 
			},
			{
				"x": -0.5221873396,
				"y": -1.4082947109,
				"z": 0.5689126154,
				"element": "H" 
			},
			{
				"x": 1.4957696489,
				"y": 0.8368567635,
				"z": 0.0344698061,
				"element": "H" 
			},
			{
				"x": 1.2995437478,
				"y": -0.0119862049,
				"z": 1.5696729071,
				"element": "H" 
			},
			{
				"x": 2.6540944215,
				"y": -4.7982878563,
				"z": 1.301544223,
				"element": "H" 
			},
			{
				"x": -2.1382229889,
				"y": -0.8866960179,
				"z": 2.1077132948,
				"element": "H" 
			},
			{
				"x": -3.6298969938,
				"y": 0.7260516016,
				"z": 3.2435111471,
				"element": "H" 
			},
			{
				"x": -3.5627853551,
				"y": 3.1360917133,
				"z": 2.627098348,
				"element": "H" 
			},
			{
				"x": -1.9889161813,
				"y": 3.9081620064,
				"z": 0.8620014603,
				"element": "H" 
			},
			{
				"x": -0.5078878123,
				"y": 2.2998531786,
				"z": -0.2729890804,
				"element": "H" 
			}
		],
		 "valence_orbital": [ 
			{
				"type": "occ",
				"energy": -0.31806,
				"method": "rhf"
			},
			{
				"type": "occ",
				"energy": -0.28156,
				"method": "rhf"
			},
			{
				"type": "occ",
				"energy": -0.25515,
				"method": "rhf"
			},
			{
				"type": "occ",
				"energy": -0.25263,
				"method": "rhf"
			},
			{
				"type": "occ",
				"energy": -0.24506,
				"method": "rhf"
			},
			{
				"type": "unocc",
				"energy": -0.0176,
				"method": "rhf"
			},
			{
				"type": "unocc",
				"energy": -0.00796,
				"method": "rhf"
			},
			{
				"type": "unocc",
				"energy": -0.00479,
				"method": "rhf"
			},
			{
				"type": "unocc",
				"energy": 0.00014,
				"method": "rhf"
			},
			{
				"type": "unocc",
				"energy": 0.02997,
				"method": "rhf"
			}
		],
		"cosmo_sigma_profile": { 
			"-0.025": 0.0,
			"-0.024": 0.0,
			"-0.023": 0.0,
			"-0.022": 0.0,
			"-0.021": 0.0,
			"-0.02": 0.0,
			"-0.019": 0.0,
			"-0.018": 0.0,
			"-0.017": 0.0,
			"-0.016": 0.0,
			"-0.015": 0.0,
			"-0.014": 0.0246489232525,
			"-0.013": 1.68720653457,
			"-0.012": 1.88431254521,
			"-0.011": 1.79981414201,
			"-0.01": 1.16202473302,
			"-0.009": 1.13394381647,
			"-0.008": 1.85226387276,
			"-0.007": 3.11998671798,
			"-0.006": 9.74804840781,
			"-0.005": 20.3523316424,
			"-0.004": 24.4987029112,
			"-0.003": 25.7890954519,
			"-0.002": 21.8770731789,
			"-0.001": 22.2770973072,
			"0.0": 21.0410271138,
			"0.001": 19.1471983178,
			"0.002": 14.9203528184,
			"0.003": 14.3587661653,
			"0.004": 13.590976322,
			"0.005": 12.0371706816,
			"0.006": 11.3939383786,
			"0.007": 3.82142388381,
			"0.008": 1.57409609164,
			"0.009": 1.99967020017,
			"0.01": 2.60540118089,
			"0.011": 4.1883975773,
			"0.012": 2.36764604479,
			"0.013": 2.76506061759,
			"0.014": 2.04093078347,
			"0.015": 1.47617450797,
			"0.016": 0.057946285158,
			"0.017": 0.0,
			"0.018": 0.0,
			"0.019": 0.0,
			"0.02": 0.0,
			"0.021": 0.0,
			"0.022": 0.0,
			"0.023": 0.0,
			"0.024": 0.0,
			"0.025": 0.0
		}
	}
}
