{
	 "smiles": "CCCCCSC", 
	 "Tm": 179.15, 
	 "num_atms": 21, 
	 "gaussian": { 
		 "optdone": 1, 
		 "sigma_profile": "yes", 
		 "theory": "DFT", 
		 "functional": "B3LYP", 
		 "basiset": "6-31G**", 
		 "properties": { 
			 "R2extent": 1584.073, 
			 "electric_dipole_moment_norm": 1.60294609392, 
			 "electric_quadrupole_moment_norm": 5.7203862658, 
			 "total_energy": -635.2797078, 
			 "HOMO_LUMO_gap": 0.25657, 
			 "cosmo_polarized_energy": -4.08, 
			 "cosmo_cavitation_energy": 24.03, 
			 "cosmo_dispersion_energy": -17.79, 
			 "cosmo_repulsion_energy": 1.48, 
			 "cosmo_total_nonelectrostatic_energy": 7.72, 
			 "SMD_solvation_energy": 3.91 
		},
		"coords": [
			{
				"x": -2.6696951294,
				"y": -0.4040489709,
				"z": -1.589670118,
				"element": "C" 
			},
			{
				"x": -1.2391560374,
				"y": -0.8049636413,
				"z": -1.214239272,
				"element": "C" 
			},
			{
				"x": -1.1085936612,
				"y": -1.2346326408,
				"z": 0.2530114009,
				"element": "C" 
			},
			{
				"x": 0.2883096324,
				"y": -1.7379450311,
				"z": 0.6541449591,
				"element": "C" 
			},
			{
				"x": 1.4295345477,
				"y": -0.7199159068,
				"z": 0.5299676881,
				"element": "C" 
			},
			{
				"x": 1.1776867834,
				"y": 0.7218871711,
				"z": 1.6455671159,
				"element": "S" 
			},
			{
				"x": 2.7265802689,
				"y": 1.6267497878,
				"z": 1.3103898392,
				"element": "C" 
			},
			{
				"x": -3.0177715305,
				"y": 0.4349269458,
				"z": -0.9766005012,
				"element": "H" 
			},
			{
				"x": -2.7386044995,
				"y": -0.0996359479,
				"z": -2.6392197769,
				"element": "H" 
			},
			{
				"x": -3.3675770341,
				"y": -1.2355255028,
				"z": -1.4375717838,
				"element": "H" 
			},
			{
				"x": -0.9056220641,
				"y": -1.6261924337,
				"z": -1.8643756058,
				"element": "H" 
			},
			{
				"x": -0.5671463878,
				"y": 0.038863673,
				"z": -1.4148733762,
				"element": "H" 
			},
			{
				"x": -1.3998789863,
				"y": -0.3979646464,
				"z": 0.9008691754,
				"element": "H" 
			},
			{
				"x": -1.8294883904,
				"y": -2.0389548035,
				"z": 0.4529549116,
				"element": "H" 
			},
			{
				"x": 0.552251981,
				"y": -2.6010916777,
				"z": 0.0273916531,
				"element": "H" 
			},
			{
				"x": 0.2563044816,
				"y": -2.1060654359,
				"z": 1.6868030814,
				"element": "H" 
			},
			{
				"x": 1.5197385354,
				"y": -0.3554104424,
				"z": -0.4989765028,
				"element": "H" 
			},
			{
				"x": 2.3779578004,
				"y": -1.197157924,
				"z": 0.7996843522,
				"element": "H" 
			},
			{
				"x": 3.6018000377,
				"y": 1.0295143541,
				"z": 1.5817796858,
				"element": "H" 
			},
			{
				"x": 2.7950136816,
				"y": 1.9214581818,
				"z": 0.2593915741,
				"element": "H" 
			},
			{
				"x": 2.7109559704,
				"y": 2.5281048915,
				"z": 1.9269714997,
				"element": "H" 
			}
		],
		 "valence_orbital": [ 
			{
				"type": "occ",
				"energy": -0.3304,
				"method": "rhf"
			},
			{
				"type": "occ",
				"energy": -0.31942,
				"method": "rhf"
			},
			{
				"type": "occ",
				"energy": -0.31473,
				"method": "rhf"
			},
			{
				"type": "occ",
				"energy": -0.29769,
				"method": "rhf"
			},
			{
				"type": "occ",
				"energy": -0.21417,
				"method": "rhf"
			},
			{
				"type": "unocc",
				"energy": 0.0424,
				"method": "rhf"
			},
			{
				"type": "unocc",
				"energy": 0.08558,
				"method": "rhf"
			},
			{
				"type": "unocc",
				"energy": 0.08586,
				"method": "rhf"
			},
			{
				"type": "unocc",
				"energy": 0.11336,
				"method": "rhf"
			},
			{
				"type": "unocc",
				"energy": 0.11801,
				"method": "rhf"
			}
		],
		"cosmo_sigma_profile": { 
			"-0.025": 0.0,
			"-0.024": 0.0,
			"-0.023": 0.0,
			"-0.022": 0.0,
			"-0.021": 0.0,
			"-0.02": 0.0,
			"-0.019": 0.0,
			"-0.018": 0.0,
			"-0.017": 0.0,
			"-0.016": 0.0,
			"-0.015": 0.0,
			"-0.014": 0.0,
			"-0.013": 0.0,
			"-0.012": 0.0,
			"-0.011": 0.0,
			"-0.01": 0.0,
			"-0.009": 0.0,
			"-0.008": 0.0,
			"-0.007": 0.0,
			"-0.006": 0.926213871533,
			"-0.005": 5.13046924273,
			"-0.004": 10.8972390568,
			"-0.003": 17.3189572351,
			"-0.002": 29.2901099928,
			"-0.001": 35.8788993008,
			"0.0": 28.4799900112,
			"0.001": 21.9715244545,
			"0.002": 11.5871922667,
			"0.003": 3.58318178664,
			"0.004": 2.61302446764,
			"0.005": 3.4780659191,
			"0.006": 3.51677232368,
			"0.007": 3.24798165426,
			"0.008": 2.30445723907,
			"0.009": 1.75950213864,
			"0.01": 2.63851649966,
			"0.011": 1.780827032,
			"0.012": 0.973763189362,
			"0.013": 0.0473771347595,
			"0.014": 0.0,
			"0.015": 0.0,
			"0.016": 0.0,
			"0.017": 0.0,
			"0.018": 0.0,
			"0.019": 0.0,
			"0.02": 0.0,
			"0.021": 0.0,
			"0.022": 0.0,
			"0.023": 0.0,
			"0.024": 0.0,
			"0.025": 0.0
		}
	}
}
