{
	 "smiles": "OCC1=CC(Cl)=CC=C1O", 
	 "Tm": 363.65, 
	 "num_atms": 17, 
	 "gaussian": { 
		 "optdone": 1, 
		 "sigma_profile": "yes", 
		 "theory": "DFT", 
		 "functional": "B3LYP", 
		 "basiset": "6-31G**", 
		 "properties": { 
			 "R2extent": 2729.8626, 
			 "electric_dipole_moment_norm": 3.571500007, 
			 "electric_quadrupole_moment_norm": 7.38815243278, 
			 "total_energy": -881.589936651, 
			 "HOMO_LUMO_gap": 0.20925, 
			 "cosmo_polarized_energy": -12.3, 
			 "cosmo_cavitation_energy": 22.78, 
			 "cosmo_dispersion_energy": -17.16, 
			 "cosmo_repulsion_energy": 1.41, 
			 "cosmo_total_nonelectrostatic_energy": 7.03, 
			 "SMD_solvation_energy": 3.98 
		},
		"coords": [
			{
				"x": 0.7976411882,
				"y": 3.9239759902,
				"z": -0.9654948796,
				"element": "O" 
			},
			{
				"x": 0.1977876234,
				"y": 2.9663468721,
				"z": -0.1080274906,
				"element": "C" 
			},
			{
				"x": 0.1850863537,
				"y": 1.5609085575,
				"z": -0.681956854,
				"element": "C" 
			},
			{
				"x": 0.445644116,
				"y": 1.3319870341,
				"z": -2.0324566398,
				"element": "C" 
			},
			{
				"x": 0.432612854,
				"y": 0.0340425642,
				"z": -2.543795051,
				"element": "C" 
			},
			{
				"x": 0.7714916703,
				"y": -0.2275853267,
				"z": -4.2519583813,
				"element": "Cl" 
			},
			{
				"x": 0.1558710161,
				"y": -1.055347134,
				"z": -1.7236264854,
				"element": "C" 
			},
			{
				"x": -0.1139539028,
				"y": -0.8337610745,
				"z": -0.3721584519,
				"element": "C" 
			},
			{
				"x": -0.1025972852,
				"y": 0.4621634925,
				"z": 0.146632509,
				"element": "C" 
			},
			{
				"x": -0.3672729684,
				"y": 0.733859805,
				"z": 1.4626940543,
				"element": "O" 
			},
			{
				"x": 1.7379227366,
				"y": 3.7103484509,
				"z": -1.0311721003,
				"element": "H" 
			},
			{
				"x": 0.6728715847,
				"y": 2.9503637538,
				"z": 0.8832128722,
				"element": "H" 
			},
			{
				"x": -0.8307593225,
				"y": 3.3114609779,
				"z": 0.0497715186,
				"element": "H" 
			},
			{
				"x": 0.655109958,
				"y": 2.1789879239,
				"z": -2.6754720493,
				"element": "H" 
			},
			{
				"x": 0.1490677047,
				"y": -2.0609493086,
				"z": -2.1286538237,
				"element": "H" 
			},
			{
				"x": -0.3333656407,
				"y": -1.6773082467,
				"z": 0.2790243772,
				"element": "H" 
			},
			{
				"x": -0.5292576862,
				"y": -0.0933943316,
				"z": 1.9340368757,
				"element": "H" 
			}
		],
		 "valence_orbital": [ 
			{
				"type": "occ",
				"energy": -0.31054,
				"method": "rhf"
			},
			{
				"type": "occ",
				"energy": -0.30825,
				"method": "rhf"
			},
			{
				"type": "occ",
				"energy": -0.28108,
				"method": "rhf"
			},
			{
				"type": "occ",
				"energy": -0.25809,
				"method": "rhf"
			},
			{
				"type": "occ",
				"energy": -0.22322,
				"method": "rhf"
			},
			{
				"type": "unocc",
				"energy": -0.01397,
				"method": "rhf"
			},
			{
				"type": "unocc",
				"energy": -0.00066,
				"method": "rhf"
			},
			{
				"type": "unocc",
				"energy": 0.03292,
				"method": "rhf"
			},
			{
				"type": "unocc",
				"energy": 0.05952,
				"method": "rhf"
			},
			{
				"type": "unocc",
				"energy": 0.07822,
				"method": "rhf"
			}
		],
		"cosmo_sigma_profile": { 
			"-0.025": 0.0,
			"-0.024": 0.0,
			"-0.023": 0.0,
			"-0.022": 0.0,
			"-0.021": 0.0,
			"-0.02": 0.0,
			"-0.019": 0.00828433614653,
			"-0.018": 0.741495337531,
			"-0.017": 1.45137241747,
			"-0.016": 1.22585385375,
			"-0.015": 2.26633043704,
			"-0.014": 1.95787776993,
			"-0.013": 1.69389973469,
			"-0.012": 1.45219775099,
			"-0.011": 1.82558774159,
			"-0.01": 2.19271920988,
			"-0.009": 2.86050649127,
			"-0.008": 1.82717509744,
			"-0.007": 4.08771788614,
			"-0.006": 5.99730960378,
			"-0.005": 8.96172669193,
			"-0.004": 8.58612680533,
			"-0.003": 7.74303620847,
			"-0.002": 8.94111627855,
			"-0.001": 9.64912327431,
			"0.0": 9.27655259078,
			"0.001": 10.9976484117,
			"0.002": 15.9274721162,
			"0.003": 19.9213566221,
			"0.004": 19.3197491176,
			"0.005": 14.1989735337,
			"0.006": 4.55476833662,
			"0.007": 2.05457990147,
			"0.008": 2.56080890408,
			"0.009": 3.31365856193,
			"0.01": 2.08620831988,
			"0.011": 0.859112644614,
			"0.012": 1.10570752398,
			"0.013": 2.02413324454,
			"0.014": 1.36101991056,
			"0.015": 0.0,
			"0.016": 0.0,
			"0.017": 0.0,
			"0.018": 0.0,
			"0.019": 0.0,
			"0.02": 0.0,
			"0.021": 0.0,
			"0.022": 0.0,
			"0.023": 0.0,
			"0.024": 0.0,
			"0.025": 0.0
		}
	}
}
