{
	 "smiles": "CC(C)=CCSCC(N)C(O)=O", 
	 "Tm": 463.15, 
	 "num_atms": 27, 
	 "gaussian": { 
		 "optdone": 1, 
		 "sigma_profile": "yes", 
		 "theory": "DFT", 
		 "functional": "B3LYP", 
		 "basiset": "6-31G**", 
		 "properties": { 
			 "R2extent": 3542.9236, 
			 "electric_dipole_moment_norm": 4.27370846455, 
			 "electric_quadrupole_moment_norm": 12.9906821434, 
			 "total_energy": -917.273356667, 
			 "HOMO_LUMO_gap": 0.218, 
			 "cosmo_polarized_energy": -16.75, 
			 "cosmo_cavitation_energy": 32.07, 
			 "cosmo_dispersion_energy": -22.28, 
			 "cosmo_repulsion_energy": 1.82, 
			 "cosmo_total_nonelectrostatic_energy": 11.61, 
			 "SMD_solvation_energy": 5.18 
		},
		"coords": [
			{
				"x": 3.5896288805,
				"y": -1.6419166223,
				"z": 0.2092053492,
				"element": "C" 
			},
			{
				"x": 3.1320454932,
				"y": -0.2067815865,
				"z": 0.2727897062,
				"element": "C" 
			},
			{
				"x": 3.7115947125,
				"y": 0.5890792752,
				"z": 1.4166167641,
				"element": "C" 
			},
			{
				"x": 2.2724666485,
				"y": 0.3599005367,
				"z": -0.5902742158,
				"element": "C" 
			},
			{
				"x": 1.6131344804,
				"y": -0.2819288847,
				"z": -1.7738559176,
				"element": "C" 
			},
			{
				"x": -0.0986966367,
				"y": -0.9378844552,
				"z": -1.4760685185,
				"element": "S" 
			},
			{
				"x": -0.979989349,
				"y": 0.6291564738,
				"z": -1.0910854334,
				"element": "C" 
			},
			{
				"x": -2.4945647797,
				"y": 0.4027966247,
				"z": -0.8873100615,
				"element": "C" 
			},
			{
				"x": -3.2476729265,
				"y": 1.6383879195,
				"z": -0.6568920341,
				"element": "N" 
			},
			{
				"x": -2.7621008882,
				"y": -0.5395639366,
				"z": 0.283145147,
				"element": "C" 
			},
			{
				"x": -2.413387635,
				"y": 0.03578787,
				"z": 1.4623757781,
				"element": "O" 
			},
			{
				"x": -3.2215407576,
				"y": -1.6538690817,
				"z": 0.2067230182,
				"element": "O" 
			},
			{
				"x": 3.1756921278,
				"y": -2.1945204685,
				"z": -0.6357370463,
				"element": "H" 
			},
			{
				"x": 3.299090205,
				"y": -2.1736068049,
				"z": 1.124387744,
				"element": "H" 
			},
			{
				"x": 4.6843761014,
				"y": -1.6978970305,
				"z": 0.1512302367,
				"element": "H" 
			},
			{
				"x": 3.3496463919,
				"y": 1.6208188957,
				"z": 1.4231313486,
				"element": "H" 
			},
			{
				"x": 4.8081671752,
				"y": 0.6121243613,
				"z": 1.3648609455,
				"element": "H" 
			},
			{
				"x": 3.4566422276,
				"y": 0.1318485299,
				"z": 2.3818358657,
				"element": "H" 
			},
			{
				"x": 2.0101568534,
				"y": 1.4042235478,
				"z": -0.4239594234,
				"element": "H" 
			},
			{
				"x": 2.1604692312,
				"y": -1.1576336152,
				"z": -2.1297827862,
				"element": "H" 
			},
			{
				"x": 1.5527175357,
				"y": 0.4226907476,
				"z": -2.6101695224,
				"element": "H" 
			},
			{
				"x": -0.5574895479,
				"y": 1.0766896631,
				"z": -0.1862732263,
				"element": "H" 
			},
			{
				"x": -0.8454583015,
				"y": 1.328410077,
				"z": -1.924937094,
				"element": "H" 
			},
			{
				"x": -2.9093784844,
				"y": -0.0948719982,
				"z": -1.7679381982,
				"element": "H" 
			},
			{
				"x": -2.8776800951,
				"y": 2.1213746853,
				"z": 0.1581043716,
				"element": "H" 
			},
			{
				"x": -3.1473765387,
				"y": 2.2599774301,
				"z": -1.4550675078,
				"element": "H" 
			},
			{
				"x": -2.6146921238,
				"y": -0.6174921536,
				"z": 2.1530447108,
				"element": "H" 
			}
		],
		 "valence_orbital": [ 
			{
				"type": "occ",
				"energy": -0.31324,
				"method": "rhf"
			},
			{
				"type": "occ",
				"energy": -0.27544,
				"method": "rhf"
			},
			{
				"type": "occ",
				"energy": -0.24608,
				"method": "rhf"
			},
			{
				"type": "occ",
				"energy": -0.23899,
				"method": "rhf"
			},
			{
				"type": "occ",
				"energy": -0.21749,
				"method": "rhf"
			},
			{
				"type": "unocc",
				"energy": 0.00051,
				"method": "rhf"
			},
			{
				"type": "unocc",
				"energy": 0.01174,
				"method": "rhf"
			},
			{
				"type": "unocc",
				"energy": 0.04531,
				"method": "rhf"
			},
			{
				"type": "unocc",
				"energy": 0.06818,
				"method": "rhf"
			},
			{
				"type": "unocc",
				"energy": 0.08506,
				"method": "rhf"
			}
		],
		"cosmo_sigma_profile": { 
			"-0.025": 0.0,
			"-0.024": 0.0,
			"-0.023": 0.0,
			"-0.022": 0.0,
			"-0.021": 0.0,
			"-0.02": 0.0,
			"-0.019": 0.0737546229164,
			"-0.018": 0.756238361662,
			"-0.017": 1.09556685157,
			"-0.016": 0.855512352726,
			"-0.015": 0.774340278541,
			"-0.014": 0.792680801665,
			"-0.013": 0.439418835886,
			"-0.012": 0.725954504617,
			"-0.011": 1.7094855363,
			"-0.01": 3.28312693588,
			"-0.009": 3.56509312875,
			"-0.008": 4.0916553599,
			"-0.007": 5.3762780074,
			"-0.006": 8.25864018374,
			"-0.005": 12.8909655147,
			"-0.004": 19.9116187452,
			"-0.003": 25.3963554696,
			"-0.002": 21.4198890376,
			"-0.001": 18.4199200873,
			"0.0": 21.5368937321,
			"0.001": 17.1431836998,
			"0.002": 8.56701043693,
			"0.003": 9.96559336669,
			"0.004": 8.76755224416,
			"0.005": 9.23780395391,
			"0.006": 9.25748410907,
			"0.007": 8.02438930685,
			"0.008": 5.24732563944,
			"0.009": 4.99083356955,
			"0.01": 5.12562508598,
			"0.011": 6.66206662063,
			"0.012": 3.82514601393,
			"0.013": 1.1329231943,
			"0.014": 0.409641425967,
			"0.015": 0.359208372345,
			"0.016": 0.786723215546,
			"0.017": 0.592618996016,
			"0.018": 0.132394986985,
			"0.019": 0.0,
			"0.02": 0.0,
			"0.021": 0.0,
			"0.022": 0.0,
			"0.023": 0.0,
			"0.024": 0.0,
			"0.025": 0.0
		}
	}
}
