{
	 "smiles": "COC1=C(OC)C(=CC=C1)C1C(C(=O)OC(C)C)=C(C)NC(C)=C1C(=O)OC(C)C", 
	 "Tm": 414.15, 
	 "num_atms": 61, 
	 "gaussian": { 
		 "optdone": 1, 
		 "sigma_profile": "yes", 
		 "theory": "DFT", 
		 "functional": "B3LYP", 
		 "basiset": "6-31G**", 
		 "properties": { 
			 "R2extent": 11409.9519, 
			 "electric_dipole_moment_norm": 1.28650578312, 
			 "electric_quadrupole_moment_norm": 24.7816581982, 
			 "total_energy": -1401.24075374, 
			 "HOMO_LUMO_gap": 0.15357, 
			 "cosmo_polarized_energy": -19.35, 
			 "cosmo_cavitation_energy": 61.21, 
			 "cosmo_dispersion_energy": -36.83, 
			 "cosmo_repulsion_energy": 2.84, 
			 "cosmo_total_nonelectrostatic_energy": 27.22, 
			 "SMD_solvation_energy": 13.12 
		},
		"coords": [
			{
				"x": -3.682241211,
				"y": 2.4475239524,
				"z": -1.6448697105,
				"element": "C" 
			},
			{
				"x": -3.8186519941,
				"y": 1.3917933665,
				"z": -0.6881110112,
				"element": "O" 
			},
			{
				"x": -2.6903146208,
				"y": 1.1643959566,
				"z": 0.076130641,
				"element": "C" 
			},
			{
				"x": -1.5415033087,
				"y": 0.5689588392,
				"z": -0.485431953,
				"element": "C" 
			},
			{
				"x": -1.5252275856,
				"y": 0.2249824612,
				"z": -1.8212354653,
				"element": "O" 
			},
			{
				"x": -2.4356915682,
				"y": -0.8194498013,
				"z": -2.1890072034,
				"element": "C" 
			},
			{
				"x": -0.3918524183,
				"y": 0.3705034169,
				"z": 0.2990778779,
				"element": "C" 
			},
			{
				"x": -0.4454693193,
				"y": 0.7346755822,
				"z": 1.6525515773,
				"element": "C" 
			},
			{
				"x": -1.5956575104,
				"y": 1.2774921642,
				"z": 2.2203066458,
				"element": "C" 
			},
			{
				"x": -2.7202049332,
				"y": 1.5038391998,
				"z": 1.4266045348,
				"element": "C" 
			},
			{
				"x": 0.9169532963,
				"y": -0.2045268093,
				"z": -0.2712905039,
				"element": "C" 
			},
			{
				"x": 0.773266625,
				"y": -1.6407202455,
				"z": -0.7749949989,
				"element": "C" 
			},
			{
				"x": 0.6063736834,
				"y": -2.7315106037,
				"z": 0.1977085638,
				"element": "C" 
			},
			{
				"x": 0.3494696884,
				"y": -3.9003043601,
				"z": -0.0653520859,
				"element": "O" 
			},
			{
				"x": 0.7848226933,
				"y": -2.296492229,
				"z": 1.4733758601,
				"element": "O" 
			},
			{
				"x": 0.6216458914,
				"y": -3.2725921139,
				"z": 2.5371828142,
				"element": "C" 
			},
			{
				"x": 1.4695693146,
				"y": -2.7728001375,
				"z": 3.6993268197,
				"element": "C" 
			},
			{
				"x": -0.8595899857,
				"y": -3.4069869128,
				"z": 2.879387811,
				"element": "C" 
			},
			{
				"x": 0.7969340893,
				"y": -1.9293365322,
				"z": -2.1071844579,
				"element": "C" 
			},
			{
				"x": 0.6000948548,
				"y": -3.2851720214,
				"z": -2.7366893046,
				"element": "C" 
			},
			{
				"x": 1.0584030607,
				"y": -0.9170231093,
				"z": -3.0104735783,
				"element": "N" 
			},
			{
				"x": 1.5036273075,
				"y": 0.3447655161,
				"z": -2.6604446106,
				"element": "C" 
			},
			{
				"x": 1.9664888535,
				"y": 1.1818818981,
				"z": -3.8246655505,
				"element": "C" 
			},
			{
				"x": 1.5233189976,
				"y": 0.699659713,
				"z": -1.345243228,
				"element": "C" 
			},
			{
				"x": 2.1324284439,
				"y": 1.9796728951,
				"z": -0.9536678103,
				"element": "C" 
			},
			{
				"x": 2.5205003299,
				"y": 2.8571992645,
				"z": -1.7153140457,
				"element": "O" 
			},
			{
				"x": 2.2430276115,
				"y": 2.0926659601,
				"z": 0.3976603944,
				"element": "O" 
			},
			{
				"x": 2.8231033836,
				"y": 3.3217519308,
				"z": 0.911280787,
				"element": "C" 
			},
			{
				"x": 4.3459063092,
				"y": 3.2240905008,
				"z": 0.8777117282,
				"element": "C" 
			},
			{
				"x": 2.2588528216,
				"y": 3.5013242508,
				"z": 2.3143636637,
				"element": "C" 
			},
			{
				"x": -4.6418045088,
				"y": 2.520081693,
				"z": -2.1617184209,
				"element": "H" 
			},
			{
				"x": -2.8886297058,
				"y": 2.2315661155,
				"z": -2.3674693678,
				"element": "H" 
			},
			{
				"x": -3.4683508068,
				"y": 3.4005620171,
				"z": -1.1445389283,
				"element": "H" 
			},
			{
				"x": -2.2790365584,
				"y": -0.996390662,
				"z": -3.2555161955,
				"element": "H" 
			},
			{
				"x": -2.2133676469,
				"y": -1.7374342255,
				"z": -1.6325829592,
				"element": "H" 
			},
			{
				"x": -3.4732626134,
				"y": -0.5249372893,
				"z": -2.0108353664,
				"element": "H" 
			},
			{
				"x": 0.4375485676,
				"y": 0.5773678497,
				"z": 2.2628308935,
				"element": "H" 
			},
			{
				"x": -1.6128621053,
				"y": 1.5394640931,
				"z": 3.2743060882,
				"element": "H" 
			},
			{
				"x": -3.6272741515,
				"y": 1.9445774976,
				"z": 1.8280736649,
				"element": "H" 
			},
			{
				"x": 1.6074174282,
				"y": -0.2212942821,
				"z": 0.574502602,
				"element": "H" 
			},
			{
				"x": 1.0001221289,
				"y": -4.2299840203,
				"z": 2.1674183437,
				"element": "H" 
			},
			{
				"x": 2.5151721033,
				"y": -2.6618770559,
				"z": 3.398269754,
				"element": "H" 
			},
			{
				"x": 1.1083115273,
				"y": -1.80272418,
				"z": 4.0558734252,
				"element": "H" 
			},
			{
				"x": 1.4230696152,
				"y": -3.4825828077,
				"z": 4.5313017326,
				"element": "H" 
			},
			{
				"x": -1.2738533074,
				"y": -2.4376305161,
				"z": 3.1743300616,
				"element": "H" 
			},
			{
				"x": -1.4161406017,
				"y": -3.7818991263,
				"z": 2.0174899239,
				"element": "H" 
			},
			{
				"x": -0.9946747985,
				"y": -4.110609591,
				"z": 3.7076960685,
				"element": "H" 
			},
			{
				"x": -0.3703104236,
				"y": -3.7074526493,
				"z": -2.4702755066,
				"element": "H" 
			},
			{
				"x": 0.6757315749,
				"y": -3.2196426948,
				"z": -3.8276373268,
				"element": "H" 
			},
			{
				"x": 1.3443247086,
				"y": -3.9972195179,
				"z": -2.3734838337,
				"element": "H" 
			},
			{
				"x": 1.0770193772,
				"y": -1.1598799541,
				"z": -3.9884424136,
				"element": "H" 
			},
			{
				"x": 1.8527063317,
				"y": 0.6328323768,
				"z": -4.7658604661,
				"element": "H" 
			},
			{
				"x": 3.01210718,
				"y": 1.4740689556,
				"z": -3.7081370438,
				"element": "H" 
			},
			{
				"x": 1.3994926186,
				"y": 2.1126427178,
				"z": -3.8844919412,
				"element": "H" 
			},
			{
				"x": 2.4972251218,
				"y": 4.1359897289,
				"z": 0.2574442691,
				"element": "H" 
			},
			{
				"x": 4.6967147978,
				"y": 3.1032068496,
				"z": -0.149458909,
				"element": "H" 
			},
			{
				"x": 4.6897210739,
				"y": 2.373060332,
				"z": 1.4751233852,
				"element": "H" 
			},
			{
				"x": 4.7925363163,
				"y": 4.1356883718,
				"z": 1.2887450375,
				"element": "H" 
			},
			{
				"x": 1.1660674901,
				"y": 3.521195649,
				"z": 2.2925909187,
				"element": "H" 
			},
			{
				"x": 2.5754581124,
				"y": 2.6824198265,
				"z": 2.9690042582,
				"element": "H" 
			},
			{
				"x": 2.6173383542,
				"y": 4.4414725059,
				"z": 2.7456540509,
				"element": "H" 
			}
		],
		 "valence_orbital": [ 
			{
				"type": "occ",
				"energy": -0.25643,
				"method": "rhf"
			},
			{
				"type": "occ",
				"energy": -0.24438,
				"method": "rhf"
			},
			{
				"type": "occ",
				"energy": -0.22788,
				"method": "rhf"
			},
			{
				"type": "occ",
				"energy": -0.22006,
				"method": "rhf"
			},
			{
				"type": "occ",
				"energy": -0.19588,
				"method": "rhf"
			},
			{
				"type": "unocc",
				"energy": -0.04231,
				"method": "rhf"
			},
			{
				"type": "unocc",
				"energy": 0.00803,
				"method": "rhf"
			},
			{
				"type": "unocc",
				"energy": 0.01367,
				"method": "rhf"
			},
			{
				"type": "unocc",
				"energy": 0.01448,
				"method": "rhf"
			},
			{
				"type": "unocc",
				"energy": 0.06216,
				"method": "rhf"
			}
		],
		"cosmo_sigma_profile": { 
			"-0.025": 0.0,
			"-0.024": 0.0,
			"-0.023": 0.0,
			"-0.022": 0.0,
			"-0.021": 0.0,
			"-0.02": 0.0,
			"-0.019": 0.0,
			"-0.018": 0.0,
			"-0.017": 0.0,
			"-0.016": 0.116723635945,
			"-0.015": 1.07026897737,
			"-0.014": 1.28322020324,
			"-0.013": 1.40303159205,
			"-0.012": 1.11270496977,
			"-0.011": 1.78605551076,
			"-0.01": 1.67526603391,
			"-0.009": 1.37443729341,
			"-0.008": 1.43203109271,
			"-0.007": 2.11473155798,
			"-0.006": 4.12163973429,
			"-0.005": 12.7575119833,
			"-0.004": 34.7411788561,
			"-0.003": 57.4971897821,
			"-0.002": 62.0049552177,
			"-0.001": 58.7524935872,
			"0.0": 58.9948679389,
			"0.001": 47.9861768339,
			"0.002": 27.3285017006,
			"0.003": 23.0547738698,
			"0.004": 19.1291061432,
			"0.005": 16.7296509721,
			"0.006": 9.52767342059,
			"0.007": 4.99382329171,
			"0.008": 5.46035551743,
			"0.009": 5.55702329083,
			"0.01": 3.30242397398,
			"0.011": 4.14644914512,
			"0.012": 4.46519249808,
			"0.013": 4.76610681751,
			"0.014": 1.13667772547,
			"0.015": 0.0,
			"0.016": 0.0,
			"0.017": 0.0,
			"0.018": 0.0,
			"0.019": 0.0,
			"0.02": 0.0,
			"0.021": 0.0,
			"0.022": 0.0,
			"0.023": 0.0,
			"0.024": 0.0,
			"0.025": 0.0
		}
	}
}
