{
	 "smiles": "COC(=O)C(=CC1=CC(F)=CC=C1)C#N", 
	 "Tm": 381.15, 
	 "num_atms": 23, 
	 "gaussian": { 
		 "optdone": 1, 
		 "sigma_profile": "yes", 
		 "theory": "DFT", 
		 "functional": "B3LYP", 
		 "basiset": "6-31G**", 
		 "properties": { 
			 "R2extent": 3918.3002, 
			 "electric_dipole_moment_norm": 5.78203874944, 
			 "electric_quadrupole_moment_norm": 22.830284853, 
			 "total_energy": -728.98738728, 
			 "HOMO_LUMO_gap": 0.16407, 
			 "cosmo_polarized_energy": -14.55, 
			 "cosmo_cavitation_energy": 30.25, 
			 "cosmo_dispersion_energy": -20.22, 
			 "cosmo_repulsion_energy": 1.58, 
			 "cosmo_total_nonelectrostatic_energy": 11.61, 
			 "SMD_solvation_energy": 8.59 
		},
		"coords": [
			{
				"x": 1.6951433502,
				"y": 2.3346815284,
				"z": -1.1960213322,
				"element": "C" 
			},
			{
				"x": 0.5033471351,
				"y": 2.0279799655,
				"z": -0.4480992271,
				"element": "O" 
			},
			{
				"x": 0.5305513967,
				"y": 2.3919085532,
				"z": 0.8455588559,
				"element": "C" 
			},
			{
				"x": 1.4485952997,
				"y": 2.975561511,
				"z": 1.3772961757,
				"element": "O" 
			},
			{
				"x": -0.7500920425,
				"y": 2.0319920405,
				"z": 1.5527077942,
				"element": "C" 
			},
			{
				"x": -1.4066404124,
				"y": 0.8463682943,
				"z": 1.4940368861,
				"element": "C" 
			},
			{
				"x": -1.0150928059,
				"y": -0.4011285731,
				"z": 0.8317717128,
				"element": "C" 
			},
			{
				"x": -2.0371440082,
				"y": -1.2568170094,
				"z": 0.3830880637,
				"element": "C" 
			},
			{
				"x": -1.7021665982,
				"y": -2.4540751958,
				"z": -0.2325759554,
				"element": "C" 
			},
			{
				"x": -2.6906564836,
				"y": -3.254991019,
				"z": -0.6752406583,
				"element": "F" 
			},
			{
				"x": -0.3814789104,
				"y": -2.8579601364,
				"z": -0.3958938848,
				"element": "C" 
			},
			{
				"x": 0.6309020997,
				"y": -2.0223116304,
				"z": 0.0810768476,
				"element": "C" 
			},
			{
				"x": 0.3249020432,
				"y": -0.8066937586,
				"z": 0.6873790233,
				"element": "C" 
			},
			{
				"x": -1.2807659198,
				"y": 3.0766517118,
				"z": 2.3779124096,
				"element": "C" 
			},
			{
				"x": -1.7267307352,
				"y": 3.9238526962,
				"z": 3.0390563093,
				"element": "N" 
			},
			{
				"x": 1.8990989194,
				"y": 3.4071444465,
				"z": -1.1644450769,
				"element": "H" 
			},
			{
				"x": 1.4903044677,
				"y": 2.0086962504,
				"z": -2.2149679742,
				"element": "H" 
			},
			{
				"x": 2.5542162212,
				"y": 1.7980355014,
				"z": -0.7852329938,
				"element": "H" 
			},
			{
				"x": -2.3507305457,
				"y": 0.8006888527,
				"z": 2.0338778501,
				"element": "H" 
			},
			{
				"x": -3.0832449268,
				"y": -0.9911484661,
				"z": 0.4948051218,
				"element": "H" 
			},
			{
				"x": -0.165499967,
				"y": -3.8088355496,
				"z": -0.8703505748,
				"element": "H" 
			},
			{
				"x": 1.6673107449,
				"y": -2.331045119,
				"z": -0.0135779981,
				"element": "H" 
			},
			{
				"x": 1.1228716778,
				"y": -0.1906548943,
				"z": 1.0861386255,
				"element": "H" 
			}
		],
		 "valence_orbital": [ 
			{
				"type": "occ",
				"energy": -0.32088,
				"method": "rhf"
			},
			{
				"type": "occ",
				"energy": -0.3107,
				"method": "rhf"
			},
			{
				"type": "occ",
				"energy": -0.29596,
				"method": "rhf"
			},
			{
				"type": "occ",
				"energy": -0.27062,
				"method": "rhf"
			},
			{
				"type": "occ",
				"energy": -0.25549,
				"method": "rhf"
			},
			{
				"type": "unocc",
				"energy": -0.09142,
				"method": "rhf"
			},
			{
				"type": "unocc",
				"energy": -0.02436,
				"method": "rhf"
			},
			{
				"type": "unocc",
				"energy": -0.01319,
				"method": "rhf"
			},
			{
				"type": "unocc",
				"energy": 0.00734,
				"method": "rhf"
			},
			{
				"type": "unocc",
				"energy": 0.03583,
				"method": "rhf"
			}
		],
		"cosmo_sigma_profile": { 
			"-0.025": 0.0,
			"-0.024": 0.0,
			"-0.023": 0.0,
			"-0.022": 0.0,
			"-0.021": 0.0,
			"-0.02": 0.0,
			"-0.019": 0.0,
			"-0.018": 0.0,
			"-0.017": 0.0,
			"-0.016": 0.0,
			"-0.015": 0.0,
			"-0.014": 0.0,
			"-0.013": 0.0,
			"-0.012": 0.0,
			"-0.011": 0.0,
			"-0.01": 1.71309699216,
			"-0.009": 3.85940943548,
			"-0.008": 5.8092289437,
			"-0.007": 12.2561490336,
			"-0.006": 17.6629665713,
			"-0.005": 17.884794162,
			"-0.004": 16.9251300726,
			"-0.003": 14.2950823306,
			"-0.002": 15.9676689751,
			"-0.001": 13.4141667419,
			"0.0": 16.7415569761,
			"0.001": 16.2759352951,
			"0.002": 15.6116993777,
			"0.003": 13.7567504407,
			"0.004": 15.7927388555,
			"0.005": 6.75349565412,
			"0.006": 6.19725192081,
			"0.007": 5.95490225598,
			"0.008": 5.51941961789,
			"0.009": 5.62368200463,
			"0.01": 6.04708015101,
			"0.011": 6.82355738395,
			"0.012": 2.28671052958,
			"0.013": 0.865552508468,
			"0.014": 0.0,
			"0.015": 0.0,
			"0.016": 0.0,
			"0.017": 0.0,
			"0.018": 0.0,
			"0.019": 0.0,
			"0.02": 0.0,
			"0.021": 0.0,
			"0.022": 0.0,
			"0.023": 0.0,
			"0.024": 0.0,
			"0.025": 0.0
		}
	}
}
