{
	 "smiles": "OC(C1=CC2=C(O1)C=CC=C2)C1=CC=C(Cl)C=C1", 
	 "Tm": 321.65, 
	 "num_atms": 29, 
	 "gaussian": { 
		 "optdone": 1, 
		 "sigma_profile": "yes", 
		 "theory": "DFT", 
		 "functional": "B3LYP", 
		 "basiset": "6-31G**", 
		 "properties": { 
			 "R2extent": 8563.3192, 
			 "electric_dipole_moment_norm": 2.5860291259, 
			 "electric_quadrupole_moment_norm": 10.9799899531, 
			 "total_energy": -1188.85127584, 
			 "HOMO_LUMO_gap": 0.19702, 
			 "cosmo_polarized_energy": -9.25, 
			 "cosmo_cavitation_energy": 35.43, 
			 "cosmo_dispersion_energy": -25.72, 
			 "cosmo_repulsion_energy": 1.99, 
			 "cosmo_total_nonelectrostatic_energy": 11.69, 
			 "SMD_solvation_energy": 5.63 
		},
		"coords": [
			{
				"x": -1.9244582687,
				"y": 2.7869885432,
				"z": 1.8389665723,
				"element": "O" 
			},
			{
				"x": -2.0109911449,
				"y": 2.0916992516,
				"z": 0.5959861869,
				"element": "C" 
			},
			{
				"x": -0.7704879802,
				"y": 1.2733818475,
				"z": 0.3650186239,
				"element": "C" 
			},
			{
				"x": -0.5168931913,
				"y": -0.0384357275,
				"z": 0.1270794725,
				"element": "C" 
			},
			{
				"x": 0.9168360529,
				"y": -0.1649269259,
				"z": 0.0081348659,
				"element": "C" 
			},
			{
				"x": 1.4266522145,
				"y": 1.1333583489,
				"z": 0.1956556189,
				"element": "C" 
			},
			{
				"x": 0.3979332718,
				"y": 2.0161551411,
				"z": 0.4087065912,
				"element": "O" 
			},
			{
				"x": 2.7796353638,
				"y": 1.445567516,
				"z": 0.1621752998,
				"element": "C" 
			},
			{
				"x": 3.6539560416,
				"y": 0.3847030559,
				"z": -0.0752345656,
				"element": "C" 
			},
			{
				"x": 3.1778705819,
				"y": -0.9256747096,
				"z": -0.2675115223,
				"element": "C" 
			},
			{
				"x": 1.8163727096,
				"y": -1.215278609,
				"z": -0.2288040191,
				"element": "C" 
			},
			{
				"x": -3.260060529,
				"y": 1.2325460707,
				"z": 0.5954597998,
				"element": "C" 
			},
			{
				"x": -3.778672529,
				"y": 0.7283822888,
				"z": 1.7920973061,
				"element": "C" 
			},
			{
				"x": -4.9132268135,
				"y": -0.0829680207,
				"z": 1.7895737294,
				"element": "C" 
			},
			{
				"x": -5.5252804041,
				"y": -0.393361987,
				"z": 0.5758502212,
				"element": "C" 
			},
			{
				"x": -6.9558503922,
				"y": -1.4169156596,
				"z": 0.564226848,
				"element": "Cl" 
			},
			{
				"x": -5.0264080699,
				"y": 0.0989704008,
				"z": -0.6297110374,
				"element": "C" 
			},
			{
				"x": -3.8952628537,
				"y": 0.914394907,
				"z": -0.6094435881,
				"element": "C" 
			},
			{
				"x": -1.0329788874,
				"y": 3.1572752364,
				"z": 1.8951548234,
				"element": "H" 
			},
			{
				"x": -2.0880464594,
				"y": 2.8214471679,
				"z": -0.2284342497,
				"element": "H" 
			},
			{
				"x": -1.2571317141,
				"y": -0.8205305004,
				"z": 0.0483804739,
				"element": "H" 
			},
			{
				"x": 3.1303288739,
				"y": 2.4609477922,
				"z": 0.3116839451,
				"element": "H" 
			},
			{
				"x": 4.7222348535,
				"y": 0.5750143923,
				"z": -0.1125457256,
				"element": "H" 
			},
			{
				"x": 3.8896233477,
				"y": -1.7253596926,
				"z": -0.4495132098,
				"element": "H" 
			},
			{
				"x": 1.4596486712,
				"y": -2.2300551861,
				"z": -0.3774312775,
				"element": "H" 
			},
			{
				"x": -3.2954108089,
				"y": 0.9890216714,
				"z": 2.726746938,
				"element": "H" 
			},
			{
				"x": -5.3198502541,
				"y": -0.4697820858,
				"z": 2.7175037111,
				"element": "H" 
			},
			{
				"x": -5.519262346,
				"y": -0.1453138651,
				"z": -1.5641100182,
				"element": "H" 
			},
			{
				"x": -3.5073193359,
				"y": 1.3073493377,
				"z": -1.5458618141,
				"element": "H" 
			}
		],
		 "valence_orbital": [ 
			{
				"type": "occ",
				"energy": -0.28621,
				"method": "rhf"
			},
			{
				"type": "occ",
				"energy": -0.26459,
				"method": "rhf"
			},
			{
				"type": "occ",
				"energy": -0.24499,
				"method": "rhf"
			},
			{
				"type": "occ",
				"energy": -0.24236,
				"method": "rhf"
			},
			{
				"type": "occ",
				"energy": -0.22496,
				"method": "rhf"
			},
			{
				"type": "unocc",
				"energy": -0.02794,
				"method": "rhf"
			},
			{
				"type": "unocc",
				"energy": -0.01761,
				"method": "rhf"
			},
			{
				"type": "unocc",
				"energy": -0.01315,
				"method": "rhf"
			},
			{
				"type": "unocc",
				"energy": 0.00777,
				"method": "rhf"
			},
			{
				"type": "unocc",
				"energy": 0.03013,
				"method": "rhf"
			}
		],
		"cosmo_sigma_profile": { 
			"-0.025": 0.0,
			"-0.024": 0.0,
			"-0.023": 0.0,
			"-0.022": 0.0,
			"-0.021": 0.0,
			"-0.02": 0.0,
			"-0.019": 0.0,
			"-0.018": 0.0,
			"-0.017": 0.0,
			"-0.016": 0.0,
			"-0.015": 0.177806209493,
			"-0.014": 0.676771497162,
			"-0.013": 0.38120505385,
			"-0.012": 0.709008502125,
			"-0.011": 0.535861895444,
			"-0.01": 0.999715856646,
			"-0.009": 0.96701511634,
			"-0.008": 1.28965469144,
			"-0.007": 9.20426428116,
			"-0.006": 17.3629801652,
			"-0.005": 20.4429179977,
			"-0.004": 19.4397477911,
			"-0.003": 15.8174033319,
			"-0.002": 15.2419954937,
			"-0.001": 17.8773620967,
			"0.0": 17.8978383117,
			"0.001": 24.3023192749,
			"0.002": 30.72432786,
			"0.003": 30.665633583,
			"0.004": 28.4699987979,
			"0.005": 18.5153074435,
			"0.006": 5.68868057167,
			"0.007": 2.14282759382,
			"0.008": 1.60021084443,
			"0.009": 1.32717458973,
			"0.01": 0.990495123555,
			"0.011": 1.31946368578,
			"0.012": 0.870956439461,
			"0.013": 0.753621279127,
			"0.014": 0.0541132503657,
			"0.015": 0.0,
			"0.016": 0.0,
			"0.017": 0.0,
			"0.018": 0.0,
			"0.019": 0.0,
			"0.02": 0.0,
			"0.021": 0.0,
			"0.022": 0.0,
			"0.023": 0.0,
			"0.024": 0.0,
			"0.025": 0.0
		}
	}
}
