{
	 "smiles": "CC(CC1=CC=CC=C1)N1C=CC=C1C(O)=O", 
	 "Tm": 352.15, 
	 "num_atms": 32, 
	 "gaussian": { 
		 "optdone": 1, 
		 "sigma_profile": "yes", 
		 "theory": "DFT", 
		 "functional": "B3LYP", 
		 "basiset": "6-31G**", 
		 "properties": { 
			 "R2extent": 5237.7458, 
			 "electric_dipole_moment_norm": 3.71681821589, 
			 "electric_quadrupole_moment_norm": 18.9778531186, 
			 "total_energy": -747.739215404, 
			 "HOMO_LUMO_gap": 0.20065, 
			 "cosmo_polarized_energy": -14.32, 
			 "cosmo_cavitation_energy": 34.75, 
			 "cosmo_dispersion_energy": -24.32, 
			 "cosmo_repulsion_energy": 1.86, 
			 "cosmo_total_nonelectrostatic_energy": 12.3, 
			 "SMD_solvation_energy": 7.12 
		},
		"coords": [
			{
				"x": -2.2180724226,
				"y": -0.4585491396,
				"z": -0.6049345385,
				"element": "C" 
			},
			{
				"x": -0.8018343041,
				"y": -0.8586062726,
				"z": -0.1800614467,
				"element": "C" 
			},
			{
				"x": 0.300124584,
				"y": 0.1536619889,
				"z": -0.5795142328,
				"element": "C" 
			},
			{
				"x": 0.1670786363,
				"y": 1.4748670162,
				"z": 0.1497243221,
				"element": "C" 
			},
			{
				"x": -0.3874074827,
				"y": 2.5958512358,
				"z": -0.4829499905,
				"element": "C" 
			},
			{
				"x": -0.5211381483,
				"y": 3.8087359653,
				"z": 0.195718887,
				"element": "C" 
			},
			{
				"x": -0.100569801,
				"y": 3.9206566466,
				"z": 1.521785858,
				"element": "C" 
			},
			{
				"x": 0.4572643782,
				"y": 2.8127115704,
				"z": 2.163476342,
				"element": "C" 
			},
			{
				"x": 0.5895615801,
				"y": 1.6031360627,
				"z": 1.4811659369,
				"element": "C" 
			},
			{
				"x": -0.4658284804,
				"y": -2.2367373561,
				"z": -0.6182569867,
				"element": "N" 
			},
			{
				"x": -0.3542063739,
				"y": -3.2585452096,
				"z": 0.2823512239,
				"element": "C" 
			},
			{
				"x": -0.0325690884,
				"y": -4.4335831469,
				"z": -0.3734234125,
				"element": "C" 
			},
			{
				"x": 0.0670738601,
				"y": -4.1119181278,
				"z": -1.7388552955,
				"element": "C" 
			},
			{
				"x": -0.1980182458,
				"y": -2.7479791154,
				"z": -1.8860247732,
				"element": "C" 
			},
			{
				"x": -0.2409296969,
				"y": -1.9916341621,
				"z": -3.1458761985,
				"element": "C" 
			},
			{
				"x": 0.3654421451,
				"y": -2.608034131,
				"z": -4.1994249424,
				"element": "O" 
			},
			{
				"x": -0.7667683431,
				"y": -0.9105123178,
				"z": -3.3237419545,
				"element": "O" 
			},
			{
				"x": -2.9437042815,
				"y": -1.1909749942,
				"z": -0.2382025289,
				"element": "H" 
			},
			{
				"x": -2.4664970838,
				"y": 0.51519477,
				"z": -0.174043994,
				"element": "H" 
			},
			{
				"x": -2.2902875635,
				"y": -0.3954537177,
				"z": -1.6910650131,
				"element": "H" 
			},
			{
				"x": -0.7852944089,
				"y": -0.9286052269,
				"z": 0.9129151389,
				"element": "H" 
			},
			{
				"x": 1.2700405239,
				"y": -0.299559218,
				"z": -0.3417914942,
				"element": "H" 
			},
			{
				"x": 0.2639463123,
				"y": 0.314303422,
				"z": -1.658259155,
				"element": "H" 
			},
			{
				"x": -0.7120006058,
				"y": 2.5157816011,
				"z": -1.5171949009,
				"element": "H" 
			},
			{
				"x": -0.9505749077,
				"y": 4.6667820115,
				"z": -0.3138954568,
				"element": "H" 
			},
			{
				"x": -0.2011746276,
				"y": 4.8645438826,
				"z": 2.0498507394,
				"element": "H" 
			},
			{
				"x": 0.7954714593,
				"y": 2.8924618956,
				"z": 3.1929552409,
				"element": "H" 
			},
			{
				"x": 1.0371028699,
				"y": 0.7486875534,
				"z": 1.9848201919,
				"element": "H" 
			},
			{
				"x": -0.5121471088,
				"y": -3.0725309607,
				"z": 1.3350406597,
				"element": "H" 
			},
			{
				"x": 0.1039295764,
				"y": -5.4025262464,
				"z": 0.0844240275,
				"element": "H" 
			},
			{
				"x": 0.2570981164,
				"y": -4.8110416771,
				"z": -2.5434599309,
				"element": "H" 
			},
			{
				"x": 0.8861889327,
				"y": -3.3596846021,
				"z": -3.8842523224,
				"element": "H" 
			}
		],
		 "valence_orbital": [ 
			{
				"type": "occ",
				"energy": -0.27093,
				"method": "rhf"
			},
			{
				"type": "occ",
				"energy": -0.25783,
				"method": "rhf"
			},
			{
				"type": "occ",
				"energy": -0.24945,
				"method": "rhf"
			},
			{
				"type": "occ",
				"energy": -0.2402,
				"method": "rhf"
			},
			{
				"type": "occ",
				"energy": -0.23185,
				"method": "rhf"
			},
			{
				"type": "unocc",
				"energy": -0.0312,
				"method": "rhf"
			},
			{
				"type": "unocc",
				"energy": -0.0032,
				"method": "rhf"
			},
			{
				"type": "unocc",
				"energy": -0.00071,
				"method": "rhf"
			},
			{
				"type": "unocc",
				"energy": 0.04717,
				"method": "rhf"
			},
			{
				"type": "unocc",
				"energy": 0.07238,
				"method": "rhf"
			}
		],
		"cosmo_sigma_profile": { 
			"-0.025": 0.0,
			"-0.024": 0.0,
			"-0.023": 0.0,
			"-0.022": 0.0,
			"-0.021": 0.0,
			"-0.02": 0.0,
			"-0.019": 0.0,
			"-0.018": 0.310183570598,
			"-0.017": 0.981967316409,
			"-0.016": 0.735092933481,
			"-0.015": 1.00224033728,
			"-0.014": 1.08857378967,
			"-0.013": 0.861916064173,
			"-0.012": 0.626534956899,
			"-0.011": 1.12656430648,
			"-0.01": 1.20883547458,
			"-0.009": 2.13122939731,
			"-0.008": 4.57853179037,
			"-0.007": 4.14974202734,
			"-0.006": 7.98179199813,
			"-0.005": 17.2812580558,
			"-0.004": 21.9637551004,
			"-0.003": 22.8364806342,
			"-0.002": 22.3655546872,
			"-0.001": 23.1844194255,
			"0.0": 22.7066875607,
			"0.001": 21.1293867441,
			"0.002": 16.3025186024,
			"0.003": 14.6301067876,
			"0.004": 14.5214828062,
			"0.005": 15.4833667056,
			"0.006": 14.202504532,
			"0.007": 4.17547256678,
			"0.008": 2.32345695444,
			"0.009": 2.72710054719,
			"0.01": 3.69522387876,
			"0.011": 3.80810259853,
			"0.012": 3.07350814594,
			"0.013": 2.25760516637,
			"0.014": 0.807054534498,
			"0.015": 0.0,
			"0.016": 0.0,
			"0.017": 0.0,
			"0.018": 0.0,
			"0.019": 0.0,
			"0.02": 0.0,
			"0.021": 0.0,
			"0.022": 0.0,
			"0.023": 0.0,
			"0.024": 0.0,
			"0.025": 0.0
		}
	}
}
