{
	 "smiles": "O=C1CCCCCCCCCCC1", 
	 "Tm": 333.65, 
	 "num_atms": 35, 
	 "gaussian": { 
		 "optdone": 1, 
		 "sigma_profile": "yes", 
		 "theory": "DFT", 
		 "functional": "B3LYP", 
		 "basiset": "6-31G**", 
		 "properties": { 
			 "R2extent": 3292.1964, 
			 "electric_dipole_moment_norm": 3.19023701314, 
			 "electric_quadrupole_moment_norm": 17.0727376888, 
			 "total_energy": -545.77040565, 
			 "HOMO_LUMO_gap": 0.22366, 
			 "cosmo_polarized_energy": -6.99, 
			 "cosmo_cavitation_energy": 31.78, 
			 "cosmo_dispersion_energy": -23.02, 
			 "cosmo_repulsion_energy": 1.81, 
			 "cosmo_total_nonelectrostatic_energy": 10.57, 
			 "SMD_solvation_energy": 4.52 
		},
		"coords": [
			{
				"x": 3.9708352482,
				"y": -0.9381443696,
				"z": -1.7567332573,
				"element": "O" 
			},
			{
				"x": 2.796234149,
				"y": -0.7468081003,
				"z": -1.5013969217,
				"element": "C" 
			},
			{
				"x": 2.1202419516,
				"y": -1.3982889319,
				"z": -0.298304273,
				"element": "C" 
			},
			{
				"x": 1.4762275541,
				"y": -2.7554968479,
				"z": -0.6701988416,
				"element": "C" 
			},
			{
				"x": 0.4611993267,
				"y": -3.2983477106,
				"z": 0.3559300176,
				"element": "C" 
			},
			{
				"x": -0.8531957512,
				"y": -2.4870014892,
				"z": 0.450804876,
				"element": "C" 
			},
			{
				"x": -0.8784015254,
				"y": -1.3728249029,
				"z": 1.5267158311,
				"element": "C" 
			},
			{
				"x": -1.7677252292,
				"y": -0.1460573112,
				"z": 1.2180864657,
				"element": "C" 
			},
			{
				"x": -1.0961477153,
				"y": 0.9724416511,
				"z": 0.3888838177,
				"element": "C" 
			},
			{
				"x": -1.0133688421,
				"y": 0.7447352122,
				"z": -1.1323482401,
				"element": "C" 
			},
			{
				"x": -0.0782293314,
				"y": 1.7256074456,
				"z": -1.8662407157,
				"element": "C" 
			},
			{
				"x": 1.4243604823,
				"y": 1.4331485101,
				"z": -1.6810995255,
				"element": "C" 
			},
			{
				"x": 1.9074442713,
				"y": 0.1289882698,
				"z": -2.3821890245,
				"element": "C" 
			},
			{
				"x": 2.8704382025,
				"y": -1.5473767656,
				"z": 0.4845669309,
				"element": "H" 
			},
			{
				"x": 1.354271707,
				"y": -0.7242213378,
				"z": 0.0881348334,
				"element": "H" 
			},
			{
				"x": 2.2794726888,
				"y": -3.4855840482,
				"z": -0.8218331101,
				"element": "H" 
			},
			{
				"x": 0.9622497163,
				"y": -2.6670322226,
				"z": -1.6374151487,
				"element": "H" 
			},
			{
				"x": 0.930192395,
				"y": -3.3723391579,
				"z": 1.346722829,
				"element": "H" 
			},
			{
				"x": 0.2221594158,
				"y": -4.3273440578,
				"z": 0.060662219,
				"element": "H" 
			},
			{
				"x": -1.6834976317,
				"y": -3.1734998212,
				"z": 0.6565361241,
				"element": "H" 
			},
			{
				"x": -1.0719229953,
				"y": -2.0683559238,
				"z": -0.5378442185,
				"element": "H" 
			},
			{
				"x": -1.2148026193,
				"y": -1.8234104225,
				"z": 2.4689622945,
				"element": "H" 
			},
			{
				"x": 0.1383773516,
				"y": -1.0176716809,
				"z": 1.7323479556,
				"element": "H" 
			},
			{
				"x": -2.6973097031,
				"y": -0.4698403411,
				"z": 0.7287047044,
				"element": "H" 
			},
			{
				"x": -2.0749349077,
				"y": 0.2958102095,
				"z": 2.1739310233,
				"element": "H" 
			},
			{
				"x": -0.0914256846,
				"y": 1.1435979148,
				"z": 0.799315509,
				"element": "H" 
			},
			{
				"x": -1.6415010726,
				"y": 1.9109737682,
				"z": 0.5561001224,
				"element": "H" 
			},
			{
				"x": -0.6890134742,
				"y": -0.2782834644,
				"z": -1.3480855821,
				"element": "H" 
			},
			{
				"x": -2.0246183445,
				"y": 0.8243884446,
				"z": -1.5517174415,
				"element": "H" 
			},
			{
				"x": -0.2881416902,
				"y": 2.7485383601,
				"z": -1.5257600999,
				"element": "H" 
			},
			{
				"x": -0.3075896022,
				"y": 1.709666037,
				"z": -2.9398133417,
				"element": "H" 
			},
			{
				"x": 1.6541315901,
				"y": 1.3956657217,
				"z": -0.6093462258,
				"element": "H" 
			},
			{
				"x": 2.00693534,
				"y": 2.2739300925,
				"z": -2.0715697554,
				"element": "H" 
			},
			{
				"x": 2.4659661763,
				"y": 0.3588510533,
				"z": -3.2927766676,
				"element": "H" 
			},
			{
				"x": 1.0361885534,
				"y": -0.4712137831,
				"z": -2.6760331628,
				"element": "H" 
			}
		],
		 "valence_orbital": [ 
			{
				"type": "occ",
				"energy": -0.32293,
				"method": "rhf"
			},
			{
				"type": "occ",
				"energy": -0.31576,
				"method": "rhf"
			},
			{
				"type": "occ",
				"energy": -0.3023,
				"method": "rhf"
			},
			{
				"type": "occ",
				"energy": -0.30109,
				"method": "rhf"
			},
			{
				"type": "occ",
				"energy": -0.23198,
				"method": "rhf"
			},
			{
				"type": "unocc",
				"energy": -0.00832,
				"method": "rhf"
			},
			{
				"type": "unocc",
				"energy": 0.07321,
				"method": "rhf"
			},
			{
				"type": "unocc",
				"energy": 0.07866,
				"method": "rhf"
			},
			{
				"type": "unocc",
				"energy": 0.09651,
				"method": "rhf"
			},
			{
				"type": "unocc",
				"energy": 0.1013,
				"method": "rhf"
			}
		],
		"cosmo_sigma_profile": { 
			"-0.025": 0.0,
			"-0.024": 0.0,
			"-0.023": 0.0,
			"-0.022": 0.0,
			"-0.021": 0.0,
			"-0.02": 0.0,
			"-0.019": 0.0,
			"-0.018": 0.0,
			"-0.017": 0.0,
			"-0.016": 0.0,
			"-0.015": 0.0,
			"-0.014": 0.0,
			"-0.013": 0.0,
			"-0.012": 0.0,
			"-0.011": 0.0,
			"-0.01": 0.0349495056981,
			"-0.009": 0.183430186123,
			"-0.008": 0.185127672635,
			"-0.007": 0.330936760733,
			"-0.006": 0.996404879393,
			"-0.005": 5.06543659081,
			"-0.004": 10.5806623399,
			"-0.003": 18.5415684284,
			"-0.002": 40.8104565044,
			"-0.001": 53.2744932678,
			"0.0": 51.5246886351,
			"0.001": 30.4381180473,
			"0.002": 7.72040789458,
			"0.003": 1.25290233166,
			"0.004": 1.80640126642,
			"0.005": 1.5050482311,
			"0.006": 1.6307329445,
			"0.007": 1.59093016702,
			"0.008": 1.54615858269,
			"0.009": 1.39968474079,
			"0.01": 1.78433597573,
			"0.011": 2.70318300116,
			"0.012": 4.11513576484,
			"0.013": 3.62829885807,
			"0.014": 1.34354498018,
			"0.015": 0.0,
			"0.016": 0.0,
			"0.017": 0.0,
			"0.018": 0.0,
			"0.019": 0.0,
			"0.02": 0.0,
			"0.021": 0.0,
			"0.022": 0.0,
			"0.023": 0.0,
			"0.024": 0.0,
			"0.025": 0.0
		}
	}
}
