{
	 "smiles": "CCC1=C(C)NC2=C1C=C(C=C2)N(C)C", 
	 "Tm": 373.15, 
	 "num_atms": 33, 
	 "gaussian": { 
		 "optdone": 1, 
		 "sigma_profile": "yes", 
		 "theory": "DFT", 
		 "functional": "B3LYP", 
		 "basiset": "6-31G**", 
		 "properties": { 
			 "R2extent": 3935.7107, 
			 "electric_dipole_moment_norm": 1.16521087362, 
			 "electric_quadrupole_moment_norm": 14.9821233231, 
			 "total_energy": -615.746634887, 
			 "HOMO_LUMO_gap": 0.17086, 
			 "cosmo_polarized_energy": -9.67, 
			 "cosmo_cavitation_energy": 34.26, 
			 "cosmo_dispersion_energy": -24.46, 
			 "cosmo_repulsion_energy": 1.92, 
			 "cosmo_total_nonelectrostatic_energy": 11.72, 
			 "SMD_solvation_energy": 4.77 
		},
		"coords": [
			{
				"x": -0.1088639942,
				"y": -3.6573123571,
				"z": -0.2121945088,
				"element": "C" 
			},
			{
				"x": 0.8217117021,
				"y": -2.8974350099,
				"z": 0.7520718993,
				"element": "C" 
			},
			{
				"x": 0.1952413348,
				"y": -1.67209899,
				"z": 1.3569566156,
				"element": "C" 
			},
			{
				"x": -0.3309180844,
				"y": -1.5339239848,
				"z": 2.6252708533,
				"element": "C" 
			},
			{
				"x": -0.4204844094,
				"y": -2.5076811145,
				"z": 3.7565032008,
				"element": "C" 
			},
			{
				"x": -0.8377373286,
				"y": -0.2503363113,
				"z": 2.7717746809,
				"element": "N" 
			},
			{
				"x": -0.6435301482,
				"y": 0.4599526152,
				"z": 1.6006333163,
				"element": "C" 
			},
			{
				"x": 0.0020313181,
				"y": -0.4072051887,
				"z": 0.6857005256,
				"element": "C" 
			},
			{
				"x": 0.3382259325,
				"y": 0.0591443633,
				"z": -0.5961210751,
				"element": "C" 
			},
			{
				"x": 0.0205852792,
				"y": 1.37483784,
				"z": -0.9719380167,
				"element": "C" 
			},
			{
				"x": -0.6188498199,
				"y": 2.21900876,
				"z": -0.0197514451,
				"element": "C" 
			},
			{
				"x": -0.9525648852,
				"y": 1.7745206569,
				"z": 1.2539980344,
				"element": "C" 
			},
			{
				"x": 0.3029819146,
				"y": 1.8535228897,
				"z": -2.2647108374,
				"element": "N" 
			},
			{
				"x": 0.3403242086,
				"y": 3.2904975741,
				"z": -2.4800946906,
				"element": "C" 
			},
			{
				"x": 1.1670092414,
				"y": 1.0530307511,
				"z": -3.1129216228,
				"element": "C" 
			},
			{
				"x": -0.4484760216,
				"y": -3.0063129161,
				"z": -1.0238683086,
				"element": "H" 
			},
			{
				"x": 0.4002407136,
				"y": -4.5193807334,
				"z": -0.6577831477,
				"element": "H" 
			},
			{
				"x": -0.9994503825,
				"y": -4.0203871275,
				"z": 0.3111425536,
				"element": "H" 
			},
			{
				"x": 1.1527737454,
				"y": -3.5803458332,
				"z": 1.5437280555,
				"element": "H" 
			},
			{
				"x": 1.7330842619,
				"y": -2.6067800519,
				"z": 0.2118382813,
				"element": "H" 
			},
			{
				"x": 0.0354346222,
				"y": -2.1081896958,
				"z": 4.6715275539,
				"element": "H" 
			},
			{
				"x": 0.0962072069,
				"y": -3.4368556901,
				"z": 3.5080990137,
				"element": "H" 
			},
			{
				"x": -1.4614622641,
				"y": -2.7621115878,
				"z": 3.9949193826,
				"element": "H" 
			},
			{
				"x": -1.259839839,
				"y": 0.1093119648,
				"z": 3.6118076257,
				"element": "H" 
			},
			{
				"x": 0.8449577308,
				"y": -0.6075964835,
				"z": -1.2825820391,
				"element": "H" 
			},
			{
				"x": -0.8613092809,
				"y": 3.2409753705,
				"z": -0.2814124484,
				"element": "H" 
			},
			{
				"x": -1.4384309314,
				"y": 2.4480270456,
				"z": 1.955202571,
				"element": "H" 
			},
			{
				"x": 1.072543239,
				"y": 3.8115741113,
				"z": -1.840426541,
				"element": "H" 
			},
			{
				"x": -0.6416986846,
				"y": 3.7418207815,
				"z": -2.3026878661,
				"element": "H" 
			},
			{
				"x": 0.5985191232,
				"y": 3.4865767931,
				"z": -3.5228942125,
				"element": "H" 
			},
			{
				"x": 2.1761633485,
				"y": 0.8989456851,
				"z": -2.6929952909,
				"element": "H" 
			},
			{
				"x": 1.2710966048,
				"y": 1.5438615589,
				"z": -4.0829206797,
				"element": "H" 
			},
			{
				"x": 0.7260845462,
				"y": 0.0665443148,
				"z": -3.2924714329,
				"element": "H" 
			}
		],
		 "valence_orbital": [ 
			{
				"type": "occ",
				"energy": -0.30792,
				"method": "rhf"
			},
			{
				"type": "occ",
				"energy": -0.25478,
				"method": "rhf"
			},
			{
				"type": "occ",
				"energy": -0.24406,
				"method": "rhf"
			},
			{
				"type": "occ",
				"energy": -0.18345,
				"method": "rhf"
			},
			{
				"type": "occ",
				"energy": -0.16477,
				"method": "rhf"
			},
			{
				"type": "unocc",
				"energy": 0.00609,
				"method": "rhf"
			},
			{
				"type": "unocc",
				"energy": 0.05206,
				"method": "rhf"
			},
			{
				"type": "unocc",
				"energy": 0.07661,
				"method": "rhf"
			},
			{
				"type": "unocc",
				"energy": 0.0872,
				"method": "rhf"
			},
			{
				"type": "unocc",
				"energy": 0.09445,
				"method": "rhf"
			}
		],
		"cosmo_sigma_profile": { 
			"-0.025": 0.0,
			"-0.024": 0.0,
			"-0.023": 0.0,
			"-0.022": 0.0,
			"-0.021": 0.0,
			"-0.02": 0.0,
			"-0.019": 0.0,
			"-0.018": 0.0,
			"-0.017": 0.0,
			"-0.016": 0.0,
			"-0.015": 0.271754648164,
			"-0.014": 1.2658102841,
			"-0.013": 1.32047010246,
			"-0.012": 1.10800960625,
			"-0.011": 0.725754079929,
			"-0.01": 1.14740077179,
			"-0.009": 1.4152614521,
			"-0.008": 1.42488401534,
			"-0.007": 1.39185989834,
			"-0.006": 3.09318699573,
			"-0.005": 11.1861222351,
			"-0.004": 19.8799767119,
			"-0.003": 22.0286595926,
			"-0.002": 33.7971490961,
			"-0.001": 38.100788245,
			"0.0": 31.7500415387,
			"0.001": 21.65522907,
			"0.002": 14.4867038208,
			"0.003": 8.34961091254,
			"0.004": 7.58523977926,
			"0.005": 8.39012618686,
			"0.006": 11.0355330468,
			"0.007": 12.689324916,
			"0.008": 11.2302908793,
			"0.009": 2.2589991041,
			"0.01": 0.648149539515,
			"0.011": 0.618644657025,
			"0.012": 0.0351986941272,
			"0.013": 0.0,
			"0.014": 0.0,
			"0.015": 0.0,
			"0.016": 0.0,
			"0.017": 0.0,
			"0.018": 0.0,
			"0.019": 0.0,
			"0.02": 0.0,
			"0.021": 0.0,
			"0.022": 0.0,
			"0.023": 0.0,
			"0.024": 0.0,
			"0.025": 0.0
		}
	}
}
