{
	 "smiles": "BrC1=C2NC=CC(=O)C2=CC=C1", 
	 "Tm": 447.15, 
	 "num_atms": 18, 
	 "gaussian": { 
		 "optdone": 1, 
		 "sigma_profile": "yes", 
		 "theory": "DFT", 
		 "functional": "B3LYP", 
		 "basiset": "6-31G**", 
		 "properties": { 
			 "R2extent": 3602.8124, 
			 "electric_dipole_moment_norm": 4.13155541292, 
			 "electric_quadrupole_moment_norm": 16.1879080316, 
			 "total_energy": -3047.96364081, 
			 "HOMO_LUMO_gap": 0.16985, 
			 "cosmo_polarized_energy": -14.32, 
			 "cosmo_cavitation_energy": 24.27, 
			 "cosmo_dispersion_energy": -18.8, 
			 "cosmo_repulsion_energy": 1.47, 
			 "cosmo_total_nonelectrostatic_energy": 6.93, 
			 "SMD_solvation_energy": 3.62 
		},
		"coords": [
			{
				"x": -3.4914452402,
				"y": -1.3577372154,
				"z": 1.1436776632,
				"element": "Br" 
			},
			{
				"x": -1.7504075655,
				"y": -1.7481208954,
				"z": 0.4397906611,
				"element": "C" 
			},
			{
				"x": -0.859961195,
				"y": -0.688856917,
				"z": 0.1674253796,
				"element": "C" 
			},
			{
				"x": -1.2016221081,
				"y": 0.6289074528,
				"z": 0.3918730928,
				"element": "N" 
			},
			{
				"x": -0.33361759,
				"y": 1.6530664719,
				"z": 0.1258832134,
				"element": "C" 
			},
			{
				"x": 0.9111373615,
				"y": 1.440716073,
				"z": -0.3725649807,
				"element": "C" 
			},
			{
				"x": 1.394710915,
				"y": 0.0950004515,
				"z": -0.6540679813,
				"element": "C" 
			},
			{
				"x": 2.515443532,
				"y": -0.1477768284,
				"z": -1.1065732731,
				"element": "O" 
			},
			{
				"x": 0.4198755308,
				"y": -0.9918992482,
				"z": -0.3509907455,
				"element": "C" 
			},
			{
				"x": 0.7732011099,
				"y": -2.3294623459,
				"z": -0.5814112405,
				"element": "C" 
			},
			{
				"x": -0.1154011685,
				"y": -3.35704402,
				"z": -0.3076253714,
				"element": "C" 
			},
			{
				"x": -1.3880520983,
				"y": -3.0634888301,
				"z": 0.2074121833,
				"element": "C" 
			},
			{
				"x": -2.1218255101,
				"y": 0.8205257372,
				"z": 0.762791882,
				"element": "H" 
			},
			{
				"x": -0.7152635803,
				"y": 2.6450800072,
				"z": 0.3432255656,
				"element": "H" 
			},
			{
				"x": 1.572761113,
				"y": 2.2748920258,
				"z": -0.5716001483,
				"element": "H" 
			},
			{
				"x": 1.7650462956,
				"y": -2.5151701271,
				"z": -0.9797722928,
				"element": "H" 
			},
			{
				"x": 0.1609582274,
				"y": -4.3910925123,
				"z": -0.4870148159,
				"element": "H" 
			},
			{
				"x": -2.0926380293,
				"y": -3.8580392795,
				"z": 0.4259412084,
				"element": "H" 
			}
		],
		 "valence_orbital": [ 
			{
				"type": "occ",
				"energy": -0.31287,
				"method": "rhf"
			},
			{
				"type": "occ",
				"energy": -0.27744,
				"method": "rhf"
			},
			{
				"type": "occ",
				"energy": -0.25661,
				"method": "rhf"
			},
			{
				"type": "occ",
				"energy": -0.23282,
				"method": "rhf"
			},
			{
				"type": "occ",
				"energy": -0.22136,
				"method": "rhf"
			},
			{
				"type": "unocc",
				"energy": -0.05151,
				"method": "rhf"
			},
			{
				"type": "unocc",
				"energy": -0.02572,
				"method": "rhf"
			},
			{
				"type": "unocc",
				"energy": -0.01156,
				"method": "rhf"
			},
			{
				"type": "unocc",
				"energy": 0.0072,
				"method": "rhf"
			},
			{
				"type": "unocc",
				"energy": 0.06547,
				"method": "rhf"
			}
		],
		"cosmo_sigma_profile": { 
			"-0.025": 0.0,
			"-0.024": 0.0,
			"-0.023": 0.0,
			"-0.022": 0.0,
			"-0.021": 0.0,
			"-0.02": 0.0,
			"-0.019": 0.0,
			"-0.018": 0.0,
			"-0.017": 0.0145097792124,
			"-0.016": 0.48492851579,
			"-0.015": 1.18684547965,
			"-0.014": 0.601245056107,
			"-0.013": 1.1656830801,
			"-0.012": 1.13738583581,
			"-0.011": 0.92407487578,
			"-0.01": 2.51923975302,
			"-0.009": 2.80466417168,
			"-0.008": 3.76062996,
			"-0.007": 6.65470552263,
			"-0.006": 9.2339171374,
			"-0.005": 11.1676605981,
			"-0.004": 9.80372298897,
			"-0.003": 9.63275332853,
			"-0.002": 10.7449902606,
			"-0.001": 15.1712372805,
			"0.0": 19.2643911065,
			"0.001": 19.5228522899,
			"0.002": 21.3664345317,
			"0.003": 19.817838632,
			"0.004": 8.15132998638,
			"0.005": 2.14986217014,
			"0.006": 1.71824057408,
			"0.007": 1.47700604095,
			"0.008": 1.44704759096,
			"0.009": 1.37109094341,
			"0.01": 1.98383283462,
			"0.011": 1.3028571809,
			"0.012": 1.54749956127,
			"0.013": 2.60175346591,
			"0.014": 5.37575457529,
			"0.015": 2.4502163867,
			"0.016": 0.44261289139,
			"0.017": 0.0,
			"0.018": 0.0,
			"0.019": 0.0,
			"0.02": 0.0,
			"0.021": 0.0,
			"0.022": 0.0,
			"0.023": 0.0,
			"0.024": 0.0,
			"0.025": 0.0
		}
	}
}
