{
	 "smiles": "CC1=C(CN2CCNCC2)N2C=CC=CC2=N1", 
	 "Tm": 437.15, 
	 "num_atms": 35, 
	 "gaussian": { 
		 "optdone": 1, 
		 "sigma_profile": "yes", 
		 "theory": "DFT", 
		 "functional": "B3LYP", 
		 "basiset": "6-31G**", 
		 "properties": { 
			 "R2extent": 4341.252, 
			 "electric_dipole_moment_norm": 1.68048714961, 
			 "electric_quadrupole_moment_norm": 13.7784224061, 
			 "total_energy": -725.208737305, 
			 "HOMO_LUMO_gap": 0.16614, 
			 "cosmo_polarized_energy": -13.53, 
			 "cosmo_cavitation_energy": 35.11, 
			 "cosmo_dispersion_energy": -25.0, 
			 "cosmo_repulsion_energy": 1.92, 
			 "cosmo_total_nonelectrostatic_energy": 12.03, 
			 "SMD_solvation_energy": -1.06 
		},
		"coords": [
			{
				"x": 0.3540186425,
				"y": 0.1805499811,
				"z": -3.7514261415,
				"element": "C" 
			},
			{
				"x": 0.7428138155,
				"y": 0.1515189809,
				"z": -2.3042209825,
				"element": "C" 
			},
			{
				"x": 0.0239609673,
				"y": 0.6422908196,
				"z": -1.2163264053,
				"element": "C" 
			},
			{
				"x": -1.3296033155,
				"y": 1.3072275825,
				"z": -1.1367986902,
				"element": "C" 
			},
			{
				"x": -2.5243440126,
				"y": 0.4798989462,
				"z": -0.9364996771,
				"element": "N" 
			},
			{
				"x": -2.7600521044,
				"y": -0.4960670151,
				"z": -2.0043353259,
				"element": "C" 
			},
			{
				"x": -3.8271416743,
				"y": -1.4993138206,
				"z": -1.5562566681,
				"element": "C" 
			},
			{
				"x": -3.4256134911,
				"y": -2.2829860422,
				"z": -0.3758205078,
				"element": "N" 
			},
			{
				"x": -2.5054812282,
				"y": -1.5624854213,
				"z": 0.5231579461,
				"element": "C" 
			},
			{
				"x": -2.7660650259,
				"y": -0.0569770138,
				"z": 0.4116795358,
				"element": "C" 
			},
			{
				"x": 0.8457965151,
				"y": 0.4016824036,
				"z": -0.1179420819,
				"element": "N" 
			},
			{
				"x": 0.7147165216,
				"y": 0.7133306847,
				"z": 1.2143671346,
				"element": "C" 
			},
			{
				"x": 1.7070902763,
				"y": 0.3757384383,
				"z": 2.0926619897,
				"element": "C" 
			},
			{
				"x": 2.8765913965,
				"y": -0.2939228253,
				"z": 1.6360187776,
				"element": "C" 
			},
			{
				"x": 3.022208878,
				"y": -0.5898107829,
				"z": 0.3022265652,
				"element": "C" 
			},
			{
				"x": 2.0043683415,
				"y": -0.2334089054,
				"z": -0.6121727446,
				"element": "C" 
			},
			{
				"x": 1.9410511881,
				"y": -0.3855693789,
				"z": -1.9299746407,
				"element": "N" 
			},
			{
				"x": -0.5342841389,
				"y": 0.7920959344,
				"z": -3.9273587475,
				"element": "H" 
			},
			{
				"x": 1.1777228599,
				"y": 0.5817357481,
				"z": -4.3499177364,
				"element": "H" 
			},
			{
				"x": 0.148540361,
				"y": -0.8291880005,
				"z": -4.1244047691,
				"element": "H" 
			},
			{
				"x": -1.475777046,
				"y": 1.8487503477,
				"z": -2.0797965614,
				"element": "H" 
			},
			{
				"x": -1.3221786123,
				"y": 2.0764163779,
				"z": -0.3542849537,
				"element": "H" 
			},
			{
				"x": -3.0849145621,
				"y": 0.0329431829,
				"z": -2.9124616098,
				"element": "H" 
			},
			{
				"x": -1.8450968144,
				"y": -1.0556608717,
				"z": -2.2687073104,
				"element": "H" 
			},
			{
				"x": -4.0568214077,
				"y": -2.189019124,
				"z": -2.3742409677,
				"element": "H" 
			},
			{
				"x": -4.7548702689,
				"y": -0.9539030687,
				"z": -1.3371833429,
				"element": "H" 
			},
			{
				"x": -2.9905778858,
				"y": -3.1484715945,
				"z": -0.6771056037,
				"element": "H" 
			},
			{
				"x": -1.4453013292,
				"y": -1.7544804704,
				"z": 0.291191974,
				"element": "H" 
			},
			{
				"x": -2.6721293335,
				"y": -1.8907309506,
				"z": 1.5582013669,
				"element": "H" 
			},
			{
				"x": -2.1493350081,
				"y": 0.4812043132,
				"z": 1.135320352,
				"element": "H" 
			},
			{
				"x": -3.8104061354,
				"y": 0.1324752964,
				"z": 0.6992426518,
				"element": "H" 
			},
			{
				"x": -0.1863539254,
				"y": 1.2344879489,
				"z": 1.5084116431,
				"element": "H" 
			},
			{
				"x": 1.5870353351,
				"y": 0.6289369376,
				"z": 3.1398480954,
				"element": "H" 
			},
			{
				"x": 3.652638571,
				"y": -0.562348067,
				"z": 2.3451987564,
				"element": "H" 
			},
			{
				"x": 3.9008936506,
				"y": -1.0875405708,
				"z": -0.0915913206,
				"element": "H" 
			}
		],
		 "valence_orbital": [ 
			{
				"type": "occ",
				"energy": -0.26316,
				"method": "rhf"
			},
			{
				"type": "occ",
				"energy": -0.23308,
				"method": "rhf"
			},
			{
				"type": "occ",
				"energy": -0.21295,
				"method": "rhf"
			},
			{
				"type": "occ",
				"energy": -0.20704,
				"method": "rhf"
			},
			{
				"type": "occ",
				"energy": -0.19701,
				"method": "rhf"
			},
			{
				"type": "unocc",
				"energy": -0.03087,
				"method": "rhf"
			},
			{
				"type": "unocc",
				"energy": 0.00587,
				"method": "rhf"
			},
			{
				"type": "unocc",
				"energy": 0.05451,
				"method": "rhf"
			},
			{
				"type": "unocc",
				"energy": 0.07682,
				"method": "rhf"
			},
			{
				"type": "unocc",
				"energy": 0.08626,
				"method": "rhf"
			}
		],
		"cosmo_sigma_profile": { 
			"-0.025": 0.0,
			"-0.024": 0.0,
			"-0.023": 0.0,
			"-0.022": 0.0,
			"-0.021": 0.0,
			"-0.02": 0.0,
			"-0.019": 0.0,
			"-0.018": 0.0,
			"-0.017": 0.0,
			"-0.016": 0.0,
			"-0.015": 0.0,
			"-0.014": 0.0,
			"-0.013": 0.0,
			"-0.012": 0.0,
			"-0.011": 0.0542948332856,
			"-0.01": 1.39953294619,
			"-0.009": 3.86963225918,
			"-0.008": 2.86304452598,
			"-0.007": 7.29018274829,
			"-0.006": 10.1704594058,
			"-0.005": 14.5406138527,
			"-0.004": 19.972351116,
			"-0.003": 23.1922188871,
			"-0.002": 33.1383623514,
			"-0.001": 34.0624945102,
			"0.0": 30.5323427306,
			"0.001": 17.4525476069,
			"0.002": 14.3454353248,
			"0.003": 14.8041390986,
			"0.004": 12.9345505971,
			"0.005": 4.89027219004,
			"0.006": 3.05356313265,
			"0.007": 3.30525300283,
			"0.008": 3.77803051946,
			"0.009": 2.25239299148,
			"0.01": 2.16518061172,
			"0.011": 2.50826769201,
			"0.012": 2.70256026812,
			"0.013": 1.49291994647,
			"0.014": 2.18798370106,
			"0.015": 1.80531840571,
			"0.016": 1.76091017197,
			"0.017": 1.41821418705,
			"0.018": 1.2264406503,
			"0.019": 0.649231821046,
			"0.02": 0.0,
			"0.021": 0.0,
			"0.022": 0.0,
			"0.023": 0.0,
			"0.024": 0.0,
			"0.025": 0.0
		}
	}
}
