{
	 "smiles": "CC1=NC=C(S1)C=CC(O)=O", 
	 "Tm": 468.15, 
	 "num_atms": 18, 
	 "gaussian": { 
		 "optdone": 1, 
		 "sigma_profile": "yes", 
		 "theory": "DFT", 
		 "functional": "B3LYP", 
		 "basiset": "6-31G**", 
		 "properties": { 
			 "R2extent": 3125.1609, 
			 "electric_dipole_moment_norm": 3.31147645319, 
			 "electric_quadrupole_moment_norm": 5.01305872896, 
			 "total_energy": -874.345773723, 
			 "HOMO_LUMO_gap": 0.15556, 
			 "cosmo_polarized_energy": -12.11, 
			 "cosmo_cavitation_energy": 25.2, 
			 "cosmo_dispersion_energy": -18.87, 
			 "cosmo_repulsion_energy": 1.48, 
			 "cosmo_total_nonelectrostatic_energy": 7.81, 
			 "SMD_solvation_energy": 4.05 
		},
		"coords": [
			{
				"x": -3.8675373516,
				"y": 1.3783419026,
				"z": -0.3841653335,
				"element": "C" 
			},
			{
				"x": -2.4262826457,
				"y": 1.0407053738,
				"z": -0.160616877,
				"element": "C" 
			},
			{
				"x": -1.430445229,
				"y": 1.6635313148,
				"z": -0.7362735753,
				"element": "N" 
			},
			{
				"x": -0.2254403232,
				"y": 1.1478812938,
				"z": -0.3503732553,
				"element": "C" 
			},
			{
				"x": -0.2523154425,
				"y": 0.0994250165,
				"z": 0.5449617865,
				"element": "C" 
			},
			{
				"x": -1.9288199295,
				"y": -0.251818541,
				"z": 0.9194055947,
				"element": "S" 
			},
			{
				"x": 0.8275041177,
				"y": -0.6575532891,
				"z": 1.1424085611,
				"element": "C" 
			},
			{
				"x": 2.1436492422,
				"y": -0.4624648308,
				"z": 0.9172194196,
				"element": "C" 
			},
			{
				"x": 3.2045479085,
				"y": -1.2598692804,
				"z": 1.5500374627,
				"element": "C" 
			},
			{
				"x": 2.7403142391,
				"y": -2.2231908874,
				"z": 2.3929817103,
				"element": "O" 
			},
			{
				"x": 4.3933435608,
				"y": -1.0919740074,
				"z": 1.3540497061,
				"element": "O" 
			},
			{
				"x": -4.4206282512,
				"y": 0.5277667698,
				"z": -0.7966233617,
				"element": "H" 
			},
			{
				"x": -3.9201781368,
				"y": 2.208911579,
				"z": -1.0901444501,
				"element": "H" 
			},
			{
				"x": -4.3605575382,
				"y": 1.6744187018,
				"z": 0.5479188233,
				"element": "H" 
			},
			{
				"x": 0.6825688668,
				"y": 1.5778706479,
				"z": -0.7576052604,
				"element": "H" 
			},
			{
				"x": 0.5465938151,
				"y": -1.4500923954,
				"z": 1.8309745466,
				"element": "H" 
			},
			{
				"x": 2.5136051367,
				"y": 0.3050238772,
				"z": 0.2460277502,
				"element": "H" 
			},
			{
				"x": 3.5312779606,
				"y": -2.6683132458,
				"z": 2.7376167522,
				"element": "H" 
			}
		],
		 "valence_orbital": [ 
			{
				"type": "occ",
				"energy": -0.31446,
				"method": "rhf"
			},
			{
				"type": "occ",
				"energy": -0.28634,
				"method": "rhf"
			},
			{
				"type": "occ",
				"energy": -0.28269,
				"method": "rhf"
			},
			{
				"type": "occ",
				"energy": -0.27345,
				"method": "rhf"
			},
			{
				"type": "occ",
				"energy": -0.23461,
				"method": "rhf"
			},
			{
				"type": "unocc",
				"energy": -0.07905,
				"method": "rhf"
			},
			{
				"type": "unocc",
				"energy": -0.00904,
				"method": "rhf"
			},
			{
				"type": "unocc",
				"energy": 0.00088,
				"method": "rhf"
			},
			{
				"type": "unocc",
				"energy": 0.04943,
				"method": "rhf"
			},
			{
				"type": "unocc",
				"energy": 0.07792,
				"method": "rhf"
			}
		],
		"cosmo_sigma_profile": { 
			"-0.025": 0.0,
			"-0.024": 0.0,
			"-0.023": 0.0,
			"-0.022": 0.0,
			"-0.021": 0.0,
			"-0.02": 0.0,
			"-0.019": 0.0,
			"-0.018": 0.438858981313,
			"-0.017": 0.905616740075,
			"-0.016": 0.926519682597,
			"-0.015": 0.690333631861,
			"-0.014": 1.08975578599,
			"-0.013": 0.347799074631,
			"-0.012": 0.74047235843,
			"-0.011": 0.456809321558,
			"-0.01": 0.818565935869,
			"-0.009": 2.62655629507,
			"-0.008": 4.89619248375,
			"-0.007": 5.80310614981,
			"-0.006": 10.0589452923,
			"-0.005": 11.9138606148,
			"-0.004": 11.5834214874,
			"-0.003": 12.3210645499,
			"-0.002": 14.2025305061,
			"-0.001": 17.4375818972,
			"0.0": 17.4756685175,
			"0.001": 21.7084158286,
			"0.002": 17.4294463796,
			"0.003": 9.29230449972,
			"0.004": 3.84245159287,
			"0.005": 4.29164642086,
			"0.006": 3.92596575912,
			"0.007": 4.21860696787,
			"0.008": 4.62124006897,
			"0.009": 2.53743264401,
			"0.01": 2.57277821554,
			"0.011": 3.44997591138,
			"0.012": 6.15161406077,
			"0.013": 3.364191638,
			"0.014": 1.14342272196,
			"0.015": 0.421081891407,
			"0.016": 0.0103234661658,
			"0.017": 0.0,
			"0.018": 0.0,
			"0.019": 0.0,
			"0.02": 0.0,
			"0.021": 0.0,
			"0.022": 0.0,
			"0.023": 0.0,
			"0.024": 0.0,
			"0.025": 0.0
		}
	}
}
