{
	 "smiles": "COC(=O)C1CCC2=C(C1)NN=C2", 
	 "Tm": 338.15, 
	 "num_atms": 25, 
	 "gaussian": { 
		 "optdone": 1, 
		 "sigma_profile": "yes", 
		 "theory": "DFT", 
		 "functional": "B3LYP", 
		 "basiset": "6-31G**", 
		 "properties": { 
			 "R2extent": 2816.2039, 
			 "electric_dipole_moment_norm": 3.41051019937, 
			 "electric_quadrupole_moment_norm": 10.6518798923, 
			 "total_energy": -610.13627438, 
			 "HOMO_LUMO_gap": 0.22662, 
			 "cosmo_polarized_energy": -13.71, 
			 "cosmo_cavitation_energy": 27.4, 
			 "cosmo_dispersion_energy": -20.11, 
			 "cosmo_repulsion_energy": 1.62, 
			 "cosmo_total_nonelectrostatic_energy": 8.9, 
			 "SMD_solvation_energy": 4.7 
		},
		"coords": [
			{
				"x": -2.1769251854,
				"y": -3.2443583096,
				"z": -0.5442549994,
				"element": "C" 
			},
			{
				"x": -1.1149821785,
				"y": -2.2817812464,
				"z": -0.4295671398,
				"element": "O" 
			},
			{
				"x": -0.8466231643,
				"y": -1.8645353899,
				"z": 0.828460822,
				"element": "C" 
			},
			{
				"x": -1.4445040012,
				"y": -2.2762882821,
				"z": 1.8001358696,
				"element": "O" 
			},
			{
				"x": 0.3255638275,
				"y": -0.8843397291,
				"z": 0.8709748192,
				"element": "C" 
			},
			{
				"x": 0.3937739453,
				"y": -0.1717459467,
				"z": 2.2391524393,
				"element": "C" 
			},
			{
				"x": -0.8179208864,
				"y": 0.7480781818,
				"z": 2.5058659296,
				"element": "C" 
			},
			{
				"x": -1.1565236173,
				"y": 1.5385554055,
				"z": 1.2732197039,
				"element": "C" 
			},
			{
				"x": -0.6469180182,
				"y": 1.2315454472,
				"z": 0.0239797488,
				"element": "C" 
			},
			{
				"x": 0.3154915485,
				"y": 0.1318584529,
				"z": -0.2991897343,
				"element": "C" 
			},
			{
				"x": -1.1771962511,
				"y": 2.140084168,
				"z": -0.8397355516,
				"element": "N" 
			},
			{
				"x": -2.0067128032,
				"y": 3.0243623043,
				"z": -0.2364783403,
				"element": "N" 
			},
			{
				"x": -1.9948667171,
				"y": 2.6580235884,
				"z": 1.0446551846,
				"element": "C" 
			},
			{
				"x": -3.1127455371,
				"y": -2.8301131117,
				"z": -0.1616633822,
				"element": "H" 
			},
			{
				"x": -1.9369392847,
				"y": -4.1502509103,
				"z": 0.0178564649,
				"element": "H" 
			},
			{
				"x": -2.2614048967,
				"y": -3.4643057333,
				"z": -1.6084253042,
				"element": "H" 
			},
			{
				"x": 1.2207337483,
				"y": -1.5117622539,
				"z": 0.7571564027,
				"element": "H" 
			},
			{
				"x": 0.4715475344,
				"y": -0.9188768764,
				"z": 3.0330257313,
				"element": "H" 
			},
			{
				"x": 1.3153834752,
				"y": 0.4227377325,
				"z": 2.2558558019,
				"element": "H" 
			},
			{
				"x": -0.5902705995,
				"y": 1.4116194058,
				"z": 3.3488296516,
				"element": "H" 
			},
			{
				"x": -1.6720544436,
				"y": 0.1344265545,
				"z": 2.8155219679,
				"element": "H" 
			},
			{
				"x": 1.330677784,
				"y": 0.5338329897,
				"z": -0.4219166197,
				"element": "H" 
			},
			{
				"x": 0.0583568339,
				"y": -0.3735662718,
				"z": -1.2345253767,
				"element": "H" 
			},
			{
				"x": -1.0262806095,
				"y": 2.2137744399,
				"z": -1.8335861833,
				"element": "H" 
			},
			{
				"x": -2.5886605032,
				"y": 3.2119253906,
				"z": 1.7607520945,
				"element": "H" 
			}
		],
		 "valence_orbital": [ 
			{
				"type": "occ",
				"energy": -0.30536,
				"method": "rhf"
			},
			{
				"type": "occ",
				"energy": -0.27583,
				"method": "rhf"
			},
			{
				"type": "occ",
				"energy": -0.27249,
				"method": "rhf"
			},
			{
				"type": "occ",
				"energy": -0.2425,
				"method": "rhf"
			},
			{
				"type": "occ",
				"energy": -0.22308,
				"method": "rhf"
			},
			{
				"type": "unocc",
				"energy": 0.00354,
				"method": "rhf"
			},
			{
				"type": "unocc",
				"energy": 0.03004,
				"method": "rhf"
			},
			{
				"type": "unocc",
				"energy": 0.07434,
				"method": "rhf"
			},
			{
				"type": "unocc",
				"energy": 0.08782,
				"method": "rhf"
			},
			{
				"type": "unocc",
				"energy": 0.09192,
				"method": "rhf"
			}
		],
		"cosmo_sigma_profile": { 
			"-0.025": 0.0,
			"-0.024": 0.0,
			"-0.023": 0.0,
			"-0.022": 0.0,
			"-0.021": 0.0,
			"-0.02": 0.0,
			"-0.019": 0.0,
			"-0.018": 0.0,
			"-0.017": 0.0,
			"-0.016": 0.859358136627,
			"-0.015": 1.20721979288,
			"-0.014": 1.32705983754,
			"-0.013": 0.970131716556,
			"-0.012": 0.929693054255,
			"-0.011": 0.979934737488,
			"-0.01": 1.21503406175,
			"-0.009": 1.27956602278,
			"-0.008": 0.835967105121,
			"-0.007": 2.24003475219,
			"-0.006": 10.5019902662,
			"-0.005": 15.5024226732,
			"-0.004": 20.3035030764,
			"-0.003": 24.1600915073,
			"-0.002": 19.8534857055,
			"-0.001": 16.7554516598,
			"0.0": 15.3158407676,
			"0.001": 11.2958754896,
			"0.002": 9.3892376962,
			"0.003": 7.06491233102,
			"0.004": 8.07423048324,
			"0.005": 8.09603867345,
			"0.006": 7.81533765999,
			"0.007": 4.95572048192,
			"0.008": 3.23786895408,
			"0.009": 3.12754532789,
			"0.01": 3.32904999715,
			"0.011": 3.8495832328,
			"0.012": 5.0278712165,
			"0.013": 1.69899625157,
			"0.014": 1.2365383613,
			"0.015": 1.23114271632,
			"0.016": 1.07313181375,
			"0.017": 0.641071571058,
			"0.018": 0.0180669189413,
			"0.019": 0.0,
			"0.02": 0.0,
			"0.021": 0.0,
			"0.022": 0.0,
			"0.023": 0.0,
			"0.024": 0.0,
			"0.025": 0.0
		}
	}
}
