{
	 "smiles": "OC(=O)C1=CC(=C(F)C=C1)[N+]([O-])=O", 
	 "Tm": 396.65, 
	 "num_atms": 17, 
	 "gaussian": { 
		 "optdone": 1, 
		 "sigma_profile": "yes", 
		 "theory": "DFT", 
		 "functional": "B3LYP", 
		 "basiset": "6-31G**", 
		 "properties": { 
			 "R2extent": 2717.6243, 
			 "electric_dipole_moment_norm": 2.01411706959, 
			 "electric_quadrupole_moment_norm": 22.0990525935, 
			 "total_energy": -724.529579879, 
			 "HOMO_LUMO_gap": 0.17986, 
			 "cosmo_polarized_energy": -17.24, 
			 "cosmo_cavitation_energy": 23.63, 
			 "cosmo_dispersion_energy": -17.29, 
			 "cosmo_repulsion_energy": 1.34, 
			 "cosmo_total_nonelectrostatic_energy": 7.67, 
			 "SMD_solvation_energy": 8.03 
		},
		"coords": [
			{
				"x": 0.7072076091,
				"y": -1.4688609625,
				"z": -2.7070131447,
				"element": "O" 
			},
			{
				"x": 1.1404969065,
				"y": -0.2345938924,
				"z": -2.3537836474,
				"element": "C" 
			},
			{
				"x": 2.001036446,
				"y": 0.3172280331,
				"z": -2.997151475,
				"element": "O" 
			},
			{
				"x": 0.5080531046,
				"y": 0.400495172,
				"z": -1.147984476,
				"element": "C" 
			},
			{
				"x": -0.7072105352,
				"y": -0.0170228436,
				"z": -0.6088832816,
				"element": "C" 
			},
			{
				"x": -1.2547149577,
				"y": 0.6319932849,
				"z": 0.4992552346,
				"element": "C" 
			},
			{
				"x": -0.5751035673,
				"y": 1.7149387705,
				"z": 1.0762121132,
				"element": "C" 
			},
			{
				"x": -1.0414538252,
				"y": 2.3604622785,
				"z": 2.1399025271,
				"element": "F" 
			},
			{
				"x": 0.6365062829,
				"y": 2.1444309933,
				"z": 0.5333940926,
				"element": "C" 
			},
			{
				"x": 1.1677135912,
				"y": 1.5006195846,
				"z": -0.5742517125,
				"element": "C" 
			},
			{
				"x": -2.5452905856,
				"y": 0.1436682514,
				"z": 1.0102515254,
				"element": "N" 
			},
			{
				"x": -3.0728573947,
				"y": 0.7584983118,
				"z": 1.9299334862,
				"element": "O" 
			},
			{
				"x": -3.0115937852,
				"y": -0.8611472514,
				"z": 0.4708173247,
				"element": "O" 
			},
			{
				"x": 0.1382729345,
				"y": -1.850603713,
				"z": -2.024594331,
				"element": "H" 
			},
			{
				"x": -1.2933346497,
				"y": -0.8273423986,
				"z": -1.0279587928,
				"element": "H" 
			},
			{
				"x": 1.1360599348,
				"y": 2.98677047,
				"z": 0.9988874421,
				"element": "H" 
			},
			{
				"x": 2.099812491,
				"y": 1.8316659115,
				"z": -1.0186328847,
				"element": "H" 
			}
		],
		 "valence_orbital": [ 
			{
				"type": "occ",
				"energy": -0.32651,
				"method": "rhf"
			},
			{
				"type": "occ",
				"energy": -0.31306,
				"method": "rhf"
			},
			{
				"type": "occ",
				"energy": -0.30892,
				"method": "rhf"
			},
			{
				"type": "occ",
				"energy": -0.29947,
				"method": "rhf"
			},
			{
				"type": "occ",
				"energy": -0.29025,
				"method": "rhf"
			},
			{
				"type": "unocc",
				"energy": -0.11039,
				"method": "rhf"
			},
			{
				"type": "unocc",
				"energy": -0.07612,
				"method": "rhf"
			},
			{
				"type": "unocc",
				"energy": -0.03323,
				"method": "rhf"
			},
			{
				"type": "unocc",
				"energy": 0.02776,
				"method": "rhf"
			},
			{
				"type": "unocc",
				"energy": 0.03577,
				"method": "rhf"
			}
		],
		"cosmo_sigma_profile": { 
			"-0.025": 0.0,
			"-0.024": 0.0,
			"-0.023": 0.0,
			"-0.022": 0.0,
			"-0.021": 0.070867806782,
			"-0.02": 0.703654923026,
			"-0.019": 0.924429019211,
			"-0.018": 1.20597611762,
			"-0.017": 0.987242837577,
			"-0.016": 0.82469222283,
			"-0.015": 1.21616747884,
			"-0.014": 1.19342675057,
			"-0.013": 0.406024197092,
			"-0.012": 1.15838325256,
			"-0.011": 0.894871923194,
			"-0.01": 1.37491311413,
			"-0.009": 4.24558649506,
			"-0.008": 6.19980684785,
			"-0.007": 7.29258065566,
			"-0.006": 6.82023777944,
			"-0.005": 8.82302575952,
			"-0.004": 12.6696496414,
			"-0.003": 15.9194786476,
			"-0.002": 13.0565323633,
			"-0.001": 12.0356830213,
			"0.0": 8.6503699649,
			"0.001": 5.62663489869,
			"0.002": 8.86506417684,
			"0.003": 6.98718650303,
			"0.004": 6.78384522616,
			"0.005": 5.00046326225,
			"0.006": 7.97421134555,
			"0.007": 12.8474866667,
			"0.008": 8.93827085514,
			"0.009": 7.33337352327,
			"0.01": 5.83954392943,
			"0.011": 5.10120352546,
			"0.012": 2.51950144753,
			"0.013": 0.360391408506,
			"0.014": 0.0,
			"0.015": 0.0,
			"0.016": 0.0,
			"0.017": 0.0,
			"0.018": 0.0,
			"0.019": 0.0,
			"0.02": 0.0,
			"0.021": 0.0,
			"0.022": 0.0,
			"0.023": 0.0,
			"0.024": 0.0,
			"0.025": 0.0
		}
	}
}
