{
	 "smiles": "NC1=CC=C(C=C1)N1CCCC1=O", 
	 "Tm": 399.15, 
	 "num_atms": 25, 
	 "gaussian": { 
		 "optdone": 1, 
		 "sigma_profile": "yes", 
		 "theory": "DFT", 
		 "functional": "B3LYP", 
		 "basiset": "6-31G**", 
		 "properties": { 
			 "R2extent": 3083.3903, 
			 "electric_dipole_moment_norm": 3.82750001568, 
			 "electric_quadrupole_moment_norm": 16.4678132024, 
			 "total_energy": -573.045712244, 
			 "HOMO_LUMO_gap": 0.18924, 
			 "cosmo_polarized_energy": -14.77, 
			 "cosmo_cavitation_energy": 27.47, 
			 "cosmo_dispersion_energy": -20.79, 
			 "cosmo_repulsion_energy": 1.64, 
			 "cosmo_total_nonelectrostatic_energy": 8.32, 
			 "SMD_solvation_energy": 4.5 
		},
		"coords": [
			{
				"x": -2.5598417734,
				"y": 3.1325616879,
				"z": 0.5583757575,
				"element": "N" 
			},
			{
				"x": -1.5945221316,
				"y": 2.2038960917,
				"z": 0.1505239346,
				"element": "C" 
			},
			{
				"x": -0.2802242827,
				"y": 2.2635309896,
				"z": 0.6337543965,
				"element": "C" 
			},
			{
				"x": 0.6610710243,
				"y": 1.3023774559,
				"z": 0.2724466843,
				"element": "C" 
			},
			{
				"x": 0.325644666,
				"y": 0.2467554134,
				"z": -0.5898780716,
				"element": "C" 
			},
			{
				"x": -0.9924945391,
				"y": 0.1829409226,
				"z": -1.0772010722,
				"element": "C" 
			},
			{
				"x": -1.9268814146,
				"y": 1.1434104403,
				"z": -0.7084394333,
				"element": "C" 
			},
			{
				"x": 1.3107497867,
				"y": -0.7075602466,
				"z": -0.9581237631,
				"element": "N" 
			},
			{
				"x": 2.7207639811,
				"y": -0.5174934784,
				"z": -0.6032249751,
				"element": "C" 
			},
			{
				"x": 3.4605280431,
				"y": -1.5903685616,
				"z": -1.4219308591,
				"element": "C" 
			},
			{
				"x": 2.4090956309,
				"y": -2.6893919128,
				"z": -1.6007619935,
				"element": "C" 
			},
			{
				"x": 1.0739391415,
				"y": -1.9502353812,
				"z": -1.5270711501,
				"element": "C" 
			},
			{
				"x": -0.0036318346,
				"y": -2.3957061513,
				"z": -1.89025954,
				"element": "O" 
			},
			{
				"x": -3.3338834771,
				"y": 3.24277137,
				"z": -0.0829543376,
				"element": "H" 
			},
			{
				"x": -2.1891912182,
				"y": 4.0291587803,
				"z": 0.843432962,
				"element": "H" 
			},
			{
				"x": 0.0105386803,
				"y": 3.0658064785,
				"z": 1.3076190928,
				"element": "H" 
			},
			{
				"x": 1.6618763412,
				"y": 1.3861304992,
				"z": 0.6802367638,
				"element": "H" 
			},
			{
				"x": -1.2751415994,
				"y": -0.6279028786,
				"z": -1.732901022,
				"element": "H" 
			},
			{
				"x": -2.9405095266,
				"y": 1.0675143112,
				"z": -1.0952232303,
				"element": "H" 
			},
			{
				"x": 3.0439989701,
				"y": 0.4971052356,
				"z": -0.8556586648,
				"element": "H" 
			},
			{
				"x": 2.8698230891,
				"y": -0.6565857536,
				"z": 0.4775396254,
				"element": "H" 
			},
			{
				"x": 4.3728300915,
				"y": -1.9272450814,
				"z": -0.9237562157,
				"element": "H" 
			},
			{
				"x": 3.7437510191,
				"y": -1.1788150334,
				"z": -2.3959221678,
				"element": "H" 
			},
			{
				"x": 2.4810196803,
				"y": -3.2444415783,
				"z": -2.5383343412,
				"element": "H" 
			},
			{
				"x": 2.4340916523,
				"y": -3.4215136189,
				"z": -0.7835883796,
				"element": "H" 
			}
		],
		 "valence_orbital": [ 
			{
				"type": "occ",
				"energy": -0.31494,
				"method": "rhf"
			},
			{
				"type": "occ",
				"energy": -0.25826,
				"method": "rhf"
			},
			{
				"type": "occ",
				"energy": -0.2434,
				"method": "rhf"
			},
			{
				"type": "occ",
				"energy": -0.23867,
				"method": "rhf"
			},
			{
				"type": "occ",
				"energy": -0.18392,
				"method": "rhf"
			},
			{
				"type": "unocc",
				"energy": 0.00532,
				"method": "rhf"
			},
			{
				"type": "unocc",
				"energy": 0.00651,
				"method": "rhf"
			},
			{
				"type": "unocc",
				"energy": 0.05522,
				"method": "rhf"
			},
			{
				"type": "unocc",
				"energy": 0.08395,
				"method": "rhf"
			},
			{
				"type": "unocc",
				"energy": 0.08569,
				"method": "rhf"
			}
		],
		"cosmo_sigma_profile": { 
			"-0.025": 0.0,
			"-0.024": 0.0,
			"-0.023": 0.0,
			"-0.022": 0.0,
			"-0.021": 0.0,
			"-0.02": 0.0,
			"-0.019": 0.0,
			"-0.018": 0.0,
			"-0.017": 0.0,
			"-0.016": 0.0,
			"-0.015": 0.0,
			"-0.014": 0.0,
			"-0.013": 0.0396413347247,
			"-0.012": 1.9559873659,
			"-0.011": 2.82189703968,
			"-0.01": 2.69057323333,
			"-0.009": 3.14413644537,
			"-0.008": 3.29691132206,
			"-0.007": 2.98429281316,
			"-0.006": 7.7522549247,
			"-0.005": 19.0145566126,
			"-0.004": 25.8716204467,
			"-0.003": 22.6973953681,
			"-0.002": 16.2978547874,
			"-0.001": 13.4187010369,
			"0.0": 9.98142906753,
			"0.001": 6.8136422474,
			"0.002": 8.25534198873,
			"0.003": 8.4653872808,
			"0.004": 9.26229506028,
			"0.005": 10.4264565594,
			"0.006": 13.0220424004,
			"0.007": 6.99292593978,
			"0.008": 2.3472893347,
			"0.009": 2.85442111628,
			"0.01": 2.6335299462,
			"0.011": 2.37896261032,
			"0.012": 3.23540518428,
			"0.013": 3.98683607635,
			"0.014": 3.15525120598,
			"0.015": 1.17525007099,
			"0.016": 0.0,
			"0.017": 0.0,
			"0.018": 0.0,
			"0.019": 0.0,
			"0.02": 0.0,
			"0.021": 0.0,
			"0.022": 0.0,
			"0.023": 0.0,
			"0.024": 0.0,
			"0.025": 0.0
		}
	}
}
