{
	 "smiles": "SC1=NN=C(S)NN1", 
	 "Tm": 465.15, 
	 "num_atms": 12, 
	 "gaussian": { 
		 "optdone": 1, 
		 "sigma_profile": "yes", 
		 "theory": "DFT", 
		 "functional": "B3LYP", 
		 "basiset": "6-31G**", 
		 "properties": { 
			 "R2extent": 1669.6168, 
			 "electric_dipole_moment_norm": 1.63118769306, 
			 "electric_quadrupole_moment_norm": 5.37404257426, 
			 "total_energy": -1093.90446548, 
			 "HOMO_LUMO_gap": 0.18985, 
			 "cosmo_polarized_energy": -13.9, 
			 "cosmo_cavitation_energy": 20.08, 
			 "cosmo_dispersion_energy": -16.32, 
			 "cosmo_repulsion_energy": 1.27, 
			 "cosmo_total_nonelectrostatic_energy": 5.03, 
			 "SMD_solvation_energy": 0.99 
		},
		"coords": [
			{
				"x": -2.7371250237,
				"y": 1.7497317455,
				"z": 1.2960178705,
				"element": "S" 
			},
			{
				"x": -1.3148536591,
				"y": 1.0707934348,
				"z": 0.4783145633,
				"element": "C" 
			},
			{
				"x": -0.2037267707,
				"y": 1.7109206295,
				"z": 0.3900768211,
				"element": "N" 
			},
			{
				"x": 0.7826210437,
				"y": 1.1463445606,
				"z": -0.4479837211,
				"element": "N" 
			},
			{
				"x": 0.7572623626,
				"y": -0.131814299,
				"z": -0.5814862899,
				"element": "C" 
			},
			{
				"x": 2.0529302232,
				"y": -1.0244386931,
				"z": -1.4042402612,
				"element": "S" 
			},
			{
				"x": -0.3034749478,
				"y": -0.9512694965,
				"z": -0.1549647039,
				"element": "N" 
			},
			{
				"x": -1.5146739117,
				"y": -0.2373922867,
				"z": 0.0015173511,
				"element": "N" 
			},
			{
				"x": -2.2816117358,
				"y": 3.0172571896,
				"z": 1.2672592897,
				"element": "H" 
			},
			{
				"x": 2.9448603669,
				"y": -0.0181920416,
				"z": -1.3213537005,
				"element": "H" 
			},
			{
				"x": -0.1035761654,
				"y": -1.5306029201,
				"z": 0.6572296688,
				"element": "H" 
			},
			{
				"x": -2.1017317821,
				"y": -0.311637823,
				"z": -0.826186888,
				"element": "H" 
			}
		],
		 "valence_orbital": [ 
			{
				"type": "occ",
				"energy": -0.30976,
				"method": "rhf"
			},
			{
				"type": "occ",
				"energy": -0.28988,
				"method": "rhf"
			},
			{
				"type": "occ",
				"energy": -0.28088,
				"method": "rhf"
			},
			{
				"type": "occ",
				"energy": -0.25272,
				"method": "rhf"
			},
			{
				"type": "occ",
				"energy": -0.22716,
				"method": "rhf"
			},
			{
				"type": "unocc",
				"energy": -0.03731,
				"method": "rhf"
			},
			{
				"type": "unocc",
				"energy": 0.00696,
				"method": "rhf"
			},
			{
				"type": "unocc",
				"energy": 0.00731,
				"method": "rhf"
			},
			{
				"type": "unocc",
				"energy": 0.03028,
				"method": "rhf"
			},
			{
				"type": "unocc",
				"energy": 0.05021,
				"method": "rhf"
			}
		],
		"cosmo_sigma_profile": { 
			"-0.025": 0.0,
			"-0.024": 0.0,
			"-0.023": 0.0,
			"-0.022": 0.0,
			"-0.021": 0.0,
			"-0.02": 0.0,
			"-0.019": 0.0,
			"-0.018": 0.0,
			"-0.017": 0.0,
			"-0.016": 0.0,
			"-0.015": 1.4359889109,
			"-0.014": 3.39957576991,
			"-0.013": 2.0842359588,
			"-0.012": 2.80783634995,
			"-0.011": 5.6686278777,
			"-0.01": 4.70042042526,
			"-0.009": 5.33460373274,
			"-0.008": 4.72324391364,
			"-0.007": 3.63544088275,
			"-0.006": 4.43032403327,
			"-0.005": 5.25880892996,
			"-0.004": 4.9883716655,
			"-0.003": 6.35289055084,
			"-0.002": 6.07834255358,
			"-0.001": 7.28367153546,
			"0.0": 8.91637514811,
			"0.001": 11.1883905918,
			"0.002": 13.1808115588,
			"0.003": 12.2972035145,
			"0.004": 12.2489675428,
			"0.005": 8.30176096121,
			"0.006": 7.80312229663,
			"0.007": 5.15992649993,
			"0.008": 2.88962741543,
			"0.009": 1.24476376798,
			"0.01": 2.06771488533,
			"0.011": 2.4047567305,
			"0.012": 1.94430529,
			"0.013": 3.61186591925,
			"0.014": 2.33446318658,
			"0.015": 1.48777212176,
			"0.016": 0.0971546121826,
			"0.017": 0.0,
			"0.018": 0.0,
			"0.019": 0.0,
			"0.02": 0.0,
			"0.021": 0.0,
			"0.022": 0.0,
			"0.023": 0.0,
			"0.024": 0.0,
			"0.025": 0.0
		}
	}
}
