{
	 "smiles": "CC(C)(C)[Si](C)(C)ON", 
	 "Tm": 337.15, 
	 "num_atms": 26, 
	 "gaussian": { 
		 "optdone": 1, 
		 "sigma_profile": "yes", 
		 "theory": "DFT", 
		 "functional": "B3LYP", 
		 "basiset": "6-31G**", 
		 "properties": { 
			 "R2extent": 1590.2818, 
			 "electric_dipole_moment_norm": 0.853437677865, 
			 "electric_quadrupole_moment_norm": 6.51816439421, 
			 "total_energy": -658.376152833, 
			 "HOMO_LUMO_gap": 0.30076, 
			 "cosmo_polarized_energy": -6.41, 
			 "cosmo_cavitation_energy": 28.25, 
			 "cosmo_dispersion_energy": -17.44, 
			 "cosmo_repulsion_energy": 1.52, 
			 "cosmo_total_nonelectrostatic_energy": 12.34, 
			 "SMD_solvation_energy": 6.74 
		},
		"coords": [
			{
				"x": 1.3170986485,
				"y": 1.5493346247,
				"z": 1.1064237102,
				"element": "C" 
			},
			{
				"x": -0.119037994,
				"y": 1.0025778826,
				"z": 0.9605022271,
				"element": "C" 
			},
			{
				"x": -0.5475328117,
				"y": 0.3583960993,
				"z": 2.2991531435,
				"element": "C" 
			},
			{
				"x": -1.0775650631,
				"y": 2.171797138,
				"z": 0.6459492334,
				"element": "C" 
			},
			{
				"x": -0.1649737273,
				"y": -0.3349449404,
				"z": -0.4167942741,
				"element": "Si" 
			},
			{
				"x": 0.7457720069,
				"y": -1.8967384517,
				"z": 0.1189030454,
				"element": "C" 
			},
			{
				"x": -1.9351348136,
				"y": -0.745753037,
				"z": -0.924673502,
				"element": "C" 
			},
			{
				"x": 0.7326381929,
				"y": 0.131845816,
				"z": -1.7860579446,
				"element": "O" 
			},
			{
				"x": 0.1557544352,
				"y": 1.3043470796,
				"z": -2.426031498,
				"element": "N" 
			},
			{
				"x": 1.3655053339,
				"y": 2.286414771,
				"z": 1.9200108592,
				"element": "H" 
			},
			{
				"x": 2.0372414431,
				"y": 0.7570475787,
				"z": 1.3410383444,
				"element": "H" 
			},
			{
				"x": 1.6588587149,
				"y": 2.0444960598,
				"z": 0.1916500062,
				"element": "H" 
			},
			{
				"x": 0.1345695075,
				"y": -0.439930546,
				"z": 2.6112992973,
				"element": "H" 
			},
			{
				"x": -1.557987982,
				"y": -0.065011425,
				"z": 2.2491204604,
				"element": "H" 
			},
			{
				"x": -0.5543423499,
				"y": 1.1126529349,
				"z": 3.0981007029,
				"element": "H" 
			},
			{
				"x": -0.833744436,
				"y": 2.6526164115,
				"z": -0.3055467907,
				"element": "H" 
			},
			{
				"x": -2.1196097955,
				"y": 1.8376191244,
				"z": 0.5887347215,
				"element": "H" 
			},
			{
				"x": -1.0225815365,
				"y": 2.9315070016,
				"z": 1.4386373006,
				"element": "H" 
			},
			{
				"x": 1.7603539456,
				"y": -1.6797775517,
				"z": 0.4678890467,
				"element": "H" 
			},
			{
				"x": 0.8274508313,
				"y": -2.5916820417,
				"z": -0.7233529825,
				"element": "H" 
			},
			{
				"x": 0.2158923656,
				"y": -2.4128081184,
				"z": 0.9265061704,
				"element": "H" 
			},
			{
				"x": -1.9473980474,
				"y": -1.5990469712,
				"z": -1.6116279904,
				"element": "H" 
			},
			{
				"x": -2.5555244115,
				"y": -1.0072792672,
				"z": -0.0601210816,
				"element": "H" 
			},
			{
				"x": -2.4056909374,
				"y": 0.1024373111,
				"z": -1.4306677058,
				"element": "H" 
			},
			{
				"x": 0.9550839212,
				"y": 1.9332719527,
				"z": -2.5180149464,
				"element": "H" 
			},
			{
				"x": -0.0350954408,
				"y": 0.9827105646,
				"z": -3.376729553,
				"element": "H" 
			}
		],
		 "valence_orbital": [ 
			{
				"type": "occ",
				"energy": -0.31795,
				"method": "rhf"
			},
			{
				"type": "occ",
				"energy": -0.30358,
				"method": "rhf"
			},
			{
				"type": "occ",
				"energy": -0.28426,
				"method": "rhf"
			},
			{
				"type": "occ",
				"energy": -0.25306,
				"method": "rhf"
			},
			{
				"type": "occ",
				"energy": -0.24002,
				"method": "rhf"
			},
			{
				"type": "unocc",
				"energy": 0.06074,
				"method": "rhf"
			},
			{
				"type": "unocc",
				"energy": 0.06799,
				"method": "rhf"
			},
			{
				"type": "unocc",
				"energy": 0.07845,
				"method": "rhf"
			},
			{
				"type": "unocc",
				"energy": 0.10668,
				"method": "rhf"
			},
			{
				"type": "unocc",
				"energy": 0.11773,
				"method": "rhf"
			}
		],
		"cosmo_sigma_profile": { 
			"-0.025": 0.0,
			"-0.024": 0.0,
			"-0.023": 0.0,
			"-0.022": 0.0,
			"-0.021": 0.0,
			"-0.02": 0.0,
			"-0.019": 0.0,
			"-0.018": 0.0,
			"-0.017": 0.0,
			"-0.016": 0.0,
			"-0.015": 0.0,
			"-0.014": 0.0,
			"-0.013": 0.0,
			"-0.012": 0.461861554381,
			"-0.011": 3.58573365742,
			"-0.01": 3.10853115862,
			"-0.009": 2.50275307229,
			"-0.008": 1.82171895477,
			"-0.007": 2.14908166184,
			"-0.006": 1.76690224117,
			"-0.005": 0.581715677949,
			"-0.004": 3.47152658662,
			"-0.003": 15.8042556619,
			"-0.002": 26.600563162,
			"-0.001": 33.2791591473,
			"0.0": 27.7031260013,
			"0.001": 32.0532807713,
			"0.002": 27.6569949573,
			"0.003": 9.22500861437,
			"0.004": 3.47113843046,
			"0.005": 1.46847575412,
			"0.006": 2.47551179028,
			"0.007": 2.16974155615,
			"0.008": 2.00193882298,
			"0.009": 1.53951586084,
			"0.01": 1.70512172007,
			"0.011": 2.14095786189,
			"0.012": 1.17345711678,
			"0.013": 1.01931098017,
			"0.014": 1.48496177941,
			"0.015": 0.295006191318,
			"0.016": 0.0,
			"0.017": 0.0,
			"0.018": 0.0,
			"0.019": 0.0,
			"0.02": 0.0,
			"0.021": 0.0,
			"0.022": 0.0,
			"0.023": 0.0,
			"0.024": 0.0,
			"0.025": 0.0
		}
	}
}
