{
	 "smiles": "CN(C)C1=NC2=C(O1)C=CC(=C2)C#N", 
	 "Tm": 477.15, 
	 "num_atms": 23, 
	 "gaussian": { 
		 "optdone": 1, 
		 "sigma_profile": "yes", 
		 "theory": "DFT", 
		 "functional": "B3LYP", 
		 "basiset": "6-31G**", 
		 "properties": { 
			 "R2extent": 4399.7292, 
			 "electric_dipole_moment_norm": 7.92622799445, 
			 "electric_quadrupole_moment_norm": 31.3166777619, 
			 "total_energy": -625.95206739, 
			 "HOMO_LUMO_gap": 0.18063, 
			 "cosmo_polarized_energy": -12.6, 
			 "cosmo_cavitation_energy": 28.37, 
			 "cosmo_dispersion_energy": -20.56, 
			 "cosmo_repulsion_energy": 1.61, 
			 "cosmo_total_nonelectrostatic_energy": 9.43, 
			 "SMD_solvation_energy": 4.9 
		},
		"coords": [
			{
				"x": 1.6572676878,
				"y": 1.4256776092,
				"z": -1.2978995967,
				"element": "C" 
			},
			{
				"x": 0.316627061,
				"y": 1.0213239049,
				"z": -1.6975875927,
				"element": "N" 
			},
			{
				"x": 0.0281132352,
				"y": 0.9620435868,
				"z": -3.1251324696,
				"element": "C" 
			},
			{
				"x": -0.5052772648,
				"y": 0.3595747229,
				"z": -0.8521414487,
				"element": "C" 
			},
			{
				"x": -1.6358868939,
				"y": -0.23102545,
				"z": -1.1368851622,
				"element": "N" 
			},
			{
				"x": -2.088497006,
				"y": -0.6919899098,
				"z": 0.094528862,
				"element": "C" 
			},
			{
				"x": -1.1596350795,
				"y": -0.349459128,
				"z": 1.0920862038,
				"element": "C" 
			},
			{
				"x": -0.1303096743,
				"y": 0.3306283862,
				"z": 0.4770540016,
				"element": "O" 
			},
			{
				"x": -1.2959067444,
				"y": -0.6625338787,
				"z": 2.4312354602,
				"element": "C" 
			},
			{
				"x": -2.4509445252,
				"y": -1.3675628381,
				"z": 2.7810869013,
				"element": "C" 
			},
			{
				"x": -3.4045666066,
				"y": -1.7265965375,
				"z": 1.8040202728,
				"element": "C" 
			},
			{
				"x": -3.2377467833,
				"y": -1.3943530315,
				"z": 0.4454222242,
				"element": "C" 
			},
			{
				"x": -4.574663623,
				"y": -2.4501348589,
				"z": 2.2110131708,
				"element": "C" 
			},
			{
				"x": -5.5224819662,
				"y": -3.0370042006,
				"z": 2.544464188,
				"element": "N" 
			},
			{
				"x": 1.9147520904,
				"y": 2.3565558354,
				"z": -1.8118217982,
				"element": "H" 
			},
			{
				"x": 1.6931078315,
				"y": 1.598323876,
				"z": -0.2234068338,
				"element": "H" 
			},
			{
				"x": 2.4075871571,
				"y": 0.6662156885,
				"z": -1.5602285553,
				"element": "H" 
			},
			{
				"x": 0.5954259354,
				"y": 0.1602955696,
				"z": -3.6175820296,
				"element": "H" 
			},
			{
				"x": -1.0357304506,
				"y": 0.7766806458,
				"z": -3.2667969498,
				"element": "H" 
			},
			{
				"x": 0.2989174302,
				"y": 1.9170036368,
				"z": -3.5855893705,
				"element": "H" 
			},
			{
				"x": -0.553958596,
				"y": -0.3786643993,
				"z": 3.1687942059,
				"element": "H" 
			},
			{
				"x": -2.623906212,
				"y": -1.645647379,
				"z": 3.8144384865,
				"element": "H" 
			},
			{
				"x": -3.9770870027,
				"y": -1.6756518506,
				"z": -0.2950721698,
				"element": "H" 
			}
		],
		 "valence_orbital": [ 
			{
				"type": "occ",
				"energy": -0.32144,
				"method": "rhf"
			},
			{
				"type": "occ",
				"energy": -0.29588,
				"method": "rhf"
			},
			{
				"type": "occ",
				"energy": -0.2893,
				"method": "rhf"
			},
			{
				"type": "occ",
				"energy": -0.25356,
				"method": "rhf"
			},
			{
				"type": "occ",
				"energy": -0.21662,
				"method": "rhf"
			},
			{
				"type": "unocc",
				"energy": -0.03599,
				"method": "rhf"
			},
			{
				"type": "unocc",
				"energy": -0.02079,
				"method": "rhf"
			},
			{
				"type": "unocc",
				"energy": 0.04074,
				"method": "rhf"
			},
			{
				"type": "unocc",
				"energy": 0.04667,
				"method": "rhf"
			},
			{
				"type": "unocc",
				"energy": 0.0753,
				"method": "rhf"
			}
		],
		"cosmo_sigma_profile": { 
			"-0.025": 0.0,
			"-0.024": 0.0,
			"-0.023": 0.0,
			"-0.022": 0.0,
			"-0.021": 0.0,
			"-0.02": 0.0,
			"-0.019": 0.0,
			"-0.018": 0.0,
			"-0.017": 0.0,
			"-0.016": 0.0,
			"-0.015": 0.0,
			"-0.014": 0.0,
			"-0.013": 0.0,
			"-0.012": 0.0,
			"-0.011": 0.0,
			"-0.01": 0.0,
			"-0.009": 0.155486578357,
			"-0.008": 4.60058552608,
			"-0.007": 5.64388241575,
			"-0.006": 12.2177577897,
			"-0.005": 17.7431735381,
			"-0.004": 20.7142271641,
			"-0.003": 23.3966730269,
			"-0.002": 21.293118446,
			"-0.001": 15.8275703064,
			"0.0": 17.0950642084,
			"0.001": 18.086681048,
			"0.002": 17.3482749772,
			"0.003": 10.1015902584,
			"0.004": 6.41276103221,
			"0.005": 4.25959608173,
			"0.006": 4.37751482521,
			"0.007": 3.42112264677,
			"0.008": 4.27450835005,
			"0.009": 4.95725943731,
			"0.01": 4.8878238455,
			"0.011": 4.31684234184,
			"0.012": 3.36710940942,
			"0.013": 2.71788689682,
			"0.014": 1.16461137361,
			"0.015": 0.118513602157,
			"0.016": 0.0,
			"0.017": 0.0,
			"0.018": 0.0,
			"0.019": 0.0,
			"0.02": 0.0,
			"0.021": 0.0,
			"0.022": 0.0,
			"0.023": 0.0,
			"0.024": 0.0,
			"0.025": 0.0
		}
	}
}
