{
	 "smiles": "COC(=O)CN1N=CC2=C1N=CNC2=O", 
	 "Tm": 486.15, 
	 "num_atms": 23, 
	 "gaussian": { 
		 "optdone": 1, 
		 "sigma_profile": "yes", 
		 "theory": "DFT", 
		 "functional": "B3LYP", 
		 "basiset": "6-31G**", 
		 "properties": { 
			 "R2extent": 3662.5016, 
			 "electric_dipole_moment_norm": 4.60708010566, 
			 "electric_quadrupole_moment_norm": 14.1441702334, 
			 "total_energy": -754.353164497, 
			 "HOMO_LUMO_gap": 0.19762, 
			 "cosmo_polarized_energy": -20.44, 
			 "cosmo_cavitation_energy": 29.02, 
			 "cosmo_dispersion_energy": -20.9, 
			 "cosmo_repulsion_energy": 1.65, 
			 "cosmo_total_nonelectrostatic_energy": 9.77, 
			 "SMD_solvation_energy": 5.46 
		},
		"coords": [
			{
				"x": -3.3941726695,
				"y": 2.7269775991,
				"z": -2.1263331417,
				"element": "C" 
			},
			{
				"x": -1.9586835546,
				"y": 2.6318142875,
				"z": -2.1850569399,
				"element": "O" 
			},
			{
				"x": -1.4013447051,
				"y": 1.7835578092,
				"z": -1.2997000983,
				"element": "C" 
			},
			{
				"x": -2.0104189003,
				"y": 1.1312947944,
				"z": -0.4872894238,
				"element": "O" 
			},
			{
				"x": 0.1132515241,
				"y": 1.7570220602,
				"z": -1.5090603838,
				"element": "C" 
			},
			{
				"x": 0.797061134,
				"y": 1.0684530654,
				"z": -0.4451357821,
				"element": "N" 
			},
			{
				"x": 1.1277381841,
				"y": 1.7283561268,
				"z": 0.7048081158,
				"element": "N" 
			},
			{
				"x": 1.6392997782,
				"y": 0.8107091453,
				"z": 1.5130927951,
				"element": "C" 
			},
			{
				"x": 1.6383044887,
				"y": -0.46797787,
				"z": 0.9033853466,
				"element": "C" 
			},
			{
				"x": 1.0748588889,
				"y": -0.2562637599,
				"z": -0.3617084461,
				"element": "C" 
			},
			{
				"x": 0.856480881,
				"y": -1.1755186522,
				"z": -1.3480266214,
				"element": "N" 
			},
			{
				"x": 1.2295196019,
				"y": -2.3734660418,
				"z": -1.003099081,
				"element": "C" 
			},
			{
				"x": 1.7841707202,
				"y": -2.7039280598,
				"z": 0.2011094011,
				"element": "N" 
			},
			{
				"x": 2.0527971278,
				"y": -1.7976317029,
				"z": 1.2762517942,
				"element": "C" 
			},
			{
				"x": 2.5600348907,
				"y": -2.2034976291,
				"z": 2.3085192071,
				"element": "O" 
			},
			{
				"x": -3.8504402252,
				"y": 1.7541206375,
				"z": -2.3245618817,
				"element": "H" 
			},
			{
				"x": -3.6724520974,
				"y": 3.4459406241,
				"z": -2.8962635518,
				"element": "H" 
			},
			{
				"x": -3.7130810652,
				"y": 3.0746268451,
				"z": -1.1409985892,
				"element": "H" 
			},
			{
				"x": 0.4952515695,
				"y": 2.7775117864,
				"z": -1.5738679735,
				"element": "H" 
			},
			{
				"x": 0.3236019083,
				"y": 1.2446359616,
				"z": -2.4522462472,
				"element": "H" 
			},
			{
				"x": 1.9936979694,
				"y": 1.0883035606,
				"z": 2.4958367549,
				"element": "H" 
			},
			{
				"x": 1.1037879073,
				"y": -3.1936718999,
				"z": -1.7058229802,
				"element": "H" 
			},
			{
				"x": 2.0425366431,
				"y": -3.6656686877,
				"z": 0.3864677268,
				"element": "H" 
			}
		],
		 "valence_orbital": [ 
			{
				"type": "occ",
				"energy": -0.29521,
				"method": "rhf"
			},
			{
				"type": "occ",
				"energy": -0.28831,
				"method": "rhf"
			},
			{
				"type": "occ",
				"energy": -0.26607,
				"method": "rhf"
			},
			{
				"type": "occ",
				"energy": -0.26256,
				"method": "rhf"
			},
			{
				"type": "occ",
				"energy": -0.23572,
				"method": "rhf"
			},
			{
				"type": "unocc",
				"energy": -0.0381,
				"method": "rhf"
			},
			{
				"type": "unocc",
				"energy": -0.01175,
				"method": "rhf"
			},
			{
				"type": "unocc",
				"energy": 0.00324,
				"method": "rhf"
			},
			{
				"type": "unocc",
				"energy": 0.03701,
				"method": "rhf"
			},
			{
				"type": "unocc",
				"energy": 0.06927,
				"method": "rhf"
			}
		],
		"cosmo_sigma_profile": { 
			"-0.025": 0.0,
			"-0.024": 0.0,
			"-0.023": 0.0,
			"-0.022": 0.0,
			"-0.021": 0.0,
			"-0.02": 0.0,
			"-0.019": 0.0,
			"-0.018": 0.0,
			"-0.017": 0.854043455136,
			"-0.016": 1.82857551483,
			"-0.015": 1.37895642193,
			"-0.014": 0.922994657038,
			"-0.013": 1.55977974377,
			"-0.012": 1.46709830377,
			"-0.011": 2.02526303567,
			"-0.01": 3.00091969826,
			"-0.009": 4.92310490756,
			"-0.008": 7.3578206067,
			"-0.007": 8.62865385537,
			"-0.006": 12.6276730572,
			"-0.005": 13.7392892513,
			"-0.004": 18.4728746076,
			"-0.003": 16.4947914615,
			"-0.002": 14.2674848797,
			"-0.001": 13.0867447039,
			"0.0": 12.3766217527,
			"0.001": 10.3640302856,
			"0.002": 9.95648363631,
			"0.003": 8.2992352909,
			"0.004": 8.06587060841,
			"0.005": 7.09746905635,
			"0.006": 6.96864527722,
			"0.007": 6.97723314254,
			"0.008": 5.76513803063,
			"0.009": 5.27205412468,
			"0.01": 6.59779035449,
			"0.011": 7.87688315308,
			"0.012": 6.91453752516,
			"0.013": 6.13371944629,
			"0.014": 1.16090964828,
			"0.015": 0.043113713127,
			"0.016": 0.0,
			"0.017": 0.0,
			"0.018": 0.0,
			"0.019": 0.0,
			"0.02": 0.0,
			"0.021": 0.0,
			"0.022": 0.0,
			"0.023": 0.0,
			"0.024": 0.0,
			"0.025": 0.0
		}
	}
}
