{
	 "smiles": "ClC1=CC=C2N=C(C=O)N=C(C3=CC=CC=C3Cl)C2=C1", 
	 "Tm": 433.15, 
	 "num_atms": 28, 
	 "gaussian": { 
		 "optdone": 1, 
		 "sigma_profile": "yes", 
		 "theory": "DFT", 
		 "functional": "B3LYP", 
		 "basiset": "6-31G**", 
		 "properties": { 
			 "R2extent": 7042.208, 
			 "electric_dipole_moment_norm": 3.74219248703, 
			 "electric_quadrupole_moment_norm": 19.9940786799, 
			 "total_energy": -1681.51875648, 
			 "HOMO_LUMO_gap": 0.16026, 
			 "cosmo_polarized_energy": -13.39, 
			 "cosmo_cavitation_energy": 37.34, 
			 "cosmo_dispersion_energy": -26.23, 
			 "cosmo_repulsion_energy": 2.02, 
			 "cosmo_total_nonelectrostatic_energy": 13.14, 
			 "SMD_solvation_energy": 3.98 
		},
		"coords": [
			{
				"x": 4.9705490065,
				"y": -0.977734507,
				"z": 1.206488075,
				"element": "Cl" 
			},
			{
				"x": 3.8773260589,
				"y": -0.0884327061,
				"z": 0.1649578634,
				"element": "C" 
			},
			{
				"x": 4.4273482713,
				"y": 0.8386580415,
				"z": -0.7545122119,
				"element": "C" 
			},
			{
				"x": 3.591893036,
				"y": 1.5646040222,
				"z": -1.5700195848,
				"element": "C" 
			},
			{
				"x": 2.1857368798,
				"y": 1.3861564754,
				"z": -1.495788611,
				"element": "C" 
			},
			{
				"x": 1.3792898823,
				"y": 2.1488297748,
				"z": -2.2827126018,
				"element": "N" 
			},
			{
				"x": 0.0798291364,
				"y": 1.9734388081,
				"z": -2.1381591964,
				"element": "C" 
			},
			{
				"x": -0.7816289014,
				"y": 2.8660995514,
				"z": -2.9870387551,
				"element": "C" 
			},
			{
				"x": -1.9909558528,
				"y": 2.8774479474,
				"z": -2.9618145805,
				"element": "O" 
			},
			{
				"x": -0.5437312543,
				"y": 1.0849475424,
				"z": -1.3187887851,
				"element": "N" 
			},
			{
				"x": 0.2169981365,
				"y": 0.3027346769,
				"z": -0.5770827409,
				"element": "C" 
			},
			{
				"x": -0.4998618384,
				"y": -0.6556206077,
				"z": 0.3180671137,
				"element": "C" 
			},
			{
				"x": -1.3753313465,
				"y": -0.1305828426,
				"z": 1.2822509549,
				"element": "C" 
			},
			{
				"x": -2.0810409089,
				"y": -0.9612244612,
				"z": 2.1477560572,
				"element": "C" 
			},
			{
				"x": -1.935460834,
				"y": -2.3461248546,
				"z": 2.0514528436,
				"element": "C" 
			},
			{
				"x": -1.096302323,
				"y": -2.8946170825,
				"z": 1.0834621713,
				"element": "C" 
			},
			{
				"x": -0.388502255,
				"y": -2.0516902199,
				"z": 0.2254104299,
				"element": "C" 
			},
			{
				"x": 0.5976876632,
				"y": -2.7974012285,
				"z": -1.0274567084,
				"element": "Cl" 
			},
			{
				"x": 1.6475349057,
				"y": 0.4279827023,
				"z": -0.5843420785,
				"element": "C" 
			},
			{
				"x": 2.5200736941,
				"y": -0.3008797346,
				"z": 0.2590531097,
				"element": "C" 
			},
			{
				"x": 5.5028794564,
				"y": 0.9698676978,
				"z": -0.7972529529,
				"element": "H" 
			},
			{
				"x": 3.9771211963,
				"y": 2.2924095319,
				"z": -2.2758747357,
				"element": "H" 
			},
			{
				"x": -0.1851539245,
				"y": 3.5300725502,
				"z": -3.6457690793,
				"element": "H" 
			},
			{
				"x": -1.4936061897,
				"y": 0.9466799393,
				"z": 1.3358960593,
				"element": "H" 
			},
			{
				"x": -2.7459608308,
				"y": -0.5296828945,
				"z": 2.8891075157,
				"element": "H" 
			},
			{
				"x": -2.4830563219,
				"y": -3.0043233406,
				"z": 2.7190765696,
				"element": "H" 
			},
			{
				"x": -0.9944567876,
				"y": -3.9688677735,
				"z": 0.9777768362,
				"element": "H" 
			},
			{
				"x": 2.1241822455,
				"y": -1.0130470085,
				"z": 0.9722570227,
				"element": "H" 
			}
		],
		 "valence_orbital": [ 
			{
				"type": "occ",
				"energy": -0.27741,
				"method": "rhf"
			},
			{
				"type": "occ",
				"energy": -0.26729,
				"method": "rhf"
			},
			{
				"type": "occ",
				"energy": -0.26064,
				"method": "rhf"
			},
			{
				"type": "occ",
				"energy": -0.25781,
				"method": "rhf"
			},
			{
				"type": "occ",
				"energy": -0.25482,
				"method": "rhf"
			},
			{
				"type": "unocc",
				"energy": -0.09456,
				"method": "rhf"
			},
			{
				"type": "unocc",
				"energy": -0.07309,
				"method": "rhf"
			},
			{
				"type": "unocc",
				"energy": -0.03215,
				"method": "rhf"
			},
			{
				"type": "unocc",
				"energy": -0.02591,
				"method": "rhf"
			},
			{
				"type": "unocc",
				"energy": -0.01179,
				"method": "rhf"
			}
		],
		"cosmo_sigma_profile": { 
			"-0.025": 0.0,
			"-0.024": 0.0,
			"-0.023": 0.0,
			"-0.022": 0.0,
			"-0.021": 0.0,
			"-0.02": 0.0,
			"-0.019": 0.0,
			"-0.018": 0.0,
			"-0.017": 0.0,
			"-0.016": 0.0,
			"-0.015": 0.0,
			"-0.014": 0.0,
			"-0.013": 0.0,
			"-0.012": 0.0,
			"-0.011": 0.0,
			"-0.01": 0.0,
			"-0.009": 0.88283930764,
			"-0.008": 4.11892073505,
			"-0.007": 13.9950970659,
			"-0.006": 16.8410770322,
			"-0.005": 21.5777474382,
			"-0.004": 18.4558148282,
			"-0.003": 18.2235879221,
			"-0.002": 22.7889619009,
			"-0.001": 26.2309975203,
			"0.0": 31.5488490565,
			"0.001": 26.6849623078,
			"0.002": 24.24040418,
			"0.003": 27.3166581408,
			"0.004": 18.9945309272,
			"0.005": 4.5672467547,
			"0.006": 3.3809561057,
			"0.007": 2.78690919439,
			"0.008": 3.74455674139,
			"0.009": 3.72579393517,
			"0.01": 5.85727715959,
			"0.011": 4.89253826281,
			"0.012": 1.97710450883,
			"0.013": 1.44880546139,
			"0.014": 1.33896436847,
			"0.015": 0.802649509526,
			"0.016": 0.197051554275,
			"0.017": 0.0,
			"0.018": 0.0,
			"0.019": 0.0,
			"0.02": 0.0,
			"0.021": 0.0,
			"0.022": 0.0,
			"0.023": 0.0,
			"0.024": 0.0,
			"0.025": 0.0
		}
	}
}
