{
	 "smiles": "NC(=O)NC1=CC=CC(O)=C1", 
	 "Tm": 456.15, 
	 "num_atms": 19, 
	 "gaussian": { 
		 "optdone": 1, 
		 "sigma_profile": "yes", 
		 "theory": "DFT", 
		 "functional": "B3LYP", 
		 "basiset": "6-31G**", 
		 "properties": { 
			 "R2extent": 2901.4909, 
			 "electric_dipole_moment_norm": 2.48576909024, 
			 "electric_quadrupole_moment_norm": 20.2671446795, 
			 "total_energy": -531.539414416, 
			 "HOMO_LUMO_gap": 0.20661, 
			 "cosmo_polarized_energy": -17.79, 
			 "cosmo_cavitation_energy": 23.39, 
			 "cosmo_dispersion_energy": -17.48, 
			 "cosmo_repulsion_energy": 1.42, 
			 "cosmo_total_nonelectrostatic_energy": 7.34, 
			 "SMD_solvation_energy": 5.4 
		},
		"coords": [
			{
				"x": -3.1783393079,
				"y": -1.2663665329,
				"z": -1.2422852906,
				"element": "N" 
			},
			{
				"x": -2.4123282459,
				"y": -1.3250645409,
				"z": -2.3939035356,
				"element": "C" 
			},
			{
				"x": -2.9006931823,
				"y": -1.3580813692,
				"z": -3.514279902,
				"element": "O" 
			},
			{
				"x": -1.0328050261,
				"y": -1.3657821294,
				"z": -2.2216739571,
				"element": "N" 
			},
			{
				"x": -0.2349327876,
				"y": -1.4172048575,
				"z": -1.061734369,
				"element": "C" 
			},
			{
				"x": 1.0140666356,
				"y": -0.7782008774,
				"z": -1.0800092701,
				"element": "C" 
			},
			{
				"x": 1.8428496314,
				"y": -0.8468379545,
				"z": 0.0389458139,
				"element": "C" 
			},
			{
				"x": 1.4511945372,
				"y": -1.5279379383,
				"z": 1.1886530592,
				"element": "C" 
			},
			{
				"x": 0.2085746895,
				"y": -2.1699173714,
				"z": 1.2010833003,
				"element": "C" 
			},
			{
				"x": -0.1353122228,
				"y": -2.8469970202,
				"z": 2.3355232843,
				"element": "O" 
			},
			{
				"x": -0.630492448,
				"y": -2.128298405,
				"z": 0.0827267064,
				"element": "C" 
			},
			{
				"x": -4.1389988319,
				"y": -1.0253405742,
				"z": -1.4407064575,
				"element": "H" 
			},
			{
				"x": -2.7797259897,
				"y": -0.8228385621,
				"z": -0.425868591,
				"element": "H" 
			},
			{
				"x": -0.5531622721,
				"y": -1.26870454,
				"z": -3.1054282182,
				"element": "H" 
			},
			{
				"x": 1.3212638447,
				"y": -0.2249352707,
				"z": -1.9623729894,
				"element": "H" 
			},
			{
				"x": 2.8080025838,
				"y": -0.3491497611,
				"z": 0.0169226891,
				"element": "H" 
			},
			{
				"x": 2.0839919288,
				"y": -1.5805569764,
				"z": 2.0673910793,
				"element": "H" 
			},
			{
				"x": -0.9952907441,
				"y": -3.2682392647,
				"z": 2.2079292153,
				"element": "H" 
			},
			{
				"x": -1.5679627927,
				"y": -2.6758460541,
				"z": 0.0835874324,
				"element": "H" 
			}
		],
		 "valence_orbital": [ 
			{
				"type": "occ",
				"energy": -0.29687,
				"method": "rhf"
			},
			{
				"type": "occ",
				"energy": -0.2766,
				"method": "rhf"
			},
			{
				"type": "occ",
				"energy": -0.25844,
				"method": "rhf"
			},
			{
				"type": "occ",
				"energy": -0.24095,
				"method": "rhf"
			},
			{
				"type": "occ",
				"energy": -0.21799,
				"method": "rhf"
			},
			{
				"type": "unocc",
				"energy": -0.01138,
				"method": "rhf"
			},
			{
				"type": "unocc",
				"energy": 0.00105,
				"method": "rhf"
			},
			{
				"type": "unocc",
				"energy": 0.06193,
				"method": "rhf"
			},
			{
				"type": "unocc",
				"energy": 0.06457,
				"method": "rhf"
			},
			{
				"type": "unocc",
				"energy": 0.0866,
				"method": "rhf"
			}
		],
		"cosmo_sigma_profile": { 
			"-0.025": 0.0,
			"-0.024": 0.0,
			"-0.023": 0.0,
			"-0.022": 0.0,
			"-0.021": 0.0,
			"-0.02": 0.0,
			"-0.019": 0.0,
			"-0.018": 0.386218263663,
			"-0.017": 1.00468673918,
			"-0.016": 1.4574957533,
			"-0.015": 1.10383685692,
			"-0.014": 2.13927297108,
			"-0.013": 2.66388983625,
			"-0.012": 4.21744882769,
			"-0.011": 3.41185446993,
			"-0.01": 5.4995551543,
			"-0.009": 4.13685920262,
			"-0.008": 3.46544765384,
			"-0.007": 4.81612196117,
			"-0.006": 7.92075381408,
			"-0.005": 9.25782990405,
			"-0.004": 8.12891806905,
			"-0.003": 9.27970092911,
			"-0.002": 8.23702708592,
			"-0.001": 7.5649592486,
			"0.0": 8.69266806472,
			"0.001": 8.35958015022,
			"0.002": 10.499618491,
			"0.003": 11.3773014466,
			"0.004": 13.2367783685,
			"0.005": 13.0239097368,
			"0.006": 6.86850282017,
			"0.007": 2.90658883544,
			"0.008": 2.90949313672,
			"0.009": 3.20651907172,
			"0.01": 2.98608801977,
			"0.011": 3.41273611832,
			"0.012": 2.27057889677,
			"0.013": 2.86584870345,
			"0.014": 6.6249801185,
			"0.015": 1.66525863257,
			"0.016": 0.0,
			"0.017": 0.0,
			"0.018": 0.0,
			"0.019": 0.0,
			"0.02": 0.0,
			"0.021": 0.0,
			"0.022": 0.0,
			"0.023": 0.0,
			"0.024": 0.0,
			"0.025": 0.0
		}
	}
}
