{
	 "smiles": "CCOC(=O)C1=C(C)NC(C)=C(C1C1=CC=CO1)C(=O)OCC", 
	 "Tm": 437.15, 
	 "num_atms": 44, 
	 "gaussian": { 
		 "optdone": 1, 
		 "sigma_profile": "yes", 
		 "theory": "DFT", 
		 "functional": "B3LYP", 
		 "basiset": "6-31G**", 
		 "properties": { 
			 "R2extent": 8544.2126, 
			 "electric_dipole_moment_norm": 5.75970343507, 
			 "electric_quadrupole_moment_norm": 9.32030851313, 
			 "total_energy": -1091.33480148, 
			 "HOMO_LUMO_gap": 0.15695, 
			 "cosmo_polarized_energy": -22.1, 
			 "cosmo_cavitation_energy": 47.31, 
			 "cosmo_dispersion_energy": -31.31, 
			 "cosmo_repulsion_energy": 2.47, 
			 "cosmo_total_nonelectrostatic_energy": 18.47, 
			 "SMD_solvation_energy": 10.91 
		},
		"coords": [
			{
				"x": -4.5493411637,
				"y": -1.8491277354,
				"z": -2.1863029538,
				"element": "C" 
			},
			{
				"x": -3.1423095221,
				"y": -1.8341899489,
				"z": -2.7663092117,
				"element": "C" 
			},
			{
				"x": -2.1372459732,
				"y": -1.8218305443,
				"z": -1.7278999075,
				"element": "O" 
			},
			{
				"x": -1.8331702431,
				"y": -0.5995690245,
				"z": -1.2037339365,
				"element": "C" 
			},
			{
				"x": -2.3613521611,
				"y": 0.4272603987,
				"z": -1.5991594991,
				"element": "O" 
			},
			{
				"x": -0.8052665654,
				"y": -0.6243588204,
				"z": -0.1520165357,
				"element": "C" 
			},
			{
				"x": -0.1674668037,
				"y": -1.734573851,
				"z": 0.3118222202,
				"element": "C" 
			},
			{
				"x": -0.4327097522,
				"y": -3.1762860188,
				"z": -0.0448457127,
				"element": "C" 
			},
			{
				"x": 0.8910955823,
				"y": -1.5656760833,
				"z": 1.1926342649,
				"element": "N" 
			},
			{
				"x": 1.5383932547,
				"y": -0.3589097406,
				"z": 1.4179117674,
				"element": "C" 
			},
			{
				"x": 2.8753939155,
				"y": -0.5084402948,
				"z": 2.1003002426,
				"element": "C" 
			},
			{
				"x": 0.9432333607,
				"y": 0.7847752256,
				"z": 0.9806810868,
				"element": "C" 
			},
			{
				"x": -0.4919055318,
				"y": 0.7366858547,
				"z": 0.4632481339,
				"element": "C" 
			},
			{
				"x": -1.4788919473,
				"y": 1.0965256201,
				"z": 1.5415344118,
				"element": "C" 
			},
			{
				"x": -2.3722339275,
				"y": 2.1169745824,
				"z": 1.6866482147,
				"element": "C" 
			},
			{
				"x": -3.0305274419,
				"y": 1.9139172089,
				"z": 2.944210752,
				"element": "C" 
			},
			{
				"x": -2.4894771789,
				"y": 0.7832043554,
				"z": 3.4742445957,
				"element": "C" 
			},
			{
				"x": -1.5427872962,
				"y": 0.2701082598,
				"z": 2.6360164138,
				"element": "O" 
			},
			{
				"x": 1.5476867703,
				"y": 2.1261125319,
				"z": 0.9839436765,
				"element": "C" 
			},
			{
				"x": 0.9772670006,
				"y": 3.1207861607,
				"z": 0.5669069503,
				"element": "O" 
			},
			{
				"x": 2.8191930581,
				"y": 2.1796212275,
				"z": 1.4723171186,
				"element": "O" 
			},
			{
				"x": 3.4223645786,
				"y": 3.4905302939,
				"z": 1.472154858,
				"element": "C" 
			},
			{
				"x": 4.817118849,
				"y": 3.3541297894,
				"z": 2.0545868712,
				"element": "C" 
			},
			{
				"x": -4.7440346682,
				"y": -0.925939677,
				"z": -1.6359176087,
				"element": "H" 
			},
			{
				"x": -5.2845536592,
				"y": -1.9308391071,
				"z": -2.9941875956,
				"element": "H" 
			},
			{
				"x": -4.6853833287,
				"y": -2.7002224167,
				"z": -1.5118732121,
				"element": "H" 
			},
			{
				"x": -2.995102175,
				"y": -0.9645169924,
				"z": -3.4107879735,
				"element": "H" 
			},
			{
				"x": -2.9351287753,
				"y": -2.7456089843,
				"z": -3.3336040685,
				"element": "H" 
			},
			{
				"x": 0.0627442849,
				"y": -3.8439032536,
				"z": 0.6683177013,
				"element": "H" 
			},
			{
				"x": -0.0589644101,
				"y": -3.4089138296,
				"z": -1.0467139769,
				"element": "H" 
			},
			{
				"x": -1.4995665063,
				"y": -3.3935422655,
				"z": -0.0450934414,
				"element": "H" 
			},
			{
				"x": 1.3389268825,
				"y": -2.3995904272,
				"z": 1.5390143077,
				"element": "H" 
			},
			{
				"x": 2.9599418268,
				"y": -1.4979717721,
				"z": 2.5623083198,
				"element": "H" 
			},
			{
				"x": 3.6970699298,
				"y": -0.3938942772,
				"z": 1.3865204231,
				"element": "H" 
			},
			{
				"x": 3.01355272,
				"y": 0.249649545,
				"z": 2.8693217233,
				"element": "H" 
			},
			{
				"x": -0.6103279127,
				"y": 1.5019902356,
				"z": -0.3053960667,
				"element": "H" 
			},
			{
				"x": -2.5345837946,
				"y": 2.9149094431,
				"z": 0.977307264,
				"element": "H" 
			},
			{
				"x": -3.8007081157,
				"y": 2.527937489,
				"z": 3.3892243788,
				"element": "H" 
			},
			{
				"x": -2.6556583387,
				"y": 0.2352465134,
				"z": 4.3890597424,
				"element": "H" 
			},
			{
				"x": 2.7978470779,
				"y": 4.1714831287,
				"z": 2.0590995657,
				"element": "H" 
			},
			{
				"x": 3.4429258821,
				"y": 3.872883137,
				"z": 0.4466459296,
				"element": "H" 
			},
			{
				"x": 5.4264581782,
				"y": 2.6682059465,
				"z": 1.4584545784,
				"element": "H" 
			},
			{
				"x": 4.7798959134,
				"y": 2.9783465861,
				"z": 3.0815735244,
				"element": "H" 
			},
			{
				"x": 5.312088127,
				"y": 4.3303215312,
				"z": 2.0657326635,
				"element": "H" 
			}
		],
		 "valence_orbital": [ 
			{
				"type": "occ",
				"energy": -0.2589,
				"method": "rhf"
			},
			{
				"type": "occ",
				"energy": -0.25693,
				"method": "rhf"
			},
			{
				"type": "occ",
				"energy": -0.24979,
				"method": "rhf"
			},
			{
				"type": "occ",
				"energy": -0.20219,
				"method": "rhf"
			},
			{
				"type": "occ",
				"energy": -0.20119,
				"method": "rhf"
			},
			{
				"type": "unocc",
				"energy": -0.04424,
				"method": "rhf"
			},
			{
				"type": "unocc",
				"energy": 0.00683,
				"method": "rhf"
			},
			{
				"type": "unocc",
				"energy": 0.03485,
				"method": "rhf"
			},
			{
				"type": "unocc",
				"energy": 0.0613,
				"method": "rhf"
			},
			{
				"type": "unocc",
				"energy": 0.08675,
				"method": "rhf"
			}
		],
		"cosmo_sigma_profile": { 
			"-0.025": 0.0,
			"-0.024": 0.0,
			"-0.023": 0.0,
			"-0.022": 0.0,
			"-0.021": 0.0,
			"-0.02": 0.0,
			"-0.019": 0.0,
			"-0.018": 0.0,
			"-0.017": 0.0,
			"-0.016": 0.278082429439,
			"-0.015": 1.4630068476,
			"-0.014": 1.48423061182,
			"-0.013": 1.45964302635,
			"-0.012": 1.27785161711,
			"-0.011": 1.40945590354,
			"-0.01": 1.97698520698,
			"-0.009": 1.0618117725,
			"-0.008": 3.85501089287,
			"-0.007": 3.73824185737,
			"-0.006": 9.49712058538,
			"-0.005": 15.3256372075,
			"-0.004": 31.4438796346,
			"-0.003": 42.065108119,
			"-0.002": 38.6160867685,
			"-0.001": 36.086653348,
			"0.0": 38.3008374752,
			"0.001": 27.6212647666,
			"0.002": 20.199730188,
			"0.003": 17.8771184396,
			"0.004": 15.2821007669,
			"0.005": 12.4633767783,
			"0.006": 11.6999308251,
			"0.007": 9.67295097182,
			"0.008": 6.58689839272,
			"0.009": 4.36367483685,
			"0.01": 3.2285364043,
			"0.011": 3.38373652702,
			"0.012": 4.99673991307,
			"0.013": 6.32714969808,
			"0.014": 0.273901897012,
			"0.015": 0.0,
			"0.016": 0.0,
			"0.017": 0.0,
			"0.018": 0.0,
			"0.019": 0.0,
			"0.02": 0.0,
			"0.021": 0.0,
			"0.022": 0.0,
			"0.023": 0.0,
			"0.024": 0.0,
			"0.025": 0.0
		}
	}
}
