{
	 "smiles": "CC1=NN(C(=O)C1CC(O)=O)C1=CC(Br)=CC=C1", 
	 "Tm": 475.15, 
	 "num_atms": 29, 
	 "gaussian": { 
		 "optdone": 1, 
		 "sigma_profile": "yes", 
		 "theory": "DFT", 
		 "functional": "B3LYP", 
		 "basiset": "6-31G**", 
		 "properties": { 
			 "R2extent": 10227.1142, 
			 "electric_dipole_moment_norm": 3.12345691982, 
			 "electric_quadrupole_moment_norm": 15.8532413414, 
			 "total_energy": -3370.48316356, 
			 "HOMO_LUMO_gap": 0.18102, 
			 "cosmo_polarized_energy": -19.93, 
			 "cosmo_cavitation_energy": 36.16, 
			 "cosmo_dispersion_energy": -26.33, 
			 "cosmo_repulsion_energy": 2.04, 
			 "cosmo_total_nonelectrostatic_energy": 11.87, 
			 "SMD_solvation_energy": 5.93 
		},
		"coords": [
			{
				"x": 1.6514166837,
				"y": -1.5337869877,
				"z": -0.1407919236,
				"element": "C" 
			},
			{
				"x": 0.8949685924,
				"y": -0.3094820197,
				"z": -0.5353942866,
				"element": "C" 
			},
			{
				"x": 0.6116488827,
				"y": 0.611796807,
				"z": 0.3187344653,
				"element": "N" 
			},
			{
				"x": -0.0939664949,
				"y": 1.6354257655,
				"z": -0.3369614361,
				"element": "N" 
			},
			{
				"x": -0.2958873677,
				"y": 1.3588934828,
				"z": -1.681500959,
				"element": "C" 
			},
			{
				"x": -0.9242905101,
				"y": 2.0104425342,
				"z": -2.4994748414,
				"element": "O" 
			},
			{
				"x": 0.4262522165,
				"y": 0.0328066892,
				"z": -1.9262292996,
				"element": "C" 
			},
			{
				"x": -0.4662029288,
				"y": -0.9686095784,
				"z": -2.6655123976,
				"element": "C" 
			},
			{
				"x": 0.327341018,
				"y": -2.0767537895,
				"z": -3.3471076408,
				"element": "C" 
			},
			{
				"x": -0.4157655965,
				"y": -3.0231229565,
				"z": -3.97050376,
				"element": "O" 
			},
			{
				"x": 1.5320116968,
				"y": -2.1407159628,
				"z": -3.3625906143,
				"element": "O" 
			},
			{
				"x": -0.5318884086,
				"y": 2.7508860792,
				"z": 0.417875165,
				"element": "C" 
			},
			{
				"x": -0.2345860173,
				"y": 2.7974790073,
				"z": 1.7883672511,
				"element": "C" 
			},
			{
				"x": -0.6617295797,
				"y": 3.8932441302,
				"z": 2.5295932343,
				"element": "C" 
			},
			{
				"x": -0.2546593752,
				"y": 3.9526613359,
				"z": 4.3989473112,
				"element": "Br" 
			},
			{
				"x": -1.37332618,
				"y": 4.9440388422,
				"z": 1.955233844,
				"element": "C" 
			},
			{
				"x": -1.6569657044,
				"y": 4.8769131377,
				"z": 0.5909277906,
				"element": "C" 
			},
			{
				"x": -1.2472097772,
				"y": 3.7960427564,
				"z": -0.1874940223,
				"element": "C" 
			},
			{
				"x": 1.9312306698,
				"y": -1.475248549,
				"z": 0.9126952772,
				"element": "H" 
			},
			{
				"x": 2.5471695892,
				"y": -1.6492602563,
				"z": -0.7589063499,
				"element": "H" 
			},
			{
				"x": 1.0491627068,
				"y": -2.4366135865,
				"z": -0.2967501018,
				"element": "H" 
			},
			{
				"x": 1.3035568722,
				"y": 0.2241419778,
				"z": -2.5598523928,
				"element": "H" 
			},
			{
				"x": -1.0279842519,
				"y": -0.4134534796,
				"z": -3.4293154267,
				"element": "H" 
			},
			{
				"x": -1.209349672,
				"y": -1.4113878772,
				"z": -1.9897014667,
				"element": "H" 
			},
			{
				"x": -1.3602864121,
				"y": -2.8261346256,
				"z": -3.8898754252,
				"element": "H" 
			},
			{
				"x": 0.3179317783,
				"y": 1.9915146856,
				"z": 2.2492451504,
				"element": "H" 
			},
			{
				"x": -1.6942302455,
				"y": 5.7867976689,
				"z": 2.5557213202,
				"element": "H" 
			},
			{
				"x": -2.2101889013,
				"y": 5.6850875535,
				"z": 0.1217192869,
				"element": "H" 
			},
			{
				"x": -1.4738732835,
				"y": 3.7520972156,
				"z": -1.2431977515,
				"element": "H" 
			}
		],
		 "valence_orbital": [ 
			{
				"type": "occ",
				"energy": -0.28476,
				"method": "rhf"
			},
			{
				"type": "occ",
				"energy": -0.28443,
				"method": "rhf"
			},
			{
				"type": "occ",
				"energy": -0.27028,
				"method": "rhf"
			},
			{
				"type": "occ",
				"energy": -0.24554,
				"method": "rhf"
			},
			{
				"type": "occ",
				"energy": -0.22445,
				"method": "rhf"
			},
			{
				"type": "unocc",
				"energy": -0.04343,
				"method": "rhf"
			},
			{
				"type": "unocc",
				"energy": -0.02363,
				"method": "rhf"
			},
			{
				"type": "unocc",
				"energy": -0.01163,
				"method": "rhf"
			},
			{
				"type": "unocc",
				"energy": -0.0092,
				"method": "rhf"
			},
			{
				"type": "unocc",
				"energy": 0.00897,
				"method": "rhf"
			}
		],
		"cosmo_sigma_profile": { 
			"-0.025": 0.0,
			"-0.024": 0.0,
			"-0.023": 0.0,
			"-0.022": 0.0,
			"-0.021": 0.0,
			"-0.02": 0.351284838155,
			"-0.019": 1.17787462245,
			"-0.018": 0.953005581332,
			"-0.017": 1.40487612117,
			"-0.016": 0.851222196738,
			"-0.015": 1.48633768805,
			"-0.014": 1.19398181012,
			"-0.013": 0.918080940801,
			"-0.012": 1.21640828453,
			"-0.011": 1.63594935501,
			"-0.01": 1.46874821571,
			"-0.009": 4.36059898876,
			"-0.008": 9.5181975975,
			"-0.007": 9.85567593612,
			"-0.006": 11.1840774831,
			"-0.005": 14.9207905301,
			"-0.004": 16.293152505,
			"-0.003": 15.5297006613,
			"-0.002": 18.4369999215,
			"-0.001": 16.7201162745,
			"0.0": 16.5137572622,
			"0.001": 20.3003477992,
			"0.002": 25.1763467053,
			"0.003": 26.0454777183,
			"0.004": 21.3815607794,
			"0.005": 11.8929927366,
			"0.006": 5.1369907903,
			"0.007": 4.81981880057,
			"0.008": 6.04181857077,
			"0.009": 5.88858156604,
			"0.01": 6.86091276127,
			"0.011": 6.98293284333,
			"0.012": 4.74509012098,
			"0.013": 0.711689558756,
			"0.014": 0.0,
			"0.015": 0.0,
			"0.016": 0.0,
			"0.017": 0.0,
			"0.018": 0.0,
			"0.019": 0.0,
			"0.02": 0.0,
			"0.021": 0.0,
			"0.022": 0.0,
			"0.023": 0.0,
			"0.024": 0.0,
			"0.025": 0.0
		}
	}
}
