{
	 "smiles": "CC1(NC(=O)NC1=O)C1=CC=C(OC(F)F)C=C1", 
	 "Tm": 415.15, 
	 "num_atms": 28, 
	 "gaussian": { 
		 "optdone": 1, 
		 "sigma_profile": "yes", 
		 "theory": "DFT", 
		 "functional": "B3LYP", 
		 "basiset": "6-31G**", 
		 "properties": { 
			 "R2extent": 6579.3474, 
			 "electric_dipole_moment_norm": 1.50817549045, 
			 "electric_quadrupole_moment_norm": 17.8539745105, 
			 "total_energy": -960.087901749, 
			 "HOMO_LUMO_gap": 0.21852, 
			 "cosmo_polarized_energy": -18.46, 
			 "cosmo_cavitation_energy": 33.56, 
			 "cosmo_dispersion_energy": -23.72, 
			 "cosmo_repulsion_energy": 1.8, 
			 "cosmo_total_nonelectrostatic_energy": 11.63, 
			 "SMD_solvation_energy": 8.7 
		},
		"coords": [
			{
				"x": 0.1464296203,
				"y": 2.2669451685,
				"z": -0.4531417207,
				"element": "C" 
			},
			{
				"x": -0.6419898424,
				"y": 1.0074714036,
				"z": -0.8696858049,
				"element": "C" 
			},
			{
				"x": -0.4254530952,
				"y": 0.6839916971,
				"z": -2.2791856987,
				"element": "N" 
			},
			{
				"x": -1.5329037455,
				"y": 0.8807763817,
				"z": -3.0705489655,
				"element": "C" 
			},
			{
				"x": -1.6227358287,
				"y": 0.8028879651,
				"z": -4.2767319678,
				"element": "O" 
			},
			{
				"x": -2.5774007883,
				"y": 1.2017625363,
				"z": -2.178563902,
				"element": "N" 
			},
			{
				"x": -2.1612156121,
				"y": 1.3374521854,
				"z": -0.8740681669,
				"element": "C" 
			},
			{
				"x": -2.8324058944,
				"y": 1.668571872,
				"z": 0.0801494195,
				"element": "O" 
			},
			{
				"x": -0.3542991445,
				"y": -0.1723604516,
				"z": 0.0661393267,
				"element": "C" 
			},
			{
				"x": 0.2073912997,
				"y": -1.3637851895,
				"z": -0.4086943225,
				"element": "C" 
			},
			{
				"x": 0.48331019,
				"y": -2.4200317342,
				"z": 0.4559435612,
				"element": "C" 
			},
			{
				"x": 0.1972109364,
				"y": -2.2926231725,
				"z": 1.8147502972,
				"element": "C" 
			},
			{
				"x": 0.5208925763,
				"y": -3.3808542196,
				"z": 2.610025809,
				"element": "O" 
			},
			{
				"x": -0.2248410394,
				"y": -3.6011558856,
				"z": 3.7417648312,
				"element": "C" 
			},
			{
				"x": 0.0086358414,
				"y": -4.8697260979,
				"z": 4.1189846387,
				"element": "F" 
			},
			{
				"x": 0.1861727955,
				"y": -2.7887000079,
				"z": 4.7596813606,
				"element": "F" 
			},
			{
				"x": -0.3616004839,
				"y": -1.1130623384,
				"z": 2.3130136165,
				"element": "C" 
			},
			{
				"x": -0.6392377749,
				"y": -0.0665962463,
				"z": 1.4338116827,
				"element": "C" 
			},
			{
				"x": -0.1262868969,
				"y": 2.5698282766,
				"z": 0.5595142688,
				"element": "H" 
			},
			{
				"x": -0.0682758923,
				"y": 3.0965962062,
				"z": -1.1335127579,
				"element": "H" 
			},
			{
				"x": 1.2206062569,
				"y": 2.0594486834,
				"z": -0.4740306637,
				"element": "H" 
			},
			{
				"x": 0.4857300948,
				"y": 0.6918647627,
				"z": -2.7127854298,
				"element": "H" 
			},
			{
				"x": -3.5202271885,
				"y": 1.3785947154,
				"z": -2.4951518422,
				"element": "H" 
			},
			{
				"x": 0.4137468793,
				"y": -1.4780495773,
				"z": -1.467008174,
				"element": "H" 
			},
			{
				"x": 0.9114184311,
				"y": -3.3479556208,
				"z": 0.0922050184,
				"element": "H" 
			},
			{
				"x": -1.2979454062,
				"y": -3.4391867471,
				"z": 3.584079703,
				"element": "H" 
			},
			{
				"x": -0.5557263704,
				"y": -0.9985414227,
				"z": 3.3725700808,
				"element": "H" 
			},
			{
				"x": -1.103399918,
				"y": 0.8340368575,
				"z": 1.8195758024,
				"element": "H" 
			}
		],
		 "valence_orbital": [ 
			{
				"type": "occ",
				"energy": -0.29604,
				"method": "rhf"
			},
			{
				"type": "occ",
				"energy": -0.28011,
				"method": "rhf"
			},
			{
				"type": "occ",
				"energy": -0.27239,
				"method": "rhf"
			},
			{
				"type": "occ",
				"energy": -0.26739,
				"method": "rhf"
			},
			{
				"type": "occ",
				"energy": -0.24598,
				"method": "rhf"
			},
			{
				"type": "unocc",
				"energy": -0.02746,
				"method": "rhf"
			},
			{
				"type": "unocc",
				"energy": -0.02037,
				"method": "rhf"
			},
			{
				"type": "unocc",
				"energy": -0.00398,
				"method": "rhf"
			},
			{
				"type": "unocc",
				"energy": 0.05114,
				"method": "rhf"
			},
			{
				"type": "unocc",
				"energy": 0.06613,
				"method": "rhf"
			}
		],
		"cosmo_sigma_profile": { 
			"-0.025": 0.0,
			"-0.024": 0.0,
			"-0.023": 0.0,
			"-0.022": 0.0,
			"-0.021": 0.0,
			"-0.02": 0.0,
			"-0.019": 0.0,
			"-0.018": 0.0,
			"-0.017": 0.6026414565,
			"-0.016": 1.51588030467,
			"-0.015": 1.86462195863,
			"-0.014": 2.03218538204,
			"-0.013": 2.82272581049,
			"-0.012": 0.975605495747,
			"-0.011": 1.94290791411,
			"-0.01": 5.02244134388,
			"-0.009": 5.20259024373,
			"-0.008": 4.1756455646,
			"-0.007": 6.08662091003,
			"-0.006": 13.0324386231,
			"-0.005": 16.5069651041,
			"-0.004": 14.536367478,
			"-0.003": 15.4853400255,
			"-0.002": 17.2296363651,
			"-0.001": 17.3530424726,
			"0.0": 12.0920481529,
			"0.001": 14.2034618418,
			"0.002": 16.8067901814,
			"0.003": 28.0578810849,
			"0.004": 25.7960208202,
			"0.005": 5.6105132993,
			"0.006": 4.15759275608,
			"0.007": 4.32534845195,
			"0.008": 3.51466383495,
			"0.009": 2.83022861282,
			"0.01": 3.48576597058,
			"0.011": 6.27745604608,
			"0.012": 8.34009127892,
			"0.013": 5.11257341359,
			"0.014": 0.418544362604,
			"0.015": 0.0,
			"0.016": 0.0,
			"0.017": 0.0,
			"0.018": 0.0,
			"0.019": 0.0,
			"0.02": 0.0,
			"0.021": 0.0,
			"0.022": 0.0,
			"0.023": 0.0,
			"0.024": 0.0,
			"0.025": 0.0
		}
	}
}
