{
	 "smiles": "CCOC(=O)C1=NN(C2=CC=C(Cl)C=C2Cl)C(C)(C1)C(=O)OCC", 
	 "Tm": 324.15, 
	 "num_atms": 42, 
	 "gaussian": { 
		 "optdone": 1, 
		 "sigma_profile": "yes", 
		 "theory": "DFT", 
		 "functional": "B3LYP", 
		 "basiset": "6-31G**", 
		 "properties": { 
			 "R2extent": 11671.3426, 
			 "electric_dipole_moment_norm": 2.28648232445, 
			 "electric_quadrupole_moment_norm": 19.037102861, 
			 "total_energy": -1951.32275814, 
			 "HOMO_LUMO_gap": 0.16676, 
			 "cosmo_polarized_energy": -16.18, 
			 "cosmo_cavitation_energy": 49.89, 
			 "cosmo_dispersion_energy": -32.86, 
			 "cosmo_repulsion_energy": 2.59, 
			 "cosmo_total_nonelectrostatic_energy": 19.62, 
			 "SMD_solvation_energy": 9.22 
		},
		"coords": [
			{
				"x": 2.0238544691,
				"y": 3.6643017895,
				"z": -3.0538986325,
				"element": "C" 
			},
			{
				"x": 0.7531837742,
				"y": 3.7526353507,
				"z": -2.230215472,
				"element": "C" 
			},
			{
				"x": 0.498481455,
				"y": 2.4375350473,
				"z": -1.6889920868,
				"element": "O" 
			},
			{
				"x": -0.6032708784,
				"y": 2.3285060513,
				"z": -0.9242136466,
				"element": "C" 
			},
			{
				"x": -1.3630171375,
				"y": 3.2505346073,
				"z": -0.6753560434,
				"element": "O" 
			},
			{
				"x": -0.8287128218,
				"y": 0.9727934078,
				"z": -0.3997809837,
				"element": "C" 
			},
			{
				"x": -0.0477674555,
				"y": -0.0306517619,
				"z": -0.62951857,
				"element": "N" 
			},
			{
				"x": -0.5078745965,
				"y": -1.119275352,
				"z": 0.0310905137,
				"element": "N" 
			},
			{
				"x": 0.0394966034,
				"y": -2.3892634983,
				"z": -0.2683810188,
				"element": "C" 
			},
			{
				"x": 0.4776139653,
				"y": -3.1982359089,
				"z": 0.7903828522,
				"element": "C" 
			},
			{
				"x": 1.0161827322,
				"y": -4.4629278621,
				"z": 0.5766707681,
				"element": "C" 
			},
			{
				"x": 1.1494922673,
				"y": -4.9232419744,
				"z": -0.7319832053,
				"element": "C" 
			},
			{
				"x": 1.8466248653,
				"y": -6.5039299619,
				"z": -1.0323851066,
				"element": "Cl" 
			},
			{
				"x": 0.7368551199,
				"y": -4.1470804673,
				"z": -1.812425528,
				"element": "C" 
			},
			{
				"x": 0.1691634734,
				"y": -2.8942596046,
				"z": -1.5780960402,
				"element": "C" 
			},
			{
				"x": -0.4042585787,
				"y": -1.9964381856,
				"z": -2.9650178664,
				"element": "Cl" 
			},
			{
				"x": -1.8652384463,
				"y": -0.9026840465,
				"z": 0.6402206103,
				"element": "C" 
			},
			{
				"x": -2.9518247633,
				"y": -1.6556958838,
				"z": -0.1318767132,
				"element": "C" 
			},
			{
				"x": -1.9943607891,
				"y": 0.6450563782,
				"z": 0.5039238778,
				"element": "C" 
			},
			{
				"x": -1.8880113716,
				"y": -1.3201510679,
				"z": 2.1204926062,
				"element": "C" 
			},
			{
				"x": -2.7441962783,
				"y": -2.0186781169,
				"z": 2.6171796889,
				"element": "O" 
			},
			{
				"x": -0.8634548693,
				"y": -0.7821484022,
				"z": 2.8106380312,
				"element": "O" 
			},
			{
				"x": -0.8506055472,
				"y": -1.0486607347,
				"z": 4.2367649711,
				"element": "C" 
			},
			{
				"x": 0.3389777178,
				"y": -0.3163874714,
				"z": 4.8260769547,
				"element": "C" 
			},
			{
				"x": 2.2554642406,
				"y": 4.6432335872,
				"z": -3.4853405866,
				"element": "H" 
			},
			{
				"x": 2.8691152119,
				"y": 3.3505963193,
				"z": -2.4348669773,
				"element": "H" 
			},
			{
				"x": 1.9106062361,
				"y": 2.9448366305,
				"z": -3.8696981661,
				"element": "H" 
			},
			{
				"x": -0.1073940184,
				"y": 4.0618271704,
				"z": -2.8324650814,
				"element": "H" 
			},
			{
				"x": 0.8464471884,
				"y": 4.4650596104,
				"z": -1.4039474929,
				"element": "H" 
			},
			{
				"x": 0.416086783,
				"y": -2.7992742427,
				"z": 1.7960670145,
				"element": "H" 
			},
			{
				"x": 1.3498043832,
				"y": -5.0716406613,
				"z": 1.4089538176,
				"element": "H" 
			},
			{
				"x": 0.8339080185,
				"y": -4.515363349,
				"z": -2.8262061764,
				"element": "H" 
			},
			{
				"x": -2.7904097733,
				"y": -2.735423533,
				"z": -0.0914149605,
				"element": "H" 
			},
			{
				"x": -2.9511126824,
				"y": -1.3347287429,
				"z": -1.1763930684,
				"element": "H" 
			},
			{
				"x": -3.9301202189,
				"y": -1.4490564271,
				"z": 0.3079131406,
				"element": "H" 
			},
			{
				"x": -1.8926887131,
				"y": 1.1592284064,
				"z": 1.4647366759,
				"element": "H" 
			},
			{
				"x": -2.9551865785,
				"y": 0.9403707099,
				"z": 0.0739361581,
				"element": "H" 
			},
			{
				"x": -1.7994405447,
				"y": -0.7097750315,
				"z": 4.6634805334,
				"element": "H" 
			},
			{
				"x": -0.7895494712,
				"y": -2.130760543,
				"z": 4.3902760971,
				"element": "H" 
			},
			{
				"x": 1.2756913633,
				"y": -0.6652416735,
				"z": 4.3821894762,
				"element": "H" 
			},
			{
				"x": 0.2584396114,
				"y": 0.7609060772,
				"z": 4.6563261342,
				"element": "H" 
			},
			{
				"x": 0.3826060548,
				"y": -0.492646639,
				"z": 5.9052535013,
				"element": "H" 
			}
		],
		 "valence_orbital": [ 
			{
				"type": "occ",
				"energy": -0.28705,
				"method": "rhf"
			},
			{
				"type": "occ",
				"energy": -0.27301,
				"method": "rhf"
			},
			{
				"type": "occ",
				"energy": -0.26973,
				"method": "rhf"
			},
			{
				"type": "occ",
				"energy": -0.26182,
				"method": "rhf"
			},
			{
				"type": "occ",
				"energy": -0.21784,
				"method": "rhf"
			},
			{
				"type": "unocc",
				"energy": -0.05108,
				"method": "rhf"
			},
			{
				"type": "unocc",
				"energy": -0.03384,
				"method": "rhf"
			},
			{
				"type": "unocc",
				"energy": -0.02695,
				"method": "rhf"
			},
			{
				"type": "unocc",
				"energy": -0.00796,
				"method": "rhf"
			},
			{
				"type": "unocc",
				"energy": 0.00325,
				"method": "rhf"
			}
		],
		"cosmo_sigma_profile": { 
			"-0.025": 0.0,
			"-0.024": 0.0,
			"-0.023": 0.0,
			"-0.022": 0.0,
			"-0.021": 0.0,
			"-0.02": 0.0,
			"-0.019": 0.0,
			"-0.018": 0.0,
			"-0.017": 0.0,
			"-0.016": 0.0,
			"-0.015": 0.0,
			"-0.014": 0.0,
			"-0.013": 0.0,
			"-0.012": 0.0,
			"-0.011": 0.0,
			"-0.01": 0.0,
			"-0.009": 0.55828038407,
			"-0.008": 3.16520741877,
			"-0.007": 6.60252847387,
			"-0.006": 13.9223916757,
			"-0.005": 28.5560812091,
			"-0.004": 39.2460901102,
			"-0.003": 40.0356330986,
			"-0.002": 36.1854200888,
			"-0.001": 37.3303964496,
			"0.0": 42.5926010448,
			"0.001": 33.9676911001,
			"0.002": 21.0736742149,
			"0.003": 21.2511511776,
			"0.004": 20.5760448001,
			"0.005": 8.22984794042,
			"0.006": 6.77135846578,
			"0.007": 5.53649881397,
			"0.008": 5.12059480748,
			"0.009": 5.27112157235,
			"0.01": 5.40545915705,
			"0.011": 8.39977265263,
			"0.012": 7.39196657134,
			"0.013": 2.01314490333,
			"0.014": 0.189149730491,
			"0.015": 0.0,
			"0.016": 0.0,
			"0.017": 0.0,
			"0.018": 0.0,
			"0.019": 0.0,
			"0.02": 0.0,
			"0.021": 0.0,
			"0.022": 0.0,
			"0.023": 0.0,
			"0.024": 0.0,
			"0.025": 0.0
		}
	}
}
