{
	 "smiles": "CCCCC(=O)N(CC1=CC=C(C=C1)C1=CC=CC=C1C1=NN=NN1)C(C(C)C)C(O)=O", 
	 "Tm": 389.15, 
	 "num_atms": 61, 
	 "gaussian": { 
		 "optdone": 1, 
		 "sigma_profile": "yes", 
		 "theory": "DFT", 
		 "functional": "B3LYP", 
		 "basiset": "6-31G**", 
		 "properties": { 
			 "R2extent": 16179.4734, 
			 "electric_dipole_moment_norm": 8.46862150117, 
			 "electric_quadrupole_moment_norm": 34.6788206721, 
			 "total_energy": -1431.44916921, 
			 "HOMO_LUMO_gap": 0.18235, 
			 "cosmo_polarized_energy": -34.09, 
			 "cosmo_cavitation_energy": 62.53, 
			 "cosmo_dispersion_energy": -39.33, 
			 "cosmo_repulsion_energy": 2.99, 
			 "cosmo_total_nonelectrostatic_energy": 26.19, 
			 "SMD_solvation_energy": 9.53 
		},
		"coords": [
			{
				"x": 5.572095473,
				"y": 1.7364837363,
				"z": 1.3147026787,
				"element": "C" 
			},
			{
				"x": 4.0528299962,
				"y": 1.8066726528,
				"z": 1.4997305633,
				"element": "C" 
			},
			{
				"x": 3.341222245,
				"y": 2.4568922851,
				"z": 0.3066286788,
				"element": "C" 
			},
			{
				"x": 1.8274529885,
				"y": 2.5660122137,
				"z": 0.5131197468,
				"element": "C" 
			},
			{
				"x": 1.1126481433,
				"y": 3.1346292992,
				"z": -0.707831843,
				"element": "C" 
			},
			{
				"x": 1.7312004073,
				"y": 3.5963892627,
				"z": -1.6637050621,
				"element": "O" 
			},
			{
				"x": -0.2754707945,
				"y": 3.1222468991,
				"z": -0.7270697033,
				"element": "N" 
			},
			{
				"x": -1.0485381143,
				"y": 2.6865583049,
				"z": 0.4353155531,
				"element": "C" 
			},
			{
				"x": -1.194079471,
				"y": 1.1837057972,
				"z": 0.6555445654,
				"element": "C" 
			},
			{
				"x": -1.709403102,
				"y": 0.7406747136,
				"z": 1.8811189521,
				"element": "C" 
			},
			{
				"x": -1.8286761935,
				"y": -0.6178913323,
				"z": 2.1593107262,
				"element": "C" 
			},
			{
				"x": -1.4156980104,
				"y": -1.5745542393,
				"z": 1.2210722526,
				"element": "C" 
			},
			{
				"x": -0.9322548257,
				"y": -1.1287377482,
				"z": -0.0152892941,
				"element": "C" 
			},
			{
				"x": -0.8265310677,
				"y": 0.2321869128,
				"z": -0.2998805963,
				"element": "C" 
			},
			{
				"x": -1.4972626894,
				"y": -3.0284600755,
				"z": 1.5339339232,
				"element": "C" 
			},
			{
				"x": -2.7459657085,
				"y": -3.6070748837,
				"z": 1.8031842775,
				"element": "C" 
			},
			{
				"x": -2.8814383358,
				"y": -4.9723925433,
				"z": 2.051015246,
				"element": "C" 
			},
			{
				"x": -1.756544951,
				"y": -5.7973171902,
				"z": 2.0362368817,
				"element": "C" 
			},
			{
				"x": -0.5034962196,
				"y": -5.2420876831,
				"z": 1.7910181191,
				"element": "C" 
			},
			{
				"x": -0.3572982172,
				"y": -3.8667051927,
				"z": 1.5461102018,
				"element": "C" 
			},
			{
				"x": 1.0011852283,
				"y": -3.3302672999,
				"z": 1.3634369189,
				"element": "C" 
			},
			{
				"x": 1.5322131529,
				"y": -2.2387491212,
				"z": 1.8948295815,
				"element": "N" 
			},
			{
				"x": 2.8228268803,
				"y": -2.1950363977,
				"z": 1.4740565462,
				"element": "N" 
			},
			{
				"x": 3.1090589298,
				"y": -3.2030770111,
				"z": 0.7152713813,
				"element": "N" 
			},
			{
				"x": 1.9745263337,
				"y": -3.9334217535,
				"z": 0.6374788018,
				"element": "N" 
			},
			{
				"x": -0.8491140964,
				"y": 3.7994181146,
				"z": -1.906931519,
				"element": "C" 
			},
			{
				"x": -2.3831390624,
				"y": 4.0633721328,
				"z": -1.9802323493,
				"element": "C" 
			},
			{
				"x": -3.2792554324,
				"y": 2.8117613722,
				"z": -2.0045177023,
				"element": "C" 
			},
			{
				"x": -2.8780685224,
				"y": 5.142688542,
				"z": -1.0002170382,
				"element": "C" 
			},
			{
				"x": -0.4307050888,
				"y": 3.1421676771,
				"z": -3.2297616213,
				"element": "C" 
			},
			{
				"x": -0.1788474256,
				"y": 1.8136480714,
				"z": -3.1542184138,
				"element": "O" 
			},
			{
				"x": -0.4112748272,
				"y": 3.7428314537,
				"z": -4.2803095542,
				"element": "O" 
			},
			{
				"x": 5.8336894005,
				"y": 1.15126644,
				"z": 0.4259053065,
				"element": "H" 
			},
			{
				"x": 6.0567790854,
				"y": 1.2647018635,
				"z": 2.1756231964,
				"element": "H" 
			},
			{
				"x": 6.0057199833,
				"y": 2.7359026228,
				"z": 1.1917071618,
				"element": "H" 
			},
			{
				"x": 3.6590434072,
				"y": 0.7937230292,
				"z": 1.654425057,
				"element": "H" 
			},
			{
				"x": 3.8231210296,
				"y": 2.3700742308,
				"z": 2.4154867006,
				"element": "H" 
			},
			{
				"x": 3.7528983844,
				"y": 3.4542607424,
				"z": 0.113995931,
				"element": "H" 
			},
			{
				"x": 3.5355258108,
				"y": 1.8758048322,
				"z": -0.6024478006,
				"element": "H" 
			},
			{
				"x": 1.6136531541,
				"y": 3.2104871078,
				"z": 1.3788075784,
				"element": "H" 
			},
			{
				"x": 1.4088290022,
				"y": 1.5852397273,
				"z": 0.7643131207,
				"element": "H" 
			},
			{
				"x": -0.608419708,
				"y": 3.1208906351,
				"z": 1.340956248,
				"element": "H" 
			},
			{
				"x": -2.0409811729,
				"y": 3.124659892,
				"z": 0.3642614036,
				"element": "H" 
			},
			{
				"x": -1.9993832561,
				"y": 1.4664118393,
				"z": 2.6382614472,
				"element": "H" 
			},
			{
				"x": -2.2018754691,
				"y": -0.9420784014,
				"z": 3.1264898286,
				"element": "H" 
			},
			{
				"x": -0.629568355,
				"y": -1.8549111954,
				"z": -0.7648986319,
				"element": "H" 
			},
			{
				"x": -0.4440198418,
				"y": 0.5586652731,
				"z": -1.2601618114,
				"element": "H" 
			},
			{
				"x": -3.6244924672,
				"y": -2.9690034348,
				"z": 1.7916417887,
				"element": "H" 
			},
			{
				"x": -3.8638468443,
				"y": -5.3908747494,
				"z": 2.2488341321,
				"element": "H" 
			},
			{
				"x": -1.8498332361,
				"y": -6.861314218,
				"z": 2.2303137247,
				"element": "H" 
			},
			{
				"x": 0.3803445168,
				"y": -5.8731020977,
				"z": 1.8307049158,
				"element": "H" 
			},
			{
				"x": 1.9390309359,
				"y": -4.763400121,
				"z": 0.0635042184,
				"element": "H" 
			},
			{
				"x": -0.3716463543,
				"y": 4.7827775479,
				"z": -1.9773121888,
				"element": "H" 
			},
			{
				"x": -2.4687192115,
				"y": 4.516962021,
				"z": -2.9753156152,
				"element": "H" 
			},
			{
				"x": -2.9335146027,
				"y": 2.0899561577,
				"z": -2.75030068,
				"element": "H" 
			},
			{
				"x": -3.327129288,
				"y": 2.2894987565,
				"z": -1.0453888436,
				"element": "H" 
			},
			{
				"x": -4.3018932268,
				"y": 3.0993819087,
				"z": -2.2700937697,
				"element": "H" 
			},
			{
				"x": -3.8898738928,
				"y": 5.4546698322,
				"z": -1.2797059603,
				"element": "H" 
			},
			{
				"x": -2.2346985321,
				"y": 6.0278678971,
				"z": -1.0367158629,
				"element": "H" 
			},
			{
				"x": -2.923858167,
				"y": 4.8099544727,
				"z": 0.0409511386,
				"element": "H" 
			},
			{
				"x": 0.076821293,
				"y": 1.547560419,
				"z": -4.0533926328,
				"element": "H" 
			}
		],
		 "valence_orbital": [ 
			{
				"type": "occ",
				"energy": -0.26399,
				"method": "rhf"
			},
			{
				"type": "occ",
				"energy": -0.25441,
				"method": "rhf"
			},
			{
				"type": "occ",
				"energy": -0.24403,
				"method": "rhf"
			},
			{
				"type": "occ",
				"energy": -0.2409,
				"method": "rhf"
			},
			{
				"type": "occ",
				"energy": -0.2341,
				"method": "rhf"
			},
			{
				"type": "unocc",
				"energy": -0.05175,
				"method": "rhf"
			},
			{
				"type": "unocc",
				"energy": -0.03274,
				"method": "rhf"
			},
			{
				"type": "unocc",
				"energy": -0.00912,
				"method": "rhf"
			},
			{
				"type": "unocc",
				"energy": -0.00372,
				"method": "rhf"
			},
			{
				"type": "unocc",
				"energy": 0.0007,
				"method": "rhf"
			}
		],
		"cosmo_sigma_profile": { 
			"-0.025": 0.0,
			"-0.024": 0.0,
			"-0.023": 0.0,
			"-0.022": 0.0,
			"-0.021": 0.0,
			"-0.02": 0.0,
			"-0.019": 0.866168420556,
			"-0.018": 2.22702629129,
			"-0.017": 2.2933624765,
			"-0.016": 1.70252385667,
			"-0.015": 1.60170639632,
			"-0.014": 2.4607396543,
			"-0.013": 2.27113053439,
			"-0.012": 1.17117629401,
			"-0.011": 2.07812701452,
			"-0.01": 2.03540149174,
			"-0.009": 1.74534523511,
			"-0.008": 2.75923268381,
			"-0.007": 8.79188614609,
			"-0.006": 20.7511678581,
			"-0.005": 27.8932747493,
			"-0.004": 29.4149207331,
			"-0.003": 38.488578109,
			"-0.002": 49.4681118412,
			"-0.001": 47.1901236701,
			"0.0": 44.725299612,
			"0.001": 44.283662888,
			"0.002": 29.1696962511,
			"0.003": 24.4619274498,
			"0.004": 18.774674871,
			"0.005": 13.9925236687,
			"0.006": 9.12716467993,
			"0.007": 7.87844352449,
			"0.008": 9.82149756543,
			"0.009": 10.2056589961,
			"0.01": 7.82672493614,
			"0.011": 9.75109151876,
			"0.012": 9.6466354631,
			"0.013": 5.14790648098,
			"0.014": 2.54681412664,
			"0.015": 0.401808131762,
			"0.016": 0.0,
			"0.017": 0.0,
			"0.018": 0.0,
			"0.019": 0.0,
			"0.02": 0.0,
			"0.021": 0.0,
			"0.022": 0.0,
			"0.023": 0.0,
			"0.024": 0.0,
			"0.025": 0.0
		}
	}
}
