{
	 "smiles": "OC(=O)C1=C(Br)C=C(F)C(=C1)S(Cl)(=O)=O", 
	 "Tm": 422.15, 
	 "num_atms": 18, 
	 "gaussian": { 
		 "optdone": 1, 
		 "sigma_profile": "yes", 
		 "theory": "DFT", 
		 "functional": "B3LYP", 
		 "basiset": "6-31G**", 
		 "properties": { 
			 "R2extent": 7751.0794, 
			 "electric_dipole_moment_norm": 3.07022644279, 
			 "electric_quadrupole_moment_norm": 23.0396579721, 
			 "total_energy": -4098.99389691, 
			 "HOMO_LUMO_gap": 0.18356, 
			 "cosmo_polarized_energy": -13.24, 
			 "cosmo_cavitation_energy": 29.76, 
			 "cosmo_dispersion_energy": -22.52, 
			 "cosmo_repulsion_energy": 1.7, 
			 "cosmo_total_nonelectrostatic_energy": 8.94, 
			 "SMD_solvation_energy": 4.46 
		},
		"coords": [
			{
				"x": 0.7625255376,
				"y": 1.6044172822,
				"z": -1.0283770672,
				"element": "O" 
			},
			{
				"x": 0.7302093185,
				"y": 0.6189487381,
				"z": -0.0975963153,
				"element": "C" 
			},
			{
				"x": 1.682936265,
				"y": 0.3633680191,
				"z": 0.6037491516,
				"element": "O" 
			},
			{
				"x": -0.5981328044,
				"y": -0.0690643082,
				"z": -0.0715914454,
				"element": "C" 
			},
			{
				"x": -0.9087270101,
				"y": -1.1376329695,
				"z": 0.7975878713,
				"element": "C" 
			},
			{
				"x": 0.3035162706,
				"y": -1.8608288728,
				"z": 2.0609719034,
				"element": "Br" 
			},
			{
				"x": -2.1714184257,
				"y": -1.7348930864,
				"z": 0.7704784228,
				"element": "C" 
			},
			{
				"x": -3.1322678746,
				"y": -1.2816204105,
				"z": -0.1189149164,
				"element": "C" 
			},
			{
				"x": -4.3345524143,
				"y": -1.8530502699,
				"z": -0.1206643419,
				"element": "F" 
			},
			{
				"x": -2.8477829475,
				"y": -0.227104154,
				"z": -0.9919848212,
				"element": "C" 
			},
			{
				"x": -1.5932175389,
				"y": 0.3691084159,
				"z": -0.959579006,
				"element": "C" 
			},
			{
				"x": -4.0394708681,
				"y": 0.3425377223,
				"z": -2.1960579938,
				"element": "S" 
			},
			{
				"x": -5.4731594782,
				"y": 1.2692798593,
				"z": -0.9401834776,
				"element": "Cl" 
			},
			{
				"x": -4.6965945506,
				"y": -0.7963968776,
				"z": -2.817487391,
				"element": "O" 
			},
			{
				"x": -3.4191578393,
				"y": 1.4048161176,
				"z": -2.976261454,
				"element": "O" 
			},
			{
				"x": 1.6511383376,
				"y": 1.9926780097,
				"z": -0.9752761287,
				"element": "H" 
			},
			{
				"x": -2.4143364522,
				"y": -2.5519121969,
				"z": 1.4381243274,
				"element": "H" 
			},
			{
				"x": -1.3819075253,
				"y": 1.1864489816,
				"z": -1.636937318,
				"element": "H" 
			}
		],
		 "valence_orbital": [ 
			{
				"type": "occ",
				"energy": -0.32758,
				"method": "rhf"
			},
			{
				"type": "occ",
				"energy": -0.32417,
				"method": "rhf"
			},
			{
				"type": "occ",
				"energy": -0.30256,
				"method": "rhf"
			},
			{
				"type": "occ",
				"energy": -0.28658,
				"method": "rhf"
			},
			{
				"type": "occ",
				"energy": -0.28547,
				"method": "rhf"
			},
			{
				"type": "unocc",
				"energy": -0.10191,
				"method": "rhf"
			},
			{
				"type": "unocc",
				"energy": -0.08385,
				"method": "rhf"
			},
			{
				"type": "unocc",
				"energy": -0.06654,
				"method": "rhf"
			},
			{
				"type": "unocc",
				"energy": -0.02331,
				"method": "rhf"
			},
			{
				"type": "unocc",
				"energy": 0.0085,
				"method": "rhf"
			}
		],
		"cosmo_sigma_profile": { 
			"-0.025": 0.0,
			"-0.024": 0.0,
			"-0.023": 0.0,
			"-0.022": 0.0,
			"-0.021": 0.0,
			"-0.02": 0.0,
			"-0.019": 0.540744139321,
			"-0.018": 1.00366259663,
			"-0.017": 1.00796675372,
			"-0.016": 0.602190965088,
			"-0.015": 0.806282592778,
			"-0.014": 0.523845852273,
			"-0.013": 0.607731278844,
			"-0.012": 0.988629335027,
			"-0.011": 1.033336806,
			"-0.01": 2.35877186393,
			"-0.009": 1.6439672649,
			"-0.008": 2.93260458939,
			"-0.007": 3.90557543111,
			"-0.006": 5.63937819437,
			"-0.005": 12.8259367013,
			"-0.004": 20.3811797617,
			"-0.003": 23.7230627729,
			"-0.002": 20.5081918887,
			"-0.001": 13.0441174258,
			"0.0": 13.3858125053,
			"0.001": 19.5027097922,
			"0.002": 27.806867198,
			"0.003": 18.3428231979,
			"0.004": 9.04478063606,
			"0.005": 6.14365878482,
			"0.006": 6.68836909171,
			"0.007": 10.9167765484,
			"0.008": 9.34643745397,
			"0.009": 3.08211631758,
			"0.01": 3.38873870136,
			"0.011": 4.23595520256,
			"0.012": 0.145573791225,
			"0.013": 0.0,
			"0.014": 0.0,
			"0.015": 0.0,
			"0.016": 0.0,
			"0.017": 0.0,
			"0.018": 0.0,
			"0.019": 0.0,
			"0.02": 0.0,
			"0.021": 0.0,
			"0.022": 0.0,
			"0.023": 0.0,
			"0.024": 0.0,
			"0.025": 0.0
		}
	}
}
