{
	 "smiles": "NC1=CC(Cl)=NN1", 
	 "Tm": 367.15, 
	 "num_atms": 11, 
	 "gaussian": { 
		 "optdone": 1, 
		 "sigma_profile": "yes", 
		 "theory": "DFT", 
		 "functional": "B3LYP", 
		 "basiset": "6-31G**", 
		 "properties": { 
			 "R2extent": 3114.4217, 
			 "electric_dipole_moment_norm": 5.04398118751, 
			 "electric_quadrupole_moment_norm": 17.9602027199, 
			 "total_energy": -741.145476043, 
			 "HOMO_LUMO_gap": 0.24239, 
			 "cosmo_polarized_energy": -14.96, 
			 "cosmo_cavitation_energy": 17.21, 
			 "cosmo_dispersion_energy": -13.37, 
			 "cosmo_repulsion_energy": 1.16, 
			 "cosmo_total_nonelectrostatic_energy": 5.0, 
			 "SMD_solvation_energy": 1.93 
		},
		"coords": [
			{
				"x": -0.4923099294,
				"y": 1.0051424126,
				"z": 2.0287381897,
				"element": "N" 
			},
			{
				"x": -0.5636575941,
				"y": -0.3768847503,
				"z": 2.2088836772,
				"element": "C" 
			},
			{
				"x": -1.5639722574,
				"y": -1.2053473199,
				"z": 2.6935634558,
				"element": "C" 
			},
			{
				"x": -1.0260377742,
				"y": -2.5030524091,
				"z": 2.5310749567,
				"element": "C" 
			},
			{
				"x": -1.8097303014,
				"y": -3.9884398341,
				"z": 2.9707429682,
				"element": "Cl" 
			},
			{
				"x": 0.1871686582,
				"y": -2.5188679439,
				"z": 2.0097290306,
				"element": "N" 
			},
			{
				"x": 0.4521075168,
				"y": -1.193781996,
				"z": 1.8177642699,
				"element": "N" 
			},
			{
				"x": 0.3388278958,
				"y": 1.426531364,
				"z": 2.4300571724,
				"element": "H" 
			},
			{
				"x": -1.3164454858,
				"y": 1.4773121491,
				"z": 2.3777308994,
				"element": "H" 
			},
			{
				"x": -2.5168225243,
				"y": -0.9255310456,
				"z": 3.1137513206,
				"element": "H" 
			},
			{
				"x": 1.2957717958,
				"y": -0.9310806266,
				"z": 1.3331640594,
				"element": "H" 
			}
		],
		 "valence_orbital": [ 
			{
				"type": "occ",
				"energy": -0.32151,
				"method": "rhf"
			},
			{
				"type": "occ",
				"energy": -0.30901,
				"method": "rhf"
			},
			{
				"type": "occ",
				"energy": -0.29415,
				"method": "rhf"
			},
			{
				"type": "occ",
				"energy": -0.24625,
				"method": "rhf"
			},
			{
				"type": "occ",
				"energy": -0.22065,
				"method": "rhf"
			},
			{
				"type": "unocc",
				"energy": 0.02174,
				"method": "rhf"
			},
			{
				"type": "unocc",
				"energy": 0.04606,
				"method": "rhf"
			},
			{
				"type": "unocc",
				"energy": 0.05943,
				"method": "rhf"
			},
			{
				"type": "unocc",
				"energy": 0.07339,
				"method": "rhf"
			},
			{
				"type": "unocc",
				"energy": 0.09848,
				"method": "rhf"
			}
		],
		"cosmo_sigma_profile": { 
			"-0.025": 0.0,
			"-0.024": 0.0,
			"-0.023": 0.0,
			"-0.022": 0.0,
			"-0.021": 0.0,
			"-0.02": 0.0,
			"-0.019": 0.0,
			"-0.018": 0.0,
			"-0.017": 0.447119117309,
			"-0.016": 1.51076002023,
			"-0.015": 1.57870153513,
			"-0.014": 1.59000964653,
			"-0.013": 4.7992276294,
			"-0.012": 4.06574950926,
			"-0.011": 4.09695238673,
			"-0.01": 3.82845999461,
			"-0.009": 2.39839520094,
			"-0.008": 2.5396962563,
			"-0.007": 4.76398387832,
			"-0.006": 4.07468544141,
			"-0.005": 3.22990286283,
			"-0.004": 2.39859750776,
			"-0.003": 2.98835238778,
			"-0.002": 4.61828498278,
			"-0.001": 4.88858756552,
			"0.0": 4.61374780912,
			"0.001": 5.73768300795,
			"0.002": 8.67283071298,
			"0.003": 13.1906102047,
			"0.004": 16.909373792,
			"0.005": 14.3753531843,
			"0.006": 3.88080407028,
			"0.007": 2.868244462,
			"0.008": 2.25762617951,
			"0.009": 2.92455249315,
			"0.01": 1.97072578292,
			"0.011": 1.65536780899,
			"0.012": 1.13324860124,
			"0.013": 2.27631714525,
			"0.014": 1.87828344191,
			"0.015": 0.883544805347,
			"0.016": 0.40029281546,
			"0.017": 0.0,
			"0.018": 0.0,
			"0.019": 0.0,
			"0.02": 0.0,
			"0.021": 0.0,
			"0.022": 0.0,
			"0.023": 0.0,
			"0.024": 0.0,
			"0.025": 0.0
		}
	}
}
