{
	 "smiles": "CC1=CC=C(O)C(=C1)C(=O)CC(=O)C1=CC=CC=C1", 
	 "Tm": 366.15, 
	 "num_atms": 33, 
	 "gaussian": { 
		 "optdone": 1, 
		 "sigma_profile": "yes", 
		 "theory": "DFT", 
		 "functional": "B3LYP", 
		 "basiset": "6-31G**", 
		 "properties": { 
			 "R2extent": 6613.0249, 
			 "electric_dipole_moment_norm": 4.21204789384, 
			 "electric_quadrupole_moment_norm": 19.5120103739, 
			 "total_energy": -843.827638436, 
			 "HOMO_LUMO_gap": 0.15684, 
			 "cosmo_polarized_energy": -14.36, 
			 "cosmo_cavitation_energy": 37.27, 
			 "cosmo_dispersion_energy": -26.6, 
			 "cosmo_repulsion_energy": 2.04, 
			 "cosmo_total_nonelectrostatic_energy": 12.71, 
			 "SMD_solvation_energy": 7.35 
		},
		"coords": [
			{
				"x": 3.857425975,
				"y": -0.2080323211,
				"z": -3.7461077425,
				"element": "C" 
			},
			{
				"x": 2.8941381674,
				"y": 0.7555871355,
				"z": -3.0941857489,
				"element": "C" 
			},
			{
				"x": 3.0675911947,
				"y": 2.1504807085,
				"z": -3.2320144784,
				"element": "C" 
			},
			{
				"x": 2.1997182209,
				"y": 3.0574924272,
				"z": -2.650671085,
				"element": "C" 
			},
			{
				"x": 1.1031527379,
				"y": 2.6063418241,
				"z": -1.8940195661,
				"element": "C" 
			},
			{
				"x": 0.29035803,
				"y": 3.5213553243,
				"z": -1.3534582362,
				"element": "O" 
			},
			{
				"x": 0.9022617972,
				"y": 1.2070696373,
				"z": -1.7319444234,
				"element": "C" 
			},
			{
				"x": 1.8131179623,
				"y": 0.3156235213,
				"z": -2.3450333657,
				"element": "C" 
			},
			{
				"x": -0.2403513062,
				"y": 0.7414780054,
				"z": -0.9374051878,
				"element": "C" 
			},
			{
				"x": -1.0340750559,
				"y": 1.5407333263,
				"z": -0.4160199687,
				"element": "O" 
			},
			{
				"x": -0.4728782536,
				"y": -0.7558195562,
				"z": -0.7502261811,
				"element": "C" 
			},
			{
				"x": -1.7039235284,
				"y": -1.0720731967,
				"z": 0.10420312,
				"element": "C" 
			},
			{
				"x": -2.7164061349,
				"y": -1.4765048609,
				"z": -0.4442262804,
				"element": "O" 
			},
			{
				"x": -1.6305817086,
				"y": -0.9265059313,
				"z": 1.5897838214,
				"element": "C" 
			},
			{
				"x": -0.4863684788,
				"y": -0.4663547264,
				"z": 2.2584217882,
				"element": "C" 
			},
			{
				"x": -0.4759779826,
				"y": -0.363341141,
				"z": 3.6490006028,
				"element": "C" 
			},
			{
				"x": -1.608175888,
				"y": -0.7191535205,
				"z": 4.3842849572,
				"element": "C" 
			},
			{
				"x": -2.7540125169,
				"y": -1.1769835724,
				"z": 3.7261932301,
				"element": "C" 
			},
			{
				"x": -2.7648038236,
				"y": -1.2792411634,
				"z": 2.3390317441,
				"element": "C" 
			},
			{
				"x": 3.5842883964,
				"y": -1.2462802196,
				"z": -3.5380628242,
				"element": "H" 
			},
			{
				"x": 4.8823304613,
				"y": -0.05583395,
				"z": -3.3878997299,
				"element": "H" 
			},
			{
				"x": 3.8761170052,
				"y": -0.0818989051,
				"z": -4.8349556913,
				"element": "H" 
			},
			{
				"x": 3.907606933,
				"y": 2.5235153172,
				"z": -3.8136903339,
				"element": "H" 
			},
			{
				"x": 2.3374386649,
				"y": 4.1277726772,
				"z": -2.7620891364,
				"element": "H" 
			},
			{
				"x": -0.4156599444,
				"y": 3.0180755171,
				"z": -0.871072409,
				"element": "H" 
			},
			{
				"x": 1.6607195733,
				"y": -0.7533035668,
				"z": -2.2304705627,
				"element": "H" 
			},
			{
				"x": 0.4281999507,
				"y": -1.2190270525,
				"z": -0.3318964983,
				"element": "H" 
			},
			{
				"x": -0.6480829453,
				"y": -1.2115689282,
				"z": -1.7299868601,
				"element": "H" 
			},
			{
				"x": 0.3993820433,
				"y": -0.177274737,
				"z": 1.7022191605,
				"element": "H" 
			},
			{
				"x": 0.4134945741,
				"y": -0.0036343615,
				"z": 4.1576569731,
				"element": "H" 
			},
			{
				"x": -1.5986697167,
				"y": -0.6388030716,
				"z": 5.467606851,
				"element": "H" 
			},
			{
				"x": -3.6359414843,
				"y": -1.4519172259,
				"z": 4.2973535697,
				"element": "H" 
			},
			{
				"x": -3.6412329194,
				"y": -1.6303734133,
				"z": 1.804980492,
				"element": "H" 
			}
		],
		 "valence_orbital": [ 
			{
				"type": "occ",
				"energy": -0.2686,
				"method": "rhf"
			},
			{
				"type": "occ",
				"energy": -0.26067,
				"method": "rhf"
			},
			{
				"type": "occ",
				"energy": -0.25766,
				"method": "rhf"
			},
			{
				"type": "occ",
				"energy": -0.25127,
				"method": "rhf"
			},
			{
				"type": "occ",
				"energy": -0.22529,
				"method": "rhf"
			},
			{
				"type": "unocc",
				"energy": -0.06845,
				"method": "rhf"
			},
			{
				"type": "unocc",
				"energy": -0.05819,
				"method": "rhf"
			},
			{
				"type": "unocc",
				"energy": -0.00939,
				"method": "rhf"
			},
			{
				"type": "unocc",
				"energy": 0.00142,
				"method": "rhf"
			},
			{
				"type": "unocc",
				"energy": 0.02667,
				"method": "rhf"
			}
		],
		"cosmo_sigma_profile": { 
			"-0.025": 0.0,
			"-0.024": 0.0,
			"-0.023": 0.0,
			"-0.022": 0.0,
			"-0.021": 0.0,
			"-0.02": 0.0,
			"-0.019": 0.0,
			"-0.018": 0.0,
			"-0.017": 0.0,
			"-0.016": 0.0,
			"-0.015": 0.0,
			"-0.014": 0.0,
			"-0.013": 0.0,
			"-0.012": 0.0,
			"-0.011": 0.0,
			"-0.01": 0.247124935703,
			"-0.009": 1.4347861974,
			"-0.008": 4.81789062149,
			"-0.007": 12.084306959,
			"-0.006": 18.4201266445,
			"-0.005": 20.3493412709,
			"-0.004": 25.1904885972,
			"-0.003": 23.1113194417,
			"-0.002": 20.0905366769,
			"-0.001": 20.4031719099,
			"0.0": 21.487026991,
			"0.001": 19.1403957315,
			"0.002": 21.5697279554,
			"0.003": 22.6101713225,
			"0.004": 24.8681563824,
			"0.005": 6.91085217635,
			"0.006": 5.4080536985,
			"0.007": 3.79302442507,
			"0.008": 5.97202855142,
			"0.009": 4.90755299162,
			"0.01": 5.83705527809,
			"0.011": 5.3464640477,
			"0.012": 3.32378774698,
			"0.013": 0.49650334181,
			"0.014": 0.0,
			"0.015": 0.0,
			"0.016": 0.0,
			"0.017": 0.0,
			"0.018": 0.0,
			"0.019": 0.0,
			"0.02": 0.0,
			"0.021": 0.0,
			"0.022": 0.0,
			"0.023": 0.0,
			"0.024": 0.0,
			"0.025": 0.0
		}
	}
}
