{
	 "smiles": "CN1C(C2=CC=CC=C2)C(C(O)=O)=C(C)N(C)C1=O", 
	 "Tm": 438.15, 
	 "num_atms": 35, 
	 "gaussian": { 
		 "optdone": 1, 
		 "sigma_profile": "yes", 
		 "theory": "DFT", 
		 "functional": "B3LYP", 
		 "basiset": "6-31G**", 
		 "properties": { 
			 "R2extent": 5101.063, 
			 "electric_dipole_moment_norm": 3.40205444107, 
			 "electric_quadrupole_moment_norm": 23.3214251724, 
			 "total_energy": -878.326957293, 
			 "HOMO_LUMO_gap": 0.18008, 
			 "cosmo_polarized_energy": -19.3, 
			 "cosmo_cavitation_energy": 36.36, 
			 "cosmo_dispersion_energy": -25.54, 
			 "cosmo_repulsion_energy": 1.95, 
			 "cosmo_total_nonelectrostatic_energy": 12.76, 
			 "SMD_solvation_energy": 7.49 
		},
		"coords": [
			{
				"x": -0.8057178395,
				"y": -2.4768691894,
				"z": 3.0044720267,
				"element": "C" 
			},
			{
				"x": -1.0613275917,
				"y": -1.7508515906,
				"z": 1.7660371129,
				"element": "N" 
			},
			{
				"x": -0.8884107302,
				"y": -0.2972615831,
				"z": 1.7683442466,
				"element": "C" 
			},
			{
				"x": 0.5776709797,
				"y": 0.1427809112,
				"z": 1.5907188185,
				"element": "C" 
			},
			{
				"x": 1.5811153467,
				"y": -0.7490274711,
				"z": 1.193304522,
				"element": "C" 
			},
			{
				"x": 2.8996210592,
				"y": -0.3120660423,
				"z": 1.0351871719,
				"element": "C" 
			},
			{
				"x": 3.2329874257,
				"y": 1.0199126477,
				"z": 1.2742271498,
				"element": "C" 
			},
			{
				"x": 2.2379599409,
				"y": 1.9140368931,
				"z": 1.6776273979,
				"element": "C" 
			},
			{
				"x": 0.922676303,
				"y": 1.480979556,
				"z": 1.8369436003,
				"element": "C" 
			},
			{
				"x": -1.8232769653,
				"y": 0.2758334682,
				"z": 0.7123886397,
				"element": "C" 
			},
			{
				"x": -2.5403196394,
				"y": 1.5096916903,
				"z": 1.0884270809,
				"element": "C" 
			},
			{
				"x": -3.7244915404,
				"y": 1.7941544108,
				"z": 0.4625759813,
				"element": "O" 
			},
			{
				"x": -2.156254481,
				"y": 2.2641836541,
				"z": 1.9603512184,
				"element": "O" 
			},
			{
				"x": -1.9042133856,
				"y": -0.39507434,
				"z": -0.4736413188,
				"element": "C" 
			},
			{
				"x": -2.5371457924,
				"y": 0.1363560251,
				"z": -1.7368100615,
				"element": "C" 
			},
			{
				"x": -1.3246354747,
				"y": -1.6578940399,
				"z": -0.568718821,
				"element": "N" 
			},
			{
				"x": -1.177288662,
				"y": -2.3453041019,
				"z": -1.8537200369,
				"element": "C" 
			},
			{
				"x": -1.0643081447,
				"y": -2.4440088789,
				"z": 0.589633457,
				"element": "C" 
			},
			{
				"x": -0.8832852982,
				"y": -3.6541576869,
				"z": 0.4995560852,
				"element": "O" 
			},
			{
				"x": -1.0022853051,
				"y": -3.5341794557,
				"z": 2.8354218695,
				"element": "H" 
			},
			{
				"x": 0.2347693334,
				"y": -2.3559740715,
				"z": 3.3296438908,
				"element": "H" 
			},
			{
				"x": -1.4652922533,
				"y": -2.0965301554,
				"z": 3.7908505686,
				"element": "H" 
			},
			{
				"x": -1.2270981241,
				"y": 0.064640876,
				"z": 2.7430552325,
				"element": "H" 
			},
			{
				"x": 1.3506466922,
				"y": -1.7945088967,
				"z": 1.0159592901,
				"element": "H" 
			},
			{
				"x": 3.6645279444,
				"y": -1.0199817133,
				"z": 0.7279604829,
				"element": "H" 
			},
			{
				"x": 4.2581288124,
				"y": 1.3583412366,
				"z": 1.1530571861,
				"element": "H" 
			},
			{
				"x": 2.4868315902,
				"y": 2.9534968957,
				"z": 1.8731780444,
				"element": "H" 
			},
			{
				"x": 0.1484532538,
				"y": 2.1763442113,
				"z": 2.1444923963,
				"element": "H" 
			},
			{
				"x": -4.0513484927,
				"y": 1.0043928241,
				"z": 0.0121234163,
				"element": "H" 
			},
			{
				"x": -2.8421923507,
				"y": 1.1745268519,
				"z": -1.6219924176,
				"element": "H" 
			},
			{
				"x": -3.4009928254,
				"y": -0.4629650474,
				"z": -2.0499545448,
				"element": "H" 
			},
			{
				"x": -1.8158543521,
				"y": 0.1012562825,
				"z": -2.5585757489,
				"element": "H" 
			},
			{
				"x": -2.1434471997,
				"y": -2.513073782,
				"z": -2.3398852137,
				"element": "H" 
			},
			{
				"x": -0.5315494903,
				"y": -1.7723039313,
				"z": -2.5249291687,
				"element": "H" 
			},
			{
				"x": -0.7241527434,
				"y": -3.3120964573,
				"z": -1.6481095547,
				"element": "H" 
			}
		],
		 "valence_orbital": [ 
			{
				"type": "occ",
				"energy": -0.27358,
				"method": "rhf"
			},
			{
				"type": "occ",
				"energy": -0.24977,
				"method": "rhf"
			},
			{
				"type": "occ",
				"energy": -0.24635,
				"method": "rhf"
			},
			{
				"type": "occ",
				"energy": -0.24245,
				"method": "rhf"
			},
			{
				"type": "occ",
				"energy": -0.22693,
				"method": "rhf"
			},
			{
				"type": "unocc",
				"energy": -0.04685,
				"method": "rhf"
			},
			{
				"type": "unocc",
				"energy": 0.00014,
				"method": "rhf"
			},
			{
				"type": "unocc",
				"energy": 0.00278,
				"method": "rhf"
			},
			{
				"type": "unocc",
				"energy": 0.04258,
				"method": "rhf"
			},
			{
				"type": "unocc",
				"energy": 0.05645,
				"method": "rhf"
			}
		],
		"cosmo_sigma_profile": { 
			"-0.025": 0.0,
			"-0.024": 0.0,
			"-0.023": 0.0,
			"-0.022": 0.0,
			"-0.021": 0.0,
			"-0.02": 0.0,
			"-0.019": 0.0,
			"-0.018": 0.069993882466,
			"-0.017": 0.641657512887,
			"-0.016": 1.05697378873,
			"-0.015": 0.760388146685,
			"-0.014": 0.599941734658,
			"-0.013": 1.11601230402,
			"-0.012": 1.38968025703,
			"-0.011": 0.694484570189,
			"-0.01": 0.910233385244,
			"-0.009": 1.19525972661,
			"-0.008": 1.84967719338,
			"-0.007": 7.02896433923,
			"-0.006": 14.7734997232,
			"-0.005": 21.9580056881,
			"-0.004": 27.4865913278,
			"-0.003": 33.0233852678,
			"-0.002": 28.0670223307,
			"-0.001": 19.4326069865,
			"0.0": 13.1305454063,
			"0.001": 12.3304603577,
			"0.002": 14.1521989788,
			"0.003": 13.7659265716,
			"0.004": 12.5098681324,
			"0.005": 11.4047968838,
			"0.006": 11.5639723225,
			"0.007": 5.16268246529,
			"0.008": 3.16287972121,
			"0.009": 3.50028666036,
			"0.01": 5.32841703262,
			"0.011": 5.9367419841,
			"0.012": 5.69769176022,
			"0.013": 7.2624730589,
			"0.014": 1.41069530503,
			"0.015": 0.0,
			"0.016": 0.0,
			"0.017": 0.0,
			"0.018": 0.0,
			"0.019": 0.0,
			"0.02": 0.0,
			"0.021": 0.0,
			"0.022": 0.0,
			"0.023": 0.0,
			"0.024": 0.0,
			"0.025": 0.0
		}
	}
}
