{
	 "smiles": "CC(C)(C)C1=CC(=CC=C1)C(C)(C)C", 
	 "Tm": 283.15, 
	 "num_atms": 36, 
	 "gaussian": { 
		 "optdone": 1, 
		 "sigma_profile": "yes", 
		 "theory": "DFT", 
		 "functional": "B3LYP", 
		 "basiset": "6-31G**", 
		 "properties": { 
			 "R2extent": 3890.8494, 
			 "electric_dipole_moment_norm": 0.268295452813, 
			 "electric_quadrupole_moment_norm": 4.75875127843, 
			 "total_energy": -546.779033024, 
			 "HOMO_LUMO_gap": 0.23548, 
			 "cosmo_polarized_energy": -3.48, 
			 "cosmo_cavitation_energy": 35.03, 
			 "cosmo_dispersion_energy": -23.96, 
			 "cosmo_repulsion_energy": 1.87, 
			 "cosmo_total_nonelectrostatic_energy": 12.94, 
			 "SMD_solvation_energy": 6.22 
		},
		"coords": [
			{
				"x": 2.5037627144,
				"y": 1.7186317516,
				"z": 2.1955666807,
				"element": "C" 
			},
			{
				"x": 1.8235348591,
				"y": 1.8887804791,
				"z": 0.8160968042,
				"element": "C" 
			},
			{
				"x": 1.741376778,
				"y": 3.3958742529,
				"z": 0.5072412405,
				"element": "C" 
			},
			{
				"x": 2.6996245172,
				"y": 1.2235726069,
				"z": -0.2722529552,
				"element": "C" 
			},
			{
				"x": 0.4352414257,
				"y": 1.2202555455,
				"z": 0.8400299054,
				"element": "C" 
			},
			{
				"x": 0.334500742,
				"y": -0.1582711177,
				"z": 1.1078949414,
				"element": "C" 
			},
			{
				"x": -0.8864600254,
				"y": -0.8391859083,
				"z": 1.1476005331,
				"element": "C" 
			},
			{
				"x": -2.0538301009,
				"y": -0.0933021807,
				"z": 0.9061338752,
				"element": "C" 
			},
			{
				"x": -1.9827472403,
				"y": 1.2686116308,
				"z": 0.6392402405,
				"element": "C" 
			},
			{
				"x": -0.7491576556,
				"y": 1.924974623,
				"z": 0.6053739294,
				"element": "C" 
			},
			{
				"x": -0.9908425637,
				"y": -2.3483021788,
				"z": 1.4411049658,
				"element": "C" 
			},
			{
				"x": -1.6579078121,
				"y": -3.0603690015,
				"z": 0.2400007476,
				"element": "C" 
			},
			{
				"x": 0.3837960477,
				"y": -3.0011771783,
				"z": 1.6799736703,
				"element": "C" 
			},
			{
				"x": -1.8523694263,
				"y": -2.5670822354,
				"z": 2.7078341409,
				"element": "C" 
			},
			{
				"x": 3.4951672425,
				"y": 2.1861071311,
				"z": 2.1930732767,
				"element": "H" 
			},
			{
				"x": 1.9085407117,
				"y": 2.1886073547,
				"z": 2.985433836,
				"element": "H" 
			},
			{
				"x": 2.6338801783,
				"y": 0.6648176409,
				"z": 2.4588844495,
				"element": "H" 
			},
			{
				"x": 1.2946930223,
				"y": 3.5870559257,
				"z": -0.4740332477,
				"element": "H" 
			},
			{
				"x": 1.1568504455,
				"y": 3.9348911738,
				"z": 1.2600752302,
				"element": "H" 
			},
			{
				"x": 2.7479804651,
				"y": 3.8267426861,
				"z": 0.5008435508,
				"element": "H" 
			},
			{
				"x": 3.6928146412,
				"y": 1.6864624481,
				"z": -0.2990667863,
				"element": "H" 
			},
			{
				"x": 2.8363917478,
				"y": 0.1539009746,
				"z": -0.0882148625,
				"element": "H" 
			},
			{
				"x": 2.245495595,
				"y": 1.3361586332,
				"z": -1.2622772282,
				"element": "H" 
			},
			{
				"x": 1.2478235726,
				"y": -0.7117021402,
				"z": 1.2909866879,
				"element": "H" 
			},
			{
				"x": -3.0254610086,
				"y": -0.5781518557,
				"z": 0.9264070519,
				"element": "H" 
			},
			{
				"x": -2.8946112722,
				"y": 1.83058227,
				"z": 0.4547227502,
				"element": "H" 
			},
			{
				"x": -0.7277294485,
				"y": 2.9878421444,
				"z": 0.3943154203,
				"element": "H" 
			},
			{
				"x": -1.7483919446,
				"y": -4.1352041384,
				"z": 0.4347973681,
				"element": "H" 
			},
			{
				"x": -2.6615461861,
				"y": -2.6724004524,
				"z": 0.0428402068,
				"element": "H" 
			},
			{
				"x": -1.0648808835,
				"y": -2.9288786459,
				"z": -0.6710918226,
				"element": "H" 
			},
			{
				"x": 0.2538390522,
				"y": -4.0690515072,
				"z": 1.8840906935,
				"element": "H" 
			},
			{
				"x": 1.0364689746,
				"y": -2.9103171319,
				"z": 0.8054130676,
				"element": "H" 
			},
			{
				"x": 0.900324737,
				"y": -2.5621580582,
				"z": 2.5399455824,
				"element": "H" 
			},
			{
				"x": -2.8621667447,
				"y": -2.1637419247,
				"z": 2.5881576332,
				"element": "H" 
			},
			{
				"x": -1.3997018608,
				"y": -2.0795858358,
				"z": 3.5776071078,
				"element": "H" 
			},
			{
				"x": -1.9447032966,
				"y": -3.6369877814,
				"z": 2.927351315,
				"element": "H" 
			}
		],
		 "valence_orbital": [ 
			{
				"type": "occ",
				"energy": -0.31978,
				"method": "rhf"
			},
			{
				"type": "occ",
				"energy": -0.3053,
				"method": "rhf"
			},
			{
				"type": "occ",
				"energy": -0.30302,
				"method": "rhf"
			},
			{
				"type": "occ",
				"energy": -0.23583,
				"method": "rhf"
			},
			{
				"type": "occ",
				"energy": -0.22959,
				"method": "rhf"
			},
			{
				"type": "unocc",
				"energy": 0.00589,
				"method": "rhf"
			},
			{
				"type": "unocc",
				"energy": 0.00929,
				"method": "rhf"
			},
			{
				"type": "unocc",
				"energy": 0.07752,
				"method": "rhf"
			},
			{
				"type": "unocc",
				"energy": 0.09394,
				"method": "rhf"
			},
			{
				"type": "unocc",
				"energy": 0.11588,
				"method": "rhf"
			}
		],
		"cosmo_sigma_profile": { 
			"-0.025": 0.0,
			"-0.024": 0.0,
			"-0.023": 0.0,
			"-0.022": 0.0,
			"-0.021": 0.0,
			"-0.02": 0.0,
			"-0.019": 0.0,
			"-0.018": 0.0,
			"-0.017": 0.0,
			"-0.016": 0.0,
			"-0.015": 0.0,
			"-0.014": 0.0,
			"-0.013": 0.0,
			"-0.012": 0.0,
			"-0.011": 0.0,
			"-0.01": 0.0,
			"-0.009": 0.0,
			"-0.008": 0.0,
			"-0.007": 0.0,
			"-0.006": 0.0470127231908,
			"-0.005": 3.86484618093,
			"-0.004": 10.9823694432,
			"-0.003": 26.5420185207,
			"-0.002": 49.1081935865,
			"-0.001": 36.7783744593,
			"0.0": 34.9040958902,
			"0.001": 46.7349857236,
			"0.002": 26.8762610717,
			"0.003": 7.65395677105,
			"0.004": 7.5447484976,
			"0.005": 5.71121552368,
			"0.006": 6.91863398044,
			"0.007": 6.49359407754,
			"0.008": 0.998789065401,
			"0.009": 0.0,
			"0.01": 0.0,
			"0.011": 0.0,
			"0.012": 0.0,
			"0.013": 0.0,
			"0.014": 0.0,
			"0.015": 0.0,
			"0.016": 0.0,
			"0.017": 0.0,
			"0.018": 0.0,
			"0.019": 0.0,
			"0.02": 0.0,
			"0.021": 0.0,
			"0.022": 0.0,
			"0.023": 0.0,
			"0.024": 0.0,
			"0.025": 0.0
		}
	}
}
