{
	 "smiles": "FC1=CC=CC=C1N1CCNCC1", 
	 "Tm": 319.15, 
	 "num_atms": 26, 
	 "gaussian": { 
		 "optdone": 1, 
		 "sigma_profile": "yes", 
		 "theory": "DFT", 
		 "functional": "B3LYP", 
		 "basiset": "6-31G**", 
		 "properties": { 
			 "R2extent": 2738.3644, 
			 "electric_dipole_moment_norm": 2.11642872311, 
			 "electric_quadrupole_moment_norm": 4.64757655881, 
			 "total_energy": -598.217872084, 
			 "HOMO_LUMO_gap": 0.19314, 
			 "cosmo_polarized_energy": -7.12, 
			 "cosmo_cavitation_energy": 27.34, 
			 "cosmo_dispersion_energy": -20.44, 
			 "cosmo_repulsion_energy": 1.58, 
			 "cosmo_total_nonelectrostatic_energy": 8.49, 
			 "SMD_solvation_energy": 1.36 
		},
		"coords": [
			{
				"x": -1.8557575062,
				"y": 0.4991350193,
				"z": 2.7636662192,
				"element": "F" 
			},
			{
				"x": -1.8307541866,
				"y": 0.6603428124,
				"z": 1.4140882972,
				"element": "C" 
			},
			{
				"x": -2.9969718342,
				"y": 1.0737184837,
				"z": 0.7938236036,
				"element": "C" 
			},
			{
				"x": -3.0052825898,
				"y": 1.3031075026,
				"z": -0.5843444637,
				"element": "C" 
			},
			{
				"x": -1.8312446284,
				"y": 1.0991467103,
				"z": -1.3057301673,
				"element": "C" 
			},
			{
				"x": -0.6704768907,
				"y": 0.6547913559,
				"z": -0.6698147863,
				"element": "C" 
			},
			{
				"x": -0.6261350568,
				"y": 0.4155382557,
				"z": 0.718689989,
				"element": "C" 
			},
			{
				"x": 0.5349659134,
				"y": 0.0428400055,
				"z": 1.4105986801,
				"element": "N" 
			},
			{
				"x": 1.8416072896,
				"y": 0.147472053,
				"z": 0.762517026,
				"element": "C" 
			},
			{
				"x": 2.2754919575,
				"y": -1.1631680011,
				"z": 0.0894612129,
				"element": "C" 
			},
			{
				"x": 2.2569108842,
				"y": -2.2268728398,
				"z": 1.0959728211,
				"element": "N" 
			},
			{
				"x": 0.9222379639,
				"y": -2.3927097205,
				"z": 1.6767573288,
				"element": "C" 
			},
			{
				"x": 0.5027274425,
				"y": -1.0836107303,
				"z": 2.3568275408,
				"element": "C" 
			},
			{
				"x": -3.8761008931,
				"y": 1.2359884994,
				"z": 1.4089498769,
				"element": "H" 
			},
			{
				"x": -3.9127134111,
				"y": 1.63741726,
				"z": -1.0764507514,
				"element": "H" 
			},
			{
				"x": -1.8128139355,
				"y": 1.2692138369,
				"z": -2.3783120508,
				"element": "H" 
			},
			{
				"x": 0.2162564556,
				"y": 0.4774229822,
				"z": -1.2669257835,
				"element": "H" 
			},
			{
				"x": 1.8361547762,
				"y": 0.9784267968,
				"z": 0.0536495677,
				"element": "H" 
			},
			{
				"x": 2.5756757395,
				"y": 0.38303295,
				"z": 1.544473152,
				"element": "H" 
			},
			{
				"x": 1.6100829339,
				"y": -1.373106973,
				"z": -0.7690243392,
				"element": "H" 
			},
			{
				"x": 3.2953923189,
				"y": -1.0574373911,
				"z": -0.2984744917,
				"element": "H" 
			},
			{
				"x": 2.5690086076,
				"y": -3.1011976837,
				"z": 0.6835759393,
				"element": "H" 
			},
			{
				"x": 0.1547909486,
				"y": -2.6631690742,
				"z": 0.9260934179,
				"element": "H" 
			},
			{
				"x": 0.9575040961,
				"y": -3.1967099019,
				"z": 2.421066181,
				"element": "H" 
			},
			{
				"x": 1.2089623177,
				"y": -0.8661225677,
				"z": 3.1683572322,
				"element": "H" 
			},
			{
				"x": -0.4912187126,
				"y": -1.1747896402,
				"z": 2.7892087482,
				"element": "H" 
			}
		],
		 "valence_orbital": [ 
			{
				"type": "occ",
				"energy": -0.33009,
				"method": "rhf"
			},
			{
				"type": "occ",
				"energy": -0.27581,
				"method": "rhf"
			},
			{
				"type": "occ",
				"energy": -0.2404,
				"method": "rhf"
			},
			{
				"type": "occ",
				"energy": -0.2275,
				"method": "rhf"
			},
			{
				"type": "occ",
				"energy": -0.18872,
				"method": "rhf"
			},
			{
				"type": "unocc",
				"energy": 0.00442,
				"method": "rhf"
			},
			{
				"type": "unocc",
				"energy": 0.01285,
				"method": "rhf"
			},
			{
				"type": "unocc",
				"energy": 0.08393,
				"method": "rhf"
			},
			{
				"type": "unocc",
				"energy": 0.0859,
				"method": "rhf"
			},
			{
				"type": "unocc",
				"energy": 0.11554,
				"method": "rhf"
			}
		],
		"cosmo_sigma_profile": { 
			"-0.025": 0.0,
			"-0.024": 0.0,
			"-0.023": 0.0,
			"-0.022": 0.0,
			"-0.021": 0.0,
			"-0.02": 0.0,
			"-0.019": 0.0,
			"-0.018": 0.0,
			"-0.017": 0.0,
			"-0.016": 0.0,
			"-0.015": 0.0,
			"-0.014": 0.0,
			"-0.013": 0.0,
			"-0.012": 0.0,
			"-0.011": 0.0477320525859,
			"-0.01": 1.24831492012,
			"-0.009": 1.14780994904,
			"-0.008": 1.16949807187,
			"-0.007": 1.84190239345,
			"-0.006": 6.60843712375,
			"-0.005": 10.4019588688,
			"-0.004": 18.4166374151,
			"-0.003": 26.2511916932,
			"-0.002": 26.5937572549,
			"-0.001": 24.3636534815,
			"0.0": 14.7636214128,
			"0.001": 8.67715147743,
			"0.002": 12.6720328223,
			"0.003": 11.9125925313,
			"0.004": 15.3377618271,
			"0.005": 14.1355340821,
			"0.006": 9.18888054269,
			"0.007": 2.6809735511,
			"0.008": 1.556431491,
			"0.009": 1.22649958848,
			"0.01": 1.39580220106,
			"0.011": 0.594441136377,
			"0.012": 0.356921513883,
			"0.013": 0.261294615538,
			"0.014": 0.600604464123,
			"0.015": 0.679049502745,
			"0.016": 0.312154630716,
			"0.017": 0.577134857352,
			"0.018": 0.199529358864,
			"0.019": 0.0481175287804,
			"0.02": 0.0,
			"0.021": 0.0,
			"0.022": 0.0,
			"0.023": 0.0,
			"0.024": 0.0,
			"0.025": 0.0
		}
	}
}
