{
	 "smiles": "OC(=O)CN1C(=O)COC2=C1C=CC=C2", 
	 "Tm": 503.15, 
	 "num_atms": 24, 
	 "gaussian": { 
		 "optdone": 1, 
		 "sigma_profile": "yes", 
		 "theory": "DFT", 
		 "functional": "B3LYP", 
		 "basiset": "6-31G**", 
		 "properties": { 
			 "R2extent": 3626.0783, 
			 "electric_dipole_moment_norm": 4.15905626555, 
			 "electric_quadrupole_moment_norm": 7.13868100632, 
			 "total_energy": -742.149059291, 
			 "HOMO_LUMO_gap": 0.1947, 
			 "cosmo_polarized_energy": -14.03, 
			 "cosmo_cavitation_energy": 27.67, 
			 "cosmo_dispersion_energy": -20.59, 
			 "cosmo_repulsion_energy": 1.58, 
			 "cosmo_total_nonelectrostatic_energy": 8.66, 
			 "SMD_solvation_energy": 6.32 
		},
		"coords": [
			{
				"x": 0.9307383232,
				"y": -2.2341442554,
				"z": -1.1770808426,
				"element": "O" 
			},
			{
				"x": 0.0130490122,
				"y": -1.7559002043,
				"z": -0.3254019427,
				"element": "C" 
			},
			{
				"x": -1.1753843114,
				"y": -1.8478870078,
				"z": -0.5250732765,
				"element": "O" 
			},
			{
				"x": 0.5901010313,
				"y": -1.0786998904,
				"z": 0.9290534317,
				"element": "C" 
			},
			{
				"x": 1.3234147303,
				"y": 0.1570034195,
				"z": 0.6256495699,
				"element": "N" 
			},
			{
				"x": 2.6158793898,
				"y": 0.0498112665,
				"z": 0.2064635559,
				"element": "C" 
			},
			{
				"x": 3.1447502595,
				"y": -1.0360181622,
				"z": -0.054042819,
				"element": "O" 
			},
			{
				"x": 3.3627770963,
				"y": 1.3625461238,
				"z": 0.0450742884,
				"element": "C" 
			},
			{
				"x": 2.8972188979,
				"y": 2.3845126418,
				"z": 0.9205285761,
				"element": "O" 
			},
			{
				"x": 1.5338315631,
				"y": 2.549814862,
				"z": 0.8973426709,
				"element": "C" 
			},
			{
				"x": 0.6993574356,
				"y": 1.4325219482,
				"z": 0.7315022282,
				"element": "C" 
			},
			{
				"x": -0.6870675917,
				"y": 1.5998580709,
				"z": 0.6961665996,
				"element": "C" 
			},
			{
				"x": -1.231260034,
				"y": 2.8735804989,
				"z": 0.875533344,
				"element": "C" 
			},
			{
				"x": -0.3990776939,
				"y": 3.9753205741,
				"z": 1.0775276012,
				"element": "C" 
			},
			{
				"x": 0.9882731918,
				"y": 3.8165829456,
				"z": 1.0762973773,
				"element": "C" 
			},
			{
				"x": 1.8347309753,
				"y": -2.0335388778,
				"z": -0.8409279304,
				"element": "H" 
			},
			{
				"x": 1.2905993992,
				"y": -1.7612357966,
				"z": 1.4201484973,
				"element": "H" 
			},
			{
				"x": -0.2255363577,
				"y": -0.8467089426,
				"z": 1.6106314833,
				"element": "H" 
			},
			{
				"x": 3.2857790662,
				"y": 1.683980584,
				"z": -1.0057141756,
				"element": "H" 
			},
			{
				"x": 4.4133774804,
				"y": 1.1865129038,
				"z": 0.2777954201,
				"element": "H" 
			},
			{
				"x": -1.3328978927,
				"y": 0.7476236737,
				"z": 0.5113938006,
				"element": "H" 
			},
			{
				"x": -2.3087864643,
				"y": 2.9988241225,
				"z": 0.8504328067,
				"element": "H" 
			},
			{
				"x": -0.8252974715,
				"y": 4.9636389653,
				"z": 1.2175381447,
				"element": "H" 
			},
			{
				"x": 1.6604299649,
				"y": 4.6568005364,
				"z": 1.2144615909,
				"element": "H" 
			}
		],
		 "valence_orbital": [ 
			{
				"type": "occ",
				"energy": -0.31285,
				"method": "rhf"
			},
			{
				"type": "occ",
				"energy": -0.29348,
				"method": "rhf"
			},
			{
				"type": "occ",
				"energy": -0.27489,
				"method": "rhf"
			},
			{
				"type": "occ",
				"energy": -0.25742,
				"method": "rhf"
			},
			{
				"type": "occ",
				"energy": -0.23368,
				"method": "rhf"
			},
			{
				"type": "unocc",
				"energy": -0.03898,
				"method": "rhf"
			},
			{
				"type": "unocc",
				"energy": -0.01748,
				"method": "rhf"
			},
			{
				"type": "unocc",
				"energy": -0.00075,
				"method": "rhf"
			},
			{
				"type": "unocc",
				"energy": 0.00472,
				"method": "rhf"
			},
			{
				"type": "unocc",
				"energy": 0.0736,
				"method": "rhf"
			}
		],
		"cosmo_sigma_profile": { 
			"-0.025": 0.0,
			"-0.024": 0.0,
			"-0.023": 0.0,
			"-0.022": 0.0,
			"-0.021": 0.0,
			"-0.02": 0.0,
			"-0.019": 0.0,
			"-0.018": 0.0,
			"-0.017": 0.0,
			"-0.016": 0.0,
			"-0.015": 0.0,
			"-0.014": 0.0,
			"-0.013": 0.0,
			"-0.012": 0.0,
			"-0.011": 0.0,
			"-0.01": 0.396186449061,
			"-0.009": 4.58133605125,
			"-0.008": 8.89955646005,
			"-0.007": 12.4853568812,
			"-0.006": 17.675808544,
			"-0.005": 18.2213172661,
			"-0.004": 18.0503727483,
			"-0.003": 12.0069808464,
			"-0.002": 10.8229864997,
			"-0.001": 11.6101079149,
			"0.0": 10.4761090293,
			"0.001": 11.3732489553,
			"0.002": 10.5739221434,
			"0.003": 13.2789422368,
			"0.004": 13.0825312078,
			"0.005": 7.82950569418,
			"0.006": 3.62785392638,
			"0.007": 4.34039746749,
			"0.008": 5.9998978034,
			"0.009": 5.71096367973,
			"0.01": 7.35362303897,
			"0.011": 7.09047065496,
			"0.012": 4.92607044623,
			"0.013": 1.02017263901,
			"0.014": 0.0,
			"0.015": 0.0,
			"0.016": 0.0,
			"0.017": 0.0,
			"0.018": 0.0,
			"0.019": 0.0,
			"0.02": 0.0,
			"0.021": 0.0,
			"0.022": 0.0,
			"0.023": 0.0,
			"0.024": 0.0,
			"0.025": 0.0
		}
	}
}
