{
	 "smiles": "OC(=O)C1=CC(=CC=C1)N1C=CC(=N1)C(F)(F)F", 
	 "Tm": 433.15, 
	 "num_atms": 25, 
	 "gaussian": { 
		 "optdone": 1, 
		 "sigma_profile": "yes", 
		 "theory": "DFT", 
		 "functional": "B3LYP", 
		 "basiset": "6-31G**", 
		 "properties": { 
			 "R2extent": 6740.7067, 
			 "electric_dipole_moment_norm": 1.34783034912, 
			 "electric_quadrupole_moment_norm": 35.8481034148, 
			 "total_energy": -982.847860761, 
			 "HOMO_LUMO_gap": 0.19063, 
			 "cosmo_polarized_energy": -18.18, 
			 "cosmo_cavitation_energy": 32.52, 
			 "cosmo_dispersion_energy": -23.0, 
			 "cosmo_repulsion_energy": 1.7, 
			 "cosmo_total_nonelectrostatic_energy": 11.22, 
			 "SMD_solvation_energy": 7.52 
		},
		"coords": [
			{
				"x": 1.0697624682,
				"y": -3.6465124196,
				"z": 1.479504957,
				"element": "O" 
			},
			{
				"x": -0.1626567725,
				"y": -3.2307337711,
				"z": 1.879430744,
				"element": "C" 
			},
			{
				"x": -0.9391262989,
				"y": -4.0149183304,
				"z": 2.3686000775,
				"element": "O" 
			},
			{
				"x": -0.4835712097,
				"y": -1.7788828471,
				"z": 1.6721610707,
				"element": "C" 
			},
			{
				"x": 0.1437362366,
				"y": -1.009942918,
				"z": 0.6836906356,
				"element": "C" 
			},
			{
				"x": -0.2115846873,
				"y": 0.3307747573,
				"z": 0.5182442291,
				"element": "C" 
			},
			{
				"x": -1.1652716831,
				"y": 0.9185566323,
				"z": 1.3556484193,
				"element": "C" 
			},
			{
				"x": -1.7822269177,
				"y": 0.1464336476,
				"z": 2.3385343236,
				"element": "C" 
			},
			{
				"x": -1.4622244671,
				"y": -1.2012241018,
				"z": 2.4893848951,
				"element": "C" 
			},
			{
				"x": 0.3922430106,
				"y": 1.1096353065,
				"z": -0.5058386084,
				"element": "N" 
			},
			{
				"x": 0.9380752485,
				"y": 0.6792070172,
				"z": -1.6864508807,
				"element": "C" 
			},
			{
				"x": 1.3764339784,
				"y": 1.7989839234,
				"z": -2.3564498843,
				"element": "C" 
			},
			{
				"x": 1.0412612843,
				"y": 2.8683222962,
				"z": -1.4960900124,
				"element": "C" 
			},
			{
				"x": 0.4479758424,
				"y": 2.4537569057,
				"z": -0.381884038,
				"element": "N" 
			},
			{
				"x": 1.3261319774,
				"y": 4.3243248476,
				"z": -1.702411713,
				"element": "C" 
			},
			{
				"x": 1.6013051065,
				"y": 4.5621429816,
				"z": -3.0046514127,
				"element": "F" 
			},
			{
				"x": 2.3946514827,
				"y": 4.7345348735,
				"z": -0.985867079,
				"element": "F" 
			},
			{
				"x": 0.2852911239,
				"y": 5.0984950064,
				"z": -1.3471926695,
				"element": "F" 
			},
			{
				"x": 1.6402545861,
				"y": -2.8849615825,
				"z": 1.3055991511,
				"element": "H" 
			},
			{
				"x": 0.8879189297,
				"y": -1.4525955912,
				"z": 0.0290658459,
				"element": "H" 
			},
			{
				"x": -1.4101567132,
				"y": 1.9647609627,
				"z": 1.2193552529,
				"element": "H" 
			},
			{
				"x": -2.5279306511,
				"y": 0.6018599113,
				"z": 2.9824690005,
				"element": "H" 
			},
			{
				"x": -1.9494617193,
				"y": -1.8202113977,
				"z": 3.2342898265,
				"element": "H" 
			},
			{
				"x": 0.9371087987,
				"y": -0.3617148697,
				"z": -1.9697852601,
				"element": "H" 
			},
			{
				"x": 1.8489610458,
				"y": 1.8483087598,
				"z": -3.3246568704,
				"element": "H" 
			}
		],
		 "valence_orbital": [ 
			{
				"type": "occ",
				"energy": -0.31718,
				"method": "rhf"
			},
			{
				"type": "occ",
				"energy": -0.2917,
				"method": "rhf"
			},
			{
				"type": "occ",
				"energy": -0.28375,
				"method": "rhf"
			},
			{
				"type": "occ",
				"energy": -0.28018,
				"method": "rhf"
			},
			{
				"type": "occ",
				"energy": -0.25647,
				"method": "rhf"
			},
			{
				"type": "unocc",
				"energy": -0.06584,
				"method": "rhf"
			},
			{
				"type": "unocc",
				"energy": -0.05413,
				"method": "rhf"
			},
			{
				"type": "unocc",
				"energy": -0.00303,
				"method": "rhf"
			},
			{
				"type": "unocc",
				"energy": 0.02659,
				"method": "rhf"
			},
			{
				"type": "unocc",
				"energy": 0.03625,
				"method": "rhf"
			}
		],
		"cosmo_sigma_profile": { 
			"-0.025": 0.0,
			"-0.024": 0.0,
			"-0.023": 0.0,
			"-0.022": 0.0,
			"-0.021": 0.0,
			"-0.02": 0.0,
			"-0.019": 0.589749059999,
			"-0.018": 1.09006951066,
			"-0.017": 1.04644482259,
			"-0.016": 1.1026086562,
			"-0.015": 1.18708950914,
			"-0.014": 0.676935758679,
			"-0.013": 1.37951690629,
			"-0.012": 2.31423243709,
			"-0.011": 3.15567169591,
			"-0.01": 2.32154659513,
			"-0.009": 3.58724358941,
			"-0.008": 4.85188082219,
			"-0.007": 8.39396021391,
			"-0.006": 9.84975300538,
			"-0.005": 11.7732521571,
			"-0.004": 10.0349802252,
			"-0.003": 10.7889151288,
			"-0.002": 13.9537270192,
			"-0.001": 15.9088430986,
			"0.0": 17.5031962977,
			"0.001": 24.6462140666,
			"0.002": 37.6715352666,
			"0.003": 34.9844047182,
			"0.004": 5.68721283572,
			"0.005": 4.75977873437,
			"0.006": 4.44131340805,
			"0.007": 3.66648601074,
			"0.008": 3.97776255529,
			"0.009": 4.64374410517,
			"0.01": 5.96989553941,
			"0.011": 5.88251971583,
			"0.012": 3.90681298973,
			"0.013": 0.693563940074,
			"0.014": 0.0,
			"0.015": 0.0,
			"0.016": 0.0,
			"0.017": 0.0,
			"0.018": 0.0,
			"0.019": 0.0,
			"0.02": 0.0,
			"0.021": 0.0,
			"0.022": 0.0,
			"0.023": 0.0,
			"0.024": 0.0,
			"0.025": 0.0
		}
	}
}
