{
	 "smiles": "CC(C)(NC1=NC(Cl)=NC(NC2CC2)=N1)C#N", 
	 "Tm": 443.15, 
	 "num_atms": 30, 
	 "gaussian": { 
		 "optdone": 1, 
		 "sigma_profile": "yes", 
		 "theory": "DFT", 
		 "functional": "B3LYP", 
		 "basiset": "6-31G**", 
		 "properties": { 
			 "R2extent": 6260.604, 
			 "electric_dipole_moment_norm": 3.96994335224, 
			 "electric_quadrupole_moment_norm": 23.0125938962, 
			 "total_energy": -1177.58703613, 
			 "HOMO_LUMO_gap": 0.21721, 
			 "cosmo_polarized_energy": -17.53, 
			 "cosmo_cavitation_energy": 36.85, 
			 "cosmo_dispersion_energy": -24.77, 
			 "cosmo_repulsion_energy": 1.96, 
			 "cosmo_total_nonelectrostatic_energy": 14.04, 
			 "SMD_solvation_energy": 2.89 
		},
		"coords": [
			{
				"x": 0.0330637677,
				"y": -0.0806686541,
				"z": 2.1763150172,
				"element": "C" 
			},
			{
				"x": -0.8693570133,
				"y": -0.992589604,
				"z": 1.3172538942,
				"element": "C" 
			},
			{
				"x": -1.9723962218,
				"y": -1.6298273284,
				"z": 2.188382973,
				"element": "C" 
			},
			{
				"x": -0.1075203567,
				"y": -2.0903197419,
				"z": 0.7160868995,
				"element": "N" 
			},
			{
				"x": 0.843318539,
				"y": -1.9791114282,
				"z": -0.2526900957,
				"element": "C" 
			},
			{
				"x": 1.307332866,
				"y": -3.1555677231,
				"z": -0.7388289627,
				"element": "N" 
			},
			{
				"x": 2.222426369,
				"y": -2.9924608318,
				"z": -1.6799698826,
				"element": "C" 
			},
			{
				"x": 2.8886871326,
				"y": -4.4720275311,
				"z": -2.3539153215,
				"element": "Cl" 
			},
			{
				"x": 2.6964335097,
				"y": -1.8691755551,
				"z": -2.1833116524,
				"element": "N" 
			},
			{
				"x": 2.1514365504,
				"y": -0.7616779467,
				"z": -1.6175106542,
				"element": "C" 
			},
			{
				"x": 2.5831296288,
				"y": 0.4255218809,
				"z": -2.0996044869,
				"element": "N" 
			},
			{
				"x": 2.0108170221,
				"y": 1.6916106721,
				"z": -1.7375018398,
				"element": "C" 
			},
			{
				"x": 2.5741550002,
				"y": 2.452603954,
				"z": -0.5612411519,
				"element": "C" 
			},
			{
				"x": 2.8484273291,
				"y": 2.9178727654,
				"z": -1.9711567764,
				"element": "C" 
			},
			{
				"x": 1.2322108603,
				"y": -0.7606862744,
				"z": -0.6382918176,
				"element": "N" 
			},
			{
				"x": -1.5313691581,
				"y": -0.1745297662,
				"z": 0.2641175429,
				"element": "C" 
			},
			{
				"x": -2.0908726414,
				"y": 0.4748942875,
				"z": -0.5182460809,
				"element": "N" 
			},
			{
				"x": 0.816110678,
				"y": 0.3627482811,
				"z": 1.5618463418,
				"element": "H" 
			},
			{
				"x": -0.5623539251,
				"y": 0.7160136218,
				"z": 2.63118115,
				"element": "H" 
			},
			{
				"x": 0.4897460744,
				"y": -0.6805273768,
				"z": 2.9686646124,
				"element": "H" 
			},
			{
				"x": -2.6322727695,
				"y": -2.2620497462,
				"z": 1.5874300533,
				"element": "H" 
			},
			{
				"x": -2.5766103022,
				"y": -0.8524310156,
				"z": 2.6596023824,
				"element": "H" 
			},
			{
				"x": -1.5096302631,
				"y": -2.236040654,
				"z": 2.9731476955,
				"element": "H" 
			},
			{
				"x": -0.4358041546,
				"y": -3.0338834869,
				"z": 0.8651567487,
				"element": "H" 
			},
			{
				"x": 3.1794194601,
				"y": 0.3603202504,
				"z": -2.9127107793,
				"element": "H" 
			},
			{
				"x": 0.9380344842,
				"y": 1.7639871428,
				"z": -1.9012392453,
				"element": "H" 
			},
			{
				"x": 3.3917344139,
				"y": 1.9893917991,
				"z": -0.0188360161,
				"element": "H" 
			},
			{
				"x": 1.8798782877,
				"y": 3.0201564506,
				"z": 0.0501487067,
				"element": "H" 
			},
			{
				"x": 3.8538284313,
				"y": 2.7750756521,
				"z": -2.3577137662,
				"element": "H" 
			},
			{
				"x": 2.3499964013,
				"y": 3.8084779066,
				"z": -2.339565488,
				"element": "H" 
			}
		],
		 "valence_orbital": [ 
			{
				"type": "occ",
				"energy": -0.29314,
				"method": "rhf"
			},
			{
				"type": "occ",
				"energy": -0.27652,
				"method": "rhf"
			},
			{
				"type": "occ",
				"energy": -0.27277,
				"method": "rhf"
			},
			{
				"type": "occ",
				"energy": -0.26214,
				"method": "rhf"
			},
			{
				"type": "occ",
				"energy": -0.24325,
				"method": "rhf"
			},
			{
				"type": "unocc",
				"energy": -0.02604,
				"method": "rhf"
			},
			{
				"type": "unocc",
				"energy": -0.01262,
				"method": "rhf"
			},
			{
				"type": "unocc",
				"energy": 0.02836,
				"method": "rhf"
			},
			{
				"type": "unocc",
				"energy": 0.03592,
				"method": "rhf"
			},
			{
				"type": "unocc",
				"energy": 0.04157,
				"method": "rhf"
			}
		],
		"cosmo_sigma_profile": { 
			"-0.025": 0.0,
			"-0.024": 0.0,
			"-0.023": 0.0,
			"-0.022": 0.0,
			"-0.021": 0.0,
			"-0.02": 0.0,
			"-0.019": 0.0,
			"-0.018": 0.0,
			"-0.017": 0.0,
			"-0.016": 0.0,
			"-0.015": 0.156866462679,
			"-0.014": 1.45610925645,
			"-0.013": 2.22130247096,
			"-0.012": 1.34801163473,
			"-0.011": 1.87479972478,
			"-0.01": 1.73761062047,
			"-0.009": 2.85671045773,
			"-0.008": 2.93795460311,
			"-0.007": 4.93561361527,
			"-0.006": 13.2930635005,
			"-0.005": 21.6108662927,
			"-0.004": 21.2078631887,
			"-0.003": 21.9280647151,
			"-0.002": 27.5022054154,
			"-0.001": 28.3048464751,
			"0.0": 22.178381599,
			"0.001": 17.2554621936,
			"0.002": 14.8283322889,
			"0.003": 16.0059609201,
			"0.004": 15.5748751727,
			"0.005": 10.8117495942,
			"0.006": 8.09729747508,
			"0.007": 7.71290307387,
			"0.008": 7.11986397239,
			"0.009": 5.47611634906,
			"0.01": 5.40823164067,
			"0.011": 4.54435695917,
			"0.012": 3.65474375052,
			"0.013": 2.79360463856,
			"0.014": 0.209850008486,
			"0.015": 0.0,
			"0.016": 0.0,
			"0.017": 0.0,
			"0.018": 0.0,
			"0.019": 0.0,
			"0.02": 0.0,
			"0.021": 0.0,
			"0.022": 0.0,
			"0.023": 0.0,
			"0.024": 0.0,
			"0.025": 0.0
		}
	}
}
