{
	 "smiles": "CCN1C[C@@H](CCN2CCOCC2)C(C1=O)(C1=CC=CC=C1)C1=CC=CC=C1", 
	 "Tm": 396.15, 
	 "num_atms": 58, 
	 "gaussian": { 
		 "optdone": 1, 
		 "sigma_profile": "yes", 
		 "theory": "DFT", 
		 "functional": "B3LYP", 
		 "basiset": "6-31G**", 
		 "properties": { 
			 "R2extent": 11928.6441, 
			 "electric_dipole_moment_norm": 2.70990158677, 
			 "electric_quadrupole_moment_norm": 23.7226855257, 
			 "total_energy": -1192.57037592, 
			 "HOMO_LUMO_gap": 0.20751, 
			 "cosmo_polarized_energy": -17.13, 
			 "cosmo_cavitation_energy": 55.88, 
			 "cosmo_dispersion_energy": -36.33, 
			 "cosmo_repulsion_energy": 2.79, 
			 "cosmo_total_nonelectrostatic_energy": 22.34, 
			 "SMD_solvation_energy": 7.97 
		},
		"coords": [
			{
				"x": -1.8828995807,
				"y": -3.9550861906,
				"z": 2.3758819988,
				"element": "C" 
			},
			{
				"x": -1.9190463009,
				"y": -3.7766555113,
				"z": 0.8549045,
				"element": "C" 
			},
			{
				"x": -1.3739705699,
				"y": -2.5031041648,
				"z": 0.4097038331,
				"element": "N" 
			},
			{
				"x": 0.0530291184,
				"y": -2.2138677653,
				"z": 0.3642329041,
				"element": "C" 
			},
			{
				"x": 0.0804059241,
				"y": -0.6887412973,
				"z": 0.1568383628,
				"element": "C" 
			},
			{
				"x": 1.4191308334,
				"y": -0.0683199347,
				"z": -0.280651222,
				"element": "C" 
			},
			{
				"x": 2.3337096974,
				"y": 0.2905590494,
				"z": 0.9020281372,
				"element": "C" 
			},
			{
				"x": 2.7370933645,
				"y": -0.8674205951,
				"z": 1.7018716749,
				"element": "N" 
			},
			{
				"x": 3.6922995873,
				"y": -1.73102452,
				"z": 0.9898495489,
				"element": "C" 
			},
			{
				"x": 4.4641188665,
				"y": -2.604554312,
				"z": 1.9722203499,
				"element": "C" 
			},
			{
				"x": 5.2721761826,
				"y": -1.8399031095,
				"z": 2.8625707206,
				"element": "O" 
			},
			{
				"x": 4.7319949193,
				"y": -0.5571218706,
				"z": 3.1820220064,
				"element": "C" 
			},
			{
				"x": 3.2086608443,
				"y": -0.5393191742,
				"z": 3.0624391844,
				"element": "C" 
			},
			{
				"x": -1.22581958,
				"y": -0.3923418408,
				"z": -0.6657697897,
				"element": "C" 
			},
			{
				"x": -2.1609671417,
				"y": -1.5102954751,
				"z": -0.1037056738,
				"element": "C" 
			},
			{
				"x": -3.3830451412,
				"y": -1.5309129349,
				"z": -0.1580552764,
				"element": "O" 
			},
			{
				"x": -1.206795321,
				"y": -0.6563686198,
				"z": -2.1848059142,
				"element": "C" 
			},
			{
				"x": -2.3818387413,
				"y": -0.3748546974,
				"z": -2.9072416677,
				"element": "C" 
			},
			{
				"x": -2.4670621994,
				"y": -0.6273152748,
				"z": -4.2734921577,
				"element": "C" 
			},
			{
				"x": -1.3794283802,
				"y": -1.1744856251,
				"z": -4.9593238926,
				"element": "C" 
			},
			{
				"x": -0.2152131062,
				"y": -1.473793792,
				"z": -4.2566200729,
				"element": "C" 
			},
			{
				"x": -0.1320272477,
				"y": -1.2218000324,
				"z": -2.8832305115,
				"element": "C" 
			},
			{
				"x": -1.7190213017,
				"y": 1.0222182952,
				"z": -0.3489864677,
				"element": "C" 
			},
			{
				"x": -2.5347685402,
				"y": 1.2825397358,
				"z": 0.7622269244,
				"element": "C" 
			},
			{
				"x": -2.8925937253,
				"y": 2.5893265783,
				"z": 1.0971746011,
				"element": "C" 
			},
			{
				"x": -2.4394012458,
				"y": 3.6646662696,
				"z": 0.3319935795,
				"element": "C" 
			},
			{
				"x": -1.6302224321,
				"y": 3.4199010786,
				"z": -0.7779886102,
				"element": "C" 
			},
			{
				"x": -1.2782640522,
				"y": 2.1122429009,
				"z": -1.1155790407,
				"element": "C" 
			},
			{
				"x": -2.4777688033,
				"y": -3.1800231607,
				"z": 2.8677038704,
				"element": "H" 
			},
			{
				"x": -0.8612576553,
				"y": -3.9027528717,
				"z": 2.7665876677,
				"element": "H" 
			},
			{
				"x": -2.295628026,
				"y": -4.93098988,
				"z": 2.6519133154,
				"element": "H" 
			},
			{
				"x": -1.3627999623,
				"y": -4.5863230074,
				"z": 0.3634324732,
				"element": "H" 
			},
			{
				"x": -2.9503310722,
				"y": -3.8097204427,
				"z": 0.4945033564,
				"element": "H" 
			},
			{
				"x": 0.5532657825,
				"y": -2.4890143645,
				"z": 1.2968106863,
				"element": "H" 
			},
			{
				"x": 0.5371785203,
				"y": -2.7634588139,
				"z": -0.4573856771,
				"element": "H" 
			},
			{
				"x": -0.1450747712,
				"y": -0.2642256717,
				"z": 1.1432312845,
				"element": "H" 
			},
			{
				"x": 1.9612621444,
				"y": -0.721740384,
				"z": -0.971421546,
				"element": "H" 
			},
			{
				"x": 1.2288075061,
				"y": 0.8595969165,
				"z": -0.8311302595,
				"element": "H" 
			},
			{
				"x": 1.7887869243,
				"y": 0.9792366175,
				"z": 1.5574873701,
				"element": "H" 
			},
			{
				"x": 3.2102719057,
				"y": 0.8447515846,
				"z": 0.5106666972,
				"element": "H" 
			},
			{
				"x": 4.4200256856,
				"y": -1.1360035921,
				"z": 0.4058743236,
				"element": "H" 
			},
			{
				"x": 3.1630871115,
				"y": -2.3738971935,
				"z": 0.2752697155,
				"element": "H" 
			},
			{
				"x": 5.1403066705,
				"y": -3.2723410681,
				"z": 1.4288076364,
				"element": "H" 
			},
			{
				"x": 3.7572430192,
				"y": -3.2337282618,
				"z": 2.5364215432,
				"element": "H" 
			},
			{
				"x": 5.1695383564,
				"y": 0.2098138092,
				"z": 2.5229876119,
				"element": "H" 
			},
			{
				"x": 5.0412941622,
				"y": -0.3260863945,
				"z": 4.2078373873,
				"element": "H" 
			},
			{
				"x": 2.7934099943,
				"y": -1.2607727004,
				"z": 3.7790902239,
				"element": "H" 
			},
			{
				"x": 2.8274161059,
				"y": 0.4452297836,
				"z": 3.3505696473,
				"element": "H" 
			},
			{
				"x": -3.2383845923,
				"y": 0.0288612784,
				"z": -2.3788842819,
				"element": "H" 
			},
			{
				"x": -3.3876645616,
				"y": -0.3994619249,
				"z": -4.8034680344,
				"element": "H" 
			},
			{
				"x": -1.4429832645,
				"y": -1.3685370501,
				"z": -6.026224736,
				"element": "H" 
			},
			{
				"x": 0.638195319,
				"y": -1.9066037268,
				"z": -4.7714829564,
				"element": "H" 
			},
			{
				"x": 0.7856456455,
				"y": -1.4753752704,
				"z": -2.3705242256,
				"element": "H" 
			},
			{
				"x": -2.9167143176,
				"y": 0.4587847917,
				"z": 1.3547820409,
				"element": "H" 
			},
			{
				"x": -3.534511166,
				"y": 2.7642475092,
				"z": 1.9562097523,
				"element": "H" 
			},
			{
				"x": -2.7205558524,
				"y": 4.6810185209,
				"z": 0.5928704451,
				"element": "H" 
			},
			{
				"x": -1.2753689633,
				"y": 4.2458239555,
				"z": -1.3883893346,
				"element": "H" 
			},
			{
				"x": -0.668126576,
				"y": 1.9348238418,
				"z": -1.9958540257,
				"element": "H" 
			}
		],
		 "valence_orbital": [ 
			{
				"type": "occ",
				"energy": -0.24312,
				"method": "rhf"
			},
			{
				"type": "occ",
				"energy": -0.23967,
				"method": "rhf"
			},
			{
				"type": "occ",
				"energy": -0.23529,
				"method": "rhf"
			},
			{
				"type": "occ",
				"energy": -0.22493,
				"method": "rhf"
			},
			{
				"type": "occ",
				"energy": -0.21497,
				"method": "rhf"
			},
			{
				"type": "unocc",
				"energy": -0.00746,
				"method": "rhf"
			},
			{
				"type": "unocc",
				"energy": -0.00316,
				"method": "rhf"
			},
			{
				"type": "unocc",
				"energy": 0.00246,
				"method": "rhf"
			},
			{
				"type": "unocc",
				"energy": 0.01072,
				"method": "rhf"
			},
			{
				"type": "unocc",
				"energy": 0.04446,
				"method": "rhf"
			}
		],
		"cosmo_sigma_profile": { 
			"-0.025": 0.0,
			"-0.024": 0.0,
			"-0.023": 0.0,
			"-0.022": 0.0,
			"-0.021": 0.0,
			"-0.02": 0.0,
			"-0.019": 0.0,
			"-0.018": 0.0,
			"-0.017": 0.0,
			"-0.016": 0.0,
			"-0.015": 0.0,
			"-0.014": 0.0,
			"-0.013": 0.0,
			"-0.012": 0.0,
			"-0.011": 0.0,
			"-0.01": 0.0,
			"-0.009": 0.0,
			"-0.008": 0.0132278382146,
			"-0.007": 1.06242167499,
			"-0.006": 6.77894147375,
			"-0.005": 23.8456204992,
			"-0.004": 49.2947817768,
			"-0.003": 66.4117272846,
			"-0.002": 60.4367394401,
			"-0.001": 45.356801423,
			"0.0": 34.7954399517,
			"0.001": 25.651685295,
			"0.002": 19.2514392983,
			"0.003": 16.6547126583,
			"0.004": 19.0888805547,
			"0.005": 19.7922867311,
			"0.006": 17.8044965495,
			"0.007": 5.00351932785,
			"0.008": 4.21905544946,
			"0.009": 3.27563029697,
			"0.01": 3.50239845093,
			"0.011": 2.37178410267,
			"0.012": 2.74210199882,
			"0.013": 4.54521211376,
			"0.014": 5.61870516974,
			"0.015": 0.146519067513,
			"0.016": 0.0,
			"0.017": 0.0,
			"0.018": 0.0,
			"0.019": 0.0,
			"0.02": 0.0,
			"0.021": 0.0,
			"0.022": 0.0,
			"0.023": 0.0,
			"0.024": 0.0,
			"0.025": 0.0
		}
	}
}
