{
	 "smiles": "CC(=O)OC1(CC[C@@]2(C)[C@@H](CCC3C4CCC[C@@]4(C)CCC23)C1)C(C)=O", 
	 "Tm": 438.15, 
	 "num_atms": 62, 
	 "gaussian": { 
		 "optdone": 1, 
		 "sigma_profile": "yes", 
		 "theory": "DFT", 
		 "functional": "B3LYP", 
		 "basiset": "6-31G**", 
		 "properties": { 
			 "R2extent": 11626.1073, 
			 "electric_dipole_moment_norm": 3.93907447378, 
			 "electric_quadrupole_moment_norm": 23.1665644432, 
			 "total_energy": -1123.87586102, 
			 "HOMO_LUMO_gap": 0.22617, 
			 "cosmo_polarized_energy": -10.77, 
			 "cosmo_cavitation_energy": 53.24, 
			 "cosmo_dispersion_energy": -36.03, 
			 "cosmo_repulsion_energy": 2.67, 
			 "cosmo_total_nonelectrostatic_energy": 19.88, 
			 "SMD_solvation_energy": 8.83 
		},
		"coords": [
			{
				"x": -1.5223381822,
				"y": 2.839917123,
				"z": -4.2216315414,
				"element": "C" 
			},
			{
				"x": -1.2859996819,
				"y": 1.3584972454,
				"z": -4.401091233,
				"element": "C" 
			},
			{
				"x": -1.8627907495,
				"y": 0.6519350752,
				"z": -5.2009519581,
				"element": "O" 
			},
			{
				"x": -0.3294625194,
				"y": 0.9203549219,
				"z": -3.5509583407,
				"element": "O" 
			},
			{
				"x": -0.0417281549,
				"y": -0.5142524967,
				"z": -3.4739899979,
				"element": "C" 
			},
			{
				"x": -1.2347742391,
				"y": -1.2835531348,
				"z": -2.8906387183,
				"element": "C" 
			},
			{
				"x": -1.5431989144,
				"y": -0.9019358781,
				"z": -1.4348599826,
				"element": "C" 
			},
			{
				"x": -0.3350715278,
				"y": -1.0460058895,
				"z": -0.4716662109,
				"element": "C" 
			},
			{
				"x": 0.0369184874,
				"y": -2.5417464841,
				"z": -0.3427587892,
				"element": "C" 
			},
			{
				"x": 0.8292150293,
				"y": -0.2018483629,
				"z": -1.0787507953,
				"element": "C" 
			},
			{
				"x": 2.0709752652,
				"y": -0.1826730468,
				"z": -0.176957384,
				"element": "C" 
			},
			{
				"x": 1.7233098948,
				"y": 0.4023419704,
				"z": 1.1965154703,
				"element": "C" 
			},
			{
				"x": 0.5403016666,
				"y": -0.3193392711,
				"z": 1.8671159652,
				"element": "C" 
			},
			{
				"x": 0.194265081,
				"y": 0.3215833661,
				"z": 3.2327003247,
				"element": "C" 
			},
			{
				"x": -0.1230444706,
				"y": 1.8430238146,
				"z": 3.2166328059,
				"element": "C" 
			},
			{
				"x": -1.0931056043,
				"y": 2.0975186756,
				"z": 4.4060117556,
				"element": "C" 
			},
			{
				"x": -1.3289196189,
				"y": 0.7160232307,
				"z": 5.0591979028,
				"element": "C" 
			},
			{
				"x": -1.0166028184,
				"y": -0.3284222476,
				"z": 3.9631094612,
				"element": "C" 
			},
			{
				"x": -0.6779669148,
				"y": -1.6942435038,
				"z": 4.5794043157,
				"element": "C" 
			},
			{
				"x": -2.2067322347,
				"y": -0.4497907958,
				"z": 2.9805576734,
				"element": "C" 
			},
			{
				"x": -1.8423470686,
				"y": -1.145806928,
				"z": 1.661115465,
				"element": "C" 
			},
			{
				"x": -0.6903038204,
				"y": -0.4287472672,
				"z": 0.9272387846,
				"element": "C" 
			},
			{
				"x": 1.17236074,
				"y": -0.6032196574,
				"z": -2.5235895081,
				"element": "C" 
			},
			{
				"x": 0.4007963058,
				"y": -1.0809738412,
				"z": -4.8425878746,
				"element": "C" 
			},
			{
				"x": 1.1065236066,
				"y": -0.1641145457,
				"z": -5.8248120467,
				"element": "C" 
			},
			{
				"x": 0.2628435711,
				"y": -2.2675583605,
				"z": -5.0681703337,
				"element": "O" 
			},
			{
				"x": -0.5781023981,
				"y": 3.386775251,
				"z": -4.2932718349,
				"element": "H" 
			},
			{
				"x": -2.2198217988,
				"y": 3.1902451387,
				"z": -4.9817935516,
				"element": "H" 
			},
			{
				"x": -1.934861908,
				"y": 3.031495178,
				"z": -3.2262196645,
				"element": "H" 
			},
			{
				"x": -0.9931430394,
				"y": -2.345748643,
				"z": -2.9769922624,
				"element": "H" 
			},
			{
				"x": -2.110115314,
				"y": -1.1200467003,
				"z": -3.5236132404,
				"element": "H" 
			},
			{
				"x": -1.8958014465,
				"y": 0.1379447109,
				"z": -1.4004070705,
				"element": "H" 
			},
			{
				"x": -2.3789019939,
				"y": -1.5213504244,
				"z": -1.0918633057,
				"element": "H" 
			},
			{
				"x": 0.3929537237,
				"y": -2.9610013016,
				"z": -1.2871917587,
				"element": "H" 
			},
			{
				"x": 0.8190699685,
				"y": -2.7169663276,
				"z": 0.4002069663,
				"element": "H" 
			},
			{
				"x": -0.8347884132,
				"y": -3.1321040313,
				"z": -0.0449131354,
				"element": "H" 
			},
			{
				"x": 0.4594284105,
				"y": 0.8329858267,
				"z": -1.1270050757,
				"element": "H" 
			},
			{
				"x": 2.4803892942,
				"y": -1.1957918592,
				"z": -0.0692666022,
				"element": "H" 
			},
			{
				"x": 2.8604093047,
				"y": 0.4171670693,
				"z": -0.6483610568,
				"element": "H" 
			},
			{
				"x": 1.4735371458,
				"y": 1.4640267011,
				"z": 1.0672102202,
				"element": "H" 
			},
			{
				"x": 2.5969570679,
				"y": 0.3701553364,
				"z": 1.8606087357,
				"element": "H" 
			},
			{
				"x": 0.8707351082,
				"y": -1.3457161619,
				"z": 2.0855566274,
				"element": "H" 
			},
			{
				"x": 1.0724553672,
				"y": 0.1800981879,
				"z": 3.8808371587,
				"element": "H" 
			},
			{
				"x": -0.5931712984,
				"y": 2.1385198652,
				"z": 2.2726947562,
				"element": "H" 
			},
			{
				"x": 0.7915432637,
				"y": 2.4375113038,
				"z": 3.3015236712,
				"element": "H" 
			},
			{
				"x": -0.6829586143,
				"y": 2.8138762797,
				"z": 5.124454425,
				"element": "H" 
			},
			{
				"x": -2.0348860908,
				"y": 2.5268562709,
				"z": 4.0488547033,
				"element": "H" 
			},
			{
				"x": -2.3406038675,
				"y": 0.6033428884,
				"z": 5.4663379713,
				"element": "H" 
			},
			{
				"x": -0.6324040731,
				"y": 0.5733916986,
				"z": 5.895273496,
				"element": "H" 
			},
			{
				"x": -1.5265445192,
				"y": -2.0835972033,
				"z": 5.1541353604,
				"element": "H" 
			},
			{
				"x": -0.4235036631,
				"y": -2.4450333291,
				"z": 3.8246301465,
				"element": "H" 
			},
			{
				"x": 0.1757058353,
				"y": -1.6112685288,
				"z": 5.2618535562,
				"element": "H" 
			},
			{
				"x": -3.0278439316,
				"y": -0.9872864671,
				"z": 3.4729027965,
				"element": "H" 
			},
			{
				"x": -2.5955602578,
				"y": 0.5510256997,
				"z": 2.7509683392,
				"element": "H" 
			},
			{
				"x": -1.5624433308,
				"y": -2.1867364919,
				"z": 1.8624001419,
				"element": "H" 
			},
			{
				"x": -2.7335369031,
				"y": -1.1873433483,
				"z": 1.0254306074,
				"element": "H" 
			},
			{
				"x": -1.0339606552,
				"y": 0.5965151666,
				"z": 0.7149604606,
				"element": "H" 
			},
			{
				"x": 1.9701126563,
				"y": 0.0477878119,
				"z": -2.9006979541,
				"element": "H" 
			},
			{
				"x": 1.555071463,
				"y": -1.628746804,
				"z": -2.5643468304,
				"element": "H" 
			},
			{
				"x": 0.3543853143,
				"y": 0.2932115768,
				"z": -6.4753168128,
				"element": "H" 
			},
			{
				"x": 1.6561410373,
				"y": 0.6400804731,
				"z": -5.3288864287,
				"element": "H" 
			},
			{
				"x": 1.7789354283,
				"y": -0.7625385244,
				"z": -6.4418787651,
				"element": "H" 
			}
		],
		 "valence_orbital": [ 
			{
				"type": "occ",
				"energy": -0.29241,
				"method": "rhf"
			},
			{
				"type": "occ",
				"energy": -0.27759,
				"method": "rhf"
			},
			{
				"type": "occ",
				"energy": -0.27173,
				"method": "rhf"
			},
			{
				"type": "occ",
				"energy": -0.26756,
				"method": "rhf"
			},
			{
				"type": "occ",
				"energy": -0.23955,
				"method": "rhf"
			},
			{
				"type": "unocc",
				"energy": -0.01338,
				"method": "rhf"
			},
			{
				"type": "unocc",
				"energy": 0.00219,
				"method": "rhf"
			},
			{
				"type": "unocc",
				"energy": 0.07213,
				"method": "rhf"
			},
			{
				"type": "unocc",
				"energy": 0.07527,
				"method": "rhf"
			},
			{
				"type": "unocc",
				"energy": 0.07795,
				"method": "rhf"
			}
		],
		"cosmo_sigma_profile": { 
			"-0.025": 0.0,
			"-0.024": 0.0,
			"-0.023": 0.0,
			"-0.022": 0.0,
			"-0.021": 0.0,
			"-0.02": 0.0,
			"-0.019": 0.0,
			"-0.018": 0.0,
			"-0.017": 0.0,
			"-0.016": 0.0,
			"-0.015": 0.0,
			"-0.014": 0.0,
			"-0.013": 0.0,
			"-0.012": 0.0,
			"-0.011": 0.0,
			"-0.01": 0.0,
			"-0.009": 0.0,
			"-0.008": 0.0,
			"-0.007": 0.71455152234,
			"-0.006": 5.61690030519,
			"-0.005": 12.050036861,
			"-0.004": 18.605817612,
			"-0.003": 27.2264451596,
			"-0.002": 65.3586060657,
			"-0.001": 83.9394582788,
			"0.0": 68.8140574056,
			"0.001": 48.2297951147,
			"0.002": 29.7539201547,
			"0.003": 6.8778676269,
			"0.004": 4.52988532014,
			"0.005": 4.66082123244,
			"0.006": 3.45475773265,
			"0.007": 4.45676825834,
			"0.008": 3.75013490513,
			"0.009": 2.84263758649,
			"0.01": 3.75516473372,
			"0.011": 6.03411978885,
			"0.012": 5.97809839321,
			"0.013": 1.34271166163,
			"0.014": 0.0,
			"0.015": 0.0,
			"0.016": 0.0,
			"0.017": 0.0,
			"0.018": 0.0,
			"0.019": 0.0,
			"0.02": 0.0,
			"0.021": 0.0,
			"0.022": 0.0,
			"0.023": 0.0,
			"0.024": 0.0,
			"0.025": 0.0
		}
	}
}
