{
	 "smiles": "OC(=O)C1=CC=C(C=O)C=C1", 
	 "Tm": 519.15, 
	 "num_atms": 17, 
	 "gaussian": { 
		 "optdone": 1, 
		 "sigma_profile": "yes", 
		 "theory": "DFT", 
		 "functional": "B3LYP", 
		 "basiset": "6-31G**", 
		 "properties": { 
			 "R2extent": 2622.4811, 
			 "electric_dipole_moment_norm": 4.10261602639, 
			 "electric_quadrupole_moment_norm": 26.9742317666, 
			 "total_energy": -534.13537022, 
			 "HOMO_LUMO_gap": 0.17827, 
			 "cosmo_polarized_energy": -17.24, 
			 "cosmo_cavitation_energy": 22.48, 
			 "cosmo_dispersion_energy": -16.41, 
			 "cosmo_repulsion_energy": 1.3, 
			 "cosmo_total_nonelectrostatic_energy": 7.37, 
			 "SMD_solvation_energy": 6.17 
		},
		"coords": [
			{
				"x": -0.5951511578,
				"y": -3.9549505015,
				"z": -2.6762492678,
				"element": "O" 
			},
			{
				"x": -0.3873920391,
				"y": -3.650524738,
				"z": -1.3682119953,
				"element": "C" 
			},
			{
				"x": -0.2777403253,
				"y": -4.5308979829,
				"z": -0.5491222379,
				"element": "O" 
			},
			{
				"x": -0.3072149601,
				"y": -2.1915819513,
				"z": -1.0169496006,
				"element": "C" 
			},
			{
				"x": -0.8837566618,
				"y": -1.1880591558,
				"z": -1.8085416191,
				"element": "C" 
			},
			{
				"x": -0.7912117523,
				"y": 0.1462499325,
				"z": -1.4185167622,
				"element": "C" 
			},
			{
				"x": -0.1200594646,
				"y": 0.4879091652,
				"z": -0.2390314113,
				"element": "C" 
			},
			{
				"x": -0.0172552018,
				"y": 1.9123513125,
				"z": 0.1666245483,
				"element": "C" 
			},
			{
				"x": 0.5476457332,
				"y": 2.2983080094,
				"z": 1.1704120814,
				"element": "O" 
			},
			{
				"x": 0.4462507416,
				"y": -0.5174248787,
				"z": 0.5609313357,
				"element": "C" 
			},
			{
				"x": 0.3438432181,
				"y": -1.8475896042,
				"z": 0.1793246466,
				"element": "C" 
			},
			{
				"x": -0.4942608733,
				"y": -3.1661694176,
				"z": -3.226794415,
				"element": "H" 
			},
			{
				"x": -1.4406913513,
				"y": -1.4394152385,
				"z": -2.7076608339,
				"element": "H" 
			},
			{
				"x": -1.2454015162,
				"y": 0.9255567936,
				"z": -2.0255463654,
				"element": "H" 
			},
			{
				"x": -0.505784486,
				"y": 2.6298914871,
				"z": -0.5290249782,
				"element": "H" 
			},
			{
				"x": 0.9549928347,
				"y": -0.2274005932,
				"z": 1.4746012061,
				"element": "H" 
			},
			{
				"x": 0.7593872619,
				"y": -2.6440526385,
				"z": 0.7869556686,
				"element": "H" 
			}
		],
		 "valence_orbital": [ 
			{
				"type": "occ",
				"energy": -0.32814,
				"method": "rhf"
			},
			{
				"type": "occ",
				"energy": -0.29159,
				"method": "rhf"
			},
			{
				"type": "occ",
				"energy": -0.28719,
				"method": "rhf"
			},
			{
				"type": "occ",
				"energy": -0.2792,
				"method": "rhf"
			},
			{
				"type": "occ",
				"energy": -0.27157,
				"method": "rhf"
			},
			{
				"type": "unocc",
				"energy": -0.0933,
				"method": "rhf"
			},
			{
				"type": "unocc",
				"energy": -0.03736,
				"method": "rhf"
			},
			{
				"type": "unocc",
				"energy": -0.01453,
				"method": "rhf"
			},
			{
				"type": "unocc",
				"energy": 0.04889,
				"method": "rhf"
			},
			{
				"type": "unocc",
				"energy": 0.05753,
				"method": "rhf"
			}
		],
		"cosmo_sigma_profile": { 
			"-0.025": 0.0,
			"-0.024": 0.0,
			"-0.023": 0.0,
			"-0.022": 0.0,
			"-0.021": 0.0,
			"-0.02": 0.0,
			"-0.019": 0.474921886436,
			"-0.018": 0.825966795777,
			"-0.017": 1.22565295269,
			"-0.016": 1.08732654965,
			"-0.015": 1.08033612971,
			"-0.014": 0.660190968915,
			"-0.013": 1.12476891896,
			"-0.012": 1.39045834362,
			"-0.011": 1.27290813157,
			"-0.01": 1.57550429534,
			"-0.009": 1.80100543965,
			"-0.008": 6.34641930473,
			"-0.007": 9.29953083788,
			"-0.006": 10.8696647712,
			"-0.005": 9.63389417879,
			"-0.004": 8.36806783509,
			"-0.003": 10.6369159144,
			"-0.002": 10.0194388909,
			"-0.001": 9.35452008202,
			"0.0": 11.6883050865,
			"0.001": 17.8251282648,
			"0.002": 10.6197295011,
			"0.003": 3.73437951379,
			"0.004": 3.34808385346,
			"0.005": 4.20001197052,
			"0.006": 4.27804577162,
			"0.007": 3.80399099107,
			"0.008": 4.76807444247,
			"0.009": 5.50040427205,
			"0.01": 8.98281625795,
			"0.011": 8.99179481562,
			"0.012": 5.17386215749,
			"0.013": 0.805366048163,
			"0.014": 0.0,
			"0.015": 0.0,
			"0.016": 0.0,
			"0.017": 0.0,
			"0.018": 0.0,
			"0.019": 0.0,
			"0.02": 0.0,
			"0.021": 0.0,
			"0.022": 0.0,
			"0.023": 0.0,
			"0.024": 0.0,
			"0.025": 0.0
		}
	}
}
