{
	 "smiles": "CC(C)(C1=CC(Br)=C(O)C(Br)=C1)C1=CC(Br)=C(O)C(Br)=C1", 
	 "Tm": 454.15, 
	 "num_atms": 33, 
	 "gaussian": { 
		 "optdone": 1, 
		 "sigma_profile": "yes", 
		 "theory": "DFT", 
		 "functional": "B3LYP", 
		 "basiset": "6-31G**", 
		 "properties": { 
			 "R2extent": 18144.2309, 
			 "electric_dipole_moment_norm": 3.2830593065, 
			 "electric_quadrupole_moment_norm": 16.1706046566, 
			 "total_energy": -11014.892329, 
			 "HOMO_LUMO_gap": 0.19631, 
			 "cosmo_polarized_energy": -12.42, 
			 "cosmo_cavitation_energy": 45.17, 
			 "cosmo_dispersion_energy": -32.54, 
			 "cosmo_repulsion_energy": 2.56, 
			 "cosmo_total_nonelectrostatic_energy": 15.19, 
			 "SMD_solvation_energy": 3.93 
		},
		"coords": [
			{
				"x": -1.7239211484,
				"y": 0.5531917645,
				"z": 1.1443198887,
				"element": "C" 
			},
			{
				"x": -1.1011093824,
				"y": -0.6522987122,
				"z": 0.4006400495,
				"element": "C" 
			},
			{
				"x": -2.2626634588,
				"y": -1.5041715233,
				"z": -0.1644675636,
				"element": "C" 
			},
			{
				"x": -0.2429722615,
				"y": -1.4366379786,
				"z": 1.4140016811,
				"element": "C" 
			},
			{
				"x": -0.6169659153,
				"y": -2.6839648013,
				"z": 1.9199582296,
				"element": "C" 
			},
			{
				"x": 0.1734844234,
				"y": -3.3220283066,
				"z": 2.8733352135,
				"element": "C" 
			},
			{
				"x": -0.3584484893,
				"y": -5.0375746527,
				"z": 3.5492072125,
				"element": "Br" 
			},
			{
				"x": 1.3580884789,
				"y": -2.7631818763,
				"z": 3.3689866624,
				"element": "C" 
			},
			{
				"x": 2.1434731157,
				"y": -3.3559393544,
				"z": 4.2905830431,
				"element": "O" 
			},
			{
				"x": 1.723729919,
				"y": -1.5084595979,
				"z": 2.8504219356,
				"element": "C" 
			},
			{
				"x": 3.3242954032,
				"y": -0.6855007941,
				"z": 3.4701030671,
				"element": "Br" 
			},
			{
				"x": 0.9454226563,
				"y": -0.8660027211,
				"z": 1.8979495417,
				"element": "C" 
			},
			{
				"x": -0.2206431187,
				"y": -0.2127561543,
				"z": -0.7868159985,
				"element": "C" 
			},
			{
				"x": -0.184966166,
				"y": 1.1014695422,
				"z": -1.2592896837,
				"element": "C" 
			},
			{
				"x": 0.590139754,
				"y": 1.4289697587,
				"z": -2.3696107078,
				"element": "C" 
			},
			{
				"x": 0.6271223352,
				"y": 3.2424075141,
				"z": -2.9964300431,
				"element": "Br" 
			},
			{
				"x": 1.3577150174,
				"y": 0.4830848592,
				"z": -3.060543709,
				"element": "C" 
			},
			{
				"x": 2.1171530106,
				"y": 0.7694142801,
				"z": -4.1370145584,
				"element": "O" 
			},
			{
				"x": 1.314157989,
				"y": -0.8352719342,
				"z": -2.5737867679,
				"element": "C" 
			},
			{
				"x": 2.3355225233,
				"y": -2.1779913196,
				"z": -3.4553474284,
				"element": "Br" 
			},
			{
				"x": 0.5481723985,
				"y": -1.1714071596,
				"z": -1.4665427895,
				"element": "C" 
			},
			{
				"x": -0.9620398908,
				"y": 1.2395972008,
				"z": 1.5245710811,
				"element": "H" 
			},
			{
				"x": -2.3030039609,
				"y": 0.1940517298,
				"z": 1.9995843485,
				"element": "H" 
			},
			{
				"x": -2.403841192,
				"y": 1.1145125729,
				"z": 0.4951046715,
				"element": "H" 
			},
			{
				"x": -1.9042142794,
				"y": -2.4126401474,
				"z": -0.6568285374,
				"element": "H" 
			},
			{
				"x": -2.814847798,
				"y": -0.9208977391,
				"z": -0.9065329688,
				"element": "H" 
			},
			{
				"x": -2.9668861473,
				"y": -1.7912104937,
				"z": 0.6232780905,
				"element": "H" 
			},
			{
				"x": -1.5197030214,
				"y": -3.1778995174,
				"z": 1.5858296559,
				"element": "H" 
			},
			{
				"x": 1.746585523,
				"y": -4.2096119453,
				"z": 4.529880614,
				"element": "H" 
			},
			{
				"x": 1.2799254335,
				"y": 0.0929854696,
				"z": 1.5188039048,
				"element": "H" 
			},
			{
				"x": -0.7525025435,
				"y": 1.8869482485,
				"z": -0.7781627723,
				"element": "H" 
			},
			{
				"x": 2.0340428261,
				"y": 1.7180475036,
				"z": -4.3286677321,
				"element": "H" 
			},
			{
				"x": 0.5614979669,
				"y": -2.1992337152,
				"z": -1.1220176305,
				"element": "H" 
			}
		],
		 "valence_orbital": [ 
			{
				"type": "occ",
				"energy": -0.28575,
				"method": "rhf"
			},
			{
				"type": "occ",
				"energy": -0.25309,
				"method": "rhf"
			},
			{
				"type": "occ",
				"energy": -0.24812,
				"method": "rhf"
			},
			{
				"type": "occ",
				"energy": -0.23811,
				"method": "rhf"
			},
			{
				"type": "occ",
				"energy": -0.2292,
				"method": "rhf"
			},
			{
				"type": "unocc",
				"energy": -0.03289,
				"method": "rhf"
			},
			{
				"type": "unocc",
				"energy": -0.02634,
				"method": "rhf"
			},
			{
				"type": "unocc",
				"energy": -0.02551,
				"method": "rhf"
			},
			{
				"type": "unocc",
				"energy": -0.02299,
				"method": "rhf"
			},
			{
				"type": "unocc",
				"energy": -0.01516,
				"method": "rhf"
			}
		],
		"cosmo_sigma_profile": { 
			"-0.025": 0.0,
			"-0.024": 0.0,
			"-0.023": 0.0,
			"-0.022": 0.0,
			"-0.021": 0.0,
			"-0.02": 0.0,
			"-0.019": 0.0,
			"-0.018": 0.0,
			"-0.017": 0.0,
			"-0.016": 0.00486087554986,
			"-0.015": 0.724328956861,
			"-0.014": 1.45901925694,
			"-0.013": 0.849113164031,
			"-0.012": 1.03469875025,
			"-0.011": 1.82141295241,
			"-0.01": 2.36663614853,
			"-0.009": 1.4988799483,
			"-0.008": 2.06195667491,
			"-0.007": 3.78460082622,
			"-0.006": 10.1478425631,
			"-0.005": 17.715004681,
			"-0.004": 27.3752099184,
			"-0.003": 27.1076717898,
			"-0.002": 26.0923531393,
			"-0.001": 28.4447078125,
			"0.0": 36.8171167037,
			"0.001": 46.9674384087,
			"0.002": 44.9819809288,
			"0.003": 30.718056432,
			"0.004": 28.1618510082,
			"0.005": 11.6007629747,
			"0.006": 4.36142443194,
			"0.007": 4.41976086173,
			"0.008": 3.31493123313,
			"0.009": 4.49662345052,
			"0.01": 4.32661110353,
			"0.011": 0.423739902777,
			"0.012": 0.0,
			"0.013": 0.0,
			"0.014": 0.0,
			"0.015": 0.0,
			"0.016": 0.0,
			"0.017": 0.0,
			"0.018": 0.0,
			"0.019": 0.0,
			"0.02": 0.0,
			"0.021": 0.0,
			"0.022": 0.0,
			"0.023": 0.0,
			"0.024": 0.0,
			"0.025": 0.0
		}
	}
}
