{
	 "smiles": "CC1CCC2=C(C1)SC1=C2C(=O)N(CC=C)C(S)=N1", 
	 "Tm": 502.15, 
	 "num_atms": 35, 
	 "gaussian": { 
		 "optdone": 1, 
		 "sigma_profile": "yes", 
		 "theory": "DFT", 
		 "functional": "B3LYP", 
		 "basiset": "6-31G**", 
		 "properties": { 
			 "R2extent": 6897.381, 
			 "electric_dipole_moment_norm": 0.411716042923, 
			 "electric_quadrupole_moment_norm": 13.3970044025, 
			 "total_energy": -1524.24144086, 
			 "HOMO_LUMO_gap": 0.16556, 
			 "cosmo_polarized_energy": -9.73, 
			 "cosmo_cavitation_energy": 39.61, 
			 "cosmo_dispersion_energy": -29.17, 
			 "cosmo_repulsion_energy": 2.14, 
			 "cosmo_total_nonelectrostatic_energy": 12.58, 
			 "SMD_solvation_energy": 4.54 
		},
		"coords": [
			{
				"x": 0.2744927176,
				"y": -4.2148484364,
				"z": 2.3243916921,
				"element": "C" 
			},
			{
				"x": 0.8400763836,
				"y": -4.2024126842,
				"z": 0.8958885714,
				"element": "C" 
			},
			{
				"x": 2.0130611603,
				"y": -3.2129214628,
				"z": 0.7339338146,
				"element": "C" 
			},
			{
				"x": 1.6002028522,
				"y": -1.7484890944,
				"z": 0.9639632913,
				"element": "C" 
			},
			{
				"x": 0.3021346208,
				"y": -1.4275689885,
				"z": 0.2656041894,
				"element": "C" 
			},
			{
				"x": -0.5231615098,
				"y": -2.4066531169,
				"z": -0.2163369384,
				"element": "C" 
			},
			{
				"x": -0.2542086071,
				"y": -3.8855210958,
				"z": -0.1521387311,
				"element": "C" 
			},
			{
				"x": -1.9747380829,
				"y": -1.7557836815,
				"z": -0.9739031308,
				"element": "S" 
			},
			{
				"x": -1.456539814,
				"y": -0.1239397067,
				"z": -0.6280804552,
				"element": "C" 
			},
			{
				"x": -0.2342839797,
				"y": -0.1119177441,
				"z": 0.0335888046,
				"element": "C" 
			},
			{
				"x": 0.3397667609,
				"y": 1.1632837246,
				"z": 0.3904467687,
				"element": "C" 
			},
			{
				"x": 1.3995151706,
				"y": 1.3597735226,
				"z": 0.975426765,
				"element": "O" 
			},
			{
				"x": -0.4744190546,
				"y": 2.2823592889,
				"z": -0.0078107207,
				"element": "N" 
			},
			{
				"x": 0.0863612391,
				"y": 3.6189323408,
				"z": 0.298516722,
				"element": "C" 
			},
			{
				"x": 0.9232904421,
				"y": 4.1678024513,
				"z": -0.8294403673,
				"element": "C" 
			},
			{
				"x": 2.2434001939,
				"y": 4.3261603725,
				"z": -0.7465719199,
				"element": "C" 
			},
			{
				"x": -1.6713586759,
				"y": 2.114347812,
				"z": -0.6583061109,
				"element": "C" 
			},
			{
				"x": -2.5848149076,
				"y": 3.5910543413,
				"z": -1.0908342537,
				"element": "S" 
			},
			{
				"x": -2.1907725645,
				"y": 0.9624665257,
				"z": -0.9798657193,
				"element": "N" 
			},
			{
				"x": -0.4864144292,
				"y": -4.9948334402,
				"z": 2.4361978401,
				"element": "H" 
			},
			{
				"x": 1.0646958417,
				"y": -4.4123462145,
				"z": 3.0570062923,
				"element": "H" 
			},
			{
				"x": -0.1929771655,
				"y": -3.2597851969,
				"z": 2.5843018926,
				"element": "H" 
			},
			{
				"x": 1.2178487589,
				"y": -5.2097967199,
				"z": 0.6777668288,
				"element": "H" 
			},
			{
				"x": 2.8230561056,
				"y": -3.4790729353,
				"z": 1.4228999079,
				"element": "H" 
			},
			{
				"x": 2.4185595906,
				"y": -3.3148169584,
				"z": -0.2811866849,
				"element": "H" 
			},
			{
				"x": 2.3839411013,
				"y": -1.0660193164,
				"z": 0.6224790664,
				"element": "H" 
			},
			{
				"x": 1.4919240675,
				"y": -1.5417786353,
				"z": 2.037064538,
				"element": "H" 
			},
			{
				"x": 0.0676779209,
				"y": -4.2440980869,
				"z": -1.1403549045,
				"element": "H" 
			},
			{
				"x": -1.173184628,
				"y": -4.4360734137,
				"z": 0.0859586575,
				"element": "H" 
			},
			{
				"x": -0.7474930827,
				"y": 4.2849590373,
				"z": 0.541805532,
				"element": "H" 
			},
			{
				"x": 0.696482301,
				"y": 3.4882021547,
				"z": 1.1919279972,
				"element": "H" 
			},
			{
				"x": 0.3937729378,
				"y": 4.4352534979,
				"z": -1.742412922,
				"element": "H" 
			},
			{
				"x": 2.7927206285,
				"y": 4.0466654003,
				"z": 0.1482141969,
				"element": "H" 
			},
			{
				"x": 2.8195102387,
				"y": 4.7320987408,
				"z": -1.5729243576,
				"element": "H" 
			},
			{
				"x": -3.5852245323,
				"y": 2.8758177184,
				"z": -1.6361161524,
				"element": "H" 
			}
		],
		 "valence_orbital": [ 
			{
				"type": "occ",
				"energy": -0.2811,
				"method": "rhf"
			},
			{
				"type": "occ",
				"energy": -0.27154,
				"method": "rhf"
			},
			{
				"type": "occ",
				"energy": -0.25909,
				"method": "rhf"
			},
			{
				"type": "occ",
				"energy": -0.24915,
				"method": "rhf"
			},
			{
				"type": "occ",
				"energy": -0.2057,
				"method": "rhf"
			},
			{
				"type": "unocc",
				"energy": -0.04014,
				"method": "rhf"
			},
			{
				"type": "unocc",
				"energy": -0.00783,
				"method": "rhf"
			},
			{
				"type": "unocc",
				"energy": -0.00504,
				"method": "rhf"
			},
			{
				"type": "unocc",
				"energy": 0.01089,
				"method": "rhf"
			},
			{
				"type": "unocc",
				"energy": 0.02344,
				"method": "rhf"
			}
		],
		"cosmo_sigma_profile": { 
			"-0.025": 0.0,
			"-0.024": 0.0,
			"-0.023": 0.0,
			"-0.022": 0.0,
			"-0.021": 0.0,
			"-0.02": 0.0,
			"-0.019": 0.0,
			"-0.018": 0.0,
			"-0.017": 0.0,
			"-0.016": 0.0,
			"-0.015": 0.0,
			"-0.014": 0.0,
			"-0.013": 0.0310090369076,
			"-0.012": 0.850660174396,
			"-0.011": 1.65476929376,
			"-0.01": 0.964150813071,
			"-0.009": 1.17932556762,
			"-0.008": 1.01473283363,
			"-0.007": 2.24814300496,
			"-0.006": 5.50019766786,
			"-0.005": 10.9583949327,
			"-0.004": 18.4859881632,
			"-0.003": 36.1073749318,
			"-0.002": 41.4729437774,
			"-0.001": 38.2765121937,
			"0.0": 32.1774156399,
			"0.001": 31.8737988244,
			"0.002": 27.1280058779,
			"0.003": 19.7266380308,
			"0.004": 14.185073186,
			"0.005": 9.74160781109,
			"0.006": 5.27494524472,
			"0.007": 3.6103199661,
			"0.008": 3.40276282134,
			"0.009": 2.12407333707,
			"0.01": 2.97805536883,
			"0.011": 2.36975046536,
			"0.012": 2.54945260901,
			"0.013": 1.8021860935,
			"0.014": 0.0,
			"0.015": 0.0,
			"0.016": 0.0,
			"0.017": 0.0,
			"0.018": 0.0,
			"0.019": 0.0,
			"0.02": 0.0,
			"0.021": 0.0,
			"0.022": 0.0,
			"0.023": 0.0,
			"0.024": 0.0,
			"0.025": 0.0
		}
	}
}
