{
	 "smiles": "FC(F)(F)C1=CC=C(C=C1)C(=O)CBr", 
	 "Tm": 318.65, 
	 "num_atms": 20, 
	 "gaussian": { 
		 "optdone": 1, 
		 "sigma_profile": "yes", 
		 "theory": "DFT", 
		 "functional": "B3LYP", 
		 "basiset": "6-31G**", 
		 "properties": { 
			 "R2extent": 5912.753, 
			 "electric_dipole_moment_norm": 1.78793400885, 
			 "electric_quadrupole_moment_norm": 11.5574849621, 
			 "total_energy": -3292.72684233, 
			 "HOMO_LUMO_gap": 0.17993, 
			 "cosmo_polarized_energy": -8.4, 
			 "cosmo_cavitation_energy": 28.52, 
			 "cosmo_dispersion_energy": -20.48, 
			 "cosmo_repulsion_energy": 1.55, 
			 "cosmo_total_nonelectrostatic_energy": 9.59, 
			 "SMD_solvation_energy": 5.49 
		},
		"coords": [
			{
				"x": 2.1893752414,
				"y": -2.0488264753,
				"z": -1.6637821005,
				"element": "F" 
			},
			{
				"x": 2.0698643408,
				"y": -1.9094786056,
				"z": -0.323807997,
				"element": "C" 
			},
			{
				"x": 2.2585365773,
				"y": -3.1312140429,
				"z": 0.2187201414,
				"element": "F" 
			},
			{
				"x": 3.0849807356,
				"y": -1.1184304615,
				"z": 0.0842500055,
				"element": "F" 
			},
			{
				"x": 0.7265178159,
				"y": -1.3353198086,
				"z": 0.047651845,
				"element": "C" 
			},
			{
				"x": -0.3677572905,
				"y": -2.1890604909,
				"z": 0.2248576189,
				"element": "C" 
			},
			{
				"x": -1.6177432429,
				"y": -1.655403161,
				"z": 0.5126364514,
				"element": "C" 
			},
			{
				"x": -1.7913806263,
				"y": -0.2667880876,
				"z": 0.6264872971,
				"element": "C" 
			},
			{
				"x": -0.6863008899,
				"y": 0.5796782031,
				"z": 0.4531933779,
				"element": "C" 
			},
			{
				"x": 0.5678851628,
				"y": 0.0474151521,
				"z": 0.1637694166,
				"element": "C" 
			},
			{
				"x": -3.1726625165,
				"y": 0.2364202513,
				"z": 0.9082189673,
				"element": "C" 
			},
			{
				"x": -4.1109832845,
				"y": -0.5296144209,
				"z": 1.0505595613,
				"element": "O" 
			},
			{
				"x": -3.4392763139,
				"y": 1.736812361,
				"z": 0.9728559466,
				"element": "C" 
			},
			{
				"x": -2.7380459528,
				"y": 2.5085815812,
				"z": 2.6552554298,
				"element": "Br" 
			},
			{
				"x": -0.2338251644,
				"y": -3.2622635356,
				"z": 0.1438273663,
				"element": "H" 
			},
			{
				"x": -2.4812921323,
				"y": -2.2959300759,
				"z": 0.6539415715,
				"element": "H" 
			},
			{
				"x": -0.7887997232,
				"y": 1.6529788998,
				"z": 0.5663424353,
				"element": "H" 
			},
			{
				"x": 1.4238986431,
				"y": 0.701230873,
				"z": 0.039759244,
				"element": "H" 
			},
			{
				"x": -2.9690021227,
				"y": 2.2941620239,
				"z": 0.1630529203,
				"element": "H" 
			},
			{
				"x": -4.5139892572,
				"y": 1.8985498205,
				"z": 0.9884105014,
				"element": "H" 
			}
		],
		 "valence_orbital": [ 
			{
				"type": "occ",
				"energy": -0.30349,
				"method": "rhf"
			},
			{
				"type": "occ",
				"energy": -0.29484,
				"method": "rhf"
			},
			{
				"type": "occ",
				"energy": -0.2815,
				"method": "rhf"
			},
			{
				"type": "occ",
				"energy": -0.28075,
				"method": "rhf"
			},
			{
				"type": "occ",
				"energy": -0.2702,
				"method": "rhf"
			},
			{
				"type": "unocc",
				"energy": -0.09027,
				"method": "rhf"
			},
			{
				"type": "unocc",
				"energy": -0.03123,
				"method": "rhf"
			},
			{
				"type": "unocc",
				"energy": -0.0282,
				"method": "rhf"
			},
			{
				"type": "unocc",
				"energy": 0.02827,
				"method": "rhf"
			},
			{
				"type": "unocc",
				"energy": 0.08237,
				"method": "rhf"
			}
		],
		"cosmo_sigma_profile": { 
			"-0.025": 0.0,
			"-0.024": 0.0,
			"-0.023": 0.0,
			"-0.022": 0.0,
			"-0.021": 0.0,
			"-0.02": 0.0,
			"-0.019": 0.0,
			"-0.018": 0.0,
			"-0.017": 0.0,
			"-0.016": 0.0,
			"-0.015": 0.0,
			"-0.014": 0.0,
			"-0.013": 0.0,
			"-0.012": 0.0,
			"-0.011": 0.0,
			"-0.01": 0.836827780727,
			"-0.009": 4.23177321658,
			"-0.008": 6.50321407084,
			"-0.007": 9.77866104613,
			"-0.006": 11.2497682389,
			"-0.005": 10.2936987324,
			"-0.004": 9.18391582711,
			"-0.003": 10.2265636755,
			"-0.002": 11.8039714808,
			"-0.001": 15.0833062242,
			"0.0": 19.6785528061,
			"0.001": 26.6727474796,
			"0.002": 35.9445277349,
			"0.003": 29.4055836651,
			"0.004": 10.5572772262,
			"0.005": 7.39453845578,
			"0.006": 1.23385795538,
			"0.007": 1.86623477638,
			"0.008": 1.55693665583,
			"0.009": 2.33211076235,
			"0.01": 3.23442780454,
			"0.011": 2.8833121408,
			"0.012": 0.404235472932,
			"0.013": 0.0,
			"0.014": 0.0,
			"0.015": 0.0,
			"0.016": 0.0,
			"0.017": 0.0,
			"0.018": 0.0,
			"0.019": 0.0,
			"0.02": 0.0,
			"0.021": 0.0,
			"0.022": 0.0,
			"0.023": 0.0,
			"0.024": 0.0,
			"0.025": 0.0
		}
	}
}
