{
	 "smiles": "COC1=CC=C2C3=C(CCCC3)N(C)C2=C1", 
	 "Tm": 369.15, 
	 "num_atms": 33, 
	 "gaussian": { 
		 "optdone": 1, 
		 "sigma_profile": "yes", 
		 "theory": "DFT", 
		 "functional": "B3LYP", 
		 "basiset": "6-31G**", 
		 "properties": { 
			 "R2extent": 4510.3741, 
			 "electric_dipole_moment_norm": 3.21681558999, 
			 "electric_quadrupole_moment_norm": 12.4161592218, 
			 "total_energy": -673.720888314, 
			 "HOMO_LUMO_gap": 0.18289, 
			 "cosmo_polarized_energy": -8.54, 
			 "cosmo_cavitation_energy": 33.79, 
			 "cosmo_dispersion_energy": -24.88, 
			 "cosmo_repulsion_energy": 1.93, 
			 "cosmo_total_nonelectrostatic_energy": 10.83, 
			 "SMD_solvation_energy": 5.26 
		},
		"coords": [
			{
				"x": 3.5668916076,
				"y": -3.0436075937,
				"z": 2.8396613667,
				"element": "C" 
			},
			{
				"x": 3.7387498367,
				"y": -2.7956387801,
				"z": 1.4581034979,
				"element": "O" 
			},
			{
				"x": 2.808008075,
				"y": -2.0143117086,
				"z": 0.8220128845,
				"element": "C" 
			},
			{
				"x": 3.0465195326,
				"y": -1.8131067576,
				"z": -0.5572744461,
				"element": "C" 
			},
			{
				"x": 2.1871142856,
				"y": -1.0435956283,
				"z": -1.32501736,
				"element": "C" 
			},
			{
				"x": 1.0609891213,
				"y": -0.4529584353,
				"z": -0.725963377,
				"element": "C" 
			},
			{
				"x": -0.0112575998,
				"y": 0.3868070552,
				"z": -1.1897779771,
				"element": "C" 
			},
			{
				"x": -0.8229506869,
				"y": 0.6364413137,
				"z": -0.1108030842,
				"element": "C" 
			},
			{
				"x": -2.0650028889,
				"y": 1.4746815115,
				"z": -0.13106611,
				"element": "C" 
			},
			{
				"x": -2.4944957714,
				"y": 1.7271606004,
				"z": -1.5916542639,
				"element": "C" 
			},
			{
				"x": -1.3000420182,
				"y": 2.0891052486,
				"z": -2.4889174326,
				"element": "C" 
			},
			{
				"x": -0.2784107541,
				"y": 0.9382098344,
				"z": -2.5620754531,
				"element": "C" 
			},
			{
				"x": -0.31161884,
				"y": -0.0028764575,
				"z": 1.0216890517,
				"element": "N" 
			},
			{
				"x": -0.8432357808,
				"y": 0.0439099901,
				"z": 2.3663644187,
				"element": "C" 
			},
			{
				"x": 0.8424555945,
				"y": -0.6715861199,
				"z": 0.6595651363,
				"element": "C" 
			},
			{
				"x": 1.7018358666,
				"y": -1.4453757632,
				"z": 1.4537017981,
				"element": "C" 
			},
			{
				"x": 4.4023116716,
				"y": -3.6776454792,
				"z": 3.142495584,
				"element": "H" 
			},
			{
				"x": 3.5896265978,
				"y": -2.1152001603,
				"z": 3.4270021472,
				"element": "H" 
			},
			{
				"x": 2.6241536594,
				"y": -3.5690990298,
				"z": 3.0458194617,
				"element": "H" 
			},
			{
				"x": 3.9238330791,
				"y": -2.2813805782,
				"z": -0.9909387066,
				"element": "H" 
			},
			{
				"x": 2.3882580713,
				"y": -0.9013274011,
				"z": -2.3833796426,
				"element": "H" 
			},
			{
				"x": -1.8919320791,
				"y": 2.4361353303,
				"z": 0.3772051032,
				"element": "H" 
			},
			{
				"x": -2.8862014666,
				"y": 0.9882080659,
				"z": 0.4125519977,
				"element": "H" 
			},
			{
				"x": -2.9748220134,
				"y": 0.8212740996,
				"z": -1.9838858328,
				"element": "H" 
			},
			{
				"x": -3.2484438129,
				"y": 2.5218786427,
				"z": -1.6184006425,
				"element": "H" 
			},
			{
				"x": -1.6510892056,
				"y": 2.3457494153,
				"z": -3.4949782197,
				"element": "H" 
			},
			{
				"x": -0.8080386426,
				"y": 2.9849916793,
				"z": -2.0869835099,
				"element": "H" 
			},
			{
				"x": -0.6603936083,
				"y": 0.1489670856,
				"z": -3.2277231753,
				"element": "H" 
			},
			{
				"x": 0.6519628904,
				"y": 1.2937103185,
				"z": -3.0239113118,
				"element": "H" 
			},
			{
				"x": -1.0392800533,
				"y": -0.9658417024,
				"z": 2.7462105092,
				"element": "H" 
			},
			{
				"x": -1.7826527474,
				"y": 0.597441872,
				"z": 2.3700322443,
				"element": "H" 
			},
			{
				"x": -0.1484364325,
				"y": 0.5423875221,
				"z": 3.0539306064,
				"element": "H" 
			},
			{
				"x": 1.5093945123,
				"y": -1.58980799,
				"z": 2.5096047375,
				"element": "H" 
			}
		],
		 "valence_orbital": [ 
			{
				"type": "occ",
				"energy": -0.30777,
				"method": "rhf"
			},
			{
				"type": "occ",
				"energy": -0.28206,
				"method": "rhf"
			},
			{
				"type": "occ",
				"energy": -0.24676,
				"method": "rhf"
			},
			{
				"type": "occ",
				"energy": -0.19846,
				"method": "rhf"
			},
			{
				"type": "occ",
				"energy": -0.17499,
				"method": "rhf"
			},
			{
				"type": "unocc",
				"energy": 0.0079,
				"method": "rhf"
			},
			{
				"type": "unocc",
				"energy": 0.03786,
				"method": "rhf"
			},
			{
				"type": "unocc",
				"energy": 0.08002,
				"method": "rhf"
			},
			{
				"type": "unocc",
				"energy": 0.08454,
				"method": "rhf"
			},
			{
				"type": "unocc",
				"energy": 0.10095,
				"method": "rhf"
			}
		],
		"cosmo_sigma_profile": { 
			"-0.025": 0.0,
			"-0.024": 0.0,
			"-0.023": 0.0,
			"-0.022": 0.0,
			"-0.021": 0.0,
			"-0.02": 0.0,
			"-0.019": 0.0,
			"-0.018": 0.0,
			"-0.017": 0.0,
			"-0.016": 0.0,
			"-0.015": 0.0,
			"-0.014": 0.0,
			"-0.013": 0.0,
			"-0.012": 0.0,
			"-0.011": 0.0,
			"-0.01": 0.0,
			"-0.009": 0.0,
			"-0.008": 0.0,
			"-0.007": 0.00172545976843,
			"-0.006": 3.78974423891,
			"-0.005": 18.1400215845,
			"-0.004": 23.8692509988,
			"-0.003": 31.5887857736,
			"-0.002": 38.5171558826,
			"-0.001": 30.5787719481,
			"0.0": 27.2088074897,
			"0.001": 17.8059242832,
			"0.002": 8.96290285253,
			"0.003": 8.04306149003,
			"0.004": 9.69304401177,
			"0.005": 11.5454244288,
			"0.006": 14.1997685485,
			"0.007": 14.0796284886,
			"0.008": 2.64762631416,
			"0.009": 1.29943575741,
			"0.01": 1.96405911617,
			"0.011": 1.38989780748,
			"0.012": 0.125018790403,
			"0.013": 0.0,
			"0.014": 0.0,
			"0.015": 0.0,
			"0.016": 0.0,
			"0.017": 0.0,
			"0.018": 0.0,
			"0.019": 0.0,
			"0.02": 0.0,
			"0.021": 0.0,
			"0.022": 0.0,
			"0.023": 0.0,
			"0.024": 0.0,
			"0.025": 0.0
		}
	}
}
