{
	 "smiles": "OCC1=CC(Cl)=C(Cl)C=C1", 
	 "Tm": 310.15, 
	 "num_atms": 16, 
	 "gaussian": { 
		 "optdone": 1, 
		 "sigma_profile": "yes", 
		 "theory": "DFT", 
		 "functional": "B3LYP", 
		 "basiset": "6-31G**", 
		 "properties": { 
			 "R2extent": 3264.2874, 
			 "electric_dipole_moment_norm": 2.98657560761, 
			 "electric_quadrupole_moment_norm": 8.71379469692, 
			 "total_energy": -1265.95696952, 
			 "HOMO_LUMO_gap": 0.22138, 
			 "cosmo_polarized_energy": -8.51, 
			 "cosmo_cavitation_energy": 23.6, 
			 "cosmo_dispersion_energy": -17.76, 
			 "cosmo_repulsion_energy": 1.46, 
			 "cosmo_total_nonelectrostatic_energy": 7.3, 
			 "SMD_solvation_energy": 3.57 
		},
		"coords": [
			{
				"x": -1.2457324469,
				"y": -1.5257650522,
				"z": -1.9309910905,
				"element": "O" 
			},
			{
				"x": -1.4886232042,
				"y": -0.6256377197,
				"z": -0.8632163334,
				"element": "C" 
			},
			{
				"x": -0.3622802636,
				"y": 0.3653377397,
				"z": -0.6282736543,
				"element": "C" 
			},
			{
				"x": 0.9453838866,
				"y": 0.0350858432,
				"z": -0.990044862,
				"element": "C" 
			},
			{
				"x": 1.9964434923,
				"y": 0.923169644,
				"z": -0.7564498394,
				"element": "C" 
			},
			{
				"x": 3.6108878143,
				"y": 0.4566647273,
				"z": -1.2372206403,
				"element": "Cl" 
			},
			{
				"x": 1.7453442286,
				"y": 2.1597778311,
				"z": -0.1471842172,
				"element": "C" 
			},
			{
				"x": 3.026147646,
				"y": 3.3062896476,
				"z": 0.1642759128,
				"element": "Cl" 
			},
			{
				"x": 0.4381197191,
				"y": 2.4927791667,
				"z": 0.2164937956,
				"element": "C" 
			},
			{
				"x": -0.6058464222,
				"y": 1.6049600546,
				"z": -0.0268171866,
				"element": "C" 
			},
			{
				"x": -1.1644820788,
				"y": -1.0064818489,
				"z": -2.7423884556,
				"element": "H" 
			},
			{
				"x": -2.4347576946,
				"y": -0.0781105057,
				"z": -0.9970409643,
				"element": "H" 
			},
			{
				"x": -1.6142772334,
				"y": -1.2586667895,
				"z": 0.0233669043,
				"element": "H" 
			},
			{
				"x": 1.1444870297,
				"y": -0.9207191744,
				"z": -1.461291349,
				"element": "H" 
			},
			{
				"x": 0.250959563,
				"y": 3.4548172496,
				"z": 0.6806902743,
				"element": "H" 
			},
			{
				"x": -1.6182740359,
				"y": 1.8846991866,
				"z": 0.2526917055,
				"element": "H" 
			}
		],
		 "valence_orbital": [ 
			{
				"type": "occ",
				"energy": -0.32815,
				"method": "rhf"
			},
			{
				"type": "occ",
				"energy": -0.30992,
				"method": "rhf"
			},
			{
				"type": "occ",
				"energy": -0.2902,
				"method": "rhf"
			},
			{
				"type": "occ",
				"energy": -0.2629,
				"method": "rhf"
			},
			{
				"type": "occ",
				"energy": -0.24818,
				"method": "rhf"
			},
			{
				"type": "unocc",
				"energy": -0.0268,
				"method": "rhf"
			},
			{
				"type": "unocc",
				"energy": -0.02604,
				"method": "rhf"
			},
			{
				"type": "unocc",
				"energy": 0.00305,
				"method": "rhf"
			},
			{
				"type": "unocc",
				"energy": 0.06002,
				"method": "rhf"
			},
			{
				"type": "unocc",
				"energy": 0.07362,
				"method": "rhf"
			}
		],
		"cosmo_sigma_profile": { 
			"-0.025": 0.0,
			"-0.024": 0.0,
			"-0.023": 0.0,
			"-0.022": 0.0,
			"-0.021": 0.0,
			"-0.02": 0.0,
			"-0.019": 0.0,
			"-0.018": 0.0,
			"-0.017": 0.0,
			"-0.016": 0.487041319151,
			"-0.015": 0.8817505879,
			"-0.014": 1.20205681353,
			"-0.013": 0.732989307487,
			"-0.012": 0.949987917256,
			"-0.011": 0.786040983076,
			"-0.01": 0.872057727975,
			"-0.009": 0.948430518161,
			"-0.008": 1.68613655817,
			"-0.007": 5.77031483515,
			"-0.006": 8.86365076968,
			"-0.005": 11.875832482,
			"-0.004": 9.73025247084,
			"-0.003": 11.4386192143,
			"-0.002": 10.3183814751,
			"-0.001": 10.2737010937,
			"0.0": 16.2287490881,
			"0.001": 20.75457925,
			"0.002": 20.7552152949,
			"0.003": 19.447970979,
			"0.004": 18.655996988,
			"0.005": 7.87637642559,
			"0.006": 2.44412126615,
			"0.007": 1.19115380599,
			"0.008": 1.06776403061,
			"0.009": 1.00270903592,
			"0.01": 0.903331440711,
			"0.011": 0.909367504016,
			"0.012": 1.59456982912,
			"0.013": 1.80935518188,
			"0.014": 1.1866412025,
			"0.015": 0.0,
			"0.016": 0.0,
			"0.017": 0.0,
			"0.018": 0.0,
			"0.019": 0.0,
			"0.02": 0.0,
			"0.021": 0.0,
			"0.022": 0.0,
			"0.023": 0.0,
			"0.024": 0.0,
			"0.025": 0.0
		}
	}
}
