{
	 "smiles": "CCOC1=C(N=C(O1)C1=CC=CC=C1)C(O)=O", 
	 "Tm": 421.15, 
	 "num_atms": 28, 
	 "gaussian": { 
		 "optdone": 1, 
		 "sigma_profile": "yes", 
		 "theory": "DFT", 
		 "functional": "B3LYP", 
		 "basiset": "6-31G**", 
		 "properties": { 
			 "R2extent": 6085.2542, 
			 "electric_dipole_moment_norm": 7.20987638244, 
			 "electric_quadrupole_moment_norm": 35.6104324766, 
			 "total_energy": -819.553896729, 
			 "HOMO_LUMO_gap": 0.16557, 
			 "cosmo_polarized_energy": -16.31, 
			 "cosmo_cavitation_energy": 33.7, 
			 "cosmo_dispersion_energy": -23.94, 
			 "cosmo_repulsion_energy": 1.88, 
			 "cosmo_total_nonelectrostatic_energy": 11.64, 
			 "SMD_solvation_energy": 6.92 
		},
		"coords": [
			{
				"x": 1.9794918264,
				"y": 0.0259909007,
				"z": 2.4618695765,
				"element": "C" 
			},
			{
				"x": 1.0231549384,
				"y": -0.9598040592,
				"z": 3.1147476108,
				"element": "C" 
			},
			{
				"x": 0.7944215085,
				"y": -2.1238755184,
				"z": 2.2789258613,
				"element": "O" 
			},
			{
				"x": -0.0369495954,
				"y": -2.0334558175,
				"z": 1.2608503248,
				"element": "C" 
			},
			{
				"x": -0.3474831618,
				"y": -2.9144912796,
				"z": 0.2538101308,
				"element": "C" 
			},
			{
				"x": -1.3251317572,
				"y": -2.3303108533,
				"z": -0.5451080101,
				"element": "N" 
			},
			{
				"x": -1.5692169247,
				"y": -1.1650569787,
				"z": -0.0312085779,
				"element": "C" 
			},
			{
				"x": -0.7997985788,
				"y": -0.9177869434,
				"z": 1.0977138615,
				"element": "O" 
			},
			{
				"x": -2.4995481232,
				"y": -0.133895503,
				"z": -0.4688727739,
				"element": "C" 
			},
			{
				"x": -2.6312890504,
				"y": 1.0775777322,
				"z": 0.2291082494,
				"element": "C" 
			},
			{
				"x": -3.5311124225,
				"y": 2.0442826366,
				"z": -0.2151410298,
				"element": "C" 
			},
			{
				"x": -4.3060200397,
				"y": 1.8154978251,
				"z": -1.3538530702,
				"element": "C" 
			},
			{
				"x": -4.1773617731,
				"y": 0.6100686522,
				"z": -2.0506416357,
				"element": "C" 
			},
			{
				"x": -3.2815617073,
				"y": -0.3607858971,
				"z": -1.6149143966,
				"element": "C" 
			},
			{
				"x": 0.194030753,
				"y": -4.2541792434,
				"z": -0.0279857285,
				"element": "C" 
			},
			{
				"x": -0.355533177,
				"y": -4.8364348385,
				"z": -1.1214034137,
				"element": "O" 
			},
			{
				"x": 1.0464169586,
				"y": -4.801942751,
				"z": 0.6340906246,
				"element": "O" 
			},
			{
				"x": 1.5490982177,
				"y": 0.4582456804,
				"z": 1.5546481111,
				"element": "H" 
			},
			{
				"x": 2.9221183844,
				"y": -0.4648497345,
				"z": 2.2058055776,
				"element": "H" 
			},
			{
				"x": 2.1932389127,
				"y": 0.8427193559,
				"z": 3.1590825588,
				"element": "H" 
			},
			{
				"x": 0.0624583922,
				"y": -0.4970786826,
				"z": 3.3585034509,
				"element": "H" 
			},
			{
				"x": 1.449148395,
				"y": -1.3834703232,
				"z": 4.0256498541,
				"element": "H" 
			},
			{
				"x": -2.031007391,
				"y": 1.2569381642,
				"z": 1.11453924,
				"element": "H" 
			},
			{
				"x": -3.6271658483,
				"y": 2.9784183722,
				"z": 0.3302976297,
				"element": "H" 
			},
			{
				"x": -5.0063231003,
				"y": 2.571114764,
				"z": -1.6970510425,
				"element": "H" 
			},
			{
				"x": -4.7777519685,
				"y": 0.4270528013,
				"z": -2.9368139368,
				"element": "H" 
			},
			{
				"x": -3.1744324314,
				"y": -1.2989938261,
				"z": -2.1485821367,
				"element": "H" 
			},
			{
				"x": -1.0115912364,
				"y": -4.2193946356,
				"z": -1.4915669094,
				"element": "H" 
			}
		],
		 "valence_orbital": [ 
			{
				"type": "occ",
				"energy": -0.29703,
				"method": "rhf"
			},
			{
				"type": "occ",
				"energy": -0.28327,
				"method": "rhf"
			},
			{
				"type": "occ",
				"energy": -0.2673,
				"method": "rhf"
			},
			{
				"type": "occ",
				"energy": -0.25765,
				"method": "rhf"
			},
			{
				"type": "occ",
				"energy": -0.21961,
				"method": "rhf"
			},
			{
				"type": "unocc",
				"energy": -0.05404,
				"method": "rhf"
			},
			{
				"type": "unocc",
				"energy": -0.01889,
				"method": "rhf"
			},
			{
				"type": "unocc",
				"energy": -0.01314,
				"method": "rhf"
			},
			{
				"type": "unocc",
				"energy": 0.04467,
				"method": "rhf"
			},
			{
				"type": "unocc",
				"energy": 0.06983,
				"method": "rhf"
			}
		],
		"cosmo_sigma_profile": { 
			"-0.025": 0.0,
			"-0.024": 0.0,
			"-0.023": 0.0,
			"-0.022": 0.0,
			"-0.021": 0.0,
			"-0.02": 0.0,
			"-0.019": 0.0,
			"-0.018": 0.0,
			"-0.017": 0.0,
			"-0.016": 0.0,
			"-0.015": 0.0,
			"-0.014": 0.404532544796,
			"-0.013": 0.554592619824,
			"-0.012": 0.403401173055,
			"-0.011": 0.663934672689,
			"-0.01": 0.741679792901,
			"-0.009": 0.672109862729,
			"-0.008": 0.392607987846,
			"-0.007": 4.87427200557,
			"-0.006": 15.9920465988,
			"-0.005": 23.9708217,
			"-0.004": 27.5142395641,
			"-0.003": 21.591917102,
			"-0.002": 23.5207326061,
			"-0.001": 25.7686023233,
			"0.0": 19.9847635248,
			"0.001": 14.2627948802,
			"0.002": 13.6324934512,
			"0.003": 15.0377263529,
			"0.004": 16.224880141,
			"0.005": 6.85777170629,
			"0.006": 4.74061567075,
			"0.007": 2.99147343562,
			"0.008": 3.81186492308,
			"0.009": 4.43202964694,
			"0.01": 5.15176371777,
			"0.011": 5.38883465208,
			"0.012": 6.56320940348,
			"0.013": 3.09795804482,
			"0.014": 0.536882794409,
			"0.015": 0.0,
			"0.016": 0.0,
			"0.017": 0.0,
			"0.018": 0.0,
			"0.019": 0.0,
			"0.02": 0.0,
			"0.021": 0.0,
			"0.022": 0.0,
			"0.023": 0.0,
			"0.024": 0.0,
			"0.025": 0.0
		}
	}
}
