{
	 "smiles": "ClC1=CC=C(C=C1)C1=C(C#N)C(=N)N(C2=CC=CC=C2)C(C1)=C(C#N)C#N", 
	 "Tm": 565.15, 
	 "num_atms": 39, 
	 "gaussian": { 
		 "optdone": 1, 
		 "sigma_profile": "yes", 
		 "theory": "DFT", 
		 "functional": "B3LYP", 
		 "basiset": "6-31G**", 
		 "properties": { 
			 "R2extent": 12976.5692, 
			 "electric_dipole_moment_norm": 2.43523984856, 
			 "electric_quadrupole_moment_norm": 46.9684576241, 
			 "total_energy": -1541.32219201, 
			 "HOMO_LUMO_gap": 0.15004, 
			 "cosmo_polarized_energy": -29.34, 
			 "cosmo_cavitation_energy": 48.3, 
			 "cosmo_dispersion_energy": -31.42, 
			 "cosmo_repulsion_energy": 2.36, 
			 "cosmo_total_nonelectrostatic_energy": 19.24, 
			 "SMD_solvation_energy": 9.89 
		},
		"coords": [
			{
				"x": -4.740794291,
				"y": -5.5366480488,
				"z": 0.6118328095,
				"element": "Cl" 
			},
			{
				"x": -3.4254580068,
				"y": -4.3997992146,
				"z": 0.4121802639,
				"element": "C" 
			},
			{
				"x": -2.6130248162,
				"y": -4.4767096337,
				"z": -0.7194067881,
				"element": "C" 
			},
			{
				"x": -1.5655205974,
				"y": -3.5743966844,
				"z": -0.872585154,
				"element": "C" 
			},
			{
				"x": -1.3135606356,
				"y": -2.5815240372,
				"z": 0.0931232847,
				"element": "C" 
			},
			{
				"x": -2.1661854586,
				"y": -2.5162420312,
				"z": 1.2130276868,
				"element": "C" 
			},
			{
				"x": -3.2080740338,
				"y": -3.4218333265,
				"z": 1.3832354294,
				"element": "C" 
			},
			{
				"x": -0.2220976443,
				"y": -1.599167197,
				"z": -0.0610652785,
				"element": "C" 
			},
			{
				"x": 0.9904134108,
				"y": -1.8425904788,
				"z": -0.6248838053,
				"element": "C" 
			},
			{
				"x": 1.3973374159,
				"y": -3.1377560279,
				"z": -1.0850677869,
				"element": "C" 
			},
			{
				"x": 1.706366828,
				"y": -4.1953513176,
				"z": -1.4565024338,
				"element": "N" 
			},
			{
				"x": 2.0276141293,
				"y": -0.7928289657,
				"z": -0.7507871574,
				"element": "C" 
			},
			{
				"x": 3.2077722539,
				"y": -1.1407410879,
				"z": -1.0816799094,
				"element": "N" 
			},
			{
				"x": 1.618002293,
				"y": 0.563118206,
				"z": -0.5288338727,
				"element": "N" 
			},
			{
				"x": 2.5991268793,
				"y": 1.5764938877,
				"z": -0.8582237724,
				"element": "C" 
			},
			{
				"x": 2.7852808171,
				"y": 1.9508971924,
				"z": -2.1912465839,
				"element": "C" 
			},
			{
				"x": 3.7375439145,
				"y": 2.9203846383,
				"z": -2.4989769471,
				"element": "C" 
			},
			{
				"x": 4.4998760391,
				"y": 3.501552328,
				"z": -1.4829620757,
				"element": "C" 
			},
			{
				"x": 4.3210759356,
				"y": 3.1065218622,
				"z": -0.1561449114,
				"element": "C" 
			},
			{
				"x": 3.3725547401,
				"y": 2.1348950843,
				"z": 0.1618322375,
				"element": "C" 
			},
			{
				"x": 0.3817515298,
				"y": 0.8958980052,
				"z": -0.0378914857,
				"element": "C" 
			},
			{
				"x": -0.4646614873,
				"y": -0.2268815228,
				"z": 0.5172960801,
				"element": "C" 
			},
			{
				"x": -0.1281136011,
				"y": 2.1822618929,
				"z": 0.0449578552,
				"element": "C" 
			},
			{
				"x": -1.4108567204,
				"y": 2.3753124533,
				"z": 0.6498546818,
				"element": "C" 
			},
			{
				"x": -2.4521166448,
				"y": 2.5290368231,
				"z": 1.149265008,
				"element": "N" 
			},
			{
				"x": 0.4793425247,
				"y": 3.394187892,
				"z": -0.4084676653,
				"element": "C" 
			},
			{
				"x": 0.8683368235,
				"y": 4.4379443992,
				"z": -0.7485872844,
				"element": "N" 
			},
			{
				"x": -2.8011442259,
				"y": -5.2311403202,
				"z": -1.4747395279,
				"element": "H" 
			},
			{
				"x": -0.9529236452,
				"y": -3.6377160912,
				"z": -1.7629165938,
				"element": "H" 
			},
			{
				"x": -2.0111651438,
				"y": -1.7643603429,
				"z": 1.9795158908,
				"element": "H" 
			},
			{
				"x": -3.8471789528,
				"y": -3.3693255649,
				"z": 2.2572202425,
				"element": "H" 
			},
			{
				"x": 3.8468657453,
				"y": -0.3482516936,
				"z": -1.1491030182,
				"element": "H" 
			},
			{
				"x": 2.1799303375,
				"y": 1.4962121085,
				"z": -2.9688227332,
				"element": "H" 
			},
			{
				"x": 3.8778876387,
				"y": 3.2274335449,
				"z": -3.5303421091,
				"element": "H" 
			},
			{
				"x": 5.2348974463,
				"y": 4.2623582171,
				"z": -1.7263638097,
				"element": "H" 
			},
			{
				"x": 4.9161328806,
				"y": 3.5554003028,
				"z": 0.6326797879,
				"element": "H" 
			},
			{
				"x": 3.2207845604,
				"y": 1.8184135537,
				"z": 1.1890201,
				"element": "H" 
			},
			{
				"x": -0.286610399,
				"y": -0.2660010723,
				"z": 1.6041435295,
				"element": "H" 
			},
			{
				"x": -1.5170078396,
				"y": 0.0380422677,
				"z": 0.4070158161,
				"element": "H" 
			}
		],
		 "valence_orbital": [ 
			{
				"type": "occ",
				"energy": -0.28705,
				"method": "rhf"
			},
			{
				"type": "occ",
				"energy": -0.28465,
				"method": "rhf"
			},
			{
				"type": "occ",
				"energy": -0.28356,
				"method": "rhf"
			},
			{
				"type": "occ",
				"energy": -0.25757,
				"method": "rhf"
			},
			{
				"type": "occ",
				"energy": -0.25127,
				"method": "rhf"
			},
			{
				"type": "unocc",
				"energy": -0.10123,
				"method": "rhf"
			},
			{
				"type": "unocc",
				"energy": -0.07767,
				"method": "rhf"
			},
			{
				"type": "unocc",
				"energy": -0.04646,
				"method": "rhf"
			},
			{
				"type": "unocc",
				"energy": -0.0376,
				"method": "rhf"
			},
			{
				"type": "unocc",
				"energy": -0.03587,
				"method": "rhf"
			}
		],
		"cosmo_sigma_profile": { 
			"-0.025": 0.0,
			"-0.024": 0.0,
			"-0.023": 0.0,
			"-0.022": 0.0,
			"-0.021": 0.0,
			"-0.02": 0.0,
			"-0.019": 0.0,
			"-0.018": 0.0,
			"-0.017": 0.0,
			"-0.016": 0.0,
			"-0.015": 0.0,
			"-0.014": 0.0,
			"-0.013": 0.0,
			"-0.012": 0.418116837673,
			"-0.011": 3.17614484341,
			"-0.01": 5.4395560954,
			"-0.009": 4.53635840021,
			"-0.008": 14.2642568184,
			"-0.007": 27.0735904737,
			"-0.006": 25.7732788568,
			"-0.005": 24.7399844,
			"-0.004": 21.3637254134,
			"-0.003": 23.9762720451,
			"-0.002": 23.7514798637,
			"-0.001": 21.037625925,
			"0.0": 24.0108137693,
			"0.001": 28.9499496328,
			"0.002": 26.327779221,
			"0.003": 17.9295798418,
			"0.004": 17.247907557,
			"0.005": 9.3186377096,
			"0.006": 9.64577443101,
			"0.007": 10.3919963927,
			"0.008": 12.0830355582,
			"0.009": 10.7959166772,
			"0.01": 10.1912315462,
			"0.011": 8.51357773562,
			"0.012": 8.24720894472,
			"0.013": 3.86509878279,
			"0.014": 1.01710845046,
			"0.015": 0.34185272076,
			"0.016": 0.0,
			"0.017": 0.0,
			"0.018": 0.0,
			"0.019": 0.0,
			"0.02": 0.0,
			"0.021": 0.0,
			"0.022": 0.0,
			"0.023": 0.0,
			"0.024": 0.0,
			"0.025": 0.0
		}
	}
}
