{
	 "smiles": "CC1OC2=C(C=CC=C2C1C)C(O)=O", 
	 "Tm": 371.15, 
	 "num_atms": 26, 
	 "gaussian": { 
		 "optdone": 1, 
		 "sigma_profile": "yes", 
		 "theory": "DFT", 
		 "functional": "B3LYP", 
		 "basiset": "6-31G**", 
		 "properties": { 
			 "R2extent": 4976.4607, 
			 "electric_dipole_moment_norm": 7.29804537873, 
			 "electric_quadrupole_moment_norm": 35.2258509779, 
			 "total_energy": -652.100261252, 
			 "HOMO_LUMO_gap": 0.19108, 
			 "cosmo_polarized_energy": -13.37, 
			 "cosmo_cavitation_energy": 28.87, 
			 "cosmo_dispersion_energy": -21.0, 
			 "cosmo_repulsion_energy": 1.65, 
			 "cosmo_total_nonelectrostatic_energy": 9.51, 
			 "SMD_solvation_energy": 6.07 
		},
		"coords": [
			{
				"x": 0.7779724022,
				"y": -0.0587080911,
				"z": 2.379158181,
				"element": "C" 
			},
			{
				"x": 0.1895772868,
				"y": 1.1743723298,
				"z": 1.7224373377,
				"element": "C" 
			},
			{
				"x": -1.2741181012,
				"y": 1.0854293471,
				"z": 1.7818946451,
				"element": "O" 
			},
			{
				"x": -1.7778203545,
				"y": 1.6190702541,
				"z": 0.6228350219,
				"element": "C" 
			},
			{
				"x": -3.1285807578,
				"y": 1.9048581473,
				"z": 0.4126990324,
				"element": "C" 
			},
			{
				"x": -3.4650730362,
				"y": 2.4395116445,
				"z": -0.8445431635,
				"element": "C" 
			},
			{
				"x": -2.4995826587,
				"y": 2.6743591437,
				"z": -1.8185903091,
				"element": "C" 
			},
			{
				"x": -1.1498216054,
				"y": 2.3745589344,
				"z": -1.5705125268,
				"element": "C" 
			},
			{
				"x": -0.7920420779,
				"y": 1.8463994812,
				"z": -0.3378334262,
				"element": "C" 
			},
			{
				"x": 0.5378953679,
				"y": 1.3799687932,
				"z": 0.2220585328,
				"element": "C" 
			},
			{
				"x": 1.7183061957,
				"y": 2.332036051,
				"z": 0.0028756163,
				"element": "C" 
			},
			{
				"x": -4.2162047089,
				"y": 1.6932570598,
				"z": 1.4228357694,
				"element": "C" 
			},
			{
				"x": -3.8477718098,
				"y": 1.2131767898,
				"z": 2.6306371431,
				"element": "O" 
			},
			{
				"x": -5.3782594617,
				"y": 1.9406922944,
				"z": 1.1856539329,
				"element": "O" 
			},
			{
				"x": 0.4744874733,
				"y": -0.9628654845,
				"z": 1.8430694878,
				"element": "H" 
			},
			{
				"x": 1.871201969,
				"y": 0.0004723966,
				"z": 2.3710004252,
				"element": "H" 
			},
			{
				"x": 0.4506538958,
				"y": -0.1437789551,
				"z": 3.4190899068,
				"element": "H" 
			},
			{
				"x": 0.4619569235,
				"y": 2.0775643348,
				"z": 2.2860415404,
				"element": "H" 
			},
			{
				"x": -4.5108968297,
				"y": 2.6675784862,
				"z": -1.0204382751,
				"element": "H" 
			},
			{
				"x": -2.7912067766,
				"y": 3.0921920548,
				"z": -2.7768575477,
				"element": "H" 
			},
			{
				"x": -0.3994898375,
				"y": 2.5557868464,
				"z": -2.3353841266,
				"element": "H" 
			},
			{
				"x": 0.789461509,
				"y": 0.403326351,
				"z": -0.2187111127,
				"element": "H" 
			},
			{
				"x": 1.5031180908,
				"y": 3.3244975258,
				"z": 0.4117176221,
				"element": "H" 
			},
			{
				"x": 1.9356983169,
				"y": 2.4467863558,
				"z": -1.0633139483,
				"element": "H" 
			},
			{
				"x": 2.6260041948,
				"y": 1.9513285882,
				"z": 0.4835011381,
				"element": "H" 
			},
			{
				"x": -2.8846656099,
				"y": 1.0693293207,
				"z": 2.6667791028,
				"element": "H" 
			}
		],
		 "valence_orbital": [ 
			{
				"type": "occ",
				"energy": -0.32917,
				"method": "rhf"
			},
			{
				"type": "occ",
				"energy": -0.29738,
				"method": "rhf"
			},
			{
				"type": "occ",
				"energy": -0.26072,
				"method": "rhf"
			},
			{
				"type": "occ",
				"energy": -0.25931,
				"method": "rhf"
			},
			{
				"type": "occ",
				"energy": -0.23439,
				"method": "rhf"
			},
			{
				"type": "unocc",
				"energy": -0.04331,
				"method": "rhf"
			},
			{
				"type": "unocc",
				"energy": -0.0049,
				"method": "rhf"
			},
			{
				"type": "unocc",
				"energy": 0.05751,
				"method": "rhf"
			},
			{
				"type": "unocc",
				"energy": 0.07373,
				"method": "rhf"
			},
			{
				"type": "unocc",
				"energy": 0.07992,
				"method": "rhf"
			}
		],
		"cosmo_sigma_profile": { 
			"-0.025": 0.0,
			"-0.024": 0.0,
			"-0.023": 0.0,
			"-0.022": 0.0,
			"-0.021": 0.0,
			"-0.02": 0.0,
			"-0.019": 0.0,
			"-0.018": 0.0,
			"-0.017": 0.0,
			"-0.016": 0.0,
			"-0.015": 0.0,
			"-0.014": 0.0,
			"-0.013": 0.0,
			"-0.012": 0.0,
			"-0.011": 0.0,
			"-0.01": 0.0394683770623,
			"-0.009": 0.566632769498,
			"-0.008": 0.43897514126,
			"-0.007": 1.67723455883,
			"-0.006": 6.69120702749,
			"-0.005": 19.7014473596,
			"-0.004": 29.3739436699,
			"-0.003": 25.9627090188,
			"-0.002": 21.2240364518,
			"-0.001": 22.9472364469,
			"0.0": 21.1497277514,
			"0.001": 13.4471424436,
			"0.002": 11.6487893952,
			"0.003": 11.2559286982,
			"0.004": 9.47883584786,
			"0.005": 4.2032303236,
			"0.006": 2.68159224473,
			"0.007": 1.76859615445,
			"0.008": 2.77312915991,
			"0.009": 2.80947019044,
			"0.01": 3.50047492551,
			"0.011": 5.40370313499,
			"0.012": 5.79681774349,
			"0.013": 3.21814692249,
			"0.014": 0.711062446977,
			"0.015": 0.0,
			"0.016": 0.0,
			"0.017": 0.0,
			"0.018": 0.0,
			"0.019": 0.0,
			"0.02": 0.0,
			"0.021": 0.0,
			"0.022": 0.0,
			"0.023": 0.0,
			"0.024": 0.0,
			"0.025": 0.0
		}
	}
}
