{
	 "smiles": "CCCCCCCCCCC(=O)OCC(COC(=O)CCCCCCCCCC)OC(=O)CCCCCCCCCC", 
	 "Tm": 301.15, 
	 "num_atms": 110, 
	 "gaussian": { 
		 "optdone": 1, 
		 "sigma_profile": "yes", 
		 "theory": "DFT", 
		 "functional": "B3LYP", 
		 "basiset": "6-31G**", 
		 "properties": { 
			 "R2extent": 40566.1297, 
			 "electric_dipole_moment_norm": 2.94255649054, 
			 "electric_quadrupole_moment_norm": 23.7232318751, 
			 "total_energy": -1864.27596139, 
			 "HOMO_LUMO_gap": 0.27328, 
			 "cosmo_polarized_energy": -16.7, 
			 "cosmo_cavitation_energy": 103.95, 
			 "cosmo_dispersion_energy": -61.66, 
			 "cosmo_repulsion_energy": 4.91, 
			 "cosmo_total_nonelectrostatic_energy": 47.21, 
			 "SMD_solvation_energy": 14.65 
		},
		"coords": [
			{
				"x": 6.4325229148,
				"y": -3.1848828453,
				"z": -2.3327301834,
				"element": "C" 
			},
			{
				"x": 6.3733893433,
				"y": -4.5016023399,
				"z": -1.5463037119,
				"element": "C" 
			},
			{
				"x": 5.0369172979,
				"y": -5.2704036599,
				"z": -1.6326160779,
				"element": "C" 
			},
			{
				"x": 3.9664723715,
				"y": -4.9018793965,
				"z": -0.5862489694,
				"element": "C" 
			},
			{
				"x": 3.3647132922,
				"y": -3.486909172,
				"z": -0.6439427234,
				"element": "C" 
			},
			{
				"x": 2.6009743876,
				"y": -3.1650191568,
				"z": -1.9354532003,
				"element": "C" 
			},
			{
				"x": 1.9371712811,
				"y": -1.7814071929,
				"z": -1.9183336386,
				"element": "C" 
			},
			{
				"x": 1.1671304135,
				"y": -1.4633732352,
				"z": -3.2080767671,
				"element": "C" 
			},
			{
				"x": 0.5558304427,
				"y": -0.0544794283,
				"z": -3.2657368041,
				"element": "C" 
			},
			{
				"x": -0.5497639211,
				"y": 0.1808793139,
				"z": -2.2333054012,
				"element": "C" 
			},
			{
				"x": -1.1931041032,
				"y": 1.5449918004,
				"z": -2.3390512506,
				"element": "C" 
			},
			{
				"x": -0.7917256354,
				"y": 2.4714888112,
				"z": -3.0100333461,
				"element": "O" 
			},
			{
				"x": -2.3091753246,
				"y": 1.5969228601,
				"z": -1.5694392307,
				"element": "O" 
			},
			{
				"x": -2.9538380881,
				"y": 2.863305215,
				"z": -1.4258035278,
				"element": "C" 
			},
			{
				"x": -3.2547754382,
				"y": 3.2391919155,
				"z": 0.0305713919,
				"element": "C" 
			},
			{
				"x": -3.7416537884,
				"y": 2.1130360057,
				"z": 0.9504425319,
				"element": "C" 
			},
			{
				"x": -2.7939284425,
				"y": 1.0614120254,
				"z": 1.1736689135,
				"element": "O" 
			},
			{
				"x": -2.0553024885,
				"y": 1.1119938745,
				"z": 2.3109880343,
				"element": "C" 
			},
			{
				"x": -2.1705866795,
				"y": 1.9809180887,
				"z": 3.1505718637,
				"element": "O" 
			},
			{
				"x": -1.0409754757,
				"y": -0.0112613466,
				"z": 2.3617245257,
				"element": "C" 
			},
			{
				"x": -1.522801012,
				"y": -1.3775932319,
				"z": 1.8512204977,
				"element": "C" 
			},
			{
				"x": -2.652643006,
				"y": -1.9891442941,
				"z": 2.690356577,
				"element": "C" 
			},
			{
				"x": -3.0920138578,
				"y": -3.3694426898,
				"z": 2.1823203343,
				"element": "C" 
			},
			{
				"x": -4.2909185467,
				"y": -3.9761853194,
				"z": 2.9320591744,
				"element": "C" 
			},
			{
				"x": -4.0735250342,
				"y": -4.2674173488,
				"z": 4.428466316,
				"element": "C" 
			},
			{
				"x": -2.963528688,
				"y": -5.2684021047,
				"z": 4.8057349599,
				"element": "C" 
			},
			{
				"x": -3.1871517689,
				"y": -6.7344311457,
				"z": 4.3747272608,
				"element": "C" 
			},
			{
				"x": -2.6582055667,
				"y": -7.1143829829,
				"z": 2.9827290928,
				"element": "C" 
			},
			{
				"x": -2.8677188366,
				"y": -8.5962132243,
				"z": 2.6532141088,
				"element": "C" 
			},
			{
				"x": -2.2781475442,
				"y": 4.0780686063,
				"z": 0.6943745202,
				"element": "O" 
			},
			{
				"x": -0.9744683297,
				"y": 3.7277440911,
				"z": 0.822493404,
				"element": "C" 
			},
			{
				"x": -0.4526659278,
				"y": 2.7957061571,
				"z": 0.2466274169,
				"element": "O" 
			},
			{
				"x": -0.2893186792,
				"y": 4.6198075218,
				"z": 1.8365809666,
				"element": "C" 
			},
			{
				"x": 1.2093265373,
				"y": 4.8517546962,
				"z": 1.5791749897,
				"element": "C" 
			},
			{
				"x": 1.5197575369,
				"y": 6.1066555747,
				"z": 0.743624592,
				"element": "C" 
			},
			{
				"x": 1.0018615551,
				"y": 6.1199591749,
				"z": -0.7044468624,
				"element": "C" 
			},
			{
				"x": 1.678040822,
				"y": 5.1100890683,
				"z": -1.6428189224,
				"element": "C" 
			},
			{
				"x": 1.2897051284,
				"y": 5.3074186579,
				"z": -3.1145104493,
				"element": "C" 
			},
			{
				"x": 1.9811657213,
				"y": 4.3149172449,
				"z": -4.0587770798,
				"element": "C" 
			},
			{
				"x": 1.7161567386,
				"y": 4.5570288365,
				"z": -5.5540007268,
				"element": "C" 
			},
			{
				"x": 0.2492705407,
				"y": 4.4024018298,
				"z": -5.9814259063,
				"element": "C" 
			},
			{
				"x": 0.0557419651,
				"y": 4.5198472905,
				"z": -7.4969791198,
				"element": "C" 
			},
			{
				"x": 7.4259366103,
				"y": -2.7291311418,
				"z": -2.2586907568,
				"element": "H" 
			},
			{
				"x": 5.7074172472,
				"y": -2.4493507567,
				"z": -1.9730687416,
				"element": "H" 
			},
			{
				"x": 6.2278233463,
				"y": -3.3565651743,
				"z": -3.395910087,
				"element": "H" 
			},
			{
				"x": 6.6159701622,
				"y": -4.3140376954,
				"z": -0.4910647462,
				"element": "H" 
			},
			{
				"x": 7.1725335311,
				"y": -5.1531535941,
				"z": -1.9221341256,
				"element": "H" 
			},
			{
				"x": 4.6262805354,
				"y": -5.1737990218,
				"z": -2.6467357456,
				"element": "H" 
			},
			{
				"x": 5.2476140824,
				"y": -6.3397979947,
				"z": -1.5038196806,
				"element": "H" 
			},
			{
				"x": 3.1451006219,
				"y": -5.6274428967,
				"z": -0.6708973826,
				"element": "H" 
			},
			{
				"x": 4.398109772,
				"y": -5.0550856979,
				"z": 0.4125683614,
				"element": "H" 
			},
			{
				"x": 2.6764793123,
				"y": -3.3768459213,
				"z": 0.2059183908,
				"element": "H" 
			},
			{
				"x": 4.1494521676,
				"y": -2.7361846839,
				"z": -0.4847840918,
				"element": "H" 
			},
			{
				"x": 1.8325020317,
				"y": -3.9343419871,
				"z": -2.1007305036,
				"element": "H" 
			},
			{
				"x": 3.2783679019,
				"y": -3.224675194,
				"z": -2.7972383471,
				"element": "H" 
			},
			{
				"x": 1.2636386537,
				"y": -1.7212561035,
				"z": -1.0525243278,
				"element": "H" 
			},
			{
				"x": 2.7052661329,
				"y": -1.0109611463,
				"z": -1.7583938728,
				"element": "H" 
			},
			{
				"x": 0.3747041264,
				"y": -2.2124004216,
				"z": -3.3516433338,
				"element": "H" 
			},
			{
				"x": 1.8481188008,
				"y": -1.5792053179,
				"z": -4.0616377408,
				"element": "H" 
			},
			{
				"x": 1.3409282082,
				"y": 0.6977786575,
				"z": -3.1270719336,
				"element": "H" 
			},
			{
				"x": 0.1461384965,
				"y": 0.1211913122,
				"z": -4.2670958994,
				"element": "H" 
			},
			{
				"x": -0.1675603077,
				"y": 0.1084876539,
				"z": -1.2080366017,
				"element": "H" 
			},
			{
				"x": -1.3397548363,
				"y": -0.5762972845,
				"z": -2.3117705575,
				"element": "H" 
			},
			{
				"x": -3.9152548473,
				"y": 2.7888519463,
				"z": -1.9481826226,
				"element": "H" 
			},
			{
				"x": -2.3617406868,
				"y": 3.6435107579,
				"z": -1.9082819843,
				"element": "H" 
			},
			{
				"x": -4.1087877029,
				"y": 3.9249797609,
				"z": -0.0343830643,
				"element": "H" 
			},
			{
				"x": -4.0275762727,
				"y": 2.5474576149,
				"z": 1.9109334096,
				"element": "H" 
			},
			{
				"x": -4.6101423303,
				"y": 1.6379820473,
				"z": 0.4846013348,
				"element": "H" 
			},
			{
				"x": -0.6910000714,
				"y": -0.0698904589,
				"z": 3.396431029,
				"element": "H" 
			},
			{
				"x": -0.195303614,
				"y": 0.3372360579,
				"z": 1.7540718088,
				"element": "H" 
			},
			{
				"x": -0.6635462874,
				"y": -2.060770339,
				"z": 1.8470879207,
				"element": "H" 
			},
			{
				"x": -1.8490440458,
				"y": -1.2766677535,
				"z": 0.8104176943,
				"element": "H" 
			},
			{
				"x": -3.517860433,
				"y": -1.3114402199,
				"z": 2.6841307768,
				"element": "H" 
			},
			{
				"x": -2.3250014976,
				"y": -2.0586310746,
				"z": 3.7360252675,
				"element": "H" 
			},
			{
				"x": -2.2372439698,
				"y": -4.057659789,
				"z": 2.2220189176,
				"element": "H" 
			},
			{
				"x": -3.3564545205,
				"y": -3.284142383,
				"z": 1.1194348641,
				"element": "H" 
			},
			{
				"x": -4.6000299483,
				"y": -4.8961965006,
				"z": 2.4211633553,
				"element": "H" 
			},
			{
				"x": -5.14313618,
				"y": -3.2882868617,
				"z": 2.8406636034,
				"element": "H" 
			},
			{
				"x": -3.8716216361,
				"y": -3.3222169936,
				"z": 4.9488639109,
				"element": "H" 
			},
			{
				"x": -5.0215550663,
				"y": -4.6344283236,
				"z": 4.8452338797,
				"element": "H" 
			},
			{
				"x": -1.9927256865,
				"y": -4.9211544774,
				"z": 4.4261988251,
				"element": "H" 
			},
			{
				"x": -2.8737455278,
				"y": -5.2424830109,
				"z": 5.8990583752,
				"element": "H" 
			},
			{
				"x": -4.2590816504,
				"y": -6.9726983954,
				"z": 4.4362776701,
				"element": "H" 
			},
			{
				"x": -2.6969655173,
				"y": -7.3921403499,
				"z": 5.1054153154,
				"element": "H" 
			},
			{
				"x": -3.1379407655,
				"y": -6.5019444215,
				"z": 2.2106605375,
				"element": "H" 
			},
			{
				"x": -1.586192512,
				"y": -6.8783068799,
				"z": 2.9339448915,
				"element": "H" 
			},
			{
				"x": -2.470119743,
				"y": -8.8480376643,
				"z": 1.6644924155,
				"element": "H" 
			},
			{
				"x": -3.9324170915,
				"y": -8.8568563391,
				"z": 2.6592198587,
				"element": "H" 
			},
			{
				"x": -2.3679879744,
				"y": -9.2396580399,
				"z": 3.3866385341,
				"element": "H" 
			},
			{
				"x": -0.4374321774,
				"y": 4.0887549401,
				"z": 2.7867417979,
				"element": "H" 
			},
			{
				"x": -0.8411708434,
				"y": 5.5603218209,
				"z": 1.925269634,
				"element": "H" 
			},
			{
				"x": 1.7125459666,
				"y": 4.9577566647,
				"z": 2.5470470207,
				"element": "H" 
			},
			{
				"x": 1.6270190976,
				"y": 3.9546269403,
				"z": 1.1101764608,
				"element": "H" 
			},
			{
				"x": 2.6088230699,
				"y": 6.2495532419,
				"z": 0.7262695779,
				"element": "H" 
			},
			{
				"x": 1.1108721944,
				"y": 6.9789457632,
				"z": 1.2726928439,
				"element": "H" 
			},
			{
				"x": 1.1550352361,
				"y": 7.1308490361,
				"z": -1.1070951361,
				"element": "H" 
			},
			{
				"x": -0.0865146142,
				"y": 5.9627472661,
				"z": -0.717667279,
				"element": "H" 
			},
			{
				"x": 2.7696157689,
				"y": 5.2042958803,
				"z": -1.541505639,
				"element": "H" 
			},
			{
				"x": 1.4222685754,
				"y": 4.0878858,
				"z": -1.3392761649,
				"element": "H" 
			},
			{
				"x": 0.2019862748,
				"y": 5.2056230501,
				"z": -3.2107203579,
				"element": "H" 
			},
			{
				"x": 1.5369490449,
				"y": 6.3356481206,
				"z": -3.4198494417,
				"element": "H" 
			},
			{
				"x": 3.0658097067,
				"y": 4.3556036554,
				"z": -3.8841212966,
				"element": "H" 
			},
			{
				"x": 1.6574190904,
				"y": 3.3001072446,
				"z": -3.7964215552,
				"element": "H" 
			},
			{
				"x": 2.3271640002,
				"y": 3.8526853369,
				"z": -6.1363694271,
				"element": "H" 
			},
			{
				"x": 2.0699580254,
				"y": 5.561333116,
				"z": -5.8315702905,
				"element": "H" 
			},
			{
				"x": -0.1278348508,
				"y": 3.4340863877,
				"z": -5.6290000095,
				"element": "H" 
			},
			{
				"x": -0.3642377277,
				"y": 5.1616921214,
				"z": -5.4806266299,
				"element": "H" 
			},
			{
				"x": 0.4010458317,
				"y": 5.4921634178,
				"z": -7.8682694967,
				"element": "H" 
			},
			{
				"x": -0.9976518481,
				"y": 4.413481504,
				"z": -7.7781727976,
				"element": "H" 
			},
			{
				"x": 0.6212270533,
				"y": 3.7466966468,
				"z": -8.0306441873,
				"element": "H" 
			}
		],
		 "valence_orbital": [ 
			{
				"type": "occ",
				"energy": -0.28487,
				"method": "rhf"
			},
			{
				"type": "occ",
				"energy": -0.28418,
				"method": "rhf"
			},
			{
				"type": "occ",
				"energy": -0.27307,
				"method": "rhf"
			},
			{
				"type": "occ",
				"energy": -0.26966,
				"method": "rhf"
			},
			{
				"type": "occ",
				"energy": -0.26745,
				"method": "rhf"
			},
			{
				"type": "unocc",
				"energy": 0.00583,
				"method": "rhf"
			},
			{
				"type": "unocc",
				"energy": 0.00657,
				"method": "rhf"
			},
			{
				"type": "unocc",
				"energy": 0.02025,
				"method": "rhf"
			},
			{
				"type": "unocc",
				"energy": 0.06763,
				"method": "rhf"
			},
			{
				"type": "unocc",
				"energy": 0.07315,
				"method": "rhf"
			}
		],
		"cosmo_sigma_profile": { 
			"-0.025": 0.0,
			"-0.024": 0.0,
			"-0.023": 0.0,
			"-0.022": 0.0,
			"-0.021": 0.0,
			"-0.02": 0.0,
			"-0.019": 0.0,
			"-0.018": 0.0,
			"-0.017": 0.0,
			"-0.016": 0.0,
			"-0.015": 0.0,
			"-0.014": 0.0,
			"-0.013": 0.0,
			"-0.012": 0.0,
			"-0.011": 0.0,
			"-0.01": 0.0983935606915,
			"-0.009": 3.11241983571,
			"-0.008": 6.69204287604,
			"-0.007": 7.47158025364,
			"-0.006": 7.18249725028,
			"-0.005": 10.6287938625,
			"-0.004": 17.1580435544,
			"-0.003": 36.1500896265,
			"-0.002": 104.983637923,
			"-0.001": 162.143927978,
			"0.0": 158.830283747,
			"0.001": 130.84302299,
			"0.002": 66.2771840421,
			"0.003": 14.5679152536,
			"0.004": 11.7603228386,
			"0.005": 12.638379333,
			"0.006": 13.6993920204,
			"0.007": 12.0251725797,
			"0.008": 7.35616786667,
			"0.009": 4.23274675558,
			"0.01": 3.36781202636,
			"0.011": 2.54704021947,
			"0.012": 2.36572654384,
			"0.013": 0.761900680216,
			"0.014": 0.0,
			"0.015": 0.0,
			"0.016": 0.0,
			"0.017": 0.0,
			"0.018": 0.0,
			"0.019": 0.0,
			"0.02": 0.0,
			"0.021": 0.0,
			"0.022": 0.0,
			"0.023": 0.0,
			"0.024": 0.0,
			"0.025": 0.0
		}
	}
}
