{
	 "smiles": "CC(C)C1=CC=C(C=CC(O)=O)C=C1", 
	 "Tm": 432.15, 
	 "num_atms": 28, 
	 "gaussian": { 
		 "optdone": 1, 
		 "sigma_profile": "yes", 
		 "theory": "DFT", 
		 "functional": "B3LYP", 
		 "basiset": "6-31G**", 
		 "properties": { 
			 "R2extent": 5837.9331, 
			 "electric_dipole_moment_norm": 3.33188291661, 
			 "electric_quadrupole_moment_norm": 20.1544347678, 
			 "total_energy": -616.170551803, 
			 "HOMO_LUMO_gap": 0.16788, 
			 "cosmo_polarized_energy": -10.55, 
			 "cosmo_cavitation_energy": 31.62, 
			 "cosmo_dispersion_energy": -22.41, 
			 "cosmo_repulsion_energy": 1.79, 
			 "cosmo_total_nonelectrostatic_energy": 11.01, 
			 "SMD_solvation_energy": 6.81 
		},
		"coords": [
			{
				"x": -1.4149584961,
				"y": 1.3729403232,
				"z": -0.9870042127,
				"element": "C" 
			},
			{
				"x": 0.0926304978,
				"y": 1.6340211443,
				"z": -0.8055858321,
				"element": "C" 
			},
			{
				"x": 0.7773269002,
				"y": 1.8905377593,
				"z": -2.1617880776,
				"element": "C" 
			},
			{
				"x": 0.7697630001,
				"y": 0.5115996561,
				"z": -0.0327806825,
				"element": "C" 
			},
			{
				"x": 0.8175812666,
				"y": -0.7990342725,
				"z": -0.5321857699,
				"element": "C" 
			},
			{
				"x": 1.4500163461,
				"y": -1.8113408059,
				"z": 0.1798325326,
				"element": "C" 
			},
			{
				"x": 2.0346345769,
				"y": -1.5707908055,
				"z": 1.4396964642,
				"element": "C" 
			},
			{
				"x": 2.702107993,
				"y": -2.7012214549,
				"z": 2.0978719907,
				"element": "C" 
			},
			{
				"x": 2.9913488812,
				"y": -3.0165003789,
				"z": 3.3803603259,
				"element": "C" 
			},
			{
				"x": 2.6495972968,
				"y": -2.38683495,
				"z": 4.6696639927,
				"element": "C" 
			},
			{
				"x": 1.7419226188,
				"y": -1.377770998,
				"z": 4.6208001843,
				"element": "O" 
			},
			{
				"x": 3.1132013381,
				"y": -2.7699928907,
				"z": 5.7284408145,
				"element": "O" 
			},
			{
				"x": 2.0000352554,
				"y": -0.2545995083,
				"z": 1.9315831074,
				"element": "C" 
			},
			{
				"x": 1.3810789049,
				"y": 0.758196085,
				"z": 1.2040835771,
				"element": "C" 
			},
			{
				"x": -1.5933532606,
				"y": 0.4787897087,
				"z": -1.5943360267,
				"element": "H" 
			},
			{
				"x": -1.8942355993,
				"y": 2.2185125551,
				"z": -1.492212992,
				"element": "H" 
			},
			{
				"x": -1.9110652585,
				"y": 1.2255088607,
				"z": -0.0228102541,
				"element": "H" 
			},
			{
				"x": 0.1992221268,
				"y": 2.5467750607,
				"z": -0.2049146653,
				"element": "H" 
			},
			{
				"x": 0.6931955975,
				"y": 1.0196577936,
				"z": -2.8210483155,
				"element": "H" 
			},
			{
				"x": 1.8416779495,
				"y": 2.1105022924,
				"z": -2.03382441,
				"element": "H" 
			},
			{
				"x": 0.3120663737,
				"y": 2.7400551847,
				"z": -2.6734140376,
				"element": "H" 
			},
			{
				"x": 0.3662271719,
				"y": -1.0307116021,
				"z": -1.4930884271,
				"element": "H" 
			},
			{
				"x": 1.486537958,
				"y": -2.8150046625,
				"z": -0.2369131813,
				"element": "H" 
			},
			{
				"x": 3.0374024574,
				"y": -3.452717372,
				"z": 1.3818475776,
				"element": "H" 
			},
			{
				"x": 3.5608975199,
				"y": -3.9253415148,
				"z": 3.5480325356,
				"element": "H" 
			},
			{
				"x": 1.6084555393,
				"y": -1.1127009357,
				"z": 5.5462963803,
				"element": "H" 
			},
			{
				"x": 2.4653446197,
				"y": -0.0231105721,
				"z": 2.8800481276,
				"element": "H" 
			},
			{
				"x": 1.376240425,
				"y": 1.7690763001,
				"z": 1.6048492739,
				"element": "H" 
			}
		],
		 "valence_orbital": [ 
			{
				"type": "occ",
				"energy": -0.31332,
				"method": "rhf"
			},
			{
				"type": "occ",
				"energy": -0.29435,
				"method": "rhf"
			},
			{
				"type": "occ",
				"energy": -0.27086,
				"method": "rhf"
			},
			{
				"type": "occ",
				"energy": -0.25388,
				"method": "rhf"
			},
			{
				"type": "occ",
				"energy": -0.23061,
				"method": "rhf"
			},
			{
				"type": "unocc",
				"energy": -0.06273,
				"method": "rhf"
			},
			{
				"type": "unocc",
				"energy": -0.0046,
				"method": "rhf"
			},
			{
				"type": "unocc",
				"energy": 0.01568,
				"method": "rhf"
			},
			{
				"type": "unocc",
				"energy": 0.07775,
				"method": "rhf"
			},
			{
				"type": "unocc",
				"energy": 0.08454,
				"method": "rhf"
			}
		],
		"cosmo_sigma_profile": { 
			"-0.025": 0.0,
			"-0.024": 0.0,
			"-0.023": 0.0,
			"-0.022": 0.0,
			"-0.021": 0.0,
			"-0.02": 0.0,
			"-0.019": 0.0,
			"-0.018": 0.203570900129,
			"-0.017": 1.05652103001,
			"-0.016": 0.769517470792,
			"-0.015": 0.888651330298,
			"-0.014": 0.915601267353,
			"-0.013": 0.444173055158,
			"-0.012": 0.33405451345,
			"-0.011": 0.54692107151,
			"-0.01": 1.61872568748,
			"-0.009": 0.583194291713,
			"-0.008": 0.205869096008,
			"-0.007": 3.52978895747,
			"-0.006": 8.51598667013,
			"-0.005": 12.3066465588,
			"-0.004": 15.7693548016,
			"-0.003": 21.7427337279,
			"-0.002": 25.4945828422,
			"-0.001": 24.6222794031,
			"0.0": 24.6740288786,
			"0.001": 27.3213272044,
			"0.002": 16.9179350638,
			"0.003": 13.2047990591,
			"0.004": 11.34558252,
			"0.005": 12.133633286,
			"0.006": 3.99662877659,
			"0.007": 3.27864894877,
			"0.008": 2.03251651252,
			"0.009": 2.68264412688,
			"0.01": 1.75630072116,
			"0.011": 2.65129477549,
			"0.012": 5.39086766915,
			"0.013": 2.36009614224,
			"0.014": 0.182612654186,
			"0.015": 0.0,
			"0.016": 0.0,
			"0.017": 0.0,
			"0.018": 0.0,
			"0.019": 0.0,
			"0.02": 0.0,
			"0.021": 0.0,
			"0.022": 0.0,
			"0.023": 0.0,
			"0.024": 0.0,
			"0.025": 0.0
		}
	}
}
