{
	 "smiles": "CC1=NC=C2C=CC=CN12", 
	 "Tm": 320.15, 
	 "num_atms": 18, 
	 "gaussian": { 
		 "optdone": 1, 
		 "sigma_profile": "yes", 
		 "theory": "DFT", 
		 "functional": "B3LYP", 
		 "basiset": "6-31G**", 
		 "properties": { 
			 "R2extent": 1826.372, 
			 "electric_dipole_moment_norm": 3.07136556111, 
			 "electric_quadrupole_moment_norm": 7.80941467781, 
			 "total_energy": -419.16948993, 
			 "HOMO_LUMO_gap": 0.1569, 
			 "cosmo_polarized_energy": -9.05, 
			 "cosmo_cavitation_energy": 21.48, 
			 "cosmo_dispersion_energy": -16.16, 
			 "cosmo_repulsion_energy": 1.28, 
			 "cosmo_total_nonelectrostatic_energy": 6.61, 
			 "SMD_solvation_energy": 2.47 
		},
		"coords": [
			{
				"x": 0.1212760498,
				"y": 2.0865102943,
				"z": 0.1243683019,
				"element": "C" 
			},
			{
				"x": -0.548564258,
				"y": 1.2368708378,
				"z": -0.9021093078,
				"element": "C" 
			},
			{
				"x": -0.8409871346,
				"y": 1.5984812235,
				"z": -2.1438171895,
				"element": "N" 
			},
			{
				"x": -1.4439613171,
				"y": 0.5333591157,
				"z": -2.7428604537,
				"element": "C" 
			},
			{
				"x": -1.5386138413,
				"y": -0.5348575171,
				"z": -1.8611267022,
				"element": "C" 
			},
			{
				"x": -2.0387244219,
				"y": -1.8616853846,
				"z": -1.8779618432,
				"element": "C" 
			},
			{
				"x": -1.9440234913,
				"y": -2.6431797934,
				"z": -0.7565661795,
				"element": "C" 
			},
			{
				"x": -1.3402919988,
				"y": -2.121266157,
				"z": 0.432968959,
				"element": "C" 
			},
			{
				"x": -0.8557800729,
				"y": -0.8493057089,
				"z": 0.4639096889,
				"element": "C" 
			},
			{
				"x": -0.949854841,
				"y": -0.0584436048,
				"z": -0.6657844742,
				"element": "N" 
			},
			{
				"x": 0.3300757682,
				"y": 3.0592528845,
				"z": -0.3228672705,
				"element": "H" 
			},
			{
				"x": 1.0704071502,
				"y": 1.65418968,
				"z": 0.4665954392,
				"element": "H" 
			},
			{
				"x": -0.5084317859,
				"y": 2.2428148669,
				"z": 1.009750804,
				"element": "H" 
			},
			{
				"x": -1.7826053985,
				"y": 0.5718173848,
				"z": -3.768789759,
				"element": "H" 
			},
			{
				"x": -2.4916007117,
				"y": -2.2339155882,
				"z": -2.7911517884,
				"element": "H" 
			},
			{
				"x": -2.3239467636,
				"y": -3.6592672438,
				"z": -0.7605999524,
				"element": "H" 
			},
			{
				"x": -1.2621968445,
				"y": -2.7344359467,
				"z": 1.3237952541,
				"element": "H" 
			},
			{
				"x": -0.3893760871,
				"y": -0.397839343,
				"z": 1.3304464735,
				"element": "H" 
			}
		],
		 "valence_orbital": [ 
			{
				"type": "occ",
				"energy": -0.33899,
				"method": "rhf"
			},
			{
				"type": "occ",
				"energy": -0.30592,
				"method": "rhf"
			},
			{
				"type": "occ",
				"energy": -0.2624,
				"method": "rhf"
			},
			{
				"type": "occ",
				"energy": -0.25552,
				"method": "rhf"
			},
			{
				"type": "occ",
				"energy": -0.18873,
				"method": "rhf"
			},
			{
				"type": "unocc",
				"energy": -0.03183,
				"method": "rhf"
			},
			{
				"type": "unocc",
				"energy": 0.00786,
				"method": "rhf"
			},
			{
				"type": "unocc",
				"energy": 0.07707,
				"method": "rhf"
			},
			{
				"type": "unocc",
				"energy": 0.08653,
				"method": "rhf"
			},
			{
				"type": "unocc",
				"energy": 0.10938,
				"method": "rhf"
			}
		],
		"cosmo_sigma_profile": { 
			"-0.025": 0.0,
			"-0.024": 0.0,
			"-0.023": 0.0,
			"-0.022": 0.0,
			"-0.021": 0.0,
			"-0.02": 0.0,
			"-0.019": 0.0,
			"-0.018": 0.0,
			"-0.017": 0.0,
			"-0.016": 0.0,
			"-0.015": 0.0,
			"-0.014": 0.0,
			"-0.013": 0.0,
			"-0.012": 0.0,
			"-0.011": 0.0,
			"-0.01": 0.0,
			"-0.009": 0.488703294529,
			"-0.008": 1.62728664968,
			"-0.007": 5.86203545585,
			"-0.006": 12.0217892498,
			"-0.005": 17.3316967703,
			"-0.004": 13.9799742217,
			"-0.003": 12.6404299485,
			"-0.002": 12.6639669533,
			"-0.001": 12.2685033403,
			"0.0": 10.7377628218,
			"0.001": 11.6129797762,
			"0.002": 10.8763297493,
			"0.003": 12.1303694431,
			"0.004": 13.1865045005,
			"0.005": 6.33908086872,
			"0.006": 2.9134495539,
			"0.007": 2.53365830699,
			"0.008": 2.06666703331,
			"0.009": 1.3570350252,
			"0.01": 1.65077148838,
			"0.011": 1.00962010254,
			"0.012": 1.22478282789,
			"0.013": 1.06903999159,
			"0.014": 0.771172821012,
			"0.015": 1.18623697652,
			"0.016": 1.08768500811,
			"0.017": 0.878958277178,
			"0.018": 0.580735553334,
			"0.019": 0.0902632894936,
			"0.02": 0.0,
			"0.021": 0.0,
			"0.022": 0.0,
			"0.023": 0.0,
			"0.024": 0.0,
			"0.025": 0.0
		}
	}
}
