{
	 "smiles": "OC(=O)C1CC1C1=C(Cl)C=C(Cl)C=C1", 
	 "Tm": 431.15, 
	 "num_atms": 22, 
	 "gaussian": { 
		 "optdone": 1, 
		 "sigma_profile": "yes", 
		 "theory": "DFT", 
		 "functional": "B3LYP", 
		 "basiset": "6-31G**", 
		 "properties": { 
			 "R2extent": 7367.7089, 
			 "electric_dipole_moment_norm": 3.90351731775, 
			 "electric_quadrupole_moment_norm": 12.648844029, 
			 "total_energy": -1456.69998548, 
			 "HOMO_LUMO_gap": 0.22086, 
			 "cosmo_polarized_energy": -16.49, 
			 "cosmo_cavitation_energy": 30.29, 
			 "cosmo_dispersion_energy": -21.8, 
			 "cosmo_repulsion_energy": 1.73, 
			 "cosmo_total_nonelectrostatic_energy": 10.22, 
			 "SMD_solvation_energy": 5.39 
		},
		"coords": [
			{
				"x": 0.2592706541,
				"y": -0.4307550573,
				"z": -2.6592843206,
				"element": "O" 
			},
			{
				"x": -0.2579662407,
				"y": -0.1802035124,
				"z": -1.4276676952,
				"element": "C" 
			},
			{
				"x": -1.4112471593,
				"y": 0.1604860602,
				"z": -1.3116661207,
				"element": "O" 
			},
			{
				"x": 0.6730247548,
				"y": -0.3573222022,
				"z": -0.2688480045,
				"element": "C" 
			},
			{
				"x": 0.0808797398,
				"y": -0.9307968691,
				"z": 1.0095155509,
				"element": "C" 
			},
			{
				"x": 0.4252821594,
				"y": 0.5249331588,
				"z": 0.9454662853,
				"element": "C" 
			},
			{
				"x": 1.5623524996,
				"y": 1.1005093195,
				"z": 1.7286010214,
				"element": "C" 
			},
			{
				"x": 1.4407294703,
				"y": 1.3561344934,
				"z": 3.1054155424,
				"element": "C" 
			},
			{
				"x": -0.059310545,
				"y": 0.9835820069,
				"z": 3.939533904,
				"element": "Cl" 
			},
			{
				"x": 2.4776692849,
				"y": 1.9093357202,
				"z": 3.8551772833,
				"element": "C" 
			},
			{
				"x": 3.6738775641,
				"y": 2.2239023186,
				"z": 3.2134829059,
				"element": "C" 
			},
			{
				"x": 4.9884679768,
				"y": 2.9155769952,
				"z": 4.1464519026,
				"element": "Cl" 
			},
			{
				"x": 3.8364793873,
				"y": 2.0006284004,
				"z": 1.8483030832,
				"element": "C" 
			},
			{
				"x": 2.7796714023,
				"y": 1.4473770344,
				"z": 1.1276109039,
				"element": "C" 
			},
			{
				"x": 1.1825865748,
				"y": -0.7093081555,
				"z": -2.5873436697,
				"element": "H" 
			},
			{
				"x": 1.7026859625,
				"y": -0.6302914154,
				"z": -0.4867101953,
				"element": "H" 
			},
			{
				"x": -0.9698703583,
				"y": -1.1974185815,
				"z": 0.9779286864,
				"element": "H" 
			},
			{
				"x": 0.7211284943,
				"y": -1.5877171533,
				"z": 1.589252472,
				"element": "H" 
			},
			{
				"x": -0.4371155725,
				"y": 1.1787399879,
				"z": 0.8301252491,
				"element": "H" 
			},
			{
				"x": 2.3520897244,
				"y": 2.089705989,
				"z": 4.9155965534,
				"element": "H" 
			},
			{
				"x": 4.7681587047,
				"y": 2.2595325808,
				"z": 1.3585998219,
				"element": "H" 
			},
			{
				"x": 2.8992555218,
				"y": 1.2879688812,
				"z": 0.0606588402,
				"element": "H" 
			}
		],
		 "valence_orbital": [ 
			{
				"type": "occ",
				"energy": -0.31642,
				"method": "rhf"
			},
			{
				"type": "occ",
				"energy": -0.30963,
				"method": "rhf"
			},
			{
				"type": "occ",
				"energy": -0.27963,
				"method": "rhf"
			},
			{
				"type": "occ",
				"energy": -0.27013,
				"method": "rhf"
			},
			{
				"type": "occ",
				"energy": -0.25432,
				"method": "rhf"
			},
			{
				"type": "unocc",
				"energy": -0.03346,
				"method": "rhf"
			},
			{
				"type": "unocc",
				"energy": -0.03266,
				"method": "rhf"
			},
			{
				"type": "unocc",
				"energy": -0.00033,
				"method": "rhf"
			},
			{
				"type": "unocc",
				"energy": 0.00133,
				"method": "rhf"
			},
			{
				"type": "unocc",
				"energy": 0.04101,
				"method": "rhf"
			}
		],
		"cosmo_sigma_profile": { 
			"-0.025": 0.0,
			"-0.024": 0.0,
			"-0.023": 0.0,
			"-0.022": 0.0,
			"-0.021": 0.0,
			"-0.02": 0.203298037374,
			"-0.019": 0.840088106568,
			"-0.018": 1.08683128048,
			"-0.017": 1.70535419582,
			"-0.016": 0.662692343789,
			"-0.015": 0.809434974506,
			"-0.014": 0.730554977663,
			"-0.013": 1.26408792283,
			"-0.012": 1.59977820423,
			"-0.011": 1.04431725671,
			"-0.01": 1.03322291457,
			"-0.009": 1.48353090246,
			"-0.008": 4.96447246021,
			"-0.007": 7.83131179079,
			"-0.006": 10.472628292,
			"-0.005": 10.80951403,
			"-0.004": 10.761563073,
			"-0.003": 12.155582146,
			"-0.002": 16.09535712,
			"-0.001": 19.4955132171,
			"0.0": 18.4415381667,
			"0.001": 25.1953522992,
			"0.002": 23.6921593892,
			"0.003": 19.9970817052,
			"0.004": 20.5889872816,
			"0.005": 6.82301883759,
			"0.006": 2.20010256851,
			"0.007": 2.11000668251,
			"0.008": 2.82189931222,
			"0.009": 2.98910692823,
			"0.01": 4.11455357634,
			"0.011": 4.74534461296,
			"0.012": 5.12155428738,
			"0.013": 2.18584746435,
			"0.014": 0.195081682882,
			"0.015": 0.0,
			"0.016": 0.0,
			"0.017": 0.0,
			"0.018": 0.0,
			"0.019": 0.0,
			"0.02": 0.0,
			"0.021": 0.0,
			"0.022": 0.0,
			"0.023": 0.0,
			"0.024": 0.0,
			"0.025": 0.0
		}
	}
}
