{
	 "smiles": "IC1=CC(I)=CC=C1", 
	 "Tm": 311.35, 
	 "num_atms": 12, 
	 "gaussian": { 
		 "optdone": 1, 
		 "sigma_profile": "no", 
		 "theory": "DFT", 
		 "functional": "B3LYP", 
		 "basiset": "6-31G**", 
		 "properties": { 
			 "R2extent": 1211.6559, 
			 "electric_dipole_moment_norm": 1.60710749485, 
			 "electric_quadrupole_moment_norm": 5.8115835613, 
			 "total_energy": -253.817488194, 
			 "HOMO_LUMO_gap": 0.18561, 
			 "cosmo_polarized_energy": -202929.5, 
			 "cosmo_cavitation_energy": 22.54, 
			 "cosmo_dispersion_energy": -19.59, 
			 "cosmo_repulsion_energy": 1.55, 
			 "cosmo_total_nonelectrostatic_energy": 4.49, 
			 "SMD_solvation_energy": 2.09 
		},
		"coords": [
			{
				"x": -1.8338737032,
				"y": 0.4536493089,
				"z": 2.8850456039,
				"element": "I" 
			},
			{
				"x": -0.4851359454,
				"y": 0.6950923052,
				"z": 1.2663973743,
				"element": "C" 
			},
			{
				"x": 0.4817196349,
				"y": -0.2871441908,
				"z": 1.0382635851,
				"element": "C" 
			},
			{
				"x": 1.3629400516,
				"y": -0.1140959089,
				"z": -0.0318459373,
				"element": "C" 
			},
			{
				"x": 2.8389825023,
				"y": -1.5922957309,
				"z": -0.3973988907,
				"element": "I" 
			},
			{
				"x": 1.2910374653,
				"y": 1.0067600187,
				"z": -0.8604882562,
				"element": "C" 
			},
			{
				"x": 0.3143715338,
				"y": 1.9711279849,
				"z": -0.6075271968,
				"element": "C" 
			},
			{
				"x": -0.5800960167,
				"y": 1.8260454175,
				"z": 0.4539567803,
				"element": "C" 
			},
			{
				"x": 0.5464785561,
				"y": -1.1604568972,
				"z": 1.6747287121,
				"element": "H" 
			},
			{
				"x": 1.9812925061,
				"y": 1.1280173438,
				"z": -1.6871725126,
				"element": "H" 
			},
			{
				"x": 0.249434458,
				"y": 2.8473313883,
				"z": -1.2461063678,
				"element": "H" 
			},
			{
				"x": -1.3352510428,
				"y": 2.5801689605,
				"z": 0.6426471057,
				"element": "H" 
			}
		],
		 "valence_orbital": [ 
			{
				"type": "occ",
				"energy": -0.29571,
				"method": "rhf"
			},
			{
				"type": "occ",
				"energy": -0.27719,
				"method": "rhf"
			},
			{
				"type": "occ",
				"energy": -0.27402,
				"method": "rhf"
			},
			{
				"type": "occ",
				"energy": -0.25657,
				"method": "rhf"
			},
			{
				"type": "occ",
				"energy": -0.2458,
				"method": "rhf"
			},
			{
				"type": "unocc",
				"energy": -0.06019,
				"method": "rhf"
			},
			{
				"type": "unocc",
				"energy": -0.03248,
				"method": "rhf"
			},
			{
				"type": "unocc",
				"energy": -0.03028,
				"method": "rhf"
			},
			{
				"type": "unocc",
				"energy": -0.03021,
				"method": "rhf"
			},
			{
				"type": "unocc",
				"energy": 0.03387,
				"method": "rhf"
			}
		],
		"cosmo_sigma_profile": { 
			"0.0": 0.0,
			"0.0": 0.0,
			"0.0": 0.0,
			"0.0": 0.0,
			"0.0": 0.0,
			"0.0": 0.0,
			"0.0": 0.0,
			"0.0": 0.0,
			"0.0": 0.0,
			"0.0": 0.0,
			"0.0": 0.0,
			"0.0": 0.0,
			"0.0": 0.0,
			"0.0": 0.0,
			"0.0": 0.0,
			"0.0": 0.0,
			"0.0": 0.0,
			"0.0": 0.0,
			"0.0": 0.0,
			"0.0": 0.0,
			"0.0": 0.0,
			"0.0": 0.0,
			"0.0": 0.0,
			"0.0": 0.0,
			"0.0": 0.0,
			"0.0": 0.0,
			"0.0": 0.0,
			"0.0": 0.0,
			"0.0": 0.0,
			"0.0": 0.0,
			"0.0": 0.0,
			"0.0": 0.0,
			"0.0": 0.0,
			"0.0": 0.0,
			"0.0": 0.0,
			"0.0": 0.0,
			"0.0": 0.0,
			"0.0": 0.0,
			"0.0": 0.0,
			"0.0": 0.0,
			"0.0": 0.0,
			"0.0": 0.0,
			"0.0": 0.0,
			"0.0": 0.0,
			"0.0": 0.0,
			"0.0": 0.0,
			"0.0": 0.0,
			"0.0": 0.0,
			"0.0": 0.0,
			"0.0": 0.0,
			"0.0": 0.0
		}
	}
}
