{
	 "smiles": "BrC1=CC=C(C=C1)C(=O)C(=O)C1=CC=C(Br)C=C1", 
	 "Tm": 498.15, 
	 "num_atms": 26, 
	 "gaussian": { 
		 "optdone": 1, 
		 "sigma_profile": "yes", 
		 "theory": "DFT", 
		 "functional": "B3LYP", 
		 "basiset": "6-31G**", 
		 "properties": { 
			 "R2extent": 15450.1032, 
			 "electric_dipole_moment_norm": 1.50874905468, 
			 "electric_quadrupole_moment_norm": 6.20471894045, 
			 "total_energy": -5831.55759863, 
			 "HOMO_LUMO_gap": 0.14906, 
			 "cosmo_polarized_energy": -8.91, 
			 "cosmo_cavitation_energy": 36.62, 
			 "cosmo_dispersion_energy": -27.27, 
			 "cosmo_repulsion_energy": 2.09, 
			 "cosmo_total_nonelectrostatic_energy": 11.44, 
			 "SMD_solvation_energy": 4.76 
		},
		"coords": [
			{
				"x": 1.768904882,
				"y": -2.9063778856,
				"z": 4.2312025901,
				"element": "Br" 
			},
			{
				"x": 0.849757431,
				"y": -2.1597111879,
				"z": 2.738040612,
				"element": "C" 
			},
			{
				"x": -0.4515602481,
				"y": -2.5830267088,
				"z": 2.4547495198,
				"element": "C" 
			},
			{
				"x": -1.1152303699,
				"y": -2.0317380315,
				"z": 1.3663196868,
				"element": "C" 
			},
			{
				"x": -0.4934261456,
				"y": -1.0662377724,
				"z": 0.5552608129,
				"element": "C" 
			},
			{
				"x": 0.8158498738,
				"y": -0.6573931449,
				"z": 0.8593337177,
				"element": "C" 
			},
			{
				"x": 1.4887606988,
				"y": -1.2020243801,
				"z": 1.9507101277,
				"element": "C" 
			},
			{
				"x": -1.2926615351,
				"y": -0.5028583769,
				"z": -0.566193699,
				"element": "C" 
			},
			{
				"x": -2.4423182216,
				"y": -0.8594923279,
				"z": -0.7909080424,
				"element": "O" 
			},
			{
				"x": -0.6453143748,
				"y": 0.5102067693,
				"z": -1.5316797379,
				"element": "C" 
			},
			{
				"x": 0.4743636907,
				"y": 0.2625110893,
				"z": -1.9610581543,
				"element": "O" 
			},
			{
				"x": -1.4129321962,
				"y": 1.7085895879,
				"z": -1.965821224,
				"element": "C" 
			},
			{
				"x": -2.6858732397,
				"y": 2.038119334,
				"z": -1.4710001307,
				"element": "C" 
			},
			{
				"x": -3.3281031763,
				"y": 3.1992066946,
				"z": -1.8952423828,
				"element": "C" 
			},
			{
				"x": -2.694928075,
				"y": 4.0310116108,
				"z": -2.8185738503,
				"element": "C" 
			},
			{
				"x": -3.572174208,
				"y": 5.6195894883,
				"z": -3.4007183687,
				"element": "Br" 
			},
			{
				"x": -1.4295230766,
				"y": 3.7237414805,
				"z": -3.3257368203,
				"element": "C" 
			},
			{
				"x": -0.796088658,
				"y": 2.5654629487,
				"z": -2.8942183801,
				"element": "C" 
			},
			{
				"x": -0.9303354399,
				"y": -3.3286131993,
				"z": 3.0789871346,
				"element": "H" 
			},
			{
				"x": -2.1273088191,
				"y": -2.3371636549,
				"z": 1.1227837016,
				"element": "H" 
			},
			{
				"x": 1.318615506,
				"y": 0.0718304032,
				"z": 0.2366446018,
				"element": "H" 
			},
			{
				"x": 2.4996610666,
				"y": -0.8901500267,
				"z": 2.1859299555,
				"element": "H" 
			},
			{
				"x": -3.1853204474,
				"y": 1.3823804308,
				"z": -0.76897176,
				"element": "H" 
			},
			{
				"x": -4.3111163586,
				"y": 3.4543711519,
				"z": -1.5169824239,
				"element": "H" 
			},
			{
				"x": -0.9546657993,
				"y": 4.3834328767,
				"z": -4.0427570011,
				"element": "H" 
			},
			{
				"x": 0.1879672404,
				"y": 2.3014328309,
				"z": -3.2668004851,
				"element": "H" 
			}
		],
		 "valence_orbital": [ 
			{
				"type": "occ",
				"energy": -0.27943,
				"method": "rhf"
			},
			{
				"type": "occ",
				"energy": -0.27859,
				"method": "rhf"
			},
			{
				"type": "occ",
				"energy": -0.26093,
				"method": "rhf"
			},
			{
				"type": "occ",
				"energy": -0.25815,
				"method": "rhf"
			},
			{
				"type": "occ",
				"energy": -0.24795,
				"method": "rhf"
			},
			{
				"type": "unocc",
				"energy": -0.09889,
				"method": "rhf"
			},
			{
				"type": "unocc",
				"energy": -0.06642,
				"method": "rhf"
			},
			{
				"type": "unocc",
				"energy": -0.02711,
				"method": "rhf"
			},
			{
				"type": "unocc",
				"energy": -0.02688,
				"method": "rhf"
			},
			{
				"type": "unocc",
				"energy": -0.00369,
				"method": "rhf"
			}
		],
		"cosmo_sigma_profile": { 
			"-0.025": 0.0,
			"-0.024": 0.0,
			"-0.023": 0.0,
			"-0.022": 0.0,
			"-0.021": 0.0,
			"-0.02": 0.0,
			"-0.019": 0.0,
			"-0.018": 0.0,
			"-0.017": 0.0,
			"-0.016": 0.0,
			"-0.015": 0.0,
			"-0.014": 0.0,
			"-0.013": 0.0,
			"-0.012": 0.0,
			"-0.011": 0.0,
			"-0.01": 0.0,
			"-0.009": 0.0,
			"-0.008": 4.11422844632,
			"-0.007": 14.0009435832,
			"-0.006": 17.0624941308,
			"-0.005": 14.7619192839,
			"-0.004": 14.7594346419,
			"-0.003": 17.5375571507,
			"-0.002": 18.3730681322,
			"-0.001": 21.7358600497,
			"0.0": 32.077799724,
			"0.001": 43.3811672808,
			"0.002": 34.5596605305,
			"0.003": 22.2795587918,
			"0.004": 22.4022013626,
			"0.005": 3.9835513551,
			"0.006": 3.53906719453,
			"0.007": 2.49271095708,
			"0.008": 3.74353105257,
			"0.009": 3.91196928719,
			"0.01": 6.50191663637,
			"0.011": 1.53219079472,
			"0.012": 0.0,
			"0.013": 0.0,
			"0.014": 0.0,
			"0.015": 0.0,
			"0.016": 0.0,
			"0.017": 0.0,
			"0.018": 0.0,
			"0.019": 0.0,
			"0.02": 0.0,
			"0.021": 0.0,
			"0.022": 0.0,
			"0.023": 0.0,
			"0.024": 0.0,
			"0.025": 0.0
		}
	}
}
