{
	 "smiles": "OC(=O)C1=C(NC(=O)C2=CC=C(F)C=C2)C=C(Cl)C=C1", 
	 "Tm": 524.15, 
	 "num_atms": 29, 
	 "gaussian": { 
		 "optdone": 1, 
		 "sigma_profile": "yes", 
		 "theory": "DFT", 
		 "functional": "B3LYP", 
		 "basiset": "6-31G**", 
		 "properties": { 
			 "R2extent": 6851.5135, 
			 "electric_dipole_moment_norm": 3.56904886069, 
			 "electric_quadrupole_moment_norm": 12.1341184558, 
			 "total_energy": -1379.38234622, 
			 "HOMO_LUMO_gap": 0.19076, 
			 "cosmo_polarized_energy": -19.23, 
			 "cosmo_cavitation_energy": 36.62, 
			 "cosmo_dispersion_energy": -25.04, 
			 "cosmo_repulsion_energy": 1.9, 
			 "cosmo_total_nonelectrostatic_energy": 13.49, 
			 "SMD_solvation_energy": 8.44 
		},
		"coords": [
			{
				"x": 2.0704242804,
				"y": 1.3339347927,
				"z": -0.5422226737,
				"element": "O" 
			},
			{
				"x": 2.0491471635,
				"y": 1.3082594056,
				"z": 0.8031306344,
				"element": "C" 
			},
			{
				"x": 2.4538201148,
				"y": 2.2489699118,
				"z": 1.4477833236,
				"element": "O" 
			},
			{
				"x": 1.5572334991,
				"y": 0.044766333,
				"z": 1.4722817557,
				"element": "C" 
			},
			{
				"x": 0.8199932859,
				"y": -0.9861470218,
				"z": 0.8554265207,
				"element": "C" 
			},
			{
				"x": 0.4137471848,
				"y": -0.9055732588,
				"z": -0.5163160423,
				"element": "N" 
			},
			{
				"x": -0.6468661623,
				"y": -0.1818006382,
				"z": -1.1101609881,
				"element": "C" 
			},
			{
				"x": -0.8829374292,
				"y": -0.397162835,
				"z": -2.2879149146,
				"element": "O" 
			},
			{
				"x": -1.3910241159,
				"y": 0.85570946,
				"z": -0.3346812234,
				"element": "C" 
			},
			{
				"x": -1.7410744549,
				"y": 0.7429381927,
				"z": 1.0201321156,
				"element": "C" 
			},
			{
				"x": -2.5106309173,
				"y": 1.7279518807,
				"z": 1.6357203036,
				"element": "C" 
			},
			{
				"x": -2.9145195738,
				"y": 2.8283022369,
				"z": 0.8877844875,
				"element": "C" 
			},
			{
				"x": -3.6467405536,
				"y": 3.7855375392,
				"z": 1.483051633,
				"element": "F" 
			},
			{
				"x": -2.5936378539,
				"y": 2.9651306254,
				"z": -0.4600566919,
				"element": "C" 
			},
			{
				"x": -1.8437616106,
				"y": 1.9660591881,
				"z": -1.068330577,
				"element": "C" 
			},
			{
				"x": 0.5028192258,
				"y": -2.1481728978,
				"z": 1.5691576582,
				"element": "C" 
			},
			{
				"x": 0.8988302516,
				"y": -2.2744467663,
				"z": 2.8983884572,
				"element": "C" 
			},
			{
				"x": 0.5019020514,
				"y": -3.7380645766,
				"z": 3.7735356412,
				"element": "Cl" 
			},
			{
				"x": 1.5906383173,
				"y": -1.2475557499,
				"z": 3.5428016455,
				"element": "C" 
			},
			{
				"x": 1.9053628156,
				"y": -0.1013070287,
				"z": 2.8227227107,
				"element": "C" 
			},
			{
				"x": 1.7072608375,
				"y": 0.4984495751,
				"z": -0.8920673094,
				"element": "H" 
			},
			{
				"x": 0.6257650532,
				"y": -1.7203823977,
				"z": -1.0838639592,
				"element": "H" 
			},
			{
				"x": -1.4423900605,
				"y": -0.1209279617,
				"z": 1.6003343458,
				"element": "H" 
			},
			{
				"x": -2.8004049629,
				"y": 1.6524590531,
				"z": 2.677739811,
				"element": "H" 
			},
			{
				"x": -2.9349991566,
				"y": 3.8362810585,
				"z": -1.0079470919,
				"element": "H" 
			},
			{
				"x": -1.5962508704,
				"y": 2.0295448393,
				"z": -2.1219126385,
				"element": "H" 
			},
			{
				"x": -0.0643235002,
				"y": -2.9383445891,
				"z": 1.0891020837,
				"element": "H" 
			},
			{
				"x": 1.8821664546,
				"y": -1.3523553585,
				"z": 4.5815099939,
				"element": "H" 
			},
			{
				"x": 2.4507506866,
				"y": 0.712346988,
				"z": 3.2878709887,
				"element": "H" 
			}
		],
		 "valence_orbital": [ 
			{
				"type": "occ",
				"energy": -0.28359,
				"method": "rhf"
			},
			{
				"type": "occ",
				"energy": -0.27917,
				"method": "rhf"
			},
			{
				"type": "occ",
				"energy": -0.27613,
				"method": "rhf"
			},
			{
				"type": "occ",
				"energy": -0.27007,
				"method": "rhf"
			},
			{
				"type": "occ",
				"energy": -0.25955,
				"method": "rhf"
			},
			{
				"type": "unocc",
				"energy": -0.06879,
				"method": "rhf"
			},
			{
				"type": "unocc",
				"energy": -0.05732,
				"method": "rhf"
			},
			{
				"type": "unocc",
				"energy": -0.0443,
				"method": "rhf"
			},
			{
				"type": "unocc",
				"energy": -0.02534,
				"method": "rhf"
			},
			{
				"type": "unocc",
				"energy": 0.0066,
				"method": "rhf"
			}
		],
		"cosmo_sigma_profile": { 
			"-0.025": 0.0,
			"-0.024": 0.0,
			"-0.023": 0.0,
			"-0.022": 0.0,
			"-0.021": 0.0,
			"-0.02": 0.0,
			"-0.019": 0.0,
			"-0.018": 0.0,
			"-0.017": 0.0,
			"-0.016": 0.21392854848,
			"-0.015": 1.37124757477,
			"-0.014": 0.752120657918,
			"-0.013": 1.48750073575,
			"-0.012": 2.99955557663,
			"-0.011": 2.29078624144,
			"-0.01": 3.17920273895,
			"-0.009": 3.71190043291,
			"-0.008": 7.61992083319,
			"-0.007": 12.1958682135,
			"-0.006": 14.9103629981,
			"-0.005": 14.6770878756,
			"-0.004": 12.6387557066,
			"-0.003": 15.2790691083,
			"-0.002": 15.3572087619,
			"-0.001": 24.4769004947,
			"0.0": 30.407285276,
			"0.001": 25.7399122295,
			"0.002": 23.2294169201,
			"0.003": 20.3061013202,
			"0.004": 19.4876788908,
			"0.005": 3.43396671648,
			"0.006": 3.59921401088,
			"0.007": 3.69047534676,
			"0.008": 3.7321708735,
			"0.009": 5.03586547942,
			"0.01": 6.40694652281,
			"0.011": 8.20234085022,
			"0.012": 8.69474415263,
			"0.013": 2.09213840646,
			"0.014": 0.0272161864888,
			"0.015": 0.0,
			"0.016": 0.0,
			"0.017": 0.0,
			"0.018": 0.0,
			"0.019": 0.0,
			"0.02": 0.0,
			"0.021": 0.0,
			"0.022": 0.0,
			"0.023": 0.0,
			"0.024": 0.0,
			"0.0": 0.0
		}
	}
}
