{
	 "smiles": "CN1C(=O)OC2=C1C=CC=C2", 
	 "Tm": 357.15, 
	 "num_atms": 18, 
	 "gaussian": { 
		 "optdone": 1, 
		 "sigma_profile": "yes", 
		 "theory": "DFT", 
		 "functional": "B3LYP", 
		 "basiset": "6-31G**", 
		 "properties": { 
			 "R2extent": 1688.8106, 
			 "electric_dipole_moment_norm": 4.13973449994, 
			 "electric_quadrupole_moment_norm": 11.3139332657, 
			 "total_energy": -514.289450102, 
			 "HOMO_LUMO_gap": 0.20673, 
			 "cosmo_polarized_energy": -9.83, 
			 "cosmo_cavitation_energy": 22.17, 
			 "cosmo_dispersion_energy": -16.68, 
			 "cosmo_repulsion_energy": 1.32, 
			 "cosmo_total_nonelectrostatic_energy": 6.8, 
			 "SMD_solvation_energy": 5.23 
		},
		"coords": [
			{
				"x": -1.981555589,
				"y": 1.0564239767,
				"z": -0.5584547764,
				"element": "C" 
			},
			{
				"x": -0.973428151,
				"y": 0.0159300477,
				"z": -0.5654183603,
				"element": "N" 
			},
			{
				"x": -0.8452457718,
				"y": -0.9018914395,
				"z": -1.5967539581,
				"element": "C" 
			},
			{
				"x": -1.4989440076,
				"y": -1.0003610894,
				"z": -2.6051387493,
				"element": "O" 
			},
			{
				"x": 0.2144372178,
				"y": -1.7417160097,
				"z": -1.2701630493,
				"element": "O" 
			},
			{
				"x": 0.7204402683,
				"y": -1.3349538121,
				"z": -0.0557244275,
				"element": "C" 
			},
			{
				"x": -0.0083126913,
				"y": -0.2337902077,
				"z": 0.4066211967,
				"element": "C" 
			},
			{
				"x": 0.3004111373,
				"y": 0.3727952278,
				"z": 1.6175184703,
				"element": "C" 
			},
			{
				"x": 1.3696550254,
				"y": -0.1697144618,
				"z": 2.3458627429,
				"element": "C" 
			},
			{
				"x": 2.0916003374,
				"y": -1.2704916078,
				"z": 1.8748474127,
				"element": "C" 
			},
			{
				"x": 1.7748771853,
				"y": -1.8795811748,
				"z": 0.650021944,
				"element": "C" 
			},
			{
				"x": -2.5625411771,
				"y": 0.9539493167,
				"z": -1.4755683453,
				"element": "H" 
			},
			{
				"x": -2.6452572136,
				"y": 0.9484674318,
				"z": 0.3058488737,
				"element": "H" 
			},
			{
				"x": -1.5166387613,
				"y": 2.0475485028,
				"z": -0.5319485731,
				"element": "H" 
			},
			{
				"x": -0.2575296393,
				"y": 1.2269895651,
				"z": 1.9861163109,
				"element": "H" 
			},
			{
				"x": 1.6401564369,
				"y": 0.278028058,
				"z": 3.2970648569,
				"element": "H" 
			},
			{
				"x": 2.9130839319,
				"y": -1.6643072017,
				"z": 2.464666639,
				"element": "H" 
			},
			{
				"x": 2.3243914617,
				"y": -2.7335251222,
				"z": 0.2705017922,
				"element": "H" 
			}
		],
		 "valence_orbital": [ 
			{
				"type": "occ",
				"energy": -0.35128,
				"method": "rhf"
			},
			{
				"type": "occ",
				"energy": -0.3131,
				"method": "rhf"
			},
			{
				"type": "occ",
				"energy": -0.28954,
				"method": "rhf"
			},
			{
				"type": "occ",
				"energy": -0.25449,
				"method": "rhf"
			},
			{
				"type": "occ",
				"energy": -0.22163,
				"method": "rhf"
			},
			{
				"type": "unocc",
				"energy": -0.0149,
				"method": "rhf"
			},
			{
				"type": "unocc",
				"energy": 0.00083,
				"method": "rhf"
			},
			{
				"type": "unocc",
				"energy": 0.04836,
				"method": "rhf"
			},
			{
				"type": "unocc",
				"energy": 0.08266,
				"method": "rhf"
			},
			{
				"type": "unocc",
				"energy": 0.09521,
				"method": "rhf"
			}
		],
		"cosmo_sigma_profile": { 
			"-0.025": 0.0,
			"-0.024": 0.0,
			"-0.023": 0.0,
			"-0.022": 0.0,
			"-0.021": 0.0,
			"-0.02": 0.0,
			"-0.019": 0.0,
			"-0.018": 0.0,
			"-0.017": 0.0,
			"-0.016": 0.0,
			"-0.015": 0.0,
			"-0.014": 0.0,
			"-0.013": 0.0,
			"-0.012": 0.0,
			"-0.011": 0.0,
			"-0.01": 0.0,
			"-0.009": 0.0,
			"-0.008": 0.508506825174,
			"-0.007": 4.55932383888,
			"-0.006": 15.852633917,
			"-0.005": 17.5069764584,
			"-0.004": 17.4140986731,
			"-0.003": 18.5438019666,
			"-0.002": 12.6240316348,
			"-0.001": 9.31954666699,
			"0.0": 8.21992012209,
			"0.001": 10.0546341086,
			"0.002": 10.2222964464,
			"0.003": 10.6623461717,
			"0.004": 9.84317136648,
			"0.005": 7.86617876368,
			"0.006": 2.63705508293,
			"0.007": 3.27586906004,
			"0.008": 4.23162526181,
			"0.009": 2.01414170313,
			"0.01": 1.86880885868,
			"0.011": 3.58079348661,
			"0.012": 6.09524311439,
			"0.013": 1.11311212443,
			"0.014": 0.0,
			"0.015": 0.0,
			"0.016": 0.0,
			"0.017": 0.0,
			"0.018": 0.0,
			"0.019": 0.0,
			"0.02": 0.0,
			"0.021": 0.0,
			"0.022": 0.0,
			"0.023": 0.0,
			"0.024": 0.0,
			"0.025": 0.0
		}
	}
}
