{
	 "smiles": "CCC(Cl)C(C)Cl", 
	 "Tm": 195.85, 
	 "num_atms": 17, 
	 "gaussian": { 
		 "optdone": 1, 
		 "sigma_profile": "yes", 
		 "theory": "DFT", 
		 "functional": "B3LYP", 
		 "basiset": "6-31G**", 
		 "properties": { 
			 "R2extent": 1800.4151, 
			 "electric_dipole_moment_norm": 0.978394787394, 
			 "electric_quadrupole_moment_norm": 7.24563341123, 
			 "total_energy": -1116.96881951, 
			 "HOMO_LUMO_gap": 0.28994, 
			 "cosmo_polarized_energy": -4.29, 
			 "cosmo_cavitation_energy": 22.17, 
			 "cosmo_dispersion_energy": -16.27, 
			 "cosmo_repulsion_energy": 1.37, 
			 "cosmo_total_nonelectrostatic_energy": 7.27, 
			 "SMD_solvation_energy": 3.19 
		},
		"coords": [
			{
				"x": 0.5900316412,
				"y": -3.0707751668,
				"z": 1.4506817359,
				"element": "C" 
			},
			{
				"x": 0.554389709,
				"y": -2.2096579359,
				"z": 0.1853296071,
				"element": "C" 
			},
			{
				"x": 1.1212368251,
				"y": -0.8051092832,
				"z": 0.3791722963,
				"element": "C" 
			},
			{
				"x": 0.0290508154,
				"y": 0.1765506956,
				"z": 1.4946110336,
				"element": "Cl" 
			},
			{
				"x": 1.3151306679,
				"y": 0.0291041898,
				"z": -0.8985006321,
				"element": "C" 
			},
			{
				"x": 0.1163754308,
				"y": 0.1187137335,
				"z": -1.8311079284,
				"element": "C" 
			},
			{
				"x": 2.7509533431,
				"y": -0.6806533037,
				"z": -1.8081475275,
				"element": "Cl" 
			},
			{
				"x": -0.0174838803,
				"y": -2.6333330649,
				"z": 2.2476237899,
				"element": "H" 
			},
			{
				"x": 0.203313851,
				"y": -4.0726678468,
				"z": 1.2418840957,
				"element": "H" 
			},
			{
				"x": 1.6135704834,
				"y": -3.1800673853,
				"z": 1.825904553,
				"element": "H" 
			},
			{
				"x": -0.4705712452,
				"y": -2.1390710819,
				"z": -0.1935875424,
				"element": "H" 
			},
			{
				"x": 1.1544032721,
				"y": -2.6854571162,
				"z": -0.6000072294,
				"element": "H" 
			},
			{
				"x": 2.0726336669,
				"y": -0.8476596377,
				"z": 0.9128892526,
				"element": "H" 
			},
			{
				"x": 1.6529999777,
				"y": 1.0253401778,
				"z": -0.6110473252,
				"element": "H" 
			},
			{
				"x": 0.3434533928,
				"y": 0.773720449,
				"z": -2.674976396,
				"element": "H" 
			},
			{
				"x": -0.1619114972,
				"y": -0.8618650829,
				"z": -2.2239580582,
				"element": "H" 
			},
			{
				"x": -0.7362764538,
				"y": 0.5360876595,
				"z": -1.286763725,
				"element": "H" 
			}
		],
		 "valence_orbital": [ 
			{
				"type": "occ",
				"energy": -0.34857,
				"method": "rhf"
			},
			{
				"type": "occ",
				"energy": -0.31408,
				"method": "rhf"
			},
			{
				"type": "occ",
				"energy": -0.30247,
				"method": "rhf"
			},
			{
				"type": "occ",
				"energy": -0.2998,
				"method": "rhf"
			},
			{
				"type": "occ",
				"energy": -0.29682,
				"method": "rhf"
			},
			{
				"type": "unocc",
				"energy": -0.00688,
				"method": "rhf"
			},
			{
				"type": "unocc",
				"energy": 0.03357,
				"method": "rhf"
			},
			{
				"type": "unocc",
				"energy": 0.09277,
				"method": "rhf"
			},
			{
				"type": "unocc",
				"energy": 0.10777,
				"method": "rhf"
			},
			{
				"type": "unocc",
				"energy": 0.11016,
				"method": "rhf"
			}
		],
		"cosmo_sigma_profile": { 
			"-0.025": 0.0,
			"-0.024": 0.0,
			"-0.023": 0.0,
			"-0.022": 0.0,
			"-0.021": 0.0,
			"-0.02": 0.0,
			"-0.019": 0.0,
			"-0.018": 0.0,
			"-0.017": 0.0,
			"-0.016": 0.0,
			"-0.015": 0.0,
			"-0.014": 0.0,
			"-0.013": 0.0,
			"-0.012": 0.0,
			"-0.011": 0.0,
			"-0.01": 0.0,
			"-0.009": 0.0,
			"-0.008": 0.328493225741,
			"-0.007": 3.29432177038,
			"-0.006": 4.81607260733,
			"-0.005": 6.20384097018,
			"-0.004": 14.658829531,
			"-0.003": 18.2872169327,
			"-0.002": 19.3168729357,
			"-0.001": 21.3421333482,
			"0.0": 18.3357454937,
			"0.001": 14.2356585913,
			"0.002": 8.54403192099,
			"0.003": 8.85875951225,
			"0.004": 10.3518153757,
			"0.005": 13.3709026066,
			"0.006": 12.6533998561,
			"0.007": 2.36769743704,
			"0.008": 0.0,
			"0.009": 0.0,
			"0.01": 0.0,
			"0.011": 0.0,
			"0.012": 0.0,
			"0.013": 0.0,
			"0.014": 0.0,
			"0.015": 0.0,
			"0.016": 0.0,
			"0.017": 0.0,
			"0.018": 0.0,
			"0.019": 0.0,
			"0.02": 0.0,
			"0.021": 0.0,
			"0.022": 0.0,
			"0.023": 0.0,
			"0.024": 0.0,
			"0.025": 0.0
		}
	}
}
