{
	 "smiles": "CC(=O)C1=C2C=CC=C3CCC(C=C1)=C23", 
	 "Tm": 332.15, 
	 "num_atms": 27, 
	 "gaussian": { 
		 "optdone": 1, 
		 "sigma_profile": "yes", 
		 "theory": "DFT", 
		 "functional": "B3LYP", 
		 "basiset": "6-31G**", 
		 "properties": { 
			 "R2extent": 3719.3198, 
			 "electric_dipole_moment_norm": 3.87422841608, 
			 "electric_quadrupole_moment_norm": 9.91269291515, 
			 "total_energy": -615.961364406, 
			 "HOMO_LUMO_gap": 0.15302, 
			 "cosmo_polarized_energy": -9.06, 
			 "cosmo_cavitation_energy": 29.21, 
			 "cosmo_dispersion_energy": -21.88, 
			 "cosmo_repulsion_energy": 1.68, 
			 "cosmo_total_nonelectrostatic_energy": 9.01, 
			 "SMD_solvation_energy": 4.77 
		},
		"coords": [
			{
				"x": -1.7478590886,
				"y": -2.721573818,
				"z": -0.1713869493,
				"element": "C" 
			},
			{
				"x": -0.8291358779,
				"y": -2.1579561947,
				"z": 0.9011804547,
				"element": "C" 
			},
			{
				"x": -0.2285501707,
				"y": -2.9412233007,
				"z": 1.6259818775,
				"element": "O" 
			},
			{
				"x": -0.6868708457,
				"y": -0.6747265569,
				"z": 1.1146389404,
				"element": "C" 
			},
			{
				"x": -1.0755036793,
				"y": 0.3726739986,
				"z": 0.2019107035,
				"element": "C" 
			},
			{
				"x": -1.6029805938,
				"y": 0.2770234055,
				"z": -1.1192730616,
				"element": "C" 
			},
			{
				"x": -1.9062794957,
				"y": 1.4133409431,
				"z": -1.8500822626,
				"element": "C" 
			},
			{
				"x": -1.7119888388,
				"y": 2.7241744872,
				"z": -1.3467904679,
				"element": "C" 
			},
			{
				"x": -1.189242965,
				"y": 2.8617468349,
				"z": -0.0814870586,
				"element": "C" 
			},
			{
				"x": -0.8455095753,
				"y": 4.0949809998,
				"z": 0.7335000302,
				"element": "C" 
			},
			{
				"x": -0.2719515826,
				"y": 3.5372783051,
				"z": 2.0775720586,
				"element": "C" 
			},
			{
				"x": -0.3293353127,
				"y": 2.0302500324,
				"z": 1.9275292555,
				"element": "C" 
			},
			{
				"x": 0.0537353596,
				"y": 1.0120060932,
				"z": 2.7728807955,
				"element": "C" 
			},
			{
				"x": -0.1302117691,
				"y": -0.3194700301,
				"z": 2.3443721516,
				"element": "C" 
			},
			{
				"x": -0.8762159976,
				"y": 1.7020132311,
				"z": 0.6669396371,
				"element": "C" 
			},
			{
				"x": -1.2599827119,
				"y": -2.6801128635,
				"z": -1.1521388387,
				"element": "H" 
			},
			{
				"x": -2.6933615385,
				"y": -2.1771351979,
				"z": -0.2414010943,
				"element": "H" 
			},
			{
				"x": -1.9350996616,
				"y": -3.7693575738,
				"z": 0.0684649473,
				"element": "H" 
			},
			{
				"x": -1.7670020875,
				"y": -0.6845296379,
				"z": -1.5837719414,
				"element": "H" 
			},
			{
				"x": -2.3054465266,
				"y": 1.2934314991,
				"z": -2.8537883673,
				"element": "H" 
			},
			{
				"x": -1.965873716,
				"y": 3.5849056537,
				"z": -1.9592999765,
				"element": "H" 
			},
			{
				"x": -1.7291221598,
				"y": 4.7210776452,
				"z": 0.9019034708,
				"element": "H" 
			},
			{
				"x": -0.1140727781,
				"y": 4.7250155301,
				"z": 0.2147689231,
				"element": "H" 
			},
			{
				"x": -0.8606276792,
				"y": 3.8726175374,
				"z": 2.9391992187,
				"element": "H" 
			},
			{
				"x": 0.7542951063,
				"y": 3.8794898982,
				"z": 2.2532293719,
				"element": "H" 
			},
			{
				"x": 0.4850011981,
				"y": 1.2095173011,
				"z": 3.7503438001,
				"element": "H" 
			},
			{
				"x": 0.1634929882,
				"y": -1.1359582224,
				"z": 2.995604382,
				"element": "H" 
			}
		],
		 "valence_orbital": [ 
			{
				"type": "occ",
				"energy": -0.31648,
				"method": "rhf"
			},
			{
				"type": "occ",
				"energy": -0.27897,
				"method": "rhf"
			},
			{
				"type": "occ",
				"energy": -0.24769,
				"method": "rhf"
			},
			{
				"type": "occ",
				"energy": -0.23998,
				"method": "rhf"
			},
			{
				"type": "occ",
				"energy": -0.21203,
				"method": "rhf"
			},
			{
				"type": "unocc",
				"energy": -0.05901,
				"method": "rhf"
			},
			{
				"type": "unocc",
				"energy": -0.01433,
				"method": "rhf"
			},
			{
				"type": "unocc",
				"energy": -0.00453,
				"method": "rhf"
			},
			{
				"type": "unocc",
				"energy": 0.04618,
				"method": "rhf"
			},
			{
				"type": "unocc",
				"energy": 0.09492,
				"method": "rhf"
			}
		],
		"cosmo_sigma_profile": { 
			"-0.025": 0.0,
			"-0.024": 0.0,
			"-0.023": 0.0,
			"-0.022": 0.0,
			"-0.021": 0.0,
			"-0.02": 0.0,
			"-0.019": 0.0,
			"-0.018": 0.0,
			"-0.017": 0.0,
			"-0.016": 0.0,
			"-0.015": 0.0,
			"-0.014": 0.0,
			"-0.013": 0.0,
			"-0.012": 0.0,
			"-0.011": 0.0,
			"-0.01": 0.0,
			"-0.009": 0.0,
			"-0.008": 0.00376634711115,
			"-0.007": 1.89547383488,
			"-0.006": 7.44312814238,
			"-0.005": 17.336363938,
			"-0.004": 25.6216222605,
			"-0.003": 28.4564523733,
			"-0.002": 24.0706208694,
			"-0.001": 23.6948752459,
			"0.0": 14.8833231061,
			"0.001": 11.2858366821,
			"0.002": 12.8705177206,
			"0.003": 19.0875856062,
			"0.004": 17.6731224165,
			"0.005": 9.51075215212,
			"0.006": 2.89662231575,
			"0.007": 1.47190041761,
			"0.008": 1.59112426566,
			"0.009": 1.35429981709,
			"0.01": 2.4117646692,
			"0.011": 2.29094761296,
			"0.012": 3.69736250088,
			"0.013": 2.88637308505,
			"0.014": 0.552844278618,
			"0.015": 0.0,
			"0.016": 0.0,
			"0.017": 0.0,
			"0.018": 0.0,
			"0.019": 0.0,
			"0.02": 0.0,
			"0.021": 0.0,
			"0.022": 0.0,
			"0.023": 0.0,
			"0.024": 0.0,
			"0.025": 0.0
		}
	}
}
