{
	 "smiles": "NC(=O)C1=C(O)C=CC=N1", 
	 "Tm": 468.15, 
	 "num_atms": 16, 
	 "gaussian": { 
		 "optdone": 1, 
		 "sigma_profile": "yes", 
		 "theory": "DFT", 
		 "functional": "B3LYP", 
		 "basiset": "6-31G**", 
		 "properties": { 
			 "R2extent": 1936.4336, 
			 "electric_dipole_moment_norm": 2.87086787401, 
			 "electric_quadrupole_moment_norm": 12.3432346255, 
			 "total_energy": -492.234863521, 
			 "HOMO_LUMO_gap": 0.18131, 
			 "cosmo_polarized_energy": -9.94, 
			 "cosmo_cavitation_energy": 20.14, 
			 "cosmo_dispersion_energy": -15.7, 
			 "cosmo_repulsion_energy": 1.27, 
			 "cosmo_total_nonelectrostatic_energy": 5.71, 
			 "SMD_solvation_energy": 3.7 
		},
		"coords": [
			{
				"x": -0.9989313022,
				"y": -0.71260948,
				"z": 1.3023416683,
				"element": "N" 
			},
			{
				"x": 0.0235220866,
				"y": -0.9569374434,
				"z": 0.4598342545,
				"element": "C" 
			},
			{
				"x": 1.1809881653,
				"y": -1.2059916379,
				"z": 0.8485456291,
				"element": "O" 
			},
			{
				"x": -0.3130726419,
				"y": -0.91184442,
				"z": -0.9915828547,
				"element": "C" 
			},
			{
				"x": 0.704804617,
				"y": -1.1570091207,
				"z": -1.9419035697,
				"element": "C" 
			},
			{
				"x": 1.967445513,
				"y": -1.4299933749,
				"z": -1.5968367036,
				"element": "O" 
			},
			{
				"x": 0.3474771475,
				"y": -1.1054603764,
				"z": -3.3010139074,
				"element": "C" 
			},
			{
				"x": -0.9659128967,
				"y": -0.8209220082,
				"z": -3.6380427547,
				"element": "C" 
			},
			{
				"x": -1.9054671199,
				"y": -0.5917156183,
				"z": -2.6201887821,
				"element": "C" 
			},
			{
				"x": -1.5844791491,
				"y": -0.6366615983,
				"z": -1.3305570599,
				"element": "N" 
			},
			{
				"x": -0.8355244068,
				"y": -0.7284431079,
				"z": 2.2960175125,
				"element": "H" 
			},
			{
				"x": -1.9095586548,
				"y": -0.5182878825,
				"z": 0.9109929414,
				"element": "H" 
			},
			{
				"x": 1.9855271622,
				"y": -1.4135081356,
				"z": -0.5993802417,
				"element": "H" 
			},
			{
				"x": 1.1103519059,
				"y": -1.2899845605,
				"z": -4.0502882567,
				"element": "H" 
			},
			{
				"x": -1.2717566274,
				"y": -0.774285894,
				"z": -4.6787985254,
				"element": "H" 
			},
			{
				"x": -2.9419137986,
				"y": -0.3666453415,
				"z": -2.85973935,
				"element": "H" 
			}
		],
		 "valence_orbital": [ 
			{
				"type": "occ",
				"energy": -0.29098,
				"method": "rhf"
			},
			{
				"type": "occ",
				"energy": -0.28845,
				"method": "rhf"
			},
			{
				"type": "occ",
				"energy": -0.27966,
				"method": "rhf"
			},
			{
				"type": "occ",
				"energy": -0.25798,
				"method": "rhf"
			},
			{
				"type": "occ",
				"energy": -0.23599,
				"method": "rhf"
			},
			{
				"type": "unocc",
				"energy": -0.05468,
				"method": "rhf"
			},
			{
				"type": "unocc",
				"energy": -0.01045,
				"method": "rhf"
			},
			{
				"type": "unocc",
				"energy": 0.05447,
				"method": "rhf"
			},
			{
				"type": "unocc",
				"energy": 0.08688,
				"method": "rhf"
			},
			{
				"type": "unocc",
				"energy": 0.10346,
				"method": "rhf"
			}
		],
		"cosmo_sigma_profile": { 
			"-0.025": 0.0,
			"-0.024": 0.0,
			"-0.023": 0.0,
			"-0.022": 0.0,
			"-0.021": 0.0,
			"-0.02": 0.0,
			"-0.019": 0.0,
			"-0.018": 0.0,
			"-0.017": 0.0,
			"-0.016": 0.0181741145958,
			"-0.015": 0.779316500748,
			"-0.014": 1.32249352466,
			"-0.013": 0.400731707037,
			"-0.012": 2.38009923001,
			"-0.011": 2.13218481603,
			"-0.01": 1.79207439688,
			"-0.009": 1.75277253794,
			"-0.008": 2.64491747429,
			"-0.007": 7.03062884452,
			"-0.006": 8.02154421344,
			"-0.005": 7.78153088715,
			"-0.004": 6.02839031513,
			"-0.003": 7.85815302091,
			"-0.002": 9.97230501313,
			"-0.001": 10.7683950792,
			"0.0": 12.794410875,
			"0.001": 17.7007909105,
			"0.002": 16.5400379306,
			"0.003": 8.07194958621,
			"0.004": 5.3549512293,
			"0.005": 4.0292195577,
			"0.006": 3.58025512295,
			"0.007": 4.37082849063,
			"0.008": 4.583606292,
			"0.009": 2.49258867623,
			"0.01": 2.8606220186,
			"0.011": 4.12757279128,
			"0.012": 1.94866346146,
			"0.013": 1.80105400942,
			"0.014": 0.500070965404,
			"0.015": 0.0,
			"0.016": 0.0,
			"0.017": 0.0,
			"0.018": 0.0,
			"0.019": 0.0,
			"0.02": 0.0,
			"0.021": 0.0,
			"0.022": 0.0,
			"0.023": 0.0,
			"0.024": 0.0,
			"0.025": 0.0
		}
	}
}
