{
	 "smiles": "CC1=C(C(O)=O)C(Cl)=CC(Br)=C1", 
	 "Tm": 428.15, 
	 "num_atms": 18, 
	 "gaussian": { 
		 "optdone": 1, 
		 "sigma_profile": "yes", 
		 "theory": "DFT", 
		 "functional": "B3LYP", 
		 "basiset": "6-31G**", 
		 "properties": { 
			 "R2extent": 4673.6246, 
			 "electric_dipole_moment_norm": 1.46634211902, 
			 "electric_quadrupole_moment_norm": 6.52598650167, 
			 "total_energy": -3490.52486593, 
			 "HOMO_LUMO_gap": 0.20199, 
			 "cosmo_polarized_energy": -9.18, 
			 "cosmo_cavitation_energy": 26.7, 
			 "cosmo_dispersion_energy": -19.92, 
			 "cosmo_repulsion_energy": 1.6, 
			 "cosmo_total_nonelectrostatic_energy": 8.38, 
			 "SMD_solvation_energy": 4.27 
		},
		"coords": [
			{
				"x": 2.1483548326,
				"y": -0.5134364029,
				"z": -1.0049820037,
				"element": "C" 
			},
			{
				"x": 0.6902698069,
				"y": -0.8129323095,
				"z": -0.7415446036,
				"element": "C" 
			},
			{
				"x": -0.172272066,
				"y": 0.1473087988,
				"z": -0.163307365,
				"element": "C" 
			},
			{
				"x": 0.3838276973,
				"y": 1.4969862765,
				"z": 0.1825086126,
				"element": "C" 
			},
			{
				"x": 0.1567615192,
				"y": 1.8433648867,
				"z": 1.4659954956,
				"element": "O" 
			},
			{
				"x": 1.0111413172,
				"y": 2.1961638462,
				"z": -0.5845528072,
				"element": "O" 
			},
			{
				"x": -1.5219016823,
				"y": -0.1824805621,
				"z": 0.0346617099,
				"element": "C" 
			},
			{
				"x": -2.6686706113,
				"y": 0.9871961671,
				"z": 0.6646804148,
				"element": "Cl" 
			},
			{
				"x": -2.0293578798,
				"y": -1.4355891382,
				"z": -0.3076934672,
				"element": "C" 
			},
			{
				"x": -1.1584425027,
				"y": -2.3726109969,
				"z": -0.8500728786,
				"element": "C" 
			},
			{
				"x": -1.8227098923,
				"y": -4.0986874632,
				"z": -1.3129066323,
				"element": "Br" 
			},
			{
				"x": 0.1835638237,
				"y": -2.0736373836,
				"z": -1.0685399154,
				"element": "C" 
			},
			{
				"x": 2.2539981955,
				"y": 0.2891612145,
				"z": -1.7388502678,
				"element": "H" 
			},
			{
				"x": 2.6598181373,
				"y": -1.404016213,
				"z": -1.3767319462,
				"element": "H" 
			},
			{
				"x": 2.6619898164,
				"y": -0.1813572597,
				"z": -0.0967192741,
				"element": "H" 
			},
			{
				"x": 0.5302313937,
				"y": 2.7347796341,
				"z": 1.5767800516,
				"element": "H" 
			},
			{
				"x": -3.0763659655,
				"y": -1.6625328746,
				"z": -0.1549548493,
				"element": "H" 
			},
			{
				"x": 0.8394640599,
				"y": -2.8219802201,
				"z": -1.4980702741,
				"element": "H" 
			}
		],
		 "valence_orbital": [ 
			{
				"type": "occ",
				"energy": -0.31284,
				"method": "rhf"
			},
			{
				"type": "occ",
				"energy": -0.29871,
				"method": "rhf"
			},
			{
				"type": "occ",
				"energy": -0.2908,
				"method": "rhf"
			},
			{
				"type": "occ",
				"energy": -0.26301,
				"method": "rhf"
			},
			{
				"type": "occ",
				"energy": -0.2553,
				"method": "rhf"
			},
			{
				"type": "unocc",
				"energy": -0.05331,
				"method": "rhf"
			},
			{
				"type": "unocc",
				"energy": -0.02917,
				"method": "rhf"
			},
			{
				"type": "unocc",
				"energy": -0.01326,
				"method": "rhf"
			},
			{
				"type": "unocc",
				"energy": 0.01327,
				"method": "rhf"
			},
			{
				"type": "unocc",
				"energy": 0.03389,
				"method": "rhf"
			}
		],
		"cosmo_sigma_profile": { 
			"-0.025": 0.0,
			"-0.024": 0.0,
			"-0.023": 0.0,
			"-0.022": 0.0,
			"-0.021": 0.0,
			"-0.02": 0.0,
			"-0.019": 0.30227781258,
			"-0.018": 1.27648293834,
			"-0.017": 0.491811782454,
			"-0.016": 0.949933018354,
			"-0.015": 0.617324857687,
			"-0.014": 0.984356145833,
			"-0.013": 0.443819411405,
			"-0.012": 0.95643541995,
			"-0.011": 0.478947336522,
			"-0.01": 0.902747109441,
			"-0.009": 0.44542260454,
			"-0.008": 3.58925478539,
			"-0.007": 4.589254911,
			"-0.006": 6.8341863629,
			"-0.005": 8.06924417833,
			"-0.004": 11.4339424198,
			"-0.003": 12.9390945201,
			"-0.002": 13.64571283,
			"-0.001": 21.1334172184,
			"0.0": 24.6601042317,
			"0.001": 27.5661382951,
			"0.002": 16.899488821,
			"0.003": 16.944766231,
			"0.004": 18.2253504988,
			"0.005": 3.8763229143,
			"0.006": 3.33624245593,
			"0.007": 3.23982781637,
			"0.008": 3.33256436468,
			"0.009": 3.04860987065,
			"0.01": 2.75902689648,
			"0.011": 4.26532061218,
			"0.012": 0.67453719292,
			"0.013": 0.0,
			"0.014": 0.0,
			"0.015": 0.0,
			"0.016": 0.0,
			"0.017": 0.0,
			"0.018": 0.0,
			"0.019": 0.0,
			"0.02": 0.0,
			"0.021": 0.0,
			"0.022": 0.0,
			"0.023": 0.0,
			"0.024": 0.0,
			"0.025": 0.0
		}
	}
}
