{
	 "smiles": "OC1=C(O)C(Br)=CC=C1", 
	 "Tm": 313.65, 
	 "num_atms": 14, 
	 "gaussian": { 
		 "optdone": 1, 
		 "sigma_profile": "yes", 
		 "theory": "DFT", 
		 "functional": "B3LYP", 
		 "basiset": "6-31G**", 
		 "properties": { 
			 "R2extent": 1873.9472, 
			 "electric_dipole_moment_norm": 4.1570568916, 
			 "electric_quadrupole_moment_norm": 9.02260447099, 
			 "total_energy": -2953.49160192, 
			 "HOMO_LUMO_gap": 0.21235, 
			 "cosmo_polarized_energy": -11.57, 
			 "cosmo_cavitation_energy": 20.4, 
			 "cosmo_dispersion_energy": -16.03, 
			 "cosmo_repulsion_energy": 1.31, 
			 "cosmo_total_nonelectrostatic_energy": 5.68, 
			 "SMD_solvation_energy": 3.1 
		},
		"coords": [
			{
				"x": -1.3245512239,
				"y": 2.5815333536,
				"z": 0.9149181029,
				"element": "O" 
			},
			{
				"x": -1.3389526242,
				"y": 1.5827029417,
				"z": -0.0312389062,
				"element": "C" 
			},
			{
				"x": -0.2258490674,
				"y": 0.7219632798,
				"z": 0.0230951174,
				"element": "C" 
			},
			{
				"x": 0.7439010547,
				"y": 0.9137157886,
				"z": 0.9519119887,
				"element": "O" 
			},
			{
				"x": -0.1517699269,
				"y": -0.3238031211,
				"z": -0.898558357,
				"element": "C" 
			},
			{
				"x": 1.3439381524,
				"y": -1.5012194833,
				"z": -0.8445643548,
				"element": "Br" 
			},
			{
				"x": -1.1541432412,
				"y": -0.5156086619,
				"z": -1.8526532261,
				"element": "C" 
			},
			{
				"x": -2.2462364131,
				"y": 0.3470224046,
				"z": -1.8889967276,
				"element": "C" 
			},
			{
				"x": -2.3420360729,
				"y": 1.4015788599,
				"z": -0.9758264029,
				"element": "C" 
			},
			{
				"x": -2.1107135707,
				"y": 3.1334224248,
				"z": 0.8242135108,
				"element": "H" 
			},
			{
				"x": 0.4900827376,
				"y": 1.6865100022,
				"z": 1.479083521,
				"element": "H" 
			},
			{
				"x": -1.0686629402,
				"y": -1.3363307733,
				"z": -2.5548511978,
				"element": "H" 
			},
			{
				"x": -3.0264088097,
				"y": 0.2007977842,
				"z": -2.6286792978,
				"element": "H" 
			},
			{
				"x": -3.1918980545,
				"y": 2.0797152002,
				"z": -0.9976537705,
				"element": "H" 
			}
		],
		 "valence_orbital": [ 
			{
				"type": "occ",
				"energy": -0.34361,
				"method": "rhf"
			},
			{
				"type": "occ",
				"energy": -0.30017,
				"method": "rhf"
			},
			{
				"type": "occ",
				"energy": -0.27688,
				"method": "rhf"
			},
			{
				"type": "occ",
				"energy": -0.23381,
				"method": "rhf"
			},
			{
				"type": "occ",
				"energy": -0.21815,
				"method": "rhf"
			},
			{
				"type": "unocc",
				"energy": -0.0058,
				"method": "rhf"
			},
			{
				"type": "unocc",
				"energy": 0.00702,
				"method": "rhf"
			},
			{
				"type": "unocc",
				"energy": 0.01254,
				"method": "rhf"
			},
			{
				"type": "unocc",
				"energy": 0.04967,
				"method": "rhf"
			},
			{
				"type": "unocc",
				"energy": 0.09649,
				"method": "rhf"
			}
		],
		"cosmo_sigma_profile": { 
			"-0.025": 0.0,
			"-0.024": 0.0,
			"-0.023": 0.0,
			"-0.022": 0.0,
			"-0.021": 0.0,
			"-0.02": 0.0,
			"-0.019": 0.339877239855,
			"-0.018": 1.10088949528,
			"-0.017": 0.964990889168,
			"-0.016": 1.43583596283,
			"-0.015": 1.50462616577,
			"-0.014": 0.927186221949,
			"-0.013": 1.6405762962,
			"-0.012": 1.72620847729,
			"-0.011": 1.38607998453,
			"-0.01": 1.75915310611,
			"-0.009": 2.0384104554,
			"-0.008": 1.71400139262,
			"-0.007": 3.16487842813,
			"-0.006": 6.47083167272,
			"-0.005": 7.8074777685,
			"-0.004": 8.21453123355,
			"-0.003": 6.32751273494,
			"-0.002": 7.36826903813,
			"-0.001": 6.94598706256,
			"0.0": 8.13405046643,
			"0.001": 11.3307519367,
			"0.002": 16.2436445577,
			"0.003": 17.3591758527,
			"0.004": 18.5615690042,
			"0.005": 15.2527090291,
			"0.006": 5.03064896113,
			"0.007": 3.456197691,
			"0.008": 1.78211093508,
			"0.009": 2.0223804961,
			"0.01": 1.98157772497,
			"0.011": 2.18521455537,
			"0.012": 0.168093410952,
			"0.013": 0.0,
			"0.014": 0.0,
			"0.015": 0.0,
			"0.016": 0.0,
			"0.017": 0.0,
			"0.018": 0.0,
			"0.019": 0.0,
			"0.02": 0.0,
			"0.021": 0.0,
			"0.022": 0.0,
			"0.023": 0.0,
			"0.024": 0.0,
			"0.025": 0.0
		}
	}
}
