{
	 "smiles": "NNC1=NC(=NO1)C1=CC=C(Cl)C=C1", 
	 "Tm": 453.15, 
	 "num_atms": 21, 
	 "gaussian": { 
		 "optdone": 1, 
		 "sigma_profile": "yes", 
		 "theory": "DFT", 
		 "functional": "B3LYP", 
		 "basiset": "6-31G**", 
		 "properties": { 
			 "R2extent": 4871.7053, 
			 "electric_dipole_moment_norm": 2.98958714541, 
			 "electric_quadrupole_moment_norm": 4.08434895669, 
			 "total_energy": -1063.42583121, 
			 "HOMO_LUMO_gap": 0.18886, 
			 "cosmo_polarized_energy": -12.91, 
			 "cosmo_cavitation_energy": 28.42, 
			 "cosmo_dispersion_energy": -21.42, 
			 "cosmo_repulsion_energy": 1.69, 
			 "cosmo_total_nonelectrostatic_energy": 8.69, 
			 "SMD_solvation_energy": 3.4 
		},
		"coords": [
			{
				"x": -1.04191074,
				"y": 1.3314687511,
				"z": -5.0273742638,
				"element": "N" 
			},
			{
				"x": -0.2829164809,
				"y": 0.6003790232,
				"z": -4.098712801,
				"element": "N" 
			},
			{
				"x": -0.651806609,
				"y": 0.4447915582,
				"z": -2.8043199439,
				"element": "C" 
			},
			{
				"x": 0.0694967747,
				"y": -0.0311082554,
				"z": -1.8212375015,
				"element": "N" 
			},
			{
				"x": -0.8267538745,
				"y": 0.0146475223,
				"z": -0.7764121393,
				"element": "C" 
			},
			{
				"x": -2.0184325384,
				"y": 0.4877592319,
				"z": -1.0716296358,
				"element": "N" 
			},
			{
				"x": -1.9046502435,
				"y": 0.7860286162,
				"z": -2.4627100978,
				"element": "O" 
			},
			{
				"x": -0.4804191378,
				"y": -0.4303936441,
				"z": 0.5810386795,
				"element": "C" 
			},
			{
				"x": -1.4180560751,
				"y": -0.3611664163,
				"z": 1.6230737701,
				"element": "C" 
			},
			{
				"x": -1.0811641982,
				"y": -0.7848486265,
				"z": 2.9044789288,
				"element": "C" 
			},
			{
				"x": 0.2026434104,
				"y": -1.2804569295,
				"z": 3.1426825276,
				"element": "C" 
			},
			{
				"x": 0.6320054033,
				"y": -1.8162241064,
				"z": 4.7595661985,
				"element": "Cl" 
			},
			{
				"x": 1.1489158144,
				"y": -1.3577086818,
				"z": 2.1214018643,
				"element": "C" 
			},
			{
				"x": 0.8019946562,
				"y": -0.9310804052,
				"z": 0.8412862056,
				"element": "C" 
			},
			{
				"x": -1.8717997199,
				"y": 0.7927572701,
				"z": -5.2641330493,
				"element": "H" 
			},
			{
				"x": -1.3525469019,
				"y": 2.2068948502,
				"z": -4.6078621327,
				"element": "H" 
			},
			{
				"x": 0.7006718571,
				"y": 0.5093045236,
				"z": -4.3053543664,
				"element": "H" 
			},
			{
				"x": -2.4113482305,
				"y": 0.026137745,
				"z": 1.422691122,
				"element": "H" 
			},
			{
				"x": -1.8021701986,
				"y": -0.7333459013,
				"z": 3.7125648297,
				"element": "H" 
			},
			{
				"x": 2.1402717306,
				"y": -1.7458371003,
				"z": 2.3266674125,
				"element": "H" 
			},
			{
				"x": 1.5219753016,
				"y": -0.982499025,
				"z": 0.0320943931,
				"element": "H" 
			}
		],
		 "valence_orbital": [ 
			{
				"type": "occ",
				"energy": -0.29804,
				"method": "rhf"
			},
			{
				"type": "occ",
				"energy": -0.29406,
				"method": "rhf"
			},
			{
				"type": "occ",
				"energy": -0.26744,
				"method": "rhf"
			},
			{
				"type": "occ",
				"energy": -0.25524,
				"method": "rhf"
			},
			{
				"type": "occ",
				"energy": -0.2352,
				"method": "rhf"
			},
			{
				"type": "unocc",
				"energy": -0.04634,
				"method": "rhf"
			},
			{
				"type": "unocc",
				"energy": -0.01612,
				"method": "rhf"
			},
			{
				"type": "unocc",
				"energy": 0.01757,
				"method": "rhf"
			},
			{
				"type": "unocc",
				"energy": 0.02851,
				"method": "rhf"
			},
			{
				"type": "unocc",
				"energy": 0.05602,
				"method": "rhf"
			}
		],
		"cosmo_sigma_profile": { 
			"-0.025": 0.0,
			"-0.024": 0.0,
			"-0.023": 0.0,
			"-0.022": 0.0,
			"-0.021": 0.0,
			"-0.02": 0.0,
			"-0.019": 0.0,
			"-0.018": 0.0,
			"-0.017": 0.0,
			"-0.016": 0.460696860504,
			"-0.015": 0.972777757849,
			"-0.014": 0.994231512575,
			"-0.013": 1.44198791213,
			"-0.012": 3.80538502195,
			"-0.011": 3.28959092411,
			"-0.01": 3.62480922604,
			"-0.009": 3.55016668746,
			"-0.008": 4.52327564262,
			"-0.007": 7.73314908458,
			"-0.006": 9.78839857892,
			"-0.005": 9.39486595529,
			"-0.004": 8.52585184315,
			"-0.003": 11.5935171225,
			"-0.002": 9.31221349045,
			"-0.001": 12.8250686019,
			"0.0": 17.7907173699,
			"0.001": 22.8889768442,
			"0.002": 27.3316412217,
			"0.003": 18.6472333927,
			"0.004": 14.4608912813,
			"0.005": 7.82227222616,
			"0.006": 4.37579874089,
			"0.007": 7.18691909059,
			"0.008": 3.33388349189,
			"0.009": 2.51225419991,
			"0.01": 3.15919022588,
			"0.011": 2.93762448428,
			"0.012": 3.34442611128,
			"0.013": 1.45843326792,
			"0.014": 0.547012562289,
			"0.015": 0.401713758068,
			"0.016": 0.23302665503,
			"0.017": 0.0,
			"0.018": 0.0,
			"0.019": 0.0,
			"0.02": 0.0,
			"0.021": 0.0,
			"0.022": 0.0,
			"0.023": 0.0,
			"0.024": 0.0,
			"0.025": 0.0
		}
	}
}
