{
	 "smiles": "NC1=NN=C(CCCC2=CC=CS2)O1", 
	 "Tm": 423.15, 
	 "num_atms": 25, 
	 "gaussian": { 
		 "optdone": 1, 
		 "sigma_profile": "yes", 
		 "theory": "DFT", 
		 "functional": "B3LYP", 
		 "basiset": "6-31G**", 
		 "properties": { 
			 "R2extent": 5192.3289, 
			 "electric_dipole_moment_norm": 3.82423039316, 
			 "electric_quadrupole_moment_norm": 21.2925085812, 
			 "total_energy": -987.217602251, 
			 "HOMO_LUMO_gap": 0.21508, 
			 "cosmo_polarized_energy": -17.93, 
			 "cosmo_cavitation_energy": 31.24, 
			 "cosmo_dispersion_energy": -22.83, 
			 "cosmo_repulsion_energy": 1.79, 
			 "cosmo_total_nonelectrostatic_energy": 10.2, 
			 "SMD_solvation_energy": 3.22 
		},
		"coords": [
			{
				"x": 0.5109035881,
				"y": 0.8046820486,
				"z": 4.446772824,
				"element": "N" 
			},
			{
				"x": 1.4442970699,
				"y": 1.0914867652,
				"z": 3.4863258502,
				"element": "C" 
			},
			{
				"x": 2.1695490398,
				"y": 2.1603514966,
				"z": 3.3543544288,
				"element": "N" 
			},
			{
				"x": 3.0255436519,
				"y": 1.8960610712,
				"z": 2.2722363931,
				"element": "N" 
			},
			{
				"x": 2.7416128364,
				"y": 0.7158422721,
				"z": 1.8361399434,
				"element": "C" 
			},
			{
				"x": 3.3409372649,
				"y": -0.0308647009,
				"z": 0.694741006,
				"element": "C" 
			},
			{
				"x": 2.4776526845,
				"y": -0.0750083026,
				"z": -0.5857845346,
				"element": "C" 
			},
			{
				"x": 1.1867046505,
				"y": -0.9085697162,
				"z": -0.4510516704,
				"element": "C" 
			},
			{
				"x": 0.3761437694,
				"y": -0.9692256177,
				"z": -1.7158183254,
				"element": "C" 
			},
			{
				"x": -0.7841459342,
				"y": -0.303749356,
				"z": -2.0145425332,
				"element": "C" 
			},
			{
				"x": -1.2775001233,
				"y": -0.5676348404,
				"z": -3.3298992938,
				"element": "C" 
			},
			{
				"x": -0.4853308594,
				"y": -1.4355701643,
				"z": -4.0264219505,
				"element": "C" 
			},
			{
				"x": 0.879285136,
				"y": -1.9440749643,
				"z": -3.0806156678,
				"element": "S" 
			},
			{
				"x": 1.7274456871,
				"y": 0.1247079913,
				"z": 2.5733514403,
				"element": "O" 
			},
			{
				"x": 0.2136429204,
				"y": 1.6215013386,
				"z": 4.9625902123,
				"element": "H" 
			},
			{
				"x": -0.2475867114,
				"y": 0.2056982992,
				"z": 4.1510963222,
				"element": "H" 
			},
			{
				"x": 4.2880268059,
				"y": 0.4681817349,
				"z": 0.4724436246,
				"element": "H" 
			},
			{
				"x": 3.5769586372,
				"y": -1.0525341945,
				"z": 1.0183576242,
				"element": "H" 
			},
			{
				"x": 3.09212213,
				"y": -0.4946666448,
				"z": -1.390705201,
				"element": "H" 
			},
			{
				"x": 2.2230165369,
				"y": 0.9469381685,
				"z": -0.8876940157,
				"element": "H" 
			},
			{
				"x": 0.5530037944,
				"y": -0.483850087,
				"z": 0.3344212854,
				"element": "H" 
			},
			{
				"x": 1.4481434766,
				"y": -1.9217993497,
				"z": -0.1174341778,
				"element": "H" 
			},
			{
				"x": -1.2746593051,
				"y": 0.3588164403,
				"z": -1.3088523772,
				"element": "H" 
			},
			{
				"x": -2.1836438307,
				"y": -0.1309566977,
				"z": -3.7346098828,
				"element": "H" 
			},
			{
				"x": -0.617922916,
				"y": -1.8115629903,
				"z": -5.0313013242,
				"element": "H" 
			}
		],
		 "valence_orbital": [ 
			{
				"type": "occ",
				"energy": -0.30872,
				"method": "rhf"
			},
			{
				"type": "occ",
				"energy": -0.26806,
				"method": "rhf"
			},
			{
				"type": "occ",
				"energy": -0.24926,
				"method": "rhf"
			},
			{
				"type": "occ",
				"energy": -0.23312,
				"method": "rhf"
			},
			{
				"type": "occ",
				"energy": -0.22619,
				"method": "rhf"
			},
			{
				"type": "unocc",
				"energy": -0.01111,
				"method": "rhf"
			},
			{
				"type": "unocc",
				"energy": 0.00786,
				"method": "rhf"
			},
			{
				"type": "unocc",
				"energy": 0.02999,
				"method": "rhf"
			},
			{
				"type": "unocc",
				"energy": 0.04967,
				"method": "rhf"
			},
			{
				"type": "unocc",
				"energy": 0.06823,
				"method": "rhf"
			}
		],
		"cosmo_sigma_profile": { 
			"-0.025": 0.0,
			"-0.024": 0.0,
			"-0.023": 0.0,
			"-0.022": 0.0,
			"-0.021": 0.0,
			"-0.02": 0.0,
			"-0.019": 0.0,
			"-0.018": 0.0,
			"-0.017": 0.0,
			"-0.016": 0.0,
			"-0.015": 1.46068243738,
			"-0.014": 2.86968232851,
			"-0.013": 2.48819635904,
			"-0.012": 2.70654297474,
			"-0.011": 2.35750196426,
			"-0.01": 1.67011010278,
			"-0.009": 1.45455913854,
			"-0.008": 3.43140368336,
			"-0.007": 4.3209282573,
			"-0.006": 9.89808930884,
			"-0.005": 13.6948382528,
			"-0.004": 24.6003393736,
			"-0.003": 26.8345602814,
			"-0.002": 18.7437275294,
			"-0.001": 15.1597661454,
			"0.0": 12.7006302841,
			"0.001": 10.9259780909,
			"0.002": 13.429384313,
			"0.003": 13.5859670665,
			"0.004": 14.3621986055,
			"0.005": 15.4253501467,
			"0.006": 9.4367728508,
			"0.007": 3.18604800184,
			"0.008": 2.63883922566,
			"0.009": 2.74896646161,
			"0.01": 2.28106553501,
			"0.011": 2.96383213425,
			"0.012": 3.61543030501,
			"0.013": 3.35284316015,
			"0.014": 2.73564089556,
			"0.015": 2.82693068904,
			"0.016": 1.88707181483,
			"0.017": 0.300975330204,
			"0.018": 0.0,
			"0.019": 0.0,
			"0.02": 0.0,
			"0.021": 0.0,
			"0.022": 0.0,
			"0.023": 0.0,
			"0.024": 0.0,
			"0.025": 0.0
		}
	}
}
