{
	 "smiles": "CC(C)CC1NC(CS1)C(O)=O", 
	 "Tm": 433.15, 
	 "num_atms": 27, 
	 "gaussian": { 
		 "optdone": 1, 
		 "sigma_profile": "yes", 
		 "theory": "DFT", 
		 "functional": "B3LYP", 
		 "basiset": "6-31G**", 
		 "properties": { 
			 "R2extent": 3719.3772, 
			 "electric_dipole_moment_norm": 2.55908728261, 
			 "electric_quadrupole_moment_norm": 10.8576019106, 
			 "total_energy": -917.291853688, 
			 "HOMO_LUMO_gap": 0.20978, 
			 "cosmo_polarized_energy": -14.5, 
			 "cosmo_cavitation_energy": 29.52, 
			 "cosmo_dispersion_energy": -21.43, 
			 "cosmo_repulsion_energy": 1.68, 
			 "cosmo_total_nonelectrostatic_energy": 9.77, 
			 "SMD_solvation_energy": 3.67 
		},
		"coords": [
			{
				"x": -0.8132617536,
				"y": 0.8469794978,
				"z": -3.7947592221,
				"element": "C" 
			},
			{
				"x": -0.661827829,
				"y": 0.8567380708,
				"z": -2.2656480804,
				"element": "C" 
			},
			{
				"x": -0.2666844243,
				"y": 2.2582814872,
				"z": -1.7759628243,
				"element": "C" 
			},
			{
				"x": 0.3125139642,
				"y": -0.2588144996,
				"z": -1.8333124926,
				"element": "C" 
			},
			{
				"x": 0.4199042669,
				"y": -0.4868603835,
				"z": -0.3140717449,
				"element": "C" 
			},
			{
				"x": 0.8128800533,
				"y": -1.848237621,
				"z": 0.0285058576,
				"element": "N" 
			},
			{
				"x": 2.2676540627,
				"y": -1.9532765536,
				"z": 0.1284909784,
				"element": "C" 
			},
			{
				"x": 2.832347647,
				"y": -0.722405442,
				"z": 0.8750837574,
				"element": "C" 
			},
			{
				"x": 1.6820517474,
				"y": 0.6663548165,
				"z": 0.5169810758,
				"element": "S" 
			},
			{
				"x": 2.9434863276,
				"y": -2.1413816385,
				"z": -1.2365898564,
				"element": "C" 
			},
			{
				"x": 2.288524372,
				"y": -3.0306755284,
				"z": -2.0107408695,
				"element": "O" 
			},
			{
				"x": 3.9816911421,
				"y": -1.616599707,
				"z": -1.5749587139,
				"element": "O" 
			},
			{
				"x": -1.1410860073,
				"y": -0.132310819,
				"z": -4.1603184621,
				"element": "H" 
			},
			{
				"x": -1.5464141826,
				"y": 1.5914312236,
				"z": -4.1231523608,
				"element": "H" 
			},
			{
				"x": 0.1399307755,
				"y": 1.0836824281,
				"z": -4.2829435867,
				"element": "H" 
			},
			{
				"x": -1.6451122147,
				"y": 0.6139356401,
				"z": -1.833063632,
				"element": "H" 
			},
			{
				"x": 0.7294578802,
				"y": 2.5360401099,
				"z": -2.1377062319,
				"element": "H" 
			},
			{
				"x": -0.9787803123,
				"y": 3.0057154548,
				"z": -2.1434206182,
				"element": "H" 
			},
			{
				"x": -0.2513008351,
				"y": 2.3313271291,
				"z": -0.6841949712,
				"element": "H" 
			},
			{
				"x": 1.3049594427,
				"y": -0.060631959,
				"z": -2.2559530782,
				"element": "H" 
			},
			{
				"x": -0.0380384024,
				"y": -1.2060328599,
				"z": -2.259826734,
				"element": "H" 
			},
			{
				"x": -0.5521105907,
				"y": -0.290137297,
				"z": 0.1475165359,
				"element": "H" 
			},
			{
				"x": 0.4209434663,
				"y": -2.0855082873,
				"z": 0.9351757105,
				"element": "H" 
			},
			{
				"x": 2.5004286101,
				"y": -2.872214281,
				"z": 0.682026695,
				"element": "H" 
			},
			{
				"x": 2.8609085224,
				"y": -0.9085078859,
				"z": 1.9517350432,
				"element": "H" 
			},
			{
				"x": 3.8335265207,
				"y": -0.4758569897,
				"z": 0.5202335534,
				"element": "H" 
			},
			{
				"x": 2.8160077508,
				"y": -3.1121341058,
				"z": -2.8235257281,
				"element": "H" 
			}
		],
		 "valence_orbital": [ 
			{
				"type": "occ",
				"energy": -0.31877,
				"method": "rhf"
			},
			{
				"type": "occ",
				"energy": -0.31176,
				"method": "rhf"
			},
			{
				"type": "occ",
				"energy": -0.28552,
				"method": "rhf"
			},
			{
				"type": "occ",
				"energy": -0.24537,
				"method": "rhf"
			},
			{
				"type": "occ",
				"energy": -0.21502,
				"method": "rhf"
			},
			{
				"type": "unocc",
				"energy": -0.00524,
				"method": "rhf"
			},
			{
				"type": "unocc",
				"energy": 0.02809,
				"method": "rhf"
			},
			{
				"type": "unocc",
				"energy": 0.06335,
				"method": "rhf"
			},
			{
				"type": "unocc",
				"energy": 0.07329,
				"method": "rhf"
			},
			{
				"type": "unocc",
				"energy": 0.0747,
				"method": "rhf"
			}
		],
		"cosmo_sigma_profile": { 
			"-0.025": 0.0,
			"-0.024": 0.0,
			"-0.023": 0.0,
			"-0.022": 0.0,
			"-0.021": 0.0,
			"-0.02": 0.0,
			"-0.019": 0.0951191151547,
			"-0.018": 0.878293863097,
			"-0.017": 1.03322241644,
			"-0.016": 0.600511321101,
			"-0.015": 0.409062370017,
			"-0.014": 0.978422424249,
			"-0.013": 0.696707359523,
			"-0.012": 2.10705478959,
			"-0.011": 3.3681855956,
			"-0.01": 2.55124809706,
			"-0.009": 3.38555578305,
			"-0.008": 5.49056827342,
			"-0.007": 4.57284374631,
			"-0.006": 6.08631601639,
			"-0.005": 8.06595244907,
			"-0.004": 8.03878967306,
			"-0.003": 13.9220561026,
			"-0.002": 28.5185535998,
			"-0.001": 24.1846802988,
			"0.0": 20.6678314292,
			"0.001": 22.2585769658,
			"0.002": 12.8875022921,
			"0.003": 6.37388076761,
			"0.004": 5.56203103105,
			"0.005": 6.09186367791,
			"0.006": 6.73848764946,
			"0.007": 5.73341031315,
			"0.008": 5.3610845493,
			"0.009": 5.2639821356,
			"0.01": 5.63062504564,
			"0.011": 6.79014415362,
			"0.012": 3.57942210938,
			"0.013": 0.790452852382,
			"0.014": 0.784848794735,
			"0.015": 0.682013808944,
			"0.016": 0.236356075785,
			"0.017": 0.0,
			"0.018": 0.0,
			"0.019": 0.0,
			"0.02": 0.0,
			"0.021": 0.0,
			"0.022": 0.0,
			"0.023": 0.0,
			"0.024": 0.0,
			"0.025": 0.0
		}
	}
}
