{
	 "smiles": "CCCCN1C(N)=CC(=O)NC1=O", 
	 "Tm": 512.15, 
	 "num_atms": 26, 
	 "gaussian": { 
		 "optdone": 1, 
		 "sigma_profile": "yes", 
		 "theory": "DFT", 
		 "functional": "B3LYP", 
		 "basiset": "6-31G**", 
		 "properties": { 
			 "R2extent": 3299.8722, 
			 "electric_dipole_moment_norm": 6.33566143429, 
			 "electric_quadrupole_moment_norm": 16.27855098, 
			 "total_energy": -627.439145152, 
			 "HOMO_LUMO_gap": 0.20908, 
			 "cosmo_polarized_energy": -21.4, 
			 "cosmo_cavitation_energy": 28.91, 
			 "cosmo_dispersion_energy": -20.9, 
			 "cosmo_repulsion_energy": 1.67, 
			 "cosmo_total_nonelectrostatic_energy": 9.68, 
			 "SMD_solvation_energy": 6.19 
		},
		"coords": [
			{
				"x": 0.892903339,
				"y": 3.8860416785,
				"z": 0.7857048492,
				"element": "C" 
			},
			{
				"x": 1.5654525892,
				"y": 2.5172825481,
				"z": 0.9499534118,
				"element": "C" 
			},
			{
				"x": 0.599570211,
				"y": 1.3214705201,
				"z": 0.9149664566,
				"element": "C" 
			},
			{
				"x": -0.0940799709,
				"y": 1.1450808558,
				"z": -0.4428319558,
				"element": "C" 
			},
			{
				"x": -0.981321436,
				"y": -0.0298070252,
				"z": -0.4953992508,
				"element": "N" 
			},
			{
				"x": -0.5086411873,
				"y": -1.3260621429,
				"z": -0.6663024665,
				"element": "C" 
			},
			{
				"x": 0.8575426203,
				"y": -1.4722516172,
				"z": -0.8023446601,
				"element": "N" 
			},
			{
				"x": -1.3506545653,
				"y": -2.4053637888,
				"z": -0.6456199172,
				"element": "C" 
			},
			{
				"x": -2.7619920572,
				"y": -2.2482047683,
				"z": -0.4208397805,
				"element": "C" 
			},
			{
				"x": -3.6089216322,
				"y": -3.1301073968,
				"z": -0.373972703,
				"element": "O" 
			},
			{
				"x": -3.1479087305,
				"y": -0.8962854879,
				"z": -0.2514629678,
				"element": "N" 
			},
			{
				"x": -2.3500982589,
				"y": 0.2216175129,
				"z": -0.2642963955,
				"element": "C" 
			},
			{
				"x": -2.7816506984,
				"y": 1.3516671703,
				"z": -0.0892407412,
				"element": "O" 
			},
			{
				"x": 0.4168791575,
				"y": 3.9986919859,
				"z": -0.1938376248,
				"element": "H" 
			},
			{
				"x": 0.1191186605,
				"y": 4.0375958868,
				"z": 1.5462469872,
				"element": "H" 
			},
			{
				"x": 1.6238220817,
				"y": 4.6945786157,
				"z": 0.8872007382,
				"element": "H" 
			},
			{
				"x": 2.3336795777,
				"y": 2.388815704,
				"z": 0.173813045,
				"element": "H" 
			},
			{
				"x": 2.1013918625,
				"y": 2.4939270141,
				"z": 1.9063659427,
				"element": "H" 
			},
			{
				"x": 1.1437535095,
				"y": 0.4037596257,
				"z": 1.1637002886,
				"element": "H" 
			},
			{
				"x": -0.177845341,
				"y": 1.4495293969,
				"z": 1.6779625248,
				"element": "H" 
			},
			{
				"x": -0.7359253028,
				"y": 1.9976618148,
				"z": -0.6591300022,
				"element": "H" 
			},
			{
				"x": 0.6380387234,
				"y": 1.0820617937,
				"z": -1.2572997904,
				"element": "H" 
			},
			{
				"x": 1.3681923349,
				"y": -0.730144822,
				"z": -1.2565935043,
				"element": "H" 
			},
			{
				"x": 1.1473378153,
				"y": -2.393177671,
				"z": -1.0978959419,
				"element": "H" 
			},
			{
				"x": -0.9693256962,
				"y": -3.4067806792,
				"z": -0.7942332064,
				"element": "H" 
			},
			{
				"x": -4.1319176058,
				"y": -0.726296724,
				"z": -0.0860133357,
				"element": "H" 
			}
		],
		 "valence_orbital": [ 
			{
				"type": "occ",
				"energy": -0.28902,
				"method": "rhf"
			},
			{
				"type": "occ",
				"energy": -0.2834,
				"method": "rhf"
			},
			{
				"type": "occ",
				"energy": -0.27055,
				"method": "rhf"
			},
			{
				"type": "occ",
				"energy": -0.24504,
				"method": "rhf"
			},
			{
				"type": "occ",
				"energy": -0.22048,
				"method": "rhf"
			},
			{
				"type": "unocc",
				"energy": -0.0114,
				"method": "rhf"
			},
			{
				"type": "unocc",
				"energy": 0.02163,
				"method": "rhf"
			},
			{
				"type": "unocc",
				"energy": 0.04385,
				"method": "rhf"
			},
			{
				"type": "unocc",
				"energy": 0.07616,
				"method": "rhf"
			},
			{
				"type": "unocc",
				"energy": 0.08934,
				"method": "rhf"
			}
		],
		"cosmo_sigma_profile": { 
			"-0.025": 0.0,
			"-0.024": 0.0,
			"-0.023": 0.0,
			"-0.022": 0.0,
			"-0.021": 0.0,
			"-0.02": 0.0,
			"-0.019": 0.0,
			"-0.018": 0.0,
			"-0.017": 0.0,
			"-0.016": 0.0,
			"-0.015": 1.97812913157,
			"-0.014": 3.85232049029,
			"-0.013": 3.15000007198,
			"-0.012": 4.37485542355,
			"-0.011": 4.25127204354,
			"-0.01": 2.39381465569,
			"-0.009": 2.83567101768,
			"-0.008": 4.13644237312,
			"-0.007": 4.24730291171,
			"-0.006": 3.54489814282,
			"-0.005": 4.83502436835,
			"-0.004": 8.14771563999,
			"-0.003": 19.3123208103,
			"-0.002": 25.4317355399,
			"-0.001": 25.7123355571,
			"0.0": 24.3462318817,
			"0.001": 18.7889123002,
			"0.002": 7.96426953295,
			"0.003": 5.89226179504,
			"0.004": 7.78691224266,
			"0.005": 3.40937836769,
			"0.006": 3.19681641824,
			"0.007": 4.1839309089,
			"0.008": 2.30347826555,
			"0.009": 3.56398044412,
			"0.01": 1.735791221,
			"0.011": 3.34899902493,
			"0.012": 5.04661355512,
			"0.013": 7.40663809582,
			"0.014": 6.99004725275,
			"0.015": 2.33490663784,
			"0.016": 0.145244202935,
			"0.017": 0.0,
			"0.018": 0.0,
			"0.019": 0.0,
			"0.02": 0.0,
			"0.021": 0.0,
			"0.022": 0.0,
			"0.023": 0.0,
			"0.024": 0.0,
			"0.025": 0.0
		}
	}
}
