{
	 "smiles": "COP(=S)(OC)OC1=CC=C(C=C1)S(=O)(=O)N(C)C", 
	 "Tm": 326.15, 
	 "num_atms": 35, 
	 "gaussian": { 
		 "optdone": 1, 
		 "sigma_profile": "yes", 
		 "theory": "DFT", 
		 "functional": "B3LYP", 
		 "basiset": "6-31G**", 
		 "properties": { 
			 "R2extent": 8712.0656, 
			 "electric_dipole_moment_norm": 5.41555532517, 
			 "electric_quadrupole_moment_norm": 41.7190881159, 
			 "total_energy": -1959.28491349, 
			 "HOMO_LUMO_gap": 0.20821, 
			 "cosmo_polarized_energy": -20.08, 
			 "cosmo_cavitation_energy": 43.15, 
			 "cosmo_dispersion_energy": -29.87, 
			 "cosmo_repulsion_energy": 2.22, 
			 "cosmo_total_nonelectrostatic_energy": 15.51, 
			 "SMD_solvation_energy": 7.15 
		},
		"coords": [
			{
				"x": 2.340254596,
				"y": -4.1843019088,
				"z": 0.3439681055,
				"element": "C" 
			},
			{
				"x": 1.9272351729,
				"y": -2.9694568668,
				"z": 1.003434482,
				"element": "O" 
			},
			{
				"x": 2.6965351736,
				"y": -1.5717502665,
				"z": 0.6923749247,
				"element": "P" 
			},
			{
				"x": 3.1607256636,
				"y": -1.21228681,
				"z": -1.1420435074,
				"element": "S" 
			},
			{
				"x": 3.944716817,
				"y": -1.5322187506,
				"z": 1.7006254166,
				"element": "O" 
			},
			{
				"x": 3.7714902569,
				"y": -1.6857270875,
				"z": 3.1265367226,
				"element": "C" 
			},
			{
				"x": 1.684853,
				"y": -0.542792236,
				"z": 1.4585794351,
				"element": "O" 
			},
			{
				"x": 0.4880261132,
				"y": -0.0871665683,
				"z": 0.9150804489,
				"element": "C" 
			},
			{
				"x": 0.3758730415,
				"y": 1.2784820328,
				"z": 0.6560081883,
				"element": "C" 
			},
			{
				"x": -0.8285431436,
				"y": 1.7833501926,
				"z": 0.1716148976,
				"element": "C" 
			},
			{
				"x": -1.9000942556,
				"y": 0.912955761,
				"z": -0.0501186442,
				"element": "C" 
			},
			{
				"x": -1.7845956741,
				"y": -0.4531717949,
				"z": 0.2230046919,
				"element": "C" 
			},
			{
				"x": -0.5825462213,
				"y": -0.9594565857,
				"z": 0.7131695857,
				"element": "C" 
			},
			{
				"x": -3.4353910074,
				"y": 1.5526372016,
				"z": -0.7340734329,
				"element": "S" 
			},
			{
				"x": -4.4974187788,
				"y": 0.6137849311,
				"z": -0.3669394216,
				"element": "O" 
			},
			{
				"x": -3.4998584698,
				"y": 2.9762969102,
				"z": -0.3985670816,
				"element": "O" 
			},
			{
				"x": -3.290549396,
				"y": 1.4687979318,
				"z": -2.4152488716,
				"element": "N" 
			},
			{
				"x": -2.3457110316,
				"y": 2.4028679634,
				"z": -3.0323865486,
				"element": "C" 
			},
			{
				"x": -3.3058596363,
				"y": 0.1263959626,
				"z": -3.0010075764,
				"element": "C" 
			},
			{
				"x": 3.3558017547,
				"y": -4.4592133256,
				"z": 0.6438792396,
				"element": "H" 
			},
			{
				"x": 2.2975597509,
				"y": -4.0630227388,
				"z": -0.7411396942,
				"element": "H" 
			},
			{
				"x": 1.6393350923,
				"y": -4.9549207757,
				"z": 0.6668097113,
				"element": "H" 
			},
			{
				"x": 4.7761935394,
				"y": -1.7630219012,
				"z": 3.542704279,
				"element": "H" 
			},
			{
				"x": 3.2026834434,
				"y": -2.5916345574,
				"z": 3.3526623828,
				"element": "H" 
			},
			{
				"x": 3.2595651849,
				"y": -0.8132895431,
				"z": 3.5385168239,
				"element": "H" 
			},
			{
				"x": 1.2259086929,
				"y": 1.9257225895,
				"z": 0.8405681377,
				"element": "H" 
			},
			{
				"x": -0.9490041158,
				"y": 2.8450026458,
				"z": -0.0123086883,
				"element": "H" 
			},
			{
				"x": -2.6405487829,
				"y": -1.1034703972,
				"z": 0.0813092395,
				"element": "H" 
			},
			{
				"x": -0.4693539029,
				"y": -2.0111834472,
				"z": 0.9478851679,
				"element": "H" 
			},
			{
				"x": -2.4637051032,
				"y": 3.38725262,
				"z": -2.5804246839,
				"element": "H" 
			},
			{
				"x": -1.2990812481,
				"y": 2.0745039172,
				"z": -2.9390613154,
				"element": "H" 
			},
			{
				"x": -2.591359473,
				"y": 2.477518746,
				"z": -4.0956678125,
				"element": "H" 
			},
			{
				"x": -3.5389278597,
				"y": 0.2255230179,
				"z": -4.0651248273,
				"element": "H" 
			},
			{
				"x": -2.3397292116,
				"y": -0.3924345919,
				"z": -2.9031711884,
				"element": "H" 
			},
			{
				"x": -4.0899799813,
				"y": -0.4647722705,
				"z": -2.528848586,
				"element": "H" 
			}
		],
		 "valence_orbital": [ 
			{
				"type": "occ",
				"energy": -0.27877,
				"method": "rhf"
			},
			{
				"type": "occ",
				"energy": -0.27537,
				"method": "rhf"
			},
			{
				"type": "occ",
				"energy": -0.25567,
				"method": "rhf"
			},
			{
				"type": "occ",
				"energy": -0.25399,
				"method": "rhf"
			},
			{
				"type": "occ",
				"energy": -0.24933,
				"method": "rhf"
			},
			{
				"type": "unocc",
				"energy": -0.04112,
				"method": "rhf"
			},
			{
				"type": "unocc",
				"energy": -0.0303,
				"method": "rhf"
			},
			{
				"type": "unocc",
				"energy": 0.02749,
				"method": "rhf"
			},
			{
				"type": "unocc",
				"energy": 0.03889,
				"method": "rhf"
			},
			{
				"type": "unocc",
				"energy": 0.05237,
				"method": "rhf"
			}
		],
		"cosmo_sigma_profile": { 
			"-0.025": 0.0,
			"-0.024": 0.0,
			"-0.023": 0.0,
			"-0.022": 0.0,
			"-0.021": 0.0,
			"-0.02": 0.0,
			"-0.019": 0.0,
			"-0.018": 0.0,
			"-0.017": 0.0,
			"-0.016": 0.0,
			"-0.015": 0.0,
			"-0.014": 0.0,
			"-0.013": 0.0,
			"-0.012": 0.0,
			"-0.011": 0.0,
			"-0.01": 0.0,
			"-0.009": 0.0244143325698,
			"-0.008": 2.66319870079,
			"-0.007": 11.3391389044,
			"-0.006": 23.3199158591,
			"-0.005": 27.6677178159,
			"-0.004": 41.4203617312,
			"-0.003": 35.0097265604,
			"-0.002": 26.7955824172,
			"-0.001": 18.1261081496,
			"0.0": 18.4051915218,
			"0.001": 23.5333568597,
			"0.002": 18.5360566904,
			"0.003": 12.1677989535,
			"0.004": 10.9576360289,
			"0.005": 8.59311218842,
			"0.006": 11.9603005219,
			"0.007": 12.5124654015,
			"0.008": 13.1139010562,
			"0.009": 9.19391055628,
			"0.01": 7.69892786542,
			"0.011": 7.61332441704,
			"0.012": 3.00461084167,
			"0.013": 0.0,
			"0.014": 0.0,
			"0.015": 0.0,
			"0.016": 0.0,
			"0.017": 0.0,
			"0.018": 0.0,
			"0.019": 0.0,
			"0.02": 0.0,
			"0.021": 0.0,
			"0.022": 0.0,
			"0.023": 0.0,
			"0.024": 0.0,
			"0.025": 0.0
		}
	}
}
