{
	 "smiles": "CC(=O)C1=C(N=C(N)S1)C1=CC=CC=C1", 
	 "Tm": 419.15, 
	 "num_atms": 25, 
	 "gaussian": { 
		 "optdone": 1, 
		 "sigma_profile": "yes", 
		 "theory": "DFT", 
		 "functional": "B3LYP", 
		 "basiset": "6-31G**", 
		 "properties": { 
			 "R2extent": 4007.3968, 
			 "electric_dipole_moment_norm": 4.61751276555, 
			 "electric_quadrupole_moment_norm": 15.7117270734, 
			 "total_energy": -1008.11386279, 
			 "HOMO_LUMO_gap": 0.15247, 
			 "cosmo_polarized_energy": -15.65, 
			 "cosmo_cavitation_energy": 30.62, 
			 "cosmo_dispersion_energy": -23.02, 
			 "cosmo_repulsion_energy": 1.76, 
			 "cosmo_total_nonelectrostatic_energy": 9.36, 
			 "SMD_solvation_energy": 4.39 
		},
		"coords": [
			{
				"x": -1.0014430913,
				"y": -1.0204191312,
				"z": 4.2227704738,
				"element": "C" 
			},
			{
				"x": -0.3925127875,
				"y": -0.3275171812,
				"z": 3.0075663678,
				"element": "C" 
			},
			{
				"x": 0.0636697814,
				"y": 0.8047314851,
				"z": 3.1233886217,
				"element": "O" 
			},
			{
				"x": -0.3953667598,
				"y": -1.0650140745,
				"z": 1.7339074871,
				"element": "C" 
			},
			{
				"x": -0.1250552408,
				"y": -0.6746439086,
				"z": 0.4196658147,
				"element": "C" 
			},
			{
				"x": -0.4130783505,
				"y": -1.618457125,
				"z": -0.5429676537,
				"element": "N" 
			},
			{
				"x": -0.8683096634,
				"y": -2.7285786247,
				"z": -0.0279024439,
				"element": "C" 
			},
			{
				"x": -1.1463080541,
				"y": -3.8368875718,
				"z": -0.7761415091,
				"element": "N" 
			},
			{
				"x": -1.0074778857,
				"y": -2.7352631168,
				"z": 1.7165737132,
				"element": "S" 
			},
			{
				"x": 0.3929707008,
				"y": 0.6143292524,
				"z": -0.0962649807,
				"element": "C" 
			},
			{
				"x": 1.3149417357,
				"y": 1.412936375,
				"z": 0.5994709485,
				"element": "C" 
			},
			{
				"x": 1.8014542644,
				"y": 2.5879095027,
				"z": 0.0279501771,
				"element": "C" 
			},
			{
				"x": 1.3750217207,
				"y": 2.9911970665,
				"z": -1.237992147,
				"element": "C" 
			},
			{
				"x": 0.4636063586,
				"y": 2.2006537227,
				"z": -1.9421075746,
				"element": "C" 
			},
			{
				"x": -0.0129969128,
				"y": 1.0187743553,
				"z": -1.3828639567,
				"element": "C" 
			},
			{
				"x": -0.9130013317,
				"y": -0.3489400414,
				"z": 5.0774152554,
				"element": "H" 
			},
			{
				"x": -2.0575283473,
				"y": -1.2601728669,
				"z": 4.0568746906,
				"element": "H" 
			},
			{
				"x": -0.4825754874,
				"y": -1.9594090389,
				"z": 4.4485393026,
				"element": "H" 
			},
			{
				"x": -1.1791760686,
				"y": -3.6716692941,
				"z": -1.7726198819,
				"element": "H" 
			},
			{
				"x": -1.8045621267,
				"y": -4.5122122642,
				"z": -0.4191866034,
				"element": "H" 
			},
			{
				"x": 1.6395315007,
				"y": 1.1200635695,
				"z": 1.5872082051,
				"element": "H" 
			},
			{
				"x": 2.5181183984,
				"y": 3.1903644216,
				"z": 0.578638424,
				"element": "H" 
			},
			{
				"x": 1.7521641942,
				"y": 3.9117515948,
				"z": -1.674833023,
				"element": "H" 
			},
			{
				"x": 0.1279796717,
				"y": 2.5022224444,
				"z": -2.9303712919,
				"element": "H" 
			},
			{
				"x": -0.703266219,
				"y": 0.3910504492,
				"z": -1.9345184157,
				"element": "H" 
			}
		],
		 "valence_orbital": [ 
			{
				"type": "occ",
				"energy": -0.28223,
				"method": "rhf"
			},
			{
				"type": "occ",
				"energy": -0.2505,
				"method": "rhf"
			},
			{
				"type": "occ",
				"energy": -0.24338,
				"method": "rhf"
			},
			{
				"type": "occ",
				"energy": -0.23432,
				"method": "rhf"
			},
			{
				"type": "occ",
				"energy": -0.21284,
				"method": "rhf"
			},
			{
				"type": "unocc",
				"energy": -0.06037,
				"method": "rhf"
			},
			{
				"type": "unocc",
				"energy": -0.00482,
				"method": "rhf"
			},
			{
				"type": "unocc",
				"energy": 0.0098,
				"method": "rhf"
			},
			{
				"type": "unocc",
				"energy": 0.01128,
				"method": "rhf"
			},
			{
				"type": "unocc",
				"energy": 0.02667,
				"method": "rhf"
			}
		],
		"cosmo_sigma_profile": { 
			"-0.025": 0.0,
			"-0.024": 0.0,
			"-0.023": 0.0,
			"-0.022": 0.0,
			"-0.021": 0.0,
			"-0.02": 0.0,
			"-0.019": 0.0,
			"-0.018": 0.0,
			"-0.017": 0.0,
			"-0.016": 0.349192509905,
			"-0.015": 1.94039681778,
			"-0.014": 2.5654160433,
			"-0.013": 2.44592435601,
			"-0.012": 2.12284031072,
			"-0.011": 3.04155671502,
			"-0.01": 2.27394705213,
			"-0.009": 1.45195201737,
			"-0.008": 2.26314383239,
			"-0.007": 1.59302321317,
			"-0.006": 8.11735817924,
			"-0.005": 14.1477416533,
			"-0.004": 17.7227465604,
			"-0.003": 18.9438691402,
			"-0.002": 15.9155464122,
			"-0.001": 17.4389506426,
			"0.0": 18.3107786729,
			"0.001": 20.5708304345,
			"0.002": 18.5748620115,
			"0.003": 15.336351543,
			"0.004": 15.571546098,
			"0.005": 14.2106668734,
			"0.006": 7.85040314722,
			"0.007": 4.01475490063,
			"0.008": 4.19072053256,
			"0.009": 3.39188161504,
			"0.01": 3.13038924173,
			"0.011": 3.33666737721,
			"0.012": 3.12411930362,
			"0.013": 2.38451339622,
			"0.014": 0.565373467788,
			"0.015": 0.0,
			"0.016": 0.0,
			"0.017": 0.0,
			"0.018": 0.0,
			"0.019": 0.0,
			"0.02": 0.0,
			"0.021": 0.0,
			"0.022": 0.0,
			"0.023": 0.0,
			"0.024": 0.0,
			"0.025": 0.0
		}
	}
}
