{
	 "smiles": "CC1=C(SC(=N1)C1=CSC=C1)C(O)=O", 
	 "Tm": 509.15, 
	 "num_atms": 21, 
	 "gaussian": { 
		 "optdone": 1, 
		 "sigma_profile": "yes", 
		 "theory": "DFT", 
		 "functional": "B3LYP", 
		 "basiset": "6-31G**", 
		 "properties": { 
			 "R2extent": 4442.1374, 
			 "electric_dipole_moment_norm": 4.97086679262, 
			 "electric_quadrupole_moment_norm": 15.9085062762, 
			 "total_energy": -1348.74507663, 
			 "HOMO_LUMO_gap": 0.15464, 
			 "cosmo_polarized_energy": -14.22, 
			 "cosmo_cavitation_energy": 29.13, 
			 "cosmo_dispersion_energy": -22.59, 
			 "cosmo_repulsion_energy": 1.67, 
			 "cosmo_total_nonelectrostatic_energy": 8.21, 
			 "SMD_solvation_energy": 4.71 
		},
		"coords": [
			{
				"x": -2.1278079104,
				"y": 2.1943257489,
				"z": 1.0343175583,
				"element": "C" 
			},
			{
				"x": -1.0528692214,
				"y": 1.1531731993,
				"z": 0.9313907105,
				"element": "C" 
			},
			{
				"x": -0.0548433095,
				"y": 0.9155304869,
				"z": 1.8644034526,
				"element": "C" 
			},
			{
				"x": 0.9630795293,
				"y": -0.3963515009,
				"z": 1.3068214114,
				"element": "S" 
			},
			{
				"x": -0.0339620014,
				"y": -0.5212721897,
				"z": -0.136435188,
				"element": "C" 
			},
			{
				"x": -1.0197590765,
				"y": 0.3424931241,
				"z": -0.1703527207,
				"element": "N" 
			},
			{
				"x": 0.2349994406,
				"y": -1.5021048706,
				"z": -1.1786820794,
				"element": "C" 
			},
			{
				"x": -0.5460214819,
				"y": -1.6015436956,
				"z": -2.3104833465,
				"element": "C" 
			},
			{
				"x": 0.0070160382,
				"y": -2.8456202697,
				"z": -3.3637616963,
				"element": "S" 
			},
			{
				"x": 1.3079228045,
				"y": -3.252372243,
				"z": -2.286109416,
				"element": "C" 
			},
			{
				"x": 1.3047724094,
				"y": -2.4621562141,
				"z": -1.1751579048,
				"element": "C" 
			},
			{
				"x": 0.1333300942,
				"y": 1.6443837001,
				"z": 3.1316967868,
				"element": "C" 
			},
			{
				"x": 1.1725001093,
				"y": 1.2753529406,
				"z": 3.9301365344,
				"element": "O" 
			},
			{
				"x": -0.5938611614,
				"y": 2.5483755497,
				"z": 3.4822210382,
				"element": "O" 
			},
			{
				"x": -2.7310471327,
				"y": 2.0468081909,
				"z": 1.9342224678,
				"element": "H" 
			},
			{
				"x": -2.7637223184,
				"y": 2.1402343194,
				"z": 0.1495072585,
				"element": "H" 
			},
			{
				"x": -1.6964908501,
				"y": 3.1953359205,
				"z": 1.12050782,
				"element": "H" 
			},
			{
				"x": -1.4082948874,
				"y": -0.9983135509,
				"z": -2.554019962,
				"element": "H" 
			},
			{
				"x": 1.9939153045,
				"y": -4.0485131206,
				"z": -2.5386037679,
				"element": "H" 
			},
			{
				"x": 2.0353914544,
				"y": -2.5555726005,
				"z": -0.3795173343,
				"element": "H" 
			},
			{
				"x": 1.6827521667,
				"y": 0.5465070755,
				"z": 3.5499983774,
				"element": "H" 
			}
		],
		 "valence_orbital": [ 
			{
				"type": "occ",
				"energy": -0.28945,
				"method": "rhf"
			},
			{
				"type": "occ",
				"energy": -0.289,
				"method": "rhf"
			},
			{
				"type": "occ",
				"energy": -0.27621,
				"method": "rhf"
			},
			{
				"type": "occ",
				"energy": -0.26315,
				"method": "rhf"
			},
			{
				"type": "occ",
				"energy": -0.23276,
				"method": "rhf"
			},
			{
				"type": "unocc",
				"energy": -0.07812,
				"method": "rhf"
			},
			{
				"type": "unocc",
				"energy": -0.02977,
				"method": "rhf"
			},
			{
				"type": "unocc",
				"energy": -0.01944,
				"method": "rhf"
			},
			{
				"type": "unocc",
				"energy": 0.00493,
				"method": "rhf"
			},
			{
				"type": "unocc",
				"energy": 0.01848,
				"method": "rhf"
			}
		],
		"cosmo_sigma_profile": { 
			"-0.025": 0.0,
			"-0.024": 0.0,
			"-0.023": 0.0,
			"-0.022": 0.0,
			"-0.021": 0.0,
			"-0.02": 0.0,
			"-0.019": 0.019193834757,
			"-0.018": 0.657281888384,
			"-0.017": 0.60158569451,
			"-0.016": 0.875531238124,
			"-0.015": 0.860823419887,
			"-0.014": 0.971727437775,
			"-0.013": 1.01300072657,
			"-0.012": 1.36246757951,
			"-0.011": 0.908633879435,
			"-0.01": 0.748637801482,
			"-0.009": 4.25687944076,
			"-0.008": 6.53050191523,
			"-0.007": 5.57914708574,
			"-0.006": 7.51555609978,
			"-0.005": 9.14467347905,
			"-0.004": 12.1446642838,
			"-0.003": 13.9092815817,
			"-0.002": 16.753559976,
			"-0.001": 25.5324479536,
			"0.0": 24.8692331265,
			"0.001": 16.9708061333,
			"0.002": 23.8969837247,
			"0.003": 18.3251194311,
			"0.004": 8.19794211875,
			"0.005": 5.07122790321,
			"0.006": 3.41449005055,
			"0.007": 3.62485939566,
			"0.008": 3.86929401981,
			"0.009": 4.62893509251,
			"0.01": 5.53287726212,
			"0.011": 5.0995793013,
			"0.012": 3.8623792604,
			"0.013": 1.65261685087,
			"0.014": 0.0428494732491,
			"0.015": 0.0,
			"0.016": 0.0,
			"0.017": 0.0,
			"0.018": 0.0,
			"0.019": 0.0,
			"0.02": 0.0,
			"0.021": 0.0,
			"0.022": 0.0,
			"0.023": 0.0,
			"0.024": 0.0,
			"0.025": 0.0
		}
	}
}
