{
	 "smiles": "NCS(O)(=O)=O", 
	 "Tm": 455.15, 
	 "num_atms": 11, 
	 "gaussian": { 
		 "optdone": 1, 
		 "sigma_profile": "yes", 
		 "theory": "DFT", 
		 "functional": "B3LYP", 
		 "basiset": "6-31G**", 
		 "properties": { 
			 "R2extent": 985.4941, 
			 "electric_dipole_moment_norm": 2.93156048718, 
			 "electric_quadrupole_moment_norm": 7.57522642368, 
			 "total_energy": -719.659953694, 
			 "HOMO_LUMO_gap": 0.29126, 
			 "cosmo_polarized_energy": -15.79, 
			 "cosmo_cavitation_energy": 16.27, 
			 "cosmo_dispersion_energy": -13.0, 
			 "cosmo_repulsion_energy": 1.09, 
			 "cosmo_total_nonelectrostatic_energy": 4.36, 
			 "SMD_solvation_energy": 0.73 
		},
		"coords": [
			{
				"x": 1.1672032554,
				"y": -1.74563725,
				"z": -0.7418817828,
				"element": "N" 
			},
			{
				"x": 0.3064668769,
				"y": -2.1569363584,
				"z": 0.3150920628,
				"element": "C" 
			},
			{
				"x": -0.5288885249,
				"y": -0.7736671453,
				"z": 1.2146652533,
				"element": "S" 
			},
			{
				"x": 0.8097787465,
				"y": -0.0069511377,
				"z": 1.8201068454,
				"element": "O" 
			},
			{
				"x": -1.1376235469,
				"y": 0.1140874306,
				"z": 0.2287165921,
				"element": "O" 
			},
			{
				"x": -1.2846958021,
				"y": -1.276411469,
				"z": 2.3657711197,
				"element": "O" 
			},
			{
				"x": 1.9474991922,
				"y": -1.193778346,
				"z": -0.3992277226,
				"element": "H" 
			},
			{
				"x": 0.6673556755,
				"y": -1.2021510636,
				"z": -1.4391893617,
				"element": "H" 
			},
			{
				"x": 0.8403612404,
				"y": -2.7197024091,
				"z": 1.0840446649,
				"element": "H" 
			},
			{
				"x": -0.5266226064,
				"y": -2.7601838221,
				"z": -0.0571102609,
				"element": "H" 
			},
			{
				"x": 0.6752654934,
				"y": 0.0502315706,
				"z": 2.7810125898,
				"element": "H" 
			}
		],
		 "valence_orbital": [ 
			{
				"type": "occ",
				"energy": -0.354,
				"method": "rhf"
			},
			{
				"type": "occ",
				"energy": -0.34569,
				"method": "rhf"
			},
			{
				"type": "occ",
				"energy": -0.32676,
				"method": "rhf"
			},
			{
				"type": "occ",
				"energy": -0.30947,
				"method": "rhf"
			},
			{
				"type": "occ",
				"energy": -0.26622,
				"method": "rhf"
			},
			{
				"type": "unocc",
				"energy": 0.02504,
				"method": "rhf"
			},
			{
				"type": "unocc",
				"energy": 0.05805,
				"method": "rhf"
			},
			{
				"type": "unocc",
				"energy": 0.07126,
				"method": "rhf"
			},
			{
				"type": "unocc",
				"energy": 0.08842,
				"method": "rhf"
			},
			{
				"type": "unocc",
				"energy": 0.09703,
				"method": "rhf"
			}
		],
		"cosmo_sigma_profile": { 
			"-0.025": 0.0,
			"-0.024": 0.0,
			"-0.023": 0.0,
			"-0.022": 0.0,
			"-0.021": 0.0,
			"-0.02": 0.207970621084,
			"-0.019": 0.764877754977,
			"-0.018": 0.803596302575,
			"-0.017": 0.796521572244,
			"-0.016": 1.12489695409,
			"-0.015": 1.03949699187,
			"-0.014": 0.355235749163,
			"-0.013": 0.270045479381,
			"-0.012": 1.31978301964,
			"-0.011": 3.36227803375,
			"-0.01": 4.90277278116,
			"-0.009": 8.10106150853,
			"-0.008": 7.60715159983,
			"-0.007": 6.22586161819,
			"-0.006": 6.4022031635,
			"-0.005": 4.89497051393,
			"-0.004": 5.06652430588,
			"-0.003": 2.87454121064,
			"-0.002": 3.66740288385,
			"-0.001": 3.99955804666,
			"0.0": 3.77611301231,
			"0.001": 2.87701272916,
			"0.002": 2.65389004083,
			"0.003": 3.33218420052,
			"0.004": 3.30165983111,
			"0.005": 3.26110827018,
			"0.006": 4.63055595864,
			"0.007": 4.78358623973,
			"0.008": 4.18450030815,
			"0.009": 7.2837410097,
			"0.01": 11.6822104015,
			"0.011": 8.91651858278,
			"0.012": 1.00385521052,
			"0.013": 0.977452217314,
			"0.014": 0.66499484474,
			"0.015": 0.469661204332,
			"0.016": 0.254440341524,
			"0.017": 0.0,
			"0.018": 0.0,
			"0.019": 0.0,
			"0.02": 0.0,
			"0.021": 0.0,
			"0.022": 0.0,
			"0.023": 0.0,
			"0.024": 0.0,
			"0.025": 0.0
		}
	}
}
