{
	 "smiles": "CC1=CC(C)=C(N)C(I)=C1", 
	 "Tm": 338.15, 
	 "num_atms": 20, 
	 "gaussian": { 
		 "optdone": 1, 
		 "sigma_profile": "no", 
		 "theory": "DFT", 
		 "functional": "B3LYP", 
		 "basiset": "6-31G**", 
		 "properties": { 
			 "R2extent": 2683.7109, 
			 "electric_dipole_moment_norm": 2.24858065899, 
			 "electric_quadrupole_moment_norm": 10.8827470861, 
			 "total_energy": -377.0337431, 
			 "HOMO_LUMO_gap": 0.16881, 
			 "cosmo_polarized_energy": -90179.33, 
			 "cosmo_cavitation_energy": 25.67, 
			 "cosmo_dispersion_energy": -20.45, 
			 "cosmo_repulsion_energy": 1.62, 
			 "cosmo_total_nonelectrostatic_energy": 6.83, 
			 "SMD_solvation_energy": 3.45 
		},
		"coords": [
			{
				"x": 2.3014628113,
				"y": -1.2003904117,
				"z": -0.9480570132,
				"element": "C" 
			},
			{
				"x": 1.7677014653,
				"y": 0.1485307088,
				"z": -0.5253192848,
				"element": "C" 
			},
			{
				"x": 0.4198334356,
				"y": 0.3184701336,
				"z": -0.1789061025,
				"element": "C" 
			},
			{
				"x": -0.1060768899,
				"y": 1.543964727,
				"z": 0.2185686902,
				"element": "C" 
			},
			{
				"x": -1.5595376681,
				"y": 1.67706696,
				"z": 0.602653389,
				"element": "C" 
			},
			{
				"x": 0.7376821059,
				"y": 2.6853659276,
				"z": 0.2775103548,
				"element": "C" 
			},
			{
				"x": 0.2246975206,
				"y": 3.8967638678,
				"z": 0.7285234193,
				"element": "N" 
			},
			{
				"x": 2.0866626711,
				"y": 2.5084212094,
				"z": -0.0719737228,
				"element": "C" 
			},
			{
				"x": 3.4317889477,
				"y": 4.162612503,
				"z": -0.0239508536,
				"element": "I" 
			},
			{
				"x": 2.5963845899,
				"y": 1.2689338415,
				"z": -0.4625004943,
				"element": "C" 
			},
			{
				"x": 2.1766176483,
				"y": -1.9483571477,
				"z": -0.1561011035,
				"element": "H" 
			},
			{
				"x": 3.3669635991,
				"y": -1.1485540881,
				"z": -1.1886939701,
				"element": "H" 
			},
			{
				"x": 1.77929175,
				"y": -1.5800983443,
				"z": -1.8342186456,
				"element": "H" 
			},
			{
				"x": -0.2477868094,
				"y": -0.5400747582,
				"z": -0.2158823071,
				"element": "H" 
			},
			{
				"x": -2.0633507411,
				"y": 0.7083600801,
				"z": 0.5639090322,
				"element": "H" 
			},
			{
				"x": -2.10524361,
				"y": 2.3525653957,
				"z": -0.071905118,
				"element": "H" 
			},
			{
				"x": -1.6709180183,
				"y": 2.0769763566,
				"z": 1.618031325,
				"element": "H" 
			},
			{
				"x": 0.7867358604,
				"y": 4.7109567024,
				"z": 0.5188870143,
				"element": "H" 
			},
			{
				"x": -0.7577792842,
				"y": 4.046175228,
				"z": 0.5500432054,
				"element": "H" 
			},
			{
				"x": 3.6456706156,
				"y": 1.1798111084,
				"z": -0.7232178146,
				"element": "H" 
			}
		],
		 "valence_orbital": [ 
			{
				"type": "occ",
				"energy": -0.30543,
				"method": "rhf"
			},
			{
				"type": "occ",
				"energy": -0.28279,
				"method": "rhf"
			},
			{
				"type": "occ",
				"energy": -0.26708,
				"method": "rhf"
			},
			{
				"type": "occ",
				"energy": -0.23289,
				"method": "rhf"
			},
			{
				"type": "occ",
				"energy": -0.20105,
				"method": "rhf"
			},
			{
				"type": "unocc",
				"energy": -0.03224,
				"method": "rhf"
			},
			{
				"type": "unocc",
				"energy": -0.0036,
				"method": "rhf"
			},
			{
				"type": "unocc",
				"energy": 0.01222,
				"method": "rhf"
			},
			{
				"type": "unocc",
				"energy": 0.0391,
				"method": "rhf"
			},
			{
				"type": "unocc",
				"energy": 0.05394,
				"method": "rhf"
			}
		],
		"cosmo_sigma_profile": { 
			"0.0": 0.0,
			"0.0": 0.0,
			"0.0": 0.0,
			"0.0": 0.0,
			"0.0": 0.0,
			"0.0": 0.0,
			"0.0": 0.0,
			"0.0": 0.0,
			"0.0": 0.0,
			"0.0": 0.0,
			"0.0": 0.0,
			"0.0": 0.0,
			"0.0": 0.0,
			"0.0": 0.0,
			"0.0": 0.0,
			"0.0": 0.0,
			"0.0": 0.0,
			"0.0": 0.0,
			"0.0": 0.0,
			"0.0": 0.0,
			"0.0": 0.0,
			"0.0": 0.0,
			"0.0": 0.0,
			"0.0": 0.0,
			"0.0": 0.0,
			"0.0": 0.0,
			"0.0": 0.0,
			"0.0": 0.0,
			"0.0": 0.0,
			"0.0": 0.0,
			"0.0": 0.0,
			"0.0": 0.0,
			"0.0": 0.0,
			"0.0": 0.0,
			"0.0": 0.0,
			"0.0": 0.0,
			"0.0": 0.0,
			"0.0": 0.0,
			"0.0": 0.0,
			"0.0": 0.0,
			"0.0": 0.0,
			"0.0": 0.0,
			"0.0": 0.0,
			"0.0": 0.0,
			"0.0": 0.0,
			"0.0": 0.0,
			"0.0": 0.0,
			"0.0": 0.0,
			"0.0": 0.0,
			"0.0": 0.0,
			"0.0": 0.0
		}
	}
}
