{
	 "smiles": "CC1=C(C=CC(=C1)[N+]([O-])=NC1=CC=CC=C1)N=NC1=CC=CC=C1", 
	 "Tm": 376.15, 
	 "num_atms": 40, 
	 "gaussian": { 
		 "optdone": 1, 
		 "sigma_profile": "yes", 
		 "theory": "DFT", 
		 "functional": "B3LYP", 
		 "basiset": "6-31G**", 
		 "properties": { 
			 "R2extent": 7993.8175, 
			 "electric_dipole_moment_norm": 5.40610981021, 
			 "electric_quadrupole_moment_norm": 19.9561832283, 
			 "total_energy": -1027.73169846, 
			 "HOMO_LUMO_gap": 0.12995, 
			 "cosmo_polarized_energy": -17.62, 
			 "cosmo_cavitation_energy": 45.27, 
			 "cosmo_dispersion_energy": -29.25, 
			 "cosmo_repulsion_energy": 2.22, 
			 "cosmo_total_nonelectrostatic_energy": 18.24, 
			 "SMD_solvation_energy": 5.99 
		},
		"coords": [
			{
				"x": 1.8281984951,
				"y": 3.2047407002,
				"z": -1.9209540415,
				"element": "C" 
			},
			{
				"x": 1.3321914438,
				"y": 2.4217967744,
				"z": -0.7323478646,
				"element": "C" 
			},
			{
				"x": -0.0511924002,
				"y": 2.3227575885,
				"z": -0.4625413973,
				"element": "C" 
			},
			{
				"x": -0.5140516923,
				"y": 1.6345708466,
				"z": 0.6693730351,
				"element": "C" 
			},
			{
				"x": 0.3799229968,
				"y": 0.9952154282,
				"z": 1.5204025568,
				"element": "C" 
			},
			{
				"x": 1.7406567163,
				"y": 1.0579915947,
				"z": 1.2262957426,
				"element": "C" 
			},
			{
				"x": 2.2169522589,
				"y": 1.7748881556,
				"z": 0.1306293096,
				"element": "C" 
			},
			{
				"x": 2.7431838068,
				"y": 0.4841387748,
				"z": 2.1459688198,
				"element": "N" 
			},
			{
				"x": 3.6938371617,
				"y": 1.2535433041,
				"z": 2.4032032156,
				"element": "O" 
			},
			{
				"x": 2.6520590493,
				"y": -0.6613917312,
				"z": 2.7125885397,
				"element": "N" 
			},
			{
				"x": 1.7425972487,
				"y": -1.6268370987,
				"z": 2.2322191674,
				"element": "C" 
			},
			{
				"x": 1.6373096143,
				"y": -1.9935438924,
				"z": 0.8787106983,
				"element": "C" 
			},
			{
				"x": 0.8016198826,
				"y": -3.0435938971,
				"z": 0.5039807647,
				"element": "C" 
			},
			{
				"x": 0.0646459508,
				"y": -3.7428173616,
				"z": 1.462522847,
				"element": "C" 
			},
			{
				"x": 0.1852306332,
				"y": -3.3958301097,
				"z": 2.8105809305,
				"element": "C" 
			},
			{
				"x": 1.0283122514,
				"y": -2.3566482529,
				"z": 3.1968428708,
				"element": "C" 
			},
			{
				"x": -0.9255127977,
				"y": 3.1482808472,
				"z": -1.237317658,
				"element": "N" 
			},
			{
				"x": -2.0150344405,
				"y": 2.776970016,
				"z": -1.7215442047,
				"element": "N" 
			},
			{
				"x": -2.4473864086,
				"y": 1.4105174062,
				"z": -1.7610418483,
				"element": "C" 
			},
			{
				"x": -3.8120760726,
				"y": 1.1919870448,
				"z": -1.5263599556,
				"element": "C" 
			},
			{
				"x": -4.3405021316,
				"y": -0.0920153563,
				"z": -1.6373408025,
				"element": "C" 
			},
			{
				"x": -3.5249296419,
				"y": -1.1522523434,
				"z": -2.0415055062,
				"element": "C" 
			},
			{
				"x": -2.1763714371,
				"y": -0.922936253,
				"z": -2.3278239451,
				"element": "C" 
			},
			{
				"x": -1.6301684564,
				"y": 0.350350111,
				"z": -2.1812986316,
				"element": "C" 
			},
			{
				"x": 1.3000053539,
				"y": 4.1601367549,
				"z": -1.9961373607,
				"element": "H" 
			},
			{
				"x": 1.6455245632,
				"y": 2.6696329738,
				"z": -2.8607971889,
				"element": "H" 
			},
			{
				"x": 2.902095535,
				"y": 3.3918344153,
				"z": -1.8467510788,
				"element": "H" 
			},
			{
				"x": -1.5757426356,
				"y": 1.6168827179,
				"z": 0.8886589711,
				"element": "H" 
			},
			{
				"x": 0.0241463509,
				"y": 0.4672037098,
				"z": 2.3966213787,
				"element": "H" 
			},
			{
				"x": 3.2879888222,
				"y": 1.846409355,
				"z": -0.022623357,
				"element": "H" 
			},
			{
				"x": 2.225323878,
				"y": -1.4707861645,
				"z": 0.1316490742,
				"element": "H" 
			},
			{
				"x": 0.7345265411,
				"y": -3.3230770224,
				"z": -0.5437505485,
				"element": "H" 
			},
			{
				"x": -0.5838832991,
				"y": -4.5608004075,
				"z": 1.1638434198,
				"element": "H" 
			},
			{
				"x": -0.370808287,
				"y": -3.943445764,
				"z": 3.5660694939,
				"element": "H" 
			},
			{
				"x": 1.1494560899,
				"y": -2.0915956036,
				"z": 4.2423283793,
				"element": "H" 
			},
			{
				"x": -4.4360015937,
				"y": 2.0373531706,
				"z": -1.2535503812,
				"element": "H" 
			},
			{
				"x": -5.3928815334,
				"y": -0.2616463837,
				"z": -1.4301116125,
				"element": "H" 
			},
			{
				"x": -3.941585799,
				"y": -2.1490313146,
				"z": -2.1502573103,
				"element": "H" 
			},
			{
				"x": -1.5460340074,
				"y": -1.7402093865,
				"z": -2.6658659553,
				"element": "H" 
			},
			{
				"x": -0.5848220097,
				"y": 0.5273566535,
				"z": -2.4090685659,
				"element": "H" 
			}
		],
		 "valence_orbital": [ 
			{
				"type": "occ",
				"energy": -0.26684,
				"method": "rhf"
			},
			{
				"type": "occ",
				"energy": -0.2604,
				"method": "rhf"
			},
			{
				"type": "occ",
				"energy": -0.25734,
				"method": "rhf"
			},
			{
				"type": "occ",
				"energy": -0.22737,
				"method": "rhf"
			},
			{
				"type": "occ",
				"energy": -0.22063,
				"method": "rhf"
			},
			{
				"type": "unocc",
				"energy": -0.09068,
				"method": "rhf"
			},
			{
				"type": "unocc",
				"energy": -0.06395,
				"method": "rhf"
			},
			{
				"type": "unocc",
				"energy": -0.02764,
				"method": "rhf"
			},
			{
				"type": "unocc",
				"energy": -0.0209,
				"method": "rhf"
			},
			{
				"type": "unocc",
				"energy": -0.01302,
				"method": "rhf"
			}
		],
		"cosmo_sigma_profile": { 
			"-0.025": 0.0,
			"-0.024": 0.0,
			"-0.023": 0.0,
			"-0.022": 0.0,
			"-0.021": 0.0,
			"-0.02": 0.0,
			"-0.019": 0.0,
			"-0.018": 0.0,
			"-0.017": 0.0,
			"-0.016": 0.0,
			"-0.015": 0.0,
			"-0.014": 0.0,
			"-0.013": 0.0,
			"-0.012": 0.0,
			"-0.011": 0.0,
			"-0.01": 0.0,
			"-0.009": 0.044121519832,
			"-0.008": 1.43477630729,
			"-0.007": 10.5853886929,
			"-0.006": 30.4512815874,
			"-0.005": 32.1737912892,
			"-0.004": 31.5733673339,
			"-0.003": 26.9328897631,
			"-0.002": 25.153505778,
			"-0.001": 27.1478666288,
			"0.0": 23.8776521012,
			"0.001": 23.8050472142,
			"0.002": 25.4045392362,
			"0.003": 26.1441986029,
			"0.004": 25.24471975,
			"0.005": 11.379587938,
			"0.006": 4.00229680468,
			"0.007": 4.17430869524,
			"0.008": 4.76134367106,
			"0.009": 4.35536071052,
			"0.01": 8.62139454656,
			"0.011": 6.87913696951,
			"0.012": 4.5739924716,
			"0.013": 3.5783918964,
			"0.014": 0.695020330453,
			"0.015": 0.0,
			"0.016": 0.0,
			"0.017": 0.0,
			"0.018": 0.0,
			"0.019": 0.0,
			"0.02": 0.0,
			"0.021": 0.0,
			"0.022": 0.0,
			"0.023": 0.0,
			"0.024": 0.0,
			"0.025": 0.0
		}
	}
}
