{
	 "smiles": "CC(=O)NC1=CC(=CC=C1)N1N=NN=C1S", 
	 "Tm": 459.15, 
	 "num_atms": 25, 
	 "gaussian": { 
		 "optdone": 1, 
		 "sigma_profile": "yes", 
		 "theory": "DFT", 
		 "functional": "B3LYP", 
		 "basiset": "6-31G**", 
		 "properties": { 
			 "R2extent": 5376.299, 
			 "electric_dipole_moment_norm": 5.58727660672, 
			 "electric_quadrupole_moment_norm": 29.5762168132, 
			 "total_energy": -1095.49551312, 
			 "HOMO_LUMO_gap": 0.19433, 
			 "cosmo_polarized_energy": -23.16, 
			 "cosmo_cavitation_energy": 32.12, 
			 "cosmo_dispersion_energy": -23.28, 
			 "cosmo_repulsion_energy": 1.76, 
			 "cosmo_total_nonelectrostatic_energy": 10.6, 
			 "SMD_solvation_energy": 3.96 
		},
		"coords": [
			{
				"x": -0.7042942143,
				"y": 3.6153410441,
				"z": -0.7351545126,
				"element": "C" 
			},
			{
				"x": -1.2659571097,
				"y": 2.5757135317,
				"z": -1.6835693638,
				"element": "C" 
			},
			{
				"x": -2.0161873351,
				"y": 2.8690384263,
				"z": -2.599747338,
				"element": "O" 
			},
			{
				"x": -0.9355287305,
				"y": 1.2350576816,
				"z": -1.4951008585,
				"element": "N" 
			},
			{
				"x": -0.1373609322,
				"y": 0.5795337932,
				"z": -0.5410425986,
				"element": "C" 
			},
			{
				"x": -0.5497195819,
				"y": -0.6879425817,
				"z": -0.0968772821,
				"element": "C" 
			},
			{
				"x": 0.2321949035,
				"y": -1.392043379,
				"z": 0.8191007916,
				"element": "C" 
			},
			{
				"x": 1.4086925495,
				"y": -0.8490820966,
				"z": 1.3404814696,
				"element": "C" 
			},
			{
				"x": 1.8064318522,
				"y": 0.4111551891,
				"z": 0.9005816452,
				"element": "C" 
			},
			{
				"x": 1.0626945769,
				"y": 1.114431705,
				"z": -0.0469371454,
				"element": "C" 
			},
			{
				"x": -0.1927654721,
				"y": -2.6763462924,
				"z": 1.267977969,
				"element": "N" 
			},
			{
				"x": -0.2617049403,
				"y": -2.9648494895,
				"z": 2.6076086476,
				"element": "N" 
			},
			{
				"x": -0.6566734816,
				"y": -4.1851291788,
				"z": 2.6983013639,
				"element": "N" 
			},
			{
				"x": -0.8439861312,
				"y": -4.7466297739,
				"z": 1.4738612328,
				"element": "N" 
			},
			{
				"x": -0.550450271,
				"y": -3.8050816288,
				"z": 0.5966225304,
				"element": "C" 
			},
			{
				"x": -0.6250936145,
				"y": -4.0760920192,
				"z": -1.1389971285,
				"element": "S" 
			},
			{
				"x": 0.2794975637,
				"y": 3.9524569712,
				"z": -1.0788897086,
				"element": "H" 
			},
			{
				"x": -1.378389683,
				"y": 4.4718543312,
				"z": -0.7630352524,
				"element": "H" 
			},
			{
				"x": -0.6035392811,
				"y": 3.2507154315,
				"z": 0.2894809734,
				"element": "H" 
			},
			{
				"x": -1.4846444098,
				"y": 0.6439553717,
				"z": -2.1080090246,
				"element": "H" 
			},
			{
				"x": -1.494264567,
				"y": -1.1007179253,
				"z": -0.4364595293,
				"element": "H" 
			},
			{
				"x": 1.9858970578,
				"y": -1.4089771563,
				"z": 2.0664105841,
				"element": "H" 
			},
			{
				"x": 2.7269337846,
				"y": 0.8437137489,
				"z": 1.2796491889,
				"element": "H" 
			},
			{
				"x": 1.426139304,
				"y": 2.0655608079,
				"z": -0.4141411594,
				"element": "H" 
			},
			{
				"x": 0.0341781631,
				"y": -2.9498365118,
				"z": -1.478315495,
				"element": "H" 
			}
		],
		 "valence_orbital": [ 
			{
				"type": "occ",
				"energy": -0.29739,
				"method": "rhf"
			},
			{
				"type": "occ",
				"energy": -0.28173,
				"method": "rhf"
			},
			{
				"type": "occ",
				"energy": -0.27235,
				"method": "rhf"
			},
			{
				"type": "occ",
				"energy": -0.26528,
				"method": "rhf"
			},
			{
				"type": "occ",
				"energy": -0.25129,
				"method": "rhf"
			},
			{
				"type": "unocc",
				"energy": -0.05696,
				"method": "rhf"
			},
			{
				"type": "unocc",
				"energy": -0.04691,
				"method": "rhf"
			},
			{
				"type": "unocc",
				"energy": -0.01466,
				"method": "rhf"
			},
			{
				"type": "unocc",
				"energy": -0.00623,
				"method": "rhf"
			},
			{
				"type": "unocc",
				"energy": 0.01127,
				"method": "rhf"
			}
		],
		"cosmo_sigma_profile": { 
			"-0.025": 0.0,
			"-0.024": 0.0,
			"-0.023": 0.0,
			"-0.022": 0.0,
			"-0.021": 0.0,
			"-0.02": 0.0,
			"-0.019": 0.0,
			"-0.018": 0.0,
			"-0.017": 0.0,
			"-0.016": 0.0,
			"-0.015": 0.206803868005,
			"-0.014": 1.16512664617,
			"-0.013": 1.99350236042,
			"-0.012": 2.53723467773,
			"-0.011": 2.96967227448,
			"-0.01": 3.24127352824,
			"-0.009": 3.85118128426,
			"-0.008": 9.14730858404,
			"-0.007": 12.1988141995,
			"-0.006": 13.6766151526,
			"-0.005": 17.4216972091,
			"-0.004": 14.9144600822,
			"-0.003": 16.7376841269,
			"-0.002": 16.1080029318,
			"-0.001": 16.8786279118,
			"0.0": 16.1247406456,
			"0.001": 16.4297452708,
			"0.002": 17.1986297158,
			"0.003": 12.3202069551,
			"0.004": 7.64748420115,
			"0.005": 7.01092844722,
			"0.006": 4.09351815893,
			"0.007": 6.93008835764,
			"0.008": 6.06280754784,
			"0.009": 5.51176447318,
			"0.01": 6.07644242197,
			"0.011": 5.61392674881,
			"0.012": 5.37127736421,
			"0.013": 7.7284739194,
			"0.014": 3.14827230239,
			"0.015": 0.128579433642,
			"0.016": 0.0,
			"0.017": 0.0,
			"0.018": 0.0,
			"0.019": 0.0,
			"0.02": 0.0,
			"0.021": 0.0,
			"0.022": 0.0,
			"0.023": 0.0,
			"0.024": 0.0,
			"0.025": 0.0
		}
	}
}
