{
	 "smiles": "ClS(=O)(=O)C1=CC2=C(C=C1)N=CNS2(=O)=O", 
	 "Tm": 521.15, 
	 "num_atms": 21, 
	 "gaussian": { 
		 "optdone": 1, 
		 "sigma_profile": "yes", 
		 "theory": "DFT", 
		 "functional": "B3LYP", 
		 "basiset": "6-31G**", 
		 "properties": { 
			 "R2extent": 7576.3176, 
			 "electric_dipole_moment_norm": 6.71561250446, 
			 "electric_quadrupole_moment_norm": 20.4991315826, 
			 "total_energy": -1936.56439318, 
			 "HOMO_LUMO_gap": 0.16846, 
			 "cosmo_polarized_energy": -21.07, 
			 "cosmo_cavitation_energy": 30.99, 
			 "cosmo_dispersion_energy": -23.77, 
			 "cosmo_repulsion_energy": 1.75, 
			 "cosmo_total_nonelectrostatic_energy": 8.97, 
			 "SMD_solvation_energy": 2.09 
		},
		"coords": [
			{
				"x": -3.2218324156,
				"y": 2.4857485991,
				"z": -1.2172165149,
				"element": "Cl" 
			},
			{
				"x": -3.8241431736,
				"y": 0.9165103601,
				"z": 0.0903074222,
				"element": "S" 
			},
			{
				"x": -3.9456234416,
				"y": 1.5140607256,
				"z": 1.4134464377,
				"element": "O" 
			},
			{
				"x": -4.9278847723,
				"y": 0.232878165,
				"z": -0.5697372898,
				"element": "O" 
			},
			{
				"x": -2.3804202193,
				"y": -0.1346392241,
				"z": 0.0595464247,
				"element": "C" 
			},
			{
				"x": -2.3325416582,
				"y": -1.1780247152,
				"z": -0.857562082,
				"element": "C" 
			},
			{
				"x": -1.1991756132,
				"y": -1.9893156754,
				"z": -0.857389212,
				"element": "C" 
			},
			{
				"x": -0.1072219617,
				"y": -1.7667193288,
				"z": 0.0177086099,
				"element": "C" 
			},
			{
				"x": -0.21914919,
				"y": -0.7059610501,
				"z": 0.9400297095,
				"element": "C" 
			},
			{
				"x": -1.3415259419,
				"y": 0.1058719708,
				"z": 0.968735853,
				"element": "C" 
			},
			{
				"x": 1.0872709389,
				"y": -2.4759303224,
				"z": 0.0025620416,
				"element": "N" 
			},
			{
				"x": 1.3392468616,
				"y": -3.2759622089,
				"z": -0.9749931775,
				"element": "C" 
			},
			{
				"x": 0.5083376952,
				"y": -3.5611416464,
				"z": -2.0352363054,
				"element": "N" 
			},
			{
				"x": -1.2004154142,
				"y": -3.4254818525,
				"z": -1.8950565313,
				"element": "S" 
			},
			{
				"x": -1.6975193438,
				"y": -4.5787115756,
				"z": -1.1494936273,
				"element": "O" 
			},
			{
				"x": -1.7201704231,
				"y": -3.1368665911,
				"z": -3.2271562086,
				"element": "O" 
			},
			{
				"x": -3.1508077015,
				"y": -1.3560351604,
				"z": -1.547166844,
				"element": "H" 
			},
			{
				"x": 0.6104024011,
				"y": -0.5425900017,
				"z": 1.6188290739,
				"element": "H" 
			},
			{
				"x": -1.4246677671,
				"y": 0.9180054356,
				"z": 1.6822595036,
				"element": "H" 
			},
			{
				"x": 2.3155846316,
				"y": -3.7571403284,
				"z": -1.0218573653,
				"element": "H" 
			},
			{
				"x": 0.8157565088,
				"y": -4.2109555751,
				"z": -2.7516599179,
				"element": "H" 
			}
		],
		 "valence_orbital": [ 
			{
				"type": "occ",
				"energy": -0.32719,
				"method": "rhf"
			},
			{
				"type": "occ",
				"energy": -0.32115,
				"method": "rhf"
			},
			{
				"type": "occ",
				"energy": -0.31028,
				"method": "rhf"
			},
			{
				"type": "occ",
				"energy": -0.30588,
				"method": "rhf"
			},
			{
				"type": "occ",
				"energy": -0.27471,
				"method": "rhf"
			},
			{
				"type": "unocc",
				"energy": -0.10625,
				"method": "rhf"
			},
			{
				"type": "unocc",
				"energy": -0.07681,
				"method": "rhf"
			},
			{
				"type": "unocc",
				"energy": -0.0659,
				"method": "rhf"
			},
			{
				"type": "unocc",
				"energy": -0.01315,
				"method": "rhf"
			},
			{
				"type": "unocc",
				"energy": 0.01756,
				"method": "rhf"
			}
		],
		"cosmo_sigma_profile": { 
			"-0.025": 0.0,
			"-0.024": 0.0,
			"-0.023": 0.0,
			"-0.022": 0.0,
			"-0.021": 0.0,
			"-0.02": 0.0,
			"-0.019": 1.3110722027,
			"-0.018": 2.26268155442,
			"-0.017": 1.49700013089,
			"-0.016": 0.846619119767,
			"-0.015": 1.77517201693,
			"-0.014": 1.19219578479,
			"-0.013": 0.952890050222,
			"-0.012": 1.95854368628,
			"-0.011": 2.64544960427,
			"-0.01": 3.31011277178,
			"-0.009": 5.78755570493,
			"-0.008": 8.11639685918,
			"-0.007": 8.0526840026,
			"-0.006": 7.13676915376,
			"-0.005": 7.39458814626,
			"-0.004": 9.54377767498,
			"-0.003": 15.9677680827,
			"-0.002": 21.8411991144,
			"-0.001": 18.1301276654,
			"0.0": 16.5623711413,
			"0.001": 11.0588934216,
			"0.002": 13.8450951602,
			"0.003": 17.6528959224,
			"0.004": 8.91940365901,
			"0.005": 6.79490151041,
			"0.006": 6.88947066613,
			"0.007": 11.730275501,
			"0.008": 14.4774750316,
			"0.009": 15.0112660647,
			"0.01": 7.59109488557,
			"0.011": 1.23530694924,
			"0.012": 0.507767353941,
			"0.013": 0.727874188994,
			"0.014": 0.195225393606,
			"0.015": 0.0,
			"0.016": 0.0,
			"0.017": 0.0,
			"0.018": 0.0,
			"0.019": 0.0,
			"0.02": 0.0,
			"0.021": 0.0,
			"0.022": 0.0,
			"0.023": 0.0,
			"0.024": 0.0,
			"0.025": 0.0
		}
	}
}
