{
	 "smiles": "CC1=CN2CCNCC2=N1", 
	 "Tm": 374.15, 
	 "num_atms": 21, 
	 "gaussian": { 
		 "optdone": 1, 
		 "sigma_profile": "yes", 
		 "theory": "DFT", 
		 "functional": "B3LYP", 
		 "basiset": "6-31G**", 
		 "properties": { 
			 "R2extent": 1918.3175, 
			 "electric_dipole_moment_norm": 3.6829899131, 
			 "electric_quadrupole_moment_norm": 8.61468084319, 
			 "total_energy": -437.623636112, 
			 "HOMO_LUMO_gap": 0.24141, 
			 "cosmo_polarized_energy": -11.76, 
			 "cosmo_cavitation_energy": 23.04, 
			 "cosmo_dispersion_energy": -17.68, 
			 "cosmo_repulsion_energy": 1.44, 
			 "cosmo_total_nonelectrostatic_energy": 6.81, 
			 "SMD_solvation_energy": -0.4 
		},
		"coords": [
			{
				"x": 0.79053982,
				"y": -2.1266690713,
				"z": -3.3051482935,
				"element": "C" 
			},
			{
				"x": 0.3862942277,
				"y": -1.7385331793,
				"z": -1.9173404192,
				"element": "C" 
			},
			{
				"x": 1.1468456913,
				"y": -1.7399952129,
				"z": -0.7716243459,
				"element": "C" 
			},
			{
				"x": 0.3067931375,
				"y": -1.3084466782,
				"z": 0.240701266,
				"element": "N" 
			},
			{
				"x": 0.6266956839,
				"y": -1.0424872497,
				"z": 1.6383318052,
				"element": "C" 
			},
			{
				"x": -0.6778134579,
				"y": -0.9639549309,
				"z": 2.4343906407,
				"element": "C" 
			},
			{
				"x": -1.5831133839,
				"y": -0.0395583385,
				"z": 1.7546696101,
				"element": "N" 
			},
			{
				"x": -2.0700735222,
				"y": -0.5962375734,
				"z": 0.4866510229,
				"element": "C" 
			},
			{
				"x": -0.904040289,
				"y": -1.0520433124,
				"z": -0.3406927078,
				"element": "C" 
			},
			{
				"x": -0.8959872564,
				"y": -1.3077052468,
				"z": -1.6330920508,
				"element": "N" 
			},
			{
				"x": 0.6571541616,
				"y": -1.2913478186,
				"z": -4.0016840626,
				"element": "H" 
			},
			{
				"x": 1.8393899564,
				"y": -2.4355546118,
				"z": -3.3398175347,
				"element": "H" 
			},
			{
				"x": 0.177862436,
				"y": -2.9553234687,
				"z": -3.6777328649,
				"element": "H" 
			},
			{
				"x": 2.1785603413,
				"y": -1.9982001665,
				"z": -0.5849317167,
				"element": "H" 
			},
			{
				"x": 1.1686551505,
				"y": -0.0926888581,
				"z": 1.7188896695,
				"element": "H" 
			},
			{
				"x": 1.2675803426,
				"y": -1.8432454216,
				"z": 2.0223043855,
				"element": "H" 
			},
			{
				"x": -0.4603801709,
				"y": -0.5837978435,
				"z": 3.4372295189,
				"element": "H" 
			},
			{
				"x": -1.0961566947,
				"y": -1.9826440824,
				"z": 2.5447156672,
				"element": "H" 
			},
			{
				"x": -2.3717871239,
				"y": 0.1831139677,
				"z": 2.3537950204,
				"element": "H" 
			},
			{
				"x": -2.6219731547,
				"y": 0.1711294666,
				"z": -0.0647640435,
				"element": "H" 
			},
			{
				"x": -2.7599458951,
				"y": -1.4503103698,
				"z": 0.6317494333,
				"element": "H" 
			}
		],
		 "valence_orbital": [ 
			{
				"type": "occ",
				"energy": -0.35149,
				"method": "rhf"
			},
			{
				"type": "occ",
				"energy": -0.25458,
				"method": "rhf"
			},
			{
				"type": "occ",
				"energy": -0.2498,
				"method": "rhf"
			},
			{
				"type": "occ",
				"energy": -0.23257,
				"method": "rhf"
			},
			{
				"type": "occ",
				"energy": -0.20217,
				"method": "rhf"
			},
			{
				"type": "unocc",
				"energy": 0.03924,
				"method": "rhf"
			},
			{
				"type": "unocc",
				"energy": 0.07162,
				"method": "rhf"
			},
			{
				"type": "unocc",
				"energy": 0.07813,
				"method": "rhf"
			},
			{
				"type": "unocc",
				"energy": 0.10975,
				"method": "rhf"
			},
			{
				"type": "unocc",
				"energy": 0.12815,
				"method": "rhf"
			}
		],
		"cosmo_sigma_profile": { 
			"-0.025": 0.0,
			"-0.024": 0.0,
			"-0.023": 0.0,
			"-0.022": 0.0,
			"-0.021": 0.0,
			"-0.02": 0.0,
			"-0.019": 0.0,
			"-0.018": 0.0,
			"-0.017": 0.0,
			"-0.016": 0.0,
			"-0.015": 0.0,
			"-0.014": 0.0,
			"-0.013": 0.0,
			"-0.012": 0.00238209592251,
			"-0.011": 1.05563658846,
			"-0.01": 1.46831949856,
			"-0.009": 1.28063916212,
			"-0.008": 1.82839887844,
			"-0.007": 3.19881945245,
			"-0.006": 7.80930212307,
			"-0.005": 13.584409121,
			"-0.004": 19.7953772057,
			"-0.003": 26.8709059018,
			"-0.002": 16.9214040288,
			"-0.001": 12.1853107252,
			"0.0": 11.6456137577,
			"0.001": 10.2494680025,
			"0.002": 6.20563787079,
			"0.003": 5.74078332005,
			"0.004": 5.75512333791,
			"0.005": 6.00712572558,
			"0.006": 6.72839138138,
			"0.007": 3.22061002653,
			"0.008": 2.19103983327,
			"0.009": 2.62365799394,
			"0.01": 2.88821332697,
			"0.011": 0.93686269192,
			"0.012": 1.26687522992,
			"0.013": 1.87527915324,
			"0.014": 1.92223704124,
			"0.015": 1.44929935605,
			"0.016": 1.2865659882,
			"0.017": 1.10938962457,
			"0.018": 1.06759041333,
			"0.019": 0.549663735612,
			"0.02": 0.014938417583,
			"0.021": 0.0,
			"0.022": 0.0,
			"0.023": 0.0,
			"0.024": 0.0,
			"0.025": 0.0
		}
	}
}
