{
	 "smiles": "CCOC1=C2CC3=C(O)C(CC4=CC=CC(CC5=CC=CC(CC1=CC=C2)=C5O)=C4OP(=O)(OCC)OCC)=CC=C3", 
	 "Tm": 447.15, 
	 "num_atms": 79, 
	 "gaussian": { 
		 "optdone": 1, 
		 "sigma_profile": "yes", 
		 "theory": "DFT", 
		 "functional": "B3LYP", 
		 "basiset": "6-31G**", 
		 "properties": { 
			 "R2extent": 20652.2273, 
			 "electric_dipole_moment_norm": 1.74642665463, 
			 "electric_quadrupole_moment_norm": 23.4080047787, 
			 "total_energy": -2185.93621371, 
			 "HOMO_LUMO_gap": 0.19214, 
			 "cosmo_polarized_energy": -24.94, 
			 "cosmo_cavitation_energy": 77.12, 
			 "cosmo_dispersion_energy": -45.06, 
			 "cosmo_repulsion_energy": 3.31, 
			 "cosmo_total_nonelectrostatic_energy": 35.36, 
			 "SMD_solvation_energy": 13.27 
		},
		"coords": [
			{
				"x": -3.0891467065,
				"y": -3.6117270882,
				"z": 1.3420984053,
				"element": "C" 
			},
			{
				"x": -3.7385306128,
				"y": -2.2767442968,
				"z": 1.6608609368,
				"element": "C" 
			},
			{
				"x": -2.799415913,
				"y": -1.2430164341,
				"z": 1.3372936853,
				"element": "O" 
			},
			{
				"x": -3.2358388542,
				"y": 0.0368600965,
				"z": 1.6118931754,
				"element": "C" 
			},
			{
				"x": -3.0207934658,
				"y": 0.5942616958,
				"z": 2.8823967547,
				"element": "C" 
			},
			{
				"x": -2.2025506862,
				"y": -0.1356962859,
				"z": 3.9409861571,
				"element": "C" 
			},
			{
				"x": -0.9546431585,
				"y": 0.6395990739,
				"z": 4.3237655531,
				"element": "C" 
			},
			{
				"x": 0.1127293058,
				"y": 0.7310382272,
				"z": 3.4061108226,
				"element": "C" 
			},
			{
				"x": -0.0450929761,
				"y": 0.0260051091,
				"z": 2.2532707529,
				"element": "O" 
			},
			{
				"x": 1.2476470518,
				"y": 1.5158590634,
				"z": 3.6889850516,
				"element": "C" 
			},
			{
				"x": 2.3652360485,
				"y": 1.6850140054,
				"z": 2.6699464507,
				"element": "C" 
			},
			{
				"x": 1.924009852,
				"y": 2.4884058422,
				"z": 1.4503176938,
				"element": "C" 
			},
			{
				"x": 1.6929205361,
				"y": 3.8647246596,
				"z": 1.5729490289,
				"element": "C" 
			},
			{
				"x": 1.2022111535,
				"y": 4.6068243358,
				"z": 0.5035081756,
				"element": "C" 
			},
			{
				"x": 0.8965772476,
				"y": 3.9737159592,
				"z": -0.7004121501,
				"element": "C" 
			},
			{
				"x": 1.1044711706,
				"y": 2.6015986805,
				"z": -0.8770353461,
				"element": "C" 
			},
			{
				"x": 0.7283005519,
				"y": 1.9356277101,
				"z": -2.193478607,
				"element": "C" 
			},
			{
				"x": -0.2976583663,
				"y": 0.8155480272,
				"z": -2.1165161075,
				"element": "C" 
			},
			{
				"x": -0.0042228025,
				"y": -0.45433431,
				"z": -2.6191069732,
				"element": "C" 
			},
			{
				"x": -0.9392711601,
				"y": -1.4866722046,
				"z": -2.5611832889,
				"element": "C" 
			},
			{
				"x": -2.181227866,
				"y": -1.2523648483,
				"z": -1.9766446386,
				"element": "C" 
			},
			{
				"x": -2.5217975569,
				"y": 0.0053018608,
				"z": -1.4695155181,
				"element": "C" 
			},
			{
				"x": -3.8912420803,
				"y": 0.2411030956,
				"z": -0.8462715489,
				"element": "C" 
			},
			{
				"x": -3.8448410222,
				"y": 0.7778874458,
				"z": 0.5782976125,
				"element": "C" 
			},
			{
				"x": -4.3356246611,
				"y": 2.0562139125,
				"z": 0.8765398562,
				"element": "C" 
			},
			{
				"x": -4.1915128029,
				"y": 2.6000812969,
				"z": 2.1558996107,
				"element": "C" 
			},
			{
				"x": -3.5157263199,
				"y": 1.8813161198,
				"z": 3.136294986,
				"element": "C" 
			},
			{
				"x": -1.5726750747,
				"y": 1.0414503327,
				"z": -1.5670561531,
				"element": "C" 
			},
			{
				"x": -1.8499548272,
				"y": 2.3233793064,
				"z": -1.1700268947,
				"element": "O" 
			},
			{
				"x": 1.6609533387,
				"y": 1.9004867507,
				"z": 0.2047050319,
				"element": "C" 
			},
			{
				"x": 1.8619740146,
				"y": 0.5065403416,
				"z": 0.0635645431,
				"element": "O" 
			},
			{
				"x": 3.3262347092,
				"y": -0.0937076723,
				"z": -0.3209663975,
				"element": "P" 
			},
			{
				"x": 4.3387794701,
				"y": -0.1130898529,
				"z": 0.7609881706,
				"element": "O" 
			},
			{
				"x": 3.7831177848,
				"y": 0.6992640699,
				"z": -1.6456922783,
				"element": "O" 
			},
			{
				"x": 4.8123526655,
				"y": 1.728353988,
				"z": -1.5893060747,
				"element": "C" 
			},
			{
				"x": 5.5786308222,
				"y": 1.7046403151,
				"z": -2.8979313691,
				"element": "C" 
			},
			{
				"x": 2.8188291679,
				"y": -1.5033137491,
				"z": -0.8726751512,
				"element": "O" 
			},
			{
				"x": 3.7753994159,
				"y": -2.5865621553,
				"z": -1.0268411259,
				"element": "C" 
			},
			{
				"x": 2.9906725737,
				"y": -3.8668021974,
				"z": -1.2352841699,
				"element": "C" 
			},
			{
				"x": 1.3121899807,
				"y": 2.1642704177,
				"z": 4.9289202903,
				"element": "C" 
			},
			{
				"x": 0.2853355618,
				"y": 2.0553741312,
				"z": 5.8636923883,
				"element": "C" 
			},
			{
				"x": -0.8458002499,
				"y": 1.3006115936,
				"z": 5.5484073646,
				"element": "C" 
			},
			{
				"x": -3.7797193625,
				"y": -4.4320482853,
				"z": 1.5624185745,
				"element": "H" 
			},
			{
				"x": -2.1820222972,
				"y": -3.7488204346,
				"z": 1.9374852649,
				"element": "H" 
			},
			{
				"x": -2.8115549759,
				"y": -3.6603135307,
				"z": 0.2855463659,
				"element": "H" 
			},
			{
				"x": -4.0096645676,
				"y": -2.2164766109,
				"z": 2.7247918369,
				"element": "H" 
			},
			{
				"x": -4.6632103501,
				"y": -2.1391534434,
				"z": 1.080555215,
				"element": "H" 
			},
			{
				"x": -2.8121268788,
				"y": -0.2896831299,
				"z": 4.8392594048,
				"element": "H" 
			},
			{
				"x": -1.9221286265,
				"y": -1.1162974656,
				"z": 3.5514106017,
				"element": "H" 
			},
			{
				"x": 0.7233773801,
				"y": 0.0768106308,
				"z": 1.6653771413,
				"element": "H" 
			},
			{
				"x": 2.7784858563,
				"y": 0.7213220694,
				"z": 2.3645117804,
				"element": "H" 
			},
			{
				"x": 3.1922581424,
				"y": 2.2137118029,
				"z": 3.1540801455,
				"element": "H" 
			},
			{
				"x": 1.8867290488,
				"y": 4.3440383807,
				"z": 2.5285544719,
				"element": "H" 
			},
			{
				"x": 1.0310220574,
				"y": 5.6736653703,
				"z": 0.6142459272,
				"element": "H" 
			},
			{
				"x": 0.4633168435,
				"y": 4.542438391,
				"z": -1.517835326,
				"element": "H" 
			},
			{
				"x": 1.6303734454,
				"y": 1.5324136761,
				"z": -2.6642049819,
				"element": "H" 
			},
			{
				"x": 0.3526637942,
				"y": 2.7251872517,
				"z": -2.8546871992,
				"element": "H" 
			},
			{
				"x": 0.9796320196,
				"y": -0.6365501094,
				"z": -3.0417783297,
				"element": "H" 
			},
			{
				"x": -0.6955482997,
				"y": -2.4695059875,
				"z": -2.9535058204,
				"element": "H" 
			},
			{
				"x": -2.9102387588,
				"y": -2.0562437256,
				"z": -1.9107073579,
				"element": "H" 
			},
			{
				"x": -4.4594841475,
				"y": 0.9546665968,
				"z": -1.4575035194,
				"element": "H" 
			},
			{
				"x": -4.4460949292,
				"y": -0.7022391636,
				"z": -0.8801980843,
				"element": "H" 
			},
			{
				"x": -4.8346642458,
				"y": 2.6267931904,
				"z": 0.0958464708,
				"element": "H" 
			},
			{
				"x": -4.5809843265,
				"y": 3.5902001591,
				"z": 2.3736296928,
				"element": "H" 
			},
			{
				"x": -3.3455213513,
				"y": 2.3254410721,
				"z": 4.1132596744,
				"element": "H" 
			},
			{
				"x": -2.4879055023,
				"y": 2.312780493,
				"z": -0.439453764,
				"element": "H" 
			},
			{
				"x": 4.3092422363,
				"y": 2.6885186469,
				"z": -1.4370601423,
				"element": "H" 
			},
			{
				"x": 5.4619618309,
				"y": 1.530352365,
				"z": -0.7329715992,
				"element": "H" 
			},
			{
				"x": 6.3362598781,
				"y": 2.49505076,
				"z": -2.8956982367,
				"element": "H" 
			},
			{
				"x": 6.0826179437,
				"y": 0.7439370023,
				"z": -3.037289713,
				"element": "H" 
			},
			{
				"x": 4.9097450513,
				"y": 1.8720844475,
				"z": -3.7469201507,
				"element": "H" 
			},
			{
				"x": 4.4127608701,
				"y": -2.3633914145,
				"z": -1.8901866536,
				"element": "H" 
			},
			{
				"x": 4.4024047993,
				"y": -2.6348081029,
				"z": -0.1316508441,
				"element": "H" 
			},
			{
				"x": 2.3541667336,
				"y": -3.7927377135,
				"z": -2.1212114744,
				"element": "H" 
			},
			{
				"x": 2.3561531019,
				"y": -4.075253993,
				"z": -0.3698321462,
				"element": "H" 
			},
			{
				"x": 3.6811731431,
				"y": -4.7051824578,
				"z": -1.3720990065,
				"element": "H" 
			},
			{
				"x": 2.192215043,
				"y": 2.7603152497,
				"z": 5.159171524,
				"element": "H" 
			},
			{
				"x": 0.3615465123,
				"y": 2.5572810346,
				"z": 6.8234386241,
				"element": "H" 
			},
			{
				"x": -1.6601423714,
				"y": 1.2174706085,
				"z": 6.2645629281,
				"element": "H" 
			}
		],
		 "valence_orbital": [ 
			{
				"type": "occ",
				"energy": -0.22949,
				"method": "rhf"
			},
			{
				"type": "occ",
				"energy": -0.22581,
				"method": "rhf"
			},
			{
				"type": "occ",
				"energy": -0.2203,
				"method": "rhf"
			},
			{
				"type": "occ",
				"energy": -0.20226,
				"method": "rhf"
			},
			{
				"type": "occ",
				"energy": -0.20012,
				"method": "rhf"
			},
			{
				"type": "unocc",
				"energy": -0.00798,
				"method": "rhf"
			},
			{
				"type": "unocc",
				"energy": -0.00222,
				"method": "rhf"
			},
			{
				"type": "unocc",
				"energy": -0.00184,
				"method": "rhf"
			},
			{
				"type": "unocc",
				"energy": 0.00128,
				"method": "rhf"
			},
			{
				"type": "unocc",
				"energy": 0.01882,
				"method": "rhf"
			}
		],
		"cosmo_sigma_profile": { 
			"-0.025": 0.0,
			"-0.024": 0.0,
			"-0.023": 0.0,
			"-0.022": 0.0,
			"-0.021": 0.0,
			"-0.02": 0.0,
			"-0.019": 0.0,
			"-0.018": 0.0,
			"-0.017": 0.0,
			"-0.016": 0.0,
			"-0.015": 0.0,
			"-0.014": 0.0,
			"-0.013": 0.0,
			"-0.012": 0.0,
			"-0.011": 0.148837415761,
			"-0.01": 0.52194077043,
			"-0.009": 0.559916382054,
			"-0.008": 0.968854463267,
			"-0.007": 1.79298705772,
			"-0.006": 15.0781871937,
			"-0.005": 48.4904348056,
			"-0.004": 68.6081012963,
			"-0.003": 71.0781443864,
			"-0.002": 62.5406715025,
			"-0.001": 59.5226572333,
			"0.0": 50.7881854961,
			"0.001": 35.0038758684,
			"0.002": 27.810878296,
			"0.003": 31.4292316565,
			"0.004": 34.8970930268,
			"0.005": 29.939398892,
			"0.006": 19.9583918585,
			"0.007": 12.0352945963,
			"0.008": 9.78403227406,
			"0.009": 6.39098675506,
			"0.01": 4.62943148936,
			"0.011": 3.82900206312,
			"0.012": 3.71860756411,
			"0.013": 4.61692065173,
			"0.014": 2.12734481131,
			"0.015": 0.101502845515,
			"0.016": 0.0,
			"0.017": 0.0,
			"0.018": 0.0,
			"0.019": 0.0,
			"0.02": 0.0,
			"0.021": 0.0,
			"0.022": 0.0,
			"0.023": 0.0,
			"0.024": 0.0,
			"0.025": 0.0
		}
	}
}
