{
	 "smiles": "BrC1=C(SCC2=CC=CC=C2)C=NN(C1=O)C1=CC=CC=C1", 
	 "Tm": 411.15, 
	 "num_atms": 35, 
	 "gaussian": { 
		 "optdone": 1, 
		 "sigma_profile": "yes", 
		 "theory": "DFT", 
		 "functional": "B3LYP", 
		 "basiset": "6-31G**", 
		 "properties": { 
			 "R2extent": 9675.869, 
			 "electric_dipole_moment_norm": 2.780906221, 
			 "electric_quadrupole_moment_norm": 10.4234811033, 
			 "total_energy": -3809.92788764, 
			 "HOMO_LUMO_gap": 0.14774, 
			 "cosmo_polarized_energy": -12.76, 
			 "cosmo_cavitation_energy": 43.09, 
			 "cosmo_dispersion_energy": -30.19, 
			 "cosmo_repulsion_energy": 2.27, 
			 "cosmo_total_nonelectrostatic_energy": 15.17, 
			 "SMD_solvation_energy": 5.9 
		},
		"coords": [
			{
				"x": 3.4110758974,
				"y": -0.9825335946,
				"z": -1.0302378075,
				"element": "Br" 
			},
			{
				"x": 1.9750421953,
				"y": 0.1906419285,
				"z": -0.6720226962,
				"element": "C" 
			},
			{
				"x": 1.6414162343,
				"y": 0.6227990483,
				"z": 0.5828094264,
				"element": "C" 
			},
			{
				"x": 2.456410593,
				"y": 0.2177889876,
				"z": 2.113903052,
				"element": "S" 
			},
			{
				"x": 2.248200022,
				"y": -1.6301167942,
				"z": 2.255555381,
				"element": "C" 
			},
			{
				"x": 0.8224317033,
				"y": -2.1080845709,
				"z": 2.2251239066,
				"element": "C" 
			},
			{
				"x": -0.0112770219,
				"y": -1.9644876993,
				"z": 3.3438881296,
				"element": "C" 
			},
			{
				"x": -1.3296498217,
				"y": -2.4140172123,
				"z": 3.3083837441,
				"element": "C" 
			},
			{
				"x": -1.8361328967,
				"y": -3.0118975725,
				"z": 2.1507148509,
				"element": "C" 
			},
			{
				"x": -1.0155200106,
				"y": -3.1583664287,
				"z": 1.0322321971,
				"element": "C" 
			},
			{
				"x": 0.3061008576,
				"y": -2.7086575992,
				"z": 1.0693754859,
				"element": "C" 
			},
			{
				"x": 0.5514505199,
				"y": 1.5535928503,
				"z": 0.6661619449,
				"element": "C" 
			},
			{
				"x": -0.1208084621,
				"y": 1.9979326999,
				"z": -0.3548384143,
				"element": "N" 
			},
			{
				"x": 0.2047065166,
				"y": 1.5541122047,
				"z": -1.5860239028,
				"element": "N" 
			},
			{
				"x": 1.2388554143,
				"y": 0.6234520403,
				"z": -1.8681799399,
				"element": "C" 
			},
			{
				"x": 1.4796765371,
				"y": 0.2429256603,
				"z": -3.0039261041,
				"element": "O" 
			},
			{
				"x": -0.6467145698,
				"y": 2.053004807,
				"z": -2.6385853088,
				"element": "C" 
			},
			{
				"x": -0.1286003119,
				"y": 2.3884294135,
				"z": -3.8937206257,
				"element": "C" 
			},
			{
				"x": -0.9853805609,
				"y": 2.8979625663,
				"z": -4.8692500145,
				"element": "C" 
			},
			{
				"x": -2.3440945129,
				"y": 3.0736933804,
				"z": -4.6041606594,
				"element": "C" 
			},
			{
				"x": -2.8505132829,
				"y": 2.7378331433,
				"z": -3.347178773,
				"element": "C" 
			},
			{
				"x": -2.0072160367,
				"y": 2.226870468,
				"z": -2.3631589135,
				"element": "C" 
			},
			{
				"x": 2.8506472312,
				"y": -2.1038979594,
				"z": 1.480398729,
				"element": "H" 
			},
			{
				"x": 2.7188976796,
				"y": -1.8254487601,
				"z": 3.2239535094,
				"element": "H" 
			},
			{
				"x": 0.3776511476,
				"y": -1.4957665564,
				"z": 4.2444591991,
				"element": "H" 
			},
			{
				"x": -1.9623064837,
				"y": -2.3014203427,
				"z": 4.1842292476,
				"element": "H" 
			},
			{
				"x": -2.8635095471,
				"y": -3.3633108195,
				"z": 2.1237817969,
				"element": "H" 
			},
			{
				"x": -1.4006018924,
				"y": -3.6242455975,
				"z": 0.1297617882,
				"element": "H" 
			},
			{
				"x": 0.944531643,
				"y": -2.8291527791,
				"z": 0.1982112943,
				"element": "H" 
			},
			{
				"x": 0.2447611541,
				"y": 1.9336882127,
				"z": 1.6348890476,
				"element": "H" 
			},
			{
				"x": 0.9210057087,
				"y": 2.2430106731,
				"z": -4.1063196018,
				"element": "H" 
			},
			{
				"x": -0.5815912652,
				"y": 3.1594778722,
				"z": -5.842726812,
				"element": "H" 
			},
			{
				"x": -3.0037404256,
				"y": 3.4683476113,
				"z": -5.3712196285,
				"element": "H" 
			},
			{
				"x": -3.9062760342,
				"y": 2.8690105196,
				"z": -3.1294517464,
				"element": "H" 
			},
			{
				"x": -2.3879279188,
				"y": 1.9706301991,
				"z": -1.381831782,
				"element": "H" 
			}
		],
		 "valence_orbital": [ 
			{
				"type": "occ",
				"energy": -0.25882,
				"method": "rhf"
			},
			{
				"type": "occ",
				"energy": -0.25482,
				"method": "rhf"
			},
			{
				"type": "occ",
				"energy": -0.25281,
				"method": "rhf"
			},
			{
				"type": "occ",
				"energy": -0.23931,
				"method": "rhf"
			},
			{
				"type": "occ",
				"energy": -0.23037,
				"method": "rhf"
			},
			{
				"type": "unocc",
				"energy": -0.08263,
				"method": "rhf"
			},
			{
				"type": "unocc",
				"energy": -0.02113,
				"method": "rhf"
			},
			{
				"type": "unocc",
				"energy": -0.01759,
				"method": "rhf"
			},
			{
				"type": "unocc",
				"energy": -0.00971,
				"method": "rhf"
			},
			{
				"type": "unocc",
				"energy": -0.00511,
				"method": "rhf"
			}
		],
		"cosmo_sigma_profile": { 
			"-0.025": 0.0,
			"-0.024": 0.0,
			"-0.023": 0.0,
			"-0.022": 0.0,
			"-0.021": 0.0,
			"-0.02": 0.0,
			"-0.019": 0.0,
			"-0.018": 0.0,
			"-0.017": 0.0,
			"-0.016": 0.0,
			"-0.015": 0.0,
			"-0.014": 0.0,
			"-0.013": 0.0,
			"-0.012": 0.0,
			"-0.011": 0.0,
			"-0.01": 0.0374273469035,
			"-0.009": 0.681399949576,
			"-0.008": 3.24133487938,
			"-0.007": 5.49617360191,
			"-0.006": 18.1090182606,
			"-0.005": 28.2023705392,
			"-0.004": 36.3559898589,
			"-0.003": 31.1652767999,
			"-0.002": 27.3213788256,
			"-0.001": 22.8181854678,
			"0.0": 23.0520176294,
			"0.001": 24.122438591,
			"0.002": 22.5479334799,
			"0.003": 27.5202181934,
			"0.004": 28.6690048387,
			"0.005": 18.8767881751,
			"0.006": 11.1341792377,
			"0.007": 4.60743290357,
			"0.008": 3.03927185203,
			"0.009": 2.89454132122,
			"0.01": 2.60518809029,
			"0.011": 2.73009927353,
			"0.012": 3.97823649198,
			"0.013": 2.17879768147,
			"0.014": 0.00242854981023,
			"0.015": 0.0,
			"0.016": 0.0,
			"0.017": 0.0,
			"0.018": 0.0,
			"0.019": 0.0,
			"0.02": 0.0,
			"0.021": 0.0,
			"0.022": 0.0,
			"0.023": 0.0,
			"0.024": 0.0,
			"0.025": 0.0
		}
	}
}
