{
	 "smiles": "CC1=NC(=O)C2=C(N1)N(N=C2)C1=CC=C(C=C1)[N+]([O-])=O", 
	 "Tm": 615.15, 
	 "num_atms": 29, 
	 "gaussian": { 
		 "optdone": 1, 
		 "sigma_profile": "yes", 
		 "theory": "DFT", 
		 "functional": "B3LYP", 
		 "basiset": "6-31G**", 
		 "properties": { 
			 "R2extent": 7446.4519, 
			 "electric_dipole_moment_norm": 3.70628917113, 
			 "electric_quadrupole_moment_norm": 44.849408808, 
			 "total_energy": -962.015028165, 
			 "HOMO_LUMO_gap": 0.14125, 
			 "cosmo_polarized_energy": -30.65, 
			 "cosmo_cavitation_energy": 35.24, 
			 "cosmo_dispersion_energy": -25.63, 
			 "cosmo_repulsion_energy": 1.93, 
			 "cosmo_total_nonelectrostatic_energy": 11.54, 
			 "SMD_solvation_energy": 6.89 
		},
		"coords": [
			{
				"x": 1.1457554394,
				"y": -2.0184325611,
				"z": -3.2400711417,
				"element": "C" 
			},
			{
				"x": 1.670154094,
				"y": -0.8552400287,
				"z": -2.4415138402,
				"element": "C" 
			},
			{
				"x": 2.6454280294,
				"y": -0.1367995241,
				"z": -2.8823266759,
				"element": "N" 
			},
			{
				"x": 3.1802552673,
				"y": 0.9553279835,
				"z": -2.1361103053,
				"element": "C" 
			},
			{
				"x": 4.1096622255,
				"y": 1.6150459397,
				"z": -2.5674921615,
				"element": "O" 
			},
			{
				"x": 2.5303138854,
				"y": 1.1851636143,
				"z": -0.8471375143,
				"element": "C" 
			},
			{
				"x": 1.4702445578,
				"y": 0.3918506543,
				"z": -0.4484015739,
				"element": "C" 
			},
			{
				"x": 1.0095952779,
				"y": -0.6354453957,
				"z": -1.2295860998,
				"element": "N" 
			},
			{
				"x": 1.0699625857,
				"y": 0.8047116151,
				"z": 0.7909105225,
				"element": "N" 
			},
			{
				"x": 1.8726767317,
				"y": 1.846951917,
				"z": 1.2287753347,
				"element": "N" 
			},
			{
				"x": 2.7270018645,
				"y": 2.0700079311,
				"z": 0.2478750436,
				"element": "C" 
			},
			{
				"x": 0.048637019,
				"y": 0.3059309493,
				"z": 1.6257185144,
				"element": "C" 
			},
			{
				"x": -1.135192092,
				"y": -0.2088681179,
				"z": 1.0747936873,
				"element": "C" 
			},
			{
				"x": -2.1225164027,
				"y": -0.7215440285,
				"z": 1.9102877713,
				"element": "C" 
			},
			{
				"x": -1.9223308997,
				"y": -0.6907618314,
				"z": 3.287719775,
				"element": "C" 
			},
			{
				"x": -0.7659609992,
				"y": -0.1503607093,
				"z": 3.8513548242,
				"element": "C" 
			},
			{
				"x": 0.2259313014,
				"y": 0.3469608088,
				"z": 3.0166704,
				"element": "C" 
			},
			{
				"x": -2.9652678136,
				"y": -1.2317301752,
				"z": 4.1706090731,
				"element": "N" 
			},
			{
				"x": -3.9661866763,
				"y": -1.7124689147,
				"z": 3.6396343295,
				"element": "O" 
			},
			{
				"x": -2.7706106695,
				"y": -1.1717692443,
				"z": 5.383521776,
				"element": "O" 
			},
			{
				"x": 1.2312439723,
				"y": -2.9545844282,
				"z": -2.6758339978,
				"element": "H" 
			},
			{
				"x": 1.7273220474,
				"y": -2.1018092384,
				"z": -4.1566584843,
				"element": "H" 
			},
			{
				"x": 0.089728061,
				"y": -1.8753939554,
				"z": -3.4962086633,
				"element": "H" 
			},
			{
				"x": 0.326830587,
				"y": -1.2974706624,
				"z": -0.891083173,
				"element": "H" 
			},
			{
				"x": 3.4635845902,
				"y": 2.8562531197,
				"z": 0.3387800054,
				"element": "H" 
			},
			{
				"x": -1.312202221,
				"y": -0.1582288195,
				"z": 0.0058628039,
				"element": "H" 
			},
			{
				"x": -3.0483414006,
				"y": -1.120569653,
				"z": 1.5155167032,
				"element": "H" 
			},
			{
				"x": -0.6560332114,
				"y": -0.1375897112,
				"z": 4.9284619295,
				"element": "H" 
			},
			{
				"x": 1.1371148492,
				"y": 0.7726624662,
				"z": 3.4177311376,
				"element": "H" 
			}
		],
		 "valence_orbital": [ 
			{
				"type": "occ",
				"energy": -0.30256,
				"method": "rhf"
			},
			{
				"type": "occ",
				"energy": -0.28597,
				"method": "rhf"
			},
			{
				"type": "occ",
				"energy": -0.2673,
				"method": "rhf"
			},
			{
				"type": "occ",
				"energy": -0.24843,
				"method": "rhf"
			},
			{
				"type": "occ",
				"energy": -0.24747,
				"method": "rhf"
			},
			{
				"type": "unocc",
				"energy": -0.10622,
				"method": "rhf"
			},
			{
				"type": "unocc",
				"energy": -0.05397,
				"method": "rhf"
			},
			{
				"type": "unocc",
				"energy": -0.04799,
				"method": "rhf"
			},
			{
				"type": "unocc",
				"energy": -0.03287,
				"method": "rhf"
			},
			{
				"type": "unocc",
				"energy": 0.00242,
				"method": "rhf"
			}
		],
		"cosmo_sigma_profile": { 
			"-0.025": 0.0,
			"-0.024": 0.0,
			"-0.023": 0.0,
			"-0.022": 0.0,
			"-0.021": 0.0,
			"-0.02": 0.0,
			"-0.019": 0.0,
			"-0.018": 0.00669382459483,
			"-0.017": 0.73905967965,
			"-0.016": 1.28238771925,
			"-0.015": 1.30800028185,
			"-0.014": 2.35980686653,
			"-0.013": 1.7980876276,
			"-0.012": 1.28422492265,
			"-0.011": 1.9915232556,
			"-0.01": 2.85105374422,
			"-0.009": 5.44868945963,
			"-0.008": 9.07684344164,
			"-0.007": 12.9585015942,
			"-0.006": 14.0952017065,
			"-0.005": 14.3980529758,
			"-0.004": 19.2710150607,
			"-0.003": 19.7737619511,
			"-0.002": 22.9979882606,
			"-0.001": 21.4498661097,
			"0.0": 22.1163370814,
			"0.001": 16.357218841,
			"0.002": 7.77015933186,
			"0.003": 5.80335874889,
			"0.004": 7.1457443407,
			"0.005": 6.87047584936,
			"0.006": 7.93810167454,
			"0.007": 11.539931381,
			"0.008": 10.0558743386,
			"0.009": 7.66745556647,
			"0.01": 4.61216343204,
			"0.011": 3.30192842066,
			"0.012": 4.24359787701,
			"0.013": 6.45030320393,
			"0.014": 4.19473672471,
			"0.015": 2.67365495244,
			"0.016": 2.10798758277,
			"0.017": 0.378193012849,
			"0.018": 0.0,
			"0.019": 0.0,
			"0.02": 0.0,
			"0.021": 0.0,
			"0.022": 0.0,
			"0.023": 0.0,
			"0.024": 0.0,
			"0.025": 0.0
		}
	}
}
