{
	 "smiles": "CCC1CC(CC(C)(C)N1O)OC(=O)C1=CC=C(C=C1)[N+]([O-])=O", 
	 "Tm": 419.15, 
	 "num_atms": 45, 
	 "gaussian": { 
		 "optdone": 1, 
		 "sigma_profile": "yes", 
		 "theory": "DFT", 
		 "functional": "B3LYP", 
		 "basiset": "6-31G**", 
		 "properties": { 
			 "R2extent": 12538.0632, 
			 "electric_dipole_moment_norm": 4.56011208744, 
			 "electric_quadrupole_moment_norm": 29.4946801417, 
			 "total_energy": -1108.45727673, 
			 "HOMO_LUMO_gap": 0.12548, 
			 "cosmo_polarized_energy": -13.86, 
			 "cosmo_cavitation_energy": 46.95, 
			 "cosmo_dispersion_energy": -32.36, 
			 "cosmo_repulsion_energy": 2.45, 
			 "cosmo_total_nonelectrostatic_energy": 17.04, 
			 "SMD_solvation_energy": 10.34 
		},
		"coords": [
			{
				"x": -3.7734772545,
				"y": 1.5672116785,
				"z": -2.2104145917,
				"element": "C" 
			},
			{
				"x": -3.261465798,
				"y": 0.2161394911,
				"z": -2.7220758547,
				"element": "C" 
			},
			{
				"x": -1.7556505737,
				"y": 0.0186367455,
				"z": -2.5015391008,
				"element": "C" 
			},
			{
				"x": -1.3976050536,
				"y": 0.0503411797,
				"z": -0.9924396007,
				"element": "C" 
			},
			{
				"x": -0.2034725847,
				"y": -0.8571460067,
				"z": -0.6711653499,
				"element": "C" 
			},
			{
				"x": 0.7975534165,
				"y": -0.8356500803,
				"z": -1.8145899805,
				"element": "C" 
			},
			{
				"x": 0.1820111726,
				"y": -1.4361084834,
				"z": -3.1104752767,
				"element": "C" 
			},
			{
				"x": 0.7772740556,
				"y": -0.7171313911,
				"z": -4.3370222335,
				"element": "C" 
			},
			{
				"x": 0.4770509888,
				"y": -2.9426663837,
				"z": -3.1960419091,
				"element": "C" 
			},
			{
				"x": -1.3067102028,
				"y": -1.2977754176,
				"z": -3.0091115082,
				"element": "N" 
			},
			{
				"x": -1.8299209769,
				"y": -1.5037381242,
				"z": -4.3403445285,
				"element": "O" 
			},
			{
				"x": 0.49521041,
				"y": -0.3770859928,
				"z": 0.5147197984,
				"element": "O" 
			},
			{
				"x": -0.0108799551,
				"y": -0.7379731065,
				"z": 1.7093569924,
				"element": "C" 
			},
			{
				"x": -1.0101758764,
				"y": -1.4151787969,
				"z": 1.8548990344,
				"element": "O" 
			},
			{
				"x": 0.8024364773,
				"y": -0.2106655785,
				"z": 2.8511957693,
				"element": "C" 
			},
			{
				"x": 0.3760361245,
				"y": -0.5206087712,
				"z": 4.1501315932,
				"element": "C" 
			},
			{
				"x": 1.0896051392,
				"y": -0.0610638491,
				"z": 5.2515474983,
				"element": "C" 
			},
			{
				"x": 2.2298808857,
				"y": 0.7097957127,
				"z": 5.0298531602,
				"element": "C" 
			},
			{
				"x": 2.6753294098,
				"y": 1.0326844268,
				"z": 3.7494243844,
				"element": "C" 
			},
			{
				"x": 1.9528849129,
				"y": 0.5665423805,
				"z": 2.6549920336,
				"element": "C" 
			},
			{
				"x": 2.9930520439,
				"y": 1.2019073237,
				"z": 6.1923528349,
				"element": "N" 
			},
			{
				"x": 3.9950448217,
				"y": 1.8797002272,
				"z": 5.9698089957,
				"element": "O" 
			},
			{
				"x": 2.579820323,
				"y": 0.9037514642,
				"z": 7.3115964263,
				"element": "O" 
			},
			{
				"x": -3.6496413367,
				"y": 1.6750098473,
				"z": -1.128033337,
				"element": "H" 
			},
			{
				"x": -4.8390930752,
				"y": 1.6828660482,
				"z": -2.4310460391,
				"element": "H" 
			},
			{
				"x": -3.2451715655,
				"y": 2.3989304055,
				"z": -2.6907797094,
				"element": "H" 
			},
			{
				"x": -3.4690971243,
				"y": 0.1293683619,
				"z": -3.7913263907,
				"element": "H" 
			},
			{
				"x": -3.7969075262,
				"y": -0.6026300921,
				"z": -2.22226873,
				"element": "H" 
			},
			{
				"x": -1.2335218634,
				"y": 0.8399399023,
				"z": -3.0234515186,
				"element": "H" 
			},
			{
				"x": -2.2563899967,
				"y": -0.2596707397,
				"z": -0.3898985455,
				"element": "H" 
			},
			{
				"x": -1.1406302172,
				"y": 1.0740869882,
				"z": -0.6998892824,
				"element": "H" 
			},
			{
				"x": -0.5447398243,
				"y": -1.8718565018,
				"z": -0.4594158318,
				"element": "H" 
			},
			{
				"x": 1.1038934399,
				"y": 0.2033566265,
				"z": -1.9856374076,
				"element": "H" 
			},
			{
				"x": 1.7002346005,
				"y": -1.3928221028,
				"z": -1.5453372167,
				"element": "H" 
			},
			{
				"x": 0.4166092874,
				"y": -1.1619311709,
				"z": -5.2655375708,
				"element": "H" 
			},
			{
				"x": 0.5186759334,
				"y": 0.3466633775,
				"z": -4.3446425289,
				"element": "H" 
			},
			{
				"x": 1.86953465,
				"y": -0.7928846578,
				"z": -4.3136006513,
				"element": "H" 
			},
			{
				"x": 0.1342566056,
				"y": -3.4613364828,
				"z": -2.295249405,
				"element": "H" 
			},
			{
				"x": -0.0375416666,
				"y": -3.37640625,
				"z": -4.0576107664,
				"element": "H" 
			},
			{
				"x": 1.5506654848,
				"y": -3.1223192329,
				"z": -3.3140211462,
				"element": "H" 
			},
			{
				"x": -2.4433803486,
				"y": -2.2386198096,
				"z": -4.2089741518,
				"element": "H" 
			},
			{
				"x": -0.516710258,
				"y": -1.1232722039,
				"z": 4.2737903776,
				"element": "H" 
			},
			{
				"x": 0.7851089934,
				"y": -0.2842847108,
				"z": 6.2661665781,
				"element": "H" 
			},
			{
				"x": 3.5674051458,
				"y": 1.6346452513,
				"z": 3.6317751566,
				"element": "H" 
			},
			{
				"x": 2.2748087561,
				"y": 0.8013484979,
				"z": 1.6477295303,
				"element": "H" 
			}
		],
		 "valence_orbital": [ 
			{
				"type": "occ",
				"energy": -0.2882,
				"method": "rhf"
			},
			{
				"type": "occ",
				"energy": -0.28794,
				"method": "rhf"
			},
			{
				"type": "occ",
				"energy": -0.28515,
				"method": "rhf"
			},
			{
				"type": "occ",
				"energy": -0.2837,
				"method": "rhf"
			},
			{
				"type": "occ",
				"energy": -0.22745,
				"method": "rhf"
			},
			{
				"type": "unocc",
				"energy": -0.10197,
				"method": "rhf"
			},
			{
				"type": "unocc",
				"energy": -0.03685,
				"method": "rhf"
			},
			{
				"type": "unocc",
				"energy": -0.03277,
				"method": "rhf"
			},
			{
				"type": "unocc",
				"energy": 0.04887,
				"method": "rhf"
			},
			{
				"type": "unocc",
				"energy": 0.06369,
				"method": "rhf"
			}
		],
		"cosmo_sigma_profile": { 
			"-0.025": 0.0,
			"-0.024": 0.0,
			"-0.023": 0.0,
			"-0.022": 0.0,
			"-0.021": 0.0,
			"-0.02": 0.0,
			"-0.019": 0.0,
			"-0.018": 0.0,
			"-0.017": 0.0,
			"-0.016": 0.0405056143343,
			"-0.015": 1.05075166784,
			"-0.014": 0.467319112623,
			"-0.013": 0.764518692252,
			"-0.012": 0.821299969902,
			"-0.011": 0.578849070278,
			"-0.01": 0.860085205126,
			"-0.009": 0.797041776951,
			"-0.008": 2.92730652215,
			"-0.007": 7.84308795225,
			"-0.006": 8.06116602039,
			"-0.005": 9.32770120538,
			"-0.004": 20.4380425933,
			"-0.003": 38.8417937063,
			"-0.002": 47.8932048097,
			"-0.001": 46.9806741698,
			"0.0": 47.1298595499,
			"0.001": 40.6671983534,
			"0.002": 16.9419770679,
			"0.003": 9.3152685591,
			"0.004": 9.08572645943,
			"0.005": 6.59120044565,
			"0.006": 8.71046328547,
			"0.007": 12.5591607959,
			"0.008": 9.33381098844,
			"0.009": 7.88362630582,
			"0.01": 4.53306585974,
			"0.011": 4.60514158072,
			"0.012": 2.38590037557,
			"0.013": 0.140492824324,
			"0.014": 0.0,
			"0.015": 0.0,
			"0.016": 0.0,
			"0.017": 0.0,
			"0.018": 0.0,
			"0.019": 0.0,
			"0.02": 0.0,
			"0.021": 0.0,
			"0.022": 0.0,
			"0.023": 0.0,
			"0.024": 0.0,
			"0.025": 0.0
		}
	}
}
