{
	 "smiles": "NC(=O)NN=CC1=CC=C(C=C1)[N+]([O-])=O", 
	 "Tm": 490.15, 
	 "num_atms": 23, 
	 "gaussian": { 
		 "optdone": 1, 
		 "sigma_profile": "yes", 
		 "theory": "DFT", 
		 "functional": "B3LYP", 
		 "basiset": "6-31G**", 
		 "properties": { 
			 "R2extent": 5464.7986, 
			 "electric_dipole_moment_norm": 8.13874300737, 
			 "electric_quadrupole_moment_norm": 17.0622094235, 
			 "total_energy": -754.237247423, 
			 "HOMO_LUMO_gap": 0.14633, 
			 "cosmo_polarized_energy": -19.77, 
			 "cosmo_cavitation_energy": 29.53, 
			 "cosmo_dispersion_energy": -21.78, 
			 "cosmo_repulsion_energy": 1.71, 
			 "cosmo_total_nonelectrostatic_energy": 9.46, 
			 "SMD_solvation_energy": 7.96 
		},
		"coords": [
			{
				"x": 4.4135054655,
				"y": -1.4721446101,
				"z": 2.2245260005,
				"element": "N" 
			},
			{
				"x": 3.3832260484,
				"y": -1.2129417029,
				"z": 1.3346600915,
				"element": "C" 
			},
			{
				"x": 3.5107490757,
				"y": -1.2984021433,
				"z": 0.1227286872,
				"element": "O" 
			},
			{
				"x": 2.1898524722,
				"y": -0.8868191776,
				"z": 1.9803233181,
				"element": "N" 
			},
			{
				"x": 0.9630949608,
				"y": -0.6253168163,
				"z": 1.4494693907,
				"element": "N" 
			},
			{
				"x": 0.7839415782,
				"y": -0.5164472916,
				"z": 0.1774672856,
				"element": "C" 
			},
			{
				"x": -0.5603569178,
				"y": -0.2155130471,
				"z": -0.3299803536,
				"element": "C" 
			},
			{
				"x": -0.7458598293,
				"y": -0.103911825,
				"z": -1.719249033,
				"element": "C" 
			},
			{
				"x": -1.9981224396,
				"y": 0.1802798665,
				"z": -2.2535264727,
				"element": "C" 
			},
			{
				"x": -3.0709869501,
				"y": 0.3533237391,
				"z": -1.3817417748,
				"element": "C" 
			},
			{
				"x": -2.9209681767,
				"y": 0.2489122104,
				"z": 0.0037932117,
				"element": "C" 
			},
			{
				"x": -1.6668135799,
				"y": -0.0349489985,
				"z": 0.523141986,
				"element": "C" 
			},
			{
				"x": -4.3972656579,
				"y": 0.6543378929,
				"z": -1.9348109588,
				"element": "N" 
			},
			{
				"x": -4.5012879048,
				"y": 0.7413835795,
				"z": -3.1589738536,
				"element": "O" 
			},
			{
				"x": -5.3278191633,
				"y": 0.802317671,
				"z": -1.1415507111,
				"element": "O" 
			},
			{
				"x": 5.3126205598,
				"y": -1.5485143009,
				"z": 1.7707143472,
				"element": "H" 
			},
			{
				"x": 4.428921143,
				"y": -0.9946289889,
				"z": 3.1147363216,
				"element": "H" 
			},
			{
				"x": 2.1377648552,
				"y": -1.0200917807,
				"z": 2.9793837796,
				"element": "H" 
			},
			{
				"x": 1.5857128833,
				"y": -0.643999613,
				"z": -0.544393108,
				"element": "H" 
			},
			{
				"x": 0.1022230053,
				"y": -0.2425705031,
				"z": -2.3836779826,
				"element": "H" 
			},
			{
				"x": -2.1586658004,
				"y": 0.2695479783,
				"z": -3.3204997978,
				"element": "H" 
			},
			{
				"x": -3.7842526275,
				"y": 0.3913688479,
				"z": 0.6417055779,
				"element": "H" 
			},
			{
				"x": -1.5210130003,
				"y": -0.1218209866,
				"z": 1.5938540482,
				"element": "H" 
			}
		],
		 "valence_orbital": [ 
			{
				"type": "occ",
				"energy": -0.29513,
				"method": "rhf"
			},
			{
				"type": "occ",
				"energy": -0.28415,
				"method": "rhf"
			},
			{
				"type": "occ",
				"energy": -0.27377,
				"method": "rhf"
			},
			{
				"type": "occ",
				"energy": -0.26777,
				"method": "rhf"
			},
			{
				"type": "occ",
				"energy": -0.23748,
				"method": "rhf"
			},
			{
				"type": "unocc",
				"energy": -0.09115,
				"method": "rhf"
			},
			{
				"type": "unocc",
				"energy": -0.03631,
				"method": "rhf"
			},
			{
				"type": "unocc",
				"energy": -0.02056,
				"method": "rhf"
			},
			{
				"type": "unocc",
				"energy": 0.02844,
				"method": "rhf"
			},
			{
				"type": "unocc",
				"energy": 0.04397,
				"method": "rhf"
			}
		],
		"cosmo_sigma_profile": { 
			"-0.025": 0.0,
			"-0.024": 0.0,
			"-0.023": 0.0,
			"-0.022": 0.0,
			"-0.021": 0.0,
			"-0.02": 0.0,
			"-0.019": 0.0,
			"-0.018": 0.0954427516677,
			"-0.017": 1.28487805753,
			"-0.016": 1.58347961578,
			"-0.015": 2.36389942746,
			"-0.014": 3.2210158408,
			"-0.013": 2.90932465616,
			"-0.012": 3.33140568931,
			"-0.011": 2.96562272902,
			"-0.01": 2.16822058633,
			"-0.009": 2.42053216496,
			"-0.008": 4.52507565322,
			"-0.007": 7.77707604709,
			"-0.006": 10.0907156022,
			"-0.005": 10.525267892,
			"-0.004": 8.95459703009,
			"-0.003": 9.80049832263,
			"-0.002": 10.5384405221,
			"-0.001": 16.8500695072,
			"0.0": 19.4997729365,
			"0.001": 22.5291240134,
			"0.002": 18.4612731586,
			"0.003": 9.9335640043,
			"0.004": 7.08492699649,
			"0.005": 6.8123509766,
			"0.006": 7.23598360085,
			"0.007": 10.68098222,
			"0.008": 11.9920629049,
			"0.009": 6.13401980049,
			"0.01": 5.39289412704,
			"0.011": 2.48094325547,
			"0.012": 3.17985301048,
			"0.013": 2.9207540834,
			"0.014": 0.651371154995,
			"0.015": 0.0,
			"0.016": 0.0,
			"0.017": 0.0,
			"0.018": 0.0,
			"0.019": 0.0,
			"0.02": 0.0,
			"0.021": 0.0,
			"0.022": 0.0,
			"0.023": 0.0,
			"0.024": 0.0,
			"0.025": 0.0
		}
	}
}
