{
	 "smiles": "OC(=O)C1CSC(=O)C1", 
	 "Tm": 382.15, 
	 "num_atms": 15, 
	 "gaussian": { 
		 "optdone": 1, 
		 "sigma_profile": "yes", 
		 "theory": "DFT", 
		 "functional": "B3LYP", 
		 "basiset": "6-31G**", 
		 "properties": { 
			 "R2extent": 1401.9784, 
			 "electric_dipole_moment_norm": 4.01754706382, 
			 "electric_quadrupole_moment_norm": 11.0760527509, 
			 "total_energy": -818.025561844, 
			 "HOMO_LUMO_gap": 0.22895, 
			 "cosmo_polarized_energy": -14.41, 
			 "cosmo_cavitation_energy": 20.51, 
			 "cosmo_dispersion_energy": -15.72, 
			 "cosmo_repulsion_energy": 1.26, 
			 "cosmo_total_nonelectrostatic_energy": 6.06, 
			 "SMD_solvation_energy": 5.0 
		},
		"coords": [
			{
				"x": -1.9796622183,
				"y": -1.6871699622,
				"z": 0.2012972359,
				"element": "O" 
			},
			{
				"x": -1.4581147181,
				"y": -0.4406745762,
				"z": 0.2449702057,
				"element": "C" 
			},
			{
				"x": -1.9708954305,
				"y": 0.5031971364,
				"z": -0.3121891394,
				"element": "O" 
			},
			{
				"x": -0.2104132291,
				"y": -0.3713324452,
				"z": 1.1268270991,
				"element": "C" 
			},
			{
				"x": 0.6009462887,
				"y": 0.9002999875,
				"z": 0.815597395,
				"element": "C" 
			},
			{
				"x": 1.7527606347,
				"y": 0.4683379319,
				"z": -0.550710862,
				"element": "S" 
			},
			{
				"x": 1.682877098,
				"y": -1.3071454603,
				"z": -0.1940541034,
				"element": "C" 
			},
			{
				"x": 2.314676489,
				"y": -2.1388411201,
				"z": -0.7927784058,
				"element": "O" 
			},
			{
				"x": 0.7289739828,
				"y": -1.5743060589,
				"z": 0.9732290417,
				"element": "C" 
			},
			{
				"x": -2.7811138655,
				"y": -1.6298747476,
				"z": -0.3461125022,
				"element": "H" 
			},
			{
				"x": -0.5897027741,
				"y": -0.3187111802,
				"z": 2.1558946803,
				"element": "H" 
			},
			{
				"x": 1.1780245565,
				"y": 1.2208101785,
				"z": 1.6862416363,
				"element": "H" 
			},
			{
				"x": -0.0523161315,
				"y": 1.7094728807,
				"z": 0.4892956946,
				"element": "H" 
			},
			{
				"x": 1.3493992949,
				"y": -1.688652932,
				"z": 1.8709995449,
				"element": "H" 
			},
			{
				"x": 0.2110600225,
				"y": -2.5188096319,
				"z": 0.8028924793,
				"element": "H" 
			}
		],
		 "valence_orbital": [ 
			{
				"type": "occ",
				"energy": -0.34184,
				"method": "rhf"
			},
			{
				"type": "occ",
				"energy": -0.33634,
				"method": "rhf"
			},
			{
				"type": "occ",
				"energy": -0.29266,
				"method": "rhf"
			},
			{
				"type": "occ",
				"energy": -0.26098,
				"method": "rhf"
			},
			{
				"type": "occ",
				"energy": -0.25506,
				"method": "rhf"
			},
			{
				"type": "unocc",
				"energy": -0.02611,
				"method": "rhf"
			},
			{
				"type": "unocc",
				"energy": -0.00653,
				"method": "rhf"
			},
			{
				"type": "unocc",
				"energy": 0.01509,
				"method": "rhf"
			},
			{
				"type": "unocc",
				"energy": 0.06035,
				"method": "rhf"
			},
			{
				"type": "unocc",
				"energy": 0.0778,
				"method": "rhf"
			}
		],
		"cosmo_sigma_profile": { 
			"-0.025": 0.0,
			"-0.024": 0.0,
			"-0.023": 0.0,
			"-0.022": 0.0,
			"-0.021": 0.0,
			"-0.02": 0.0,
			"-0.019": 0.25727977967,
			"-0.018": 0.850120389917,
			"-0.017": 1.25828092829,
			"-0.016": 0.610656854736,
			"-0.015": 0.772462096513,
			"-0.014": 0.647820874779,
			"-0.013": 0.551878446761,
			"-0.012": 0.546251894735,
			"-0.011": 1.16210955727,
			"-0.01": 0.914930883736,
			"-0.009": 1.46362220707,
			"-0.008": 8.75056515493,
			"-0.007": 11.0720317029,
			"-0.006": 8.76354038098,
			"-0.005": 8.70067102636,
			"-0.004": 11.5678274739,
			"-0.003": 11.4278361659,
			"-0.002": 5.5280819784,
			"-0.001": 5.60001234445,
			"0.0": 5.34186304475,
			"0.001": 7.22918186891,
			"0.002": 8.33292979699,
			"0.003": 8.40328432552,
			"0.004": 9.6629708647,
			"0.005": 7.98925435269,
			"0.006": 6.495091244,
			"0.007": 4.61503168101,
			"0.008": 4.19881144925,
			"0.009": 3.87102324185,
			"0.01": 6.73915914841,
			"0.011": 9.47542852113,
			"0.012": 1.70505960149,
			"0.013": 0.0,
			"0.014": 0.0,
			"0.015": 0.0,
			"0.016": 0.0,
			"0.017": 0.0,
			"0.018": 0.0,
			"0.019": 0.0,
			"0.02": 0.0,
			"0.021": 0.0,
			"0.022": 0.0,
			"0.023": 0.0,
			"0.024": 0.0,
			"0.025": 0.0
		}
	}
}
