{
	 "smiles": "C[C@H]1CC11C(O)C(=O)C2=C([C@H](O)[C@@H](O)C3C(C)[C@H](C)CC[C@]23C)C1=O", 
	 "Tm": 451.15, 
	 "num_atms": 53, 
	 "gaussian": { 
		 "optdone": 1, 
		 "sigma_profile": "yes", 
		 "theory": "DFT", 
		 "functional": "B3LYP", 
		 "basiset": "6-31G**", 
		 "properties": { 
			 "R2extent": 9067.3403, 
			 "electric_dipole_moment_norm": 3.02338016796, 
			 "electric_quadrupole_moment_norm": 12.7933024783, 
			 "total_energy": -1155.08009826, 
			 "HOMO_LUMO_gap": 0.14499, 
			 "cosmo_polarized_energy": -14.85, 
			 "cosmo_cavitation_energy": 47.24, 
			 "cosmo_dispersion_energy": -32.7, 
			 "cosmo_repulsion_energy": 2.43, 
			 "cosmo_total_nonelectrostatic_energy": 16.97, 
			 "SMD_solvation_energy": 7.92 
		},
		"coords": [
			{
				"x": -1.6300965299,
				"y": 0.9228806015,
				"z": 5.4038067183,
				"element": "C" 
			},
			{
				"x": -2.7943302391,
				"y": 0.617749274,
				"z": 4.4868947179,
				"element": "C" 
			},
			{
				"x": -3.5791082785,
				"y": 1.6929586127,
				"z": 3.8127002535,
				"element": "C" 
			},
			{
				"x": -2.7198520103,
				"y": 0.7905103433,
				"z": 2.949067304,
				"element": "C" 
			},
			{
				"x": -3.3974973728,
				"y": -0.2398832198,
				"z": 2.0882964689,
				"element": "C" 
			},
			{
				"x": -4.080310174,
				"y": 0.4429464659,
				"z": 1.0319263986,
				"element": "O" 
			},
			{
				"x": -2.4247058233,
				"y": -1.2273875023,
				"z": 1.4313682396,
				"element": "C" 
			},
			{
				"x": -2.8571481015,
				"y": -2.3380943418,
				"z": 1.1496700487,
				"element": "O" 
			},
			{
				"x": -1.064327645,
				"y": -0.7391019327,
				"z": 1.0256163229,
				"element": "C" 
			},
			{
				"x": -0.7133740204,
				"y": 0.5307038854,
				"z": 1.3706662695,
				"element": "C" 
			},
			{
				"x": 0.5561287561,
				"y": 1.1763830021,
				"z": 0.8480826194,
				"element": "C" 
			},
			{
				"x": 0.3476194194,
				"y": 2.5216134386,
				"z": 0.4329188109,
				"element": "O" 
			},
			{
				"x": 1.0856231941,
				"y": 0.445665507,
				"z": -0.3797087762,
				"element": "C" 
			},
			{
				"x": 2.2995022247,
				"y": 1.061089731,
				"z": -0.7768484949,
				"element": "O" 
			},
			{
				"x": 1.2658405777,
				"y": -1.039672607,
				"z": -0.0427213621,
				"element": "C" 
			},
			{
				"x": 2.1039310278,
				"y": -1.9107442629,
				"z": -1.0309124548,
				"element": "C" 
			},
			{
				"x": 3.5655881171,
				"y": -1.463636323,
				"z": -1.1995208101,
				"element": "C" 
			},
			{
				"x": 1.401797354,
				"y": -2.2235737787,
				"z": -2.3777631478,
				"element": "C" 
			},
			{
				"x": 1.3100926353,
				"y": -1.0617019929,
				"z": -3.3824295637,
				"element": "C" 
			},
			{
				"x": 0.0278645272,
				"y": -2.8578674879,
				"z": -2.0851475542,
				"element": "C" 
			},
			{
				"x": -0.8408774639,
				"y": -2.0207511866,
				"z": -1.1348312389,
				"element": "C" 
			},
			{
				"x": -0.1480199389,
				"y": -1.6846223447,
				"z": 0.22512655,
				"element": "C" 
			},
			{
				"x": 0.0458719329,
				"y": -2.9639081078,
				"z": 1.0877954238,
				"element": "C" 
			},
			{
				"x": -1.4773621494,
				"y": 1.3523555848,
				"z": 2.3617685611,
				"element": "C" 
			},
			{
				"x": -1.0146493339,
				"y": 2.4327363429,
				"z": 2.7394694858,
				"element": "O" 
			},
			{
				"x": -1.0730899858,
				"y": 1.7998967103,
				"z": 5.0685523724,
				"element": "H" 
			},
			{
				"x": -2.0024277099,
				"y": 1.1234389351,
				"z": 6.4143869346,
				"element": "H" 
			},
			{
				"x": -0.9389209382,
				"y": 0.0752017982,
				"z": 5.4661970052,
				"element": "H" 
			},
			{
				"x": -3.3580013418,
				"y": -0.2707003554,
				"z": 4.7687130685,
				"element": "H" 
			},
			{
				"x": -4.6534580575,
				"y": 1.5845941125,
				"z": 3.7023941232,
				"element": "H" 
			},
			{
				"x": -3.2198418886,
				"y": 2.7124376733,
				"z": 3.9121282185,
				"element": "H" 
			},
			{
				"x": -4.1011706261,
				"y": -0.8399882964,
				"z": 2.6806825864,
				"element": "H" 
			},
			{
				"x": -4.5380920128,
				"y": -0.2274656454,
				"z": 0.5045054253,
				"element": "H" 
			},
			{
				"x": 1.3305877755,
				"y": 1.1361144582,
				"z": 1.632455307,
				"element": "H" 
			},
			{
				"x": 0.0535721663,
				"y": 2.9990857067,
				"z": 1.2262058278,
				"element": "H" 
			},
			{
				"x": 0.3281496112,
				"y": 0.5691263796,
				"z": -1.1680501171,
				"element": "H" 
			},
			{
				"x": 2.1160932959,
				"y": 2.0130467275,
				"z": -0.7471641578,
				"element": "H" 
			},
			{
				"x": 1.8186592467,
				"y": -1.067585737,
				"z": 0.9089709208,
				"element": "H" 
			},
			{
				"x": 2.1708850069,
				"y": -2.8867353499,
				"z": -0.5320540917,
				"element": "H" 
			},
			{
				"x": 3.6603809199,
				"y": -0.5244022115,
				"z": -1.7414803756,
				"element": "H" 
			},
			{
				"x": 4.0438783215,
				"y": -1.3224722194,
				"z": -0.2242951106,
				"element": "H" 
			},
			{
				"x": 4.124327467,
				"y": -2.2406876463,
				"z": -1.7347921639,
				"element": "H" 
			},
			{
				"x": 2.0187293706,
				"y": -2.9957662118,
				"z": -2.8603132466,
				"element": "H" 
			},
			{
				"x": 0.6315066793,
				"y": -0.2686145025,
				"z": -3.0583608249,
				"element": "H" 
			},
			{
				"x": 2.2860201485,
				"y": -0.601543441,
				"z": -3.5574531625,
				"element": "H" 
			},
			{
				"x": 0.9404045621,
				"y": -1.4330695118,
				"z": -4.3450244747,
				"element": "H" 
			},
			{
				"x": 0.1792331844,
				"y": -3.8554159309,
				"z": -1.6534419509,
				"element": "H" 
			},
			{
				"x": -0.5236454569,
				"y": -3.0143387984,
				"z": -3.0209228509,
				"element": "H" 
			},
			{
				"x": -1.7745726651,
				"y": -2.5492723109,
				"z": -0.9323433904,
				"element": "H" 
			},
			{
				"x": -1.115800984,
				"y": -1.0811983016,
				"z": -1.6293591467,
				"element": "H" 
			},
			{
				"x": -0.8978884016,
				"y": -3.4878231671,
				"z": 1.2316371589,
				"element": "H" 
			},
			{
				"x": 0.7481937336,
				"y": -3.6544285511,
				"z": 0.6182200164,
				"element": "H" 
			},
			{
				"x": 0.4538878934,
				"y": -2.7017820144,
				"z": 2.0704153091,
				"element": "H" 
			}
		],
		 "valence_orbital": [ 
			{
				"type": "occ",
				"energy": -0.28172,
				"method": "rhf"
			},
			{
				"type": "occ",
				"energy": -0.27179,
				"method": "rhf"
			},
			{
				"type": "occ",
				"energy": -0.26781,
				"method": "rhf"
			},
			{
				"type": "occ",
				"energy": -0.26059,
				"method": "rhf"
			},
			{
				"type": "occ",
				"energy": -0.24588,
				"method": "rhf"
			},
			{
				"type": "unocc",
				"energy": -0.10089,
				"method": "rhf"
			},
			{
				"type": "unocc",
				"energy": -0.02599,
				"method": "rhf"
			},
			{
				"type": "unocc",
				"energy": 0.04857,
				"method": "rhf"
			},
			{
				"type": "unocc",
				"energy": 0.07076,
				"method": "rhf"
			},
			{
				"type": "unocc",
				"energy": 0.07675,
				"method": "rhf"
			}
		],
		"cosmo_sigma_profile": { 
			"-0.025": 0.0,
			"-0.024": 0.0,
			"-0.023": 0.0,
			"-0.022": 0.0,
			"-0.021": 0.0,
			"-0.02": 0.0,
			"-0.019": 0.0,
			"-0.018": 0.0,
			"-0.017": 0.0,
			"-0.016": 0.460452937702,
			"-0.015": 1.07819386098,
			"-0.014": 0.621073105604,
			"-0.013": 1.03869546657,
			"-0.012": 1.06539529937,
			"-0.011": 1.00065965957,
			"-0.01": 1.5609494741,
			"-0.009": 1.39564795055,
			"-0.008": 2.70333640132,
			"-0.007": 5.21103137108,
			"-0.006": 9.42969283487,
			"-0.005": 13.8429484081,
			"-0.004": 21.8347583446,
			"-0.003": 30.3598525915,
			"-0.002": 42.0087420776,
			"-0.001": 48.0124042363,
			"0.0": 47.6960306122,
			"0.001": 39.1655916582,
			"0.002": 23.579855226,
			"0.003": 12.6143741102,
			"0.004": 7.93319623366,
			"0.005": 8.08232786579,
			"0.006": 6.46808960398,
			"0.007": 6.6968406431,
			"0.008": 7.27164745921,
			"0.009": 7.62418865131,
			"0.01": 6.65240146727,
			"0.011": 5.25131297512,
			"0.012": 3.70746017428,
			"0.013": 1.11596272451,
			"0.014": 0.0265260063383,
			"0.015": 0.0,
			"0.016": 0.0,
			"0.017": 0.0,
			"0.018": 0.0,
			"0.019": 0.0,
			"0.02": 0.0,
			"0.021": 0.0,
			"0.022": 0.0,
			"0.023": 0.0,
			"0.024": 0.0,
			"0.025": 0.0
		}
	}
}
