{
	 "smiles": "CCCCCCCCCOC(=O)C1=CC=C(N)C=C1", 
	 "Tm": 342.15, 
	 "num_atms": 44, 
	 "gaussian": { 
		 "optdone": 1, 
		 "sigma_profile": "yes", 
		 "theory": "DFT", 
		 "functional": "B3LYP", 
		 "basiset": "6-31G**", 
		 "properties": { 
			 "R2extent": 8633.0339, 
			 "electric_dipole_moment_norm": 3.56245201231, 
			 "electric_quadrupole_moment_norm": 30.7912949127, 
			 "total_energy": -830.013845725, 
			 "HOMO_LUMO_gap": 0.18466, 
			 "cosmo_polarized_energy": -13.13, 
			 "cosmo_cavitation_energy": 45.46, 
			 "cosmo_dispersion_energy": -30.46, 
			 "cosmo_repulsion_energy": 2.39, 
			 "cosmo_total_nonelectrostatic_energy": 17.4, 
			 "SMD_solvation_energy": 7.49 
		},
		"coords": [
			{
				"x": -5.2273851058,
				"y": -1.4523482775,
				"z": 0.4176259231,
				"element": "C" 
			},
			{
				"x": -5.2917631027,
				"y": -0.8079232254,
				"z": 1.8070542703,
				"element": "C" 
			},
			{
				"x": -4.0857175835,
				"y": 0.0651835192,
				"z": 2.1986110593,
				"element": "C" 
			},
			{
				"x": -2.7287859112,
				"y": -0.6687657134,
				"z": 2.303406242,
				"element": "C" 
			},
			{
				"x": -1.8753393581,
				"y": -0.6285177318,
				"z": 1.0244673455,
				"element": "C" 
			},
			{
				"x": -0.5741128368,
				"y": -1.4467956118,
				"z": 1.0925194695,
				"element": "C" 
			},
			{
				"x": 0.4402173969,
				"y": -1.0093545846,
				"z": 2.1662936147,
				"element": "C" 
			},
			{
				"x": 0.9925528478,
				"y": 0.4240120015,
				"z": 2.0568998263,
				"element": "C" 
			},
			{
				"x": 1.9085294542,
				"y": 0.7004213538,
				"z": 0.8713247512,
				"element": "C" 
			},
			{
				"x": 1.1194659434,
				"y": 0.7763974048,
				"z": -0.3362245711,
				"element": "O" 
			},
			{
				"x": 1.817616215,
				"y": 1.0295466082,
				"z": -1.473880052,
				"element": "C" 
			},
			{
				"x": 3.0278076531,
				"y": 1.1709241878,
				"z": -1.4832164013,
				"element": "O" 
			},
			{
				"x": 0.9519780588,
				"y": 1.1105722998,
				"z": -2.672403167,
				"element": "C" 
			},
			{
				"x": 1.5613235193,
				"y": 1.3514393827,
				"z": -3.9139348988,
				"element": "C" 
			},
			{
				"x": 0.807781673,
				"y": 1.4361520183,
				"z": -5.0741021339,
				"element": "C" 
			},
			{
				"x": -0.5925550257,
				"y": 1.2827572264,
				"z": -5.0284572727,
				"element": "C" 
			},
			{
				"x": -1.3562848943,
				"y": 1.4163389923,
				"z": -6.177693571,
				"element": "N" 
			},
			{
				"x": -1.2045677395,
				"y": 1.0430655742,
				"z": -3.7823137974,
				"element": "C" 
			},
			{
				"x": -0.4428038329,
				"y": 0.959535009,
				"z": -2.6251648595,
				"element": "C" 
			},
			{
				"x": -6.1540525231,
				"y": -1.9923650115,
				"z": 0.1948687219,
				"element": "H" 
			},
			{
				"x": -5.0870658884,
				"y": -0.6978045724,
				"z": -0.3652723371,
				"element": "H" 
			},
			{
				"x": -4.405175175,
				"y": -2.1706327792,
				"z": 0.3383991444,
				"element": "H" 
			},
			{
				"x": -5.4159122336,
				"y": -1.5960753581,
				"z": 2.5626112648,
				"element": "H" 
			},
			{
				"x": -6.1968988466,
				"y": -0.1893114711,
				"z": 1.8676505909,
				"element": "H" 
			},
			{
				"x": -4.3166668234,
				"y": 0.5251503284,
				"z": 3.1676271116,
				"element": "H" 
			},
			{
				"x": -3.993728601,
				"y": 0.8994928467,
				"z": 1.488460744,
				"element": "H" 
			},
			{
				"x": -2.1519669367,
				"y": -0.2237775401,
				"z": 3.1232622481,
				"element": "H" 
			},
			{
				"x": -2.9005994025,
				"y": -1.7148999799,
				"z": 2.5969497202,
				"element": "H" 
			},
			{
				"x": -1.6414505172,
				"y": 0.417984511,
				"z": 0.7876392621,
				"element": "H" 
			},
			{
				"x": -2.4656572558,
				"y": -0.9987933608,
				"z": 0.1780232975,
				"element": "H" 
			},
			{
				"x": -0.8303979728,
				"y": -2.4990982688,
				"z": 1.2795475888,
				"element": "H" 
			},
			{
				"x": -0.0923288584,
				"y": -1.4175019146,
				"z": 0.1097042373,
				"element": "H" 
			},
			{
				"x": -0.0114254638,
				"y": -1.1237069096,
				"z": 3.159671234,
				"element": "H" 
			},
			{
				"x": 1.2881204489,
				"y": -1.7078439491,
				"z": 2.1461442302,
				"element": "H" 
			},
			{
				"x": 1.5839566618,
				"y": 0.6308980352,
				"z": 2.9585070682,
				"element": "H" 
			},
			{
				"x": 0.1792907814,
				"y": 1.1597756447,
				"z": 2.055016082,
				"element": "H" 
			},
			{
				"x": 2.6659822562,
				"y": -0.0826921037,
				"z": 0.7529076097,
				"element": "H" 
			},
			{
				"x": 2.4405125375,
				"y": 1.649341272,
				"z": 0.9957926793,
				"element": "H" 
			},
			{
				"x": 2.6396507284,
				"y": 1.4672515407,
				"z": -3.9445740959,
				"element": "H" 
			},
			{
				"x": 1.2939653572,
				"y": 1.6256497613,
				"z": -6.027873145,
				"element": "H" 
			},
			{
				"x": -2.2770217274,
				"y": 1.0026956112,
				"z": -6.1575684628,
				"element": "H" 
			},
			{
				"x": -0.8766629522,
				"y": 1.2785199286,
				"z": -7.0553487296,
				"element": "H" 
			},
			{
				"x": -2.2844321979,
				"y": 0.9275950137,
				"z": -3.7314780955,
				"element": "H" 
			},
			{
				"x": -0.928692767,
				"y": 0.7748082922,
				"z": -1.6738797463,
				"element": "H" 
			}
		],
		 "valence_orbital": [ 
			{
				"type": "occ",
				"energy": -0.29752,
				"method": "rhf"
			},
			{
				"type": "occ",
				"energy": -0.28352,
				"method": "rhf"
			},
			{
				"type": "occ",
				"energy": -0.25839,
				"method": "rhf"
			},
			{
				"type": "occ",
				"energy": -0.25225,
				"method": "rhf"
			},
			{
				"type": "occ",
				"energy": -0.20973,
				"method": "rhf"
			},
			{
				"type": "unocc",
				"energy": -0.02507,
				"method": "rhf"
			},
			{
				"type": "unocc",
				"energy": -0.00038,
				"method": "rhf"
			},
			{
				"type": "unocc",
				"energy": 0.06743,
				"method": "rhf"
			},
			{
				"type": "unocc",
				"energy": 0.07711,
				"method": "rhf"
			},
			{
				"type": "unocc",
				"energy": 0.08216,
				"method": "rhf"
			}
		],
		"cosmo_sigma_profile": { 
			"-0.025": 0.0,
			"-0.024": 0.0,
			"-0.023": 0.0,
			"-0.022": 0.0,
			"-0.021": 0.0,
			"-0.02": 0.0,
			"-0.019": 0.0,
			"-0.018": 0.0,
			"-0.017": 0.0,
			"-0.016": 0.0,
			"-0.015": 0.0,
			"-0.014": 0.0637421031711,
			"-0.013": 1.74656305073,
			"-0.012": 3.27972575728,
			"-0.011": 2.7977752047,
			"-0.01": 2.93666731121,
			"-0.009": 3.87899434559,
			"-0.008": 2.72195096313,
			"-0.007": 2.81167563957,
			"-0.006": 5.20796605335,
			"-0.005": 6.63192490851,
			"-0.004": 13.17148113,
			"-0.003": 20.2700427787,
			"-0.002": 37.2719398791,
			"-0.001": 55.056843177,
			"0.0": 55.2432976932,
			"0.001": 46.9972463324,
			"0.002": 27.4405368808,
			"0.003": 13.8208693631,
			"0.004": 13.6682772723,
			"0.005": 14.6009382989,
			"0.006": 4.12613363193,
			"0.007": 2.46889327632,
			"0.008": 2.42535933783,
			"0.009": 1.91019509031,
			"0.01": 2.45710023575,
			"0.011": 2.5686069287,
			"0.012": 4.14013410195,
			"0.013": 3.89135233949,
			"0.014": 0.0545830888735,
			"0.015": 0.0,
			"0.016": 0.0,
			"0.017": 0.0,
			"0.018": 0.0,
			"0.019": 0.0,
			"0.02": 0.0,
			"0.021": 0.0,
			"0.022": 0.0,
			"0.023": 0.0,
			"0.024": 0.0,
			"0.025": 0.0
		}
	}
}
