{
	 "smiles": "ClC1=CC2=C(CCC2=O)C=C1", 
	 "Tm": 353.15, 
	 "num_atms": 18, 
	 "gaussian": { 
		 "optdone": 1, 
		 "sigma_profile": "yes", 
		 "theory": "DFT", 
		 "functional": "B3LYP", 
		 "basiset": "6-31G**", 
		 "properties": { 
			 "R2extent": 2801.1911, 
			 "electric_dipole_moment_norm": 4.06861049623, 
			 "electric_quadrupole_moment_norm": 9.1237646298, 
			 "total_energy": -882.601429133, 
			 "HOMO_LUMO_gap": 0.1846, 
			 "cosmo_polarized_energy": -8.72, 
			 "cosmo_cavitation_energy": 23.69, 
			 "cosmo_dispersion_energy": -17.83, 
			 "cosmo_repulsion_energy": 1.44, 
			 "cosmo_total_nonelectrostatic_energy": 7.3, 
			 "SMD_solvation_energy": 3.95 
		},
		"coords": [
			{
				"x": 1.0762307175,
				"y": -0.6692858899,
				"z": 3.6772804938,
				"element": "Cl" 
			},
			{
				"x": 0.7317287807,
				"y": -0.0674598422,
				"z": 2.062179147,
				"element": "C" 
			},
			{
				"x": 1.4750292135,
				"y": 0.9878841908,
				"z": 1.5475182316,
				"element": "C" 
			},
			{
				"x": 1.1586696316,
				"y": 1.4258748643,
				"z": 0.2595198382,
				"element": "C" 
			},
			{
				"x": 0.1413581236,
				"y": 0.8440585687,
				"z": -0.5015211397,
				"element": "C" 
			},
			{
				"x": 0.0089771808,
				"y": 1.5090276888,
				"z": -1.8588790515,
				"element": "C" 
			},
			{
				"x": 1.0960485431,
				"y": 2.6116572543,
				"z": -1.8626248742,
				"element": "C" 
			},
			{
				"x": 1.8043412616,
				"y": 2.5269707278,
				"z": -0.5000680245,
				"element": "C" 
			},
			{
				"x": 2.7201448651,
				"y": 3.231625669,
				"z": -0.1233378692,
				"element": "O" 
			},
			{
				"x": -0.5935932624,
				"y": -0.2152475084,
				"z": 0.0341293297,
				"element": "C" 
			},
			{
				"x": -0.2954458286,
				"y": -0.6697670109,
				"z": 1.3189960468,
				"element": "C" 
			},
			{
				"x": 2.2708499776,
				"y": 1.4607221829,
				"z": 2.1128878015,
				"element": "H" 
			},
			{
				"x": -0.9963253094,
				"y": 1.9234238259,
				"z": -1.9961616404,
				"element": "H" 
			},
			{
				"x": 0.1574205503,
				"y": 0.7837104832,
				"z": -2.6670154264,
				"element": "H" 
			},
			{
				"x": 1.8369464697,
				"y": 2.4783813927,
				"z": -2.6573770443,
				"element": "H" 
			},
			{
				"x": 0.68333427,
				"y": 3.6179330168,
				"z": -1.9867032193,
				"element": "H" 
			},
			{
				"x": -1.3910178353,
				"y": -0.6893796647,
				"z": -0.5317688045,
				"element": "H" 
			},
			{
				"x": -0.8536973494,
				"y": -1.4914299491,
				"z": 1.7548462053,
				"element": "H" 
			}
		],
		 "valence_orbital": [ 
			{
				"type": "occ",
				"energy": -0.32728,
				"method": "rhf"
			},
			{
				"type": "occ",
				"energy": -0.3184,
				"method": "rhf"
			},
			{
				"type": "occ",
				"energy": -0.27396,
				"method": "rhf"
			},
			{
				"type": "occ",
				"energy": -0.25201,
				"method": "rhf"
			},
			{
				"type": "occ",
				"energy": -0.24844,
				"method": "rhf"
			},
			{
				"type": "unocc",
				"energy": -0.06384,
				"method": "rhf"
			},
			{
				"type": "unocc",
				"energy": -0.02425,
				"method": "rhf"
			},
			{
				"type": "unocc",
				"energy": 0.02505,
				"method": "rhf"
			},
			{
				"type": "unocc",
				"energy": 0.03554,
				"method": "rhf"
			},
			{
				"type": "unocc",
				"energy": 0.09175,
				"method": "rhf"
			}
		],
		"cosmo_sigma_profile": { 
			"-0.025": 0.0,
			"-0.024": 0.0,
			"-0.023": 0.0,
			"-0.022": 0.0,
			"-0.021": 0.0,
			"-0.02": 0.0,
			"-0.019": 0.0,
			"-0.018": 0.0,
			"-0.017": 0.0,
			"-0.016": 0.0,
			"-0.015": 0.0,
			"-0.014": 0.0,
			"-0.013": 0.0,
			"-0.012": 0.0,
			"-0.011": 0.0,
			"-0.01": 0.0,
			"-0.009": 0.0,
			"-0.008": 1.30595102787,
			"-0.007": 5.13998167719,
			"-0.006": 9.6572149808,
			"-0.005": 17.7185870808,
			"-0.004": 18.8197707461,
			"-0.003": 14.8946658196,
			"-0.002": 13.7740687533,
			"-0.001": 13.7369083462,
			"0.0": 12.6937327343,
			"0.001": 17.9937859657,
			"0.002": 19.5711665833,
			"0.003": 10.9469628505,
			"0.004": 10.7047308389,
			"0.005": 6.49834817956,
			"0.006": 1.44735434665,
			"0.007": 1.36163219948,
			"0.008": 1.64815843436,
			"0.009": 1.42751083401,
			"0.01": 2.41969428559,
			"0.011": 2.78853188773,
			"0.012": 5.08511743404,
			"0.013": 2.00420703497,
			"0.014": 0.162400027038,
			"0.015": 0.0,
			"0.016": 0.0,
			"0.017": 0.0,
			"0.018": 0.0,
			"0.019": 0.0,
			"0.02": 0.0,
			"0.021": 0.0,
			"0.022": 0.0,
			"0.023": 0.0,
			"0.024": 0.0,
			"0.025": 0.0
		}
	}
}
