{
	 "smiles": "NC1=C(Cl)C=CC=C1Cl", 
	 "Tm": 312.65, 
	 "num_atms": 14, 
	 "gaussian": { 
		 "optdone": 1, 
		 "sigma_profile": "yes", 
		 "theory": "DFT", 
		 "functional": "B3LYP", 
		 "basiset": "6-31G**", 
		 "properties": { 
			 "R2extent": 2190.6369, 
			 "electric_dipole_moment_norm": 0.829658712966, 
			 "electric_quadrupole_moment_norm": 8.45235155386, 
			 "total_energy": -1206.79381802, 
			 "HOMO_LUMO_gap": 0.19908, 
			 "cosmo_polarized_energy": -5.84, 
			 "cosmo_cavitation_energy": 21.12, 
			 "cosmo_dispersion_energy": -16.41, 
			 "cosmo_repulsion_energy": 1.34, 
			 "cosmo_total_nonelectrostatic_energy": 6.05, 
			 "SMD_solvation_energy": 3.01 
		},
		"coords": [
			{
				"x": -0.4900325986,
				"y": 0.8850111311,
				"z": 0.2054164521,
				"element": "N" 
			},
			{
				"x": -0.2105250841,
				"y": 0.0502642787,
				"z": -0.8518971298,
				"element": "C" 
			},
			{
				"x": 0.5147665467,
				"y": -1.1505497002,
				"z": -0.6914734085,
				"element": "C" 
			},
			{
				"x": 1.0040293212,
				"y": -1.6209069713,
				"z": 0.9363818187,
				"element": "Cl" 
			},
			{
				"x": 0.8511034904,
				"y": -1.9721372365,
				"z": -1.7609538133,
				"element": "C" 
			},
			{
				"x": 0.4653289029,
				"y": -1.6200000934,
				"z": -3.0537919872,
				"element": "C" 
			},
			{
				"x": -0.2585995271,
				"y": -0.4461134765,
				"z": -3.2591501026,
				"element": "C" 
			},
			{
				"x": -0.5854682135,
				"y": 0.3624937104,
				"z": -2.1769135366,
				"element": "C" 
			},
			{
				"x": -1.5106375876,
				"y": 1.8373281408,
				"z": -2.4587318795,
				"element": "Cl" 
			},
			{
				"x": -1.2311211118,
				"y": 1.5549780435,
				"z": 0.0644910559,
				"element": "H" 
			},
			{
				"x": -0.4449170243,
				"y": 0.4739900708,
				"z": 1.1257159561,
				"element": "H" 
			},
			{
				"x": 1.4102794883,
				"y": -2.8818188803,
				"z": -1.5729137165,
				"element": "H" 
			},
			{
				"x": 0.7254330793,
				"y": -2.2552197822,
				"z": -3.8934589186,
				"element": "H" 
			},
			{
				"x": -0.5751396818,
				"y": -0.1515192348,
				"z": -4.2534207901,
				"element": "H" 
			}
		],
		 "valence_orbital": [ 
			{
				"type": "occ",
				"energy": -0.32588,
				"method": "rhf"
			},
			{
				"type": "occ",
				"energy": -0.32236,
				"method": "rhf"
			},
			{
				"type": "occ",
				"energy": -0.32017,
				"method": "rhf"
			},
			{
				"type": "occ",
				"energy": -0.24815,
				"method": "rhf"
			},
			{
				"type": "occ",
				"energy": -0.21622,
				"method": "rhf"
			},
			{
				"type": "unocc",
				"energy": -0.01714,
				"method": "rhf"
			},
			{
				"type": "unocc",
				"energy": -0.00043,
				"method": "rhf"
			},
			{
				"type": "unocc",
				"energy": 0.00591,
				"method": "rhf"
			},
			{
				"type": "unocc",
				"energy": 0.05081,
				"method": "rhf"
			},
			{
				"type": "unocc",
				"energy": 0.09162,
				"method": "rhf"
			}
		],
		"cosmo_sigma_profile": { 
			"-0.025": 0.0,
			"-0.024": 0.0,
			"-0.023": 0.0,
			"-0.022": 0.0,
			"-0.021": 0.0,
			"-0.02": 0.0,
			"-0.019": 0.0,
			"-0.018": 0.0,
			"-0.017": 0.0,
			"-0.016": 0.0,
			"-0.015": 0.0,
			"-0.014": 0.0,
			"-0.013": 0.279513227959,
			"-0.012": 1.58195919246,
			"-0.011": 1.858343928,
			"-0.01": 2.20113870313,
			"-0.009": 1.96177497343,
			"-0.008": 2.16153400464,
			"-0.007": 5.15486808463,
			"-0.006": 7.92878399561,
			"-0.005": 8.15782930264,
			"-0.004": 7.65570862609,
			"-0.003": 6.88982064126,
			"-0.002": 8.93540611888,
			"-0.001": 10.9676421278,
			"0.0": 11.6803714451,
			"0.001": 15.1160635982,
			"0.002": 22.4554908715,
			"0.003": 22.5381281814,
			"0.004": 21.7394085038,
			"0.005": 10.4068998323,
			"0.006": 0.722725429064,
			"0.007": 0.590681991006,
			"0.008": 0.989915634982,
			"0.009": 0.37260553504,
			"0.01": 0.642994797654,
			"0.011": 0.655799492664,
			"0.012": 0.0991067007356,
			"0.013": 0.0,
			"0.014": 0.0,
			"0.015": 0.0,
			"0.016": 0.0,
			"0.017": 0.0,
			"0.018": 0.0,
			"0.019": 0.0,
			"0.02": 0.0,
			"0.021": 0.0,
			"0.022": 0.0,
			"0.023": 0.0,
			"0.024": 0.0,
			"0.025": 0.0
		}
	}
}
