{
	 "smiles": "CN1N=CC(C=O)=C1N", 
	 "Tm": 435.15, 
	 "num_atms": 16, 
	 "gaussian": { 
		 "optdone": 1, 
		 "sigma_profile": "yes", 
		 "theory": "DFT", 
		 "functional": "B3LYP", 
		 "basiset": "6-31G**", 
		 "properties": { 
			 "R2extent": 1316.9137, 
			 "electric_dipole_moment_norm": 3.26247701448, 
			 "electric_quadrupole_moment_norm": 14.7339498089, 
			 "total_energy": -434.207917351, 
			 "HOMO_LUMO_gap": 0.189, 
			 "cosmo_polarized_energy": -13.06, 
			 "cosmo_cavitation_energy": 20.13, 
			 "cosmo_dispersion_energy": -15.02, 
			 "cosmo_repulsion_energy": 1.23, 
			 "cosmo_total_nonelectrostatic_energy": 6.34, 
			 "SMD_solvation_energy": 3.72 
		},
		"coords": [
			{
				"x": 1.1076340965,
				"y": -1.7263634662,
				"z": -0.5340942442,
				"element": "C" 
			},
			{
				"x": 0.187867932,
				"y": -0.642471562,
				"z": -0.2618794337,
				"element": "N" 
			},
			{
				"x": -0.859415138,
				"y": -0.8288892343,
				"z": 0.6244601744,
				"element": "N" 
			},
			{
				"x": -1.4931305882,
				"y": 0.3269925158,
				"z": 0.6407407835,
				"element": "C" 
			},
			{
				"x": -0.8863848239,
				"y": 1.2943776773,
				"z": -0.2106554944,
				"element": "C" 
			},
			{
				"x": -1.185880012,
				"y": 2.675326571,
				"z": -0.4686141883,
				"element": "C" 
			},
			{
				"x": -0.5286673778,
				"y": 3.3893778838,
				"z": -1.231979859,
				"element": "O" 
			},
			{
				"x": 0.2088450727,
				"y": 0.6078503645,
				"z": -0.7727067009,
				"element": "C" 
			},
			{
				"x": 1.0956103421,
				"y": 1.0638401631,
				"z": -1.7070674006,
				"element": "N" 
			},
			{
				"x": 1.3201265767,
				"y": -1.7746827393,
				"z": -1.6065918536,
				"element": "H" 
			},
			{
				"x": 2.0485996553,
				"y": -1.6108180793,
				"z": 0.017288307,
				"element": "H" 
			},
			{
				"x": 0.6255490627,
				"y": -2.651170733,
				"z": -0.2187167243,
				"element": "H" 
			},
			{
				"x": -2.3721205277,
				"y": 0.4468783805,
				"z": 1.2616685059,
				"element": "H" 
			},
			{
				"x": -2.0587849734,
				"y": 3.0959771464,
				"z": 0.0720346743,
				"element": "H" 
			},
			{
				"x": 0.9810760538,
				"y": 2.0627535206,
				"z": -1.8650641819,
				"element": "H" 
			},
			{
				"x": 2.0466746493,
				"y": 0.7263215908,
				"z": -1.6667223641,
				"element": "H" 
			}
		],
		 "valence_orbital": [ 
			{
				"type": "occ",
				"energy": -0.33633,
				"method": "rhf"
			},
			{
				"type": "occ",
				"energy": -0.29476,
				"method": "rhf"
			},
			{
				"type": "occ",
				"energy": -0.25604,
				"method": "rhf"
			},
			{
				"type": "occ",
				"energy": -0.24675,
				"method": "rhf"
			},
			{
				"type": "occ",
				"energy": -0.21804,
				"method": "rhf"
			},
			{
				"type": "unocc",
				"energy": -0.02904,
				"method": "rhf"
			},
			{
				"type": "unocc",
				"energy": 0.02484,
				"method": "rhf"
			},
			{
				"type": "unocc",
				"energy": 0.06609,
				"method": "rhf"
			},
			{
				"type": "unocc",
				"energy": 0.1118,
				"method": "rhf"
			},
			{
				"type": "unocc",
				"energy": 0.11932,
				"method": "rhf"
			}
		],
		"cosmo_sigma_profile": { 
			"-0.025": 0.0,
			"-0.024": 0.0,
			"-0.023": 0.0,
			"-0.022": 0.0,
			"-0.021": 0.0,
			"-0.02": 0.0,
			"-0.019": 0.0,
			"-0.018": 0.0,
			"-0.017": 0.0,
			"-0.016": 0.0,
			"-0.015": 0.175982123711,
			"-0.014": 1.26680026704,
			"-0.013": 1.07487414044,
			"-0.012": 1.21382454039,
			"-0.011": 1.98315469077,
			"-0.01": 2.18020361975,
			"-0.009": 2.48694402592,
			"-0.008": 3.24958572564,
			"-0.007": 6.35059281972,
			"-0.006": 13.0187974354,
			"-0.005": 11.8420823383,
			"-0.004": 11.9460497652,
			"-0.003": 11.883080225,
			"-0.002": 6.94952209691,
			"-0.001": 7.15408469041,
			"0.0": 7.24121213456,
			"0.001": 7.7482745882,
			"0.002": 11.727148264,
			"0.003": 8.71559100137,
			"0.004": 5.60898162056,
			"0.005": 4.27565678888,
			"0.006": 3.64057117392,
			"0.007": 3.66592691562,
			"0.008": 3.57359134122,
			"0.009": 3.42349870982,
			"0.01": 3.94547806925,
			"0.011": 3.25144737137,
			"0.012": 3.87324694445,
			"0.013": 3.07178277563,
			"0.014": 2.55720492365,
			"0.015": 1.00982723042,
			"0.016": 0.241032905549,
			"0.017": 0.0,
			"0.018": 0.0,
			"0.019": 0.0,
			"0.02": 0.0,
			"0.021": 0.0,
			"0.022": 0.0,
			"0.023": 0.0,
			"0.024": 0.0,
			"0.025": 0.0
		}
	}
}
