{
	 "smiles": "NC1=C(C=C(Cl)N=C1Cl)C(F)(F)F", 
	 "Tm": 323.65, 
	 "num_atms": 16, 
	 "gaussian": { 
		 "optdone": 1, 
		 "sigma_profile": "yes", 
		 "theory": "DFT", 
		 "functional": "B3LYP", 
		 "basiset": "6-31G**", 
		 "properties": { 
			 "R2extent": 3559.8454, 
			 "electric_dipole_moment_norm": 3.12847033708, 
			 "electric_quadrupole_moment_norm": 11.6825682296, 
			 "total_energy": -1559.86122087, 
			 "HOMO_LUMO_gap": 0.17291, 
			 "cosmo_polarized_energy": -8.25, 
			 "cosmo_cavitation_energy": 25.41, 
			 "cosmo_dispersion_energy": -18.96, 
			 "cosmo_repulsion_energy": 1.45, 
			 "cosmo_total_nonelectrostatic_energy": 7.91, 
			 "SMD_solvation_energy": 3.47 
		},
		"coords": [
			{
				"x": -2.1144826784,
				"y": -0.174508196,
				"z": 0.6451389517,
				"element": "N" 
			},
			{
				"x": -0.8228492768,
				"y": -0.6162554799,
				"z": 0.5374314791,
				"element": "C" 
			},
			{
				"x": 0.2742729607,
				"y": 0.0274580372,
				"z": 1.1573709314,
				"element": "C" 
			},
			{
				"x": 1.569588126,
				"y": -0.450848068,
				"z": 0.9749336991,
				"element": "C" 
			},
			{
				"x": 1.7469564112,
				"y": -1.5708075727,
				"z": 0.1683594209,
				"element": "C" 
			},
			{
				"x": 3.3603103055,
				"y": -2.2116184853,
				"z": -0.0863832454,
				"element": "Cl" 
			},
			{
				"x": 0.7437067981,
				"y": -2.1937740222,
				"z": -0.4287601043,
				"element": "N" 
			},
			{
				"x": -0.4756204876,
				"y": -1.7401393833,
				"z": -0.2525850181,
				"element": "C" 
			},
			{
				"x": -1.7722353639,
				"y": -2.6153049601,
				"z": -1.0674131213,
				"element": "Cl" 
			},
			{
				"x": 0.0479083073,
				"y": 1.26515265,
				"z": 1.9855912303,
				"element": "C" 
			},
			{
				"x": -0.9077751177,
				"y": 1.0568451793,
				"z": 2.9354012525,
				"element": "F" 
			},
			{
				"x": -0.3864996165,
				"y": 2.2960984144,
				"z": 1.2314089301,
				"element": "F" 
			},
			{
				"x": 1.1607944217,
				"y": 1.6636231766,
				"z": 2.623146784,
				"element": "F" 
			},
			{
				"x": -2.8362756788,
				"y": -0.8012510925,
				"z": 0.3226529199,
				"element": "H" 
			},
			{
				"x": -2.3517384801,
				"y": 0.402784635,
				"z": 1.4365731351,
				"element": "H" 
			},
			{
				"x": 2.4101393694,
				"y": 0.0377451675,
				"z": 1.4489327549,
				"element": "H" 
			}
		],
		 "valence_orbital": [ 
			{
				"type": "occ",
				"energy": -0.3232,
				"method": "rhf"
			},
			{
				"type": "occ",
				"energy": -0.32262,
				"method": "rhf"
			},
			{
				"type": "occ",
				"energy": -0.30427,
				"method": "rhf"
			},
			{
				"type": "occ",
				"energy": -0.30142,
				"method": "rhf"
			},
			{
				"type": "occ",
				"energy": -0.23563,
				"method": "rhf"
			},
			{
				"type": "unocc",
				"energy": -0.06272,
				"method": "rhf"
			},
			{
				"type": "unocc",
				"energy": -0.03011,
				"method": "rhf"
			},
			{
				"type": "unocc",
				"energy": 0.00937,
				"method": "rhf"
			},
			{
				"type": "unocc",
				"energy": 0.03491,
				"method": "rhf"
			},
			{
				"type": "unocc",
				"energy": 0.07654,
				"method": "rhf"
			}
		],
		"cosmo_sigma_profile": { 
			"-0.025": 0.0,
			"-0.024": 0.0,
			"-0.023": 0.0,
			"-0.022": 0.0,
			"-0.021": 0.0,
			"-0.02": 0.0,
			"-0.019": 0.0,
			"-0.018": 0.0,
			"-0.017": 0.0,
			"-0.016": 0.0,
			"-0.015": 0.0,
			"-0.014": 0.374473775034,
			"-0.013": 1.9628576658,
			"-0.012": 1.66239781824,
			"-0.011": 1.63846291029,
			"-0.01": 2.31622103908,
			"-0.009": 2.55875675194,
			"-0.008": 3.03138898407,
			"-0.007": 3.87343442865,
			"-0.006": 3.65177148223,
			"-0.005": 4.91409886222,
			"-0.004": 6.94226975162,
			"-0.003": 13.066789913,
			"-0.002": 18.1520051369,
			"-0.001": 20.8047143104,
			"0.0": 17.4507474648,
			"0.001": 20.8487814995,
			"0.002": 33.6341556435,
			"0.003": 18.4000645134,
			"0.004": 15.7798520029,
			"0.005": 6.65858080474,
			"0.006": 3.67117756477,
			"0.007": 2.4684164111,
			"0.008": 1.64922583803,
			"0.009": 1.84328661082,
			"0.01": 1.04322224312,
			"0.011": 0.716640511987,
			"0.012": 0.49132785105,
			"0.013": 0.0,
			"0.014": 0.0,
			"0.015": 0.0,
			"0.016": 0.0,
			"0.017": 0.0,
			"0.018": 0.0,
			"0.019": 0.0,
			"0.02": 0.0,
			"0.021": 0.0,
			"0.022": 0.0,
			"0.023": 0.0,
			"0.024": 0.0,
			"0.025": 0.0
		}
	}
}
