{
	 "smiles": "CCCCCCCC(=O)CC", 
	 "Tm": 275.65, 
	 "num_atms": 31, 
	 "gaussian": { 
		 "optdone": 1, 
		 "sigma_profile": "yes", 
		 "theory": "DFT", 
		 "functional": "B3LYP", 
		 "basiset": "6-31G**", 
		 "properties": { 
			 "R2extent": 3756.9412, 
			 "electric_dipole_moment_norm": 3.07009686004, 
			 "electric_quadrupole_moment_norm": 10.392985954, 
			 "total_energy": -468.36516061, 
			 "HOMO_LUMO_gap": 0.22498, 
			 "cosmo_polarized_energy": -6.91, 
			 "cosmo_cavitation_energy": 32.89, 
			 "cosmo_dispersion_energy": -22.3, 
			 "cosmo_repulsion_energy": 1.87, 
			 "cosmo_total_nonelectrostatic_energy": 12.46, 
			 "SMD_solvation_energy": 5.51 
		},
		"coords": [
			{
				"x": 2.3984906854,
				"y": 2.0697679166,
				"z": -4.4388030855,
				"element": "C" 
			},
			{
				"x": 0.9048278983,
				"y": 1.7228504852,
				"z": -4.4220064993,
				"element": "C" 
			},
			{
				"x": 0.425517986,
				"y": 1.0330197415,
				"z": -3.1335634864,
				"element": "C" 
			},
			{
				"x": 1.0183339175,
				"y": -0.3662301754,
				"z": -2.9065234031,
				"element": "C" 
			},
			{
				"x": 0.4298157223,
				"y": -1.1217959906,
				"z": -1.7032246308,
				"element": "C" 
			},
			{
				"x": 0.7541493785,
				"y": -0.4991832006,
				"z": -0.3372517754,
				"element": "C" 
			},
			{
				"x": 0.2000411372,
				"y": -1.3357800156,
				"z": 0.8327606281,
				"element": "C" 
			},
			{
				"x": 0.5751907233,
				"y": -0.804873237,
				"z": 2.2131922409,
				"element": "C" 
			},
			{
				"x": 1.2077731669,
				"y": -1.4921650991,
				"z": 2.9950000804,
				"element": "O" 
			},
			{
				"x": 0.1502455636,
				"y": 0.612988945,
				"z": 2.5902115509,
				"element": "C" 
			},
			{
				"x": -1.3558306767,
				"y": 0.8868367353,
				"z": 2.4459150475,
				"element": "C" 
			},
			{
				"x": 2.663664287,
				"y": 2.7118781708,
				"z": -3.5905111382,
				"element": "H" 
			},
			{
				"x": 2.6678949407,
				"y": 2.6045430035,
				"z": -5.3555189772,
				"element": "H" 
			},
			{
				"x": 3.0274303073,
				"y": 1.1752824335,
				"z": -4.3854352195,
				"element": "H" 
			},
			{
				"x": 0.3245503716,
				"y": 2.6437137829,
				"z": -4.5628511495,
				"element": "H" 
			},
			{
				"x": 0.6687754121,
				"y": 1.0817115973,
				"z": -5.2825540655,
				"element": "H" 
			},
			{
				"x": -0.6698384807,
				"y": 0.948274723,
				"z": -3.1650717406,
				"element": "H" 
			},
			{
				"x": 0.6560543541,
				"y": 1.6825329286,
				"z": -2.2781049244,
				"element": "H" 
			},
			{
				"x": 2.1075393972,
				"y": -0.2980246448,
				"z": -2.7858506759,
				"element": "H" 
			},
			{
				"x": 0.8509046745,
				"y": -0.9675072815,
				"z": -3.8107328816,
				"element": "H" 
			},
			{
				"x": -0.6615220548,
				"y": -1.1940164538,
				"z": -1.8170910783,
				"element": "H" 
			},
			{
				"x": 0.8047389318,
				"y": -2.1536845475,
				"z": -1.7148798014,
				"element": "H" 
			},
			{
				"x": 0.3503965763,
				"y": 0.5189195243,
				"z": -0.2875965251,
				"element": "H" 
			},
			{
				"x": 1.8437426227,
				"y": -0.4066536097,
				"z": -0.231930003,
				"element": "H" 
			},
			{
				"x": -0.8952965763,
				"y": -1.3791112903,
				"z": 0.7544846809,
				"element": "H" 
			},
			{
				"x": 0.5734121285,
				"y": -2.3628662606,
				"z": 0.7794347018,
				"element": "H" 
			},
			{
				"x": 0.477995839,
				"y": 0.7722683597,
				"z": 3.6210920098,
				"element": "H" 
			},
			{
				"x": 0.7084191673,
				"y": 1.3176777925,
				"z": 1.958492162,
				"element": "H" 
			},
			{
				"x": -1.6897998645,
				"y": 0.8064878568,
				"z": 1.4067841605,
				"element": "H" 
			},
			{
				"x": -1.9454317819,
				"y": 0.1850184604,
				"z": 3.0447296492,
				"element": "H" 
			},
			{
				"x": -1.5929857542,
				"y": 1.8977193496,
				"z": 2.7907041487,
				"element": "H" 
			}
		],
		 "valence_orbital": [ 
			{
				"type": "occ",
				"energy": -0.33357,
				"method": "rhf"
			},
			{
				"type": "occ",
				"energy": -0.3198,
				"method": "rhf"
			},
			{
				"type": "occ",
				"energy": -0.31754,
				"method": "rhf"
			},
			{
				"type": "occ",
				"energy": -0.31091,
				"method": "rhf"
			},
			{
				"type": "occ",
				"energy": -0.23413,
				"method": "rhf"
			},
			{
				"type": "unocc",
				"energy": -0.00915,
				"method": "rhf"
			},
			{
				"type": "unocc",
				"energy": 0.07081,
				"method": "rhf"
			},
			{
				"type": "unocc",
				"energy": 0.08886,
				"method": "rhf"
			},
			{
				"type": "unocc",
				"energy": 0.10528,
				"method": "rhf"
			},
			{
				"type": "unocc",
				"energy": 0.11246,
				"method": "rhf"
			}
		],
		"cosmo_sigma_profile": { 
			"-0.025": 0.0,
			"-0.024": 0.0,
			"-0.023": 0.0,
			"-0.022": 0.0,
			"-0.021": 0.0,
			"-0.02": 0.0,
			"-0.019": 0.0,
			"-0.018": 0.0,
			"-0.017": 0.0,
			"-0.016": 0.0,
			"-0.015": 0.0,
			"-0.014": 0.0,
			"-0.013": 0.0,
			"-0.012": 0.0,
			"-0.011": 0.0,
			"-0.01": 0.0,
			"-0.009": 0.0,
			"-0.008": 0.0,
			"-0.007": 0.0,
			"-0.006": 0.0,
			"-0.005": 1.43116040116,
			"-0.004": 13.0630438218,
			"-0.003": 27.7843794292,
			"-0.002": 46.3065077247,
			"-0.001": 47.8377211901,
			"0.0": 46.9684751821,
			"0.001": 33.4220007749,
			"0.002": 11.4111034559,
			"0.003": 1.87173930873,
			"0.004": 1.18198142739,
			"0.005": 1.73166879707,
			"0.006": 1.58894131153,
			"0.007": 0.984532406779,
			"0.008": 1.66205669677,
			"0.009": 2.32660602269,
			"0.01": 1.64693162777,
			"0.011": 2.59503432301,
			"0.012": 4.20908185901,
			"0.013": 3.7671537057,
			"0.014": 0.826068695631,
			"0.015": 0.0,
			"0.016": 0.0,
			"0.017": 0.0,
			"0.018": 0.0,
			"0.019": 0.0,
			"0.02": 0.0,
			"0.021": 0.0,
			"0.022": 0.0,
			"0.023": 0.0,
			"0.024": 0.0,
			"0.025": 0.0
		}
	}
}
