{
	 "smiles": "CC1=C(C(O)=O)C(O)=CC=C1", 
	 "Tm": 446.15, 
	 "num_atms": 19, 
	 "gaussian": { 
		 "optdone": 1, 
		 "sigma_profile": "yes", 
		 "theory": "DFT", 
		 "functional": "B3LYP", 
		 "basiset": "6-31G**", 
		 "properties": { 
			 "R2extent": 1844.077, 
			 "electric_dipole_moment_norm": 6.07007826391, 
			 "electric_quadrupole_moment_norm": 13.4103789767, 
			 "total_energy": -535.357177552, 
			 "HOMO_LUMO_gap": 0.20021, 
			 "cosmo_polarized_energy": -16.09, 
			 "cosmo_cavitation_energy": 22.42, 
			 "cosmo_dispersion_energy": -17.19, 
			 "cosmo_repulsion_energy": 1.36, 
			 "cosmo_total_nonelectrostatic_energy": 6.6, 
			 "SMD_solvation_energy": 5.24 
		},
		"coords": [
			{
				"x": -1.3438459105,
				"y": -0.6828014951,
				"z": -2.4390922964,
				"element": "C" 
			},
			{
				"x": -0.2821296843,
				"y": -0.3925547562,
				"z": -1.403994148,
				"element": "C" 
			},
			{
				"x": -0.2900646503,
				"y": 0.7623909756,
				"z": -0.5734155782,
				"element": "C" 
			},
			{
				"x": -1.4109937677,
				"y": 1.7691135381,
				"z": -0.7021574325,
				"element": "C" 
			},
			{
				"x": -1.2878036538,
				"y": 2.9495787389,
				"z": -0.0634408452,
				"element": "O" 
			},
			{
				"x": -2.4030041911,
				"y": 1.5610256048,
				"z": -1.3691049424,
				"element": "O" 
			},
			{
				"x": 0.768628261,
				"y": 0.9132043935,
				"z": 0.3516390609,
				"element": "C" 
			},
			{
				"x": 0.776283373,
				"y": 2.0239543644,
				"z": 1.1700828614,
				"element": "O" 
			},
			{
				"x": 1.7946134085,
				"y": -0.022482381,
				"z": 0.4684603219,
				"element": "C" 
			},
			{
				"x": 1.7883963677,
				"y": -1.1432187406,
				"z": -0.35284394,
				"element": "C" 
			},
			{
				"x": 0.7619907271,
				"y": -1.3182837076,
				"z": -1.2757477605,
				"element": "C" 
			},
			{
				"x": -1.4663275343,
				"y": 0.1470527964,
				"z": -3.1386386871,
				"element": "H" 
			},
			{
				"x": -2.3236419624,
				"y": -0.8240954433,
				"z": -1.9774054535,
				"element": "H" 
			},
			{
				"x": -1.0767625875,
				"y": -1.5847187277,
				"z": -2.9967627939,
				"element": "H" 
			},
			{
				"x": -0.4809041522,
				"y": 2.9674046798,
				"z": 0.4810530127,
				"element": "H" 
			},
			{
				"x": 1.5859463091,
				"y": 2.0462033315,
				"z": 1.695185813,
				"element": "H" 
			},
			{
				"x": 2.586142491,
				"y": 0.131242974,
				"z": 1.1986629528,
				"element": "H" 
			},
			{
				"x": 2.5841044026,
				"y": -1.8776826852,
				"z": -0.2717849685,
				"element": "H" 
			},
			{
				"x": 0.7630727542,
				"y": -2.1941334604,
				"z": -1.9168951765,
				"element": "H" 
			}
		],
		 "valence_orbital": [ 
			{
				"type": "occ",
				"energy": -0.34257,
				"method": "rhf"
			},
			{
				"type": "occ",
				"energy": -0.29616,
				"method": "rhf"
			},
			{
				"type": "occ",
				"energy": -0.26224,
				"method": "rhf"
			},
			{
				"type": "occ",
				"energy": -0.25591,
				"method": "rhf"
			},
			{
				"type": "occ",
				"energy": -0.24465,
				"method": "rhf"
			},
			{
				"type": "unocc",
				"energy": -0.04444,
				"method": "rhf"
			},
			{
				"type": "unocc",
				"energy": -0.00693,
				"method": "rhf"
			},
			{
				"type": "unocc",
				"energy": 0.03972,
				"method": "rhf"
			},
			{
				"type": "unocc",
				"energy": 0.05849,
				"method": "rhf"
			},
			{
				"type": "unocc",
				"energy": 0.08312,
				"method": "rhf"
			}
		],
		"cosmo_sigma_profile": { 
			"-0.025": 0.0,
			"-0.024": 0.0,
			"-0.023": 0.0,
			"-0.022": 0.0,
			"-0.021": 0.0,
			"-0.02": 0.301703255618,
			"-0.019": 1.19513294562,
			"-0.018": 0.959788292808,
			"-0.017": 1.00277183672,
			"-0.016": 1.29369930836,
			"-0.015": 0.538373011139,
			"-0.014": 0.677673972834,
			"-0.013": 1.31973857014,
			"-0.012": 1.3578568515,
			"-0.011": 1.10659117102,
			"-0.01": 0.6300460838,
			"-0.009": 1.61396113977,
			"-0.008": 2.28232341922,
			"-0.007": 4.33617904681,
			"-0.006": 6.73865174803,
			"-0.005": 9.57593499077,
			"-0.004": 8.81754479398,
			"-0.003": 11.3486278252,
			"-0.002": 13.1966976203,
			"-0.001": 13.9474024485,
			"0.0": 16.3453669628,
			"0.001": 14.6988356438,
			"0.002": 11.9986505995,
			"0.003": 12.2535971529,
			"0.004": 10.6910982695,
			"0.005": 3.33161959314,
			"0.006": 2.62013491334,
			"0.007": 2.25328136464,
			"0.008": 2.43611813184,
			"0.009": 2.59492246013,
			"0.01": 3.31537121524,
			"0.011": 3.38080591631,
			"0.012": 5.08480859008,
			"0.013": 3.63744375631,
			"0.014": 1.61644116529,
			"0.015": 0.0788792389213,
			"0.016": 0.0,
			"0.017": 0.0,
			"0.018": 0.0,
			"0.019": 0.0,
			"0.02": 0.0,
			"0.021": 0.0,
			"0.022": 0.0,
			"0.023": 0.0,
			"0.024": 0.0,
			"0.025": 0.0
		}
	}
}
