{
	 "smiles": "CCCC(=O)NC1=CC=C(O)C(=C1)C(C)=O", 
	 "Tm": 398.15, 
	 "num_atms": 31, 
	 "gaussian": { 
		 "optdone": 1, 
		 "sigma_profile": "yes", 
		 "theory": "DFT", 
		 "functional": "B3LYP", 
		 "basiset": "6-31G**", 
		 "properties": { 
			 "R2extent": 5851.4641, 
			 "electric_dipole_moment_norm": 1.83043047123, 
			 "electric_quadrupole_moment_norm": 22.5093763354, 
			 "total_energy": -746.766149847, 
			 "HOMO_LUMO_gap": 0.15452, 
			 "cosmo_polarized_energy": -17.93, 
			 "cosmo_cavitation_energy": 34.37, 
			 "cosmo_dispersion_energy": -25.05, 
			 "cosmo_repulsion_energy": 1.96, 
			 "cosmo_total_nonelectrostatic_energy": 11.28, 
			 "SMD_solvation_energy": 6.89 
		},
		"coords": [
			{
				"x": -0.8179316165,
				"y": -3.9992111162,
				"z": -2.1148874448,
				"element": "C" 
			},
			{
				"x": 0.1928131591,
				"y": -4.211887326,
				"z": -0.9838161305,
				"element": "C" 
			},
			{
				"x": 0.0410742053,
				"y": -3.2077500558,
				"z": 0.1659133686,
				"element": "C" 
			},
			{
				"x": 0.4407851071,
				"y": -1.7881999587,
				"z": -0.2431607839,
				"element": "C" 
			},
			{
				"x": 1.3198531926,
				"y": -1.5730876049,
				"z": -1.069060876,
				"element": "O" 
			},
			{
				"x": -0.2466614748,
				"y": -0.7968622775,
				"z": 0.4194012211,
				"element": "N" 
			},
			{
				"x": -0.0835055854,
				"y": 0.6041984151,
				"z": 0.3365058382,
				"element": "C" 
			},
			{
				"x": 0.8550365546,
				"y": 1.2269676325,
				"z": -0.5112347355,
				"element": "C" 
			},
			{
				"x": 0.9466021959,
				"y": 2.6090168479,
				"z": -0.5287251207,
				"element": "C" 
			},
			{
				"x": 0.1295474761,
				"y": 3.4178969483,
				"z": 0.2747057753,
				"element": "C" 
			},
			{
				"x": 0.3460212063,
				"y": 4.7577966763,
				"z": 0.1380235996,
				"element": "O" 
			},
			{
				"x": -0.817797841,
				"y": 2.8093681396,
				"z": 1.1305758689,
				"element": "C" 
			},
			{
				"x": -0.8942568741,
				"y": 1.4025369028,
				"z": 1.1334488256,
				"element": "C" 
			},
			{
				"x": -1.7709239147,
				"y": 3.4994028036,
				"z": 2.0563086613,
				"element": "C" 
			},
			{
				"x": -1.8053229946,
				"y": 5.0199175726,
				"z": 2.161832396,
				"element": "C" 
			},
			{
				"x": -2.5438775558,
				"y": 2.8507939242,
				"z": 2.7486268901,
				"element": "O" 
			},
			{
				"x": -0.6842909175,
				"y": -4.7445145283,
				"z": -2.9053243658,
				"element": "H" 
			},
			{
				"x": -0.6959116187,
				"y": -3.0105943367,
				"z": -2.5682449949,
				"element": "H" 
			},
			{
				"x": -1.8492201621,
				"y": -4.0823917041,
				"z": -1.7515011062,
				"element": "H" 
			},
			{
				"x": 0.0896627058,
				"y": -5.2247816945,
				"z": -0.5770793829,
				"element": "H" 
			},
			{
				"x": 1.2099995801,
				"y": -4.1237168593,
				"z": -1.3780609338,
				"element": "H" 
			},
			{
				"x": 0.6996749425,
				"y": -3.4952218551,
				"z": 0.9969264543,
				"element": "H" 
			},
			{
				"x": -0.9836653611,
				"y": -3.2244609476,
				"z": 0.5599956258,
				"element": "H" 
			},
			{
				"x": -0.9561099203,
				"y": -1.1028252187,
				"z": 1.0698275966,
				"element": "H" 
			},
			{
				"x": 1.4916896935,
				"y": 0.6179049691,
				"z": -1.1373898213,
				"element": "H" 
			},
			{
				"x": 1.6638453992,
				"y": 3.103423941,
				"z": -1.1754461129,
				"element": "H" 
			},
			{
				"x": -0.2395998107,
				"y": 5.2651836098,
				"z": 0.7089936638,
				"element": "H" 
			},
			{
				"x": -1.6302202703,
				"y": 0.9629514984,
				"z": 1.800601576,
				"element": "H" 
			},
			{
				"x": -2.0665305607,
				"y": 5.4840973316,
				"z": 1.201615273,
				"element": "H" 
			},
			{
				"x": -2.5694263781,
				"y": 5.2940313715,
				"z": 2.8900443372,
				"element": "H" 
			},
			{
				"x": -0.8437525617,
				"y": 5.4210168991,
				"z": 2.5085848378,
				"element": "H" 
			}
		],
		 "valence_orbital": [ 
			{
				"type": "occ",
				"energy": -0.29179,
				"method": "rhf"
			},
			{
				"type": "occ",
				"energy": -0.26055,
				"method": "rhf"
			},
			{
				"type": "occ",
				"energy": -0.25892,
				"method": "rhf"
			},
			{
				"type": "occ",
				"energy": -0.25342,
				"method": "rhf"
			},
			{
				"type": "occ",
				"energy": -0.21193,
				"method": "rhf"
			},
			{
				"type": "unocc",
				"energy": -0.05741,
				"method": "rhf"
			},
			{
				"type": "unocc",
				"energy": -0.00885,
				"method": "rhf"
			},
			{
				"type": "unocc",
				"energy": 0.02249,
				"method": "rhf"
			},
			{
				"type": "unocc",
				"energy": 0.05452,
				"method": "rhf"
			},
			{
				"type": "unocc",
				"energy": 0.06652,
				"method": "rhf"
			}
		],
		"cosmo_sigma_profile": { 
			"-0.025": 0.0,
			"-0.024": 0.0,
			"-0.023": 0.0,
			"-0.022": 0.0,
			"-0.021": 0.0,
			"-0.02": 0.0,
			"-0.019": 0.0,
			"-0.018": 0.0,
			"-0.017": 0.0,
			"-0.016": 0.0,
			"-0.015": 0.872912329183,
			"-0.014": 2.87927310789,
			"-0.013": 1.89803725292,
			"-0.012": 2.18517916673,
			"-0.011": 4.73237171386,
			"-0.01": 3.88021343229,
			"-0.009": 3.40366744517,
			"-0.008": 3.673165638,
			"-0.007": 6.09807208201,
			"-0.006": 8.78051166836,
			"-0.005": 12.0730305552,
			"-0.004": 13.4526345105,
			"-0.003": 19.0188291347,
			"-0.002": 25.3228803919,
			"-0.001": 21.6147658372,
			"0.0": 20.6227895316,
			"0.001": 21.3054680357,
			"0.002": 21.9680800822,
			"0.003": 21.200988376,
			"0.004": 10.543269229,
			"0.005": 5.34217271563,
			"0.006": 4.0067373825,
			"0.007": 5.50021163804,
			"0.008": 5.06367493397,
			"0.009": 4.96995474542,
			"0.01": 4.77494192069,
			"0.011": 5.92186942102,
			"0.012": 6.02887288963,
			"0.013": 3.53727162476,
			"0.014": 0.909814007049,
			"0.015": 0.0,
			"0.016": 0.0,
			"0.017": 0.0,
			"0.018": 0.0,
			"0.019": 0.0,
			"0.02": 0.0,
			"0.021": 0.0,
			"0.022": 0.0,
			"0.023": 0.0,
			"0.024": 0.0,
			"0.025": 0.0
		}
	}
}
