{
	 "smiles": "O=C1C2=C(CCCC2)OC2=C1CCCC2", 
	 "Tm": 403.15, 
	 "num_atms": 31, 
	 "gaussian": { 
		 "optdone": 1, 
		 "sigma_profile": "yes", 
		 "theory": "DFT", 
		 "functional": "B3LYP", 
		 "basiset": "6-31G**", 
		 "properties": { 
			 "R2extent": 3777.94, 
			 "electric_dipole_moment_norm": 3.81620566008, 
			 "electric_quadrupole_moment_norm": 14.8976346273, 
			 "total_energy": -655.496618759, 
			 "HOMO_LUMO_gap": 0.2004, 
			 "cosmo_polarized_energy": -10.12, 
			 "cosmo_cavitation_energy": 31.12, 
			 "cosmo_dispersion_energy": -23.63, 
			 "cosmo_repulsion_energy": 1.86, 
			 "cosmo_total_nonelectrostatic_energy": 9.35, 
			 "SMD_solvation_energy": 4.57 
		},
		"coords": [
			{
				"x": -0.1622131707,
				"y": 1.2190487892,
				"z": -2.7364078603,
				"element": "O" 
			},
			{
				"x": 0.0720149221,
				"y": 0.998330195,
				"z": -1.5424241636,
				"element": "C" 
			},
			{
				"x": -0.7082979944,
				"y": 0.0378688582,
				"z": -0.7518191794,
				"element": "C" 
			},
			{
				"x": -0.402841728,
				"y": -0.1718888436,
				"z": 0.5504978711,
				"element": "C" 
			},
			{
				"x": -1.1185856865,
				"y": -1.1233870076,
				"z": 1.4670154834,
				"element": "C" 
			},
			{
				"x": -2.0090958319,
				"y": -2.0970439001,
				"z": 0.6789212411,
				"element": "C" 
			},
			{
				"x": -2.7934731086,
				"y": -1.3580722293,
				"z": -0.4142516121,
				"element": "C" 
			},
			{
				"x": -1.8431680201,
				"y": -0.6978197142,
				"z": -1.4221907575,
				"element": "C" 
			},
			{
				"x": 0.6119889038,
				"y": 0.4885522421,
				"z": 1.1821489208,
				"element": "O" 
			},
			{
				"x": 1.3620778962,
				"y": 1.3995254355,
				"z": 0.4947221218,
				"element": "C" 
			},
			{
				"x": 1.1430648798,
				"y": 1.6862767707,
				"z": -0.8103230115,
				"element": "C" 
			},
			{
				"x": 1.9807354365,
				"y": 2.705952352,
				"z": -1.543294454,
				"element": "C" 
			},
			{
				"x": 2.7829661456,
				"y": 3.6031129797,
				"z": -0.5911979632,
				"element": "C" 
			},
			{
				"x": 3.4639385895,
				"y": 2.7720173667,
				"z": 0.5051447528,
				"element": "C" 
			},
			{
				"x": 2.4217509434,
				"y": 2.0278821449,
				"z": 1.3548812345,
				"element": "C" 
			},
			{
				"x": -1.7230575198,
				"y": -0.5404446475,
				"z": 2.1768657861,
				"element": "H" 
			},
			{
				"x": -0.3778014801,
				"y": -1.6607458189,
				"z": 2.0708700993,
				"element": "H" 
			},
			{
				"x": -1.3803449984,
				"y": -2.8677549845,
				"z": 0.2146059586,
				"element": "H" 
			},
			{
				"x": -2.6865217979,
				"y": -2.6139673342,
				"z": 1.3669822991,
				"element": "H" 
			},
			{
				"x": -3.4247296959,
				"y": -0.589999191,
				"z": 0.0527469843,
				"element": "H" 
			},
			{
				"x": -3.4691254911,
				"y": -2.0477390153,
				"z": -0.9318329189,
				"element": "H" 
			},
			{
				"x": -2.3728528532,
				"y": 0.0059759073,
				"z": -2.0728479112,
				"element": "H" 
			},
			{
				"x": -1.4228725605,
				"y": -1.4538686969,
				"z": -2.1005130046,
				"element": "H" 
			},
			{
				"x": 1.3201161766,
				"y": 3.2941046169,
				"z": -2.1889891493,
				"element": "H" 
			},
			{
				"x": 2.6577273912,
				"y": 2.1790708108,
				"z": -2.2306403447,
				"element": "H" 
			},
			{
				"x": 2.1110728586,
				"y": 4.3350105357,
				"z": -0.1228068025,
				"element": "H" 
			},
			{
				"x": 3.5278668557,
				"y": 4.1760551134,
				"z": -1.154137723,
				"element": "H" 
			},
			{
				"x": 4.1387675269,
				"y": 2.0423761879,
				"z": 0.0391643712,
				"element": "H" 
			},
			{
				"x": 4.0807153441,
				"y": 3.405173228,
				"z": 1.1518552224,
				"element": "H" 
			},
			{
				"x": 2.8902389134,
				"y": 1.2489869507,
				"z": 1.9680552653,
				"element": "H" 
			},
			{
				"x": 1.9383391538,
				"y": 2.7192108984,
				"z": 2.0601992439,
				"element": "H" 
			}
		],
		 "valence_orbital": [ 
			{
				"type": "occ",
				"energy": -0.31793,
				"method": "rhf"
			},
			{
				"type": "occ",
				"energy": -0.31737,
				"method": "rhf"
			},
			{
				"type": "occ",
				"energy": -0.25111,
				"method": "rhf"
			},
			{
				"type": "occ",
				"energy": -0.22632,
				"method": "rhf"
			},
			{
				"type": "occ",
				"energy": -0.22442,
				"method": "rhf"
			},
			{
				"type": "unocc",
				"energy": -0.02402,
				"method": "rhf"
			},
			{
				"type": "unocc",
				"energy": 0.0054,
				"method": "rhf"
			},
			{
				"type": "unocc",
				"energy": 0.08302,
				"method": "rhf"
			},
			{
				"type": "unocc",
				"energy": 0.09162,
				"method": "rhf"
			},
			{
				"type": "unocc",
				"energy": 0.11966,
				"method": "rhf"
			}
		],
		"cosmo_sigma_profile": { 
			"-0.025": 0.0,
			"-0.024": 0.0,
			"-0.023": 0.0,
			"-0.022": 0.0,
			"-0.021": 0.0,
			"-0.02": 0.0,
			"-0.019": 0.0,
			"-0.018": 0.0,
			"-0.017": 0.0,
			"-0.016": 0.0,
			"-0.015": 0.0,
			"-0.014": 0.0,
			"-0.013": 0.0,
			"-0.012": 0.0,
			"-0.011": 0.0,
			"-0.01": 0.0,
			"-0.009": 0.0,
			"-0.008": 0.0,
			"-0.007": 0.0,
			"-0.006": 0.0360914567739,
			"-0.005": 6.33809030221,
			"-0.004": 12.7607611748,
			"-0.003": 38.5730095454,
			"-0.002": 45.988655729,
			"-0.001": 42.4321766972,
			"0.0": 35.3184423855,
			"0.001": 19.8247526054,
			"0.002": 8.29498106563,
			"0.003": 3.31968650526,
			"0.004": 3.55664122376,
			"0.005": 2.55028136019,
			"0.006": 2.97184713271,
			"0.007": 1.93870433193,
			"0.008": 1.20727997966,
			"0.009": 1.94534322683,
			"0.01": 1.78777982912,
			"0.011": 2.00405347803,
			"0.012": 1.23855512519,
			"0.013": 2.11098899122,
			"0.014": 4.26916241365,
			"0.015": 3.8752389094,
			"0.016": 0.197211436182,
			"0.017": 0.0,
			"0.018": 0.0,
			"0.019": 0.0,
			"0.02": 0.0,
			"0.021": 0.0,
			"0.022": 0.0,
			"0.023": 0.0,
			"0.024": 0.0,
			"0.025": 0.0
		}
	}
}
