{
	 "smiles": "CC1=CC2=C(N=C(O)C=C2C)C(C)=C1", 
	 "Tm": 535.15, 
	 "num_atms": 27, 
	 "gaussian": { 
		 "optdone": 1, 
		 "sigma_profile": "yes", 
		 "theory": "DFT", 
		 "functional": "B3LYP", 
		 "basiset": "6-31G**", 
		 "properties": { 
			 "R2extent": 3145.2461, 
			 "electric_dipole_moment_norm": 1.43930549224, 
			 "electric_quadrupole_moment_norm": 8.06844952702, 
			 "total_energy": -595.129654675, 
			 "HOMO_LUMO_gap": 0.17122, 
			 "cosmo_polarized_energy": -7.81, 
			 "cosmo_cavitation_energy": 29.83, 
			 "cosmo_dispersion_energy": -21.83, 
			 "cosmo_repulsion_energy": 1.71, 
			 "cosmo_total_nonelectrostatic_energy": 9.72, 
			 "SMD_solvation_energy": 4.41 
		},
		"coords": [
			{
				"x": 2.0386355467,
				"y": -1.9003502191,
				"z": 1.8675625218,
				"element": "C" 
			},
			{
				"x": 1.1383100563,
				"y": -1.0456263361,
				"z": 1.0082238365,
				"element": "C" 
			},
			{
				"x": 0.122305668,
				"y": -1.5953109356,
				"z": 0.2520056606,
				"element": "C" 
			},
			{
				"x": -0.7198084714,
				"y": -0.7859588967,
				"z": -0.5529770012,
				"element": "C" 
			},
			{
				"x": -0.509821435,
				"y": 0.6266311828,
				"z": -0.5797753423,
				"element": "C" 
			},
			{
				"x": -1.2822478016,
				"y": 1.4680114886,
				"z": -1.3323160069,
				"element": "N" 
			},
			{
				"x": -2.2439628085,
				"y": 0.9391826804,
				"z": -2.0469258146,
				"element": "C" 
			},
			{
				"x": -3.0140801599,
				"y": 1.7649411738,
				"z": -2.7953099594,
				"element": "O" 
			},
			{
				"x": -2.5437551893,
				"y": -0.4471435786,
				"z": -2.0973235034,
				"element": "C" 
			},
			{
				"x": -1.7866463641,
				"y": -1.3198429685,
				"z": -1.3530001695,
				"element": "C" 
			},
			{
				"x": -2.0744686773,
				"y": -2.7990965079,
				"z": -1.380340612,
				"element": "C" 
			},
			{
				"x": 0.5410593103,
				"y": 1.1976394891,
				"z": 0.2021201566,
				"element": "C" 
			},
			{
				"x": 0.7645872932,
				"y": 2.6871874126,
				"z": 0.1753795727,
				"element": "C" 
			},
			{
				"x": 1.328742478,
				"y": 0.3597195594,
				"z": 0.9665086754,
				"element": "C" 
			},
			{
				"x": 3.089013555,
				"y": -1.7993577326,
				"z": 1.5691799003,
				"element": "H" 
			},
			{
				"x": 1.7717301239,
				"y": -2.9584793644,
				"z": 1.797724059,
				"element": "H" 
			},
			{
				"x": 1.9780403771,
				"y": -1.6085235206,
				"z": 2.9228868787,
				"element": "H" 
			},
			{
				"x": -0.0348200363,
				"y": -2.6694763959,
				"z": 0.2744045118,
				"element": "H" 
			},
			{
				"x": -2.6682685046,
				"y": 2.658162324,
				"z": -2.6375629978,
				"element": "H" 
			},
			{
				"x": -3.3628513324,
				"y": -0.7880826654,
				"z": -2.72125541,
				"element": "H" 
			},
			{
				"x": -1.2066791977,
				"y": -3.3668637054,
				"z": -1.7346735887,
				"element": "H" 
			},
			{
				"x": -2.3178540882,
				"y": -3.1755934844,
				"z": -0.3803520516,
				"element": "H" 
			},
			{
				"x": -2.9165440696,
				"y": -3.0215120686,
				"z": -2.0398340645,
				"element": "H" 
			},
			{
				"x": 1.5981661794,
				"y": 2.9693601025,
				"z": 0.8243132542,
				"element": "H" 
			},
			{
				"x": -0.1305743392,
				"y": 3.2266186425,
				"z": 0.5019498986,
				"element": "H" 
			},
			{
				"x": 0.979222575,
				"y": 3.0360186216,
				"z": -0.8401788348,
				"element": "H" 
			},
			{
				"x": 2.1294693123,
				"y": 0.7937457025,
				"z": 1.5624664305,
				"element": "H" 
			}
		],
		 "valence_orbital": [ 
			{
				"type": "occ",
				"energy": -0.29823,
				"method": "rhf"
			},
			{
				"type": "occ",
				"energy": -0.2825,
				"method": "rhf"
			},
			{
				"type": "occ",
				"energy": -0.26131,
				"method": "rhf"
			},
			{
				"type": "occ",
				"energy": -0.23046,
				"method": "rhf"
			},
			{
				"type": "occ",
				"energy": -0.21015,
				"method": "rhf"
			},
			{
				"type": "unocc",
				"energy": -0.03893,
				"method": "rhf"
			},
			{
				"type": "unocc",
				"energy": -0.00214,
				"method": "rhf"
			},
			{
				"type": "unocc",
				"energy": 0.03404,
				"method": "rhf"
			},
			{
				"type": "unocc",
				"energy": 0.09419,
				"method": "rhf"
			},
			{
				"type": "unocc",
				"energy": 0.09687,
				"method": "rhf"
			}
		],
		"cosmo_sigma_profile": { 
			"-0.025": 0.0,
			"-0.024": 0.0,
			"-0.023": 0.0,
			"-0.022": 0.0,
			"-0.021": 0.0,
			"-0.02": 0.0,
			"-0.019": 0.0,
			"-0.018": 0.0,
			"-0.017": 0.161637334114,
			"-0.016": 0.719972667077,
			"-0.015": 1.09390938545,
			"-0.014": 0.634578004869,
			"-0.013": 0.303228335858,
			"-0.012": 0.306010221819,
			"-0.011": 0.428421740695,
			"-0.01": 1.25425095464,
			"-0.009": 0.870019486167,
			"-0.008": 0.525701664214,
			"-0.007": 0.710959010171,
			"-0.006": 3.48018542135,
			"-0.005": 11.0047922536,
			"-0.004": 21.4210760313,
			"-0.003": 22.020143536,
			"-0.002": 21.6831703322,
			"-0.001": 22.8366024213,
			"0.0": 24.4312244753,
			"0.001": 21.9090799302,
			"0.002": 19.4830156704,
			"0.003": 16.835262007,
			"0.004": 12.9851815539,
			"0.005": 12.1497223952,
			"0.006": 5.08024984231,
			"0.007": 2.63353036854,
			"0.008": 2.63110350168,
			"0.009": 3.24400121435,
			"0.01": 3.05663596304,
			"0.011": 1.85552862024,
			"0.012": 0.0684051870293,
			"0.013": 0.0,
			"0.014": 0.0,
			"0.015": 0.0,
			"0.016": 0.0,
			"0.017": 0.0,
			"0.018": 0.0,
			"0.019": 0.0,
			"0.02": 0.0,
			"0.021": 0.0,
			"0.022": 0.0,
			"0.023": 0.0,
			"0.024": 0.0,
			"0.025": 0.0
		}
	}
}
