{
	 "smiles": "CC1=NC(Cl)=NC(N)=C1", 
	 "Tm": 494.15, 
	 "num_atms": 15, 
	 "gaussian": { 
		 "optdone": 1, 
		 "sigma_profile": "yes", 
		 "theory": "DFT", 
		 "functional": "B3LYP", 
		 "basiset": "6-31G**", 
		 "properties": { 
			 "R2extent": 2229.2246, 
			 "electric_dipole_moment_norm": 5.55923966294, 
			 "electric_quadrupole_moment_norm": 10.4580879792, 
			 "total_energy": -818.589624964, 
			 "HOMO_LUMO_gap": 0.2164, 
			 "cosmo_polarized_energy": -15.31, 
			 "cosmo_cavitation_energy": 21.29, 
			 "cosmo_dispersion_energy": -16.1, 
			 "cosmo_repulsion_energy": 1.36, 
			 "cosmo_total_nonelectrostatic_energy": 6.54, 
			 "SMD_solvation_energy": 0.62 
		},
		"coords": [
			{
				"x": -0.8730251257,
				"y": 2.6951868495,
				"z": 1.2943197717,
				"element": "C" 
			},
			{
				"x": -0.510235673,
				"y": 1.2390449554,
				"z": 1.4132874389,
				"element": "C" 
			},
			{
				"x": 0.7223719752,
				"y": 0.9487366301,
				"z": 1.863417601,
				"element": "N" 
			},
			{
				"x": 1.0111366147,
				"y": -0.3431517162,
				"z": 1.9568996511,
				"element": "C" 
			},
			{
				"x": 2.6239406457,
				"y": -0.7148783965,
				"z": 2.5455046661,
				"element": "Cl" 
			},
			{
				"x": 0.251111673,
				"y": -1.3886734356,
				"z": 1.6671830996,
				"element": "N" 
			},
			{
				"x": -0.9795909004,
				"y": -1.1045001556,
				"z": 1.2177017376,
				"element": "C" 
			},
			{
				"x": -1.8063903379,
				"y": -2.2291034866,
				"z": 0.9027947143,
				"element": "N" 
			},
			{
				"x": -1.4055322273,
				"y": 0.2190395339,
				"z": 1.074222956,
				"element": "C" 
			},
			{
				"x": -1.7430074864,
				"y": 2.9325812265,
				"z": 1.9164250669,
				"element": "H" 
			},
			{
				"x": -0.0310602087,
				"y": 3.3121267984,
				"z": 1.6098500971,
				"element": "H" 
			},
			{
				"x": -1.134654829,
				"y": 2.9489102399,
				"z": 0.2611617555,
				"element": "H" 
			},
			{
				"x": -2.0945615637,
				"y": -2.1887114389,
				"z": -0.0719538627,
				"element": "H" 
			},
			{
				"x": -2.657174977,
				"y": -2.2040486532,
				"z": 1.4598820229,
				"element": "H" 
			},
			{
				"x": -2.4022275793,
				"y": 0.447341049,
				"z": 0.7102032838,
				"element": "H" 
			}
		],
		 "valence_orbital": [ 
			{
				"type": "occ",
				"energy": -0.31625,
				"method": "rhf"
			},
			{
				"type": "occ",
				"energy": -0.31162,
				"method": "rhf"
			},
			{
				"type": "occ",
				"energy": -0.27472,
				"method": "rhf"
			},
			{
				"type": "occ",
				"energy": -0.2717,
				"method": "rhf"
			},
			{
				"type": "occ",
				"energy": -0.26151,
				"method": "rhf"
			},
			{
				"type": "unocc",
				"energy": -0.04511,
				"method": "rhf"
			},
			{
				"type": "unocc",
				"energy": -0.0387,
				"method": "rhf"
			},
			{
				"type": "unocc",
				"energy": 0.0428,
				"method": "rhf"
			},
			{
				"type": "unocc",
				"energy": 0.07499,
				"method": "rhf"
			},
			{
				"type": "unocc",
				"energy": 0.10185,
				"method": "rhf"
			}
		],
		"cosmo_sigma_profile": { 
			"-0.025": 0.0,
			"-0.024": 0.0,
			"-0.023": 0.0,
			"-0.022": 0.0,
			"-0.021": 0.0,
			"-0.02": 0.0,
			"-0.019": 0.0,
			"-0.018": 0.0,
			"-0.017": 0.0,
			"-0.016": 0.0,
			"-0.015": 0.0,
			"-0.014": 0.0,
			"-0.013": 0.651072001182,
			"-0.012": 2.72728986801,
			"-0.011": 3.28783527674,
			"-0.01": 3.07440539823,
			"-0.009": 3.52253843771,
			"-0.008": 5.08841225881,
			"-0.007": 5.06449627931,
			"-0.006": 7.06443041339,
			"-0.005": 10.1822011484,
			"-0.004": 9.23449026854,
			"-0.003": 11.7304435267,
			"-0.002": 16.0915912153,
			"-0.001": 16.5323965739,
			"0.0": 8.78114499724,
			"0.001": 7.06070828305,
			"0.002": 6.50049345773,
			"0.003": 7.73401957807,
			"0.004": 10.9830726344,
			"0.005": 7.94230391,
			"0.006": 3.61272391879,
			"0.007": 3.64811203384,
			"0.008": 3.51972782251,
			"0.009": 2.46154449723,
			"0.01": 2.42215831501,
			"0.011": 2.17484287708,
			"0.012": 2.47382070322,
			"0.013": 1.75900879627,
			"0.014": 1.59968548651,
			"0.015": 1.7244960245,
			"0.016": 1.30302733779,
			"0.017": 1.13760424441,
			"0.018": 0.599322950749,
			"0.019": 0.234639874427,
			"0.02": 0.0,
			"0.021": 0.0,
			"0.022": 0.0,
			"0.023": 0.0,
			"0.024": 0.0,
			"0.025": 0.0
		}
	}
}
