{
	 "smiles": "OC(=O)CN1C2=C(CCCC1=O)C=CC=C2", 
	 "Tm": 415.15, 
	 "num_atms": 29, 
	 "gaussian": { 
		 "optdone": 1, 
		 "sigma_profile": "yes", 
		 "theory": "DFT", 
		 "functional": "B3LYP", 
		 "basiset": "6-31G**", 
		 "properties": { 
			 "R2extent": 3462.7659, 
			 "electric_dipole_moment_norm": 6.11333448946, 
			 "electric_quadrupole_moment_norm": 14.4509205008, 
			 "total_energy": -745.570592532, 
			 "HOMO_LUMO_gap": 0.20534, 
			 "cosmo_polarized_energy": -14.92, 
			 "cosmo_cavitation_energy": 31.06, 
			 "cosmo_dispersion_energy": -22.17, 
			 "cosmo_repulsion_energy": 1.71, 
			 "cosmo_total_nonelectrostatic_energy": 10.6, 
			 "SMD_solvation_energy": 6.32 
		},
		"coords": [
			{
				"x": 1.1157643216,
				"y": 2.6707437572,
				"z": 1.5078764216,
				"element": "O" 
			},
			{
				"x": -0.0990120856,
				"y": 2.1185670099,
				"z": 1.3822462633,
				"element": "C" 
			},
			{
				"x": -0.8392652553,
				"y": 1.949864893,
				"z": 2.3220554893,
				"element": "O" 
			},
			{
				"x": -0.4990136034,
				"y": 1.7271899313,
				"z": -0.0545219083,
				"element": "C" 
			},
			{
				"x": 0.3993180441,
				"y": 0.7339854268,
				"z": -0.6760846855,
				"element": "N" 
			},
			{
				"x": 0.0249813997,
				"y": -0.6538215322,
				"z": -0.6835674758,
				"element": "C" 
			},
			{
				"x": 0.9296032773,
				"y": -1.6283530772,
				"z": -0.2151872114,
				"element": "C" 
			},
			{
				"x": 2.3037784626,
				"y": -1.2213839229,
				"z": 0.264043074,
				"element": "C" 
			},
			{
				"x": 3.2203688656,
				"y": -0.7476869803,
				"z": -0.8872156381,
				"element": "C" 
			},
			{
				"x": 2.4748648724,
				"y": 0.1693255692,
				"z": -1.8872576239,
				"element": "C" 
			},
			{
				"x": 1.6011137383,
				"y": 1.1770912157,
				"z": -1.1691064646,
				"element": "C" 
			},
			{
				"x": 1.9606655535,
				"y": 2.3531735745,
				"z": -1.0074052613,
				"element": "O" 
			},
			{
				"x": 0.5251609364,
				"y": -2.9677249632,
				"z": -0.233506486,
				"element": "C" 
			},
			{
				"x": -0.7412817949,
				"y": -3.3408146846,
				"z": -0.6825717007,
				"element": "C" 
			},
			{
				"x": -1.6271962876,
				"y": -2.3652891125,
				"z": -1.1405291855,
				"element": "C" 
			},
			{
				"x": -1.2416697895,
				"y": -1.026323297,
				"z": -1.1472529169,
				"element": "C" 
			},
			{
				"x": 1.5271413375,
				"y": 2.7591067847,
				"z": 0.6125026483,
				"element": "H" 
			},
			{
				"x": -0.503543469,
				"y": 2.6243271789,
				"z": -0.6821258345,
				"element": "H" 
			},
			{
				"x": -1.5019254628,
				"y": 1.311844389,
				"z": -0.0039841851,
				"element": "H" 
			},
			{
				"x": 2.7750058752,
				"y": -2.053564867,
				"z": 0.7953417887,
				"element": "H" 
			},
			{
				"x": 2.2015783531,
				"y": -0.4045301449,
				"z": 0.9897650471,
				"element": "H" 
			},
			{
				"x": 4.0784528811,
				"y": -0.2149428534,
				"z": -0.464276423,
				"element": "H" 
			},
			{
				"x": 3.6146369405,
				"y": -1.6081005004,
				"z": -1.4390078972,
				"element": "H" 
			},
			{
				"x": 3.1856633502,
				"y": 0.737040853,
				"z": -2.4905641957,
				"element": "H" 
			},
			{
				"x": 1.8606763852,
				"y": -0.4408908188,
				"z": -2.5564996539,
				"element": "H" 
			},
			{
				"x": 1.2156395682,
				"y": -3.726118466,
				"z": 0.1261537933,
				"element": "H" 
			},
			{
				"x": -1.0341157392,
				"y": -4.3862615072,
				"z": -0.6744028591,
				"element": "H" 
			},
			{
				"x": -2.613260592,
				"y": -2.6427112122,
				"z": -1.5000879944,
				"element": "H" 
			},
			{
				"x": -1.9216300828,
				"y": -0.2685426436,
				"z": -1.5237289245,
				"element": "H" 
			}
		],
		 "valence_orbital": [ 
			{
				"type": "occ",
				"energy": -0.29908,
				"method": "rhf"
			},
			{
				"type": "occ",
				"energy": -0.27708,
				"method": "rhf"
			},
			{
				"type": "occ",
				"energy": -0.26773,
				"method": "rhf"
			},
			{
				"type": "occ",
				"energy": -0.26288,
				"method": "rhf"
			},
			{
				"type": "occ",
				"energy": -0.23904,
				"method": "rhf"
			},
			{
				"type": "unocc",
				"energy": -0.0337,
				"method": "rhf"
			},
			{
				"type": "unocc",
				"energy": -0.02051,
				"method": "rhf"
			},
			{
				"type": "unocc",
				"energy": -0.00188,
				"method": "rhf"
			},
			{
				"type": "unocc",
				"energy": 0.01819,
				"method": "rhf"
			},
			{
				"type": "unocc",
				"energy": 0.07787,
				"method": "rhf"
			}
		],
		"cosmo_sigma_profile": { 
			"-0.025": 0.0,
			"-0.024": 0.0,
			"-0.023": 0.0,
			"-0.022": 0.0,
			"-0.021": 0.0,
			"-0.02": 0.0,
			"-0.019": 0.0,
			"-0.018": 0.0,
			"-0.017": 0.0,
			"-0.016": 0.0,
			"-0.015": 0.0,
			"-0.014": 0.0,
			"-0.013": 0.0,
			"-0.012": 0.0,
			"-0.011": 0.0,
			"-0.01": 0.0,
			"-0.009": 0.906895536402,
			"-0.008": 4.40698261732,
			"-0.007": 5.24049334778,
			"-0.006": 11.5692288777,
			"-0.005": 23.3296791187,
			"-0.004": 29.4582022699,
			"-0.003": 29.2757737672,
			"-0.002": 25.4564399894,
			"-0.001": 17.4863595246,
			"0.0": 11.8111752473,
			"0.001": 9.8932270356,
			"0.002": 8.81150264069,
			"0.003": 9.76836331555,
			"0.004": 10.4499022081,
			"0.005": 8.82037713064,
			"0.006": 3.94045636847,
			"0.007": 3.22603250667,
			"0.008": 3.22326267075,
			"0.009": 4.06685453164,
			"0.01": 5.56643604218,
			"0.011": 7.74008350179,
			"0.012": 7.60888947727,
			"0.013": 3.57049436258,
			"0.014": 0.334123060766,
			"0.015": 0.0,
			"0.016": 0.0,
			"0.017": 0.0,
			"0.018": 0.0,
			"0.019": 0.0,
			"0.02": 0.0,
			"0.021": 0.0,
			"0.022": 0.0,
			"0.023": 0.0,
			"0.024": 0.0,
			"0.025": 0.0
		}
	}
}
