{
	 "smiles": "OC(=O)C=CC1=C(OC(F)F)C=CC(Br)=C1", 
	 "Tm": 429.15, 
	 "num_atms": 23, 
	 "gaussian": { 
		 "optdone": 1, 
		 "sigma_profile": "yes", 
		 "theory": "DFT", 
		 "functional": "B3LYP", 
		 "basiset": "6-31G**", 
		 "properties": { 
			 "R2extent": 6265.7402, 
			 "electric_dipole_moment_norm": 3.2923047687, 
			 "electric_quadrupole_moment_norm": 4.61818466824, 
			 "total_energy": -3382.02003333, 
			 "HOMO_LUMO_gap": 0.17393, 
			 "cosmo_polarized_energy": -13.15, 
			 "cosmo_cavitation_energy": 31.92, 
			 "cosmo_dispersion_energy": -22.62, 
			 "cosmo_repulsion_energy": 1.76, 
			 "cosmo_total_nonelectrostatic_energy": 11.06, 
			 "SMD_solvation_energy": 6.85 
		},
		"coords": [
			{
				"x": 2.4959824931,
				"y": 1.0190123161,
				"z": -1.1947498521,
				"element": "O" 
			},
			{
				"x": 2.1758220337,
				"y": 0.1576614315,
				"z": -2.1918947974,
				"element": "C" 
			},
			{
				"x": 2.8737223371,
				"y": 0.0300337168,
				"z": -3.1792843403,
				"element": "O" 
			},
			{
				"x": 0.9039160415,
				"y": -0.5781404252,
				"z": -2.017952068,
				"element": "C" 
			},
			{
				"x": 0.0544657542,
				"y": -0.6659877581,
				"z": -0.9759146111,
				"element": "C" 
			},
			{
				"x": 0.1467587575,
				"y": -0.1611107476,
				"z": 0.4055948752,
				"element": "C" 
			},
			{
				"x": -1.0210255059,
				"y": 0.2870903748,
				"z": 1.0504270109,
				"element": "C" 
			},
			{
				"x": -2.2022411195,
				"y": 0.3661781341,
				"z": 0.3134434435,
				"element": "O" 
			},
			{
				"x": -3.1842350896,
				"y": -0.5445191773,
				"z": 0.631031141,
				"element": "C" 
			},
			{
				"x": -4.3324257127,
				"y": -0.0834717116,
				"z": 0.1107338679,
				"element": "F" 
			},
			{
				"x": -2.9140010978,
				"y": -1.7482196959,
				"z": 0.0427234475,
				"element": "F" 
			},
			{
				"x": -1.0073230083,
				"y": 0.7283418745,
				"z": 2.3713992041,
				"element": "C" 
			},
			{
				"x": 0.1778951851,
				"y": 0.6947248845,
				"z": 3.1035239686,
				"element": "C" 
			},
			{
				"x": 1.3361809518,
				"y": 0.2257500642,
				"z": 2.4849430151,
				"element": "C" 
			},
			{
				"x": 2.9646634471,
				"y": 0.1561535829,
				"z": 3.4805262381,
				"element": "Br" 
			},
			{
				"x": 1.3320819581,
				"y": -0.1919876548,
				"z": 1.1588940631,
				"element": "C" 
			},
			{
				"x": 3.3282023839,
				"y": 1.438888897,
				"z": -1.4703116353,
				"element": "H" 
			},
			{
				"x": 0.6321793484,
				"y": -1.0980875347,
				"z": -2.9311755958,
				"element": "H" 
			},
			{
				"x": -0.8679575962,
				"y": -1.2063248995,
				"z": -1.171883374,
				"element": "H" 
			},
			{
				"x": -3.2911629768,
				"y": -0.7123180258,
				"z": 1.7088841284,
				"element": "H" 
			},
			{
				"x": -1.9182618724,
				"y": 1.1153293201,
				"z": 2.8169041312,
				"element": "H" 
			},
			{
				"x": 0.2012550357,
				"y": 1.031802111,
				"z": 4.1331137364,
				"element": "H" 
			},
			{
				"x": 2.2436082519,
				"y": -0.5541990772,
				"z": 0.705224003,
				"element": "H" 
			}
		],
		 "valence_orbital": [ 
			{
				"type": "occ",
				"energy": -0.30611,
				"method": "rhf"
			},
			{
				"type": "occ",
				"energy": -0.29765,
				"method": "rhf"
			},
			{
				"type": "occ",
				"energy": -0.28059,
				"method": "rhf"
			},
			{
				"type": "occ",
				"energy": -0.26434,
				"method": "rhf"
			},
			{
				"type": "occ",
				"energy": -0.25024,
				"method": "rhf"
			},
			{
				"type": "unocc",
				"energy": -0.07631,
				"method": "rhf"
			},
			{
				"type": "unocc",
				"energy": -0.02992,
				"method": "rhf"
			},
			{
				"type": "unocc",
				"energy": -0.01101,
				"method": "rhf"
			},
			{
				"type": "unocc",
				"energy": -0.00337,
				"method": "rhf"
			},
			{
				"type": "unocc",
				"energy": 0.07066,
				"method": "rhf"
			}
		],
		"cosmo_sigma_profile": { 
			"-0.025": 0.0,
			"-0.024": 0.0,
			"-0.023": 0.0,
			"-0.022": 0.0,
			"-0.021": 0.0,
			"-0.02": 0.0,
			"-0.019": 0.0,
			"-0.018": 0.702060719829,
			"-0.017": 0.850456172618,
			"-0.016": 0.705098341871,
			"-0.015": 0.958039847364,
			"-0.014": 0.770634316459,
			"-0.013": 1.01546828595,
			"-0.012": 0.330938519981,
			"-0.011": 1.66759158405,
			"-0.01": 4.30366279376,
			"-0.009": 3.81089812103,
			"-0.008": 6.0491989121,
			"-0.007": 8.77672994662,
			"-0.006": 10.641251553,
			"-0.005": 9.85031677426,
			"-0.004": 9.76234912478,
			"-0.003": 11.353090606,
			"-0.002": 16.1823345171,
			"-0.001": 16.1121948691,
			"0.0": 19.5096493441,
			"0.001": 27.1836168355,
			"0.002": 25.235271898,
			"0.003": 27.2412037596,
			"0.004": 25.2713442275,
			"0.005": 7.34778516996,
			"0.006": 3.73834726196,
			"0.007": 4.28309620286,
			"0.008": 2.89546859918,
			"0.009": 1.70392661433,
			"0.01": 1.96576835756,
			"0.011": 3.6859106678,
			"0.012": 4.80056188483,
			"0.013": 0.857344610927,
			"0.014": 0.0,
			"0.015": 0.0,
			"0.016": 0.0,
			"0.017": 0.0,
			"0.018": 0.0,
			"0.019": 0.0,
			"0.02": 0.0,
			"0.021": 0.0,
			"0.022": 0.0,
			"0.023": 0.0,
			"0.024": 0.0,
			"0.025": 0.0
		}
	}
}
