{
	 "smiles": "NCC1=CC=CC2=C(Br)C=CC=C12", 
	 "Tm": 411.15, 
	 "num_atms": 23, 
	 "gaussian": { 
		 "optdone": 1, 
		 "sigma_profile": "yes", 
		 "theory": "DFT", 
		 "functional": "B3LYP", 
		 "basiset": "6-31G**", 
		 "properties": { 
			 "R2extent": 6166.6321, 
			 "electric_dipole_moment_norm": 3.09920648715, 
			 "electric_quadrupole_moment_norm": 6.16077600632, 
			 "total_energy": -3051.35900442, 
			 "HOMO_LUMO_gap": 0.16895, 
			 "cosmo_polarized_energy": -7.67, 
			 "cosmo_cavitation_energy": 27.97, 
			 "cosmo_dispersion_energy": -21.25, 
			 "cosmo_repulsion_energy": 1.67, 
			 "cosmo_total_nonelectrostatic_energy": 8.39, 
			 "SMD_solvation_energy": 2.65 
		},
		"coords": [
			{
				"x": -1.4757875727,
				"y": 1.5362866024,
				"z": 1.1408050831,
				"element": "N" 
			},
			{
				"x": -0.9365317678,
				"y": 0.1754867594,
				"z": 0.9957613868,
				"element": "C" 
			},
			{
				"x": -0.2031565908,
				"y": -0.0114307834,
				"z": -0.3183574784,
				"element": "C" 
			},
			{
				"x": -0.683727386,
				"y": -0.9272941249,
				"z": -1.2321098325,
				"element": "C" 
			},
			{
				"x": -0.0221324732,
				"y": -1.1662126714,
				"z": -2.4578211092,
				"element": "C" 
			},
			{
				"x": 1.1327409625,
				"y": -0.4894085112,
				"z": -2.7663083576,
				"element": "C" 
			},
			{
				"x": 1.6735264293,
				"y": 0.4652327322,
				"z": -1.8639623943,
				"element": "C" 
			},
			{
				"x": 2.8725347423,
				"y": 1.1924469931,
				"z": -2.1202109525,
				"element": "C" 
			},
			{
				"x": 3.8479250111,
				"y": 0.9093425048,
				"z": -3.7500803189,
				"element": "Br" 
			},
			{
				"x": 3.3777001494,
				"y": 2.1108682256,
				"z": -1.2310494919,
				"element": "C" 
			},
			{
				"x": 2.690775198,
				"y": 2.3592056586,
				"z": -0.0221495514,
				"element": "C" 
			},
			{
				"x": 1.5273875393,
				"y": 1.6880421794,
				"z": 0.2753838185,
				"element": "C" 
			},
			{
				"x": 0.9920951516,
				"y": 0.7237219143,
				"z": -0.621829888,
				"element": "C" 
			},
			{
				"x": -2.1233480766,
				"y": 1.7298907272,
				"z": 0.3805092869,
				"element": "H" 
			},
			{
				"x": -2.0080897856,
				"y": 1.604610838,
				"z": 2.005019623,
				"element": "H" 
			},
			{
				"x": -1.7007062655,
				"y": -0.6157692315,
				"z": 1.068615348,
				"element": "H" 
			},
			{
				"x": -0.2420273197,
				"y": 0.0091661596,
				"z": 1.8301667252,
				"element": "H" 
			},
			{
				"x": -1.5877596223,
				"y": -1.484699457,
				"z": -0.9994085964,
				"element": "H" 
			},
			{
				"x": -0.4282922838,
				"y": -1.8936846029,
				"z": -3.1544332552,
				"element": "H" 
			},
			{
				"x": 1.6472420124,
				"y": -0.6758998833,
				"z": -3.7014514402,
				"element": "H" 
			},
			{
				"x": 4.2931315713,
				"y": 2.6437065263,
				"z": -1.4610953579,
				"element": "H" 
			},
			{
				"x": 3.0890962618,
				"y": 3.0958377019,
				"z": 0.669248483,
				"element": "H" 
			},
			{
				"x": 0.978604115,
				"y": 1.9187537428,
				"z": 1.17975827,
				"element": "H" 
			}
		],
		 "valence_orbital": [ 
			{
				"type": "occ",
				"energy": -0.28124,
				"method": "rhf"
			},
			{
				"type": "occ",
				"energy": -0.26368,
				"method": "rhf"
			},
			{
				"type": "occ",
				"energy": -0.24933,
				"method": "rhf"
			},
			{
				"type": "occ",
				"energy": -0.23989,
				"method": "rhf"
			},
			{
				"type": "occ",
				"energy": -0.21307,
				"method": "rhf"
			},
			{
				"type": "unocc",
				"energy": -0.04412,
				"method": "rhf"
			},
			{
				"type": "unocc",
				"energy": -0.01352,
				"method": "rhf"
			},
			{
				"type": "unocc",
				"energy": 0.01309,
				"method": "rhf"
			},
			{
				"type": "unocc",
				"energy": 0.02734,
				"method": "rhf"
			},
			{
				"type": "unocc",
				"energy": 0.08234,
				"method": "rhf"
			}
		],
		"cosmo_sigma_profile": { 
			"-0.025": 0.0,
			"-0.024": 0.0,
			"-0.023": 0.0,
			"-0.022": 0.0,
			"-0.021": 0.0,
			"-0.02": 0.0,
			"-0.019": 0.0,
			"-0.018": 0.0,
			"-0.017": 0.0,
			"-0.016": 0.0,
			"-0.015": 0.0,
			"-0.014": 0.0,
			"-0.013": 0.0,
			"-0.012": 0.0,
			"-0.011": 0.0392326744684,
			"-0.01": 1.38562410812,
			"-0.009": 2.78953511856,
			"-0.008": 2.84531282741,
			"-0.007": 3.75091750016,
			"-0.006": 9.12256682133,
			"-0.005": 13.4202837678,
			"-0.004": 18.1450614296,
			"-0.003": 19.8603104999,
			"-0.002": 17.8309628825,
			"-0.001": 13.3101687797,
			"0.0": 12.6056157932,
			"0.001": 14.8878628556,
			"0.002": 20.9546143311,
			"0.003": 28.1848090239,
			"0.004": 25.8847770667,
			"0.005": 12.6366180543,
			"0.006": 1.79933826894,
			"0.007": 0.331417529729,
			"0.008": 1.12058661273,
			"0.009": 0.84586614681,
			"0.01": 0.647882725105,
			"0.011": 1.10287527992,
			"0.012": 0.604467024849,
			"0.013": 0.724162151909,
			"0.014": 0.765277578806,
			"0.015": 0.310765761149,
			"0.016": 0.178412528639,
			"0.017": 0.0,
			"0.018": 0.0,
			"0.019": 0.0,
			"0.02": 0.0,
			"0.021": 0.0,
			"0.022": 0.0,
			"0.023": 0.0,
			"0.024": 0.0,
			"0.025": 0.0
		}
	}
}
