{
	 "smiles": "CC1=NC(CNC2=CC=C(F)C=C2)=CS1", 
	 "Tm": 350.15, 
	 "num_atms": 26, 
	 "gaussian": { 
		 "optdone": 1, 
		 "sigma_profile": "yes", 
		 "theory": "DFT", 
		 "functional": "B3LYP", 
		 "basiset": "6-31G**", 
		 "properties": { 
			 "R2extent": 5262.651, 
			 "electric_dipole_moment_norm": 2.86888267275, 
			 "electric_quadrupole_moment_norm": 12.996866799, 
			 "total_energy": -1033.31917617, 
			 "HOMO_LUMO_gap": 0.17082, 
			 "cosmo_polarized_energy": -10.14, 
			 "cosmo_cavitation_energy": 32.12, 
			 "cosmo_dispersion_energy": -23.42, 
			 "cosmo_repulsion_energy": 1.78, 
			 "cosmo_total_nonelectrostatic_energy": 10.48, 
			 "SMD_solvation_energy": 3.41 
		},
		"coords": [
			{
				"x": 4.8014381428,
				"y": -3.0426595294,
				"z": -0.9416282117,
				"element": "C" 
			},
			{
				"x": 3.492157398,
				"y": -2.3518370812,
				"z": -0.7088307309,
				"element": "C" 
			},
			{
				"x": 3.0329915393,
				"y": -2.0251212159,
				"z": 0.4642263505,
				"element": "N" 
			},
			{
				"x": 1.8013684128,
				"y": -1.4027120719,
				"z": 0.3804126811,
				"element": "C" 
			},
			{
				"x": 1.137812908,
				"y": -0.9807748375,
				"z": 1.6764120316,
				"element": "C" 
			},
			{
				"x": -0.166430788,
				"y": -0.3660676682,
				"z": 1.5635808193,
				"element": "N" 
			},
			{
				"x": -0.3789099901,
				"y": 0.9256150737,
				"z": 1.0788762036,
				"element": "C" 
			},
			{
				"x": -1.6959278834,
				"y": 1.3468124033,
				"z": 0.8057567808,
				"element": "C" 
			},
			{
				"x": -1.9636867779,
				"y": 2.6409961809,
				"z": 0.370031354,
				"element": "C" 
			},
			{
				"x": -0.9096339663,
				"y": 3.5326728242,
				"z": 0.2059295965,
				"element": "C" 
			},
			{
				"x": -1.1658664987,
				"y": 4.7936151535,
				"z": -0.2175187988,
				"element": "F" 
			},
			{
				"x": 0.3993132458,
				"y": 3.1494885034,
				"z": 0.4617311855,
				"element": "C" 
			},
			{
				"x": 0.6663444911,
				"y": 1.8488607367,
				"z": 0.8911131826,
				"element": "C" 
			},
			{
				"x": 1.3077409829,
				"y": -1.2498964539,
				"z": -0.8827152823,
				"element": "C" 
			},
			{
				"x": 2.4223304424,
				"y": -1.9086900932,
				"z": -2.0392557168,
				"element": "S" 
			},
			{
				"x": 5.2854081147,
				"y": -3.2007108144,
				"z": 0.0238643623,
				"element": "H" 
			},
			{
				"x": 4.66308846,
				"y": -4.0135073708,
				"z": -1.4293239707,
				"element": "H" 
			},
			{
				"x": 5.4649835424,
				"y": -2.4446951675,
				"z": -1.57521122,
				"element": "H" 
			},
			{
				"x": 1.0406639164,
				"y": -1.8652616371,
				"z": 2.3168078744,
				"element": "H" 
			},
			{
				"x": 1.8123427603,
				"y": -0.3075190512,
				"z": 2.2191244558,
				"element": "H" 
			},
			{
				"x": -0.9268237339,
				"y": -1.0084881234,
				"z": 1.3954649669,
				"element": "H" 
			},
			{
				"x": -2.5186543204,
				"y": 0.6502555843,
				"z": 0.9487603703,
				"element": "H" 
			},
			{
				"x": -2.9781486369,
				"y": 2.9636049818,
				"z": 0.1608965454,
				"element": "H" 
			},
			{
				"x": 1.2037797709,
				"y": 3.8625974872,
				"z": 0.3156820984,
				"element": "H" 
			},
			{
				"x": 1.6950846042,
				"y": 1.556454535,
				"z": 1.0667521116,
				"element": "H" 
			},
			{
				"x": 0.3855338634,
				"y": -0.7813323483,
				"z": -1.1924390391,
				"element": "H" 
			}
		],
		 "valence_orbital": [ 
			{
				"type": "occ",
				"energy": -0.28168,
				"method": "rhf"
			},
			{
				"type": "occ",
				"energy": -0.27397,
				"method": "rhf"
			},
			{
				"type": "occ",
				"energy": -0.25392,
				"method": "rhf"
			},
			{
				"type": "occ",
				"energy": -0.23699,
				"method": "rhf"
			},
			{
				"type": "occ",
				"energy": -0.19348,
				"method": "rhf"
			},
			{
				"type": "unocc",
				"energy": -0.02266,
				"method": "rhf"
			},
			{
				"type": "unocc",
				"energy": -0.00444,
				"method": "rhf"
			},
			{
				"type": "unocc",
				"energy": 0.01779,
				"method": "rhf"
			},
			{
				"type": "unocc",
				"energy": 0.0238,
				"method": "rhf"
			},
			{
				"type": "unocc",
				"energy": 0.04836,
				"method": "rhf"
			}
		],
		"cosmo_sigma_profile": { 
			"-0.025": 0.0,
			"-0.024": 0.0,
			"-0.023": 0.0,
			"-0.022": 0.0,
			"-0.021": 0.0,
			"-0.02": 0.0,
			"-0.019": 0.0,
			"-0.018": 0.0,
			"-0.017": 0.0,
			"-0.016": 0.0,
			"-0.015": 0.0,
			"-0.014": 0.0,
			"-0.013": 0.559771763685,
			"-0.012": 1.3564950827,
			"-0.011": 1.35158704124,
			"-0.01": 1.56605977016,
			"-0.009": 1.87174949465,
			"-0.008": 2.00909730995,
			"-0.007": 5.4258764863,
			"-0.006": 14.36586101,
			"-0.005": 19.3482002244,
			"-0.004": 20.908011043,
			"-0.003": 17.8050493294,
			"-0.002": 18.222043129,
			"-0.001": 16.5488068915,
			"0.0": 12.5463312191,
			"0.001": 15.9192686396,
			"0.002": 21.1961591245,
			"0.003": 22.9975037747,
			"0.004": 21.8226221343,
			"0.005": 23.395832487,
			"0.006": 7.5818510105,
			"0.007": 1.87759462042,
			"0.008": 2.19816606975,
			"0.009": 1.88771569743,
			"0.01": 1.51390111951,
			"0.011": 1.23601866593,
			"0.012": 0.548807647882,
			"0.013": 0.509571028469,
			"0.014": 1.36097374718,
			"0.015": 0.463612838703,
			"0.016": 0.0464503559804,
			"0.017": 0.0,
			"0.018": 0.0,
			"0.019": 0.0,
			"0.02": 0.0,
			"0.021": 0.0,
			"0.022": 0.0,
			"0.023": 0.0,
			"0.024": 0.0,
			"0.025": 0.0
		}
	}
}
