{
	 "smiles": "CC1=NSC(NC2=CC=CC=C2)=C1C#N", 
	 "Tm": 446.15, 
	 "num_atms": 24, 
	 "gaussian": { 
		 "optdone": 1, 
		 "sigma_profile": "yes", 
		 "theory": "DFT", 
		 "functional": "B3LYP", 
		 "basiset": "6-31G**", 
		 "properties": { 
			 "R2extent": 4971.2914, 
			 "electric_dipole_moment_norm": 3.52350936709, 
			 "electric_quadrupole_moment_norm": 10.1596465288, 
			 "total_energy": -987.00747344, 
			 "HOMO_LUMO_gap": 0.1719, 
			 "cosmo_polarized_energy": -15.67, 
			 "cosmo_cavitation_energy": 30.88, 
			 "cosmo_dispersion_energy": -22.09, 
			 "cosmo_repulsion_energy": 1.68, 
			 "cosmo_total_nonelectrostatic_energy": 10.47, 
			 "SMD_solvation_energy": 4.62 
		},
		"coords": [
			{
				"x": 2.0875235592,
				"y": 1.8439610951,
				"z": 4.9955494886,
				"element": "C" 
			},
			{
				"x": 2.1898659352,
				"y": 0.830034326,
				"z": 3.8935869197,
				"element": "C" 
			},
			{
				"x": 3.176478907,
				"y": -0.0343588211,
				"z": 3.8949522101,
				"element": "N" 
			},
			{
				"x": 3.0493438377,
				"y": -1.037843878,
				"z": 2.5401939179,
				"element": "S" 
			},
			{
				"x": 1.570283982,
				"y": -0.3147322421,
				"z": 1.9494106472,
				"element": "C" 
			},
			{
				"x": 0.9578725229,
				"y": -0.8036415809,
				"z": 0.8320429357,
				"element": "N" 
			},
			{
				"x": 0.1253127634,
				"y": -0.1245294312,
				"z": -0.0941134285,
				"element": "C" 
			},
			{
				"x": -0.8128580371,
				"y": -0.8794384239,
				"z": -0.8111432265,
				"element": "C" 
			},
			{
				"x": -1.6127111824,
				"y": -0.2657339016,
				"z": -1.7721301595,
				"element": "C" 
			},
			{
				"x": -1.4956574287,
				"y": 1.1041323275,
				"z": -2.0164810166,
				"element": "C" 
			},
			{
				"x": -0.559528844,
				"y": 1.851452923,
				"z": -1.3004005364,
				"element": "C" 
			},
			{
				"x": 0.2602740684,
				"y": 1.2451218585,
				"z": -0.3497150907,
				"element": "C" 
			},
			{
				"x": 1.2315215705,
				"y": 0.725822917,
				"z": 2.8147162951,
				"element": "C" 
			},
			{
				"x": 0.0603555873,
				"y": 1.5249780856,
				"z": 2.7627287302,
				"element": "C" 
			},
			{
				"x": -0.8879837314,
				"y": 2.2021597108,
				"z": 2.7721945444,
				"element": "N" 
			},
			{
				"x": 2.1347153751,
				"y": 2.8615775153,
				"z": 4.5931771527,
				"element": "H" 
			},
			{
				"x": 1.1336308293,
				"y": 1.7498320576,
				"z": 5.525034143,
				"element": "H" 
			},
			{
				"x": 2.9060416211,
				"y": 1.7004870559,
				"z": 5.7019875578,
				"element": "H" 
			},
			{
				"x": 1.1881633731,
				"y": -1.7549572944,
				"z": 0.5818917762,
				"element": "H" 
			},
			{
				"x": -0.9183935263,
				"y": -1.9415931806,
				"z": -0.6055004312,
				"element": "H" 
			},
			{
				"x": -2.3365326737,
				"y": -0.8596005947,
				"z": -2.3222900783,
				"element": "H" 
			},
			{
				"x": -2.1270354806,
				"y": 1.5836602511,
				"z": -2.75777868,
				"element": "H" 
			},
			{
				"x": -0.4546252028,
				"y": 2.915917667,
				"z": -1.4866586953,
				"element": "H" 
			},
			{
				"x": 1.0036421749,
				"y": 1.8287915584,
				"z": 0.1805450245,
				"element": "H" 
			}
		],
		 "valence_orbital": [ 
			{
				"type": "occ",
				"energy": -0.29502,
				"method": "rhf"
			},
			{
				"type": "occ",
				"energy": -0.27342,
				"method": "rhf"
			},
			{
				"type": "occ",
				"energy": -0.26304,
				"method": "rhf"
			},
			{
				"type": "occ",
				"energy": -0.26085,
				"method": "rhf"
			},
			{
				"type": "occ",
				"energy": -0.21992,
				"method": "rhf"
			},
			{
				"type": "unocc",
				"energy": -0.04802,
				"method": "rhf"
			},
			{
				"type": "unocc",
				"energy": -0.02017,
				"method": "rhf"
			},
			{
				"type": "unocc",
				"energy": -0.01207,
				"method": "rhf"
			},
			{
				"type": "unocc",
				"energy": 0.00033,
				"method": "rhf"
			},
			{
				"type": "unocc",
				"energy": 0.00598,
				"method": "rhf"
			}
		],
		"cosmo_sigma_profile": { 
			"-0.025": 0.0,
			"-0.024": 0.0,
			"-0.023": 0.0,
			"-0.022": 0.0,
			"-0.021": 0.0,
			"-0.02": 0.0,
			"-0.019": 0.0,
			"-0.018": 0.0,
			"-0.017": 0.719444866587,
			"-0.016": 1.45577410091,
			"-0.015": 1.27103928476,
			"-0.014": 1.32554323618,
			"-0.013": 1.37721977285,
			"-0.012": 1.27541466845,
			"-0.011": 1.83038316042,
			"-0.01": 0.975300796486,
			"-0.009": 1.29971162594,
			"-0.008": 1.06300903932,
			"-0.007": 3.26576534937,
			"-0.006": 11.6965342253,
			"-0.005": 19.3096719693,
			"-0.004": 18.088585398,
			"-0.003": 16.7735154827,
			"-0.002": 20.9544328653,
			"-0.001": 25.03881739,
			"0.0": 18.5869327913,
			"0.001": 14.0054639646,
			"0.002": 15.5498567861,
			"0.003": 14.0620530168,
			"0.004": 12.7325344843,
			"0.005": 12.5220840895,
			"0.006": 7.02248743788,
			"0.007": 3.37966625602,
			"0.008": 4.35806308298,
			"0.009": 4.47100683799,
			"0.01": 4.24119118181,
			"0.011": 3.88081830472,
			"0.012": 3.86050345224,
			"0.013": 2.89103830486,
			"0.014": 1.32398203699,
			"0.015": 0.124149365027,
			"0.016": 0.0,
			"0.017": 0.0,
			"0.018": 0.0,
			"0.019": 0.0,
			"0.02": 0.0,
			"0.021": 0.0,
			"0.022": 0.0,
			"0.023": 0.0,
			"0.024": 0.0,
			"0.025": 0.0
		}
	}
}
