{
	 "smiles": "NS(=O)(=O)C1=C(F)C(C(O)=O)=C(F)C=C1", 
	 "Tm": 413.15, 
	 "num_atms": 20, 
	 "gaussian": { 
		 "optdone": 1, 
		 "sigma_profile": "yes", 
		 "theory": "DFT", 
		 "functional": "B3LYP", 
		 "basiset": "6-31G**", 
		 "properties": { 
			 "R2extent": 3860.2105, 
			 "electric_dipole_moment_norm": 5.37633784467, 
			 "electric_quadrupole_moment_norm": 20.1163007693, 
			 "total_energy": -1223.18804268, 
			 "HOMO_LUMO_gap": 0.20542, 
			 "cosmo_polarized_energy": -22.39, 
			 "cosmo_cavitation_energy": 27.86, 
			 "cosmo_dispersion_energy": -20.75, 
			 "cosmo_repulsion_energy": 1.55, 
			 "cosmo_total_nonelectrostatic_energy": 8.67, 
			 "SMD_solvation_energy": 6.58 
		},
		"coords": [
			{
				"x": -0.912443956,
				"y": 2.0533887567,
				"z": -2.4766086047,
				"element": "N" 
			},
			{
				"x": 0.6316134463,
				"y": 1.688648146,
				"z": -1.886793241,
				"element": "S" 
			},
			{
				"x": 1.2114680807,
				"y": 2.9294091904,
				"z": -1.3746136363,
				"element": "O" 
			},
			{
				"x": 1.3061941488,
				"y": 0.8752475874,
				"z": -2.898104609,
				"element": "O" 
			},
			{
				"x": 0.249800263,
				"y": 0.6289357443,
				"z": -0.485188663,
				"element": "C" 
			},
			{
				"x": 1.3186941879,
				"y": 0.1344182127,
				"z": 0.2676326396,
				"element": "C" 
			},
			{
				"x": 2.5577267426,
				"y": 0.4639293126,
				"z": -0.0930436267,
				"element": "F" 
			},
			{
				"x": 1.1258968903,
				"y": -0.7194351114,
				"z": 1.3620743473,
				"element": "C" 
			},
			{
				"x": 2.304071417,
				"y": -1.2013432035,
				"z": 2.148645343,
				"element": "C" 
			},
			{
				"x": 2.1297342198,
				"y": -2.4564576696,
				"z": 2.6149293496,
				"element": "O" 
			},
			{
				"x": 3.3085006399,
				"y": -0.5554818753,
				"z": 2.3420596846,
				"element": "O" 
			},
			{
				"x": -0.2027161984,
				"y": -1.0447795324,
				"z": 1.6780325647,
				"element": "C" 
			},
			{
				"x": -0.4535342589,
				"y": -1.8305680025,
				"z": 2.7307950863,
				"element": "F" 
			},
			{
				"x": -1.285551697,
				"y": -0.5578954737,
				"z": 0.9564273013,
				"element": "C" 
			},
			{
				"x": -1.0538766902,
				"y": 0.2788852678,
				"z": -0.1315686049,
				"element": "C" 
			},
			{
				"x": -1.0590786262,
				"y": 3.0580224521,
				"z": -2.4232713568,
				"element": "H" 
			},
			{
				"x": -0.9913982755,
				"y": 1.7131599853,
				"z": -3.4313900879,
				"element": "H" 
			},
			{
				"x": 2.9351168311,
				"y": -2.6664430592,
				"z": 3.1179908911,
				"element": "H" 
			},
			{
				"x": -2.2886997026,
				"y": -0.8370038339,
				"z": 1.2563198366,
				"element": "H" 
			},
			{
				"x": -1.8772174626,
				"y": 0.6700631061,
				"z": -0.7164246137,
				"element": "H" 
			}
		],
		 "valence_orbital": [ 
			{
				"type": "occ",
				"energy": -0.31696,
				"method": "rhf"
			},
			{
				"type": "occ",
				"energy": -0.30505,
				"method": "rhf"
			},
			{
				"type": "occ",
				"energy": -0.29759,
				"method": "rhf"
			},
			{
				"type": "occ",
				"energy": -0.28372,
				"method": "rhf"
			},
			{
				"type": "occ",
				"energy": -0.27233,
				"method": "rhf"
			},
			{
				"type": "unocc",
				"energy": -0.06691,
				"method": "rhf"
			},
			{
				"type": "unocc",
				"energy": -0.04163,
				"method": "rhf"
			},
			{
				"type": "unocc",
				"energy": 0.01564,
				"method": "rhf"
			},
			{
				"type": "unocc",
				"energy": 0.03164,
				"method": "rhf"
			},
			{
				"type": "unocc",
				"energy": 0.05943,
				"method": "rhf"
			}
		],
		"cosmo_sigma_profile": { 
			"-0.025": 0.0,
			"-0.024": 0.0,
			"-0.023": 0.0,
			"-0.022": 0.0,
			"-0.021": 0.0,
			"-0.02": 0.0,
			"-0.019": 0.70417928074,
			"-0.018": 0.988073555661,
			"-0.017": 0.762848162664,
			"-0.016": 1.3813720324,
			"-0.015": 2.85897564003,
			"-0.014": 2.96758147032,
			"-0.013": 3.65787479673,
			"-0.012": 3.22826374495,
			"-0.011": 2.63225688279,
			"-0.01": 1.99510816977,
			"-0.009": 4.86334695668,
			"-0.008": 5.7615616874,
			"-0.007": 5.84714900564,
			"-0.006": 6.51236230482,
			"-0.005": 8.16054084947,
			"-0.004": 8.7528995862,
			"-0.003": 16.773208593,
			"-0.002": 16.7686663853,
			"-0.001": 15.1031838035,
			"0.0": 9.89115791208,
			"0.001": 7.24963777773,
			"0.002": 12.6261167152,
			"0.003": 14.1803903912,
			"0.004": 8.52602810602,
			"0.005": 7.68579518687,
			"0.006": 6.18316213502,
			"0.007": 6.81101100978,
			"0.008": 6.52948829144,
			"0.009": 7.25943580554,
			"0.01": 16.3336142177,
			"0.011": 10.4177472805,
			"0.012": 0.316381894925,
			"0.013": 0.0,
			"0.014": 0.0,
			"0.015": 0.0,
			"0.016": 0.0,
			"0.017": 0.0,
			"0.018": 0.0,
			"0.019": 0.0,
			"0.02": 0.0,
			"0.021": 0.0,
			"0.022": 0.0,
			"0.023": 0.0,
			"0.024": 0.0,
			"0.025": 0.0
		}
	}
}
