{
	 "smiles": "OC(=O)C1=CNC2=C1C=CC=C2", 
	 "Tm": 475.15, 
	 "num_atms": 19, 
	 "gaussian": { 
		 "optdone": 1, 
		 "sigma_profile": "yes", 
		 "theory": "DFT", 
		 "functional": "B3LYP", 
		 "basiset": "6-31G**", 
		 "properties": { 
			 "R2extent": 2371.4091, 
			 "electric_dipole_moment_norm": 6.47744677632, 
			 "electric_quadrupole_moment_norm": 22.6022941185, 
			 "total_energy": -552.38910574, 
			 "HOMO_LUMO_gap": 0.18602, 
			 "cosmo_polarized_energy": -21.54, 
			 "cosmo_cavitation_energy": 23.42, 
			 "cosmo_dispersion_energy": -17.68, 
			 "cosmo_repulsion_energy": 1.39, 
			 "cosmo_total_nonelectrostatic_energy": 7.13, 
			 "SMD_solvation_energy": 4.95 
		},
		"coords": [
			{
				"x": 1.4358926355,
				"y": -1.4775222356,
				"z": 3.69959643,
				"element": "O" 
			},
			{
				"x": 0.3672895276,
				"y": -1.4911265059,
				"z": 2.8450484095,
				"element": "C" 
			},
			{
				"x": -0.7315085681,
				"y": -1.7690081571,
				"z": 3.2722151049,
				"element": "O" 
			},
			{
				"x": 0.6427806566,
				"y": -1.16622124,
				"z": 1.4366090438,
				"element": "C" 
			},
			{
				"x": 1.8657572195,
				"y": -1.127652265,
				"z": 0.7937986601,
				"element": "C" 
			},
			{
				"x": 1.6822969597,
				"y": -0.8064077649,
				"z": -0.5255345952,
				"element": "N" 
			},
			{
				"x": 0.3289503294,
				"y": -0.6357615914,
				"z": -0.77927021,
				"element": "C" 
			},
			{
				"x": -0.3589461524,
				"y": -0.8646967275,
				"z": 0.4384350076,
				"element": "C" 
			},
			{
				"x": -1.7597424743,
				"y": -0.7619830721,
				"z": 0.4652464001,
				"element": "C" 
			},
			{
				"x": -2.421760478,
				"y": -0.4353717823,
				"z": -0.7112976066,
				"element": "C" 
			},
			{
				"x": -1.7177208549,
				"y": -0.2087133937,
				"z": -1.9124915944,
				"element": "C" 
			},
			{
				"x": -0.3322884704,
				"y": -0.3053677317,
				"z": -1.9664442657,
				"element": "C" 
			},
			{
				"x": 2.1938190838,
				"y": -1.0558488875,
				"z": 3.2727783288,
				"element": "H" 
			},
			{
				"x": 2.8593180751,
				"y": -1.3410704963,
				"z": 1.1650363065,
				"element": "H" 
			},
			{
				"x": 2.4167826706,
				"y": -0.7416408263,
				"z": -1.2122107897,
				"element": "H" 
			},
			{
				"x": -2.2929379754,
				"y": -0.9476549682,
				"z": 1.3902092375,
				"element": "H" 
			},
			{
				"x": -3.5046868003,
				"y": -0.3546149599,
				"z": -0.7107889102,
				"element": "H" 
			},
			{
				"x": -2.268366674,
				"y": 0.0444495402,
				"z": -2.8136122436,
				"element": "H" 
			},
			{
				"x": 0.21107129,
				"y": -0.1324869349,
				"z": -2.8909227134,
				"element": "H" 
			}
		],
		 "valence_orbital": [ 
			{
				"type": "occ",
				"energy": -0.30926,
				"method": "rhf"
			},
			{
				"type": "occ",
				"energy": -0.28529,
				"method": "rhf"
			},
			{
				"type": "occ",
				"energy": -0.26316,
				"method": "rhf"
			},
			{
				"type": "occ",
				"energy": -0.23545,
				"method": "rhf"
			},
			{
				"type": "occ",
				"energy": -0.22141,
				"method": "rhf"
			},
			{
				"type": "unocc",
				"energy": -0.03539,
				"method": "rhf"
			},
			{
				"type": "unocc",
				"energy": 0.00175,
				"method": "rhf"
			},
			{
				"type": "unocc",
				"energy": 0.01794,
				"method": "rhf"
			},
			{
				"type": "unocc",
				"energy": 0.05867,
				"method": "rhf"
			},
			{
				"type": "unocc",
				"energy": 0.06249,
				"method": "rhf"
			}
		],
		"cosmo_sigma_profile": { 
			"-0.025": 0.0,
			"-0.024": 0.0,
			"-0.023": 0.0,
			"-0.022": 0.0,
			"-0.021": 0.0,
			"-0.02": 0.0,
			"-0.019": 0.141602314489,
			"-0.018": 0.9096622267,
			"-0.017": 1.76180495903,
			"-0.016": 2.55539970197,
			"-0.015": 2.72168982548,
			"-0.014": 2.5657968331,
			"-0.013": 2.02672574821,
			"-0.012": 3.30591745933,
			"-0.011": 2.91151669768,
			"-0.01": 3.68739925144,
			"-0.009": 2.95098550958,
			"-0.008": 3.34820838681,
			"-0.007": 3.31645613518,
			"-0.006": 4.760200004,
			"-0.005": 7.91480614581,
			"-0.004": 8.13295678638,
			"-0.003": 10.2858347796,
			"-0.002": 8.97166467268,
			"-0.001": 9.21422208526,
			"0.0": 8.22262421052,
			"0.001": 9.08318495194,
			"0.002": 13.9224226822,
			"0.003": 12.8020786596,
			"0.004": 12.2107750607,
			"0.005": 12.1012864795,
			"0.006": 10.4704658917,
			"0.007": 3.34469011233,
			"0.008": 3.33255405585,
			"0.009": 3.36478192508,
			"0.01": 3.04444856454,
			"0.011": 4.97464733503,
			"0.012": 5.28097348102,
			"0.013": 3.11564202689,
			"0.014": 1.22804163233,
			"0.015": 0.0,
			"0.016": 0.0,
			"0.017": 0.0,
			"0.018": 0.0,
			"0.019": 0.0,
			"0.02": 0.0,
			"0.021": 0.0,
			"0.022": 0.0,
			"0.023": 0.0,
			"0.024": 0.0,
			"0.025": 0.0
		}
	}
}
