{
	 "smiles": "OC(=O)C1=CC=CC(OC(F)(F)C(F)F)=C1", 
	 "Tm": 401.15, 
	 "num_atms": 22, 
	 "gaussian": { 
		 "optdone": 1, 
		 "sigma_profile": "yes", 
		 "theory": "DFT", 
		 "functional": "B3LYP", 
		 "basiset": "6-31G**", 
		 "properties": { 
			 "R2extent": 4511.3412, 
			 "electric_dipole_moment_norm": 1.65176543432, 
			 "electric_quadrupole_moment_norm": 13.9288757001, 
			 "total_energy": -971.608675021, 
			 "HOMO_LUMO_gap": 0.19905, 
			 "cosmo_polarized_energy": -10.63, 
			 "cosmo_cavitation_energy": 29.39, 
			 "cosmo_dispersion_energy": -20.52, 
			 "cosmo_repulsion_energy": 1.54, 
			 "cosmo_total_nonelectrostatic_energy": 10.4, 
			 "SMD_solvation_energy": 8.08 
		},
		"coords": [
			{
				"x": 1.5005761465,
				"y": 2.4743963025,
				"z": 1.4865459276,
				"element": "O" 
			},
			{
				"x": 1.1212439966,
				"y": 1.8247839787,
				"z": 2.6139410093,
				"element": "C" 
			},
			{
				"x": 1.5985158963,
				"y": 2.079914424,
				"z": 3.7013288673,
				"element": "O" 
			},
			{
				"x": 0.0784557988,
				"y": 0.7901201921,
				"z": 2.3677697944,
				"element": "C" 
			},
			{
				"x": -0.3898244115,
				"y": 0.0596560533,
				"z": 3.4657021139,
				"element": "C" 
			},
			{
				"x": -1.3676831956,
				"y": -0.9143597174,
				"z": 3.2776575374,
				"element": "C" 
			},
			{
				"x": -1.8719402738,
				"y": -1.1655386729,
				"z": 2.0023009697,
				"element": "C" 
			},
			{
				"x": -1.3972250742,
				"y": -0.4280717848,
				"z": 0.9173260009,
				"element": "C" 
			},
			{
				"x": -1.9988086382,
				"y": -0.7372274618,
				"z": -0.3051035698,
				"element": "O" 
			},
			{
				"x": -1.3676979467,
				"y": -0.4775906638,
				"z": -1.4854745046,
				"element": "C" 
			},
			{
				"x": -1.3075123917,
				"y": 0.863803424,
				"z": -1.7423568099,
				"element": "F" 
			},
			{
				"x": -0.094028954,
				"y": -0.93563956,
				"z": -1.4940161277,
				"element": "F" 
			},
			{
				"x": -2.1801994661,
				"y": -1.1384144155,
				"z": -2.6092966641,
				"element": "C" 
			},
			{
				"x": -1.5885407866,
				"y": -0.8495863138,
				"z": -3.7932835095,
				"element": "F" 
			},
			{
				"x": -2.1711924777,
				"y": -2.4811935548,
				"z": -2.42787339,
				"element": "F" 
			},
			{
				"x": -0.4264037131,
				"y": 0.5564776787,
				"z": 1.0810647068,
				"element": "C" 
			},
			{
				"x": 2.1753596974,
				"y": 3.1159774779,
				"z": 1.7627606106,
				"element": "H" 
			},
			{
				"x": 0.0218645356,
				"y": 0.27032591,
				"z": 4.4461304914,
				"element": "H" 
			},
			{
				"x": -1.7375623143,
				"y": -1.4869311787,
				"z": 4.1223184686,
				"element": "H" 
			},
			{
				"x": -2.6274169512,
				"y": -1.9245919159,
				"z": 1.829560304,
				"element": "H" 
			},
			{
				"x": -3.2122076649,
				"y": -0.7723773098,
				"z": -2.6116890774,
				"element": "H" 
			},
			{
				"x": -0.0652718117,
				"y": 1.1381671083,
				"z": 0.2452868514,
				"element": "H" 
			}
		],
		 "valence_orbital": [ 
			{
				"type": "occ",
				"energy": -0.34927,
				"method": "rhf"
			},
			{
				"type": "occ",
				"energy": -0.32475,
				"method": "rhf"
			},
			{
				"type": "occ",
				"energy": -0.28376,
				"method": "rhf"
			},
			{
				"type": "occ",
				"energy": -0.27539,
				"method": "rhf"
			},
			{
				"type": "occ",
				"energy": -0.25727,
				"method": "rhf"
			},
			{
				"type": "unocc",
				"energy": -0.05822,
				"method": "rhf"
			},
			{
				"type": "unocc",
				"energy": -0.01822,
				"method": "rhf"
			},
			{
				"type": "unocc",
				"energy": 0.04853,
				"method": "rhf"
			},
			{
				"type": "unocc",
				"energy": 0.06719,
				"method": "rhf"
			},
			{
				"type": "unocc",
				"energy": 0.08007,
				"method": "rhf"
			}
		],
		"cosmo_sigma_profile": { 
			"-0.025": 0.0,
			"-0.024": 0.0,
			"-0.023": 0.0,
			"-0.022": 0.0,
			"-0.021": 0.0,
			"-0.02": 0.0,
			"-0.019": 0.080265442593,
			"-0.018": 1.1344857572,
			"-0.017": 0.564868741144,
			"-0.016": 0.697543284201,
			"-0.015": 1.0201615583,
			"-0.014": 1.12471192544,
			"-0.013": 0.497246477635,
			"-0.012": 0.62239032901,
			"-0.011": 3.13588802784,
			"-0.01": 3.38616355055,
			"-0.009": 2.05292152199,
			"-0.008": 3.32536359281,
			"-0.007": 6.88647002184,
			"-0.006": 7.43205053499,
			"-0.005": 7.70567723221,
			"-0.004": 7.30247156071,
			"-0.003": 10.5205082128,
			"-0.002": 11.9040846995,
			"-0.001": 14.045743926,
			"0.0": 19.8816376705,
			"0.001": 27.5129918095,
			"0.002": 40.7699997136,
			"0.003": 33.8269921345,
			"0.004": 9.22520201567,
			"0.005": 3.75057264317,
			"0.006": 2.50955972199,
			"0.007": 2.66083906564,
			"0.008": 1.42551973761,
			"0.009": 1.35022005145,
			"0.01": 2.36374863873,
			"0.011": 4.31706972243,
			"0.012": 2.8193535504,
			"0.013": 0.0,
			"0.014": 0.0,
			"0.015": 0.0,
			"0.016": 0.0,
			"0.017": 0.0,
			"0.018": 0.0,
			"0.019": 0.0,
			"0.02": 0.0,
			"0.021": 0.0,
			"0.022": 0.0,
			"0.023": 0.0,
			"0.024": 0.0,
			"0.025": 0.0
		}
	}
}
