{
	 "smiles": "CS(=O)(=O)C1=CC(NN)=CC=C1", 
	 "Tm": 367.15, 
	 "num_atms": 22, 
	 "gaussian": { 
		 "optdone": 1, 
		 "sigma_profile": "yes", 
		 "theory": "DFT", 
		 "functional": "B3LYP", 
		 "basiset": "6-31G**", 
		 "properties": { 
			 "R2extent": 2967.7638, 
			 "electric_dipole_moment_norm": 4.66335369235, 
			 "electric_quadrupole_moment_norm": 18.081377419, 
			 "total_energy": -930.811858158, 
			 "HOMO_LUMO_gap": 0.18349, 
			 "cosmo_polarized_energy": -19.31, 
			 "cosmo_cavitation_energy": 27.24, 
			 "cosmo_dispersion_energy": -20.16, 
			 "cosmo_repulsion_energy": 1.57, 
			 "cosmo_total_nonelectrostatic_energy": 8.65, 
			 "SMD_solvation_energy": 4.78 
		},
		"coords": [
			{
				"x": 0.1015128585,
				"y": 1.9843267047,
				"z": -2.89846101,
				"element": "C" 
			},
			{
				"x": -1.3386480912,
				"y": 0.9931122671,
				"z": -2.4313776888,
				"element": "S" 
			},
			{
				"x": -1.3316450409,
				"y": -0.2151569651,
				"z": -3.2732715539,
				"element": "O" 
			},
			{
				"x": -2.5020159649,
				"y": 1.8931391976,
				"z": -2.4053189252,
				"element": "O" 
			},
			{
				"x": -0.9733920848,
				"y": 0.4948516444,
				"z": -0.7388274253,
				"element": "C" 
			},
			{
				"x": -0.3559595483,
				"y": -0.7388866248,
				"z": -0.5365298992,
				"element": "C" 
			},
			{
				"x": -0.0504365406,
				"y": -1.1458967622,
				"z": 0.7724145309,
				"element": "C" 
			},
			{
				"x": 0.5915929961,
				"y": -2.3530910527,
				"z": 1.0313008682,
				"element": "N" 
			},
			{
				"x": 0.6043310421,
				"y": -3.4069216578,
				"z": 0.099570286,
				"element": "N" 
			},
			{
				"x": -0.3763787723,
				"y": -0.2845222655,
				"z": 1.8407032035,
				"element": "C" 
			},
			{
				"x": -0.9980893448,
				"y": 0.9367148276,
				"z": 1.60866348,
				"element": "C" 
			},
			{
				"x": -1.312417492,
				"y": 1.3477449304,
				"z": 0.3092464146,
				"element": "C" 
			},
			{
				"x": 0.9973026598,
				"y": 1.3645922045,
				"z": -2.8409657108,
				"element": "H" 
			},
			{
				"x": 0.1751154075,
				"y": 2.8455711911,
				"z": -2.2332813214,
				"element": "H" 
			},
			{
				"x": -0.0718685341,
				"y": 2.3099007609,
				"z": -3.9262570212,
				"element": "H" 
			},
			{
				"x": -0.1391274215,
				"y": -1.371473002,
				"z": -1.3886901107,
				"element": "H" 
			},
			{
				"x": 0.5046326983,
				"y": -2.696183281,
				"z": 1.9780499644,
				"element": "H" 
			},
			{
				"x": -0.2966213117,
				"y": -3.4846679868,
				"z": -0.3750453049,
				"element": "H" 
			},
			{
				"x": 1.3151032027,
				"y": -3.2221353449,
				"z": -0.603644908,
				"element": "H" 
			},
			{
				"x": -0.1439403327,
				"y": -0.5896880668,
				"z": 2.8580732194,
				"element": "H" 
			},
			{
				"x": -1.2531851854,
				"y": 1.5724010665,
				"z": 2.4514896331,
				"element": "H" 
			},
			{
				"x": -1.8264651997,
				"y": 2.2819682147,
				"z": 0.1152592792,
				"element": "H" 
			}
		],
		 "valence_orbital": [ 
			{
				"type": "occ",
				"energy": -0.29158,
				"method": "rhf"
			},
			{
				"type": "occ",
				"energy": -0.28492,
				"method": "rhf"
			},
			{
				"type": "occ",
				"energy": -0.27826,
				"method": "rhf"
			},
			{
				"type": "occ",
				"energy": -0.27195,
				"method": "rhf"
			},
			{
				"type": "occ",
				"energy": -0.22041,
				"method": "rhf"
			},
			{
				"type": "unocc",
				"energy": -0.03692,
				"method": "rhf"
			},
			{
				"type": "unocc",
				"energy": -0.00694,
				"method": "rhf"
			},
			{
				"type": "unocc",
				"energy": 0.06392,
				"method": "rhf"
			},
			{
				"type": "unocc",
				"energy": 0.07589,
				"method": "rhf"
			},
			{
				"type": "unocc",
				"energy": 0.08393,
				"method": "rhf"
			}
		],
		"cosmo_sigma_profile": { 
			"-0.025": 0.0,
			"-0.024": 0.0,
			"-0.023": 0.0,
			"-0.022": 0.0,
			"-0.021": 0.0,
			"-0.02": 0.0,
			"-0.019": 0.0,
			"-0.018": 0.0,
			"-0.017": 0.0,
			"-0.016": 0.0,
			"-0.015": 0.0,
			"-0.014": 0.100158501288,
			"-0.013": 0.869860855693,
			"-0.012": 1.77594829658,
			"-0.011": 3.14477721983,
			"-0.01": 5.13047148748,
			"-0.009": 6.75523341984,
			"-0.008": 9.57018085475,
			"-0.007": 11.6953705795,
			"-0.006": 14.0759613945,
			"-0.005": 14.2085341143,
			"-0.004": 16.0518361696,
			"-0.003": 11.6297177698,
			"-0.002": 8.99669400337,
			"-0.001": 7.50396697239,
			"0.0": 8.06836338469,
			"0.001": 8.10126226571,
			"0.002": 10.4856782664,
			"0.003": 12.8895291059,
			"0.004": 12.9614082896,
			"0.005": 4.69866157549,
			"0.006": 4.99478593515,
			"0.007": 4.25254991827,
			"0.008": 4.15956016137,
			"0.009": 4.47755537334,
			"0.01": 5.01159516901,
			"0.011": 9.45576402366,
			"0.012": 10.2208296822,
			"0.013": 2.70919045024,
			"0.014": 0.317694343215,
			"0.015": 0.729242485831,
			"0.016": 0.630660343594,
			"0.017": 0.106199762373,
			"0.018": 0.0,
			"0.019": 0.0,
			"0.02": 0.0,
			"0.021": 0.0,
			"0.022": 0.0,
			"0.023": 0.0,
			"0.024": 0.0,
			"0.025": 0.0
		}
	}
}
