{
	 "smiles": "CC(=O)C1=CC=C(C=C1)S(=O)(=O)NC(CC(N)=O)C(O)=O", 
	 "Tm": 454.15, 
	 "num_atms": 35, 
	 "gaussian": { 
		 "optdone": 1, 
		 "sigma_profile": "yes", 
		 "theory": "DFT", 
		 "functional": "B3LYP", 
		 "basiset": "6-31G**", 
		 "properties": { 
			 "R2extent": 8724.6258, 
			 "electric_dipole_moment_norm": 4.94335661064, 
			 "electric_quadrupole_moment_norm": 35.0522474431, 
			 "total_energy": -1424.71493152, 
			 "HOMO_LUMO_gap": 0.18356, 
			 "cosmo_polarized_energy": -29.66, 
			 "cosmo_cavitation_energy": 41.7, 
			 "cosmo_dispersion_energy": -28.87, 
			 "cosmo_repulsion_energy": 2.2, 
			 "cosmo_total_nonelectrostatic_energy": 15.03, 
			 "SMD_solvation_energy": 8.6 
		},
		"coords": [
			{
				"x": -0.5668479123,
				"y": -5.5620046012,
				"z": -3.2337219154,
				"element": "C" 
			},
			{
				"x": -0.7993334698,
				"y": -4.1642467079,
				"z": -3.7785173395,
				"element": "C" 
			},
			{
				"x": -1.4273707398,
				"y": -3.9919761625,
				"z": -4.8109578716,
				"element": "O" 
			},
			{
				"x": -0.2407937378,
				"y": -2.9876894792,
				"z": -3.0256413925,
				"element": "C" 
			},
			{
				"x": -0.4498212689,
				"y": -1.7068646547,
				"z": -3.5586398817,
				"element": "C" 
			},
			{
				"x": 0.0408814106,
				"y": -0.5798484769,
				"z": -2.9076661747,
				"element": "C" 
			},
			{
				"x": 0.7462596435,
				"y": -0.7405517958,
				"z": -1.7116576903,
				"element": "C" 
			},
			{
				"x": 0.9647563835,
				"y": -2.0043101197,
				"z": -1.1597515618,
				"element": "C" 
			},
			{
				"x": 0.4668365969,
				"y": -3.1247026817,
				"z": -1.8213664652,
				"element": "C" 
			},
			{
				"x": 1.458709007,
				"y": 0.7191130383,
				"z": -0.9393552806,
				"element": "S" 
			},
			{
				"x": 2.9109721322,
				"y": 0.7125912485,
				"z": -1.1277387006,
				"element": "O" 
			},
			{
				"x": 0.6465323329,
				"y": 1.8625244806,
				"z": -1.3852928274,
				"element": "O" 
			},
			{
				"x": 1.2208299822,
				"y": 0.4195474377,
				"z": 0.6913792184,
				"element": "N" 
			},
			{
				"x": -0.0121032706,
				"y": 0.8810029198,
				"z": 1.3270115632,
				"element": "C" 
			},
			{
				"x": 0.0402242361,
				"y": 2.3407752831,
				"z": 1.8066713189,
				"element": "C" 
			},
			{
				"x": 1.1315414937,
				"y": 2.5472384964,
				"z": 2.8538651475,
				"element": "C" 
			},
			{
				"x": 1.0263002701,
				"y": 3.6789789182,
				"z": 3.5962173546,
				"element": "N" 
			},
			{
				"x": 2.0691993208,
				"y": 1.761778664,
				"z": 2.9907650083,
				"element": "O" 
			},
			{
				"x": -0.4195689768,
				"y": -0.0382332162,
				"z": 2.4836636607,
				"element": "C" 
			},
			{
				"x": -0.0882163819,
				"y": -1.3279149821,
				"z": 2.287566243,
				"element": "O" 
			},
			{
				"x": -1.0332610829,
				"y": 0.3476966004,
				"z": 3.4547918635,
				"element": "O" 
			},
			{
				"x": -1.0300839294,
				"y": -6.2810282323,
				"z": -3.9096336814,
				"element": "H" 
			},
			{
				"x": 0.5038950024,
				"y": -5.7783283837,
				"z": -3.1497753951,
				"element": "H" 
			},
			{
				"x": -1.0016976242,
				"y": -5.6715646858,
				"z": -2.2339639534,
				"element": "H" 
			},
			{
				"x": -1.0044262061,
				"y": -1.621339231,
				"z": -4.486801365,
				"element": "H" 
			},
			{
				"x": -0.1224383259,
				"y": 0.4158646539,
				"z": -3.3046705514,
				"element": "H" 
			},
			{
				"x": 1.4905769447,
				"y": -2.100509697,
				"z": -0.2168924507,
				"element": "H" 
			},
			{
				"x": 0.6317710571,
				"y": -4.1059846811,
				"z": -1.389270202,
				"element": "H" 
			},
			{
				"x": 2.0470904536,
				"y": 0.6655202366,
				"z": 1.2404373256,
				"element": "H" 
			},
			{
				"x": -0.8186702524,
				"y": 0.7964746891,
				"z": 0.5883390705,
				"element": "H" 
			},
			{
				"x": 0.247142076,
				"y": 2.9766072615,
				"z": 0.9392835829,
				"element": "H" 
			},
			{
				"x": -0.9331382908,
				"y": 2.6285989261,
				"z": 2.2134378454,
				"element": "H" 
			},
			{
				"x": 0.2065297888,
				"y": 4.263271625,
				"z": 3.5704914112,
				"element": "H" 
			},
			{
				"x": 1.72006154,
				"y": 3.8432344928,
				"z": 4.3105070062,
				"element": "H" 
			},
			{
				"x": -0.4243382027,
				"y": -1.807121183,
				"z": 3.0641870802,
				"element": "H" 
			}
		],
		 "valence_orbital": [ 
			{
				"type": "occ",
				"energy": -0.27857,
				"method": "rhf"
			},
			{
				"type": "occ",
				"energy": -0.2757,
				"method": "rhf"
			},
			{
				"type": "occ",
				"energy": -0.27049,
				"method": "rhf"
			},
			{
				"type": "occ",
				"energy": -0.26275,
				"method": "rhf"
			},
			{
				"type": "occ",
				"energy": -0.2586,
				"method": "rhf"
			},
			{
				"type": "unocc",
				"energy": -0.07504,
				"method": "rhf"
			},
			{
				"type": "unocc",
				"energy": -0.02507,
				"method": "rhf"
			},
			{
				"type": "unocc",
				"energy": -0.0081,
				"method": "rhf"
			},
			{
				"type": "unocc",
				"energy": 0.01013,
				"method": "rhf"
			},
			{
				"type": "unocc",
				"energy": 0.01302,
				"method": "rhf"
			}
		],
		"cosmo_sigma_profile": { 
			"-0.025": 0.0,
			"-0.024": 0.0,
			"-0.023": 0.0,
			"-0.022": 0.0,
			"-0.021": 0.0,
			"-0.02": 0.0,
			"-0.019": 0.332657598645,
			"-0.018": 1.08354905713,
			"-0.017": 0.728201197392,
			"-0.016": 1.00313416982,
			"-0.015": 1.41134433335,
			"-0.014": 3.57752440368,
			"-0.013": 3.77532483903,
			"-0.012": 3.1796958478,
			"-0.011": 3.33656280276,
			"-0.01": 3.28260750555,
			"-0.009": 5.02273101492,
			"-0.008": 6.84973679086,
			"-0.007": 16.1604387267,
			"-0.006": 21.7149019406,
			"-0.005": 18.3923342539,
			"-0.004": 19.9410405002,
			"-0.003": 17.3389777574,
			"-0.002": 17.8094698511,
			"-0.001": 18.7094933558,
			"0.0": 16.8577504319,
			"0.001": 23.5457764326,
			"0.002": 18.1304967716,
			"0.003": 11.441745011,
			"0.004": 10.9571264768,
			"0.005": 11.3543114589,
			"0.006": 8.92335002372,
			"0.007": 8.19853968068,
			"0.008": 7.40919850282,
			"0.009": 8.39037432222,
			"0.01": 14.8229338657,
			"0.011": 17.3196294799,
			"0.012": 5.9346719437,
			"0.013": 2.76350595607,
			"0.014": 1.08089172565,
			"0.015": 0.0,
			"0.016": 0.0,
			"0.017": 0.0,
			"0.018": 0.0,
			"0.019": 0.0,
			"0.02": 0.0,
			"0.021": 0.0,
			"0.022": 0.0,
			"0.023": 0.0,
			"0.024": 0.0,
			"0.025": 0.0
		}
	}
}
