{
	 "smiles": "COC(=O)C1=C(CBr)C2=C(S1)C=CC=C2F", 
	 "Tm": 431.15, 
	 "num_atms": 24, 
	 "gaussian": { 
		 "optdone": 1, 
		 "sigma_profile": "yes", 
		 "theory": "DFT", 
		 "functional": "B3LYP", 
		 "basiset": "6-31G**", 
		 "properties": { 
			 "R2extent": 5192.8369, 
			 "electric_dipole_moment_norm": 1.86461971994, 
			 "electric_quadrupole_moment_norm": 22.6740957083, 
			 "total_energy": -3643.87895138, 
			 "HOMO_LUMO_gap": 0.15247, 
			 "cosmo_polarized_energy": -9.96, 
			 "cosmo_cavitation_energy": 32.5, 
			 "cosmo_dispersion_energy": -23.86, 
			 "cosmo_repulsion_energy": 1.78, 
			 "cosmo_total_nonelectrostatic_energy": 10.42, 
			 "SMD_solvation_energy": 5.8 
		},
		"coords": [
			{
				"x": -2.2922560877,
				"y": -0.8793165066,
				"z": -3.0755463379,
				"element": "C" 
			},
			{
				"x": -1.2449961755,
				"y": -0.5269307964,
				"z": -2.1522628634,
				"element": "O" 
			},
			{
				"x": -0.8315851048,
				"y": -1.5265590943,
				"z": -1.3466668166,
				"element": "C" 
			},
			{
				"x": -1.2832316412,
				"y": -2.6556349393,
				"z": -1.392299364,
				"element": "O" 
			},
			{
				"x": 0.223030055,
				"y": -1.126196734,
				"z": -0.391839535,
				"element": "C" 
			},
			{
				"x": 0.8629452704,
				"y": 0.0747082374,
				"z": -0.1675411477,
				"element": "C" 
			},
			{
				"x": 0.62552484,
				"y": 1.3373003696,
				"z": -0.9232808882,
				"element": "C" 
			},
			{
				"x": -0.6908992699,
				"y": 2.5155116001,
				"z": 0.0255211752,
				"element": "Br" 
			},
			{
				"x": 1.8184805052,
				"y": -0.0352929315,
				"z": 0.9124088273,
				"element": "C" 
			},
			{
				"x": 1.8692076587,
				"y": -1.3366374784,
				"z": 1.4734371139,
				"element": "C" 
			},
			{
				"x": 0.7490555225,
				"y": -2.4141904419,
				"z": 0.6783769048,
				"element": "S" 
			},
			{
				"x": 2.7286228345,
				"y": -1.6645718376,
				"z": 2.5300054881,
				"element": "C" 
			},
			{
				"x": 3.5545578932,
				"y": -0.6719504681,
				"z": 3.0392718367,
				"element": "C" 
			},
			{
				"x": 3.5358156462,
				"y": 0.6309648358,
				"z": 2.5094317479,
				"element": "C" 
			},
			{
				"x": 2.6817652611,
				"y": 0.9291860163,
				"z": 1.4671312958,
				"element": "C" 
			},
			{
				"x": 2.6836251481,
				"y": 2.1829916337,
				"z": 0.9646866616,
				"element": "F" 
			},
			{
				"x": -2.5145159937,
				"y": 0.0352192306,
				"z": -3.6241214383,
				"element": "H" 
			},
			{
				"x": -1.9553764602,
				"y": -1.6666311873,
				"z": -3.7539268661,
				"element": "H" 
			},
			{
				"x": -3.174124713,
				"y": -1.228806104,
				"z": -2.5343531738,
				"element": "H" 
			},
			{
				"x": 1.520871459,
				"y": 1.9462944638,
				"z": -0.9896455219,
				"element": "H" 
			},
			{
				"x": 0.1810613623,
				"y": 1.1626781839,
				"z": -1.8951747711,
				"element": "H" 
			},
			{
				"x": 2.7462100858,
				"y": -2.6689357285,
				"z": 2.9396210922,
				"element": "H" 
			},
			{
				"x": 4.2284765768,
				"y": -0.8997613577,
				"z": 3.8591238056,
				"element": "H" 
			},
			{
				"x": 4.1786353273,
				"y": 1.4109610344,
				"z": 2.9015427749,
				"element": "H" 
			}
		],
		 "valence_orbital": [ 
			{
				"type": "occ",
				"energy": -0.28917,
				"method": "rhf"
			},
			{
				"type": "occ",
				"energy": -0.2705,
				"method": "rhf"
			},
			{
				"type": "occ",
				"energy": -0.26893,
				"method": "rhf"
			},
			{
				"type": "occ",
				"energy": -0.25578,
				"method": "rhf"
			},
			{
				"type": "occ",
				"energy": -0.22994,
				"method": "rhf"
			},
			{
				"type": "unocc",
				"energy": -0.07747,
				"method": "rhf"
			},
			{
				"type": "unocc",
				"energy": -0.01813,
				"method": "rhf"
			},
			{
				"type": "unocc",
				"energy": -0.01267,
				"method": "rhf"
			},
			{
				"type": "unocc",
				"energy": 0.0097,
				"method": "rhf"
			},
			{
				"type": "unocc",
				"energy": 0.02378,
				"method": "rhf"
			}
		],
		"cosmo_sigma_profile": { 
			"-0.025": 0.0,
			"-0.024": 0.0,
			"-0.023": 0.0,
			"-0.022": 0.0,
			"-0.021": 0.0,
			"-0.02": 0.0,
			"-0.019": 0.0,
			"-0.018": 0.0,
			"-0.017": 0.0,
			"-0.016": 0.0,
			"-0.015": 0.0,
			"-0.014": 0.0,
			"-0.013": 0.0,
			"-0.012": 0.0,
			"-0.011": 0.0,
			"-0.01": 0.0,
			"-0.009": 0.0,
			"-0.008": 2.79867593072,
			"-0.007": 10.8394777755,
			"-0.006": 15.6504109952,
			"-0.005": 18.6666502538,
			"-0.004": 20.0066550099,
			"-0.003": 17.7754168567,
			"-0.002": 14.7132153248,
			"-0.001": 17.1363331438,
			"0.0": 23.4378262513,
			"0.001": 26.0740032137,
			"0.002": 22.7112931172,
			"0.003": 23.3447998224,
			"0.004": 15.9858873418,
			"0.005": 11.3812515123,
			"0.006": 12.3887458633,
			"0.007": 2.36790280112,
			"0.008": 1.49273445168,
			"0.009": 1.8808346923,
			"0.01": 2.50120117929,
			"0.011": 4.46717446728,
			"0.012": 0.962128964876,
			"0.013": 0.0,
			"0.014": 0.0,
			"0.015": 0.0,
			"0.016": 0.0,
			"0.017": 0.0,
			"0.018": 0.0,
			"0.019": 0.0,
			"0.02": 0.0,
			"0.021": 0.0,
			"0.022": 0.0,
			"0.023": 0.0,
			"0.024": 0.0,
			"0.025": 0.0
		}
	}
}
