{
	 "smiles": "CN1C=C(C=N1)C(=O)CBr", 
	 "Tm": 390.15, 
	 "num_atms": 17, 
	 "gaussian": { 
		 "optdone": 1, 
		 "sigma_profile": "yes", 
		 "theory": "DFT", 
		 "functional": "B3LYP", 
		 "basiset": "6-31G**", 
		 "properties": { 
			 "R2extent": 4677.7177, 
			 "electric_dipole_moment_norm": 3.31161820716, 
			 "electric_quadrupole_moment_norm": 15.1499072512, 
			 "total_energy": -2988.96350406, 
			 "HOMO_LUMO_gap": 0.19321, 
			 "cosmo_polarized_energy": -12.3, 
			 "cosmo_cavitation_energy": 23.99, 
			 "cosmo_dispersion_energy": -17.7, 
			 "cosmo_repulsion_energy": 1.45, 
			 "cosmo_total_nonelectrostatic_energy": 7.73, 
			 "SMD_solvation_energy": 3.26 
		},
		"coords": [
			{
				"x": -2.8400873902,
				"y": -0.4713521933,
				"z": -1.259028055,
				"element": "C" 
			},
			{
				"x": -1.4359264872,
				"y": -0.102141962,
				"z": -1.2945796277,
				"element": "N" 
			},
			{
				"x": -0.3689756895,
				"y": -0.8955366838,
				"z": -1.504963526,
				"element": "C" 
			},
			{
				"x": 0.7603367843,
				"y": -0.0815444035,
				"z": -1.4461025986,
				"element": "C" 
			},
			{
				"x": 0.2335599969,
				"y": 1.2139649481,
				"z": -1.1905571225,
				"element": "C" 
			},
			{
				"x": -1.0896894701,
				"y": 1.1999803991,
				"z": -1.0989239572,
				"element": "N" 
			},
			{
				"x": 2.1359805305,
				"y": -0.5597518004,
				"z": -1.5951244204,
				"element": "C" 
			},
			{
				"x": 2.3999836204,
				"y": -1.7362631367,
				"z": -1.8055233222,
				"element": "O" 
			},
			{
				"x": 3.2798154557,
				"y": 0.4360294236,
				"z": -1.4274450087,
				"element": "C" 
			},
			{
				"x": 3.3483600224,
				"y": 1.7233698923,
				"z": -2.9308761196,
				"element": "Br" 
			},
			{
				"x": -3.3867596232,
				"y": 0.0745704505,
				"z": -2.0315594409,
				"element": "H" 
			},
			{
				"x": -2.9291428749,
				"y": -1.5437661302,
				"z": -1.4373638136,
				"element": "H" 
			},
			{
				"x": -3.2643670618,
				"y": -0.2262389873,
				"z": -0.2824323506,
				"element": "H" 
			},
			{
				"x": -0.451677398,
				"y": -1.9581684019,
				"z": -1.6774246214,
				"element": "H" 
			},
			{
				"x": 0.7670415577,
				"y": 2.1492756883,
				"z": -1.0898414271,
				"element": "H" 
			},
			{
				"x": 4.2244428646,
				"y": -0.1019029315,
				"z": -1.4390501556,
				"element": "H" 
			},
			{
				"x": 3.1792051626,
				"y": 1.0401758287,
				"z": -0.525004433,
				"element": "H" 
			}
		],
		 "valence_orbital": [ 
			{
				"type": "occ",
				"energy": -0.28896,
				"method": "rhf"
			},
			{
				"type": "occ",
				"energy": -0.28248,
				"method": "rhf"
			},
			{
				"type": "occ",
				"energy": -0.27003,
				"method": "rhf"
			},
			{
				"type": "occ",
				"energy": -0.25752,
				"method": "rhf"
			},
			{
				"type": "occ",
				"energy": -0.2524,
				"method": "rhf"
			},
			{
				"type": "unocc",
				"energy": -0.05919,
				"method": "rhf"
			},
			{
				"type": "unocc",
				"energy": 0.00032,
				"method": "rhf"
			},
			{
				"type": "unocc",
				"energy": 0.0123,
				"method": "rhf"
			},
			{
				"type": "unocc",
				"energy": 0.08542,
				"method": "rhf"
			},
			{
				"type": "unocc",
				"energy": 0.0938,
				"method": "rhf"
			}
		],
		"cosmo_sigma_profile": { 
			"-0.025": 0.0,
			"-0.024": 0.0,
			"-0.023": 0.0,
			"-0.022": 0.0,
			"-0.021": 0.0,
			"-0.02": 0.0,
			"-0.019": 0.0,
			"-0.018": 0.0,
			"-0.017": 0.0,
			"-0.016": 0.0,
			"-0.015": 0.0,
			"-0.014": 0.0,
			"-0.013": 0.0,
			"-0.012": 0.0,
			"-0.011": 0.11665984465,
			"-0.01": 2.47436283638,
			"-0.009": 4.20187566599,
			"-0.008": 7.9557789477,
			"-0.007": 11.3096746782,
			"-0.006": 12.5420924934,
			"-0.005": 12.6726424601,
			"-0.004": 13.8025682227,
			"-0.003": 12.8602953631,
			"-0.002": 9.00265039191,
			"-0.001": 7.2705302935,
			"0.0": 10.226310327,
			"0.001": 13.0009900004,
			"0.002": 12.4236805063,
			"0.003": 11.6137849933,
			"0.004": 12.3185199476,
			"0.005": 12.1542188296,
			"0.006": 4.59902556665,
			"0.007": 2.53656546736,
			"0.008": 2.67628320639,
			"0.009": 2.40769116391,
			"0.01": 4.03699334056,
			"0.011": 4.76499116477,
			"0.012": 4.75040489124,
			"0.013": 1.19563245858,
			"0.014": 1.14202387725,
			"0.015": 0.633063044436,
			"0.016": 0.00201069501551,
			"0.017": 0.0,
			"0.018": 0.0,
			"0.019": 0.0,
			"0.02": 0.0,
			"0.021": 0.0,
			"0.022": 0.0,
			"0.023": 0.0,
			"0.024": 0.0,
			"0.025": 0.0
		}
	}
}
