{
	 "smiles": "FC1=C(C=CC(Cl)=C1)C(=O)CC1=NC=CN1", 
	 "Tm": 414.15, 
	 "num_atms": 24, 
	 "gaussian": { 
		 "optdone": 1, 
		 "sigma_profile": "yes", 
		 "theory": "DFT", 
		 "functional": "B3LYP", 
		 "basiset": "6-31G**", 
		 "properties": { 
			 "R2extent": 4817.1566, 
			 "electric_dipole_moment_norm": 4.42584631116, 
			 "electric_quadrupole_moment_norm": 10.3824709323, 
			 "total_energy": -1168.73923917, 
			 "HOMO_LUMO_gap": 0.14648, 
			 "cosmo_polarized_energy": -16.1, 
			 "cosmo_cavitation_energy": 30.91, 
			 "cosmo_dispersion_energy": -22.33, 
			 "cosmo_repulsion_energy": 1.72, 
			 "cosmo_total_nonelectrostatic_energy": 10.3, 
			 "SMD_solvation_energy": 4.21 
		},
		"coords": [
			{
				"x": -0.3764112107,
				"y": -2.326523182,
				"z": 0.1080507164,
				"element": "F" 
			},
			{
				"x": 0.4140477825,
				"y": -1.7485943914,
				"z": -0.8397214085,
				"element": "C" 
			},
			{
				"x": 1.3443234133,
				"y": -0.7670430051,
				"z": -0.4856984392,
				"element": "C" 
			},
			{
				"x": 2.1352740214,
				"y": -0.2560295813,
				"z": -1.5305352228,
				"element": "C" 
			},
			{
				"x": 1.9924652986,
				"y": -0.6781849582,
				"z": -2.8457942923,
				"element": "C" 
			},
			{
				"x": 1.0402464599,
				"y": -1.6579131499,
				"z": -3.1394271245,
				"element": "C" 
			},
			{
				"x": 0.8425018706,
				"y": -2.2122771578,
				"z": -4.7865266729,
				"element": "Cl" 
			},
			{
				"x": 0.2425506522,
				"y": -2.208163889,
				"z": -2.1387728199,
				"element": "C" 
			},
			{
				"x": 1.6171271442,
				"y": -0.2384950368,
				"z": 0.9013413314,
				"element": "C" 
			},
			{
				"x": 2.6458943242,
				"y": 0.3817502778,
				"z": 1.101399641,
				"element": "O" 
			},
			{
				"x": 0.606148138,
				"y": -0.4368460883,
				"z": 2.0359819404,
				"element": "C" 
			},
			{
				"x": -0.6435163495,
				"y": 0.3756277383,
				"z": 1.8380561565,
				"element": "C" 
			},
			{
				"x": -0.78403958,
				"y": 1.6423141752,
				"z": 2.1798241694,
				"element": "N" 
			},
			{
				"x": -2.0640030928,
				"y": 1.9863429581,
				"z": 1.8106954947,
				"element": "C" 
			},
			{
				"x": -2.7075030565,
				"y": 0.9186034227,
				"z": 1.2355451178,
				"element": "C" 
			},
			{
				"x": -1.7877492643,
				"y": -0.1085656204,
				"z": 1.258806989,
				"element": "N" 
			},
			{
				"x": 2.8739568982,
				"y": 0.4930736436,
				"z": -1.2665522855,
				"element": "H" 
			},
			{
				"x": 2.6072816287,
				"y": -0.2620781902,
				"z": -3.6352680458,
				"element": "H" 
			},
			{
				"x": -0.4894951949,
				"y": -2.9782631536,
				"z": -2.3486660359,
				"element": "H" 
			},
			{
				"x": 0.3642701521,
				"y": -1.4972975115,
				"z": 2.1449428969,
				"element": "H" 
			},
			{
				"x": 1.1018951542,
				"y": -0.0849767942,
				"z": 2.941657656,
				"element": "H" 
			},
			{
				"x": -2.4518523174,
				"y": 2.9804217686,
				"z": 1.9846328696,
				"element": "H" 
			},
			{
				"x": -3.7007371049,
				"y": 0.7925268985,
				"z": 0.8331334322,
				"element": "H" 
			},
			{
				"x": -1.908875767,
				"y": -1.0410091731,
				"z": 0.8943939361,
				"element": "H" 
			}
		],
		 "valence_orbital": [ 
			{
				"type": "occ",
				"energy": -0.28018,
				"method": "rhf"
			},
			{
				"type": "occ",
				"energy": -0.27154,
				"method": "rhf"
			},
			{
				"type": "occ",
				"energy": -0.26917,
				"method": "rhf"
			},
			{
				"type": "occ",
				"energy": -0.26277,
				"method": "rhf"
			},
			{
				"type": "occ",
				"energy": -0.22122,
				"method": "rhf"
			},
			{
				"type": "unocc",
				"energy": -0.07474,
				"method": "rhf"
			},
			{
				"type": "unocc",
				"energy": -0.03253,
				"method": "rhf"
			},
			{
				"type": "unocc",
				"energy": 0.00566,
				"method": "rhf"
			},
			{
				"type": "unocc",
				"energy": 0.00904,
				"method": "rhf"
			},
			{
				"type": "unocc",
				"energy": 0.03557,
				"method": "rhf"
			}
		],
		"cosmo_sigma_profile": { 
			"-0.025": 0.0,
			"-0.024": 0.0,
			"-0.023": 0.0,
			"-0.022": 0.0,
			"-0.021": 0.0,
			"-0.02": 0.0,
			"-0.019": 0.0,
			"-0.018": 0.0,
			"-0.017": 0.0,
			"-0.016": 0.0,
			"-0.015": 0.0400534558661,
			"-0.014": 0.815824647237,
			"-0.013": 1.00375965656,
			"-0.012": 0.684353227215,
			"-0.011": 1.02994005906,
			"-0.01": 2.06268196889,
			"-0.009": 3.32155650159,
			"-0.008": 7.54800797589,
			"-0.007": 10.0267006827,
			"-0.006": 13.0545345102,
			"-0.005": 13.4554371128,
			"-0.004": 11.7289186693,
			"-0.003": 16.6298961492,
			"-0.002": 17.1752319913,
			"-0.001": 20.8257420036,
			"0.0": 25.5404195882,
			"0.001": 20.2970955411,
			"0.002": 15.3878679878,
			"0.003": 15.9868122688,
			"0.004": 13.8229704896,
			"0.005": 6.93334124096,
			"0.006": 6.80575885747,
			"0.007": 4.06087231699,
			"0.008": 2.2947286915,
			"0.009": 3.7030110983,
			"0.01": 4.58769378484,
			"0.011": 4.54854708592,
			"0.012": 2.2686551988,
			"0.013": 1.00340317429,
			"0.014": 1.14406437878,
			"0.015": 1.24668396749,
			"0.016": 0.761263979997,
			"0.017": 0.73524073218,
			"0.018": 0.842336523074,
			"0.019": 0.0289628275194,
			"0.02": 0.0,
			"0.021": 0.0,
			"0.022": 0.0,
			"0.023": 0.0,
			"0.024": 0.0,
			"0.025": 0.0
		}
	}
}
