{
	 "smiles": "OC1=C(Br)C=C(Br)C=C1", 
	 "Tm": 311.65, 
	 "num_atms": 13, 
	 "gaussian": { 
		 "optdone": 1, 
		 "sigma_profile": "yes", 
		 "theory": "DFT", 
		 "functional": "B3LYP", 
		 "basiset": "6-31G**", 
		 "properties": { 
			 "R2extent": 3333.9973, 
			 "electric_dipole_moment_norm": 0.964377576471, 
			 "electric_quadrupole_moment_norm": 4.51657523905, 
			 "total_energy": -5449.0773546, 
			 "HOMO_LUMO_gap": 0.20213, 
			 "cosmo_polarized_energy": -5.43, 
			 "cosmo_cavitation_energy": 21.86, 
			 "cosmo_dispersion_energy": -17.35, 
			 "cosmo_repulsion_energy": 1.41, 
			 "cosmo_total_nonelectrostatic_energy": 5.92, 
			 "SMD_solvation_energy": 1.89 
		},
		"coords": [
			{
				"x": 2.0023874116,
				"y": -0.6551130951,
				"z": 3.1134854978,
				"element": "O" 
			},
			{
				"x": 1.1353291872,
				"y": -0.2970366555,
				"z": 2.1384637859,
				"element": "C" 
			},
			{
				"x": 0.9661581434,
				"y": -1.0137035153,
				"z": 0.9440651768,
				"element": "C" 
			},
			{
				"x": 2.01935537,
				"y": -2.5905574389,
				"z": 0.6707570646,
				"element": "Br" 
			},
			{
				"x": 0.0611479796,
				"y": -0.6080622987,
				"z": -0.0332467771,
				"element": "C" 
			},
			{
				"x": -0.6926337726,
				"y": 0.5410856682,
				"z": 0.1885225191,
				"element": "C" 
			},
			{
				"x": -1.9386356013,
				"y": 1.1129296119,
				"z": -1.1409318717,
				"element": "Br" 
			},
			{
				"x": -0.5472298032,
				"y": 1.2753833252,
				"z": 1.3663904366,
				"element": "C" 
			},
			{
				"x": 0.3616299751,
				"y": 0.8550441429,
				"z": 2.331276777,
				"element": "C" 
			},
			{
				"x": 2.4632985699,
				"y": -1.4650402348,
				"z": 2.8405962815,
				"element": "H" 
			},
			{
				"x": -0.0498877115,
				"y": -1.1792923525,
				"z": -0.9460796739,
				"element": "H" 
			},
			{
				"x": -1.1396448302,
				"y": 2.1683748549,
				"z": 1.5277445916,
				"element": "H" 
			},
			{
				"x": 0.492225082,
				"y": 1.4092879876,
				"z": 3.2546561918,
				"element": "H" 
			}
		],
		 "valence_orbital": [ 
			{
				"type": "occ",
				"energy": -0.31523,
				"method": "rhf"
			},
			{
				"type": "occ",
				"energy": -0.29872,
				"method": "rhf"
			},
			{
				"type": "occ",
				"energy": -0.2923,
				"method": "rhf"
			},
			{
				"type": "occ",
				"energy": -0.26486,
				"method": "rhf"
			},
			{
				"type": "occ",
				"energy": -0.23071,
				"method": "rhf"
			},
			{
				"type": "unocc",
				"energy": -0.02858,
				"method": "rhf"
			},
			{
				"type": "unocc",
				"energy": -0.02397,
				"method": "rhf"
			},
			{
				"type": "unocc",
				"energy": -0.01239,
				"method": "rhf"
			},
			{
				"type": "unocc",
				"energy": 0.0194,
				"method": "rhf"
			},
			{
				"type": "unocc",
				"energy": 0.08228,
				"method": "rhf"
			}
		],
		"cosmo_sigma_profile": { 
			"-0.025": 0.0,
			"-0.024": 0.0,
			"-0.023": 0.0,
			"-0.022": 0.0,
			"-0.021": 0.0,
			"-0.02": 0.0,
			"-0.019": 0.0,
			"-0.018": 0.0,
			"-0.017": 0.0,
			"-0.016": 0.0,
			"-0.015": 0.223180894189,
			"-0.014": 0.514733414862,
			"-0.013": 1.0142597119,
			"-0.012": 0.60236602369,
			"-0.011": 0.407431922032,
			"-0.01": 1.21416852862,
			"-0.009": 0.896020691728,
			"-0.008": 3.07012704984,
			"-0.007": 6.37854225778,
			"-0.006": 7.58663490419,
			"-0.005": 6.61078069331,
			"-0.004": 8.68110007623,
			"-0.003": 8.67107062685,
			"-0.002": 10.8560321066,
			"-0.001": 12.3619965142,
			"0.0": 14.0227398294,
			"0.001": 22.8008514457,
			"0.002": 26.9002655347,
			"0.003": 20.0151314633,
			"0.004": 15.4797713862,
			"0.005": 6.3637308775,
			"0.006": 1.25052175349,
			"0.007": 1.5006472731,
			"0.008": 1.30002237372,
			"0.009": 1.48112383828,
			"0.01": 1.91469847378,
			"0.011": 0.252619496856,
			"0.012": 0.0,
			"0.013": 0.0,
			"0.014": 0.0,
			"0.015": 0.0,
			"0.016": 0.0,
			"0.017": 0.0,
			"0.018": 0.0,
			"0.019": 0.0,
			"0.02": 0.0,
			"0.021": 0.0,
			"0.022": 0.0,
			"0.023": 0.0,
			"0.024": 0.0,
			"0.025": 0.0
		}
	}
}
