{
	 "smiles": "[O-][N+](=O)C1=CC(=CC=C1)C1=NN=C2SC(NN12)C1=CC=C(Cl)C=C1", 
	 "Tm": 472.15, 
	 "num_atms": 34, 
	 "gaussian": { 
		 "optdone": 1, 
		 "sigma_profile": "yes", 
		 "theory": "DFT", 
		 "functional": "B3LYP", 
		 "basiset": "6-31G**", 
		 "properties": { 
			 "R2extent": 11331.7828, 
			 "electric_dipole_moment_norm": 2.39476486737, 
			 "electric_quadrupole_moment_norm": 28.3495025695, 
			 "total_energy": -1860.03719672, 
			 "HOMO_LUMO_gap": 0.13911, 
			 "cosmo_polarized_energy": -23.91, 
			 "cosmo_cavitation_energy": 43.39, 
			 "cosmo_dispersion_energy": -30.61, 
			 "cosmo_repulsion_energy": 2.25, 
			 "cosmo_total_nonelectrostatic_energy": 15.02, 
			 "SMD_solvation_energy": 6.63 
		},
		"coords": [
			{
				"x": -3.3242154692,
				"y": -0.8139096693,
				"z": 1.0215503443,
				"element": "O" 
			},
			{
				"x": -4.000148077,
				"y": -1.1515781302,
				"z": 0.0492593111,
				"element": "N" 
			},
			{
				"x": -5.2240991757,
				"y": -1.2682307836,
				"z": 0.0534389153,
				"element": "O" 
			},
			{
				"x": -3.290702497,
				"y": -1.4357380124,
				"z": -1.2106883236,
				"element": "C" 
			},
			{
				"x": -1.9038511718,
				"y": -1.316053926,
				"z": -1.229565579,
				"element": "C" 
			},
			{
				"x": -1.2197191271,
				"y": -1.5799911713,
				"z": -2.4221334224,
				"element": "C" 
			},
			{
				"x": -1.9501764585,
				"y": -1.9604442625,
				"z": -3.5647852445,
				"element": "C" 
			},
			{
				"x": -3.3364145323,
				"y": -2.0735423649,
				"z": -3.5138111531,
				"element": "C" 
			},
			{
				"x": -4.0279066604,
				"y": -1.8115157399,
				"z": -2.3298898599,
				"element": "C" 
			},
			{
				"x": 0.2354586772,
				"y": -1.4718172749,
				"z": -2.5305540007,
				"element": "C" 
			},
			{
				"x": 0.9311657046,
				"y": -1.7000216753,
				"z": -3.6321888667,
				"element": "N" 
			},
			{
				"x": 2.2754329564,
				"y": -1.4788795629,
				"z": -3.384919081,
				"element": "N" 
			},
			{
				"x": 2.3603426247,
				"y": -1.1431218511,
				"z": -2.1232997455,
				"element": "C" 
			},
			{
				"x": 3.6271819083,
				"y": -0.6827116228,
				"z": -0.9946202348,
				"element": "S" 
			},
			{
				"x": 2.2264567737,
				"y": 0.0343297525,
				"z": 0.0995427642,
				"element": "C" 
			},
			{
				"x": 1.0452713366,
				"y": -0.793414412,
				"z": -0.168999983,
				"element": "N" 
			},
			{
				"x": 1.1231602873,
				"y": -1.1219070962,
				"z": -1.5364517147,
				"element": "N" 
			},
			{
				"x": 1.9839032589,
				"y": 1.5120621627,
				"z": -0.1538814493,
				"element": "C" 
			},
			{
				"x": 0.6812383561,
				"y": 2.021834034,
				"z": -0.2035701184,
				"element": "C" 
			},
			{
				"x": 0.4550693756,
				"y": 3.3886006926,
				"z": -0.368963914,
				"element": "C" 
			},
			{
				"x": 1.5426413617,
				"y": 4.2525759065,
				"z": -0.4729482945,
				"element": "C" 
			},
			{
				"x": 1.2673107896,
				"y": 5.9731719802,
				"z": -0.6781318064,
				"element": "Cl" 
			},
			{
				"x": 2.8499708318,
				"y": 3.7681734655,
				"z": -0.4160477291,
				"element": "C" 
			},
			{
				"x": 3.0614061017,
				"y": 2.4009195065,
				"z": -0.2598856983,
				"element": "C" 
			},
			{
				"x": -1.3879122745,
				"y": -1.0177232429,
				"z": -0.3268320982,
				"element": "H" 
			},
			{
				"x": -1.4067277704,
				"y": -2.1602070658,
				"z": -4.4816310995,
				"element": "H" 
			},
			{
				"x": -3.8852709726,
				"y": -2.3676618156,
				"z": -4.4025610953,
				"element": "H" 
			},
			{
				"x": -5.1052445556,
				"y": -1.8912501199,
				"z": -2.2601827917,
				"element": "H" 
			},
			{
				"x": 2.5304983764,
				"y": -0.1419580769,
				"z": 1.1344192942,
				"element": "H" 
			},
			{
				"x": 1.1249681049,
				"y": -1.6672570541,
				"z": 0.3549770843,
				"element": "H" 
			},
			{
				"x": -0.1633610653,
				"y": 1.3497587156,
				"z": -0.1084024318,
				"element": "H" 
			},
			{
				"x": -0.5561053208,
				"y": 3.7772687914,
				"z": -0.4138936894,
				"element": "H" 
			},
			{
				"x": 3.688122382,
				"y": 4.4505442884,
				"z": -0.5008324566,
				"element": "H" 
			},
			{
				"x": 4.0801559208,
				"y": 2.0266956348,
				"z": -0.236215832,
				"element": "H" 
			}
		],
		 "valence_orbital": [ 
			{
				"type": "occ",
				"energy": -0.28693,
				"method": "rhf"
			},
			{
				"type": "occ",
				"energy": -0.2778,
				"method": "rhf"
			},
			{
				"type": "occ",
				"energy": -0.26908,
				"method": "rhf"
			},
			{
				"type": "occ",
				"energy": -0.25895,
				"method": "rhf"
			},
			{
				"type": "occ",
				"energy": -0.23675,
				"method": "rhf"
			},
			{
				"type": "unocc",
				"energy": -0.09764,
				"method": "rhf"
			},
			{
				"type": "unocc",
				"energy": -0.06134,
				"method": "rhf"
			},
			{
				"type": "unocc",
				"energy": -0.0458,
				"method": "rhf"
			},
			{
				"type": "unocc",
				"energy": -0.02958,
				"method": "rhf"
			},
			{
				"type": "unocc",
				"energy": -0.01791,
				"method": "rhf"
			}
		],
		"cosmo_sigma_profile": { 
			"-0.025": 0.0,
			"-0.024": 0.0,
			"-0.023": 0.0,
			"-0.022": 0.0,
			"-0.021": 0.0,
			"-0.02": 0.0,
			"-0.019": 0.0,
			"-0.018": 0.0,
			"-0.017": 0.0,
			"-0.016": 1.27629327297,
			"-0.015": 2.51291281665,
			"-0.014": 1.91565144366,
			"-0.013": 1.49606393704,
			"-0.012": 2.0868114289,
			"-0.011": 3.16044344487,
			"-0.01": 4.38070693309,
			"-0.009": 3.31621922262,
			"-0.008": 5.85488468648,
			"-0.007": 14.4201626918,
			"-0.006": 15.987842771,
			"-0.005": 15.5918374912,
			"-0.004": 17.4951333756,
			"-0.003": 18.3879908989,
			"-0.002": 23.4245382455,
			"-0.001": 28.3953734713,
			"0.0": 31.5690302937,
			"0.001": 31.8460954039,
			"0.002": 26.4087127262,
			"0.003": 25.73150264,
			"0.004": 17.1145379107,
			"0.005": 11.9604258547,
			"0.006": 7.28524696241,
			"0.007": 10.5826244604,
			"0.008": 8.40309208085,
			"0.009": 5.86483368746,
			"0.01": 4.23642872656,
			"0.011": 2.4100897364,
			"0.012": 2.91070269906,
			"0.013": 3.71667263083,
			"0.014": 2.78290964362,
			"0.015": 1.50650134679,
			"0.016": 0.672143593483,
			"0.017": 0.00811249050431,
			"0.018": 0.0,
			"0.019": 0.0,
			"0.02": 0.0,
			"0.021": 0.0,
			"0.022": 0.0,
			"0.023": 0.0,
			"0.024": 0.0,
			"0.025": 0.0
		}
	}
}
