{
	 "smiles": "OC(=O)CSCC(=O)NC1CCSC1=O", 
	 "Tm": 429.15, 
	 "num_atms": 26, 
	 "gaussian": { 
		 "optdone": 1, 
		 "sigma_profile": "yes", 
		 "theory": "DFT", 
		 "functional": "B3LYP", 
		 "basiset": "6-31G**", 
		 "properties": { 
			 "R2extent": 5162.6965, 
			 "electric_dipole_moment_norm": 5.65932052547, 
			 "electric_quadrupole_moment_norm": 22.0184394336, 
			 "total_energy": -1463.52795771, 
			 "HOMO_LUMO_gap": 0.20754, 
			 "cosmo_polarized_energy": -23.86, 
			 "cosmo_cavitation_energy": 32.72, 
			 "cosmo_dispersion_energy": -23.32, 
			 "cosmo_repulsion_energy": 1.74, 
			 "cosmo_total_nonelectrostatic_energy": 11.14, 
			 "SMD_solvation_energy": 6.69 
		},
		"coords": [
			{
				"x": -1.1115423438,
				"y": 0.7985497016,
				"z": 2.792046499,
				"element": "O" 
			},
			{
				"x": -0.9061990617,
				"y": 0.0317398898,
				"z": 1.7073204789,
				"element": "C" 
			},
			{
				"x": -1.8403050317,
				"y": -0.4328557214,
				"z": 1.0894236701,
				"element": "O" 
			},
			{
				"x": 0.5470319271,
				"y": -0.1878326484,
				"z": 1.2996089289,
				"element": "C" 
			},
			{
				"x": 1.4719577888,
				"y": 1.3832432292,
				"z": 1.0907632196,
				"element": "S" 
			},
			{
				"x": 0.405229744,
				"y": 2.232677648,
				"z": -0.150176757,
				"element": "C" 
			},
			{
				"x": 0.3692497313,
				"y": 1.5342337473,
				"z": -1.513287106,
				"element": "C" 
			},
			{
				"x": 1.2107072782,
				"y": 1.7518085423,
				"z": -2.3705812186,
				"element": "O" 
			},
			{
				"x": -0.6652554513,
				"y": 0.6469885808,
				"z": -1.6675061473,
				"element": "N" 
			},
			{
				"x": -0.8930934714,
				"y": -0.0568210946,
				"z": -2.9226473785,
				"element": "C" 
			},
			{
				"x": -0.8971516765,
				"y": -1.579739153,
				"z": -2.7778787333,
				"element": "C" 
			},
			{
				"x": -2.2611400278,
				"y": -2.001055971,
				"z": -2.2044599735,
				"element": "C" 
			},
			{
				"x": -3.5078227723,
				"y": -0.9283810148,
				"z": -3.0367161021,
				"element": "S" 
			},
			{
				"x": -2.2915747782,
				"y": 0.343110983,
				"z": -3.4646965206,
				"element": "C" 
			},
			{
				"x": -2.5517597905,
				"y": 1.3605993363,
				"z": -4.051286161,
				"element": "O" 
			},
			{
				"x": -0.2697665633,
				"y": 1.2018723498,
				"z": 3.0673042246,
				"element": "H" 
			},
			{
				"x": 0.5653915089,
				"y": -0.7831620536,
				"z": 0.3873780189,
				"element": "H" 
			},
			{
				"x": 1.0775305168,
				"y": -0.7332551165,
				"z": 2.0876199792,
				"element": "H" 
			},
			{
				"x": 0.879259101,
				"y": 3.2048065442,
				"z": -0.2947065354,
				"element": "H" 
			},
			{
				"x": -0.5936759767,
				"y": 2.3875731714,
				"z": 0.2695363107,
				"element": "H" 
			},
			{
				"x": -1.3257932503,
				"y": 0.5077665226,
				"z": -0.9115705012,
				"element": "H" 
			},
			{
				"x": -0.1341585245,
				"y": 0.3065746985,
				"z": -3.6179676468,
				"element": "H" 
			},
			{
				"x": -0.07326042,
				"y": -1.9231851101,
				"z": -2.145036572,
				"element": "H" 
			},
			{
				"x": -0.7684502603,
				"y": -2.0253607764,
				"z": -3.7701008426,
				"element": "H" 
			},
			{
				"x": -2.3170589557,
				"y": -1.8443561676,
				"z": -1.1239475697,
				"element": "H" 
			},
			{
				"x": -2.4965492401,
				"y": -3.0443401177,
				"z": -2.4221355643,
				"element": "H" 
			}
		],
		 "valence_orbital": [ 
			{
				"type": "occ",
				"energy": -0.28919,
				"method": "rhf"
			},
			{
				"type": "occ",
				"energy": -0.27883,
				"method": "rhf"
			},
			{
				"type": "occ",
				"energy": -0.25893,
				"method": "rhf"
			},
			{
				"type": "occ",
				"energy": -0.25521,
				"method": "rhf"
			},
			{
				"type": "occ",
				"energy": -0.24815,
				"method": "rhf"
			},
			{
				"type": "unocc",
				"energy": -0.04061,
				"method": "rhf"
			},
			{
				"type": "unocc",
				"energy": -0.03188,
				"method": "rhf"
			},
			{
				"type": "unocc",
				"energy": -0.01663,
				"method": "rhf"
			},
			{
				"type": "unocc",
				"energy": 0.01644,
				"method": "rhf"
			},
			{
				"type": "unocc",
				"energy": 0.03037,
				"method": "rhf"
			}
		],
		"cosmo_sigma_profile": { 
			"-0.025": 0.0,
			"-0.024": 0.0,
			"-0.023": 0.0,
			"-0.022": 0.0,
			"-0.021": 0.0,
			"-0.02": 0.0,
			"-0.019": 0.0,
			"-0.018": 0.0,
			"-0.017": 0.35617091599,
			"-0.016": 1.07932833178,
			"-0.015": 1.50070365695,
			"-0.014": 0.999960477495,
			"-0.013": 0.871869985123,
			"-0.012": 1.76770896352,
			"-0.011": 2.69319199549,
			"-0.01": 4.3164747173,
			"-0.009": 5.21916531186,
			"-0.008": 6.22669709749,
			"-0.007": 12.5095655621,
			"-0.006": 18.8990137799,
			"-0.005": 20.8667827155,
			"-0.004": 17.8976080004,
			"-0.003": 18.5564873627,
			"-0.002": 12.6586271398,
			"-0.001": 8.24191249519,
			"0.0": 9.05744108753,
			"0.001": 10.301717752,
			"0.002": 12.3812218961,
			"0.003": 14.3534480688,
			"0.004": 11.8416056513,
			"0.005": 11.084891099,
			"0.006": 9.36875400209,
			"0.007": 7.17092998075,
			"0.008": 7.92399149572,
			"0.009": 9.10960391293,
			"0.01": 8.21371560058,
			"0.011": 7.07976637946,
			"0.012": 5.14099502081,
			"0.013": 4.32981404667,
			"0.014": 1.03466223355,
			"0.015": 0.0,
			"0.016": 0.0,
			"0.017": 0.0,
			"0.018": 0.0,
			"0.019": 0.0,
			"0.02": 0.0,
			"0.021": 0.0,
			"0.022": 0.0,
			"0.023": 0.0,
			"0.024": 0.0,
			"0.025": 0.0
		}
	}
}
