{
	 "smiles": "OC(=O)C1=C(C=CS1)C#N", 
	 "Tm": 465.15, 
	 "num_atms": 13, 
	 "gaussian": { 
		 "optdone": 1, 
		 "sigma_profile": "yes", 
		 "theory": "DFT", 
		 "functional": "B3LYP", 
		 "basiset": "6-31G**", 
		 "properties": { 
			 "R2extent": 2245.9042, 
			 "electric_dipole_moment_norm": 3.03442373442, 
			 "electric_quadrupole_moment_norm": 17.0877399565, 
			 "total_energy": -833.810533395, 
			 "HOMO_LUMO_gap": 0.18302, 
			 "cosmo_polarized_energy": -13.94, 
			 "cosmo_cavitation_energy": 21.0, 
			 "cosmo_dispersion_energy": -15.52, 
			 "cosmo_repulsion_energy": 1.22, 
			 "cosmo_total_nonelectrostatic_energy": 6.7, 
			 "SMD_solvation_energy": 6.34 
		},
		"coords": [
			{
				"x": 2.9625796146,
				"y": 0.6089269889,
				"z": 0.5900277248,
				"element": "O" 
			},
			{
				"x": 2.0501059413,
				"y": -0.3278100271,
				"z": 0.9118128809,
				"element": "C" 
			},
			{
				"x": 1.8710129053,
				"y": -0.7359427334,
				"z": 2.0429835785,
				"element": "O" 
			},
			{
				"x": 1.2890804049,
				"y": -0.8069429871,
				"z": -0.2551225506,
				"element": "C" 
			},
			{
				"x": 1.3555350131,
				"y": -0.4608395072,
				"z": -1.5994829081,
				"element": "C" 
			},
			{
				"x": 0.41600267,
				"y": -1.1876834404,
				"z": -2.3971561059,
				"element": "C" 
			},
			{
				"x": -0.3329023696,
				"y": -2.0574129139,
				"z": -1.6525889312,
				"element": "C" 
			},
			{
				"x": 0.0797920594,
				"y": -2.0166849429,
				"z": 0.0216574551,
				"element": "S" 
			},
			{
				"x": 2.2403061221,
				"y": 0.5022209099,
				"z": -2.1723204277,
				"element": "C" 
			},
			{
				"x": 2.9301591271,
				"y": 1.2714303749,
				"z": -2.7060039657,
				"element": "N" 
			},
			{
				"x": 3.4082222302,
				"y": 0.859603261,
				"z": 1.4164624132,
				"element": "H" 
			},
			{
				"x": 0.3189509053,
				"y": -1.0549525868,
				"z": -3.4673966036,
				"element": "H" 
			},
			{
				"x": -1.1098446239,
				"y": -2.7238123959,
				"z": -2.0015725598,
				"element": "H" 
			}
		],
		 "valence_orbital": [ 
			{
				"type": "occ",
				"energy": -0.33557,
				"method": "rhf"
			},
			{
				"type": "occ",
				"energy": -0.33543,
				"method": "rhf"
			},
			{
				"type": "occ",
				"energy": -0.2987,
				"method": "rhf"
			},
			{
				"type": "occ",
				"energy": -0.28186,
				"method": "rhf"
			},
			{
				"type": "occ",
				"energy": -0.27292,
				"method": "rhf"
			},
			{
				"type": "unocc",
				"energy": -0.0899,
				"method": "rhf"
			},
			{
				"type": "unocc",
				"energy": -0.00853,
				"method": "rhf"
			},
			{
				"type": "unocc",
				"energy": -0.00178,
				"method": "rhf"
			},
			{
				"type": "unocc",
				"energy": 0.0348,
				"method": "rhf"
			},
			{
				"type": "unocc",
				"energy": 0.03869,
				"method": "rhf"
			}
		],
		"cosmo_sigma_profile": { 
			"-0.025": 0.0,
			"-0.024": 0.0,
			"-0.023": 0.0,
			"-0.022": 0.0,
			"-0.021": 0.0,
			"-0.02": 0.0947864671457,
			"-0.019": 0.884426985772,
			"-0.018": 0.946527155571,
			"-0.017": 1.01830320095,
			"-0.016": 1.04660285706,
			"-0.015": 0.522113812956,
			"-0.014": 0.462364969498,
			"-0.013": 0.401511344496,
			"-0.012": 0.861244583386,
			"-0.011": 1.48818660023,
			"-0.01": 3.61266085554,
			"-0.009": 4.79234707917,
			"-0.008": 5.18362763066,
			"-0.007": 5.38315301044,
			"-0.006": 4.09113372047,
			"-0.005": 4.50305446151,
			"-0.004": 8.50846892292,
			"-0.003": 11.9641358576,
			"-0.002": 13.8985309101,
			"-0.001": 15.0243746082,
			"0.0": 15.4470604256,
			"0.001": 13.0610510681,
			"0.002": 6.04252863108,
			"0.003": 4.71804334413,
			"0.004": 4.53423706513,
			"0.005": 4.33827206185,
			"0.006": 4.47101407789,
			"0.007": 6.29904850483,
			"0.008": 7.39874031225,
			"0.009": 5.54172430795,
			"0.01": 5.88389546466,
			"0.011": 7.26883877587,
			"0.012": 2.44339477124,
			"0.013": 0.486069572734,
			"0.014": 0.0,
			"0.015": 0.0,
			"0.016": 0.0,
			"0.017": 0.0,
			"0.018": 0.0,
			"0.019": 0.0,
			"0.02": 0.0,
			"0.021": 0.0,
			"0.022": 0.0,
			"0.023": 0.0,
			"0.024": 0.0,
			"0.025": 0.0
		}
	}
}
