{
	 "smiles": "CCOC(=O)C1=CN2C(SC3=CC=CC=C23)=N1", 
	 "Tm": 407.15, 
	 "num_atms": 27, 
	 "gaussian": { 
		 "optdone": 1, 
		 "sigma_profile": "yes", 
		 "theory": "DFT", 
		 "functional": "B3LYP", 
		 "basiset": "6-31G**", 
		 "properties": { 
			 "R2extent": 7106.1475, 
			 "electric_dipole_moment_norm": 6.08878479255, 
			 "electric_quadrupole_moment_norm": 22.4399653493, 
			 "total_energy": -1121.45043316, 
			 "HOMO_LUMO_gap": 0.18122, 
			 "cosmo_polarized_energy": -16.41, 
			 "cosmo_cavitation_energy": 33.66, 
			 "cosmo_dispersion_energy": -25.16, 
			 "cosmo_repulsion_energy": 1.89, 
			 "cosmo_total_nonelectrostatic_energy": 10.39, 
			 "SMD_solvation_energy": 4.7 
		},
		"coords": [
			{
				"x": -2.4395387,
				"y": 0.4539381541,
				"z": -4.2303070427,
				"element": "C" 
			},
			{
				"x": -2.0484570679,
				"y": -0.7705248434,
				"z": -3.4156834043,
				"element": "C" 
			},
			{
				"x": -1.0783274082,
				"y": -0.4391792926,
				"z": -2.396554246,
				"element": "O" 
			},
			{
				"x": 0.2250932587,
				"y": -0.4373930773,
				"z": -2.7889619861,
				"element": "C" 
			},
			{
				"x": 0.5991638547,
				"y": -0.6979278098,
				"z": -3.911530881,
				"element": "O" 
			},
			{
				"x": 1.1008987343,
				"y": -0.0799155439,
				"z": -1.6551911353,
				"element": "C" 
			},
			{
				"x": 0.7067051418,
				"y": 0.2172889526,
				"z": -0.3635934475,
				"element": "C" 
			},
			{
				"x": 1.8783499078,
				"y": 0.4820296121,
				"z": 0.3101022245,
				"element": "N" 
			},
			{
				"x": 2.8987320488,
				"y": 0.3276455426,
				"z": -0.6159592127,
				"element": "C" 
			},
			{
				"x": 4.4813490699,
				"y": 0.634551586,
				"z": 0.0946519237,
				"element": "S" 
			},
			{
				"x": 3.6953112686,
				"y": 0.9690062601,
				"z": 1.6544016054,
				"element": "C" 
			},
			{
				"x": 4.3155628208,
				"y": 1.3229420181,
				"z": 2.8509501841,
				"element": "C" 
			},
			{
				"x": 3.5223410028,
				"y": 1.5464796944,
				"z": 3.977740878,
				"element": "C" 
			},
			{
				"x": 2.1293866461,
				"y": 1.4188259224,
				"z": 3.9124575408,
				"element": "C" 
			},
			{
				"x": 1.499254514,
				"y": 1.0650454339,
				"z": 2.7196516754,
				"element": "C" 
			},
			{
				"x": 2.2918995722,
				"y": 0.8421178192,
				"z": 1.5952799858,
				"element": "C" 
			},
			{
				"x": 2.4778958823,
				"y": -0.0074499683,
				"z": -1.8024038394,
				"element": "N" 
			},
			{
				"x": -3.2274974351,
				"y": 0.1903668234,
				"z": -4.9439254324,
				"element": "H" 
			},
			{
				"x": -2.8158680812,
				"y": 1.2506840781,
				"z": -3.5816276317,
				"element": "H" 
			},
			{
				"x": -1.5805421152,
				"y": 0.8297969001,
				"z": -4.7912221739,
				"element": "H" 
			},
			{
				"x": -2.9008396079,
				"y": -1.1717899997,
				"z": -2.8614641977,
				"element": "H" 
			},
			{
				"x": -1.6330680793,
				"y": -1.5513967618,
				"z": -4.0572474842,
				"element": "H" 
			},
			{
				"x": -0.2661099753,
				"y": 0.2570453418,
				"z": 0.0969651782,
				"element": "H" 
			},
			{
				"x": 5.394817348,
				"y": 1.4227767473,
				"z": 2.9054276071,
				"element": "H" 
			},
			{
				"x": 3.9949966728,
				"y": 1.8226322416,
				"z": 4.914926582,
				"element": "H" 
			},
			{
				"x": 1.5292966758,
				"y": 1.5965827439,
				"z": 4.7990821363,
				"element": "H" 
			},
			{
				"x": 0.4202940504,
				"y": 0.964721425,
				"z": 2.6637345937,
				"element": "H" 
			}
		],
		 "valence_orbital": [ 
			{
				"type": "occ",
				"energy": -0.28737,
				"method": "rhf"
			},
			{
				"type": "occ",
				"energy": -0.2738,
				"method": "rhf"
			},
			{
				"type": "occ",
				"energy": -0.26484,
				"method": "rhf"
			},
			{
				"type": "occ",
				"energy": -0.24268,
				"method": "rhf"
			},
			{
				"type": "occ",
				"energy": -0.22521,
				"method": "rhf"
			},
			{
				"type": "unocc",
				"energy": -0.04399,
				"method": "rhf"
			},
			{
				"type": "unocc",
				"energy": -0.02673,
				"method": "rhf"
			},
			{
				"type": "unocc",
				"energy": -0.00412,
				"method": "rhf"
			},
			{
				"type": "unocc",
				"energy": -0.00315,
				"method": "rhf"
			},
			{
				"type": "unocc",
				"energy": 0.03189,
				"method": "rhf"
			}
		],
		"cosmo_sigma_profile": { 
			"-0.025": 0.0,
			"-0.024": 0.0,
			"-0.023": 0.0,
			"-0.022": 0.0,
			"-0.021": 0.0,
			"-0.02": 0.0,
			"-0.019": 0.0,
			"-0.018": 0.0,
			"-0.017": 0.0,
			"-0.016": 0.0,
			"-0.015": 0.0,
			"-0.014": 0.0,
			"-0.013": 0.0,
			"-0.012": 0.0,
			"-0.011": 0.160105530254,
			"-0.01": 2.56876566381,
			"-0.009": 3.01235484987,
			"-0.008": 5.53982045777,
			"-0.007": 7.44851528453,
			"-0.006": 11.2102804963,
			"-0.005": 14.610465834,
			"-0.004": 19.9067062802,
			"-0.003": 21.4593335786,
			"-0.002": 25.5173604919,
			"-0.001": 24.2339378138,
			"0.0": 27.5003713675,
			"0.001": 25.0848275199,
			"0.002": 19.9735763602,
			"0.003": 17.3077320258,
			"0.004": 12.7950546814,
			"0.005": 4.11332956797,
			"0.006": 4.17546870381,
			"0.007": 1.80839385174,
			"0.008": 2.73485123418,
			"0.009": 2.39389923868,
			"0.01": 2.5191657694,
			"0.011": 3.46380862147,
			"0.012": 4.75475209364,
			"0.013": 2.86168824052,
			"0.014": 1.81630418911,
			"0.015": 2.19957245078,
			"0.016": 1.25616001299,
			"0.017": 0.181182126883,
			"0.018": 0.0,
			"0.019": 0.0,
			"0.02": 0.0,
			"0.021": 0.0,
			"0.022": 0.0,
			"0.023": 0.0,
			"0.024": 0.0,
			"0.025": 0.0
		}
	}
}
