{
	 "smiles": "COC1=CC=C(C=C1)C(=O)NCCCC(O)=O", 
	 "Tm": 396.15, 
	 "num_atms": 32, 
	 "gaussian": { 
		 "optdone": 1, 
		 "sigma_profile": "yes", 
		 "theory": "DFT", 
		 "functional": "B3LYP", 
		 "basiset": "6-31G**", 
		 "properties": { 
			 "R2extent": 6953.9548, 
			 "electric_dipole_moment_norm": 9.22546318024, 
			 "electric_quadrupole_moment_norm": 43.9761773118, 
			 "total_energy": -821.998529196, 
			 "HOMO_LUMO_gap": 0.19273, 
			 "cosmo_polarized_energy": -21.45, 
			 "cosmo_cavitation_energy": 35.0, 
			 "cosmo_dispersion_energy": -25.66, 
			 "cosmo_repulsion_energy": 1.98, 
			 "cosmo_total_nonelectrostatic_energy": 11.33, 
			 "SMD_solvation_energy": 7.36 
		},
		"coords": [
			{
				"x": -2.6969804744,
				"y": -0.1431921699,
				"z": 4.5564073607,
				"element": "C" 
			},
			{
				"x": -1.3290677639,
				"y": -0.4535577075,
				"z": 4.3203021715,
				"element": "O" 
			},
			{
				"x": -0.7910944813,
				"y": -0.1397956114,
				"z": 3.1141254451,
				"element": "C" 
			},
			{
				"x": -1.4850152543,
				"y": 0.4828495222,
				"z": 2.066652344,
				"element": "C" 
			},
			{
				"x": -0.8254905243,
				"y": 0.7532544582,
				"z": 0.8704003712,
				"element": "C" 
			},
			{
				"x": 0.5247424124,
				"y": 0.4300482573,
				"z": 0.693175652,
				"element": "C" 
			},
			{
				"x": 1.2040982135,
				"y": -0.2067541454,
				"z": 1.74781861,
				"element": "C" 
			},
			{
				"x": 0.5590836553,
				"y": -0.4892597645,
				"z": 2.9417978619,
				"element": "C" 
			},
			{
				"x": 1.1490535961,
				"y": 0.7652310085,
				"z": -0.6210365467,
				"element": "C" 
			},
			{
				"x": 0.4398406366,
				"y": 1.0097230802,
				"z": -1.6110100489,
				"element": "O" 
			},
			{
				"x": 2.5062355164,
				"y": 0.8012240211,
				"z": -0.6764830547,
				"element": "N" 
			},
			{
				"x": 3.2644688021,
				"y": 1.1886490331,
				"z": -1.8679860535,
				"element": "C" 
			},
			{
				"x": 3.6575377403,
				"y": 0.0087471707,
				"z": -2.7717854515,
				"element": "C" 
			},
			{
				"x": 2.4899605527,
				"y": -0.6513418221,
				"z": -3.5366229462,
				"element": "C" 
			},
			{
				"x": 1.9384282184,
				"y": 0.2691307715,
				"z": -4.628035364,
				"element": "C" 
			},
			{
				"x": 1.009807682,
				"y": 1.1630889353,
				"z": -4.2496026794,
				"element": "O" 
			},
			{
				"x": 2.3488183954,
				"y": 0.2330814436,
				"z": -5.7673893783,
				"element": "O" 
			},
			{
				"x": -3.3554623495,
				"y": -0.6684436387,
				"z": 3.8538976076,
				"element": "H" 
			},
			{
				"x": -2.8821686041,
				"y": 0.9358028089,
				"z": 4.4885281261,
				"element": "H" 
			},
			{
				"x": -2.9092227083,
				"y": -0.481797089,
				"z": 5.5711060035,
				"element": "H" 
			},
			{
				"x": -2.5282300863,
				"y": 0.7547784448,
				"z": 2.1722119562,
				"element": "H" 
			},
			{
				"x": -1.3526804326,
				"y": 1.2248084306,
				"z": 0.0483329762,
				"element": "H" 
			},
			{
				"x": 2.2369628462,
				"y": -0.5253441105,
				"z": 1.635146805,
				"element": "H" 
			},
			{
				"x": 1.0717352542,
				"y": -0.9903914962,
				"z": 3.755831384,
				"element": "H" 
			},
			{
				"x": 3.0168479604,
				"y": 0.6948718508,
				"z": 0.1857964714,
				"element": "H" 
			},
			{
				"x": 2.6742713402,
				"y": 1.9213934195,
				"z": -2.4244916649,
				"element": "H" 
			},
			{
				"x": 4.1693252953,
				"y": 1.696879009,
				"z": -1.5206887501,
				"element": "H" 
			},
			{
				"x": 4.3939047665,
				"y": 0.3671739847,
				"z": -3.5013668818,
				"element": "H" 
			},
			{
				"x": 4.1606747145,
				"y": -0.7506732147,
				"z": -2.1611370723,
				"element": "H" 
			},
			{
				"x": 1.700685979,
				"y": -0.9535730266,
				"z": -2.8411081569,
				"element": "H" 
			},
			{
				"x": 2.8603278322,
				"y": -1.5455146352,
				"z": -4.0430139354,
				"element": "H" 
			},
			{
				"x": 0.7817012693,
				"y": 1.0755027815,
				"z": -3.2920731617,
				"element": "H" 
			}
		],
		 "valence_orbital": [ 
			{
				"type": "occ",
				"energy": -0.27833,
				"method": "rhf"
			},
			{
				"type": "occ",
				"energy": -0.27685,
				"method": "rhf"
			},
			{
				"type": "occ",
				"energy": -0.27075,
				"method": "rhf"
			},
			{
				"type": "occ",
				"energy": -0.24032,
				"method": "rhf"
			},
			{
				"type": "occ",
				"energy": -0.23759,
				"method": "rhf"
			},
			{
				"type": "unocc",
				"energy": -0.04486,
				"method": "rhf"
			},
			{
				"type": "unocc",
				"energy": -0.02286,
				"method": "rhf"
			},
			{
				"type": "unocc",
				"energy": 0.0349,
				"method": "rhf"
			},
			{
				"type": "unocc",
				"energy": 0.04974,
				"method": "rhf"
			},
			{
				"type": "unocc",
				"energy": 0.05473,
				"method": "rhf"
			}
		],
		"cosmo_sigma_profile": { 
			"-0.025": 0.0,
			"-0.024": 0.0,
			"-0.023": 0.0,
			"-0.022": 0.0,
			"-0.021": 0.0,
			"-0.02": 0.0,
			"-0.019": 0.0,
			"-0.018": 0.0,
			"-0.017": 0.0,
			"-0.016": 0.0,
			"-0.015": 0.951636756603,
			"-0.014": 1.28467717934,
			"-0.013": 1.12589803834,
			"-0.012": 1.62296571279,
			"-0.011": 1.32096503867,
			"-0.01": 1.24682315535,
			"-0.009": 1.48446070953,
			"-0.008": 2.62848519923,
			"-0.007": 4.45978419946,
			"-0.006": 15.194462219,
			"-0.005": 24.4433818911,
			"-0.004": 30.6534485966,
			"-0.003": 28.0557455566,
			"-0.002": 21.8632134657,
			"-0.001": 16.8031665126,
			"0.0": 15.3126699182,
			"0.001": 10.8645655211,
			"0.002": 13.6633920186,
			"0.003": 16.2319479169,
			"0.004": 17.0891229272,
			"0.005": 5.61724953386,
			"0.006": 5.10439501611,
			"0.007": 4.13474547281,
			"0.008": 4.69200044069,
			"0.009": 5.8501615763,
			"0.01": 5.34771826304,
			"0.011": 4.87277085767,
			"0.012": 6.38941239945,
			"0.013": 6.02213190059,
			"0.014": 2.62971913314,
			"0.015": 0.228192018454,
			"0.016": 0.0,
			"0.017": 0.0,
			"0.018": 0.0,
			"0.019": 0.0,
			"0.02": 0.0,
			"0.021": 0.0,
			"0.022": 0.0,
			"0.023": 0.0,
			"0.024": 0.0,
			"0.025": 0.0
		}
	}
}
