{
	 "smiles": "CC(C)NC1=CC=CN=C1N1CCN(CC1)C(=O)C1=CC2=C(N1)C=CC(NS(C)(=O)=O)=C2", 
	 "Tm": 499.15, 
	 "num_atms": 60, 
	 "gaussian": { 
		 "optdone": 1, 
		 "sigma_profile": "yes", 
		 "theory": "DFT", 
		 "functional": "B3LYP", 
		 "basiset": "6-31G**", 
		 "properties": { 
			 "R2extent": 26228.1378, 
			 "electric_dipole_moment_norm": 7.71960252539, 
			 "electric_quadrupole_moment_norm": 47.0420588865, 
			 "total_energy": -1807.53624763, 
			 "HOMO_LUMO_gap": 0.15498, 
			 "cosmo_polarized_energy": -29.81, 
			 "cosmo_cavitation_energy": 61.97, 
			 "cosmo_dispersion_energy": -42.65, 
			 "cosmo_repulsion_energy": 3.12, 
			 "cosmo_total_nonelectrostatic_energy": 22.45, 
			 "SMD_solvation_energy": 7.8 
		},
		"coords": [
			{
				"x": -1.659924524,
				"y": 5.0273295176,
				"z": -0.6662075365,
				"element": "C" 
			},
			{
				"x": -0.1811784805,
				"y": 4.6533964096,
				"z": -0.7860346678,
				"element": "C" 
			},
			{
				"x": 0.6778124362,
				"y": 5.4092085262,
				"z": 0.2387531305,
				"element": "C" 
			},
			{
				"x": 0.2516098254,
				"y": 4.891690315,
				"z": -2.1866930516,
				"element": "N" 
			},
			{
				"x": 1.5460866456,
				"y": 4.4658998705,
				"z": -2.5664652081,
				"element": "C" 
			},
			{
				"x": 2.5162001111,
				"y": 5.3905046116,
				"z": -2.9553629171,
				"element": "C" 
			},
			{
				"x": 3.8074189416,
				"y": 4.9805827935,
				"z": -3.2939448045,
				"element": "C" 
			},
			{
				"x": 4.0964119863,
				"y": 3.6271253985,
				"z": -3.1931981684,
				"element": "C" 
			},
			{
				"x": 3.1771563874,
				"y": 2.7092438867,
				"z": -2.8695870314,
				"element": "N" 
			},
			{
				"x": 1.9212089508,
				"y": 3.0846543741,
				"z": -2.603710148,
				"element": "C" 
			},
			{
				"x": 1.0097381342,
				"y": 2.0557660225,
				"z": -2.3040463249,
				"element": "N" 
			},
			{
				"x": -0.276214309,
				"y": 2.0242811639,
				"z": -3.0144052537,
				"element": "C" 
			},
			{
				"x": -1.3391281176,
				"y": 1.3161390395,
				"z": -2.1557513035,
				"element": "C" 
			},
			{
				"x": -0.722006957,
				"y": 0.2157152084,
				"z": -1.4088292975,
				"element": "N" 
			},
			{
				"x": 0.471744347,
				"y": -0.3310429066,
				"z": -2.0387262439,
				"element": "C" 
			},
			{
				"x": 1.5922711951,
				"y": 0.7187778978,
				"z": -2.1093125402,
				"element": "C" 
			},
			{
				"x": -1.3786884146,
				"y": -0.2522930677,
				"z": -0.3092982555,
				"element": "C" 
			},
			{
				"x": -2.5204542511,
				"y": 0.1368076549,
				"z": -0.0297562328,
				"element": "O" 
			},
			{
				"x": -0.7313733127,
				"y": -1.2313245968,
				"z": 0.6073904224,
				"element": "C" 
			},
			{
				"x": 0.5620450754,
				"y": -1.5984527516,
				"z": 0.9356896043,
				"element": "C" 
			},
			{
				"x": 0.4752262291,
				"y": -2.5224094793,
				"z": 2.0249469208,
				"element": "C" 
			},
			{
				"x": -0.9086724861,
				"y": -2.6793365329,
				"z": 2.325690171,
				"element": "C" 
			},
			{
				"x": -1.606955406,
				"y": -1.8913356124,
				"z": 1.4480151325,
				"element": "N" 
			},
			{
				"x": -1.3489972229,
				"y": -3.516199696,
				"z": 3.3596421937,
				"element": "C" 
			},
			{
				"x": -0.3953738881,
				"y": -4.1898870231,
				"z": 4.1058716183,
				"element": "C" 
			},
			{
				"x": 0.9856822177,
				"y": -4.0634714849,
				"z": 3.8073160038,
				"element": "C" 
			},
			{
				"x": 1.9406048047,
				"y": -4.7484388226,
				"z": 4.6195417439,
				"element": "N" 
			},
			{
				"x": 1.9462959769,
				"y": -6.4311871503,
				"z": 4.8065418426,
				"element": "S" 
			},
			{
				"x": 2.0082818039,
				"y": -7.1088858334,
				"z": 3.1324107361,
				"element": "C" 
			},
			{
				"x": 0.6628010198,
				"y": -6.8312824582,
				"z": 5.3812212084,
				"element": "O" 
			},
			{
				"x": 3.2159860883,
				"y": -6.7221060221,
				"z": 5.4731895386,
				"element": "O" 
			},
			{
				"x": 1.4239862664,
				"y": -3.245420701,
				"z": 2.7708450716,
				"element": "C" 
			},
			{
				"x": -1.8089348309,
				"y": 6.0976863619,
				"z": -0.8586003305,
				"element": "H" 
			},
			{
				"x": -2.2693374607,
				"y": 4.4695494836,
				"z": -1.3828245399,
				"element": "H" 
			},
			{
				"x": -2.0322740472,
				"y": 4.8186427577,
				"z": 0.3411087232,
				"element": "H" 
			},
			{
				"x": -0.066832412,
				"y": 3.5796293624,
				"z": -0.6084887605,
				"element": "H" 
			},
			{
				"x": 0.3665383945,
				"y": 5.1667220673,
				"z": 1.2603908738,
				"element": "H" 
			},
			{
				"x": 1.7357266201,
				"y": 5.1503898808,
				"z": 0.1371983516,
				"element": "H" 
			},
			{
				"x": 0.5785293095,
				"y": 6.4944355484,
				"z": 0.1084537193,
				"element": "H" 
			},
			{
				"x": 0.1340781227,
				"y": 5.8769028953,
				"z": -2.4101994252,
				"element": "H" 
			},
			{
				"x": 2.2595550262,
				"y": 6.4478892232,
				"z": -2.9563959977,
				"element": "H" 
			},
			{
				"x": 4.5667430548,
				"y": 5.6974414208,
				"z": -3.5883006175,
				"element": "H" 
			},
			{
				"x": 5.0974359949,
				"y": 3.2502434127,
				"z": -3.3943976371,
				"element": "H" 
			},
			{
				"x": -0.5996068262,
				"y": 3.0469144072,
				"z": -3.2092825313,
				"element": "H" 
			},
			{
				"x": -0.1647498202,
				"y": 1.521829563,
				"z": -3.98913938,
				"element": "H" 
			},
			{
				"x": -2.1552453491,
				"y": 0.9485734213,
				"z": -2.7939042689,
				"element": "H" 
			},
			{
				"x": -1.7848427618,
				"y": 1.9985788054,
				"z": -1.4296443451,
				"element": "H" 
			},
			{
				"x": 0.8035504652,
				"y": -1.2211077929,
				"z": -1.5091255855,
				"element": "H" 
			},
			{
				"x": 0.2020007089,
				"y": -0.6556091348,
				"z": -3.053186628,
				"element": "H" 
			},
			{
				"x": 2.2862404152,
				"y": 0.4563401779,
				"z": -2.9182302025,
				"element": "H" 
			},
			{
				"x": 2.1774529828,
				"y": 0.7322397309,
				"z": -1.1829345999,
				"element": "H" 
			},
			{
				"x": 1.4726757933,
				"y": -1.2240630429,
				"z": 0.4929900164,
				"element": "H" 
			},
			{
				"x": -2.5898792394,
				"y": -1.6576778451,
				"z": 1.4529102611,
				"element": "H" 
			},
			{
				"x": -2.4047769826,
				"y": -3.6213050922,
				"z": 3.5898226214,
				"element": "H" 
			},
			{
				"x": -0.6901360423,
				"y": -4.8255479177,
				"z": 4.9317545768,
				"element": "H" 
			},
			{
				"x": 2.8957424976,
				"y": -4.4137434319,
				"z": 4.5457427625,
				"element": "H" 
			},
			{
				"x": 1.1612002375,
				"y": -6.7225559494,
				"z": 2.5640930043,
				"element": "H" 
			},
			{
				"x": 1.9379822235,
				"y": -8.1936157902,
				"z": 3.227747268,
				"element": "H" 
			},
			{
				"x": 2.9546181981,
				"y": -6.8275832131,
				"z": 2.6687010349,
				"element": "H" 
			},
			{
				"x": 2.4848446546,
				"y": -3.1597478612,
				"z": 2.5483052828,
				"element": "H" 
			}
		],
		 "valence_orbital": [ 
			{
				"type": "occ",
				"energy": -0.24433,
				"method": "rhf"
			},
			{
				"type": "occ",
				"energy": -0.23659,
				"method": "rhf"
			},
			{
				"type": "occ",
				"energy": -0.2206,
				"method": "rhf"
			},
			{
				"type": "occ",
				"energy": -0.21519,
				"method": "rhf"
			},
			{
				"type": "occ",
				"energy": -0.19966,
				"method": "rhf"
			},
			{
				"type": "unocc",
				"energy": -0.04468,
				"method": "rhf"
			},
			{
				"type": "unocc",
				"energy": -0.01527,
				"method": "rhf"
			},
			{
				"type": "unocc",
				"energy": -0.00092,
				"method": "rhf"
			},
			{
				"type": "unocc",
				"energy": 0.00608,
				"method": "rhf"
			},
			{
				"type": "unocc",
				"energy": 0.0191,
				"method": "rhf"
			}
		],
		"cosmo_sigma_profile": { 
			"-0.025": 0.0,
			"-0.024": 0.0,
			"-0.023": 0.0,
			"-0.022": 0.0,
			"-0.021": 0.0,
			"-0.02": 0.0,
			"-0.019": 0.0,
			"-0.018": 0.0,
			"-0.017": 0.0,
			"-0.016": 0.0683972552408,
			"-0.015": 0.861374613387,
			"-0.014": 1.95838427609,
			"-0.013": 1.69294822904,
			"-0.012": 2.45648898489,
			"-0.011": 3.01429426355,
			"-0.01": 4.32434320261,
			"-0.009": 6.45853558491,
			"-0.008": 8.94666311403,
			"-0.007": 13.8862174198,
			"-0.006": 19.7314549721,
			"-0.005": 27.9188100392,
			"-0.004": 39.3824015575,
			"-0.003": 45.4177195842,
			"-0.002": 39.1750397491,
			"-0.001": 32.6980993482,
			"0.0": 31.6560578613,
			"0.001": 36.1977996231,
			"0.002": 25.1037874348,
			"0.003": 26.5710746725,
			"0.004": 32.6643352771,
			"0.005": 21.6111712385,
			"0.006": 9.03654631695,
			"0.007": 8.04104464631,
			"0.008": 7.31111832309,
			"0.009": 7.31542481856,
			"0.01": 8.28661542968,
			"0.011": 13.0094261014,
			"0.012": 7.16729527175,
			"0.013": 4.41437284259,
			"0.014": 3.06295322785,
			"0.015": 0.220106740817,
			"0.016": 0.0,
			"0.017": 0.0,
			"0.018": 0.0,
			"0.019": 0.0,
			"0.02": 0.0,
			"0.021": 0.0,
			"0.022": 0.0,
			"0.023": 0.0,
			"0.024": 0.0,
			"0.025": 0.0
		}
	}
}
