{
	 "smiles": "CC(C)C(NS(=O)(=O)C1=C(F)C=CC=C1)C(O)=O", 
	 "Tm": 433.15, 
	 "num_atms": 32, 
	 "gaussian": { 
		 "optdone": 1, 
		 "sigma_profile": "yes", 
		 "theory": "DFT", 
		 "functional": "B3LYP", 
		 "basiset": "6-31G**", 
		 "properties": { 
			 "R2extent": 5457.6259, 
			 "electric_dipole_moment_norm": 2.57279930037, 
			 "electric_quadrupole_moment_norm": 20.5228817194, 
			 "total_energy": -1281.21498164, 
			 "HOMO_LUMO_gap": 0.21266, 
			 "cosmo_polarized_energy": -19.97, 
			 "cosmo_cavitation_energy": 35.96, 
			 "cosmo_dispersion_energy": -25.49, 
			 "cosmo_repulsion_energy": 1.9, 
			 "cosmo_total_nonelectrostatic_energy": 12.37, 
			 "SMD_solvation_energy": 6.64 
		},
		"coords": [
			{
				"x": -0.4655028742,
				"y": 1.5252172285,
				"z": 2.9818356409,
				"element": "C" 
			},
			{
				"x": -0.965927053,
				"y": 1.1053513619,
				"z": 1.5896573421,
				"element": "C" 
			},
			{
				"x": -2.4964581696,
				"y": 1.2219328035,
				"z": 1.5144692721,
				"element": "C" 
			},
			{
				"x": -0.504672324,
				"y": -0.3380075992,
				"z": 1.2781627806,
				"element": "C" 
			},
			{
				"x": -1.0395459993,
				"y": -0.9660280471,
				"z": 0.0442084488,
				"element": "N" 
			},
			{
				"x": -1.0201317815,
				"y": -0.2561642553,
				"z": -1.4854139368,
				"element": "S" 
			},
			{
				"x": -2.4163407924,
				"y": -0.107419177,
				"z": -1.9174019242,
				"element": "O" 
			},
			{
				"x": -0.1013932352,
				"y": 0.8794240673,
				"z": -1.4648930392,
				"element": "O" 
			},
			{
				"x": -0.3278781136,
				"y": -1.5520349703,
				"z": -2.5188806486,
				"element": "C" 
			},
			{
				"x": 0.983251812,
				"y": -2.0019096384,
				"z": -2.3482803157,
				"element": "C" 
			},
			{
				"x": 1.7444360988,
				"y": -1.4868915176,
				"z": -1.3688103318,
				"element": "F" 
			},
			{
				"x": 1.5225978944,
				"y": -2.9832287978,
				"z": -3.1690154477,
				"element": "C" 
			},
			{
				"x": 0.7349900813,
				"y": -3.5187101927,
				"z": -4.1894268853,
				"element": "C" 
			},
			{
				"x": -0.5756980481,
				"y": -3.0760578385,
				"z": -4.3797352875,
				"element": "C" 
			},
			{
				"x": -1.1068066521,
				"y": -2.0928792326,
				"z": -3.5451274271,
				"element": "C" 
			},
			{
				"x": 1.0142138698,
				"y": -0.5758199167,
				"z": 1.3367119901,
				"element": "C" 
			},
			{
				"x": 1.7417357366,
				"y": 0.4853712068,
				"z": 0.9394421614,
				"element": "O" 
			},
			{
				"x": 1.5090940955,
				"y": -1.6146135068,
				"z": 1.7112047642,
				"element": "O" 
			},
			{
				"x": -0.7909130026,
				"y": 2.5454501559,
				"z": 3.2072311228,
				"element": "H" 
			},
			{
				"x": 0.6254501295,
				"y": 1.5056800904,
				"z": 3.0493178068,
				"element": "H" 
			},
			{
				"x": -0.8704736631,
				"y": 0.8702512501,
				"z": 3.7636384725,
				"element": "H" 
			},
			{
				"x": -0.5223270703,
				"y": 1.7676105095,
				"z": 0.840776105,
				"element": "H" 
			},
			{
				"x": -2.8068872303,
				"y": 2.2413499595,
				"z": 1.7635268567,
				"element": "H" 
			},
			{
				"x": -2.9806963956,
				"y": 0.5481577966,
				"z": 2.2339301111,
				"element": "H" 
			},
			{
				"x": -2.8838766492,
				"y": 0.9956213095,
				"z": 0.5177124535,
				"element": "H" 
			},
			{
				"x": -0.8884448711,
				"y": -0.9965935738,
				"z": 2.0656684431,
				"element": "H" 
			},
			{
				"x": -1.9468092509,
				"y": -1.3989738771,
				"z": 0.1803635763,
				"element": "H" 
			},
			{
				"x": 2.5427842224,
				"y": -3.3086740249,
				"z": -2.9978715988,
				"element": "H" 
			},
			{
				"x": 1.1509790765,
				"y": -4.2849673854,
				"z": -4.8363401618,
				"element": "H" 
			},
			{
				"x": -1.1837336236,
				"y": -3.4930451204,
				"z": -5.1757705867,
				"element": "H" 
			},
			{
				"x": -2.1203740633,
				"y": -1.7293480619,
				"z": -3.6712317877,
				"element": "H" 
			},
			{
				"x": 2.6721578459,
				"y": 0.205948994,
				"z": 0.9768420306,
				"element": "H" 
			}
		],
		 "valence_orbital": [ 
			{
				"type": "occ",
				"energy": -0.30509,
				"method": "rhf"
			},
			{
				"type": "occ",
				"energy": -0.29549,
				"method": "rhf"
			},
			{
				"type": "occ",
				"energy": -0.27772,
				"method": "rhf"
			},
			{
				"type": "occ",
				"energy": -0.2672,
				"method": "rhf"
			},
			{
				"type": "occ",
				"energy": -0.25675,
				"method": "rhf"
			},
			{
				"type": "unocc",
				"energy": -0.04409,
				"method": "rhf"
			},
			{
				"type": "unocc",
				"energy": -0.02045,
				"method": "rhf"
			},
			{
				"type": "unocc",
				"energy": -0.00092,
				"method": "rhf"
			},
			{
				"type": "unocc",
				"energy": 0.04551,
				"method": "rhf"
			},
			{
				"type": "unocc",
				"energy": 0.05934,
				"method": "rhf"
			}
		],
		"cosmo_sigma_profile": { 
			"-0.025": 0.0,
			"-0.024": 0.0,
			"-0.023": 0.0,
			"-0.022": 0.0,
			"-0.021": 0.0,
			"-0.02": 0.0,
			"-0.019": 0.185474779699,
			"-0.018": 0.821887186928,
			"-0.017": 1.08680052682,
			"-0.016": 0.162474193906,
			"-0.015": 1.50761420597,
			"-0.014": 2.1058995625,
			"-0.013": 2.33143308389,
			"-0.012": 1.44784465524,
			"-0.011": 1.92594170923,
			"-0.01": 1.59279318885,
			"-0.009": 2.45602870302,
			"-0.008": 5.61272721599,
			"-0.007": 11.8306860484,
			"-0.006": 12.8871133753,
			"-0.005": 11.3257664243,
			"-0.004": 12.501946289,
			"-0.003": 20.1962387165,
			"-0.002": 19.6599235082,
			"-0.001": 24.0758561975,
			"0.0": 29.3505764978,
			"0.001": 27.943078386,
			"0.002": 17.2187602169,
			"0.003": 11.0248109494,
			"0.004": 6.717758849,
			"0.005": 5.6015949856,
			"0.006": 5.63966737514,
			"0.007": 6.64762245139,
			"0.008": 6.05652827521,
			"0.009": 6.78826987012,
			"0.01": 10.8528431866,
			"0.011": 11.5743092629,
			"0.012": 4.48928808686,
			"0.013": 0.359626610921,
			"0.014": 0.0,
			"0.015": 0.0,
			"0.016": 0.0,
			"0.017": 0.0,
			"0.018": 0.0,
			"0.019": 0.0,
			"0.02": 0.0,
			"0.021": 0.0,
			"0.022": 0.0,
			"0.023": 0.0,
			"0.024": 0.0,
			"0.025": 0.0
		}
	}
}
