{
	 "smiles": "CNC(=O)OC1=CC(C)=C(N(C)C)C(C)=C1", 
	 "Tm": 358.15, 
	 "num_atms": 34, 
	 "gaussian": { 
		 "optdone": 1, 
		 "sigma_profile": "yes", 
		 "theory": "DFT", 
		 "functional": "B3LYP", 
		 "basiset": "6-31G**", 
		 "properties": { 
			 "R2extent": 5304.5968, 
			 "electric_dipole_moment_norm": 1.74879368995, 
			 "electric_quadrupole_moment_norm": 16.7155037791, 
			 "total_energy": -728.090689027, 
			 "HOMO_LUMO_gap": 0.20322, 
			 "cosmo_polarized_energy": -10.84, 
			 "cosmo_cavitation_energy": 36.19, 
			 "cosmo_dispersion_energy": -25.56, 
			 "cosmo_repulsion_energy": 2.01, 
			 "cosmo_total_nonelectrostatic_energy": 12.64, 
			 "SMD_solvation_energy": 7.71 
		},
		"coords": [
			{
				"x": -2.9737873746,
				"y": -3.5692455748,
				"z": -3.8471517116,
				"element": "C" 
			},
			{
				"x": -2.1617198396,
				"y": -3.4863209577,
				"z": -2.6497826931,
				"element": "N" 
			},
			{
				"x": -1.5761999349,
				"y": -2.3251317737,
				"z": -2.2494241031,
				"element": "C" 
			},
			{
				"x": -1.6257165682,
				"y": -1.2603002684,
				"z": -2.8311756304,
				"element": "O" 
			},
			{
				"x": -0.9118859708,
				"y": -2.5644698834,
				"z": -1.0668249679,
				"element": "O" 
			},
			{
				"x": -0.1944626727,
				"y": -1.5515413951,
				"z": -0.4330726238,
				"element": "C" 
			},
			{
				"x": 0.6473451753,
				"y": -0.6746013304,
				"z": -1.1084909239,
				"element": "C" 
			},
			{
				"x": 1.3923270238,
				"y": 0.2711518339,
				"z": -0.3927852671,
				"element": "C" 
			},
			{
				"x": 2.2577286824,
				"y": 1.2362286199,
				"z": -1.1740280734,
				"element": "C" 
			},
			{
				"x": 1.3107547567,
				"y": 0.3061678829,
				"z": 1.0172303559,
				"element": "C" 
			},
			{
				"x": 2.0575751855,
				"y": 1.2235675784,
				"z": 1.8287932793,
				"element": "N" 
			},
			{
				"x": 3.5034440044,
				"y": 1.2739475458,
				"z": 1.6913924967,
				"element": "C" 
			},
			{
				"x": 1.4335846492,
				"y": 2.5092415329,
				"z": 2.1000290899,
				"element": "C" 
			},
			{
				"x": 0.4536964705,
				"y": -0.5941461338,
				"z": 1.691483951,
				"element": "C" 
			},
			{
				"x": 0.3434816844,
				"y": -0.5769694394,
				"z": 3.197100811,
				"element": "C" 
			},
			{
				"x": -0.2974316698,
				"y": -1.5118118725,
				"z": 0.9534122724,
				"element": "C" 
			},
			{
				"x": -2.5971516582,
				"y": -4.3411076285,
				"z": -4.5274270059,
				"element": "H" 
			},
			{
				"x": -4.021395899,
				"y": -3.7897084906,
				"z": -3.6104474014,
				"element": "H" 
			},
			{
				"x": -2.9236573614,
				"y": -2.6015656761,
				"z": -4.3471567644,
				"element": "H" 
			},
			{
				"x": -2.0602983567,
				"y": -4.2868197103,
				"z": -2.0452927738,
				"element": "H" 
			},
			{
				"x": 0.6971006919,
				"y": -0.6983263698,
				"z": -2.1894969371,
				"element": "H" 
			},
			{
				"x": 3.3152277998,
				"y": 0.9472870002,
				"z": -1.1571449528,
				"element": "H" 
			},
			{
				"x": 2.1950735251,
				"y": 2.2525441765,
				"z": -0.7765557751,
				"element": "H" 
			},
			{
				"x": 1.9438818408,
				"y": 1.2662782477,
				"z": -2.2206735125,
				"element": "H" 
			},
			{
				"x": 3.9434718679,
				"y": 1.6150034645,
				"z": 2.6379491928,
				"element": "H" 
			},
			{
				"x": 3.8870278201,
				"y": 0.2707623645,
				"z": 1.487037825,
				"element": "H" 
			},
			{
				"x": 3.8713222869,
				"y": 1.9493355011,
				"z": 0.9004148499,
				"element": "H" 
			},
			{
				"x": 1.9032585896,
				"y": 2.9691050085,
				"z": 2.9786276054,
				"element": "H" 
			},
			{
				"x": 1.5117837839,
				"y": 3.2308364892,
				"z": 1.2662304526,
				"element": "H" 
			},
			{
				"x": 0.3715514585,
				"y": 2.36924695,
				"z": 2.3188449222,
				"element": "H" 
			},
			{
				"x": 1.3300772279,
				"y": -0.4954530286,
				"z": 3.6599895255,
				"element": "H" 
			},
			{
				"x": -0.1522028081,
				"y": -1.4807223031,
				"z": 3.5626389294,
				"element": "H" 
			},
			{
				"x": -0.2386495965,
				"y": 0.2830209555,
				"z": 3.5508140376,
				"element": "H" 
			},
			{
				"x": -0.956954814,
				"y": -2.215383315,
				"z": 1.4520415207,
				"element": "H" 
			}
		],
		 "valence_orbital": [ 
			{
				"type": "occ",
				"energy": -0.27186,
				"method": "rhf"
			},
			{
				"type": "occ",
				"energy": -0.25624,
				"method": "rhf"
			},
			{
				"type": "occ",
				"energy": -0.22981,
				"method": "rhf"
			},
			{
				"type": "occ",
				"energy": -0.22625,
				"method": "rhf"
			},
			{
				"type": "occ",
				"energy": -0.19632,
				"method": "rhf"
			},
			{
				"type": "unocc",
				"energy": 0.0069,
				"method": "rhf"
			},
			{
				"type": "unocc",
				"energy": 0.01005,
				"method": "rhf"
			},
			{
				"type": "unocc",
				"energy": 0.06058,
				"method": "rhf"
			},
			{
				"type": "unocc",
				"energy": 0.08309,
				"method": "rhf"
			},
			{
				"type": "unocc",
				"energy": 0.09135,
				"method": "rhf"
			}
		],
		"cosmo_sigma_profile": { 
			"-0.025": 0.0,
			"-0.024": 0.0,
			"-0.023": 0.0,
			"-0.022": 0.0,
			"-0.021": 0.0,
			"-0.02": 0.0,
			"-0.019": 0.0,
			"-0.018": 0.0,
			"-0.017": 0.0,
			"-0.016": 0.0,
			"-0.015": 0.219201450523,
			"-0.014": 0.86933783813,
			"-0.013": 1.15362583581,
			"-0.012": 1.13495461959,
			"-0.011": 0.850170810014,
			"-0.01": 0.743165758998,
			"-0.009": 0.945030954342,
			"-0.008": 0.768826187034,
			"-0.007": 1.21831649016,
			"-0.006": 1.89751323756,
			"-0.005": 9.74182408018,
			"-0.004": 20.8648013986,
			"-0.003": 32.1903103306,
			"-0.002": 36.9082857757,
			"-0.001": 36.3208427983,
			"0.0": 37.1236873547,
			"0.001": 24.5890611104,
			"0.002": 14.3364808818,
			"0.003": 12.5459388218,
			"0.004": 11.8302721648,
			"0.005": 12.1453906562,
			"0.006": 6.76554648187,
			"0.007": 3.10978920155,
			"0.008": 2.53157723485,
			"0.009": 1.70508468302,
			"0.01": 1.74332082578,
			"0.011": 1.86746262985,
			"0.012": 3.06816996461,
			"0.013": 4.59776150824,
			"0.014": 0.151106618155,
			"0.015": 0.0,
			"0.016": 0.0,
			"0.017": 0.0,
			"0.018": 0.0,
			"0.019": 0.0,
			"0.02": 0.0,
			"0.021": 0.0,
			"0.022": 0.0,
			"0.023": 0.0,
			"0.024": 0.0,
			"0.025": 0.0
		}
	}
}
