{
	 "smiles": "[O-][N+](=O)C1=CC2=C(OC(=O)N2CCCBr)C=C1", 
	 "Tm": 383.15, 
	 "num_atms": 26, 
	 "gaussian": { 
		 "optdone": 1, 
		 "sigma_profile": "yes", 
		 "theory": "DFT", 
		 "functional": "B3LYP", 
		 "basiset": "6-31G**", 
		 "properties": { 
			 "R2extent": 8533.2174, 
			 "electric_dipole_moment_norm": 0.864618592213, 
			 "electric_quadrupole_moment_norm": 33.5114785111, 
			 "total_energy": -3368.21875693, 
			 "HOMO_LUMO_gap": 0.15321, 
			 "cosmo_polarized_energy": -17.52, 
			 "cosmo_cavitation_energy": 33.93, 
			 "cosmo_dispersion_energy": -24.37, 
			 "cosmo_repulsion_energy": 1.89, 
			 "cosmo_total_nonelectrostatic_energy": 11.45, 
			 "SMD_solvation_energy": 7.75 
		},
		"coords": [
			{
				"x": -0.085798367,
				"y": 1.8452602424,
				"z": 4.6542437426,
				"element": "O" 
			},
			{
				"x": -0.0312040517,
				"y": 0.6145473813,
				"z": 4.6352958361,
				"element": "N" 
			},
			{
				"x": -0.2165638566,
				"y": -0.109363066,
				"z": 5.6123895705,
				"element": "O" 
			},
			{
				"x": 0.2768026912,
				"y": -0.030459833,
				"z": 3.3514160765,
				"element": "C" 
			},
			{
				"x": 0.4948436315,
				"y": 0.795718004,
				"z": 2.2397833397,
				"element": "C" 
			},
			{
				"x": 0.7777636964,
				"y": 0.1438764451,
				"z": 1.051970607,
				"element": "C" 
			},
			{
				"x": 0.8392994462,
				"y": -1.2577687705,
				"z": 0.9904365227,
				"element": "C" 
			},
			{
				"x": 1.1377910624,
				"y": -1.6461062616,
				"z": -0.2851005526,
				"element": "O" 
			},
			{
				"x": 1.2749625774,
				"y": -0.4934363363,
				"z": -1.0687084422,
				"element": "C" 
			},
			{
				"x": 1.5359859181,
				"y": -0.5084715379,
				"z": -2.2413360972,
				"element": "O" 
			},
			{
				"x": 1.057818908,
				"y": 0.593512117,
				"z": -0.2336485306,
				"element": "N" 
			},
			{
				"x": 1.0996654648,
				"y": 1.9717013688,
				"z": -0.7060419093,
				"element": "C" 
			},
			{
				"x": -0.2991856834,
				"y": 2.5437820978,
				"z": -0.9757464284,
				"element": "C" 
			},
			{
				"x": -0.2915968483,
				"y": 4.0217532882,
				"z": -1.3372179241,
				"element": "C" 
			},
			{
				"x": 0.6836721136,
				"y": 4.3878770632,
				"z": -3.0242911316,
				"element": "Br" 
			},
			{
				"x": 0.6237073905,
				"y": -2.0661412946,
				"z": 2.0916363143,
				"element": "C" 
			},
			{
				"x": 0.3345880259,
				"y": -1.4238971579,
				"z": 3.3010136034,
				"element": "C" 
			},
			{
				"x": 0.4382715946,
				"y": 1.871039187,
				"z": 2.3422558399,
				"element": "H" 
			},
			{
				"x": 1.6920583878,
				"y": 1.97480407,
				"z": -1.6227489201,
				"element": "H" 
			},
			{
				"x": 1.6300361313,
				"y": 2.572686359,
				"z": 0.0416957647,
				"element": "H" 
			},
			{
				"x": -0.7791188267,
				"y": 1.9639722713,
				"z": -1.7705025661,
				"element": "H" 
			},
			{
				"x": -0.9203568869,
				"y": 2.4354178109,
				"z": -0.0757284609,
				"element": "H" 
			},
			{
				"x": -1.2996360067,
				"y": 4.3986809214,
				"z": -1.5028999766,
				"element": "H" 
			},
			{
				"x": 0.2030839542,
				"y": 4.6331768547,
				"z": -0.5813008389,
				"element": "H" 
			},
			{
				"x": 0.678187556,
				"y": -3.1456780273,
				"z": 2.016984066,
				"element": "H" 
			},
			{
				"x": 0.1528219771,
				"y": -1.987383197,
				"z": 4.2067504951,
				"element": "H" 
			}
		],
		 "valence_orbital": [ 
			{
				"type": "occ",
				"energy": -0.29903,
				"method": "rhf"
			},
			{
				"type": "occ",
				"energy": -0.28786,
				"method": "rhf"
			},
			{
				"type": "occ",
				"energy": -0.28601,
				"method": "rhf"
			},
			{
				"type": "occ",
				"energy": -0.28444,
				"method": "rhf"
			},
			{
				"type": "occ",
				"energy": -0.25009,
				"method": "rhf"
			},
			{
				"type": "unocc",
				"energy": -0.09688,
				"method": "rhf"
			},
			{
				"type": "unocc",
				"energy": -0.0412,
				"method": "rhf"
			},
			{
				"type": "unocc",
				"energy": -0.01314,
				"method": "rhf"
			},
			{
				"type": "unocc",
				"energy": -0.00197,
				"method": "rhf"
			},
			{
				"type": "unocc",
				"energy": 0.02411,
				"method": "rhf"
			}
		],
		"cosmo_sigma_profile": { 
			"-0.025": 0.0,
			"-0.024": 0.0,
			"-0.023": 0.0,
			"-0.022": 0.0,
			"-0.021": 0.0,
			"-0.02": 0.0,
			"-0.019": 0.0,
			"-0.018": 0.0,
			"-0.017": 0.0,
			"-0.016": 0.0,
			"-0.015": 0.0,
			"-0.014": 0.0,
			"-0.013": 0.0,
			"-0.012": 0.0,
			"-0.011": 0.0,
			"-0.01": 0.607925246571,
			"-0.009": 3.93048714259,
			"-0.008": 8.85039558123,
			"-0.007": 15.5399907454,
			"-0.006": 16.9211656548,
			"-0.005": 20.1110679658,
			"-0.004": 21.4813534274,
			"-0.003": 17.756532533,
			"-0.002": 17.7089892204,
			"-0.001": 22.2941563909,
			"0.0": 18.1415512455,
			"0.001": 13.4160585983,
			"0.002": 8.94303171578,
			"0.003": 9.83996783125,
			"0.004": 9.91696953538,
			"0.005": 11.6593359999,
			"0.006": 16.1470786503,
			"0.007": 12.0512927023,
			"0.008": 9.30976559867,
			"0.009": 6.59121528243,
			"0.01": 5.45015857059,
			"0.011": 6.27133571577,
			"0.012": 1.62969266973,
			"0.013": 0.0,
			"0.014": 0.0,
			"0.015": 0.0,
			"0.016": 0.0,
			"0.017": 0.0,
			"0.018": 0.0,
			"0.019": 0.0,
			"0.02": 0.0,
			"0.021": 0.0,
			"0.022": 0.0,
			"0.023": 0.0,
			"0.024": 0.0,
			"0.025": 0.0
		}
	}
}
