{
	 "smiles": "OC(=O)CC1SC(NC1=O)=NN=CC1=CC=C(Br)S1", 
	 "Tm": 552.15, 
	 "num_atms": 27, 
	 "gaussian": { 
		 "optdone": 1, 
		 "sigma_profile": "yes", 
		 "theory": "DFT", 
		 "functional": "B3LYP", 
		 "basiset": "6-31G**", 
		 "properties": { 
			 "R2extent": 15687.9239, 
			 "electric_dipole_moment_norm": 5.01889968021, 
			 "electric_quadrupole_moment_norm": 26.9317855515, 
			 "total_energy": -4143.55049284, 
			 "HOMO_LUMO_gap": 0.14661, 
			 "cosmo_polarized_energy": -24.45, 
			 "cosmo_cavitation_energy": 38.85, 
			 "cosmo_dispersion_energy": -29.28, 
			 "cosmo_repulsion_energy": 2.2, 
			 "cosmo_total_nonelectrostatic_energy": 11.76, 
			 "SMD_solvation_energy": 5.41 
		},
		"coords": [
			{
				"x": 0.9129841028,
				"y": 4.9573236903,
				"z": 2.1915957872,
				"element": "O" 
			},
			{
				"x": 1.0172321547,
				"y": 3.6521051849,
				"z": 1.8415216249,
				"element": "C" 
			},
			{
				"x": 1.0509906972,
				"y": 3.3310150697,
				"z": 0.6810135649,
				"element": "O" 
			},
			{
				"x": 1.1267898942,
				"y": 2.6694080388,
				"z": 3.003611276,
				"element": "C" 
			},
			{
				"x": 0.9871347537,
				"y": 1.2042025866,
				"z": 2.5824109985,
				"element": "C" 
			},
			{
				"x": -0.6499015557,
				"y": 0.7443416233,
				"z": 1.8681439108,
				"element": "S" 
			},
			{
				"x": 0.1111076156,
				"y": 0.074011582,
				"z": 0.417352379,
				"element": "C" 
			},
			{
				"x": 1.4859723264,
				"y": 0.1560091002,
				"z": 0.4835844637,
				"element": "N" 
			},
			{
				"x": 2.0587755906,
				"y": 0.8090130231,
				"z": 1.5486605656,
				"element": "C" 
			},
			{
				"x": 3.2430713538,
				"y": 1.0189184903,
				"z": 1.7034275733,
				"element": "O" 
			},
			{
				"x": -0.588743077,
				"y": -0.4350692641,
				"z": -0.5365801979,
				"element": "N" 
			},
			{
				"x": 0.2340081869,
				"y": -0.9172390075,
				"z": -1.5549679181,
				"element": "N" 
			},
			{
				"x": -0.3756281908,
				"y": -1.424188548,
				"z": -2.5772000133,
				"element": "C" 
			},
			{
				"x": -1.7894896425,
				"y": -1.5798915141,
				"z": -2.8591690211,
				"element": "C" 
			},
			{
				"x": -2.9250305066,
				"y": -1.2332319314,
				"z": -2.1501994842,
				"element": "C" 
			},
			{
				"x": -4.1343389975,
				"y": -1.5758702088,
				"z": -2.8089488955,
				"element": "C" 
			},
			{
				"x": -3.9138662652,
				"y": -2.1830594101,
				"z": -4.0188563161,
				"element": "C" 
			},
			{
				"x": -5.2248914901,
				"y": -2.8013883833,
				"z": -5.221425087,
				"element": "Br" 
			},
			{
				"x": -2.2295832649,
				"y": -2.3504093371,
				"z": -4.3832348564,
				"element": "S" 
			},
			{
				"x": 0.9015478936,
				"y": 5.0564374175,
				"z": 3.1542297672,
				"element": "H" 
			},
			{
				"x": 0.3966321488,
				"y": 2.914053441,
				"z": 3.7837623732,
				"element": "H" 
			},
			{
				"x": 2.125717763,
				"y": 2.7868348424,
				"z": 3.444663757,
				"element": "H" 
			},
			{
				"x": 1.1557229779,
				"y": 0.5797800072,
				"z": 3.4652368602,
				"element": "H" 
			},
			{
				"x": 2.0136089084,
				"y": -0.1601874091,
				"z": -0.3232192088,
				"element": "H" 
			},
			{
				"x": 0.3041172945,
				"y": -1.7912009304,
				"z": -3.3469252572,
				"element": "H" 
			},
			{
				"x": -2.8643733335,
				"y": -0.7468404593,
				"z": -1.1876155607,
				"element": "H" 
			},
			{
				"x": -5.1239673384,
				"y": -1.3848776942,
				"z": -2.4132730853,
				"element": "H" 
			}
		],
		 "valence_orbital": [ 
			{
				"type": "occ",
				"energy": -0.27911,
				"method": "rhf"
			},
			{
				"type": "occ",
				"energy": -0.26631,
				"method": "rhf"
			},
			{
				"type": "occ",
				"energy": -0.25677,
				"method": "rhf"
			},
			{
				"type": "occ",
				"energy": -0.2421,
				"method": "rhf"
			},
			{
				"type": "occ",
				"energy": -0.21523,
				"method": "rhf"
			},
			{
				"type": "unocc",
				"energy": -0.06862,
				"method": "rhf"
			},
			{
				"type": "unocc",
				"energy": -0.02073,
				"method": "rhf"
			},
			{
				"type": "unocc",
				"energy": -0.01139,
				"method": "rhf"
			},
			{
				"type": "unocc",
				"energy": -0.00754,
				"method": "rhf"
			},
			{
				"type": "unocc",
				"energy": -0.00561,
				"method": "rhf"
			}
		],
		"cosmo_sigma_profile": { 
			"-0.025": 0.0,
			"-0.024": 0.0,
			"-0.023": 0.0,
			"-0.022": 0.0,
			"-0.021": 0.0,
			"-0.02": 0.545906817856,
			"-0.019": 1.03383807861,
			"-0.018": 1.2718572476,
			"-0.017": 1.53108499463,
			"-0.016": 0.833196110039,
			"-0.015": 1.87986749589,
			"-0.014": 1.86752807038,
			"-0.013": 1.05335506276,
			"-0.012": 1.73727558058,
			"-0.011": 2.83733431218,
			"-0.01": 3.61555188948,
			"-0.009": 10.9474358311,
			"-0.008": 12.3071479951,
			"-0.007": 10.4131622748,
			"-0.006": 9.53488064227,
			"-0.005": 11.0477954425,
			"-0.004": 10.7187191056,
			"-0.003": 11.4274142461,
			"-0.002": 12.9508680858,
			"-0.001": 19.0601845269,
			"0.0": 19.8137300462,
			"0.001": 29.6658288085,
			"0.002": 32.9049736503,
			"0.003": 33.2815714398,
			"0.004": 16.944768155,
			"0.005": 10.4850502058,
			"0.006": 9.77360063471,
			"0.007": 7.22778099083,
			"0.008": 6.5238585514,
			"0.009": 5.74971499894,
			"0.01": 7.44808257315,
			"0.011": 7.78081015405,
			"0.012": 4.52387897919,
			"0.013": 0.424999926963,
			"0.014": 0.0,
			"0.015": 0.0,
			"0.016": 0.0,
			"0.017": 0.0,
			"0.018": 0.0,
			"0.019": 0.0,
			"0.02": 0.0,
			"0.021": 0.0,
			"0.022": 0.0,
			"0.023": 0.0,
			"0.024": 0.0,
			"0.025": 0.0
		}
	}
}
