{
	 "smiles": "O=C1NC(=O)C2(CCCCC2)N1", 
	 "Tm": 492.15, 
	 "num_atms": 24, 
	 "gaussian": { 
		 "optdone": 1, 
		 "sigma_profile": "yes", 
		 "theory": "DFT", 
		 "functional": "B3LYP", 
		 "basiset": "6-31G**", 
		 "properties": { 
			 "R2extent": 2372.258, 
			 "electric_dipole_moment_norm": 2.88129958179, 
			 "electric_quadrupole_moment_norm": 12.8783358917, 
			 "total_energy": -572.084879788, 
			 "HOMO_LUMO_gap": 0.24952, 
			 "cosmo_polarized_energy": -14.8, 
			 "cosmo_cavitation_energy": 25.65, 
			 "cosmo_dispersion_energy": -19.03, 
			 "cosmo_repulsion_energy": 1.53, 
			 "cosmo_total_nonelectrostatic_energy": 8.15, 
			 "SMD_solvation_energy": 4.84 
		},
		"coords": [
			{
				"x": 1.4541689317,
				"y": 4.0190744181,
				"z": 1.7264445673,
				"element": "O" 
			},
			{
				"x": 1.3009418246,
				"y": 2.9720191422,
				"z": 1.1326784868,
				"element": "C" 
			},
			{
				"x": 2.277508297,
				"y": 2.3081044879,
				"z": 0.3572027324,
				"element": "N" 
			},
			{
				"x": 1.8387109395,
				"y": 1.1110628361,
				"z": -0.1618744027,
				"element": "C" 
			},
			{
				"x": 2.4592524606,
				"y": 0.3536181005,
				"z": -0.8813925274,
				"element": "O" 
			},
			{
				"x": 0.3988036502,
				"y": 0.9114482342,
				"z": 0.3590756044,
				"element": "C" 
			},
			{
				"x": 0.3534168282,
				"y": -0.2869873589,
				"z": 1.3523705351,
				"element": "C" 
			},
			{
				"x": 0.1024717475,
				"y": -1.6104930396,
				"z": 0.6205284369,
				"element": "C" 
			},
			{
				"x": -1.2949722538,
				"y": -1.6233517065,
				"z": -0.0460520277,
				"element": "C" 
			},
			{
				"x": -1.7601157919,
				"y": -0.2031128393,
				"z": -0.4464660277,
				"element": "C" 
			},
			{
				"x": -0.5682724761,
				"y": 0.6798481774,
				"z": -0.8349063617,
				"element": "C" 
			},
			{
				"x": 0.1805424307,
				"y": 2.184710249,
				"z": 1.0498628111,
				"element": "N" 
			},
			{
				"x": 3.1950683919,
				"y": 2.6980049795,
				"z": 0.1965239873,
				"element": "H" 
			},
			{
				"x": -0.4575556716,
				"y": -0.1002825458,
				"z": 2.0689134476,
				"element": "H" 
			},
			{
				"x": 1.2796014014,
				"y": -0.3190388187,
				"z": 1.9360468491,
				"element": "H" 
			},
			{
				"x": 0.1989246796,
				"y": -2.4476235654,
				"z": 1.3197498016,
				"element": "H" 
			},
			{
				"x": 0.8874073868,
				"y": -1.7405882062,
				"z": -0.131735072,
				"element": "H" 
			},
			{
				"x": -2.0323068127,
				"y": -2.0672107646,
				"z": 0.6329477366,
				"element": "H" 
			},
			{
				"x": -1.2658897467,
				"y": -2.2671996084,
				"z": -0.9322658887,
				"element": "H" 
			},
			{
				"x": -2.3036642799,
				"y": 0.2640802289,
				"z": 0.3856007299,
				"element": "H" 
			},
			{
				"x": -2.4726430314,
				"y": -0.2550612638,
				"z": -1.2763914061,
				"element": "H" 
			},
			{
				"x": -0.8936137052,
				"y": 1.6539277242,
				"z": -1.2129773946,
				"element": "H" 
			},
			{
				"x": -0.0016372564,
				"y": 0.192009217,
				"z": -1.6362588146,
				"element": "H" 
			},
			{
				"x": -0.582647944,
				"y": 2.3500419221,
				"z": 1.6883741972,
				"element": "H" 
			}
		],
		 "valence_orbital": [ 
			{
				"type": "occ",
				"energy": -0.31876,
				"method": "rhf"
			},
			{
				"type": "occ",
				"energy": -0.28803,
				"method": "rhf"
			},
			{
				"type": "occ",
				"energy": -0.28611,
				"method": "rhf"
			},
			{
				"type": "occ",
				"energy": -0.26469,
				"method": "rhf"
			},
			{
				"type": "occ",
				"energy": -0.25815,
				"method": "rhf"
			},
			{
				"type": "unocc",
				"energy": -0.00863,
				"method": "rhf"
			},
			{
				"type": "unocc",
				"energy": 0.05914,
				"method": "rhf"
			},
			{
				"type": "unocc",
				"energy": 0.06404,
				"method": "rhf"
			},
			{
				"type": "unocc",
				"energy": 0.08686,
				"method": "rhf"
			},
			{
				"type": "unocc",
				"energy": 0.09193,
				"method": "rhf"
			}
		],
		"cosmo_sigma_profile": { 
			"-0.025": 0.0,
			"-0.024": 0.0,
			"-0.023": 0.0,
			"-0.022": 0.0,
			"-0.021": 0.0,
			"-0.02": 0.0,
			"-0.019": 0.0,
			"-0.018": 0.0,
			"-0.017": 0.173999126747,
			"-0.016": 1.26199201378,
			"-0.015": 1.48843994206,
			"-0.014": 2.15468550497,
			"-0.013": 2.24510047559,
			"-0.012": 1.83366903252,
			"-0.011": 1.38643549449,
			"-0.01": 2.37124510132,
			"-0.009": 1.93594354749,
			"-0.008": 2.80191425564,
			"-0.007": 1.64044703589,
			"-0.006": 3.09864124295,
			"-0.005": 6.03927903367,
			"-0.004": 9.41697443371,
			"-0.003": 17.2925190796,
			"-0.002": 28.5854895633,
			"-0.001": 33.6058962561,
			"0.0": 18.3815340529,
			"0.001": 13.3983364939,
			"0.002": 4.44425059593,
			"0.003": 3.82543277607,
			"0.004": 3.76385879332,
			"0.005": 2.18545390116,
			"0.006": 3.09891061113,
			"0.007": 2.91889973041,
			"0.008": 2.24310112545,
			"0.009": 2.71171601485,
			"0.01": 2.92781173165,
			"0.011": 4.36485789217,
			"0.012": 8.73603118729,
			"0.013": 8.00992911414,
			"0.014": 1.35915156782,
			"0.015": 0.0,
			"0.016": 0.0,
			"0.017": 0.0,
			"0.018": 0.0,
			"0.019": 0.0,
			"0.02": 0.0,
			"0.021": 0.0,
			"0.022": 0.0,
			"0.023": 0.0,
			"0.024": 0.0,
			"0.025": 0.0
		}
	}
}
