{
	 "smiles": "CC1=C(Cl)C(C)=C2C(=O)CCOC2=C1", 
	 "Tm": 341.15, 
	 "num_atms": 25, 
	 "gaussian": { 
		 "optdone": 1, 
		 "sigma_profile": "yes", 
		 "theory": "DFT", 
		 "functional": "B3LYP", 
		 "basiset": "6-31G**", 
		 "properties": { 
			 "R2extent": 3379.6716, 
			 "electric_dipole_moment_norm": 2.99460428938, 
			 "electric_quadrupole_moment_norm": 7.89678884611, 
			 "total_energy": -1036.44914539, 
			 "HOMO_LUMO_gap": 0.16788, 
			 "cosmo_polarized_energy": -8.08, 
			 "cosmo_cavitation_energy": 28.84, 
			 "cosmo_dispersion_energy": -21.79, 
			 "cosmo_repulsion_energy": 1.69, 
			 "cosmo_total_nonelectrostatic_energy": 8.74, 
			 "SMD_solvation_energy": 5.18 
		},
		"coords": [
			{
				"x": 2.9621377569,
				"y": -0.4663194329,
				"z": 1.7357545313,
				"element": "C" 
			},
			{
				"x": 1.8631492533,
				"y": -0.3077836129,
				"z": 0.7182392448,
				"element": "C" 
			},
			{
				"x": 0.643918113,
				"y": -1.012725213,
				"z": 0.8138788534,
				"element": "C" 
			},
			{
				"x": 0.4663731641,
				"y": -2.1030008882,
				"z": 2.1989551318,
				"element": "Cl" 
			},
			{
				"x": -0.3943642642,
				"y": -0.8797860766,
				"z": -0.1146095008,
				"element": "C" 
			},
			{
				"x": -1.6858414815,
				"y": -1.6465680435,
				"z": 0.0302527495,
				"element": "C" 
			},
			{
				"x": -0.1970533883,
				"y": 0.0187932239,
				"z": -1.2075969581,
				"element": "C" 
			},
			{
				"x": -1.2684087809,
				"y": 0.3286112051,
				"z": -2.1895302053,
				"element": "C" 
			},
			{
				"x": -2.3681395674,
				"y": -0.206128805,
				"z": -2.2149858276,
				"element": "O" 
			},
			{
				"x": -0.9343927615,
				"y": 1.437576501,
				"z": -3.1837434364,
				"element": "C" 
			},
			{
				"x": 0.5436269984,
				"y": 1.4263770155,
				"z": -3.526521191,
				"element": "C" 
			},
			{
				"x": 1.3352971132,
				"y": 1.5565746174,
				"z": -2.3402798341,
				"element": "O" 
			},
			{
				"x": 1.0355367781,
				"y": 0.702348247,
				"z": -1.3231784765,
				"element": "C" 
			},
			{
				"x": 2.0383384355,
				"y": 0.5426605806,
				"z": -0.3663941028,
				"element": "C" 
			},
			{
				"x": 2.6152297802,
				"y": -0.1912544453,
				"z": 2.7372003198,
				"element": "H" 
			},
			{
				"x": 3.8177738271,
				"y": 0.1625793902,
				"z": 1.4799429254,
				"element": "H" 
			},
			{
				"x": 3.2997450951,
				"y": -1.5062149377,
				"z": 1.7954928909,
				"element": "H" 
			},
			{
				"x": -1.6560164764,
				"y": -2.3048538323,
				"z": 0.8959857576,
				"element": "H" 
			},
			{
				"x": -2.5335549321,
				"y": -0.9633797167,
				"z": 0.1278381081,
				"element": "H" 
			},
			{
				"x": -1.8881604788,
				"y": -2.2372201689,
				"z": -0.8659885116,
				"element": "H" 
			},
			{
				"x": -1.5594931853,
				"y": 1.3071727147,
				"z": -4.0708594296,
				"element": "H" 
			},
			{
				"x": -1.1999682583,
				"y": 2.3995158183,
				"z": -2.7245674281,
				"element": "H" 
			},
			{
				"x": 0.8175702334,
				"y": 0.489798052,
				"z": -4.0338741288,
				"element": "H" 
			},
			{
				"x": 0.8308398415,
				"y": 2.2635369059,
				"z": -4.1661378562,
				"element": "H" 
			},
			{
				"x": 2.9655571849,
				"y": 1.0903909015,
				"z": -0.4965736257,
				"element": "H" 
			}
		],
		 "valence_orbital": [ 
			{
				"type": "occ",
				"energy": -0.30802,
				"method": "rhf"
			},
			{
				"type": "occ",
				"energy": -0.30265,
				"method": "rhf"
			},
			{
				"type": "occ",
				"energy": -0.25651,
				"method": "rhf"
			},
			{
				"type": "occ",
				"energy": -0.24579,
				"method": "rhf"
			},
			{
				"type": "occ",
				"energy": -0.227,
				"method": "rhf"
			},
			{
				"type": "unocc",
				"energy": -0.05912,
				"method": "rhf"
			},
			{
				"type": "unocc",
				"energy": -0.00671,
				"method": "rhf"
			},
			{
				"type": "unocc",
				"energy": 0.02993,
				"method": "rhf"
			},
			{
				"type": "unocc",
				"energy": 0.03456,
				"method": "rhf"
			},
			{
				"type": "unocc",
				"energy": 0.09736,
				"method": "rhf"
			}
		],
		"cosmo_sigma_profile": { 
			"-0.025": 0.0,
			"-0.024": 0.0,
			"-0.023": 0.0,
			"-0.022": 0.0,
			"-0.021": 0.0,
			"-0.02": 0.0,
			"-0.019": 0.0,
			"-0.018": 0.0,
			"-0.017": 0.0,
			"-0.016": 0.0,
			"-0.015": 0.0,
			"-0.014": 0.0,
			"-0.013": 0.0,
			"-0.012": 0.0,
			"-0.011": 0.0,
			"-0.01": 0.0,
			"-0.009": 0.0,
			"-0.008": 0.0,
			"-0.007": 3.62533696684,
			"-0.006": 14.7187755026,
			"-0.005": 16.8830179033,
			"-0.004": 17.5725185552,
			"-0.003": 17.0617291916,
			"-0.002": 17.1795864635,
			"-0.001": 23.1865466209,
			"0.0": 25.5421927268,
			"0.001": 19.6388183213,
			"0.002": 24.4236574659,
			"0.003": 13.559305782,
			"0.004": 8.68781419912,
			"0.005": 7.81232404926,
			"0.006": 2.44708418093,
			"0.007": 3.00170872463,
			"0.008": 2.97948239803,
			"0.009": 2.70259250014,
			"0.01": 2.7413120945,
			"0.011": 2.03272683622,
			"0.012": 2.92536467013,
			"0.013": 1.68383190713,
			"0.014": 0.22893820799,
			"0.015": 0.0,
			"0.016": 0.0,
			"0.017": 0.0,
			"0.018": 0.0,
			"0.019": 0.0,
			"0.02": 0.0,
			"0.021": 0.0,
			"0.022": 0.0,
			"0.023": 0.0,
			"0.024": 0.0,
			"0.025": 0.0
		}
	}
}
