{
	 "smiles": "CCC1CN2CCC3=C(C=C(OC)C(OC)=C3)C2CC1CC1NCCC2=CC(O)=C(OC)C=C12", 
	 "Tm": 389.15, 
	 "num_atms": 72, 
	 "gaussian": { 
		 "optdone": 1, 
		 "sigma_profile": "yes", 
		 "theory": "DFT", 
		 "functional": "B3LYP", 
		 "basiset": "6-31G**", 
		 "properties": { 
			 "R2extent": 20264.6, 
			 "electric_dipole_moment_norm": 2.05843410631, 
			 "electric_quadrupole_moment_norm": 26.5288777009, 
			 "total_energy": -1500.23476171, 
			 "HOMO_LUMO_gap": 0.19436, 
			 "cosmo_polarized_energy": -17.66, 
			 "cosmo_cavitation_energy": 66.91, 
			 "cosmo_dispersion_energy": -43.44, 
			 "cosmo_repulsion_energy": 3.26, 
			 "cosmo_total_nonelectrostatic_energy": 26.73, 
			 "SMD_solvation_energy": 7.42 
		},
		"coords": [
			{
				"x": 4.0177072515,
				"y": 0.2491988736,
				"z": -0.5448080745,
				"element": "C" 
			},
			{
				"x": 3.4293765635,
				"y": -1.1411457377,
				"z": -0.8250513381,
				"element": "C" 
			},
			{
				"x": 1.8897284651,
				"y": -1.2617759343,
				"z": -0.7450123679,
				"element": "C" 
			},
			{
				"x": 1.2414585297,
				"y": -0.5651366134,
				"z": -1.973272218,
				"element": "C" 
			},
			{
				"x": -0.1851780083,
				"y": -0.2447142053,
				"z": -1.8484724134,
				"element": "N" 
			},
			{
				"x": -0.5387859592,
				"y": 1.1574647076,
				"z": -1.66665437,
				"element": "C" 
			},
			{
				"x": -2.0069329776,
				"y": 1.3521460429,
				"z": -2.0547034253,
				"element": "C" 
			},
			{
				"x": -2.9056935836,
				"y": 0.3201465918,
				"z": -1.4048113493,
				"element": "C" 
			},
			{
				"x": -2.3700699495,
				"y": -0.876368351,
				"z": -0.9037186401,
				"element": "C" 
			},
			{
				"x": -3.2323379328,
				"y": -1.8369703597,
				"z": -0.3593834219,
				"element": "C" 
			},
			{
				"x": -4.6068083113,
				"y": -1.6273678113,
				"z": -0.2901713101,
				"element": "C" 
			},
			{
				"x": -5.4050299822,
				"y": -2.5995703356,
				"z": 0.2752658521,
				"element": "O" 
			},
			{
				"x": -6.284198611,
				"y": -3.2593568286,
				"z": -0.642769429,
				"element": "C" 
			},
			{
				"x": -5.14164057,
				"y": -0.4132375733,
				"z": -0.7619911891,
				"element": "C" 
			},
			{
				"x": -6.4962464412,
				"y": -0.1567540094,
				"z": -0.7281033004,
				"element": "O" 
			},
			{
				"x": -7.0385968032,
				"y": 0.0237463799,
				"z": 0.5846481441,
				"element": "C" 
			},
			{
				"x": -4.2874344676,
				"y": 0.5349084304,
				"z": -1.3182853207,
				"element": "C" 
			},
			{
				"x": -0.8720137067,
				"y": -1.1312167505,
				"z": -0.9112317073,
				"element": "C" 
			},
			{
				"x": -0.2844850405,
				"y": -1.0442314159,
				"z": 0.5340808358,
				"element": "C" 
			},
			{
				"x": 1.2423104298,
				"y": -0.7578608807,
				"z": 0.5671163878,
				"element": "C" 
			},
			{
				"x": 1.8964490274,
				"y": -1.3759871356,
				"z": 1.818522664,
				"element": "C" 
			},
			{
				"x": 1.3761797931,
				"y": -0.9133014595,
				"z": 3.2163280932,
				"element": "C" 
			},
			{
				"x": 1.819241393,
				"y": -1.8137187707,
				"z": 4.2940084811,
				"element": "N" 
			},
			{
				"x": 3.2499470077,
				"y": -1.7117397722,
				"z": 4.5866872867,
				"element": "C" 
			},
			{
				"x": 3.5231042586,
				"y": -0.3406383711,
				"z": 5.2037351009,
				"element": "C" 
			},
			{
				"x": 2.8319663249,
				"y": 0.779413054,
				"z": 4.4504519201,
				"element": "C" 
			},
			{
				"x": 3.1991089762,
				"y": 2.1082606935,
				"z": 4.7157813329,
				"element": "C" 
			},
			{
				"x": 2.5322305268,
				"y": 3.1715641937,
				"z": 4.1266327139,
				"element": "C" 
			},
			{
				"x": 2.9007845423,
				"y": 4.4559376817,
				"z": 4.3965233704,
				"element": "O" 
			},
			{
				"x": 1.4544625445,
				"y": 2.9096399051,
				"z": 3.2578917117,
				"element": "C" 
			},
			{
				"x": 0.8531490566,
				"y": 4.0458153969,
				"z": 2.7635166133,
				"element": "O" 
			},
			{
				"x": -0.2898724375,
				"y": 3.8944793903,
				"z": 1.9384023802,
				"element": "C" 
			},
			{
				"x": 1.0880382744,
				"y": 1.598519011,
				"z": 2.9819027077,
				"element": "C" 
			},
			{
				"x": 1.7811099319,
				"y": 0.5168150928,
				"z": 3.5594231454,
				"element": "C" 
			},
			{
				"x": 3.6275776697,
				"y": 1.0105999587,
				"z": -1.2283108595,
				"element": "H" 
			},
			{
				"x": 3.8076104984,
				"y": 0.5859860529,
				"z": 0.4750821485,
				"element": "H" 
			},
			{
				"x": 5.1055249163,
				"y": 0.2329235035,
				"z": -0.6676848507,
				"element": "H" 
			},
			{
				"x": 3.7367231429,
				"y": -1.4626788338,
				"z": -1.8299634531,
				"element": "H" 
			},
			{
				"x": 3.8846865565,
				"y": -1.8635124701,
				"z": -0.1378014408,
				"element": "H" 
			},
			{
				"x": 1.6649560754,
				"y": -2.3370508212,
				"z": -0.8170264727,
				"element": "H" 
			},
			{
				"x": 1.3930849997,
				"y": -1.2142859883,
				"z": -2.849913575,
				"element": "H" 
			},
			{
				"x": 1.7749326974,
				"y": 0.3668923623,
				"z": -2.1871067188,
				"element": "H" 
			},
			{
				"x": -0.3767162534,
				"y": 1.5223240179,
				"z": -0.6324358396,
				"element": "H" 
			},
			{
				"x": 0.0977649788,
				"y": 1.7656036268,
				"z": -2.3170162685,
				"element": "H" 
			},
			{
				"x": -2.3381017297,
				"y": 2.3644043835,
				"z": -1.7908021717,
				"element": "H" 
			},
			{
				"x": -2.0915385279,
				"y": 1.2642927061,
				"z": -3.145869433,
				"element": "H" 
			},
			{
				"x": -2.8457632921,
				"y": -2.7797901769,
				"z": 0.018397617,
				"element": "H" 
			},
			{
				"x": -5.7124001883,
				"y": -3.7828853872,
				"z": -1.4195475216,
				"element": "H" 
			},
			{
				"x": -6.9735089211,
				"y": -2.5519957789,
				"z": -1.1143864054,
				"element": "H" 
			},
			{
				"x": -6.8473380917,
				"y": -3.9892104795,
				"z": -0.0571335174,
				"element": "H" 
			},
			{
				"x": -8.1066216099,
				"y": 0.2097112116,
				"z": 0.4523122889,
				"element": "H" 
			},
			{
				"x": -6.5798555978,
				"y": 0.8900279797,
				"z": 1.0784666471,
				"element": "H" 
			},
			{
				"x": -6.8918458862,
				"y": -0.8666202567,
				"z": 1.2039576695,
				"element": "H" 
			},
			{
				"x": -4.7266175679,
				"y": 1.4573959813,
				"z": -1.6891079129,
				"element": "H" 
			},
			{
				"x": -0.7101624933,
				"y": -2.1542707646,
				"z": -1.2772248579,
				"element": "H" 
			},
			{
				"x": -0.497551945,
				"y": -1.9915260939,
				"z": 1.0466341582,
				"element": "H" 
			},
			{
				"x": -0.8249450413,
				"y": -0.275960636,
				"z": 1.0974020358,
				"element": "H" 
			},
			{
				"x": 1.3896887058,
				"y": 0.3289783976,
				"z": 0.6048252931,
				"element": "H" 
			},
			{
				"x": 1.7505306109,
				"y": -2.4664196364,
				"z": 1.7646556444,
				"element": "H" 
			},
			{
				"x": 2.9765583453,
				"y": -1.2066894461,
				"z": 1.7884553825,
				"element": "H" 
			},
			{
				"x": 0.279969898,
				"y": -0.9630635881,
				"z": 3.206986542,
				"element": "H" 
			},
			{
				"x": 1.5836909761,
				"y": -2.7700654419,
				"z": 4.0435264847,
				"element": "H" 
			},
			{
				"x": 3.8959759848,
				"y": -1.8540323227,
				"z": 3.7019458969,
				"element": "H" 
			},
			{
				"x": 3.5126232566,
				"y": -2.5014612586,
				"z": 5.2985958596,
				"element": "H" 
			},
			{
				"x": 4.6033191252,
				"y": -0.1569501038,
				"z": 5.2538686167,
				"element": "H" 
			},
			{
				"x": 3.1540762498,
				"y": -0.3404907376,
				"z": 6.2380176467,
				"element": "H" 
			},
			{
				"x": 4.0103085333,
				"y": 2.3288593276,
				"z": 5.4039524199,
				"element": "H" 
			},
			{
				"x": 2.2962667861,
				"y": 5.0305718115,
				"z": 3.9023968623,
				"element": "H" 
			},
			{
				"x": -0.0500747942,
				"y": 3.3485355059,
				"z": 1.0168233939,
				"element": "H" 
			},
			{
				"x": -1.0974446016,
				"y": 3.370378465,
				"z": 2.4650417081,
				"element": "H" 
			},
			{
				"x": -0.6195226511,
				"y": 4.9030207575,
				"z": 1.6834214923,
				"element": "H" 
			},
			{
				"x": 0.2435110709,
				"y": 1.4002910435,
				"z": 2.3318866244,
				"element": "H" 
			}
		],
		 "valence_orbital": [ 
			{
				"type": "occ",
				"energy": -0.22872,
				"method": "rhf"
			},
			{
				"type": "occ",
				"energy": -0.21807,
				"method": "rhf"
			},
			{
				"type": "occ",
				"energy": -0.21136,
				"method": "rhf"
			},
			{
				"type": "occ",
				"energy": -0.19863,
				"method": "rhf"
			},
			{
				"type": "occ",
				"energy": -0.19429,
				"method": "rhf"
			},
			{
				"type": "unocc",
				"energy": 7e-05,
				"method": "rhf"
			},
			{
				"type": "unocc",
				"energy": 0.00802,
				"method": "rhf"
			},
			{
				"type": "unocc",
				"energy": 0.00972,
				"method": "rhf"
			},
			{
				"type": "unocc",
				"energy": 0.02296,
				"method": "rhf"
			},
			{
				"type": "unocc",
				"energy": 0.05507,
				"method": "rhf"
			}
		],
		"cosmo_sigma_profile": { 
			"-0.025": 0.0,
			"-0.024": 0.0,
			"-0.023": 0.0,
			"-0.022": 0.0,
			"-0.021": 0.0,
			"-0.02": 0.0,
			"-0.019": 0.0,
			"-0.018": 0.0,
			"-0.017": 0.0,
			"-0.016": 0.0,
			"-0.015": 0.0126285884779,
			"-0.014": 0.408039416292,
			"-0.013": 0.595132914862,
			"-0.012": 0.0488966531702,
			"-0.011": 0.58476370206,
			"-0.01": 0.964538850259,
			"-0.009": 1.87752785193,
			"-0.008": 2.01392014833,
			"-0.007": 2.09577856942,
			"-0.006": 6.96065808318,
			"-0.005": 22.3681479745,
			"-0.004": 39.0799036767,
			"-0.003": 68.0031914836,
			"-0.002": 74.5823670854,
			"-0.001": 66.4815462254,
			"0.0": 56.9066383795,
			"0.001": 35.9535524622,
			"0.002": 25.2670297082,
			"0.003": 21.7273051336,
			"0.004": 21.9859463915,
			"0.005": 22.1896326441,
			"0.006": 14.2531117472,
			"0.007": 7.21541176688,
			"0.008": 4.64819368496,
			"0.009": 4.5276098296,
			"0.01": 5.5111171447,
			"0.011": 5.01759493818,
			"0.012": 4.52083172219,
			"0.013": 1.81860549958,
			"0.014": 1.14515633174,
			"0.015": 0.675494029023,
			"0.016": 0.612886453514,
			"0.017": 0.304430888002,
			"0.018": 0.497305975836,
			"0.019": 0.0759258360283,
			"0.02": 0.0,
			"0.021": 0.0,
			"0.022": 0.0,
			"0.023": 0.0,
			"0.024": 0.0,
			"0.025": 0.0
		}
	}
}
