{
	 "smiles": "COC(=O)CCNC1=C(C=NC=C1)[N+]([O-])=O", 
	 "Tm": 367.15, 
	 "num_atms": 27, 
	 "gaussian": { 
		 "optdone": 1, 
		 "sigma_profile": "yes", 
		 "theory": "DFT", 
		 "functional": "B3LYP", 
		 "basiset": "6-31G**", 
		 "properties": { 
			 "R2extent": 4792.7539, 
			 "electric_dipole_moment_norm": 5.19895716562, 
			 "electric_quadrupole_moment_norm": 17.4220355343, 
			 "total_energy": -814.645611021, 
			 "HOMO_LUMO_gap": 0.15113, 
			 "cosmo_polarized_energy": -16.96, 
			 "cosmo_cavitation_energy": 32.02, 
			 "cosmo_dispersion_energy": -22.38, 
			 "cosmo_repulsion_energy": 1.75, 
			 "cosmo_total_nonelectrostatic_energy": 11.39, 
			 "SMD_solvation_energy": 7.03 
		},
		"coords": [
			{
				"x": 2.5143030115,
				"y": -1.1572542498,
				"z": -0.9916928897,
				"element": "C" 
			},
			{
				"x": 1.1396033077,
				"y": -1.243756824,
				"z": -0.5687247226,
				"element": "O" 
			},
			{
				"x": 0.949723038,
				"y": -1.3568094117,
				"z": 0.7655656847,
				"element": "C" 
			},
			{
				"x": 1.8514152764,
				"y": -1.3991059505,
				"z": 1.5709468562,
				"element": "O" 
			},
			{
				"x": -0.5245809847,
				"y": -1.4549492806,
				"z": 1.1270681098,
				"element": "C" 
			},
			{
				"x": -1.4993436181,
				"y": -0.9061059562,
				"z": 0.0742849387,
				"element": "C" 
			},
			{
				"x": -1.2999608779,
				"y": 0.5013335374,
				"z": -0.2279787827,
				"element": "N" 
			},
			{
				"x": -1.8063878599,
				"y": 1.5428440074,
				"z": 0.468109713,
				"element": "C" 
			},
			{
				"x": -1.525797107,
				"y": 2.9087418986,
				"z": 0.1499427455,
				"element": "C" 
			},
			{
				"x": -2.1097537579,
				"y": 3.941884198,
				"z": 0.9000009069,
				"element": "C" 
			},
			{
				"x": -2.9310337877,
				"y": 3.7542097267,
				"z": 1.9242559658,
				"element": "N" 
			},
			{
				"x": -3.1947612005,
				"y": 2.4671785564,
				"z": 2.2355516681,
				"element": "C" 
			},
			{
				"x": -2.681036328,
				"y": 1.3700529146,
				"z": 1.5741310396,
				"element": "C" 
			},
			{
				"x": -0.6448807803,
				"y": 3.2955639809,
				"z": -0.9308449444,
				"element": "N" 
			},
			{
				"x": -0.0851419394,
				"y": 2.4016048112,
				"z": -1.5971406224,
				"element": "O" 
			},
			{
				"x": -0.4749180485,
				"y": 4.4928464273,
				"z": -1.1548570592,
				"element": "O" 
			},
			{
				"x": 2.4818947403,
				"y": -1.0585540754,
				"z": -2.076125355,
				"element": "H" 
			},
			{
				"x": 2.996793776,
				"y": -0.287667298,
				"z": -0.5403316937,
				"element": "H" 
			},
			{
				"x": 3.059368309,
				"y": -2.0580512588,
				"z": -0.7005557757,
				"element": "H" 
			},
			{
				"x": -0.6460619215,
				"y": -0.9478334296,
				"z": 2.0884251522,
				"element": "H" 
			},
			{
				"x": -0.7434308157,
				"y": -2.5160955193,
				"z": 1.3050043204,
				"element": "H" 
			},
			{
				"x": -1.3721340825,
				"y": -1.4539924414,
				"z": -0.8616665363,
				"element": "H" 
			},
			{
				"x": -2.5293634712,
				"y": -1.0738421553,
				"z": 0.4031576335,
				"element": "H" 
			},
			{
				"x": -0.6373434323,
				"y": 0.7546328025,
				"z": -0.9528419506,
				"element": "H" 
			},
			{
				"x": -1.8726763187,
				"y": 4.9646043219,
				"z": 0.6248096595,
				"element": "H" 
			},
			{
				"x": -3.8646602634,
				"y": 2.3130330765,
				"z": 3.0794708703,
				"element": "H" 
			},
			{
				"x": -2.9484348638,
				"y": 0.375487591,
				"z": 1.9085350678,
				"element": "H" 
			}
		],
		 "valence_orbital": [ 
			{
				"type": "occ",
				"energy": -0.29387,
				"method": "rhf"
			},
			{
				"type": "occ",
				"energy": -0.28573,
				"method": "rhf"
			},
			{
				"type": "occ",
				"energy": -0.28349,
				"method": "rhf"
			},
			{
				"type": "occ",
				"energy": -0.26702,
				"method": "rhf"
			},
			{
				"type": "occ",
				"energy": -0.24149,
				"method": "rhf"
			},
			{
				"type": "unocc",
				"energy": -0.09036,
				"method": "rhf"
			},
			{
				"type": "unocc",
				"energy": -0.02104,
				"method": "rhf"
			},
			{
				"type": "unocc",
				"energy": -0.00529,
				"method": "rhf"
			},
			{
				"type": "unocc",
				"energy": -0.00084,
				"method": "rhf"
			},
			{
				"type": "unocc",
				"energy": 0.06674,
				"method": "rhf"
			}
		],
		"cosmo_sigma_profile": { 
			"-0.025": 0.0,
			"-0.024": 0.0,
			"-0.023": 0.0,
			"-0.022": 0.0,
			"-0.021": 0.0,
			"-0.02": 0.0,
			"-0.019": 0.0,
			"-0.018": 0.0,
			"-0.017": 0.0,
			"-0.016": 0.0,
			"-0.015": 0.0,
			"-0.014": 0.0,
			"-0.013": 0.0,
			"-0.012": 0.0,
			"-0.011": 0.0,
			"-0.01": 0.257027661829,
			"-0.009": 1.65103942888,
			"-0.008": 3.87538698273,
			"-0.007": 11.4905604828,
			"-0.006": 20.2150421166,
			"-0.005": 23.1473197678,
			"-0.004": 24.037463833,
			"-0.003": 23.4014227795,
			"-0.002": 18.4242252543,
			"-0.001": 19.4961255306,
			"0.0": 14.666517437,
			"0.001": 13.7684819349,
			"0.002": 10.6385537346,
			"0.003": 5.69548488193,
			"0.004": 6.61429505218,
			"0.005": 7.21882980514,
			"0.006": 5.38423979637,
			"0.007": 7.08880133301,
			"0.008": 9.45027289575,
			"0.009": 7.01013637743,
			"0.01": 6.00280437773,
			"0.011": 5.34098309795,
			"0.012": 5.33847108028,
			"0.013": 1.93559125942,
			"0.014": 1.15286412171,
			"0.015": 0.896396041088,
			"0.016": 0.681402759381,
			"0.017": 0.209510033093,
			"0.018": 0.0,
			"0.019": 0.0,
			"0.02": 0.0,
			"0.021": 0.0,
			"0.022": 0.0,
			"0.023": 0.0,
			"0.024": 0.0,
			"0.025": 0.0
		}
	}
}
