{
	 "smiles": "CCN(CC1=CC=CC=C1)S(N)(=O)=O", 
	 "Tm": 353.15, 
	 "num_atms": 28, 
	 "gaussian": { 
		 "optdone": 1, 
		 "sigma_profile": "yes", 
		 "theory": "DFT", 
		 "functional": "B3LYP", 
		 "basiset": "6-31G**", 
		 "properties": { 
			 "R2extent": 3752.2328, 
			 "electric_dipole_moment_norm": 3.53438286975, 
			 "electric_quadrupole_moment_norm": 16.5133699404, 
			 "total_energy": -1009.46325656, 
			 "HOMO_LUMO_gap": 0.2319, 
			 "cosmo_polarized_energy": -15.37, 
			 "cosmo_cavitation_energy": 31.88, 
			 "cosmo_dispersion_energy": -22.64, 
			 "cosmo_repulsion_energy": 1.75, 
			 "cosmo_total_nonelectrostatic_energy": 10.99, 
			 "SMD_solvation_energy": 4.71 
		},
		"coords": [
			{
				"x": 0.9118236833,
				"y": 1.1068939521,
				"z": 1.3064881059,
				"element": "C" 
			},
			{
				"x": 0.9268823838,
				"y": -0.3890311184,
				"z": 0.9998197576,
				"element": "C" 
			},
			{
				"x": -0.123002069,
				"y": -0.7849849339,
				"z": 0.0237097083,
				"element": "N" 
			},
			{
				"x": 0.3539046543,
				"y": -1.1621658142,
				"z": -1.3267946324,
				"element": "C" 
			},
			{
				"x": 0.8889059587,
				"y": 0.0331519188,
				"z": -2.0895730696,
				"element": "C" 
			},
			{
				"x": 2.2184314336,
				"y": 0.0668057771,
				"z": -2.5213634399,
				"element": "C" 
			},
			{
				"x": 2.7046214565,
				"y": 1.1541139514,
				"z": -3.2528732491,
				"element": "C" 
			},
			{
				"x": 1.8621428138,
				"y": 2.2225043742,
				"z": -3.5569532894,
				"element": "C" 
			},
			{
				"x": 0.5309047042,
				"y": 2.1984179847,
				"z": -3.128896884,
				"element": "C" 
			},
			{
				"x": 0.0488090465,
				"y": 1.111661377,
				"z": -2.402319125,
				"element": "C" 
			},
			{
				"x": -1.3580889466,
				"y": -1.7449578135,
				"z": 0.6419368599,
				"element": "S" 
			},
			{
				"x": -2.0492909572,
				"y": -0.6180472818,
				"z": 1.6921841785,
				"element": "N" 
			},
			{
				"x": -2.2455922176,
				"y": -2.0586712293,
				"z": -0.4805698566,
				"element": "O" 
			},
			{
				"x": -0.8814004121,
				"y": -2.8188841492,
				"z": 1.5176011473,
				"element": "O" 
			},
			{
				"x": 1.0583386423,
				"y": 1.6981496144,
				"z": 0.3992880666,
				"element": "H" 
			},
			{
				"x": 1.7154200023,
				"y": 1.3503403174,
				"z": 2.0104869579,
				"element": "H" 
			},
			{
				"x": -0.0405222809,
				"y": 1.39156078,
				"z": 1.760661613,
				"element": "H" 
			},
			{
				"x": 1.8948819174,
				"y": -0.6842354048,
				"z": 0.5796501592,
				"element": "H" 
			},
			{
				"x": 0.7985309808,
				"y": -0.9699172831,
				"z": 1.9170696009,
				"element": "H" 
			},
			{
				"x": -0.4966834243,
				"y": -1.592232305,
				"z": -1.8590528277,
				"element": "H" 
			},
			{
				"x": 1.1321185381,
				"y": -1.9354992141,
				"z": -1.2582007375,
				"element": "H" 
			},
			{
				"x": 2.8782250224,
				"y": -0.7653980372,
				"z": -2.2875949204,
				"element": "H" 
			},
			{
				"x": 3.7400608211,
				"y": 1.164535713,
				"z": -3.5811648902,
				"element": "H" 
			},
			{
				"x": 2.2369780047,
				"y": 3.069418985,
				"z": -4.1244622597,
				"element": "H" 
			},
			{
				"x": -0.1312849158,
				"y": 3.0262734479,
				"z": -3.3665230084,
				"element": "H" 
			},
			{
				"x": -0.9850023522,
				"y": 1.092824766,
				"z": -2.0684919339,
				"element": "H" 
			},
			{
				"x": -2.6573065879,
				"y": 0.018521818,
				"z": 1.1829649674,
				"element": "H" 
			},
			{
				"x": -2.5630059002,
				"y": -1.1223501925,
				"z": 2.4107730014,
				"element": "H" 
			}
		],
		 "valence_orbital": [ 
			{
				"type": "occ",
				"energy": -0.30259,
				"method": "rhf"
			},
			{
				"type": "occ",
				"energy": -0.29104,
				"method": "rhf"
			},
			{
				"type": "occ",
				"energy": -0.25825,
				"method": "rhf"
			},
			{
				"type": "occ",
				"energy": -0.25545,
				"method": "rhf"
			},
			{
				"type": "occ",
				"energy": -0.24455,
				"method": "rhf"
			},
			{
				"type": "unocc",
				"energy": -0.01265,
				"method": "rhf"
			},
			{
				"type": "unocc",
				"energy": -0.00633,
				"method": "rhf"
			},
			{
				"type": "unocc",
				"energy": 0.05194,
				"method": "rhf"
			},
			{
				"type": "unocc",
				"energy": 0.0804,
				"method": "rhf"
			},
			{
				"type": "unocc",
				"energy": 0.0854,
				"method": "rhf"
			}
		],
		"cosmo_sigma_profile": { 
			"-0.025": 0.0,
			"-0.024": 0.0,
			"-0.023": 0.0,
			"-0.022": 0.0,
			"-0.021": 0.0,
			"-0.02": 0.0,
			"-0.019": 0.0,
			"-0.018": 0.0,
			"-0.017": 0.0,
			"-0.016": 0.0,
			"-0.015": 1.52928214119,
			"-0.014": 2.98663499577,
			"-0.013": 2.79455951797,
			"-0.012": 2.13544746992,
			"-0.011": 2.25886911742,
			"-0.01": 1.64955725607,
			"-0.009": 1.24928769998,
			"-0.008": 1.87873444393,
			"-0.007": 1.49188780895,
			"-0.006": 8.32818914198,
			"-0.005": 18.6104929151,
			"-0.004": 21.0370464361,
			"-0.003": 23.4708042219,
			"-0.002": 18.3459807582,
			"-0.001": 16.6631692764,
			"0.0": 16.8195384221,
			"0.001": 19.9541093662,
			"0.002": 13.6225929444,
			"0.003": 13.343959046,
			"0.004": 12.8680325668,
			"0.005": 11.2166694812,
			"0.006": 7.44220295641,
			"0.007": 3.1464170235,
			"0.008": 2.88983190065,
			"0.009": 4.55866375801,
			"0.01": 6.11899667645,
			"0.011": 10.0371499116,
			"0.012": 4.92810239359,
			"0.013": 0.0166829031662,
			"0.014": 0.0,
			"0.015": 0.0,
			"0.016": 0.0,
			"0.017": 0.0,
			"0.018": 0.0,
			"0.019": 0.0,
			"0.02": 0.0,
			"0.021": 0.0,
			"0.022": 0.0,
			"0.023": 0.0,
			"0.024": 0.0,
			"0.025": 0.0
		}
	}
}
