{
	 "smiles": "NC1=C(Cl)C=CC(NC(=O)C2=C(I)C=CC=C2)=C1", 
	 "Tm": 463.15, 
	 "num_atms": 28, 
	 "gaussian": { 
		 "optdone": 1, 
		 "sigma_profile": "yes", 
		 "theory": "DFT", 
		 "functional": "B3LYP", 
		 "basiset": "6-31G**", 
		 "properties": { 
			 "R2extent": 7768.3764, 
			 "electric_dipole_moment_norm": 5.0402299015, 
			 "electric_quadrupole_moment_norm": 11.902099025, 
			 "total_energy": -1157.73381711, 
			 "HOMO_LUMO_gap": 0.15394, 
			 "cosmo_polarized_energy": -16.16, 
			 "cosmo_cavitation_energy": 37.41, 
			 "cosmo_dispersion_energy": -28.25, 
			 "cosmo_repulsion_energy": 2.14, 
			 "cosmo_total_nonelectrostatic_energy": 11.3, 
			 "SMD_solvation_energy": 5.55 
		},
		"coords": [
			{
				"x": -4.7515284969,
				"y": -1.1269172825,
				"z": -1.2066476586,
				"element": "N" 
			},
			{
				"x": -3.4523516748,
				"y": -0.980064599,
				"z": -1.6680575114,
				"element": "C" 
			},
			{
				"x": -3.1189262733,
				"y": -1.1606025287,
				"z": -3.0247164622,
				"element": "C" 
			},
			{
				"x": -4.3712458848,
				"y": -1.6704783877,
				"z": -4.1586737144,
				"element": "Cl" 
			},
			{
				"x": -1.8231823908,
				"y": -0.9526976735,
				"z": -3.482262456,
				"element": "C" 
			},
			{
				"x": -0.804906299,
				"y": -0.5616715611,
				"z": -2.6158961387,
				"element": "C" 
			},
			{
				"x": -1.1136848655,
				"y": -0.3789792337,
				"z": -1.2593183839,
				"element": "C" 
			},
			{
				"x": -0.1611907507,
				"y": 0.0123406389,
				"z": -0.2947707476,
				"element": "N" 
			},
			{
				"x": 1.1678460085,
				"y": 0.3045871003,
				"z": -0.4686962427,
				"element": "C" 
			},
			{
				"x": 1.7737749502,
				"y": 0.1758378875,
				"z": -1.5254051135,
				"element": "O" 
			},
			{
				"x": 1.9079568837,
				"y": 0.7170494579,
				"z": 0.7866709114,
				"element": "C" 
			},
			{
				"x": 1.5269231585,
				"y": 1.6878682986,
				"z": 1.7273168524,
				"element": "C" 
			},
			{
				"x": -0.2166329526,
				"y": 2.904421234,
				"z": 1.5172655061,
				"element": "I" 
			},
			{
				"x": 2.3325129932,
				"y": 1.9686060843,
				"z": 2.8362567975,
				"element": "C" 
			},
			{
				"x": 3.530977451,
				"y": 1.2810273438,
				"z": 3.0196593654,
				"element": "C" 
			},
			{
				"x": 3.9398182557,
				"y": 0.3298499901,
				"z": 2.0840264816,
				"element": "C" 
			},
			{
				"x": 3.139186056,
				"y": 0.0655318072,
				"z": 0.9790653344,
				"element": "C" 
			},
			{
				"x": -2.4203262534,
				"y": -0.5889913654,
				"z": -0.8018750632,
				"element": "C" 
			},
			{
				"x": -5.3625353531,
				"y": -1.6773256104,
				"z": -1.7934580194,
				"element": "H" 
			},
			{
				"x": -4.8466462191,
				"y": -1.3323388742,
				"z": -0.2229105872,
				"element": "H" 
			},
			{
				"x": -1.6060715182,
				"y": -1.1038124632,
				"z": -4.5342129073,
				"element": "H" 
			},
			{
				"x": 0.2024252148,
				"y": -0.4039886888,
				"z": -2.9698330434,
				"element": "H" 
			},
			{
				"x": -0.5262145806,
				"y": 0.1408694229,
				"z": 0.6381612157,
				"element": "H" 
			},
			{
				"x": 2.0295491105,
				"y": 2.7299800494,
				"z": 3.5457753373,
				"element": "H" 
			},
			{
				"x": 4.1463830102,
				"y": 1.5038594717,
				"z": 3.8862118702,
				"element": "H" 
			},
			{
				"x": 4.8799379847,
				"y": -0.1977948822,
				"z": 2.2110318406,
				"element": "H" 
			},
			{
				"x": 3.4490258585,
				"y": -0.6525193514,
				"z": 0.227100743,
				"element": "H" 
			},
			{
				"x": -2.6550734227,
				"y": -0.4384462847,
				"z": 0.2497917937,
				"element": "H" 
			}
		],
		 "valence_orbital": [ 
			{
				"type": "occ",
				"energy": -0.27543,
				"method": "rhf"
			},
			{
				"type": "occ",
				"energy": -0.25708,
				"method": "rhf"
			},
			{
				"type": "occ",
				"energy": -0.2529,
				"method": "rhf"
			},
			{
				"type": "occ",
				"energy": -0.22877,
				"method": "rhf"
			},
			{
				"type": "occ",
				"energy": -0.20586,
				"method": "rhf"
			},
			{
				"type": "unocc",
				"energy": -0.05192,
				"method": "rhf"
			},
			{
				"type": "unocc",
				"energy": -0.04786,
				"method": "rhf"
			},
			{
				"type": "unocc",
				"energy": -0.02776,
				"method": "rhf"
			},
			{
				"type": "unocc",
				"energy": -0.00644,
				"method": "rhf"
			},
			{
				"type": "unocc",
				"energy": 0.00687,
				"method": "rhf"
			}
		],
		"cosmo_sigma_profile": { 
			"-0.025": 0.0,
			"-0.024": 0.0,
			"-0.023": 0.0,
			"-0.022": 0.0,
			"-0.021": 0.0,
			"-0.02": 0.0,
			"-0.019": 0.0,
			"-0.018": 0.0,
			"-0.017": 0.0,
			"-0.016": 0.0,
			"-0.015": 0.0,
			"-0.014": 0.725704557894,
			"-0.013": 2.60084968806,
			"-0.012": 2.38704193648,
			"-0.011": 3.27086751398,
			"-0.01": 4.58192068622,
			"-0.009": 4.09653390327,
			"-0.008": 4.03756289138,
			"-0.007": 10.9625060977,
			"-0.006": 15.5107865221,
			"-0.005": 15.2545777639,
			"-0.004": 14.8489875458,
			"-0.003": 14.1302959499,
			"-0.002": 15.5614886155,
			"-0.001": 17.1070662701,
			"0.0": 20.9052089732,
			"0.001": 24.8565776696,
			"0.002": 29.8805129322,
			"0.003": 36.28076844,
			"0.004": 31.0837997839,
			"0.005": 16.2331939249,
			"0.006": 4.62481590175,
			"0.007": 2.37690630523,
			"0.008": 2.73127679027,
			"0.009": 2.35955094022,
			"0.01": 1.98614746437,
			"0.011": 2.97174809083,
			"0.012": 3.50957527547,
			"0.013": 2.22275760181,
			"0.014": 0.263157098104,
			"0.015": 0.0,
			"0.016": 0.0,
			"0.017": 0.0,
			"0.018": 0.0,
			"0.019": 0.0,
			"0.02": 0.0,
			"0.021": 0.0,
			"0.022": 0.0,
			"0.023": 0.0,
			"0.024": 0.0,
			"0.025": 0.0
		}
	}
}
