{
	 "smiles": "[O-][N+](=O)C1=CC=C(C=C1)C1=CSC2=NC3=C(C=CC=C3)N12", 
	 "Tm": 507.15, 
	 "num_atms": 30, 
	 "gaussian": { 
		 "optdone": 1, 
		 "sigma_profile": "yes", 
		 "theory": "DFT", 
		 "functional": "B3LYP", 
		 "basiset": "6-31G**", 
		 "properties": { 
			 "R2extent": 7716.3635, 
			 "electric_dipole_moment_norm": 1.62453041215, 
			 "electric_quadrupole_moment_norm": 32.5188216914, 
			 "total_energy": -1289.80143808, 
			 "HOMO_LUMO_gap": 0.11266, 
			 "cosmo_polarized_energy": -15.07, 
			 "cosmo_cavitation_energy": 36.94, 
			 "cosmo_dispersion_energy": -27.28, 
			 "cosmo_repulsion_energy": 1.99, 
			 "cosmo_total_nonelectrostatic_energy": 11.64, 
			 "SMD_solvation_energy": 5.86 
		},
		"coords": [
			{
				"x": 0.8048740516,
				"y": 1.987970763,
				"z": 5.7534486796,
				"element": "O" 
			},
			{
				"x": -0.0424746842,
				"y": 2.1201199672,
				"z": 4.8711822919,
				"element": "N" 
			},
			{
				"x": -0.9371135971,
				"y": 2.9647265925,
				"z": 4.8747203966,
				"element": "O" 
			},
			{
				"x": 0.0179569846,
				"y": 1.1980062221,
				"z": 3.7263054567,
				"element": "C" 
			},
			{
				"x": -0.9346045107,
				"y": 1.3123007533,
				"z": 2.7148304198,
				"element": "C" 
			},
			{
				"x": -0.8738107419,
				"y": 0.4390232688,
				"z": 1.6346173121,
				"element": "C" 
			},
			{
				"x": 0.1349563977,
				"y": -0.5395203652,
				"z": 1.5599907694,
				"element": "C" 
			},
			{
				"x": 1.0807843414,
				"y": -0.6272838964,
				"z": 2.5967672792,
				"element": "C" 
			},
			{
				"x": 1.0253933349,
				"y": 0.2366532952,
				"z": 3.6851975999,
				"element": "C" 
			},
			{
				"x": 0.1692762595,
				"y": -1.5150992162,
				"z": 0.456454993,
				"element": "C" 
			},
			{
				"x": 0.2943784879,
				"y": -2.859599523,
				"z": 0.6123363564,
				"element": "C" 
			},
			{
				"x": 0.1550886767,
				"y": -3.7688198656,
				"z": -0.8862690339,
				"element": "S" 
			},
			{
				"x": -0.0606942542,
				"y": -2.2648768239,
				"z": -1.7614262861,
				"element": "C" 
			},
			{
				"x": -0.1875558204,
				"y": -1.9699925338,
				"z": -3.0222226658,
				"element": "N" 
			},
			{
				"x": -0.2226512012,
				"y": -0.5788399584,
				"z": -3.0259770304,
				"element": "C" 
			},
			{
				"x": -0.0984538101,
				"y": -0.0431501376,
				"z": -1.7128532386,
				"element": "C" 
			},
			{
				"x": -0.0498525437,
				"y": 1.3326031812,
				"z": -1.4747108776,
				"element": "C" 
			},
			{
				"x": -0.1565746866,
				"y": 2.1705151118,
				"z": -2.5828194651,
				"element": "C" 
			},
			{
				"x": -0.3027211346,
				"y": 1.6562386241,
				"z": -3.8850427242,
				"element": "C" 
			},
			{
				"x": -0.334157549,
				"y": 0.2863882094,
				"z": -4.1212672465,
				"element": "C" 
			},
			{
				"x": -0.0208777966,
				"y": -1.173983745,
				"z": -0.889728713,
				"element": "N" 
			},
			{
				"x": -1.7069754177,
				"y": 2.0670788161,
				"z": 2.7935240553,
				"element": "H" 
			},
			{
				"x": -1.6220192118,
				"y": 0.5033078048,
				"z": 0.8520692752,
				"element": "H" 
			},
			{
				"x": 1.8726769081,
				"y": -1.3662405215,
				"z": 2.5343241712,
				"element": "H" 
			},
			{
				"x": 1.7486218766,
				"y": 0.1880130402,
				"z": 4.4895094485,
				"element": "H" 
			},
			{
				"x": 0.3868463688,
				"y": -3.3803043202,
				"z": 1.5536603306,
				"element": "H" 
			},
			{
				"x": 0.0779867525,
				"y": 1.7413678229,
				"z": -0.4801405345,
				"element": "H" 
			},
			{
				"x": -0.1208065067,
				"y": 3.2454973157,
				"z": -2.4348951664,
				"element": "H" 
			},
			{
				"x": -0.3839736688,
				"y": 2.3454584822,
				"z": -4.7201954987,
				"element": "H" 
			},
			{
				"x": -0.432123305,
				"y": -0.1203583637,
				"z": -5.1221903546,
				"element": "H" 
			}
		],
		 "valence_orbital": [ 
			{
				"type": "occ",
				"energy": -0.29377,
				"method": "rhf"
			},
			{
				"type": "occ",
				"energy": -0.28798,
				"method": "rhf"
			},
			{
				"type": "occ",
				"energy": -0.26328,
				"method": "rhf"
			},
			{
				"type": "occ",
				"energy": -0.23701,
				"method": "rhf"
			},
			{
				"type": "occ",
				"energy": -0.21617,
				"method": "rhf"
			},
			{
				"type": "unocc",
				"energy": -0.10351,
				"method": "rhf"
			},
			{
				"type": "unocc",
				"energy": -0.04419,
				"method": "rhf"
			},
			{
				"type": "unocc",
				"energy": -0.03956,
				"method": "rhf"
			},
			{
				"type": "unocc",
				"energy": -0.02276,
				"method": "rhf"
			},
			{
				"type": "unocc",
				"energy": -0.0089,
				"method": "rhf"
			}
		],
		"cosmo_sigma_profile": { 
			"-0.025": 0.0,
			"-0.024": 0.0,
			"-0.023": 0.0,
			"-0.022": 0.0,
			"-0.021": 0.0,
			"-0.02": 0.0,
			"-0.019": 0.0,
			"-0.018": 0.0,
			"-0.017": 0.0,
			"-0.016": 0.0,
			"-0.015": 0.0,
			"-0.014": 0.0,
			"-0.013": 0.0,
			"-0.012": 0.0,
			"-0.011": 0.297559169513,
			"-0.01": 1.89616281106,
			"-0.009": 2.27609373589,
			"-0.008": 6.03523074198,
			"-0.007": 11.6598138621,
			"-0.006": 15.2048436623,
			"-0.005": 16.887509445,
			"-0.004": 22.7280416943,
			"-0.003": 20.9181020835,
			"-0.002": 23.6908022704,
			"-0.001": 27.8561181683,
			"0.0": 28.4148221514,
			"0.001": 24.417850909,
			"0.002": 15.7587472189,
			"0.003": 13.3797830269,
			"0.004": 15.4618156912,
			"0.005": 13.3208531565,
			"0.006": 8.05428739177,
			"0.007": 9.90293202508,
			"0.008": 8.46342823112,
			"0.009": 4.94309158318,
			"0.01": 3.29992951768,
			"0.011": 1.52450880677,
			"0.012": 1.08638701559,
			"0.013": 1.3413728048,
			"0.014": 0.761482294788,
			"0.015": 0.730024272838,
			"0.016": 1.05945559243,
			"0.017": 0.0844747516007,
			"0.018": 0.0,
			"0.019": 0.0,
			"0.02": 0.0,
			"0.021": 0.0,
			"0.022": 0.0,
			"0.023": 0.0,
			"0.024": 0.0,
			"0.025": 0.0
		}
	}
}
