{
	 "smiles": "ClC1=CC=C2SCC(C=O)=C(Cl)C2=C1", 
	 "Tm": 358.15, 
	 "num_atms": 20, 
	 "gaussian": { 
		 "optdone": 1, 
		 "sigma_profile": "yes", 
		 "theory": "DFT", 
		 "functional": "B3LYP", 
		 "basiset": "6-31G**", 
		 "properties": { 
			 "R2extent": 5144.4628, 
			 "electric_dipole_moment_norm": 2.09799325785, 
			 "electric_quadrupole_moment_norm": 12.4242616823, 
			 "total_energy": -1778.45390461, 
			 "HOMO_LUMO_gap": 0.13232, 
			 "cosmo_polarized_energy": -7.72, 
			 "cosmo_cavitation_energy": 29.11, 
			 "cosmo_dispersion_energy": -22.18, 
			 "cosmo_repulsion_energy": 1.68, 
			 "cosmo_total_nonelectrostatic_energy": 8.61, 
			 "SMD_solvation_energy": 4.78 
		},
		"coords": [
			{
				"x": 3.8254235147,
				"y": -0.8234908826,
				"z": 1.1756437971,
				"element": "Cl" 
			},
			{
				"x": 2.5060003184,
				"y": 0.2416626998,
				"z": 0.7253815409,
				"element": "C" 
			},
			{
				"x": 2.1880277524,
				"y": 1.328222901,
				"z": 1.542202276,
				"element": "C" 
			},
			{
				"x": 1.121717998,
				"y": 2.1484086345,
				"z": 1.1892930303,
				"element": "C" 
			},
			{
				"x": 0.3735091499,
				"y": 1.9077382732,
				"z": 0.0307166058,
				"element": "C" 
			},
			{
				"x": -0.9535335684,
				"y": 3.015391105,
				"z": -0.3593382537,
				"element": "S" 
			},
			{
				"x": -1.9915424713,
				"y": 1.8295292208,
				"z": -1.280060403,
				"element": "C" 
			},
			{
				"x": -1.2084539739,
				"y": 1.1357251437,
				"z": -2.3656627865,
				"element": "C" 
			},
			{
				"x": -1.8805191146,
				"y": 1.0248239412,
				"z": -3.6783784443,
				"element": "C" 
			},
			{
				"x": -2.9854805743,
				"y": 1.4968771388,
				"z": -3.8897060393,
				"element": "O" 
			},
			{
				"x": 0.022243715,
				"y": 0.6330707363,
				"z": -2.0951771741,
				"element": "C" 
			},
			{
				"x": 0.9040128273,
				"y": -0.2663223463,
				"z": -3.3300890925,
				"element": "Cl" 
			},
			{
				"x": 0.7281690312,
				"y": 0.8269044113,
				"z": -0.820315089,
				"element": "C" 
			},
			{
				"x": 1.7963795857,
				"y": -0.0068608363,
				"z": -0.4412005465,
				"element": "C" 
			},
			{
				"x": 2.7554074659,
				"y": 1.5174485312,
				"z": 2.4465357445,
				"element": "H" 
			},
			{
				"x": 0.8508220491,
				"y": 2.9801256204,
				"z": 1.832035795,
				"element": "H" 
			},
			{
				"x": -2.8060155954,
				"y": 2.3927004839,
				"z": -1.739465167,
				"element": "H" 
			},
			{
				"x": -2.4249176904,
				"y": 1.109138994,
				"z": -0.5775437804,
				"element": "H" 
			},
			{
				"x": -1.3288199105,
				"y": 0.4879910039,
				"z": -4.4685956584,
				"element": "H" 
			},
			{
				"x": 2.0723694912,
				"y": -0.8460847737,
				"z": -1.0664763548,
				"element": "H" 
			}
		],
		 "valence_orbital": [ 
			{
				"type": "occ",
				"energy": -0.30198,
				"method": "rhf"
			},
			{
				"type": "occ",
				"energy": -0.29124,
				"method": "rhf"
			},
			{
				"type": "occ",
				"energy": -0.26881,
				"method": "rhf"
			},
			{
				"type": "occ",
				"energy": -0.26004,
				"method": "rhf"
			},
			{
				"type": "occ",
				"energy": -0.23173,
				"method": "rhf"
			},
			{
				"type": "unocc",
				"energy": -0.09941,
				"method": "rhf"
			},
			{
				"type": "unocc",
				"energy": -0.03435,
				"method": "rhf"
			},
			{
				"type": "unocc",
				"energy": -0.02382,
				"method": "rhf"
			},
			{
				"type": "unocc",
				"energy": 0.00612,
				"method": "rhf"
			},
			{
				"type": "unocc",
				"energy": 0.01268,
				"method": "rhf"
			}
		],
		"cosmo_sigma_profile": { 
			"-0.025": 0.0,
			"-0.024": 0.0,
			"-0.023": 0.0,
			"-0.022": 0.0,
			"-0.021": 0.0,
			"-0.02": 0.0,
			"-0.019": 0.0,
			"-0.018": 0.0,
			"-0.017": 0.0,
			"-0.016": 0.0,
			"-0.015": 0.0,
			"-0.014": 0.0,
			"-0.013": 0.0,
			"-0.012": 0.0,
			"-0.011": 0.0,
			"-0.01": 0.0,
			"-0.009": 0.242752387743,
			"-0.008": 3.44453124953,
			"-0.007": 9.64210516286,
			"-0.006": 11.037214064,
			"-0.005": 12.057191,
			"-0.004": 15.2547608934,
			"-0.003": 17.5260190637,
			"-0.002": 17.8176279299,
			"-0.001": 21.2973951816,
			"0.0": 23.2162061649,
			"0.001": 29.7174566239,
			"0.002": 21.3483532182,
			"0.003": 17.1455125309,
			"0.004": 15.1441315218,
			"0.005": 6.18388571994,
			"0.006": 3.87930382928,
			"0.007": 3.52677822412,
			"0.008": 2.23203829041,
			"0.009": 1.82469586246,
			"0.01": 3.24266973314,
			"0.011": 3.45426960049,
			"0.012": 1.59944529135,
			"0.013": 0.276470186242,
			"0.014": 0.0,
			"0.015": 0.0,
			"0.016": 0.0,
			"0.017": 0.0,
			"0.018": 0.0,
			"0.019": 0.0,
			"0.02": 0.0,
			"0.021": 0.0,
			"0.022": 0.0,
			"0.023": 0.0,
			"0.024": 0.0,
			"0.025": 0.0
		}
	}
}
