{
	 "smiles": "CC1=CC=C(NC2=C3C(=O)C4=C(C=CC=C4)C(=O)C3=C(NC3=CC=C(C)C=C3)C=C2)C=C1", 
	 "Tm": 491.15, 
	 "num_atms": 54, 
	 "gaussian": { 
		 "optdone": 1, 
		 "sigma_profile": "yes", 
		 "theory": "DFT", 
		 "functional": "B3LYP", 
		 "basiset": "6-31G**", 
		 "properties": { 
			 "R2extent": 19857.3702, 
			 "electric_dipole_moment_norm": 2.49588092865, 
			 "electric_quadrupole_moment_norm": 11.3829304751, 
			 "total_energy": -1340.2460246, 
			 "HOMO_LUMO_gap": 0.08338, 
			 "cosmo_polarized_energy": -12.7, 
			 "cosmo_cavitation_energy": 56.8, 
			 "cosmo_dispersion_energy": -40.92, 
			 "cosmo_repulsion_energy": 2.98, 
			 "cosmo_total_nonelectrostatic_energy": 18.86, 
			 "SMD_solvation_energy": 9.06 
		},
		"coords": [
			{
				"x": 7.4163131602,
				"y": 0.3079501809,
				"z": 1.0605240018,
				"element": "C" 
			},
			{
				"x": 6.1128254204,
				"y": 0.601461195,
				"z": 0.3566217704,
				"element": "C" 
			},
			{
				"x": 6.0577049319,
				"y": 0.7523539032,
				"z": -1.0362027608,
				"element": "C" 
			},
			{
				"x": 4.8537480509,
				"y": 0.9821889318,
				"z": -1.69444962,
				"element": "C" 
			},
			{
				"x": 3.6524294164,
				"y": 1.0845382719,
				"z": -0.9736311328,
				"element": "C" 
			},
			{
				"x": 2.4759428591,
				"y": 1.3815661199,
				"z": -1.6850228292,
				"element": "N" 
			},
			{
				"x": 1.1911063669,
				"y": 0.9783808009,
				"z": -1.4303669955,
				"element": "C" 
			},
			{
				"x": 0.0856193035,
				"y": 1.5772217417,
				"z": -2.0962779258,
				"element": "C" 
			},
			{
				"x": 0.3229230273,
				"y": 2.6341458596,
				"z": -3.0849886823,
				"element": "C" 
			},
			{
				"x": 1.4688713876,
				"y": 3.0098193719,
				"z": -3.4133842083,
				"element": "O" 
			},
			{
				"x": -0.8450977553,
				"y": 3.2878199638,
				"z": -3.7216119556,
				"element": "C" 
			},
			{
				"x": -2.1530960548,
				"y": 2.8664534728,
				"z": -3.4326487916,
				"element": "C" 
			},
			{
				"x": -3.2408160373,
				"y": 3.4938891692,
				"z": -4.0574329655,
				"element": "C" 
			},
			{
				"x": -3.0252620604,
				"y": 4.5335976882,
				"z": -4.9548290389,
				"element": "C" 
			},
			{
				"x": -1.7193407452,
				"y": 4.9542784207,
				"z": -5.2433522305,
				"element": "C" 
			},
			{
				"x": -0.6356334035,
				"y": 4.333112327,
				"z": -4.6330068503,
				"element": "C" 
			},
			{
				"x": -2.4024326617,
				"y": 1.7561196457,
				"z": -2.4829849519,
				"element": "C" 
			},
			{
				"x": -3.5808228646,
				"y": 1.3829756598,
				"z": -2.2979253799,
				"element": "O" 
			},
			{
				"x": -1.2580787325,
				"y": 1.1442307732,
				"z": -1.7995232287,
				"element": "C" 
			},
			{
				"x": -1.4808210411,
				"y": 0.1174039717,
				"z": -0.8403076152,
				"element": "C" 
			},
			{
				"x": -2.7484798089,
				"y": -0.3018369852,
				"z": -0.5312111111,
				"element": "N" 
			},
			{
				"x": -3.1749132305,
				"y": -1.1152738386,
				"z": 0.5340949005,
				"element": "C" 
			},
			{
				"x": -4.2777344884,
				"y": -1.9590814344,
				"z": 0.3221460867,
				"element": "C" 
			},
			{
				"x": -4.7823482504,
				"y": -2.7393205061,
				"z": 1.3576611117,
				"element": "C" 
			},
			{
				"x": -4.2043891387,
				"y": -2.7225860167,
				"z": 2.6349126786,
				"element": "C" 
			},
			{
				"x": -4.729241968,
				"y": -3.6048388103,
				"z": 3.7425579892,
				"element": "C" 
			},
			{
				"x": -3.1135798403,
				"y": -1.868568664,
				"z": 2.8399603063,
				"element": "C" 
			},
			{
				"x": -2.6079773058,
				"y": -1.0669794126,
				"z": 1.8180125927,
				"element": "C" 
			},
			{
				"x": -0.3429415713,
				"y": -0.5198419202,
				"z": -0.2676043757,
				"element": "C" 
			},
			{
				"x": 0.9302983852,
				"y": -0.1095257903,
				"z": -0.5487557864,
				"element": "C" 
			},
			{
				"x": 3.7005903674,
				"y": 0.9665590911,
				"z": 0.424888044,
				"element": "C" 
			},
			{
				"x": 4.9120462764,
				"y": 0.7180913354,
				"z": 1.067744571,
				"element": "C" 
			},
			{
				"x": 7.3942862424,
				"y": 0.6465538693,
				"z": 2.1007847231,
				"element": "H" 
			},
			{
				"x": 7.630814635,
				"y": -0.7684285959,
				"z": 1.0733879713,
				"element": "H" 
			},
			{
				"x": 8.2593484029,
				"y": 0.7986708377,
				"z": 0.5640462529,
				"element": "H" 
			},
			{
				"x": 6.9731298717,
				"y": 0.6809196282,
				"z": -1.6186435745,
				"element": "H" 
			},
			{
				"x": 4.8309478872,
				"y": 1.0814025046,
				"z": -2.7760586466,
				"element": "H" 
			},
			{
				"x": 2.5277537209,
				"y": 2.0529132835,
				"z": -2.4578306605,
				"element": "H" 
			},
			{
				"x": -4.2396681942,
				"y": 3.1454064277,
				"z": -3.8197557131,
				"element": "H" 
			},
			{
				"x": -3.8702963215,
				"y": 5.0196989151,
				"z": -5.4339232287,
				"element": "H" 
			},
			{
				"x": -1.5534342695,
				"y": 5.7660319929,
				"z": -5.9458053334,
				"element": "H" 
			},
			{
				"x": 0.3846642497,
				"y": 4.6350842856,
				"z": -4.8414325686,
				"element": "H" 
			},
			{
				"x": -3.4581032086,
				"y": 0.1244552096,
				"z": -1.1356243845,
				"element": "H" 
			},
			{
				"x": -4.7312647753,
				"y": -1.9980584048,
				"z": -0.6642770588,
				"element": "H" 
			},
			{
				"x": -5.6390827727,
				"y": -3.3810518766,
				"z": 1.1665311134,
				"element": "H" 
			},
			{
				"x": -4.2816484076,
				"y": -4.6062603841,
				"z": 3.702913376,
				"element": "H" 
			},
			{
				"x": -4.5024484972,
				"y": -3.1871276221,
				"z": 4.7281426761,
				"element": "H" 
			},
			{
				"x": -5.8139117189,
				"y": -3.7336390947,
				"z": 3.6725013839,
				"element": "H" 
			},
			{
				"x": -2.6598348807,
				"y": -1.8106023829,
				"z": 3.8265287796,
				"element": "H" 
			},
			{
				"x": -1.7954189626,
				"y": -0.3791459847,
				"z": 2.0257810474,
				"element": "H" 
			},
			{
				"x": -0.4939495743,
				"y": -1.3783475045,
				"z": 0.3755999124,
				"element": "H" 
			},
			{
				"x": 1.7678106549,
				"y": -0.6494799465,
				"z": -0.1238129596,
				"element": "H" 
			},
			{
				"x": 2.798298448,
				"y": 1.102618378,
				"z": 1.0113271746,
				"element": "H" 
			},
			{
				"x": 4.9240954762,
				"y": 0.6344819478,
				"z": 2.1519141009,
				"element": "H" 
			}
		],
		 "valence_orbital": [ 
			{
				"type": "occ",
				"energy": -0.25274,
				"method": "rhf"
			},
			{
				"type": "occ",
				"energy": -0.25258,
				"method": "rhf"
			},
			{
				"type": "occ",
				"energy": -0.24302,
				"method": "rhf"
			},
			{
				"type": "occ",
				"energy": -0.2175,
				"method": "rhf"
			},
			{
				"type": "occ",
				"energy": -0.17706,
				"method": "rhf"
			},
			{
				"type": "unocc",
				"energy": -0.09368,
				"method": "rhf"
			},
			{
				"type": "unocc",
				"energy": -0.04361,
				"method": "rhf"
			},
			{
				"type": "unocc",
				"energy": -0.01614,
				"method": "rhf"
			},
			{
				"type": "unocc",
				"energy": -0.00924,
				"method": "rhf"
			},
			{
				"type": "unocc",
				"energy": -0.00465,
				"method": "rhf"
			}
		],
		"cosmo_sigma_profile": { 
			"-0.025": 0.0,
			"-0.024": 0.0,
			"-0.023": 0.0,
			"-0.022": 0.0,
			"-0.021": 0.0,
			"-0.02": 0.0,
			"-0.019": 0.0,
			"-0.018": 0.0,
			"-0.017": 0.0,
			"-0.016": 0.0,
			"-0.015": 0.0,
			"-0.014": 0.0,
			"-0.013": 0.0,
			"-0.012": 0.0,
			"-0.011": 0.0,
			"-0.01": 0.0,
			"-0.009": 0.0,
			"-0.008": 0.139338100612,
			"-0.007": 5.92685615659,
			"-0.006": 18.1591237537,
			"-0.005": 28.7489740594,
			"-0.004": 43.4714294954,
			"-0.003": 38.7453865591,
			"-0.002": 33.7388827295,
			"-0.001": 39.0369487098,
			"0.0": 46.2504810905,
			"0.001": 46.480468203,
			"0.002": 46.3443762788,
			"0.003": 35.5630615447,
			"0.004": 21.9458826086,
			"0.005": 20.4514686622,
			"0.006": 11.9720796571,
			"0.007": 2.88058335589,
			"0.008": 3.25795783497,
			"0.009": 2.52014001063,
			"0.01": 3.81886955677,
			"0.011": 3.72071592402,
			"0.012": 2.61933605075,
			"0.013": 0.0,
			"0.014": 0.0,
			"0.015": 0.0,
			"0.016": 0.0,
			"0.017": 0.0,
			"0.018": 0.0,
			"0.019": 0.0,
			"0.02": 0.0,
			"0.021": 0.0,
			"0.022": 0.0,
			"0.023": 0.0,
			"0.024": 0.0,
			"0.025": 0.0
		}
	}
}
