{
	 "smiles": "CCOC(=O)C1=C(Cl)C2=C(C=CC=C2)N=N1", 
	 "Tm": 327.15, 
	 "num_atms": 25, 
	 "gaussian": { 
		 "optdone": 1, 
		 "sigma_profile": "yes", 
		 "theory": "DFT", 
		 "functional": "B3LYP", 
		 "basiset": "6-31G**", 
		 "properties": { 
			 "R2extent": 4567.0599, 
			 "electric_dipole_moment_norm": 4.43506046858, 
			 "electric_quadrupole_moment_norm": 23.0624087797, 
			 "total_energy": -1144.70556382, 
			 "HOMO_LUMO_gap": 0.15433, 
			 "cosmo_polarized_energy": -13.6, 
			 "cosmo_cavitation_energy": 31.77, 
			 "cosmo_dispersion_energy": -23.06, 
			 "cosmo_repulsion_energy": 1.8, 
			 "cosmo_total_nonelectrostatic_energy": 10.51, 
			 "SMD_solvation_energy": 4.29 
		},
		"coords": [
			{
				"x": -5.0072421468,
				"y": 1.1975279737,
				"z": 1.5550459416,
				"element": "C" 
			},
			{
				"x": -4.1165906037,
				"y": 1.6337607423,
				"z": 0.4023480123,
				"element": "C" 
			},
			{
				"x": -2.9346445013,
				"y": 0.7948681007,
				"z": 0.3071222937,
				"element": "O" 
			},
			{
				"x": -1.8911610097,
				"y": 1.1437353466,
				"z": 1.0782214164,
				"element": "C" 
			},
			{
				"x": -1.8679320017,
				"y": 2.0735603888,
				"z": 1.8510025044,
				"element": "O" 
			},
			{
				"x": -0.7294987817,
				"y": 0.1995450875,
				"z": 0.8905539088,
				"element": "C" 
			},
			{
				"x": -0.0878578351,
				"y": -0.0320866741,
				"z": -0.311179786,
				"element": "C" 
			},
			{
				"x": -0.5867409603,
				"y": 0.7648013011,
				"z": -1.7858031254,
				"element": "Cl" 
			},
			{
				"x": 1.0207923676,
				"y": -0.9122419727,
				"z": -0.3284600838,
				"element": "C" 
			},
			{
				"x": 1.3562355427,
				"y": -1.4887752413,
				"z": 0.9358937319,
				"element": "C" 
			},
			{
				"x": 2.4483716476,
				"y": -2.3907414029,
				"z": 1.0299255707,
				"element": "C" 
			},
			{
				"x": 3.1788594352,
				"y": -2.7054999335,
				"z": -0.0908169111,
				"element": "C" 
			},
			{
				"x": 2.8468988107,
				"y": -2.131250811,
				"z": -1.345195867,
				"element": "C" 
			},
			{
				"x": 1.7943370291,
				"y": -1.2527685132,
				"z": -1.4684051712,
				"element": "C" 
			},
			{
				"x": 0.6739178857,
				"y": -1.2083532802,
				"z": 2.0863216204,
				"element": "N" 
			},
			{
				"x": -0.3271757737,
				"y": -0.3839397412,
				"z": 2.0607541115,
				"element": "N" 
			},
			{
				"x": -4.4989354381,
				"y": 1.3436443314,
				"z": 2.5109937883,
				"element": "H" 
			},
			{
				"x": -5.9249766283,
				"y": 1.7949856243,
				"z": 1.5582289847,
				"element": "H" 
			},
			{
				"x": -5.2831970678,
				"y": 0.1436936665,
				"z": 1.4570312596,
				"element": "H" 
			},
			{
				"x": -4.6122228961,
				"y": 1.5067998078,
				"z": -0.5625744523,
				"element": "H" 
			},
			{
				"x": -3.7993961712,
				"y": 2.6729106818,
				"z": 0.5163516407,
				"element": "H" 
			},
			{
				"x": 2.6713665593,
				"y": -2.8063870988,
				"z": 2.0066479918,
				"element": "H" 
			},
			{
				"x": 4.0149120242,
				"y": -3.3946467701,
				"z": -0.0224978511,
				"element": "H" 
			},
			{
				"x": 3.4340648965,
				"y": -2.3897587552,
				"z": -2.2212817737,
				"element": "H" 
			},
			{
				"x": 1.5448156171,
				"y": -0.8164828582,
				"z": -2.4285277554,
				"element": "H" 
			}
		],
		 "valence_orbital": [ 
			{
				"type": "occ",
				"energy": -0.30213,
				"method": "rhf"
			},
			{
				"type": "occ",
				"energy": -0.2913,
				"method": "rhf"
			},
			{
				"type": "occ",
				"energy": -0.27644,
				"method": "rhf"
			},
			{
				"type": "occ",
				"energy": -0.25472,
				"method": "rhf"
			},
			{
				"type": "occ",
				"energy": -0.24159,
				"method": "rhf"
			},
			{
				"type": "unocc",
				"energy": -0.08726,
				"method": "rhf"
			},
			{
				"type": "unocc",
				"energy": -0.05507,
				"method": "rhf"
			},
			{
				"type": "unocc",
				"energy": -0.00515,
				"method": "rhf"
			},
			{
				"type": "unocc",
				"energy": 0.00874,
				"method": "rhf"
			},
			{
				"type": "unocc",
				"energy": 0.01329,
				"method": "rhf"
			}
		],
		"cosmo_sigma_profile": { 
			"-0.025": 0.0,
			"-0.024": 0.0,
			"-0.023": 0.0,
			"-0.022": 0.0,
			"-0.021": 0.0,
			"-0.02": 0.0,
			"-0.019": 0.0,
			"-0.018": 0.0,
			"-0.017": 0.0,
			"-0.016": 0.0,
			"-0.015": 0.0,
			"-0.014": 0.0,
			"-0.013": 0.0,
			"-0.012": 0.0,
			"-0.011": 0.0,
			"-0.01": 0.0,
			"-0.009": 0.0,
			"-0.008": 2.41755531522,
			"-0.007": 8.9057994867,
			"-0.006": 12.3255585528,
			"-0.005": 14.5025952217,
			"-0.004": 22.8976243319,
			"-0.003": 24.7047795501,
			"-0.002": 26.4459241062,
			"-0.001": 25.1322085156,
			"0.0": 27.4903398865,
			"0.001": 22.3001713533,
			"0.002": 16.6465666781,
			"0.003": 7.33720140694,
			"0.004": 4.31598292448,
			"0.005": 5.95480622252,
			"0.006": 4.0826459928,
			"0.007": 3.56807757038,
			"0.008": 4.01674759847,
			"0.009": 3.85085467886,
			"0.01": 4.90838466575,
			"0.011": 7.34900602419,
			"0.012": 4.07109514158,
			"0.013": 2.59657687389,
			"0.014": 1.14722115519,
			"0.015": 0.158018439852,
			"0.016": 0.0,
			"0.017": 0.0,
			"0.018": 0.0,
			"0.019": 0.0,
			"0.02": 0.0,
			"0.021": 0.0,
			"0.022": 0.0,
			"0.023": 0.0,
			"0.024": 0.0,
			"0.025": 0.0
		}
	}
}
