{
	 "smiles": "NC1=CC=C(C=C1)C1=NN=NN1", 
	 "Tm": 357.15, 
	 "num_atms": 19, 
	 "gaussian": { 
		 "optdone": 1, 
		 "sigma_profile": "yes", 
		 "theory": "DFT", 
		 "functional": "B3LYP", 
		 "basiset": "6-31G**", 
		 "properties": { 
			 "R2extent": 2433.9669, 
			 "electric_dipole_moment_norm": 7.96025248469, 
			 "electric_quadrupole_moment_norm": 15.1224159346, 
			 "total_energy": -544.675032967, 
			 "HOMO_LUMO_gap": 0.17631, 
			 "cosmo_polarized_energy": -22.78, 
			 "cosmo_cavitation_energy": 23.95, 
			 "cosmo_dispersion_energy": -18.05, 
			 "cosmo_repulsion_energy": 1.42, 
			 "cosmo_total_nonelectrostatic_energy": 7.32, 
			 "SMD_solvation_energy": 2.26 
		},
		"coords": [
			{
				"x": -0.7932779941,
				"y": -3.922716136,
				"z": -0.4971516975,
				"element": "N" 
			},
			{
				"x": -0.5838102955,
				"y": -2.5610607953,
				"z": -0.3531672412,
				"element": "C" 
			},
			{
				"x": -0.2176899403,
				"y": -2.0152343851,
				"z": 0.8920825863,
				"element": "C" 
			},
			{
				"x": 0.0417271302,
				"y": -0.6574403538,
				"z": 1.0187563381,
				"element": "C" 
			},
			{
				"x": -0.0532842576,
				"y": 0.2055959052,
				"z": -0.0845368141,
				"element": "C" 
			},
			{
				"x": -0.4202553889,
				"y": -0.3409930954,
				"z": -1.3272132249,
				"element": "C" 
			},
			{
				"x": -0.6803310347,
				"y": -1.6952069257,
				"z": -1.4610491623,
				"element": "C" 
			},
			{
				"x": 0.2085495182,
				"y": 1.6369940695,
				"z": 0.0106120157,
				"element": "C" 
			},
			{
				"x": 0.0899816487,
				"y": 2.5250757217,
				"z": -0.9704568085,
				"element": "N" 
			},
			{
				"x": 0.4311496367,
				"y": 3.7303684467,
				"z": -0.448246339,
				"element": "N" 
			},
			{
				"x": 0.752246647,
				"y": 3.6312123963,
				"z": 0.7989565643,
				"element": "N" 
			},
			{
				"x": 0.6181316976,
				"y": 2.3173701621,
				"z": 1.1089272319,
				"element": "N" 
			},
			{
				"x": -1.0140198691,
				"y": -4.4396385982,
				"z": 0.3413685108,
				"element": "H" 
			},
			{
				"x": -1.3307978769,
				"y": -4.2149606805,
				"z": -1.3001632134,
				"element": "H" 
			},
			{
				"x": -0.1354813259,
				"y": -2.6649243481,
				"z": 1.7593205337,
				"element": "H" 
			},
			{
				"x": 0.3149429857,
				"y": -0.2748497053,
				"z": 1.9990121077,
				"element": "H" 
			},
			{
				"x": -0.4985636354,
				"y": 0.3203857614,
				"z": -2.1833148453,
				"element": "H" 
			},
			{
				"x": -0.9586042892,
				"y": -2.0982639739,
				"z": -2.4313339981,
				"element": "H" 
			},
			{
				"x": 0.8280866436,
				"y": 1.9993865343,
				"z": 2.0425974558,
				"element": "H" 
			}
		],
		 "valence_orbital": [ 
			{
				"type": "occ",
				"energy": -0.28831,
				"method": "rhf"
			},
			{
				"type": "occ",
				"energy": -0.2873,
				"method": "rhf"
			},
			{
				"type": "occ",
				"energy": -0.27259,
				"method": "rhf"
			},
			{
				"type": "occ",
				"energy": -0.26737,
				"method": "rhf"
			},
			{
				"type": "occ",
				"energy": -0.21473,
				"method": "rhf"
			},
			{
				"type": "unocc",
				"energy": -0.03842,
				"method": "rhf"
			},
			{
				"type": "unocc",
				"energy": -0.01628,
				"method": "rhf"
			},
			{
				"type": "unocc",
				"energy": 0.01205,
				"method": "rhf"
			},
			{
				"type": "unocc",
				"energy": 0.05136,
				"method": "rhf"
			},
			{
				"type": "unocc",
				"energy": 0.05964,
				"method": "rhf"
			}
		],
		"cosmo_sigma_profile": { 
			"-0.025": 0.0,
			"-0.024": 0.0,
			"-0.023": 0.0,
			"-0.022": 0.0,
			"-0.021": 0.0,
			"-0.02": 0.0,
			"-0.019": 0.45285638912,
			"-0.018": 1.26545666157,
			"-0.017": 1.39352570775,
			"-0.016": 1.13126249168,
			"-0.015": 1.28749204856,
			"-0.014": 2.39384642924,
			"-0.013": 3.16980904466,
			"-0.012": 4.08709225806,
			"-0.011": 3.86706296916,
			"-0.01": 4.06107182194,
			"-0.009": 4.27983586143,
			"-0.008": 4.65216533861,
			"-0.007": 5.14774862017,
			"-0.006": 8.31836336794,
			"-0.005": 7.88039913424,
			"-0.004": 8.32386637434,
			"-0.003": 7.38943767817,
			"-0.002": 9.07125722229,
			"-0.001": 8.38803407105,
			"0.0": 8.0519301151,
			"0.001": 9.59326650232,
			"0.002": 9.44193632664,
			"0.003": 11.7399379017,
			"0.004": 14.5928474852,
			"0.005": 11.79613096,
			"0.006": 3.58306718297,
			"0.007": 3.59733993807,
			"0.008": 6.09104512173,
			"0.009": 5.33356540277,
			"0.01": 5.19298005789,
			"0.011": 5.82226384066,
			"0.012": 5.08965087195,
			"0.013": 3.00437271381,
			"0.014": 2.03171847935,
			"0.015": 0.496852027887,
			"0.016": 0.0,
			"0.017": 0.0,
			"0.018": 0.0,
			"0.019": 0.0,
			"0.02": 0.0,
			"0.021": 0.0,
			"0.022": 0.0,
			"0.023": 0.0,
			"0.024": 0.0,
			"0.025": 0.0
		}
	}
}
