{
	 "smiles": "NC1=C(N)C=C2OCC(=O)NC2=C1", 
	 "Tm": 526.15, 
	 "num_atms": 22, 
	 "gaussian": { 
		 "optdone": 1, 
		 "sigma_profile": "yes", 
		 "theory": "DFT", 
		 "functional": "B3LYP", 
		 "basiset": "6-31G**", 
		 "properties": { 
			 "R2extent": 2764.0802, 
			 "electric_dipole_moment_norm": 4.91984468251, 
			 "electric_quadrupole_moment_norm": 10.9028978075, 
			 "total_energy": -624.980087639, 
			 "HOMO_LUMO_gap": 0.17474, 
			 "cosmo_polarized_energy": -18.65, 
			 "cosmo_cavitation_energy": 25.79, 
			 "cosmo_dispersion_energy": -19.7, 
			 "cosmo_repulsion_energy": 1.57, 
			 "cosmo_total_nonelectrostatic_energy": 7.66, 
			 "SMD_solvation_energy": 5.19 
		},
		"coords": [
			{
				"x": 2.5295647758,
				"y": -0.7403589598,
				"z": 2.0203763499,
				"element": "N" 
			},
			{
				"x": 1.3519157081,
				"y": -0.2418192316,
				"z": 1.464062897,
				"element": "C" 
			},
			{
				"x": 0.2083767187,
				"y": -0.0576300214,
				"z": 2.2774379296,
				"element": "C" 
			},
			{
				"x": 0.2860515177,
				"y": -0.4732763738,
				"z": 3.6418526786,
				"element": "N" 
			},
			{
				"x": -0.9360285907,
				"y": 0.5326475712,
				"z": 1.7348779943,
				"element": "C" 
			},
			{
				"x": -0.968059952,
				"y": 0.9425611577,
				"z": 0.4059645025,
				"element": "C" 
			},
			{
				"x": -2.0810842006,
				"y": 1.5864453392,
				"z": -0.0898797546,
				"element": "O" 
			},
			{
				"x": -2.3284159942,
				"y": 1.3468320585,
				"z": -1.4742344276,
				"element": "C" 
			},
			{
				"x": -1.0971041065,
				"y": 1.5196934572,
				"z": -2.3631706981,
				"element": "C" 
			},
			{
				"x": -1.1675147375,
				"y": 1.8839007452,
				"z": -3.5261357025,
				"element": "O" 
			},
			{
				"x": 0.0769068772,
				"y": 1.175694897,
				"z": -1.7460436993,
				"element": "N" 
			},
			{
				"x": 0.1479566473,
				"y": 0.7316951092,
				"z": -0.4116923035,
				"element": "C" 
			},
			{
				"x": 1.2951940052,
				"y": 0.1389115649,
				"z": 0.1166263539,
				"element": "C" 
			},
			{
				"x": 2.4509207582,
				"y": -1.0193879047,
				"z": 2.9871573887,
				"element": "H" 
			},
			{
				"x": 3.0800943557,
				"y": -1.3624385415,
				"z": 1.4481943018,
				"element": "H" 
			},
			{
				"x": 0.2282931483,
				"y": -1.4861921626,
				"z": 3.730120234,
				"element": "H" 
			},
			{
				"x": -0.464175454,
				"y": -0.0734252801,
				"z": 4.1949355736,
				"element": "H" 
			},
			{
				"x": -1.8238548382,
				"y": 0.6771215141,
				"z": 2.3437283631,
				"element": "H" 
			},
			{
				"x": -3.0843944427,
				"y": 2.0638556521,
				"z": -1.7945578176,
				"element": "H" 
			},
			{
				"x": -2.7219429451,
				"y": 0.328408492,
				"z": -1.6259475496,
				"element": "H" 
			},
			{
				"x": 0.91477706,
				"y": 1.2270763538,
				"z": -2.3107165854,
				"element": "H" 
			},
			{
				"x": 2.1720236895,
				"y": 0.0093845635,
				"z": -0.5129560286,
				"element": "H" 
			}
		],
		 "valence_orbital": [ 
			{
				"type": "occ",
				"energy": -0.29315,
				"method": "rhf"
			},
			{
				"type": "occ",
				"energy": -0.26275,
				"method": "rhf"
			},
			{
				"type": "occ",
				"energy": -0.24924,
				"method": "rhf"
			},
			{
				"type": "occ",
				"energy": -0.22133,
				"method": "rhf"
			},
			{
				"type": "occ",
				"energy": -0.18105,
				"method": "rhf"
			},
			{
				"type": "unocc",
				"energy": -0.00631,
				"method": "rhf"
			},
			{
				"type": "unocc",
				"energy": 0.01059,
				"method": "rhf"
			},
			{
				"type": "unocc",
				"energy": 0.04362,
				"method": "rhf"
			},
			{
				"type": "unocc",
				"energy": 0.06864,
				"method": "rhf"
			},
			{
				"type": "unocc",
				"energy": 0.08572,
				"method": "rhf"
			}
		],
		"cosmo_sigma_profile": { 
			"-0.025": 0.0,
			"-0.024": 0.0,
			"-0.023": 0.0,
			"-0.022": 0.0,
			"-0.021": 0.0,
			"-0.02": 0.0,
			"-0.019": 0.0,
			"-0.018": 0.0,
			"-0.017": 0.0,
			"-0.016": 0.0813446536615,
			"-0.015": 0.822735978898,
			"-0.014": 1.20049816192,
			"-0.013": 1.57206007048,
			"-0.012": 1.95996644682,
			"-0.011": 5.36263565175,
			"-0.01": 6.08626009954,
			"-0.009": 6.30132926401,
			"-0.008": 7.95142531409,
			"-0.007": 12.6869357875,
			"-0.006": 11.3724860595,
			"-0.005": 10.7526715115,
			"-0.004": 9.47580777131,
			"-0.003": 7.89588232212,
			"-0.002": 8.48830275142,
			"-0.001": 7.92240406211,
			"0.0": 8.58350156564,
			"0.001": 9.10175730312,
			"0.002": 8.02676542105,
			"0.003": 8.35762882007,
			"0.004": 10.2599543922,
			"0.005": 12.3060789398,
			"0.006": 10.006724201,
			"0.007": 5.03153826723,
			"0.008": 5.06424032879,
			"0.009": 3.32645586825,
			"0.01": 4.7082485215,
			"0.011": 3.86449501634,
			"0.012": 4.65147447846,
			"0.013": 7.08496790825,
			"0.014": 3.20956354534,
			"0.015": 0.419270666264,
			"0.016": 0.0,
			"0.017": 0.0,
			"0.018": 0.0,
			"0.019": 0.0,
			"0.02": 0.0,
			"0.021": 0.0,
			"0.022": 0.0,
			"0.023": 0.0,
			"0.024": 0.0,
			"0.025": 0.0
		}
	}
}
