{
	 "smiles": "CN1C=C(C=N1)C1NC(=O)CCC1N", 
	 "Tm": 438.15, 
	 "num_atms": 28, 
	 "gaussian": { 
		 "optdone": 1, 
		 "sigma_profile": "yes", 
		 "theory": "DFT", 
		 "functional": "B3LYP", 
		 "basiset": "6-31G**", 
		 "properties": { 
			 "R2extent": 3414.1421, 
			 "electric_dipole_moment_norm": 3.88700353614, 
			 "electric_quadrupole_moment_norm": 22.0267983062, 
			 "total_energy": -645.620134737, 
			 "HOMO_LUMO_gap": 0.24035, 
			 "cosmo_polarized_energy": -18.38, 
			 "cosmo_cavitation_energy": 30.46, 
			 "cosmo_dispersion_energy": -21.93, 
			 "cosmo_repulsion_energy": 1.75, 
			 "cosmo_total_nonelectrostatic_energy": 10.28, 
			 "SMD_solvation_energy": 3.61 
		},
		"coords": [
			{
				"x": -1.551498669,
				"y": -0.9088620614,
				"z": -4.142877955,
				"element": "C" 
			},
			{
				"x": -1.4797516579,
				"y": -1.1635490388,
				"z": -2.7157423897,
				"element": "N" 
			},
			{
				"x": -0.9139620463,
				"y": -0.3851035087,
				"z": -1.7562972067,
				"element": "C" 
			},
			{
				"x": -1.176189855,
				"y": -0.99114076,
				"z": -0.5354370497,
				"element": "C" 
			},
			{
				"x": -1.9221529891,
				"y": -2.142899086,
				"z": -0.8846118723,
				"element": "C" 
			},
			{
				"x": -2.1052668631,
				"y": -2.2436383,
				"z": -2.2015360858,
				"element": "N" 
			},
			{
				"x": -0.730907738,
				"y": -0.5524824078,
				"z": 0.83356741,
				"element": "C" 
			},
			{
				"x": -0.7818745276,
				"y": 0.910442535,
				"z": 0.9293943543,
				"element": "N" 
			},
			{
				"x": -0.0480351333,
				"y": 1.726941352,
				"z": 1.7540160569,
				"element": "C" 
			},
			{
				"x": -0.3169526228,
				"y": 2.9148258853,
				"z": 1.8796497413,
				"element": "O" 
			},
			{
				"x": 1.1612651867,
				"y": 1.0939334419,
				"z": 2.4347727249,
				"element": "C" 
			},
			{
				"x": 1.1076120075,
				"y": -0.4337773548,
				"z": 2.5306438635,
				"element": "C" 
			},
			{
				"x": 0.6898882115,
				"y": -1.0479011343,
				"z": 1.1922438341,
				"element": "C" 
			},
			{
				"x": 0.6614420655,
				"y": -2.5055355,
				"z": 1.2937058544,
				"element": "N" 
			},
			{
				"x": -0.7711053712,
				"y": -0.1978501976,
				"z": -4.4201544493,
				"element": "H" 
			},
			{
				"x": -2.5283745644,
				"y": -0.4993708357,
				"z": -4.4189765813,
				"element": "H" 
			},
			{
				"x": -1.3963461919,
				"y": -1.8470526814,
				"z": -4.6780596386,
				"element": "H" 
			},
			{
				"x": -0.384497172,
				"y": 0.5249353667,
				"z": -1.9982228478,
				"element": "H" 
			},
			{
				"x": -2.3282447819,
				"y": -2.8982316224,
				"z": -0.2241503907,
				"element": "H" 
			},
			{
				"x": -1.4046616909,
				"y": -1.0106152621,
				"z": 1.5736182736,
				"element": "H" 
			},
			{
				"x": -1.5962726893,
				"y": 1.3648934594,
				"z": 0.534644056,
				"element": "H" 
			},
			{
				"x": 1.2572477856,
				"y": 1.5646139183,
				"z": 3.4165556896,
				"element": "H" 
			},
			{
				"x": 2.0395157798,
				"y": 1.4098114793,
				"z": 1.856097165,
				"element": "H" 
			},
			{
				"x": 2.0857231602,
				"y": -0.8260873593,
				"z": 2.8358678315,
				"element": "H" 
			},
			{
				"x": 0.3895106732,
				"y": -0.7520426826,
				"z": 3.2964617669,
				"element": "H" 
			},
			{
				"x": 1.3723097889,
				"y": -0.6722576917,
				"z": 0.4069346413,
				"element": "H" 
			},
			{
				"x": 0.4544037346,
				"y": -2.9121453828,
				"z": 0.3842980096,
				"element": "H" 
			},
			{
				"x": 1.5790761701,
				"y": -2.8486545706,
				"z": 1.5659951942,
				"element": "H" 
			}
		],
		 "valence_orbital": [ 
			{
				"type": "occ",
				"energy": -0.25719,
				"method": "rhf"
			},
			{
				"type": "occ",
				"energy": -0.25571,
				"method": "rhf"
			},
			{
				"type": "occ",
				"energy": -0.24334,
				"method": "rhf"
			},
			{
				"type": "occ",
				"energy": -0.24026,
				"method": "rhf"
			},
			{
				"type": "occ",
				"energy": -0.23271,
				"method": "rhf"
			},
			{
				"type": "unocc",
				"energy": 0.00764,
				"method": "rhf"
			},
			{
				"type": "unocc",
				"energy": 0.02913,
				"method": "rhf"
			},
			{
				"type": "unocc",
				"energy": 0.05451,
				"method": "rhf"
			},
			{
				"type": "unocc",
				"energy": 0.08539,
				"method": "rhf"
			},
			{
				"type": "unocc",
				"energy": 0.09179,
				"method": "rhf"
			}
		],
		"cosmo_sigma_profile": { 
			"-0.025": 0.0,
			"-0.024": 0.0,
			"-0.023": 0.0,
			"-0.022": 0.0,
			"-0.021": 0.0,
			"-0.02": 0.0,
			"-0.019": 0.0,
			"-0.018": 0.0,
			"-0.017": 0.0,
			"-0.016": 0.0,
			"-0.015": 0.0,
			"-0.014": 0.0,
			"-0.013": 0.0964969119006,
			"-0.012": 0.892024911687,
			"-0.011": 0.90192699956,
			"-0.01": 1.3543435677,
			"-0.009": 3.29248270216,
			"-0.008": 6.29429695501,
			"-0.007": 9.16591050351,
			"-0.006": 12.7150414637,
			"-0.005": 15.5503172932,
			"-0.004": 25.9304335911,
			"-0.003": 31.3941035401,
			"-0.002": 23.2358474177,
			"-0.001": 17.1624548808,
			"0.0": 10.8714422983,
			"0.001": 8.33415389102,
			"0.002": 8.24993558186,
			"0.003": 7.8551817364,
			"0.004": 6.14786992417,
			"0.005": 5.92730652608,
			"0.006": 3.76424241083,
			"0.007": 3.49665515402,
			"0.008": 4.10249700519,
			"0.009": 3.08074595646,
			"0.01": 2.56927541003,
			"0.011": 3.06352507115,
			"0.012": 3.10324769143,
			"0.013": 4.41775474742,
			"0.014": 7.52586794771,
			"0.015": 4.84894921755,
			"0.016": 1.75200267765,
			"0.017": 0.330318412444,
			"0.018": 0.664680764252,
			"0.019": 0.246651258933,
			"0.02": 0.0,
			"0.021": 0.0,
			"0.022": 0.0,
			"0.023": 0.0,
			"0.024": 0.0,
			"0.025": 0.0
		}
	}
}
