{
	 "smiles": "OC1=CC=C(C=C1)N1CCCC1=O", 
	 "Tm": 433.15, 
	 "num_atms": 24, 
	 "gaussian": { 
		 "optdone": 1, 
		 "sigma_profile": "yes", 
		 "theory": "DFT", 
		 "functional": "B3LYP", 
		 "basiset": "6-31G**", 
		 "properties": { 
			 "R2extent": 3778.3035, 
			 "electric_dipole_moment_norm": 2.36508181888, 
			 "electric_quadrupole_moment_norm": 14.6195184627, 
			 "total_energy": -592.908024656, 
			 "HOMO_LUMO_gap": 0.19791, 
			 "cosmo_polarized_energy": -14.22, 
			 "cosmo_cavitation_energy": 26.79, 
			 "cosmo_dispersion_energy": -20.3, 
			 "cosmo_repulsion_energy": 1.6, 
			 "cosmo_total_nonelectrostatic_energy": 8.08, 
			 "SMD_solvation_energy": 4.8 
		},
		"coords": [
			{
				"x": -4.8962067839,
				"y": 2.5951045564,
				"z": 0.4024273033,
				"element": "O" 
			},
			{
				"x": -3.7946343312,
				"y": 1.8054369951,
				"z": 0.5917232085,
				"element": "C" 
			},
			{
				"x": -2.9155023397,
				"y": 1.6457739565,
				"z": -0.4809633241,
				"element": "C" 
			},
			{
				"x": -1.7799292556,
				"y": 0.852497054,
				"z": -0.3422435008,
				"element": "C" 
			},
			{
				"x": -1.4914658004,
				"y": 0.2024888684,
				"z": 0.8704405469,
				"element": "C" 
			},
			{
				"x": -2.3816019358,
				"y": 0.3679945017,
				"z": 1.9456524323,
				"element": "C" 
			},
			{
				"x": -3.5179996524,
				"y": 1.1594099059,
				"z": 1.8001771661,
				"element": "C" 
			},
			{
				"x": -0.3165835814,
				"y": -0.5847898858,
				"z": 0.9857477278,
				"element": "N" 
			},
			{
				"x": 0.704250659,
				"y": -0.5875364637,
				"z": -0.0679320913,
				"element": "C" 
			},
			{
				"x": 1.9011152039,
				"y": -1.3110424705,
				"z": 0.5743986,
				"element": "C" 
			},
			{
				"x": 1.2473343455,
				"y": -2.2323160317,
				"z": 1.6085123997,
				"element": "C" 
			},
			{
				"x": -0.0564632261,
				"y": -1.5251466357,
				"z": 1.9731401406,
				"element": "C" 
			},
			{
				"x": -0.7463702012,
				"y": -1.7676679231,
				"z": 2.9508076701,
				"element": "O" 
			},
			{
				"x": -5.4130368001,
				"y": 2.6126777956,
				"z": 1.2181107118,
				"element": "H" 
			},
			{
				"x": -3.1322396701,
				"y": 2.1439333685,
				"z": -1.4200586039,
				"element": "H" 
			},
			{
				"x": -1.1244323805,
				"y": 0.7398064056,
				"z": -1.1978181814,
				"element": "H" 
			},
			{
				"x": -2.1833745641,
				"y": -0.1356451998,
				"z": 2.8805276969,
				"element": "H" 
			},
			{
				"x": -4.1951636836,
				"y": 1.2738914743,
				"z": 2.6445340057,
				"element": "H" 
			},
			{
				"x": 0.9466157225,
				"y": 0.4367773216,
				"z": -0.3667682954,
				"element": "H" 
			},
			{
				"x": 0.3389820946,
				"y": -1.1190122072,
				"z": -0.9586457353,
				"element": "H" 
			},
			{
				"x": 2.54573828,
				"y": -0.5815738196,
				"z": 1.0748564712,
				"element": "H" 
			},
			{
				"x": 2.5057979868,
				"y": -1.8376183272,
				"z": -0.1677504804,
				"element": "H" 
			},
			{
				"x": 0.9915416969,
				"y": -3.2120215269,
				"z": 1.185292063,
				"element": "H" 
			},
			{
				"x": 1.843028217,
				"y": -2.4100217124,
				"z": 2.5061320685,
				"element": "H" 
			}
		],
		 "valence_orbital": [ 
			{
				"type": "occ",
				"energy": -0.33342,
				"method": "rhf"
			},
			{
				"type": "occ",
				"energy": -0.2739,
				"method": "rhf"
			},
			{
				"type": "occ",
				"energy": -0.25066,
				"method": "rhf"
			},
			{
				"type": "occ",
				"energy": -0.24409,
				"method": "rhf"
			},
			{
				"type": "occ",
				"energy": -0.19845,
				"method": "rhf"
			},
			{
				"type": "unocc",
				"energy": -0.00054,
				"method": "rhf"
			},
			{
				"type": "unocc",
				"energy": -0.00014,
				"method": "rhf"
			},
			{
				"type": "unocc",
				"energy": 0.05134,
				"method": "rhf"
			},
			{
				"type": "unocc",
				"energy": 0.0735,
				"method": "rhf"
			},
			{
				"type": "unocc",
				"energy": 0.08196,
				"method": "rhf"
			}
		],
		"cosmo_sigma_profile": { 
			"-0.025": 0.0,
			"-0.024": 0.0,
			"-0.023": 0.0,
			"-0.022": 0.0,
			"-0.021": 0.0,
			"-0.02": 0.0,
			"-0.019": 0.0,
			"-0.018": 0.264189220926,
			"-0.017": 1.05713037948,
			"-0.016": 1.07613084523,
			"-0.015": 1.15936656966,
			"-0.014": 0.989747784136,
			"-0.013": 0.864001336365,
			"-0.012": 0.791859290171,
			"-0.011": 0.988797165137,
			"-0.01": 1.15444624929,
			"-0.009": 1.14707583826,
			"-0.008": 0.981620822016,
			"-0.007": 1.74113976032,
			"-0.006": 8.53494446408,
			"-0.005": 19.1861752379,
			"-0.004": 25.304357528,
			"-0.003": 21.0047839934,
			"-0.002": 15.1747982342,
			"-0.001": 13.6081324894,
			"0.0": 9.77217782926,
			"0.001": 6.95915870297,
			"0.002": 9.18041335027,
			"0.003": 10.1847023345,
			"0.004": 13.2285859766,
			"0.005": 15.1352078752,
			"0.006": 6.47130408478,
			"0.007": 3.529858852,
			"0.008": 3.27479381721,
			"0.009": 2.65839726576,
			"0.01": 3.54102293476,
			"0.011": 3.41665540374,
			"0.012": 3.95895217592,
			"0.013": 3.33709261959,
			"0.014": 2.17425120448,
			"0.015": 0.336686872928,
			"0.016": 0.0,
			"0.017": 0.0,
			"0.018": 0.0,
			"0.019": 0.0,
			"0.02": 0.0,
			"0.021": 0.0,
			"0.022": 0.0,
			"0.023": 0.0,
			"0.024": 0.0,
			"0.025": 0.0
		}
	}
}
