{
	 "smiles": "NC(=S)CC1=CC=CC=C1", 
	 "Tm": 358.15, 
	 "num_atms": 19, 
	 "gaussian": { 
		 "optdone": 1, 
		 "sigma_profile": "yes", 
		 "theory": "DFT", 
		 "functional": "B3LYP", 
		 "basiset": "6-31G**", 
		 "properties": { 
			 "R2extent": 2216.9602, 
			 "electric_dipole_moment_norm": 5.1859028105, 
			 "electric_quadrupole_moment_norm": 17.3608346674, 
			 "total_energy": -763.226480315, 
			 "HOMO_LUMO_gap": 0.17509, 
			 "cosmo_polarized_energy": -14.32, 
			 "cosmo_cavitation_energy": 24.46, 
			 "cosmo_dispersion_energy": -18.12, 
			 "cosmo_repulsion_energy": 1.44, 
			 "cosmo_total_nonelectrostatic_energy": 7.78, 
			 "SMD_solvation_energy": 3.07 
		},
		"coords": [
			{
				"x": -0.6772065068,
				"y": 2.0937245094,
				"z": 1.2271656534,
				"element": "N" 
			},
			{
				"x": -0.5809508011,
				"y": 1.0408975843,
				"z": 2.0546040837,
				"element": "C" 
			},
			{
				"x": -0.3502986679,
				"y": 1.1995135929,
				"z": 3.6957779881,
				"element": "S" 
			},
			{
				"x": -0.7510492562,
				"y": -0.333225458,
				"z": 1.3956357078,
				"element": "C" 
			},
			{
				"x": -0.5351756303,
				"y": -0.3911939643,
				"z": -0.1026192514,
				"element": "C" 
			},
			{
				"x": -1.6120001666,
				"y": -0.2660027525,
				"z": -0.9931089529,
				"element": "C" 
			},
			{
				"x": -1.4068505796,
				"y": -0.2988288452,
				"z": -2.3746829866,
				"element": "C" 
			},
			{
				"x": -0.1184517026,
				"y": -0.458236154,
				"z": -2.8862258177,
				"element": "C" 
			},
			{
				"x": 0.9625615581,
				"y": -0.5843756974,
				"z": -2.0100250816,
				"element": "C" 
			},
			{
				"x": 0.7551837671,
				"y": -0.5492507788,
				"z": -0.6313613584,
				"element": "C" 
			},
			{
				"x": -0.7735249672,
				"y": 1.9700623957,
				"z": 0.2284415887,
				"element": "H" 
			},
			{
				"x": -0.5889804603,
				"y": 3.0238547386,
				"z": 1.6093625934,
				"element": "H" 
			},
			{
				"x": -1.7665342237,
				"y": -0.6654759237,
				"z": 1.6429378249,
				"element": "H" 
			},
			{
				"x": -0.0759154779,
				"y": -1.0169285652,
				"z": 1.9147907762,
				"element": "H" 
			},
			{
				"x": -2.619977804,
				"y": -0.1550455892,
				"z": -0.5999189504,
				"element": "H" 
			},
			{
				"x": -2.2541137214,
				"y": -0.2077312067,
				"z": -3.0483617082,
				"element": "H" 
			},
			{
				"x": 0.042840708,
				"y": -0.4886437963,
				"z": -3.9598077642,
				"element": "H" 
			},
			{
				"x": 1.9677178733,
				"y": -0.7135900749,
				"z": -2.4010786989,
				"element": "H" 
			},
			{
				"x": 1.5997260591,
				"y": -0.6498240146,
				"z": 0.0457743542,
				"element": "H" 
			}
		],
		 "valence_orbital": [ 
			{
				"type": "occ",
				"energy": -0.34379,
				"method": "rhf"
			},
			{
				"type": "occ",
				"energy": -0.26551,
				"method": "rhf"
			},
			{
				"type": "occ",
				"energy": -0.26178,
				"method": "rhf"
			},
			{
				"type": "occ",
				"energy": -0.22583,
				"method": "rhf"
			},
			{
				"type": "occ",
				"energy": -0.20232,
				"method": "rhf"
			},
			{
				"type": "unocc",
				"energy": -0.02723,
				"method": "rhf"
			},
			{
				"type": "unocc",
				"energy": -0.01967,
				"method": "rhf"
			},
			{
				"type": "unocc",
				"energy": -0.01491,
				"method": "rhf"
			},
			{
				"type": "unocc",
				"energy": 0.07532,
				"method": "rhf"
			},
			{
				"type": "unocc",
				"energy": 0.08587,
				"method": "rhf"
			}
		],
		"cosmo_sigma_profile": { 
			"-0.025": 0.0,
			"-0.024": 0.0,
			"-0.023": 0.0,
			"-0.022": 0.0,
			"-0.021": 0.0,
			"-0.02": 0.0,
			"-0.019": 0.0,
			"-0.018": 0.0,
			"-0.017": 0.0,
			"-0.016": 0.0260380223854,
			"-0.015": 0.9072511616,
			"-0.014": 1.34020998179,
			"-0.013": 1.71931446319,
			"-0.012": 2.51829028559,
			"-0.011": 1.83294950207,
			"-0.01": 1.60495449579,
			"-0.009": 1.54465312877,
			"-0.008": 1.36494562783,
			"-0.007": 3.34705451615,
			"-0.006": 12.9282028678,
			"-0.005": 18.1056615636,
			"-0.004": 16.4046133527,
			"-0.003": 14.2728465802,
			"-0.002": 12.2732545876,
			"-0.001": 10.5225470254,
			"0.0": 9.16720171209,
			"0.001": 10.517378137,
			"0.002": 10.5909453877,
			"0.003": 9.31794064016,
			"0.004": 10.8952200339,
			"0.005": 10.6253768092,
			"0.006": 5.51498701281,
			"0.007": 4.37282868365,
			"0.008": 3.86584332429,
			"0.009": 5.94498988144,
			"0.01": 6.37418694486,
			"0.011": 4.53428645209,
			"0.012": 3.54247843789,
			"0.013": 1.30488903077,
			"0.014": 0.0321092435039,
			"0.015": 0.0,
			"0.016": 0.0,
			"0.017": 0.0,
			"0.018": 0.0,
			"0.019": 0.0,
			"0.02": 0.0,
			"0.021": 0.0,
			"0.022": 0.0,
			"0.023": 0.0,
			"0.024": 0.0,
			"0.025": 0.0
		}
	}
}
