{
	 "smiles": "CC1=C(N2C=CC=CC2=N1)P(C1=CC=CC=C1)C1=CC=CC=C1", 
	 "Tm": 372.15, 
	 "num_atms": 40, 
	 "gaussian": { 
		 "optdone": 1, 
		 "sigma_profile": "yes", 
		 "theory": "DFT", 
		 "functional": "B3LYP", 
		 "basiset": "6-31G**", 
		 "properties": { 
			 "R2extent": 7920.8058, 
			 "electric_dipole_moment_norm": 1.78726653021, 
			 "electric_quadrupole_moment_norm": 12.1542221796, 
			 "total_energy": -1223.23011423, 
			 "HOMO_LUMO_gap": 0.16998, 
			 "cosmo_polarized_energy": -11.43, 
			 "cosmo_cavitation_energy": 44.44, 
			 "cosmo_dispersion_energy": -30.48, 
			 "cosmo_repulsion_energy": 2.36, 
			 "cosmo_total_nonelectrostatic_energy": 16.31, 
			 "SMD_solvation_energy": 5.77 
		},
		"coords": [
			{
				"x": 0.9990917929,
				"y": 2.1043865448,
				"z": -0.6130443497,
				"element": "C" 
			},
			{
				"x": 0.5329404133,
				"y": 0.7666085441,
				"z": -1.1007380729,
				"element": "C" 
			},
			{
				"x": -0.4007302701,
				"y": -0.090794951,
				"z": -0.4993243798,
				"element": "C" 
			},
			{
				"x": -0.4848482399,
				"y": -1.1764626023,
				"z": -1.3814611064,
				"element": "N" 
			},
			{
				"x": -1.2294254586,
				"y": -2.3285886594,
				"z": -1.3343647195,
				"element": "C" 
			},
			{
				"x": -1.1163486552,
				"y": -3.2453286535,
				"z": -2.3439604101,
				"element": "C" 
			},
			{
				"x": -0.2299977774,
				"y": -3.0135793403,
				"z": -3.4311438522,
				"element": "C" 
			},
			{
				"x": 0.516822464,
				"y": -1.8601499175,
				"z": -3.4774721011,
				"element": "C" 
			},
			{
				"x": 0.3958076544,
				"y": -0.9096851972,
				"z": -2.4392126994,
				"element": "C" 
			},
			{
				"x": 1.008255851,
				"y": 0.2636442419,
				"z": -2.2705134117,
				"element": "N" 
			},
			{
				"x": -1.4599040844,
				"y": -0.0251933849,
				"z": 0.9739703571,
				"element": "P" 
			},
			{
				"x": -0.3069203936,
				"y": -0.2938093199,
				"z": 2.3968232487,
				"element": "C" 
			},
			{
				"x": -0.8825370769,
				"y": -0.4660377872,
				"z": 3.6682256349,
				"element": "C" 
			},
			{
				"x": -0.0858351138,
				"y": -0.7154606409,
				"z": 4.7855924013,
				"element": "C" 
			},
			{
				"x": 1.2998606745,
				"y": -0.8231319717,
				"z": 4.6464965751,
				"element": "C" 
			},
			{
				"x": 1.8806495709,
				"y": -0.677025497,
				"z": 3.3859589895,
				"element": "C" 
			},
			{
				"x": 1.0846467718,
				"y": -0.4115982275,
				"z": 2.2695184746,
				"element": "C" 
			},
			{
				"x": -1.8779644504,
				"y": 1.7779274398,
				"z": 1.0691539213,
				"element": "C" 
			},
			{
				"x": -1.5257822709,
				"y": 2.606166853,
				"z": 2.1436184471,
				"element": "C" 
			},
			{
				"x": -1.9483863711,
				"y": 3.9375093686,
				"z": 2.182192521,
				"element": "C" 
			},
			{
				"x": -2.7237389054,
				"y": 4.462312644,
				"z": 1.1485956298,
				"element": "C" 
			},
			{
				"x": -3.0832794116,
				"y": 3.6439572485,
				"z": 0.074330338,
				"element": "C" 
			},
			{
				"x": -2.6731755498,
				"y": 2.3122667338,
				"z": 0.0404688346,
				"element": "C" 
			},
			{
				"x": 0.285049187,
				"y": 2.8912320519,
				"z": -0.8818686971,
				"element": "H" 
			},
			{
				"x": 1.1106653105,
				"y": 2.1289055374,
				"z": 0.4734640183,
				"element": "H" 
			},
			{
				"x": 1.9575824022,
				"y": 2.3413698922,
				"z": -1.0799261071,
				"element": "H" 
			},
			{
				"x": -1.8855576125,
				"y": -2.4398564315,
				"z": -0.4802222847,
				"element": "H" 
			},
			{
				"x": -1.7118372598,
				"y": -4.1499204908,
				"z": -2.2981528806,
				"element": "H" 
			},
			{
				"x": -0.1460535776,
				"y": -3.7518667199,
				"z": -4.2219373862,
				"element": "H" 
			},
			{
				"x": 1.2043265333,
				"y": -1.6416820745,
				"z": -4.2863224165,
				"element": "H" 
			},
			{
				"x": -1.9623350373,
				"y": -0.4072083638,
				"z": 3.7832474983,
				"element": "H" 
			},
			{
				"x": -0.5477034626,
				"y": -0.838416322,
				"z": 5.7612631983,
				"element": "H" 
			},
			{
				"x": 1.9210146975,
				"y": -1.0280144399,
				"z": 5.5137673584,
				"element": "H" 
			},
			{
				"x": 2.9570720695,
				"y": -0.7672494094,
				"z": 3.2686898429,
				"element": "H" 
			},
			{
				"x": 1.5451341281,
				"y": -0.3045657917,
				"z": 1.2925384388,
				"element": "H" 
			},
			{
				"x": -0.9149328908,
				"y": 2.2168574364,
				"z": 2.95139031,
				"element": "H" 
			},
			{
				"x": -1.6625421395,
				"y": 4.5656414801,
				"z": 3.0215520465,
				"element": "H" 
			},
			{
				"x": -3.0483376839,
				"y": 5.4984059418,
				"z": 1.1790660618,
				"element": "H" 
			},
			{
				"x": -3.6897799173,
				"y": 4.0410247303,
				"z": -0.7349702939,
				"element": "H" 
			},
			{
				"x": -2.9667659104,
				"y": 1.6835095051,
				"z": -0.7963889773,
				"element": "H" 
			}
		],
		 "valence_orbital": [ 
			{
				"type": "occ",
				"energy": -0.25334,
				"method": "rhf"
			},
			{
				"type": "occ",
				"energy": -0.25025,
				"method": "rhf"
			},
			{
				"type": "occ",
				"energy": -0.2363,
				"method": "rhf"
			},
			{
				"type": "occ",
				"energy": -0.22103,
				"method": "rhf"
			},
			{
				"type": "occ",
				"energy": -0.20123,
				"method": "rhf"
			},
			{
				"type": "unocc",
				"energy": -0.03125,
				"method": "rhf"
			},
			{
				"type": "unocc",
				"energy": -0.02012,
				"method": "rhf"
			},
			{
				"type": "unocc",
				"energy": -0.0121,
				"method": "rhf"
			},
			{
				"type": "unocc",
				"energy": -0.00839,
				"method": "rhf"
			},
			{
				"type": "unocc",
				"energy": -0.00183,
				"method": "rhf"
			}
		],
		"cosmo_sigma_profile": { 
			"-0.025": 0.0,
			"-0.024": 0.0,
			"-0.023": 0.0,
			"-0.022": 0.0,
			"-0.021": 0.0,
			"-0.02": 0.0,
			"-0.019": 0.0,
			"-0.018": 0.0,
			"-0.017": 0.0,
			"-0.016": 0.0,
			"-0.015": 0.0,
			"-0.014": 0.0,
			"-0.013": 0.0,
			"-0.012": 0.0,
			"-0.011": 0.0,
			"-0.01": 0.0,
			"-0.009": 0.0,
			"-0.008": 0.765058453833,
			"-0.007": 5.74719341598,
			"-0.006": 18.5942852554,
			"-0.005": 25.2734167772,
			"-0.004": 31.6521049917,
			"-0.003": 28.9067572047,
			"-0.002": 27.7344244382,
			"-0.001": 30.3285034157,
			"0.0": 34.576185548,
			"0.001": 29.1183091683,
			"0.002": 28.8125805934,
			"0.003": 28.952104254,
			"0.004": 22.6748369036,
			"0.005": 19.6960535101,
			"0.006": 7.29145397671,
			"0.007": 2.14182977551,
			"0.008": 2.396071696,
			"0.009": 1.59249614669,
			"0.01": 1.8658047771,
			"0.011": 1.76545386215,
			"0.012": 0.748503911721,
			"0.013": 1.20381569945,
			"0.014": 1.13142552415,
			"0.015": 0.867642654636,
			"0.016": 0.713184795309,
			"0.017": 0.984500546781,
			"0.018": 0.410246971697,
			"0.019": 0.0,
			"0.02": 0.0,
			"0.021": 0.0,
			"0.022": 0.0,
			"0.023": 0.0,
			"0.024": 0.0,
			"0.025": 0.0
		}
	}
}
