{
	 "smiles": "NC1=CC(CS(=O)(=O)C2CCCCC2)=CC=C1", 
	 "Tm": 380.15, 
	 "num_atms": 36, 
	 "gaussian": { 
		 "optdone": 1, 
		 "sigma_profile": "yes", 
		 "theory": "DFT", 
		 "functional": "B3LYP", 
		 "basiset": "6-31G**", 
		 "properties": { 
			 "R2extent": 5658.4839, 
			 "electric_dipole_moment_norm": 4.54371565241, 
			 "electric_quadrupole_moment_norm": 22.8228348414, 
			 "total_energy": -1110.18836237, 
			 "HOMO_LUMO_gap": 0.19354, 
			 "cosmo_polarized_energy": -17.84, 
			 "cosmo_cavitation_energy": 37.35, 
			 "cosmo_dispersion_energy": -26.76, 
			 "cosmo_repulsion_energy": 2.04, 
			 "cosmo_total_nonelectrostatic_energy": 12.64, 
			 "SMD_solvation_energy": 4.54 
		},
		"coords": [
			{
				"x": 0.2897551112,
				"y": 3.1748359703,
				"z": 3.3466338998,
				"element": "N" 
			},
			{
				"x": 0.567473481,
				"y": 2.8280946511,
				"z": 2.0273334308,
				"element": "C" 
			},
			{
				"x": -0.4737798294,
				"y": 2.524003026,
				"z": 1.1352649033,
				"element": "C" 
			},
			{
				"x": -0.1996698246,
				"y": 2.1118337494,
				"z": -0.1733767043,
				"element": "C" 
			},
			{
				"x": -1.323484709,
				"y": 1.7978051555,
				"z": -1.1239831919,
				"element": "C" 
			},
			{
				"x": -2.3694409966,
				"y": 0.3454552132,
				"z": -0.6806448041,
				"element": "S" 
			},
			{
				"x": -3.2532919964,
				"y": 0.1125326144,
				"z": -1.8418681513,
				"element": "O" 
			},
			{
				"x": -2.9693193183,
				"y": 0.6182461837,
				"z": 0.6414064718,
				"element": "O" 
			},
			{
				"x": -1.1848142223,
				"y": -1.0519159278,
				"z": -0.4677592299,
				"element": "C" 
			},
			{
				"x": -1.8788602954,
				"y": -2.2109584707,
				"z": 0.2736288931,
				"element": "C" 
			},
			{
				"x": -2.7934070691,
				"y": -3.0495992302,
				"z": -0.6329246679,
				"element": "C" 
			},
			{
				"x": -2.0428404799,
				"y": -3.547719809,
				"z": -1.8768829004,
				"element": "C" 
			},
			{
				"x": -1.4421071164,
				"y": -2.37710752,
				"z": -2.6694975868,
				"element": "C" 
			},
			{
				"x": -0.5331908111,
				"y": -1.5033452077,
				"z": -1.7885887841,
				"element": "C" 
			},
			{
				"x": 1.1298318094,
				"y": 2.0047185289,
				"z": -0.6056108239,
				"element": "C" 
			},
			{
				"x": 2.1667506408,
				"y": 2.3168516,
				"z": 0.2755839434,
				"element": "C" 
			},
			{
				"x": 1.8973447854,
				"y": 2.7236759363,
				"z": 1.5782263837,
				"element": "C" 
			},
			{
				"x": -0.6443147716,
				"y": 3.5166652995,
				"z": 3.5228149809,
				"element": "H" 
			},
			{
				"x": 0.9978292344,
				"y": 3.7195131368,
				"z": 3.817929721,
				"element": "H" 
			},
			{
				"x": -1.5051445053,
				"y": 2.5813323868,
				"z": 1.4708219357,
				"element": "H" 
			},
			{
				"x": -0.9681888271,
				"y": 1.6164243717,
				"z": -2.1403031531,
				"element": "H" 
			},
			{
				"x": -2.0764349585,
				"y": 2.5918154152,
				"z": -1.1649602375,
				"element": "H" 
			},
			{
				"x": -0.4294543399,
				"y": -0.6037152733,
				"z": 0.1867846599,
				"element": "H" 
			},
			{
				"x": -1.0767051875,
				"y": -2.849075729,
				"z": 0.6692431839,
				"element": "H" 
			},
			{
				"x": -2.4256043833,
				"y": -1.8175694967,
				"z": 1.1352272369,
				"element": "H" 
			},
			{
				"x": -3.1870566201,
				"y": -3.8968912593,
				"z": -0.0594154464,
				"element": "H" 
			},
			{
				"x": -3.6555530645,
				"y": -2.4483904858,
				"z": -0.9440262105,
				"element": "H" 
			},
			{
				"x": -1.2400789242,
				"y": -4.2334041692,
				"z": -1.5669683231,
				"element": "H" 
			},
			{
				"x": -2.7165439003,
				"y": -4.1267497253,
				"z": -2.5190215811,
				"element": "H" 
			},
			{
				"x": -2.2502364853,
				"y": -1.7614134904,
				"z": -3.0758422312,
				"element": "H" 
			},
			{
				"x": -0.8588796911,
				"y": -2.7514488357,
				"z": -3.5193073792,
				"element": "H" 
			},
			{
				"x": -0.1607782822,
				"y": -0.641630797,
				"z": -2.3542880809,
				"element": "H" 
			},
			{
				"x": 0.3573127176,
				"y": -2.0807237042,
				"z": -1.5034480476,
				"element": "H" 
			},
			{
				"x": 1.3497682408,
				"y": 1.6969397092,
				"z": -1.6237833277,
				"element": "H" 
			},
			{
				"x": 3.1982717336,
				"y": 2.2450125074,
				"z": -0.0577398631,
				"element": "H" 
			},
			{
				"x": 2.7127428551,
				"y": 2.958803676,
				"z": 2.2577410814,
				"element": "H" 
			}
		],
		 "valence_orbital": [ 
			{
				"type": "occ",
				"energy": -0.29685,
				"method": "rhf"
			},
			{
				"type": "occ",
				"energy": -0.28402,
				"method": "rhf"
			},
			{
				"type": "occ",
				"energy": -0.27123,
				"method": "rhf"
			},
			{
				"type": "occ",
				"energy": -0.24442,
				"method": "rhf"
			},
			{
				"type": "occ",
				"energy": -0.20894,
				"method": "rhf"
			},
			{
				"type": "unocc",
				"energy": -0.0154,
				"method": "rhf"
			},
			{
				"type": "unocc",
				"energy": 0.00733,
				"method": "rhf"
			},
			{
				"type": "unocc",
				"energy": 0.06158,
				"method": "rhf"
			},
			{
				"type": "unocc",
				"energy": 0.06662,
				"method": "rhf"
			},
			{
				"type": "unocc",
				"energy": 0.07738,
				"method": "rhf"
			}
		],
		"cosmo_sigma_profile": { 
			"-0.025": 0.0,
			"-0.024": 0.0,
			"-0.023": 0.0,
			"-0.022": 0.0,
			"-0.021": 0.0,
			"-0.02": 0.0,
			"-0.019": 0.0,
			"-0.018": 0.0,
			"-0.017": 0.0,
			"-0.016": 0.0,
			"-0.015": 0.0,
			"-0.014": 0.0,
			"-0.013": 0.323917413712,
			"-0.012": 2.61475559798,
			"-0.011": 2.74688917322,
			"-0.01": 3.27965637479,
			"-0.009": 3.3371679511,
			"-0.008": 5.45860682378,
			"-0.007": 7.96222267207,
			"-0.006": 11.1547385362,
			"-0.005": 14.6226669819,
			"-0.004": 20.3178200987,
			"-0.003": 24.3180136147,
			"-0.002": 27.5238844463,
			"-0.001": 32.8950126539,
			"0.0": 28.217803861,
			"0.001": 17.7846037679,
			"0.002": 10.4354457351,
			"0.003": 9.40735361952,
			"0.004": 10.8148110331,
			"0.005": 11.4146705218,
			"0.006": 9.76089759028,
			"0.007": 5.72342458732,
			"0.008": 3.47209641369,
			"0.009": 4.13007504781,
			"0.01": 4.79256030928,
			"0.011": 6.97414539176,
			"0.012": 6.83352094105,
			"0.013": 4.69451275811,
			"0.014": 0.695305533939,
			"0.015": 0.00177124194383,
			"0.016": 0.0,
			"0.017": 0.0,
			"0.018": 0.0,
			"0.019": 0.0,
			"0.02": 0.0,
			"0.021": 0.0,
			"0.022": 0.0,
			"0.023": 0.0,
			"0.024": 0.0,
			"0.025": 0.0
		}
	}
}
