{
	 "smiles": "CNC(C)=C(C(=O)OC)C(=O)C1=CC(Cl)=NC(Cl)=C1", 
	 "Tm": 387.15, 
	 "num_atms": 31, 
	 "gaussian": { 
		 "optdone": 1, 
		 "sigma_profile": "yes", 
		 "theory": "DFT", 
		 "functional": "B3LYP", 
		 "basiset": "6-31G**", 
		 "properties": { 
			 "R2extent": 8157.8352, 
			 "electric_dipole_moment_norm": 7.07019768394, 
			 "electric_quadrupole_moment_norm": 25.0270739606, 
			 "total_energy": -1720.07440037, 
			 "HOMO_LUMO_gap": 0.16103, 
			 "cosmo_polarized_energy": -14.8, 
			 "cosmo_cavitation_energy": 39.12, 
			 "cosmo_dispersion_energy": -27.32, 
			 "cosmo_repulsion_energy": 2.15, 
			 "cosmo_total_nonelectrostatic_energy": 13.95, 
			 "SMD_solvation_energy": 6.01 
		},
		"coords": [
			{
				"x": -4.4016145604,
				"y": -2.3698006584,
				"z": 0.2915587097,
				"element": "C" 
			},
			{
				"x": -3.3754385087,
				"y": -1.3724491409,
				"z": 0.0430968937,
				"element": "N" 
			},
			{
				"x": -2.0548002118,
				"y": -1.5710936929,
				"z": 0.1053797256,
				"element": "C" 
			},
			{
				"x": -1.6045925071,
				"y": -2.977115906,
				"z": 0.4037379807,
				"element": "C" 
			},
			{
				"x": -1.1651386204,
				"y": -0.4903017795,
				"z": -0.1107562637,
				"element": "C" 
			},
			{
				"x": 0.2903637407,
				"y": -0.744381666,
				"z": -0.2258173384,
				"element": "C" 
			},
			{
				"x": 0.9507488521,
				"y": -1.5628735458,
				"z": 0.3943634958,
				"element": "O" 
			},
			{
				"x": 0.8482527146,
				"y": 0.0523603537,
				"z": -1.1727259857,
				"element": "O" 
			},
			{
				"x": 2.2760529867,
				"y": -0.0408973299,
				"z": -1.2967647589,
				"element": "C" 
			},
			{
				"x": -1.6890005038,
				"y": 0.8537061441,
				"z": -0.2760112403,
				"element": "C" 
			},
			{
				"x": -2.8973896259,
				"y": 1.1083661025,
				"z": -0.4640974224,
				"element": "O" 
			},
			{
				"x": -0.7999097412,
				"y": 2.0662579089,
				"z": -0.1019630543,
				"element": "C" 
			},
			{
				"x": 0.1662980719,
				"y": 2.1506620041,
				"z": 0.906153295,
				"element": "C" 
			},
			{
				"x": 0.8424088652,
				"y": 3.3614835095,
				"z": 1.04652366,
				"element": "C" 
			},
			{
				"x": 2.0563095458,
				"y": 3.5117489196,
				"z": 2.3110030733,
				"element": "Cl" 
			},
			{
				"x": 0.641927563,
				"y": 4.429600155,
				"z": 0.2913361292,
				"element": "N" 
			},
			{
				"x": -0.2840949057,
				"y": 4.3296680678,
				"z": -0.6512593049,
				"element": "C" 
			},
			{
				"x": -0.5429735702,
				"y": 5.755139955,
				"z": -1.6466080264,
				"element": "Cl" 
			},
			{
				"x": -1.0501371427,
				"y": 3.1921261389,
				"z": -0.8915312669,
				"element": "C" 
			},
			{
				"x": -5.3736193619,
				"y": -1.8791127356,
				"z": 0.2244578133,
				"element": "H" 
			},
			{
				"x": -4.3091091298,
				"y": -2.8129734096,
				"z": 1.2890974792,
				"element": "H" 
			},
			{
				"x": -4.3753112416,
				"y": -3.1789418543,
				"z": -0.4474321744,
				"element": "H" 
			},
			{
				"x": -3.6369666704,
				"y": -0.4092255745,
				"z": -0.2033482303,
				"element": "H" 
			},
			{
				"x": -0.5234116812,
				"y": -3.0663928694,
				"z": 0.3842558112,
				"element": "H" 
			},
			{
				"x": -1.9504910645,
				"y": -3.2677314678,
				"z": 1.4027357768,
				"element": "H" 
			},
			{
				"x": -2.0554649429,
				"y": -3.6759826258,
				"z": -0.3091591484,
				"element": "H" 
			},
			{
				"x": 2.5457192778,
				"y": 0.6522759939,
				"z": -2.0934144732,
				"element": "H" 
			},
			{
				"x": 2.7656834162,
				"y": 0.2435177937,
				"z": -0.3615005799,
				"element": "H" 
			},
			{
				"x": 2.5738200419,
				"y": -1.0598202065,
				"z": -1.5545801265,
				"element": "H" 
			},
			{
				"x": 0.3811405505,
				"y": 1.3184139309,
				"z": 1.5649823903,
				"element": "H" 
			},
			{
				"x": -1.8169616365,
				"y": 3.1738674853,
				"z": -1.6546128394,
				"element": "H" 
			}
		],
		 "valence_orbital": [ 
			{
				"type": "occ",
				"energy": -0.29126,
				"method": "rhf"
			},
			{
				"type": "occ",
				"energy": -0.28248,
				"method": "rhf"
			},
			{
				"type": "occ",
				"energy": -0.26366,
				"method": "rhf"
			},
			{
				"type": "occ",
				"energy": -0.25526,
				"method": "rhf"
			},
			{
				"type": "occ",
				"energy": -0.23407,
				"method": "rhf"
			},
			{
				"type": "unocc",
				"energy": -0.07304,
				"method": "rhf"
			},
			{
				"type": "unocc",
				"energy": -0.03339,
				"method": "rhf"
			},
			{
				"type": "unocc",
				"energy": -0.03034,
				"method": "rhf"
			},
			{
				"type": "unocc",
				"energy": -0.00174,
				"method": "rhf"
			},
			{
				"type": "unocc",
				"energy": 0.0197,
				"method": "rhf"
			}
		],
		"cosmo_sigma_profile": { 
			"-0.025": 0.0,
			"-0.024": 0.0,
			"-0.023": 0.0,
			"-0.022": 0.0,
			"-0.021": 0.0,
			"-0.02": 0.0,
			"-0.019": 0.0,
			"-0.018": 0.0,
			"-0.017": 0.0,
			"-0.016": 0.0,
			"-0.015": 0.0,
			"-0.014": 0.0,
			"-0.013": 0.0,
			"-0.012": 0.0,
			"-0.011": 0.0143493758445,
			"-0.01": 0.497168221986,
			"-0.009": 1.43100724317,
			"-0.008": 2.5726210069,
			"-0.007": 9.57112232818,
			"-0.006": 17.6623908024,
			"-0.005": 20.7955445273,
			"-0.004": 23.3838550181,
			"-0.003": 30.1152348366,
			"-0.002": 29.6171434408,
			"-0.001": 32.5853987627,
			"0.0": 21.8621020127,
			"0.001": 19.1798113295,
			"0.002": 17.3122792244,
			"0.003": 22.0070428643,
			"0.004": 21.5900944877,
			"0.005": 9.48042922208,
			"0.006": 5.95403547276,
			"0.007": 6.73053264009,
			"0.008": 4.82342641496,
			"0.009": 4.15035615286,
			"0.01": 4.13056797638,
			"0.011": 4.76817546425,
			"0.012": 5.69219617938,
			"0.013": 1.05982224948,
			"0.014": 0.0,
			"0.015": 0.0,
			"0.016": 0.0,
			"0.017": 0.0,
			"0.018": 0.0,
			"0.019": 0.0,
			"0.02": 0.0,
			"0.021": 0.0,
			"0.022": 0.0,
			"0.023": 0.0,
			"0.024": 0.0,
			"0.025": 0.0
		}
	}
}
