{
	 "smiles": "ClC1=CC=CC(=C1)N=C=O", 
	 "Tm": 269.15, 
	 "num_atms": 14, 
	 "gaussian": { 
		 "optdone": 1, 
		 "sigma_profile": "yes", 
		 "theory": "DFT", 
		 "functional": "B3LYP", 
		 "basiset": "6-31G**", 
		 "properties": { 
			 "R2extent": 3841.3873, 
			 "electric_dipole_moment_norm": 1.9035084502, 
			 "electric_quadrupole_moment_norm": 8.87109228844, 
			 "total_energy": -859.322010007, 
			 "HOMO_LUMO_gap": 0.21082, 
			 "cosmo_polarized_energy": -5.18, 
			 "cosmo_cavitation_energy": 21.84, 
			 "cosmo_dispersion_energy": -15.95, 
			 "cosmo_repulsion_energy": 1.3, 
			 "cosmo_total_nonelectrostatic_energy": 7.19, 
			 "SMD_solvation_energy": 5.86 
		},
		"coords": [
			{
				"x": 2.7539082245,
				"y": 2.1042471862,
				"z": 3.010806473,
				"element": "Cl" 
			},
			{
				"x": 2.3192397011,
				"y": 0.8006857315,
				"z": 1.9168992442,
				"element": "C" 
			},
			{
				"x": 2.5300205135,
				"y": 0.9576029766,
				"z": 0.5472806902,
				"element": "C" 
			},
			{
				"x": 2.1782735014,
				"y": -0.0895373014,
				"z": -0.3065449477,
				"element": "C" 
			},
			{
				"x": 1.6284644339,
				"y": -1.2680394888,
				"z": 0.1911959914,
				"element": "C" 
			},
			{
				"x": 1.4248209313,
				"y": -1.4053697908,
				"z": 1.5724668537,
				"element": "C" 
			},
			{
				"x": 1.771514908,
				"y": -0.3656721976,
				"z": 2.4440291592,
				"element": "C" 
			},
			{
				"x": 0.8776213376,
				"y": -2.5627712224,
				"z": 2.129832894,
				"element": "N" 
			},
			{
				"x": 0.4576544664,
				"y": -3.64458939,
				"z": 1.7852903417,
				"element": "C" 
			},
			{
				"x": 0.0243176987,
				"y": -4.7213799516,
				"z": 1.587169984,
				"element": "O" 
			},
			{
				"x": 2.9580881593,
				"y": 1.8756731519,
				"z": 0.1620864132,
				"element": "H" 
			},
			{
				"x": 2.3361354646,
				"y": 0.0172353723,
				"z": -1.3754060171,
				"element": "H" 
			},
			{
				"x": 1.3569441824,
				"y": -2.0786935015,
				"z": -0.4774457747,
				"element": "H" 
			},
			{
				"x": 1.6115964774,
				"y": -0.4782915746,
				"z": 3.509238695,
				"element": "H" 
			}
		],
		 "valence_orbital": [ 
			{
				"type": "occ",
				"energy": -0.32306,
				"method": "rhf"
			},
			{
				"type": "occ",
				"energy": -0.32145,
				"method": "rhf"
			},
			{
				"type": "occ",
				"energy": -0.31675,
				"method": "rhf"
			},
			{
				"type": "occ",
				"energy": -0.26404,
				"method": "rhf"
			},
			{
				"type": "occ",
				"energy": -0.24711,
				"method": "rhf"
			},
			{
				"type": "unocc",
				"energy": -0.03629,
				"method": "rhf"
			},
			{
				"type": "unocc",
				"energy": -0.02576,
				"method": "rhf"
			},
			{
				"type": "unocc",
				"energy": 0.00164,
				"method": "rhf"
			},
			{
				"type": "unocc",
				"energy": 0.02355,
				"method": "rhf"
			},
			{
				"type": "unocc",
				"energy": 0.06737,
				"method": "rhf"
			}
		],
		"cosmo_sigma_profile": { 
			"-0.025": 0.0,
			"-0.024": 0.0,
			"-0.023": 0.0,
			"-0.022": 0.0,
			"-0.021": 0.0,
			"-0.02": 0.0,
			"-0.019": 0.0,
			"-0.018": 0.0,
			"-0.017": 0.0,
			"-0.016": 0.0,
			"-0.015": 0.0,
			"-0.014": 0.0,
			"-0.013": 0.0,
			"-0.012": 0.0,
			"-0.011": 0.0,
			"-0.01": 0.0,
			"-0.009": 0.606007384819,
			"-0.008": 4.17172917376,
			"-0.007": 8.18001791963,
			"-0.006": 8.19872188817,
			"-0.005": 9.75179015275,
			"-0.004": 8.03366576654,
			"-0.003": 11.203787374,
			"-0.002": 11.5045569095,
			"-0.001": 11.4749149443,
			"0.0": 13.7069403952,
			"0.001": 19.1902123534,
			"0.002": 22.8478965161,
			"0.003": 17.6718055278,
			"0.004": 13.9417185639,
			"0.005": 7.34508265477,
			"0.006": 3.06029957361,
			"0.007": 7.40974291838,
			"0.008": 1.35978888938,
			"0.009": 0.0,
			"0.01": 0.0,
			"0.011": 0.0,
			"0.012": 0.0,
			"0.013": 0.0,
			"0.014": 0.0,
			"0.015": 0.0,
			"0.016": 0.0,
			"0.017": 0.0,
			"0.018": 0.0,
			"0.019": 0.0,
			"0.02": 0.0,
			"0.021": 0.0,
			"0.022": 0.0,
			"0.023": 0.0,
			"0.024": 0.0,
			"0.025": 0.0
		}
	}
}
