{
	 "smiles": "CC(=O)O[C@H]1CCC2C3CC[C@H]4CC(CC[C@]4(C)C3CC[C@]12C)(OC(C)=O)C#CC1=CC=CC=C1", 
	 "Tm": 379.15, 
	 "num_atms": 75, 
	 "gaussian": { 
		 "optdone": 1, 
		 "sigma_profile": "yes", 
		 "theory": "DFT", 
		 "functional": "B3LYP", 
		 "basiset": "6-31G**", 
		 "properties": { 
			 "R2extent": 25716.9779, 
			 "electric_dipole_moment_norm": 3.08170152675, 
			 "electric_quadrupole_moment_norm": 13.6405310494, 
			 "total_energy": -1506.30657576, 
			 "HOMO_LUMO_gap": 0.19701, 
			 "cosmo_polarized_energy": -15.79, 
			 "cosmo_cavitation_energy": 68.63, 
			 "cosmo_dispersion_energy": -45.21, 
			 "cosmo_repulsion_energy": 3.38, 
			 "cosmo_total_nonelectrostatic_energy": 26.79, 
			 "SMD_solvation_energy": 12.19 
		},
		"coords": [
			{
				"x": -2.5107808926,
				"y": -4.6107804949,
				"z": -4.785034377,
				"element": "C" 
			},
			{
				"x": -1.9654394339,
				"y": -3.4320732518,
				"z": -4.0119955344,
				"element": "C" 
			},
			{
				"x": -0.9059209806,
				"y": -3.418538311,
				"z": -3.4213867451,
				"element": "O" 
			},
			{
				"x": -2.8236902599,
				"y": -2.3874038445,
				"z": -4.0757738646,
				"element": "O" 
			},
			{
				"x": -2.4418375776,
				"y": -1.1493360597,
				"z": -3.4241217392,
				"element": "C" 
			},
			{
				"x": -2.7868813683,
				"y": 0.0450380934,
				"z": -4.3398541929,
				"element": "C" 
			},
			{
				"x": -3.3248598042,
				"y": 1.1588483337,
				"z": -3.3994243606,
				"element": "C" 
			},
			{
				"x": -3.098582048,
				"y": 0.6424939894,
				"z": -1.9536835871,
				"element": "C" 
			},
			{
				"x": -1.7923877584,
				"y": 1.1795934833,
				"z": -1.2875468833,
				"element": "C" 
			},
			{
				"x": -0.5386139053,
				"y": 1.2970028648,
				"z": -2.1847221203,
				"element": "C" 
			},
			{
				"x": 0.6355991312,
				"y": 1.9394963179,
				"z": -1.4294567422,
				"element": "C" 
			},
			{
				"x": 0.9651059692,
				"y": 1.1602376765,
				"z": -0.1483286525,
				"element": "C" 
			},
			{
				"x": 2.2070544085,
				"y": 1.7178636869,
				"z": 0.5666397484,
				"element": "C" 
			},
			{
				"x": 2.6119921496,
				"y": 0.8840691531,
				"z": 1.8039879966,
				"element": "C" 
			},
			{
				"x": 1.4014364597,
				"y": 0.6900519203,
				"z": 2.7466004294,
				"element": "C" 
			},
			{
				"x": 0.164727954,
				"y": 0.158494298,
				"z": 2.0043759322,
				"element": "C" 
			},
			{
				"x": -0.2656756328,
				"y": 1.035302848,
				"z": 0.7991564923,
				"element": "C" 
			},
			{
				"x": -0.7308593616,
				"y": 2.4084461388,
				"z": 1.3457790131,
				"element": "C" 
			},
			{
				"x": -1.4678165483,
				"y": 0.393608391,
				"z": 0.0159650675,
				"element": "C" 
			},
			{
				"x": -1.3345698269,
				"y": -1.1087588718,
				"z": -0.3152364299,
				"element": "C" 
			},
			{
				"x": -2.6447342627,
				"y": -1.6668780675,
				"z": -0.8856049063,
				"element": "C" 
			},
			{
				"x": -3.2116188186,
				"y": -0.9055198357,
				"z": -2.0999709545,
				"element": "C" 
			},
			{
				"x": -4.6917928426,
				"y": -1.3114138376,
				"z": -2.2753517718,
				"element": "C" 
			},
			{
				"x": 3.025930925,
				"y": -0.4059912356,
				"z": 1.2235389939,
				"element": "O" 
			},
			{
				"x": 3.5521351618,
				"y": -1.3773863758,
				"z": 2.0099711387,
				"element": "C" 
			},
			{
				"x": 3.97049849,
				"y": -2.557781012,
				"z": 1.1611881303,
				"element": "C" 
			},
			{
				"x": 3.6758366928,
				"y": -1.307458116,
				"z": 3.2121633393,
				"element": "O" 
			},
			{
				"x": 3.7421104831,
				"y": 1.5159230645,
				"z": 2.4911027806,
				"element": "C" 
			},
			{
				"x": 4.6559608495,
				"y": 2.095382271,
				"z": 3.0379146489,
				"element": "C" 
			},
			{
				"x": 5.7423729664,
				"y": 2.7223703719,
				"z": 3.7224228892,
				"element": "C" 
			},
			{
				"x": 6.4051410465,
				"y": 2.0431751339,
				"z": 4.7637796208,
				"element": "C" 
			},
			{
				"x": 7.4652755543,
				"y": 2.6488319096,
				"z": 5.4334682508,
				"element": "C" 
			},
			{
				"x": 7.8788121522,
				"y": 3.9361695953,
				"z": 5.0808439838,
				"element": "C" 
			},
			{
				"x": 7.2267769908,
				"y": 4.6175321131,
				"z": 4.050217634,
				"element": "C" 
			},
			{
				"x": 6.1675893061,
				"y": 4.0181807316,
				"z": 3.3726378656,
				"element": "C" 
			},
			{
				"x": -3.4924904805,
				"y": -4.8951060087,
				"z": -4.3951838898,
				"element": "H" 
			},
			{
				"x": -1.8199384441,
				"y": -5.4493520774,
				"z": -4.7043101142,
				"element": "H" 
			},
			{
				"x": -2.6453653926,
				"y": -4.3380941863,
				"z": -5.8360325528,
				"element": "H" 
			},
			{
				"x": -1.3712645266,
				"y": -1.2140493922,
				"z": -3.234325239,
				"element": "H" 
			},
			{
				"x": -1.9090988354,
				"y": 0.366846958,
				"z": -4.9078188832,
				"element": "H" 
			},
			{
				"x": -3.5409428041,
				"y": -0.2656270685,
				"z": -5.0687908341,
				"element": "H" 
			},
			{
				"x": -4.3933300511,
				"y": 1.315286311,
				"z": -3.5743448908,
				"element": "H" 
			},
			{
				"x": -2.8429476476,
				"y": 2.124879493,
				"z": -3.5745029436,
				"element": "H" 
			},
			{
				"x": -3.9146690802,
				"y": 0.9815639718,
				"z": -1.3024804616,
				"element": "H" 
			},
			{
				"x": -2.0427735606,
				"y": 2.211235477,
				"z": -1.0074574923,
				"element": "H" 
			},
			{
				"x": -0.7651343553,
				"y": 1.8923264465,
				"z": -3.0757256997,
				"element": "H" 
			},
			{
				"x": -0.2146298668,
				"y": 0.3147436457,
				"z": -2.5458321027,
				"element": "H" 
			},
			{
				"x": 0.4009715354,
				"y": 2.9857262661,
				"z": -1.1907981444,
				"element": "H" 
			},
			{
				"x": 1.52002621,
				"y": 1.9665195594,
				"z": -2.0788028047,
				"element": "H" 
			},
			{
				"x": 1.2242594463,
				"y": 0.1390985489,
				"z": -0.4579360725,
				"element": "H" 
			},
			{
				"x": 2.0421053362,
				"y": 2.7492282062,
				"z": 0.8963543681,
				"element": "H" 
			},
			{
				"x": 3.0585209708,
				"y": 1.7389565149,
				"z": -0.1220406383,
				"element": "H" 
			},
			{
				"x": 1.6908967273,
				"y": 0.0129552684,
				"z": 3.5517413673,
				"element": "H" 
			},
			{
				"x": 1.1966844842,
				"y": 1.6601741044,
				"z": 3.2104107919,
				"element": "H" 
			},
			{
				"x": 0.3933577549,
				"y": -0.8537458688,
				"z": 1.6593441634,
				"element": "H" 
			},
			{
				"x": -0.6668060571,
				"y": 0.0648589448,
				"z": 2.7152652284,
				"element": "H" 
			},
			{
				"x": -1.0478621528,
				"y": 3.0956728001,
				"z": 0.5587980433,
				"element": "H" 
			},
			{
				"x": -1.5836197458,
				"y": 2.2688917447,
				"z": 2.0200428521,
				"element": "H" 
			},
			{
				"x": 0.0486138391,
				"y": 2.9202167975,
				"z": 1.9148007472,
				"element": "H" 
			},
			{
				"x": -2.3454146439,
				"y": 0.4834605197,
				"z": 0.6767536228,
				"element": "H" 
			},
			{
				"x": -1.095675651,
				"y": -1.6821387525,
				"z": 0.5848664143,
				"element": "H" 
			},
			{
				"x": -0.5123475523,
				"y": -1.2927608313,
				"z": -1.0156991363,
				"element": "H" 
			},
			{
				"x": -3.4013539091,
				"y": -1.6392076293,
				"z": -0.0888184024,
				"element": "H" 
			},
			{
				"x": -2.5162121897,
				"y": -2.7244145715,
				"z": -1.1453885667,
				"element": "H" 
			},
			{
				"x": -4.7856888744,
				"y": -2.3969949404,
				"z": -2.3693856215,
				"element": "H" 
			},
			{
				"x": -5.1512524652,
				"y": -0.8681715935,
				"z": -3.163485045,
				"element": "H" 
			},
			{
				"x": -5.2733493252,
				"y": -0.9959908322,
				"z": -1.4026158398,
				"element": "H" 
			},
			{
				"x": 4.7866701757,
				"y": -2.2617958108,
				"z": 0.494821092,
				"element": "H" 
			},
			{
				"x": 3.1405948358,
				"y": -2.8909848755,
				"z": 0.5319455773,
				"element": "H" 
			},
			{
				"x": 4.3014259287,
				"y": -3.3686938942,
				"z": 1.8094741249,
				"element": "H" 
			},
			{
				"x": 6.0764762111,
				"y": 1.0441567981,
				"z": 5.0313928658,
				"element": "H" 
			},
			{
				"x": 7.9697953876,
				"y": 2.1155168218,
				"z": 6.2340704584,
				"element": "H" 
			},
			{
				"x": 8.7051669002,
				"y": 4.4059048184,
				"z": 5.6064733194,
				"element": "H" 
			},
			{
				"x": 7.5453681664,
				"y": 5.6182314444,
				"z": 3.7725751991,
				"element": "H" 
			},
			{
				"x": 5.6597383326,
				"y": 4.5431838003,
				"z": 2.5697840463,
				"element": "H" 
			}
		],
		 "valence_orbital": [ 
			{
				"type": "occ",
				"energy": -0.27035,
				"method": "rhf"
			},
			{
				"type": "occ",
				"energy": -0.26774,
				"method": "rhf"
			},
			{
				"type": "occ",
				"energy": -0.25133,
				"method": "rhf"
			},
			{
				"type": "occ",
				"energy": -0.2453,
				"method": "rhf"
			},
			{
				"type": "occ",
				"energy": -0.22322,
				"method": "rhf"
			},
			{
				"type": "unocc",
				"energy": -0.02621,
				"method": "rhf"
			},
			{
				"type": "unocc",
				"energy": -0.00021,
				"method": "rhf"
			},
			{
				"type": "unocc",
				"energy": 0.01429,
				"method": "rhf"
			},
			{
				"type": "unocc",
				"energy": 0.01789,
				"method": "rhf"
			},
			{
				"type": "unocc",
				"energy": 0.05039,
				"method": "rhf"
			}
		],
		"cosmo_sigma_profile": { 
			"-0.025": 0.0,
			"-0.024": 0.0,
			"-0.023": 0.0,
			"-0.022": 0.0,
			"-0.021": 0.0,
			"-0.02": 0.0,
			"-0.019": 0.0,
			"-0.018": 0.0,
			"-0.017": 0.0,
			"-0.016": 0.0,
			"-0.015": 0.0,
			"-0.014": 0.0,
			"-0.013": 0.0,
			"-0.012": 0.0,
			"-0.011": 0.0,
			"-0.01": 0.0,
			"-0.009": 0.0,
			"-0.008": 0.0,
			"-0.007": 1.61100727368,
			"-0.006": 17.4957592871,
			"-0.005": 23.1748959181,
			"-0.004": 31.1648242524,
			"-0.003": 50.649298768,
			"-0.002": 79.5107758778,
			"-0.001": 82.1616114823,
			"0.0": 64.4183671001,
			"0.001": 45.8088174472,
			"0.002": 28.8214669348,
			"0.003": 25.2027258529,
			"0.004": 23.3469548796,
			"0.005": 20.1241137572,
			"0.006": 7.37290286551,
			"0.007": 5.10049461981,
			"0.008": 5.07143725819,
			"0.009": 4.34057043624,
			"0.01": 4.00064022401,
			"0.011": 5.33538666876,
			"0.012": 6.53878344018,
			"0.013": 3.27504207461,
			"0.014": 0.0852628993282,
			"0.015": 0.0,
			"0.016": 0.0,
			"0.017": 0.0,
			"0.018": 0.0,
			"0.019": 0.0,
			"0.02": 0.0,
			"0.021": 0.0,
			"0.022": 0.0,
			"0.023": 0.0,
			"0.024": 0.0,
			"0.025": 0.0
		}
	}
}
