{
	 "smiles": "C[Si]1(C)O[Si](C)(C)O[Si](C)(C)O[Si](C)(C)O[Si](C)(C)O1", 
	 "Tm": 235.15, 
	 "num_atms": 50, 
	 "gaussian": { 
		 "optdone": 1, 
		 "sigma_profile": "yes", 
		 "theory": "DFT", 
		 "functional": "B3LYP", 
		 "basiset": "6-31G**", 
		 "properties": { 
			 "R2extent": 8570.8224, 
			 "electric_dipole_moment_norm": 0.493254741488, 
			 "electric_quadrupole_moment_norm": 2.45747975373, 
			 "total_energy": -2223.39053118, 
			 "HOMO_LUMO_gap": 0.31119, 
			 "cosmo_polarized_energy": -6.68, 
			 "cosmo_cavitation_energy": 59.45, 
			 "cosmo_dispersion_energy": -26.78, 
			 "cosmo_repulsion_energy": 2.5, 
			 "cosmo_total_nonelectrostatic_energy": 35.17, 
			 "SMD_solvation_energy": 13.5 
		},
		"coords": [
			{
				"x": -0.1912536061,
				"y": 2.3493884169,
				"z": 3.710307852,
				"element": "C" 
			},
			{
				"x": 0.4158024258,
				"y": 1.0754630531,
				"z": 2.4799555183,
				"element": "Si" 
			},
			{
				"x": 2.2080728972,
				"y": 0.593650491,
				"z": 2.7711300445,
				"element": "C" 
			},
			{
				"x": -0.558489236,
				"y": -0.2561731322,
				"z": 2.6125830859,
				"element": "O" 
			},
			{
				"x": -0.7810445802,
				"y": -1.8972393399,
				"z": 2.5856290743,
				"element": "Si" 
			},
			{
				"x": 0.3133365914,
				"y": -2.7096768209,
				"z": 3.8738869415,
				"element": "C" 
			},
			{
				"x": -2.6028759836,
				"y": -2.2116482445,
				"z": 2.8974986712,
				"element": "C" 
			},
			{
				"x": -0.32726154,
				"y": -2.4988951781,
				"z": 1.1109812287,
				"element": "O" 
			},
			{
				"x": -0.7372379413,
				"y": -2.8411916001,
				"z": -0.4594989486,
				"element": "Si" 
			},
			{
				"x": 0.8490197064,
				"y": -2.8763175371,
				"z": -1.4564492811,
				"element": "C" 
			},
			{
				"x": -1.6569175815,
				"y": -4.4736332196,
				"z": -0.51927927,
				"element": "C" 
			},
			{
				"x": -1.7635765379,
				"y": -1.6828915395,
				"z": -1.0483532562,
				"element": "O" 
			},
			{
				"x": -2.0232626314,
				"y": -0.1064452234,
				"z": -1.4854709055,
				"element": "Si" 
			},
			{
				"x": -3.2811251714,
				"y": 0.6325376908,
				"z": -0.307189275,
				"element": "C" 
			},
			{
				"x": -2.605041689,
				"y": -0.0871706685,
				"z": -3.266073203,
				"element": "C" 
			},
			{
				"x": -0.5967279193,
				"y": 0.7325822224,
				"z": -1.4055313546,
				"element": "O" 
			},
			{
				"x": 0.397424142,
				"y": 1.8338135396,
				"z": -0.6741659133,
				"element": "Si" 
			},
			{
				"x": 2.1536613097,
				"y": 1.4444548117,
				"z": -1.2041952337,
				"element": "C" 
			},
			{
				"x": -0.1233852523,
				"y": 3.5660155654,
				"z": -1.1667337089,
				"element": "C" 
			},
			{
				"x": 0.263535545,
				"y": 1.7244124656,
				"z": 0.9688976309,
				"element": "O" 
			},
			{
				"x": -1.2395361391,
				"y": 2.59948726,
				"z": 3.5179527534,
				"element": "H" 
			},
			{
				"x": -0.1185614504,
				"y": 1.9750608515,
				"z": 4.7370401367,
				"element": "H" 
			},
			{
				"x": 0.3921099832,
				"y": 3.273902745,
				"z": 3.6448223084,
				"element": "H" 
			},
			{
				"x": 2.871358245,
				"y": 1.4596655665,
				"z": 2.6710828248,
				"element": "H" 
			},
			{
				"x": 2.3512074343,
				"y": 0.1779403399,
				"z": 3.7744844433,
				"element": "H" 
			},
			{
				"x": 2.5350222484,
				"y": -0.1608207185,
				"z": 2.0474493111,
				"element": "H" 
			},
			{
				"x": 0.156911057,
				"y": -3.7936374704,
				"z": 3.8921805277,
				"element": "H" 
			},
			{
				"x": 0.1036898741,
				"y": -2.3229013421,
				"z": 4.8770023447,
				"element": "H" 
			},
			{
				"x": 1.371711521,
				"y": -2.5318782764,
				"z": 3.6572927253,
				"element": "H" 
			},
			{
				"x": -3.2170942051,
				"y": -1.7433022359,
				"z": 2.1216791657,
				"element": "H" 
			},
			{
				"x": -2.9128290896,
				"y": -1.7981295065,
				"z": 3.8631489006,
				"element": "H" 
			},
			{
				"x": -2.8269180563,
				"y": -3.2839371035,
				"z": 2.9035691873,
				"element": "H" 
			},
			{
				"x": 1.3288686013,
				"y": -1.8925543719,
				"z": -1.4512657936,
				"element": "H" 
			},
			{
				"x": 1.5588888825,
				"y": -3.6019810186,
				"z": -1.045554612,
				"element": "H" 
			},
			{
				"x": 0.6546910543,
				"y": -3.1471453019,
				"z": -2.4998808605,
				"element": "H" 
			},
			{
				"x": -1.9250189785,
				"y": -4.7369861203,
				"z": -1.5480215905,
				"element": "H" 
			},
			{
				"x": -1.0485258379,
				"y": -5.2871968949,
				"z": -0.10993304,
				"element": "H" 
			},
			{
				"x": -2.5834919114,
				"y": -4.420200528,
				"z": 0.0617600235,
				"element": "H" 
			},
			{
				"x": -3.5166635714,
				"y": 1.6698400759,
				"z": -0.5698435229,
				"element": "H" 
			},
			{
				"x": -2.8960703508,
				"y": 0.6240309247,
				"z": 0.7176973437,
				"element": "H" 
			},
			{
				"x": -4.2167781014,
				"y": 0.0631152961,
				"z": -0.3226140602,
				"element": "H" 
			},
			{
				"x": -2.8214108961,
				"y": 0.9324468975,
				"z": -3.6026787185,
				"element": "H" 
			},
			{
				"x": -1.8372739741,
				"y": -0.5018878319,
				"z": -3.9274047512,
				"element": "H" 
			},
			{
				"x": -3.5144620279,
				"y": -0.6844881379,
				"z": -3.3906765561,
				"element": "H" 
			},
			{
				"x": 2.8687891226,
				"y": 2.1455720992,
				"z": -0.7605217886,
				"element": "H" 
			},
			{
				"x": 2.4416909044,
				"y": 0.4335776819,
				"z": -0.8967592997,
				"element": "H" 
			},
			{
				"x": 2.2565847079,
				"y": 1.5025217866,
				"z": -2.2930257703,
				"element": "H" 
			},
			{
				"x": 0.5313546983,
				"y": 4.3192005095,
				"z": -0.715377066,
				"element": "H" 
			},
			{
				"x": -1.1458990015,
				"y": 3.7740304896,
				"z": -0.834401734,
				"element": "H" 
			},
			{
				"x": -0.0890976902,
				"y": 3.6966185824,
				"z": -2.2536325296,
				"element": "H" 
			}
		],
		 "valence_orbital": [ 
			{
				"type": "occ",
				"energy": -0.28649,
				"method": "rhf"
			},
			{
				"type": "occ",
				"energy": -0.28249,
				"method": "rhf"
			},
			{
				"type": "occ",
				"energy": -0.26875,
				"method": "rhf"
			},
			{
				"type": "occ",
				"energy": -0.26864,
				"method": "rhf"
			},
			{
				"type": "occ",
				"energy": -0.26571,
				"method": "rhf"
			},
			{
				"type": "unocc",
				"energy": 0.04548,
				"method": "rhf"
			},
			{
				"type": "unocc",
				"energy": 0.0694,
				"method": "rhf"
			},
			{
				"type": "unocc",
				"energy": 0.07003,
				"method": "rhf"
			},
			{
				"type": "unocc",
				"energy": 0.07631,
				"method": "rhf"
			},
			{
				"type": "unocc",
				"energy": 0.09095,
				"method": "rhf"
			}
		],
		"cosmo_sigma_profile": { 
			"-0.025": 0.0,
			"-0.024": 0.0,
			"-0.023": 0.0,
			"-0.022": 0.0,
			"-0.021": 0.0,
			"-0.02": 0.0,
			"-0.019": 0.0,
			"-0.018": 0.0,
			"-0.017": 0.0,
			"-0.016": 0.0,
			"-0.015": 0.0,
			"-0.014": 0.0,
			"-0.013": 0.0,
			"-0.012": 0.0,
			"-0.011": 0.0,
			"-0.01": 0.0,
			"-0.009": 0.0,
			"-0.008": 0.0,
			"-0.007": 0.0,
			"-0.006": 0.0,
			"-0.005": 0.506035957176,
			"-0.004": 28.2912741514,
			"-0.003": 52.1906792952,
			"-0.002": 57.2891842575,
			"-0.001": 67.8288813456,
			"0.0": 58.3603552657,
			"0.001": 70.8929070724,
			"0.002": 41.1571304497,
			"0.003": 22.9321008286,
			"0.004": 9.33291432311,
			"0.005": 7.58337025234,
			"0.006": 5.48534165686,
			"0.007": 5.45090454969,
			"0.008": 4.5893175312,
			"0.009": 3.28701890348,
			"0.01": 1.21329458718,
			"0.011": 0.0,
			"0.012": 0.0,
			"0.013": 0.0,
			"0.014": 0.0,
			"0.015": 0.0,
			"0.016": 0.0,
			"0.017": 0.0,
			"0.018": 0.0,
			"0.019": 0.0,
			"0.02": 0.0,
			"0.021": 0.0,
			"0.022": 0.0,
			"0.023": 0.0,
			"0.024": 0.0,
			"0.025": 0.0
		}
	}
}
