{
	 "smiles": "OC1COC2=C1C=CC(O)=C2", 
	 "Tm": 378.15, 
	 "num_atms": 19, 
	 "gaussian": { 
		 "optdone": 1, 
		 "sigma_profile": "yes", 
		 "theory": "DFT", 
		 "functional": "B3LYP", 
		 "basiset": "6-31G**", 
		 "properties": { 
			 "R2extent": 2435.3223, 
			 "electric_dipole_moment_norm": 1.77095818697, 
			 "electric_quadrupole_moment_norm": 12.2055474113, 
			 "total_energy": -535.32001473, 
			 "HOMO_LUMO_gap": 0.20829, 
			 "cosmo_polarized_energy": -12.74, 
			 "cosmo_cavitation_energy": 22.64, 
			 "cosmo_dispersion_energy": -17.17, 
			 "cosmo_repulsion_energy": 1.38, 
			 "cosmo_total_nonelectrostatic_energy": 6.86, 
			 "SMD_solvation_energy": 4.32 
		},
		"coords": [
			{
				"x": 0.2970411626,
				"y": 1.6400694015,
				"z": 0.697939704,
				"element": "O" 
			},
			{
				"x": -0.7718797888,
				"y": 1.5841285652,
				"z": -0.2459392252,
				"element": "C" 
			},
			{
				"x": -2.1422742248,
				"y": 1.214158226,
				"z": 0.38046453,
				"element": "C" 
			},
			{
				"x": -2.4230289059,
				"y": -0.1670078719,
				"z": 0.0365919813,
				"element": "O" 
			},
			{
				"x": -1.586479866,
				"y": -0.5031101214,
				"z": -0.9852795541,
				"element": "C" 
			},
			{
				"x": -0.6269204641,
				"y": 0.4782798476,
				"z": -1.2621094769,
				"element": "C" 
			},
			{
				"x": 0.3075358408,
				"y": 0.2558163161,
				"z": -2.2678677181,
				"element": "C" 
			},
			{
				"x": 0.2576702746,
				"y": -0.9333596209,
				"z": -2.9992549833,
				"element": "C" 
			},
			{
				"x": -0.7190610718,
				"y": -1.8999015619,
				"z": -2.7042480376,
				"element": "C" 
			},
			{
				"x": -0.8021590923,
				"y": -3.075851307,
				"z": -3.3925006802,
				"element": "O" 
			},
			{
				"x": -1.6611351825,
				"y": -1.6999172521,
				"z": -1.6867697832,
				"element": "C" 
			},
			{
				"x": 0.5314543111,
				"y": 0.728323764,
				"z": 0.9204926546,
				"element": "H" 
			},
			{
				"x": -0.8076574833,
				"y": 2.5868931665,
				"z": -0.6823593315,
				"element": "H" 
			},
			{
				"x": -2.9495080822,
				"y": 1.8321162327,
				"z": -0.0297213714,
				"element": "H" 
			},
			{
				"x": -2.1283657696,
				"y": 1.306379861,
				"z": 1.4687235967,
				"element": "H" 
			},
			{
				"x": 1.0715015116,
				"y": 0.9967229639,
				"z": -2.4862613415,
				"element": "H" 
			},
			{
				"x": 0.97514486,
				"y": -1.1180248597,
				"z": -3.7952318521,
				"element": "H" 
			},
			{
				"x": -0.1110865784,
				"y": -3.0964755141,
				"z": -4.0669560654,
				"element": "H" 
			},
			{
				"x": -2.409291451,
				"y": -2.4527402356,
				"z": -1.470213046,
				"element": "H" 
			}
		],
		 "valence_orbital": [ 
			{
				"type": "occ",
				"energy": -0.33079,
				"method": "rhf"
			},
			{
				"type": "occ",
				"energy": -0.30577,
				"method": "rhf"
			},
			{
				"type": "occ",
				"energy": -0.27185,
				"method": "rhf"
			},
			{
				"type": "occ",
				"energy": -0.23407,
				"method": "rhf"
			},
			{
				"type": "occ",
				"energy": -0.21465,
				"method": "rhf"
			},
			{
				"type": "unocc",
				"energy": -0.00636,
				"method": "rhf"
			},
			{
				"type": "unocc",
				"energy": 0.01484,
				"method": "rhf"
			},
			{
				"type": "unocc",
				"energy": 0.06758,
				"method": "rhf"
			},
			{
				"type": "unocc",
				"energy": 0.09253,
				"method": "rhf"
			},
			{
				"type": "unocc",
				"energy": 0.10214,
				"method": "rhf"
			}
		],
		"cosmo_sigma_profile": { 
			"-0.025": 0.0,
			"-0.024": 0.0,
			"-0.023": 0.0,
			"-0.022": 0.0,
			"-0.021": 0.0,
			"-0.02": 0.0,
			"-0.019": 0.0,
			"-0.018": 0.484592529168,
			"-0.017": 1.12964811409,
			"-0.016": 1.0351870419,
			"-0.015": 1.56809323652,
			"-0.014": 1.96136105532,
			"-0.013": 1.48072348301,
			"-0.012": 1.1868932781,
			"-0.011": 1.9399458018,
			"-0.01": 2.73303586181,
			"-0.009": 2.16462725201,
			"-0.008": 1.23374094772,
			"-0.007": 2.9090044245,
			"-0.006": 12.3013660638,
			"-0.005": 12.9266984564,
			"-0.004": 12.2589070957,
			"-0.003": 11.7719299429,
			"-0.002": 9.04657559382,
			"-0.001": 7.77684824931,
			"0.0": 6.80144230919,
			"0.001": 8.03715603211,
			"0.002": 8.56363932921,
			"0.003": 11.0687610186,
			"0.004": 15.7510218352,
			"0.005": 11.5627097028,
			"0.006": 5.62154661759,
			"0.007": 3.54683498281,
			"0.008": 3.38759087611,
			"0.009": 3.56252813262,
			"0.01": 5.06218434269,
			"0.011": 4.80950429204,
			"0.012": 1.72206855716,
			"0.013": 1.70246921459,
			"0.014": 2.10967871333,
			"0.015": 0.0204374831648,
			"0.016": 0.0,
			"0.017": 0.0,
			"0.018": 0.0,
			"0.019": 0.0,
			"0.02": 0.0,
			"0.021": 0.0,
			"0.022": 0.0,
			"0.023": 0.0,
			"0.024": 0.0,
			"0.025": 0.0
		}
	}
}
