{
	 "smiles": "O=C1NC=CS1", 
	 "Tm": 329.15, 
	 "num_atms": 9, 
	 "gaussian": { 
		 "optdone": 1, 
		 "sigma_profile": "yes", 
		 "theory": "DFT", 
		 "functional": "B3LYP", 
		 "basiset": "6-31G**", 
		 "properties": { 
			 "R2extent": 1278.2809, 
			 "electric_dipole_moment_norm": 4.27546040796, 
			 "electric_quadrupole_moment_norm": 15.434919016, 
			 "total_energy": -644.285944224, 
			 "HOMO_LUMO_gap": 0.22, 
			 "cosmo_polarized_energy": -11.48, 
			 "cosmo_cavitation_energy": 14.88, 
			 "cosmo_dispersion_energy": -12.05, 
			 "cosmo_repulsion_energy": 0.99, 
			 "cosmo_total_nonelectrostatic_energy": 3.82, 
			 "SMD_solvation_energy": 3.97 
		},
		"coords": [
			{
				"x": 3.0793597453,
				"y": 2.3983138512,
				"z": -0.9686801845,
				"element": "O" 
			},
			{
				"x": 2.1547425855,
				"y": 1.8677043916,
				"z": -0.3952922686,
				"element": "C" 
			},
			{
				"x": 1.3668156761,
				"y": 2.4173638078,
				"z": 0.6013393163,
				"element": "N" 
			},
			{
				"x": 0.3535591665,
				"y": 1.6201259656,
				"z": 1.1205732359,
				"element": "C" 
			},
			{
				"x": 0.2870239627,
				"y": 0.3983943203,
				"z": 0.5620535343,
				"element": "C" 
			},
			{
				"x": 1.522967472,
				"y": 0.1829251572,
				"z": -0.6733097452,
				"element": "S" 
			},
			{
				"x": 1.5606014277,
				"y": 3.3614669597,
				"z": 0.9032811671,
				"element": "H" 
			},
			{
				"x": -0.2813385408,
				"y": 2.017536637,
				"z": 1.9005272869,
				"element": "H" 
			},
			{
				"x": -0.411931495,
				"y": -0.3892310905,
				"z": 0.7998076578,
				"element": "H" 
			}
		],
		 "valence_orbital": [ 
			{
				"type": "occ",
				"energy": -0.36342,
				"method": "rhf"
			},
			{
				"type": "occ",
				"energy": -0.34994,
				"method": "rhf"
			},
			{
				"type": "occ",
				"energy": -0.29925,
				"method": "rhf"
			},
			{
				"type": "occ",
				"energy": -0.27045,
				"method": "rhf"
			},
			{
				"type": "occ",
				"energy": -0.2192,
				"method": "rhf"
			},
			{
				"type": "unocc",
				"energy": 0.0008,
				"method": "rhf"
			},
			{
				"type": "unocc",
				"energy": 0.01303,
				"method": "rhf"
			},
			{
				"type": "unocc",
				"energy": 0.03606,
				"method": "rhf"
			},
			{
				"type": "unocc",
				"energy": 0.06281,
				"method": "rhf"
			},
			{
				"type": "unocc",
				"energy": 0.0912,
				"method": "rhf"
			}
		],
		"cosmo_sigma_profile": { 
			"-0.025": 0.0,
			"-0.024": 0.0,
			"-0.023": 0.0,
			"-0.022": 0.0,
			"-0.021": 0.0,
			"-0.02": 0.0,
			"-0.019": 0.0,
			"-0.018": 0.0,
			"-0.017": 0.511823830104,
			"-0.016": 1.61180057016,
			"-0.015": 1.74811678096,
			"-0.014": 0.706814957443,
			"-0.013": 0.828024879122,
			"-0.012": 1.41023294625,
			"-0.011": 1.21525733208,
			"-0.01": 2.6515710266,
			"-0.009": 4.59265480217,
			"-0.008": 4.35592676506,
			"-0.007": 3.65931000591,
			"-0.006": 4.13597319809,
			"-0.005": 3.64668488973,
			"-0.004": 4.40057527605,
			"-0.003": 3.30673334229,
			"-0.002": 3.25977859748,
			"-0.001": 6.39705123979,
			"0.0": 10.3128665338,
			"0.001": 10.5149545886,
			"0.002": 10.2971586783,
			"0.003": 9.74221618696,
			"0.004": 8.41740413777,
			"0.005": 4.92414769671,
			"0.006": 1.95444717475,
			"0.007": 1.68818035013,
			"0.008": 0.433923713131,
			"0.009": 1.34080889115,
			"0.01": 2.00876382541,
			"0.011": 2.21793248349,
			"0.012": 6.29004162918,
			"0.013": 3.33821305847,
			"0.014": 0.0221948678763,
			"0.015": 0.0,
			"0.016": 0.0,
			"0.017": 0.0,
			"0.018": 0.0,
			"0.019": 0.0,
			"0.02": 0.0,
			"0.021": 0.0,
			"0.022": 0.0,
			"0.023": 0.0,
			"0.024": 0.0,
			"0.025": 0.0
		}
	}
}
