{
	 "smiles": "CC(C(O)C(O)=O)C1=CC=CC=C1", 
	 "Tm": 389.15, 
	 "num_atms": 25, 
	 "gaussian": { 
		 "optdone": 1, 
		 "sigma_profile": "yes", 
		 "theory": "DFT", 
		 "functional": "B3LYP", 
		 "basiset": "6-31G**", 
		 "properties": { 
			 "R2extent": 2623.1471, 
			 "electric_dipole_moment_norm": 3.18776433727, 
			 "electric_quadrupole_moment_norm": 17.8894469526, 
			 "total_energy": -613.974693019, 
			 "HOMO_LUMO_gap": 0.23775, 
			 "cosmo_polarized_energy": -16.06, 
			 "cosmo_cavitation_energy": 27.98, 
			 "cosmo_dispersion_energy": -19.64, 
			 "cosmo_repulsion_energy": 1.57, 
			 "cosmo_total_nonelectrostatic_energy": 9.91, 
			 "SMD_solvation_energy": 5.88 
		},
		"coords": [
			{
				"x": -1.346303579,
				"y": -1.8304239077,
				"z": -0.5700126569,
				"element": "C" 
			},
			{
				"x": -0.2777111627,
				"y": -0.8636979736,
				"z": -1.108915185,
				"element": "C" 
			},
			{
				"x": 1.0053284574,
				"y": -1.6636888391,
				"z": -1.4879808635,
				"element": "C" 
			},
			{
				"x": 1.5198138629,
				"y": -2.3778864266,
				"z": -0.394789611,
				"element": "O" 
			},
			{
				"x": 2.1115439537,
				"y": -0.7619143348,
				"z": -2.049638129,
				"element": "C" 
			},
			{
				"x": 1.8339296823,
				"y": -0.057294229,
				"z": -3.1646940689,
				"element": "O" 
			},
			{
				"x": 3.1990392243,
				"y": -0.6945257177,
				"z": -1.5249122142,
				"element": "O" 
			},
			{
				"x": 0.0050998738,
				"y": 0.2952750034,
				"z": -0.1642916847,
				"element": "C" 
			},
			{
				"x": 0.4416304015,
				"y": 0.0796453042,
				"z": 1.1527810816,
				"element": "C" 
			},
			{
				"x": 0.6938270008,
				"y": 1.1567668881,
				"z": 2.0024162702,
				"element": "C" 
			},
			{
				"x": 0.5116487849,
				"y": 2.4674656073,
				"z": 1.5563500843,
				"element": "C" 
			},
			{
				"x": 0.0776649342,
				"y": 2.6946107307,
				"z": 0.2504622038,
				"element": "C" 
			},
			{
				"x": -0.171206408,
				"y": 1.6156703604,
				"z": -0.5994539656,
				"element": "C" 
			},
			{
				"x": -0.9884342258,
				"y": -2.3424878945,
				"z": 0.3258007539,
				"element": "H" 
			},
			{
				"x": -2.2612532893,
				"y": -1.2873159497,
				"z": -0.3178106987,
				"element": "H" 
			},
			{
				"x": -1.5926623994,
				"y": -2.59426635,
				"z": -1.3161013368,
				"element": "H" 
			},
			{
				"x": -0.6715461705,
				"y": -0.4339316228,
				"z": -2.043065525,
				"element": "H" 
			},
			{
				"x": 0.7241966537,
				"y": -2.373606481,
				"z": -2.2867485917,
				"element": "H" 
			},
			{
				"x": 2.4222841867,
				"y": -2.0333341646,
				"z": -0.2649447966,
				"element": "H" 
			},
			{
				"x": 0.9253878948,
				"y": -0.2286693301,
				"z": -3.4523358489,
				"element": "H" 
			},
			{
				"x": 0.5958968988,
				"y": -0.9342822733,
				"z": 1.5043516367,
				"element": "H" 
			},
			{
				"x": 1.0341940295,
				"y": 0.970799194,
				"z": 3.0172870995,
				"element": "H" 
			},
			{
				"x": 0.7066718546,
				"y": 3.3038347432,
				"z": 2.2213642777,
				"element": "H" 
			},
			{
				"x": -0.0676928072,
				"y": 3.7093486595,
				"z": -0.1090294901,
				"element": "H" 
			},
			{
				"x": -0.510147652,
				"y": 1.8042090035,
				"z": -1.6157887413,
				"element": "H" 
			}
		],
		 "valence_orbital": [ 
			{
				"type": "occ",
				"energy": -0.33088,
				"method": "rhf"
			},
			{
				"type": "occ",
				"energy": -0.29088,
				"method": "rhf"
			},
			{
				"type": "occ",
				"energy": -0.27937,
				"method": "rhf"
			},
			{
				"type": "occ",
				"energy": -0.24972,
				"method": "rhf"
			},
			{
				"type": "occ",
				"energy": -0.24463,
				"method": "rhf"
			},
			{
				"type": "unocc",
				"energy": -0.00688,
				"method": "rhf"
			},
			{
				"type": "unocc",
				"energy": -0.00228,
				"method": "rhf"
			},
			{
				"type": "unocc",
				"energy": -0.00114,
				"method": "rhf"
			},
			{
				"type": "unocc",
				"energy": 0.03267,
				"method": "rhf"
			},
			{
				"type": "unocc",
				"energy": 0.08959,
				"method": "rhf"
			}
		],
		"cosmo_sigma_profile": { 
			"-0.025": 0.0,
			"-0.024": 0.0,
			"-0.023": 0.0,
			"-0.022": 0.0,
			"-0.021": 0.0,
			"-0.02": 0.0383666250144,
			"-0.019": 1.16605621385,
			"-0.018": 1.10714263693,
			"-0.017": 1.41423641078,
			"-0.016": 0.964195973055,
			"-0.015": 0.82839107377,
			"-0.014": 0.79130340611,
			"-0.013": 1.06429507993,
			"-0.012": 1.47168689921,
			"-0.011": 1.31900731219,
			"-0.01": 1.50423666331,
			"-0.009": 2.46008231648,
			"-0.008": 3.19405787604,
			"-0.007": 3.50725584542,
			"-0.006": 7.18991129608,
			"-0.005": 12.0800178629,
			"-0.004": 15.257895164,
			"-0.003": 18.8575713595,
			"-0.002": 15.9663287445,
			"-0.001": 15.8705979006,
			"0.0": 15.514706351,
			"0.001": 14.5046114347,
			"0.002": 10.8202554945,
			"0.003": 11.7529359993,
			"0.004": 11.7129759711,
			"0.005": 10.4051190007,
			"0.006": 11.5454868226,
			"0.007": 5.40649758823,
			"0.008": 3.44843360842,
			"0.009": 6.28338034445,
			"0.01": 5.04334613605,
			"0.011": 4.10645727578,
			"0.012": 2.57053135114,
			"0.013": 1.01700950071,
			"0.014": 0.386608626635,
			"0.015": 0.0,
			"0.016": 0.0,
			"0.017": 0.0,
			"0.018": 0.0,
			"0.019": 0.0,
			"0.02": 0.0,
			"0.021": 0.0,
			"0.022": 0.0,
			"0.023": 0.0,
			"0.024": 0.0,
			"0.025": 0.0
		}
	}
}
