{
	 "smiles": "CC(=O)N1CCC(=CC1)C1=CC=C(O)C=C1", 
	 "Tm": 462.15, 
	 "num_atms": 31, 
	 "gaussian": { 
		 "optdone": 1, 
		 "sigma_profile": "yes", 
		 "theory": "DFT", 
		 "functional": "B3LYP", 
		 "basiset": "6-31G**", 
		 "properties": { 
			 "R2extent": 5903.5134, 
			 "electric_dipole_moment_norm": 3.38814922044, 
			 "electric_quadrupole_moment_norm": 31.9767125566, 
			 "total_energy": -709.624165642, 
			 "HOMO_LUMO_gap": 0.19346, 
			 "cosmo_polarized_energy": -16.44, 
			 "cosmo_cavitation_energy": 33.47, 
			 "cosmo_dispersion_energy": -24.51, 
			 "cosmo_repulsion_energy": 1.91, 
			 "cosmo_total_nonelectrostatic_energy": 10.86, 
			 "SMD_solvation_energy": 5.86 
		},
		"coords": [
			{
				"x": -2.4927782722,
				"y": -2.6345467361,
				"z": 2.8704718421,
				"element": "C" 
			},
			{
				"x": -1.0109222136,
				"y": -2.8854446379,
				"z": 2.620612837,
				"element": "C" 
			},
			{
				"x": -0.3620327395,
				"y": -3.6125243761,
				"z": 3.3668490087,
				"element": "O" 
			},
			{
				"x": -0.4394466817,
				"y": -2.2549681314,
				"z": 1.5381866906,
				"element": "N" 
			},
			{
				"x": 0.9618203094,
				"y": -2.5105846764,
				"z": 1.2160466172,
				"element": "C" 
			},
			{
				"x": 1.729826573,
				"y": -1.1951816613,
				"z": 1.0742636267,
				"element": "C" 
			},
			{
				"x": 0.9972574245,
				"y": -0.2113881632,
				"z": 0.1815580911,
				"element": "C" 
			},
			{
				"x": -0.3144449391,
				"y": -0.3841547856,
				"z": -0.056859155,
				"element": "C" 
			},
			{
				"x": -1.1696765644,
				"y": -1.4608334328,
				"z": 0.5590807604,
				"element": "C" 
			},
			{
				"x": 1.7431745036,
				"y": 0.9397253766,
				"z": -0.3887991635,
				"element": "C" 
			},
			{
				"x": 3.0735645584,
				"y": 0.822504628,
				"z": -0.8230111612,
				"element": "C" 
			},
			{
				"x": 3.7579341024,
				"y": 1.9020276033,
				"z": -1.3785477511,
				"element": "C" 
			},
			{
				"x": 3.1250878809,
				"y": 3.1421733118,
				"z": -1.5059810161,
				"element": "C" 
			},
			{
				"x": 3.7415238224,
				"y": 4.2395294089,
				"z": -2.035292211,
				"element": "O" 
			},
			{
				"x": 1.8037702115,
				"y": 3.2888154176,
				"z": -1.068501037,
				"element": "C" 
			},
			{
				"x": 1.1340563192,
				"y": 2.2035129206,
				"z": -0.5171692356,
				"element": "C" 
			},
			{
				"x": -2.6887754888,
				"y": -1.5837607442,
				"z": 3.1103707925,
				"element": "H" 
			},
			{
				"x": -3.1087713501,
				"y": -2.8997835142,
				"z": 2.0049976463,
				"element": "H" 
			},
			{
				"x": -2.7862539956,
				"y": -3.2494151476,
				"z": 3.7206705856,
				"element": "H" 
			},
			{
				"x": 1.0206143634,
				"y": -3.0737512986,
				"z": 0.2727294488,
				"element": "H" 
			},
			{
				"x": 1.3661062404,
				"y": -3.1340579336,
				"z": 2.0127317664,
				"element": "H" 
			},
			{
				"x": 1.8903520627,
				"y": -0.7433756138,
				"z": 2.0625870783,
				"element": "H" 
			},
			{
				"x": 2.7278201717,
				"y": -1.4109036488,
				"z": 0.676204613,
				"element": "H" 
			},
			{
				"x": -0.8365741029,
				"y": 0.2812486395,
				"z": -0.740419154,
				"element": "H" 
			},
			{
				"x": -1.5827931324,
				"y": -2.1021227849,
				"z": -0.2414594984,
				"element": "H" 
			},
			{
				"x": -2.0320470111,
				"y": -0.9890446154,
				"z": 1.0410053376,
				"element": "H" 
			},
			{
				"x": 3.5871477426,
				"y": -0.1310870991,
				"z": -0.7522318619,
				"element": "H" 
			},
			{
				"x": 4.7849287681,
				"y": 1.7776605146,
				"z": -1.7163970858,
				"element": "H" 
			},
			{
				"x": 4.6454753525,
				"y": 4.0065501883,
				"z": -2.2838391603,
				"element": "H" 
			},
			{
				"x": 1.327725552,
				"y": 4.2601959669,
				"z": -1.1533932215,
				"element": "H" 
			},
			{
				"x": 0.1205305325,
				"y": 2.339785025,
				"z": -0.1525660299,
				"element": "H" 
			}
		],
		 "valence_orbital": [ 
			{
				"type": "occ",
				"energy": -0.26339,
				"method": "rhf"
			},
			{
				"type": "occ",
				"energy": -0.2562,
				"method": "rhf"
			},
			{
				"type": "occ",
				"energy": -0.23937,
				"method": "rhf"
			},
			{
				"type": "occ",
				"energy": -0.23178,
				"method": "rhf"
			},
			{
				"type": "occ",
				"energy": -0.21022,
				"method": "rhf"
			},
			{
				"type": "unocc",
				"energy": -0.01676,
				"method": "rhf"
			},
			{
				"type": "unocc",
				"energy": -0.00692,
				"method": "rhf"
			},
			{
				"type": "unocc",
				"energy": 0.03307,
				"method": "rhf"
			},
			{
				"type": "unocc",
				"energy": 0.04818,
				"method": "rhf"
			},
			{
				"type": "unocc",
				"energy": 0.06697,
				"method": "rhf"
			}
		],
		"cosmo_sigma_profile": { 
			"-0.025": 0.0,
			"-0.024": 0.0,
			"-0.023": 0.0,
			"-0.022": 0.0,
			"-0.021": 0.0,
			"-0.02": 0.0,
			"-0.019": 0.0,
			"-0.018": 0.265992165518,
			"-0.017": 0.970694742864,
			"-0.016": 1.33850122845,
			"-0.015": 1.00321164079,
			"-0.014": 0.961321643079,
			"-0.013": 1.18223473955,
			"-0.012": 0.767864647799,
			"-0.011": 0.714026124364,
			"-0.01": 1.07682916626,
			"-0.009": 1.52903575347,
			"-0.008": 1.11435757138,
			"-0.007": 3.35393506366,
			"-0.006": 9.78013079977,
			"-0.005": 20.3120017531,
			"-0.004": 28.6782449128,
			"-0.003": 26.992994246,
			"-0.002": 22.26400822,
			"-0.001": 21.1134851605,
			"0.0": 15.3919050737,
			"0.001": 12.1117016675,
			"0.002": 12.6124319408,
			"0.003": 12.7898138897,
			"0.004": 15.8313501955,
			"0.005": 15.6555289841,
			"0.006": 9.07004595913,
			"0.007": 2.70155917811,
			"0.008": 3.06986906698,
			"0.009": 2.49144307188,
			"0.01": 2.71338204011,
			"0.011": 3.82418569781,
			"0.012": 2.39072430136,
			"0.013": 2.51528659883,
			"0.014": 5.16865147983,
			"0.015": 2.28865909292,
			"0.016": 0.244408014395,
			"0.017": 0.0,
			"0.018": 0.0,
			"0.019": 0.0,
			"0.02": 0.0,
			"0.021": 0.0,
			"0.022": 0.0,
			"0.023": 0.0,
			"0.024": 0.0,
			"0.025": 0.0
		}
	}
}
