{
	 "smiles": "COCC1=NC2=C(C(=CS2)C2=CC=CC=C2)C(Cl)=N1", 
	 "Tm": 336.15, 
	 "num_atms": 30, 
	 "gaussian": { 
		 "optdone": 1, 
		 "sigma_profile": "yes", 
		 "theory": "DFT", 
		 "functional": "B3LYP", 
		 "basiset": "6-31G**", 
		 "properties": { 
			 "R2extent": 6777.8012, 
			 "electric_dipole_moment_norm": 3.50886169576, 
			 "electric_quadrupole_moment_norm": 8.20177773352, 
			 "total_energy": -1583.2046186, 
			 "HOMO_LUMO_gap": 0.17351, 
			 "cosmo_polarized_energy": -10.43, 
			 "cosmo_cavitation_energy": 37.77, 
			 "cosmo_dispersion_energy": -27.33, 
			 "cosmo_repulsion_energy": 2.08, 
			 "cosmo_total_nonelectrostatic_energy": 12.52, 
			 "SMD_solvation_energy": 3.6 
		},
		"coords": [
			{
				"x": 3.3312576771,
				"y": 3.7214226986,
				"z": 2.1726185423,
				"element": "C" 
			},
			{
				"x": 1.9675550446,
				"y": 3.8591044181,
				"z": 2.5349754723,
				"element": "O" 
			},
			{
				"x": 1.3894601235,
				"y": 2.6831230198,
				"z": 3.0818510298,
				"element": "C" 
			},
			{
				"x": 1.0328008848,
				"y": 1.6716091769,
				"z": 2.0114325947,
				"element": "C" 
			},
			{
				"x": 1.9620148091,
				"y": 0.7826911339,
				"z": 1.6532241935,
				"element": "N" 
			},
			{
				"x": 1.6150990861,
				"y": -0.0226912265,
				"z": 0.6514184505,
				"element": "C" 
			},
			{
				"x": 0.3726804984,
				"y": -0.0072266875,
				"z": -0.0389615791,
				"element": "C" 
			},
			{
				"x": 0.3091718708,
				"y": -1.0149326879,
				"z": -1.0826577111,
				"element": "C" 
			},
			{
				"x": 1.4624499244,
				"y": -1.7485949681,
				"z": -1.1142824348,
				"element": "C" 
			},
			{
				"x": 2.6724729765,
				"y": -1.2825106507,
				"z": 0.0520927924,
				"element": "S" 
			},
			{
				"x": -0.7862934813,
				"y": -1.2703293998,
				"z": -2.0546709552,
				"element": "C" 
			},
			{
				"x": -1.2001284323,
				"y": -0.2796171035,
				"z": -2.9589870176,
				"element": "C" 
			},
			{
				"x": -2.1784993073,
				"y": -0.5561121689,
				"z": -3.9117899935,
				"element": "C" 
			},
			{
				"x": -2.7570753943,
				"y": -1.8260477219,
				"z": -3.9786046288,
				"element": "C" 
			},
			{
				"x": -2.3494902182,
				"y": -2.8191939331,
				"z": -3.0875375818,
				"element": "C" 
			},
			{
				"x": -1.3694680441,
				"y": -2.5438014576,
				"z": -2.1329473511,
				"element": "C" 
			},
			{
				"x": -0.5243426024,
				"y": 0.9403918959,
				"z": 0.4989522557,
				"element": "C" 
			},
			{
				"x": -2.1775246451,
				"y": 1.0596072805,
				"z": -0.0757378748,
				"element": "Cl" 
			},
			{
				"x": -0.2026495429,
				"y": 1.7609379337,
				"z": 1.4748848591,
				"element": "N" 
			},
			{
				"x": 3.481909642,
				"y": 2.9946208336,
				"z": 1.3638386486,
				"element": "H" 
			},
			{
				"x": 3.9453869204,
				"y": 3.4097583841,
				"z": 3.0315089416,
				"element": "H" 
			},
			{
				"x": 3.6642284439,
				"y": 4.7058023997,
				"z": 1.834716449,
				"element": "H" 
			},
			{
				"x": 0.4725758891,
				"y": 2.9999203488,
				"z": 3.5833546285,
				"element": "H" 
			},
			{
				"x": 2.0678241415,
				"y": 2.212285023,
				"z": 3.8079457137,
				"element": "H" 
			},
			{
				"x": 1.6823960259,
				"y": -2.5453801793,
				"z": -1.8121016194,
				"element": "H" 
			},
			{
				"x": -0.7477468499,
				"y": 0.7063887385,
				"z": -2.9179302377,
				"element": "H" 
			},
			{
				"x": -2.4867364555,
				"y": 0.2201611417,
				"z": -4.6061034807,
				"element": "H" 
			},
			{
				"x": -3.5206805829,
				"y": -2.0387254001,
				"z": -4.7211020437,
				"element": "H" 
			},
			{
				"x": -2.7961491759,
				"y": -3.808360783,
				"z": -3.1306788502,
				"element": "H" 
			},
			{
				"x": -1.0603992259,
				"y": -3.313400059,
				"z": -1.431621212,
				"element": "H" 
			}
		],
		 "valence_orbital": [ 
			{
				"type": "occ",
				"energy": -0.27065,
				"method": "rhf"
			},
			{
				"type": "occ",
				"energy": -0.26415,
				"method": "rhf"
			},
			{
				"type": "occ",
				"energy": -0.25714,
				"method": "rhf"
			},
			{
				"type": "occ",
				"energy": -0.25415,
				"method": "rhf"
			},
			{
				"type": "occ",
				"energy": -0.23597,
				"method": "rhf"
			},
			{
				"type": "unocc",
				"energy": -0.06246,
				"method": "rhf"
			},
			{
				"type": "unocc",
				"energy": -0.04395,
				"method": "rhf"
			},
			{
				"type": "unocc",
				"energy": -0.02327,
				"method": "rhf"
			},
			{
				"type": "unocc",
				"energy": -0.00883,
				"method": "rhf"
			},
			{
				"type": "unocc",
				"energy": 0.00425,
				"method": "rhf"
			}
		],
		"cosmo_sigma_profile": { 
			"-0.025": 0.0,
			"-0.024": 0.0,
			"-0.023": 0.0,
			"-0.022": 0.0,
			"-0.021": 0.0,
			"-0.02": 0.0,
			"-0.019": 0.0,
			"-0.018": 0.0,
			"-0.017": 0.0,
			"-0.016": 0.0,
			"-0.015": 0.0,
			"-0.014": 0.0,
			"-0.013": 0.0,
			"-0.012": 0.0,
			"-0.011": 0.0,
			"-0.01": 1.01523990046,
			"-0.009": 2.30651087755,
			"-0.008": 1.7391920692,
			"-0.007": 1.29815518211,
			"-0.006": 10.1251464989,
			"-0.005": 21.0464863826,
			"-0.004": 28.2199474426,
			"-0.003": 29.4078504664,
			"-0.002": 33.6498642008,
			"-0.001": 25.0806565834,
			"0.0": 25.66696575,
			"0.001": 25.2202840384,
			"0.002": 22.0725106988,
			"0.003": 20.6627774199,
			"0.004": 16.2095445975,
			"0.005": 15.3081313189,
			"0.006": 7.87061469932,
			"0.007": 4.30584806121,
			"0.008": 2.55392032969,
			"0.009": 3.24321161654,
			"0.01": 3.78677307659,
			"0.011": 2.55099251641,
			"0.012": 2.586244767,
			"0.013": 1.37847785273,
			"0.014": 0.0,
			"0.015": 0.0,
			"0.016": 0.0,
			"0.017": 0.0,
			"0.018": 0.0,
			"0.019": 0.0,
			"0.02": 0.0,
			"0.021": 0.0,
			"0.022": 0.0,
			"0.023": 0.0,
			"0.024": 0.0,
			"0.025": 0.0
		}
	}
}
