{
	 "smiles": "CCOC(=O)C1=C(NC(=O)C(Cl)Cl)SC2=C1CCCC2", 
	 "Tm": 394.15, 
	 "num_atms": 35, 
	 "gaussian": { 
		 "optdone": 1, 
		 "sigma_profile": "yes", 
		 "theory": "DFT", 
		 "functional": "B3LYP", 
		 "basiset": "6-31G**", 
		 "properties": { 
			 "R2extent": 10122.1931, 
			 "electric_dipole_moment_norm": 4.15778318218, 
			 "electric_quadrupole_moment_norm": 30.5118701828, 
			 "total_energy": -2103.43867309, 
			 "HOMO_LUMO_gap": 0.15969, 
			 "cosmo_polarized_energy": -12.65, 
			 "cosmo_cavitation_energy": 42.28, 
			 "cosmo_dispersion_energy": -30.35, 
			 "cosmo_repulsion_energy": 2.35, 
			 "cosmo_total_nonelectrostatic_energy": 14.28, 
			 "SMD_solvation_energy": 6.88 
		},
		"coords": [
			{
				"x": 1.8935115617,
				"y": -0.9011144464,
				"z": 3.5984091815,
				"element": "C" 
			},
			{
				"x": 2.4611674347,
				"y": -0.7747372727,
				"z": 2.1937211744,
				"element": "C" 
			},
			{
				"x": 1.599753022,
				"y": 0.03202878,
				"z": 1.3460134849,
				"element": "O" 
			},
			{
				"x": 0.5603211814,
				"y": -0.6092442932,
				"z": 0.7361013882,
				"element": "C" 
			},
			{
				"x": 0.3799416137,
				"y": -1.8070499345,
				"z": 0.8467444932,
				"element": "O" 
			},
			{
				"x": -0.2831748851,
				"y": 0.2955053254,
				"z": -0.0708484503,
				"element": "C" 
			},
			{
				"x": -0.2833115251,
				"y": 1.6850533387,
				"z": -0.0014602886,
				"element": "C" 
			},
			{
				"x": 0.5717455316,
				"y": 2.4596464457,
				"z": 0.7776786735,
				"element": "N" 
			},
			{
				"x": 0.4687730231,
				"y": 3.6787541313,
				"z": 1.4247701867,
				"element": "C" 
			},
			{
				"x": 1.3834126959,
				"y": 4.0846112036,
				"z": 2.1131868261,
				"element": "O" 
			},
			{
				"x": -0.83005374,
				"y": 4.4856744142,
				"z": 1.2397366757,
				"element": "C" 
			},
			{
				"x": -1.2855147639,
				"y": 5.2776771449,
				"z": 2.7722043407,
				"element": "Cl" 
			},
			{
				"x": -0.5752923006,
				"y": 5.6886150222,
				"z": -0.0822703177,
				"element": "Cl" 
			},
			{
				"x": -1.4176359076,
				"y": 2.3687131927,
				"z": -1.1417169124,
				"element": "S" 
			},
			{
				"x": -1.9381399193,
				"y": 0.7806391498,
				"z": -1.6605772346,
				"element": "C" 
			},
			{
				"x": -1.2448860648,
				"y": -0.2122514503,
				"z": -1.0292004571,
				"element": "C" 
			},
			{
				"x": -1.5108572259,
				"y": -1.6685949718,
				"z": -1.3387206711,
				"element": "C" 
			},
			{
				"x": -2.3477955299,
				"y": -1.8351881658,
				"z": -2.6184666168,
				"element": "C" 
			},
			{
				"x": -3.5274557028,
				"y": -0.8548664782,
				"z": -2.6614937171,
				"element": "C" 
			},
			{
				"x": -3.0284121028,
				"y": 0.6010419406,
				"z": -2.6820171888,
				"element": "C" 
			},
			{
				"x": 2.5965721569,
				"y": -1.4535424315,
				"z": 4.2305157494,
				"element": "H" 
			},
			{
				"x": 1.7321631627,
				"y": 0.0837987737,
				"z": 4.0461310815,
				"element": "H" 
			},
			{
				"x": 0.9464686228,
				"y": -1.4458645231,
				"z": 3.5835715118,
				"element": "H" 
			},
			{
				"x": 3.4141933758,
				"y": -0.2413643279,
				"z": 2.1895411457,
				"element": "H" 
			},
			{
				"x": 2.587289091,
				"y": -1.7520857021,
				"z": 1.7242114029,
				"element": "H" 
			},
			{
				"x": 1.3984048108,
				"y": 1.9503669125,
				"z": 1.0823046823,
				"element": "H" 
			},
			{
				"x": -1.6752167554,
				"y": 3.8719714964,
				"z": 0.9391828049,
				"element": "H" 
			},
			{
				"x": -0.564955416,
				"y": -2.2103604363,
				"z": -1.4243531595,
				"element": "H" 
			},
			{
				"x": -2.0235009918,
				"y": -2.1281036781,
				"z": -0.4840151595,
				"element": "H" 
			},
			{
				"x": -2.7072348669,
				"y": -2.8676653175,
				"z": -2.6857054194,
				"element": "H" 
			},
			{
				"x": -1.7103787827,
				"y": -1.6665341995,
				"z": -3.4968318768,
				"element": "H" 
			},
			{
				"x": -4.1616036789,
				"y": -1.0082924915,
				"z": -1.7789141433,
				"element": "H" 
			},
			{
				"x": -4.1540067891,
				"y": -1.0393214096,
				"z": -3.540797357,
				"element": "H" 
			},
			{
				"x": -2.6497609217,
				"y": 0.850367326,
				"z": -3.6836371292,
				"element": "H" 
			},
			{
				"x": -3.8577294136,
				"y": 1.2920169323,
				"z": -2.4876987044,
				"element": "H" 
			}
		],
		 "valence_orbital": [ 
			{
				"type": "occ",
				"energy": -0.30604,
				"method": "rhf"
			},
			{
				"type": "occ",
				"energy": -0.28539,
				"method": "rhf"
			},
			{
				"type": "occ",
				"energy": -0.28186,
				"method": "rhf"
			},
			{
				"type": "occ",
				"energy": -0.26477,
				"method": "rhf"
			},
			{
				"type": "occ",
				"energy": -0.22251,
				"method": "rhf"
			},
			{
				"type": "unocc",
				"energy": -0.06282,
				"method": "rhf"
			},
			{
				"type": "unocc",
				"energy": -0.02888,
				"method": "rhf"
			},
			{
				"type": "unocc",
				"energy": -0.01977,
				"method": "rhf"
			},
			{
				"type": "unocc",
				"energy": 0.00264,
				"method": "rhf"
			},
			{
				"type": "unocc",
				"energy": 0.01836,
				"method": "rhf"
			}
		],
		"cosmo_sigma_profile": { 
			"-0.025": 0.0,
			"-0.024": 0.0,
			"-0.023": 0.0,
			"-0.022": 0.0,
			"-0.021": 0.0,
			"-0.02": 0.0,
			"-0.019": 0.0,
			"-0.018": 0.0,
			"-0.017": 0.0,
			"-0.016": 0.0,
			"-0.015": 0.0,
			"-0.014": 0.0,
			"-0.013": 0.0,
			"-0.012": 0.0455811330647,
			"-0.011": 0.846725023224,
			"-0.01": 1.95940864668,
			"-0.009": 2.10897286723,
			"-0.008": 2.0430080867,
			"-0.007": 3.12558807489,
			"-0.006": 5.6868506781,
			"-0.005": 11.7944168625,
			"-0.004": 23.3521017911,
			"-0.003": 39.6360965914,
			"-0.002": 44.926083486,
			"-0.001": 43.4918946824,
			"0.0": 35.2889089843,
			"0.001": 25.5159643902,
			"0.002": 23.9915430657,
			"0.003": 26.0273480721,
			"0.004": 15.3698796313,
			"0.005": 4.51338582048,
			"0.006": 3.38493829195,
			"0.007": 3.49838030156,
			"0.008": 3.03365008903,
			"0.009": 3.58273702873,
			"0.01": 4.77164459659,
			"0.011": 7.65527654796,
			"0.012": 4.65555900174,
			"0.013": 0.0751979098292,
			"0.014": 0.0,
			"0.015": 0.0,
			"0.016": 0.0,
			"0.017": 0.0,
			"0.018": 0.0,
			"0.019": 0.0,
			"0.02": 0.0,
			"0.021": 0.0,
			"0.022": 0.0,
			"0.023": 0.0,
			"0.024": 0.0,
			"0.025": 0.0
		}
	}
}
