{
	 "smiles": "NC1=C(C=CS1)C#N", 
	 "Tm": 377.15, 
	 "num_atms": 12, 
	 "gaussian": { 
		 "optdone": 1, 
		 "sigma_profile": "yes", 
		 "theory": "DFT", 
		 "functional": "B3LYP", 
		 "basiset": "6-31G**", 
		 "properties": { 
			 "R2extent": 1271.4927, 
			 "electric_dipole_moment_norm": 3.9685193133, 
			 "electric_quadrupole_moment_norm": 13.643935662, 
			 "total_energy": -700.599714081, 
			 "HOMO_LUMO_gap": 0.18951, 
			 "cosmo_polarized_energy": -12.65, 
			 "cosmo_cavitation_energy": 18.91, 
			 "cosmo_dispersion_energy": -14.21, 
			 "cosmo_repulsion_energy": 1.14, 
			 "cosmo_total_nonelectrostatic_energy": 5.84, 
			 "SMD_solvation_energy": 4.65 
		},
		"coords": [
			{
				"x": 0.0907437045,
				"y": -0.2425144909,
				"z": -1.7553568262,
				"element": "N" 
			},
			{
				"x": -0.4350322826,
				"y": -0.666286648,
				"z": -0.5597577954,
				"element": "C" 
			},
			{
				"x": 0.2535912647,
				"y": -0.9498004977,
				"z": 0.6141303398,
				"element": "C" 
			},
			{
				"x": -0.605192046,
				"y": -1.4546625362,
				"z": 1.6544294756,
				"element": "C" 
			},
			{
				"x": -1.9052222718,
				"y": -1.5430475783,
				"z": 1.2766427138,
				"element": "C" 
			},
			{
				"x": -2.1335428485,
				"y": -1.0284848257,
				"z": -0.3845749708,
				"element": "S" 
			},
			{
				"x": 1.6504393462,
				"y": -0.7231633411,
				"z": 0.723382495,
				"element": "C" 
			},
			{
				"x": 2.796600444,
				"y": -0.5114118174,
				"z": 0.761988641,
				"element": "N" 
			},
			{
				"x": -0.4998495812,
				"y": 0.3196357644,
				"z": -2.3511109802,
				"element": "H" 
			},
			{
				"x": 1.0491453712,
				"y": 0.080406455,
				"z": -1.7096728232,
				"element": "H" 
			},
			{
				"x": -0.2410223319,
				"y": -1.721770519,
				"z": 2.6389106282,
				"element": "H" 
			},
			{
				"x": -2.7592587686,
				"y": -1.869899965,
				"z": 1.8511891024,
				"element": "H" 
			}
		],
		 "valence_orbital": [ 
			{
				"type": "occ",
				"energy": -0.34874,
				"method": "rhf"
			},
			{
				"type": "occ",
				"energy": -0.33322,
				"method": "rhf"
			},
			{
				"type": "occ",
				"energy": -0.32648,
				"method": "rhf"
			},
			{
				"type": "occ",
				"energy": -0.26339,
				"method": "rhf"
			},
			{
				"type": "occ",
				"energy": -0.21604,
				"method": "rhf"
			},
			{
				"type": "unocc",
				"energy": -0.02653,
				"method": "rhf"
			},
			{
				"type": "unocc",
				"energy": -0.00517,
				"method": "rhf"
			},
			{
				"type": "unocc",
				"energy": 0.01205,
				"method": "rhf"
			},
			{
				"type": "unocc",
				"energy": 0.04148,
				"method": "rhf"
			},
			{
				"type": "unocc",
				"energy": 0.06154,
				"method": "rhf"
			}
		],
		"cosmo_sigma_profile": { 
			"-0.025": 0.0,
			"-0.024": 0.0,
			"-0.023": 0.0,
			"-0.022": 0.0,
			"-0.021": 0.0,
			"-0.02": 0.0,
			"-0.019": 0.0,
			"-0.018": 0.0,
			"-0.017": 0.0,
			"-0.016": 0.0,
			"-0.015": 0.901087256788,
			"-0.014": 2.40195611029,
			"-0.013": 2.73404267749,
			"-0.012": 2.66545254866,
			"-0.011": 2.30478352467,
			"-0.01": 1.96990982477,
			"-0.009": 3.24887909756,
			"-0.008": 5.23627959832,
			"-0.007": 6.63862549178,
			"-0.006": 5.44567568852,
			"-0.005": 6.52349391892,
			"-0.004": 5.85634018823,
			"-0.003": 5.57799027284,
			"-0.002": 6.27900526222,
			"-0.001": 7.11211867132,
			"0.0": 9.05498889108,
			"0.001": 12.7621959955,
			"0.002": 14.9188968914,
			"0.003": 12.6581481747,
			"0.004": 8.38480784153,
			"0.005": 5.59896833328,
			"0.006": 3.42129036274,
			"0.007": 3.40380818854,
			"0.008": 2.99030640619,
			"0.009": 3.33352128321,
			"0.01": 4.02373383335,
			"0.011": 3.34524764043,
			"0.012": 2.71614260365,
			"0.013": 2.64721878485,
			"0.014": 0.89160666719,
			"0.015": 0.0,
			"0.016": 0.0,
			"0.017": 0.0,
			"0.018": 0.0,
			"0.019": 0.0,
			"0.02": 0.0,
			"0.021": 0.0,
			"0.022": 0.0,
			"0.023": 0.0,
			"0.024": 0.0,
			"0.025": 0.0
		}
	}
}
