{
	 "smiles": "BrCC1=CC2=CC=CC=C2C=C1", 
	 "Tm": 327.65, 
	 "num_atms": 21, 
	 "gaussian": { 
		 "optdone": 1, 
		 "sigma_profile": "yes", 
		 "theory": "DFT", 
		 "functional": "B3LYP", 
		 "basiset": "6-31G**", 
		 "properties": { 
			 "R2extent": 4359.6672, 
			 "electric_dipole_moment_norm": 2.4962062535, 
			 "electric_quadrupole_moment_norm": 12.3500662804, 
			 "total_energy": -2996.01772488, 
			 "HOMO_LUMO_gap": 0.17131, 
			 "cosmo_polarized_energy": -7.24, 
			 "cosmo_cavitation_energy": 26.94, 
			 "cosmo_dispersion_energy": -20.16, 
			 "cosmo_repulsion_energy": 1.59, 
			 "cosmo_total_nonelectrostatic_energy": 8.37, 
			 "SMD_solvation_energy": 3.0 
		},
		"coords": [
			{
				"x": 1.8795246722,
				"y": 2.4778336178,
				"z": 3.0176504053,
				"element": "Br" 
			},
			{
				"x": 1.5931612238,
				"y": 0.5496879486,
				"z": 2.5274300741,
				"element": "C" 
			},
			{
				"x": 1.3352294722,
				"y": 0.3668313509,
				"z": 1.0688695954,
				"element": "C" 
			},
			{
				"x": 0.0585220126,
				"y": 0.1166102502,
				"z": 0.606019321,
				"element": "C" 
			},
			{
				"x": -0.202866888,
				"y": -0.0879609338,
				"z": -0.7745770258,
				"element": "C" 
			},
			{
				"x": -1.5097070216,
				"y": -0.3510579537,
				"z": -1.2664795589,
				"element": "C" 
			},
			{
				"x": -1.7297516974,
				"y": -0.5450029704,
				"z": -2.6119283753,
				"element": "C" 
			},
			{
				"x": -0.6513490555,
				"y": -0.4857059885,
				"z": -3.5283256252,
				"element": "C" 
			},
			{
				"x": 0.6272981185,
				"y": -0.2331156221,
				"z": -3.0823450087,
				"element": "C" 
			},
			{
				"x": 0.8875821934,
				"y": -0.0277946619,
				"z": -1.7018911946,
				"element": "C" 
			},
			{
				"x": 2.1933827752,
				"y": 0.2356944828,
				"z": -1.2024272037,
				"element": "C" 
			},
			{
				"x": 2.4119554757,
				"y": 0.4280458601,
				"z": 0.1393494899,
				"element": "C" 
			},
			{
				"x": 2.508535638,
				"y": 0.0629015131,
				"z": 2.8607844715,
				"element": "H" 
			},
			{
				"x": 0.7551493898,
				"y": 0.2327358047,
				"z": 3.1449344384,
				"element": "H" 
			},
			{
				"x": -0.7730618618,
				"y": 0.0724574922,
				"z": 1.3058391432,
				"element": "H" 
			},
			{
				"x": -2.3356450779,
				"y": -0.3953281092,
				"z": -0.5611744952,
				"element": "H" 
			},
			{
				"x": -2.7333363139,
				"y": -0.744388128,
				"z": -2.9761540216,
				"element": "H" 
			},
			{
				"x": -0.8378098961,
				"y": -0.6404142166,
				"z": -4.5870814781,
				"element": "H" 
			},
			{
				"x": 1.4562364832,
				"y": -0.1867654801,
				"z": -3.7839617316,
				"element": "H" 
			},
			{
				"x": 3.0222772493,
				"y": 0.2820628618,
				"z": -1.9039743803,
				"element": "H" 
			},
			{
				"x": 3.4133731082,
				"y": 0.637172882,
				"z": 0.5053431603,
				"element": "H" 
			}
		],
		 "valence_orbital": [ 
			{
				"type": "occ",
				"energy": -0.28951,
				"method": "rhf"
			},
			{
				"type": "occ",
				"energy": -0.27086,
				"method": "rhf"
			},
			{
				"type": "occ",
				"energy": -0.26763,
				"method": "rhf"
			},
			{
				"type": "occ",
				"energy": -0.24441,
				"method": "rhf"
			},
			{
				"type": "occ",
				"energy": -0.2213,
				"method": "rhf"
			},
			{
				"type": "unocc",
				"energy": -0.04999,
				"method": "rhf"
			},
			{
				"type": "unocc",
				"energy": -0.02903,
				"method": "rhf"
			},
			{
				"type": "unocc",
				"energy": 0.01405,
				"method": "rhf"
			},
			{
				"type": "unocc",
				"energy": 0.02972,
				"method": "rhf"
			},
			{
				"type": "unocc",
				"energy": 0.0865,
				"method": "rhf"
			}
		],
		"cosmo_sigma_profile": { 
			"-0.025": 0.0,
			"-0.024": 0.0,
			"-0.023": 0.0,
			"-0.022": 0.0,
			"-0.021": 0.0,
			"-0.02": 0.0,
			"-0.019": 0.0,
			"-0.018": 0.0,
			"-0.017": 0.0,
			"-0.016": 0.0,
			"-0.015": 0.0,
			"-0.014": 0.0,
			"-0.013": 0.0,
			"-0.012": 0.0,
			"-0.011": 0.0,
			"-0.01": 0.0,
			"-0.009": 0.0,
			"-0.008": 2.01145245344,
			"-0.007": 6.34212185126,
			"-0.006": 18.3764857977,
			"-0.005": 18.4893088304,
			"-0.004": 18.044879365,
			"-0.003": 13.1941983172,
			"-0.002": 11.9645409932,
			"-0.001": 11.1940032124,
			"0.0": 11.0767862439,
			"0.001": 12.7618956798,
			"0.002": 12.2591201361,
			"0.003": 20.6452572672,
			"0.004": 27.3243424078,
			"0.005": 17.7249217555,
			"0.006": 12.0506399687,
			"0.007": 5.4623022114,
			"0.008": 0.0,
			"0.009": 0.0,
			"0.01": 0.0,
			"0.011": 0.0,
			"0.012": 0.0,
			"0.013": 0.0,
			"0.014": 0.0,
			"0.015": 0.0,
			"0.016": 0.0,
			"0.017": 0.0,
			"0.018": 0.0,
			"0.019": 0.0,
			"0.02": 0.0,
			"0.021": 0.0,
			"0.022": 0.0,
			"0.023": 0.0,
			"0.024": 0.0,
			"0.025": 0.0
		}
	}
}
