{
	 "smiles": "NC(=O)C1CCCN1", 
	 "Tm": 372.65, 
	 "num_atms": 18, 
	 "gaussian": { 
		 "optdone": 1, 
		 "sigma_profile": "yes", 
		 "theory": "DFT", 
		 "functional": "B3LYP", 
		 "basiset": "6-31G**", 
		 "properties": { 
			 "R2extent": 1137.8197, 
			 "electric_dipole_moment_norm": 2.89961692297, 
			 "electric_quadrupole_moment_norm": 12.1978445219, 
			 "total_energy": -381.296329996, 
			 "HOMO_LUMO_gap": 0.2696, 
			 "cosmo_polarized_energy": -12.03, 
			 "cosmo_cavitation_energy": 20.12, 
			 "cosmo_dispersion_energy": -15.37, 
			 "cosmo_repulsion_energy": 1.31, 
			 "cosmo_total_nonelectrostatic_energy": 6.06, 
			 "SMD_solvation_energy": 2.02 
		},
		"coords": [
			{
				"x": 2.1637786045,
				"y": 0.3536260256,
				"z": -1.4090227959,
				"element": "N" 
			},
			{
				"x": 2.0465370238,
				"y": -0.0313012501,
				"z": -0.1056647767,
				"element": "C" 
			},
			{
				"x": 2.9915249328,
				"y": -0.100003543,
				"z": 0.6677824124,
				"element": "O" 
			},
			{
				"x": 0.6188106349,
				"y": -0.3960074028,
				"z": 0.2998639764,
				"element": "C" 
			},
			{
				"x": 0.3133076606,
				"y": -0.2577480951,
				"z": 1.8115493357,
				"element": "C" 
			},
			{
				"x": -1.1919485371,
				"y": 0.1279106203,
				"z": 1.8551388738,
				"element": "C" 
			},
			{
				"x": -1.6234619609,
				"y": 0.1733321588,
				"z": 0.3630279433,
				"element": "C" 
			},
			{
				"x": -0.3979400194,
				"y": 0.3960326121,
				"z": -0.4251306348,
				"element": "N" 
			},
			{
				"x": 3.0806905823,
				"y": 0.5598318105,
				"z": -1.7743254377,
				"element": "H" 
			},
			{
				"x": 1.3517265812,
				"y": 0.371150994,
				"z": -2.0077281764,
				"element": "H" 
			},
			{
				"x": 0.4701046107,
				"y": -1.4451504017,
				"z": 0.0016445911,
				"element": "H" 
			},
			{
				"x": 0.5288775437,
				"y": -1.182996364,
				"z": 2.3512864647,
				"element": "H" 
			},
			{
				"x": 0.9478808733,
				"y": 0.5174531854,
				"z": 2.2492294443,
				"element": "H" 
			},
			{
				"x": -1.7921329093,
				"y": -0.5837305129,
				"z": 2.4301996198,
				"element": "H" 
			},
			{
				"x": -1.3259697902,
				"y": 1.1092140548,
				"z": 2.3221879631,
				"element": "H" 
			},
			{
				"x": -2.0512456493,
				"y": -0.7905036689,
				"z": 0.0605380278,
				"element": "H" 
			},
			{
				"x": -2.3656782026,
				"y": 0.9455844618,
				"z": 0.142344931,
				"element": "H" 
			},
			{
				"x": -0.1430619791,
				"y": 1.3803053151,
				"z": -0.3274217619,
				"element": "H" 
			}
		],
		 "valence_orbital": [ 
			{
				"type": "occ",
				"energy": -0.34344,
				"method": "rhf"
			},
			{
				"type": "occ",
				"energy": -0.32205,
				"method": "rhf"
			},
			{
				"type": "occ",
				"energy": -0.2621,
				"method": "rhf"
			},
			{
				"type": "occ",
				"energy": -0.24598,
				"method": "rhf"
			},
			{
				"type": "occ",
				"energy": -0.24054,
				"method": "rhf"
			},
			{
				"type": "unocc",
				"energy": 0.02906,
				"method": "rhf"
			},
			{
				"type": "unocc",
				"energy": 0.07666,
				"method": "rhf"
			},
			{
				"type": "unocc",
				"energy": 0.09726,
				"method": "rhf"
			},
			{
				"type": "unocc",
				"energy": 0.10214,
				"method": "rhf"
			},
			{
				"type": "unocc",
				"energy": 0.13278,
				"method": "rhf"
			}
		],
		"cosmo_sigma_profile": { 
			"-0.025": 0.0,
			"-0.024": 0.0,
			"-0.023": 0.0,
			"-0.022": 0.0,
			"-0.021": 0.0,
			"-0.02": 0.0,
			"-0.019": 0.0,
			"-0.018": 0.0,
			"-0.017": 0.0,
			"-0.016": 0.0,
			"-0.015": 0.0,
			"-0.014": 0.43144198851,
			"-0.013": 1.24621256169,
			"-0.012": 1.84405914585,
			"-0.011": 1.27726594077,
			"-0.01": 3.10769209835,
			"-0.009": 4.17215219223,
			"-0.008": 2.8815444713,
			"-0.007": 2.68716571099,
			"-0.006": 3.09071358635,
			"-0.005": 6.07904692781,
			"-0.004": 10.27997881,
			"-0.003": 18.2623055129,
			"-0.002": 19.3565823413,
			"-0.001": 15.605226558,
			"0.0": 12.2647715642,
			"0.001": 10.1808733809,
			"0.002": 4.94710429404,
			"0.003": 4.92957500022,
			"0.004": 3.78829605226,
			"0.005": 3.04857037094,
			"0.006": 1.92788777126,
			"0.007": 1.37045651694,
			"0.008": 2.97393287232,
			"0.009": 1.87906560722,
			"0.01": 1.38092340953,
			"0.011": 2.02528085869,
			"0.012": 2.2905580753,
			"0.013": 3.51418215653,
			"0.014": 6.68912063319,
			"0.015": 2.37826624667,
			"0.016": 0.106942624754,
			"0.017": 0.0,
			"0.018": 0.0,
			"0.019": 0.0,
			"0.02": 0.0,
			"0.021": 0.0,
			"0.022": 0.0,
			"0.023": 0.0,
			"0.024": 0.0,
			"0.025": 0.0
		}
	}
}
