{
	 "smiles": "COC(=O)C1=CC(Br)=C(C)C(Br)=C1", 
	 "Tm": 361.15, 
	 "num_atms": 21, 
	 "gaussian": { 
		 "optdone": 1, 
		 "sigma_profile": "yes", 
		 "theory": "DFT", 
		 "functional": "B3LYP", 
		 "basiset": "6-31G**", 
		 "properties": { 
			 "R2extent": 5466.8005, 
			 "electric_dipole_moment_norm": 1.7106823317, 
			 "electric_quadrupole_moment_norm": 13.1571987881, 
			 "total_energy": -5641.05134855, 
			 "HOMO_LUMO_gap": 0.19119, 
			 "cosmo_polarized_energy": -6.46, 
			 "cosmo_cavitation_energy": 29.81, 
			 "cosmo_dispersion_energy": -22.55, 
			 "cosmo_repulsion_energy": 1.78, 
			 "cosmo_total_nonelectrostatic_energy": 9.05, 
			 "SMD_solvation_energy": 4.65 
		},
		"coords": [
			{
				"x": -2.822175315,
				"y": -0.4859526157,
				"z": -4.2756379274,
				"element": "C" 
			},
			{
				"x": -2.1242016053,
				"y": -0.1079557302,
				"z": -3.0775652654,
				"element": "O" 
			},
			{
				"x": -0.9896147,
				"y": -0.7967864901,
				"z": -2.830851936,
				"element": "C" 
			},
			{
				"x": -0.5684302447,
				"y": -1.6773743724,
				"z": -3.5539393311,
				"element": "O" 
			},
			{
				"x": -0.3191327016,
				"y": -0.35187648,
				"z": -1.5740297283,
				"element": "C" 
			},
			{
				"x": 0.8685215073,
				"y": -0.9895919528,
				"z": -1.2083124082,
				"element": "C" 
			},
			{
				"x": 1.5212958331,
				"y": -0.6062753895,
				"z": -0.0435033457,
				"element": "C" 
			},
			{
				"x": 3.1575723443,
				"y": -1.5166497473,
				"z": 0.3677661393,
				"element": "Br" 
			},
			{
				"x": 1.0383363965,
				"y": 0.4067796402,
				"z": 0.8082316755,
				"element": "C" 
			},
			{
				"x": 1.7549334169,
				"y": 0.8076651301,
				"z": 2.0687086126,
				"element": "C" 
			},
			{
				"x": -0.1539605321,
				"y": 1.0282133,
				"z": 0.3897672308,
				"element": "C" 
			},
			{
				"x": -0.9133217939,
				"y": 2.4560473863,
				"z": 1.4212954771,
				"element": "Br" 
			},
			{
				"x": -0.8324424484,
				"y": 0.6688372323,
				"z": -0.7699762623,
				"element": "C" 
			},
			{
				"x": -2.1880118127,
				"y": -0.3348467125,
				"z": -5.1526258702,
				"element": "H" 
			},
			{
				"x": -3.1182153593,
				"y": -1.5369038457,
				"z": -4.2314173912,
				"element": "H" 
			},
			{
				"x": -3.6994096739,
				"y": 0.1588802238,
				"z": -4.3200114718,
				"element": "H" 
			},
			{
				"x": 1.2636644485,
				"y": -1.7748100835,
				"z": -1.8406138681,
				"element": "H" 
			},
			{
				"x": 2.3084544117,
				"y": -0.0334406494,
				"z": 2.4870326406,
				"element": "H" 
			},
			{
				"x": 2.4769543271,
				"y": 1.607587499,
				"z": 1.8628092918,
				"element": "H" 
			},
			{
				"x": 1.0534014898,
				"y": 1.1835214137,
				"z": 2.8140488858,
				"element": "H" 
			},
			{
				"x": -1.7476179883,
				"y": 1.1743322435,
				"z": -1.0475751479,
				"element": "H" 
			}
		],
		 "valence_orbital": [ 
			{
				"type": "occ",
				"energy": -0.30127,
				"method": "rhf"
			},
			{
				"type": "occ",
				"energy": -0.29044,
				"method": "rhf"
			},
			{
				"type": "occ",
				"energy": -0.28375,
				"method": "rhf"
			},
			{
				"type": "occ",
				"energy": -0.26012,
				"method": "rhf"
			},
			{
				"type": "occ",
				"energy": -0.25165,
				"method": "rhf"
			},
			{
				"type": "unocc",
				"energy": -0.06046,
				"method": "rhf"
			},
			{
				"type": "unocc",
				"energy": -0.02964,
				"method": "rhf"
			},
			{
				"type": "unocc",
				"energy": -0.02037,
				"method": "rhf"
			},
			{
				"type": "unocc",
				"energy": 0.02087,
				"method": "rhf"
			},
			{
				"type": "unocc",
				"energy": 0.03949,
				"method": "rhf"
			}
		],
		"cosmo_sigma_profile": { 
			"-0.025": 0.0,
			"-0.024": 0.0,
			"-0.023": 0.0,
			"-0.022": 0.0,
			"-0.021": 0.0,
			"-0.02": 0.0,
			"-0.019": 0.0,
			"-0.018": 0.0,
			"-0.017": 0.0,
			"-0.016": 0.0,
			"-0.015": 0.0,
			"-0.014": 0.0,
			"-0.013": 0.0,
			"-0.012": 0.0,
			"-0.011": 0.0,
			"-0.01": 0.0,
			"-0.009": 0.0,
			"-0.008": 0.0,
			"-0.007": 1.82190527562,
			"-0.006": 8.57597996403,
			"-0.005": 12.8972519162,
			"-0.004": 19.9126441319,
			"-0.003": 23.8348951905,
			"-0.002": 20.948684766,
			"-0.001": 26.6803716701,
			"0.0": 30.133479012,
			"0.001": 26.9754195628,
			"0.002": 18.5934000568,
			"0.003": 17.2233863629,
			"0.004": 18.2582635498,
			"0.005": 4.67514752357,
			"0.006": 1.88600327183,
			"0.007": 1.05057459044,
			"0.008": 1.35490963529,
			"0.009": 1.72218527087,
			"0.01": 2.10666611473,
			"0.011": 4.00234928772,
			"0.012": 2.19239981693,
			"0.013": 0.0,
			"0.014": 0.0,
			"0.015": 0.0,
			"0.016": 0.0,
			"0.017": 0.0,
			"0.018": 0.0,
			"0.019": 0.0,
			"0.02": 0.0,
			"0.021": 0.0,
			"0.022": 0.0,
			"0.023": 0.0,
			"0.024": 0.0,
			"0.025": 0.0
		}
	}
}
