{
	 "smiles": "COC1=CC=C(NC2=NN=C(S)S2)C=C1", 
	 "Tm": 458.15, 
	 "num_atms": 24, 
	 "gaussian": { 
		 "optdone": 1, 
		 "sigma_profile": "yes", 
		 "theory": "DFT", 
		 "functional": "B3LYP", 
		 "basiset": "6-31G**", 
		 "properties": { 
			 "R2extent": 7557.0886, 
			 "electric_dipole_moment_norm": 5.8707813807, 
			 "electric_quadrupole_moment_norm": 22.6002295055, 
			 "total_energy": -1384.17905231, 
			 "HOMO_LUMO_gap": 0.16699, 
			 "cosmo_polarized_energy": -16.36, 
			 "cosmo_cavitation_energy": 32.19, 
			 "cosmo_dispersion_energy": -24.83, 
			 "cosmo_repulsion_energy": 1.85, 
			 "cosmo_total_nonelectrostatic_energy": 9.22, 
			 "SMD_solvation_energy": 3.61 
		},
		"coords": [
			{
				"x": 2.3069683315,
				"y": 3.9057271193,
				"z": 0.1760578904,
				"element": "C" 
			},
			{
				"x": 1.6488462376,
				"y": 2.848872631,
				"z": -0.5044425888,
				"element": "O" 
			},
			{
				"x": 1.1054025721,
				"y": 1.8427087734,
				"z": 0.239182351,
				"element": "C" 
			},
			{
				"x": 1.1483461569,
				"y": 1.7664129365,
				"z": 1.6364372523,
				"element": "C" 
			},
			{
				"x": 0.5420440062,
				"y": 0.6944367529,
				"z": 2.2921829162,
				"element": "C" 
			},
			{
				"x": -0.0944139244,
				"y": -0.324147778,
				"z": 1.5755744557,
				"element": "C" 
			},
			{
				"x": -0.6589780924,
				"y": -1.4024600993,
				"z": 2.2910350173,
				"element": "N" 
			},
			{
				"x": -1.7547552762,
				"y": -2.1605252874,
				"z": 2.0064588452,
				"element": "C" 
			},
			{
				"x": -2.0533174946,
				"y": -3.2114705546,
				"z": 2.7428957525,
				"element": "N" 
			},
			{
				"x": -3.2371672734,
				"y": -3.7846209934,
				"z": 2.3924086857,
				"element": "N" 
			},
			{
				"x": -3.8305394889,
				"y": -3.2064719716,
				"z": 1.3942412769,
				"element": "C" 
			},
			{
				"x": -5.3025895363,
				"y": -3.8393351241,
				"z": 0.6438353276,
				"element": "S" 
			},
			{
				"x": -2.9334010863,
				"y": -1.8158441465,
				"z": 0.744499775,
				"element": "S" 
			},
			{
				"x": -0.1096978431,
				"y": -0.2561275723,
				"z": 0.1728028246,
				"element": "C" 
			},
			{
				"x": 0.4701651332,
				"y": 0.8221074381,
				"z": -0.4825631978,
				"element": "C" 
			},
			{
				"x": 3.1661391042,
				"y": 3.5422586365,
				"z": 0.7547784718,
				"element": "H" 
			},
			{
				"x": 1.6241082084,
				"y": 4.4431338197,
				"z": 0.8468647858,
				"element": "H" 
			},
			{
				"x": 2.6599635678,
				"y": 4.5888951422,
				"z": -0.5977269204,
				"element": "H" 
			},
			{
				"x": 1.6350374517,
				"y": 2.5349547694,
				"z": 2.224634824,
				"element": "H" 
			},
			{
				"x": 0.559384024,
				"y": 0.6547577957,
				"z": 3.3780671353,
				"element": "H" 
			},
			{
				"x": -0.2323545602,
				"y": -1.6541744458,
				"z": 3.1734047127,
				"element": "H" 
			},
			{
				"x": -6.0667218679,
				"y": -2.7409367515,
				"z": 0.8285999523,
				"element": "H" 
			},
			{
				"x": -0.5522199359,
				"y": -1.0556010559,
				"z": -0.410771246,
				"element": "H" 
			},
			{
				"x": 0.4598515861,
				"y": 0.8829499657,
				"z": -1.5656582992,
				"element": "H" 
			}
		],
		 "valence_orbital": [ 
			{
				"type": "occ",
				"energy": -0.27436,
				"method": "rhf"
			},
			{
				"type": "occ",
				"energy": -0.26768,
				"method": "rhf"
			},
			{
				"type": "occ",
				"energy": -0.25887,
				"method": "rhf"
			},
			{
				"type": "occ",
				"energy": -0.2475,
				"method": "rhf"
			},
			{
				"type": "occ",
				"energy": -0.20464,
				"method": "rhf"
			},
			{
				"type": "unocc",
				"energy": -0.03765,
				"method": "rhf"
			},
			{
				"type": "unocc",
				"energy": -0.02333,
				"method": "rhf"
			},
			{
				"type": "unocc",
				"energy": -0.00047,
				"method": "rhf"
			},
			{
				"type": "unocc",
				"energy": 0.00775,
				"method": "rhf"
			},
			{
				"type": "unocc",
				"energy": 0.02352,
				"method": "rhf"
			}
		],
		"cosmo_sigma_profile": { 
			"-0.025": 0.0,
			"-0.024": 0.0,
			"-0.023": 0.0,
			"-0.022": 0.0,
			"-0.021": 0.0,
			"-0.02": 0.0,
			"-0.019": 0.0,
			"-0.018": 0.0,
			"-0.017": 0.0,
			"-0.016": 0.253362561172,
			"-0.015": 0.852951445838,
			"-0.014": 1.00977486003,
			"-0.013": 1.1758888253,
			"-0.012": 1.76633200364,
			"-0.011": 3.80174919156,
			"-0.01": 3.77210503764,
			"-0.009": 2.48556928562,
			"-0.008": 2.7984172443,
			"-0.007": 5.83284663029,
			"-0.006": 13.6523098102,
			"-0.005": 18.6062398073,
			"-0.004": 17.732780122,
			"-0.003": 15.7271628545,
			"-0.002": 17.2233092031,
			"-0.001": 18.3709107552,
			"0.0": 19.7188625239,
			"0.001": 18.7359047769,
			"0.002": 18.080948449,
			"0.003": 16.3240821519,
			"0.004": 17.3923019749,
			"0.005": 10.5201531257,
			"0.006": 5.64640500863,
			"0.007": 5.24501177204,
			"0.008": 4.53387412763,
			"0.009": 4.6265259784,
			"0.01": 4.36564343022,
			"0.011": 3.27942262061,
			"0.012": 3.22662295213,
			"0.013": 2.71815108839,
			"0.014": 2.2399111987,
			"0.015": 0.821520621229,
			"0.016": 0.0,
			"0.017": 0.0,
			"0.018": 0.0,
			"0.019": 0.0,
			"0.02": 0.0,
			"0.021": 0.0,
			"0.022": 0.0,
			"0.023": 0.0,
			"0.024": 0.0,
			"0.025": 0.0
		}
	}
}
