{
	 "smiles": "OC(=O)CC1=CSC(NC(=O)OCC(F)(F)F)=N1", 
	 "Tm": 456.15, 
	 "num_atms": 25, 
	 "gaussian": { 
		 "optdone": 1, 
		 "sigma_profile": "yes", 
		 "theory": "DFT", 
		 "functional": "B3LYP", 
		 "basiset": "6-31G**", 
		 "properties": { 
			 "R2extent": 7660.4266, 
			 "electric_dipole_moment_norm": 2.17781077461, 
			 "electric_quadrupole_moment_norm": 15.1899595852, 
			 "total_energy": -1417.20671472, 
			 "HOMO_LUMO_gap": 0.1984, 
			 "cosmo_polarized_energy": -15.63, 
			 "cosmo_cavitation_energy": 34.45, 
			 "cosmo_dispersion_energy": -24.65, 
			 "cosmo_repulsion_energy": 1.83, 
			 "cosmo_total_nonelectrostatic_energy": 11.63, 
			 "SMD_solvation_energy": 7.87 
		},
		"coords": [
			{
				"x": 5.6591043565,
				"y": -0.1939035399,
				"z": 0.9706758808,
				"element": "O" 
			},
			{
				"x": 4.3678631988,
				"y": -0.5858057163,
				"z": 0.853022081,
				"element": "C" 
			},
			{
				"x": 4.0175969793,
				"y": -1.7250673604,
				"z": 1.0722671623,
				"element": "O" 
			},
			{
				"x": 3.507168516,
				"y": 0.5826636276,
				"z": 0.4269043331,
				"element": "C" 
			},
			{
				"x": 2.0353722326,
				"y": 0.3277624112,
				"z": 0.2469196167,
				"element": "C" 
			},
			{
				"x": 1.3402382153,
				"y": -0.8307248744,
				"z": 0.4252452897,
				"element": "C" 
			},
			{
				"x": -0.3500362543,
				"y": -0.5856205292,
				"z": 0.0827615617,
				"element": "S" 
			},
			{
				"x": 0.0263144167,
				"y": 1.0889876954,
				"z": -0.2816557506,
				"element": "C" 
			},
			{
				"x": -0.8967224591,
				"y": 2.05990852,
				"z": -0.6635689314,
				"element": "N" 
			},
			{
				"x": -2.2488021638,
				"y": 1.9924652889,
				"z": -0.8848650136,
				"element": "C" 
			},
			{
				"x": -2.9361459783,
				"y": 2.9504370527,
				"z": -1.1642428114,
				"element": "O" 
			},
			{
				"x": -2.6930242645,
				"y": 0.7088957923,
				"z": -0.7715179461,
				"element": "O" 
			},
			{
				"x": -4.1035791777,
				"y": 0.5167654531,
				"z": -0.8286162281,
				"element": "C" 
			},
			{
				"x": -4.6141075751,
				"y": 0.1873203758,
				"z": 0.5637606244,
				"element": "C" 
			},
			{
				"x": -4.0429568851,
				"y": -0.9298697266,
				"z": 1.0507546845,
				"element": "F" 
			},
			{
				"x": -5.947348132,
				"y": -0.0104895507,
				"z": 0.5148652363,
				"element": "F" 
			},
			{
				"x": -4.3639087566,
				"y": 1.1882594921,
				"z": 1.4268496382,
				"element": "F" 
			},
			{
				"x": 1.2800910661,
				"y": 1.4162325731,
				"z": -0.1550909167,
				"element": "N" 
			},
			{
				"x": 6.1571737007,
				"y": -0.9821997217,
				"z": 1.2450118504,
				"element": "H" 
			},
			{
				"x": 3.9292665324,
				"y": 0.9810385194,
				"z": -0.5046298117,
				"element": "H" 
			},
			{
				"x": 3.6559043762,
				"y": 1.3860887196,
				"z": 1.1598191696,
				"element": "H" 
			},
			{
				"x": 1.7200557814,
				"y": -1.7931867968,
				"z": 0.7281275592,
				"element": "H" 
			},
			{
				"x": -0.4990477673,
				"y": 2.9839616129,
				"z": -0.7737686018,
				"element": "H" 
			},
			{
				"x": -4.3010591061,
				"y": -0.3282853869,
				"z": -1.4903851579,
				"element": "H" 
			},
			{
				"x": -4.5963108521,
				"y": 1.4185660688,
				"z": -1.1949435186,
				"element": "H" 
			}
		],
		 "valence_orbital": [ 
			{
				"type": "occ",
				"energy": -0.30801,
				"method": "rhf"
			},
			{
				"type": "occ",
				"energy": -0.28873,
				"method": "rhf"
			},
			{
				"type": "occ",
				"energy": -0.28731,
				"method": "rhf"
			},
			{
				"type": "occ",
				"energy": -0.28222,
				"method": "rhf"
			},
			{
				"type": "occ",
				"energy": -0.22684,
				"method": "rhf"
			},
			{
				"type": "unocc",
				"energy": -0.02844,
				"method": "rhf"
			},
			{
				"type": "unocc",
				"energy": -0.00092,
				"method": "rhf"
			},
			{
				"type": "unocc",
				"energy": 0.01895,
				"method": "rhf"
			},
			{
				"type": "unocc",
				"energy": 0.03133,
				"method": "rhf"
			},
			{
				"type": "unocc",
				"energy": 0.0566,
				"method": "rhf"
			}
		],
		"cosmo_sigma_profile": { 
			"-0.025": 0.0,
			"-0.024": 0.0,
			"-0.023": 0.0,
			"-0.022": 0.0,
			"-0.021": 0.0,
			"-0.02": 0.0,
			"-0.019": 0.0430859999116,
			"-0.018": 0.668932847744,
			"-0.017": 1.43622814067,
			"-0.016": 1.20073670257,
			"-0.015": 1.82030950225,
			"-0.014": 1.13141270561,
			"-0.013": 1.54946317185,
			"-0.012": 1.3956726914,
			"-0.011": 2.20063998049,
			"-0.01": 3.17094216141,
			"-0.009": 4.1128641134,
			"-0.008": 6.39509907801,
			"-0.007": 12.2355982898,
			"-0.006": 10.2860837709,
			"-0.005": 9.30688591266,
			"-0.004": 12.9235883632,
			"-0.003": 14.6503895856,
			"-0.002": 14.2450346003,
			"-0.001": 14.7521608267,
			"0.0": 15.2771580433,
			"0.001": 22.3432032094,
			"0.002": 43.1788435757,
			"0.003": 29.9914179423,
			"0.004": 10.3215437273,
			"0.005": 4.49158307955,
			"0.006": 4.61945364965,
			"0.007": 5.18267358083,
			"0.008": 5.51820606047,
			"0.009": 5.71017053212,
			"0.01": 5.85508316455,
			"0.011": 8.55541992437,
			"0.012": 2.12768988504,
			"0.013": 0.702549232824,
			"0.014": 0.0989951013417,
			"0.015": 0.0,
			"0.016": 0.0,
			"0.017": 0.0,
			"0.018": 0.0,
			"0.019": 0.0,
			"0.02": 0.0,
			"0.021": 0.0,
			"0.022": 0.0,
			"0.023": 0.0,
			"0.024": 0.0,
			"0.025": 0.0
		}
	}
}
