{
	 "smiles": "CCOC1=CC(=CC=C1)S(N)(=O)=O", 
	 "Tm": 403.15, 
	 "num_atms": 24, 
	 "gaussian": { 
		 "optdone": 1, 
		 "sigma_profile": "yes", 
		 "theory": "DFT", 
		 "functional": "B3LYP", 
		 "basiset": "6-31G**", 
		 "properties": { 
			 "R2extent": 3955.4788, 
			 "electric_dipole_moment_norm": 7.33945261787, 
			 "electric_quadrupole_moment_norm": 15.1276291583, 
			 "total_energy": -990.017126199, 
			 "HOMO_LUMO_gap": 0.20218, 
			 "cosmo_polarized_energy": -19.66, 
			 "cosmo_cavitation_energy": 29.34, 
			 "cosmo_dispersion_energy": -22.05, 
			 "cosmo_repulsion_energy": 1.73, 
			 "cosmo_total_nonelectrostatic_energy": 9.02, 
			 "SMD_solvation_energy": 5.08 
		},
		"coords": [
			{
				"x": -3.577218374,
				"y": 2.2663262906,
				"z": 1.0811862465,
				"element": "C" 
			},
			{
				"x": -2.8728011494,
				"y": 1.477600725,
				"z": -0.0081471234,
				"element": "C" 
			},
			{
				"x": -1.4998850983,
				"y": 1.3527032607,
				"z": 0.3713510852,
				"element": "O" 
			},
			{
				"x": -0.6526293485,
				"y": 0.6634321661,
				"z": -0.4378355174,
				"element": "C" 
			},
			{
				"x": 0.6687786682,
				"y": 0.5547769358,
				"z": 0.0229882437,
				"element": "C" 
			},
			{
				"x": 1.59984369,
				"y": -0.1356304566,
				"z": -0.7437798663,
				"element": "C" 
			},
			{
				"x": 1.2587193312,
				"y": -0.7390989755,
				"z": -1.9592611752,
				"element": "C" 
			},
			{
				"x": -0.055691069,
				"y": -0.6228300493,
				"z": -2.4026182578,
				"element": "C" 
			},
			{
				"x": -1.0122871875,
				"y": 0.0746108519,
				"z": -1.6583371534,
				"element": "C" 
			},
			{
				"x": 3.3024078025,
				"y": -0.2306037324,
				"z": -0.1618796341,
				"element": "S" 
			},
			{
				"x": 4.1032283507,
				"y": 1.0998313924,
				"z": -0.8123316876,
				"element": "N" 
			},
			{
				"x": 3.2911513804,
				"y": -0.0136536646,
				"z": 1.2834858546,
				"element": "O" 
			},
			{
				"x": 3.9141778419,
				"y": -1.4016382241,
				"z": -0.7873693815,
				"element": "O" 
			},
			{
				"x": -4.6356744458,
				"y": 2.3868667622,
				"z": 0.831428183,
				"element": "H" 
			},
			{
				"x": -3.1306525832,
				"y": 3.2585409726,
				"z": 1.1893439327,
				"element": "H" 
			},
			{
				"x": -3.5032332462,
				"y": 1.7480602388,
				"z": 2.0410211541,
				"element": "H" 
			},
			{
				"x": -2.9460717432,
				"y": 1.9931456435,
				"z": -0.9761085976,
				"element": "H" 
			},
			{
				"x": -3.3186635024,
				"y": 0.4797289355,
				"z": -0.1220805638,
				"element": "H" 
			},
			{
				"x": 0.9390155164,
				"y": 0.9867196182,
				"z": 0.9798828979,
				"element": "H" 
			},
			{
				"x": 1.9989670931,
				"y": -1.3021163663,
				"z": -2.5158385061,
				"element": "H" 
			},
			{
				"x": -0.350876852,
				"y": -1.087327591,
				"z": -3.3389027255,
				"element": "H" 
			},
			{
				"x": -2.0274435849,
				"y": 0.1445032227,
				"z": -2.029569969,
				"element": "H" 
			},
			{
				"x": 4.1532875003,
				"y": 1.0682959028,
				"z": -1.8258411024,
				"element": "H" 
			},
			{
				"x": 3.7425510096,
				"y": 1.9816561412,
				"z": -0.4614863367,
				"element": "H" 
			}
		],
		 "valence_orbital": [ 
			{
				"type": "occ",
				"energy": -0.31123,
				"method": "rhf"
			},
			{
				"type": "occ",
				"energy": -0.29987,
				"method": "rhf"
			},
			{
				"type": "occ",
				"energy": -0.29809,
				"method": "rhf"
			},
			{
				"type": "occ",
				"energy": -0.26849,
				"method": "rhf"
			},
			{
				"type": "occ",
				"energy": -0.23849,
				"method": "rhf"
			},
			{
				"type": "unocc",
				"energy": -0.03631,
				"method": "rhf"
			},
			{
				"type": "unocc",
				"energy": -0.01196,
				"method": "rhf"
			},
			{
				"type": "unocc",
				"energy": 0.05351,
				"method": "rhf"
			},
			{
				"type": "unocc",
				"energy": 0.07674,
				"method": "rhf"
			},
			{
				"type": "unocc",
				"energy": 0.08649,
				"method": "rhf"
			}
		],
		"cosmo_sigma_profile": { 
			"-0.025": 0.0,
			"-0.024": 0.0,
			"-0.023": 0.0,
			"-0.022": 0.0,
			"-0.021": 0.0,
			"-0.02": 0.0,
			"-0.019": 0.0,
			"-0.018": 0.0,
			"-0.017": 0.0,
			"-0.016": 0.111872575371,
			"-0.015": 2.14740547642,
			"-0.014": 2.46716164465,
			"-0.013": 1.97346875919,
			"-0.012": 4.16605975138,
			"-0.011": 2.11205721786,
			"-0.01": 2.13979866567,
			"-0.009": 1.86040139155,
			"-0.008": 2.25789177904,
			"-0.007": 5.52608559514,
			"-0.006": 11.6111452354,
			"-0.005": 16.0034882385,
			"-0.004": 18.294298585,
			"-0.003": 17.2458021707,
			"-0.002": 14.0514842663,
			"-0.001": 14.7801396236,
			"0.0": 14.4913126359,
			"0.001": 11.340572456,
			"0.002": 15.6361052922,
			"0.003": 14.6554943252,
			"0.004": 8.26622099799,
			"0.005": 4.7194940534,
			"0.006": 4.68448279231,
			"0.007": 5.46450239965,
			"0.008": 6.43037851118,
			"0.009": 5.91163504887,
			"0.01": 7.74997807684,
			"0.011": 10.7001473609,
			"0.012": 5.54847415651,
			"0.013": 0.147343853261,
			"0.014": 0.0,
			"0.015": 0.0,
			"0.016": 0.0,
			"0.017": 0.0,
			"0.018": 0.0,
			"0.019": 0.0,
			"0.02": 0.0,
			"0.021": 0.0,
			"0.022": 0.0,
			"0.023": 0.0,
			"0.024": 0.0,
			"0.025": 0.0
		}
	}
}
