{
	 "smiles": "OC(=O)CNC(=O)C1=CC=C(C=C1)C1=CC=CC=C1", 
	 "Tm": 494.15, 
	 "num_atms": 32, 
	 "gaussian": { 
		 "optdone": 1, 
		 "sigma_profile": "yes", 
		 "theory": "DFT", 
		 "functional": "B3LYP", 
		 "basiset": "6-31G**", 
		 "properties": { 
			 "R2extent": 8211.0374, 
			 "electric_dipole_moment_norm": 4.97384209842, 
			 "electric_quadrupole_moment_norm": 28.1874936954, 
			 "total_energy": -859.886937028, 
			 "HOMO_LUMO_gap": 0.18138, 
			 "cosmo_polarized_energy": -18.66, 
			 "cosmo_cavitation_energy": 37.22, 
			 "cosmo_dispersion_energy": -26.72, 
			 "cosmo_repulsion_energy": 2.06, 
			 "cosmo_total_nonelectrostatic_energy": 12.56, 
			 "SMD_solvation_energy": 7.14 
		},
		"coords": [
			{
				"x": 4.6305115814,
				"y": 3.5835946384,
				"z": -1.2079985539,
				"element": "O" 
			},
			{
				"x": 3.6311797612,
				"y": 4.1417329053,
				"z": -0.4961128254,
				"element": "C" 
			},
			{
				"x": 3.5332694106,
				"y": 5.3304387157,
				"z": -0.2910225214,
				"element": "O" 
			},
			{
				"x": 2.6788599888,
				"y": 3.0819387063,
				"z": 0.0328670348,
				"element": "C" 
			},
			{
				"x": 1.5772113839,
				"y": 3.7145189411,
				"z": 0.7270966218,
				"element": "N" 
			},
			{
				"x": 0.2380505203,
				"y": 3.3905676632,
				"z": 0.6324749976,
				"element": "C" 
			},
			{
				"x": -0.6231911809,
				"y": 4.2337933028,
				"z": 0.8564705587,
				"element": "O" 
			},
			{
				"x": -0.1345123417,
				"y": 1.978347902,
				"z": 0.2856839487,
				"element": "C" 
			},
			{
				"x": -1.3348494048,
				"y": 1.7781712198,
				"z": -0.4106813546,
				"element": "C" 
			},
			{
				"x": -1.7657400242,
				"y": 0.4952691036,
				"z": -0.7265020908,
				"element": "C" 
			},
			{
				"x": -1.0283486342,
				"y": -0.6363648787,
				"z": -0.3319364082,
				"element": "C" 
			},
			{
				"x": 0.1571384992,
				"y": -0.4290683605,
				"z": 0.3931410896,
				"element": "C" 
			},
			{
				"x": 0.6010015291,
				"y": 0.8568361629,
				"z": 0.6928211344,
				"element": "C" 
			},
			{
				"x": -1.4930128196,
				"y": -2.0072059119,
				"z": -0.6615890539,
				"element": "C" 
			},
			{
				"x": -2.8605014724,
				"y": -2.331107531,
				"z": -0.6369887657,
				"element": "C" 
			},
			{
				"x": -3.296497252,
				"y": -3.6186076071,
				"z": -0.9460689128,
				"element": "C" 
			},
			{
				"x": -2.3749310227,
				"y": -4.6105128421,
				"z": -1.2870855393,
				"element": "C" 
			},
			{
				"x": -1.0132172442,
				"y": -4.303557639,
				"z": -1.3159323327,
				"element": "C" 
			},
			{
				"x": -0.5772322344,
				"y": -3.0161194526,
				"z": -1.0064226217,
				"element": "C" 
			},
			{
				"x": 5.2093158317,
				"y": 4.3101517143,
				"z": -1.4947987672,
				"element": "H" 
			},
			{
				"x": 3.2721091326,
				"y": 2.4185731231,
				"z": 0.6793766959,
				"element": "H" 
			},
			{
				"x": 2.3364253081,
				"y": 2.4682584152,
				"z": -0.8062445458,
				"element": "H" 
			},
			{
				"x": 1.719915382,
				"y": 4.7045325194,
				"z": 0.9039388256,
				"element": "H" 
			},
			{
				"x": -1.9170970118,
				"y": 2.6471761527,
				"z": -0.698452196,
				"element": "H" 
			},
			{
				"x": -2.6772135619,
				"y": 0.3641872658,
				"z": -1.3017236305,
				"element": "H" 
			},
			{
				"x": 0.7194185925,
				"y": -1.2850984605,
				"z": 0.753603116,
				"element": "H" 
			},
			{
				"x": 1.5021287544,
				"y": 0.9813097731,
				"z": 1.2850637017,
				"element": "H" 
			},
			{
				"x": -3.5835088958,
				"y": -1.5745324722,
				"z": -0.3470021351,
				"element": "H" 
			},
			{
				"x": -4.3574778764,
				"y": -3.8493239378,
				"z": -0.9120143733,
				"element": "H" 
			},
			{
				"x": -2.7148342828,
				"y": -5.6134903864,
				"z": -1.5280863518,
				"element": "H" 
			},
			{
				"x": -0.2886356589,
				"y": -5.065776798,
				"z": -1.5882710833,
				"element": "H" 
			},
			{
				"x": 0.4818652431,
				"y": -2.7810319471,
				"z": -1.0575036613,
				"element": "H" 
			}
		],
		 "valence_orbital": [ 
			{
				"type": "occ",
				"energy": -0.26205,
				"method": "rhf"
			},
			{
				"type": "occ",
				"energy": -0.25968,
				"method": "rhf"
			},
			{
				"type": "occ",
				"energy": -0.25572,
				"method": "rhf"
			},
			{
				"type": "occ",
				"energy": -0.24619,
				"method": "rhf"
			},
			{
				"type": "occ",
				"energy": -0.22961,
				"method": "rhf"
			},
			{
				"type": "unocc",
				"energy": -0.04823,
				"method": "rhf"
			},
			{
				"type": "unocc",
				"energy": -0.0133,
				"method": "rhf"
			},
			{
				"type": "unocc",
				"energy": -0.00944,
				"method": "rhf"
			},
			{
				"type": "unocc",
				"energy": -0.00611,
				"method": "rhf"
			},
			{
				"type": "unocc",
				"energy": 0.00511,
				"method": "rhf"
			}
		],
		"cosmo_sigma_profile": { 
			"-0.025": 0.0,
			"-0.024": 0.0,
			"-0.023": 0.0,
			"-0.022": 0.0,
			"-0.021": 0.0,
			"-0.02": 0.0,
			"-0.019": 0.404203347026,
			"-0.018": 1.13067020366,
			"-0.017": 0.934717163572,
			"-0.016": 0.765641593241,
			"-0.015": 0.734961360268,
			"-0.014": 1.41774137576,
			"-0.013": 0.261810117481,
			"-0.012": 0.240661898963,
			"-0.011": 1.02122903136,
			"-0.01": 0.826134958575,
			"-0.009": 1.56080314138,
			"-0.008": 5.76836213747,
			"-0.007": 7.86492408431,
			"-0.006": 19.9031612128,
			"-0.005": 23.2356547229,
			"-0.004": 24.2175062663,
			"-0.003": 20.3835393511,
			"-0.002": 17.7587097829,
			"-0.001": 18.5062326608,
			"0.0": 15.0481780223,
			"0.001": 17.5351603763,
			"0.002": 18.7897340166,
			"0.003": 22.3316344499,
			"0.004": 21.4633989364,
			"0.005": 14.4938289393,
			"0.006": 7.71433644547,
			"0.007": 4.22558003304,
			"0.008": 5.07255721586,
			"0.009": 3.31760032835,
			"0.01": 4.93206885791,
			"0.011": 4.57610110153,
			"0.012": 2.38224177039,
			"0.013": 4.86936143768,
			"0.014": 3.58218619251,
			"0.015": 0.112513604524,
			"0.016": 0.0,
			"0.017": 0.0,
			"0.018": 0.0,
			"0.019": 0.0,
			"0.02": 0.0,
			"0.021": 0.0,
			"0.022": 0.0,
			"0.023": 0.0,
			"0.024": 0.0,
			"0.025": 0.0
		}
	}
}
