{
	 "smiles": "NNC(=O)CCCCC(=O)NN", 
	 "Tm": 454.15, 
	 "num_atms": 26, 
	 "gaussian": { 
		 "optdone": 1, 
		 "sigma_profile": "yes", 
		 "theory": "DFT", 
		 "functional": "B3LYP", 
		 "basiset": "6-31G**", 
		 "properties": { 
			 "R2extent": 2870.2922, 
			 "electric_dipole_moment_norm": 5.54714762829, 
			 "electric_quadrupole_moment_norm": 14.8343626506, 
			 "total_energy": -606.502255619, 
			 "HOMO_LUMO_gap": 0.22989, 
			 "cosmo_polarized_energy": -20.61, 
			 "cosmo_cavitation_energy": 28.97, 
			 "cosmo_dispersion_energy": -20.43, 
			 "cosmo_repulsion_energy": 1.68, 
			 "cosmo_total_nonelectrostatic_energy": 10.21, 
			 "SMD_solvation_energy": 6.34 
		},
		"coords": [
			{
				"x": -2.1208884994,
				"y": 2.8157403886,
				"z": 1.8103823029,
				"element": "N" 
			},
			{
				"x": -0.7707994943,
				"y": 2.4430395234,
				"z": 1.6809266013,
				"element": "N" 
			},
			{
				"x": -0.3845682914,
				"y": 1.2664752062,
				"z": 1.1122151577,
				"element": "C" 
			},
			{
				"x": -1.2202394739,
				"y": 0.4465627611,
				"z": 0.7265068239,
				"element": "O" 
			},
			{
				"x": 1.1159498463,
				"y": 1.0667271642,
				"z": 0.9711080732,
				"element": "C" 
			},
			{
				"x": 1.626793425,
				"y": 1.283828649,
				"z": -0.4744691704,
				"element": "C" 
			},
			{
				"x": 0.9542485576,
				"y": 0.4187606174,
				"z": -1.5498303736,
				"element": "C" 
			},
			{
				"x": 1.1645201016,
				"y": -1.0986117633,
				"z": -1.3711356528,
				"element": "C" 
			},
			{
				"x": 0.3509892716,
				"y": -1.8534211721,
				"z": -2.413386005,
				"element": "C" 
			},
			{
				"x": 0.7178252776,
				"y": -1.955660658,
				"z": -3.5789770084,
				"element": "O" 
			},
			{
				"x": -0.8535123062,
				"y": -2.3702378253,
				"z": -2.0070804511,
				"element": "N" 
			},
			{
				"x": -1.4606752561,
				"y": -2.3039993392,
				"z": -0.7407648046,
				"element": "N" 
			},
			{
				"x": -2.561897351,
				"y": 2.678669427,
				"z": 0.9008565309,
				"element": "H" 
			},
			{
				"x": -2.568298444,
				"y": 2.1405634169,
				"z": 2.4301962782,
				"element": "H" 
			},
			{
				"x": -0.1001115391,
				"y": 3.1437769475,
				"z": 1.9578326241,
				"element": "H" 
			},
			{
				"x": 1.3298383513,
				"y": 0.0448446367,
				"z": 1.2981472309,
				"element": "H" 
			},
			{
				"x": 1.6582892404,
				"y": 1.7378296055,
				"z": 1.6475159098,
				"element": "H" 
			},
			{
				"x": 2.7088361433,
				"y": 1.101600061,
				"z": -0.4738707709,
				"element": "H" 
			},
			{
				"x": 1.4933508649,
				"y": 2.3405614224,
				"z": -0.7388460544,
				"element": "H" 
			},
			{
				"x": -0.119475609,
				"y": 0.6326449013,
				"z": -1.5648411846,
				"element": "H" 
			},
			{
				"x": 1.3432521871,
				"y": 0.7027280668,
				"z": -2.5334581215,
				"element": "H" 
			},
			{
				"x": 0.888105288,
				"y": -1.4072960359,
				"z": -0.3602162833,
				"element": "H" 
			},
			{
				"x": 2.216261744,
				"y": -1.3520179068,
				"z": -1.535847177,
				"element": "H" 
			},
			{
				"x": -1.4114182772,
				"y": -2.7924505039,
				"z": -2.7379939629,
				"element": "H" 
			},
			{
				"x": -0.9566655777,
				"y": -2.8945923807,
				"z": -0.0830485661,
				"element": "H" 
			},
			{
				"x": -1.4624101794,
				"y": -1.3499652097,
				"z": -0.3812219464,
				"element": "H" 
			}
		],
		 "valence_orbital": [ 
			{
				"type": "occ",
				"energy": -0.27734,
				"method": "rhf"
			},
			{
				"type": "occ",
				"energy": -0.27558,
				"method": "rhf"
			},
			{
				"type": "occ",
				"energy": -0.26389,
				"method": "rhf"
			},
			{
				"type": "occ",
				"energy": -0.23764,
				"method": "rhf"
			},
			{
				"type": "occ",
				"energy": -0.22507,
				"method": "rhf"
			},
			{
				"type": "unocc",
				"energy": 0.00482,
				"method": "rhf"
			},
			{
				"type": "unocc",
				"energy": 0.03849,
				"method": "rhf"
			},
			{
				"type": "unocc",
				"energy": 0.06032,
				"method": "rhf"
			},
			{
				"type": "unocc",
				"energy": 0.07607,
				"method": "rhf"
			},
			{
				"type": "unocc",
				"energy": 0.09176,
				"method": "rhf"
			}
		],
		"cosmo_sigma_profile": { 
			"-0.025": 0.0,
			"-0.024": 0.0,
			"-0.023": 0.0,
			"-0.022": 0.0,
			"-0.021": 0.0,
			"-0.02": 0.0,
			"-0.019": 0.0,
			"-0.018": 0.0,
			"-0.017": 0.0,
			"-0.016": 0.0,
			"-0.015": 0.248499015335,
			"-0.014": 1.06797112081,
			"-0.013": 2.09796329381,
			"-0.012": 1.77364698748,
			"-0.011": 5.71760689207,
			"-0.01": 5.20539544158,
			"-0.009": 5.95814922038,
			"-0.008": 5.12202589867,
			"-0.007": 6.32689305126,
			"-0.006": 5.94768870655,
			"-0.005": 8.56332575469,
			"-0.004": 13.7810372736,
			"-0.003": 20.8665898266,
			"-0.002": 25.1784661682,
			"-0.001": 20.75730204,
			"0.0": 15.0528755764,
			"0.001": 8.59645776498,
			"0.002": 10.943273256,
			"0.003": 6.73755845076,
			"0.004": 5.59268121225,
			"0.005": 4.98755693758,
			"0.006": 3.85160679823,
			"0.007": 3.06122886593,
			"0.008": 4.48749710545,
			"0.009": 3.64631649945,
			"0.01": 3.11367100165,
			"0.011": 4.30480967627,
			"0.012": 4.2298428299,
			"0.013": 3.33572289947,
			"0.014": 7.28244462373,
			"0.015": 4.70155220373,
			"0.016": 1.74051180153,
			"0.017": 0.270173476558,
			"0.018": 0.0,
			"0.019": 0.0,
			"0.02": 0.0,
			"0.021": 0.0,
			"0.022": 0.0,
			"0.023": 0.0,
			"0.024": 0.0,
			"0.025": 0.0
		}
	}
}
