{
	 "smiles": "CCCCCCCCCCCCCCCC(=O)NCCO", 
	 "Tm": 371.65, 
	 "num_atms": 58, 
	 "gaussian": { 
		 "optdone": 1, 
		 "sigma_profile": "yes", 
		 "theory": "DFT", 
		 "functional": "B3LYP", 
		 "basiset": "6-31G**", 
		 "properties": { 
			 "R2extent": 11580.5356, 
			 "electric_dipole_moment_norm": 4.60506707443, 
			 "electric_quadrupole_moment_norm": 38.0980192828, 
			 "total_energy": -913.454613333, 
			 "HOMO_LUMO_gap": 0.26683, 
			 "cosmo_polarized_energy": -15.69, 
			 "cosmo_cavitation_energy": 55.43, 
			 "cosmo_dispersion_energy": -35.0, 
			 "cosmo_repulsion_energy": 2.78, 
			 "cosmo_total_nonelectrostatic_energy": 23.21, 
			 "SMD_solvation_energy": 7.85 
		},
		"coords": [
			{
				"x": 3.5797273207,
				"y": -1.6154185807,
				"z": -3.6253324272,
				"element": "C" 
			},
			{
				"x": 3.3279195051,
				"y": -2.626345754,
				"z": -2.5015674174,
				"element": "C" 
			},
			{
				"x": 2.0435602111,
				"y": -3.4414639876,
				"z": -2.7069916175,
				"element": "C" 
			},
			{
				"x": 1.7919959288,
				"y": -4.5257911423,
				"z": -1.6439970784,
				"element": "C" 
			},
			{
				"x": 1.5808564266,
				"y": -4.0247421283,
				"z": -0.2039766821,
				"element": "C" 
			},
			{
				"x": 0.3367267195,
				"y": -3.1472192962,
				"z": -0.0058559102,
				"element": "C" 
			},
			{
				"x": 0.1181598498,
				"y": -2.7401292734,
				"z": 1.4583168328,
				"element": "C" 
			},
			{
				"x": -1.1498939403,
				"y": -1.9062156361,
				"z": 1.7114265504,
				"element": "C" 
			},
			{
				"x": -1.1754132513,
				"y": -0.4918754903,
				"z": 1.100584248,
				"element": "C" 
			},
			{
				"x": -0.1108134585,
				"y": 0.4786783814,
				"z": 1.6712934132,
				"element": "C" 
			},
			{
				"x": 1.1217928805,
				"y": 0.7093759485,
				"z": 0.7740410489,
				"element": "C" 
			},
			{
				"x": 0.8689168898,
				"y": 1.4967519843,
				"z": -0.5314837838,
				"element": "C" 
			},
			{
				"x": 1.0169448754,
				"y": 3.0290001827,
				"z": -0.4448245368,
				"element": "C" 
			},
			{
				"x": -0.0291417836,
				"y": 3.8200339539,
				"z": 0.361699571,
				"element": "C" 
			},
			{
				"x": -1.4714237805,
				"y": 3.6626685057,
				"z": -0.1677836957,
				"element": "C" 
			},
			{
				"x": -2.3866061277,
				"y": 4.781127057,
				"z": 0.3164216123,
				"element": "C" 
			},
			{
				"x": -2.5583091564,
				"y": 5.7991279557,
				"z": -0.3453207881,
				"element": "O" 
			},
			{
				"x": -2.9823505301,
				"y": 4.6626279422,
				"z": 1.5521403667,
				"element": "N" 
			},
			{
				"x": -3.0169747706,
				"y": 3.5358204,
				"z": 2.4650584087,
				"element": "C" 
			},
			{
				"x": -4.202569275,
				"y": 2.5907797263,
				"z": 2.2705560161,
				"element": "C" 
			},
			{
				"x": -4.0194741216,
				"y": 1.8939672306,
				"z": 1.0461556232,
				"element": "O" 
			},
			{
				"x": 4.5021766343,
				"y": -1.0496327902,
				"z": -3.4578750269,
				"element": "H" 
			},
			{
				"x": 3.667899619,
				"y": -2.1158664082,
				"z": -4.5965647615,
				"element": "H" 
			},
			{
				"x": 2.7572364472,
				"y": -0.8946113265,
				"z": -3.7011085552,
				"element": "H" 
			},
			{
				"x": 3.2839256051,
				"y": -2.0939722544,
				"z": -1.54283647,
				"element": "H" 
			},
			{
				"x": 4.1825760568,
				"y": -3.31321462,
				"z": -2.4274380586,
				"element": "H" 
			},
			{
				"x": 1.1855827474,
				"y": -2.7574071124,
				"z": -2.7561332424,
				"element": "H" 
			},
			{
				"x": 2.0907228351,
				"y": -3.9277948647,
				"z": -3.6911087067,
				"element": "H" 
			},
			{
				"x": 2.6388454348,
				"y": -5.2258639551,
				"z": -1.650691715,
				"element": "H" 
			},
			{
				"x": 0.9130642949,
				"y": -5.1133143329,
				"z": -1.943171381,
				"element": "H" 
			},
			{
				"x": 2.4694009946,
				"y": -3.4750618866,
				"z": 0.1348512502,
				"element": "H" 
			},
			{
				"x": 1.5043939174,
				"y": -4.8988682741,
				"z": 0.457199036,
				"element": "H" 
			},
			{
				"x": -0.5499595132,
				"y": -3.6901945635,
				"z": -0.3651817639,
				"element": "H" 
			},
			{
				"x": 0.4144664439,
				"y": -2.2495360202,
				"z": -0.6312629886,
				"element": "H" 
			},
			{
				"x": 0.0613834079,
				"y": -3.6514310033,
				"z": 2.0695838438,
				"element": "H" 
			},
			{
				"x": 1.0006828606,
				"y": -2.1956614999,
				"z": 1.8216399395,
				"element": "H" 
			},
			{
				"x": -2.0175456069,
				"y": -2.4673383947,
				"z": 1.3364274237,
				"element": "H" 
			},
			{
				"x": -1.2973513644,
				"y": -1.8154419442,
				"z": 2.7966844234,
				"element": "H" 
			},
			{
				"x": -1.0710874863,
				"y": -0.5594152525,
				"z": 0.0102592814,
				"element": "H" 
			},
			{
				"x": -2.1729075415,
				"y": -0.0688018046,
				"z": 1.2654722955,
				"element": "H" 
			},
			{
				"x": 0.2295935051,
				"y": 0.1045547912,
				"z": 2.6464591017,
				"element": "H" 
			},
			{
				"x": -0.5790408768,
				"y": 1.4465578847,
				"z": 1.8792596106,
				"element": "H" 
			},
			{
				"x": 1.8982190304,
				"y": 1.2270749722,
				"z": 1.3543575078,
				"element": "H" 
			},
			{
				"x": 1.5484360787,
				"y": -0.268135276,
				"z": 0.5172463617,
				"element": "H" 
			},
			{
				"x": 1.5919947909,
				"y": 1.1549755401,
				"z": -1.28286807,
				"element": "H" 
			},
			{
				"x": -0.1165237154,
				"y": 1.239155806,
				"z": -0.9405906096,
				"element": "H" 
			},
			{
				"x": 2.0113328654,
				"y": 3.2585092568,
				"z": -0.0375270532,
				"element": "H" 
			},
			{
				"x": 1.0138792518,
				"y": 3.4258490687,
				"z": -1.4691961924,
				"element": "H" 
			},
			{
				"x": 0.0183809428,
				"y": 3.5481557512,
				"z": 1.4236660605,
				"element": "H" 
			},
			{
				"x": 0.2420611365,
				"y": 4.8814784314,
				"z": 0.3086967991,
				"element": "H" 
			},
			{
				"x": -1.463109094,
				"y": 3.7601901491,
				"z": -1.2573807003,
				"element": "H" 
			},
			{
				"x": -1.885157288,
				"y": 2.681334218,
				"z": 0.075850316,
				"element": "H" 
			},
			{
				"x": -3.5680363788,
				"y": 5.4593545971,
				"z": 1.768619137,
				"element": "H" 
			},
			{
				"x": -3.0477813442,
				"y": 3.9217128665,
				"z": 3.4911553971,
				"element": "H" 
			},
			{
				"x": -2.0922727169,
				"y": 2.960569952,
				"z": 2.3745499717,
				"element": "H" 
			},
			{
				"x": -4.2436342498,
				"y": 1.8964324844,
				"z": 3.1255026669,
				"element": "H" 
			},
			{
				"x": -5.1363242912,
				"y": 3.1740369683,
				"z": 2.2653506453,
				"element": "H" 
			},
			{
				"x": -4.8254538452,
				"y": 1.4057628669,
				"z": 0.8398444724,
				"element": "H" 
			}
		],
		 "valence_orbital": [ 
			{
				"type": "occ",
				"energy": -0.29752,
				"method": "rhf"
			},
			{
				"type": "occ",
				"energy": -0.29459,
				"method": "rhf"
			},
			{
				"type": "occ",
				"energy": -0.28535,
				"method": "rhf"
			},
			{
				"type": "occ",
				"energy": -0.23957,
				"method": "rhf"
			},
			{
				"type": "occ",
				"energy": -0.22993,
				"method": "rhf"
			},
			{
				"type": "unocc",
				"energy": 0.0369,
				"method": "rhf"
			},
			{
				"type": "unocc",
				"energy": 0.05634,
				"method": "rhf"
			},
			{
				"type": "unocc",
				"energy": 0.06096,
				"method": "rhf"
			},
			{
				"type": "unocc",
				"energy": 0.07665,
				"method": "rhf"
			},
			{
				"type": "unocc",
				"energy": 0.09324,
				"method": "rhf"
			}
		],
		"cosmo_sigma_profile": { 
			"-0.025": 0.0,
			"-0.024": 0.0,
			"-0.023": 0.0,
			"-0.022": 0.0,
			"-0.021": 0.0,
			"-0.02": 0.0,
			"-0.019": 0.0,
			"-0.018": 0.0,
			"-0.017": 0.0111897120677,
			"-0.016": 0.672443973189,
			"-0.015": 1.16080810881,
			"-0.014": 0.873800975587,
			"-0.013": 1.32859960207,
			"-0.012": 2.32903978734,
			"-0.011": 1.75011203218,
			"-0.01": 2.32940189787,
			"-0.009": 1.78193361415,
			"-0.008": 2.04690845689,
			"-0.007": 2.2853329596,
			"-0.006": 5.10799631955,
			"-0.005": 8.52996301024,
			"-0.004": 13.0399946893,
			"-0.003": 16.0275505425,
			"-0.002": 44.5871605923,
			"-0.001": 87.4091670663,
			"0.0": 80.3182216608,
			"0.001": 69.0662616757,
			"0.002": 34.9521262163,
			"0.003": 8.02958895747,
			"0.004": 6.28507474571,
			"0.005": 5.92521918426,
			"0.006": 3.09712304995,
			"0.007": 3.62765396421,
			"0.008": 3.8941509541,
			"0.009": 2.39756921199,
			"0.01": 1.07438618153,
			"0.011": 0.780416728838,
			"0.012": 1.76591978543,
			"0.013": 2.18478944821,
			"0.014": 4.84522836798,
			"0.015": 4.40054761942,
			"0.016": 0.951506137176,
			"0.017": 0.0,
			"0.018": 0.0,
			"0.019": 0.0,
			"0.02": 0.0,
			"0.021": 0.0,
			"0.022": 0.0,
			"0.023": 0.0,
			"0.024": 0.0,
			"0.025": 0.0
		}
	}
}
