{
	 "smiles": "CCOC(=O)ON=C(/C(=O)C1=CC=CC=C1)C1=CC=CC=C1", 
	 "Tm": 347.15, 
	 "num_atms": 37, 
	 "gaussian": { 
		 "optdone": 1, 
		 "sigma_profile": "yes", 
		 "theory": "DFT", 
		 "functional": "B3LYP", 
		 "basiset": "6-31G**", 
		 "properties": { 
			 "R2extent": 8299.0978, 
			 "electric_dipole_moment_norm": 3.15151423446, 
			 "electric_quadrupole_moment_norm": 16.5215957616, 
			 "total_energy": -1012.44909447, 
			 "HOMO_LUMO_gap": 0.17138, 
			 "cosmo_polarized_energy": -14.84, 
			 "cosmo_cavitation_energy": 43.23, 
			 "cosmo_dispersion_energy": -29.42, 
			 "cosmo_repulsion_energy": 2.31, 
			 "cosmo_total_nonelectrostatic_energy": 16.13, 
			 "SMD_solvation_energy": 9.3 
		},
		"coords": [
			{
				"x": -4.6313813771,
				"y": 2.0801280423,
				"z": -3.4404227193,
				"element": "C" 
			},
			{
				"x": -4.2115455281,
				"y": 0.6201304111,
				"z": -3.4958455329,
				"element": "C" 
			},
			{
				"x": -3.4116871422,
				"y": 0.2571922008,
				"z": -2.3426755314,
				"element": "O" 
			},
			{
				"x": -2.1079993941,
				"y": 0.5484577239,
				"z": -2.4346016634,
				"element": "C" 
			},
			{
				"x": -1.5312764335,
				"y": 1.0519999338,
				"z": -3.3626636242,
				"element": "O" 
			},
			{
				"x": -1.561147963,
				"y": 0.1349113053,
				"z": -1.2505780803,
				"element": "O" 
			},
			{
				"x": -0.1821665313,
				"y": 0.4597268256,
				"z": -1.1651577496,
				"element": "N" 
			},
			{
				"x": 0.3169381041,
				"y": -0.0389833139,
				"z": -0.0904309902,
				"element": "C" 
			},
			{
				"x": -0.5110908607,
				"y": -0.8105917397,
				"z": 0.9358082366,
				"element": "C" 
			},
			{
				"x": -0.8229206647,
				"y": -0.2444067071,
				"z": 1.9719900819,
				"element": "O" 
			},
			{
				"x": -0.8554835968,
				"y": -2.2295337701,
				"z": 0.6550212591,
				"element": "C" 
			},
			{
				"x": -1.6037654821,
				"y": -2.9316514571,
				"z": 1.6138094352,
				"element": "C" 
			},
			{
				"x": -1.9347521646,
				"y": -4.2654823067,
				"z": 1.4011911453,
				"element": "C" 
			},
			{
				"x": -1.5185076528,
				"y": -4.9104285956,
				"z": 0.2314396977,
				"element": "C" 
			},
			{
				"x": -0.7729102383,
				"y": -4.2182577577,
				"z": -0.7254549228,
				"element": "C" 
			},
			{
				"x": -0.4419754647,
				"y": -2.8804805561,
				"z": -0.5167541876,
				"element": "C" 
			},
			{
				"x": 1.7585820204,
				"y": 0.1859175383,
				"z": 0.1661780446,
				"element": "C" 
			},
			{
				"x": 2.304280212,
				"y": -0.0219466367,
				"z": 1.4432558144,
				"element": "C" 
			},
			{
				"x": 3.6652300082,
				"y": 0.1871239073,
				"z": 1.6676795369,
				"element": "C" 
			},
			{
				"x": 4.4946319215,
				"y": 0.6023589442,
				"z": 0.6261643304,
				"element": "C" 
			},
			{
				"x": 3.9568723826,
				"y": 0.8123441721,
				"z": -0.6478884372,
				"element": "C" 
			},
			{
				"x": 2.6016219672,
				"y": 0.6051023872,
				"z": -0.8801738647,
				"element": "C" 
			},
			{
				"x": -5.2939463973,
				"y": 2.3060553126,
				"z": -4.2825506503,
				"element": "H" 
			},
			{
				"x": -5.168095191,
				"y": 2.2958241209,
				"z": -2.5121344288,
				"element": "H" 
			},
			{
				"x": -3.7581493801,
				"y": 2.7336521329,
				"z": -3.5068647663,
				"element": "H" 
			},
			{
				"x": -3.6404697083,
				"y": 0.4048315933,
				"z": -4.4022458773,
				"element": "H" 
			},
			{
				"x": -5.0726243409,
				"y": -0.0494827597,
				"z": -3.4411059605,
				"element": "H" 
			},
			{
				"x": -1.9125072173,
				"y": -2.4077815147,
				"z": 2.5123215237,
				"element": "H" 
			},
			{
				"x": -2.5155624542,
				"y": -4.8058697027,
				"z": 2.1428025105,
				"element": "H" 
			},
			{
				"x": -1.7761565826,
				"y": -5.9528182354,
				"z": 0.0665719572,
				"element": "H" 
			},
			{
				"x": -0.4510950249,
				"y": -4.7199700928,
				"z": -1.6330122588,
				"element": "H" 
			},
			{
				"x": 0.1338229294,
				"y": -2.3424185381,
				"z": -1.263168466,
				"element": "H" 
			},
			{
				"x": 1.6640344643,
				"y": -0.3228426427,
				"z": 2.2645796496,
				"element": "H" 
			},
			{
				"x": 4.0744436639,
				"y": 0.0276250353,
				"z": 2.660853958,
				"element": "H" 
			},
			{
				"x": 5.5544476574,
				"y": 0.7612419047,
				"z": 0.8031268554,
				"element": "H" 
			},
			{
				"x": 4.5981451425,
				"y": 1.1342196783,
				"z": -1.4632212613,
				"element": "H" 
			},
			{
				"x": 2.178366317,
				"y": 0.762503157,
				"z": -1.8661430635,
				"element": "H" 
			}
		],
		 "valence_orbital": [ 
			{
				"type": "occ",
				"energy": -0.26633,
				"method": "rhf"
			},
			{
				"type": "occ",
				"energy": -0.26436,
				"method": "rhf"
			},
			{
				"type": "occ",
				"energy": -0.25909,
				"method": "rhf"
			},
			{
				"type": "occ",
				"energy": -0.25346,
				"method": "rhf"
			},
			{
				"type": "occ",
				"energy": -0.24288,
				"method": "rhf"
			},
			{
				"type": "unocc",
				"energy": -0.0715,
				"method": "rhf"
			},
			{
				"type": "unocc",
				"energy": -0.05194,
				"method": "rhf"
			},
			{
				"type": "unocc",
				"energy": -0.01408,
				"method": "rhf"
			},
			{
				"type": "unocc",
				"energy": -0.00749,
				"method": "rhf"
			},
			{
				"type": "unocc",
				"energy": 0.02813,
				"method": "rhf"
			}
		],
		"cosmo_sigma_profile": { 
			"-0.025": 0.0,
			"-0.024": 0.0,
			"-0.023": 0.0,
			"-0.022": 0.0,
			"-0.021": 0.0,
			"-0.02": 0.0,
			"-0.019": 0.0,
			"-0.018": 0.0,
			"-0.017": 0.0,
			"-0.016": 0.0,
			"-0.015": 0.0,
			"-0.014": 0.0,
			"-0.013": 0.0,
			"-0.012": 0.0,
			"-0.011": 0.0,
			"-0.01": 0.0,
			"-0.009": 0.0,
			"-0.008": 0.00948589739002,
			"-0.007": 6.88853348182,
			"-0.006": 22.6586553729,
			"-0.005": 30.3227460105,
			"-0.004": 35.4990933925,
			"-0.003": 29.5045668176,
			"-0.002": 23.4200866643,
			"-0.001": 23.9036063998,
			"0.0": 26.235228845,
			"0.001": 24.5792144475,
			"0.002": 24.6908594399,
			"0.003": 32.5779465933,
			"0.004": 21.9007147777,
			"0.005": 6.16698006115,
			"0.006": 5.17426846744,
			"0.007": 5.63811016976,
			"0.008": 4.66890349521,
			"0.009": 5.33010118141,
			"0.01": 6.21454512252,
			"0.011": 6.20236957269,
			"0.012": 1.98060577635,
			"0.013": 1.58126455014,
			"0.014": 1.11042395944,
			"0.015": 0.109274046705,
			"0.016": 0.0,
			"0.017": 0.0,
			"0.018": 0.0,
			"0.019": 0.0,
			"0.02": 0.0,
			"0.021": 0.0,
			"0.022": 0.0,
			"0.023": 0.0,
			"0.024": 0.0,
			"0.025": 0.0
		}
	}
}
