{
	 "smiles": "COC1=C(NC(=O)CCN)C=C(Cl)C=C1", 
	 "Tm": 340.15, 
	 "num_atms": 28, 
	 "gaussian": { 
		 "optdone": 1, 
		 "sigma_profile": "yes", 
		 "theory": "DFT", 
		 "functional": "B3LYP", 
		 "basiset": "6-31G**", 
		 "properties": { 
			 "R2extent": 5335.5464, 
			 "electric_dipole_moment_norm": 4.12917726672, 
			 "electric_quadrupole_moment_norm": 17.0543331001, 
			 "total_energy": -1109.03834612, 
			 "HOMO_LUMO_gap": 0.19323, 
			 "cosmo_polarized_energy": -16.08, 
			 "cosmo_cavitation_energy": 33.57, 
			 "cosmo_dispersion_energy": -23.82, 
			 "cosmo_repulsion_energy": 1.92, 
			 "cosmo_total_nonelectrostatic_energy": 11.67, 
			 "SMD_solvation_energy": 5.51 
		},
		"coords": [
			{
				"x": -1.0343362418,
				"y": 2.3616813296,
				"z": -1.6100687528,
				"element": "C" 
			},
			{
				"x": -0.7785952119,
				"y": 1.2597659956,
				"z": -0.7500516092,
				"element": "O" 
			},
			{
				"x": 0.5176119907,
				"y": 0.9704749407,
				"z": -0.4335358267,
				"element": "C" 
			},
			{
				"x": 0.6850427368,
				"y": -0.119779477,
				"z": 0.4571011694,
				"element": "C" 
			},
			{
				"x": -0.4730191821,
				"y": -0.7641636293,
				"z": 0.9191947005,
				"element": "N" 
			},
			{
				"x": -0.7541293884,
				"y": -2.0949549856,
				"z": 1.1954499646,
				"element": "C" 
			},
			{
				"x": -1.8494920064,
				"y": -2.385145823,
				"z": 1.6562260583,
				"element": "O" 
			},
			{
				"x": 0.2745772494,
				"y": -3.1697048332,
				"z": 0.8833061292,
				"element": "C" 
			},
			{
				"x": 0.7589007763,
				"y": -3.8750596338,
				"z": 2.1593478258,
				"element": "C" 
			},
			{
				"x": 1.5964910665,
				"y": -5.0233160108,
				"z": 1.810282407,
				"element": "N" 
			},
			{
				"x": 1.9720482871,
				"y": -0.4527275676,
				"z": 0.8850572523,
				"element": "C" 
			},
			{
				"x": 3.0751659239,
				"y": 0.2380674771,
				"z": 0.3800597911,
				"element": "C" 
			},
			{
				"x": 4.6862325906,
				"y": -0.2233828249,
				"z": 0.9171100989,
				"element": "Cl" 
			},
			{
				"x": 2.9205367916,
				"y": 1.2905986372,
				"z": -0.5119508599,
				"element": "C" 
			},
			{
				"x": 1.6307154584,
				"y": 1.6629127799,
				"z": -0.9065715519,
				"element": "C" 
			},
			{
				"x": -0.582028354,
				"y": 2.2110314681,
				"z": -2.5980065336,
				"element": "H" 
			},
			{
				"x": -2.1185175287,
				"y": 2.4148752085,
				"z": -1.7150986749,
				"element": "H" 
			},
			{
				"x": -0.6634437197,
				"y": 3.3007294473,
				"z": -1.1808492923,
				"element": "H" 
			},
			{
				"x": -1.3047153141,
				"y": -0.1862456847,
				"z": 0.9592670127,
				"element": "H" 
			},
			{
				"x": 1.1192309518,
				"y": -2.787177671,
				"z": 0.3046992985,
				"element": "H" 
			},
			{
				"x": -0.239831709,
				"y": -3.9140600386,
				"z": 0.2678749476,
				"element": "H" 
			},
			{
				"x": -0.1234915792,
				"y": -4.2366841551,
				"z": 2.6960945785,
				"element": "H" 
			},
			{
				"x": 1.2512232324,
				"y": -3.139968665,
				"z": 2.8235825468,
				"element": "H" 
			},
			{
				"x": 2.4872105688,
				"y": -4.7055668046,
				"z": 1.4341411531,
				"element": "H" 
			},
			{
				"x": 1.8155640331,
				"y": -5.5593220123,
				"z": 2.6459614361,
				"element": "H" 
			},
			{
				"x": 2.1140554796,
				"y": -1.2282540797,
				"z": 1.626737733,
				"element": "H" 
			},
			{
				"x": 3.7851818423,
				"y": 1.8232265904,
				"z": -0.8902375268,
				"element": "H" 
			},
			{
				"x": 1.5105112561,
				"y": 2.4907500218,
				"z": -1.5948234753,
				"element": "H" 
			}
		],
		 "valence_orbital": [ 
			{
				"type": "occ",
				"energy": -0.29935,
				"method": "rhf"
			},
			{
				"type": "occ",
				"energy": -0.25173,
				"method": "rhf"
			},
			{
				"type": "occ",
				"energy": -0.24871,
				"method": "rhf"
			},
			{
				"type": "occ",
				"energy": -0.23632,
				"method": "rhf"
			},
			{
				"type": "occ",
				"energy": -0.2191,
				"method": "rhf"
			},
			{
				"type": "unocc",
				"energy": -0.02587,
				"method": "rhf"
			},
			{
				"type": "unocc",
				"energy": -0.01017,
				"method": "rhf"
			},
			{
				"type": "unocc",
				"energy": 0.02222,
				"method": "rhf"
			},
			{
				"type": "unocc",
				"energy": 0.03064,
				"method": "rhf"
			},
			{
				"type": "unocc",
				"energy": 0.07691,
				"method": "rhf"
			}
		],
		"cosmo_sigma_profile": { 
			"-0.025": 0.0,
			"-0.024": 0.0,
			"-0.023": 0.0,
			"-0.022": 0.0,
			"-0.021": 0.0,
			"-0.02": 0.0,
			"-0.019": 0.0,
			"-0.018": 0.0,
			"-0.017": 0.0,
			"-0.016": 0.0,
			"-0.015": 0.0,
			"-0.014": 0.0,
			"-0.013": 0.0,
			"-0.012": 0.233663931293,
			"-0.011": 0.620179289952,
			"-0.01": 2.22579963656,
			"-0.009": 3.36189181838,
			"-0.008": 5.09334150018,
			"-0.007": 11.2081223912,
			"-0.006": 17.6469584548,
			"-0.005": 19.0825949546,
			"-0.004": 19.6108905692,
			"-0.003": 21.7187288097,
			"-0.002": 17.7086234003,
			"-0.001": 17.6803391259,
			"0.0": 16.2829398326,
			"0.001": 15.8644695756,
			"0.002": 19.6752703627,
			"0.003": 21.1887209113,
			"0.004": 15.7352628187,
			"0.005": 12.3864412547,
			"0.006": 3.65582811286,
			"0.007": 3.19364158341,
			"0.008": 1.97598857861,
			"0.009": 2.10292107736,
			"0.01": 1.75653628092,
			"0.011": 1.95489300753,
			"0.012": 3.0696409292,
			"0.013": 5.5657196925,
			"0.014": 3.91981953861,
			"0.015": 0.776654915436,
			"0.016": 0.449195286858,
			"0.017": 0.334052347339,
			"0.018": 0.553746706721,
			"0.019": 0.767846402864,
			"0.02": 0.0454367531317,
			"0.021": 0.0,
			"0.022": 0.0,
			"0.023": 0.0,
			"0.024": 0.0,
			"0.025": 0.0
		}
	}
}
