{
	 "smiles": "CCCCCC=CC", 
	 "Tm": 193.15, 
	 "num_atms": 24, 
	 "gaussian": { 
		 "optdone": 1, 
		 "sigma_profile": "yes", 
		 "theory": "DFT", 
		 "functional": "B3LYP", 
		 "basiset": "6-31G**", 
		 "properties": { 
			 "R2extent": 1927.1709, 
			 "electric_dipole_moment_norm": 0.122295134817, 
			 "electric_quadrupole_moment_norm": 1.58746530041, 
			 "total_energy": -314.494503554, 
			 "HOMO_LUMO_gap": 0.27104, 
			 "cosmo_polarized_energy": -1.51, 
			 "cosmo_cavitation_energy": 25.43, 
			 "cosmo_dispersion_energy": -18.26, 
			 "cosmo_repulsion_energy": 1.56, 
			 "cosmo_total_nonelectrostatic_energy": 8.73, 
			 "SMD_solvation_energy": 4.28 
		},
		"coords": [
			{
				"x": 2.2739922896,
				"y": -1.4796053812,
				"z": 1.4709274714,
				"element": "C" 
			},
			{
				"x": 1.3264158643,
				"y": -1.9866976904,
				"z": 0.3774111913,
				"element": "C" 
			},
			{
				"x": -0.1046828239,
				"y": -1.4271502034,
				"z": 0.4686656889,
				"element": "C" 
			},
			{
				"x": -0.2467834116,
				"y": 0.096932021,
				"z": 0.3081028973,
				"element": "C" 
			},
			{
				"x": 0.1628203681,
				"y": 0.6211474447,
				"z": -1.0730479183,
				"element": "C" 
			},
			{
				"x": -0.025374422,
				"y": 2.0996029525,
				"z": -1.3058607117,
				"element": "C" 
			},
			{
				"x": -0.4920379958,
				"y": 3.0018046131,
				"z": -0.4381142754,
				"element": "C" 
			},
			{
				"x": -0.6537348715,
				"y": 4.4668904658,
				"z": -0.7315136444,
				"element": "C" 
			},
			{
				"x": 1.8756339533,
				"y": -1.6950207582,
				"z": 2.4694480828,
				"element": "H" 
			},
			{
				"x": 2.4329187489,
				"y": -0.3981454537,
				"z": 1.4059148473,
				"element": "H" 
			},
			{
				"x": 3.2555897551,
				"y": -1.9590049198,
				"z": 1.3950291888,
				"element": "H" 
			},
			{
				"x": 1.7539318585,
				"y": -1.763460871,
				"z": -0.6085095042,
				"element": "H" 
			},
			{
				"x": 1.269696133,
				"y": -3.0813352637,
				"z": 0.434613721,
				"element": "H" 
			},
			{
				"x": -0.5299219815,
				"y": -1.7153991333,
				"z": 1.4398425761,
				"element": "H" 
			},
			{
				"x": -0.7256045569,
				"y": -1.9213092023,
				"z": -0.2913153436,
				"element": "H" 
			},
			{
				"x": -1.2943226596,
				"y": 0.366825897,
				"z": 0.4930313953,
				"element": "H" 
			},
			{
				"x": 0.3371763506,
				"y": 0.6108595586,
				"z": 1.0820003993,
				"element": "H" 
			},
			{
				"x": -0.3974599048,
				"y": 0.071853368,
				"z": -1.8462315366,
				"element": "H" 
			},
			{
				"x": 1.2177381802,
				"y": 0.3768196757,
				"z": -1.2670777631,
				"element": "H" 
			},
			{
				"x": 0.2613919444,
				"y": 2.4460970762,
				"z": -2.3010685073,
				"element": "H" 
			},
			{
				"x": -0.7843266992,
				"y": 2.6834108634,
				"z": 0.5619202972,
				"element": "H" 
			},
			{
				"x": -1.6974483191,
				"y": 4.7856939563,
				"z": -0.6125204557,
				"element": "H" 
			},
			{
				"x": -0.3414115129,
				"y": 4.7095794607,
				"z": -1.7521154072,
				"element": "H" 
			},
			{
				"x": -0.0603962871,
				"y": 5.080811524,
				"z": -0.041432689,
				"element": "H" 
			}
		],
		 "valence_orbital": [ 
			{
				"type": "occ",
				"energy": -0.33261,
				"method": "rhf"
			},
			{
				"type": "occ",
				"energy": -0.31493,
				"method": "rhf"
			},
			{
				"type": "occ",
				"energy": -0.31156,
				"method": "rhf"
			},
			{
				"type": "occ",
				"energy": -0.30691,
				"method": "rhf"
			},
			{
				"type": "occ",
				"energy": -0.23379,
				"method": "rhf"
			},
			{
				"type": "unocc",
				"energy": 0.03725,
				"method": "rhf"
			},
			{
				"type": "unocc",
				"energy": 0.08517,
				"method": "rhf"
			},
			{
				"type": "unocc",
				"energy": 0.11442,
				"method": "rhf"
			},
			{
				"type": "unocc",
				"energy": 0.12215,
				"method": "rhf"
			},
			{
				"type": "unocc",
				"energy": 0.12486,
				"method": "rhf"
			}
		],
		"cosmo_sigma_profile": { 
			"-0.025": 0.0,
			"-0.024": 0.0,
			"-0.023": 0.0,
			"-0.022": 0.0,
			"-0.021": 0.0,
			"-0.02": 0.0,
			"-0.019": 0.0,
			"-0.018": 0.0,
			"-0.017": 0.0,
			"-0.016": 0.0,
			"-0.015": 0.0,
			"-0.014": 0.0,
			"-0.013": 0.0,
			"-0.012": 0.0,
			"-0.011": 0.0,
			"-0.01": 0.0,
			"-0.009": 0.0,
			"-0.008": 0.0,
			"-0.007": 0.0,
			"-0.006": 0.0,
			"-0.005": 0.0,
			"-0.004": 1.62438147229,
			"-0.003": 13.353028898,
			"-0.002": 32.5471910438,
			"-0.001": 39.005457523,
			"0.0": 41.756721311,
			"0.001": 35.3498212544,
			"0.002": 15.5593605739,
			"0.003": 3.9557749147,
			"0.004": 4.23721399116,
			"0.005": 2.938211655,
			"0.006": 2.52563586666,
			"0.007": 2.45603366014,
			"0.008": 0.990222218927,
			"0.009": 0.0,
			"0.01": 0.0,
			"0.011": 0.0,
			"0.012": 0.0,
			"0.013": 0.0,
			"0.014": 0.0,
			"0.015": 0.0,
			"0.016": 0.0,
			"0.017": 0.0,
			"0.018": 0.0,
			"0.019": 0.0,
			"0.02": 0.0,
			"0.021": 0.0,
			"0.022": 0.0,
			"0.023": 0.0,
			"0.024": 0.0,
			"0.025": 0.0
		}
	}
}
