{
	 "smiles": "O=C1NCC2(CCCCC2)O1", 
	 "Tm": 370.15, 
	 "num_atms": 24, 
	 "gaussian": { 
		 "optdone": 1, 
		 "sigma_profile": "yes", 
		 "theory": "DFT", 
		 "functional": "B3LYP", 
		 "basiset": "6-31G**", 
		 "properties": { 
			 "R2extent": 2286.3544, 
			 "electric_dipole_moment_norm": 5.2788553513, 
			 "electric_quadrupole_moment_norm": 20.3337901939, 
			 "total_energy": -517.923176889, 
			 "HOMO_LUMO_gap": 0.31161, 
			 "cosmo_polarized_energy": -13.31, 
			 "cosmo_cavitation_energy": 24.7, 
			 "cosmo_dispersion_energy": -18.67, 
			 "cosmo_repulsion_energy": 1.5, 
			 "cosmo_total_nonelectrostatic_energy": 7.54, 
			 "SMD_solvation_energy": 3.69 
		},
		"coords": [
			{
				"x": 0.0942387213,
				"y": 4.209091486,
				"z": -0.0919329683,
				"element": "O" 
			},
			{
				"x": 0.1863685472,
				"y": 3.1205394087,
				"z": -0.6051413158,
				"element": "C" 
			},
			{
				"x": 0.0390469422,
				"y": 2.7953697011,
				"z": -1.937889372,
				"element": "N" 
			},
			{
				"x": 0.514831391,
				"y": 1.4542656626,
				"z": -2.2151036674,
				"element": "C" 
			},
			{
				"x": 0.4217704165,
				"y": 0.8155943956,
				"z": -0.7997250654,
				"element": "C" 
			},
			{
				"x": 1.6148378339,
				"y": -0.0750987527,
				"z": -0.444141132,
				"element": "C" 
			},
			{
				"x": 1.5759948051,
				"y": -1.4161266683,
				"z": -1.195164321,
				"element": "C" 
			},
			{
				"x": 0.2567987697,
				"y": -2.1596753453,
				"z": -0.937421589,
				"element": "C" 
			},
			{
				"x": -0.9523169424,
				"y": -1.2841616687,
				"z": -1.2987015255,
				"element": "C" 
			},
			{
				"x": -0.9065595681,
				"y": 0.0728133293,
				"z": -0.5758290138,
				"element": "C" 
			},
			{
				"x": 0.4479812853,
				"y": 1.9691099174,
				"z": 0.0865184566,
				"element": "O" 
			},
			{
				"x": 0.1006762407,
				"y": 3.546009098,
				"z": -2.608755359,
				"element": "H" 
			},
			{
				"x": 1.5482159043,
				"y": 1.4437106412,
				"z": -2.592429697,
				"element": "H" 
			},
			{
				"x": -0.1199536746,
				"y": 0.939656936,
				"z": -2.9426263389,
				"element": "H" 
			},
			{
				"x": 1.5820266053,
				"y": -0.258834076,
				"z": 0.6367415757,
				"element": "H" 
			},
			{
				"x": 2.5461556183,
				"y": 0.4664139543,
				"z": -0.644773595,
				"element": "H" 
			},
			{
				"x": 2.429988336,
				"y": -2.0310888919,
				"z": -0.890182815,
				"element": "H" 
			},
			{
				"x": 1.693413292,
				"y": -1.2433691815,
				"z": -2.2746990501,
				"element": "H" 
			},
			{
				"x": 0.2304123393,
				"y": -3.0965670658,
				"z": -1.5057424622,
				"element": "H" 
			},
			{
				"x": 0.2008051864,
				"y": -2.4349232764,
				"z": 0.1249729613,
				"element": "H" 
			},
			{
				"x": -1.8875509266,
				"y": -1.7979444806,
				"z": -1.0495933185,
				"element": "H" 
			},
			{
				"x": -0.9726402314,
				"y": -1.128494131,
				"z": -2.3864729463,
				"element": "H" 
			},
			{
				"x": -1.7368704847,
				"y": 0.7146044612,
				"z": -0.8922298366,
				"element": "H" 
			},
			{
				"x": -1.0153704068,
				"y": -0.0794954531,
				"z": 0.5046223951,
				"element": "H" 
			}
		],
		 "valence_orbital": [ 
			{
				"type": "occ",
				"energy": -0.32629,
				"method": "rhf"
			},
			{
				"type": "occ",
				"energy": -0.32341,
				"method": "rhf"
			},
			{
				"type": "occ",
				"energy": -0.27824,
				"method": "rhf"
			},
			{
				"type": "occ",
				"energy": -0.267,
				"method": "rhf"
			},
			{
				"type": "occ",
				"energy": -0.25649,
				"method": "rhf"
			},
			{
				"type": "unocc",
				"energy": 0.05512,
				"method": "rhf"
			},
			{
				"type": "unocc",
				"energy": 0.06765,
				"method": "rhf"
			},
			{
				"type": "unocc",
				"energy": 0.07263,
				"method": "rhf"
			},
			{
				"type": "unocc",
				"energy": 0.09815,
				"method": "rhf"
			},
			{
				"type": "unocc",
				"energy": 0.11531,
				"method": "rhf"
			}
		],
		"cosmo_sigma_profile": { 
			"-0.025": 0.0,
			"-0.024": 0.0,
			"-0.023": 0.0,
			"-0.022": 0.0,
			"-0.021": 0.0,
			"-0.02": 0.0,
			"-0.019": 0.0,
			"-0.018": 0.0,
			"-0.017": 0.0,
			"-0.016": 0.0,
			"-0.015": 0.384311167937,
			"-0.014": 1.26415066016,
			"-0.013": 1.27663200521,
			"-0.012": 1.09019322007,
			"-0.011": 1.10796321209,
			"-0.01": 1.0739616393,
			"-0.009": 0.633941091129,
			"-0.008": 0.943735615975,
			"-0.007": 1.17785403983,
			"-0.006": 2.06064624932,
			"-0.005": 10.4861525162,
			"-0.004": 15.6159599341,
			"-0.003": 25.1176743411,
			"-0.002": 25.1155853908,
			"-0.001": 27.3193774389,
			"0.0": 23.3257540055,
			"0.001": 10.6786358121,
			"0.002": 3.38325141708,
			"0.003": 2.87213932862,
			"0.004": 2.95218665643,
			"0.005": 2.73138599777,
			"0.006": 2.96139872424,
			"0.007": 2.99187900403,
			"0.008": 1.92082779459,
			"0.009": 1.48337651188,
			"0.01": 3.65035028856,
			"0.011": 4.00620894587,
			"0.012": 3.65997308569,
			"0.013": 6.85310073974,
			"0.014": 3.0559426955,
			"0.015": 0.131428123312,
			"0.016": 0.0,
			"0.017": 0.0,
			"0.018": 0.0,
			"0.019": 0.0,
			"0.02": 0.0,
			"0.021": 0.0,
			"0.022": 0.0,
			"0.023": 0.0,
			"0.024": 0.0,
			"0.025": 0.0
		}
	}
}
