{
	 "smiles": "CCOC(=O)CC1=NNC2=CC=C(Cl)C=C12", 
	 "Tm": 350.15, 
	 "num_atms": 27, 
	 "gaussian": { 
		 "optdone": 1, 
		 "sigma_profile": "yes", 
		 "theory": "DFT", 
		 "functional": "B3LYP", 
		 "basiset": "6-31G**", 
		 "properties": { 
			 "R2extent": 5763.1776, 
			 "electric_dipole_moment_norm": 3.33027415388, 
			 "electric_quadrupole_moment_norm": 23.2015496644, 
			 "total_energy": -1145.95056944, 
			 "HOMO_LUMO_gap": 0.18347, 
			 "cosmo_polarized_energy": -13.5, 
			 "cosmo_cavitation_energy": 33.53, 
			 "cosmo_dispersion_energy": -24.31, 
			 "cosmo_repulsion_energy": 1.95, 
			 "cosmo_total_nonelectrostatic_energy": 11.17, 
			 "SMD_solvation_energy": 5.13 
		},
		"coords": [
			{
				"x": -0.0796251791,
				"y": 3.3124243909,
				"z": 3.0367113951,
				"element": "C" 
			},
			{
				"x": 0.8354691751,
				"y": 2.2221748147,
				"z": 2.5136721832,
				"element": "C" 
			},
			{
				"x": -0.0042348787,
				"y": 1.1397549393,
				"z": 2.0412610532,
				"element": "O" 
			},
			{
				"x": 0.6406032427,
				"y": 0.0750506817,
				"z": 1.5324710577,
				"element": "C" 
			},
			{
				"x": 1.8496374415,
				"y": -0.0193460437,
				"z": 1.4719506305,
				"element": "O" 
			},
			{
				"x": -0.3312024533,
				"y": -0.9854192048,
				"z": 1.0326564033,
				"element": "C" 
			},
			{
				"x": -0.4531359312,
				"y": -0.9849568579,
				"z": -0.4667853143,
				"element": "C" 
			},
			{
				"x": -1.6340095047,
				"y": -0.7983323461,
				"z": -1.0341945356,
				"element": "N" 
			},
			{
				"x": -1.4322172122,
				"y": -0.8885143884,
				"z": -2.3748129211,
				"element": "N" 
			},
			{
				"x": -0.1257626397,
				"y": -1.1367626352,
				"z": -2.6935890812,
				"element": "C" 
			},
			{
				"x": 0.5295413675,
				"y": -1.3119912211,
				"z": -3.9225469516,
				"element": "C" 
			},
			{
				"x": 1.8921855333,
				"y": -1.5578665675,
				"z": -3.884747655,
				"element": "C" 
			},
			{
				"x": 2.5820450137,
				"y": -1.6210339901,
				"z": -2.6517284205,
				"element": "C" 
			},
			{
				"x": 4.3165274241,
				"y": -1.9292794709,
				"z": -2.6892835623,
				"element": "Cl" 
			},
			{
				"x": 1.9499255551,
				"y": -1.4455126895,
				"z": -1.4338454993,
				"element": "C" 
			},
			{
				"x": 0.5632713084,
				"y": -1.2036833114,
				"z": -1.4576497064,
				"element": "C" 
			},
			{
				"x": -0.6971596359,
				"y": 2.9436027933,
				"z": 3.8606854439,
				"element": "H" 
			},
			{
				"x": -0.7418155094,
				"y": 3.6792275476,
				"z": 2.2473562605,
				"element": "H" 
			},
			{
				"x": 0.5178943454,
				"y": 4.1527368852,
				"z": 3.4036392683,
				"element": "H" 
			},
			{
				"x": 1.4598950948,
				"y": 2.5682796802,
				"z": 1.684230769,
				"element": "H" 
			},
			{
				"x": 1.5035827788,
				"y": 1.834976722,
				"z": 3.2892216418,
				"element": "H" 
			},
			{
				"x": 0.0543307271,
				"y": -1.952394216,
				"z": 1.3754593261,
				"element": "H" 
			},
			{
				"x": -1.3214982352,
				"y": -0.8238384252,
				"z": 1.4606771074,
				"element": "H" 
			},
			{
				"x": -2.2203611892,
				"y": -0.7842281321,
				"z": -2.9927992851,
				"element": "H" 
			},
			{
				"x": -0.0006053846,
				"y": -1.2601839774,
				"z": -4.8682176702,
				"element": "H" 
			},
			{
				"x": 2.446370125,
				"y": -1.7018185363,
				"z": -4.8054937128,
				"element": "H" 
			},
			{
				"x": 2.4969486207,
				"y": -1.4670664412,
				"z": -0.4989982245,
				"element": "H" 
			}
		],
		 "valence_orbital": [ 
			{
				"type": "occ",
				"energy": -0.29728,
				"method": "rhf"
			},
			{
				"type": "occ",
				"energy": -0.29304,
				"method": "rhf"
			},
			{
				"type": "occ",
				"energy": -0.27438,
				"method": "rhf"
			},
			{
				"type": "occ",
				"energy": -0.24399,
				"method": "rhf"
			},
			{
				"type": "occ",
				"energy": -0.22123,
				"method": "rhf"
			},
			{
				"type": "unocc",
				"energy": -0.03776,
				"method": "rhf"
			},
			{
				"type": "unocc",
				"energy": 0.00536,
				"method": "rhf"
			},
			{
				"type": "unocc",
				"energy": 0.00998,
				"method": "rhf"
			},
			{
				"type": "unocc",
				"energy": 0.03595,
				"method": "rhf"
			},
			{
				"type": "unocc",
				"energy": 0.05235,
				"method": "rhf"
			}
		],
		"cosmo_sigma_profile": { 
			"-0.025": 0.0,
			"-0.024": 0.0,
			"-0.023": 0.0,
			"-0.022": 0.0,
			"-0.021": 0.0,
			"-0.02": 0.0,
			"-0.019": 0.0,
			"-0.018": 0.0,
			"-0.017": 0.532792119012,
			"-0.016": 1.57561381052,
			"-0.015": 1.48128740795,
			"-0.014": 1.50909935565,
			"-0.013": 0.710764806761,
			"-0.012": 0.600659249753,
			"-0.011": 1.6527030992,
			"-0.01": 1.2677463419,
			"-0.009": 1.21941344087,
			"-0.008": 2.15951482537,
			"-0.007": 6.39253934384,
			"-0.006": 8.27582097216,
			"-0.005": 15.2401309605,
			"-0.004": 21.1412205347,
			"-0.003": 21.8303338867,
			"-0.002": 19.412537672,
			"-0.001": 17.8164136906,
			"0.0": 19.3745285232,
			"0.001": 19.1439266068,
			"0.002": 25.7287968057,
			"0.003": 24.701549056,
			"0.004": 15.8696600171,
			"0.005": 13.9905634511,
			"0.006": 5.5468899087,
			"0.007": 3.93619855117,
			"0.008": 3.73920908169,
			"0.009": 3.42732124911,
			"0.01": 1.99453359716,
			"0.011": 3.77133409242,
			"0.012": 2.93986777673,
			"0.013": 0.958829555207,
			"0.014": 1.02884556378,
			"0.015": 0.285332578721,
			"0.016": 0.0,
			"0.017": 0.0,
			"0.018": 0.0,
			"0.019": 0.0,
			"0.02": 0.0,
			"0.021": 0.0,
			"0.022": 0.0,
			"0.023": 0.0,
			"0.024": 0.0,
			"0.025": 0.0
		}
	}
}
