{
	 "smiles": "COC1=C(OC)C=C(CN2CCNCC2)C=C1", 
	 "Tm": 306.65, 
	 "num_atms": 37, 
	 "gaussian": { 
		 "optdone": 1, 
		 "sigma_profile": "yes", 
		 "theory": "DFT", 
		 "functional": "B3LYP", 
		 "basiset": "6-31G**", 
		 "properties": { 
			 "R2extent": 5682.2968, 
			 "electric_dipole_moment_norm": 1.544081209, 
			 "electric_quadrupole_moment_norm": 21.7608332853, 
			 "total_energy": -767.331321221, 
			 "HOMO_LUMO_gap": 0.20479, 
			 "cosmo_polarized_energy": -11.25, 
			 "cosmo_cavitation_energy": 37.6, 
			 "cosmo_dispersion_energy": -26.53, 
			 "cosmo_repulsion_energy": 2.08, 
			 "cosmo_total_nonelectrostatic_energy": 13.15, 
			 "SMD_solvation_energy": 2.72 
		},
		"coords": [
			{
				"x": 4.1254711919,
				"y": 2.5136154224,
				"z": 0.4142087499,
				"element": "C" 
			},
			{
				"x": 3.4691016579,
				"y": 1.6904319398,
				"z": 1.3803750743,
				"element": "O" 
			},
			{
				"x": 2.3108694299,
				"y": 1.0810150483,
				"z": 0.963144374,
				"element": "C" 
			},
			{
				"x": 1.1343634554,
				"y": 1.8206206849,
				"z": 0.7008806452,
				"element": "C" 
			},
			{
				"x": 1.2346662922,
				"y": 3.1764588503,
				"z": 0.8450281346,
				"element": "O" 
			},
			{
				"x": 0.0728882648,
				"y": 3.9612019193,
				"z": 0.6308939073,
				"element": "C" 
			},
			{
				"x": -0.0336721851,
				"y": 1.1461322631,
				"z": 0.3382680693,
				"element": "C" 
			},
			{
				"x": -0.0664222679,
				"y": -0.2551745374,
				"z": 0.238535617,
				"element": "C" 
			},
			{
				"x": -1.3457257804,
				"y": -0.965998537,
				"z": -0.1885808457,
				"element": "C" 
			},
			{
				"x": -1.577793607,
				"y": -1.1203309954,
				"z": -1.6277193933,
				"element": "N" 
			},
			{
				"x": -1.8108184119,
				"y": 0.1131040041,
				"z": -2.3715700079,
				"element": "C" 
			},
			{
				"x": -2.5179395053,
				"y": -0.2402178734,
				"z": -3.7135625527,
				"element": "C" 
			},
			{
				"x": -2.2759439524,
				"y": -1.6197050008,
				"z": -4.1556202733,
				"element": "N" 
			},
			{
				"x": -0.9075125224,
				"y": -2.0162809366,
				"z": -3.8295982836,
				"element": "C" 
			},
			{
				"x": -0.6087893936,
				"y": -1.9855563371,
				"z": -2.3040276038,
				"element": "C" 
			},
			{
				"x": 1.0973655838,
				"y": -0.9733527487,
				"z": 0.5218236777,
				"element": "C" 
			},
			{
				"x": 2.2740908375,
				"y": -0.3064720204,
				"z": 0.8738734392,
				"element": "C" 
			},
			{
				"x": 4.3918031459,
				"y": 1.9331390802,
				"z": -0.4790810847,
				"element": "H" 
			},
			{
				"x": 3.5053653791,
				"y": 3.3665448,
				"z": 0.1233316376,
				"element": "H" 
			},
			{
				"x": 5.0390012897,
				"y": 2.8735261996,
				"z": 0.8924484821,
				"element": "H" 
			},
			{
				"x": -0.3007162951,
				"y": 3.8632354856,
				"z": -0.3967870713,
				"element": "H" 
			},
			{
				"x": -0.7295717846,
				"y": 3.6937207979,
				"z": 1.3301791926,
				"element": "H" 
			},
			{
				"x": 0.3718815562,
				"y": 4.9956414641,
				"z": 0.8071903265,
				"element": "H" 
			},
			{
				"x": -0.942846586,
				"y": 1.7056380762,
				"z": 0.1476734808,
				"element": "H" 
			},
			{
				"x": -2.2117769089,
				"y": -0.4323020344,
				"z": 0.222810002,
				"element": "H" 
			},
			{
				"x": -1.35244107,
				"y": -1.9730120775,
				"z": 0.2477133187,
				"element": "H" 
			},
			{
				"x": -2.451768442,
				"y": 0.7693540396,
				"z": -1.7714244053,
				"element": "H" 
			},
			{
				"x": -0.8777485183,
				"y": 0.6756704468,
				"z": -2.5614430735,
				"element": "H" 
			},
			{
				"x": -3.6001342261,
				"y": -0.1058454,
				"z": -3.6192345883,
				"element": "H" 
			},
			{
				"x": -2.1757343467,
				"y": 0.4494913802,
				"z": -4.496694505,
				"element": "H" 
			},
			{
				"x": -2.9069793214,
				"y": -2.2261413413,
				"z": -3.636795082,
				"element": "H" 
			},
			{
				"x": -0.232836434,
				"y": -1.3308828278,
				"z": -4.3573124536,
				"element": "H" 
			},
			{
				"x": -0.7113889892,
				"y": -3.0163278856,
				"z": -4.2302390634,
				"element": "H" 
			},
			{
				"x": 0.4361507674,
				"y": -1.6649380081,
				"z": -2.1402910512,
				"element": "H" 
			},
			{
				"x": -0.7040562824,
				"y": -2.9918064191,
				"z": -1.8726945345,
				"element": "H" 
			},
			{
				"x": 1.088424989,
				"y": -2.058886067,
				"z": 0.4739645991,
				"element": "H" 
			},
			{
				"x": 3.1847729902,
				"y": -0.8518108546,
				"z": 1.1014331451,
				"element": "H" 
			}
		],
		 "valence_orbital": [ 
			{
				"type": "occ",
				"energy": -0.2703,
				"method": "rhf"
			},
			{
				"type": "occ",
				"energy": -0.23748,
				"method": "rhf"
			},
			{
				"type": "occ",
				"energy": -0.21709,
				"method": "rhf"
			},
			{
				"type": "occ",
				"energy": -0.21162,
				"method": "rhf"
			},
			{
				"type": "occ",
				"energy": -0.20298,
				"method": "rhf"
			},
			{
				"type": "unocc",
				"energy": 0.00181,
				"method": "rhf"
			},
			{
				"type": "unocc",
				"energy": 0.01112,
				"method": "rhf"
			},
			{
				"type": "unocc",
				"energy": 0.07308,
				"method": "rhf"
			},
			{
				"type": "unocc",
				"energy": 0.0915,
				"method": "rhf"
			},
			{
				"type": "unocc",
				"energy": 0.09758,
				"method": "rhf"
			}
		],
		"cosmo_sigma_profile": { 
			"-0.025": 0.0,
			"-0.024": 0.0,
			"-0.023": 0.0,
			"-0.022": 0.0,
			"-0.021": 0.0,
			"-0.02": 0.0,
			"-0.019": 0.0,
			"-0.018": 0.0,
			"-0.017": 0.0,
			"-0.016": 0.0,
			"-0.015": 0.0,
			"-0.014": 0.0,
			"-0.013": 0.0,
			"-0.012": 0.0,
			"-0.011": 0.0,
			"-0.01": 0.0,
			"-0.009": 0.351056147661,
			"-0.008": 1.4310241236,
			"-0.007": 1.02626143497,
			"-0.006": 6.04117299994,
			"-0.005": 18.5828715161,
			"-0.004": 28.1193343677,
			"-0.003": 42.7208404717,
			"-0.002": 38.9073683325,
			"-0.001": 32.0210094769,
			"0.0": 25.1323373833,
			"0.001": 15.2355383957,
			"0.002": 13.1305926904,
			"0.003": 13.1578741638,
			"0.004": 13.3844939111,
			"0.005": 10.9307652345,
			"0.006": 8.063138439,
			"0.007": 3.24347680633,
			"0.008": 3.57324821528,
			"0.009": 3.673721715,
			"0.01": 3.39526522273,
			"0.011": 3.90930249437,
			"0.012": 2.67707517102,
			"0.013": 1.04912526191,
			"0.014": 0.671798193713,
			"0.015": 0.63610414544,
			"0.016": 0.556910625565,
			"0.017": 0.856915115788,
			"0.018": 0.50544933746,
			"0.019": 0.35499140755,
			"0.02": 0.0,
			"0.021": 0.0,
			"0.022": 0.0,
			"0.023": 0.0,
			"0.024": 0.0,
			"0.025": 0.0
		}
	}
}
