{
	 "smiles": "CC(=O)O[Si](C)(OC(C)=O)OC(C)=O", 
	 "Tm": 314.95, 
	 "num_atms": 26, 
	 "gaussian": { 
		 "optdone": 1, 
		 "sigma_profile": "yes", 
		 "theory": "DFT", 
		 "functional": "B3LYP", 
		 "basiset": "6-31G**", 
		 "properties": { 
			 "R2extent": 3927.1244, 
			 "electric_dipole_moment_norm": 1.67250402391, 
			 "electric_quadrupole_moment_norm": 9.92174295525, 
			 "total_energy": -1015.01749357, 
			 "HOMO_LUMO_gap": 0.27083, 
			 "cosmo_polarized_energy": -13.66, 
			 "cosmo_cavitation_energy": 33.35, 
			 "cosmo_dispersion_energy": -20.65, 
			 "cosmo_repulsion_energy": 1.8, 
			 "cosmo_total_nonelectrostatic_energy": 14.5, 
			 "SMD_solvation_energy": 9.63 
		},
		"coords": [
			{
				"x": -0.5684793943,
				"y": -1.3331349501,
				"z": 1.8568414567,
				"element": "C" 
			},
			{
				"x": 0.1552563847,
				"y": -1.3405212797,
				"z": 0.5377695654,
				"element": "C" 
			},
			{
				"x": 1.1050940179,
				"y": -2.0384361997,
				"z": 0.254652029,
				"element": "O" 
			},
			{
				"x": -0.3738461943,
				"y": -0.4444691224,
				"z": -0.3373729217,
				"element": "O" 
			},
			{
				"x": 0.3359996663,
				"y": -0.15655691,
				"z": -1.8377041919,
				"element": "Si" 
			},
			{
				"x": 0.2030816371,
				"y": -1.5626377854,
				"z": -3.0296855177,
				"element": "C" 
			},
			{
				"x": 1.9630700991,
				"y": 0.2458843056,
				"z": -1.7285397604,
				"element": "O" 
			},
			{
				"x": 2.5413825525,
				"y": 0.9990756025,
				"z": -0.747837996,
				"element": "C" 
			},
			{
				"x": 4.0335025458,
				"y": 1.092640315,
				"z": -0.9361915449,
				"element": "C" 
			},
			{
				"x": 1.9124002257,
				"y": 1.5073083763,
				"z": 0.1499140553,
				"element": "O" 
			},
			{
				"x": -0.387656913,
				"y": 1.2734155858,
				"z": -2.3729936524,
				"element": "O" 
			},
			{
				"x": -1.7170425346,
				"y": 1.352041431,
				"z": -2.6574672168,
				"element": "C" 
			},
			{
				"x": -2.129621135,
				"y": 2.7544547947,
				"z": -3.0214799793,
				"element": "C" 
			},
			{
				"x": -2.4522296485,
				"y": 0.3910920869,
				"z": -2.6142631643,
				"element": "O" 
			},
			{
				"x": -0.1695555532,
				"y": -2.1152212363,
				"z": 2.5018378805,
				"element": "H" 
			},
			{
				"x": -0.4365381599,
				"y": -0.3546467199,
				"z": 2.3291344834,
				"element": "H" 
			},
			{
				"x": -1.6407620029,
				"y": -1.4772986069,
				"z": 1.6979952891,
				"element": "H" 
			},
			{
				"x": 0.6837360716,
				"y": -2.4480137242,
				"z": -2.6048919893,
				"element": "H" 
			},
			{
				"x": 0.7007560713,
				"y": -1.3158544721,
				"z": -3.9725499079,
				"element": "H" 
			},
			{
				"x": -0.846904494,
				"y": -1.7845330079,
				"z": -3.2337662524,
				"element": "H" 
			},
			{
				"x": 4.4624800914,
				"y": 1.7314184351,
				"z": -0.164984853,
				"element": "H" 
			},
			{
				"x": 4.2612942508,
				"y": 1.4915157007,
				"z": -1.9289249758,
				"element": "H" 
			},
			{
				"x": 4.4707953322,
				"y": 0.091106689,
				"z": -0.8795034761,
				"element": "H" 
			},
			{
				"x": -1.5298014172,
				"y": 3.1134779124,
				"z": -3.8629160528,
				"element": "H" 
			},
			{
				"x": -3.1883062564,
				"y": 2.7723224393,
				"z": -3.2776332121,
				"element": "H" 
			},
			{
				"x": -1.935705243,
				"y": 3.4231703404,
				"z": -2.1773380947,
				"element": "H" 
			}
		],
		 "valence_orbital": [ 
			{
				"type": "occ",
				"energy": -0.32213,
				"method": "rhf"
			},
			{
				"type": "occ",
				"energy": -0.32063,
				"method": "rhf"
			},
			{
				"type": "occ",
				"energy": -0.28251,
				"method": "rhf"
			},
			{
				"type": "occ",
				"energy": -0.27738,
				"method": "rhf"
			},
			{
				"type": "occ",
				"energy": -0.27571,
				"method": "rhf"
			},
			{
				"type": "unocc",
				"energy": -0.00488,
				"method": "rhf"
			},
			{
				"type": "unocc",
				"energy": -0.00297,
				"method": "rhf"
			},
			{
				"type": "unocc",
				"energy": 0.00342,
				"method": "rhf"
			},
			{
				"type": "unocc",
				"energy": 0.0766,
				"method": "rhf"
			},
			{
				"type": "unocc",
				"energy": 0.08732,
				"method": "rhf"
			}
		],
		"cosmo_sigma_profile": { 
			"-0.025": 0.0,
			"-0.024": 0.0,
			"-0.023": 0.0,
			"-0.022": 0.0,
			"-0.021": 0.0,
			"-0.02": 0.0,
			"-0.019": 0.0,
			"-0.018": 0.0,
			"-0.017": 0.0,
			"-0.016": 0.0,
			"-0.015": 0.0,
			"-0.014": 0.0,
			"-0.013": 0.0,
			"-0.012": 0.0,
			"-0.011": 0.0,
			"-0.01": 0.0,
			"-0.009": 0.0,
			"-0.008": 0.218535577018,
			"-0.007": 9.89909905338,
			"-0.006": 19.9771659058,
			"-0.005": 21.5815049453,
			"-0.004": 24.1822685945,
			"-0.003": 30.43149174,
			"-0.002": 32.5426915745,
			"-0.001": 16.8357603166,
			"0.0": 10.9236681425,
			"0.001": 9.78392366798,
			"0.002": 9.36847351018,
			"0.003": 6.83450082991,
			"0.004": 7.98673181049,
			"0.005": 9.05026221314,
			"0.006": 7.29070010814,
			"0.007": 8.13245241988,
			"0.008": 5.71359959804,
			"0.009": 6.27444846187,
			"0.01": 8.53386390008,
			"0.011": 9.80319261494,
			"0.012": 3.92871456123,
			"0.013": 0.0370971455768,
			"0.014": 0.0,
			"0.015": 0.0,
			"0.016": 0.0,
			"0.017": 0.0,
			"0.018": 0.0,
			"0.019": 0.0,
			"0.02": 0.0,
			"0.021": 0.0,
			"0.022": 0.0,
			"0.023": 0.0,
			"0.024": 0.0,
			"0.025": 0.0
		}
	}
}
