{
	 "smiles": "NS(=O)(=O)C1=CC=C(C=C1)C1=CC=C(O1)C=O", 
	 "Tm": 473.15, 
	 "num_atms": 26, 
	 "gaussian": { 
		 "optdone": 1, 
		 "sigma_profile": "yes", 
		 "theory": "DFT", 
		 "functional": "B3LYP", 
		 "basiset": "6-31G**", 
		 "properties": { 
			 "R2extent": 6828.112, 
			 "electric_dipole_moment_norm": 6.64064767549, 
			 "electric_quadrupole_moment_norm": 32.5702755426, 
			 "total_energy": -1178.33097799, 
			 "HOMO_LUMO_gap": 0.15018, 
			 "cosmo_polarized_energy": -25.74, 
			 "cosmo_cavitation_energy": 33.55, 
			 "cosmo_dispersion_energy": -24.62, 
			 "cosmo_repulsion_energy": 1.84, 
			 "cosmo_total_nonelectrostatic_energy": 10.77, 
			 "SMD_solvation_energy": 6.91 
		},
		"coords": [
			{
				"x": 3.2452126095,
				"y": -3.1131228153,
				"z": 1.111746416,
				"element": "N" 
			},
			{
				"x": 2.598176011,
				"y": -2.1645773697,
				"z": 2.3383548647,
				"element": "S" 
			},
			{
				"x": 1.8639841331,
				"y": -3.0863503859,
				"z": 3.2021504166,
				"element": "O" 
			},
			{
				"x": 3.6991220684,
				"y": -1.3271004701,
				"z": 2.8103918504,
				"element": "O" 
			},
			{
				"x": 1.3909191016,
				"y": -1.073656705,
				"z": 1.5704593375,
				"element": "C" 
			},
			{
				"x": 0.0690967087,
				"y": -1.5013747695,
				"z": 1.4218601031,
				"element": "C" 
			},
			{
				"x": -0.8558606695,
				"y": -0.6664450094,
				"z": 0.8039492815,
				"element": "C" 
			},
			{
				"x": -0.4696228713,
				"y": 0.6036498748,
				"z": 0.3361216473,
				"element": "C" 
			},
			{
				"x": 0.863062706,
				"y": 1.0210359506,
				"z": 0.5098248691,
				"element": "C" 
			},
			{
				"x": 1.7912804481,
				"y": 0.1892799579,
				"z": 1.1250703035,
				"element": "C" 
			},
			{
				"x": -1.4388182787,
				"y": 1.4787274137,
				"z": -0.3097844137,
				"element": "C" 
			},
			{
				"x": -1.3644409956,
				"y": 2.7618480939,
				"z": -0.8144609289,
				"element": "C" 
			},
			{
				"x": -2.6512429171,
				"y": 3.0699914115,
				"z": -1.3191294926,
				"element": "C" 
			},
			{
				"x": -3.4373398042,
				"y": 1.9621940765,
				"z": -1.0961753886,
				"element": "C" 
			},
			{
				"x": -2.6968822376,
				"y": 0.9924539229,
				"z": -0.4807299114,
				"element": "O" 
			},
			{
				"x": -4.8352878633,
				"y": 1.6980569726,
				"z": -1.4026684894,
				"element": "C" 
			},
			{
				"x": -5.421147639,
				"y": 0.6595462717,
				"z": -1.1551603403,
				"element": "O" 
			},
			{
				"x": 3.7761124535,
				"y": -2.579523972,
				"z": 0.4310963236,
				"element": "H" 
			},
			{
				"x": 2.5675820797,
				"y": -3.7418473524,
				"z": 0.6928444396,
				"element": "H" 
			},
			{
				"x": -0.2317763873,
				"y": -2.4691173502,
				"z": 1.8089620367,
				"element": "H" 
			},
			{
				"x": -1.8850124139,
				"y": -0.9867316208,
				"z": 0.6876184691,
				"element": "H" 
			},
			{
				"x": 1.1741995336,
				"y": 2.0027641708,
				"z": 0.167614778,
				"element": "H" 
			},
			{
				"x": 2.8133711408,
				"y": 0.5163695177,
				"z": 1.2825357101,
				"element": "H" 
			},
			{
				"x": -0.4954390947,
				"y": 3.402919243,
				"z": -0.8172757202,
				"element": "H" 
			},
			{
				"x": -2.9690476921,
				"y": 3.9903576181,
				"z": -1.7888900354,
				"element": "H" 
			},
			{
				"x": -5.3382001295,
				"y": 2.5553533247,
				"z": -1.8996261263,
				"element": "H" 
			}
		],
		 "valence_orbital": [ 
			{
				"type": "occ",
				"energy": -0.30801,
				"method": "rhf"
			},
			{
				"type": "occ",
				"energy": -0.29656,
				"method": "rhf"
			},
			{
				"type": "occ",
				"energy": -0.28445,
				"method": "rhf"
			},
			{
				"type": "occ",
				"energy": -0.26447,
				"method": "rhf"
			},
			{
				"type": "occ",
				"energy": -0.23913,
				"method": "rhf"
			},
			{
				"type": "unocc",
				"energy": -0.08895,
				"method": "rhf"
			},
			{
				"type": "unocc",
				"energy": -0.04279,
				"method": "rhf"
			},
			{
				"type": "unocc",
				"energy": -0.03291,
				"method": "rhf"
			},
			{
				"type": "unocc",
				"energy": 0.03085,
				"method": "rhf"
			},
			{
				"type": "unocc",
				"energy": 0.04582,
				"method": "rhf"
			}
		],
		"cosmo_sigma_profile": { 
			"-0.025": 0.0,
			"-0.024": 0.0,
			"-0.023": 0.0,
			"-0.022": 0.0,
			"-0.021": 0.0,
			"-0.02": 0.0,
			"-0.019": 0.0,
			"-0.018": 0.0,
			"-0.017": 0.0,
			"-0.016": 0.129415255361,
			"-0.015": 2.44191734778,
			"-0.014": 2.6913111046,
			"-0.013": 2.98701405396,
			"-0.012": 2.9892553355,
			"-0.011": 2.58101314532,
			"-0.01": 2.8444484077,
			"-0.009": 6.65449655541,
			"-0.008": 10.2141330971,
			"-0.007": 14.0454274317,
			"-0.006": 14.3107458052,
			"-0.005": 11.9353126647,
			"-0.004": 11.8723538781,
			"-0.003": 10.6459875618,
			"-0.002": 11.4144705595,
			"-0.001": 20.1759219662,
			"0.0": 21.7889037005,
			"0.001": 22.7637114282,
			"0.002": 20.3199632399,
			"0.003": 6.65656349114,
			"0.004": 4.08233175217,
			"0.005": 5.25809831515,
			"0.006": 4.99458141699,
			"0.007": 6.36152940052,
			"0.008": 7.38411186317,
			"0.009": 6.55612203809,
			"0.01": 10.2657722672,
			"0.011": 14.872761336,
			"0.012": 8.8071081536,
			"0.013": 1.7338850179,
			"0.014": 0.032656167502,
			"0.015": 0.0,
			"0.016": 0.0,
			"0.017": 0.0,
			"0.018": 0.0,
			"0.019": 0.0,
			"0.02": 0.0,
			"0.021": 0.0,
			"0.022": 0.0,
			"0.023": 0.0,
			"0.024": 0.0,
			"0.025": 0.0
		}
	}
}
