{
	 "smiles": "O=C1C2=C(NC3=C1C=CC=C3)C=CC=C2", 
	 "Tm": 634.15, 
	 "num_atms": 24, 
	 "gaussian": { 
		 "optdone": 1, 
		 "sigma_profile": "yes", 
		 "theory": "DFT", 
		 "functional": "B3LYP", 
		 "basiset": "6-31G**", 
		 "properties": { 
			 "R2extent": 3869.6684, 
			 "electric_dipole_moment_norm": 4.92778150997, 
			 "electric_quadrupole_moment_norm": 14.7196030582, 
			 "total_energy": -630.815315572, 
			 "HOMO_LUMO_gap": 0.15113, 
			 "cosmo_polarized_energy": -15.47, 
			 "cosmo_cavitation_energy": 27.73, 
			 "cosmo_dispersion_energy": -20.97, 
			 "cosmo_repulsion_energy": 1.58, 
			 "cosmo_total_nonelectrostatic_energy": 8.34, 
			 "SMD_solvation_energy": 4.64 
		},
		"coords": [
			{
				"x": 0.7157234181,
				"y": 1.2417318627,
				"z": 0.2929360053,
				"element": "O" 
			},
			{
				"x": -0.3541911061,
				"y": 0.6467553278,
				"z": 0.1487182459,
				"element": "C" 
			},
			{
				"x": -0.9999463295,
				"y": 0.4934757893,
				"z": -1.1727222643,
				"element": "C" 
			},
			{
				"x": -2.2264856979,
				"y": -0.1946865194,
				"z": -1.3042300531,
				"element": "C" 
			},
			{
				"x": -2.8328346982,
				"y": -0.7323312264,
				"z": -0.1855482219,
				"element": "N" 
			},
			{
				"x": -2.3022701456,
				"y": -0.6378925454,
				"z": 1.0863620556,
				"element": "C" 
			},
			{
				"x": -1.0778192129,
				"y": 0.0376805954,
				"z": 1.2854109418,
				"element": "C" 
			},
			{
				"x": -0.5500856076,
				"y": 0.1259312081,
				"z": 2.5851727137,
				"element": "C" 
			},
			{
				"x": -1.2115412409,
				"y": -0.4372342678,
				"z": 3.6641454802,
				"element": "C" 
			},
			{
				"x": -2.4298497714,
				"y": -1.1073394604,
				"z": 3.4545742605,
				"element": "C" 
			},
			{
				"x": -2.9742141248,
				"y": -1.2101647179,
				"z": 2.1841806011,
				"element": "C" 
			},
			{
				"x": -2.8233417152,
				"y": -0.3282695878,
				"z": -2.5731423023,
				"element": "C" 
			},
			{
				"x": -2.2034103958,
				"y": 0.2165608357,
				"z": -3.686542722,
				"element": "C" 
			},
			{
				"x": -0.9823214997,
				"y": 0.9035240041,
				"z": -3.5671594191,
				"element": "C" 
			},
			{
				"x": -0.3946575599,
				"y": 1.0354233961,
				"z": -2.3197177992,
				"element": "C" 
			},
			{
				"x": -3.7089423255,
				"y": -1.2193927191,
				"z": -0.303612906,
				"element": "H" 
			},
			{
				"x": 0.3919976989,
				"y": 0.6520387378,
				"z": 2.7003576228,
				"element": "H" 
			},
			{
				"x": -0.7965072024,
				"y": -0.3640538617,
				"z": 4.6643294602,
				"element": "H" 
			},
			{
				"x": -2.9550132125,
				"y": -1.5517660119,
				"z": 4.2952475325,
				"element": "H" 
			},
			{
				"x": -3.9165704918,
				"y": -1.7294141655,
				"z": 2.0270642821,
				"element": "H" 
			},
			{
				"x": -3.7675448296,
				"y": -0.8586991515,
				"z": -2.6704434904,
				"element": "H" 
			},
			{
				"x": -2.6709586847,
				"y": 0.1085982669,
				"z": -4.6611124133,
				"element": "H" 
			},
			{
				"x": -0.507675384,
				"y": 1.3253422343,
				"z": -4.4473625433,
				"element": "H" 
			},
			{
				"x": 0.546660119,
				"y": 1.5571819766,
				"z": -2.1809050667,
				"element": "H" 
			}
		],
		 "valence_orbital": [ 
			{
				"type": "occ",
				"energy": -0.26352,
				"method": "rhf"
			},
			{
				"type": "occ",
				"energy": -0.25574,
				"method": "rhf"
			},
			{
				"type": "occ",
				"energy": -0.25522,
				"method": "rhf"
			},
			{
				"type": "occ",
				"energy": -0.23508,
				"method": "rhf"
			},
			{
				"type": "occ",
				"energy": -0.20687,
				"method": "rhf"
			},
			{
				"type": "unocc",
				"energy": -0.05574,
				"method": "rhf"
			},
			{
				"type": "unocc",
				"energy": -0.01713,
				"method": "rhf"
			},
			{
				"type": "unocc",
				"energy": -0.00303,
				"method": "rhf"
			},
			{
				"type": "unocc",
				"energy": 0.0205,
				"method": "rhf"
			},
			{
				"type": "unocc",
				"energy": 0.06443,
				"method": "rhf"
			}
		],
		"cosmo_sigma_profile": { 
			"-0.025": 0.0,
			"-0.024": 0.0,
			"-0.023": 0.0,
			"-0.022": 0.0,
			"-0.021": 0.0,
			"-0.02": 0.0,
			"-0.019": 0.0,
			"-0.018": 0.0,
			"-0.017": 0.0,
			"-0.016": 0.749682604539,
			"-0.015": 1.64384810193,
			"-0.014": 1.38306387107,
			"-0.013": 1.78276756251,
			"-0.012": 1.50616839427,
			"-0.011": 1.66337857851,
			"-0.01": 1.28695180206,
			"-0.009": 1.52252659547,
			"-0.008": 2.96576034333,
			"-0.007": 4.23820380113,
			"-0.006": 11.5124481161,
			"-0.005": 15.3311971465,
			"-0.004": 14.9081150855,
			"-0.003": 12.3595122221,
			"-0.002": 12.0522316862,
			"-0.001": 12.9954948739,
			"0.0": 13.9327832976,
			"0.001": 18.3032005825,
			"0.002": 18.7457599246,
			"0.003": 22.4529412506,
			"0.004": 22.3437802808,
			"0.005": 9.54042414403,
			"0.006": 2.15352998762,
			"0.007": 1.86467090111,
			"0.008": 1.51676754631,
			"0.009": 1.52523741624,
			"0.01": 1.67175901764,
			"0.011": 1.80643516667,
			"0.012": 2.10086344482,
			"0.013": 3.82754142558,
			"0.014": 3.6132268538,
			"0.015": 0.0,
			"0.016": 0.0,
			"0.017": 0.0,
			"0.018": 0.0,
			"0.019": 0.0,
			"0.02": 0.0,
			"0.021": 0.0,
			"0.022": 0.0,
			"0.023": 0.0,
			"0.024": 0.0,
			"0.025": 0.0
		}
	}
}
