{
	 "smiles": "CCOC(=O)C1=CC=CC(N)=C1", 
	 "Tm": 302.15, 
	 "num_atms": 23, 
	 "gaussian": { 
		 "optdone": 1, 
		 "sigma_profile": "yes", 
		 "theory": "DFT", 
		 "functional": "B3LYP", 
		 "basiset": "6-31G**", 
		 "properties": { 
			 "R2extent": 3784.9459, 
			 "electric_dipole_moment_norm": 3.38561586273, 
			 "electric_quadrupole_moment_norm": 16.20088395, 
			 "total_energy": -554.809945868, 
			 "HOMO_LUMO_gap": 0.17043, 
			 "cosmo_polarized_energy": -11.85, 
			 "cosmo_cavitation_energy": 27.01, 
			 "cosmo_dispersion_energy": -19.81, 
			 "cosmo_repulsion_energy": 1.61, 
			 "cosmo_total_nonelectrostatic_energy": 8.81, 
			 "SMD_solvation_energy": 5.71 
		},
		"coords": [
			{
				"x": 0.8296263731,
				"y": 1.0498413644,
				"z": 1.8244659678,
				"element": "C" 
			},
			{
				"x": 0.4690461808,
				"y": 1.413513846,
				"z": 0.3915168471,
				"element": "C" 
			},
			{
				"x": 0.0856206801,
				"y": 0.2449753625,
				"z": -0.3689360034,
				"element": "O" 
			},
			{
				"x": 1.0933521853,
				"y": -0.4636931799,
				"z": -0.9337232757,
				"element": "C" 
			},
			{
				"x": 2.2662642516,
				"y": -0.1575700008,
				"z": -0.8270363732,
				"element": "O" 
			},
			{
				"x": 0.6015682441,
				"y": -1.647402834,
				"z": -1.6968390462,
				"element": "C" 
			},
			{
				"x": 1.5550852981,
				"y": -2.4565690704,
				"z": -2.328524087,
				"element": "C" 
			},
			{
				"x": 1.1268052704,
				"y": -3.5704507872,
				"z": -3.0467613827,
				"element": "C" 
			},
			{
				"x": -0.2286035083,
				"y": -3.8815531032,
				"z": -3.1385996911,
				"element": "C" 
			},
			{
				"x": -1.1925614398,
				"y": -3.0752977826,
				"z": -2.5070997897,
				"element": "C" 
			},
			{
				"x": -2.5545017272,
				"y": -3.3516009471,
				"z": -2.6450414551,
				"element": "N" 
			},
			{
				"x": -0.7605797521,
				"y": -1.953068529,
				"z": -1.7838990653,
				"element": "C" 
			},
			{
				"x": 1.7194383762,
				"y": 0.4162479457,
				"z": 1.8457384824,
				"element": "H" 
			},
			{
				"x": 1.0410846233,
				"y": 1.9592971901,
				"z": 2.3969659668,
				"element": "H" 
			},
			{
				"x": 0.005303299,
				"y": 0.5208832368,
				"z": 2.3120822207,
				"element": "H" 
			},
			{
				"x": -0.4086889745,
				"y": 2.0634723499,
				"z": 0.3522158349,
				"element": "H" 
			},
			{
				"x": 1.306454427,
				"y": 1.902272739,
				"z": -0.1118745081,
				"element": "H" 
			},
			{
				"x": 2.6040880846,
				"y": -2.1984683822,
				"z": -2.2440050249,
				"element": "H" 
			},
			{
				"x": 1.8532983251,
				"y": -4.208880451,
				"z": -3.5413193922,
				"element": "H" 
			},
			{
				"x": -0.5501464337,
				"y": -4.7519321161,
				"z": -3.7057917808,
				"element": "H" 
			},
			{
				"x": -3.1452223531,
				"y": -2.9684016025,
				"z": -1.9199795606,
				"element": "H" 
			},
			{
				"x": -2.779947155,
				"y": -4.3166972088,
				"z": -2.8431251181,
				"element": "H" 
			},
			{
				"x": -1.4842842749,
				"y": -1.3134180395,
				"z": -1.2901297655,
				"element": "H" 
			}
		],
		 "valence_orbital": [ 
			{
				"type": "occ",
				"energy": -0.3093,
				"method": "rhf"
			},
			{
				"type": "occ",
				"energy": -0.29151,
				"method": "rhf"
			},
			{
				"type": "occ",
				"energy": -0.26577,
				"method": "rhf"
			},
			{
				"type": "occ",
				"energy": -0.25194,
				"method": "rhf"
			},
			{
				"type": "occ",
				"energy": -0.20703,
				"method": "rhf"
			},
			{
				"type": "unocc",
				"energy": -0.0366,
				"method": "rhf"
			},
			{
				"type": "unocc",
				"energy": 0.01137,
				"method": "rhf"
			},
			{
				"type": "unocc",
				"energy": 0.06697,
				"method": "rhf"
			},
			{
				"type": "unocc",
				"energy": 0.08182,
				"method": "rhf"
			},
			{
				"type": "unocc",
				"energy": 0.10573,
				"method": "rhf"
			}
		],
		"cosmo_sigma_profile": { 
			"-0.025": 0.0,
			"-0.024": 0.0,
			"-0.023": 0.0,
			"-0.022": 0.0,
			"-0.021": 0.0,
			"-0.02": 0.0,
			"-0.019": 0.0,
			"-0.018": 0.0,
			"-0.017": 0.0,
			"-0.016": 0.0,
			"-0.015": 0.0,
			"-0.014": 0.0,
			"-0.013": 0.637079240564,
			"-0.012": 2.79803693987,
			"-0.011": 2.97130537803,
			"-0.01": 3.37965279661,
			"-0.009": 2.79101169986,
			"-0.008": 3.15940182028,
			"-0.007": 3.41238927272,
			"-0.006": 6.80873803263,
			"-0.005": 10.1577654075,
			"-0.004": 16.7915111877,
			"-0.003": 18.4585950134,
			"-0.002": 16.9768204403,
			"-0.001": 16.2756493142,
			"0.0": 16.4546281254,
			"0.001": 11.7600673879,
			"0.002": 11.8644600852,
			"0.003": 13.7136562195,
			"0.004": 14.4571769614,
			"0.005": 14.9810735725,
			"0.006": 6.84149234761,
			"0.007": 2.40248363689,
			"0.008": 2.11110515959,
			"0.009": 2.76306775267,
			"0.01": 2.04541832392,
			"0.011": 3.08633886701,
			"0.012": 4.80305931451,
			"0.013": 1.28786547636,
			"0.014": 0.519539400968,
			"0.015": 0.0718895690564,
			"0.016": 0.0,
			"0.017": 0.0,
			"0.018": 0.0,
			"0.019": 0.0,
			"0.02": 0.0,
			"0.021": 0.0,
			"0.022": 0.0,
			"0.023": 0.0,
			"0.024": 0.0,
			"0.025": 0.0
		}
	}
}
