{
	 "smiles": "OC(C1=CC=NC=C1)C1=CC=C(F)C=C1", 
	 "Tm": 410.15, 
	 "num_atms": 25, 
	 "gaussian": { 
		 "optdone": 1, 
		 "sigma_profile": "yes", 
		 "theory": "DFT", 
		 "functional": "B3LYP", 
		 "basiset": "6-31G**", 
		 "properties": { 
			 "R2extent": 4023.8763, 
			 "electric_dipole_moment_norm": 3.21515999135, 
			 "electric_quadrupole_moment_norm": 13.2727786251, 
			 "total_energy": -693.099302364, 
			 "HOMO_LUMO_gap": 0.21966, 
			 "cosmo_polarized_energy": -11.57, 
			 "cosmo_cavitation_energy": 29.85, 
			 "cosmo_dispersion_energy": -21.09, 
			 "cosmo_repulsion_energy": 1.63, 
			 "cosmo_total_nonelectrostatic_energy": 10.39, 
			 "SMD_solvation_energy": 4.2 
		},
		"coords": [
			{
				"x": 3.3616880668,
				"y": 0.3644044552,
				"z": -1.0233069166,
				"element": "O" 
			},
			{
				"x": 2.0476576973,
				"y": 0.8846255162,
				"z": -0.8486746696,
				"element": "C" 
			},
			{
				"x": 1.8646618419,
				"y": 1.1977031909,
				"z": 0.6311673027,
				"element": "C" 
			},
			{
				"x": 0.6705683117,
				"y": 1.758770139,
				"z": 1.0979177152,
				"element": "C" 
			},
			{
				"x": 0.5432791057,
				"y": 2.0474601586,
				"z": 2.4545483429,
				"element": "C" 
			},
			{
				"x": 1.5037654601,
				"y": 1.8182234675,
				"z": 3.3611241515,
				"element": "N" 
			},
			{
				"x": 2.6409133466,
				"y": 1.2821305269,
				"z": 2.9043302733,
				"element": "C" 
			},
			{
				"x": 2.873661602,
				"y": 0.9580863356,
				"z": 1.5654988782,
				"element": "C" 
			},
			{
				"x": 0.9919266384,
				"y": -0.0789865009,
				"z": -1.3755625947,
				"element": "C" 
			},
			{
				"x": 1.0098461324,
				"y": -1.4246741073,
				"z": -0.9786977041,
				"element": "C" 
			},
			{
				"x": 0.0578280797,
				"y": -2.3216171702,
				"z": -1.45505305,
				"element": "C" 
			},
			{
				"x": -0.917855522,
				"y": -1.8575976475,
				"z": -2.3340536655,
				"element": "C" 
			},
			{
				"x": -1.8424192106,
				"y": -2.7227175744,
				"z": -2.797945264,
				"element": "F" 
			},
			{
				"x": -0.9630841326,
				"y": -0.5336707611,
				"z": -2.7509509054,
				"element": "C" 
			},
			{
				"x": 0.0036957613,
				"y": 0.350815542,
				"z": -2.2669855687,
				"element": "C" 
			},
			{
				"x": 3.4374504837,
				"y": 0.0704443712,
				"z": -1.9399836933,
				"element": "H" 
			},
			{
				"x": 1.9405934558,
				"y": 1.8345155881,
				"z": -1.39913742,
				"element": "H" 
			},
			{
				"x": -0.153853811,
				"y": 1.9610465212,
				"z": 0.4200373126,
				"element": "H" 
			},
			{
				"x": -0.379206942,
				"y": 2.4843093089,
				"z": 2.8337441646,
				"element": "H" 
			},
			{
				"x": 3.4160622569,
				"y": 1.100066961,
				"z": 3.647386789,
				"element": "H" 
			},
			{
				"x": 3.8193543834,
				"y": 0.5329875697,
				"z": 1.2529430913,
				"element": "H" 
			},
			{
				"x": 1.7805359998,
				"y": -1.7655042193,
				"z": -0.2941755636,
				"element": "H" 
			},
			{
				"x": 0.0567804989,
				"y": -3.3647869811,
				"z": -1.157747419,
				"element": "H" 
			},
			{
				"x": -1.7344208987,
				"y": -0.2142708445,
				"z": -3.4432523269,
				"element": "H" 
			},
			{
				"x": -0.0128286056,
				"y": 1.3875361544,
				"z": -2.5941712601,
				"element": "H" 
			}
		],
		 "valence_orbital": [ 
			{
				"type": "occ",
				"energy": -0.27176,
				"method": "rhf"
			},
			{
				"type": "occ",
				"energy": -0.2698,
				"method": "rhf"
			},
			{
				"type": "occ",
				"energy": -0.25684,
				"method": "rhf"
			},
			{
				"type": "occ",
				"energy": -0.25074,
				"method": "rhf"
			},
			{
				"type": "occ",
				"energy": -0.24671,
				"method": "rhf"
			},
			{
				"type": "unocc",
				"energy": -0.02705,
				"method": "rhf"
			},
			{
				"type": "unocc",
				"energy": -0.02002,
				"method": "rhf"
			},
			{
				"type": "unocc",
				"energy": -0.0112,
				"method": "rhf"
			},
			{
				"type": "unocc",
				"energy": -0.0031,
				"method": "rhf"
			},
			{
				"type": "unocc",
				"energy": 0.07653,
				"method": "rhf"
			}
		],
		"cosmo_sigma_profile": { 
			"-0.025": 0.0,
			"-0.024": 0.0,
			"-0.023": 0.0,
			"-0.022": 0.0,
			"-0.021": 0.0,
			"-0.02": 0.0,
			"-0.019": 0.0,
			"-0.018": 0.0,
			"-0.017": 0.0270662657832,
			"-0.016": 0.570595351267,
			"-0.015": 0.857108666562,
			"-0.014": 1.18189666067,
			"-0.013": 0.373551916783,
			"-0.012": 0.633912637825,
			"-0.011": 1.14819533672,
			"-0.01": 0.991776906521,
			"-0.009": 0.650648227182,
			"-0.008": 1.69168589402,
			"-0.007": 6.90605124781,
			"-0.006": 17.541454899,
			"-0.005": 17.5109173551,
			"-0.004": 16.8359113618,
			"-0.003": 11.9057126575,
			"-0.002": 13.5291599678,
			"-0.001": 12.0841067267,
			"0.0": 14.5299336932,
			"0.001": 20.2867722035,
			"0.002": 21.9331036272,
			"0.003": 29.0489893719,
			"0.004": 19.9489328974,
			"0.005": 7.47457208369,
			"0.006": 3.29840628998,
			"0.007": 2.42501206358,
			"0.008": 2.49730440969,
			"0.009": 3.00032490421,
			"0.01": 2.34946205408,
			"0.011": 1.87282733982,
			"0.012": 1.56403178133,
			"0.013": 0.911777967506,
			"0.014": 0.726267773529,
			"0.015": 1.16279436458,
			"0.016": 0.901406559682,
			"0.017": 0.455566964008,
			"0.018": 0.0,
			"0.019": 0.0,
			"0.02": 0.0,
			"0.021": 0.0,
			"0.022": 0.0,
			"0.023": 0.0,
			"0.024": 0.0,
			"0.025": 0.0
		}
	}
}
