{
	 "smiles": "CCCCCCC(O)CO", 
	 "Tm": 310.15, 
	 "num_atms": 28, 
	 "gaussian": { 
		 "optdone": 1, 
		 "sigma_profile": "yes", 
		 "theory": "DFT", 
		 "functional": "B3LYP", 
		 "basiset": "6-31G**", 
		 "properties": { 
			 "R2extent": 2660.8501, 
			 "electric_dipole_moment_norm": 2.16740445233, 
			 "electric_quadrupole_moment_norm": 9.64485736753, 
			 "total_energy": -466.148961467, 
			 "HOMO_LUMO_gap": 0.31811, 
			 "cosmo_polarized_energy": -9.37, 
			 "cosmo_cavitation_energy": 28.72, 
			 "cosmo_dispersion_energy": -20.25, 
			 "cosmo_repulsion_energy": 1.69, 
			 "cosmo_total_nonelectrostatic_energy": 10.16, 
			 "SMD_solvation_energy": 4.36 
		},
		"coords": [
			{
				"x": 1.071470895,
				"y": -2.4751134365,
				"z": -1.9067675706,
				"element": "C" 
			},
			{
				"x": -0.4439131324,
				"y": -2.5077294811,
				"z": -2.1398418298,
				"element": "C" 
			},
			{
				"x": -1.1958580261,
				"y": -1.2723155812,
				"z": -1.6166618986,
				"element": "C" 
			},
			{
				"x": -1.1765540122,
				"y": -1.1177147817,
				"z": -0.0884639394,
				"element": "C" 
			},
			{
				"x": -2.060816955,
				"y": 0.0244983597,
				"z": 0.4454494837,
				"element": "C" 
			},
			{
				"x": -1.694053656,
				"y": 1.4445647551,
				"z": -0.019099648,
				"element": "C" 
			},
			{
				"x": -0.2992648171,
				"y": 1.9306716841,
				"z": 0.3812399791,
				"element": "C" 
			},
			{
				"x": -0.1401759312,
				"y": 3.2198297629,
				"z": -0.2415476015,
				"element": "O" 
			},
			{
				"x": -0.1108448266,
				"y": 2.1117993118,
				"z": 1.8930438608,
				"element": "C" 
			},
			{
				"x": -0.9942617748,
				"y": 3.0917973842,
				"z": 2.4022545478,
				"element": "O" 
			},
			{
				"x": 1.3218343163,
				"y": -2.4637936107,
				"z": -0.84091014,
				"element": "H" 
			},
			{
				"x": 1.5568650239,
				"y": -3.3525710055,
				"z": -2.3466366548,
				"element": "H" 
			},
			{
				"x": 1.5210207425,
				"y": -1.584849292,
				"z": -2.3626352013,
				"element": "H" 
			},
			{
				"x": -0.6350864181,
				"y": -2.604329586,
				"z": -3.2162401074,
				"element": "H" 
			},
			{
				"x": -0.8652918642,
				"y": -3.4099454094,
				"z": -1.6753304205,
				"element": "H" 
			},
			{
				"x": -0.7759621861,
				"y": -0.3744835526,
				"z": -2.0904363758,
				"element": "H" 
			},
			{
				"x": -2.2417643338,
				"y": -1.3281537138,
				"z": -1.9490728886,
				"element": "H" 
			},
			{
				"x": -1.5226424783,
				"y": -2.0575895325,
				"z": 0.3635178019,
				"element": "H" 
			},
			{
				"x": -0.14442223,
				"y": -0.985349566,
				"z": 0.2606960428,
				"element": "H" 
			},
			{
				"x": -2.0632138736,
				"y": -0.0095664611,
				"z": 1.5421859504,
				"element": "H" 
			},
			{
				"x": -3.0989128562,
				"y": -0.1672349624,
				"z": 0.1434550978,
				"element": "H" 
			},
			{
				"x": -2.4208163814,
				"y": 2.1519106909,
				"z": 0.3946277554,
				"element": "H" 
			},
			{
				"x": -1.7671565804,
				"y": 1.5224002435,
				"z": -1.1091500916,
				"element": "H" 
			},
			{
				"x": 0.4662130533,
				"y": 1.2352588825,
				"z": 0.0046839328,
				"element": "H" 
			},
			{
				"x": 0.7920354028,
				"y": 3.4682272879,
				"z": -0.1775421115,
				"element": "H" 
			},
			{
				"x": 0.9438020647,
				"y": 2.3833126349,
				"z": 2.0863310189,
				"element": "H" 
			},
			{
				"x": -0.3043168048,
				"y": 1.1787203673,
				"z": 2.4326840431,
				"element": "H" 
			},
			{
				"x": -0.9794123603,
				"y": 3.8058486076,
				"z": 1.7456669648,
				"element": "H" 
			}
		],
		 "valence_orbital": [ 
			{
				"type": "occ",
				"energy": -0.31573,
				"method": "rhf"
			},
			{
				"type": "occ",
				"energy": -0.3104,
				"method": "rhf"
			},
			{
				"type": "occ",
				"energy": -0.30576,
				"method": "rhf"
			},
			{
				"type": "occ",
				"energy": -0.28561,
				"method": "rhf"
			},
			{
				"type": "occ",
				"energy": -0.25679,
				"method": "rhf"
			},
			{
				"type": "unocc",
				"energy": 0.06132,
				"method": "rhf"
			},
			{
				"type": "unocc",
				"energy": 0.08019,
				"method": "rhf"
			},
			{
				"type": "unocc",
				"energy": 0.10214,
				"method": "rhf"
			},
			{
				"type": "unocc",
				"energy": 0.10661,
				"method": "rhf"
			},
			{
				"type": "unocc",
				"energy": 0.11606,
				"method": "rhf"
			}
		],
		"cosmo_sigma_profile": { 
			"-0.025": 0.0,
			"-0.024": 0.0,
			"-0.023": 0.0,
			"-0.022": 0.0,
			"-0.021": 0.0,
			"-0.02": 0.0,
			"-0.019": 0.0,
			"-0.018": 0.0,
			"-0.017": 0.0,
			"-0.016": 0.430479405055,
			"-0.015": 0.881445522846,
			"-0.014": 1.2579486598,
			"-0.013": 0.896630749257,
			"-0.012": 0.997193757215,
			"-0.011": 1.21952480109,
			"-0.01": 1.39836747981,
			"-0.009": 1.68087002647,
			"-0.008": 1.75877112715,
			"-0.007": 1.97871083001,
			"-0.006": 2.50869486514,
			"-0.005": 3.42515988063,
			"-0.004": 8.63449651709,
			"-0.003": 14.0947723906,
			"-0.002": 29.5061119264,
			"-0.001": 35.2288983924,
			"0.0": 37.4758287347,
			"0.001": 32.4488823449,
			"0.002": 12.7007768172,
			"0.003": 2.9753320463,
			"0.004": 2.47255269803,
			"0.005": 2.7431654359,
			"0.006": 2.16913669138,
			"0.007": 2.3104310691,
			"0.008": 2.34427419144,
			"0.009": 1.91242350411,
			"0.01": 2.06952721262,
			"0.011": 2.36548625578,
			"0.012": 2.72753117753,
			"0.013": 2.53728274759,
			"0.014": 3.06801929455,
			"0.015": 1.54735975699,
			"0.016": 0.0,
			"0.017": 0.0,
			"0.018": 0.0,
			"0.019": 0.0,
			"0.02": 0.0,
			"0.021": 0.0,
			"0.022": 0.0,
			"0.023": 0.0,
			"0.024": 0.0,
			"0.025": 0.0
		}
	}
}
