{
	 "smiles": "C(OC(C1=CC=CC=C1)(C1=CC=CC=C1)C1=CC=CC=C1)C1CO1", 
	 "Tm": 372.65, 
	 "num_atms": 44, 
	 "gaussian": { 
		 "optdone": 1, 
		 "sigma_profile": "yes", 
		 "theory": "DFT", 
		 "functional": "B3LYP", 
		 "basiset": "6-31G**", 
		 "properties": { 
			 "R2extent": 7412.8635, 
			 "electric_dipole_moment_norm": 2.60140606211, 
			 "electric_quadrupole_moment_norm": 5.43364784468, 
			 "total_energy": -1000.77649619, 
			 "HOMO_LUMO_gap": 0.21367, 
			 "cosmo_polarized_energy": -11.7, 
			 "cosmo_cavitation_energy": 45.66, 
			 "cosmo_dispersion_energy": -30.39, 
			 "cosmo_repulsion_energy": 2.35, 
			 "cosmo_total_nonelectrostatic_energy": 17.62, 
			 "SMD_solvation_energy": 7.65 
		},
		"coords": [
			{
				"x": -1.3567338149,
				"y": -1.3891879757,
				"z": 0.2824254635,
				"element": "C" 
			},
			{
				"x": -1.1168354686,
				"y": -0.0550077035,
				"z": 0.7158597068,
				"element": "O" 
			},
			{
				"x": -0.2485415406,
				"y": 0.7666511945,
				"z": -0.0903655726,
				"element": "C" 
			},
			{
				"x": -0.7487559902,
				"y": 0.7088711163,
				"z": -1.547669584,
				"element": "C" 
			},
			{
				"x": -1.9726313566,
				"y": 1.3255406982,
				"z": -1.8574204473,
				"element": "C" 
			},
			{
				"x": -2.5287839948,
				"y": 1.2190440907,
				"z": -3.1302987392,
				"element": "C" 
			},
			{
				"x": -1.8752643289,
				"y": 0.4845033822,
				"z": -4.1235204492,
				"element": "C" 
			},
			{
				"x": -0.6706121757,
				"y": -0.1489200006,
				"z": -3.8242187198,
				"element": "C" 
			},
			{
				"x": -0.1160164677,
				"y": -0.0432270329,
				"z": -2.5450821335,
				"element": "C" 
			},
			{
				"x": 1.2250194136,
				"y": 0.338971933,
				"z": 0.1042312123,
				"element": "C" 
			},
			{
				"x": 2.2466075496,
				"y": 0.8643651237,
				"z": -0.7024609497,
				"element": "C" 
			},
			{
				"x": 3.5827030496,
				"y": 0.5399794375,
				"z": -0.4702276559,
				"element": "C" 
			},
			{
				"x": 3.9269583403,
				"y": -0.314016425,
				"z": 0.5794493677,
				"element": "C" 
			},
			{
				"x": 2.9212743953,
				"y": -0.8307552583,
				"z": 1.3950170377,
				"element": "C" 
			},
			{
				"x": 1.5826825933,
				"y": -0.5035870056,
				"z": 1.1650117702,
				"element": "C" 
			},
			{
				"x": -0.3824785573,
				"y": 2.1839763942,
				"z": 0.5067319542,
				"element": "C" 
			},
			{
				"x": -0.7710717655,
				"y": 2.3530915885,
				"z": 1.841466508,
				"element": "C" 
			},
			{
				"x": -0.8335308469,
				"y": 3.6279706833,
				"z": 2.4063818109,
				"element": "C" 
			},
			{
				"x": -0.5033977875,
				"y": 4.753462365,
				"z": 1.6508142819,
				"element": "C" 
			},
			{
				"x": -0.1125175381,
				"y": 4.5930917641,
				"z": 0.3206653951,
				"element": "C" 
			},
			{
				"x": -0.0536498097,
				"y": 3.3195822112,
				"z": -0.2457950541,
				"element": "C" 
			},
			{
				"x": -2.007091834,
				"y": -2.1107974784,
				"z": 1.4313848678,
				"element": "C" 
			},
			{
				"x": -1.8034578381,
				"y": -3.5516736162,
				"z": 1.6358206756,
				"element": "C" 
			},
			{
				"x": -1.1348400556,
				"y": -2.5924828384,
				"z": 2.4628875279,
				"element": "O" 
			},
			{
				"x": -0.4249252869,
				"y": -1.9004980657,
				"z": 0.009660062,
				"element": "H" 
			},
			{
				"x": -2.0231810695,
				"y": -1.4000475632,
				"z": -0.5917514173,
				"element": "H" 
			},
			{
				"x": -2.4889888355,
				"y": 1.8922627327,
				"z": -1.0894896966,
				"element": "H" 
			},
			{
				"x": -3.4734146781,
				"y": 1.7098806622,
				"z": -3.3473975709,
				"element": "H" 
			},
			{
				"x": -2.3050411037,
				"y": 0.4044732338,
				"z": -5.1179910253,
				"element": "H" 
			},
			{
				"x": -0.1571224544,
				"y": -0.7323375844,
				"z": -4.5834016526,
				"element": "H" 
			},
			{
				"x": 0.8166604032,
				"y": -0.5517191534,
				"z": -2.3284479227,
				"element": "H" 
			},
			{
				"x": 2.0012864436,
				"y": 1.5366570258,
				"z": -1.5182460815,
				"element": "H" 
			},
			{
				"x": 4.3548819481,
				"y": 0.9587714895,
				"z": -1.1096917281,
				"element": "H" 
			},
			{
				"x": 4.9674429904,
				"y": -0.5679906891,
				"z": 0.7608918448,
				"element": "H" 
			},
			{
				"x": 3.1731813287,
				"y": -1.4904318427,
				"z": 2.2207495306,
				"element": "H" 
			},
			{
				"x": 0.8145751395,
				"y": -0.9057309377,
				"z": 1.8154287587,
				"element": "H" 
			},
			{
				"x": -1.0291942019,
				"y": 1.4827676848,
				"z": 2.4320325296,
				"element": "H" 
			},
			{
				"x": -1.141581925,
				"y": 3.7387646534,
				"z": 3.4424950299,
				"element": "H" 
			},
			{
				"x": -0.5520770406,
				"y": 5.7449136353,
				"z": 2.0921026557,
				"element": "H" 
			},
			{
				"x": 0.1428153013,
				"y": 5.460184823,
				"z": -0.2821976815,
				"element": "H" 
			},
			{
				"x": 0.2359290465,
				"y": 3.2144903149,
				"z": -1.2865230534,
				"element": "H" 
			},
			{
				"x": -2.925760486,
				"y": -1.6534627829,
				"z": 1.8025885991,
				"element": "H" 
			},
			{
				"x": -1.162540254,
				"y": -4.1086241522,
				"z": 0.9517482043,
				"element": "H" 
			},
			{
				"x": -2.5763794368,
				"y": -4.1409701318,
				"z": 2.1286523409,
				"element": "H" 
			}
		],
		 "valence_orbital": [ 
			{
				"type": "occ",
				"energy": -0.25259,
				"method": "rhf"
			},
			{
				"type": "occ",
				"energy": -0.24546,
				"method": "rhf"
			},
			{
				"type": "occ",
				"energy": -0.24318,
				"method": "rhf"
			},
			{
				"type": "occ",
				"energy": -0.23888,
				"method": "rhf"
			},
			{
				"type": "occ",
				"energy": -0.22629,
				"method": "rhf"
			},
			{
				"type": "unocc",
				"energy": -0.01262,
				"method": "rhf"
			},
			{
				"type": "unocc",
				"energy": -0.01071,
				"method": "rhf"
			},
			{
				"type": "unocc",
				"energy": -0.00528,
				"method": "rhf"
			},
			{
				"type": "unocc",
				"energy": -0.00075,
				"method": "rhf"
			},
			{
				"type": "unocc",
				"energy": 0.01709,
				"method": "rhf"
			}
		],
		"cosmo_sigma_profile": { 
			"-0.025": 0.0,
			"-0.024": 0.0,
			"-0.023": 0.0,
			"-0.022": 0.0,
			"-0.021": 0.0,
			"-0.02": 0.0,
			"-0.019": 0.0,
			"-0.018": 0.0,
			"-0.017": 0.0,
			"-0.016": 0.0,
			"-0.015": 0.0,
			"-0.014": 0.0,
			"-0.013": 0.0,
			"-0.012": 0.0,
			"-0.011": 0.0,
			"-0.01": 0.0,
			"-0.009": 0.0,
			"-0.008": 0.0,
			"-0.007": 1.94378402785,
			"-0.006": 18.7109334417,
			"-0.005": 32.7886887023,
			"-0.004": 37.7687224224,
			"-0.003": 37.4239662782,
			"-0.002": 28.2558556448,
			"-0.001": 26.3481643195,
			"0.0": 21.441487707,
			"0.001": 23.1456772277,
			"0.002": 24.7910441652,
			"0.003": 23.9360989784,
			"0.004": 25.5506902868,
			"0.005": 28.0824785527,
			"0.006": 19.3783013329,
			"0.007": 3.65234506506,
			"0.008": 2.00120525455,
			"0.009": 2.46356780305,
			"0.01": 2.49766545812,
			"0.011": 1.97935702929,
			"0.012": 1.53219399249,
			"0.013": 0.327941449992,
			"0.014": 0.0,
			"0.015": 0.0,
			"0.016": 0.0,
			"0.017": 0.0,
			"0.018": 0.0,
			"0.019": 0.0,
			"0.02": 0.0,
			"0.021": 0.0,
			"0.022": 0.0,
			"0.023": 0.0,
			"0.024": 0.0,
			"0.025": 0.0
		}
	}
}
