{
	 "smiles": "CC(=O)NC1=CC(C(O)=O)=C(NS(C)(=O)=O)C=C1", 
	 "Tm": 539.15, 
	 "num_atms": 30, 
	 "gaussian": { 
		 "optdone": 1, 
		 "sigma_profile": "yes", 
		 "theory": "DFT", 
		 "functional": "B3LYP", 
		 "basiset": "6-31G**", 
		 "properties": { 
			 "R2extent": 6849.6678, 
			 "electric_dipole_moment_norm": 1.55318272911, 
			 "electric_quadrupole_moment_norm": 44.7510811296, 
			 "total_energy": -1272.07281856, 
			 "HOMO_LUMO_gap": 0.1795, 
			 "cosmo_polarized_energy": -28.13, 
			 "cosmo_cavitation_energy": 35.57, 
			 "cosmo_dispersion_energy": -26.27, 
			 "cosmo_repulsion_energy": 1.96, 
			 "cosmo_total_nonelectrostatic_energy": 11.26, 
			 "SMD_solvation_energy": 7.39 
		},
		"coords": [
			{
				"x": 0.0928617452,
				"y": 2.0019996096,
				"z": 5.4227148228,
				"element": "C" 
			},
			{
				"x": 0.5288535892,
				"y": 1.0331376532,
				"z": 4.3340079235,
				"element": "C" 
			},
			{
				"x": 1.6688436599,
				"y": 0.5979747639,
				"z": 4.2769736221,
				"element": "O" 
			},
			{
				"x": -0.461369263,
				"y": 0.7188014082,
				"z": 3.4222681551,
				"element": "N" 
			},
			{
				"x": -0.3804298536,
				"y": -0.1088406616,
				"z": 2.2876181034,
				"element": "C" 
			},
			{
				"x": -1.5421919884,
				"y": -0.2755913498,
				"z": 1.5269199236,
				"element": "C" 
			},
			{
				"x": -1.556308133,
				"y": -1.0536625075,
				"z": 0.3662525689,
				"element": "C" 
			},
			{
				"x": -2.8873162078,
				"y": -1.1467646222,
				"z": -0.3385889805,
				"element": "C" 
			},
			{
				"x": -2.8901197522,
				"y": -1.3158811531,
				"z": -1.6808726179,
				"element": "O" 
			},
			{
				"x": -3.9319187963,
				"y": -1.0945472534,
				"z": 0.2705024214,
				"element": "O" 
			},
			{
				"x": -0.3837336698,
				"y": -1.7455385264,
				"z": -0.0014675445,
				"element": "C" 
			},
			{
				"x": -0.3322567666,
				"y": -2.6570630025,
				"z": -1.117926837,
				"element": "N" 
			},
			{
				"x": 0.3880571451,
				"y": -2.0100535799,
				"z": -2.5363969592,
				"element": "S" 
			},
			{
				"x": 0.4657152502,
				"y": -3.4848820677,
				"z": -3.5579537725,
				"element": "C" 
			},
			{
				"x": -0.5600152557,
				"y": -1.0619671016,
				"z": -3.1682760336,
				"element": "O" 
			},
			{
				"x": 1.7360868619,
				"y": -1.5608196499,
				"z": -2.2064550607,
				"element": "O" 
			},
			{
				"x": 0.7700397463,
				"y": -1.5963319343,
				"z": 0.7736102621,
				"element": "C" 
			},
			{
				"x": 0.7933187445,
				"y": -0.7756018755,
				"z": 1.895266071,
				"element": "C" 
			},
			{
				"x": 0.5282478564,
				"y": 2.9850590794,
				"z": 5.2163647628,
				"element": "H" 
			},
			{
				"x": -0.9913324499,
				"y": 2.1128638232,
				"z": 5.5128617885,
				"element": "H" 
			},
			{
				"x": 0.4997454243,
				"y": 1.6561697718,
				"z": 6.3749293604,
				"element": "H" 
			},
			{
				"x": -1.366822444,
				"y": 1.1365018044,
				"z": 3.5809975546,
				"element": "H" 
			},
			{
				"x": -2.4723762401,
				"y": 0.2016746869,
				"z": 1.8211472184,
				"element": "H" 
			},
			{
				"x": -2.058096457,
				"y": -1.0308041176,
				"z": -2.1190755618,
				"element": "H" 
			},
			{
				"x": -1.2662528671,
				"y": -2.9776736084,
				"z": -1.3754201889,
				"element": "H" 
			},
			{
				"x": 1.104628952,
				"y": -4.2158784767,
				"z": -3.0631727316,
				"element": "H" 
			},
			{
				"x": 0.8957039524,
				"y": -3.174126633,
				"z": -4.511691677,
				"element": "H" 
			},
			{
				"x": -0.5421733832,
				"y": -3.8738682619,
				"z": -3.7119153758,
				"element": "H" 
			},
			{
				"x": 1.6607917152,
				"y": -2.1427014941,
				"z": 0.4866706413,
				"element": "H" 
			},
			{
				"x": 1.6925188851,
				"y": -0.6606847234,
				"z": 2.4830081411,
				"element": "H" 
			}
		],
		 "valence_orbital": [ 
			{
				"type": "occ",
				"energy": -0.29972,
				"method": "rhf"
			},
			{
				"type": "occ",
				"energy": -0.28095,
				"method": "rhf"
			},
			{
				"type": "occ",
				"energy": -0.26454,
				"method": "rhf"
			},
			{
				"type": "occ",
				"energy": -0.26327,
				"method": "rhf"
			},
			{
				"type": "occ",
				"energy": -0.23268,
				"method": "rhf"
			},
			{
				"type": "unocc",
				"energy": -0.05318,
				"method": "rhf"
			},
			{
				"type": "unocc",
				"energy": -0.03019,
				"method": "rhf"
			},
			{
				"type": "unocc",
				"energy": 0.01537,
				"method": "rhf"
			},
			{
				"type": "unocc",
				"energy": 0.03895,
				"method": "rhf"
			},
			{
				"type": "unocc",
				"energy": 0.04238,
				"method": "rhf"
			}
		],
		"cosmo_sigma_profile": { 
			"-0.025": 0.0,
			"-0.024": 0.0,
			"-0.023": 0.0,
			"-0.022": 0.0,
			"-0.021": 0.0,
			"-0.02": 0.0,
			"-0.019": 0.0,
			"-0.018": 0.0,
			"-0.017": 0.303774600854,
			"-0.016": 1.18625955942,
			"-0.015": 2.60291039618,
			"-0.014": 3.70868049771,
			"-0.013": 2.97057710313,
			"-0.012": 2.50098314985,
			"-0.011": 3.06669030415,
			"-0.01": 6.58529367054,
			"-0.009": 7.59765673029,
			"-0.008": 8.37936474765,
			"-0.007": 10.0016201477,
			"-0.006": 13.1766601373,
			"-0.005": 17.6172539222,
			"-0.004": 16.8226949249,
			"-0.003": 13.9933898587,
			"-0.002": 16.0163653389,
			"-0.001": 13.6718357216,
			"0.0": 12.7410166977,
			"0.001": 17.994352771,
			"0.002": 18.4053050449,
			"0.003": 11.4942616268,
			"0.004": 6.87739933018,
			"0.005": 6.4072550041,
			"0.006": 7.56449073258,
			"0.007": 7.46023820827,
			"0.008": 9.34645963088,
			"0.009": 9.13020226179,
			"0.01": 13.3030682447,
			"0.011": 11.2028498908,
			"0.012": 6.58973001215,
			"0.013": 3.72039298305,
			"0.014": 1.31150951686,
			"0.015": 0.0546998292018,
			"0.016": 0.0,
			"0.017": 0.0,
			"0.018": 0.0,
			"0.019": 0.0,
			"0.02": 0.0,
			"0.021": 0.0,
			"0.022": 0.0,
			"0.023": 0.0,
			"0.024": 0.0,
			"0.025": 0.0
		}
	}
}
