{
	 "smiles": "CC1=CNC(=O)N1C1=C(F)C=CC=C1", 
	 "Tm": 485.15, 
	 "num_atms": 23, 
	 "gaussian": { 
		 "optdone": 1, 
		 "sigma_profile": "yes", 
		 "theory": "DFT", 
		 "functional": "B3LYP", 
		 "basiset": "6-31G**", 
		 "properties": { 
			 "R2extent": 2885.5922, 
			 "electric_dipole_moment_norm": 3.13518698804, 
			 "electric_quadrupole_moment_norm": 14.2509640635, 
			 "total_energy": -671.06197671, 
			 "HOMO_LUMO_gap": 0.17342, 
			 "cosmo_polarized_energy": -13.73, 
			 "cosmo_cavitation_energy": 27.28, 
			 "cosmo_dispersion_energy": -19.68, 
			 "cosmo_repulsion_energy": 1.53, 
			 "cosmo_total_nonelectrostatic_energy": 9.13, 
			 "SMD_solvation_energy": 6.31 
		},
		"coords": [
			{
				"x": -0.1686143904,
				"y": -1.8559733215,
				"z": 1.3802753028,
				"element": "C" 
			},
			{
				"x": 0.6470521592,
				"y": -1.027326766,
				"z": 0.4466962076,
				"element": "C" 
			},
			{
				"x": 1.6349219265,
				"y": -1.4010914123,
				"z": -0.3969211713,
				"element": "C" 
			},
			{
				"x": 2.1472073952,
				"y": -0.2521160359,
				"z": -1.0035944745,
				"element": "N" 
			},
			{
				"x": 1.5096041751,
				"y": 0.8844128673,
				"z": -0.5434354358,
				"element": "C" 
			},
			{
				"x": 1.7215843412,
				"y": 2.0505810514,
				"z": -0.8412989207,
				"element": "O" 
			},
			{
				"x": 0.5496432797,
				"y": 0.3809603192,
				"z": 0.360041851,
				"element": "N" 
			},
			{
				"x": -0.356404427,
				"y": 1.229409313,
				"z": 1.0412807308,
				"element": "C" 
			},
			{
				"x": -1.7400519812,
				"y": 1.0492677939,
				"z": 0.9343754435,
				"element": "C" 
			},
			{
				"x": -2.2167036285,
				"y": 0.042269101,
				"z": 0.1681117096,
				"element": "F" 
			},
			{
				"x": -2.6448780832,
				"y": 1.8720674515,
				"z": 1.5916205722,
				"element": "C" 
			},
			{
				"x": -2.1621572472,
				"y": 2.9368945577,
				"z": 2.3527496056,
				"element": "C" 
			},
			{
				"x": -0.7868512841,
				"y": 3.1595425049,
				"z": 2.4488309094,
				"element": "C" 
			},
			{
				"x": 0.1082471436,
				"y": 2.309788111,
				"z": 1.8013425606,
				"element": "C" 
			},
			{
				"x": -1.2316379511,
				"y": -1.8353110173,
				"z": 1.1254657689,
				"element": "H" 
			},
			{
				"x": 0.1749949951,
				"y": -2.8926424428,
				"z": 1.339270923,
				"element": "H" 
			},
			{
				"x": -0.0680192762,
				"y": -1.5082265788,
				"z": 2.4154214568,
				"element": "H" 
			},
			{
				"x": 2.0268612007,
				"y": -2.3847178821,
				"z": -0.5998911557,
				"element": "H" 
			},
			{
				"x": 2.89902793,
				"y": -0.1997229209,
				"z": -1.6702199665,
				"element": "H" 
			},
			{
				"x": -3.7062203224,
				"y": 1.6780942845,
				"z": 1.4804285192,
				"element": "H" 
			},
			{
				"x": -2.8612976186,
				"y": 3.591984745,
				"z": 2.8631670241,
				"element": "H" 
			},
			{
				"x": -0.408459183,
				"y": 3.9935020697,
				"z": 3.0312240296,
				"element": "H" 
			},
			{
				"x": 1.1772508467,
				"y": 2.4775542074,
				"z": 1.8599585096,
				"element": "H" 
			}
		],
		 "valence_orbital": [ 
			{
				"type": "occ",
				"energy": -0.30587,
				"method": "rhf"
			},
			{
				"type": "occ",
				"energy": -0.2585,
				"method": "rhf"
			},
			{
				"type": "occ",
				"energy": -0.2539,
				"method": "rhf"
			},
			{
				"type": "occ",
				"energy": -0.2456,
				"method": "rhf"
			},
			{
				"type": "occ",
				"energy": -0.18993,
				"method": "rhf"
			},
			{
				"type": "unocc",
				"energy": -0.01651,
				"method": "rhf"
			},
			{
				"type": "unocc",
				"energy": -0.00257,
				"method": "rhf"
			},
			{
				"type": "unocc",
				"energy": 0.04518,
				"method": "rhf"
			},
			{
				"type": "unocc",
				"energy": 0.07281,
				"method": "rhf"
			},
			{
				"type": "unocc",
				"energy": 0.0783,
				"method": "rhf"
			}
		],
		"cosmo_sigma_profile": { 
			"-0.025": 0.0,
			"-0.024": 0.0,
			"-0.023": 0.0,
			"-0.022": 0.0,
			"-0.021": 0.0,
			"-0.02": 0.0,
			"-0.019": 0.0,
			"-0.018": 0.0,
			"-0.017": 0.0,
			"-0.016": 0.651739416861,
			"-0.015": 1.39228286599,
			"-0.014": 1.28090605794,
			"-0.013": 1.23163085194,
			"-0.012": 1.04284038104,
			"-0.011": 0.672136064801,
			"-0.01": 0.582032812636,
			"-0.009": 1.95251952599,
			"-0.008": 3.77502602567,
			"-0.007": 6.48622750971,
			"-0.006": 10.3181685577,
			"-0.005": 15.0908512682,
			"-0.004": 12.9075768644,
			"-0.003": 13.3251319789,
			"-0.002": 13.6541360125,
			"-0.001": 19.1127573986,
			"0.0": 18.584624935,
			"0.001": 15.8332643873,
			"0.002": 16.6559396812,
			"0.003": 17.9362243432,
			"0.004": 18.7382904455,
			"0.005": 5.10506863419,
			"0.006": 1.9429053204,
			"0.007": 1.54246867853,
			"0.008": 0.888413615561,
			"0.009": 1.65913091862,
			"0.01": 1.85910298271,
			"0.011": 0.994664397307,
			"0.012": 1.93439467507,
			"0.013": 1.86139398091,
			"0.014": 5.69383111196,
			"0.015": 3.57550335411,
			"0.016": 0.0364074105267,
			"0.017": 0.0,
			"0.018": 0.0,
			"0.019": 0.0,
			"0.02": 0.0,
			"0.021": 0.0,
			"0.022": 0.0,
			"0.023": 0.0,
			"0.024": 0.0,
			"0.025": 0.0
		}
	}
}
