{
	 "smiles": "SC1=NC(=NS1)C1=CC=CC=C1", 
	 "Tm": 435.15, 
	 "num_atms": 18, 
	 "gaussian": { 
		 "optdone": 1, 
		 "sigma_profile": "yes", 
		 "theory": "DFT", 
		 "functional": "B3LYP", 
		 "basiset": "6-31G**", 
		 "properties": { 
			 "R2extent": 3300.1895, 
			 "electric_dipole_moment_norm": 1.08687801063, 
			 "electric_quadrupole_moment_norm": 15.8488409122, 
			 "total_energy": -1214.3350741, 
			 "HOMO_LUMO_gap": 0.17679, 
			 "cosmo_polarized_energy": -8.98, 
			 "cosmo_cavitation_energy": 26.17, 
			 "cosmo_dispersion_energy": -20.66, 
			 "cosmo_repulsion_energy": 1.54, 
			 "cosmo_total_nonelectrostatic_energy": 7.05, 
			 "SMD_solvation_energy": 1.2 
		},
		"coords": [
			{
				"x": 2.3180185906,
				"y": 1.0928332014,
				"z": 3.2784241012,
				"element": "S" 
			},
			{
				"x": 1.7807318891,
				"y": 0.4720009343,
				"z": 1.7203568265,
				"element": "C" 
			},
			{
				"x": 0.5921500879,
				"y": 0.7381826508,
				"z": 1.2614429707,
				"element": "N" 
			},
			{
				"x": 0.4276417737,
				"y": 0.1338581581,
				"z": 0.0292882586,
				"element": "C" 
			},
			{
				"x": 1.4228344345,
				"y": -0.5749223583,
				"z": -0.4718681411,
				"element": "N" 
			},
			{
				"x": 2.6965269613,
				"y": -0.5346819549,
				"z": 0.6135232255,
				"element": "S" 
			},
			{
				"x": -0.8453019195,
				"y": 0.2884506933,
				"z": -0.7000317228,
				"element": "C" 
			},
			{
				"x": -1.8868283984,
				"y": 1.0466261539,
				"z": -0.1446365381,
				"element": "C" 
			},
			{
				"x": -3.0897696176,
				"y": 1.1927472817,
				"z": -0.8336322245,
				"element": "C" 
			},
			{
				"x": -3.2645317825,
				"y": 0.5860622064,
				"z": -2.0788166166,
				"element": "C" 
			},
			{
				"x": -2.2286856928,
				"y": -0.1702505599,
				"z": -2.635342175,
				"element": "C" 
			},
			{
				"x": -1.0250878317,
				"y": -0.319999064,
				"z": -1.9524609523,
				"element": "C" 
			},
			{
				"x": 3.5461658302,
				"y": 0.5375998725,
				"z": 3.2445587865,
				"element": "H" 
			},
			{
				"x": -1.7406901067,
				"y": 1.5135074454,
				"z": 0.8229339746,
				"element": "H" 
			},
			{
				"x": -3.8914514273,
				"y": 1.7813305005,
				"z": -0.397009772,
				"element": "H" 
			},
			{
				"x": -4.2027128738,
				"y": 0.7011389796,
				"z": -2.6141368526,
				"element": "H" 
			},
			{
				"x": -2.3605020092,
				"y": -0.6439198481,
				"z": -3.603866806,
				"element": "H" 
			},
			{
				"x": -0.2153079078,
				"y": -0.9046642925,
				"z": -2.3755263426,
				"element": "H" 
			}
		],
		 "valence_orbital": [ 
			{
				"type": "occ",
				"energy": -0.30525,
				"method": "rhf"
			},
			{
				"type": "occ",
				"energy": -0.28816,
				"method": "rhf"
			},
			{
				"type": "occ",
				"energy": -0.2658,
				"method": "rhf"
			},
			{
				"type": "occ",
				"energy": -0.25241,
				"method": "rhf"
			},
			{
				"type": "occ",
				"energy": -0.23301,
				"method": "rhf"
			},
			{
				"type": "unocc",
				"energy": -0.05622,
				"method": "rhf"
			},
			{
				"type": "unocc",
				"energy": -0.02727,
				"method": "rhf"
			},
			{
				"type": "unocc",
				"energy": -0.01812,
				"method": "rhf"
			},
			{
				"type": "unocc",
				"energy": -0.00012,
				"method": "rhf"
			},
			{
				"type": "unocc",
				"energy": 0.00976,
				"method": "rhf"
			}
		],
		"cosmo_sigma_profile": { 
			"-0.025": 0.0,
			"-0.024": 0.0,
			"-0.023": 0.0,
			"-0.022": 0.0,
			"-0.021": 0.0,
			"-0.02": 0.0,
			"-0.019": 0.0,
			"-0.018": 0.0,
			"-0.017": 0.0,
			"-0.016": 0.0,
			"-0.015": 0.0,
			"-0.014": 0.307228802571,
			"-0.013": 3.24386062527,
			"-0.012": 2.32725106985,
			"-0.011": 1.43527603294,
			"-0.01": 1.71301477859,
			"-0.009": 1.47754609448,
			"-0.008": 1.74545462684,
			"-0.007": 1.65582300376,
			"-0.006": 7.24852546717,
			"-0.005": 11.4383151042,
			"-0.004": 13.4231790539,
			"-0.003": 12.2793321048,
			"-0.002": 15.7431000597,
			"-0.001": 15.0307740108,
			"0.0": 17.8053779974,
			"0.001": 20.5848275119,
			"0.002": 22.7338448511,
			"0.003": 19.9211792047,
			"0.004": 17.6224793613,
			"0.005": 13.4881664951,
			"0.006": 4.97364847899,
			"0.007": 2.44629440747,
			"0.008": 2.72798178411,
			"0.009": 2.30801528682,
			"0.01": 1.36977142771,
			"0.011": 1.07164412882,
			"0.012": 0.252464575845,
			"0.013": 0.0,
			"0.014": 0.0,
			"0.015": 0.0,
			"0.016": 0.0,
			"0.017": 0.0,
			"0.018": 0.0,
			"0.019": 0.0,
			"0.02": 0.0,
			"0.021": 0.0,
			"0.022": 0.0,
			"0.023": 0.0,
			"0.024": 0.0,
			"0.025": 0.0
		}
	}
}
