{
	 "smiles": "COC1=C(OCC=C)C(Br)=CC(C=O)=C1", 
	 "Tm": 325.65, 
	 "num_atms": 26, 
	 "gaussian": { 
		 "optdone": 1, 
		 "sigma_profile": "yes", 
		 "theory": "DFT", 
		 "functional": "B3LYP", 
		 "basiset": "6-31G**", 
		 "properties": { 
			 "R2extent": 5270.3862, 
			 "electric_dipole_moment_norm": 4.37144188341, 
			 "electric_quadrupole_moment_norm": 7.95483759105, 
			 "total_energy": -3222.80782746, 
			 "HOMO_LUMO_gap": 0.18147, 
			 "cosmo_polarized_energy": -10.17, 
			 "cosmo_cavitation_energy": 33.53, 
			 "cosmo_dispersion_energy": -22.98, 
			 "cosmo_repulsion_energy": 1.81, 
			 "cosmo_total_nonelectrostatic_energy": 12.36, 
			 "SMD_solvation_energy": 7.35 
		},
		"coords": [
			{
				"x": -2.5056374373,
				"y": 0.9348247714,
				"z": -1.5631602193,
				"element": "C" 
			},
			{
				"x": -2.4010551808,
				"y": 0.6037017727,
				"z": -0.1689382808,
				"element": "O" 
			},
			{
				"x": -1.1388728661,
				"y": 0.2944920677,
				"z": 0.2720998048,
				"element": "C" 
			},
			{
				"x": -0.5002068136,
				"y": -0.8960158922,
				"z": -0.1382686598,
				"element": "C" 
			},
			{
				"x": -1.0944974011,
				"y": -1.7291728285,
				"z": -1.0383312868,
				"element": "O" 
			},
			{
				"x": -2.2032208566,
				"y": -2.5130777383,
				"z": -0.5228222354,
				"element": "C" 
			},
			{
				"x": -2.6834005124,
				"y": -3.4025395152,
				"z": -1.6258026282,
				"element": "C" 
			},
			{
				"x": -3.9557804383,
				"y": -3.4805579439,
				"z": -2.0131054237,
				"element": "C" 
			},
			{
				"x": 0.7804411729,
				"y": -1.1853380508,
				"z": 0.3659126042,
				"element": "C" 
			},
			{
				"x": 1.6481829205,
				"y": -2.7916288499,
				"z": -0.1827130476,
				"element": "Br" 
			},
			{
				"x": 1.4137094172,
				"y": -0.3325663787,
				"z": 1.2589025778,
				"element": "C" 
			},
			{
				"x": 0.7593433986,
				"y": 0.8343986873,
				"z": 1.6752564787,
				"element": "C" 
			},
			{
				"x": 1.419537218,
				"y": 1.746346861,
				"z": 2.6373316215,
				"element": "C" 
			},
			{
				"x": 2.5236399237,
				"y": 1.5654597952,
				"z": 3.113033442,
				"element": "O" 
			},
			{
				"x": -0.5110605569,
				"y": 1.1455829568,
				"z": 1.1777851418,
				"element": "C" 
			},
			{
				"x": -3.5551027137,
				"y": 1.1795480696,
				"z": -1.7354838251,
				"element": "H" 
			},
			{
				"x": -2.2111817276,
				"y": 0.0927277196,
				"z": -2.1951571369,
				"element": "H" 
			},
			{
				"x": -1.8858025891,
				"y": 1.8084569936,
				"z": -1.7979028359,
				"element": "H" 
			},
			{
				"x": -1.8328291514,
				"y": -3.1082067819,
				"z": 0.3235403104,
				"element": "H" 
			},
			{
				"x": -2.9963111384,
				"y": -1.8472822696,
				"z": -0.1670026436,
				"element": "H" 
			},
			{
				"x": -1.9204498668,
				"y": -4.0209550828,
				"z": -2.0952474177,
				"element": "H" 
			},
			{
				"x": -4.2735334071,
				"y": -4.1676389873,
				"z": -2.7914127368,
				"element": "H" 
			},
			{
				"x": -4.7298570091,
				"y": -2.8668181786,
				"z": -1.5583428187,
				"element": "H" 
			},
			{
				"x": 2.3990930469,
				"y": -0.5553321172,
				"z": 1.6510160104,
				"element": "H" 
			},
			{
				"x": 0.818362687,
				"y": 2.6423358139,
				"z": 2.9089002099,
				"element": "H" 
			},
			{
				"x": -1.0276101184,
				"y": 2.0500551062,
				"z": 1.4866129952,
				"element": "H" 
			}
		],
		 "valence_orbital": [ 
			{
				"type": "occ",
				"energy": -0.28604,
				"method": "rhf"
			},
			{
				"type": "occ",
				"energy": -0.27449,
				"method": "rhf"
			},
			{
				"type": "occ",
				"energy": -0.2599,
				"method": "rhf"
			},
			{
				"type": "occ",
				"energy": -0.25117,
				"method": "rhf"
			},
			{
				"type": "occ",
				"energy": -0.25027,
				"method": "rhf"
			},
			{
				"type": "unocc",
				"energy": -0.0688,
				"method": "rhf"
			},
			{
				"type": "unocc",
				"energy": -0.02292,
				"method": "rhf"
			},
			{
				"type": "unocc",
				"energy": -0.00596,
				"method": "rhf"
			},
			{
				"type": "unocc",
				"energy": 0.00435,
				"method": "rhf"
			},
			{
				"type": "unocc",
				"energy": 0.03136,
				"method": "rhf"
			}
		],
		"cosmo_sigma_profile": { 
			"-0.025": 0.0,
			"-0.024": 0.0,
			"-0.023": 0.0,
			"-0.022": 0.0,
			"-0.021": 0.0,
			"-0.02": 0.0,
			"-0.019": 0.0,
			"-0.018": 0.0,
			"-0.017": 0.0,
			"-0.016": 0.0,
			"-0.015": 0.0,
			"-0.014": 0.0,
			"-0.013": 0.0,
			"-0.012": 0.0,
			"-0.011": 0.0,
			"-0.01": 0.0,
			"-0.009": 0.708144042102,
			"-0.008": 3.44672723568,
			"-0.007": 4.39948496506,
			"-0.006": 10.7027549874,
			"-0.005": 20.3493285831,
			"-0.004": 23.395352056,
			"-0.003": 26.991661185,
			"-0.002": 23.6750209156,
			"-0.001": 20.9527371424,
			"0.0": 25.3595073691,
			"0.001": 25.1418887896,
			"0.002": 15.6224259372,
			"0.003": 14.5570764335,
			"0.004": 15.8373549346,
			"0.005": 10.682943634,
			"0.006": 5.26206698859,
			"0.007": 3.69381726242,
			"0.008": 3.66236622985,
			"0.009": 4.35991574036,
			"0.01": 4.71790889311,
			"0.011": 4.80830973296,
			"0.012": 2.22779216793,
			"0.013": 0.326678758268,
			"0.014": 0.0,
			"0.015": 0.0,
			"0.016": 0.0,
			"0.017": 0.0,
			"0.018": 0.0,
			"0.019": 0.0,
			"0.02": 0.0,
			"0.021": 0.0,
			"0.022": 0.0,
			"0.023": 0.0,
			"0.024": 0.0,
			"0.025": 0.0
		}
	}
}
