{
	 "smiles": "OC(=O)CCCOC1=C(Br)C=CC=C1", 
	 "Tm": 361.15, 
	 "num_atms": 25, 
	 "gaussian": { 
		 "optdone": 1, 
		 "sigma_profile": "yes", 
		 "theory": "DFT", 
		 "functional": "B3LYP", 
		 "basiset": "6-31G**", 
		 "properties": { 
			 "R2extent": 4493.7502, 
			 "electric_dipole_moment_norm": 1.48504412392, 
			 "electric_quadrupole_moment_norm": 10.5998449602, 
			 "total_energy": -3184.77580358, 
			 "HOMO_LUMO_gap": 0.22475, 
			 "cosmo_polarized_energy": -11.36, 
			 "cosmo_cavitation_energy": 30.82, 
			 "cosmo_dispersion_energy": -22.25, 
			 "cosmo_repulsion_energy": 1.77, 
			 "cosmo_total_nonelectrostatic_energy": 10.34, 
			 "SMD_solvation_energy": 5.09 
		},
		"coords": [
			{
				"x": -3.5370061014,
				"y": 1.036407298,
				"z": -1.1732638371,
				"element": "O" 
			},
			{
				"x": -2.3807252838,
				"y": 1.6410371135,
				"z": -0.8257353382,
				"element": "C" 
			},
			{
				"x": -2.1239928584,
				"y": 1.9445392064,
				"z": 0.3214661974,
				"element": "O" 
			},
			{
				"x": -1.5116772813,
				"y": 1.9468953606,
				"z": -2.0283307005,
				"element": "C" 
			},
			{
				"x": -0.0122731676,
				"y": 1.7475658497,
				"z": -1.7610657782,
				"element": "C" 
			},
			{
				"x": 0.4300998387,
				"y": 0.2873679642,
				"z": -1.8278259674,
				"element": "C" 
			},
			{
				"x": -0.2623794509,
				"y": -0.5259893855,
				"z": -0.8606745913,
				"element": "O" 
			},
			{
				"x": 0.4281064865,
				"y": -0.8551043975,
				"z": 0.2794555542,
				"element": "C" 
			},
			{
				"x": 1.3593377091,
				"y": -1.9057569445,
				"z": 0.2940627392,
				"element": "C" 
			},
			{
				"x": 1.721653324,
				"y": -2.8826662101,
				"z": -1.3081212604,
				"element": "Br" 
			},
			{
				"x": 2.014590388,
				"y": -2.265818111,
				"z": 1.4704196594,
				"element": "C" 
			},
			{
				"x": 1.7392727715,
				"y": -1.5783204295,
				"z": 2.652951184,
				"element": "C" 
			},
			{
				"x": 0.8081198319,
				"y": -0.5388536754,
				"z": 2.6532766341,
				"element": "C" 
			},
			{
				"x": 0.1579274632,
				"y": -0.1772225911,
				"z": 1.4735787525,
				"element": "C" 
			},
			{
				"x": -4.0353396758,
				"y": 0.909030154,
				"z": -0.3479615787,
				"element": "H" 
			},
			{
				"x": -1.7023014514,
				"y": 3.0002513147,
				"z": -2.2712315174,
				"element": "H" 
			},
			{
				"x": -1.8517239196,
				"y": 1.3564638995,
				"z": -2.8839453492,
				"element": "H" 
			},
			{
				"x": 0.5625893744,
				"y": 2.3002732835,
				"z": -2.51431222,
				"element": "H" 
			},
			{
				"x": 0.2384931482,
				"y": 2.1753946299,
				"z": -0.7848024428,
				"element": "H" 
			},
			{
				"x": 1.5122342659,
				"y": 0.206618798,
				"z": -1.6807414946,
				"element": "H" 
			},
			{
				"x": 0.1924868864,
				"y": -0.1393678652,
				"z": -2.8085775302,
				"element": "H" 
			},
			{
				"x": 2.7275367866,
				"y": -3.082579584,
				"z": 1.455786683,
				"element": "H" 
			},
			{
				"x": 2.2486388098,
				"y": -1.8631727455,
				"z": 3.5685076651,
				"element": "H" 
			},
			{
				"x": 0.5869590182,
				"y": -0.0042138823,
				"z": 3.5722222772,
				"element": "H" 
			},
			{
				"x": -0.5731269121,
				"y": 0.6241209496,
				"z": 1.4493622598,
				"element": "H" 
			}
		],
		 "valence_orbital": [ 
			{
				"type": "occ",
				"energy": -0.2828,
				"method": "rhf"
			},
			{
				"type": "occ",
				"energy": -0.27932,
				"method": "rhf"
			},
			{
				"type": "occ",
				"energy": -0.27434,
				"method": "rhf"
			},
			{
				"type": "occ",
				"energy": -0.24775,
				"method": "rhf"
			},
			{
				"type": "occ",
				"energy": -0.23431,
				"method": "rhf"
			},
			{
				"type": "unocc",
				"energy": -0.00956,
				"method": "rhf"
			},
			{
				"type": "unocc",
				"energy": -0.00372,
				"method": "rhf"
			},
			{
				"type": "unocc",
				"energy": 0.00548,
				"method": "rhf"
			},
			{
				"type": "unocc",
				"energy": 0.01296,
				"method": "rhf"
			},
			{
				"type": "unocc",
				"energy": 0.07826,
				"method": "rhf"
			}
		],
		"cosmo_sigma_profile": { 
			"-0.025": 0.0,
			"-0.024": 0.0,
			"-0.023": 0.0,
			"-0.022": 0.0,
			"-0.021": 0.0,
			"-0.02": 0.0,
			"-0.019": 0.0148506605,
			"-0.018": 0.507832438972,
			"-0.017": 1.12443787914,
			"-0.016": 0.810441588264,
			"-0.015": 0.80097564613,
			"-0.014": 0.665873476105,
			"-0.013": 0.326785608614,
			"-0.012": 0.927083971089,
			"-0.011": 0.87027844451,
			"-0.01": 0.792615691411,
			"-0.009": 0.315922403071,
			"-0.008": 0.331417322447,
			"-0.007": 4.89468129119,
			"-0.006": 11.3700097645,
			"-0.005": 18.3633562358,
			"-0.004": 22.9671152041,
			"-0.003": 20.164759637,
			"-0.002": 17.96028418,
			"-0.001": 15.8382682107,
			"0.0": 11.1198607549,
			"0.001": 15.0207093148,
			"0.002": 19.496387202,
			"0.003": 22.1987055841,
			"0.004": 22.0451360144,
			"0.005": 11.926778689,
			"0.006": 5.08523062586,
			"0.007": 4.10720327196,
			"0.008": 3.73182580519,
			"0.009": 4.84103419356,
			"0.01": 3.19878032827,
			"0.011": 2.86608800892,
			"0.012": 2.56651832212,
			"0.013": 0.169891076442,
			"0.014": 0.0,
			"0.015": 0.0,
			"0.016": 0.0,
			"0.017": 0.0,
			"0.018": 0.0,
			"0.019": 0.0,
			"0.02": 0.0,
			"0.021": 0.0,
			"0.022": 0.0,
			"0.023": 0.0,
			"0.024": 0.0,
			"0.025": 0.0
		}
	}
}
