{
	 "smiles": "CC(C)C(NC(=O)C1=CC=CO1)C(O)=O", 
	 "Tm": 377.15, 
	 "num_atms": 28, 
	 "gaussian": { 
		 "optdone": 1, 
		 "sigma_profile": "yes", 
		 "theory": "DFT", 
		 "functional": "B3LYP", 
		 "basiset": "6-31G**", 
		 "properties": { 
			 "R2extent": 3276.7348, 
			 "electric_dipole_moment_norm": 2.01761511196, 
			 "electric_quadrupole_moment_norm": 21.2698207552, 
			 "total_energy": -744.54502519, 
			 "HOMO_LUMO_gap": 0.2033, 
			 "cosmo_polarized_energy": -17.06, 
			 "cosmo_cavitation_energy": 31.32, 
			 "cosmo_dispersion_energy": -21.4, 
			 "cosmo_repulsion_energy": 1.68, 
			 "cosmo_total_nonelectrostatic_energy": 11.61, 
			 "SMD_solvation_energy": 8.11 
		},
		"coords": [
			{
				"x": -0.6145032042,
				"y": -0.515807078,
				"z": -2.8846238576,
				"element": "C" 
			},
			{
				"x": -1.2099458057,
				"y": 0.2545206783,
				"z": -1.6976450993,
				"element": "C" 
			},
			{
				"x": -2.2358455321,
				"y": 1.2855583779,
				"z": -2.1986959466,
				"element": "C" 
			},
			{
				"x": -1.8639760249,
				"y": -0.7133525513,
				"z": -0.6651550724,
				"element": "C" 
			},
			{
				"x": -1.220311623,
				"y": -2.016997784,
				"z": -0.508642021,
				"element": "N" 
			},
			{
				"x": -0.0779421505,
				"y": -2.4521593645,
				"z": 0.1230560738,
				"element": "C" 
			},
			{
				"x": 0.2159351714,
				"y": -3.6465661157,
				"z": 0.1041166612,
				"element": "O" 
			},
			{
				"x": 0.8166969247,
				"y": -1.5157273192,
				"z": 0.8257612831,
				"element": "C" 
			},
			{
				"x": 1.9717632036,
				"y": -1.7933764502,
				"z": 1.5048747292,
				"element": "C" 
			},
			{
				"x": 2.4563262709,
				"y": -0.5494776725,
				"z": 2.0090379102,
				"element": "C" 
			},
			{
				"x": 1.5640767781,
				"y": 0.3994208671,
				"z": 1.6027617636,
				"element": "C" 
			},
			{
				"x": 0.5622540204,
				"y": -0.1698395335,
				"z": 0.8806507359,
				"element": "O" 
			},
			{
				"x": -2.1702574496,
				"y": -0.033416635,
				"z": 0.6794547662,
				"element": "C" 
			},
			{
				"x": -2.4037969724,
				"y": -0.933142746,
				"z": 1.6595634159,
				"element": "O" 
			},
			{
				"x": -2.2636540303,
				"y": 1.1605859266,
				"z": 0.8579926204,
				"element": "O" 
			},
			{
				"x": -1.3821794725,
				"y": -1.1003892873,
				"z": -3.4070884893,
				"element": "H" 
			},
			{
				"x": -0.191462335,
				"y": 0.1888081167,
				"z": -3.6077228301,
				"element": "H" 
			},
			{
				"x": 0.1777991472,
				"y": -1.2032096274,
				"z": -2.5799552845,
				"element": "H" 
			},
			{
				"x": -0.4032656295,
				"y": 0.7897739329,
				"z": -1.1875908472,
				"element": "H" 
			},
			{
				"x": -1.7610956368,
				"y": 1.9781311809,
				"z": -2.9013931856,
				"element": "H" 
			},
			{
				"x": -3.0565883162,
				"y": 0.7896218082,
				"z": -2.7335713723,
				"element": "H" 
			},
			{
				"x": -2.6554349024,
				"y": 1.8669500953,
				"z": -1.3770757065,
				"element": "H" 
			},
			{
				"x": -2.8595517685,
				"y": -0.9601912598,
				"z": -1.061208984,
				"element": "H" 
			},
			{
				"x": -1.7024184838,
				"y": -2.8061130327,
				"z": -0.9164677005,
				"element": "H" 
			},
			{
				"x": 2.4018634601,
				"y": -2.7766239084,
				"z": 1.6185106064,
				"element": "H" 
			},
			{
				"x": 3.3482836761,
				"y": -0.3810381424,
				"z": 2.5948472562,
				"element": "H" 
			},
			{
				"x": 1.4971633173,
				"y": 1.4682842314,
				"z": 1.7346671207,
				"element": "H" 
			},
			{
				"x": -2.6170326325,
				"y": -0.4115267075,
				"z": 2.4516414542,
				"element": "H" 
			}
		],
		 "valence_orbital": [ 
			{
				"type": "occ",
				"energy": -0.29251,
				"method": "rhf"
			},
			{
				"type": "occ",
				"energy": -0.28612,
				"method": "rhf"
			},
			{
				"type": "occ",
				"energy": -0.25546,
				"method": "rhf"
			},
			{
				"type": "occ",
				"energy": -0.2479,
				"method": "rhf"
			},
			{
				"type": "occ",
				"energy": -0.23859,
				"method": "rhf"
			},
			{
				"type": "unocc",
				"energy": -0.03529,
				"method": "rhf"
			},
			{
				"type": "unocc",
				"energy": 5e-05,
				"method": "rhf"
			},
			{
				"type": "unocc",
				"energy": 0.04185,
				"method": "rhf"
			},
			{
				"type": "unocc",
				"energy": 0.07029,
				"method": "rhf"
			},
			{
				"type": "unocc",
				"energy": 0.0791,
				"method": "rhf"
			}
		],
		"cosmo_sigma_profile": { 
			"-0.025": 0.0,
			"-0.024": 0.0,
			"-0.023": 0.0,
			"-0.022": 0.0,
			"-0.021": 0.0,
			"-0.02": 0.0,
			"-0.019": 0.0332835108936,
			"-0.018": 0.816970728197,
			"-0.017": 0.96887683328,
			"-0.016": 0.64399245529,
			"-0.015": 0.869097938331,
			"-0.014": 2.23139441776,
			"-0.013": 1.42275795902,
			"-0.012": 1.7040716093,
			"-0.011": 2.15817902114,
			"-0.01": 3.0698182779,
			"-0.009": 3.41393421149,
			"-0.008": 7.22654212616,
			"-0.007": 8.21813406709,
			"-0.006": 6.91718168111,
			"-0.005": 8.61414984386,
			"-0.004": 9.0688093617,
			"-0.003": 17.6040552193,
			"-0.002": 17.9081513461,
			"-0.001": 21.0806064327,
			"0.0": 21.2028689299,
			"0.001": 27.7860613787,
			"0.002": 16.8382339621,
			"0.003": 12.7923661378,
			"0.004": 8.9263934254,
			"0.005": 6.04680575041,
			"0.006": 4.56517106139,
			"0.007": 4.04044404934,
			"0.008": 5.36789339469,
			"0.009": 3.85249180376,
			"0.01": 3.33126647266,
			"0.011": 4.92681832372,
			"0.012": 4.12268923311,
			"0.013": 4.70255956008,
			"0.014": 4.11621775016,
			"0.015": 0.174244643276,
			"0.016": 0.0,
			"0.017": 0.0,
			"0.018": 0.0,
			"0.019": 0.0,
			"0.02": 0.0,
			"0.021": 0.0,
			"0.022": 0.0,
			"0.023": 0.0,
			"0.024": 0.0,
			"0.025": 0.0
		}
	}
}
