{
	 "smiles": "CC(C)C(NC(=O)C1=C(Cl)C=C(C=C1)[N+]([O-])=O)C(O)=O", 
	 "Tm": 419.15, 
	 "num_atms": 33, 
	 "gaussian": { 
		 "optdone": 1, 
		 "sigma_profile": "yes", 
		 "theory": "DFT", 
		 "functional": "B3LYP", 
		 "basiset": "6-31G**", 
		 "properties": { 
			 "R2extent": 8439.6247, 
			 "electric_dipole_moment_norm": 6.59520913543, 
			 "electric_quadrupole_moment_norm": 11.9397029821, 
			 "total_energy": -1410.8443519, 
			 "HOMO_LUMO_gap": 0.16402, 
			 "cosmo_polarized_energy": -25.22, 
			 "cosmo_cavitation_energy": 39.66, 
			 "cosmo_dispersion_energy": -26.22, 
			 "cosmo_repulsion_energy": 2.02, 
			 "cosmo_total_nonelectrostatic_energy": 15.46, 
			 "SMD_solvation_energy": 10.22 
		},
		"coords": [
			{
				"x": -2.2306158312,
				"y": -0.5407568062,
				"z": -0.6855285497,
				"element": "C" 
			},
			{
				"x": -1.2059343545,
				"y": 0.4295150945,
				"z": -1.2885760719,
				"element": "C" 
			},
			{
				"x": -1.816860436,
				"y": 1.8166125661,
				"z": -1.5470034946,
				"element": "C" 
			},
			{
				"x": 0.085131379,
				"y": 0.4956970356,
				"z": -0.4194316822,
				"element": "C" 
			},
			{
				"x": -0.2011688695,
				"y": 0.9970758389,
				"z": 0.9082762631,
				"element": "N" 
			},
			{
				"x": 0.6126836015,
				"y": 0.891857266,
				"z": 2.007330038,
				"element": "C" 
			},
			{
				"x": 0.4456975625,
				"y": 1.5651922838,
				"z": 3.0105170634,
				"element": "O" 
			},
			{
				"x": 1.75564205,
				"y": -0.102526851,
				"z": 1.9468758975,
				"element": "C" 
			},
			{
				"x": 1.5899320503,
				"y": -1.4772538378,
				"z": 2.1686187612,
				"element": "C" 
			},
			{
				"x": -0.0135922339,
				"y": -2.1529476549,
				"z": 2.3995295536,
				"element": "Cl" 
			},
			{
				"x": 2.6810796665,
				"y": -2.341098676,
				"z": 2.2151343482,
				"element": "C" 
			},
			{
				"x": 3.9509441402,
				"y": -1.8024775434,
				"z": 2.0338416116,
				"element": "C" 
			},
			{
				"x": 4.1614777761,
				"y": -0.443542497,
				"z": 1.8145213262,
				"element": "C" 
			},
			{
				"x": 3.0551913141,
				"y": 0.3989480492,
				"z": 1.7791794842,
				"element": "C" 
			},
			{
				"x": 5.110380383,
				"y": -2.7129018282,
				"z": 2.0737363598,
				"element": "N" 
			},
			{
				"x": 4.8886267988,
				"y": -3.9081826929,
				"z": 2.2592772116,
				"element": "O" 
			},
			{
				"x": 6.223981056,
				"y": -2.2174903012,
				"z": 1.9159664989,
				"element": "O" 
			},
			{
				"x": 1.1954121973,
				"y": 1.3299133139,
				"z": -1.1003066432,
				"element": "C" 
			},
			{
				"x": 1.6210971125,
				"y": 0.867836501,
				"z": -2.3022320603,
				"element": "O" 
			},
			{
				"x": 1.6810064352,
				"y": 2.3225486877,
				"z": -0.621182414,
				"element": "O" 
			},
			{
				"x": -3.1038817862,
				"y": -0.6248484466,
				"z": -1.3396888457,
				"element": "H" 
			},
			{
				"x": -1.807080692,
				"y": -1.5414523552,
				"z": -0.5534782444,
				"element": "H" 
			},
			{
				"x": -2.5720597642,
				"y": -0.194407639,
				"z": 0.2940730105,
				"element": "H" 
			},
			{
				"x": -0.9016554338,
				"y": 0.0230306261,
				"z": -2.2637589381,
				"element": "H" 
			},
			{
				"x": -2.2178471775,
				"y": 2.263131336,
				"z": -0.62989532,
				"element": "H" 
			},
			{
				"x": -2.6529710638,
				"y": 1.7318810073,
				"z": -2.2472357489,
				"element": "H" 
			},
			{
				"x": -1.0914404119,
				"y": 2.5158153513,
				"z": -1.9742459889,
				"element": "H" 
			},
			{
				"x": 0.4685615599,
				"y": -0.5277834133,
				"z": -0.3208003039,
				"element": "H" 
			},
			{
				"x": -0.818750852,
				"y": 1.7972075463,
				"z": 0.9747022411,
				"element": "H" 
			},
			{
				"x": 2.5603176773,
				"y": -3.4020255606,
				"z": 2.3896365226,
				"element": "H" 
			},
			{
				"x": 5.1685487746,
				"y": -0.0706427648,
				"z": 1.6794827488,
				"element": "H" 
			},
			{
				"x": 3.1849351912,
				"y": 1.461989852,
				"z": 1.6085018993,
				"element": "H" 
			},
			{
				"x": 1.1607121804,
				"y": 0.0507865126,
				"z": -2.5423365338,
				"element": "H" 
			}
		],
		 "valence_orbital": [ 
			{
				"type": "occ",
				"energy": -0.30206,
				"method": "rhf"
			},
			{
				"type": "occ",
				"energy": -0.29868,
				"method": "rhf"
			},
			{
				"type": "occ",
				"energy": -0.28035,
				"method": "rhf"
			},
			{
				"type": "occ",
				"energy": -0.27471,
				"method": "rhf"
			},
			{
				"type": "occ",
				"energy": -0.26617,
				"method": "rhf"
			},
			{
				"type": "unocc",
				"energy": -0.10215,
				"method": "rhf"
			},
			{
				"type": "unocc",
				"energy": -0.04519,
				"method": "rhf"
			},
			{
				"type": "unocc",
				"energy": -0.02055,
				"method": "rhf"
			},
			{
				"type": "unocc",
				"energy": -0.01527,
				"method": "rhf"
			},
			{
				"type": "unocc",
				"energy": -0.00057,
				"method": "rhf"
			}
		],
		"cosmo_sigma_profile": { 
			"-0.025": 0.0,
			"-0.024": 0.0,
			"-0.023": 0.0,
			"-0.022": 0.0,
			"-0.021": 0.0,
			"-0.02": 0.068501104319,
			"-0.019": 1.16929449909,
			"-0.018": 1.08259098806,
			"-0.017": 1.2016785702,
			"-0.016": 1.40965078683,
			"-0.015": 0.946230473887,
			"-0.014": 0.836157556129,
			"-0.013": 1.7897426246,
			"-0.012": 2.41435675463,
			"-0.011": 2.28267306021,
			"-0.01": 2.23430587997,
			"-0.009": 3.6930618818,
			"-0.008": 8.39450840866,
			"-0.007": 10.0876253717,
			"-0.006": 8.32591452723,
			"-0.005": 11.3162159768,
			"-0.004": 19.3856330931,
			"-0.003": 27.6298756901,
			"-0.002": 29.0976344211,
			"-0.001": 28.8880604341,
			"0.0": 26.1555445317,
			"0.001": 19.4333074211,
			"0.002": 12.7384347756,
			"0.003": 15.7944436555,
			"0.004": 10.0013736877,
			"0.005": 5.83692462874,
			"0.006": 8.08174708068,
			"0.007": 14.3246652089,
			"0.008": 8.95039282632,
			"0.009": 8.01504073748,
			"0.01": 7.2793894279,
			"0.011": 6.42966269623,
			"0.012": 7.94210644704,
			"0.013": 3.09784832534,
			"0.014": 0.133560697244,
			"0.015": 0.0,
			"0.016": 0.0,
			"0.017": 0.0,
			"0.018": 0.0,
			"0.019": 0.0,
			"0.02": 0.0,
			"0.021": 0.0,
			"0.022": 0.0,
			"0.023": 0.0,
			"0.024": 0.0,
			"0.025": 0.0
		}
	}
}
