{
	 "smiles": "CC1=NOC(=C1N=C=O)C1=CC=CC=C1", 
	 "Tm": 353.15, 
	 "num_atms": 23, 
	 "gaussian": { 
		 "optdone": 1, 
		 "sigma_profile": "yes", 
		 "theory": "DFT", 
		 "functional": "B3LYP", 
		 "basiset": "6-31G**", 
		 "properties": { 
			 "R2extent": 4408.6256, 
			 "electric_dipole_moment_norm": 1.33984486042, 
			 "electric_quadrupole_moment_norm": 11.4807700491, 
			 "total_energy": -683.899202511, 
			 "HOMO_LUMO_gap": 0.17165, 
			 "cosmo_polarized_energy": -8.5, 
			 "cosmo_cavitation_energy": 29.09, 
			 "cosmo_dispersion_energy": -20.84, 
			 "cosmo_repulsion_energy": 1.62, 
			 "cosmo_total_nonelectrostatic_energy": 9.87, 
			 "SMD_solvation_energy": 7.07 
		},
		"coords": [
			{
				"x": 2.8907335543,
				"y": 1.2632588269,
				"z": 2.9591854537,
				"element": "C" 
			},
			{
				"x": 1.6064299337,
				"y": 1.0056394964,
				"z": 2.2397473397,
				"element": "C" 
			},
			{
				"x": 0.8777117475,
				"y": 1.9931447281,
				"z": 1.77530228,
				"element": "N" 
			},
			{
				"x": -0.2339646392,
				"y": 1.399364778,
				"z": 1.1705532589,
				"element": "O" 
			},
			{
				"x": -0.1644989584,
				"y": 0.0511538997,
				"z": 1.2767057191,
				"element": "C" 
			},
			{
				"x": 0.9952357161,
				"y": -0.2566655921,
				"z": 1.9535686033,
				"element": "C" 
			},
			{
				"x": 1.4622567751,
				"y": -1.5148814566,
				"z": 2.2824638563,
				"element": "N" 
			},
			{
				"x": 2.393943694,
				"y": -2.0490543025,
				"z": 2.840212921,
				"element": "C" 
			},
			{
				"x": 3.2359372076,
				"y": -2.6948125616,
				"z": 3.3529134188,
				"element": "O" 
			},
			{
				"x": -1.2519154304,
				"y": -0.72782915,
				"z": 0.6939039764,
				"element": "C" 
			},
			{
				"x": -1.2563797483,
				"y": -2.1328274079,
				"z": 0.7648642129,
				"element": "C" 
			},
			{
				"x": -2.3032444898,
				"y": -2.8588072328,
				"z": 0.20208971,
				"element": "C" 
			},
			{
				"x": -3.3566512116,
				"y": -2.2010304463,
				"z": -0.4367219008,
				"element": "C" 
			},
			{
				"x": -3.3581746907,
				"y": -0.8059680773,
				"z": -0.5104368203,
				"element": "C" 
			},
			{
				"x": -2.3166142926,
				"y": -0.0713376345,
				"z": 0.0487555123,
				"element": "C" 
			},
			{
				"x": 2.8607586848,
				"y": 0.8610234326,
				"z": 3.9777884526,
				"element": "H" 
			},
			{
				"x": 3.0726944395,
				"y": 2.3379408308,
				"z": 3.0156986974,
				"element": "H" 
			},
			{
				"x": 3.7345991758,
				"y": 0.7940143358,
				"z": 2.4414984072,
				"element": "H" 
			},
			{
				"x": -0.4421546676,
				"y": -2.6497898907,
				"z": 1.2591457623,
				"element": "H" 
			},
			{
				"x": -2.2955497514,
				"y": -3.9430812233,
				"z": 0.2632201523,
				"element": "H" 
			},
			{
				"x": -4.1707643653,
				"y": -2.771424571,
				"z": -0.8741067012,
				"element": "H" 
			},
			{
				"x": -4.173864837,
				"y": -0.2874132217,
				"z": -1.0055636072,
				"element": "H" 
			},
			{
				"x": -2.3181238461,
				"y": 1.0113824399,
				"z": -0.0087887048,
				"element": "H" 
			}
		],
		 "valence_orbital": [ 
			{
				"type": "occ",
				"energy": -0.30283,
				"method": "rhf"
			},
			{
				"type": "occ",
				"energy": -0.29878,
				"method": "rhf"
			},
			{
				"type": "occ",
				"energy": -0.27437,
				"method": "rhf"
			},
			{
				"type": "occ",
				"energy": -0.26168,
				"method": "rhf"
			},
			{
				"type": "occ",
				"energy": -0.2264,
				"method": "rhf"
			},
			{
				"type": "unocc",
				"energy": -0.05475,
				"method": "rhf"
			},
			{
				"type": "unocc",
				"energy": -0.01142,
				"method": "rhf"
			},
			{
				"type": "unocc",
				"energy": 0.00336,
				"method": "rhf"
			},
			{
				"type": "unocc",
				"energy": 0.01162,
				"method": "rhf"
			},
			{
				"type": "unocc",
				"energy": 0.03393,
				"method": "rhf"
			}
		],
		"cosmo_sigma_profile": { 
			"-0.025": 0.0,
			"-0.024": 0.0,
			"-0.023": 0.0,
			"-0.022": 0.0,
			"-0.021": 0.0,
			"-0.02": 0.0,
			"-0.019": 0.0,
			"-0.018": 0.0,
			"-0.017": 0.0,
			"-0.016": 0.0,
			"-0.015": 0.0,
			"-0.014": 0.0,
			"-0.013": 0.0,
			"-0.012": 0.0,
			"-0.011": 0.0,
			"-0.01": 0.0,
			"-0.009": 0.0093155880503,
			"-0.008": 1.2975795917,
			"-0.007": 5.76421000316,
			"-0.006": 14.1908558675,
			"-0.005": 16.8624823655,
			"-0.004": 19.1165326691,
			"-0.003": 18.4519931001,
			"-0.002": 19.1943820431,
			"-0.001": 22.440383867,
			"0.0": 23.7394411271,
			"0.001": 15.8081490856,
			"0.002": 13.6797160478,
			"0.003": 12.8840589151,
			"0.004": 16.1202673091,
			"0.005": 7.34922845774,
			"0.006": 6.00609752097,
			"0.007": 11.1718561066,
			"0.008": 3.41199731197,
			"0.009": 1.535753919,
			"0.01": 1.67517885828,
			"0.011": 1.37834108488,
			"0.012": 1.46751502672,
			"0.013": 1.13326760435,
			"0.014": 0.659634085473,
			"0.015": 0.0,
			"0.016": 0.0,
			"0.017": 0.0,
			"0.018": 0.0,
			"0.019": 0.0,
			"0.02": 0.0,
			"0.021": 0.0,
			"0.022": 0.0,
			"0.023": 0.0,
			"0.024": 0.0,
			"0.025": 0.0
		}
	}
}
