{
	 "smiles": "CCCCCCN1C(=O)N(C)C2=C(N(C)C=N2)C1=O", 
	 "Tm": 355.15, 
	 "num_atms": 39, 
	 "gaussian": { 
		 "optdone": 1, 
		 "sigma_profile": "yes", 
		 "theory": "DFT", 
		 "functional": "B3LYP", 
		 "basiset": "6-31G**", 
		 "properties": { 
			 "R2extent": 7177.2187, 
			 "electric_dipole_moment_norm": 3.6274560273, 
			 "electric_quadrupole_moment_norm": 10.8809579413, 
			 "total_energy": -876.954191524, 
			 "HOMO_LUMO_gap": 0.18685, 
			 "cosmo_polarized_energy": -14.2, 
			 "cosmo_cavitation_energy": 40.78, 
			 "cosmo_dispersion_energy": -28.62, 
			 "cosmo_repulsion_energy": 2.21, 
			 "cosmo_total_nonelectrostatic_energy": 14.37, 
			 "SMD_solvation_energy": 6.32 
		},
		"coords": [
			{
				"x": 0.0586416613,
				"y": -4.050268284,
				"z": 5.0021714809,
				"element": "C" 
			},
			{
				"x": -0.4240781902,
				"y": -3.8078369137,
				"z": 3.5683870264,
				"element": "C" 
			},
			{
				"x": -1.8338236085,
				"y": -3.1985110826,
				"z": 3.5091645705,
				"element": "C" 
			},
			{
				"x": -2.3900270964,
				"y": -2.9531029985,
				"z": 2.0887224232,
				"element": "C" 
			},
			{
				"x": -2.124711079,
				"y": -1.5614889025,
				"z": 1.4870577405,
				"element": "C" 
			},
			{
				"x": -0.6473079177,
				"y": -1.2428224019,
				"z": 1.229003814,
				"element": "C" 
			},
			{
				"x": -0.4698818362,
				"y": 0.060712481,
				"z": 0.5581279219,
				"element": "N" 
			},
			{
				"x": -0.3888778402,
				"y": 1.1865001873,
				"z": 1.4032174673,
				"element": "C" 
			},
			{
				"x": -0.4543554334,
				"y": 1.0753574497,
				"z": 2.6206911749,
				"element": "O" 
			},
			{
				"x": -0.2264137748,
				"y": 2.4261025947,
				"z": 0.7830434239,
				"element": "N" 
			},
			{
				"x": -0.1475399911,
				"y": 3.6398963075,
				"z": 1.5942397824,
				"element": "C" 
			},
			{
				"x": -0.1768991968,
				"y": 2.5017419382,
				"z": -0.5892577772,
				"element": "C" 
			},
			{
				"x": -0.2673342428,
				"y": 1.3753754548,
				"z": -1.3831135899,
				"element": "C" 
			},
			{
				"x": -0.199982801,
				"y": 1.8455674531,
				"z": -2.6861207961,
				"element": "N" 
			},
			{
				"x": -0.1915103183,
				"y": 1.0375766624,
				"z": -3.9004133645,
				"element": "C" 
			},
			{
				"x": -0.0662043136,
				"y": 3.1926234061,
				"z": -2.5836421552,
				"element": "C" 
			},
			{
				"x": -0.0521897845,
				"y": 3.6357779387,
				"z": -1.3289975921,
				"element": "N" 
			},
			{
				"x": -0.4504808059,
				"y": 0.0542843402,
				"z": -0.8579663259,
				"element": "C" 
			},
			{
				"x": -0.5799686122,
				"y": -0.981637508,
				"z": -1.5077346391,
				"element": "O" 
			},
			{
				"x": 0.1073419095,
				"y": -3.112355827,
				"z": 5.5669742087,
				"element": "H" 
			},
			{
				"x": -0.6192425697,
				"y": -4.7236379788,
				"z": 5.5396425828,
				"element": "H" 
			},
			{
				"x": 1.056684026,
				"y": -4.5005483692,
				"z": 5.0188537865,
				"element": "H" 
			},
			{
				"x": 0.2943122513,
				"y": -3.1608295439,
				"z": 3.0510890115,
				"element": "H" 
			},
			{
				"x": -0.4251119767,
				"y": -4.7578792652,
				"z": 3.0165431939,
				"element": "H" 
			},
			{
				"x": -2.512407798,
				"y": -3.8786673987,
				"z": 4.0412669435,
				"element": "H" 
			},
			{
				"x": -1.850965943,
				"y": -2.2572459386,
				"z": 4.0764433545,
				"element": "H" 
			},
			{
				"x": -2.0098342785,
				"y": -3.7267735487,
				"z": 1.4066490877,
				"element": "H" 
			},
			{
				"x": -3.4783731991,
				"y": -3.0871563549,
				"z": 2.1095985075,
				"element": "H" 
			},
			{
				"x": -2.535234171,
				"y": -0.7921413578,
				"z": 2.1520079096,
				"element": "H" 
			},
			{
				"x": -2.6582914334,
				"y": -1.4851303401,
				"z": 0.5322676156,
				"element": "H" 
			},
			{
				"x": -0.2046017462,
				"y": -1.9918452607,
				"z": 0.5704990598,
				"element": "H" 
			},
			{
				"x": -0.0868236108,
				"y": -1.1933863553,
				"z": 2.1614134311,
				"element": "H" 
			},
			{
				"x": 0.7471977151,
				"y": 4.2052985132,
				"z": 1.3242353721,
				"element": "H" 
			},
			{
				"x": -1.0245597823,
				"y": 4.2704561865,
				"z": 1.4219628439,
				"element": "H" 
			},
			{
				"x": -0.1069855246,
				"y": 3.334019175,
				"z": 2.6372557286,
				"element": "H" 
			},
			{
				"x": -0.5153929498,
				"y": 1.6557720239,
				"z": -4.7397679591,
				"element": "H" 
			},
			{
				"x": 0.811901907,
				"y": 0.6497008475,
				"z": -4.1000246246,
				"element": "H" 
			},
			{
				"x": -0.8676064147,
				"y": 0.1933051532,
				"z": -3.769576511,
				"element": "H" 
			},
			{
				"x": 0.0161387698,
				"y": 3.8229975173,
				"z": -3.4590141287,
				"element": "H" 
			}
		],
		 "valence_orbital": [ 
			{
				"type": "occ",
				"energy": -0.28308,
				"method": "rhf"
			},
			{
				"type": "occ",
				"energy": -0.2799,
				"method": "rhf"
			},
			{
				"type": "occ",
				"energy": -0.26075,
				"method": "rhf"
			},
			{
				"type": "occ",
				"energy": -0.2576,
				"method": "rhf"
			},
			{
				"type": "occ",
				"energy": -0.21851,
				"method": "rhf"
			},
			{
				"type": "unocc",
				"energy": -0.03166,
				"method": "rhf"
			},
			{
				"type": "unocc",
				"energy": 0.02441,
				"method": "rhf"
			},
			{
				"type": "unocc",
				"energy": 0.03557,
				"method": "rhf"
			},
			{
				"type": "unocc",
				"energy": 0.09039,
				"method": "rhf"
			},
			{
				"type": "unocc",
				"energy": 0.09272,
				"method": "rhf"
			}
		],
		"cosmo_sigma_profile": { 
			"-0.025": 0.0,
			"-0.024": 0.0,
			"-0.023": 0.0,
			"-0.022": 0.0,
			"-0.021": 0.0,
			"-0.02": 0.0,
			"-0.019": 0.0,
			"-0.018": 0.0,
			"-0.017": 0.0,
			"-0.016": 0.0,
			"-0.015": 0.0,
			"-0.014": 0.0,
			"-0.013": 0.0,
			"-0.012": 0.0,
			"-0.011": 0.1712534739,
			"-0.01": 2.96452664095,
			"-0.009": 2.8117930133,
			"-0.008": 2.66304364827,
			"-0.007": 4.48708919276,
			"-0.006": 8.40278704669,
			"-0.005": 12.8929701384,
			"-0.004": 20.1395033025,
			"-0.003": 28.9863934233,
			"-0.002": 46.1843160304,
			"-0.001": 50.6843977916,
			"0.0": 39.1271894292,
			"0.001": 28.5271814126,
			"0.002": 14.566243833,
			"0.003": 5.73972486225,
			"0.004": 5.66600904259,
			"0.005": 4.66767882999,
			"0.006": 4.81701595881,
			"0.007": 5.39017057411,
			"0.008": 3.53165508314,
			"0.009": 3.40918724847,
			"0.01": 4.4694747738,
			"0.011": 4.77034459208,
			"0.012": 5.93367780856,
			"0.013": 7.35570236918,
			"0.014": 0.868094736505,
			"0.015": 0.749294273487,
			"0.016": 0.103187410219,
			"0.017": 0.0,
			"0.018": 0.0,
			"0.019": 0.0,
			"0.02": 0.0,
			"0.021": 0.0,
			"0.022": 0.0,
			"0.023": 0.0,
			"0.024": 0.0,
			"0.025": 0.0
		}
	}
}
