{
	 "smiles": "CN(C)S(=O)(=O)C1=CC(NC(=O)CCl)=CC=C1", 
	 "Tm": 349.15, 
	 "num_atms": 30, 
	 "gaussian": { 
		 "optdone": 1, 
		 "sigma_profile": "yes", 
		 "theory": "DFT", 
		 "functional": "B3LYP", 
		 "basiset": "6-31G**", 
		 "properties": { 
			 "R2extent": 7285.1369, 
			 "electric_dipole_moment_norm": 4.16969140945, 
			 "electric_quadrupole_moment_norm": 27.9006684807, 
			 "total_energy": -1582.38562745, 
			 "HOMO_LUMO_gap": 0.19582, 
			 "cosmo_polarized_energy": -20.48, 
			 "cosmo_cavitation_energy": 36.79, 
			 "cosmo_dispersion_energy": -26.32, 
			 "cosmo_repulsion_energy": 2.01, 
			 "cosmo_total_nonelectrostatic_energy": 12.49, 
			 "SMD_solvation_energy": 5.67 
		},
		"coords": [
			{
				"x": -2.2577452724,
				"y": -3.4924937377,
				"z": 1.5112751178,
				"element": "C" 
			},
			{
				"x": -1.9744995319,
				"y": -2.0798058597,
				"z": 1.2127424763,
				"element": "N" 
			},
			{
				"x": -3.1624869538,
				"y": -1.2179426807,
				"z": 1.245128963,
				"element": "C" 
			},
			{
				"x": -0.9904988941,
				"y": -1.8383834773,
				"z": -0.1546581001,
				"element": "S" 
			},
			{
				"x": -1.7961607396,
				"y": -1.5990042629,
				"z": -1.3616609182,
				"element": "O" 
			},
			{
				"x": 0.0138844088,
				"y": -2.9056618656,
				"z": -0.1312486921,
				"element": "O" 
			},
			{
				"x": -0.1894849459,
				"y": -0.2836428149,
				"z": 0.2689608231,
				"element": "C" 
			},
			{
				"x": -0.3887152325,
				"y": 0.8134167656,
				"z": -0.5621300909,
				"element": "C" 
			},
			{
				"x": 0.2685316647,
				"y": 2.0211935409,
				"z": -0.278331566,
				"element": "C" 
			},
			{
				"x": 0.0148685847,
				"y": 3.1280999954,
				"z": -1.1209858997,
				"element": "N" 
			},
			{
				"x": 0.841041234,
				"y": 4.1020015536,
				"z": -1.6496810451,
				"element": "C" 
			},
			{
				"x": 0.3889339662,
				"y": 4.9614300871,
				"z": -2.386713197,
				"element": "O" 
			},
			{
				"x": 2.3338366944,
				"y": 4.0435082925,
				"z": -1.3392603196,
				"element": "C" 
			},
			{
				"x": 2.7647513998,
				"y": 5.178037571,
				"z": 0.0092744301,
				"element": "Cl" 
			},
			{
				"x": 1.1008397737,
				"y": 2.1017124099,
				"z": 0.8464360591,
				"element": "C" 
			},
			{
				"x": 1.3103843854,
				"y": 0.9755383471,
				"z": 1.6466585487,
				"element": "C" 
			},
			{
				"x": 0.6702397169,
				"y": -0.2292791079,
				"z": 1.3688819168,
				"element": "C" 
			},
			{
				"x": -2.9995072255,
				"y": -3.9298724745,
				"z": 0.8281036161,
				"element": "H" 
			},
			{
				"x": -1.3343616913,
				"y": -4.067407173,
				"z": 1.4541506726,
				"element": "H" 
			},
			{
				"x": -2.6472914365,
				"y": -3.5423142673,
				"z": 2.5320713022,
				"element": "H" 
			},
			{
				"x": -3.6068001907,
				"y": -1.296663754,
				"z": 2.2411135243,
				"element": "H" 
			},
			{
				"x": -2.8732824973,
				"y": -0.1764779654,
				"z": 1.0868077904,
				"element": "H" 
			},
			{
				"x": -3.910152002,
				"y": -1.49765132,
				"z": 0.4914990503,
				"element": "H" 
			},
			{
				"x": -1.0370189207,
				"y": 0.7177063265,
				"z": -1.4271144523,
				"element": "H" 
			},
			{
				"x": -0.916908564,
				"y": 3.1904664099,
				"z": -1.5150443528,
				"element": "H" 
			},
			{
				"x": 2.8592207761,
				"y": 4.4010619267,
				"z": -2.2229619824,
				"element": "H" 
			},
			{
				"x": 2.6863761767,
				"y": 3.052843714,
				"z": -1.0550196988,
				"element": "H" 
			},
			{
				"x": 1.5668837476,
				"y": 3.044284982,
				"z": 1.1100877097,
				"element": "H" 
			},
			{
				"x": 1.9668346671,
				"y": 1.0524665999,
				"z": 2.5078489516,
				"element": "H" 
			},
			{
				"x": 0.8211869022,
				"y": -1.1047677614,
				"z": 1.9896693631,
				"element": "H" 
			}
		],
		 "valence_orbital": [ 
			{
				"type": "occ",
				"energy": -0.30563,
				"method": "rhf"
			},
			{
				"type": "occ",
				"energy": -0.28872,
				"method": "rhf"
			},
			{
				"type": "occ",
				"energy": -0.27443,
				"method": "rhf"
			},
			{
				"type": "occ",
				"energy": -0.26175,
				"method": "rhf"
			},
			{
				"type": "occ",
				"energy": -0.24961,
				"method": "rhf"
			},
			{
				"type": "unocc",
				"energy": -0.05379,
				"method": "rhf"
			},
			{
				"type": "unocc",
				"energy": -0.04574,
				"method": "rhf"
			},
			{
				"type": "unocc",
				"energy": -0.02164,
				"method": "rhf"
			},
			{
				"type": "unocc",
				"energy": 0.04622,
				"method": "rhf"
			},
			{
				"type": "unocc",
				"energy": 0.05216,
				"method": "rhf"
			}
		],
		"cosmo_sigma_profile": { 
			"-0.025": 0.0,
			"-0.024": 0.0,
			"-0.023": 0.0,
			"-0.022": 0.0,
			"-0.021": 0.0,
			"-0.02": 0.0,
			"-0.019": 0.0,
			"-0.018": 0.0,
			"-0.017": 0.0,
			"-0.016": 0.120577625161,
			"-0.015": 1.10693779718,
			"-0.014": 1.27680545277,
			"-0.013": 1.25163953699,
			"-0.012": 1.08028980172,
			"-0.011": 1.08557249423,
			"-0.01": 1.45469316533,
			"-0.009": 2.85727513433,
			"-0.008": 6.66867634053,
			"-0.007": 11.7665254833,
			"-0.006": 16.6293431047,
			"-0.005": 18.6622560991,
			"-0.004": 24.085811507,
			"-0.003": 24.9678262095,
			"-0.002": 26.8400970457,
			"-0.001": 15.58211504,
			"0.0": 17.4009443582,
			"0.001": 18.2869323785,
			"0.002": 17.348889847,
			"0.003": 12.17771182,
			"0.004": 10.659240349,
			"0.005": 12.871985809,
			"0.006": 5.27527092571,
			"0.007": 5.04833788447,
			"0.008": 4.98058743723,
			"0.009": 4.77769619778,
			"0.01": 8.00051786921,
			"0.011": 11.2633868537,
			"0.012": 8.44583807352,
			"0.013": 2.49682855332,
			"0.014": 0.115610284917,
			"0.015": 0.0,
			"0.016": 0.0,
			"0.017": 0.0,
			"0.018": 0.0,
			"0.019": 0.0,
			"0.02": 0.0,
			"0.021": 0.0,
			"0.022": 0.0,
			"0.023": 0.0,
			"0.024": 0.0,
			"0.025": 0.0
		}
	}
}
