{
	 "smiles": "CC1=NC2=C(C=CC=C2)N1N", 
	 "Tm": 419.15, 
	 "num_atms": 20, 
	 "gaussian": { 
		 "optdone": 1, 
		 "sigma_profile": "yes", 
		 "theory": "DFT", 
		 "functional": "B3LYP", 
		 "basiset": "6-31G**", 
		 "properties": { 
			 "R2extent": 1728.6648, 
			 "electric_dipole_moment_norm": 3.64126279606, 
			 "electric_quadrupole_moment_norm": 3.59873759116, 
			 "total_energy": -474.513984966, 
			 "HOMO_LUMO_gap": 0.20693, 
			 "cosmo_polarized_energy": -13.38, 
			 "cosmo_cavitation_energy": 23.71, 
			 "cosmo_dispersion_energy": -17.61, 
			 "cosmo_repulsion_energy": 1.41, 
			 "cosmo_total_nonelectrostatic_energy": 7.51, 
			 "SMD_solvation_energy": 2.61 
		},
		"coords": [
			{
				"x": 1.4430166181,
				"y": -2.1888739739,
				"z": 0.9989380891,
				"element": "C" 
			},
			{
				"x": 0.907249947,
				"y": -0.8825716107,
				"z": 0.5188689269,
				"element": "C" 
			},
			{
				"x": 1.3678342373,
				"y": 0.3008501255,
				"z": 0.848024922,
				"element": "N" 
			},
			{
				"x": 0.5677597423,
				"y": 1.2128441982,
				"z": 0.1686786406,
				"element": "C" 
			},
			{
				"x": -0.4112684314,
				"y": 0.5391162582,
				"z": -0.5977606377,
				"element": "C" 
			},
			{
				"x": -1.3527244593,
				"y": 1.203244137,
				"z": -1.3824230066,
				"element": "C" 
			},
			{
				"x": -1.2919172502,
				"y": 2.5967649813,
				"z": -1.3838495184,
				"element": "C" 
			},
			{
				"x": -0.3254075403,
				"y": 3.2885537925,
				"z": -0.6281287514,
				"element": "C" 
			},
			{
				"x": 0.6097332313,
				"y": 2.6116854886,
				"z": 0.1518630581,
				"element": "C" 
			},
			{
				"x": -0.1687579058,
				"y": -0.8057231037,
				"z": -0.353064437,
				"element": "N" 
			},
			{
				"x": -0.8479585694,
				"y": -1.9176106204,
				"z": -0.8613217285,
				"element": "N" 
			},
			{
				"x": 2.2809187792,
				"y": -1.9931110291,
				"z": 1.6686264462,
				"element": "H" 
			},
			{
				"x": 0.6782195281,
				"y": -2.7617552115,
				"z": 1.5332487679,
				"element": "H" 
			},
			{
				"x": 1.7833206973,
				"y": -2.8112993483,
				"z": 0.1650431466,
				"element": "H" 
			},
			{
				"x": -2.0974028005,
				"y": 0.6676363176,
				"z": -1.9646249316,
				"element": "H" 
			},
			{
				"x": -2.0043062096,
				"y": 3.1596317248,
				"z": -1.9797927441,
				"element": "H" 
			},
			{
				"x": -0.3127885135,
				"y": 4.3741767994,
				"z": -0.657306239,
				"element": "H" 
			},
			{
				"x": 1.3557740002,
				"y": 3.1417969723,
				"z": 0.7353105798,
				"element": "H" 
			},
			{
				"x": -0.7936653743,
				"y": -1.9036051807,
				"z": -1.8783917597,
				"element": "H" 
			},
			{
				"x": -1.8295297265,
				"y": -1.8570507169,
				"z": -0.5959388232,
				"element": "H" 
			}
		],
		 "valence_orbital": [ 
			{
				"type": "occ",
				"energy": -0.3012,
				"method": "rhf"
			},
			{
				"type": "occ",
				"energy": -0.29357,
				"method": "rhf"
			},
			{
				"type": "occ",
				"energy": -0.25734,
				"method": "rhf"
			},
			{
				"type": "occ",
				"energy": -0.22202,
				"method": "rhf"
			},
			{
				"type": "occ",
				"energy": -0.21705,
				"method": "rhf"
			},
			{
				"type": "unocc",
				"energy": -0.01012,
				"method": "rhf"
			},
			{
				"type": "unocc",
				"energy": 0.02335,
				"method": "rhf"
			},
			{
				"type": "unocc",
				"energy": 0.05521,
				"method": "rhf"
			},
			{
				"type": "unocc",
				"energy": 0.06181,
				"method": "rhf"
			},
			{
				"type": "unocc",
				"energy": 0.10543,
				"method": "rhf"
			}
		],
		"cosmo_sigma_profile": { 
			"-0.025": 0.0,
			"-0.024": 0.0,
			"-0.023": 0.0,
			"-0.022": 0.0,
			"-0.021": 0.0,
			"-0.02": 0.0,
			"-0.019": 0.0,
			"-0.018": 0.0,
			"-0.017": 0.0,
			"-0.016": 0.0,
			"-0.015": 0.0,
			"-0.014": 0.0,
			"-0.013": 1.56189233545,
			"-0.012": 3.311624755,
			"-0.011": 3.0171381591,
			"-0.01": 3.41594852344,
			"-0.009": 2.89686704362,
			"-0.008": 3.44546492464,
			"-0.007": 3.42901566029,
			"-0.006": 4.95133542351,
			"-0.005": 13.2068357578,
			"-0.004": 12.4829968488,
			"-0.003": 15.7832292873,
			"-0.002": 13.9996593815,
			"-0.001": 15.4577038872,
			"0.0": 10.9958561849,
			"0.001": 8.45922449349,
			"0.002": 8.74606135575,
			"0.003": 10.0816868548,
			"0.004": 9.78352440579,
			"0.005": 12.5133209662,
			"0.006": 10.2359208351,
			"0.007": 4.35401617596,
			"0.008": 3.18741470059,
			"0.009": 1.81817109249,
			"0.01": 1.77105182439,
			"0.011": 1.77007700375,
			"0.012": 1.52543848193,
			"0.013": 1.40855889144,
			"0.014": 1.2235015392,
			"0.015": 1.43233829536,
			"0.016": 0.719877127599,
			"0.017": 0.742315263659,
			"0.018": 0.71295024884,
			"0.019": 0.0563911772078,
			"0.02": 0.0,
			"0.021": 0.0,
			"0.022": 0.0,
			"0.023": 0.0,
			"0.024": 0.0,
			"0.025": 0.0
		}
	}
}
