{
	 "smiles": "CC1=C(Cl)C(=CC=C1)S(N)(=O)=O", 
	 "Tm": 443.15, 
	 "num_atms": 20, 
	 "gaussian": { 
		 "optdone": 1, 
		 "sigma_profile": "yes", 
		 "theory": "DFT", 
		 "functional": "B3LYP", 
		 "basiset": "6-31G**", 
		 "properties": { 
			 "R2extent": 3785.1557, 
			 "electric_dipole_moment_norm": 4.59023272286, 
			 "electric_quadrupole_moment_norm": 19.7775381739, 
			 "total_energy": -1335.07395041, 
			 "HOMO_LUMO_gap": 0.21605, 
			 "cosmo_polarized_energy": -16.45, 
			 "cosmo_cavitation_energy": 26.56, 
			 "cosmo_dispersion_energy": -20.26, 
			 "cosmo_repulsion_energy": 1.56, 
			 "cosmo_total_nonelectrostatic_energy": 7.86, 
			 "SMD_solvation_energy": 4.09 
		},
		"coords": [
			{
				"x": -2.657962162,
				"y": -1.2183789243,
				"z": 2.5378684794,
				"element": "C" 
			},
			{
				"x": -1.7403565333,
				"y": -0.7257744173,
				"z": 1.4481027169,
				"element": "C" 
			},
			{
				"x": -1.8072313596,
				"y": 0.5926664032,
				"z": 0.9666511881,
				"element": "C" 
			},
			{
				"x": -2.9963713167,
				"y": 1.6709678497,
				"z": 1.6676277673,
				"element": "Cl" 
			},
			{
				"x": -0.9449287542,
				"y": 1.0370132649,
				"z": -0.0495042314,
				"element": "C" 
			},
			{
				"x": -0.0039711721,
				"y": 0.1605752817,
				"z": -0.5948197268,
				"element": "C" 
			},
			{
				"x": 0.0731278938,
				"y": -1.1488808015,
				"z": -0.1270846298,
				"element": "C" 
			},
			{
				"x": -0.7855360997,
				"y": -1.579249566,
				"z": 0.8799298758,
				"element": "C" 
			},
			{
				"x": -1.0510936968,
				"y": 2.7391106786,
				"z": -0.6517078854,
				"element": "S" 
			},
			{
				"x": 0.1587078043,
				"y": 2.7828702621,
				"z": -1.8366146828,
				"element": "N" 
			},
			{
				"x": -0.6265187931,
				"y": 3.6365173691,
				"z": 0.4243502274,
				"element": "O" 
			},
			{
				"x": -2.3310064571,
				"y": 2.9049622265,
				"z": -1.342947128,
				"element": "O" 
			},
			{
				"x": -2.5387447455,
				"y": -0.6310772352,
				"z": 3.4542429426,
				"element": "H" 
			},
			{
				"x": -2.4496251846,
				"y": -2.2652198312,
				"z": 2.7706865424,
				"element": "H" 
			},
			{
				"x": -3.7087488919,
				"y": -1.1335325634,
				"z": 2.2420120048,
				"element": "H" 
			},
			{
				"x": 0.6533091164,
				"y": 0.517715596,
				"z": -1.3770170093,
				"element": "H" 
			},
			{
				"x": 0.8040838733,
				"y": -1.8305887256,
				"z": -0.5502995218,
				"element": "H" 
			},
			{
				"x": -0.7228405656,
				"y": -2.6013540158,
				"z": 1.2427162298,
				"element": "H" 
			},
			{
				"x": -0.268775042,
				"y": 2.9990140726,
				"z": -2.7330692263,
				"element": "H" 
			},
			{
				"x": 0.8504820865,
				"y": 3.4791430758,
				"z": -1.5725239327,
				"element": "H" 
			}
		],
		 "valence_orbital": [ 
			{
				"type": "occ",
				"energy": -0.31902,
				"method": "rhf"
			},
			{
				"type": "occ",
				"energy": -0.30742,
				"method": "rhf"
			},
			{
				"type": "occ",
				"energy": -0.28831,
				"method": "rhf"
			},
			{
				"type": "occ",
				"energy": -0.26703,
				"method": "rhf"
			},
			{
				"type": "occ",
				"energy": -0.25453,
				"method": "rhf"
			},
			{
				"type": "unocc",
				"energy": -0.03848,
				"method": "rhf"
			},
			{
				"type": "unocc",
				"energy": -0.02374,
				"method": "rhf"
			},
			{
				"type": "unocc",
				"energy": 0.01721,
				"method": "rhf"
			},
			{
				"type": "unocc",
				"energy": 0.05345,
				"method": "rhf"
			},
			{
				"type": "unocc",
				"energy": 0.07694,
				"method": "rhf"
			}
		],
		"cosmo_sigma_profile": { 
			"-0.025": 0.0,
			"-0.024": 0.0,
			"-0.023": 0.0,
			"-0.022": 0.0,
			"-0.021": 0.0,
			"-0.02": 0.0,
			"-0.019": 0.0,
			"-0.018": 0.0,
			"-0.017": 0.0,
			"-0.016": 0.0138662704963,
			"-0.015": 1.84391685638,
			"-0.014": 1.83070501886,
			"-0.013": 3.10382689463,
			"-0.012": 2.79977389238,
			"-0.011": 1.53278768042,
			"-0.01": 1.50541412112,
			"-0.009": 1.81605754971,
			"-0.008": 2.82279557612,
			"-0.007": 6.32709834646,
			"-0.006": 9.32542838498,
			"-0.005": 11.5982772015,
			"-0.004": 10.8915050777,
			"-0.003": 13.2178626491,
			"-0.002": 14.3240283329,
			"-0.001": 19.3804982832,
			"0.0": 15.1324100499,
			"0.001": 17.576169564,
			"0.002": 19.0637049426,
			"0.003": 11.4598392729,
			"0.004": 5.80203633779,
			"0.005": 4.72454894926,
			"0.006": 2.93496751834,
			"0.007": 3.80555974782,
			"0.008": 4.31190410216,
			"0.009": 4.37130603886,
			"0.01": 9.37350225092,
			"0.011": 11.1092739449,
			"0.012": 1.48621185663,
			"0.013": 0.0,
			"0.014": 0.0,
			"0.015": 0.0,
			"0.016": 0.0,
			"0.017": 0.0,
			"0.018": 0.0,
			"0.019": 0.0,
			"0.02": 0.0,
			"0.021": 0.0,
			"0.022": 0.0,
			"0.023": 0.0,
			"0.024": 0.0,
			"0.025": 0.0
		}
	}
}
