{
	 "smiles": "CN(C)C1=CC=C(C=C1)C(=O)NN", 
	 "Tm": 448.15, 
	 "num_atms": 26, 
	 "gaussian": { 
		 "optdone": 1, 
		 "sigma_profile": "yes", 
		 "theory": "DFT", 
		 "functional": "B3LYP", 
		 "basiset": "6-31G**", 
		 "properties": { 
			 "R2extent": 3685.0258, 
			 "electric_dipole_moment_norm": 5.95499753233, 
			 "electric_quadrupole_moment_norm": 17.8503660066, 
			 "total_energy": -590.240975695, 
			 "HOMO_LUMO_gap": 0.17801, 
			 "cosmo_polarized_energy": -16.19, 
			 "cosmo_cavitation_energy": 28.88, 
			 "cosmo_dispersion_energy": -21.19, 
			 "cosmo_repulsion_energy": 1.67, 
			 "cosmo_total_nonelectrostatic_energy": 9.36, 
			 "SMD_solvation_energy": 5.72 
		},
		"coords": [
			{
				"x": 2.8238769278,
				"y": -1.4701297044,
				"z": -0.8572776942,
				"element": "C" 
			},
			{
				"x": 2.8001258389,
				"y": -0.4550277184,
				"z": 0.1825721081,
				"element": "N" 
			},
			{
				"x": 4.015702556,
				"y": -0.2010041574,
				"z": 0.9389327401,
				"element": "C" 
			},
			{
				"x": 1.5890468568,
				"y": 0.0225654361,
				"z": 0.6490501414,
				"element": "C" 
			},
			{
				"x": 1.5199953265,
				"y": 0.8961425339,
				"z": 1.7626460796,
				"element": "C" 
			},
			{
				"x": 0.3027856682,
				"y": 1.3868541972,
				"z": 2.2084775566,
				"element": "C" 
			},
			{
				"x": -0.9032837358,
				"y": 1.0610972306,
				"z": 1.5691935495,
				"element": "C" 
			},
			{
				"x": -0.8419199308,
				"y": 0.1743402175,
				"z": 0.4836714945,
				"element": "C" 
			},
			{
				"x": 0.366537503,
				"y": -0.3433310658,
				"z": 0.035136685,
				"element": "C" 
			},
			{
				"x": -2.1641109276,
				"y": 1.5959864574,
				"z": 2.1622602013,
				"element": "C" 
			},
			{
				"x": -2.2602648603,
				"y": 1.8481982597,
				"z": 3.3603271409,
				"element": "O" 
			},
			{
				"x": -3.261683322,
				"y": 1.7994566489,
				"z": 1.3354612333,
				"element": "N" 
			},
			{
				"x": -3.2023540326,
				"y": 2.1536480991,
				"z": -0.0344008159,
				"element": "N" 
			},
			{
				"x": 2.3429658362,
				"y": -2.4099048432,
				"z": -0.5461440867,
				"element": "H" 
			},
			{
				"x": 2.3209432072,
				"y": -1.1175421841,
				"z": -1.7653716438,
				"element": "H" 
			},
			{
				"x": 3.8596729403,
				"y": -1.6895298614,
				"z": -1.1196400569,
				"element": "H" 
			},
			{
				"x": 4.8651168881,
				"y": -0.6278035432,
				"z": 0.4039940553,
				"element": "H" 
			},
			{
				"x": 4.198597503,
				"y": 0.8746134141,
				"z": 1.0449379318,
				"element": "H" 
			},
			{
				"x": 3.9886147708,
				"y": -0.6415993318,
				"z": 1.9467461211,
				"element": "H" 
			},
			{
				"x": 2.4213698195,
				"y": 1.1837936583,
				"z": 2.289227904,
				"element": "H" 
			},
			{
				"x": 0.26334322,
				"y": 2.0339959606,
				"z": 3.0787095929,
				"element": "H" 
			},
			{
				"x": -1.7543540633,
				"y": -0.1600641579,
				"z": 0.0002328541,
				"element": "H" 
			},
			{
				"x": 0.3561079341,
				"y": -1.0452260335,
				"z": -0.7893347389,
				"element": "H" 
			},
			{
				"x": -4.0065436332,
				"y": 2.2782534952,
				"z": 1.8290111804,
				"element": "H" 
			},
			{
				"x": -3.2303853677,
				"y": 1.3116722433,
				"z": -0.6021107801,
				"element": "H" 
			},
			{
				"x": -2.324202923,
				"y": 2.6283447493,
				"z": -0.2329087536,
				"element": "H" 
			}
		],
		 "valence_orbital": [ 
			{
				"type": "occ",
				"energy": -0.28403,
				"method": "rhf"
			},
			{
				"type": "occ",
				"energy": -0.25319,
				"method": "rhf"
			},
			{
				"type": "occ",
				"energy": -0.24001,
				"method": "rhf"
			},
			{
				"type": "occ",
				"energy": -0.23599,
				"method": "rhf"
			},
			{
				"type": "occ",
				"energy": -0.19818,
				"method": "rhf"
			},
			{
				"type": "unocc",
				"energy": -0.02017,
				"method": "rhf"
			},
			{
				"type": "unocc",
				"energy": -0.00142,
				"method": "rhf"
			},
			{
				"type": "unocc",
				"energy": 0.06336,
				"method": "rhf"
			},
			{
				"type": "unocc",
				"energy": 0.07269,
				"method": "rhf"
			},
			{
				"type": "unocc",
				"energy": 0.08311,
				"method": "rhf"
			}
		],
		"cosmo_sigma_profile": { 
			"-0.025": 0.0,
			"-0.024": 0.0,
			"-0.023": 0.0,
			"-0.022": 0.0,
			"-0.021": 0.0,
			"-0.02": 0.0,
			"-0.019": 0.0,
			"-0.018": 0.0,
			"-0.017": 0.0,
			"-0.016": 0.0,
			"-0.015": 0.0,
			"-0.014": 0.0,
			"-0.013": 0.165333852368,
			"-0.012": 1.50079999287,
			"-0.011": 3.32471739709,
			"-0.01": 3.8454291502,
			"-0.009": 3.71346268292,
			"-0.008": 2.99687020023,
			"-0.007": 5.33159063271,
			"-0.006": 9.13805160379,
			"-0.005": 15.0274236267,
			"-0.004": 21.8939528336,
			"-0.003": 20.6764366593,
			"-0.002": 23.1891124493,
			"-0.001": 17.4865958602,
			"0.0": 10.593995049,
			"0.001": 10.1450229276,
			"0.002": 8.12373271051,
			"0.003": 11.1210051522,
			"0.004": 9.98162646592,
			"0.005": 13.3094060579,
			"0.006": 9.25280273341,
			"0.007": 2.79623976528,
			"0.008": 2.99478999752,
			"0.009": 1.60491600929,
			"0.01": 2.35770713863,
			"0.011": 2.81824362577,
			"0.012": 2.08505816825,
			"0.013": 3.82670759061,
			"0.014": 6.05826096371,
			"0.015": 1.61618283089,
			"0.016": 0.576087245659,
			"0.017": 0.084971626579,
			"0.018": 0.0,
			"0.019": 0.0,
			"0.02": 0.0,
			"0.021": 0.0,
			"0.022": 0.0,
			"0.023": 0.0,
			"0.024": 0.0,
			"0.025": 0.0
		}
	}
}
