{
	 "smiles": "C(OC1=CC=CC=C1)C1=NN=C2SC(NN12)C1=CC=CO1", 
	 "Tm": 375.15, 
	 "num_atms": 33, 
	 "gaussian": { 
		 "optdone": 1, 
		 "sigma_profile": "yes", 
		 "theory": "DFT", 
		 "functional": "B3LYP", 
		 "basiset": "6-31G**", 
		 "properties": { 
			 "R2extent": 6755.1781, 
			 "electric_dipole_moment_norm": 7.51149697863, 
			 "electric_quadrupole_moment_norm": 24.2033613009, 
			 "total_energy": -1308.23222686, 
			 "HOMO_LUMO_gap": 0.18907, 
			 "cosmo_polarized_energy": -21.02, 
			 "cosmo_cavitation_energy": 39.39, 
			 "cosmo_dispersion_energy": -27.41, 
			 "cosmo_repulsion_energy": 2.05, 
			 "cosmo_total_nonelectrostatic_energy": 14.03, 
			 "SMD_solvation_energy": 3.98 
		},
		"coords": [
			{
				"x": -1.3453481127,
				"y": -0.4348158027,
				"z": -2.9306811011,
				"element": "C" 
			},
			{
				"x": -0.4909208051,
				"y": -1.5847019468,
				"z": -2.9905682664,
				"element": "O" 
			},
			{
				"x": 0.7325427651,
				"y": -1.5797936653,
				"z": -2.377129678,
				"element": "C" 
			},
			{
				"x": 1.259842084,
				"y": -2.8463205014,
				"z": -2.0825554048,
				"element": "C" 
			},
			{
				"x": 2.5167827558,
				"y": -2.9618717636,
				"z": -1.4982630783,
				"element": "C" 
			},
			{
				"x": 3.2669003408,
				"y": -1.8219531407,
				"z": -1.1885972303,
				"element": "C" 
			},
			{
				"x": 2.7439125397,
				"y": -0.5652912977,
				"z": -1.4839540895,
				"element": "C" 
			},
			{
				"x": 1.4823549035,
				"y": -0.4317608027,
				"z": -2.0792497007,
				"element": "C" 
			},
			{
				"x": -2.1975814539,
				"y": -0.3982710682,
				"z": -1.7037245961,
				"element": "C" 
			},
			{
				"x": -3.4812757958,
				"y": -0.7130025921,
				"z": -1.6866989309,
				"element": "N" 
			},
			{
				"x": -3.9593147741,
				"y": -0.5910403166,
				"z": -0.3954514171,
				"element": "N" 
			},
			{
				"x": -2.9328577417,
				"y": -0.221672496,
				"z": 0.3333947996,
				"element": "C" 
			},
			{
				"x": -2.6700554429,
				"y": 0.2908845795,
				"z": 1.9976330801,
				"element": "S" 
			},
			{
				"x": -0.8104909173,
				"y": 0.2063294518,
				"z": 1.6393644657,
				"element": "C" 
			},
			{
				"x": -0.690073365,
				"y": 0.5207472369,
				"z": 0.1935001993,
				"element": "N" 
			},
			{
				"x": -1.8045068543,
				"y": -0.1116226368,
				"z": -0.4196929276,
				"element": "N" 
			},
			{
				"x": 0.0012427714,
				"y": 1.1518983833,
				"z": 2.4369323098,
				"element": "C" 
			},
			{
				"x": 0.3225235177,
				"y": 2.4720346046,
				"z": 2.2982890776,
				"element": "C" 
			},
			{
				"x": 1.1427172348,
				"y": 2.8040747804,
				"z": 3.4227780445,
				"element": "C" 
			},
			{
				"x": 1.2531055236,
				"y": 1.6650261567,
				"z": 4.1626879821,
				"element": "C" 
			},
			{
				"x": 0.5668548299,
				"y": 0.6460300283,
				"z": 3.5759648239,
				"element": "O" 
			},
			{
				"x": -0.7775438976,
				"y": 0.4920880827,
				"z": -3.0607651162,
				"element": "H" 
			},
			{
				"x": -2.0287477155,
				"y": -0.5374073449,
				"z": -3.7744147166,
				"element": "H" 
			},
			{
				"x": 0.6628698879,
				"y": -3.7195780706,
				"z": -2.3234360669,
				"element": "H" 
			},
			{
				"x": 2.9109697573,
				"y": -3.9493890388,
				"z": -1.2761567556,
				"element": "H" 
			},
			{
				"x": 4.2451203295,
				"y": -1.9152273466,
				"z": -0.727972303,
				"element": "H" 
			},
			{
				"x": 3.3178157474,
				"y": 0.3301679674,
				"z": -1.2624808764,
				"element": "H" 
			},
			{
				"x": 1.1188424512,
				"y": 0.5590311693,
				"z": -2.3288585842,
				"element": "H" 
			},
			{
				"x": -0.5135786571,
				"y": -0.8242234284,
				"z": 1.8719663285,
				"element": "H" 
			},
			{
				"x": 0.1579102969,
				"y": 0.075675403,
				"z": -0.1658363175,
				"element": "H" 
			},
			{
				"x": 0.007061564,
				"y": 3.1170944691,
				"z": 1.492179334,
				"element": "H" 
			},
			{
				"x": 1.5878166323,
				"y": 3.7624159644,
				"z": 3.6475578932,
				"element": "H" 
			},
			{
				"x": 1.7597096001,
				"y": 1.4206449825,
				"z": 5.0833388191,
				"element": "H" 
			}
		],
		 "valence_orbital": [ 
			{
				"type": "occ",
				"energy": -0.25915,
				"method": "rhf"
			},
			{
				"type": "occ",
				"energy": -0.25521,
				"method": "rhf"
			},
			{
				"type": "occ",
				"energy": -0.24424,
				"method": "rhf"
			},
			{
				"type": "occ",
				"energy": -0.23714,
				"method": "rhf"
			},
			{
				"type": "occ",
				"energy": -0.22599,
				"method": "rhf"
			},
			{
				"type": "unocc",
				"energy": -0.03692,
				"method": "rhf"
			},
			{
				"type": "unocc",
				"energy": -0.0223,
				"method": "rhf"
			},
			{
				"type": "unocc",
				"energy": -0.01002,
				"method": "rhf"
			},
			{
				"type": "unocc",
				"energy": 0.00157,
				"method": "rhf"
			},
			{
				"type": "unocc",
				"energy": 0.01057,
				"method": "rhf"
			}
		],
		"cosmo_sigma_profile": { 
			"-0.025": 0.0,
			"-0.024": 0.0,
			"-0.023": 0.0,
			"-0.022": 0.0,
			"-0.021": 0.0,
			"-0.02": 0.0,
			"-0.019": 0.0,
			"-0.018": 0.0,
			"-0.017": 0.0,
			"-0.016": 0.0,
			"-0.015": 0.0,
			"-0.014": 0.0,
			"-0.013": 0.0151453525815,
			"-0.012": 0.50384219296,
			"-0.011": 1.61848249103,
			"-0.01": 3.93972714086,
			"-0.009": 7.9098357664,
			"-0.008": 9.24120089581,
			"-0.007": 12.5814967819,
			"-0.006": 17.5218008841,
			"-0.005": 22.0395107436,
			"-0.004": 20.2805436895,
			"-0.003": 20.3097991052,
			"-0.002": 18.1742091747,
			"-0.001": 18.0769790031,
			"0.0": 18.5358432728,
			"0.001": 22.2571890783,
			"0.002": 24.5489424718,
			"0.003": 23.1370478669,
			"0.004": 23.0050636264,
			"0.005": 17.1839205123,
			"0.006": 6.64123268559,
			"0.007": 5.15581704606,
			"0.008": 3.58710337114,
			"0.009": 4.07966188342,
			"0.01": 2.61233489652,
			"0.011": 2.02151582924,
			"0.012": 3.44398506591,
			"0.013": 3.38753724991,
			"0.014": 3.19811619241,
			"0.015": 2.35099590506,
			"0.016": 1.81110969599,
			"0.017": 0.0998181305245,
			"0.018": 0.0,
			"0.019": 0.0,
			"0.02": 0.0,
			"0.021": 0.0,
			"0.022": 0.0,
			"0.023": 0.0,
			"0.024": 0.0,
			"0.025": 0.0
		}
	}
}
