{
	 "smiles": "OC(=O)CN1C(=O)C2=C(N=CC=C2)C1=O", 
	 "Tm": 513.15, 
	 "num_atms": 21, 
	 "gaussian": { 
		 "optdone": 1, 
		 "sigma_profile": "yes", 
		 "theory": "DFT", 
		 "functional": "B3LYP", 
		 "basiset": "6-31G**", 
		 "properties": { 
			 "R2extent": 3178.9274, 
			 "electric_dipole_moment_norm": 4.30416893837, 
			 "electric_quadrupole_moment_norm": 16.5074555035, 
			 "total_energy": -756.997937757, 
			 "HOMO_LUMO_gap": 0.17744, 
			 "cosmo_polarized_energy": -18.92, 
			 "cosmo_cavitation_energy": 27.58, 
			 "cosmo_dispersion_energy": -19.56, 
			 "cosmo_repulsion_energy": 1.53, 
			 "cosmo_total_nonelectrostatic_energy": 9.55, 
			 "SMD_solvation_energy": 5.89 
		},
		"coords": [
			{
				"x": 2.8593859738,
				"y": 1.6689046565,
				"z": 0.2435522307,
				"element": "O" 
			},
			{
				"x": 3.4621270961,
				"y": 0.556305931,
				"z": 0.7083247677,
				"element": "C" 
			},
			{
				"x": 4.6004546901,
				"y": 0.5219881073,
				"z": 1.1114659173,
				"element": "O" 
			},
			{
				"x": 2.5662508607,
				"y": -0.6775786635,
				"z": 0.6546273101,
				"element": "C" 
			},
			{
				"x": 1.186392936,
				"y": -0.4270783333,
				"z": 0.3143281954,
				"element": "N" 
			},
			{
				"x": 0.2392737852,
				"y": 0.057497401,
				"z": 1.2300155495,
				"element": "C" 
			},
			{
				"x": 0.445041638,
				"y": 0.2599602921,
				"z": 2.4088556751,
				"element": "O" 
			},
			{
				"x": -1.0130420813,
				"y": 0.2409920802,
				"z": 0.4425658282,
				"element": "C" 
			},
			{
				"x": -0.7638334202,
				"y": -0.1144641625,
				"z": -0.8837333492,
				"element": "C" 
			},
			{
				"x": -1.6489019159,
				"y": -0.0790745829,
				"z": -1.8725657795,
				"element": "N" 
			},
			{
				"x": -2.872911578,
				"y": 0.3448273399,
				"z": -1.5131032234,
				"element": "C" 
			},
			{
				"x": -3.2298427828,
				"y": 0.7262723051,
				"z": -0.2114330944,
				"element": "C" 
			},
			{
				"x": -2.2778506029,
				"y": 0.6765230026,
				"z": 0.8111424444,
				"element": "C" 
			},
			{
				"x": 0.676460968,
				"y": -0.5456044589,
				"z": -0.9949541988,
				"element": "C" 
			},
			{
				"x": 1.3063731968,
				"y": -0.9268673244,
				"z": -1.9544236566,
				"element": "O" 
			},
			{
				"x": 3.5154241502,
				"y": 2.3831253674,
				"z": 0.3125255886,
				"element": "H" 
			},
			{
				"x": 2.6250543313,
				"y": -1.1637506291,
				"z": 1.6309453678,
				"element": "H" 
			},
			{
				"x": 2.9813974991,
				"y": -1.3525683547,
				"z": -0.0991806965,
				"element": "H" 
			},
			{
				"x": -3.6134750366,
				"y": 0.3827971484,
				"z": -2.3088164896,
				"element": "H" 
			},
			{
				"x": -4.2439939666,
				"y": 1.056357693,
				"z": -0.0113520854,
				"element": "H" 
			},
			{
				"x": -2.5069857408,
				"y": 0.9603351849,
				"z": 1.8334136986,
				"element": "H" 
			}
		],
		 "valence_orbital": [ 
			{
				"type": "occ",
				"energy": -0.3091,
				"method": "rhf"
			},
			{
				"type": "occ",
				"energy": -0.2958,
				"method": "rhf"
			},
			{
				"type": "occ",
				"energy": -0.28038,
				"method": "rhf"
			},
			{
				"type": "occ",
				"energy": -0.27786,
				"method": "rhf"
			},
			{
				"type": "occ",
				"energy": -0.27234,
				"method": "rhf"
			},
			{
				"type": "unocc",
				"energy": -0.0949,
				"method": "rhf"
			},
			{
				"type": "unocc",
				"energy": -0.06742,
				"method": "rhf"
			},
			{
				"type": "unocc",
				"energy": -0.0015,
				"method": "rhf"
			},
			{
				"type": "unocc",
				"energy": 0.01346,
				"method": "rhf"
			},
			{
				"type": "unocc",
				"energy": 0.05777,
				"method": "rhf"
			}
		],
		"cosmo_sigma_profile": { 
			"-0.025": 0.0,
			"-0.024": 0.0,
			"-0.023": 0.0,
			"-0.022": 0.0,
			"-0.021": 0.0,
			"-0.02": 0.0316769232364,
			"-0.019": 0.664852269557,
			"-0.018": 0.811187647212,
			"-0.017": 1.19643796855,
			"-0.016": 1.15922220225,
			"-0.015": 0.289873277557,
			"-0.014": 0.00595352063942,
			"-0.013": 0.650146910598,
			"-0.012": 1.26946359584,
			"-0.011": 0.874759567034,
			"-0.01": 0.684321451489,
			"-0.009": 4.73754171924,
			"-0.008": 11.3925194248,
			"-0.007": 13.6873343039,
			"-0.006": 10.665794564,
			"-0.005": 13.2070284719,
			"-0.004": 13.0495953375,
			"-0.003": 13.1265823112,
			"-0.002": 15.922593869,
			"-0.001": 15.8211229445,
			"0.0": 13.8290852526,
			"0.001": 7.7620537589,
			"0.002": 7.66898230747,
			"0.003": 6.7602092007,
			"0.004": 6.53267827037,
			"0.005": 6.51166261733,
			"0.006": 6.2055171434,
			"0.007": 4.15621186444,
			"0.008": 5.84339558192,
			"0.009": 7.20154643596,
			"0.01": 12.437775335,
			"0.011": 12.2089909395,
			"0.012": 3.62461956254,
			"0.013": 1.15020805906,
			"0.014": 0.758075937789,
			"0.015": 0.159961988098,
			"0.016": 0.0,
			"0.017": 0.0,
			"0.018": 0.0,
			"0.019": 0.0,
			"0.02": 0.0,
			"0.021": 0.0,
			"0.022": 0.0,
			"0.023": 0.0,
			"0.024": 0.0,
			"0.025": 0.0
		}
	}
}
