{
	 "smiles": "BrC1=C2C=CC=C(CNCC3=CC=CC4=C(Br)C=CC=C34)C2=CC=C1", 
	 "Tm": 415.15, 
	 "num_atms": 42, 
	 "gaussian": { 
		 "optdone": 1, 
		 "sigma_profile": "yes", 
		 "theory": "DFT", 
		 "functional": "B3LYP", 
		 "basiset": "6-31G**", 
		 "properties": { 
			 "R2extent": 23690.3074, 
			 "electric_dipole_moment_norm": 2.73916558098, 
			 "electric_quadrupole_moment_norm": 19.7564464297, 
			 "total_energy": -6046.16253586, 
			 "HOMO_LUMO_gap": 0.1664, 
			 "cosmo_polarized_energy": -10.58, 
			 "cosmo_cavitation_energy": 48.93, 
			 "cosmo_dispersion_energy": -36.06, 
			 "cosmo_repulsion_energy": 2.68, 
			 "cosmo_total_nonelectrostatic_energy": 15.55, 
			 "SMD_solvation_energy": 4.47 
		},
		"coords": [
			{
				"x": -1.2098377674,
				"y": -1.8848128309,
				"z": -7.4056275029,
				"element": "Br" 
			},
			{
				"x": -1.406222366,
				"y": -0.9965329513,
				"z": -5.7159173491,
				"element": "C" 
			},
			{
				"x": -1.028135088,
				"y": -1.6548452311,
				"z": -4.5096231894,
				"element": "C" 
			},
			{
				"x": -0.4851628499,
				"y": -2.9668600176,
				"z": -4.4748876009,
				"element": "C" 
			},
			{
				"x": -0.1273739502,
				"y": -3.5390086833,
				"z": -3.279047586,
				"element": "C" 
			},
			{
				"x": -0.30174309,
				"y": -2.8394219037,
				"z": -2.0629340531,
				"element": "C" 
			},
			{
				"x": -0.8391260724,
				"y": -1.5691611159,
				"z": -2.0389975872,
				"element": "C" 
			},
			{
				"x": -1.0310607868,
				"y": -0.8315709802,
				"z": -0.7252749819,
				"element": "C" 
			},
			{
				"x": -0.8144533503,
				"y": -1.680052691,
				"z": 0.4447911919,
				"element": "N" 
			},
			{
				"x": -0.8885089484,
				"y": -0.9545133649,
				"z": 1.7121011234,
				"element": "C" 
			},
			{
				"x": 0.414791215,
				"y": -0.2611072685,
				"z": 2.0921690586,
				"element": "C" 
			},
			{
				"x": 1.5842193209,
				"y": -0.5624770038,
				"z": 1.4268653522,
				"element": "C" 
			},
			{
				"x": 2.8036664095,
				"y": 0.065135854,
				"z": 1.7675742132,
				"element": "C" 
			},
			{
				"x": 2.8566031315,
				"y": 0.9912506773,
				"z": 2.7806170024,
				"element": "C" 
			},
			{
				"x": 1.6849981634,
				"y": 1.3263784864,
				"z": 3.5096418728,
				"element": "C" 
			},
			{
				"x": 1.6728269707,
				"y": 2.2662164907,
				"z": 4.5811834844,
				"element": "C" 
			},
			{
				"x": 3.28747235,
				"y": 3.1660581051,
				"z": 5.0977152956,
				"element": "Br" 
			},
			{
				"x": 0.5305230356,
				"y": 2.5664137755,
				"z": 5.2852546717,
				"element": "C" 
			},
			{
				"x": -0.6811436657,
				"y": 1.9274194212,
				"z": 4.9455595065,
				"element": "C" 
			},
			{
				"x": -0.7262620788,
				"y": 1.0156638688,
				"z": 3.9158387026,
				"element": "C" 
			},
			{
				"x": 0.4380330751,
				"y": 0.6900566733,
				"z": 3.1667335679,
				"element": "C" 
			},
			{
				"x": -1.2072697017,
				"y": -0.9360072537,
				"z": -3.2742925583,
				"element": "C" 
			},
			{
				"x": -1.7321781508,
				"y": 0.3845453521,
				"z": -3.3179428796,
				"element": "C" 
			},
			{
				"x": -2.0762384513,
				"y": 0.9760977559,
				"z": -4.5118677159,
				"element": "C" 
			},
			{
				"x": -1.9163957748,
				"y": 0.2803519884,
				"z": -5.7292863721,
				"element": "C" 
			},
			{
				"x": -0.3531649566,
				"y": -3.504657826,
				"z": -5.4059983072,
				"element": "H" 
			},
			{
				"x": 0.2950373845,
				"y": -4.5395236382,
				"z": -3.2622396966,
				"element": "H" 
			},
			{
				"x": -0.0013206538,
				"y": -3.2992631998,
				"z": -1.1280162162,
				"element": "H" 
			},
			{
				"x": -2.0334285611,
				"y": -0.3659079796,
				"z": -0.7083802946,
				"element": "H" 
			},
			{
				"x": -0.3158865756,
				"y": -0.0001784537,
				"z": -0.6672215904,
				"element": "H" 
			},
			{
				"x": -1.5052928538,
				"y": -2.4246931599,
				"z": 0.4469296405,
				"element": "H" 
			},
			{
				"x": -1.1451622609,
				"y": -1.6793705434,
				"z": 2.495803443,
				"element": "H" 
			},
			{
				"x": -1.7057216983,
				"y": -0.2117340269,
				"z": 1.7052239972,
				"element": "H" 
			},
			{
				"x": 1.5515376598,
				"y": -1.299543283,
				"z": 0.6318690525,
				"element": "H" 
			},
			{
				"x": 3.7061042387,
				"y": -0.1901945881,
				"z": 1.2196917802,
				"element": "H" 
			},
			{
				"x": 3.7914482099,
				"y": 1.4733074811,
				"z": 3.0400797929,
				"element": "H" 
			},
			{
				"x": 0.5632515847,
				"y": 3.2859603475,
				"z": 6.0949908171,
				"element": "H" 
			},
			{
				"x": -1.5798023449,
				"y": 2.1633480526,
				"z": 5.5075824778,
				"element": "H" 
			},
			{
				"x": -1.6684451225,
				"y": 0.534805903,
				"z": 3.6797602723,
				"element": "H" 
			},
			{
				"x": -1.8592489797,
				"y": 0.9421294329,
				"z": -2.3972452467,
				"element": "H" 
			},
			{
				"x": -2.4739308379,
				"y": 1.9863490321,
				"z": -4.5275739646,
				"element": "H" 
			},
			{
				"x": -2.1904958116,
				"y": 0.7472492967,
				"z": -6.6681016241,
				"element": "H" 
			}
		],
		 "valence_orbital": [ 
			{
				"type": "occ",
				"energy": -0.2524,
				"method": "rhf"
			},
			{
				"type": "occ",
				"energy": -0.25109,
				"method": "rhf"
			},
			{
				"type": "occ",
				"energy": -0.23927,
				"method": "rhf"
			},
			{
				"type": "occ",
				"energy": -0.21864,
				"method": "rhf"
			},
			{
				"type": "occ",
				"energy": -0.21574,
				"method": "rhf"
			},
			{
				"type": "unocc",
				"energy": -0.04934,
				"method": "rhf"
			},
			{
				"type": "unocc",
				"energy": -0.04782,
				"method": "rhf"
			},
			{
				"type": "unocc",
				"energy": -0.01853,
				"method": "rhf"
			},
			{
				"type": "unocc",
				"energy": -0.01753,
				"method": "rhf"
			},
			{
				"type": "unocc",
				"energy": 0.0086,
				"method": "rhf"
			}
		],
		"cosmo_sigma_profile": { 
			"-0.025": 0.0,
			"-0.024": 0.0,
			"-0.023": 0.0,
			"-0.022": 0.0,
			"-0.021": 0.0,
			"-0.02": 0.0,
			"-0.019": 0.0,
			"-0.018": 0.0,
			"-0.017": 0.0,
			"-0.016": 0.0,
			"-0.015": 0.0,
			"-0.014": 0.0,
			"-0.013": 0.0,
			"-0.012": 0.0,
			"-0.011": 0.199507707989,
			"-0.01": 1.36488856085,
			"-0.009": 1.38629040197,
			"-0.008": 1.59276085896,
			"-0.007": 5.65893967394,
			"-0.006": 18.8206215812,
			"-0.005": 25.6625796504,
			"-0.004": 32.9684620252,
			"-0.003": 32.4740719813,
			"-0.002": 25.8484074467,
			"-0.001": 24.0062169116,
			"0.0": 22.6506986476,
			"0.001": 29.9302389301,
			"0.002": 43.1631162426,
			"0.003": 58.436009393,
			"0.004": 48.5563040947,
			"0.005": 22.4737796399,
			"0.006": 0.728883825328,
			"0.007": 1.22370703217,
			"0.008": 0.591797801186,
			"0.009": 0.403866069095,
			"0.01": 0.413906773714,
			"0.011": 0.00506239050763,
			"0.012": 0.0,
			"0.013": 0.0,
			"0.014": 0.0,
			"0.015": 0.0,
			"0.016": 0.0,
			"0.017": 0.0,
			"0.018": 0.0,
			"0.019": 0.0,
			"0.02": 0.0,
			"0.021": 0.0,
			"0.022": 0.0,
			"0.023": 0.0,
			"0.024": 0.0,
			"0.025": 0.0
		}
	}
}
