{
	 "smiles": "CC1=CC=C(C=C1)S(=O)(=O)C1=CSC(=C1)S(N)(=O)=O", 
	 "Tm": 458.15, 
	 "num_atms": 30, 
	 "gaussian": { 
		 "optdone": 1, 
		 "sigma_profile": "yes", 
		 "theory": "DFT", 
		 "functional": "B3LYP", 
		 "basiset": "6-31G**", 
		 "properties": { 
			 "R2extent": 9361.4238, 
			 "electric_dipole_moment_norm": 2.33996722413, 
			 "electric_quadrupole_moment_norm": 49.4363590341, 
			 "total_energy": -1975.85272726, 
			 "HOMO_LUMO_gap": 0.19422, 
			 "cosmo_polarized_energy": -26.13, 
			 "cosmo_cavitation_energy": 39.71, 
			 "cosmo_dispersion_energy": -29.01, 
			 "cosmo_repulsion_energy": 2.13, 
			 "cosmo_total_nonelectrostatic_energy": 12.83, 
			 "SMD_solvation_energy": 5.67 
		},
		"coords": [
			{
				"x": 1.6805987778,
				"y": 4.4567692834,
				"z": -0.5405510089,
				"element": "C" 
			},
			{
				"x": 0.9419878972,
				"y": 3.1845097583,
				"z": -0.877548031,
				"element": "C" 
			},
			{
				"x": -0.3535384819,
				"y": 3.2279520208,
				"z": -1.4149560975,
				"element": "C" 
			},
			{
				"x": -1.054752531,
				"y": 2.0591864401,
				"z": -1.7006216942,
				"element": "C" 
			},
			{
				"x": -0.4497157289,
				"y": 0.8269154552,
				"z": -1.4451667873,
				"element": "C" 
			},
			{
				"x": 0.8436552921,
				"y": 0.7516647484,
				"z": -0.9251208013,
				"element": "C" 
			},
			{
				"x": 1.5290778414,
				"y": 1.9320084118,
				"z": -0.6455851892,
				"element": "C" 
			},
			{
				"x": -1.341160518,
				"y": -0.6860600611,
				"z": -1.8087728684,
				"element": "S" 
			},
			{
				"x": -2.3174681483,
				"y": -0.3997111324,
				"z": -2.8710945434,
				"element": "O" 
			},
			{
				"x": -0.3557496244,
				"y": -1.7712021033,
				"z": -1.9250363656,
				"element": "O" 
			},
			{
				"x": -2.2950196802,
				"y": -1.013977594,
				"z": -0.3267066041,
				"element": "C" 
			},
			{
				"x": -3.6461787263,
				"y": -0.792072353,
				"z": -0.2662375772,
				"element": "C" 
			},
			{
				"x": -4.2932616146,
				"y": -1.2250498574,
				"z": 1.2731172132,
				"element": "S" 
			},
			{
				"x": -2.7162174183,
				"y": -1.7320064644,
				"z": 1.8244699039,
				"element": "C" 
			},
			{
				"x": -1.7484849689,
				"y": -1.5574458656,
				"z": 0.8725190231,
				"element": "C" 
			},
			{
				"x": -2.4695017349,
				"y": -2.4198812099,
				"z": 3.4509395661,
				"element": "S" 
			},
			{
				"x": -2.7479387654,
				"y": -4.0648373393,
				"z": 3.3404911348,
				"element": "N" 
			},
			{
				"x": -1.0488128306,
				"y": -2.2711194642,
				"z": 3.7458601109,
				"element": "O" 
			},
			{
				"x": -3.5381813767,
				"y": -1.8905873845,
				"z": 4.2925840199,
				"element": "O" 
			},
			{
				"x": 1.3673241442,
				"y": 5.2843295882,
				"z": -1.1832320475,
				"element": "H" 
			},
			{
				"x": 2.7620392163,
				"y": 4.33178719,
				"z": -0.645645687,
				"element": "H" 
			},
			{
				"x": 1.4862286559,
				"y": 4.7565375782,
				"z": 0.4967272022,
				"element": "H" 
			},
			{
				"x": -0.81532915,
				"y": 4.1901572126,
				"z": -1.6192966597,
				"element": "H" 
			},
			{
				"x": -2.0471972776,
				"y": 2.0958447288,
				"z": -2.1368647678,
				"element": "H" 
			},
			{
				"x": 1.3081033052,
				"y": -0.2159262629,
				"z": -0.768656008,
				"element": "H" 
			},
			{
				"x": 2.5389289954,
				"y": 1.8800265766,
				"z": -0.2477749381,
				"element": "H" 
			},
			{
				"x": -4.2758394558,
				"y": -0.3989387073,
				"z": -1.0525438973,
				"element": "H" 
			},
			{
				"x": -0.7054396178,
				"y": -1.8050798463,
				"z": 1.0228426856,
				"element": "H" 
			},
			{
				"x": -3.7149996038,
				"y": -4.300667714,
				"z": 3.1434892862,
				"element": "H" 
			},
			{
				"x": -2.078156872,
				"y": -4.5514256331,
				"z": 2.7535714275,
				"element": "H" 
			}
		],
		 "valence_orbital": [ 
			{
				"type": "occ",
				"energy": -0.29853,
				"method": "rhf"
			},
			{
				"type": "occ",
				"energy": -0.29482,
				"method": "rhf"
			},
			{
				"type": "occ",
				"energy": -0.27809,
				"method": "rhf"
			},
			{
				"type": "occ",
				"energy": -0.27456,
				"method": "rhf"
			},
			{
				"type": "occ",
				"energy": -0.26402,
				"method": "rhf"
			},
			{
				"type": "unocc",
				"energy": -0.0698,
				"method": "rhf"
			},
			{
				"type": "unocc",
				"energy": -0.04492,
				"method": "rhf"
			},
			{
				"type": "unocc",
				"energy": -0.02618,
				"method": "rhf"
			},
			{
				"type": "unocc",
				"energy": -0.00773,
				"method": "rhf"
			},
			{
				"type": "unocc",
				"energy": 0.00126,
				"method": "rhf"
			}
		],
		"cosmo_sigma_profile": { 
			"-0.025": 0.0,
			"-0.024": 0.0,
			"-0.023": 0.0,
			"-0.022": 0.0,
			"-0.021": 0.0,
			"-0.02": 0.0,
			"-0.019": 0.0,
			"-0.018": 0.0,
			"-0.017": 0.0,
			"-0.016": 1.09057769651,
			"-0.015": 2.88455364857,
			"-0.014": 3.31684745637,
			"-0.013": 3.28134766403,
			"-0.012": 2.65481923214,
			"-0.011": 4.13885669394,
			"-0.01": 3.23445860501,
			"-0.009": 3.71872862557,
			"-0.008": 4.65503236243,
			"-0.007": 10.333641246,
			"-0.006": 13.3956345721,
			"-0.005": 18.756437969,
			"-0.004": 18.8738210079,
			"-0.003": 17.5428173505,
			"-0.002": 22.7093054241,
			"-0.001": 30.4074308204,
			"0.0": 27.5228261135,
			"0.001": 18.2987147966,
			"0.002": 15.1166871692,
			"0.003": 17.4792746518,
			"0.004": 7.59422506341,
			"0.005": 5.67868822559,
			"0.006": 6.83324731268,
			"0.007": 8.14663178856,
			"0.008": 6.74509476793,
			"0.009": 9.0083353697,
			"0.01": 17.6446391783,
			"0.011": 15.6796447677,
			"0.012": 3.17311093256,
			"0.013": 0.0,
			"0.014": 0.0,
			"0.015": 0.0,
			"0.016": 0.0,
			"0.017": 0.0,
			"0.018": 0.0,
			"0.019": 0.0,
			"0.02": 0.0,
			"0.021": 0.0,
			"0.022": 0.0,
			"0.023": 0.0,
			"0.024": 0.0,
			"0.025": 0.0
		}
	}
}
