{
	 "smiles": "NC(=O)C1=C(C=CS1)C1=CC=CC=C1", 
	 "Tm": 388.15, 
	 "num_atms": 23, 
	 "gaussian": { 
		 "optdone": 1, 
		 "sigma_profile": "yes", 
		 "theory": "DFT", 
		 "functional": "B3LYP", 
		 "basiset": "6-31G**", 
		 "properties": { 
			 "R2extent": 4088.099, 
			 "electric_dipole_moment_norm": 4.64965666474, 
			 "electric_quadrupole_moment_norm": 21.5402335231, 
			 "total_energy": -952.765583063, 
			 "HOMO_LUMO_gap": 0.18591, 
			 "cosmo_polarized_energy": -13.4, 
			 "cosmo_cavitation_energy": 28.65, 
			 "cosmo_dispersion_energy": -21.22, 
			 "cosmo_repulsion_energy": 1.63, 
			 "cosmo_total_nonelectrostatic_energy": 9.06, 
			 "SMD_solvation_energy": 5.47 
		},
		"coords": [
			{
				"x": -2.8237847072,
				"y": -0.2959687592,
				"z": -1.6668644889,
				"element": "N" 
			},
			{
				"x": -2.7389672614,
				"y": 0.9946311918,
				"z": -2.1002445961,
				"element": "C" 
			},
			{
				"x": -3.4986643223,
				"y": 1.4436201242,
				"z": -2.9560788908,
				"element": "O" 
			},
			{
				"x": -1.7001089828,
				"y": 1.8688858043,
				"z": -1.4873682259,
				"element": "C" 
			},
			{
				"x": -0.6702221457,
				"y": 1.6673505903,
				"z": -0.5782955355,
				"element": "C" 
			},
			{
				"x": -0.0179045784,
				"y": 2.8964274104,
				"z": -0.2377905535,
				"element": "C" 
			},
			{
				"x": -0.5387080088,
				"y": 3.9818475127,
				"z": -0.8881816904,
				"element": "C" 
			},
			{
				"x": -1.8417921361,
				"y": 3.551047366,
				"z": -1.9294341469,
				"element": "S" 
			},
			{
				"x": -0.2187044517,
				"y": 0.3758048275,
				"z": 0.0034918461,
				"element": "C" 
			},
			{
				"x": -0.1473838076,
				"y": 0.220753701,
				"z": 1.3986680937,
				"element": "C" 
			},
			{
				"x": 0.3213831672,
				"y": -0.9662357783,
				"z": 1.9614347889,
				"element": "C" 
			},
			{
				"x": 0.731775305,
				"y": -2.0187997811,
				"z": 1.1406333471,
				"element": "C" 
			},
			{
				"x": 0.6727749071,
				"y": -1.8755726555,
				"z": -0.24700781,
				"element": "C" 
			},
			{
				"x": 0.2055063564,
				"y": -0.6881361216,
				"z": -0.8122806024,
				"element": "C" 
			},
			{
				"x": -2.2604758822,
				"y": -0.6618609794,
				"z": -0.9165201566,
				"element": "H" 
			},
			{
				"x": -3.5752465516,
				"y": -0.8512744978,
				"z": -2.0455153004,
				"element": "H" 
			},
			{
				"x": 0.8226629177,
				"y": 2.9446717442,
				"z": 0.4453164605,
				"element": "H" 
			},
			{
				"x": -0.2141945262,
				"y": 5.0114154866,
				"z": -0.8182471911,
				"element": "H" 
			},
			{
				"x": -0.4720465852,
				"y": 1.0352870245,
				"z": 2.039692842,
				"element": "H" 
			},
			{
				"x": 0.3637343262,
				"y": -1.0694081301,
				"z": 3.041929097,
				"element": "H" 
			},
			{
				"x": 1.0981343826,
				"y": -2.9424186737,
				"z": 1.579041231,
				"element": "H" 
			},
			{
				"x": 1.0009474027,
				"y": -2.684806428,
				"z": -0.8930462263,
				"element": "H" 
			},
			{
				"x": 0.1767851823,
				"y": -0.5734609787,
				"z": -1.8914322914,
				"element": "H" 
			}
		],
		 "valence_orbital": [ 
			{
				"type": "occ",
				"energy": -0.26826,
				"method": "rhf"
			},
			{
				"type": "occ",
				"energy": -0.26143,
				"method": "rhf"
			},
			{
				"type": "occ",
				"energy": -0.25149,
				"method": "rhf"
			},
			{
				"type": "occ",
				"energy": -0.24416,
				"method": "rhf"
			},
			{
				"type": "occ",
				"energy": -0.2351,
				"method": "rhf"
			},
			{
				"type": "unocc",
				"energy": -0.04919,
				"method": "rhf"
			},
			{
				"type": "unocc",
				"energy": -0.01629,
				"method": "rhf"
			},
			{
				"type": "unocc",
				"energy": -0.01211,
				"method": "rhf"
			},
			{
				"type": "unocc",
				"energy": 0.03889,
				"method": "rhf"
			},
			{
				"type": "unocc",
				"energy": 0.04033,
				"method": "rhf"
			}
		],
		"cosmo_sigma_profile": { 
			"-0.025": 0.0,
			"-0.024": 0.0,
			"-0.023": 0.0,
			"-0.022": 0.0,
			"-0.021": 0.0,
			"-0.02": 0.0,
			"-0.019": 0.0,
			"-0.018": 0.0,
			"-0.017": 0.0,
			"-0.016": 0.0,
			"-0.015": 0.0415837977516,
			"-0.014": 0.937265638308,
			"-0.013": 1.25494396365,
			"-0.012": 0.659156119147,
			"-0.011": 1.38345330238,
			"-0.01": 2.49198246887,
			"-0.009": 2.49850674928,
			"-0.008": 3.89843517405,
			"-0.007": 4.69117661591,
			"-0.006": 13.2181074381,
			"-0.005": 15.3403004319,
			"-0.004": 18.3907894628,
			"-0.003": 15.6312297251,
			"-0.002": 13.8244866987,
			"-0.001": 11.7495229319,
			"0.0": 16.567123978,
			"0.001": 16.5175532477,
			"0.002": 20.4849337224,
			"0.003": 23.4959659129,
			"0.004": 19.0393754278,
			"0.005": 8.99085312303,
			"0.006": 1.83202700276,
			"0.007": 0.855210499049,
			"0.008": 2.06901184676,
			"0.009": 1.54370000976,
			"0.01": 1.76860069262,
			"0.011": 1.38752256239,
			"0.012": 2.1382669713,
			"0.013": 4.25777641834,
			"0.014": 4.30064348556,
			"0.015": 0.546452718863,
			"0.016": 0.0,
			"0.017": 0.0,
			"0.018": 0.0,
			"0.019": 0.0,
			"0.02": 0.0,
			"0.021": 0.0,
			"0.022": 0.0,
			"0.023": 0.0,
			"0.024": 0.0,
			"0.025": 0.0
		}
	}
}
