{
	 "smiles": "OC(=O)C1=CC=C(C=C1)N1CCOC1=O", 
	 "Tm": 545.15, 
	 "num_atms": 24, 
	 "gaussian": { 
		 "optdone": 1, 
		 "sigma_profile": "yes", 
		 "theory": "DFT", 
		 "functional": "B3LYP", 
		 "basiset": "6-31G**", 
		 "properties": { 
			 "R2extent": 4412.8112, 
			 "electric_dipole_moment_norm": 3.85717100088, 
			 "electric_quadrupole_moment_norm": 28.7257747572, 
			 "total_energy": -742.168291839, 
			 "HOMO_LUMO_gap": 0.18596, 
			 "cosmo_polarized_energy": -18.15, 
			 "cosmo_cavitation_energy": 28.42, 
			 "cosmo_dispersion_energy": -21.45, 
			 "cosmo_repulsion_energy": 1.65, 
			 "cosmo_total_nonelectrostatic_energy": 8.63, 
			 "SMD_solvation_energy": 6.92 
		},
		"coords": [
			{
				"x": -0.2874216721,
				"y": 3.1384120554,
				"z": 2.5972104949,
				"element": "O" 
			},
			{
				"x": 0.2753893677,
				"y": 2.8904811165,
				"z": 1.3864755969,
				"element": "C" 
			},
			{
				"x": 1.0047031743,
				"y": 3.6964957302,
				"z": 0.8397582632,
				"element": "O" 
			},
			{
				"x": -0.0938037608,
				"y": 1.5666596747,
				"z": 0.8331111973,
				"element": "C" 
			},
			{
				"x": 0.4254012394,
				"y": 1.2013185023,
				"z": -0.4137218044,
				"element": "C" 
			},
			{
				"x": 0.1124461073,
				"y": -0.0279519997,
				"z": -0.9790541121,
				"element": "C" 
			},
			{
				"x": -0.7345085332,
				"y": -0.9275307913,
				"z": -0.3036183944,
				"element": "C" 
			},
			{
				"x": -1.2587078643,
				"y": -0.5637816908,
				"z": 0.9522217907,
				"element": "C" 
			},
			{
				"x": -0.9379182468,
				"y": 0.6698765305,
				"z": 1.5039155092,
				"element": "C" 
			},
			{
				"x": -1.0162099342,
				"y": -2.1759924275,
				"z": -0.8924101425,
				"element": "N" 
			},
			{
				"x": -0.4435177193,
				"y": -2.5917313568,
				"z": -2.1686409082,
				"element": "C" 
			},
			{
				"x": -0.9271309984,
				"y": -4.0461639521,
				"z": -2.253201911,
				"element": "C" 
			},
			{
				"x": -2.0486376228,
				"y": -4.1116210302,
				"z": -1.3624430807,
				"element": "O" 
			},
			{
				"x": -2.0250833626,
				"y": -3.0555521684,
				"z": -0.4974657537,
				"element": "C" 
			},
			{
				"x": -2.7858821628,
				"y": -2.9613653016,
				"z": 0.4339273608,
				"element": "O" 
			},
			{
				"x": 0.0228685248,
				"y": 4.0221266346,
				"z": 2.8535533689,
				"element": "H" 
			},
			{
				"x": 1.0759539371,
				"y": 1.8977290103,
				"z": -0.9318401614,
				"element": "H" 
			},
			{
				"x": 0.5255406609,
				"y": -0.2788295023,
				"z": -1.9487405405,
				"element": "H" 
			},
			{
				"x": -1.916413131,
				"y": -1.2444073918,
				"z": 1.4728133506,
				"element": "H" 
			},
			{
				"x": -1.3460379352,
				"y": 0.9419327729,
				"z": 2.4707621315,
				"element": "H" 
			},
			{
				"x": -0.8257699302,
				"y": -1.9748373896,
				"z": -2.9927563133,
				"element": "H" 
			},
			{
				"x": 0.6477412814,
				"y": -2.5222679044,
				"z": -2.160910614,
				"element": "H" 
			},
			{
				"x": -0.1624117666,
				"y": -4.7510458418,
				"z": -1.9090500565,
				"element": "H" 
			},
			{
				"x": -1.2582896528,
				"y": -4.3340532789,
				"z": -3.2523952713,
				"element": "H" 
			}
		],
		 "valence_orbital": [ 
			{
				"type": "occ",
				"energy": -0.30736,
				"method": "rhf"
			},
			{
				"type": "occ",
				"energy": -0.28795,
				"method": "rhf"
			},
			{
				"type": "occ",
				"energy": -0.2735,
				"method": "rhf"
			},
			{
				"type": "occ",
				"energy": -0.26393,
				"method": "rhf"
			},
			{
				"type": "occ",
				"energy": -0.23319,
				"method": "rhf"
			},
			{
				"type": "unocc",
				"energy": -0.04723,
				"method": "rhf"
			},
			{
				"type": "unocc",
				"energy": -0.01236,
				"method": "rhf"
			},
			{
				"type": "unocc",
				"energy": 0.02902,
				"method": "rhf"
			},
			{
				"type": "unocc",
				"energy": 0.06461,
				"method": "rhf"
			},
			{
				"type": "unocc",
				"energy": 0.07072,
				"method": "rhf"
			}
		],
		"cosmo_sigma_profile": { 
			"-0.025": 0.0,
			"-0.024": 0.0,
			"-0.023": 0.0,
			"-0.022": 0.0,
			"-0.021": 0.0,
			"-0.02": 0.0,
			"-0.019": 0.0143930540458,
			"-0.018": 0.589295277019,
			"-0.017": 0.752064633494,
			"-0.016": 1.30162547574,
			"-0.015": 0.756757340787,
			"-0.014": 0.264270227793,
			"-0.013": 0.90132676553,
			"-0.012": 0.637642447841,
			"-0.011": 0.642189441587,
			"-0.01": 0.931843850867,
			"-0.009": 0.474864005761,
			"-0.008": 6.40850187949,
			"-0.007": 19.165466464,
			"-0.006": 20.0172893216,
			"-0.005": 13.7923050106,
			"-0.004": 10.4277389001,
			"-0.003": 8.67668812372,
			"-0.002": 11.6466939818,
			"-0.001": 11.4304357551,
			"0.0": 12.9209545988,
			"0.001": 14.0394593562,
			"0.002": 14.1315545735,
			"0.003": 18.5965189842,
			"0.004": 9.72538402373,
			"0.005": 5.27073181609,
			"0.006": 5.56325355907,
			"0.007": 4.58705817632,
			"0.008": 6.24205261127,
			"0.009": 4.86867013281,
			"0.01": 5.9787253124,
			"0.011": 6.82341516017,
			"0.012": 8.23360448696,
			"0.013": 1.44134637477,
			"0.014": 0.0,
			"0.015": 0.0,
			"0.016": 0.0,
			"0.017": 0.0,
			"0.018": 0.0,
			"0.019": 0.0,
			"0.02": 0.0,
			"0.021": 0.0,
			"0.022": 0.0,
			"0.023": 0.0,
			"0.024": 0.0,
			"0.025": 0.0
		}
	}
}
