{
	 "smiles": "OC(=O)CC1=CC(OCC(F)(F)F)=CC=C1", 
	 "Tm": 373.15, 
	 "num_atms": 25, 
	 "gaussian": { 
		 "optdone": 1, 
		 "sigma_profile": "yes", 
		 "theory": "DFT", 
		 "functional": "B3LYP", 
		 "basiset": "6-31G**", 
		 "properties": { 
			 "R2extent": 5922.1944, 
			 "electric_dipole_moment_norm": 2.39206156066, 
			 "electric_quadrupole_moment_norm": 6.88106669492, 
			 "total_energy": -911.691176032, 
			 "HOMO_LUMO_gap": 0.21645, 
			 "cosmo_polarized_energy": -12.04, 
			 "cosmo_cavitation_energy": 31.25, 
			 "cosmo_dispersion_energy": -21.62, 
			 "cosmo_repulsion_energy": 1.65, 
			 "cosmo_total_nonelectrostatic_energy": 11.29, 
			 "SMD_solvation_energy": 7.79 
		},
		"coords": [
			{
				"x": -2.0590392535,
				"y": 2.3845272189,
				"z": -1.6611229769,
				"element": "O" 
			},
			{
				"x": -1.5077563113,
				"y": 1.1536538467,
				"z": -1.5407927983,
				"element": "C" 
			},
			{
				"x": -1.7009247177,
				"y": 0.2730382489,
				"z": -2.3494211303,
				"element": "O" 
			},
			{
				"x": -0.6074662386,
				"y": 1.0736638806,
				"z": -0.3169012651,
				"element": "C" 
			},
			{
				"x": -0.582270041,
				"y": -0.2822200094,
				"z": 0.3565410318,
				"element": "C" 
			},
			{
				"x": -0.1785120137,
				"y": -1.4179784167,
				"z": -0.3599603636,
				"element": "C" 
			},
			{
				"x": -0.1559431056,
				"y": -2.6627966875,
				"z": 0.2688654969,
				"element": "C" 
			},
			{
				"x": 0.1997649329,
				"y": -3.8411135314,
				"z": -0.352297803,
				"element": "O" 
			},
			{
				"x": 0.1176274128,
				"y": -3.9480943901,
				"z": -1.7567840875,
				"element": "C" 
			},
			{
				"x": 1.4765385522,
				"y": -3.7861457847,
				"z": -2.4252943477,
				"element": "C" 
			},
			{
				"x": 2.3728873695,
				"y": -4.6642532991,
				"z": -1.9446987277,
				"element": "F" 
			},
			{
				"x": 1.9908515263,
				"y": -2.5486285491,
				"z": -2.2624478647,
				"element": "F" 
			},
			{
				"x": 1.3450706844,
				"y": -4.0052535849,
				"z": -3.7525273693,
				"element": "F" 
			},
			{
				"x": -0.4964203666,
				"y": -2.7824321652,
				"z": 1.621784195,
				"element": "C" 
			},
			{
				"x": -0.8766894019,
				"y": -1.6497301722,
				"z": 2.3322935318,
				"element": "C" 
			},
			{
				"x": -0.9313997803,
				"y": -0.4022528004,
				"z": 1.7036565551,
				"element": "C" 
			},
			{
				"x": -2.5772554628,
				"y": 2.3696584558,
				"z": -2.4839790661,
				"element": "H" 
			},
			{
				"x": 0.3981875353,
				"y": 1.3396211244,
				"z": -0.6735137619,
				"element": "H" 
			},
			{
				"x": -0.9007997726,
				"y": 1.8558772317,
				"z": 0.3865324012,
				"element": "H" 
			},
			{
				"x": 0.1162942234,
				"y": -1.3103187176,
				"z": -1.3942611231,
				"element": "H" 
			},
			{
				"x": -0.5811396814,
				"y": -3.2286078876,
				"z": -2.1952026406,
				"element": "H" 
			},
			{
				"x": -0.2291214357,
				"y": -4.9604967685,
				"z": -1.9843403341,
				"element": "H" 
			},
			{
				"x": -0.4620844856,
				"y": -3.762517624,
				"z": 2.0854674112,
				"element": "H" 
			},
			{
				"x": -1.1446527117,
				"y": -1.7396346642,
				"z": 3.3809470995,
				"element": "H" 
			},
			{
				"x": -1.2404474567,
				"y": 0.4759350455,
				"z": 2.2634579372,
				"element": "H" 
			}
		],
		 "valence_orbital": [ 
			{
				"type": "occ",
				"energy": -0.32521,
				"method": "rhf"
			},
			{
				"type": "occ",
				"energy": -0.31824,
				"method": "rhf"
			},
			{
				"type": "occ",
				"energy": -0.28359,
				"method": "rhf"
			},
			{
				"type": "occ",
				"energy": -0.25046,
				"method": "rhf"
			},
			{
				"type": "occ",
				"energy": -0.22788,
				"method": "rhf"
			},
			{
				"type": "unocc",
				"energy": -0.01143,
				"method": "rhf"
			},
			{
				"type": "unocc",
				"energy": 0.00559,
				"method": "rhf"
			},
			{
				"type": "unocc",
				"energy": 0.00698,
				"method": "rhf"
			},
			{
				"type": "unocc",
				"energy": 0.07414,
				"method": "rhf"
			},
			{
				"type": "unocc",
				"energy": 0.08602,
				"method": "rhf"
			}
		],
		"cosmo_sigma_profile": { 
			"-0.025": 0.0,
			"-0.024": 0.0,
			"-0.023": 0.0,
			"-0.022": 0.0,
			"-0.021": 0.0,
			"-0.02": 0.0,
			"-0.019": 0.0221417634093,
			"-0.018": 0.690761974049,
			"-0.017": 1.19080884314,
			"-0.016": 0.720305901681,
			"-0.015": 0.630704506557,
			"-0.014": 0.600918975791,
			"-0.013": 0.376515261706,
			"-0.012": 1.10366371215,
			"-0.011": 0.918046300616,
			"-0.01": 1.08900078522,
			"-0.009": 2.53971224343,
			"-0.008": 6.20718884759,
			"-0.007": 8.44406453017,
			"-0.006": 14.7398997347,
			"-0.005": 14.447727332,
			"-0.004": 14.0727206327,
			"-0.003": 14.0022723109,
			"-0.002": 11.5086910353,
			"-0.001": 12.0461620792,
			"0.0": 11.3464915862,
			"0.001": 16.0860970953,
			"0.002": 29.3605202846,
			"0.003": 33.0936278625,
			"0.004": 13.3538388364,
			"0.005": 12.9007987462,
			"0.006": 6.08371616376,
			"0.007": 4.6313927611,
			"0.008": 4.22011384888,
			"0.009": 3.99423121704,
			"0.01": 2.84498362752,
			"0.011": 3.79823127946,
			"0.012": 1.87444036591,
			"0.013": 0.0159073198863,
			"0.014": 0.0,
			"0.015": 0.0,
			"0.016": 0.0,
			"0.017": 0.0,
			"0.018": 0.0,
			"0.019": 0.0,
			"0.02": 0.0,
			"0.021": 0.0,
			"0.022": 0.0,
			"0.023": 0.0,
			"0.024": 0.0,
			"0.025": 0.0
		}
	}
}
