{
	 "smiles": "CCCC(=O)NC1=C(C=C(Cl)C=C1Cl)C(O)=O", 
	 "Tm": 454.15, 
	 "num_atms": 28, 
	 "gaussian": { 
		 "optdone": 1, 
		 "sigma_profile": "yes", 
		 "theory": "DFT", 
		 "functional": "B3LYP", 
		 "basiset": "6-31G**", 
		 "properties": { 
			 "R2extent": 7614.8253, 
			 "electric_dipole_moment_norm": 3.41433640112, 
			 "electric_quadrupole_moment_norm": 17.3097150014, 
			 "total_energy": -1626.63898125, 
			 "HOMO_LUMO_gap": 0.19121, 
			 "cosmo_polarized_energy": -16.28, 
			 "cosmo_cavitation_energy": 35.86, 
			 "cosmo_dispersion_energy": -24.94, 
			 "cosmo_repulsion_energy": 1.98, 
			 "cosmo_total_nonelectrostatic_energy": 12.9, 
			 "SMD_solvation_energy": 7.47 
		},
		"coords": [
			{
				"x": -0.6363125419,
				"y": -1.7965915669,
				"z": -2.3210265211,
				"element": "C" 
			},
			{
				"x": 0.7632714889,
				"y": -1.3687943571,
				"z": -1.8712422897,
				"element": "C" 
			},
			{
				"x": 0.7211595506,
				"y": -0.2146385692,
				"z": -0.8663404305,
				"element": "C" 
			},
			{
				"x": 2.1005031251,
				"y": 0.2122172054,
				"z": -0.4052479678,
				"element": "C" 
			},
			{
				"x": 3.1378116563,
				"y": -0.3110622363,
				"z": -0.7507947471,
				"element": "O" 
			},
			{
				"x": 2.1542498203,
				"y": 1.2605055334,
				"z": 0.5650733004,
				"element": "N" 
			},
			{
				"x": 1.160203907,
				"y": 2.2907989225,
				"z": 0.6709856534,
				"element": "C" 
			},
			{
				"x": 0.1211696494,
				"y": 2.2140862973,
				"z": 1.6216734366,
				"element": "C" 
			},
			{
				"x": -0.8339388619,
				"y": 3.2339079994,
				"z": 1.6973864594,
				"element": "C" 
			},
			{
				"x": -0.7457219265,
				"y": 4.3369377681,
				"z": 0.8574732942,
				"element": "C" 
			},
			{
				"x": -1.9382238846,
				"y": 5.6117615529,
				"z": 0.9669251494,
				"element": "Cl" 
			},
			{
				"x": 0.2852686156,
				"y": 4.4518422084,
				"z": -0.0741467627,
				"element": "C" 
			},
			{
				"x": 1.2214694508,
				"y": 3.425087908,
				"z": -0.1589063308,
				"element": "C" 
			},
			{
				"x": 2.5092133026,
				"y": 3.5663798338,
				"z": -1.3379791656,
				"element": "Cl" 
			},
			{
				"x": -0.0610835192,
				"y": 1.0913788772,
				"z": 2.6322650382,
				"element": "C" 
			},
			{
				"x": 0.9104250415,
				"y": 0.1728727607,
				"z": 2.7190013229,
				"element": "O" 
			},
			{
				"x": -1.0430958631,
				"y": 1.0415340728,
				"z": 3.3376351751,
				"element": "O" 
			},
			{
				"x": -0.5809952635,
				"y": -2.6220420534,
				"z": -3.0371010177,
				"element": "H" 
			},
			{
				"x": -1.1716385097,
				"y": -0.9722264385,
				"z": -2.8060612295,
				"element": "H" 
			},
			{
				"x": -1.2443052955,
				"y": -2.1325652374,
				"z": -1.473451297,
				"element": "H" 
			},
			{
				"x": 1.2919046252,
				"y": -2.2146048697,
				"z": -1.4194752525,
				"element": "H" 
			},
			{
				"x": 1.364150864,
				"y": -1.0672329688,
				"z": -2.7359140768,
				"element": "H" 
			},
			{
				"x": 0.2061047469,
				"y": 0.6561799695,
				"z": -1.2933335172,
				"element": "H" 
			},
			{
				"x": 0.1397324817,
				"y": -0.4945160568,
				"z": 0.0225914616,
				"element": "H" 
			},
			{
				"x": 3.1126785672,
				"y": 1.5982902402,
				"z": 0.6238144877,
				"element": "H" 
			},
			{
				"x": -1.6258278211,
				"y": 3.1397952066,
				"z": 2.4302440482,
				"element": "H" 
			},
			{
				"x": 0.3575110195,
				"y": 5.3151544616,
				"z": -0.7240537529,
				"element": "H" 
			},
			{
				"x": 1.6235155743,
				"y": 0.3956435363,
				"z": 2.078805532,
				"element": "H" 
			}
		],
		 "valence_orbital": [ 
			{
				"type": "occ",
				"energy": -0.31042,
				"method": "rhf"
			},
			{
				"type": "occ",
				"energy": -0.29502,
				"method": "rhf"
			},
			{
				"type": "occ",
				"energy": -0.28779,
				"method": "rhf"
			},
			{
				"type": "occ",
				"energy": -0.28511,
				"method": "rhf"
			},
			{
				"type": "occ",
				"energy": -0.2696,
				"method": "rhf"
			},
			{
				"type": "unocc",
				"energy": -0.07839,
				"method": "rhf"
			},
			{
				"type": "unocc",
				"energy": -0.0546,
				"method": "rhf"
			},
			{
				"type": "unocc",
				"energy": -0.01963,
				"method": "rhf"
			},
			{
				"type": "unocc",
				"energy": -0.01235,
				"method": "rhf"
			},
			{
				"type": "unocc",
				"energy": 0.02586,
				"method": "rhf"
			}
		],
		"cosmo_sigma_profile": { 
			"-0.025": 0.0,
			"-0.024": 0.0,
			"-0.023": 0.0,
			"-0.022": 0.0,
			"-0.021": 0.0,
			"-0.02": 0.0,
			"-0.019": 0.0,
			"-0.018": 0.0,
			"-0.017": 0.0,
			"-0.016": 0.0,
			"-0.015": 0.537069167526,
			"-0.014": 1.18366335542,
			"-0.013": 0.558850769209,
			"-0.012": 1.16969962068,
			"-0.011": 1.64831724528,
			"-0.01": 3.90626357752,
			"-0.009": 4.62707560067,
			"-0.008": 3.51410223605,
			"-0.007": 6.46445470215,
			"-0.006": 9.66204825354,
			"-0.005": 11.8768840504,
			"-0.004": 14.9560537729,
			"-0.003": 26.6164257519,
			"-0.002": 29.437015445,
			"-0.001": 33.7289786558,
			"0.0": 28.5064370581,
			"0.001": 22.1141081969,
			"0.002": 16.8966642002,
			"0.003": 17.6986641777,
			"0.004": 9.52299399145,
			"0.005": 3.44315973861,
			"0.006": 4.36464307408,
			"0.007": 3.8396894784,
			"0.008": 3.49329167188,
			"0.009": 5.10406121123,
			"0.01": 7.62933963258,
			"0.011": 9.3902465521,
			"0.012": 6.60213460185,
			"0.013": 1.07933191591,
			"0.014": 0.0,
			"0.015": 0.0,
			"0.016": 0.0,
			"0.017": 0.0,
			"0.018": 0.0,
			"0.019": 0.0,
			"0.02": 0.0,
			"0.021": 0.0,
			"0.022": 0.0,
			"0.023": 0.0,
			"0.024": 0.0,
			"0.025": 0.0
		}
	}
}
