{
	 "smiles": "S=C1OC2=CC=CC=C2N1CN1CCCCC1", 
	 "Tm": 528.15, 
	 "num_atms": 33, 
	 "gaussian": { 
		 "optdone": 1, 
		 "sigma_profile": "yes", 
		 "theory": "DFT", 
		 "functional": "B3LYP", 
		 "basiset": "6-31G**", 
		 "properties": { 
			 "R2extent": 5178.4688, 
			 "electric_dipole_moment_norm": 5.37540055717, 
			 "electric_quadrupole_moment_norm": 15.8803331939, 
			 "total_energy": -1087.95134672, 
			 "HOMO_LUMO_gap": 0.17361, 
			 "cosmo_polarized_energy": -12.13, 
			 "cosmo_cavitation_energy": 35.34, 
			 "cosmo_dispersion_energy": -26.02, 
			 "cosmo_repulsion_energy": 1.96, 
			 "cosmo_total_nonelectrostatic_energy": 11.27, 
			 "SMD_solvation_energy": 2.6 
		},
		"coords": [
			{
				"x": 2.9515320454,
				"y": -2.1097353111,
				"z": -0.301998078,
				"element": "S" 
			},
			{
				"x": 1.487605858,
				"y": -2.1990304859,
				"z": 0.4588529305,
				"element": "C" 
			},
			{
				"x": 1.3102607563,
				"y": -2.9046052147,
				"z": 1.6254224362,
				"element": "O" 
			},
			{
				"x": -0.0183102788,
				"y": -2.8472802355,
				"z": 1.9710932017,
				"element": "C" 
			},
			{
				"x": -0.6359568956,
				"y": -3.4424944856,
				"z": 3.05576474,
				"element": "C" 
			},
			{
				"x": -2.0189085538,
				"y": -3.2482467058,
				"z": 3.1643607663,
				"element": "C" 
			},
			{
				"x": -2.7210135164,
				"y": -2.4930924529,
				"z": 2.2166755539,
				"element": "C" 
			},
			{
				"x": -2.0765852327,
				"y": -1.8937371641,
				"z": 1.1276212991,
				"element": "C" 
			},
			{
				"x": -0.6999670993,
				"y": -2.0810949863,
				"z": 1.0242759255,
				"element": "C" 
			},
			{
				"x": 0.2682484615,
				"y": -1.6689620626,
				"z": 0.1018217399,
				"element": "N" 
			},
			{
				"x": 0.0337207435,
				"y": -0.8812811837,
				"z": -1.1489795557,
				"element": "C" 
			},
			{
				"x": -0.0032993481,
				"y": 0.5445559858,
				"z": -1.0429921789,
				"element": "N" 
			},
			{
				"x": -1.1875153541,
				"y": 1.1238780223,
				"z": -0.4056323983,
				"element": "C" 
			},
			{
				"x": -1.2822086276,
				"y": 2.6247099551,
				"z": -0.7047912314,
				"element": "C" 
			},
			{
				"x": 0.0009972459,
				"y": 3.3506866786,
				"z": -0.279964667,
				"element": "C" 
			},
			{
				"x": 1.2241005552,
				"y": 2.6810667883,
				"z": -0.919797451,
				"element": "C" 
			},
			{
				"x": 1.2501109689,
				"y": 1.1797883445,
				"z": -0.6157414575,
				"element": "C" 
			},
			{
				"x": -0.0733066667,
				"y": -4.0298294122,
				"z": 3.7722276814,
				"element": "H" 
			},
			{
				"x": -2.5540511007,
				"y": -3.6945384131,
				"z": 3.9962661498,
				"element": "H" 
			},
			{
				"x": -3.793385898,
				"y": -2.3658848488,
				"z": 2.3265174092,
				"element": "H" 
			},
			{
				"x": -2.6321317626,
				"y": -1.3109399478,
				"z": 0.4032307933,
				"element": "H" 
			},
			{
				"x": -0.9171044802,
				"y": -1.2393959619,
				"z": -1.5552805063,
				"element": "H" 
			},
			{
				"x": 0.8489286147,
				"y": -1.1788527977,
				"z": -1.8116894458,
				"element": "H" 
			},
			{
				"x": -2.0737094527,
				"y": 0.6128780684,
				"z": -0.8005002891,
				"element": "H" 
			},
			{
				"x": -1.1820909853,
				"y": 0.9722757468,
				"z": 0.6903401304,
				"element": "H" 
			},
			{
				"x": -2.1560275492,
				"y": 3.0415626569,
				"z": -0.1903748196,
				"element": "H" 
			},
			{
				"x": -1.4411049561,
				"y": 2.7582833419,
				"z": -1.7820553441,
				"element": "H" 
			},
			{
				"x": 0.0954010977,
				"y": 3.3114132578,
				"z": 0.8145800357,
				"element": "H" 
			},
			{
				"x": -0.0488997857,
				"y": 4.4106976624,
				"z": -0.5536689473,
				"element": "H" 
			},
			{
				"x": 2.1520881411,
				"y": 3.1377778563,
				"z": -0.5572235245,
				"element": "H" 
			},
			{
				"x": 1.1942107124,
				"y": 2.8216258038,
				"z": -2.0075359467,
				"element": "H" 
			},
			{
				"x": 2.0773107457,
				"y": 0.6916152331,
				"z": -1.1371641516,
				"element": "H" 
			},
			{
				"x": 1.4249615971,
				"y": 1.0293862674,
				"z": 0.4657391999,
				"element": "H" 
			}
		],
		 "valence_orbital": [ 
			{
				"type": "occ",
				"energy": -0.28124,
				"method": "rhf"
			},
			{
				"type": "occ",
				"energy": -0.26188,
				"method": "rhf"
			},
			{
				"type": "occ",
				"energy": -0.23311,
				"method": "rhf"
			},
			{
				"type": "occ",
				"energy": -0.21796,
				"method": "rhf"
			},
			{
				"type": "occ",
				"energy": -0.20996,
				"method": "rhf"
			},
			{
				"type": "unocc",
				"energy": -0.03635,
				"method": "rhf"
			},
			{
				"type": "unocc",
				"energy": -0.00674,
				"method": "rhf"
			},
			{
				"type": "unocc",
				"energy": 0.0044,
				"method": "rhf"
			},
			{
				"type": "unocc",
				"energy": 0.06733,
				"method": "rhf"
			},
			{
				"type": "unocc",
				"energy": 0.08327,
				"method": "rhf"
			}
		],
		"cosmo_sigma_profile": { 
			"-0.025": 0.0,
			"-0.024": 0.0,
			"-0.023": 0.0,
			"-0.022": 0.0,
			"-0.021": 0.0,
			"-0.02": 0.0,
			"-0.019": 0.0,
			"-0.018": 0.0,
			"-0.017": 0.0,
			"-0.016": 0.0,
			"-0.015": 0.0,
			"-0.014": 0.0,
			"-0.013": 0.0,
			"-0.012": 0.00161838379648,
			"-0.011": 0.152756617326,
			"-0.01": 0.566859507003,
			"-0.009": 0.856083519121,
			"-0.008": 3.79463468435,
			"-0.007": 8.19624608805,
			"-0.006": 11.3217158457,
			"-0.005": 12.6930756578,
			"-0.004": 14.4995991217,
			"-0.003": 18.5315305049,
			"-0.002": 38.3909911558,
			"-0.001": 38.7715269161,
			"0.0": 29.8796556044,
			"0.001": 21.9552955232,
			"0.002": 13.2445603944,
			"0.003": 13.8386804708,
			"0.004": 12.1802695991,
			"0.005": 6.62817241877,
			"0.006": 6.82161515155,
			"0.007": 6.82176918807,
			"0.008": 8.39724569415,
			"0.009": 6.16426389835,
			"0.01": 3.69843210571,
			"0.011": 2.8425154118,
			"0.012": 0.865967462996,
			"0.013": 0.163343632145,
			"0.014": 0.0,
			"0.015": 0.0,
			"0.016": 0.0,
			"0.017": 0.0,
			"0.018": 0.0,
			"0.019": 0.0,
			"0.02": 0.0,
			"0.021": 0.0,
			"0.022": 0.0,
			"0.023": 0.0,
			"0.024": 0.0,
			"0.025": 0.0
		}
	}
}
