{
	 "smiles": "CS(=O)(=O)C1=CC=C(F)C=C1", 
	 "Tm": 352.15, 
	 "num_atms": 18, 
	 "gaussian": { 
		 "optdone": 1, 
		 "sigma_profile": "yes", 
		 "theory": "DFT", 
		 "functional": "B3LYP", 
		 "basiset": "6-31G**", 
		 "properties": { 
			 "R2extent": 4046.8734, 
			 "electric_dipole_moment_norm": 4.25450761076, 
			 "electric_quadrupole_moment_norm": 22.2221556322, 
			 "total_energy": -919.367640423, 
			 "HOMO_LUMO_gap": 0.23068, 
			 "cosmo_polarized_energy": -13.92, 
			 "cosmo_cavitation_energy": 24.08, 
			 "cosmo_dispersion_energy": -17.9, 
			 "cosmo_repulsion_energy": 1.36, 
			 "cosmo_total_nonelectrostatic_energy": 7.54, 
			 "SMD_solvation_energy": 4.48 
		},
		"coords": [
			{
				"x": 1.1440146631,
				"y": 2.6228753287,
				"z": -3.7220611729,
				"element": "C" 
			},
			{
				"x": 1.4483930793,
				"y": 0.8428039074,
				"z": -3.6110162951,
				"element": "S" 
			},
			{
				"x": 1.1314965274,
				"y": 0.2601595129,
				"z": -4.9240560037,
				"element": "O" 
			},
			{
				"x": 2.7701068265,
				"y": 0.6608746735,
				"z": -2.9913809684,
				"element": "O" 
			},
			{
				"x": 0.2088471344,
				"y": 0.2691348425,
				"z": -2.4411345298,
				"element": "C" 
			},
			{
				"x": -1.0375751805,
				"y": -0.1484429773,
				"z": -2.9149296634,
				"element": "C" 
			},
			{
				"x": -2.000160074,
				"y": -0.5917133417,
				"z": -2.0104599157,
				"element": "C" 
			},
			{
				"x": -1.6838686121,
				"y": -0.6086920014,
				"z": -0.6544938077,
				"element": "C" 
			},
			{
				"x": -2.6111062907,
				"y": -1.0358655264,
				"z": 0.2201922575,
				"element": "F" 
			},
			{
				"x": -0.4410916215,
				"y": -0.2083920801,
				"z": -0.1705025746,
				"element": "C" 
			},
			{
				"x": 0.5181387636,
				"y": 0.2339998325,
				"z": -1.0789514606,
				"element": "C" 
			},
			{
				"x": 1.8801853437,
				"y": 3.0141418866,
				"z": -4.4273719253,
				"element": "H" 
			},
			{
				"x": 1.2832137261,
				"y": 3.0741733299,
				"z": -2.7387721418,
				"element": "H" 
			},
			{
				"x": 0.1331718002,
				"y": 2.7928688276,
				"z": -4.0951637543,
				"element": "H" 
			},
			{
				"x": -1.2369726807,
				"y": -0.1446382265,
				"z": -3.9812200121,
				"element": "H" 
			},
			{
				"x": -2.9773473942,
				"y": -0.9296489931,
				"z": -2.3370244467,
				"element": "H" 
			},
			{
				"x": -0.239706816,
				"y": -0.2565585272,
				"z": 0.893858076,
				"element": "H" 
			},
			{
				"x": 1.5064608055,
				"y": 0.5297195321,
				"z": -0.7435116617,
				"element": "H" 
			}
		],
		 "valence_orbital": [ 
			{
				"type": "occ",
				"energy": -0.31449,
				"method": "rhf"
			},
			{
				"type": "occ",
				"energy": -0.29833,
				"method": "rhf"
			},
			{
				"type": "occ",
				"energy": -0.29198,
				"method": "rhf"
			},
			{
				"type": "occ",
				"energy": -0.2851,
				"method": "rhf"
			},
			{
				"type": "occ",
				"energy": -0.27198,
				"method": "rhf"
			},
			{
				"type": "unocc",
				"energy": -0.0413,
				"method": "rhf"
			},
			{
				"type": "unocc",
				"energy": -0.03514,
				"method": "rhf"
			},
			{
				"type": "unocc",
				"energy": 0.05794,
				"method": "rhf"
			},
			{
				"type": "unocc",
				"energy": 0.07627,
				"method": "rhf"
			},
			{
				"type": "unocc",
				"energy": 0.09085,
				"method": "rhf"
			}
		],
		"cosmo_sigma_profile": { 
			"-0.025": 0.0,
			"-0.024": 0.0,
			"-0.023": 0.0,
			"-0.022": 0.0,
			"-0.021": 0.0,
			"-0.02": 0.0,
			"-0.019": 0.0,
			"-0.018": 0.0,
			"-0.017": 0.0,
			"-0.016": 0.0,
			"-0.015": 0.0,
			"-0.014": 0.0,
			"-0.013": 0.0,
			"-0.012": 0.0,
			"-0.011": 0.0,
			"-0.01": 0.0,
			"-0.009": 2.33694969679,
			"-0.008": 11.9111819577,
			"-0.007": 12.5038312293,
			"-0.006": 14.2492887768,
			"-0.005": 11.5674281751,
			"-0.004": 13.4331274483,
			"-0.003": 8.49516131244,
			"-0.002": 8.61777138154,
			"-0.001": 13.4020095537,
			"0.0": 13.4324809279,
			"0.001": 17.0251156809,
			"0.002": 11.8849471196,
			"0.003": 9.62630445657,
			"0.004": 8.4815727004,
			"0.005": 2.30669890358,
			"0.006": 2.51118913065,
			"0.007": 2.10494322005,
			"0.008": 3.24373131374,
			"0.009": 3.0773284304,
			"0.01": 4.40490517046,
			"0.011": 8.98294612623,
			"0.012": 8.56398106849,
			"0.013": 0.867853933411,
			"0.014": 0.0,
			"0.015": 0.0,
			"0.016": 0.0,
			"0.017": 0.0,
			"0.018": 0.0,
			"0.019": 0.0,
			"0.02": 0.0,
			"0.021": 0.0,
			"0.022": 0.0,
			"0.023": 0.0,
			"0.024": 0.0,
			"0.025": 0.0
		}
	}
}
