{
	 "smiles": "NC1=C(Cl)C=CC(=C1)N1CCCS1(=O)=O", 
	 "Tm": 413.15, 
	 "num_atms": 26, 
	 "gaussian": { 
		 "optdone": 1, 
		 "sigma_profile": "yes", 
		 "theory": "DFT", 
		 "functional": "B3LYP", 
		 "basiset": "6-31G**", 
		 "properties": { 
			 "R2extent": 4954.0518, 
			 "electric_dipole_moment_norm": 4.23265196419, 
			 "electric_quadrupole_moment_norm": 23.4734732586, 
			 "total_energy": -1467.85149034, 
			 "HOMO_LUMO_gap": 0.19557, 
			 "cosmo_polarized_energy": -19.32, 
			 "cosmo_cavitation_energy": 31.59, 
			 "cosmo_dispersion_energy": -23.91, 
			 "cosmo_repulsion_energy": 1.82, 
			 "cosmo_total_nonelectrostatic_energy": 9.5, 
			 "SMD_solvation_energy": 3.29 
		},
		"coords": [
			{
				"x": 0.1814786229,
				"y": -0.1708464073,
				"z": 3.8618047645,
				"element": "N" 
			},
			{
				"x": 0.3861776162,
				"y": 0.2073949119,
				"z": 2.5471039886,
				"element": "C" 
			},
			{
				"x": 1.5167132473,
				"y": 0.9542858178,
				"z": 2.1555805394,
				"element": "C" 
			},
			{
				"x": 2.6648779516,
				"y": 1.4902588409,
				"z": 3.383050272,
				"element": "Cl" 
			},
			{
				"x": 1.7411599642,
				"y": 1.2770370714,
				"z": 0.8241063888,
				"element": "C" 
			},
			{
				"x": 0.8409633219,
				"y": 0.8826167817,
				"z": -0.164338413,
				"element": "C" 
			},
			{
				"x": -0.288474252,
				"y": 0.1352950572,
				"z": 0.2000495541,
				"element": "C" 
			},
			{
				"x": -0.4982507608,
				"y": -0.2080016343,
				"z": 1.5394795712,
				"element": "C" 
			},
			{
				"x": -1.2147211781,
				"y": -0.3186745587,
				"z": -0.7773687057,
				"element": "N" 
			},
			{
				"x": -0.9344954947,
				"y": -0.1989258908,
				"z": -2.2089487451,
				"element": "C" 
			},
			{
				"x": -2.1040952351,
				"y": -0.9099090069,
				"z": -2.9031527761,
				"element": "C" 
			},
			{
				"x": -3.3739760344,
				"y": -0.4086280521,
				"z": -2.2120188054,
				"element": "C" 
			},
			{
				"x": -2.903305566,
				"y": -0.1082134384,
				"z": -0.4706034123,
				"element": "S" 
			},
			{
				"x": -3.3642534501,
				"y": -1.1933960122,
				"z": 0.4025044935,
				"element": "O" 
			},
			{
				"x": -3.2094659464,
				"y": 1.2795374802,
				"z": -0.1036154319,
				"element": "O" 
			},
			{
				"x": 0.6666399462,
				"y": 0.3738118526,
				"z": 4.5602026719,
				"element": "H" 
			},
			{
				"x": -0.7704350192,
				"y": -0.3981543127,
				"z": 4.1090289219,
				"element": "H" 
			},
			{
				"x": 2.6197211467,
				"y": 1.8559750929,
				"z": 0.5607942235,
				"element": "H" 
			},
			{
				"x": 1.0216870967,
				"y": 1.1673910413,
				"z": -1.1933119832,
				"element": "H" 
			},
			{
				"x": -1.3530127032,
				"y": -0.8195033195,
				"z": 1.8080773698,
				"element": "H" 
			},
			{
				"x": -0.8633665342,
				"y": 0.8500322862,
				"z": -2.5379789337,
				"element": "H" 
			},
			{
				"x": 0.0193664424,
				"y": -0.6893108358,
				"z": -2.4208043956,
				"element": "H" 
			},
			{
				"x": -2.1261481037,
				"y": -0.6918558205,
				"z": -3.9741757054,
				"element": "H" 
			},
			{
				"x": -2.0032556137,
				"y": -1.9904684196,
				"z": -2.7712128292,
				"element": "H" 
			},
			{
				"x": -4.2036484012,
				"y": -1.1166912226,
				"z": -2.2054857373,
				"element": "H" 
			},
			{
				"x": -3.7084810634,
				"y": 0.5586426973,
				"z": -2.5933668853,
				"element": "H" 
			}
		],
		 "valence_orbital": [ 
			{
				"type": "occ",
				"energy": -0.30655,
				"method": "rhf"
			},
			{
				"type": "occ",
				"energy": -0.30151,
				"method": "rhf"
			},
			{
				"type": "occ",
				"energy": -0.27606,
				"method": "rhf"
			},
			{
				"type": "occ",
				"energy": -0.2248,
				"method": "rhf"
			},
			{
				"type": "occ",
				"energy": -0.20622,
				"method": "rhf"
			},
			{
				"type": "unocc",
				"energy": -0.01065,
				"method": "rhf"
			},
			{
				"type": "unocc",
				"energy": 0.00664,
				"method": "rhf"
			},
			{
				"type": "unocc",
				"energy": 0.03301,
				"method": "rhf"
			},
			{
				"type": "unocc",
				"energy": 0.04939,
				"method": "rhf"
			},
			{
				"type": "unocc",
				"energy": 0.05516,
				"method": "rhf"
			}
		],
		"cosmo_sigma_profile": { 
			"-0.025": 0.0,
			"-0.024": 0.0,
			"-0.023": 0.0,
			"-0.022": 0.0,
			"-0.021": 0.0,
			"-0.02": 0.0,
			"-0.019": 0.0,
			"-0.018": 0.0,
			"-0.017": 0.0,
			"-0.016": 0.0,
			"-0.015": 0.0,
			"-0.014": 0.163215047883,
			"-0.013": 1.0495707202,
			"-0.012": 2.28350025376,
			"-0.011": 2.1487241408,
			"-0.01": 2.48314432317,
			"-0.009": 3.95435858075,
			"-0.008": 7.50826572921,
			"-0.007": 12.349185637,
			"-0.006": 24.1652175484,
			"-0.005": 22.6274573071,
			"-0.004": 16.4463268785,
			"-0.003": 11.1109216124,
			"-0.002": 9.32037896527,
			"-0.001": 8.76158345901,
			"0.0": 8.97037110838,
			"0.001": 9.61113392556,
			"0.002": 12.3878545181,
			"0.003": 16.803006698,
			"0.004": 21.302872064,
			"0.005": 15.9899355944,
			"0.006": 5.01646464536,
			"0.007": 5.22867155533,
			"0.008": 3.81693361832,
			"0.009": 4.62634642068,
			"0.01": 9.33481783916,
			"0.011": 11.9912192427,
			"0.012": 3.02129424392,
			"0.013": 0.298863519724,
			"0.014": 0.0,
			"0.015": 0.0,
			"0.016": 0.0,
			"0.017": 0.0,
			"0.018": 0.0,
			"0.019": 0.0,
			"0.02": 0.0,
			"0.021": 0.0,
			"0.022": 0.0,
			"0.023": 0.0,
			"0.024": 0.0,
			"0.025": 0.0
		}
	}
}
