{
	 "smiles": "CC1=C(SC(=N1)C1=CC=C(C=C1)C(F)(F)F)C(O)=O", 
	 "Tm": 511.15, 
	 "num_atms": 27, 
	 "gaussian": { 
		 "optdone": 1, 
		 "sigma_profile": "yes", 
		 "theory": "DFT", 
		 "functional": "B3LYP", 
		 "basiset": "6-31G**", 
		 "properties": { 
			 "R2extent": 9589.7931, 
			 "electric_dipole_moment_norm": 2.2349552255, 
			 "electric_quadrupole_moment_norm": 32.2241655499, 
			 "total_energy": -1365.02638584, 
			 "HOMO_LUMO_gap": 0.15479, 
			 "cosmo_polarized_energy": -14.0, 
			 "cosmo_cavitation_energy": 35.2, 
			 "cosmo_dispersion_energy": -25.79, 
			 "cosmo_repulsion_energy": 1.86, 
			 "cosmo_total_nonelectrostatic_energy": 11.27, 
			 "SMD_solvation_energy": 6.84 
		},
		"coords": [
			{
				"x": -4.0065308205,
				"y": -3.7929488084,
				"z": -1.5161908301,
				"element": "C" 
			},
			{
				"x": -2.9081298838,
				"y": -3.0146453985,
				"z": -0.8584587901,
				"element": "C" 
			},
			{
				"x": -2.1105301681,
				"y": -3.4270709002,
				"z": 0.195292296,
				"element": "C" 
			},
			{
				"x": -0.9806516331,
				"y": -2.1536534275,
				"z": 0.6098857758,
				"element": "S" 
			},
			{
				"x": -1.6545856032,
				"y": -1.1723045303,
				"z": -0.686201621,
				"element": "C" 
			},
			{
				"x": -2.6297849468,
				"y": -1.7581242622,
				"z": -1.3315733645,
				"element": "N" 
			},
			{
				"x": -1.172080742,
				"y": 0.1809079295,
				"z": -0.9878366481,
				"element": "C" 
			},
			{
				"x": -0.1126167758,
				"y": 0.7723656519,
				"z": -0.2814615477,
				"element": "C" 
			},
			{
				"x": 0.3170331743,
				"y": 2.0570109462,
				"z": -0.596475459,
				"element": "C" 
			},
			{
				"x": -0.3077530557,
				"y": 2.768556565,
				"z": -1.6239447992,
				"element": "C" 
			},
			{
				"x": -1.3646810551,
				"y": 2.1897171241,
				"z": -2.3337891651,
				"element": "C" 
			},
			{
				"x": -1.7951278053,
				"y": 0.90668433,
				"z": -2.0189838532,
				"element": "C" 
			},
			{
				"x": 0.1934347525,
				"y": 4.1361928978,
				"z": -2.0061785596,
				"element": "C" 
			},
			{
				"x": 1.1310997054,
				"y": 4.0645430624,
				"z": -2.9786251894,
				"element": "F" 
			},
			{
				"x": -0.8010907586,
				"y": 4.920114412,
				"z": -2.475221289,
				"element": "F" 
			},
			{
				"x": 0.7591787291,
				"y": 4.7742574029,
				"z": -0.9587428024,
				"element": "F" 
			},
			{
				"x": -2.1562521484,
				"y": -4.7251581521,
				"z": 0.9072307435,
				"element": "C" 
			},
			{
				"x": -1.0795527777,
				"y": -5.042423411,
				"z": 1.6766613116,
				"element": "O" 
			},
			{
				"x": -3.0896847133,
				"y": -5.49262592,
				"z": 0.842264379,
				"element": "O" 
			},
			{
				"x": -4.0369570433,
				"y": -4.8194748783,
				"z": -1.157013998,
				"element": "H" 
			},
			{
				"x": -4.9715182253,
				"y": -3.3212637352,
				"z": -1.2981565005,
				"element": "H" 
			},
			{
				"x": -3.8734270275,
				"y": -3.7692319115,
				"z": -2.6019912319,
				"element": "H" 
			},
			{
				"x": 0.3816782057,
				"y": 0.2325116073,
				"z": 0.5210475538,
				"element": "H" 
			},
			{
				"x": 1.1306192084,
				"y": 2.5111696284,
				"z": -0.0420359094,
				"element": "H" 
			},
			{
				"x": -1.8532827395,
				"y": 2.7487327795,
				"z": -3.1244152196,
				"element": "H" 
			},
			{
				"x": -2.6154469787,
				"y": 0.4467820451,
				"z": -2.5576302345,
				"element": "H" 
			},
			{
				"x": -0.3400588737,
				"y": -4.4370210471,
				"z": 1.5226449526,
				"element": "H" 
			}
		],
		 "valence_orbital": [ 
			{
				"type": "occ",
				"energy": -0.29892,
				"method": "rhf"
			},
			{
				"type": "occ",
				"energy": -0.29725,
				"method": "rhf"
			},
			{
				"type": "occ",
				"energy": -0.28483,
				"method": "rhf"
			},
			{
				"type": "occ",
				"energy": -0.28357,
				"method": "rhf"
			},
			{
				"type": "occ",
				"energy": -0.2482,
				"method": "rhf"
			},
			{
				"type": "unocc",
				"energy": -0.09341,
				"method": "rhf"
			},
			{
				"type": "unocc",
				"energy": -0.03669,
				"method": "rhf"
			},
			{
				"type": "unocc",
				"energy": -0.0303,
				"method": "rhf"
			},
			{
				"type": "unocc",
				"energy": -0.01942,
				"method": "rhf"
			},
			{
				"type": "unocc",
				"energy": 0.0173,
				"method": "rhf"
			}
		],
		"cosmo_sigma_profile": { 
			"-0.025": 0.0,
			"-0.024": 0.0,
			"-0.023": 0.0,
			"-0.022": 0.0,
			"-0.021": 0.0,
			"-0.02": 0.0,
			"-0.019": 0.0714644889626,
			"-0.018": 0.566902090135,
			"-0.017": 0.917928348886,
			"-0.016": 0.419924844357,
			"-0.015": 1.44392594494,
			"-0.014": 0.591370586879,
			"-0.013": 0.986670741358,
			"-0.012": 1.36042895727,
			"-0.011": 0.957986863051,
			"-0.01": 0.50196115427,
			"-0.009": 0.955502834234,
			"-0.008": 4.88045613915,
			"-0.007": 7.49571498904,
			"-0.006": 11.0082783014,
			"-0.005": 12.2297665512,
			"-0.004": 11.5796407731,
			"-0.003": 16.5323893696,
			"-0.002": 23.7427624784,
			"-0.001": 29.9410197619,
			"0.0": 26.6592843794,
			"0.001": 28.4970505285,
			"0.002": 35.143083799,
			"0.003": 29.6779341202,
			"0.004": 4.95434646932,
			"0.005": 3.45574254308,
			"0.006": 4.18597682549,
			"0.007": 3.91144080565,
			"0.008": 4.09778310947,
			"0.009": 4.35612513834,
			"0.01": 6.14601208741,
			"0.011": 4.74324229974,
			"0.012": 2.82500201852,
			"0.013": 0.614397720872,
			"0.014": 0.0,
			"0.015": 0.0,
			"0.016": 0.0,
			"0.017": 0.0,
			"0.018": 0.0,
			"0.019": 0.0,
			"0.02": 0.0,
			"0.021": 0.0,
			"0.022": 0.0,
			"0.023": 0.0,
			"0.024": 0.0,
			"0.025": 0.0
		}
	}
}
