{
	 "smiles": "COC1=C(OC)C=C(C(O)=O)C(NC(=O)CC2=CC=CS2)=C1", 
	 "Tm": 469.15, 
	 "num_atms": 37, 
	 "gaussian": { 
		 "optdone": 1, 
		 "sigma_profile": "yes", 
		 "theory": "DFT", 
		 "functional": "B3LYP", 
		 "basiset": "6-31G**", 
		 "properties": { 
			 "R2extent": 8352.8004, 
			 "electric_dipole_moment_norm": 3.75858543338, 
			 "electric_quadrupole_moment_norm": 12.926450249, 
			 "total_energy": -1409.67915785, 
			 "HOMO_LUMO_gap": 0.1714, 
			 "cosmo_polarized_energy": -18.78, 
			 "cosmo_cavitation_energy": 42.72, 
			 "cosmo_dispersion_energy": -29.63, 
			 "cosmo_repulsion_energy": 2.22, 
			 "cosmo_total_nonelectrostatic_energy": 15.31, 
			 "SMD_solvation_energy": 10.35 
		},
		"coords": [
			{
				"x": 0.0167201847,
				"y": 1.7928185229,
				"z": -2.1649278533,
				"element": "C" 
			},
			{
				"x": -0.0526510364,
				"y": 0.4059233103,
				"z": -2.4866188853,
				"element": "O" 
			},
			{
				"x": -0.1725541515,
				"y": -0.4934507923,
				"z": -1.4819691889,
				"element": "C" 
			},
			{
				"x": -0.2695799862,
				"y": -1.8514710918,
				"z": -1.8749017405,
				"element": "C" 
			},
			{
				"x": -0.1611190043,
				"y": -2.2246841584,
				"z": -3.1896762611,
				"element": "O" 
			},
			{
				"x": -1.2810644421,
				"y": -1.9068950453,
				"z": -4.0211698934,
				"element": "C" 
			},
			{
				"x": -0.4270090345,
				"y": -2.8157845361,
				"z": -0.8989345672,
				"element": "C" 
			},
			{
				"x": -0.4739865081,
				"y": -2.5059686905,
				"z": 0.473951403,
				"element": "C" 
			},
			{
				"x": -0.6651037936,
				"y": -3.6710260845,
				"z": 1.3704041641,
				"element": "C" 
			},
			{
				"x": -0.9438871094,
				"y": -3.3543259034,
				"z": 2.6690582371,
				"element": "O" 
			},
			{
				"x": -0.6164443013,
				"y": -4.8324454515,
				"z": 1.0154282424,
				"element": "O" 
			},
			{
				"x": -0.3467468252,
				"y": -1.1506126566,
				"z": 0.8659241925,
				"element": "C" 
			},
			{
				"x": -0.3899182284,
				"y": -0.7706756918,
				"z": 2.2191690579,
				"element": "N" 
			},
			{
				"x": 0.3184234745,
				"y": 0.1761608131,
				"z": 2.9359574982,
				"element": "C" 
			},
			{
				"x": 0.0311953043,
				"y": 0.3788599183,
				"z": 4.108050789,
				"element": "O" 
			},
			{
				"x": 1.4973115413,
				"y": 0.9003824091,
				"z": 2.2874547879,
				"element": "C" 
			},
			{
				"x": 1.2187037337,
				"y": 2.3672732609,
				"z": 2.0600692872,
				"element": "C" 
			},
			{
				"x": 0.3152532224,
				"y": 3.1852164793,
				"z": 2.6859594526,
				"element": "C" 
			},
			{
				"x": 0.378254442,
				"y": 4.5434818419,
				"z": 2.2427684792,
				"element": "C" 
			},
			{
				"x": 1.3339221559,
				"y": 4.7511987502,
				"z": 1.289750162,
				"element": "C" 
			},
			{
				"x": 2.1794759342,
				"y": 3.2800008774,
				"z": 0.914837311,
				"element": "S" 
			},
			{
				"x": -0.2245067039,
				"y": -0.1616743521,
				"z": -0.1260647985,
				"element": "C" 
			},
			{
				"x": -0.8963571125,
				"y": 2.1322499748,
				"z": -1.6613001429,
				"element": "H" 
			},
			{
				"x": 0.8822969623,
				"y": 2.0159574476,
				"z": -1.5323061937,
				"element": "H" 
			},
			{
				"x": 0.1188611821,
				"y": 2.3120964701,
				"z": -3.1183605164,
				"element": "H" 
			},
			{
				"x": -1.4372100178,
				"y": -0.8259144669,
				"z": -4.0888830742,
				"element": "H" 
			},
			{
				"x": -1.0456768294,
				"y": -2.3029220103,
				"z": -5.0108992895,
				"element": "H" 
			},
			{
				"x": -2.1944277841,
				"y": -2.3875687256,
				"z": -3.6475772105,
				"element": "H" 
			},
			{
				"x": -0.5062781907,
				"y": -3.8550406381,
				"z": -1.1960804952,
				"element": "H" 
			},
			{
				"x": -1.0509176627,
				"y": -4.2033273982,
				"z": 3.1292640919,
				"element": "H" 
			},
			{
				"x": -0.9358236659,
				"y": -1.3678675349,
				"z": 2.8296776586,
				"element": "H" 
			},
			{
				"x": 2.3189857858,
				"y": 0.791699331,
				"z": 3.006513512,
				"element": "H" 
			},
			{
				"x": 1.8102289413,
				"y": 0.4153462656,
				"z": 1.3598681764,
				"element": "H" 
			},
			{
				"x": -0.3558513682,
				"y": 2.8229433689,
				"z": 3.4551869301,
				"element": "H" 
			},
			{
				"x": -0.2630678897,
				"y": 5.3300820941,
				"z": 2.6242244063,
				"element": "H" 
			},
			{
				"x": 1.5976439771,
				"y": 5.6703706258,
				"z": 0.785402629,
				"element": "H" 
			},
			{
				"x": -0.2039951959,
				"y": 0.876193467,
				"z": 0.1795496423,
				"element": "H" 
			}
		],
		 "valence_orbital": [ 
			{
				"type": "occ",
				"energy": -0.2612,
				"method": "rhf"
			},
			{
				"type": "occ",
				"energy": -0.25633,
				"method": "rhf"
			},
			{
				"type": "occ",
				"energy": -0.2493,
				"method": "rhf"
			},
			{
				"type": "occ",
				"energy": -0.23371,
				"method": "rhf"
			},
			{
				"type": "occ",
				"energy": -0.22185,
				"method": "rhf"
			},
			{
				"type": "unocc",
				"energy": -0.05045,
				"method": "rhf"
			},
			{
				"type": "unocc",
				"energy": -0.02121,
				"method": "rhf"
			},
			{
				"type": "unocc",
				"energy": -0.01626,
				"method": "rhf"
			},
			{
				"type": "unocc",
				"energy": 0.01194,
				"method": "rhf"
			},
			{
				"type": "unocc",
				"energy": 0.03055,
				"method": "rhf"
			}
		],
		"cosmo_sigma_profile": { 
			"-0.025": 0.0,
			"-0.024": 0.0,
			"-0.023": 0.0,
			"-0.022": 0.0,
			"-0.021": 0.0,
			"-0.02": 0.0,
			"-0.019": 0.132113651315,
			"-0.018": 1.06451727525,
			"-0.017": 0.759553268146,
			"-0.016": 0.751289990552,
			"-0.015": 0.809330839421,
			"-0.014": 0.939650509426,
			"-0.013": 0.0631720777668,
			"-0.012": 0.697878204719,
			"-0.011": 1.17367254268,
			"-0.01": 0.451008263286,
			"-0.009": 0.696067146623,
			"-0.008": 3.28565163669,
			"-0.007": 6.97532132726,
			"-0.006": 17.3790330376,
			"-0.005": 24.8142732725,
			"-0.004": 28.3372502478,
			"-0.003": 32.7647569419,
			"-0.002": 29.8881110295,
			"-0.001": 25.7333430764,
			"0.0": 23.2879102533,
			"0.001": 26.5566933813,
			"0.002": 25.3814546023,
			"0.003": 16.1317246758,
			"0.004": 13.5798232185,
			"0.005": 13.5165929539,
			"0.006": 7.98996595691,
			"0.007": 4.48763301632,
			"0.008": 4.84702687175,
			"0.009": 4.52185744879,
			"0.01": 6.18031939954,
			"0.011": 7.36810939972,
			"0.012": 7.12745856283,
			"0.013": 4.4930556181,
			"0.014": 0.852936643233,
			"0.015": 0.0,
			"0.016": 0.0,
			"0.017": 0.0,
			"0.018": 0.0,
			"0.019": 0.0,
			"0.02": 0.0,
			"0.021": 0.0,
			"0.022": 0.0,
			"0.023": 0.0,
			"0.024": 0.0,
			"0.025": 0.0
		}
	}
}
