{
	 "smiles": "C1CNCC(C1)C1=NC2=C(N1)C=CC=C2", 
	 "Tm": 463.15, 
	 "num_atms": 30, 
	 "gaussian": { 
		 "optdone": 1, 
		 "sigma_profile": "yes", 
		 "theory": "DFT", 
		 "functional": "B3LYP", 
		 "basiset": "6-31G**", 
		 "properties": { 
			 "R2extent": 3900.0977, 
			 "electric_dipole_moment_norm": 2.32920361927, 
			 "electric_quadrupole_moment_norm": 8.44781681383, 
			 "total_energy": -630.581624024, 
			 "HOMO_LUMO_gap": 0.20106, 
			 "cosmo_polarized_energy": -13.79, 
			 "cosmo_cavitation_energy": 31.34, 
			 "cosmo_dispersion_energy": -23.45, 
			 "cosmo_repulsion_energy": 1.84, 
			 "cosmo_total_nonelectrostatic_energy": 9.73, 
			 "SMD_solvation_energy": 0.9 
		},
		"coords": [
			{
				"x": -2.2746640662,
				"y": -1.9808245727,
				"z": -0.7265017747,
				"element": "C" 
			},
			{
				"x": -2.9217208514,
				"y": -1.7571399229,
				"z": -2.1138563783,
				"element": "C" 
			},
			{
				"x": -1.9141213992,
				"y": -1.2527138206,
				"z": -3.0591334759,
				"element": "N" 
			},
			{
				"x": -1.0638814936,
				"y": -0.2273948236,
				"z": -2.455067996,
				"element": "C" 
			},
			{
				"x": -0.0892750951,
				"y": -0.9150338312,
				"z": -1.4611102004,
				"element": "C" 
			},
			{
				"x": -0.7636150129,
				"y": -2.1927232176,
				"z": -0.8673767909,
				"element": "C" 
			},
			{
				"x": 0.3452255276,
				"y": 0.0347119319,
				"z": -0.3811307249,
				"element": "C" 
			},
			{
				"x": -0.4159571307,
				"y": 0.9165951111,
				"z": 0.2267854083,
				"element": "N" 
			},
			{
				"x": 0.3969243754,
				"y": 1.511276951,
				"z": 1.1831756683,
				"element": "C" 
			},
			{
				"x": 1.6987710968,
				"y": 0.9555297199,
				"z": 1.1371448755,
				"element": "C" 
			},
			{
				"x": 1.6314231915,
				"y": 0.0117885727,
				"z": 0.126006949,
				"element": "N" 
			},
			{
				"x": 2.7249998962,
				"y": 1.3723939285,
				"z": 1.9861640021,
				"element": "C" 
			},
			{
				"x": 2.412194834,
				"y": 2.3751261276,
				"z": 2.9021123473,
				"element": "C" 
			},
			{
				"x": 1.1224063244,
				"y": 2.9389856977,
				"z": 2.9637888157,
				"element": "C" 
			},
			{
				"x": 0.1055350156,
				"y": 2.5185169767,
				"z": 2.1112777421,
				"element": "C" 
			},
			{
				"x": -2.7422594741,
				"y": -2.8374886014,
				"z": -0.2299196346,
				"element": "H" 
			},
			{
				"x": -2.4452196017,
				"y": -1.1102064273,
				"z": -0.083981138,
				"element": "H" 
			},
			{
				"x": -3.3098043963,
				"y": -2.7040476354,
				"z": -2.5097975013,
				"element": "H" 
			},
			{
				"x": -3.7837685523,
				"y": -1.0757150877,
				"z": -2.0018832724,
				"element": "H" 
			},
			{
				"x": -2.3681101044,
				"y": -0.8892477282,
				"z": -3.8909276095,
				"element": "H" 
			},
			{
				"x": -0.4950859487,
				"y": 0.2739887662,
				"z": -3.2447580677,
				"element": "H" 
			},
			{
				"x": -1.6278542247,
				"y": 0.5505587183,
				"z": -1.9164045966,
				"element": "H" 
			},
			{
				"x": 0.8064242982,
				"y": -1.2358397322,
				"z": -2.0082743128,
				"element": "H" 
			},
			{
				"x": -0.3130404767,
				"y": -2.4407236718,
				"z": 0.0998169037,
				"element": "H" 
			},
			{
				"x": -0.5707233083,
				"y": -3.0326938913,
				"z": -1.5423478217,
				"element": "H" 
			},
			{
				"x": 2.3816820173,
				"y": -0.5776884608,
				"z": -0.1993992499,
				"element": "H" 
			},
			{
				"x": 3.7203397718,
				"y": 0.9400046793,
				"z": 1.9415487719,
				"element": "H" 
			},
			{
				"x": 3.1802967451,
				"y": 2.7291264633,
				"z": 3.5834538544,
				"element": "H" 
			},
			{
				"x": 0.9216068754,
				"y": 3.718134959,
				"z": 3.6932780045,
				"element": "H" 
			},
			{
				"x": -0.8894288332,
				"y": 2.9499428215,
				"z": 2.1542172031,
				"element": "H" 
			}
		],
		 "valence_orbital": [ 
			{
				"type": "occ",
				"energy": -0.29664,
				"method": "rhf"
			},
			{
				"type": "occ",
				"energy": -0.26413,
				"method": "rhf"
			},
			{
				"type": "occ",
				"energy": -0.22219,
				"method": "rhf"
			},
			{
				"type": "occ",
				"energy": -0.2156,
				"method": "rhf"
			},
			{
				"type": "occ",
				"energy": -0.21033,
				"method": "rhf"
			},
			{
				"type": "unocc",
				"energy": -0.00927,
				"method": "rhf"
			},
			{
				"type": "unocc",
				"energy": 0.02718,
				"method": "rhf"
			},
			{
				"type": "unocc",
				"energy": 0.05774,
				"method": "rhf"
			},
			{
				"type": "unocc",
				"energy": 0.07273,
				"method": "rhf"
			},
			{
				"type": "unocc",
				"energy": 0.08688,
				"method": "rhf"
			}
		],
		"cosmo_sigma_profile": { 
			"-0.025": 0.0,
			"-0.024": 0.0,
			"-0.023": 0.0,
			"-0.022": 0.0,
			"-0.021": 0.0,
			"-0.02": 0.0,
			"-0.019": 0.0,
			"-0.018": 0.0,
			"-0.017": 0.0,
			"-0.016": 0.994415234589,
			"-0.015": 1.42382323846,
			"-0.014": 1.36355720584,
			"-0.013": 0.84057334393,
			"-0.012": 1.66309493562,
			"-0.011": 1.4617020643,
			"-0.01": 2.41579608005,
			"-0.009": 2.16837016397,
			"-0.008": 2.74859737187,
			"-0.007": 3.57980454312,
			"-0.006": 5.96070316693,
			"-0.005": 10.3490015236,
			"-0.004": 14.375312118,
			"-0.003": 21.4669109472,
			"-0.002": 24.3775813236,
			"-0.001": 27.3106299106,
			"0.0": 26.4770815142,
			"0.001": 17.0820730645,
			"0.002": 12.1897185683,
			"0.003": 10.0972638083,
			"0.004": 10.9922155788,
			"0.005": 12.555201273,
			"0.006": 11.4934257522,
			"0.007": 6.65264561832,
			"0.008": 2.63663210129,
			"0.009": 2.62495379273,
			"0.01": 1.96162648871,
			"0.011": 1.88169517557,
			"0.012": 1.3565371417,
			"0.013": 1.39248676294,
			"0.014": 1.55481891525,
			"0.015": 0.937109023289,
			"0.016": 1.23050964115,
			"0.017": 0.474309023661,
			"0.018": 0.168399730285,
			"0.019": 0.0,
			"0.02": 0.0,
			"0.021": 0.0,
			"0.022": 0.0,
			"0.023": 0.0,
			"0.024": 0.0,
			"0.025": 0.0
		}
	}
}
