{
	 "smiles": "CCCC1=C(C(O)=O)C(C)=NO1", 
	 "Tm": 381.15, 
	 "num_atms": 23, 
	 "gaussian": { 
		 "optdone": 1, 
		 "sigma_profile": "yes", 
		 "theory": "DFT", 
		 "functional": "B3LYP", 
		 "basiset": "6-31G**", 
		 "properties": { 
			 "R2extent": 3274.172, 
			 "electric_dipole_moment_norm": 2.95111134659, 
			 "electric_quadrupole_moment_norm": 8.00404771912, 
			 "total_energy": -591.891679015, 
			 "HOMO_LUMO_gap": 0.22401, 
			 "cosmo_polarized_energy": -10.6, 
			 "cosmo_cavitation_energy": 26.97, 
			 "cosmo_dispersion_energy": -19.03, 
			 "cosmo_repulsion_energy": 1.55, 
			 "cosmo_total_nonelectrostatic_energy": 9.49, 
			 "SMD_solvation_energy": 5.58 
		},
		"coords": [
			{
				"x": 0.1599521707,
				"y": -2.1101920969,
				"z": 0.46012576,
				"element": "C" 
			},
			{
				"x": -0.6122046107,
				"y": -1.702877336,
				"z": 1.7181784816,
				"element": "C" 
			},
			{
				"x": -0.7665327594,
				"y": -0.1727473788,
				"z": 1.8908539186,
				"element": "C" 
			},
			{
				"x": 0.5331503435,
				"y": 0.5322855201,
				"z": 2.1036796536,
				"element": "C" 
			},
			{
				"x": 1.3361823295,
				"y": 1.3518969638,
				"z": 1.3411751975,
				"element": "C" 
			},
			{
				"x": 1.1647658646,
				"y": 1.8526086805,
				"z": -0.0223022579,
				"element": "C" 
			},
			{
				"x": 0.0286543213,
				"y": 1.4116120044,
				"z": -0.6274765064,
				"element": "O" 
			},
			{
				"x": 1.945407023,
				"y": 2.5925677103,
				"z": -0.5914957873,
				"element": "O" 
			},
			{
				"x": 2.4546492568,
				"y": 1.6490242234,
				"z": 2.1970134027,
				"element": "C" 
			},
			{
				"x": 3.6503304591,
				"y": 2.4997999429,
				"z": 1.9103187422,
				"element": "C" 
			},
			{
				"x": 2.3320536469,
				"y": 1.0589698783,
				"z": 3.359623833,
				"element": "N" 
			},
			{
				"x": 1.1107058252,
				"y": 0.3506265604,
				"z": 3.2989342772,
				"element": "O" 
			},
			{
				"x": -0.3135423269,
				"y": -1.7099971618,
				"z": -0.4425917931,
				"element": "H" 
			},
			{
				"x": 0.2013921858,
				"y": -3.1997655994,
				"z": 0.3660392511,
				"element": "H" 
			},
			{
				"x": 1.1901872883,
				"y": -1.740366425,
				"z": 0.4839871855,
				"element": "H" 
			},
			{
				"x": -1.620170046,
				"y": -2.1330737266,
				"z": 1.6892216726,
				"element": "H" 
			},
			{
				"x": -0.1232523296,
				"y": -2.1132282226,
				"z": 2.6091030895,
				"element": "H" 
			},
			{
				"x": -1.4000725065,
				"y": 0.0265643186,
				"z": 2.763137088,
				"element": "H" 
			},
			{
				"x": -1.2535223612,
				"y": 0.258141052,
				"z": 1.0143864629,
				"element": "H" 
			},
			{
				"x": 0.0334952369,
				"y": 1.8140398506,
				"z": -1.5119628753,
				"element": "H" 
			},
			{
				"x": 4.1952178789,
				"y": 2.1179161989,
				"z": 1.0427824892,
				"element": "H" 
			},
			{
				"x": 4.3094755409,
				"y": 2.5132067578,
				"z": 2.7804466039,
				"element": "H" 
			},
			{
				"x": 3.3455775689,
				"y": 3.5204882853,
				"z": 1.6643221109,
				"element": "H" 
			}
		],
		 "valence_orbital": [ 
			{
				"type": "occ",
				"energy": -0.3274,
				"method": "rhf"
			},
			{
				"type": "occ",
				"energy": -0.30747,
				"method": "rhf"
			},
			{
				"type": "occ",
				"energy": -0.29219,
				"method": "rhf"
			},
			{
				"type": "occ",
				"energy": -0.285,
				"method": "rhf"
			},
			{
				"type": "occ",
				"energy": -0.26449,
				"method": "rhf"
			},
			{
				"type": "unocc",
				"energy": -0.04048,
				"method": "rhf"
			},
			{
				"type": "unocc",
				"energy": 0.00135,
				"method": "rhf"
			},
			{
				"type": "unocc",
				"energy": 0.06816,
				"method": "rhf"
			},
			{
				"type": "unocc",
				"energy": 0.08826,
				"method": "rhf"
			},
			{
				"type": "unocc",
				"energy": 0.09844,
				"method": "rhf"
			}
		],
		"cosmo_sigma_profile": { 
			"-0.025": 0.0,
			"-0.024": 0.0,
			"-0.023": 0.0,
			"-0.022": 0.0,
			"-0.021": 0.0,
			"-0.02": 0.0,
			"-0.019": 0.128690710839,
			"-0.018": 0.770086710511,
			"-0.017": 1.04647206317,
			"-0.016": 0.659532709559,
			"-0.015": 0.693143809395,
			"-0.014": 0.526220150219,
			"-0.013": 0.667456505965,
			"-0.012": 0.818008032746,
			"-0.011": 0.961135848135,
			"-0.01": 0.676080002471,
			"-0.009": 0.23974263852,
			"-0.008": 0.869113376358,
			"-0.007": 0.878721401078,
			"-0.006": 3.40176200759,
			"-0.005": 7.57493066391,
			"-0.004": 12.1873157668,
			"-0.003": 23.4538183982,
			"-0.002": 34.2396874201,
			"-0.001": 30.7204056574,
			"0.0": 19.8833683326,
			"0.001": 13.8910853587,
			"0.002": 7.80902146569,
			"0.003": 7.34689550031,
			"0.004": 5.92334476443,
			"0.005": 4.72820521121,
			"0.006": 4.63560795695,
			"0.007": 5.63424785863,
			"0.008": 4.68424006625,
			"0.009": 2.75907268888,
			"0.01": 3.67774281607,
			"0.011": 4.88294601311,
			"0.012": 3.80424865441,
			"0.013": 1.44066919694,
			"0.014": 0.72240571658,
			"0.015": 0.0223339682568,
			"0.016": 0.0,
			"0.017": 0.0,
			"0.018": 0.0,
			"0.019": 0.0,
			"0.02": 0.0,
			"0.021": 0.0,
			"0.022": 0.0,
			"0.023": 0.0,
			"0.024": 0.0,
			"0.025": 0.0
		}
	}
}
