{
	 "smiles": "COC(=O)C1=C(N)C=C(S1)C1=CC=C(F)C=C1", 
	 "Tm": 427.15, 
	 "num_atms": 27, 
	 "gaussian": { 
		 "optdone": 1, 
		 "sigma_profile": "yes", 
		 "theory": "DFT", 
		 "functional": "B3LYP", 
		 "basiset": "6-31G**", 
		 "properties": { 
			 "R2extent": 6416.4042, 
			 "electric_dipole_moment_norm": 4.21114988691, 
			 "electric_quadrupole_moment_norm": 13.0204750159, 
			 "total_energy": -1166.53495306, 
			 "HOMO_LUMO_gap": 0.14936, 
			 "cosmo_polarized_energy": -14.38, 
			 "cosmo_cavitation_energy": 33.82, 
			 "cosmo_dispersion_energy": -25.08, 
			 "cosmo_repulsion_energy": 1.86, 
			 "cosmo_total_nonelectrostatic_energy": 10.6, 
			 "SMD_solvation_energy": 7.26 
		},
		"coords": [
			{
				"x": -5.3239599607,
				"y": -2.2182321626,
				"z": -0.0495148716,
				"element": "C" 
			},
			{
				"x": -4.0934067125,
				"y": -1.6632416628,
				"z": 0.4399989535,
				"element": "O" 
			},
			{
				"x": -3.1407603975,
				"y": -1.4400286455,
				"z": -0.5224701024,
				"element": "C" 
			},
			{
				"x": -3.3345221589,
				"y": -1.6900982443,
				"z": -1.6997128425,
				"element": "O" 
			},
			{
				"x": -1.9213173834,
				"y": -0.8812295859,
				"z": 0.0268485052,
				"element": "C" 
			},
			{
				"x": -1.5796834305,
				"y": -0.5493141974,
				"z": 1.338876007,
				"element": "C" 
			},
			{
				"x": -2.3604041628,
				"y": -0.7659697552,
				"z": 2.4497442289,
				"element": "N" 
			},
			{
				"x": -0.2711087914,
				"y": 0.0202975468,
				"z": 1.4169113399,
				"element": "C" 
			},
			{
				"x": 0.3702514511,
				"y": 0.1122304659,
				"z": 0.2033178877,
				"element": "C" 
			},
			{
				"x": -0.6179077919,
				"y": -0.5166451563,
				"z": -1.0880526406,
				"element": "S" 
			},
			{
				"x": 1.7166018613,
				"y": 0.639989954,
				"z": -0.0552511423,
				"element": "C" 
			},
			{
				"x": 2.7084736828,
				"y": 0.5792204762,
				"z": 0.9415464712,
				"element": "C" 
			},
			{
				"x": 3.984955976,
				"y": 1.0878397889,
				"z": 0.7197326419,
				"element": "C" 
			},
			{
				"x": 4.2754874783,
				"y": 1.6532066475,
				"z": -0.5175071473,
				"element": "C" 
			},
			{
				"x": 5.5113118228,
				"y": 2.1433205882,
				"z": -0.7396332322,
				"element": "F" 
			},
			{
				"x": 3.326777086,
				"y": 1.7235685696,
				"z": -1.5315553471,
				"element": "C" 
			},
			{
				"x": 2.0512700433,
				"y": 1.2191828528,
				"z": -1.2930467755,
				"element": "C" 
			},
			{
				"x": -5.9594794565,
				"y": -2.3460432185,
				"z": 0.8273152983,
				"element": "H" 
			},
			{
				"x": -5.1459763754,
				"y": -3.1799611812,
				"z": -0.5365020553,
				"element": "H" 
			},
			{
				"x": -5.7943230335,
				"y": -1.5427637233,
				"z": -0.7684487854,
				"element": "H" 
			},
			{
				"x": -2.1836161953,
				"y": -0.1791813511,
				"z": 3.2506829474,
				"element": "H" 
			},
			{
				"x": -3.3297955895,
				"y": -0.9837683149,
				"z": 2.2673434921,
				"element": "H" 
			},
			{
				"x": 0.1619702096,
				"y": 0.370638608,
				"z": 2.3476185095,
				"element": "H" 
			},
			{
				"x": 2.4835529113,
				"y": 0.1068800755,
				"z": 1.8922545036,
				"element": "H" 
			},
			{
				"x": 4.7555091953,
				"y": 1.0396614038,
				"z": 1.4814516193,
				"element": "H" 
			},
			{
				"x": 3.5892424302,
				"y": 2.175218527,
				"z": -2.4819392921,
				"element": "H" 
			},
			{
				"x": 1.2984572917,
				"y": 1.2932216945,
				"z": -2.0718081708,
				"element": "H" 
			}
		],
		 "valence_orbital": [ 
			{
				"type": "occ",
				"energy": -0.26913,
				"method": "rhf"
			},
			{
				"type": "occ",
				"energy": -0.26855,
				"method": "rhf"
			},
			{
				"type": "occ",
				"energy": -0.26735,
				"method": "rhf"
			},
			{
				"type": "occ",
				"energy": -0.23029,
				"method": "rhf"
			},
			{
				"type": "occ",
				"energy": -0.20393,
				"method": "rhf"
			},
			{
				"type": "unocc",
				"energy": -0.05457,
				"method": "rhf"
			},
			{
				"type": "unocc",
				"energy": -0.01997,
				"method": "rhf"
			},
			{
				"type": "unocc",
				"energy": 0.00265,
				"method": "rhf"
			},
			{
				"type": "unocc",
				"energy": 0.03075,
				"method": "rhf"
			},
			{
				"type": "unocc",
				"energy": 0.05058,
				"method": "rhf"
			}
		],
		"cosmo_sigma_profile": { 
			"-0.025": 0.0,
			"-0.024": 0.0,
			"-0.023": 0.0,
			"-0.022": 0.0,
			"-0.021": 0.0,
			"-0.02": 0.0,
			"-0.019": 0.0,
			"-0.018": 0.0,
			"-0.017": 0.0,
			"-0.016": 0.0,
			"-0.015": 0.0,
			"-0.014": 0.629816241614,
			"-0.013": 1.58575902397,
			"-0.012": 1.47086620978,
			"-0.011": 1.3295734563,
			"-0.01": 2.65053659011,
			"-0.009": 2.11674486611,
			"-0.008": 5.09730134844,
			"-0.007": 10.2998704204,
			"-0.006": 13.3601098181,
			"-0.005": 17.0407461594,
			"-0.004": 15.2933722935,
			"-0.003": 18.0209940847,
			"-0.002": 13.7761998631,
			"-0.001": 13.5179054391,
			"0.0": 19.6789936215,
			"0.001": 21.6041243959,
			"0.002": 26.0554763773,
			"0.003": 34.6758467771,
			"0.004": 23.4854160998,
			"0.005": 7.54675423243,
			"0.006": 3.28911406678,
			"0.007": 3.06782537025,
			"0.008": 2.45380827125,
			"0.009": 2.52217820494,
			"0.01": 2.07976075056,
			"0.011": 2.87864325925,
			"0.012": 3.87260417241,
			"0.013": 3.59112116181,
			"0.014": 0.0,
			"0.015": 0.0,
			"0.016": 0.0,
			"0.017": 0.0,
			"0.018": 0.0,
			"0.019": 0.0,
			"0.02": 0.0,
			"0.021": 0.0,
			"0.022": 0.0,
			"0.023": 0.0,
			"0.024": 0.0,
			"0.025": 0.0
		}
	}
}
