{
	 "smiles": "ClC(=O)C1=CC(=CC=C1)C(Cl)=O", 
	 "Tm": 316.95, 
	 "num_atms": 16, 
	 "gaussian": { 
		 "optdone": 1, 
		 "sigma_profile": "yes", 
		 "theory": "DFT", 
		 "functional": "B3LYP", 
		 "basiset": "6-31G**", 
		 "properties": { 
			 "R2extent": 3514.3043, 
			 "electric_dipole_moment_norm": 3.6331818603, 
			 "electric_quadrupole_moment_norm": 12.8734245727, 
			 "total_energy": -1378.10691243, 
			 "HOMO_LUMO_gap": 0.19797, 
			 "cosmo_polarized_energy": -8.04, 
			 "cosmo_cavitation_energy": 25.32, 
			 "cosmo_dispersion_energy": -18.68, 
			 "cosmo_repulsion_energy": 1.49, 
			 "cosmo_total_nonelectrostatic_energy": 8.12, 
			 "SMD_solvation_energy": 5.59 
		},
		"coords": [
			{
				"x": -1.5313166021,
				"y": 1.8835382669,
				"z": -3.0024898152,
				"element": "Cl" 
			},
			{
				"x": -0.5560627524,
				"y": 1.7421832993,
				"z": -1.4675059115,
				"element": "C" 
			},
			{
				"x": -0.4968928844,
				"y": 2.6774027492,
				"z": -0.7284209651,
				"element": "O" 
			},
			{
				"x": 0.1079329494,
				"y": 0.4283252552,
				"z": -1.2561348447,
				"element": "C" 
			},
			{
				"x": 0.8622441375,
				"y": 0.303097409,
				"z": -0.0796014761,
				"element": "C" 
			},
			{
				"x": 1.5198760559,
				"y": -0.8952767064,
				"z": 0.2000722001,
				"element": "C" 
			},
			{
				"x": 1.4232717226,
				"y": -1.9730218421,
				"z": -0.6997138507,
				"element": "C" 
			},
			{
				"x": 0.6746835598,
				"y": -1.8451755965,
				"z": -1.8648434466,
				"element": "C" 
			},
			{
				"x": 0.0156952476,
				"y": -0.6484930783,
				"z": -2.1480163622,
				"element": "C" 
			},
			{
				"x": 2.3419652299,
				"y": -1.1245526135,
				"z": 1.4185247157,
				"element": "C" 
			},
			{
				"x": 2.4496834924,
				"y": 0.2835322232,
				"z": 2.5640730617,
				"element": "Cl" 
			},
			{
				"x": 2.9147845081,
				"y": -2.1389982765,
				"z": 1.6824157378,
				"element": "O" 
			},
			{
				"x": 0.9238163422,
				"y": 1.1440840982,
				"z": 0.5994229276,
				"element": "H" 
			},
			{
				"x": 1.9411459917,
				"y": -2.8966770637,
				"z": -0.4657157903,
				"element": "H" 
			},
			{
				"x": 0.601986677,
				"y": -2.6778511912,
				"z": -2.5567143143,
				"element": "H" 
			},
			{
				"x": -0.5677136754,
				"y": -0.547516933,
				"z": -3.0551518663,
				"element": "H" 
			}
		],
		 "valence_orbital": [ 
			{
				"type": "occ",
				"energy": -0.33292,
				"method": "rhf"
			},
			{
				"type": "occ",
				"energy": -0.31007,
				"method": "rhf"
			},
			{
				"type": "occ",
				"energy": -0.30634,
				"method": "rhf"
			},
			{
				"type": "occ",
				"energy": -0.30276,
				"method": "rhf"
			},
			{
				"type": "occ",
				"energy": -0.30016,
				"method": "rhf"
			},
			{
				"type": "unocc",
				"energy": -0.10219,
				"method": "rhf"
			},
			{
				"type": "unocc",
				"energy": -0.08664,
				"method": "rhf"
			},
			{
				"type": "unocc",
				"energy": -0.01517,
				"method": "rhf"
			},
			{
				"type": "unocc",
				"energy": 0.00465,
				"method": "rhf"
			},
			{
				"type": "unocc",
				"energy": 0.01003,
				"method": "rhf"
			}
		],
		"cosmo_sigma_profile": { 
			"-0.025": 0.0,
			"-0.024": 0.0,
			"-0.023": 0.0,
			"-0.022": 0.0,
			"-0.021": 0.0,
			"-0.02": 0.0,
			"-0.019": 0.0,
			"-0.018": 0.0,
			"-0.017": 0.0,
			"-0.016": 0.0,
			"-0.015": 0.0,
			"-0.014": 0.0,
			"-0.013": 0.0,
			"-0.012": 0.0,
			"-0.011": 0.0,
			"-0.01": 0.0,
			"-0.009": 0.458704911928,
			"-0.008": 5.30187498273,
			"-0.007": 6.98323727167,
			"-0.006": 5.18067569612,
			"-0.005": 11.5657823157,
			"-0.004": 15.2266961719,
			"-0.003": 17.5531513263,
			"-0.002": 18.6234035496,
			"-0.001": 22.8893565961,
			"0.0": 18.0945763403,
			"0.001": 14.7853495372,
			"0.002": 11.742019124,
			"0.003": 14.4521286146,
			"0.004": 16.016277445,
			"0.005": 8.47927877385,
			"0.006": 4.62977021817,
			"0.007": 5.6907933178,
			"0.008": 7.89694299546,
			"0.009": 3.84673505351,
			"0.01": 0.190881688148,
			"0.011": 0.0,
			"0.012": 0.0,
			"0.013": 0.0,
			"0.014": 0.0,
			"0.015": 0.0,
			"0.016": 0.0,
			"0.017": 0.0,
			"0.018": 0.0,
			"0.019": 0.0,
			"0.02": 0.0,
			"0.021": 0.0,
			"0.022": 0.0,
			"0.023": 0.0,
			"0.024": 0.0,
			"0.025": 0.0
		}
	}
}
