{
	 "smiles": "COC(=O)CC1=CC=CC(OCC2=CC=CC=C2)=C1", 
	 "Tm": 308.65, 
	 "num_atms": 35, 
	 "gaussian": { 
		 "optdone": 1, 
		 "sigma_profile": "yes", 
		 "theory": "DFT", 
		 "functional": "B3LYP", 
		 "basiset": "6-31G**", 
		 "properties": { 
			 "R2extent": 5433.3165, 
			 "electric_dipole_moment_norm": 1.69795692819, 
			 "electric_quadrupole_moment_norm": 12.6320442178, 
			 "total_energy": -845.015366971, 
			 "HOMO_LUMO_gap": 0.21692, 
			 "cosmo_polarized_energy": -12.32, 
			 "cosmo_cavitation_energy": 40.0, 
			 "cosmo_dispersion_energy": -25.41, 
			 "cosmo_repulsion_energy": 1.96, 
			 "cosmo_total_nonelectrostatic_energy": 16.56, 
			 "SMD_solvation_energy": 8.17 
		},
		"coords": [
			{
				"x": 1.1888371233,
				"y": -2.1761444377,
				"z": -1.3619975919,
				"element": "C" 
			},
			{
				"x": 0.1901283515,
				"y": -1.238905964,
				"z": -1.7991295675,
				"element": "O" 
			},
			{
				"x": -1.0654400788,
				"y": -1.4790393158,
				"z": -1.3560094341,
				"element": "C" 
			},
			{
				"x": -1.371353353,
				"y": -2.4428702623,
				"z": -0.6903610485,
				"element": "O" 
			},
			{
				"x": -2.0104842323,
				"y": -0.3620657354,
				"z": -1.7743384876,
				"element": "C" 
			},
			{
				"x": -1.9868198547,
				"y": 0.7730978731,
				"z": -0.7621085105,
				"element": "C" 
			},
			{
				"x": -3.053663837,
				"y": 0.9613704286,
				"z": 0.1232426602,
				"element": "C" 
			},
			{
				"x": -3.013035321,
				"y": 1.9923535561,
				"z": 1.0644635266,
				"element": "C" 
			},
			{
				"x": -1.9090189863,
				"y": 2.8396757401,
				"z": 1.1401120268,
				"element": "C" 
			},
			{
				"x": -0.8352221154,
				"y": 2.6444657044,
				"z": 0.2638713812,
				"element": "C" 
			},
			{
				"x": 0.2558872104,
				"y": 3.4906234671,
				"z": 0.2728137333,
				"element": "O" 
			},
			{
				"x": 1.0818677884,
				"y": 3.4441978576,
				"z": 1.4496185181,
				"element": "C" 
			},
			{
				"x": 1.9352690027,
				"y": 2.1963928817,
				"z": 1.5153032664,
				"element": "C" 
			},
			{
				"x": 2.886303694,
				"y": 1.944484332,
				"z": 0.5160743848,
				"element": "C" 
			},
			{
				"x": 3.6733565887,
				"y": 0.7953988473,
				"z": 0.5599658317,
				"element": "C" 
			},
			{
				"x": 3.520013228,
				"y": -0.1196963267,
				"z": 1.6065896906,
				"element": "C" 
			},
			{
				"x": 2.5740327664,
				"y": 0.1203827068,
				"z": 2.6033717739,
				"element": "C" 
			},
			{
				"x": 1.7844489205,
				"y": 1.272165,
				"z": 2.5537416566,
				"element": "C" 
			},
			{
				"x": -0.8742843545,
				"y": 1.6199797899,
				"z": -0.6813451369,
				"element": "C" 
			},
			{
				"x": 2.1026726968,
				"y": -1.89880939,
				"z": -1.8872669518,
				"element": "H" 
			},
			{
				"x": 0.893406688,
				"y": -3.1978037505,
				"z": -1.6110907062,
				"element": "H" 
			},
			{
				"x": 1.3359668984,
				"y": -2.0983107542,
				"z": -0.2816838642,
				"element": "H" 
			},
			{
				"x": -1.7150403207,
				"y": 0.0029820356,
				"z": -2.7625723784,
				"element": "H" 
			},
			{
				"x": -3.0126031012,
				"y": -0.7904385476,
				"z": -1.8392987088,
				"element": "H" 
			},
			{
				"x": -3.9168879153,
				"y": 0.3039574918,
				"z": 0.0741957362,
				"element": "H" 
			},
			{
				"x": -3.8520759282,
				"y": 2.140730482,
				"z": 1.7383326204,
				"element": "H" 
			},
			{
				"x": -1.8826893255,
				"y": 3.6569060934,
				"z": 1.8543842713,
				"element": "H" 
			},
			{
				"x": 0.4683554616,
				"y": 3.5336497258,
				"z": 2.3548154515,
				"element": "H" 
			},
			{
				"x": 1.707471669,
				"y": 4.3390776182,
				"z": 1.3764016093,
				"element": "H" 
			},
			{
				"x": 3.0013967568,
				"y": 2.6535028236,
				"z": -0.299589165,
				"element": "H" 
			},
			{
				"x": 4.4109294163,
				"y": 0.6144436362,
				"z": -0.2170725036,
				"element": "H" 
			},
			{
				"x": 4.1382812604,
				"y": -1.012233824,
				"z": 1.6451559558,
				"element": "H" 
			},
			{
				"x": 2.4468863483,
				"y": -0.5878068667,
				"z": 3.4171641721,
				"element": "H" 
			},
			{
				"x": 1.0431257284,
				"y": 1.4529183266,
				"z": 3.3281304615,
				"element": "H" 
			},
			{
				"x": -0.024818874,
				"y": 1.4855687571,
				"z": -1.3422846732,
				"element": "H" 
			}
		],
		 "valence_orbital": [ 
			{
				"type": "occ",
				"energy": -0.27165,
				"method": "rhf"
			},
			{
				"type": "occ",
				"energy": -0.25388,
				"method": "rhf"
			},
			{
				"type": "occ",
				"energy": -0.25081,
				"method": "rhf"
			},
			{
				"type": "occ",
				"energy": -0.2421,
				"method": "rhf"
			},
			{
				"type": "occ",
				"energy": -0.22929,
				"method": "rhf"
			},
			{
				"type": "unocc",
				"energy": -0.01237,
				"method": "rhf"
			},
			{
				"type": "unocc",
				"energy": -0.00987,
				"method": "rhf"
			},
			{
				"type": "unocc",
				"energy": -0.00534,
				"method": "rhf"
			},
			{
				"type": "unocc",
				"energy": 0.00552,
				"method": "rhf"
			},
			{
				"type": "unocc",
				"energy": 0.0252,
				"method": "rhf"
			}
		],
		"cosmo_sigma_profile": { 
			"-0.025": 0.0,
			"-0.024": 0.0,
			"-0.023": 0.0,
			"-0.022": 0.0,
			"-0.021": 0.0,
			"-0.02": 0.0,
			"-0.019": 0.0,
			"-0.018": 0.0,
			"-0.017": 0.0,
			"-0.016": 0.0,
			"-0.015": 0.0,
			"-0.014": 0.0,
			"-0.013": 0.0,
			"-0.012": 0.0,
			"-0.011": 0.0,
			"-0.01": 0.0,
			"-0.009": 0.0,
			"-0.008": 0.0,
			"-0.007": 1.15504375402,
			"-0.006": 20.0704908215,
			"-0.005": 32.2003247129,
			"-0.004": 34.2191367825,
			"-0.003": 34.3948225334,
			"-0.002": 21.9305712785,
			"-0.001": 19.5248633604,
			"0.0": 18.7156442736,
			"0.001": 19.8725373828,
			"0.002": 20.6037832513,
			"0.003": 22.3591294673,
			"0.004": 22.281188818,
			"0.005": 20.2431230764,
			"0.006": 6.99152989529,
			"0.007": 4.06843666376,
			"0.008": 2.5880929625,
			"0.009": 2.58640579843,
			"0.01": 3.21563997055,
			"0.011": 4.5150187315,
			"0.012": 5.51205105182,
			"0.013": 0.964893539549,
			"0.014": 0.00779299505153,
			"0.015": 0.0,
			"0.016": 0.0,
			"0.017": 0.0,
			"0.018": 0.0,
			"0.019": 0.0,
			"0.02": 0.0,
			"0.021": 0.0,
			"0.022": 0.0,
			"0.023": 0.0,
			"0.024": 0.0,
			"0.025": 0.0
		}
	}
}
