{
	 "smiles": "OC(=O)C1=C(F)C=C(Br)C(=C1)S(Cl)(=O)=O", 
	 "Tm": 421.15, 
	 "num_atms": 18, 
	 "gaussian": { 
		 "optdone": 1, 
		 "sigma_profile": "yes", 
		 "theory": "DFT", 
		 "functional": "B3LYP", 
		 "basiset": "6-31G**", 
		 "properties": { 
			 "R2extent": 5390.4111, 
			 "electric_dipole_moment_norm": 6.01265492857, 
			 "electric_quadrupole_moment_norm": 9.77039693718, 
			 "total_energy": -4098.98943837, 
			 "HOMO_LUMO_gap": 0.18795, 
			 "cosmo_polarized_energy": -16.3, 
			 "cosmo_cavitation_energy": 29.3, 
			 "cosmo_dispersion_energy": -22.28, 
			 "cosmo_repulsion_energy": 1.66, 
			 "cosmo_total_nonelectrostatic_energy": 8.68, 
			 "SMD_solvation_energy": 4.41 
		},
		"coords": [
			{
				"x": 0.86020083,
				"y": -0.3124125917,
				"z": -4.0119899754,
				"element": "O" 
			},
			{
				"x": 0.3148529848,
				"y": -0.987920107,
				"z": -2.9845600884,
				"element": "C" 
			},
			{
				"x": 0.0844462436,
				"y": -2.1702502724,
				"z": -3.0673209895,
				"element": "O" 
			},
			{
				"x": -0.0004000471,
				"y": -0.2201039105,
				"z": -1.7215863531,
				"element": "C" 
			},
			{
				"x": 0.2159139623,
				"y": 1.1409466506,
				"z": -1.49990518,
				"element": "C" 
			},
			{
				"x": 0.7624335326,
				"y": 1.9067934884,
				"z": -2.4787371928,
				"element": "F" 
			},
			{
				"x": -0.0965729674,
				"y": 1.7801981815,
				"z": -0.3091188348,
				"element": "C" 
			},
			{
				"x": -0.6613902379,
				"y": 1.0453770055,
				"z": 0.7314600103,
				"element": "C" 
			},
			{
				"x": -1.0419875906,
				"y": 1.9695646179,
				"z": 2.335430299,
				"element": "Br" 
			},
			{
				"x": -0.8976299515,
				"y": -0.3285635684,
				"z": 0.5405103272,
				"element": "C" 
			},
			{
				"x": -0.5665198121,
				"y": -0.9416946278,
				"z": -0.6650958267,
				"element": "C" 
			},
			{
				"x": -1.67556291,
				"y": -1.4024138195,
				"z": 1.7648315266,
				"element": "S" 
			},
			{
				"x": -0.1411867007,
				"y": -1.5549787679,
				"z": 3.2161980614,
				"element": "Cl" 
			},
			{
				"x": -1.8112317793,
				"y": -2.7254704372,
				"z": 1.1733268426,
				"element": "O" 
			},
			{
				"x": -2.7977745177,
				"y": -0.7208086033,
				"z": 2.3902068166,
				"element": "O" 
			},
			{
				"x": 0.9837266429,
				"y": 0.6238077915,
				"z": -3.7933711148,
				"element": "H" 
			},
			{
				"x": 0.1018422213,
				"y": 2.8391415705,
				"z": -0.2007404897,
				"element": "H" 
			},
			{
				"x": -0.7448599033,
				"y": -2.0012126002,
				"z": -0.8119378386,
				"element": "H" 
			}
		],
		 "valence_orbital": [ 
			{
				"type": "occ",
				"energy": -0.32665,
				"method": "rhf"
			},
			{
				"type": "occ",
				"energy": -0.32003,
				"method": "rhf"
			},
			{
				"type": "occ",
				"energy": -0.3141,
				"method": "rhf"
			},
			{
				"type": "occ",
				"energy": -0.30175,
				"method": "rhf"
			},
			{
				"type": "occ",
				"energy": -0.29427,
				"method": "rhf"
			},
			{
				"type": "unocc",
				"energy": -0.10632,
				"method": "rhf"
			},
			{
				"type": "unocc",
				"energy": -0.09209,
				"method": "rhf"
			},
			{
				"type": "unocc",
				"energy": -0.06942,
				"method": "rhf"
			},
			{
				"type": "unocc",
				"energy": -0.03641,
				"method": "rhf"
			},
			{
				"type": "unocc",
				"energy": 0.0024,
				"method": "rhf"
			}
		],
		"cosmo_sigma_profile": { 
			"-0.025": 0.0,
			"-0.024": 0.0,
			"-0.023": 0.0,
			"-0.022": 0.0,
			"-0.021": 0.0,
			"-0.02": 0.0,
			"-0.019": 0.0,
			"-0.018": 0.0,
			"-0.017": 0.0,
			"-0.016": 0.0,
			"-0.015": 0.136264965309,
			"-0.014": 0.520613029393,
			"-0.013": 0.975350651845,
			"-0.012": 2.06654178342,
			"-0.011": 3.47813902207,
			"-0.01": 2.66982193499,
			"-0.009": 3.10996742603,
			"-0.008": 4.44281946567,
			"-0.007": 6.26974000556,
			"-0.006": 8.66662733118,
			"-0.005": 14.4151401094,
			"-0.004": 20.2190033005,
			"-0.003": 22.8149031815,
			"-0.002": 14.2352149104,
			"-0.001": 11.9014543669,
			"0.0": 14.9634297186,
			"0.001": 18.6947203902,
			"0.002": 21.3030343144,
			"0.003": 14.765298364,
			"0.004": 6.30436850633,
			"0.005": 5.39187814529,
			"0.006": 6.84779871114,
			"0.007": 11.3032376277,
			"0.008": 11.5585521694,
			"0.009": 4.83732695216,
			"0.01": 5.16901710094,
			"0.011": 4.01969062956,
			"0.012": 1.63112340347,
			"0.013": 0.0708312425789,
			"0.014": 0.0,
			"0.015": 0.0,
			"0.016": 0.0,
			"0.017": 0.0,
			"0.018": 0.0,
			"0.019": 0.0,
			"0.02": 0.0,
			"0.021": 0.0,
			"0.022": 0.0,
			"0.023": 0.0,
			"0.024": 0.0,
			"0.025": 0.0
		}
	}
}
