{
	 "smiles": "COC1(OC)C2O[C@@]3(C)C1C(=O)OC3=C2", 
	 "Tm": 473.15, 
	 "num_atms": 27, 
	 "gaussian": { 
		 "optdone": 1, 
		 "sigma_profile": "yes", 
		 "theory": "DFT", 
		 "functional": "B3LYP", 
		 "basiset": "6-31G**", 
		 "properties": { 
			 "R2extent": 3045.2654, 
			 "electric_dipole_moment_norm": 4.16604167046, 
			 "electric_quadrupole_moment_norm": 19.4462582149, 
			 "total_energy": -764.294690619, 
			 "HOMO_LUMO_gap": 0.19924, 
			 "cosmo_polarized_energy": -13.07, 
			 "cosmo_cavitation_energy": 28.83, 
			 "cosmo_dispersion_energy": -20.61, 
			 "cosmo_repulsion_energy": 1.58, 
			 "cosmo_total_nonelectrostatic_energy": 9.81, 
			 "SMD_solvation_energy": 6.85 
		},
		"coords": [
			{
				"x": 2.4946394442,
				"y": -0.0196434378,
				"z": 1.5038394158,
				"element": "C" 
			},
			{
				"x": 1.6821614956,
				"y": 1.1387631212,
				"z": 1.6615515172,
				"element": "O" 
			},
			{
				"x": 0.3717000226,
				"y": 1.1536965161,
				"z": 1.1651759612,
				"element": "C" 
			},
			{
				"x": -0.1350878851,
				"y": 2.4296914656,
				"z": 1.3966921314,
				"element": "O" 
			},
			{
				"x": 0.6255084798,
				"y": 3.5158387928,
				"z": 0.8676827926,
				"element": "C" 
			},
			{
				"x": 0.2446425231,
				"y": 0.6716589845,
				"z": -0.382711828,
				"element": "C" 
			},
			{
				"x": 0.2656638986,
				"y": -0.7456315737,
				"z": -0.2246668229,
				"element": "O" 
			},
			{
				"x": -0.8448025132,
				"y": -0.870732767,
				"z": 0.6528711933,
				"element": "C" 
			},
			{
				"x": -1.2145980448,
				"y": -2.3082170883,
				"z": 0.9220594714,
				"element": "C" 
			},
			{
				"x": -0.5795319753,
				"y": 0.0954691677,
				"z": 1.8655560822,
				"element": "C" 
			},
			{
				"x": -2.0141234491,
				"y": 0.5481185031,
				"z": 2.2040464975,
				"element": "C" 
			},
			{
				"x": -2.4800293277,
				"y": 0.9013153128,
				"z": 3.2441762479,
				"element": "O" 
			},
			{
				"x": -2.8212059565,
				"y": 0.3832921277,
				"z": 1.0466731459,
				"element": "O" 
			},
			{
				"x": -1.8586188543,
				"y": 0.1023282476,
				"z": 0.0780950327,
				"element": "C" 
			},
			{
				"x": -1.2064024434,
				"y": 1.0024332306,
				"z": -0.6730341132,
				"element": "C" 
			},
			{
				"x": 2.03703001,
				"y": -0.910725109,
				"z": 1.9493521194,
				"element": "H" 
			},
			{
				"x": 2.7197197339,
				"y": -0.2368769596,
				"z": 0.4549738939,
				"element": "H" 
			},
			{
				"x": 3.4234822623,
				"y": 0.2031344944,
				"z": 2.0334537769,
				"element": "H" 
			},
			{
				"x": 1.6267130053,
				"y": 3.5495954179,
				"z": 1.3038544198,
				"element": "H" 
			},
			{
				"x": 0.0756495219,
				"y": 4.4201911085,
				"z": 1.1329029414,
				"element": "H" 
			},
			{
				"x": 0.7105153156,
				"y": 3.4597979454,
				"z": -0.2264866764,
				"element": "H" 
			},
			{
				"x": 1.0426488091,
				"y": 1.0008580969,
				"z": -1.0476728283,
				"element": "H" 
			},
			{
				"x": -0.4115542662,
				"y": -2.8170111147,
				"z": 1.4630940993,
				"element": "H" 
			},
			{
				"x": -1.3847802288,
				"y": -2.8303489124,
				"z": -0.0230529996,
				"element": "H" 
			},
			{
				"x": -2.1277873803,
				"y": -2.3630096913,
				"z": 1.520549288,
				"element": "H" 
			},
			{
				"x": -0.0994238275,
				"y": -0.3172375038,
				"z": 2.7544139113,
				"element": "H" 
			},
			{
				"x": -1.57572837,
				"y": 1.9829516248,
				"z": -0.9404886707,
				"element": "H" 
			}
		],
		 "valence_orbital": [ 
			{
				"type": "occ",
				"energy": -0.30441,
				"method": "rhf"
			},
			{
				"type": "occ",
				"energy": -0.28683,
				"method": "rhf"
			},
			{
				"type": "occ",
				"energy": -0.2786,
				"method": "rhf"
			},
			{
				"type": "occ",
				"energy": -0.25949,
				"method": "rhf"
			},
			{
				"type": "occ",
				"energy": -0.23941,
				"method": "rhf"
			},
			{
				"type": "unocc",
				"energy": -0.04017,
				"method": "rhf"
			},
			{
				"type": "unocc",
				"energy": -0.00753,
				"method": "rhf"
			},
			{
				"type": "unocc",
				"energy": 0.07,
				"method": "rhf"
			},
			{
				"type": "unocc",
				"energy": 0.08669,
				"method": "rhf"
			},
			{
				"type": "unocc",
				"energy": 0.09366,
				"method": "rhf"
			}
		],
		"cosmo_sigma_profile": { 
			"-0.025": 0.0,
			"-0.024": 0.0,
			"-0.023": 0.0,
			"-0.022": 0.0,
			"-0.021": 0.0,
			"-0.02": 0.0,
			"-0.019": 0.0,
			"-0.018": 0.0,
			"-0.017": 0.0,
			"-0.016": 0.0,
			"-0.015": 0.0,
			"-0.014": 0.0,
			"-0.013": 0.0,
			"-0.012": 0.0,
			"-0.011": 0.0,
			"-0.01": 0.0,
			"-0.009": 0.0,
			"-0.008": 3.55865826134,
			"-0.007": 9.09834363052,
			"-0.006": 14.4180643212,
			"-0.005": 20.9037714492,
			"-0.004": 20.8763601843,
			"-0.003": 24.8069767156,
			"-0.002": 21.9966390973,
			"-0.001": 14.902395161,
			"0.0": 9.99801745396,
			"0.001": 10.3273921931,
			"0.002": 7.11313064393,
			"0.003": 7.63468772746,
			"0.004": 8.16569570129,
			"0.005": 8.68454411743,
			"0.006": 7.35296245183,
			"0.007": 6.18760807366,
			"0.008": 9.93425582242,
			"0.009": 8.7180329011,
			"0.01": 8.5324629554,
			"0.011": 3.74342135149,
			"0.012": 0.191858508481,
			"0.013": 0.0,
			"0.014": 0.0,
			"0.015": 0.0,
			"0.016": 0.0,
			"0.017": 0.0,
			"0.018": 0.0,
			"0.019": 0.0,
			"0.02": 0.0,
			"0.021": 0.0,
			"0.022": 0.0,
			"0.023": 0.0,
			"0.024": 0.0,
			"0.025": 0.0
		}
	}
}
