{
	 "smiles": "FC(F)(F)COC(=O)NC1CCCCNC1=O", 
	 "Tm": 473.15, 
	 "num_atms": 30, 
	 "gaussian": { 
		 "optdone": 1, 
		 "sigma_profile": "yes", 
		 "theory": "DFT", 
		 "functional": "B3LYP", 
		 "basiset": "6-31G**", 
		 "properties": { 
			 "R2extent": 7464.171, 
			 "electric_dipole_moment_norm": 5.34286278413, 
			 "electric_quadrupole_moment_norm": 18.8554183011, 
			 "total_energy": -985.526947669, 
			 "HOMO_LUMO_gap": 0.25565, 
			 "cosmo_polarized_energy": -19.03, 
			 "cosmo_cavitation_energy": 34.09, 
			 "cosmo_dispersion_energy": -23.36, 
			 "cosmo_repulsion_energy": 1.8, 
			 "cosmo_total_nonelectrostatic_energy": 12.53, 
			 "SMD_solvation_energy": 7.29 
		},
		"coords": [
			{
				"x": -3.7694004932,
				"y": 3.457097115,
				"z": 4.392355327,
				"element": "F" 
			},
			{
				"x": -3.2240532632,
				"y": 3.134604966,
				"z": 3.1993887556,
				"element": "C" 
			},
			{
				"x": -2.1328666946,
				"y": 3.9017448765,
				"z": 3.0217976978,
				"element": "F" 
			},
			{
				"x": -4.1072041889,
				"y": 3.4501078484,
				"z": 2.2334230391,
				"element": "F" 
			},
			{
				"x": -2.8858837851,
				"y": 1.6532786409,
				"z": 3.1856444794,
				"element": "C" 
			},
			{
				"x": -2.3268291432,
				"y": 1.300339506,
				"z": 1.9283298915,
				"element": "O" 
			},
			{
				"x": -3.1661933098,
				"y": 0.6569011617,
				"z": 1.0584105779,
				"element": "C" 
			},
			{
				"x": -4.2995322552,
				"y": 0.3037871785,
				"z": 1.3205481236,
				"element": "O" 
			},
			{
				"x": -2.5426994285,
				"y": 0.4488745338,
				"z": -0.1353057643,
				"element": "N" 
			},
			{
				"x": -1.2065592297,
				"y": 0.9082295721,
				"z": -0.5092466165,
				"element": "C" 
			},
			{
				"x": -1.0416722966,
				"y": 0.8941706098,
				"z": -2.0435936537,
				"element": "C" 
			},
			{
				"x": -1.372082464,
				"y": -0.4250363744,
				"z": -2.7655713967,
				"element": "C" 
			},
			{
				"x": -0.5667613323,
				"y": -1.6605144129,
				"z": -2.33335826,
				"element": "C" 
			},
			{
				"x": -0.7405629159,
				"y": -2.0592420865,
				"z": -0.8583007061,
				"element": "C" 
			},
			{
				"x": -0.0149232853,
				"y": -1.2125656545,
				"z": 0.0858375586,
				"element": "N" 
			},
			{
				"x": -0.060083876,
				"y": 0.1510608291,
				"z": 0.1982925904,
				"element": "C" 
			},
			{
				"x": 0.7891034517,
				"y": 0.7705683447,
				"z": 0.8246563805,
				"element": "O" 
			},
			{
				"x": -2.1329286467,
				"y": 1.4577953324,
				"z": 3.9514125899,
				"element": "H" 
			},
			{
				"x": -3.7945505804,
				"y": 1.0799884851,
				"z": 3.3777188073,
				"element": "H" 
			},
			{
				"x": -3.1345691738,
				"y": 0.0106669422,
				"z": -0.8233184402,
				"element": "H" 
			},
			{
				"x": -1.0760031409,
				"y": 1.9346178722,
				"z": -0.1587910983,
				"element": "H" 
			},
			{
				"x": -1.6779548086,
				"y": 1.6854304605,
				"z": -2.4573953233,
				"element": "H" 
			},
			{
				"x": -0.0063570657,
				"y": 1.183495963,
				"z": -2.2584306844,
				"element": "H" 
			},
			{
				"x": -2.4434748175,
				"y": -0.652475453,
				"z": -2.6647795612,
				"element": "H" 
			},
			{
				"x": -1.2194219052,
				"y": -0.2619991444,
				"z": -3.8388645995,
				"element": "H" 
			},
			{
				"x": 0.5015217176,
				"y": -1.504512834,
				"z": -2.531248965,
				"element": "H" 
			},
			{
				"x": -0.8814457665,
				"y": -2.5083044279,
				"z": -2.9547716676,
				"element": "H" 
			},
			{
				"x": -0.3593837794,
				"y": -3.0735959972,
				"z": -0.7118620184,
				"element": "H" 
			},
			{
				"x": -1.8058313068,
				"y": -2.0886945601,
				"z": -0.5976368446,
				"element": "H" 
			},
			{
				"x": 0.8024037838,
				"y": -1.6052192929,
				"z": 0.5343597811,
				"element": "H" 
			}
		],
		 "valence_orbital": [ 
			{
				"type": "occ",
				"energy": -0.30932,
				"method": "rhf"
			},
			{
				"type": "occ",
				"energy": -0.28411,
				"method": "rhf"
			},
			{
				"type": "occ",
				"energy": -0.27796,
				"method": "rhf"
			},
			{
				"type": "occ",
				"energy": -0.25487,
				"method": "rhf"
			},
			{
				"type": "occ",
				"energy": -0.24066,
				"method": "rhf"
			},
			{
				"type": "unocc",
				"energy": 0.01499,
				"method": "rhf"
			},
			{
				"type": "unocc",
				"energy": 0.0415,
				"method": "rhf"
			},
			{
				"type": "unocc",
				"energy": 0.05302,
				"method": "rhf"
			},
			{
				"type": "unocc",
				"energy": 0.07096,
				"method": "rhf"
			},
			{
				"type": "unocc",
				"energy": 0.09642,
				"method": "rhf"
			}
		],
		"cosmo_sigma_profile": { 
			"-0.025": 0.0,
			"-0.024": 0.0,
			"-0.023": 0.0,
			"-0.022": 0.0,
			"-0.021": 0.0,
			"-0.02": 0.0,
			"-0.019": 0.0,
			"-0.018": 0.0,
			"-0.017": 0.0,
			"-0.016": 0.0,
			"-0.015": 0.0,
			"-0.014": 0.348113269273,
			"-0.013": 2.21797354128,
			"-0.012": 2.31615292002,
			"-0.011": 1.89557108611,
			"-0.01": 3.02699960419,
			"-0.009": 5.10754066389,
			"-0.008": 5.72332464373,
			"-0.007": 6.84706017217,
			"-0.006": 8.4878176754,
			"-0.005": 11.3576349062,
			"-0.004": 20.8148825563,
			"-0.003": 27.544271293,
			"-0.002": 26.1302268317,
			"-0.001": 20.0573902732,
			"0.0": 15.2632420849,
			"0.001": 11.0520816121,
			"0.002": 25.8007970077,
			"0.003": 25.7031980551,
			"0.004": 5.41802544739,
			"0.005": 3.67234753991,
			"0.006": 3.76689690032,
			"0.007": 2.81354535128,
			"0.008": 2.65937705487,
			"0.009": 2.36266999374,
			"0.01": 3.67663678146,
			"0.011": 3.79571540854,
			"0.012": 6.57397813594,
			"0.013": 6.44197120598,
			"0.014": 5.43656106992,
			"0.015": 1.00841631642,
			"0.016": 0.0,
			"0.017": 0.0,
			"0.018": 0.0,
			"0.019": 0.0,
			"0.02": 0.0,
			"0.021": 0.0,
			"0.022": 0.0,
			"0.023": 0.0,
			"0.024": 0.0,
			"0.025": 0.0
		}
	}
}
