{
	 "smiles": "CCC(=O)NC1=CC=C(C=C1)C(=O)CCl", 
	 "Tm": 378.15, 
	 "num_atms": 27, 
	 "gaussian": { 
		 "optdone": 1, 
		 "sigma_profile": "yes", 
		 "theory": "DFT", 
		 "functional": "B3LYP", 
		 "basiset": "6-31G**", 
		 "properties": { 
			 "R2extent": 5990.9364, 
			 "electric_dipole_moment_norm": 5.92963633708, 
			 "electric_quadrupole_moment_norm": 13.6765402346, 
			 "total_energy": -1091.82061351, 
			 "HOMO_LUMO_gap": 0.16671, 
			 "cosmo_polarized_energy": -17.71, 
			 "cosmo_cavitation_energy": 33.07, 
			 "cosmo_dispersion_energy": -24.12, 
			 "cosmo_repulsion_energy": 1.9, 
			 "cosmo_total_nonelectrostatic_energy": 10.85, 
			 "SMD_solvation_energy": 6.41 
		},
		"coords": [
			{
				"x": 3.7247011313,
				"y": 4.3868577977,
				"z": 2.3484636285,
				"element": "C" 
			},
			{
				"x": 2.8351151854,
				"y": 4.0400515952,
				"z": 1.1558667122,
				"element": "C" 
			},
			{
				"x": 2.2197747987,
				"y": 2.6452235503,
				"z": 1.2754692485,
				"element": "C" 
			},
			{
				"x": 2.6346755193,
				"y": 1.8039568281,
				"z": 2.0561288514,
				"element": "O" 
			},
			{
				"x": 1.1680518802,
				"y": 2.4291018296,
				"z": 0.3985160183,
				"element": "N" 
			},
			{
				"x": 0.4114859515,
				"y": 1.2665527985,
				"z": 0.1896320701,
				"element": "C" 
			},
			{
				"x": -0.6028703566,
				"y": 1.3232062239,
				"z": -0.7836278525,
				"element": "C" 
			},
			{
				"x": -1.3922899826,
				"y": 0.2139471935,
				"z": -1.0494064285,
				"element": "C" 
			},
			{
				"x": -1.1932572555,
				"y": -0.9870252748,
				"z": -0.3483399821,
				"element": "C" 
			},
			{
				"x": -0.177738417,
				"y": -1.0321296172,
				"z": 0.622106518,
				"element": "C" 
			},
			{
				"x": 0.6208596511,
				"y": 0.0683770248,
				"z": 0.8986373175,
				"element": "C" 
			},
			{
				"x": -2.015826832,
				"y": -2.2047148315,
				"z": -0.5584800272,
				"element": "C" 
			},
			{
				"x": -1.8562110545,
				"y": -3.2193736386,
				"z": 0.1035208071,
				"element": "O" 
			},
			{
				"x": -3.1390100286,
				"y": -2.1987220644,
				"z": -1.6027898626,
				"element": "C" 
			},
			{
				"x": -2.4960211828,
				"y": -2.1566631349,
				"z": -3.3021685516,
				"element": "Cl" 
			},
			{
				"x": 4.2030746673,
				"y": 5.3589295061,
				"z": 2.1994074008,
				"element": "H" 
			},
			{
				"x": 4.4997198267,
				"y": 3.6291826499,
				"z": 2.4811470927,
				"element": "H" 
			},
			{
				"x": 3.1431670514,
				"y": 4.427241956,
				"z": 3.2736215178,
				"element": "H" 
			},
			{
				"x": 2.0375393256,
				"y": 4.7844541863,
				"z": 1.0327404035,
				"element": "H" 
			},
			{
				"x": 3.4195049296,
				"y": 4.0637212311,
				"z": 0.2252231287,
				"element": "H" 
			},
			{
				"x": 0.9174483392,
				"y": 3.2124444486,
				"z": -0.1888467839,
				"element": "H" 
			},
			{
				"x": -0.7672676787,
				"y": 2.2451725915,
				"z": -1.336601297,
				"element": "H" 
			},
			{
				"x": -2.1535463089,
				"y": 0.2877800159,
				"z": -1.8181757631,
				"element": "H" 
			},
			{
				"x": -0.0298691548,
				"y": -1.9612445835,
				"z": 1.1623286354,
				"element": "H" 
			},
			{
				"x": 1.3984833249,
				"y": 0.0240111084,
				"z": 1.6472048516,
				"element": "H" 
			},
			{
				"x": -3.6989465754,
				"y": -3.1256013045,
				"z": -1.4957608708,
				"element": "H" 
			},
			{
				"x": -3.8023467548,
				"y": -1.3385380862,
				"z": -1.4932167828,
				"element": "H" 
			}
		],
		 "valence_orbital": [ 
			{
				"type": "occ",
				"energy": -0.30354,
				"method": "rhf"
			},
			{
				"type": "occ",
				"energy": -0.26773,
				"method": "rhf"
			},
			{
				"type": "occ",
				"energy": -0.26629,
				"method": "rhf"
			},
			{
				"type": "occ",
				"energy": -0.25569,
				"method": "rhf"
			},
			{
				"type": "occ",
				"energy": -0.23536,
				"method": "rhf"
			},
			{
				"type": "unocc",
				"energy": -0.06865,
				"method": "rhf"
			},
			{
				"type": "unocc",
				"energy": -0.01462,
				"method": "rhf"
			},
			{
				"type": "unocc",
				"energy": -0.00772,
				"method": "rhf"
			},
			{
				"type": "unocc",
				"energy": 0.02339,
				"method": "rhf"
			},
			{
				"type": "unocc",
				"energy": 0.05546,
				"method": "rhf"
			}
		],
		"cosmo_sigma_profile": { 
			"-0.025": 0.0,
			"-0.024": 0.0,
			"-0.023": 0.0,
			"-0.022": 0.0,
			"-0.021": 0.0,
			"-0.02": 0.0,
			"-0.019": 0.0,
			"-0.018": 0.0,
			"-0.017": 0.0,
			"-0.016": 0.316977179792,
			"-0.015": 1.45832130805,
			"-0.014": 1.41416190178,
			"-0.013": 1.27054308887,
			"-0.012": 1.6843223783,
			"-0.011": 1.82131622403,
			"-0.01": 1.49880880046,
			"-0.009": 4.75160691385,
			"-0.008": 6.50601033832,
			"-0.007": 8.36595233525,
			"-0.006": 12.1352946676,
			"-0.005": 12.5560362846,
			"-0.004": 14.1242851733,
			"-0.003": 16.5105747352,
			"-0.002": 17.6838028225,
			"-0.001": 17.8517032476,
			"0.0": 20.1069979977,
			"0.001": 22.1751366596,
			"0.002": 19.3988406,
			"0.003": 22.5692232441,
			"0.004": 15.2331496755,
			"0.005": 11.3081097845,
			"0.006": 6.92119146212,
			"0.007": 2.66617530044,
			"0.008": 3.64853714469,
			"0.009": 3.53993134477,
			"0.01": 4.21475843994,
			"0.011": 6.3367026928,
			"0.012": 4.87211915152,
			"0.013": 1.99569522343,
			"0.014": 0.0468790145275,
			"0.015": 0.0,
			"0.016": 0.0,
			"0.017": 0.0,
			"0.018": 0.0,
			"0.019": 0.0,
			"0.02": 0.0,
			"0.021": 0.0,
			"0.022": 0.0,
			"0.023": 0.0,
			"0.024": 0.0,
			"0.025": 0.0
		}
	}
}
