{
	 "smiles": "OC(=O)C(NC(=O)C1=CC=CC=C1)C1=CC=CC=C1", 
	 "Tm": 472.15, 
	 "num_atms": 32, 
	 "gaussian": { 
		 "optdone": 1, 
		 "sigma_profile": "yes", 
		 "theory": "DFT", 
		 "functional": "B3LYP", 
		 "basiset": "6-31G**", 
		 "properties": { 
			 "R2extent": 5642.3421, 
			 "electric_dipole_moment_norm": 6.50592095402, 
			 "electric_quadrupole_moment_norm": 20.1476150015, 
			 "total_energy": -859.87097787, 
			 "HOMO_LUMO_gap": 0.20333, 
			 "cosmo_polarized_energy": -20.6, 
			 "cosmo_cavitation_energy": 36.58, 
			 "cosmo_dispersion_energy": -24.32, 
			 "cosmo_repulsion_energy": 1.9, 
			 "cosmo_total_nonelectrostatic_energy": 14.17, 
			 "SMD_solvation_energy": 7.43 
		},
		"coords": [
			{
				"x": 4.1835488781,
				"y": -1.7476791846,
				"z": -1.4223389409,
				"element": "O" 
			},
			{
				"x": 3.7807707578,
				"y": -1.9779676969,
				"z": -0.1586303608,
				"element": "C" 
			},
			{
				"x": 4.5314816546,
				"y": -2.4354518741,
				"z": 0.667196384,
				"element": "O" 
			},
			{
				"x": 2.2992237622,
				"y": -1.6359549311,
				"z": 0.131603606,
				"element": "C" 
			},
			{
				"x": 2.0719886914,
				"y": -1.9187297332,
				"z": 1.5352728314,
				"element": "N" 
			},
			{
				"x": 0.9582479759,
				"y": -1.6269585109,
				"z": 2.2949814103,
				"element": "C" 
			},
			{
				"x": 1.0481687083,
				"y": -1.4897135239,
				"z": 3.5091565494,
				"element": "O" 
			},
			{
				"x": -0.371053911,
				"y": -1.531534488,
				"z": 1.6012829746,
				"element": "C" 
			},
			{
				"x": -1.271049404,
				"y": -0.548527696,
				"z": 2.0330974401,
				"element": "C" 
			},
			{
				"x": -2.5385443725,
				"y": -0.4563223506,
				"z": 1.4623561875,
				"element": "C" 
			},
			{
				"x": -2.9310669299,
				"y": -1.366107033,
				"z": 0.4767143199,
				"element": "C" 
			},
			{
				"x": -2.0523795549,
				"y": -2.3706852662,
				"z": 0.0671052322,
				"element": "C" 
			},
			{
				"x": -0.7747984573,
				"y": -2.4505043572,
				"z": 0.6232585523,
				"element": "C" 
			},
			{
				"x": 2.0056341765,
				"y": -0.201691403,
				"z": -0.3089222744,
				"element": "C" 
			},
			{
				"x": 1.3131126021,
				"y": 0.0385346191,
				"z": -1.5022112498,
				"element": "C" 
			},
			{
				"x": 1.1004311486,
				"y": 1.3461333875,
				"z": -1.9484478509,
				"element": "C" 
			},
			{
				"x": 1.5729569616,
				"y": 2.4227597042,
				"z": -1.1992276719,
				"element": "C" 
			},
			{
				"x": 2.2569758066,
				"y": 2.1891412693,
				"z": -0.0021525494,
				"element": "C" 
			},
			{
				"x": 2.4758389193,
				"y": 0.8860828184,
				"z": 0.4400457901,
				"element": "C" 
			},
			{
				"x": 3.5021206444,
				"y": -1.248300378,
				"z": -1.9015832546,
				"element": "H" 
			},
			{
				"x": 1.711745579,
				"y": -2.3079987431,
				"z": -0.5090234495,
				"element": "H" 
			},
			{
				"x": 2.9205796223,
				"y": -2.0638646246,
				"z": 2.0737838672,
				"element": "H" 
			},
			{
				"x": -0.9622506763,
				"y": 0.1315680501,
				"z": 2.8201118347,
				"element": "H" 
			},
			{
				"x": -3.2252930474,
				"y": 0.3176513259,
				"z": 1.7925553856,
				"element": "H" 
			},
			{
				"x": -3.9229891603,
				"y": -1.2998571739,
				"z": 0.0388721949,
				"element": "H" 
			},
			{
				"x": -2.3643308474,
				"y": -3.097551453,
				"z": -0.6774768157,
				"element": "H" 
			},
			{
				"x": -0.1068370147,
				"y": -3.2541506841,
				"z": 0.3272203433,
				"element": "H" 
			},
			{
				"x": 0.9086148421,
				"y": -0.7976180854,
				"z": -2.0689331344,
				"element": "H" 
			},
			{
				"x": 0.5537028507,
				"y": 1.5192858887,
				"z": -2.8706626866,
				"element": "H" 
			},
			{
				"x": 1.4040943159,
				"y": 3.439850624,
				"z": -1.5400119553,
				"element": "H" 
			},
			{
				"x": 2.6230828338,
				"y": 3.025137107,
				"z": 0.5864616204,
				"element": "H" 
			},
			{
				"x": 3.0044726446,
				"y": 0.7075243966,
				"z": 1.3719456702,
				"element": "H" 
			}
		],
		 "valence_orbital": [ 
			{
				"type": "occ",
				"energy": -0.27354,
				"method": "rhf"
			},
			{
				"type": "occ",
				"energy": -0.26327,
				"method": "rhf"
			},
			{
				"type": "occ",
				"energy": -0.2602,
				"method": "rhf"
			},
			{
				"type": "occ",
				"energy": -0.25461,
				"method": "rhf"
			},
			{
				"type": "occ",
				"energy": -0.24263,
				"method": "rhf"
			},
			{
				"type": "unocc",
				"energy": -0.0393,
				"method": "rhf"
			},
			{
				"type": "unocc",
				"energy": -0.03064,
				"method": "rhf"
			},
			{
				"type": "unocc",
				"energy": -0.02736,
				"method": "rhf"
			},
			{
				"type": "unocc",
				"energy": -0.01076,
				"method": "rhf"
			},
			{
				"type": "unocc",
				"energy": 0.0016,
				"method": "rhf"
			}
		],
		"cosmo_sigma_profile": { 
			"-0.025": 0.0,
			"-0.024": 0.0,
			"-0.023": 0.0,
			"-0.022": 0.0,
			"-0.021": 0.0,
			"-0.02": 0.0,
			"-0.019": 0.0,
			"-0.018": 0.0,
			"-0.017": 0.0,
			"-0.016": 0.338612797424,
			"-0.015": 1.50593317232,
			"-0.014": 0.902956812976,
			"-0.013": 1.17665861696,
			"-0.012": 1.66554674745,
			"-0.011": 1.38772866934,
			"-0.01": 1.86694703749,
			"-0.009": 3.45175964474,
			"-0.008": 5.74303581434,
			"-0.007": 8.04117048077,
			"-0.006": 21.5099736643,
			"-0.005": 22.0298992077,
			"-0.004": 25.2238489576,
			"-0.003": 16.8104063966,
			"-0.002": 17.6672131719,
			"-0.001": 14.9363966015,
			"0.0": 15.9021211535,
			"0.001": 17.3449148441,
			"0.002": 17.2373774288,
			"0.003": 19.193543095,
			"0.004": 24.9107481875,
			"0.005": 11.5307566568,
			"0.006": 3.49642771766,
			"0.007": 4.64697689718,
			"0.008": 4.30828190487,
			"0.009": 7.00447778582,
			"0.01": 5.88940349906,
			"0.011": 4.75524156396,
			"0.012": 3.71853169124,
			"0.013": 5.13670800778,
			"0.014": 2.86089191926,
			"0.015": 0.116138420125,
			"0.016": 0.0,
			"0.017": 0.0,
			"0.018": 0.0,
			"0.019": 0.0,
			"0.02": 0.0,
			"0.021": 0.0,
			"0.022": 0.0,
			"0.023": 0.0,
			"0.024": 0.0,
			"0.025": 0.0
		}
	}
}
