{
	 "smiles": "CC1=CC=C(CC(=O)CC2=CC=C(C)C=C2)C=C1", 
	 "Tm": 327.15, 
	 "num_atms": 36, 
	 "gaussian": { 
		 "optdone": 1, 
		 "sigma_profile": "yes", 
		 "theory": "DFT", 
		 "functional": "B3LYP", 
		 "basiset": "6-31G**", 
		 "properties": { 
			 "R2extent": 6672.8819, 
			 "electric_dipole_moment_norm": 2.39108079537, 
			 "electric_quadrupole_moment_norm": 8.00304774383, 
			 "total_energy": -733.901318585, 
			 "HOMO_LUMO_gap": 0.20152, 
			 "cosmo_polarized_energy": -11.02, 
			 "cosmo_cavitation_energy": 39.78, 
			 "cosmo_dispersion_energy": -27.21, 
			 "cosmo_repulsion_energy": 2.13, 
			 "cosmo_total_nonelectrostatic_energy": 14.7, 
			 "SMD_solvation_energy": 6.91 
		},
		"coords": [
			{
				"x": 2.8926583087,
				"y": 2.345255265,
				"z": 4.0214275723,
				"element": "C" 
			},
			{
				"x": 1.6372309951,
				"y": 1.9167164193,
				"z": 3.2987249451,
				"element": "C" 
			},
			{
				"x": 1.1406007753,
				"y": 2.6602987134,
				"z": 2.2172252468,
				"element": "C" 
			},
			{
				"x": -0.0284100254,
				"y": 2.2863296014,
				"z": 1.5603238512,
				"element": "C" 
			},
			{
				"x": -0.7457751114,
				"y": 1.1505762849,
				"z": 1.9651701416,
				"element": "C" 
			},
			{
				"x": -2.0143086174,
				"y": 0.7465891585,
				"z": 1.2322403142,
				"element": "C" 
			},
			{
				"x": -1.7094687609,
				"y": 0.381998907,
				"z": -0.2250122165,
				"element": "C" 
			},
			{
				"x": -1.8870851379,
				"y": 1.1803957739,
				"z": -1.1224045496,
				"element": "O" 
			},
			{
				"x": -1.177401197,
				"y": -1.0368144005,
				"z": -0.4569071074,
				"element": "C" 
			},
			{
				"x": -0.4726470909,
				"y": -1.26148521,
				"z": -1.7717641072,
				"element": "C" 
			},
			{
				"x": 0.8923307938,
				"y": -1.5620052987,
				"z": -1.8060509501,
				"element": "C" 
			},
			{
				"x": 1.5515760097,
				"y": -1.7728068238,
				"z": -3.0184937918,
				"element": "C" 
			},
			{
				"x": 0.8671862068,
				"y": -1.6889235988,
				"z": -4.235525754,
				"element": "C" 
			},
			{
				"x": 1.5687672351,
				"y": -1.9409902438,
				"z": -5.5496830841,
				"element": "C" 
			},
			{
				"x": -0.5008042449,
				"y": -1.3811231216,
				"z": -4.1977978927,
				"element": "C" 
			},
			{
				"x": -1.1607533776,
				"y": -1.1715877587,
				"z": -2.9899021095,
				"element": "C" 
			},
			{
				"x": -0.250813,
				"y": 0.4021132226,
				"z": 3.0377209526,
				"element": "C" 
			},
			{
				"x": 0.9221472735,
				"y": 0.7812798764,
				"z": 3.6942582493,
				"element": "C" 
			},
			{
				"x": 2.6999785803,
				"y": 3.201833866,
				"z": 4.6793104271,
				"element": "H" 
			},
			{
				"x": 3.6750289475,
				"y": 2.6500631037,
				"z": 3.3184846714,
				"element": "H" 
			},
			{
				"x": 3.2924371286,
				"y": 1.5384473106,
				"z": 4.6422907297,
				"element": "H" 
			},
			{
				"x": 1.6798538736,
				"y": 3.5440754817,
				"z": 1.8842171543,
				"element": "H" 
			},
			{
				"x": -0.3893425344,
				"y": 2.8713744638,
				"z": 0.7186315985,
				"element": "H" 
			},
			{
				"x": -2.4792655764,
				"y": -0.1055382355,
				"z": 1.7408074099,
				"element": "H" 
			},
			{
				"x": -2.730324739,
				"y": 1.573830594,
				"z": 1.2135238132,
				"element": "H" 
			},
			{
				"x": -2.0560948286,
				"y": -1.6953814497,
				"z": -0.3675435752,
				"element": "H" 
			},
			{
				"x": -0.5274690394,
				"y": -1.301263333,
				"z": 0.3849417005,
				"element": "H" 
			},
			{
				"x": 1.4500605892,
				"y": -1.6299584501,
				"z": -0.8748340832,
				"element": "H" 
			},
			{
				"x": 2.6139705871,
				"y": -2.0048255073,
				"z": -3.0163368205,
				"element": "H" 
			},
			{
				"x": 2.6555238736,
				"y": -1.8801678419,
				"z": -5.4410272494,
				"element": "H" 
			},
			{
				"x": 1.3335041064,
				"y": -2.9380381507,
				"z": -5.9429647929,
				"element": "H" 
			},
			{
				"x": 1.2647742137,
				"y": -1.2154814623,
				"z": -6.3115417065,
				"element": "H" 
			},
			{
				"x": -1.0560758549,
				"y": -1.3020567261,
				"z": -5.1296830404,
				"element": "H" 
			},
			{
				"x": -2.2178187297,
				"y": -0.9237341882,
				"z": -2.991398606,
				"element": "H" 
			},
			{
				"x": -0.7887902029,
				"y": -0.4826377011,
				"z": 3.3702900352,
				"element": "H" 
			},
			{
				"x": 1.2847185705,
				"y": 0.1839414597,
				"z": 4.5273826239,
				"element": "H" 
			}
		],
		 "valence_orbital": [ 
			{
				"type": "occ",
				"energy": -0.25591,
				"method": "rhf"
			},
			{
				"type": "occ",
				"energy": -0.25038,
				"method": "rhf"
			},
			{
				"type": "occ",
				"energy": -0.24002,
				"method": "rhf"
			},
			{
				"type": "occ",
				"energy": -0.23296,
				"method": "rhf"
			},
			{
				"type": "occ",
				"energy": -0.22253,
				"method": "rhf"
			},
			{
				"type": "unocc",
				"energy": -0.02101,
				"method": "rhf"
			},
			{
				"type": "unocc",
				"energy": -0.0038,
				"method": "rhf"
			},
			{
				"type": "unocc",
				"energy": 0.00614,
				"method": "rhf"
			},
			{
				"type": "unocc",
				"energy": 0.00806,
				"method": "rhf"
			},
			{
				"type": "unocc",
				"energy": 0.01085,
				"method": "rhf"
			}
		],
		"cosmo_sigma_profile": { 
			"-0.025": 0.0,
			"-0.024": 0.0,
			"-0.023": 0.0,
			"-0.022": 0.0,
			"-0.021": 0.0,
			"-0.02": 0.0,
			"-0.019": 0.0,
			"-0.018": 0.0,
			"-0.017": 0.0,
			"-0.016": 0.0,
			"-0.015": 0.0,
			"-0.014": 0.0,
			"-0.013": 0.0,
			"-0.012": 0.0,
			"-0.011": 0.0,
			"-0.01": 0.0,
			"-0.009": 0.0,
			"-0.008": 0.0701966471384,
			"-0.007": 2.4240335427,
			"-0.006": 9.21336501369,
			"-0.005": 22.2552768902,
			"-0.004": 35.7973902571,
			"-0.003": 35.5338095507,
			"-0.002": 31.9340311828,
			"-0.001": 28.5416150375,
			"0.0": 30.4402611964,
			"0.001": 21.5671024881,
			"0.002": 15.8869487525,
			"0.003": 14.4454685971,
			"0.004": 14.8774785534,
			"0.005": 15.356161004,
			"0.006": 15.1447376925,
			"0.007": 5.8183692514,
			"0.008": 1.97115477112,
			"0.009": 2.4702069154,
			"0.01": 2.1271820727,
			"0.011": 3.48605465507,
			"0.012": 4.02936161359,
			"0.013": 1.13142437392,
			"0.014": 0.0,
			"0.015": 0.0,
			"0.016": 0.0,
			"0.017": 0.0,
			"0.018": 0.0,
			"0.019": 0.0,
			"0.02": 0.0,
			"0.021": 0.0,
			"0.022": 0.0,
			"0.023": 0.0,
			"0.024": 0.0,
			"0.025": 0.0
		}
	}
}
