{
	 "smiles": "CN1N=C(C)C(C#N)=C1OC1=C(C)C(C)=CC(C)=C1", 
	 "Tm": 343.15, 
	 "num_atms": 36, 
	 "gaussian": { 
		 "optdone": 1, 
		 "sigma_profile": "yes", 
		 "theory": "DFT", 
		 "functional": "B3LYP", 
		 "basiset": "6-31G**", 
		 "properties": { 
			 "R2extent": 6879.0736, 
			 "electric_dipole_moment_norm": 3.94585588814, 
			 "electric_quadrupole_moment_norm": 16.2073131866, 
			 "total_energy": -821.303408892, 
			 "HOMO_LUMO_gap": 0.21865, 
			 "cosmo_polarized_energy": -13.01, 
			 "cosmo_cavitation_energy": 40.47, 
			 "cosmo_dispersion_energy": -26.52, 
			 "cosmo_repulsion_energy": 2.09, 
			 "cosmo_total_nonelectrostatic_energy": 16.05, 
			 "SMD_solvation_energy": 7.64 
		},
		"coords": [
			{
				"x": -0.442578059,
				"y": -3.0791657488,
				"z": -3.5099884944,
				"element": "C" 
			},
			{
				"x": -1.3596200152,
				"y": -1.9590146124,
				"z": -3.4230702302,
				"element": "N" 
			},
			{
				"x": -2.2413714363,
				"y": -1.7113845649,
				"z": -4.4382983644,
				"element": "N" 
			},
			{
				"x": -2.9594575964,
				"y": -0.6717242022,
				"z": -4.0406103247,
				"element": "C" 
			},
			{
				"x": -4.033842259,
				"y": -0.0921378639,
				"z": -4.9037030391,
				"element": "C" 
			},
			{
				"x": -2.5607676509,
				"y": -0.2318604866,
				"z": -2.7381420814,
				"element": "C" 
			},
			{
				"x": -3.1216694116,
				"y": 0.8262675062,
				"z": -1.9869012404,
				"element": "C" 
			},
			{
				"x": -3.6205214406,
				"y": 1.7023003701,
				"z": -1.4021408551,
				"element": "N" 
			},
			{
				"x": -1.525136258,
				"y": -1.1051572001,
				"z": -2.3888523086,
				"element": "C" 
			},
			{
				"x": -0.7810566136,
				"y": -1.2758070439,
				"z": -1.2804497111,
				"element": "O" 
			},
			{
				"x": -0.4176817096,
				"y": -0.1522155303,
				"z": -0.5113360063,
				"element": "C" 
			},
			{
				"x": -0.6250610917,
				"y": -0.2255394595,
				"z": 0.8678574944,
				"element": "C" 
			},
			{
				"x": -1.2909910901,
				"y": -1.4180368642,
				"z": 1.5084468551,
				"element": "C" 
			},
			{
				"x": -0.1863573936,
				"y": 0.8726460398,
				"z": 1.6398610346,
				"element": "C" 
			},
			{
				"x": -0.3785734235,
				"y": 0.8700850067,
				"z": 3.1375615398,
				"element": "C" 
			},
			{
				"x": 0.4188959421,
				"y": 1.9657080497,
				"z": 1.0148140304,
				"element": "C" 
			},
			{
				"x": 0.6156859869,
				"y": 2.0202506295,
				"z": -0.3704100188,
				"element": "C" 
			},
			{
				"x": 1.2393677576,
				"y": 3.2312168486,
				"z": -1.022083357,
				"element": "C" 
			},
			{
				"x": 0.1970010641,
				"y": 0.9310147886,
				"z": -1.1348564605,
				"element": "C" 
			},
			{
				"x": 0.0118455249,
				"y": -3.0842975418,
				"z": -4.5021894573,
				"element": "H" 
			},
			{
				"x": -0.9703654136,
				"y": -4.0248520376,
				"z": -3.3526609171,
				"element": "H" 
			},
			{
				"x": 0.3265917907,
				"y": -2.9621710164,
				"z": -2.7465258168,
				"element": "H" 
			},
			{
				"x": -4.108660452,
				"y": -0.6657941259,
				"z": -5.8295728577,
				"element": "H" 
			},
			{
				"x": -5.0037533782,
				"y": -0.1129342937,
				"z": -4.3955923745,
				"element": "H" 
			},
			{
				"x": -3.8215228799,
				"y": 0.9531329002,
				"z": -5.1528243553,
				"element": "H" 
			},
			{
				"x": -1.5697097256,
				"y": -2.1651345152,
				"z": 0.7654489439,
				"element": "H" 
			},
			{
				"x": -2.1979855374,
				"y": -1.1195954111,
				"z": 2.0467687005,
				"element": "H" 
			},
			{
				"x": -0.6299670594,
				"y": -1.8980618632,
				"z": 2.2398352708,
				"element": "H" 
			},
			{
				"x": 0.0198739893,
				"y": 1.7833716808,
				"z": 3.5861162796,
				"element": "H" 
			},
			{
				"x": 0.1234010773,
				"y": 0.0169686598,
				"z": 3.6096959956,
				"element": "H" 
			},
			{
				"x": -1.439342122,
				"y": 0.8006479562,
				"z": 3.4065168675,
				"element": "H" 
			},
			{
				"x": 0.745711624,
				"y": 2.8030738798,
				"z": 1.6268887784,
				"element": "H" 
			},
			{
				"x": 1.746158943,
				"y": 2.9691893183,
				"z": -1.9556180234,
				"element": "H" 
			},
			{
				"x": 0.4765297261,
				"y": 3.9815073619,
				"z": -1.2635871197,
				"element": "H" 
			},
			{
				"x": 1.9692928705,
				"y": 3.7089256618,
				"z": -0.3616157679,
				"element": "H" 
			},
			{
				"x": 0.3404357205,
				"y": 0.9210777237,
				"z": -2.2110826092,
				"element": "H" 
			}
		],
		 "valence_orbital": [ 
			{
				"type": "occ",
				"energy": -0.29001,
				"method": "rhf"
			},
			{
				"type": "occ",
				"energy": -0.25247,
				"method": "rhf"
			},
			{
				"type": "occ",
				"energy": -0.24687,
				"method": "rhf"
			},
			{
				"type": "occ",
				"energy": -0.23596,
				"method": "rhf"
			},
			{
				"type": "occ",
				"energy": -0.22653,
				"method": "rhf"
			},
			{
				"type": "unocc",
				"energy": -0.00788,
				"method": "rhf"
			},
			{
				"type": "unocc",
				"energy": -0.00596,
				"method": "rhf"
			},
			{
				"type": "unocc",
				"energy": 0.00737,
				"method": "rhf"
			},
			{
				"type": "unocc",
				"energy": 0.02183,
				"method": "rhf"
			},
			{
				"type": "unocc",
				"energy": 0.04162,
				"method": "rhf"
			}
		],
		"cosmo_sigma_profile": { 
			"-0.025": 0.0,
			"-0.024": 0.0,
			"-0.023": 0.0,
			"-0.022": 0.0,
			"-0.021": 0.0,
			"-0.02": 0.0,
			"-0.019": 0.0,
			"-0.018": 0.0,
			"-0.017": 0.0,
			"-0.016": 0.0,
			"-0.015": 0.0,
			"-0.014": 0.0,
			"-0.013": 0.0,
			"-0.012": 0.0,
			"-0.011": 0.0,
			"-0.01": 0.0,
			"-0.009": 0.0,
			"-0.008": 0.0,
			"-0.007": 2.88408321238,
			"-0.006": 9.25249535779,
			"-0.005": 20.3633659965,
			"-0.004": 37.3252422331,
			"-0.003": 35.553098526,
			"-0.002": 33.4611547096,
			"-0.001": 38.1090186126,
			"0.0": 37.0566797315,
			"0.001": 22.189693779,
			"0.002": 14.1899545702,
			"0.003": 11.9779203152,
			"0.004": 10.5815254823,
			"0.005": 10.2797350018,
			"0.006": 6.86158387053,
			"0.007": 4.35150957999,
			"0.008": 4.6681875093,
			"0.009": 4.21021463309,
			"0.01": 4.76729753642,
			"0.011": 3.79477510642,
			"0.012": 3.9357701593,
			"0.013": 3.24380508939,
			"0.014": 1.7168288533,
			"0.015": 0.440930902197,
			"0.016": 0.0,
			"0.017": 0.0,
			"0.018": 0.0,
			"0.019": 0.0,
			"0.02": 0.0,
			"0.021": 0.0,
			"0.022": 0.0,
			"0.023": 0.0,
			"0.024": 0.0,
			"0.025": 0.0
		}
	}
}
