{
	 "smiles": "COC1=C(OCC(N)=O)C=CC(C=O)=C1", 
	 "Tm": 429.15, 
	 "num_atms": 26, 
	 "gaussian": { 
		 "optdone": 1, 
		 "sigma_profile": "yes", 
		 "theory": "DFT", 
		 "functional": "B3LYP", 
		 "basiset": "6-31G**", 
		 "properties": { 
			 "R2extent": 4534.823, 
			 "electric_dipole_moment_norm": 3.54754592077, 
			 "electric_quadrupole_moment_norm": 24.5858220548, 
			 "total_energy": -743.316639493, 
			 "HOMO_LUMO_gap": 0.1834, 
			 "cosmo_polarized_energy": -17.5, 
			 "cosmo_cavitation_energy": 31.19, 
			 "cosmo_dispersion_energy": -21.81, 
			 "cosmo_repulsion_energy": 1.74, 
			 "cosmo_total_nonelectrostatic_energy": 11.12, 
			 "SMD_solvation_energy": 8.26 
		},
		"coords": [
			{
				"x": 0.8029391989,
				"y": 1.9039746547,
				"z": 0.87425556,
				"element": "C" 
			},
			{
				"x": -0.5335619707,
				"y": 1.8233754549,
				"z": 0.3589575977,
				"element": "O" 
			},
			{
				"x": -0.9873710231,
				"y": 0.5504032226,
				"z": 0.1033008292,
				"element": "C" 
			},
			{
				"x": -0.4854586347,
				"y": -0.2138039181,
				"z": -0.9701358553,
				"element": "C" 
			},
			{
				"x": 0.5228259681,
				"y": 0.2543346933,
				"z": -1.7793147944,
				"element": "O" 
			},
			{
				"x": 0.2245157152,
				"y": 1.4218307088,
				"z": -2.56773061,
				"element": "C" 
			},
			{
				"x": 1.4694681845,
				"y": 1.8968959529,
				"z": -3.3117346039,
				"element": "C" 
			},
			{
				"x": 2.6045116245,
				"y": 1.1922601367,
				"z": -3.0627226566,
				"element": "N" 
			},
			{
				"x": 1.4000091162,
				"y": 2.863079885,
				"z": -4.0557323698,
				"element": "O" 
			},
			{
				"x": -0.977721505,
				"y": -1.5033301733,
				"z": -1.203972847,
				"element": "C" 
			},
			{
				"x": -1.978061838,
				"y": -2.0309069403,
				"z": -0.397745579,
				"element": "C" 
			},
			{
				"x": -2.5055460608,
				"y": -1.2637420105,
				"z": 0.6515450355,
				"element": "C" 
			},
			{
				"x": -3.5815911458,
				"y": -1.8075363203,
				"z": 1.5089428396,
				"element": "C" 
			},
			{
				"x": -4.0696983589,
				"y": -2.9148327789,
				"z": 1.3843908086,
				"element": "O" 
			},
			{
				"x": -2.002531748,
				"y": 0.0203346143,
				"z": 0.8961716412,
				"element": "C" 
			},
			{
				"x": 0.9922636004,
				"y": 2.962291734,
				"z": 1.0609859363,
				"element": "H" 
			},
			{
				"x": 1.5340524411,
				"y": 1.5214593692,
				"z": 0.1549240446,
				"element": "H" 
			},
			{
				"x": 0.8891138122,
				"y": 1.3463574264,
				"z": 1.8145461123,
				"element": "H" 
			},
			{
				"x": -0.134668347,
				"y": 2.2391547696,
				"z": -1.9361942756,
				"element": "H" 
			},
			{
				"x": -0.5487626359,
				"y": 1.1874040094,
				"z": -3.3087570534,
				"element": "H" 
			},
			{
				"x": 2.57080885,
				"y": 0.3479883365,
				"z": -2.5135274734,
				"element": "H" 
			},
			{
				"x": 3.4370170144,
				"y": 1.4334387533,
				"z": -3.5779950564,
				"element": "H" 
			},
			{
				"x": -0.5605011562,
				"y": -2.0666760774,
				"z": -2.0325962513,
				"element": "H" 
			},
			{
				"x": -2.3762698869,
				"y": -3.0257047351,
				"z": -0.5676060581,
				"element": "H" 
			},
			{
				"x": -3.9317878784,
				"y": -1.115076426,
				"z": 2.3067969426,
				"element": "H" 
			},
			{
				"x": -2.3906933361,
				"y": 0.6258256585,
				"z": 1.7110481367,
				"element": "H" 
			}
		],
		 "valence_orbital": [ 
			{
				"type": "occ",
				"energy": -0.27368,
				"method": "rhf"
			},
			{
				"type": "occ",
				"energy": -0.26687,
				"method": "rhf"
			},
			{
				"type": "occ",
				"energy": -0.25811,
				"method": "rhf"
			},
			{
				"type": "occ",
				"energy": -0.25631,
				"method": "rhf"
			},
			{
				"type": "occ",
				"energy": -0.25013,
				"method": "rhf"
			},
			{
				"type": "unocc",
				"energy": -0.06673,
				"method": "rhf"
			},
			{
				"type": "unocc",
				"energy": -0.02077,
				"method": "rhf"
			},
			{
				"type": "unocc",
				"energy": 0.02435,
				"method": "rhf"
			},
			{
				"type": "unocc",
				"energy": 0.03378,
				"method": "rhf"
			},
			{
				"type": "unocc",
				"energy": 0.06247,
				"method": "rhf"
			}
		],
		"cosmo_sigma_profile": { 
			"-0.025": 0.0,
			"-0.024": 0.0,
			"-0.023": 0.0,
			"-0.022": 0.0,
			"-0.021": 0.0,
			"-0.02": 0.0,
			"-0.019": 0.0,
			"-0.018": 0.0,
			"-0.017": 0.0,
			"-0.016": 0.0,
			"-0.015": 0.13634086443,
			"-0.014": 0.954753429063,
			"-0.013": 1.93267830803,
			"-0.012": 1.70216588119,
			"-0.011": 1.53921504562,
			"-0.01": 2.15740696889,
			"-0.009": 1.95103632973,
			"-0.008": 3.9095415761,
			"-0.007": 9.11727119391,
			"-0.006": 12.6489381053,
			"-0.005": 17.1709539726,
			"-0.004": 20.4208645081,
			"-0.003": 23.1855373303,
			"-0.002": 20.5217244239,
			"-0.001": 15.7030490561,
			"0.0": 13.8385860169,
			"0.001": 18.0766204595,
			"0.002": 18.0481082989,
			"0.003": 12.5810298653,
			"0.004": 5.28028651892,
			"0.005": 4.50441174026,
			"0.006": 3.94145482125,
			"0.007": 2.98206265337,
			"0.008": 4.15765558844,
			"0.009": 4.76834011887,
			"0.01": 3.77497169685,
			"0.011": 6.76625831793,
			"0.012": 4.79273061912,
			"0.013": 5.42980476309,
			"0.014": 5.36162890621,
			"0.015": 0.698152372068,
			"0.016": 0.0,
			"0.017": 0.0,
			"0.018": 0.0,
			"0.019": 0.0,
			"0.02": 0.0,
			"0.021": 0.0,
			"0.022": 0.0,
			"0.023": 0.0,
			"0.024": 0.0,
			"0.025": 0.0
		}
	}
}
