{
	 "smiles": "CCOC1=C(C=CC=C1)C(N)(C(O)=O)C(F)(F)F", 
	 "Tm": 393.15, 
	 "num_atms": 30, 
	 "gaussian": { 
		 "optdone": 1, 
		 "sigma_profile": "yes", 
		 "theory": "DFT", 
		 "functional": "B3LYP", 
		 "basiset": "6-31G**", 
		 "properties": { 
			 "R2extent": 4415.6929, 
			 "electric_dipole_moment_norm": 4.74033906066, 
			 "electric_quadrupole_moment_norm": 8.33801229491, 
			 "total_energy": -1006.35058823, 
			 "HOMO_LUMO_gap": 0.21403, 
			 "cosmo_polarized_energy": -14.26, 
			 "cosmo_cavitation_energy": 33.76, 
			 "cosmo_dispersion_energy": -23.09, 
			 "cosmo_repulsion_energy": 1.74, 
			 "cosmo_total_nonelectrostatic_energy": 12.42, 
			 "SMD_solvation_energy": 7.3 
		},
		"coords": [
			{
				"x": -3.6271936989,
				"y": 1.496268526,
				"z": -1.481902871,
				"element": "C" 
			},
			{
				"x": -2.1714304334,
				"y": 1.9479130799,
				"z": -1.4988943875,
				"element": "C" 
			},
			{
				"x": -1.2589323868,
				"y": 0.8592982547,
				"z": -1.306016117,
				"element": "O" 
			},
			{
				"x": -0.912347494,
				"y": 0.4447244225,
				"z": -0.0455587236,
				"element": "C" 
			},
			{
				"x": 0.1098909817,
				"y": -0.5307307865,
				"z": 0.0048741053,
				"element": "C" 
			},
			{
				"x": 0.5056924127,
				"y": -0.9989388957,
				"z": 1.2598590887,
				"element": "C" 
			},
			{
				"x": -0.0757917151,
				"y": -0.5162475182,
				"z": 2.4346286775,
				"element": "C" 
			},
			{
				"x": -1.0753630458,
				"y": 0.44748904,
				"z": 2.3649531456,
				"element": "C" 
			},
			{
				"x": -1.4998918677,
				"y": 0.9293019684,
				"z": 1.1254695337,
				"element": "C" 
			},
			{
				"x": 0.7001911967,
				"y": -1.0246187753,
				"z": -1.3219708944,
				"element": "C" 
			},
			{
				"x": -0.2802956897,
				"y": -1.8101026403,
				"z": -2.0655516553,
				"element": "N" 
			},
			{
				"x": 1.2208055879,
				"y": 0.1714341393,
				"z": -2.1832960952,
				"element": "C" 
			},
			{
				"x": 1.8953851828,
				"y": 1.0885470214,
				"z": -1.4651825279,
				"element": "O" 
			},
			{
				"x": 1.0710897413,
				"y": 0.2432332581,
				"z": -3.3811175583,
				"element": "O" 
			},
			{
				"x": 1.9243105565,
				"y": -1.9576663462,
				"z": -1.1326265603,
				"element": "C" 
			},
			{
				"x": 2.4106586685,
				"y": -2.3125634989,
				"z": -2.3437351402,
				"element": "F" 
			},
			{
				"x": 1.6139043552,
				"y": -3.090000229,
				"z": -0.4805406991,
				"element": "F" 
			},
			{
				"x": 2.9288001151,
				"y": -1.3595769464,
				"z": -0.4593808705,
				"element": "F" 
			},
			{
				"x": -4.2831632616,
				"y": 2.3470823019,
				"z": -1.6943089326,
				"element": "H" 
			},
			{
				"x": -3.7977174647,
				"y": 0.734367987,
				"z": -2.2479655318,
				"element": "H" 
			},
			{
				"x": -3.913361382,
				"y": 1.0766918272,
				"z": -0.513905525,
				"element": "H" 
			},
			{
				"x": -1.9093214993,
				"y": 2.3482797776,
				"z": -2.4820996991,
				"element": "H" 
			},
			{
				"x": -1.9776642262,
				"y": 2.7318697385,
				"z": -0.7574951663,
				"element": "H" 
			},
			{
				"x": 1.2805042369,
				"y": -1.7489378435,
				"z": 1.3370442335,
				"element": "H" 
			},
			{
				"x": 0.2555172985,
				"y": -0.8991141451,
				"z": 3.394475189,
				"element": "H" 
			},
			{
				"x": -1.5376965812,
				"y": 0.8287017189,
				"z": 3.2707985845,
				"element": "H" 
			},
			{
				"x": -2.2863637306,
				"y": 1.6726097603,
				"z": 1.081588828,
				"element": "H" 
			},
			{
				"x": -1.1437387801,
				"y": -1.2765638933,
				"z": -2.1006585412,
				"element": "H" 
			},
			{
				"x": 0.0426523327,
				"y": -1.8803918109,
				"z": -3.0292842981,
				"element": "H" 
			},
			{
				"x": 2.2051705909,
				"y": 1.7570405075,
				"z": -2.0998995913,
				"element": "H" 
			}
		],
		 "valence_orbital": [ 
			{
				"type": "occ",
				"energy": -0.32027,
				"method": "rhf"
			},
			{
				"type": "occ",
				"energy": -0.28824,
				"method": "rhf"
			},
			{
				"type": "occ",
				"energy": -0.25563,
				"method": "rhf"
			},
			{
				"type": "occ",
				"energy": -0.25043,
				"method": "rhf"
			},
			{
				"type": "occ",
				"energy": -0.22833,
				"method": "rhf"
			},
			{
				"type": "unocc",
				"energy": -0.0143,
				"method": "rhf"
			},
			{
				"type": "unocc",
				"energy": 0.00346,
				"method": "rhf"
			},
			{
				"type": "unocc",
				"energy": 0.00448,
				"method": "rhf"
			},
			{
				"type": "unocc",
				"energy": 0.07137,
				"method": "rhf"
			},
			{
				"type": "unocc",
				"energy": 0.07775,
				"method": "rhf"
			}
		],
		"cosmo_sigma_profile": { 
			"-0.025": 0.0,
			"-0.024": 0.0,
			"-0.023": 0.0,
			"-0.022": 0.0,
			"-0.021": 0.0,
			"-0.02": 0.0,
			"-0.019": 0.394817818879,
			"-0.018": 1.13855077861,
			"-0.017": 0.851367956259,
			"-0.016": 0.651236083741,
			"-0.015": 1.1014954894,
			"-0.014": 0.214518453652,
			"-0.013": 1.21311029351,
			"-0.012": 1.1611200842,
			"-0.011": 0.285215097769,
			"-0.01": 0.821665819957,
			"-0.009": 0.978941294476,
			"-0.008": 3.60283862126,
			"-0.007": 4.59474182631,
			"-0.006": 11.294499773,
			"-0.005": 15.90657417,
			"-0.004": 23.4314907642,
			"-0.003": 19.6686028731,
			"-0.002": 16.990009904,
			"-0.001": 18.1376138354,
			"0.0": 19.3153244643,
			"0.001": 16.9670568716,
			"0.002": 30.7646877715,
			"0.003": 18.1221785713,
			"0.004": 14.2618820197,
			"0.005": 14.6916581743,
			"0.006": 6.46880058999,
			"0.007": 4.40811544868,
			"0.008": 4.33884287283,
			"0.009": 3.83084610376,
			"0.01": 3.51070335622,
			"0.011": 4.78417440658,
			"0.012": 1.07573681402,
			"0.013": 0.90915330468,
			"0.014": 0.0712072202023,
			"0.015": 0.961299603525,
			"0.016": 0.447564800898,
			"0.017": 0.00839407297658,
			"0.018": 0.0,
			"0.019": 0.0,
			"0.02": 0.0,
			"0.021": 0.0,
			"0.022": 0.0,
			"0.023": 0.0,
			"0.024": 0.0,
			"0.025": 0.0
		}
	}
}
