{
	 "smiles": "CC(=O)NC(CCC(O)=O)C(O)=O", 
	 "Tm": 472.15, 
	 "num_atms": 24, 
	 "gaussian": { 
		 "optdone": 1, 
		 "sigma_profile": "yes", 
		 "theory": "DFT", 
		 "functional": "B3LYP", 
		 "basiset": "6-31G**", 
		 "properties": { 
			 "R2extent": 3163.5814, 
			 "electric_dipole_moment_norm": 7.55758397638, 
			 "electric_quadrupole_moment_norm": 16.68454165, 
			 "total_energy": -704.284563707, 
			 "HOMO_LUMO_gap": 0.21942, 
			 "cosmo_polarized_energy": -29.22, 
			 "cosmo_cavitation_energy": 27.73, 
			 "cosmo_dispersion_energy": -19.92, 
			 "cosmo_repulsion_energy": 1.59, 
			 "cosmo_total_nonelectrostatic_energy": 9.4, 
			 "SMD_solvation_energy": 6.77 
		},
		"coords": [
			{
				"x": 1.8785391868,
				"y": 2.6681830863,
				"z": -2.1473004529,
				"element": "C" 
			},
			{
				"x": 0.7191640182,
				"y": 2.1174504559,
				"z": -1.3353366011,
				"element": "C" 
			},
			{
				"x": -0.444148945,
				"y": 2.2287064722,
				"z": -1.6912363834,
				"element": "O" 
			},
			{
				"x": 1.0904759569,
				"y": 1.503319655,
				"z": -0.1485905418,
				"element": "N" 
			},
			{
				"x": 0.2267459198,
				"y": 0.5320056978,
				"z": 0.5078858618,
				"element": "C" 
			},
			{
				"x": -1.1417247378,
				"y": 1.129181017,
				"z": 0.9468359502,
				"element": "C" 
			},
			{
				"x": -1.2287753869,
				"y": 1.4233023023,
				"z": 2.4454905979,
				"element": "C" 
			},
			{
				"x": -1.2399425031,
				"y": 0.1669677474,
				"z": 3.3019353985,
				"element": "C" 
			},
			{
				"x": -1.3563631019,
				"y": 0.3460812291,
				"z": 4.6324369644,
				"element": "O" 
			},
			{
				"x": -1.1507671465,
				"y": -0.9648753989,
				"z": 2.8683201542,
				"element": "O" 
			},
			{
				"x": 0.0837931475,
				"y": -0.7540276023,
				"z": -0.3468396263,
				"element": "C" 
			},
			{
				"x": -0.6250072393,
				"y": -1.7375932322,
				"z": 0.2287101609,
				"element": "O" 
			},
			{
				"x": 0.6050435555,
				"y": -0.8854506816,
				"z": -1.4279991981,
				"element": "O" 
			},
			{
				"x": 2.7011221864,
				"y": 3.0258121507,
				"z": -1.5202738618,
				"element": "H" 
			},
			{
				"x": 2.2601071315,
				"y": 1.8704277122,
				"z": -2.7941805452,
				"element": "H" 
			},
			{
				"x": 1.5155401241,
				"y": 3.4800843849,
				"z": -2.7779779012,
				"element": "H" 
			},
			{
				"x": 2.0736047494,
				"y": 1.2722749694,
				"z": -0.0956563896,
				"element": "H" 
			},
			{
				"x": 0.7650210673,
				"y": 0.2108595276,
				"z": 1.408820921,
				"element": "H" 
			},
			{
				"x": -1.3137240308,
				"y": 2.0406864218,
				"z": 0.3782702437,
				"element": "H" 
			},
			{
				"x": -1.9500769693,
				"y": 0.446288753,
				"z": 0.6724315127,
				"element": "H" 
			},
			{
				"x": -0.3900652724,
				"y": 2.0558202609,
				"z": 2.7698173324,
				"element": "H" 
			},
			{
				"x": -2.1422959864,
				"y": 1.9911643395,
				"z": 2.6692829663,
				"element": "H" 
			},
			{
				"x": -1.4277757111,
				"y": 1.288679979,
				"z": 4.842717901,
				"element": "H" 
			},
			{
				"x": -0.885190013,
				"y": -1.4997492471,
				"z": 1.1454355364,
				"element": "H" 
			}
		],
		 "valence_orbital": [ 
			{
				"type": "occ",
				"energy": -0.31229,
				"method": "rhf"
			},
			{
				"type": "occ",
				"energy": -0.30086,
				"method": "rhf"
			},
			{
				"type": "occ",
				"energy": -0.27558,
				"method": "rhf"
			},
			{
				"type": "occ",
				"energy": -0.25608,
				"method": "rhf"
			},
			{
				"type": "occ",
				"energy": -0.24634,
				"method": "rhf"
			},
			{
				"type": "unocc",
				"energy": -0.02692,
				"method": "rhf"
			},
			{
				"type": "unocc",
				"energy": 0.01671,
				"method": "rhf"
			},
			{
				"type": "unocc",
				"energy": 0.02106,
				"method": "rhf"
			},
			{
				"type": "unocc",
				"energy": 0.03051,
				"method": "rhf"
			},
			{
				"type": "unocc",
				"energy": 0.06534,
				"method": "rhf"
			}
		],
		"cosmo_sigma_profile": { 
			"-0.025": 0.0,
			"-0.024": 0.0,
			"-0.023": 0.0,
			"-0.022": 0.0,
			"-0.021": 0.0,
			"-0.02": 0.444225021362,
			"-0.019": 1.0984023133,
			"-0.018": 1.200668515,
			"-0.017": 1.46122827181,
			"-0.016": 1.01604805048,
			"-0.015": 0.960918652698,
			"-0.014": 2.56146124881,
			"-0.013": 2.22912739648,
			"-0.012": 2.72766689333,
			"-0.011": 3.17367835899,
			"-0.01": 3.27587967053,
			"-0.009": 6.76991784871,
			"-0.008": 7.82457629902,
			"-0.007": 6.94102784441,
			"-0.006": 10.2304206911,
			"-0.005": 13.9088146856,
			"-0.004": 14.1888634055,
			"-0.003": 13.0918265299,
			"-0.002": 12.8781709554,
			"-0.001": 11.8836964915,
			"0.0": 7.24683512433,
			"0.001": 5.61198422849,
			"0.002": 5.51597614254,
			"0.003": 6.81320491358,
			"0.004": 5.68283889647,
			"0.005": 5.90544807438,
			"0.006": 6.48940392629,
			"0.007": 6.77155479654,
			"0.008": 6.98160059527,
			"0.009": 8.99109434687,
			"0.01": 9.8770288781,
			"0.011": 8.77345061993,
			"0.012": 7.29423137825,
			"0.013": 5.16742930635,
			"0.014": 2.49487279145,
			"0.015": 0.460714683257,
			"0.016": 0.0,
			"0.017": 0.0,
			"0.018": 0.0,
			"0.019": 0.0,
			"0.02": 0.0,
			"0.021": 0.0,
			"0.022": 0.0,
			"0.023": 0.0,
			"0.024": 0.0,
			"0.025": 0.0
		}
	}
}
