{
	 "smiles": "CC1=CC=C(C=C1)C1=CC=C(O1)C=C1C(=O)OC(C)(C)OC1=O", 
	 "Tm": 439.15, 
	 "num_atms": 39, 
	 "gaussian": { 
		 "optdone": 1, 
		 "sigma_profile": "yes", 
		 "theory": "DFT", 
		 "functional": "B3LYP", 
		 "basiset": "6-31G**", 
		 "properties": { 
			 "R2extent": 10358.6326, 
			 "electric_dipole_moment_norm": 4.90142037577, 
			 "electric_quadrupole_moment_norm": 18.8335188603, 
			 "total_energy": -1071.68969352, 
			 "HOMO_LUMO_gap": 0.12125, 
			 "cosmo_polarized_energy": -17.9, 
			 "cosmo_cavitation_energy": 43.68, 
			 "cosmo_dispersion_energy": -30.88, 
			 "cosmo_repulsion_energy": 2.32, 
			 "cosmo_total_nonelectrostatic_energy": 15.12, 
			 "SMD_solvation_energy": 9.62 
		},
		"coords": [
			{
				"x": 3.1630505531,
				"y": 2.4621296033,
				"z": 4.8959692595,
				"element": "C" 
			},
			{
				"x": 2.4224801116,
				"y": 1.4128212583,
				"z": 4.1035991337,
				"element": "C" 
			},
			{
				"x": 2.1189411633,
				"y": 1.6111104444,
				"z": 2.7485227888,
				"element": "C" 
			},
			{
				"x": 1.4650402783,
				"y": 0.637933185,
				"z": 2.0008060438,
				"element": "C" 
			},
			{
				"x": 1.087891196,
				"y": -0.5778927795,
				"z": 2.602123201,
				"element": "C" 
			},
			{
				"x": 1.3840443984,
				"y": -0.7829215743,
				"z": 3.9613296306,
				"element": "C" 
			},
			{
				"x": 2.03991043,
				"y": 0.1989644328,
				"z": 4.6945405868,
				"element": "C" 
			},
			{
				"x": 0.4043450681,
				"y": -1.5981763789,
				"z": 1.8261197731,
				"element": "C" 
			},
			{
				"x": 0.0272218563,
				"y": -2.9080971364,
				"z": 2.0876748293,
				"element": "C" 
			},
			{
				"x": -0.5907141209,
				"y": -3.3826863896,
				"z": 0.9172817439,
				"element": "C" 
			},
			{
				"x": -0.5616696637,
				"y": -2.3484556595,
				"z": -0.0128159701,
				"element": "C" 
			},
			{
				"x": 0.0452309429,
				"y": -1.265819802,
				"z": 0.5650174071,
				"element": "O" 
			},
			{
				"x": -1.0798508345,
				"y": -2.3456521037,
				"z": -1.3285522096,
				"element": "C" 
			},
			{
				"x": -1.1374341136,
				"y": -1.4221606118,
				"z": -2.3425841777,
				"element": "C" 
			},
			{
				"x": -1.8586596064,
				"y": -1.8759725745,
				"z": -3.5623354607,
				"element": "C" 
			},
			{
				"x": -2.1991267823,
				"y": -3.0186639089,
				"z": -3.7802087209,
				"element": "O" 
			},
			{
				"x": -2.1126313129,
				"y": -0.9193944604,
				"z": -4.5019302816,
				"element": "O" 
			},
			{
				"x": -2.0462684495,
				"y": 0.4623937357,
				"z": -4.1232704008,
				"element": "C" 
			},
			{
				"x": -1.9211004183,
				"y": 1.2457948745,
				"z": -5.4188915143,
				"element": "C" 
			},
			{
				"x": -3.2811115375,
				"y": 0.8430121763,
				"z": -3.3056339081,
				"element": "C" 
			},
			{
				"x": -0.8547227595,
				"y": 0.7351448381,
				"z": -3.3784948922,
				"element": "O" 
			},
			{
				"x": -0.4744262123,
				"y": -0.100681104,
				"z": -2.3586897092,
				"element": "C" 
			},
			{
				"x": 0.4026415716,
				"y": 0.2722945185,
				"z": -1.6137146917,
				"element": "O" 
			},
			{
				"x": 2.8990558578,
				"y": 2.4245427084,
				"z": 5.9570816989,
				"element": "H" 
			},
			{
				"x": 2.9477841474,
				"y": 3.4689012774,
				"z": 4.5260123116,
				"element": "H" 
			},
			{
				"x": 4.2483884094,
				"y": 2.3153921039,
				"z": 4.8253415453,
				"element": "H" 
			},
			{
				"x": 2.4025658499,
				"y": 2.5448975172,
				"z": 2.2698503522,
				"element": "H" 
			},
			{
				"x": 1.2448997191,
				"y": 0.8036355621,
				"z": 0.9509747033,
				"element": "H" 
			},
			{
				"x": 1.090616519,
				"y": -1.7082073747,
				"z": 4.4483244104,
				"element": "H" 
			},
			{
				"x": 2.2561419828,
				"y": 0.024778185,
				"z": 5.7454790463,
				"element": "H" 
			},
			{
				"x": 0.1914563085,
				"y": -3.4515235785,
				"z": 3.0061026617,
				"element": "H" 
			},
			{
				"x": -1.0118377082,
				"y": -4.3640250912,
				"z": 0.7478483148,
				"element": "H" 
			},
			{
				"x": -1.5642288467,
				"y": -3.2870354326,
				"z": -1.582221834,
				"element": "H" 
			},
			{
				"x": -2.7949933905,
				"y": 1.0662173727,
				"z": -6.0492408359,
				"element": "H" 
			},
			{
				"x": -1.8450766399,
				"y": 2.3136896704,
				"z": -5.2020158869,
				"element": "H" 
			},
			{
				"x": -1.0239136395,
				"y": 0.9253016083,
				"z": -5.9523145199,
				"element": "H" 
			},
			{
				"x": -3.2394075577,
				"y": 1.9034147534,
				"z": -3.0449327447,
				"element": "H" 
			},
			{
				"x": -3.3343049113,
				"y": 0.2605507053,
				"z": -2.3819636884,
				"element": "H" 
			},
			{
				"x": -4.1855278579,
				"y": 0.6530454293,
				"z": -3.8887879956,
				"element": "H" 
			}
		],
		 "valence_orbital": [ 
			{
				"type": "occ",
				"energy": -0.2796,
				"method": "rhf"
			},
			{
				"type": "occ",
				"energy": -0.26667,
				"method": "rhf"
			},
			{
				"type": "occ",
				"energy": -0.26029,
				"method": "rhf"
			},
			{
				"type": "occ",
				"energy": -0.26021,
				"method": "rhf"
			},
			{
				"type": "occ",
				"energy": -0.21314,
				"method": "rhf"
			},
			{
				"type": "unocc",
				"energy": -0.09189,
				"method": "rhf"
			},
			{
				"type": "unocc",
				"energy": -0.02769,
				"method": "rhf"
			},
			{
				"type": "unocc",
				"energy": -0.0099,
				"method": "rhf"
			},
			{
				"type": "unocc",
				"energy": 0.01011,
				"method": "rhf"
			},
			{
				"type": "unocc",
				"energy": 0.04479,
				"method": "rhf"
			}
		],
		"cosmo_sigma_profile": { 
			"-0.025": 0.0,
			"-0.024": 0.0,
			"-0.023": 0.0,
			"-0.022": 0.0,
			"-0.021": 0.0,
			"-0.02": 0.0,
			"-0.019": 0.0,
			"-0.018": 0.0,
			"-0.017": 0.0,
			"-0.016": 0.0,
			"-0.015": 0.0,
			"-0.014": 0.0,
			"-0.013": 0.0,
			"-0.012": 0.0,
			"-0.011": 0.0,
			"-0.01": 0.167533659702,
			"-0.009": 4.7451707733,
			"-0.008": 5.76978138759,
			"-0.007": 5.59212323165,
			"-0.006": 13.1295084064,
			"-0.005": 28.4795859933,
			"-0.004": 30.6871142663,
			"-0.003": 28.0150885866,
			"-0.002": 32.4152119526,
			"-0.001": 35.6999041883,
			"0.0": 33.1758505487,
			"0.001": 25.0728508445,
			"0.002": 19.7223288336,
			"0.003": 15.2743240184,
			"0.004": 15.4890810814,
			"0.005": 8.57978806054,
			"0.006": 6.47973700153,
			"0.007": 4.81251744139,
			"0.008": 5.34560489376,
			"0.009": 6.12032772937,
			"0.01": 6.73797945412,
			"0.011": 8.24464643021,
			"0.012": 6.09753147405,
			"0.013": 2.84501420191,
			"0.014": 0.0655186526428,
			"0.015": 0.0,
			"0.016": 0.0,
			"0.017": 0.0,
			"0.018": 0.0,
			"0.019": 0.0,
			"0.02": 0.0,
			"0.021": 0.0,
			"0.022": 0.0,
			"0.023": 0.0,
			"0.024": 0.0,
			"0.025": 0.0
		}
	}
}
