{
	 "smiles": "C(NC1=CC=CC=C1)C1=C2C=CC=CC2=CC=C1", 
	 "Tm": 328.15, 
	 "num_atms": 33, 
	 "gaussian": { 
		 "optdone": 1, 
		 "sigma_profile": "yes", 
		 "theory": "DFT", 
		 "functional": "B3LYP", 
		 "basiset": "6-31G**", 
		 "properties": { 
			 "R2extent": 6002.3101, 
			 "electric_dipole_moment_norm": 1.51756968209, 
			 "electric_quadrupole_moment_norm": 5.54791854843, 
			 "total_energy": -711.612332269, 
			 "HOMO_LUMO_gap": 0.15686, 
			 "cosmo_polarized_energy": -9.56, 
			 "cosmo_cavitation_energy": 35.73, 
			 "cosmo_dispersion_energy": -25.89, 
			 "cosmo_repulsion_energy": 1.97, 
			 "cosmo_total_nonelectrostatic_energy": 11.81, 
			 "SMD_solvation_energy": 5.12 
		},
		"coords": [
			{
				"x": 0.9656995089,
				"y": 0.0776415944,
				"z": 1.4796236697,
				"element": "C" 
			},
			{
				"x": -0.1534380755,
				"y": 0.7798985562,
				"z": 2.0862244962,
				"element": "N" 
			},
			{
				"x": -1.0442431089,
				"y": 1.5500720569,
				"z": 1.3379680425,
				"element": "C" 
			},
			{
				"x": -1.2327572992,
				"y": 1.3422441317,
				"z": -0.040710873,
				"element": "C" 
			},
			{
				"x": -2.1494183103,
				"y": 2.1207541713,
				"z": -0.7482803359,
				"element": "C" 
			},
			{
				"x": -2.8989427435,
				"y": 3.1098821103,
				"z": -0.1115334142,
				"element": "C" 
			},
			{
				"x": -2.7198601021,
				"y": 3.3125493216,
				"z": 1.2599527442,
				"element": "C" 
			},
			{
				"x": -1.8062075041,
				"y": 2.5475417191,
				"z": 1.9774803645,
				"element": "C" 
			},
			{
				"x": 0.680316776,
				"y": -1.365656338,
				"z": 1.0771988471,
				"element": "C" 
			},
			{
				"x": 1.691992086,
				"y": -2.1270082123,
				"z": 0.4033206144,
				"element": "C" 
			},
			{
				"x": 2.9729212561,
				"y": -1.5976892534,
				"z": 0.0793892372,
				"element": "C" 
			},
			{
				"x": 3.9210126496,
				"y": -2.3628549998,
				"z": -0.5654806115,
				"element": "C" 
			},
			{
				"x": 3.6400118964,
				"y": -3.70186703,
				"z": -0.9225927749,
				"element": "C" 
			},
			{
				"x": 2.4121004523,
				"y": -4.2476270078,
				"z": -0.6236234058,
				"element": "C" 
			},
			{
				"x": 1.4130004996,
				"y": -3.4878959104,
				"z": 0.0415112067,
				"element": "C" 
			},
			{
				"x": 0.1452958439,
				"y": -4.0479270424,
				"z": 0.3573021802,
				"element": "C" 
			},
			{
				"x": -0.8043860664,
				"y": -3.2966665746,
				"z": 1.0059287259,
				"element": "C" 
			},
			{
				"x": -0.5318419106,
				"y": -1.9548285715,
				"z": 1.3664328936,
				"element": "C" 
			},
			{
				"x": 1.7923616497,
				"y": 0.0854643887,
				"z": 2.2010558372,
				"element": "H" 
			},
			{
				"x": 1.3262894671,
				"y": 0.636149874,
				"z": 0.6026370867,
				"element": "H" 
			},
			{
				"x": 0.0295800964,
				"y": 1.1453665913,
				"z": 3.0083137713,
				"element": "H" 
			},
			{
				"x": -0.683268439,
				"y": 0.5602346975,
				"z": -0.5531323392,
				"element": "H" 
			},
			{
				"x": -2.2786441675,
				"y": 1.942496519,
				"z": -1.8125304263,
				"element": "H" 
			},
			{
				"x": -3.6107586487,
				"y": 3.7097244593,
				"z": -0.6698142681,
				"element": "H" 
			},
			{
				"x": -3.2925723869,
				"y": 4.0777936244,
				"z": 1.7771215575,
				"element": "H" 
			},
			{
				"x": -1.6721300359,
				"y": 2.7187131529,
				"z": 3.0436812619,
				"element": "H" 
			},
			{
				"x": 3.214029022,
				"y": -0.573177895,
				"z": 0.3426242783,
				"element": "H" 
			},
			{
				"x": 4.891189067,
				"y": -1.9351023159,
				"z": -0.8018570791,
				"element": "H" 
			},
			{
				"x": 4.3940619756,
				"y": -4.2954498497,
				"z": -1.431310608,
				"element": "H" 
			},
			{
				"x": 2.1872952289,
				"y": -5.2766244044,
				"z": -0.89312585,
				"element": "H" 
			},
			{
				"x": -0.0565000558,
				"y": -5.07864532,
				"z": 0.0772846743,
				"element": "H" 
			},
			{
				"x": -1.7726249207,
				"y": -3.7263052427,
				"z": 1.2466934818,
				"element": "H" 
			},
			{
				"x": -1.2850637003,
				"y": -1.3680010005,
				"z": 1.8811470148,
				"element": "H" 
			}
		],
		 "valence_orbital": [ 
			{
				"type": "occ",
				"energy": -0.27481,
				"method": "rhf"
			},
			{
				"type": "occ",
				"energy": -0.24145,
				"method": "rhf"
			},
			{
				"type": "occ",
				"energy": -0.23938,
				"method": "rhf"
			},
			{
				"type": "occ",
				"energy": -0.21153,
				"method": "rhf"
			},
			{
				"type": "occ",
				"energy": -0.19411,
				"method": "rhf"
			},
			{
				"type": "unocc",
				"energy": -0.03725,
				"method": "rhf"
			},
			{
				"type": "unocc",
				"energy": -0.0069,
				"method": "rhf"
			},
			{
				"type": "unocc",
				"energy": 0.00898,
				"method": "rhf"
			},
			{
				"type": "unocc",
				"energy": 0.0237,
				"method": "rhf"
			},
			{
				"type": "unocc",
				"energy": 0.03648,
				"method": "rhf"
			}
		],
		"cosmo_sigma_profile": { 
			"-0.025": 0.0,
			"-0.024": 0.0,
			"-0.023": 0.0,
			"-0.022": 0.0,
			"-0.021": 0.0,
			"-0.02": 0.0,
			"-0.019": 0.0,
			"-0.018": 0.0,
			"-0.017": 0.0,
			"-0.016": 0.0,
			"-0.015": 0.0,
			"-0.014": 0.0,
			"-0.013": 0.482824384377,
			"-0.012": 1.42190433994,
			"-0.011": 1.26804296822,
			"-0.01": 1.72814372663,
			"-0.009": 1.80142933683,
			"-0.008": 1.5604127891,
			"-0.007": 1.72222231195,
			"-0.006": 10.9319029795,
			"-0.005": 23.3888030044,
			"-0.004": 27.4291666707,
			"-0.003": 26.5169672941,
			"-0.002": 20.5086850062,
			"-0.001": 17.8270419739,
			"0.0": 15.4549974435,
			"0.001": 16.1494268239,
			"0.002": 16.1959811669,
			"0.003": 20.1109455308,
			"0.004": 27.9935650298,
			"0.005": 28.2297262385,
			"0.006": 13.8782517377,
			"0.007": 8.20903549004,
			"0.008": 2.58081023003,
			"0.009": 0.0,
			"0.01": 0.0,
			"0.011": 0.0,
			"0.012": 0.0,
			"0.013": 0.0,
			"0.014": 0.0,
			"0.015": 0.0,
			"0.016": 0.0,
			"0.017": 0.0,
			"0.018": 0.0,
			"0.019": 0.0,
			"0.02": 0.0,
			"0.021": 0.0,
			"0.022": 0.0,
			"0.023": 0.0,
			"0.024": 0.0,
			"0.025": 0.0
		}
	}
}
