{
	 "smiles": "CC(=O)[C@@]12O[C@@H]1C[C@H]1[C@@H]3CCC4=CC(=O)CC[C@]4(C)[C@H]3[C@H](O)C[C@]21C", 
	 "Tm": 478.65, 
	 "num_atms": 53, 
	 "gaussian": { 
		 "optdone": 1, 
		 "sigma_profile": "yes", 
		 "theory": "DFT", 
		 "functional": "B3LYP", 
		 "basiset": "6-31G**", 
		 "properties": { 
			 "R2extent": 10215.7871, 
			 "electric_dipole_moment_norm": 6.15859494041, 
			 "electric_quadrupole_moment_norm": 33.7714213306, 
			 "total_energy": -1117.96497336, 
			 "HOMO_LUMO_gap": 0.18323, 
			 "cosmo_polarized_energy": -19.96, 
			 "cosmo_cavitation_energy": 47.54, 
			 "cosmo_dispersion_energy": -33.06, 
			 "cosmo_repulsion_energy": 2.41, 
			 "cosmo_total_nonelectrostatic_energy": 16.89, 
			 "SMD_solvation_energy": 8.04 
		},
		"coords": [
			{
				"x": 5.2248994511,
				"y": 1.1041346771,
				"z": -2.2499549283,
				"element": "C" 
			},
			{
				"x": 4.0424336823,
				"y": 0.1611083917,
				"z": -2.1520402553,
				"element": "C" 
			},
			{
				"x": 4.0916696476,
				"y": -0.9762024064,
				"z": -2.5911133466,
				"element": "O" 
			},
			{
				"x": 2.8140744772,
				"y": 0.6606862068,
				"z": -1.4323079985,
				"element": "C" 
			},
			{
				"x": 3.1010393992,
				"y": 1.7224739604,
				"z": -0.4867225624,
				"element": "O" 
			},
			{
				"x": 2.259334615,
				"y": 2.0354145471,
				"z": -1.598276483,
				"element": "C" 
			},
			{
				"x": 0.775050062,
				"y": 2.0302671854,
				"z": -1.2484487125,
				"element": "C" 
			},
			{
				"x": 0.6654825338,
				"y": 0.753800682,
				"z": -0.3862235565,
				"element": "C" 
			},
			{
				"x": -0.6875620642,
				"y": 0.1355581663,
				"z": -0.0211947127,
				"element": "C" 
			},
			{
				"x": -1.6651740139,
				"y": 1.1835440762,
				"z": 0.5180835968,
				"element": "C" 
			},
			{
				"x": -3.0030480784,
				"y": 0.5289925864,
				"z": 0.8686631537,
				"element": "C" 
			},
			{
				"x": -2.8255121112,
				"y": -0.5718918792,
				"z": 1.8820178971,
				"element": "C" 
			},
			{
				"x": -3.6141341294,
				"y": -0.5882686385,
				"z": 2.9782154424,
				"element": "C" 
			},
			{
				"x": -3.623181781,
				"y": -1.6544719615,
				"z": 3.9941979278,
				"element": "C" 
			},
			{
				"x": -4.3599280007,
				"y": -1.6059143779,
				"z": 4.9709238752,
				"element": "O" 
			},
			{
				"x": -2.7016286468,
				"y": -2.825134474,
				"z": 3.7156318633,
				"element": "C" 
			},
			{
				"x": -1.4601480646,
				"y": -2.399628497,
				"z": 2.9252278803,
				"element": "C" 
			},
			{
				"x": -1.7740179809,
				"y": -1.6581461271,
				"z": 1.5935999303,
				"element": "C" 
			},
			{
				"x": -2.3834737253,
				"y": -2.6502410251,
				"z": 0.5666207361,
				"element": "C" 
			},
			{
				"x": -0.4426104327,
				"y": -1.0050412538,
				"z": 1.024665909,
				"element": "C" 
			},
			{
				"x": 0.5777169648,
				"y": -2.0235868392,
				"z": 0.4396957428,
				"element": "C" 
			},
			{
				"x": 0.8974713872,
				"y": -3.0028762222,
				"z": 1.4302888823,
				"element": "O" 
			},
			{
				"x": 1.8911552545,
				"y": -1.3715736694,
				"z": -0.0475580175,
				"element": "C" 
			},
			{
				"x": 1.6314383834,
				"y": -0.2557303128,
				"z": -1.0635084421,
				"element": "C" 
			},
			{
				"x": 1.0784580006,
				"y": -0.8234016305,
				"z": -2.3954362307,
				"element": "C" 
			},
			{
				"x": 5.9944005984,
				"y": 0.6406019531,
				"z": -2.8681606157,
				"element": "H" 
			},
			{
				"x": 5.6195595557,
				"y": 1.3071388479,
				"z": -1.2495220764,
				"element": "H" 
			},
			{
				"x": 4.938238279,
				"y": 2.0715690472,
				"z": -2.6745575732,
				"element": "H" 
			},
			{
				"x": 2.668127014,
				"y": 2.7536221259,
				"z": -2.3070830685,
				"element": "H" 
			},
			{
				"x": 0.1802775761,
				"y": 1.9839112197,
				"z": -2.1687821366,
				"element": "H" 
			},
			{
				"x": 0.4838704353,
				"y": 2.9374412484,
				"z": -0.7093677612,
				"element": "H" 
			},
			{
				"x": 1.1393909673,
				"y": 1.0206264363,
				"z": 0.5654305504,
				"element": "H" 
			},
			{
				"x": -1.1482671513,
				"y": -0.2974895621,
				"z": -0.9202973086,
				"element": "H" 
			},
			{
				"x": -1.8218143889,
				"y": 1.9712533141,
				"z": -0.2278142215,
				"element": "H" 
			},
			{
				"x": -1.242728105,
				"y": 1.6673862556,
				"z": 1.4095838715,
				"element": "H" 
			},
			{
				"x": -3.7209107121,
				"y": 1.2661803272,
				"z": 1.2416395984,
				"element": "H" 
			},
			{
				"x": -3.4354417405,
				"y": 0.1079891683,
				"z": -0.0519115434,
				"element": "H" 
			},
			{
				"x": -4.342343497,
				"y": 0.204063998,
				"z": 3.139368579,
				"element": "H" 
			},
			{
				"x": -3.2823078801,
				"y": -3.5757186254,
				"z": 3.1606047152,
				"element": "H" 
			},
			{
				"x": -2.429198127,
				"y": -3.2902011701,
				"z": 4.6678439716,
				"element": "H" 
			},
			{
				"x": -0.8642433498,
				"y": -1.7267835607,
				"z": 3.5550545407,
				"element": "H" 
			},
			{
				"x": -0.829505134,
				"y": -3.2621875347,
				"z": 2.7192090327,
				"element": "H" 
			},
			{
				"x": -2.5431468694,
				"y": -2.1851012408,
				"z": -0.4113705163,
				"element": "H" 
			},
			{
				"x": -3.3533453879,
				"y": -3.0199300957,
				"z": 0.9104482355,
				"element": "H" 
			},
			{
				"x": -1.7252115465,
				"y": -3.5128529396,
				"z": 0.4306937626,
				"element": "H" 
			},
			{
				"x": 0.0507015069,
				"y": -0.5292941972,
				"z": 1.8854620429,
				"element": "H" 
			},
			{
				"x": 0.1005178138,
				"y": -2.5221560094,
				"z": -0.4167141289,
				"element": "H" 
			},
			{
				"x": 1.5683448783,
				"y": -3.5867931509,
				"z": 1.0524468669,
				"element": "H" 
			},
			{
				"x": 2.5307947128,
				"y": -2.1507767917,
				"z": -0.4826993294,
				"element": "H" 
			},
			{
				"x": 2.4160068285,
				"y": -0.9681325934,
				"z": 0.8270764223,
				"element": "H" 
			},
			{
				"x": 0.9079020583,
				"y": -0.0306233893,
				"z": -3.1309099935,
				"element": "H" 
			},
			{
				"x": 0.1297383716,
				"y": -1.3456970388,
				"z": -2.2571335372,
				"element": "H" 
			},
			{
				"x": 1.796288464,
				"y": -1.5225172067,
				"z": -2.8255859702,
				"element": "H" 
			}
		],
		 "valence_orbital": [ 
			{
				"type": "occ",
				"energy": -0.28748,
				"method": "rhf"
			},
			{
				"type": "occ",
				"energy": -0.26947,
				"method": "rhf"
			},
			{
				"type": "occ",
				"energy": -0.25435,
				"method": "rhf"
			},
			{
				"type": "occ",
				"energy": -0.24918,
				"method": "rhf"
			},
			{
				"type": "occ",
				"energy": -0.22349,
				"method": "rhf"
			},
			{
				"type": "unocc",
				"energy": -0.04026,
				"method": "rhf"
			},
			{
				"type": "unocc",
				"energy": -0.03784,
				"method": "rhf"
			},
			{
				"type": "unocc",
				"energy": 0.06063,
				"method": "rhf"
			},
			{
				"type": "unocc",
				"energy": 0.06799,
				"method": "rhf"
			},
			{
				"type": "unocc",
				"energy": 0.07699,
				"method": "rhf"
			}
		],
		"cosmo_sigma_profile": { 
			"-0.025": 0.0,
			"-0.024": 0.0,
			"-0.023": 0.0,
			"-0.022": 0.0,
			"-0.021": 0.0,
			"-0.02": 0.0,
			"-0.019": 0.0,
			"-0.018": 0.0,
			"-0.017": 0.0,
			"-0.016": 0.016833615334,
			"-0.015": 0.645466777564,
			"-0.014": 0.940344341982,
			"-0.013": 1.23648582789,
			"-0.012": 0.798049917413,
			"-0.011": 0.583462570172,
			"-0.01": 1.33852876479,
			"-0.009": 0.884414188895,
			"-0.008": 2.0704519471,
			"-0.007": 5.41484551794,
			"-0.006": 5.78990741443,
			"-0.005": 17.4626044316,
			"-0.004": 33.5206245261,
			"-0.003": 49.2926855105,
			"-0.002": 52.9097425886,
			"-0.001": 45.6321042078,
			"0.0": 32.6715720043,
			"0.001": 21.4932166104,
			"0.002": 13.2854102984,
			"0.003": 11.3422328377,
			"0.004": 8.5632845076,
			"0.005": 7.50904091726,
			"0.006": 6.34689585467,
			"0.007": 7.04292846005,
			"0.008": 5.23523687046,
			"0.009": 5.81018781247,
			"0.01": 6.94586442167,
			"0.011": 6.63108309685,
			"0.012": 5.51996768193,
			"0.013": 6.34191446678,
			"0.014": 3.6710170976,
			"0.015": 0.696473351718,
			"0.016": 0.0,
			"0.017": 0.0,
			"0.018": 0.0,
			"0.019": 0.0,
			"0.02": 0.0,
			"0.021": 0.0,
			"0.022": 0.0,
			"0.023": 0.0,
			"0.024": 0.0,
			"0.025": 0.0
		}
	}
}
