{
	 "smiles": "CC(C)(C)C1=NN(CC2=CC=C(F)C=C2)C(=C1)C(=O)NN", 
	 "Tm": 457.15, 
	 "num_atms": 40, 
	 "gaussian": { 
		 "optdone": 1, 
		 "sigma_profile": "yes", 
		 "theory": "DFT", 
		 "functional": "B3LYP", 
		 "basiset": "6-31G**", 
		 "properties": { 
			 "R2extent": 7705.2817, 
			 "electric_dipole_moment_norm": 2.02716226534, 
			 "electric_quadrupole_moment_norm": 9.08186719293, 
			 "total_energy": -977.096430644, 
			 "HOMO_LUMO_gap": 0.2015, 
			 "cosmo_polarized_energy": -13.35, 
			 "cosmo_cavitation_energy": 43.49, 
			 "cosmo_dispersion_energy": -29.06, 
			 "cosmo_repulsion_energy": 2.23, 
			 "cosmo_total_nonelectrostatic_energy": 16.67, 
			 "SMD_solvation_energy": 7.93 
		},
		"coords": [
			{
				"x": 2.0548476657,
				"y": -1.5494573125,
				"z": 2.1810235942,
				"element": "C" 
			},
			{
				"x": 0.7918285037,
				"y": -2.368076297,
				"z": 1.8307452066,
				"element": "C" 
			},
			{
				"x": -0.011824262,
				"y": -2.6431110967,
				"z": 3.1142245266,
				"element": "C" 
			},
			{
				"x": 1.2134324406,
				"y": -3.7099720899,
				"z": 1.1904354539,
				"element": "C" 
			},
			{
				"x": -0.0518431128,
				"y": -1.5843033241,
				"z": 0.8375900769,
				"element": "C" 
			},
			{
				"x": 0.4622632785,
				"y": -1.2293576093,
				"z": -0.3499910741,
				"element": "N" 
			},
			{
				"x": -0.5154373899,
				"y": -0.586289461,
				"z": -1.0083821916,
				"element": "N" 
			},
			{
				"x": -0.2125034628,
				"y": -0.0024978501,
				"z": -2.3228959877,
				"element": "C" 
			},
			{
				"x": 0.2633149551,
				"y": 1.4349267671,
				"z": -2.2393917452,
				"element": "C" 
			},
			{
				"x": -0.5602635043,
				"y": 2.4830057607,
				"z": -2.6677824165,
				"element": "C" 
			},
			{
				"x": -0.1244690936,
				"y": 3.8076840464,
				"z": -2.6013372962,
				"element": "C" 
			},
			{
				"x": 1.1430757528,
				"y": 4.067057788,
				"z": -2.0952886166,
				"element": "C" 
			},
			{
				"x": 1.5733773229,
				"y": 5.3449938173,
				"z": -2.0279074017,
				"element": "F" 
			},
			{
				"x": 1.9842218725,
				"y": 3.0497752677,
				"z": -1.6546638895,
				"element": "C" 
			},
			{
				"x": 1.5358548077,
				"y": 1.7327266675,
				"z": -1.7318871428,
				"element": "C" 
			},
			{
				"x": -1.6570932303,
				"y": -0.4935615486,
				"z": -0.2626803834,
				"element": "C" 
			},
			{
				"x": -1.3857871405,
				"y": -1.1428131269,
				"z": 0.9397371794,
				"element": "C" 
			},
			{
				"x": -2.8964548498,
				"y": 0.1554938977,
				"z": -0.7450094022,
				"element": "C" 
			},
			{
				"x": -3.132780066,
				"y": 0.4110211197,
				"z": -1.927623869,
				"element": "O" 
			},
			{
				"x": -3.8024111621,
				"y": 0.44949527,
				"z": 0.2426222444,
				"element": "N" 
			},
			{
				"x": -4.9768999417,
				"y": 1.1703969966,
				"z": -0.053844589,
				"element": "N" 
			},
			{
				"x": 1.7886021513,
				"y": -0.5968870369,
				"z": 2.6514164199,
				"element": "H" 
			},
			{
				"x": 2.6355055892,
				"y": -1.330561042,
				"z": 1.2809895546,
				"element": "H" 
			},
			{
				"x": 2.6913134009,
				"y": -2.1069435318,
				"z": 2.877447127,
				"element": "H" 
			},
			{
				"x": -0.3227104496,
				"y": -1.7123705496,
				"z": 3.6013282299,
				"element": "H" 
			},
			{
				"x": 0.6002698479,
				"y": -3.2034054691,
				"z": 3.8282964485,
				"element": "H" 
			},
			{
				"x": -0.9085553851,
				"y": -3.2374476927,
				"z": 2.9076828582,
				"element": "H" 
			},
			{
				"x": 0.33811223,
				"y": -4.3215054389,
				"z": 0.946777234,
				"element": "H" 
			},
			{
				"x": 1.8465422872,
				"y": -4.2810426633,
				"z": 1.8789427865,
				"element": "H" 
			},
			{
				"x": 1.7721433027,
				"y": -3.5382942617,
				"z": 0.2665648854,
				"element": "H" 
			},
			{
				"x": -1.1152077992,
				"y": -0.0748781759,
				"z": -2.9267308316,
				"element": "H" 
			},
			{
				"x": 0.5628288619,
				"y": -0.6457793261,
				"z": -2.7442922,
				"element": "H" 
			},
			{
				"x": -1.5535842792,
				"y": 2.2589526378,
				"z": -3.0442841875,
				"element": "H" 
			},
			{
				"x": -0.7486690238,
				"y": 4.6308850763,
				"z": -2.9320026163,
				"element": "H" 
			},
			{
				"x": 2.9664086705,
				"y": 3.2973005809,
				"z": -1.2665445499,
				"element": "H" 
			},
			{
				"x": 2.1739922486,
				"y": 0.9243722908,
				"z": -1.3866230357,
				"element": "H" 
			},
			{
				"x": -2.0761752443,
				"y": -1.3125927296,
				"z": 1.7521357205,
				"element": "H" 
			},
			{
				"x": -3.4864705321,
				"y": 0.5374554292,
				"z": 1.1974802048,
				"element": "H" 
			},
			{
				"x": -5.6523891518,
				"y": 0.5094258431,
				"z": -0.436571597,
				"element": "H" 
			},
			{
				"x": -4.7498061089,
				"y": 1.8004783771,
				"z": -0.8246047277,
				"element": "H" 
			}
		],
		 "valence_orbital": [ 
			{
				"type": "occ",
				"energy": -0.26585,
				"method": "rhf"
			},
			{
				"type": "occ",
				"energy": -0.25928,
				"method": "rhf"
			},
			{
				"type": "occ",
				"energy": -0.25265,
				"method": "rhf"
			},
			{
				"type": "occ",
				"energy": -0.24805,
				"method": "rhf"
			},
			{
				"type": "occ",
				"energy": -0.23811,
				"method": "rhf"
			},
			{
				"type": "unocc",
				"energy": -0.03661,
				"method": "rhf"
			},
			{
				"type": "unocc",
				"energy": -0.01071,
				"method": "rhf"
			},
			{
				"type": "unocc",
				"energy": -0.00231,
				"method": "rhf"
			},
			{
				"type": "unocc",
				"energy": 0.04089,
				"method": "rhf"
			},
			{
				"type": "unocc",
				"energy": 0.07992,
				"method": "rhf"
			}
		],
		"cosmo_sigma_profile": { 
			"-0.025": 0.0,
			"-0.024": 0.0,
			"-0.023": 0.0,
			"-0.022": 0.0,
			"-0.021": 0.0,
			"-0.02": 0.0,
			"-0.019": 0.0,
			"-0.018": 0.0,
			"-0.017": 0.0,
			"-0.016": 0.0,
			"-0.015": 0.124013747945,
			"-0.014": 0.648794484343,
			"-0.013": 1.31578967126,
			"-0.012": 1.5804817011,
			"-0.011": 2.34782425559,
			"-0.01": 3.80240195617,
			"-0.009": 3.96410179031,
			"-0.008": 3.8077209105,
			"-0.007": 6.88035733983,
			"-0.006": 9.36157905896,
			"-0.005": 11.5457294185,
			"-0.004": 17.0742108551,
			"-0.003": 26.202507549,
			"-0.002": 33.6654038297,
			"-0.001": 28.9739304344,
			"0.0": 32.2701736729,
			"0.001": 42.6827807731,
			"0.002": 27.5940240053,
			"0.003": 24.6804978212,
			"0.004": 28.3117985945,
			"0.005": 10.2483405994,
			"0.006": 4.64332650741,
			"0.007": 2.52218071298,
			"0.008": 2.45303754624,
			"0.009": 3.85322097757,
			"0.01": 2.72219017877,
			"0.011": 1.88333977332,
			"0.012": 2.66712992165,
			"0.013": 2.80942239327,
			"0.014": 0.784438993507,
			"0.015": 0.679603726749,
			"0.016": 0.510865959999,
			"0.017": 0.132477708604,
			"0.018": 0.0,
			"0.019": 0.0,
			"0.02": 0.0,
			"0.021": 0.0,
			"0.022": 0.0,
			"0.023": 0.0,
			"0.024": 0.0,
			"0.025": 0.0
		}
	}
}
