{
	 "smiles": "COC1=CC(=CC=C1)N1N=C(C)C(CCC(O)=O)=C1C", 
	 "Tm": 383.15, 
	 "num_atms": 38, 
	 "gaussian": { 
		 "optdone": 1, 
		 "sigma_profile": "yes", 
		 "theory": "DFT", 
		 "functional": "B3LYP", 
		 "basiset": "6-31G**", 
		 "properties": { 
			 "R2extent": 7283.9307, 
			 "electric_dipole_moment_norm": 2.59402541622, 
			 "electric_quadrupole_moment_norm": 12.592056701, 
			 "total_energy": -917.624547232, 
			 "HOMO_LUMO_gap": 0.19548, 
			 "cosmo_polarized_energy": -16.07, 
			 "cosmo_cavitation_energy": 40.97, 
			 "cosmo_dispersion_energy": -28.69, 
			 "cosmo_repulsion_energy": 2.24, 
			 "cosmo_total_nonelectrostatic_energy": 14.51, 
			 "SMD_solvation_energy": 7.86 
		},
		"coords": [
			{
				"x": -3.9180805045,
				"y": 1.4468889638,
				"z": 2.2746769105,
				"element": "C" 
			},
			{
				"x": -4.1743426225,
				"y": 0.054788515,
				"z": 2.1621467574,
				"element": "O" 
			},
			{
				"x": -3.329672685,
				"y": -0.6973826908,
				"z": 1.4004416259,
				"element": "C" 
			},
			{
				"x": -2.2043510473,
				"y": -0.1914270693,
				"z": 0.7476372191,
				"element": "C" 
			},
			{
				"x": -1.4037816247,
				"y": -1.0539612706,
				"z": -0.0158544309,
				"element": "C" 
			},
			{
				"x": -1.7266887404,
				"y": -2.4072176788,
				"z": -0.1366087019,
				"element": "C" 
			},
			{
				"x": -2.8474712719,
				"y": -2.8988092747,
				"z": 0.5408732496,
				"element": "C" 
			},
			{
				"x": -3.6477644055,
				"y": -2.06230095,
				"z": 1.306677963,
				"element": "C" 
			},
			{
				"x": -0.2743536902,
				"y": -0.4993422734,
				"z": -0.6767451318,
				"element": "N" 
			},
			{
				"x": -0.3681035059,
				"y": 0.7719616732,
				"z": -1.164558081,
				"element": "N" 
			},
			{
				"x": 0.8286712995,
				"y": 1.0491257605,
				"z": -1.6698432166,
				"element": "C" 
			},
			{
				"x": 1.0718245364,
				"y": 2.3642291721,
				"z": -2.3463010053,
				"element": "C" 
			},
			{
				"x": 1.728168763,
				"y": -0.042294352,
				"z": -1.4977717707,
				"element": "C" 
			},
			{
				"x": 3.1732155705,
				"y": -0.1227616712,
				"z": -1.9154157352,
				"element": "C" 
			},
			{
				"x": 4.1856794117,
				"y": 0.029858606,
				"z": -0.7626171125,
				"element": "C" 
			},
			{
				"x": 4.2775370929,
				"y": 1.4398924306,
				"z": -0.2189712759,
				"element": "C" 
			},
			{
				"x": 4.688247092,
				"y": 1.4537568459,
				"z": 1.0712072673,
				"element": "O" 
			},
			{
				"x": 4.063719546,
				"y": 2.459111739,
				"z": -0.8404006533,
				"element": "O" 
			},
			{
				"x": 0.9858605445,
				"y": -1.023217985,
				"z": -0.8551842331,
				"element": "C" 
			},
			{
				"x": 1.4124022731,
				"y": -2.3832941848,
				"z": -0.3946018012,
				"element": "C" 
			},
			{
				"x": -4.7148827388,
				"y": 1.8491137991,
				"z": 2.9022203749,
				"element": "H" 
			},
			{
				"x": -3.9412561104,
				"y": 1.9426450103,
				"z": 1.2962365378,
				"element": "H" 
			},
			{
				"x": -2.9491778945,
				"y": 1.642817899,
				"z": 2.7515671447,
				"element": "H" 
			},
			{
				"x": -1.9293106239,
				"y": 0.8528125292,
				"z": 0.7922788579,
				"element": "H" 
			},
			{
				"x": -1.1429348985,
				"y": -3.0607510896,
				"z": -0.7716917335,
				"element": "H" 
			},
			{
				"x": -3.1043859256,
				"y": -3.9502284789,
				"z": 0.4510633711,
				"element": "H" 
			},
			{
				"x": -4.5236914782,
				"y": -2.4309857186,
				"z": 1.8293877876,
				"element": "H" 
			},
			{
				"x": 1.2499438885,
				"y": 2.2301261113,
				"z": -3.4204382752,
				"element": "H" 
			},
			{
				"x": 1.9482237146,
				"y": 2.8688228901,
				"z": -1.9313081886,
				"element": "H" 
			},
			{
				"x": 0.1942740611,
				"y": 3.0037566421,
				"z": -2.2275717712,
				"element": "H" 
			},
			{
				"x": 3.3814899416,
				"y": 0.6547128686,
				"z": -2.6563888399,
				"element": "H" 
			},
			{
				"x": 3.3701527007,
				"y": -1.0824819569,
				"z": -2.4079400057,
				"element": "H" 
			},
			{
				"x": 5.1944708509,
				"y": -0.225091398,
				"z": -1.1167287352,
				"element": "H" 
			},
			{
				"x": 3.9684580686,
				"y": -0.6503440404,
				"z": 0.065116946,
				"element": "H" 
			},
			{
				"x": 4.7598119387,
				"y": 2.3906470691,
				"z": 1.3216140603,
				"element": "H" 
			},
			{
				"x": 1.1283552195,
				"y": -3.1727904666,
				"z": -1.1011597105,
				"element": "H" 
			},
			{
				"x": 2.4999050368,
				"y": -2.417595938,
				"z": -0.2966305575,
				"element": "H" 
			},
			{
				"x": 0.976638217,
				"y": -2.6401900371,
				"z": 0.5750848932,
				"element": "H" 
			}
		],
		 "valence_orbital": [ 
			{
				"type": "occ",
				"energy": -0.27284,
				"method": "rhf"
			},
			{
				"type": "occ",
				"energy": -0.26422,
				"method": "rhf"
			},
			{
				"type": "occ",
				"energy": -0.22815,
				"method": "rhf"
			},
			{
				"type": "occ",
				"energy": -0.22487,
				"method": "rhf"
			},
			{
				"type": "occ",
				"energy": -0.2087,
				"method": "rhf"
			},
			{
				"type": "unocc",
				"energy": -0.01322,
				"method": "rhf"
			},
			{
				"type": "unocc",
				"energy": 0.00559,
				"method": "rhf"
			},
			{
				"type": "unocc",
				"energy": 0.01012,
				"method": "rhf"
			},
			{
				"type": "unocc",
				"energy": 0.0406,
				"method": "rhf"
			},
			{
				"type": "unocc",
				"energy": 0.06442,
				"method": "rhf"
			}
		],
		"cosmo_sigma_profile": { 
			"-0.025": 0.0,
			"-0.024": 0.0,
			"-0.023": 0.0,
			"-0.022": 0.0,
			"-0.021": 0.0,
			"-0.02": 0.0,
			"-0.019": 0.0182308596519,
			"-0.018": 0.495411175092,
			"-0.017": 1.16328219978,
			"-0.016": 0.836474087065,
			"-0.015": 0.562656897668,
			"-0.014": 0.768277883557,
			"-0.013": 0.817720663677,
			"-0.012": 0.851203936912,
			"-0.011": 0.325223557972,
			"-0.01": 0.59624582552,
			"-0.009": 0.578515478282,
			"-0.008": 0.731679461881,
			"-0.007": 3.79561495895,
			"-0.006": 16.2832402912,
			"-0.005": 24.4501237534,
			"-0.004": 29.4033572353,
			"-0.003": 33.7174525902,
			"-0.002": 28.0586095646,
			"-0.001": 24.5383783507,
			"0.0": 22.1841040647,
			"0.001": 18.5145326626,
			"0.002": 17.7422883944,
			"0.003": 18.8619663038,
			"0.004": 19.7640769316,
			"0.005": 17.2658903304,
			"0.006": 8.30917675542,
			"0.007": 6.03457221348,
			"0.008": 6.18031517817,
			"0.009": 5.57984715348,
			"0.01": 5.78351482419,
			"0.011": 4.57268732566,
			"0.012": 2.76670845908,
			"0.013": 0.710615452592,
			"0.014": 0.731446068561,
			"0.015": 0.824669407201,
			"0.016": 0.201948304064,
			"0.017": 0.0,
			"0.018": 0.0,
			"0.019": 0.0,
			"0.02": 0.0,
			"0.021": 0.0,
			"0.022": 0.0,
			"0.023": 0.0,
			"0.024": 0.0,
			"0.025": 0.0
		}
	}
}
