{
	 "smiles": "CC1=CC(C=O)=C(C)N1CC#N", 
	 "Tm": 396.15, 
	 "num_atms": 22, 
	 "gaussian": { 
		 "optdone": 1, 
		 "sigma_profile": "yes", 
		 "theory": "DFT", 
		 "functional": "B3LYP", 
		 "basiset": "6-31G**", 
		 "properties": { 
			 "R2extent": 2249.2663, 
			 "electric_dipole_moment_norm": 4.56390884878, 
			 "electric_quadrupole_moment_norm": 20.8329195498, 
			 "total_energy": -533.681239727, 
			 "HOMO_LUMO_gap": 0.18233, 
			 "cosmo_polarized_energy": -16.39, 
			 "cosmo_cavitation_energy": 26.84, 
			 "cosmo_dispersion_energy": -18.31, 
			 "cosmo_repulsion_energy": 1.46, 
			 "cosmo_total_nonelectrostatic_energy": 9.99, 
			 "SMD_solvation_energy": 7.0 
		},
		"coords": [
			{
				"x": -0.9587205379,
				"y": 2.2038566115,
				"z": 1.0688775627,
				"element": "C" 
			},
			{
				"x": -0.2125335818,
				"y": 1.1282501546,
				"z": 0.3474769644,
				"element": "C" 
			},
			{
				"x": 0.6755612084,
				"y": 1.1963904244,
				"z": -0.6915409199,
				"element": "C" 
			},
			{
				"x": 1.0953392282,
				"y": -0.1366078018,
				"z": -1.0136441352,
				"element": "C" 
			},
			{
				"x": 2.0414518758,
				"y": -0.4898827941,
				"z": -2.0643684908,
				"element": "C" 
			},
			{
				"x": 2.4217940688,
				"y": -1.6176791275,
				"z": -2.3489634116,
				"element": "O" 
			},
			{
				"x": 0.4370462517,
				"y": -1.0054790157,
				"z": -0.1463184119,
				"element": "C" 
			},
			{
				"x": 0.4952828079,
				"y": -2.4953613646,
				"z": -0.0547585855,
				"element": "C" 
			},
			{
				"x": -0.3438968546,
				"y": -0.2271018542,
				"z": 0.6801837882,
				"element": "N" 
			},
			{
				"x": -1.2301529804,
				"y": -0.7397460163,
				"z": 1.7092455693,
				"element": "C" 
			},
			{
				"x": -2.6219432952,
				"y": -0.9073432183,
				"z": 1.2483991484,
				"element": "C" 
			},
			{
				"x": -3.7179509487,
				"y": -1.0317755107,
				"z": 0.8895019773,
				"element": "N" 
			},
			{
				"x": -0.6927472649,
				"y": 2.2629599883,
				"z": 2.1327045995,
				"element": "H" 
			},
			{
				"x": -2.0462032791,
				"y": 2.074478982,
				"z": 1.0057925237,
				"element": "H" 
			},
			{
				"x": -0.716147414,
				"y": 3.1699440704,
				"z": 0.6211127442,
				"element": "H" 
			},
			{
				"x": 1.0032558538,
				"y": 2.104249252,
				"z": -1.1802483887,
				"element": "H" 
			},
			{
				"x": 2.425051622,
				"y": 0.3864437365,
				"z": -2.6336104618,
				"element": "H" 
			},
			{
				"x": 0.8791384537,
				"y": -2.8356417176,
				"z": 0.9162272208,
				"element": "H" 
			},
			{
				"x": 1.1704297255,
				"y": -2.8555898486,
				"z": -0.8311178757,
				"element": "H" 
			},
			{
				"x": -0.4892339564,
				"y": -2.9555694321,
				"z": -0.2046706719,
				"element": "H" 
			},
			{
				"x": -0.8579688177,
				"y": -1.7061897666,
				"z": 2.0585359029,
				"element": "H" 
			},
			{
				"x": -1.2280521651,
				"y": -0.0627057518,
				"z": 2.5687833517,
				"element": "H" 
			}
		],
		 "valence_orbital": [ 
			{
				"type": "occ",
				"energy": -0.35266,
				"method": "rhf"
			},
			{
				"type": "occ",
				"energy": -0.34739,
				"method": "rhf"
			},
			{
				"type": "occ",
				"energy": -0.26084,
				"method": "rhf"
			},
			{
				"type": "occ",
				"energy": -0.24294,
				"method": "rhf"
			},
			{
				"type": "occ",
				"energy": -0.22113,
				"method": "rhf"
			},
			{
				"type": "unocc",
				"energy": -0.0388,
				"method": "rhf"
			},
			{
				"type": "unocc",
				"energy": 0.00223,
				"method": "rhf"
			},
			{
				"type": "unocc",
				"energy": 0.01273,
				"method": "rhf"
			},
			{
				"type": "unocc",
				"energy": 0.02541,
				"method": "rhf"
			},
			{
				"type": "unocc",
				"energy": 0.0618,
				"method": "rhf"
			}
		],
		"cosmo_sigma_profile": { 
			"-0.025": 0.0,
			"-0.024": 0.0,
			"-0.023": 0.0,
			"-0.022": 0.0,
			"-0.021": 0.0,
			"-0.02": 0.0,
			"-0.019": 0.0,
			"-0.018": 0.0,
			"-0.017": 0.0,
			"-0.016": 0.0,
			"-0.015": 0.0,
			"-0.014": 0.0,
			"-0.013": 0.0,
			"-0.012": 0.0,
			"-0.011": 1.73767899377,
			"-0.01": 6.46992389781,
			"-0.009": 6.276564309,
			"-0.008": 6.23660689831,
			"-0.007": 4.82510984739,
			"-0.006": 7.67047415818,
			"-0.005": 18.2440562708,
			"-0.004": 15.1127029074,
			"-0.003": 15.5977742781,
			"-0.002": 15.0764720678,
			"-0.001": 18.2238643834,
			"0.0": 12.8575387879,
			"0.001": 9.14074078865,
			"0.002": 10.127604622,
			"0.003": 9.20598937432,
			"0.004": 7.82480204174,
			"0.005": 8.87658900049,
			"0.006": 6.91579542165,
			"0.007": 5.25688066573,
			"0.008": 4.69873778346,
			"0.009": 4.67679913437,
			"0.01": 4.78049112881,
			"0.011": 5.03493715826,
			"0.012": 5.55104034836,
			"0.013": 2.73476402022,
			"0.014": 1.27955467494,
			"0.015": 0.000557644100533,
			"0.016": 0.0,
			"0.017": 0.0,
			"0.018": 0.0,
			"0.019": 0.0,
			"0.02": 0.0,
			"0.021": 0.0,
			"0.022": 0.0,
			"0.023": 0.0,
			"0.024": 0.0,
			"0.025": 0.0
		}
	}
}
