{
	 "smiles": "BrC1=CC=C(C=C1)N1N=NNC1=S", 
	 "Tm": 436.15, 
	 "num_atms": 18, 
	 "gaussian": { 
		 "optdone": 1, 
		 "sigma_profile": "yes", 
		 "theory": "DFT", 
		 "functional": "B3LYP", 
		 "basiset": "6-31G**", 
		 "properties": { 
			 "R2extent": 5401.7568, 
			 "electric_dipole_moment_norm": 1.83644784026, 
			 "electric_quadrupole_moment_norm": 7.91410778989, 
			 "total_energy": -3458.3023883, 
			 "HOMO_LUMO_gap": 0.16596, 
			 "cosmo_polarized_energy": -11.58, 
			 "cosmo_cavitation_energy": 27.05, 
			 "cosmo_dispersion_energy": -21.2, 
			 "cosmo_repulsion_energy": 1.61, 
			 "cosmo_total_nonelectrostatic_energy": 7.46, 
			 "SMD_solvation_energy": 2.0 
		},
		"coords": [
			{
				"x": 3.9388230295,
				"y": 0.2344690688,
				"z": 2.7670021381,
				"element": "Br" 
			},
			{
				"x": 2.4152046939,
				"y": 0.1436130881,
				"z": 1.6231330583,
				"element": "C" 
			},
			{
				"x": 1.8537719873,
				"y": 1.3152577482,
				"z": 1.1249021695,
				"element": "C" 
			},
			{
				"x": 0.7395152886,
				"y": 1.2539017442,
				"z": 0.2879607023,
				"element": "C" 
			},
			{
				"x": 0.1945137886,
				"y": 0.0093113883,
				"z": -0.0440611074,
				"element": "C" 
			},
			{
				"x": 0.7636910497,
				"y": -1.1696034041,
				"z": 0.4604967547,
				"element": "C" 
			},
			{
				"x": 1.8743495508,
				"y": -1.0995685164,
				"z": 1.2941286604,
				"element": "C" 
			},
			{
				"x": -0.9461762827,
				"y": -0.0997015717,
				"z": -0.8978813851,
				"element": "N" 
			},
			{
				"x": -1.4279961283,
				"y": -1.3611562312,
				"z": -1.1813837717,
				"element": "N" 
			},
			{
				"x": -2.433098736,
				"y": -1.2512602481,
				"z": -1.9465889005,
				"element": "N" 
			},
			{
				"x": -2.6255048042,
				"y": 0.0627355438,
				"z": -2.1750766193,
				"element": "N" 
			},
			{
				"x": -1.7119241359,
				"y": 0.8636550105,
				"z": -1.5368033568,
				"element": "C" 
			},
			{
				"x": -1.6681829707,
				"y": 2.5266258366,
				"z": -1.6093395604,
				"element": "S" 
			},
			{
				"x": 2.2779312042,
				"y": 2.2784173649,
				"z": 1.3837002044,
				"element": "H" 
			},
			{
				"x": 0.3003702639,
				"y": 2.1624298225,
				"z": -0.1012513006,
				"element": "H" 
			},
			{
				"x": 0.3406334341,
				"y": -2.1313139977,
				"z": 0.2024767677,
				"element": "H" 
			},
			{
				"x": 2.3158326473,
				"y": -2.0088057624,
				"z": 1.6851000921,
				"element": "H" 
			},
			{
				"x": -3.37825388,
				"y": 0.3897931159,
				"z": -2.7636145457,
				"element": "H" 
			}
		],
		 "valence_orbital": [ 
			{
				"type": "occ",
				"energy": -0.29566,
				"method": "rhf"
			},
			{
				"type": "occ",
				"energy": -0.27864,
				"method": "rhf"
			},
			{
				"type": "occ",
				"energy": -0.25973,
				"method": "rhf"
			},
			{
				"type": "occ",
				"energy": -0.23423,
				"method": "rhf"
			},
			{
				"type": "occ",
				"energy": -0.23161,
				"method": "rhf"
			},
			{
				"type": "unocc",
				"energy": -0.06565,
				"method": "rhf"
			},
			{
				"type": "unocc",
				"energy": -0.04025,
				"method": "rhf"
			},
			{
				"type": "unocc",
				"energy": -0.02545,
				"method": "rhf"
			},
			{
				"type": "unocc",
				"energy": -0.00054,
				"method": "rhf"
			},
			{
				"type": "unocc",
				"energy": 0.00453,
				"method": "rhf"
			}
		],
		"cosmo_sigma_profile": { 
			"-0.025": 0.0,
			"-0.024": 0.0,
			"-0.023": 0.0,
			"-0.022": 0.0,
			"-0.021": 0.0,
			"-0.02": 0.293162794927,
			"-0.019": 1.43696468176,
			"-0.018": 1.14600501149,
			"-0.017": 1.09500959171,
			"-0.016": 0.914573964054,
			"-0.015": 1.03273019268,
			"-0.014": 0.418740581298,
			"-0.013": 0.608771806917,
			"-0.012": 1.39179422037,
			"-0.011": 1.12688155596,
			"-0.01": 0.35540604175,
			"-0.009": 0.745184999217,
			"-0.008": 3.87966051471,
			"-0.007": 7.82747259387,
			"-0.006": 8.75773500451,
			"-0.005": 9.93353289538,
			"-0.004": 11.712529157,
			"-0.003": 11.4643204836,
			"-0.002": 11.0805475219,
			"-0.001": 13.4740164407,
			"0.0": 15.8501225564,
			"0.001": 24.2373690544,
			"0.002": 25.0927956904,
			"0.003": 14.6886183129,
			"0.004": 17.8803101771,
			"0.005": 10.0665819968,
			"0.006": 7.25928672375,
			"0.007": 6.53342092548,
			"0.008": 6.92851590025,
			"0.009": 5.81831394172,
			"0.01": 2.02385548704,
			"0.011": 0.0,
			"0.012": 0.0,
			"0.013": 0.0,
			"0.014": 0.0,
			"0.015": 0.0,
			"0.016": 0.0,
			"0.017": 0.0,
			"0.018": 0.0,
			"0.019": 0.0,
			"0.02": 0.0,
			"0.021": 0.0,
			"0.022": 0.0,
			"0.023": 0.0,
			"0.024": 0.0,
			"0.025": 0.0
		}
	}
}
