{
	 "smiles": "CC1=C(CC2=CC=CC=C2)C(C)=NN1", 
	 "Tm": 392.15, 
	 "num_atms": 28, 
	 "gaussian": { 
		 "optdone": 1, 
		 "sigma_profile": "yes", 
		 "theory": "DFT", 
		 "functional": "B3LYP", 
		 "basiset": "6-31G**", 
		 "properties": { 
			 "R2extent": 3753.0856, 
			 "electric_dipole_moment_norm": 2.18430187703, 
			 "electric_quadrupole_moment_norm": 11.0539781491, 
			 "total_energy": -575.217189497, 
			 "HOMO_LUMO_gap": 0.22099, 
			 "cosmo_polarized_energy": -10.58, 
			 "cosmo_cavitation_energy": 31.2, 
			 "cosmo_dispersion_energy": -21.74, 
			 "cosmo_repulsion_energy": 1.74, 
			 "cosmo_total_nonelectrostatic_energy": 11.2, 
			 "SMD_solvation_energy": 4.28 
		},
		"coords": [
			{
				"x": -1.4524088587,
				"y": -1.0222239383,
				"z": 3.5156642867,
				"element": "C" 
			},
			{
				"x": -1.3201666366,
				"y": 0.3526740278,
				"z": 2.9409635127,
				"element": "C" 
			},
			{
				"x": -1.1933855602,
				"y": 0.797417009,
				"z": 1.6306464928,
				"element": "C" 
			},
			{
				"x": -1.1330479658,
				"y": -0.0427722479,
				"z": 0.3817861601,
				"element": "C" 
			},
			{
				"x": 0.0802897607,
				"y": -0.958774453,
				"z": 0.2629230682,
				"element": "C" 
			},
			{
				"x": -0.0604350852,
				"y": -2.261854706,
				"z": -0.2313138305,
				"element": "C" 
			},
			{
				"x": 1.0487344013,
				"y": -3.0965930586,
				"z": -0.3865310869,
				"element": "C" 
			},
			{
				"x": 2.3218184272,
				"y": -2.6381828175,
				"z": -0.0469688808,
				"element": "C" 
			},
			{
				"x": 2.4748151673,
				"y": -1.3416849713,
				"z": 0.4506392838,
				"element": "C" 
			},
			{
				"x": 1.3643464646,
				"y": -0.5121623838,
				"z": 0.6061949244,
				"element": "C" 
			},
			{
				"x": -1.1410568466,
				"y": 2.2168314079,
				"z": 1.7315717216,
				"element": "C" 
			},
			{
				"x": -1.0122932191,
				"y": 3.2245108527,
				"z": 0.6282574614,
				"element": "C" 
			},
			{
				"x": -1.2275993418,
				"y": 2.6223124517,
				"z": 2.9997540034,
				"element": "N" 
			},
			{
				"x": -1.337217718,
				"y": 1.4754835202,
				"z": 3.7086349079,
				"element": "N" 
			},
			{
				"x": -0.8601529077,
				"y": -1.7364421387,
				"z": 2.9379115013,
				"element": "H" 
			},
			{
				"x": -1.1015602339,
				"y": -1.0574149149,
				"z": 4.5524814831,
				"element": "H" 
			},
			{
				"x": -2.4930496704,
				"y": -1.370078874,
				"z": 3.5065827973,
				"element": "H" 
			},
			{
				"x": -2.0392377374,
				"y": -0.6553751307,
				"z": 0.2894494021,
				"element": "H" 
			},
			{
				"x": -1.1489359513,
				"y": 0.6295978204,
				"z": -0.4860350044,
				"element": "H" 
			},
			{
				"x": -1.0497238288,
				"y": -2.6261279479,
				"z": -0.4995519387,
				"element": "H" 
			},
			{
				"x": 0.9157329952,
				"y": -4.1049091322,
				"z": -0.769163741,
				"element": "H" 
			},
			{
				"x": 3.1865332402,
				"y": -3.2850176928,
				"z": -0.1648734052,
				"element": "H" 
			},
			{
				"x": 3.4618532949,
				"y": -0.9760476961,
				"z": 0.7207703478,
				"element": "H" 
			},
			{
				"x": 1.4883096455,
				"y": 0.4901864755,
				"z": 1.0066932075,
				"element": "H" 
			},
			{
				"x": -0.9750468975,
				"y": 4.2292306914,
				"z": 1.0549816998,
				"element": "H" 
			},
			{
				"x": -0.1022274571,
				"y": 3.0689577758,
				"z": 0.0374221401,
				"element": "H" 
			},
			{
				"x": -1.8608329166,
				"y": 3.1795243025,
				"z": -0.0646082883,
				"element": "H" 
			},
			{
				"x": -1.4076545645,
				"y": 1.5265357689,
				"z": 4.7130177737,
				"element": "H" 
			}
		],
		 "valence_orbital": [ 
			{
				"type": "occ",
				"energy": -0.27203,
				"method": "rhf"
			},
			{
				"type": "occ",
				"energy": -0.24601,
				"method": "rhf"
			},
			{
				"type": "occ",
				"energy": -0.24092,
				"method": "rhf"
			},
			{
				"type": "occ",
				"energy": -0.23233,
				"method": "rhf"
			},
			{
				"type": "occ",
				"energy": -0.21928,
				"method": "rhf"
			},
			{
				"type": "unocc",
				"energy": 0.00171,
				"method": "rhf"
			},
			{
				"type": "unocc",
				"energy": 0.00397,
				"method": "rhf"
			},
			{
				"type": "unocc",
				"energy": 0.03007,
				"method": "rhf"
			},
			{
				"type": "unocc",
				"energy": 0.06909,
				"method": "rhf"
			},
			{
				"type": "unocc",
				"energy": 0.08628,
				"method": "rhf"
			}
		],
		"cosmo_sigma_profile": { 
			"-0.025": 0.0,
			"-0.024": 0.0,
			"-0.023": 0.0,
			"-0.022": 0.0,
			"-0.021": 0.0,
			"-0.02": 0.0,
			"-0.019": 0.0,
			"-0.018": 0.0,
			"-0.017": 0.0,
			"-0.016": 0.354622672052,
			"-0.015": 1.43449427777,
			"-0.014": 0.713494464655,
			"-0.013": 1.58822484915,
			"-0.012": 1.10509366766,
			"-0.011": 0.713851762439,
			"-0.01": 1.17810487648,
			"-0.009": 1.23321478708,
			"-0.008": 1.17230136938,
			"-0.007": 0.994118400311,
			"-0.006": 2.93454953719,
			"-0.005": 12.1434465141,
			"-0.004": 21.6457847869,
			"-0.003": 27.7635535487,
			"-0.002": 27.8315295636,
			"-0.001": 26.8847716012,
			"0.0": 22.4623882367,
			"0.001": 15.5804743881,
			"0.002": 11.9768990549,
			"0.003": 13.1782562243,
			"0.004": 12.6786228449,
			"0.005": 12.1786471146,
			"0.006": 11.5658464311,
			"0.007": 4.95967059392,
			"0.008": 1.79549830243,
			"0.009": 1.2533246412,
			"0.01": 1.68346286387,
			"0.011": 1.56159523679,
			"0.012": 1.18970890222,
			"0.013": 0.716911664971,
			"0.014": 1.16224546843,
			"0.015": 1.20756415599,
			"0.016": 1.2173930887,
			"0.017": 0.682473606619,
			"0.018": 0.132955304701,
			"0.019": 0.0,
			"0.02": 0.0,
			"0.021": 0.0,
			"0.022": 0.0,
			"0.023": 0.0,
			"0.024": 0.0,
			"0.025": 0.0
		}
	}
}
