{
	 "smiles": "FC(F)OC1=C(C=O)C=CC=C1Br", 
	 "Tm": 323.15, 
	 "num_atms": 18, 
	 "gaussian": { 
		 "optdone": 1, 
		 "sigma_profile": "yes", 
		 "theory": "DFT", 
		 "functional": "B3LYP", 
		 "basiset": "6-31G**", 
		 "properties": { 
			 "R2extent": 3152.5177, 
			 "electric_dipole_moment_norm": 2.08931737417, 
			 "electric_quadrupole_moment_norm": 14.2254988781, 
			 "total_energy": -3229.37140881, 
			 "HOMO_LUMO_gap": 0.18259, 
			 "cosmo_polarized_energy": -8.48, 
			 "cosmo_cavitation_energy": 25.64, 
			 "cosmo_dispersion_energy": -18.8, 
			 "cosmo_repulsion_energy": 1.45, 
			 "cosmo_total_nonelectrostatic_energy": 8.29, 
			 "SMD_solvation_energy": 5.5 
		},
		"coords": [
			{
				"x": -2.3324260521,
				"y": 0.7695712972,
				"z": 0.1059218203,
				"element": "F" 
			},
			{
				"x": -1.7822998812,
				"y": 0.9611656777,
				"z": 1.3253220861,
				"element": "C" 
			},
			{
				"x": -1.2256116197,
				"y": 2.2043337341,
				"z": 1.3066120617,
				"element": "F" 
			},
			{
				"x": -0.8367375962,
				"y": 0.000657348,
				"z": 1.6160958075,
				"element": "O" 
			},
			{
				"x": 0.1465647072,
				"y": -0.2573928598,
				"z": 0.665931905,
				"element": "C" 
			},
			{
				"x": 1.3424742763,
				"y": 0.479700192,
				"z": 0.6675280768,
				"element": "C" 
			},
			{
				"x": 1.6182358299,
				"y": 1.5423328522,
				"z": 1.676994432,
				"element": "C" 
			},
			{
				"x": 2.6304686435,
				"y": 2.2165195844,
				"z": 1.6589091847,
				"element": "O" 
			},
			{
				"x": 2.3390488972,
				"y": 0.1744142626,
				"z": -0.2699272494,
				"element": "C" 
			},
			{
				"x": 2.1581499156,
				"y": -0.8568893539,
				"z": -1.1828689777,
				"element": "C" 
			},
			{
				"x": 0.9827512782,
				"y": -1.6109150994,
				"z": -1.1590996156,
				"element": "C" 
			},
			{
				"x": -0.0198043461,
				"y": -1.3151616418,
				"z": -0.2357548741,
				"element": "C" 
			},
			{
				"x": -1.5887519665,
				"y": -2.3895349938,
				"z": -0.201107268,
				"element": "Br" 
			},
			{
				"x": -2.5467490065,
				"y": 0.9126222601,
				"z": 2.1030010439,
				"element": "H" 
			},
			{
				"x": 0.8570172782,
				"y": 1.6733920261,
				"z": 2.463409895,
				"element": "H" 
			},
			{
				"x": 3.2491007324,
				"y": 0.7644555949,
				"z": -0.2449297843,
				"element": "H" 
			},
			{
				"x": 2.9309921226,
				"y": -1.0926646664,
				"z": -1.9075632845,
				"element": "H" 
			},
			{
				"x": 0.8375767872,
				"y": -2.4317062142,
				"z": -1.8522752595,
				"element": "H" 
			}
		],
		 "valence_orbital": [ 
			{
				"type": "occ",
				"energy": -0.32511,
				"method": "rhf"
			},
			{
				"type": "occ",
				"energy": -0.29838,
				"method": "rhf"
			},
			{
				"type": "occ",
				"energy": -0.27822,
				"method": "rhf"
			},
			{
				"type": "occ",
				"energy": -0.26262,
				"method": "rhf"
			},
			{
				"type": "occ",
				"energy": -0.25847,
				"method": "rhf"
			},
			{
				"type": "unocc",
				"energy": -0.07588,
				"method": "rhf"
			},
			{
				"type": "unocc",
				"energy": -0.03206,
				"method": "rhf"
			},
			{
				"type": "unocc",
				"energy": -0.00794,
				"method": "rhf"
			},
			{
				"type": "unocc",
				"energy": 0.02264,
				"method": "rhf"
			},
			{
				"type": "unocc",
				"energy": 0.09859,
				"method": "rhf"
			}
		],
		"cosmo_sigma_profile": { 
			"-0.025": 0.0,
			"-0.024": 0.0,
			"-0.023": 0.0,
			"-0.022": 0.0,
			"-0.021": 0.0,
			"-0.02": 0.0,
			"-0.019": 0.0,
			"-0.018": 0.0,
			"-0.017": 0.0,
			"-0.016": 0.0,
			"-0.015": 0.0,
			"-0.014": 0.0,
			"-0.013": 0.0,
			"-0.012": 0.121432261053,
			"-0.011": 3.38801192926,
			"-0.01": 2.08757417335,
			"-0.009": 1.60490983299,
			"-0.008": 4.18880393421,
			"-0.007": 7.44637662561,
			"-0.006": 9.13680817776,
			"-0.005": 10.2986858621,
			"-0.004": 9.72034384443,
			"-0.003": 9.87826324725,
			"-0.002": 11.7361287739,
			"-0.001": 18.0522734807,
			"0.0": 21.3784704128,
			"0.001": 20.5141510187,
			"0.002": 17.8354269308,
			"0.003": 23.8391573759,
			"0.004": 15.5164242362,
			"0.005": 4.82169059053,
			"0.006": 2.84633487842,
			"0.007": 2.58822134461,
			"0.008": 2.11417878985,
			"0.009": 2.10745886611,
			"0.01": 3.3321923023,
			"0.011": 3.80334449095,
			"0.012": 1.25566505866,
			"0.013": 0.119991715545,
			"0.014": 0.0,
			"0.015": 0.0,
			"0.016": 0.0,
			"0.017": 0.0,
			"0.018": 0.0,
			"0.019": 0.0,
			"0.02": 0.0,
			"0.021": 0.0,
			"0.022": 0.0,
			"0.023": 0.0,
			"0.024": 0.0,
			"0.025": 0.0
		}
	}
}
