{
	 "smiles": "COC1=C(OCC2=NC3=C(C=CC=C3)C=C2)C=C(N)C=C1", 
	 "Tm": 380.15, 
	 "num_atms": 37, 
	 "gaussian": { 
		 "optdone": 1, 
		 "sigma_profile": "yes", 
		 "theory": "DFT", 
		 "functional": "B3LYP", 
		 "basiset": "6-31G**", 
		 "properties": { 
			 "R2extent": 9257.4479, 
			 "electric_dipole_moment_norm": 3.23225911245, 
			 "electric_quadrupole_moment_norm": 18.2711461991, 
			 "total_energy": -917.38462907, 
			 "HOMO_LUMO_gap": 0.14678, 
			 "cosmo_polarized_energy": -14.56, 
			 "cosmo_cavitation_energy": 41.18, 
			 "cosmo_dispersion_energy": -29.35, 
			 "cosmo_repulsion_energy": 2.25, 
			 "cosmo_total_nonelectrostatic_energy": 14.07, 
			 "SMD_solvation_energy": 5.94 
		},
		"coords": [
			{
				"x": 3.0648129103,
				"y": -1.0800022452,
				"z": 0.3588201114,
				"element": "C" 
			},
			{
				"x": 3.2527054146,
				"y": 0.2218379997,
				"z": -0.2033646715,
				"element": "O" 
			},
			{
				"x": 3.1712555281,
				"y": 1.2562159459,
				"z": 0.7093037731,
				"element": "C" 
			},
			{
				"x": 1.9403110979,
				"y": 1.6652189711,
				"z": 1.2519896894,
				"element": "C" 
			},
			{
				"x": 0.7668468563,
				"y": 1.0065016629,
				"z": 0.9471968067,
				"element": "O" 
			},
			{
				"x": 0.3214812089,
				"y": 1.14693479,
				"z": -0.4080368814,
				"element": "C" 
			},
			{
				"x": -0.9833514722,
				"y": 0.4029524114,
				"z": -0.5931629776,
				"element": "C" 
			},
			{
				"x": -1.4157171106,
				"y": 0.3410705805,
				"z": -1.8390187876,
				"element": "N" 
			},
			{
				"x": -2.5946709389,
				"y": -0.2970902202,
				"z": -2.0868021083,
				"element": "C" 
			},
			{
				"x": -3.3726298402,
				"y": -0.9029612051,
				"z": -1.048948934,
				"element": "C" 
			},
			{
				"x": -4.5896286799,
				"y": -1.5537199578,
				"z": -1.3826617938,
				"element": "C" 
			},
			{
				"x": -5.019203035,
				"y": -1.6021544213,
				"z": -2.6898440715,
				"element": "C" 
			},
			{
				"x": -4.2492222566,
				"y": -1.0020590546,
				"z": -3.7182536895,
				"element": "C" 
			},
			{
				"x": -3.0645569461,
				"y": -0.3643317326,
				"z": -3.4259514741,
				"element": "C" 
			},
			{
				"x": -2.8684833081,
				"y": -0.8129163308,
				"z": 0.2730602222,
				"element": "C" 
			},
			{
				"x": -1.6804755908,
				"y": -0.163045824,
				"z": 0.5080995317,
				"element": "C" 
			},
			{
				"x": 1.8853377828,
				"y": 2.7224317617,
				"z": 2.1576270019,
				"element": "C" 
			},
			{
				"x": 3.0512172464,
				"y": 3.4063306443,
				"z": 2.5391925361,
				"element": "C" 
			},
			{
				"x": 2.979597922,
				"y": 4.5041102204,
				"z": 3.403849045,
				"element": "N" 
			},
			{
				"x": 4.2756855389,
				"y": 3.0088218761,
				"z": 1.9775298253,
				"element": "C" 
			},
			{
				"x": 4.3260287335,
				"y": 1.9448552708,
				"z": 1.079426984,
				"element": "C" 
			},
			{
				"x": 2.0715062885,
				"y": -1.1809142456,
				"z": 0.809247043,
				"element": "H" 
			},
			{
				"x": 3.1661579973,
				"y": -1.7899470613,
				"z": -0.4650800332,
				"element": "H" 
			},
			{
				"x": 3.8296644555,
				"y": -1.2928565584,
				"z": 1.1170259426,
				"element": "H" 
			},
			{
				"x": 1.0702352266,
				"y": 0.7568471774,
				"z": -1.1048825653,
				"element": "H" 
			},
			{
				"x": 0.1701846176,
				"y": 2.2111833423,
				"z": -0.6386174628,
				"element": "H" 
			},
			{
				"x": -5.1754158388,
				"y": -2.0119335831,
				"z": -0.5894853796,
				"element": "H" 
			},
			{
				"x": -5.9511876119,
				"y": -2.1010597153,
				"z": -2.9390715909,
				"element": "H" 
			},
			{
				"x": -4.6014439062,
				"y": -1.0486325664,
				"z": -4.7448129202,
				"element": "H" 
			},
			{
				"x": -2.4583852885,
				"y": 0.1014666847,
				"z": -4.196168688,
				"element": "H" 
			},
			{
				"x": -3.4299618358,
				"y": -1.2599846576,
				"z": 1.0901713381,
				"element": "H" 
			},
			{
				"x": -1.2632245321,
				"y": -0.0723545778,
				"z": 1.5031407285,
				"element": "H" 
			},
			{
				"x": 0.9156188929,
				"y": 3.0076857518,
				"z": 2.5553931655,
				"element": "H" 
			},
			{
				"x": 2.1858580862,
				"y": 4.5001378709,
				"z": 4.02987466,
				"element": "H" 
			},
			{
				"x": 3.8380869126,
				"y": 4.7103211278,
				"z": 3.8962942379,
				"element": "H" 
			},
			{
				"x": 5.1884001216,
				"y": 3.5332082095,
				"z": 2.2480328942,
				"element": "H" 
			},
			{
				"x": 5.2710653532,
				"y": 1.6285316581,
				"z": 0.6485884928,
				"element": "H" 
			}
		],
		 "valence_orbital": [ 
			{
				"type": "occ",
				"energy": -0.25013,
				"method": "rhf"
			},
			{
				"type": "occ",
				"energy": -0.2419,
				"method": "rhf"
			},
			{
				"type": "occ",
				"energy": -0.23595,
				"method": "rhf"
			},
			{
				"type": "occ",
				"energy": -0.22559,
				"method": "rhf"
			},
			{
				"type": "occ",
				"energy": -0.19506,
				"method": "rhf"
			},
			{
				"type": "unocc",
				"energy": -0.04828,
				"method": "rhf"
			},
			{
				"type": "unocc",
				"energy": -0.00944,
				"method": "rhf"
			},
			{
				"type": "unocc",
				"energy": 0.00482,
				"method": "rhf"
			},
			{
				"type": "unocc",
				"energy": 0.02127,
				"method": "rhf"
			},
			{
				"type": "unocc",
				"energy": 0.0249,
				"method": "rhf"
			}
		],
		"cosmo_sigma_profile": { 
			"-0.025": 0.0,
			"-0.024": 0.0,
			"-0.023": 0.0,
			"-0.022": 0.0,
			"-0.021": 0.0,
			"-0.02": 0.0,
			"-0.019": 0.0,
			"-0.018": 0.0,
			"-0.017": 0.0,
			"-0.016": 0.0,
			"-0.015": 0.0,
			"-0.014": 0.0,
			"-0.013": 0.213247772107,
			"-0.012": 2.43046642996,
			"-0.011": 2.62086591766,
			"-0.01": 3.04164764917,
			"-0.009": 3.04906401941,
			"-0.008": 3.08849987672,
			"-0.007": 6.83743462161,
			"-0.006": 15.8750558765,
			"-0.005": 22.2883151144,
			"-0.004": 24.9167335652,
			"-0.003": 22.9353579278,
			"-0.002": 25.3133163396,
			"-0.001": 21.989719883,
			"0.0": 19.8588946631,
			"0.001": 23.1908078081,
			"0.002": 27.1369007002,
			"0.003": 27.4044164923,
			"0.004": 23.9665157023,
			"0.005": 18.594477291,
			"0.006": 11.8514889302,
			"0.007": 4.51518435833,
			"0.008": 3.19733008015,
			"0.009": 2.19543356358,
			"0.01": 2.49731360846,
			"0.011": 3.23178776112,
			"0.012": 2.0799975535,
			"0.013": 1.91456812324,
			"0.014": 1.18299415589,
			"0.015": 0.863094250057,
			"0.016": 0.0956723923591,
			"0.017": 0.0,
			"0.018": 0.0,
			"0.019": 0.0,
			"0.02": 0.0,
			"0.021": 0.0,
			"0.022": 0.0,
			"0.023": 0.0,
			"0.024": 0.0,
			"0.025": 0.0
		}
	}
}
