{
	 "smiles": "CC(C)NC1=C(C)N(C)N(C1=O)C1=CC=CC=C1", 
	 "Tm": 353.15, 
	 "num_atms": 37, 
	 "gaussian": { 
		 "optdone": 1, 
		 "sigma_profile": "yes", 
		 "theory": "DFT", 
		 "functional": "B3LYP", 
		 "basiset": "6-31G**", 
		 "properties": { 
			 "R2extent": 5289.4501, 
			 "electric_dipole_moment_norm": 4.43043781471, 
			 "electric_quadrupole_moment_norm": 9.56278246694, 
			 "total_energy": -784.398663037, 
			 "HOMO_LUMO_gap": 0.16837, 
			 "cosmo_polarized_energy": -13.98, 
			 "cosmo_cavitation_energy": 38.0, 
			 "cosmo_dispersion_energy": -26.68, 
			 "cosmo_repulsion_energy": 2.08, 
			 "cosmo_total_nonelectrostatic_energy": 13.39, 
			 "SMD_solvation_energy": 6.02 
		},
		"coords": [
			{
				"x": 0.7732372951,
				"y": 2.8749067465,
				"z": 0.9405992821,
				"element": "C" 
			},
			{
				"x": -0.7421671042,
				"y": 3.1148813035,
				"z": 0.9164241856,
				"element": "C" 
			},
			{
				"x": -1.3634506352,
				"y": 3.0352716028,
				"z": 2.316861919,
				"element": "C" 
			},
			{
				"x": -1.469698139,
				"y": 2.2426704092,
				"z": -0.0435195042,
				"element": "N" 
			},
			{
				"x": -1.1039026514,
				"y": 0.9376377927,
				"z": -0.3577935392,
				"element": "C" 
			},
			{
				"x": -1.0664156211,
				"y": 0.3610149554,
				"z": -1.5935631257,
				"element": "C" 
			},
			{
				"x": -1.3467224503,
				"y": 0.975372471,
				"z": -2.9262313748,
				"element": "C" 
			},
			{
				"x": -0.7196506787,
				"y": -1.0063854005,
				"z": -1.5151890154,
				"element": "N" 
			},
			{
				"x": -1.6605537899,
				"y": -1.9437344236,
				"z": -2.1586331521,
				"element": "C" 
			},
			{
				"x": -0.5801815532,
				"y": -1.2706765161,
				"z": -0.1345947831,
				"element": "N" 
			},
			{
				"x": -0.7653367423,
				"y": -0.1036679302,
				"z": 0.6256548203,
				"element": "C" 
			},
			{
				"x": -0.6024628147,
				"y": -0.0322950518,
				"z": 1.841472747,
				"element": "O" 
			},
			{
				"x": 0.1487638419,
				"y": -2.412960606,
				"z": 0.2798151394,
				"element": "C" 
			},
			{
				"x": -0.0228401315,
				"y": -2.910236843,
				"z": 1.5805735619,
				"element": "C" 
			},
			{
				"x": 0.6927122009,
				"y": -4.0362986716,
				"z": 1.9831545763,
				"element": "C" 
			},
			{
				"x": 1.5616597571,
				"y": -4.6866523909,
				"z": 1.1041469364,
				"element": "C" 
			},
			{
				"x": 1.7239996487,
				"y": -4.1892068761,
				"z": -0.1893761822,
				"element": "C" 
			},
			{
				"x": 1.0302761418,
				"y": -3.0526630277,
				"z": -0.6039183383,
				"element": "C" 
			},
			{
				"x": 1.2624305557,
				"y": 3.6331175515,
				"z": 1.5611000178,
				"element": "H" 
			},
			{
				"x": 1.2016461459,
				"y": 2.9324803976,
				"z": -0.0657721104,
				"element": "H" 
			},
			{
				"x": 1.0016776078,
				"y": 1.894733684,
				"z": 1.3666058372,
				"element": "H" 
			},
			{
				"x": -0.9146373432,
				"y": 4.1299705594,
				"z": 0.5349435297,
				"element": "H" 
			},
			{
				"x": -2.4326479999,
				"y": 3.263796033,
				"z": 2.2710979267,
				"element": "H" 
			},
			{
				"x": -1.237399771,
				"y": 2.0314113419,
				"z": 2.7265710576,
				"element": "H" 
			},
			{
				"x": -0.884433586,
				"y": 3.7582333771,
				"z": 2.9871974958,
				"element": "H" 
			},
			{
				"x": -1.7648346081,
				"y": 2.752610901,
				"z": -0.8640804099,
				"element": "H" 
			},
			{
				"x": -2.3800430868,
				"y": 0.8204270921,
				"z": -3.2632664891,
				"element": "H" 
			},
			{
				"x": -0.6800610342,
				"y": 0.5660250755,
				"z": -3.6919067143,
				"element": "H" 
			},
			{
				"x": -1.1758327047,
				"y": 2.0560466747,
				"z": -2.8844516763,
				"element": "H" 
			},
			{
				"x": -1.2819622087,
				"y": -2.9611338706,
				"z": -2.049330672,
				"element": "H" 
			},
			{
				"x": -2.6647950628,
				"y": -1.8786411684,
				"z": -1.7182906019,
				"element": "H" 
			},
			{
				"x": -1.7102897875,
				"y": -1.7068657999,
				"z": -3.2230059942,
				"element": "H" 
			},
			{
				"x": -0.6919306486,
				"y": -2.4008823153,
				"z": 2.2607874381,
				"element": "H" 
			},
			{
				"x": 0.5603099196,
				"y": -4.4119785261,
				"z": 2.9937684614,
				"element": "H" 
			},
			{
				"x": 2.1073462159,
				"y": -5.5689777725,
				"z": 1.4247800714,
				"element": "H" 
			},
			{
				"x": 2.403887182,
				"y": -4.6782421763,
				"z": -0.8814176551,
				"element": "H" 
			},
			{
				"x": 1.1781036407,
				"y": -2.6435086022,
				"z": -1.5968136655,
				"element": "H" 
			}
		],
		 "valence_orbital": [ 
			{
				"type": "occ",
				"energy": -0.26502,
				"method": "rhf"
			},
			{
				"type": "occ",
				"energy": -0.24902,
				"method": "rhf"
			},
			{
				"type": "occ",
				"energy": -0.23935,
				"method": "rhf"
			},
			{
				"type": "occ",
				"energy": -0.21151,
				"method": "rhf"
			},
			{
				"type": "occ",
				"energy": -0.18638,
				"method": "rhf"
			},
			{
				"type": "unocc",
				"energy": -0.01801,
				"method": "rhf"
			},
			{
				"type": "unocc",
				"energy": 0.00263,
				"method": "rhf"
			},
			{
				"type": "unocc",
				"energy": 0.01598,
				"method": "rhf"
			},
			{
				"type": "unocc",
				"energy": 0.06368,
				"method": "rhf"
			},
			{
				"type": "unocc",
				"energy": 0.09056,
				"method": "rhf"
			}
		],
		"cosmo_sigma_profile": { 
			"-0.025": 0.0,
			"-0.024": 0.0,
			"-0.023": 0.0,
			"-0.022": 0.0,
			"-0.021": 0.0,
			"-0.02": 0.0,
			"-0.019": 0.0,
			"-0.018": 0.0,
			"-0.017": 0.0,
			"-0.016": 0.0,
			"-0.015": 0.0,
			"-0.014": 0.0,
			"-0.013": 0.0,
			"-0.012": 0.274375279262,
			"-0.011": 1.18675926699,
			"-0.01": 1.65644505696,
			"-0.009": 1.26427700123,
			"-0.008": 1.9342317705,
			"-0.007": 2.05467732788,
			"-0.006": 8.21860730345,
			"-0.005": 19.7449202739,
			"-0.004": 26.3779766531,
			"-0.003": 30.9926832143,
			"-0.002": 33.02290654,
			"-0.001": 26.439860764,
			"0.0": 24.4831548396,
			"0.001": 24.9870436216,
			"0.002": 23.7795341389,
			"0.003": 15.8528530058,
			"0.004": 12.780839538,
			"0.005": 13.4413976237,
			"0.006": 7.78501483022,
			"0.007": 4.3879111706,
			"0.008": 3.62076700761,
			"0.009": 3.91981742227,
			"0.01": 2.48391482392,
			"0.011": 2.50150553476,
			"0.012": 2.86875176785,
			"0.013": 2.3837109344,
			"0.014": 1.05219632315,
			"0.015": 0.0,
			"0.016": 0.0,
			"0.017": 0.0,
			"0.018": 0.0,
			"0.019": 0.0,
			"0.02": 0.0,
			"0.021": 0.0,
			"0.022": 0.0,
			"0.023": 0.0,
			"0.024": 0.0,
			"0.025": 0.0
		}
	}
}
