{
	 "smiles": "NS(=O)(=O)C1=CC(C(O)=O)=C(Cl)C(Br)=C1", 
	 "Tm": 493.15, 
	 "num_atms": 20, 
	 "gaussian": { 
		 "optdone": 1, 
		 "sigma_profile": "yes", 
		 "theory": "DFT", 
		 "functional": "B3LYP", 
		 "basiset": "6-31G**", 
		 "properties": { 
			 "R2extent": 6678.1706, 
			 "electric_dipole_moment_norm": 3.70783545482, 
			 "electric_quadrupole_moment_norm": 23.7295910392, 
			 "total_energy": -4055.11320354, 
			 "HOMO_LUMO_gap": 0.19254, 
			 "cosmo_polarized_energy": -20.06, 
			 "cosmo_cavitation_energy": 30.59, 
			 "cosmo_dispersion_energy": -23.5, 
			 "cosmo_repulsion_energy": 1.8, 
			 "cosmo_total_nonelectrostatic_energy": 8.88, 
			 "SMD_solvation_energy": 4.76 
		},
		"coords": [
			{
				"x": 0.1946573345,
				"y": -0.8432865361,
				"z": 2.3468922431,
				"element": "N" 
			},
			{
				"x": -1.0945042461,
				"y": -1.3107062394,
				"z": 1.3639207069,
				"element": "S" 
			},
			{
				"x": -1.013573062,
				"y": -2.7600970983,
				"z": 1.1836557568,
				"element": "O" 
			},
			{
				"x": -2.2938966803,
				"y": -0.6355351356,
				"z": 1.8643349008,
				"element": "O" 
			},
			{
				"x": -0.6880582206,
				"y": -0.5540036098,
				"z": -0.2180058457,
				"element": "C" 
			},
			{
				"x": 0.2048055392,
				"y": -1.1833881375,
				"z": -1.0736109837,
				"element": "C" 
			},
			{
				"x": 0.5277662538,
				"y": -0.6171734048,
				"z": -2.3141120881,
				"element": "C" 
			},
			{
				"x": 1.5307909028,
				"y": -1.4427499763,
				"z": -3.1129426205,
				"element": "C" 
			},
			{
				"x": 1.6483448333,
				"y": -1.2496870329,
				"z": -4.4350448843,
				"element": "O" 
			},
			{
				"x": 2.1890847094,
				"y": -2.2929343072,
				"z": -2.5607032668,
				"element": "O" 
			},
			{
				"x": -0.0757662344,
				"y": 0.6090630519,
				"z": -2.6625639134,
				"element": "C" 
			},
			{
				"x": 0.2920337837,
				"y": 1.4108713821,
				"z": -4.1812659783,
				"element": "Cl" 
			},
			{
				"x": -0.9793746501,
				"y": 1.235438136,
				"z": -1.7877082538,
				"element": "C" 
			},
			{
				"x": -1.8135523104,
				"y": 2.8873488179,
				"z": -2.2136119907,
				"element": "Br" 
			},
			{
				"x": -1.29265202,
				"y": 0.6496724057,
				"z": -0.5632292425,
				"element": "C" 
			},
			{
				"x": 0.7152886038,
				"y": -1.6610062442,
				"z": 2.652829043,
				"element": "H" 
			},
			{
				"x": -0.1486338499,
				"y": -0.2942994992,
				"z": 3.1303307496,
				"element": "H" 
			},
			{
				"x": 0.6700684465,
				"y": -2.125862103,
				"z": -0.8111422836,
				"element": "H" 
			},
			{
				"x": 1.0842064418,
				"y": -0.5234137421,
				"z": -4.7454814535,
				"element": "H" 
			},
			{
				"x": -2.004035575,
				"y": 1.1184492725,
				"z": 0.1055594048,
				"element": "H" 
			}
		],
		 "valence_orbital": [ 
			{
				"type": "occ",
				"energy": -0.31687,
				"method": "rhf"
			},
			{
				"type": "occ",
				"energy": -0.31359,
				"method": "rhf"
			},
			{
				"type": "occ",
				"energy": -0.29582,
				"method": "rhf"
			},
			{
				"type": "occ",
				"energy": -0.29068,
				"method": "rhf"
			},
			{
				"type": "occ",
				"energy": -0.27766,
				"method": "rhf"
			},
			{
				"type": "unocc",
				"energy": -0.08512,
				"method": "rhf"
			},
			{
				"type": "unocc",
				"energy": -0.06602,
				"method": "rhf"
			},
			{
				"type": "unocc",
				"energy": -0.04483,
				"method": "rhf"
			},
			{
				"type": "unocc",
				"energy": 0.01075,
				"method": "rhf"
			},
			{
				"type": "unocc",
				"energy": 0.01453,
				"method": "rhf"
			}
		],
		"cosmo_sigma_profile": { 
			"-0.025": 0.0,
			"-0.024": 0.0,
			"-0.023": 0.0,
			"-0.022": 0.0,
			"-0.021": 0.0,
			"-0.02": 0.0,
			"-0.019": 0.0,
			"-0.018": 0.0,
			"-0.017": 0.0,
			"-0.016": 0.248340135264,
			"-0.015": 2.21767980094,
			"-0.014": 3.50186300759,
			"-0.013": 4.19654678492,
			"-0.012": 2.68254578248,
			"-0.011": 4.06102215456,
			"-0.01": 2.45144158407,
			"-0.009": 2.63488890508,
			"-0.008": 5.40285872134,
			"-0.007": 6.02543834952,
			"-0.006": 8.89457619787,
			"-0.005": 12.2384741492,
			"-0.004": 14.1698044373,
			"-0.003": 20.7478835402,
			"-0.002": 20.2796520989,
			"-0.001": 16.001239429,
			"0.0": 13.6215526554,
			"0.001": 15.1635070713,
			"0.002": 16.3735603316,
			"0.003": 14.9406625996,
			"0.004": 5.733023296,
			"0.005": 5.19107371851,
			"0.006": 5.32909205939,
			"0.007": 5.67470387457,
			"0.008": 6.52307059498,
			"0.009": 10.2813837749,
			"0.01": 14.6042427703,
			"0.011": 10.2151019133,
			"0.012": 1.7493263212,
			"0.013": 0.0914941067455,
			"0.014": 0.0,
			"0.015": 0.0,
			"0.016": 0.0,
			"0.017": 0.0,
			"0.018": 0.0,
			"0.019": 0.0,
			"0.02": 0.0,
			"0.021": 0.0,
			"0.022": 0.0,
			"0.023": 0.0,
			"0.024": 0.0,
			"0.025": 0.0
		}
	}
}
