{
	 "smiles": "CN1N=C(C)C(I)=C1C", 
	 "Tm": 346.15, 
	 "num_atms": 18, 
	 "gaussian": { 
		 "optdone": 1, 
		 "sigma_profile": "no", 
		 "theory": "DFT", 
		 "functional": "B3LYP", 
		 "basiset": "6-31G**", 
		 "properties": { 
			 "R2extent": 1407.7861, 
			 "electric_dipole_moment_norm": 2.75846034592, 
			 "electric_quadrupole_moment_norm": 7.52758808517, 
			 "total_energy": -354.945021681, 
			 "HOMO_LUMO_gap": 0.19794, 
			 "cosmo_polarized_energy": -85780.63, 
			 "cosmo_cavitation_energy": 24.3, 
			 "cosmo_dispersion_energy": -18.97, 
			 "cosmo_repulsion_energy": 1.53, 
			 "cosmo_total_nonelectrostatic_energy": 6.85, 
			 "SMD_solvation_energy": 2.65 
		},
		"coords": [
			{
				"x": -0.4962680056,
				"y": 0.7015588052,
				"z": 2.3462887042,
				"element": "C" 
			},
			{
				"x": -0.4284915026,
				"y": 0.223746895,
				"z": 0.9787637816,
				"element": "N" 
			},
			{
				"x": 0.4849058328,
				"y": 0.7615352261,
				"z": 0.1306441057,
				"element": "N" 
			},
			{
				"x": 0.3122579333,
				"y": 0.1335467559,
				"z": -1.0319072565,
				"element": "C" 
			},
			{
				"x": 1.155815331,
				"y": 0.4690936749,
				"z": -2.2203136964,
				"element": "C" 
			},
			{
				"x": -0.7308841164,
				"y": -0.8191096073,
				"z": -0.9136838544,
				"element": "C" 
			},
			{
				"x": -1.4389462303,
				"y": -2.0930372903,
				"z": -2.4107567405,
				"element": "I" 
			},
			{
				"x": -1.1922999501,
				"y": -0.7410854845,
				"z": 0.3939816859,
				"element": "C" 
			},
			{
				"x": -2.2656873705,
				"y": -1.4805076186,
				"z": 1.1220525628,
				"element": "C" 
			},
			{
				"x": 0.2634215015,
				"y": 1.4753837395,
				"z": 2.4498815745,
				"element": "H" 
			},
			{
				"x": -1.4801913322,
				"y": 1.1280619673,
				"z": 2.5676691952,
				"element": "H" 
			},
			{
				"x": -0.2908605318,
				"y": -0.1051272126,
				"z": 3.057733087,
				"element": "H" 
			},
			{
				"x": 1.7172920052,
				"y": -0.4038563066,
				"z": -2.5709077705,
				"element": "H" 
			},
			{
				"x": 1.8646580409,
				"y": 1.2559232222,
				"z": -1.9543563148,
				"element": "H" 
			},
			{
				"x": 0.5435365931,
				"y": 0.8183921472,
				"z": -3.0589371211,
				"element": "H" 
			},
			{
				"x": -2.740380185,
				"y": -2.2007621273,
				"z": 0.4533124925,
				"element": "H" 
			},
			{
				"x": -1.8671002082,
				"y": -2.0313608157,
				"z": 1.9822829623,
				"element": "H" 
			},
			{
				"x": -3.0434778049,
				"y": -0.8035959706,
				"z": 1.4950526026,
				"element": "H" 
			}
		],
		 "valence_orbital": [ 
			{
				"type": "occ",
				"energy": -0.29395,
				"method": "rhf"
			},
			{
				"type": "occ",
				"energy": -0.28848,
				"method": "rhf"
			},
			{
				"type": "occ",
				"energy": -0.26267,
				"method": "rhf"
			},
			{
				"type": "occ",
				"energy": -0.23892,
				"method": "rhf"
			},
			{
				"type": "occ",
				"energy": -0.22181,
				"method": "rhf"
			},
			{
				"type": "unocc",
				"energy": -0.02387,
				"method": "rhf"
			},
			{
				"type": "unocc",
				"energy": 0.01764,
				"method": "rhf"
			},
			{
				"type": "unocc",
				"energy": 0.04255,
				"method": "rhf"
			},
			{
				"type": "unocc",
				"energy": 0.05075,
				"method": "rhf"
			},
			{
				"type": "unocc",
				"energy": 0.0551,
				"method": "rhf"
			}
		],
		"cosmo_sigma_profile": { 
			"0.0": 0.0,
			"0.0": 0.0,
			"0.0": 0.0,
			"0.0": 0.0,
			"0.0": 0.0,
			"0.0": 0.0,
			"0.0": 0.0,
			"0.0": 0.0,
			"0.0": 0.0,
			"0.0": 0.0,
			"0.0": 0.0,
			"0.0": 0.0,
			"0.0": 0.0,
			"0.0": 0.0,
			"0.0": 0.0,
			"0.0": 0.0,
			"0.0": 0.0,
			"0.0": 0.0,
			"0.0": 0.0,
			"0.0": 0.0,
			"0.0": 0.0,
			"0.0": 0.0,
			"0.0": 0.0,
			"0.0": 0.0,
			"0.0": 0.0,
			"0.0": 0.0,
			"0.0": 0.0,
			"0.0": 0.0,
			"0.0": 0.0,
			"0.0": 0.0,
			"0.0": 0.0,
			"0.0": 0.0,
			"0.0": 0.0,
			"0.0": 0.0,
			"0.0": 0.0,
			"0.0": 0.0,
			"0.0": 0.0,
			"0.0": 0.0,
			"0.0": 0.0,
			"0.0": 0.0,
			"0.0": 0.0,
			"0.0": 0.0,
			"0.0": 0.0,
			"0.0": 0.0,
			"0.0": 0.0,
			"0.0": 0.0,
			"0.0": 0.0,
			"0.0": 0.0,
			"0.0": 0.0,
			"0.0": 0.0,
			"0.0": 0.0
		}
	}
}
