{
	 "smiles": "CCSC1=CC=C(CC(O)=O)C=C1", 
	 "Tm": 348.15, 
	 "num_atms": 25, 
	 "gaussian": { 
		 "optdone": 1, 
		 "sigma_profile": "yes", 
		 "theory": "DFT", 
		 "functional": "B3LYP", 
		 "basiset": "6-31G**", 
		 "properties": { 
			 "R2extent": 4079.9239, 
			 "electric_dipole_moment_norm": 1.7793614304, 
			 "electric_quadrupole_moment_norm": 14.1752207373, 
			 "total_energy": -936.953823631, 
			 "HOMO_LUMO_gap": 0.1953, 
			 "cosmo_polarized_energy": -11.41, 
			 "cosmo_cavitation_energy": 30.83, 
			 "cosmo_dispersion_energy": -22.0, 
			 "cosmo_repulsion_energy": 1.74, 
			 "cosmo_total_nonelectrostatic_energy": 10.57, 
			 "SMD_solvation_energy": 5.96 
		},
		"coords": [
			{
				"x": 1.0488554728,
				"y": 3.9094262624,
				"z": -1.0804914135,
				"element": "C" 
			},
			{
				"x": 0.5387345262,
				"y": 3.2288629182,
				"z": -2.3471564456,
				"element": "C" 
			},
			{
				"x": 1.3796083765,
				"y": 1.634555531,
				"z": -2.7482286562,
				"element": "S" 
			},
			{
				"x": 0.7980442669,
				"y": 0.5783205283,
				"z": -1.4187237072,
				"element": "C" 
			},
			{
				"x": -0.5441113896,
				"y": 0.1744195901,
				"z": -1.3485507277,
				"element": "C" 
			},
			{
				"x": -0.9753361989,
				"y": -0.6711485968,
				"z": -0.3301033433,
				"element": "C" 
			},
			{
				"x": -0.0719720312,
				"y": -1.1530297766,
				"z": 0.6288039498,
				"element": "C" 
			},
			{
				"x": -0.5468358478,
				"y": -2.0780394314,
				"z": 1.7395514406,
				"element": "C" 
			},
			{
				"x": -1.1298521694,
				"y": -3.3616695418,
				"z": 1.1753846891,
				"element": "C" 
			},
			{
				"x": -0.2374629618,
				"y": -4.3779318236,
				"z": 1.1967853362,
				"element": "O" 
			},
			{
				"x": -2.2497486443,
				"y": -3.4802985372,
				"z": 0.7282069535,
				"element": "O" 
			},
			{
				"x": 1.2688310582,
				"y": -0.76776001,
				"z": 0.5433758101,
				"element": "C" 
			},
			{
				"x": 1.7012301295,
				"y": 0.0976456163,
				"z": -0.4638745086,
				"element": "C" 
			},
			{
				"x": 0.892832326,
				"y": 3.2744454856,
				"z": -0.203515306,
				"element": "H" 
			},
			{
				"x": 2.1177353093,
				"y": 4.1289647419,
				"z": -1.1550835447,
				"element": "H" 
			},
			{
				"x": 0.5136531163,
				"y": 4.8518393908,
				"z": -0.9144644823,
				"element": "H" 
			},
			{
				"x": -0.5390216442,
				"y": 3.0478374898,
				"z": -2.2959120633,
				"element": "H" 
			},
			{
				"x": 0.7215453061,
				"y": 3.8492404464,
				"z": -3.2304637448,
				"element": "H" 
			},
			{
				"x": -1.2486405605,
				"y": 0.5177412814,
				"z": -2.1002033997,
				"element": "H" 
			},
			{
				"x": -2.0141289471,
				"y": -0.9854221573,
				"z": -0.2880424222,
				"element": "H" 
			},
			{
				"x": -1.3436930473,
				"y": -1.5964619467,
				"z": 2.3153591495,
				"element": "H" 
			},
			{
				"x": 0.2783169283,
				"y": -2.3143407957,
				"z": 2.414473957,
				"element": "H" 
			},
			{
				"x": -0.6823802097,
				"y": -5.138522632,
				"z": 0.7851537651,
				"element": "H" 
			},
			{
				"x": 1.9829514584,
				"y": -1.1362854228,
				"z": 1.2752569253,
				"element": "H" 
			},
			{
				"x": 2.7418453771,
				"y": 0.4020113897,
				"z": -0.5119382109,
				"element": "H" 
			}
		],
		 "valence_orbital": [ 
			{
				"type": "occ",
				"energy": -0.31301,
				"method": "rhf"
			},
			{
				"type": "occ",
				"energy": -0.2807,
				"method": "rhf"
			},
			{
				"type": "occ",
				"energy": -0.25779,
				"method": "rhf"
			},
			{
				"type": "occ",
				"energy": -0.25374,
				"method": "rhf"
			},
			{
				"type": "occ",
				"energy": -0.21968,
				"method": "rhf"
			},
			{
				"type": "unocc",
				"energy": -0.02438,
				"method": "rhf"
			},
			{
				"type": "unocc",
				"energy": -0.01025,
				"method": "rhf"
			},
			{
				"type": "unocc",
				"energy": 0.00962,
				"method": "rhf"
			},
			{
				"type": "unocc",
				"energy": 0.05139,
				"method": "rhf"
			},
			{
				"type": "unocc",
				"energy": 0.07549,
				"method": "rhf"
			}
		],
		"cosmo_sigma_profile": { 
			"-0.025": 0.0,
			"-0.024": 0.0,
			"-0.023": 0.0,
			"-0.022": 0.0,
			"-0.021": 0.0,
			"-0.02": 0.0,
			"-0.019": 0.0597540251111,
			"-0.018": 0.792513859014,
			"-0.017": 0.960984520275,
			"-0.016": 0.848844405247,
			"-0.015": 0.6645350154,
			"-0.014": 0.325725599131,
			"-0.013": 0.614144074459,
			"-0.012": 1.16364313552,
			"-0.011": 0.869613927879,
			"-0.01": 0.628063772059,
			"-0.009": 0.653684765881,
			"-0.008": 0.634338607248,
			"-0.007": 3.1028308555,
			"-0.006": 12.2447067526,
			"-0.005": 17.495942185,
			"-0.004": 17.9446639479,
			"-0.003": 20.2078862146,
			"-0.002": 21.3338637575,
			"-0.001": 19.360807843,
			"0.0": 19.4070034871,
			"0.001": 19.8799780227,
			"0.002": 14.6922038554,
			"0.003": 14.97160787,
			"0.004": 14.8030639601,
			"0.005": 8.38428175307,
			"0.006": 7.01468816773,
			"0.007": 5.47684745251,
			"0.008": 4.80137766429,
			"0.009": 4.69103388021,
			"0.01": 3.9001045104,
			"0.011": 3.74630940358,
			"0.012": 3.77906661534,
			"0.013": 0.120620754312,
			"0.014": 0.0,
			"0.015": 0.0,
			"0.016": 0.0,
			"0.017": 0.0,
			"0.018": 0.0,
			"0.019": 0.0,
			"0.02": 0.0,
			"0.021": 0.0,
			"0.022": 0.0,
			"0.023": 0.0,
			"0.024": 0.0,
			"0.025": 0.0
		}
	}
}
