{
	 "smiles": "NC1=C(OCC(F)(F)F)C=CC(=C1)C(O)=O", 
	 "Tm": 450.15, 
	 "num_atms": 24, 
	 "gaussian": { 
		 "optdone": 1, 
		 "sigma_profile": "yes", 
		 "theory": "DFT", 
		 "functional": "B3LYP", 
		 "basiset": "6-31G**", 
		 "properties": { 
			 "R2extent": 5767.537, 
			 "electric_dipole_moment_norm": 4.59659313949, 
			 "electric_quadrupole_moment_norm": 29.6724057865, 
			 "total_energy": -927.727836374, 
			 "HOMO_LUMO_gap": 0.17393, 
			 "cosmo_polarized_energy": -20.34, 
			 "cosmo_cavitation_energy": 30.69, 
			 "cosmo_dispersion_energy": -21.68, 
			 "cosmo_repulsion_energy": 1.63, 
			 "cosmo_total_nonelectrostatic_energy": 10.63, 
			 "SMD_solvation_energy": 7.67 
		},
		"coords": [
			{
				"x": -0.4776446948,
				"y": 2.4513438056,
				"z": -2.3615413545,
				"element": "N" 
			},
			{
				"x": -0.5224077303,
				"y": 1.1302925714,
				"z": -1.9422340024,
				"element": "C" 
			},
			{
				"x": -0.582769049,
				"y": 0.8450714092,
				"z": -0.555376772,
				"element": "C" 
			},
			{
				"x": -0.502492045,
				"y": 1.9580202538,
				"z": 0.2458706937,
				"element": "O" 
			},
			{
				"x": -0.5369152665,
				"y": 1.7846258181,
				"z": 1.6439429897,
				"element": "C" 
			},
			{
				"x": -0.3940833535,
				"y": 3.1597958156,
				"z": 2.2721120999,
				"element": "C" 
			},
			{
				"x": -1.3978922384,
				"y": 3.9784798273,
				"z": 1.9154548148,
				"element": "F" 
			},
			{
				"x": -0.4109015564,
				"y": 3.0319637192,
				"z": 3.6151272774,
				"element": "F" 
			},
			{
				"x": 0.7643344434,
				"y": 3.7469393784,
				"z": 1.9211934187,
				"element": "F" 
			},
			{
				"x": -0.7140500741,
				"y": -0.4623261687,
				"z": -0.0963346564,
				"element": "C" 
			},
			{
				"x": -0.7782534505,
				"y": -1.5200304013,
				"z": -1.0054189177,
				"element": "C" 
			},
			{
				"x": -0.6922716707,
				"y": -1.2679785255,
				"z": -2.3752392263,
				"element": "C" 
			},
			{
				"x": -0.5739082236,
				"y": 0.055405857,
				"z": -2.8331525999,
				"element": "C" 
			},
			{
				"x": -0.7573728909,
				"y": -2.4397629546,
				"z": -3.3033568858,
				"element": "C" 
			},
			{
				"x": -0.2549993903,
				"y": -2.2544874112,
				"z": -4.5571300274,
				"element": "O" 
			},
			{
				"x": -1.2188169564,
				"y": -3.5137392258,
				"z": -2.9948355263,
				"element": "O" 
			},
			{
				"x": -0.1810250499,
				"y": 3.1146194428,
				"z": -1.6603226557,
				"element": "H" 
			},
			{
				"x": -0.0821587816,
				"y": 2.6168972143,
				"z": -3.2750626526,
				"element": "H" 
			},
			{
				"x": -1.4863981689,
				"y": 1.3487194657,
				"z": 1.9780392411,
				"element": "H" 
			},
			{
				"x": 0.2899849441,
				"y": 1.1571406443,
				"z": 1.9989991089,
				"element": "H" 
			},
			{
				"x": -0.7662467275,
				"y": -0.6700771349,
				"z": 0.9663373367,
				"element": "H" 
			},
			{
				"x": -0.8896495293,
				"y": -2.5426559994,
				"z": -0.6650765113,
				"element": "H" 
			},
			{
				"x": -0.579655657,
				"y": 0.2790595515,
				"z": -3.8978655945,
				"element": "H" 
			},
			{
				"x": 0.2342931172,
				"y": -1.4212169525,
				"z": -4.5937295982,
				"element": "H" 
			}
		],
		 "valence_orbital": [ 
			{
				"type": "occ",
				"energy": -0.32966,
				"method": "rhf"
			},
			{
				"type": "occ",
				"energy": -0.30819,
				"method": "rhf"
			},
			{
				"type": "occ",
				"energy": -0.26905,
				"method": "rhf"
			},
			{
				"type": "occ",
				"energy": -0.25777,
				"method": "rhf"
			},
			{
				"type": "occ",
				"energy": -0.21508,
				"method": "rhf"
			},
			{
				"type": "unocc",
				"energy": -0.04115,
				"method": "rhf"
			},
			{
				"type": "unocc",
				"energy": -0.01117,
				"method": "rhf"
			},
			{
				"type": "unocc",
				"energy": 0.05479,
				"method": "rhf"
			},
			{
				"type": "unocc",
				"energy": 0.05765,
				"method": "rhf"
			},
			{
				"type": "unocc",
				"energy": 0.07092,
				"method": "rhf"
			}
		],
		"cosmo_sigma_profile": { 
			"-0.025": 0.0,
			"-0.024": 0.0,
			"-0.023": 0.0,
			"-0.022": 0.0,
			"-0.021": 0.0,
			"-0.02": 0.0,
			"-0.019": 0.0,
			"-0.018": 0.312093534187,
			"-0.017": 1.12011636061,
			"-0.016": 0.878283297178,
			"-0.015": 0.730361758643,
			"-0.014": 1.35075439913,
			"-0.013": 1.93289048598,
			"-0.012": 2.92781951034,
			"-0.011": 3.2780914386,
			"-0.01": 4.12432990513,
			"-0.009": 9.38528838599,
			"-0.008": 11.9101680853,
			"-0.007": 8.11340894315,
			"-0.006": 8.16658579077,
			"-0.005": 8.38835226476,
			"-0.004": 7.36515039792,
			"-0.003": 7.20782083084,
			"-0.002": 9.22515846467,
			"-0.001": 9.63504357428,
			"0.0": 12.8796782518,
			"0.001": 14.7661556122,
			"0.002": 33.8497579911,
			"0.003": 32.3645370048,
			"0.004": 14.1546117668,
			"0.005": 5.84839249414,
			"0.006": 3.30014726508,
			"0.007": 3.59831045381,
			"0.008": 3.78599644457,
			"0.009": 3.49878019972,
			"0.01": 4.56919759364,
			"0.011": 6.31312709901,
			"0.012": 6.31174902573,
			"0.013": 3.03431129767,
			"0.014": 0.336801579524,
			"0.015": 0.0,
			"0.016": 0.0,
			"0.017": 0.0,
			"0.018": 0.0,
			"0.019": 0.0,
			"0.02": 0.0,
			"0.021": 0.0,
			"0.022": 0.0,
			"0.023": 0.0,
			"0.024": 0.0,
			"0.025": 0.0
		}
	}
}
