{
	 "smiles": "NN1C(=O)NN=C1CC1=CC=C(Cl)C=C1", 
	 "Tm": 454.0, 
	 "num_atms": 24, 
	 "gaussian": { 
		 "optdone": 1, 
		 "sigma_profile": "yes", 
		 "theory": "DFT", 
		 "functional": "B3LYP", 
		 "basiset": "6-31G**", 
		 "properties": { 
			 "R2extent": 4934.5076, 
			 "electric_dipole_moment_norm": 1.76645120793, 
			 "electric_quadrupole_moment_norm": 13.8995668562, 
			 "total_energy": -1102.77835581, 
			 "HOMO_LUMO_gap": 0.20591, 
			 "cosmo_polarized_energy": -16.39, 
			 "cosmo_cavitation_energy": 31.08, 
			 "cosmo_dispersion_energy": -22.09, 
			 "cosmo_repulsion_energy": 1.76, 
			 "cosmo_total_nonelectrostatic_energy": 10.75, 
			 "SMD_solvation_energy": 5.3 
		},
		"coords": [
			{
				"x": -1.9209406488,
				"y": -2.0124826755,
				"z": 0.4562091399,
				"element": "N" 
			},
			{
				"x": -2.0523034897,
				"y": -1.1987778434,
				"z": 1.5836018382,
				"element": "N" 
			},
			{
				"x": -1.9156043596,
				"y": -1.6421495824,
				"z": 2.9103112118,
				"element": "C" 
			},
			{
				"x": -1.6435106949,
				"y": -2.7717993708,
				"z": 3.2858802937,
				"element": "O" 
			},
			{
				"x": -2.186226723,
				"y": -0.4870172803,
				"z": 3.6034493803,
				"element": "N" 
			},
			{
				"x": -2.4866527168,
				"y": 0.5982583076,
				"z": 2.7973263146,
				"element": "N" 
			},
			{
				"x": -2.4023197418,
				"y": 0.1356778864,
				"z": 1.5822339266,
				"element": "C" 
			},
			{
				"x": -2.6012589793,
				"y": 0.9447379867,
				"z": 0.3409184173,
				"element": "C" 
			},
			{
				"x": -1.294467934,
				"y": 1.3040480094,
				"z": -0.3535176539,
				"element": "C" 
			},
			{
				"x": -0.9856860083,
				"y": 0.7953153467,
				"z": -1.618783817,
				"element": "C" 
			},
			{
				"x": 0.2081937678,
				"y": 1.1330273644,
				"z": -2.2589575486,
				"element": "C" 
			},
			{
				"x": 1.1022403712,
				"y": 1.9875987145,
				"z": -1.6176596242,
				"element": "C" 
			},
			{
				"x": 2.6093753671,
				"y": 2.4207936676,
				"z": -2.4139346522,
				"element": "Cl" 
			},
			{
				"x": 0.8215013314,
				"y": 2.5046592844,
				"z": -0.3523841718,
				"element": "C" 
			},
			{
				"x": -0.3754810039,
				"y": 2.1575357317,
				"z": 0.2711281635,
				"element": "C" 
			},
			{
				"x": -0.942328136,
				"y": -2.2873641113,
				"z": 0.3777378343,
				"element": "H" 
			},
			{
				"x": -2.4483917871,
				"y": -2.8654314495,
				"z": 0.6393258351,
				"element": "H" 
			},
			{
				"x": -2.2150392096,
				"y": -0.3960102677,
				"z": 4.6055956756,
				"element": "H" 
			},
			{
				"x": -3.2433090115,
				"y": 0.3884594806,
				"z": -0.3484150593,
				"element": "H" 
			},
			{
				"x": -3.1336200974,
				"y": 1.8528055869,
				"z": 0.6398972802,
				"element": "H" 
			},
			{
				"x": -1.6817716269,
				"y": 0.1223684264,
				"z": -2.1111112451,
				"element": "H" 
			},
			{
				"x": 0.4420050766,
				"y": 0.7378722058,
				"z": -3.2414001379,
				"element": "H" 
			},
			{
				"x": 1.5287298,
				"y": 3.1678866913,
				"z": 0.1333257957,
				"element": "H" 
			},
			{
				"x": -0.5973335455,
				"y": 2.5506878904,
				"z": 1.2597228034,
				"element": "H" 
			}
		],
		 "valence_orbital": [ 
			{
				"type": "occ",
				"energy": -0.30177,
				"method": "rhf"
			},
			{
				"type": "occ",
				"energy": -0.26751,
				"method": "rhf"
			},
			{
				"type": "occ",
				"energy": -0.26551,
				"method": "rhf"
			},
			{
				"type": "occ",
				"energy": -0.2459,
				"method": "rhf"
			},
			{
				"type": "occ",
				"energy": -0.22686,
				"method": "rhf"
			},
			{
				"type": "unocc",
				"energy": -0.02095,
				"method": "rhf"
			},
			{
				"type": "unocc",
				"energy": -0.01883,
				"method": "rhf"
			},
			{
				"type": "unocc",
				"energy": 0.01891,
				"method": "rhf"
			},
			{
				"type": "unocc",
				"energy": 0.02888,
				"method": "rhf"
			},
			{
				"type": "unocc",
				"energy": 0.05394,
				"method": "rhf"
			}
		],
		"cosmo_sigma_profile": { 
			"-0.025": 0.0,
			"-0.024": 0.0,
			"-0.023": 0.0,
			"-0.022": 0.0,
			"-0.021": 0.0,
			"-0.02": 0.0,
			"-0.019": 0.0,
			"-0.018": 0.0,
			"-0.017": 0.447370296283,
			"-0.016": 1.60740134905,
			"-0.015": 0.613569400292,
			"-0.014": 1.55708411999,
			"-0.013": 2.85645006173,
			"-0.012": 3.61354014135,
			"-0.011": 3.74400741062,
			"-0.01": 2.68038175195,
			"-0.009": 2.82802223125,
			"-0.008": 2.47081597826,
			"-0.007": 6.67262119501,
			"-0.006": 13.3722709107,
			"-0.005": 14.3101890219,
			"-0.004": 12.8598192149,
			"-0.003": 13.8525971852,
			"-0.002": 16.376446019,
			"-0.001": 13.8978510365,
			"0.0": 15.3906119377,
			"0.001": 17.0596719902,
			"0.002": 19.3859469898,
			"0.003": 21.2021240532,
			"0.004": 19.9870814327,
			"0.005": 10.4724433928,
			"0.006": 3.78954520711,
			"0.007": 2.88741273178,
			"0.008": 3.41822429971,
			"0.009": 3.16502375761,
			"0.01": 2.00730344703,
			"0.011": 1.85934693923,
			"0.012": 3.03209976765,
			"0.013": 5.51649025579,
			"0.014": 6.37185443984,
			"0.015": 0.564641851873,
			"0.016": 0.0,
			"0.017": 0.0,
			"0.018": 0.0,
			"0.019": 0.0,
			"0.02": 0.0,
			"0.021": 0.0,
			"0.022": 0.0,
			"0.023": 0.0,
			"0.024": 0.0,
			"0.025": 0.0
		}
	}
}
