{
	 "smiles": "NN1C(S)=NN=C1C(F)(F)F", 
	 "Tm": 414.15, 
	 "num_atms": 14, 
	 "gaussian": { 
		 "optdone": 1, 
		 "sigma_profile": "yes", 
		 "theory": "DFT", 
		 "functional": "B3LYP", 
		 "basiset": "6-31G**", 
		 "properties": { 
			 "R2extent": 3756.9511, 
			 "electric_dipole_moment_norm": 6.32863652061, 
			 "electric_quadrupole_moment_norm": 19.8051199143, 
			 "total_energy": -1032.76252004, 
			 "HOMO_LUMO_gap": 0.23662, 
			 "cosmo_polarized_energy": -22.06, 
			 "cosmo_cavitation_energy": 22.37, 
			 "cosmo_dispersion_energy": -16.37, 
			 "cosmo_repulsion_energy": 1.22, 
			 "cosmo_total_nonelectrostatic_energy": 7.22, 
			 "SMD_solvation_energy": 3.14 
		},
		"coords": [
			{
				"x": -0.237373398,
				"y": -0.4070531967,
				"z": -0.366562689,
				"element": "N" 
			},
			{
				"x": -1.6045023803,
				"y": -0.6252596407,
				"z": -0.5084795358,
				"element": "N" 
			},
			{
				"x": -2.5944799997,
				"y": 0.1527361992,
				"z": -1.0735242931,
				"element": "C" 
			},
			{
				"x": -2.3708201442,
				"y": 1.7354594399,
				"z": -1.8143331126,
				"element": "S" 
			},
			{
				"x": -3.7550663967,
				"y": -0.4507161343,
				"z": -0.9874203908,
				"element": "N" 
			},
			{
				"x": -3.5470553055,
				"y": -1.6620941261,
				"z": -0.3513540981,
				"element": "N" 
			},
			{
				"x": -2.2745656414,
				"y": -1.7484659511,
				"z": -0.076177318,
				"element": "C" 
			},
			{
				"x": -1.5978430111,
				"y": -2.8957353188,
				"z": 0.6137999544,
				"element": "C" 
			},
			{
				"x": -0.9967667951,
				"y": -2.49051556,
				"z": 1.7524603837,
				"element": "F" 
			},
			{
				"x": -2.4855567184,
				"y": -3.8457999024,
				"z": 0.92062585,
				"element": "F" 
			},
			{
				"x": -0.6452401377,
				"y": -3.4405340817,
				"z": -0.1722023033,
				"element": "F" 
			},
			{
				"x": -0.0627061128,
				"y": 0.4116872827,
				"z": 0.2088430234,
				"element": "H" 
			},
			{
				"x": 0.2083617796,
				"y": -0.3214409595,
				"z": -1.2753678079,
				"element": "H" 
			},
			{
				"x": -1.0406857385,
				"y": 1.7873319494,
				"z": -1.596707663,
				"element": "H" 
			}
		],
		 "valence_orbital": [ 
			{
				"type": "occ",
				"energy": -0.33784,
				"method": "rhf"
			},
			{
				"type": "occ",
				"energy": -0.33046,
				"method": "rhf"
			},
			{
				"type": "occ",
				"energy": -0.32097,
				"method": "rhf"
			},
			{
				"type": "occ",
				"energy": -0.27092,
				"method": "rhf"
			},
			{
				"type": "occ",
				"energy": -0.25661,
				"method": "rhf"
			},
			{
				"type": "unocc",
				"energy": -0.01999,
				"method": "rhf"
			},
			{
				"type": "unocc",
				"energy": -0.0156,
				"method": "rhf"
			},
			{
				"type": "unocc",
				"energy": 0.01677,
				"method": "rhf"
			},
			{
				"type": "unocc",
				"energy": 0.02125,
				"method": "rhf"
			},
			{
				"type": "unocc",
				"energy": 0.05452,
				"method": "rhf"
			}
		],
		"cosmo_sigma_profile": { 
			"-0.025": 0.0,
			"-0.024": 0.0,
			"-0.023": 0.0,
			"-0.022": 0.0,
			"-0.021": 0.0,
			"-0.02": 0.0,
			"-0.019": 0.0,
			"-0.018": 0.0,
			"-0.017": 0.0,
			"-0.016": 0.143622170283,
			"-0.015": 5.5445430972,
			"-0.014": 7.80310125207,
			"-0.013": 4.3420688616,
			"-0.012": 3.66868494837,
			"-0.011": 2.51630484907,
			"-0.01": 2.03808487987,
			"-0.009": 1.59310075223,
			"-0.008": 3.10136686701,
			"-0.007": 1.93027972247,
			"-0.006": 2.77323613034,
			"-0.005": 3.41187731148,
			"-0.004": 4.78433251092,
			"-0.003": 7.43854626266,
			"-0.002": 5.99720901756,
			"-0.001": 7.73566615891,
			"0.0": 10.1448167405,
			"0.001": 15.4730138322,
			"0.002": 31.3726783319,
			"0.003": 15.8670235475,
			"0.004": 7.73116700176,
			"0.005": 6.1163909365,
			"0.006": 4.4699031693,
			"0.007": 3.40061451093,
			"0.008": 3.45859206381,
			"0.009": 3.06694811958,
			"0.01": 2.70730272944,
			"0.011": 3.48349438259,
			"0.012": 3.34247420656,
			"0.013": 2.52048431721,
			"0.014": 2.52380695276,
			"0.015": 1.3581253047,
			"0.016": 0.175473967666,
			"0.017": 0.0,
			"0.018": 0.0,
			"0.019": 0.0,
			"0.02": 0.0,
			"0.021": 0.0,
			"0.022": 0.0,
			"0.023": 0.0,
			"0.024": 0.0,
			"0.025": 0.0
		}
	}
}
