{
	 "smiles": "CC(C)(C)C1=CC(=NN1)C(F)(F)F", 
	 "Tm": 452.15, 
	 "num_atms": 24, 
	 "gaussian": { 
		 "optdone": 1, 
		 "sigma_profile": "no", 
		 "theory": "DFT", 
		 "functional": "B3LYP", 
		 "basiset": "6-31G**", 
		 "properties": { 
			 "R2extent": 3452.4112, 
			 "electric_dipole_moment_norm": 5.29463931633, 
			 "electric_quadrupole_moment_norm": 11.008468448, 
			 "total_energy": -720.503184576, 
			 "HOMO_LUMO_gap": 0.25194, 
			 "cosmo_polarized_energy": -5.08, 
			 "cosmo_cavitation_energy": 28.65, 
			 "cosmo_dispersion_energy": -19.6, 
			 "cosmo_repulsion_energy": 1.5, 
			 "cosmo_total_nonelectrostatic_energy": 10.54, 
			 "SMD_solvation_energy": 5.23 
		},
		"coords": [
			{
				"x": 1.3025468505,
				"y": -1.8546492831,
				"z": -0.6643162009,
				"element": "C" 
			},
			{
				"x": 0.0016265014,
				"y": -1.5581975396,
				"z": 0.1040151227,
				"element": "C" 
			},
			{
				"x": 0.2579332917,
				"y": -1.7243180868,
				"z": 1.6206647558,
				"element": "C" 
			},
			{
				"x": -1.0935841519,
				"y": -2.5530410436,
				"z": -0.3480317047,
				"element": "C" 
			},
			{
				"x": -0.444326264,
				"y": -0.138855046,
				"z": -0.1872860483,
				"element": "C" 
			},
			{
				"x": 0.0896847705,
				"y": 0.8665314579,
				"z": -0.9773268623,
				"element": "C" 
			},
			{
				"x": -0.7962651422,
				"y": 1.9560247665,
				"z": -0.8273457016,
				"element": "C" 
			},
			{
				"x": -1.8104340918,
				"y": 1.6761690687,
				"z": -0.0129359397,
				"element": "N" 
			},
			{
				"x": -1.5732199328,
				"y": 0.4055690455,
				"z": 0.3588504252,
				"element": "N" 
			},
			{
				"x": -0.6931128341,
				"y": 3.3052915779,
				"z": -1.4658810386,
				"element": "C" 
			},
			{
				"x": -1.7604800299,
				"y": 3.5862610768,
				"z": -2.2421925543,
				"element": "F" 
			},
			{
				"x": 0.40805802,
				"y": 3.366377036,
				"z": -2.2507915059,
				"element": "F" 
			},
			{
				"x": -0.5968752167,
				"y": 4.2959242939,
				"z": -0.5546718579,
				"element": "F" 
			},
			{
				"x": 2.1061243996,
				"y": -1.1752768324,
				"z": -0.3634296372,
				"element": "H" 
			},
			{
				"x": 1.1577752385,
				"y": -1.7568273124,
				"z": -1.7447279348,
				"element": "H" 
			},
			{
				"x": 1.6327417311,
				"y": -2.8780302963,
				"z": -0.4601573478,
				"element": "H" 
			},
			{
				"x": 0.5933882379,
				"y": -2.7438495021,
				"z": 1.8382979521,
				"element": "H" 
			},
			{
				"x": 1.0278347276,
				"y": -1.028643734,
				"z": 1.9678295691,
				"element": "H" 
			},
			{
				"x": -0.6476268612,
				"y": -1.5431172437,
				"z": 2.2100677419,
				"element": "H" 
			},
			{
				"x": -2.0358618145,
				"y": -2.3942573249,
				"z": 0.1878543836,
				"element": "H" 
			},
			{
				"x": -0.7738027488,
				"y": -3.5821491294,
				"z": -0.1530546238,
				"element": "H" 
			},
			{
				"x": -1.2968411349,
				"y": -2.4542564866,
				"z": -1.418622568,
				"element": "H" 
			},
			{
				"x": 0.9848383651,
				"y": 0.8292368245,
				"z": -1.5764322561,
				"element": "H" 
			},
			{
				"x": -2.2226219111,
				"y": -0.0369162869,
				"z": 0.9910238316,
				"element": "H" 
			}
		],
		 "valence_orbital": [ 
			{
				"type": "occ",
				"energy": -0.35143,
				"method": "rhf"
			},
			{
				"type": "occ",
				"energy": -0.34612,
				"method": "rhf"
			},
			{
				"type": "occ",
				"energy": -0.30036,
				"method": "rhf"
			},
			{
				"type": "occ",
				"energy": -0.27074,
				"method": "rhf"
			},
			{
				"type": "occ",
				"energy": -0.25129,
				"method": "rhf"
			},
			{
				"type": "unocc",
				"energy": 0.00065,
				"method": "rhf"
			},
			{
				"type": "unocc",
				"energy": 0.0467,
				"method": "rhf"
			},
			{
				"type": "unocc",
				"energy": 0.04794,
				"method": "rhf"
			},
			{
				"type": "unocc",
				"energy": 0.08891,
				"method": "rhf"
			},
			{
				"type": "unocc",
				"energy": 0.1169,
				"method": "rhf"
			}
		],
		"cosmo_sigma_profile": { 
			"0.0": 0.0,
			"0.0": 0.0,
			"0.0": 0.0,
			"0.0": 0.0,
			"0.0": 0.0,
			"0.0": 0.0,
			"0.0": 0.0,
			"0.0": 0.0,
			"0.0": 0.0,
			"0.0": 0.0,
			"0.0": 0.0,
			"0.0": 0.0,
			"0.0": 0.0,
			"0.0": 0.0,
			"0.0": 0.0,
			"0.0": 0.0,
			"0.0": 0.0,
			"0.0": 0.0,
			"0.0": 0.0,
			"0.0": 0.0,
			"0.0": 0.0,
			"0.0": 0.0,
			"0.0": 0.0,
			"0.0": 0.0,
			"0.0": 0.0,
			"0.0": 0.0,
			"0.0": 0.0,
			"0.0": 0.0,
			"0.0": 0.0,
			"0.0": 0.0,
			"0.0": 0.0,
			"0.0": 0.0,
			"0.0": 0.0,
			"0.0": 0.0,
			"0.0": 0.0,
			"0.0": 0.0,
			"0.0": 0.0,
			"0.0": 0.0,
			"0.0": 0.0,
			"0.0": 0.0,
			"0.0": 0.0,
			"0.0": 0.0,
			"0.0": 0.0,
			"0.0": 0.0,
			"0.0": 0.0,
			"0.0": 0.0,
			"0.0": 0.0,
			"0.0": 0.0,
			"0.0": 0.0,
			"0.0": 0.0,
			"0.0": 0.0
		}
	}
}
