{
	 "smiles": "CC1=CC=C(C=C1)C1=C(C(=NO1)C(=O)C1=CC=C2C=CC=CC2=C1)S(=O)(=O)C1=CC=CC=C1", 
	 "Tm": 381.15, 
	 "num_atms": 52, 
	 "gaussian": { 
		 "optdone": 1, 
		 "sigma_profile": "yes", 
		 "theory": "DFT", 
		 "functional": "B3LYP", 
		 "basiset": "6-31G**", 
		 "properties": { 
			 "R2extent": 18713.818, 
			 "electric_dipole_moment_norm": 7.77023742945, 
			 "electric_quadrupole_moment_norm": 39.9352115397, 
			 "total_energy": -1794.04727063, 
			 "HOMO_LUMO_gap": 0.15369, 
			 "cosmo_polarized_energy": -22.07, 
			 "cosmo_cavitation_energy": 58.21, 
			 "cosmo_dispersion_energy": -38.67, 
			 "cosmo_repulsion_energy": 2.82, 
			 "cosmo_total_nonelectrostatic_energy": 22.37, 
			 "SMD_solvation_energy": 8.9 
		},
		"coords": [
			{
				"x": -5.7848817158,
				"y": 1.064569724,
				"z": 5.2595171232,
				"element": "C" 
			},
			{
				"x": -4.8295361697,
				"y": 1.2263605892,
				"z": 4.1025296692,
				"element": "C" 
			},
			{
				"x": -5.2871384725,
				"y": 1.2690848035,
				"z": 2.7800470944,
				"element": "C" 
			},
			{
				"x": -4.4083144824,
				"y": 1.4218906916,
				"z": 1.7088771196,
				"element": "C" 
			},
			{
				"x": -3.0287826071,
				"y": 1.5322388238,
				"z": 1.9448948651,
				"element": "C" 
			},
			{
				"x": -2.55931198,
				"y": 1.5027853041,
				"z": 3.2723225647,
				"element": "C" 
			},
			{
				"x": -3.4485657493,
				"y": 1.3476561672,
				"z": 4.327444886,
				"element": "C" 
			},
			{
				"x": -2.0710056206,
				"y": 1.7280477588,
				"z": 0.8553208869,
				"element": "C" 
			},
			{
				"x": -1.9597402103,
				"y": 1.3395409373,
				"z": -0.4671222845,
				"element": "C" 
			},
			{
				"x": -0.724657518,
				"y": 1.9158533812,
				"z": -0.9064280306,
				"element": "C" 
			},
			{
				"x": -0.1315310011,
				"y": 2.573563987,
				"z": 0.0587176479,
				"element": "N" 
			},
			{
				"x": -0.9795627054,
				"y": 2.4564345334,
				"z": 1.1689716454,
				"element": "O" 
			},
			{
				"x": -0.1200972882,
				"y": 1.9680146478,
				"z": -2.3041796056,
				"element": "C" 
			},
			{
				"x": -0.5321457935,
				"y": 2.8212195289,
				"z": -3.0671988632,
				"element": "O" 
			},
			{
				"x": 0.9609954626,
				"y": 1.0098748964,
				"z": -2.6501952929,
				"element": "C" 
			},
			{
				"x": 1.5279824895,
				"y": 0.1248938829,
				"z": -1.6907080924,
				"element": "C" 
			},
			{
				"x": 2.5287314524,
				"y": -0.7450309242,
				"z": -2.0545750813,
				"element": "C" 
			},
			{
				"x": 3.0158345276,
				"y": -0.7847229786,
				"z": -3.3896230436,
				"element": "C" 
			},
			{
				"x": 4.0460771314,
				"y": -1.6728316651,
				"z": -3.7976020683,
				"element": "C" 
			},
			{
				"x": 4.4916456103,
				"y": -1.6811797769,
				"z": -5.1006130263,
				"element": "C" 
			},
			{
				"x": 3.9287383804,
				"y": -0.8020140322,
				"z": -6.0600596314,
				"element": "C" 
			},
			{
				"x": 2.9295373471,
				"y": 0.071226099,
				"z": -5.6976896192,
				"element": "C" 
			},
			{
				"x": 2.4464721807,
				"y": 0.1067370055,
				"z": -4.3597525941,
				"element": "C" 
			},
			{
				"x": 1.4223822529,
				"y": 0.9941086578,
				"z": -3.9561711845,
				"element": "C" 
			},
			{
				"x": -2.955849509,
				"y": 0.2383133004,
				"z": -1.4529543992,
				"element": "S" 
			},
			{
				"x": -4.3728236628,
				"y": 0.6089426334,
				"z": -1.3188548631,
				"element": "O" 
			},
			{
				"x": -2.3009422005,
				"y": 0.1966546621,
				"z": -2.7675701269,
				"element": "O" 
			},
			{
				"x": -2.7346258511,
				"y": -1.3747483557,
				"z": -0.6846063941,
				"element": "C" 
			},
			{
				"x": -3.6986254662,
				"y": -1.8532929973,
				"z": 0.2043126326,
				"element": "C" 
			},
			{
				"x": -3.5183763445,
				"y": -3.1120117562,
				"z": 0.7798901556,
				"element": "C" 
			},
			{
				"x": -2.3918364388,
				"y": -3.8734560012,
				"z": 0.4626528327,
				"element": "C" 
			},
			{
				"x": -1.4405713868,
				"y": -3.3854292698,
				"z": -0.437665576,
				"element": "C" 
			},
			{
				"x": -1.6076342489,
				"y": -2.1301827609,
				"z": -1.0209950695,
				"element": "C" 
			},
			{
				"x": -5.7351847431,
				"y": 1.9251352528,
				"z": 5.9365029771,
				"element": "H" 
			},
			{
				"x": -5.5420044641,
				"y": 0.1759184526,
				"z": 5.8532763852,
				"element": "H" 
			},
			{
				"x": -6.8179691034,
				"y": 0.9677132292,
				"z": 4.9160248379,
				"element": "H" 
			},
			{
				"x": -6.3529502861,
				"y": 1.193694327,
				"z": 2.5814676334,
				"element": "H" 
			},
			{
				"x": -4.7883968599,
				"y": 1.4714284503,
				"z": 0.6951881752,
				"element": "H" 
			},
			{
				"x": -1.4962715889,
				"y": 1.5979410478,
				"z": 3.4657484675,
				"element": "H" 
			},
			{
				"x": -3.0673330661,
				"y": 1.3205236642,
				"z": 5.3451135851,
				"element": "H" 
			},
			{
				"x": 1.1804304301,
				"y": 0.1536893028,
				"z": -0.6634415177,
				"element": "H" 
			},
			{
				"x": 2.9675875644,
				"y": -1.4127480367,
				"z": -1.3177927766,
				"element": "H" 
			},
			{
				"x": 4.4791001547,
				"y": -2.3468089591,
				"z": -3.063044446,
				"element": "H" 
			},
			{
				"x": 5.2806402033,
				"y": -2.3650511022,
				"z": -5.3999953859,
				"element": "H" 
			},
			{
				"x": 4.2913438649,
				"y": -0.8219639953,
				"z": -7.0834308709,
				"element": "H" 
			},
			{
				"x": 2.4933346807,
				"y": 0.7475946486,
				"z": -6.4276550269,
				"element": "H" 
			},
			{
				"x": 0.9764367282,
				"y": 1.6768537613,
				"z": -4.6730765542,
				"element": "H" 
			},
			{
				"x": -4.575205693,
				"y": -1.2556729187,
				"z": 0.4243758446,
				"element": "H" 
			},
			{
				"x": -4.2618860433,
				"y": -3.4987957548,
				"z": 1.4701132113,
				"element": "H" 
			},
			{
				"x": -2.2580388455,
				"y": -4.8534122875,
				"z": 0.9114178456,
				"element": "H" 
			},
			{
				"x": -0.5725118891,
				"y": -3.9856332658,
				"z": -0.6928236125,
				"element": "H" 
			},
			{
				"x": -0.8882614562,
				"y": -1.7457173138,
				"z": -1.7360030485,
				"element": "H" 
			}
		],
		 "valence_orbital": [ 
			{
				"type": "occ",
				"energy": -0.2666,
				"method": "rhf"
			},
			{
				"type": "occ",
				"energy": -0.26042,
				"method": "rhf"
			},
			{
				"type": "occ",
				"energy": -0.25485,
				"method": "rhf"
			},
			{
				"type": "occ",
				"energy": -0.24459,
				"method": "rhf"
			},
			{
				"type": "occ",
				"energy": -0.22605,
				"method": "rhf"
			},
			{
				"type": "unocc",
				"energy": -0.07236,
				"method": "rhf"
			},
			{
				"type": "unocc",
				"energy": -0.06437,
				"method": "rhf"
			},
			{
				"type": "unocc",
				"energy": -0.04258,
				"method": "rhf"
			},
			{
				"type": "unocc",
				"energy": -0.03661,
				"method": "rhf"
			},
			{
				"type": "unocc",
				"energy": -0.02499,
				"method": "rhf"
			}
		],
		"cosmo_sigma_profile": { 
			"-0.025": 0.0,
			"-0.024": 0.0,
			"-0.023": 0.0,
			"-0.022": 0.0,
			"-0.021": 0.0,
			"-0.02": 0.0,
			"-0.019": 0.0,
			"-0.018": 0.0,
			"-0.017": 0.0,
			"-0.016": 0.0,
			"-0.015": 0.0,
			"-0.014": 0.0,
			"-0.013": 0.0,
			"-0.012": 0.0,
			"-0.011": 0.0,
			"-0.01": 0.0,
			"-0.009": 0.0312710363419,
			"-0.008": 0.781095750795,
			"-0.007": 13.9933181326,
			"-0.006": 32.3386089103,
			"-0.005": 36.1624189808,
			"-0.004": 38.1253194186,
			"-0.003": 33.0070476717,
			"-0.002": 36.054606529,
			"-0.001": 35.6596457092,
			"0.0": 34.2564995902,
			"0.001": 37.1598132785,
			"0.002": 47.2121873907,
			"0.003": 43.7482832362,
			"0.004": 20.4778362104,
			"0.005": 8.35616841251,
			"0.006": 8.10954297465,
			"0.007": 6.69660503777,
			"0.008": 6.72440667486,
			"0.009": 8.21487378621,
			"0.01": 11.5462384425,
			"0.011": 8.99106411711,
			"0.012": 1.35924265894,
			"0.013": 0.0192962850859,
			"0.014": 0.0,
			"0.015": 0.0,
			"0.016": 0.0,
			"0.017": 0.0,
			"0.018": 0.0,
			"0.019": 0.0,
			"0.02": 0.0,
			"0.021": 0.0,
			"0.022": 0.0,
			"0.023": 0.0,
			"0.024": 0.0,
			"0.025": 0.0
		}
	}
}
