{
	 "smiles": "[O-][N+](=O)C1=CC=C(C=C1)N=NC1=CC=CC=C1", 
	 "Tm": 406.15, 
	 "num_atms": 26, 
	 "gaussian": { 
		 "optdone": 1, 
		 "sigma_profile": "yes", 
		 "theory": "DFT", 
		 "functional": "B3LYP", 
		 "basiset": "6-31G**", 
		 "properties": { 
			 "R2extent": 4961.3856, 
			 "electric_dipole_moment_norm": 4.19611043944, 
			 "electric_quadrupole_moment_norm": 29.3711572057, 
			 "total_energy": -777.236801988, 
			 "HOMO_LUMO_gap": 0.12767, 
			 "cosmo_polarized_energy": -12.46, 
			 "cosmo_cavitation_energy": 31.98, 
			 "cosmo_dispersion_energy": -22.51, 
			 "cosmo_repulsion_energy": 1.74, 
			 "cosmo_total_nonelectrostatic_energy": 11.22, 
			 "SMD_solvation_energy": 5.77 
		},
		"coords": [
			{
				"x": 0.1960559749,
				"y": -4.4619145283,
				"z": 0.0901830333,
				"element": "O" 
			},
			{
				"x": 1.0221417035,
				"y": -3.6134303868,
				"z": 0.4276449927,
				"element": "N" 
			},
			{
				"x": 2.2072438033,
				"y": -3.8454995005,
				"z": 0.6680814107,
				"element": "O" 
			},
			{
				"x": 0.5621052248,
				"y": -2.2250536467,
				"z": 0.548681345,
				"element": "C" 
			},
			{
				"x": 1.4708115289,
				"y": -1.2418934579,
				"z": 0.9424742143,
				"element": "C" 
			},
			{
				"x": 1.0262472298,
				"y": 0.0678489431,
				"z": 1.069704734,
				"element": "C" 
			},
			{
				"x": -0.3020490262,
				"y": 0.395420792,
				"z": 0.7541241038,
				"element": "C" 
			},
			{
				"x": -1.2061760516,
				"y": -0.6121111169,
				"z": 0.3762529402,
				"element": "C" 
			},
			{
				"x": -0.7741832204,
				"y": -1.9287977632,
				"z": 0.2782429808,
				"element": "C" 
			},
			{
				"x": -0.7359514482,
				"y": 1.7258900799,
				"z": 1.0468533927,
				"element": "N" 
			},
			{
				"x": -1.3875848015,
				"y": 2.4478547977,
				"z": 0.2644838293,
				"element": "N" 
			},
			{
				"x": -1.614286991,
				"y": 2.1285106202,
				"z": -1.113484836,
				"element": "C" 
			},
			{
				"x": -2.8760712458,
				"y": 2.4750721515,
				"z": -1.6176413641,
				"element": "C" 
			},
			{
				"x": -3.1641898978,
				"y": 2.2773256008,
				"z": -2.965632927,
				"element": "C" 
			},
			{
				"x": -2.1767285956,
				"y": 1.793625657,
				"z": -3.8283908846,
				"element": "C" 
			},
			{
				"x": -0.9016569638,
				"y": 1.5027338339,
				"z": -3.3357456926,
				"element": "C" 
			},
			{
				"x": -0.6161936139,
				"y": 1.6580299516,
				"z": -1.9807980299,
				"element": "C" 
			},
			{
				"x": 2.4952083435,
				"y": -1.5195466651,
				"z": 1.1566110661,
				"element": "H" 
			},
			{
				"x": 1.6961169596,
				"y": 0.8511435764,
				"z": 1.4087748068,
				"element": "H" 
			},
			{
				"x": -2.240127592,
				"y": -0.3601145425,
				"z": 0.1690273593,
				"element": "H" 
			},
			{
				"x": -1.4471343054,
				"y": -2.727080912,
				"z": -0.0088625303,
				"element": "H" 
			},
			{
				"x": -3.6136983535,
				"y": 2.8878899054,
				"z": -0.9367034489,
				"element": "H" 
			},
			{
				"x": -4.1507510751,
				"y": 2.5214465006,
				"z": -3.347879502,
				"element": "H" 
			},
			{
				"x": -2.3936464294,
				"y": 1.6614009648,
				"z": -4.8840388816,
				"element": "H" 
			},
			{
				"x": -0.1253988582,
				"y": 1.1522305981,
				"z": -4.0094170162,
				"element": "H" 
			},
			{
				"x": 0.3762977014,
				"y": 1.4400185468,
				"z": -1.6030450956,
				"element": "H" 
			}
		],
		 "valence_orbital": [ 
			{
				"type": "occ",
				"energy": -0.28906,
				"method": "rhf"
			},
			{
				"type": "occ",
				"energy": -0.28778,
				"method": "rhf"
			},
			{
				"type": "occ",
				"energy": -0.27345,
				"method": "rhf"
			},
			{
				"type": "occ",
				"energy": -0.27125,
				"method": "rhf"
			},
			{
				"type": "occ",
				"energy": -0.23067,
				"method": "rhf"
			},
			{
				"type": "unocc",
				"energy": -0.103,
				"method": "rhf"
			},
			{
				"type": "unocc",
				"energy": -0.07441,
				"method": "rhf"
			},
			{
				"type": "unocc",
				"energy": -0.03613,
				"method": "rhf"
			},
			{
				"type": "unocc",
				"energy": -0.02203,
				"method": "rhf"
			},
			{
				"type": "unocc",
				"energy": -0.00794,
				"method": "rhf"
			}
		],
		"cosmo_sigma_profile": { 
			"-0.025": 0.0,
			"-0.024": 0.0,
			"-0.023": 0.0,
			"-0.022": 0.0,
			"-0.021": 0.0,
			"-0.02": 0.0,
			"-0.019": 0.0,
			"-0.018": 0.0,
			"-0.017": 0.0,
			"-0.016": 0.0,
			"-0.015": 0.0,
			"-0.014": 0.0,
			"-0.013": 0.0,
			"-0.012": 0.0,
			"-0.011": 0.0,
			"-0.01": 0.0,
			"-0.009": 0.0384743249749,
			"-0.008": 4.87832742548,
			"-0.007": 12.5814631093,
			"-0.006": 20.7716922872,
			"-0.005": 18.3990819209,
			"-0.004": 19.8900130179,
			"-0.003": 15.4932456408,
			"-0.002": 17.5179570909,
			"-0.001": 18.0740022596,
			"0.0": 21.2070223828,
			"0.001": 19.146430109,
			"0.002": 15.6257925839,
			"0.003": 15.1523811785,
			"0.004": 12.6126691969,
			"0.005": 4.81633015171,
			"0.006": 5.07945526723,
			"0.007": 9.30928518383,
			"0.008": 9.68806658993,
			"0.009": 6.87935000597,
			"0.01": 4.80470628551,
			"0.011": 3.13318282345,
			"0.012": 1.82654940899,
			"0.013": 0.95136456117,
			"0.014": 0.0,
			"0.015": 0.0,
			"0.016": 0.0,
			"0.017": 0.0,
			"0.018": 0.0,
			"0.019": 0.0,
			"0.02": 0.0,
			"0.021": 0.0,
			"0.022": 0.0,
			"0.023": 0.0,
			"0.024": 0.0,
			"0.025": 0.0
		}
	}
}
