{
	 "smiles": "ClCC(=O)C1=CC=CC=C1", 
	 "Tm": 328.35, 
	 "num_atms": 17, 
	 "gaussian": { 
		 "optdone": 1, 
		 "sigma_profile": "yes", 
		 "theory": "DFT", 
		 "functional": "B3LYP", 
		 "basiset": "6-31G**", 
		 "properties": { 
			 "R2extent": 2397.6182, 
			 "electric_dipole_moment_norm": 4.72526164672, 
			 "electric_quadrupole_moment_norm": 10.0850420981, 
			 "total_energy": -844.48239158, 
			 "HOMO_LUMO_gap": 0.19749, 
			 "cosmo_polarized_energy": -11.37, 
			 "cosmo_cavitation_energy": 22.99, 
			 "cosmo_dispersion_energy": -17.16, 
			 "cosmo_repulsion_energy": 1.39, 
			 "cosmo_total_nonelectrostatic_energy": 7.23, 
			 "SMD_solvation_energy": 4.18 
		},
		"coords": [
			{
				"x": -3.1383475236,
				"y": 0.1586255613,
				"z": 2.6679849413,
				"element": "Cl" 
			},
			{
				"x": -1.9026057298,
				"y": 0.4106867561,
				"z": 1.3986835893,
				"element": "C" 
			},
			{
				"x": -0.6195921522,
				"y": -0.3969494451,
				"z": 1.6345160461,
				"element": "C" 
			},
			{
				"x": -0.4901043911,
				"y": -1.1256486131,
				"z": 2.5982183277,
				"element": "O" 
			},
			{
				"x": 0.4687806059,
				"y": -0.2421200963,
				"z": 0.6147598589,
				"element": "C" 
			},
			{
				"x": 0.3595545681,
				"y": 0.588591804,
				"z": -0.5121055765,
				"element": "C" 
			},
			{
				"x": 1.4133455619,
				"y": 0.6841681045,
				"z": -1.4205077332,
				"element": "C" 
			},
			{
				"x": 2.5841412195,
				"y": -0.0474814157,
				"z": -1.21277732,
				"element": "C" 
			},
			{
				"x": 2.701227854,
				"y": -0.8770026625,
				"z": -0.0933900995,
				"element": "C" 
			},
			{
				"x": 1.6510531282,
				"y": -0.9736402873,
				"z": 0.8139164341,
				"element": "C" 
			},
			{
				"x": -2.3485728949,
				"y": 0.1319793619,
				"z": 0.440477846,
				"element": "H" 
			},
			{
				"x": -1.6713367235,
				"y": 1.4785100259,
				"z": 1.3673137965,
				"element": "H" 
			},
			{
				"x": -0.5419651142,
				"y": 1.1656146009,
				"z": -0.6918995989,
				"element": "H" 
			},
			{
				"x": 1.3203531214,
				"y": 1.3289969545,
				"z": -2.2892214143,
				"element": "H" 
			},
			{
				"x": 3.4037066581,
				"y": 0.0284624144,
				"z": -1.9215791047,
				"element": "H" 
			},
			{
				"x": 3.6115577384,
				"y": -1.4464635585,
				"z": 0.0689816823,
				"element": "H" 
			},
			{
				"x": 1.7178040739,
				"y": -1.6101295051,
				"z": 1.689728325,
				"element": "H" 
			}
		],
		 "valence_orbital": [ 
			{
				"type": "occ",
				"energy": -0.29939,
				"method": "rhf"
			},
			{
				"type": "occ",
				"energy": -0.29865,
				"method": "rhf"
			},
			{
				"type": "occ",
				"energy": -0.27145,
				"method": "rhf"
			},
			{
				"type": "occ",
				"energy": -0.2682,
				"method": "rhf"
			},
			{
				"type": "occ",
				"energy": -0.26458,
				"method": "rhf"
			},
			{
				"type": "unocc",
				"energy": -0.06709,
				"method": "rhf"
			},
			{
				"type": "unocc",
				"energy": -0.01961,
				"method": "rhf"
			},
			{
				"type": "unocc",
				"energy": 0.02422,
				"method": "rhf"
			},
			{
				"type": "unocc",
				"energy": 0.02808,
				"method": "rhf"
			},
			{
				"type": "unocc",
				"energy": 0.08069,
				"method": "rhf"
			}
		],
		"cosmo_sigma_profile": { 
			"-0.025": 0.0,
			"-0.024": 0.0,
			"-0.023": 0.0,
			"-0.022": 0.0,
			"-0.021": 0.0,
			"-0.02": 0.0,
			"-0.019": 0.0,
			"-0.018": 0.0,
			"-0.017": 0.0,
			"-0.016": 0.0,
			"-0.015": 0.0,
			"-0.014": 0.0,
			"-0.013": 0.0,
			"-0.012": 0.0,
			"-0.011": 0.0,
			"-0.01": 0.819694415393,
			"-0.009": 7.9221525497,
			"-0.008": 6.49844281886,
			"-0.007": 6.27241431159,
			"-0.006": 12.7700527537,
			"-0.005": 12.0075417932,
			"-0.004": 12.0586806406,
			"-0.003": 8.2306432649,
			"-0.002": 9.74707086964,
			"-0.001": 9.33738933074,
			"0.0": 9.50305004342,
			"0.001": 13.3343384348,
			"0.002": 13.0238478372,
			"0.003": 15.3540531483,
			"0.004": 15.0644508046,
			"0.005": 7.86116371246,
			"0.006": 8.08224988442,
			"0.007": 3.09540065806,
			"0.008": 2.34682780623,
			"0.009": 2.7043628014,
			"0.01": 2.82169077113,
			"0.011": 4.21878415044,
			"0.012": 2.23469889771,
			"0.013": 1.1024204676,
			"0.014": 0.0,
			"0.015": 0.0,
			"0.016": 0.0,
			"0.017": 0.0,
			"0.018": 0.0,
			"0.019": 0.0,
			"0.02": 0.0,
			"0.021": 0.0,
			"0.022": 0.0,
			"0.023": 0.0,
			"0.024": 0.0,
			"0.025": 0.0
		}
	}
}
