{
	 "smiles": "OC(=O)C1(CC1)C1=CC(=CC=C1)C#N", 
	 "Tm": 456.15, 
	 "num_atms": 23, 
	 "gaussian": { 
		 "optdone": 1, 
		 "sigma_profile": "yes", 
		 "theory": "DFT", 
		 "functional": "B3LYP", 
		 "basiset": "6-31G**", 
		 "properties": { 
			 "R2extent": 3039.7588, 
			 "electric_dipole_moment_norm": 4.55036378546, 
			 "electric_quadrupole_moment_norm": 19.697721089, 
			 "total_energy": -629.759700575, 
			 "HOMO_LUMO_gap": 0.19817, 
			 "cosmo_polarized_energy": -17.96, 
			 "cosmo_cavitation_energy": 28.59, 
			 "cosmo_dispersion_energy": -19.44, 
			 "cosmo_repulsion_energy": 1.53, 
			 "cosmo_total_nonelectrostatic_energy": 10.67, 
			 "SMD_solvation_energy": 7.28 
		},
		"coords": [
			{
				"x": -0.4728337842,
				"y": -2.4459768394,
				"z": -1.4343526055,
				"element": "O" 
			},
			{
				"x": 0.0586144375,
				"y": -1.5253195385,
				"z": -2.2713351324,
				"element": "C" 
			},
			{
				"x": 0.3208535668,
				"y": -1.8168567015,
				"z": -3.414757746,
				"element": "O" 
			},
			{
				"x": 0.2975691647,
				"y": -0.1404507512,
				"z": -1.7027768778,
				"element": "C" 
			},
			{
				"x": 0.1020203617,
				"y": 0.9835941149,
				"z": -2.7157016609,
				"element": "C" 
			},
			{
				"x": 1.4863915276,
				"y": 0.584541379,
				"z": -2.32768803,
				"element": "C" 
			},
			{
				"x": -0.0317452143,
				"y": 0.094995473,
				"z": -0.2534696319,
				"element": "C" 
			},
			{
				"x": -1.2828901436,
				"y": 0.5968353744,
				"z": 0.1254218025,
				"element": "C" 
			},
			{
				"x": -1.5939752969,
				"y": 0.7891862008,
				"z": 1.4815562218,
				"element": "C" 
			},
			{
				"x": -0.6516874916,
				"y": 0.4724963981,
				"z": 2.4739620669,
				"element": "C" 
			},
			{
				"x": 0.5909058952,
				"y": -0.0339066677,
				"z": 2.1004925748,
				"element": "C" 
			},
			{
				"x": 0.8984770201,
				"y": -0.221169056,
				"z": 0.7520685966,
				"element": "C" 
			},
			{
				"x": -2.8775833425,
				"y": 1.3134450084,
				"z": 1.8517483738,
				"element": "C" 
			},
			{
				"x": -3.9175297921,
				"y": 1.7383617009,
				"z": 2.1525652879,
				"element": "N" 
			},
			{
				"x": -0.6308667227,
				"y": -2.0513620384,
				"z": -0.5630182574,
				"element": "H" 
			},
			{
				"x": -0.2537219598,
				"y": 0.6838813627,
				"z": -3.6951652223,
				"element": "H" 
			},
			{
				"x": -0.2901748924,
				"y": 1.9215336528,
				"z": -2.3354872963,
				"element": "H" 
			},
			{
				"x": 2.0500650927,
				"y": 1.2451699215,
				"z": -1.6765271923,
				"element": "H" 
			},
			{
				"x": 2.0664546995,
				"y": 0.0133498071,
				"z": -3.0439880874,
				"element": "H" 
			},
			{
				"x": -2.0178913381,
				"y": 0.8473747348,
				"z": -0.632740266,
				"element": "H" 
			},
			{
				"x": -0.8991936582,
				"y": 0.6258133168,
				"z": 3.5187766313,
				"element": "H" 
			},
			{
				"x": 1.323972332,
				"y": -0.2794717799,
				"z": 2.862439598,
				"element": "H" 
			},
			{
				"x": 1.8724695385,
				"y": -0.6089650727,
				"z": 0.4670768528,
				"element": "H" 
			}
		],
		 "valence_orbital": [ 
			{
				"type": "occ",
				"energy": -0.32648,
				"method": "rhf"
			},
			{
				"type": "occ",
				"energy": -0.30582,
				"method": "rhf"
			},
			{
				"type": "occ",
				"energy": -0.29883,
				"method": "rhf"
			},
			{
				"type": "occ",
				"energy": -0.28539,
				"method": "rhf"
			},
			{
				"type": "occ",
				"energy": -0.26878,
				"method": "rhf"
			},
			{
				"type": "unocc",
				"energy": -0.07061,
				"method": "rhf"
			},
			{
				"type": "unocc",
				"energy": -0.04793,
				"method": "rhf"
			},
			{
				"type": "unocc",
				"energy": 0.00209,
				"method": "rhf"
			},
			{
				"type": "unocc",
				"energy": 0.02395,
				"method": "rhf"
			},
			{
				"type": "unocc",
				"energy": 0.05492,
				"method": "rhf"
			}
		],
		"cosmo_sigma_profile": { 
			"-0.025": 0.0,
			"-0.024": 0.0,
			"-0.023": 0.0,
			"-0.022": 0.0,
			"-0.021": 0.0,
			"-0.02": 0.0,
			"-0.019": 0.0,
			"-0.018": 0.0,
			"-0.017": 0.0,
			"-0.016": 0.0,
			"-0.015": 0.528187748442,
			"-0.014": 0.471916478316,
			"-0.013": 0.679698978333,
			"-0.012": 1.06279989032,
			"-0.011": 0.756031735275,
			"-0.01": 1.07406325659,
			"-0.009": 1.96896236851,
			"-0.008": 5.80300513652,
			"-0.007": 10.4647710294,
			"-0.006": 16.9484401529,
			"-0.005": 18.073151475,
			"-0.004": 17.5886951613,
			"-0.003": 14.2201459555,
			"-0.002": 19.5621703219,
			"-0.001": 19.5311665624,
			"0.0": 13.8273038413,
			"0.001": 12.6113585881,
			"0.002": 11.059999853,
			"0.003": 6.77367352507,
			"0.004": 4.05108582514,
			"0.005": 4.1941690361,
			"0.006": 4.96081555949,
			"0.007": 5.49658746882,
			"0.008": 6.11410137659,
			"0.009": 6.26338906166,
			"0.01": 7.84653242841,
			"0.011": 6.52074629422,
			"0.012": 7.52497558121,
			"0.013": 3.38025444696,
			"0.014": 0.179919748389,
			"0.015": 0.0,
			"0.016": 0.0,
			"0.017": 0.0,
			"0.018": 0.0,
			"0.019": 0.0,
			"0.02": 0.0,
			"0.021": 0.0,
			"0.022": 0.0,
			"0.023": 0.0,
			"0.024": 0.0,
			"0.025": 0.0
		}
	}
}
