{
	 "smiles": "NC1=CC2=C(SC=N2)C=C1", 
	 "Tm": 330.15, 
	 "num_atms": 16, 
	 "gaussian": { 
		 "optdone": 1, 
		 "sigma_profile": "yes", 
		 "theory": "DFT", 
		 "functional": "B3LYP", 
		 "basiset": "6-31G**", 
		 "properties": { 
			 "R2extent": 1906.4076, 
			 "electric_dipole_moment_norm": 2.25185092535, 
			 "electric_quadrupole_moment_norm": 13.3873485672, 
			 "total_energy": -778.054027091, 
			 "HOMO_LUMO_gap": 0.1696, 
			 "cosmo_polarized_energy": -10.72, 
			 "cosmo_cavitation_energy": 21.61, 
			 "cosmo_dispersion_energy": -17.04, 
			 "cosmo_repulsion_energy": 1.31, 
			 "cosmo_total_nonelectrostatic_energy": 5.88, 
			 "SMD_solvation_energy": 1.83 
		},
		"coords": [
			{
				"x": 2.8067827479,
				"y": 1.9408226438,
				"z": 0.8591119225,
				"element": "N" 
			},
			{
				"x": 1.5657907315,
				"y": 1.3118516296,
				"z": 0.7234355677,
				"element": "C" 
			},
			{
				"x": 1.0267691212,
				"y": 0.5562215904,
				"z": 1.7684101947,
				"element": "C" 
			},
			{
				"x": -0.2454739592,
				"y": -0.0105582096,
				"z": 1.624354044,
				"element": "C" 
			},
			{
				"x": -0.9794269983,
				"y": 0.1768475439,
				"z": 0.4288707784,
				"element": "C" 
			},
			{
				"x": -2.5185022999,
				"y": -0.655253186,
				"z": 0.5562488334,
				"element": "S" 
			},
			{
				"x": -2.0383340712,
				"y": -1.1681912754,
				"z": 2.1757013999,
				"element": "C" 
			},
			{
				"x": -0.8787996117,
				"y": -0.7806282478,
				"z": 2.59311091,
				"element": "N" 
			},
			{
				"x": -0.4458309321,
				"y": 0.9296410098,
				"z": -0.6199513672,
				"element": "C" 
			},
			{
				"x": 0.8155576841,
				"y": 1.4889205996,
				"z": -0.4647818061,
				"element": "C" 
			},
			{
				"x": 3.4185689612,
				"y": 1.5305168696,
				"z": 1.551244072,
				"element": "H" 
			},
			{
				"x": 3.2927324733,
				"y": 2.1199455409,
				"z": -0.008853957,
				"element": "H" 
			},
			{
				"x": 1.573436222,
				"y": 0.4022827107,
				"z": 2.6937260218,
				"element": "H" 
			},
			{
				"x": -2.7156560649,
				"y": -1.7803711204,
				"z": 2.7612072971,
				"element": "H" 
			},
			{
				"x": -0.9970468183,
				"y": 1.080463326,
				"z": -1.5426328933,
				"element": "H" 
			},
			{
				"x": 1.2382328145,
				"y": 2.0835885749,
				"z": -1.2705010179,
				"element": "H" 
			}
		],
		 "valence_orbital": [ 
			{
				"type": "occ",
				"energy": -0.30944,
				"method": "rhf"
			},
			{
				"type": "occ",
				"energy": -0.28263,
				"method": "rhf"
			},
			{
				"type": "occ",
				"energy": -0.27176,
				"method": "rhf"
			},
			{
				"type": "occ",
				"energy": -0.23456,
				"method": "rhf"
			},
			{
				"type": "occ",
				"energy": -0.2011,
				"method": "rhf"
			},
			{
				"type": "unocc",
				"energy": -0.0315,
				"method": "rhf"
			},
			{
				"type": "unocc",
				"energy": 0.00837,
				"method": "rhf"
			},
			{
				"type": "unocc",
				"energy": 0.01535,
				"method": "rhf"
			},
			{
				"type": "unocc",
				"energy": 0.0407,
				"method": "rhf"
			},
			{
				"type": "unocc",
				"energy": 0.07927,
				"method": "rhf"
			}
		],
		"cosmo_sigma_profile": { 
			"-0.025": 0.0,
			"-0.024": 0.0,
			"-0.023": 0.0,
			"-0.022": 0.0,
			"-0.021": 0.0,
			"-0.02": 0.0,
			"-0.019": 0.0,
			"-0.018": 0.0,
			"-0.017": 0.0,
			"-0.016": 0.0,
			"-0.015": 0.0,
			"-0.014": 0.0,
			"-0.013": 0.373103106336,
			"-0.012": 2.77915955983,
			"-0.011": 2.84950727874,
			"-0.01": 3.83382680486,
			"-0.009": 6.38558271007,
			"-0.008": 4.81443416405,
			"-0.007": 6.78069051971,
			"-0.006": 8.69964338181,
			"-0.005": 8.7512951917,
			"-0.004": 8.07097558951,
			"-0.003": 6.17283758342,
			"-0.002": 6.65094672444,
			"-0.001": 8.85753310331,
			"0.0": 8.46332055984,
			"0.001": 12.8966399611,
			"0.002": 13.4934842761,
			"0.003": 14.9394788184,
			"0.004": 16.1907588367,
			"0.005": 13.9270924291,
			"0.006": 4.545101516,
			"0.007": 2.83754895763,
			"0.008": 1.34650248515,
			"0.009": 2.01371441538,
			"0.01": 1.92738678713,
			"0.011": 1.8854848967,
			"0.012": 2.04624017779,
			"0.013": 1.20667549095,
			"0.014": 1.74071727607,
			"0.015": 1.07238822957,
			"0.016": 0.0642926285504,
			"0.017": 0.0,
			"0.018": 0.0,
			"0.019": 0.0,
			"0.02": 0.0,
			"0.021": 0.0,
			"0.022": 0.0,
			"0.023": 0.0,
			"0.024": 0.0,
			"0.025": 0.0
		}
	}
}
