{
	 "smiles": "NC(=O)C1=CC(Cl)=C(F)C=C1", 
	 "Tm": 419.15, 
	 "num_atms": 16, 
	 "gaussian": { 
		 "optdone": 1, 
		 "sigma_profile": "yes", 
		 "theory": "DFT", 
		 "functional": "B3LYP", 
		 "basiset": "6-31G**", 
		 "properties": { 
			 "R2extent": 2669.5791, 
			 "electric_dipole_moment_norm": 4.51195856142, 
			 "electric_quadrupole_moment_norm": 13.0412052001, 
			 "total_energy": -959.775094467, 
			 "HOMO_LUMO_gap": 0.20891, 
			 "cosmo_polarized_energy": -13.11, 
			 "cosmo_cavitation_energy": 23.12, 
			 "cosmo_dispersion_energy": -17.17, 
			 "cosmo_repulsion_energy": 1.37, 
			 "cosmo_total_nonelectrostatic_energy": 7.32, 
			 "SMD_solvation_energy": 5.01 
		},
		"coords": [
			{
				"x": 1.3774510724,
				"y": -2.5044380277,
				"z": -2.5182373693,
				"element": "N" 
			},
			{
				"x": 0.2265373692,
				"y": -1.7699971087,
				"z": -2.3592777007,
				"element": "C" 
			},
			{
				"x": -0.8518037822,
				"y": -2.152487069,
				"z": -2.794329845,
				"element": "O" 
			},
			{
				"x": 0.3699010394,
				"y": -0.4546335286,
				"z": -1.645121001,
				"element": "C" 
			},
			{
				"x": -0.8078076305,
				"y": 0.135786457,
				"z": -1.1698081522,
				"element": "C" 
			},
			{
				"x": -0.761349796,
				"y": 1.3517610149,
				"z": -0.4980288144,
				"element": "C" 
			},
			{
				"x": -2.2155008044,
				"y": 2.0960417637,
				"z": 0.1141453734,
				"element": "Cl" 
			},
			{
				"x": 0.4700981116,
				"y": 1.9885481673,
				"z": -0.3131648452,
				"element": "C" 
			},
			{
				"x": 0.5223491583,
				"y": 3.1612800172,
				"z": 0.3310339555,
				"element": "F" 
			},
			{
				"x": 1.6454334628,
				"y": 1.4249719728,
				"z": -0.7962966832,
				"element": "C" 
			},
			{
				"x": 1.5941664441,
				"y": 0.2025538268,
				"z": -1.4626868412,
				"element": "C" 
			},
			{
				"x": 1.2445263011,
				"y": -3.4320196214,
				"z": -2.8954613237,
				"element": "H" 
			},
			{
				"x": 2.1555377903,
				"y": -2.3785418941,
				"z": -1.8898346774,
				"element": "H" 
			},
			{
				"x": -1.7516050999,
				"y": -0.3696823802,
				"z": -1.3383862083,
				"element": "H" 
			},
			{
				"x": 2.5783572218,
				"y": 1.9583378744,
				"z": -0.650114265,
				"element": "H" 
			},
			{
				"x": 2.510709142,
				"y": -0.2133814643,
				"z": -1.8683316023,
				"element": "H" 
			}
		],
		 "valence_orbital": [ 
			{
				"type": "occ",
				"energy": -0.32193,
				"method": "rhf"
			},
			{
				"type": "occ",
				"energy": -0.2833,
				"method": "rhf"
			},
			{
				"type": "occ",
				"energy": -0.27285,
				"method": "rhf"
			},
			{
				"type": "occ",
				"energy": -0.2607,
				"method": "rhf"
			},
			{
				"type": "occ",
				"energy": -0.25711,
				"method": "rhf"
			},
			{
				"type": "unocc",
				"energy": -0.0482,
				"method": "rhf"
			},
			{
				"type": "unocc",
				"energy": -0.03152,
				"method": "rhf"
			},
			{
				"type": "unocc",
				"energy": 0.01815,
				"method": "rhf"
			},
			{
				"type": "unocc",
				"energy": 0.0486,
				"method": "rhf"
			},
			{
				"type": "unocc",
				"energy": 0.06921,
				"method": "rhf"
			}
		],
		"cosmo_sigma_profile": { 
			"-0.025": 0.0,
			"-0.024": 0.0,
			"-0.023": 0.0,
			"-0.022": 0.0,
			"-0.021": 0.0,
			"-0.02": 0.0,
			"-0.019": 0.0,
			"-0.018": 0.0,
			"-0.017": 0.0,
			"-0.016": 0.0,
			"-0.015": 0.439993591477,
			"-0.014": 2.01084037236,
			"-0.013": 2.64243129093,
			"-0.012": 2.6037648988,
			"-0.011": 2.68521007203,
			"-0.01": 2.44048584344,
			"-0.009": 2.90482916519,
			"-0.008": 5.06795253523,
			"-0.007": 5.07395347795,
			"-0.006": 6.68782071374,
			"-0.005": 4.9613521644,
			"-0.004": 4.91337833176,
			"-0.003": 6.53935675618,
			"-0.002": 10.9888256881,
			"-0.001": 17.356946629,
			"0.0": 19.1187060178,
			"0.001": 18.8375537288,
			"0.002": 14.4767156874,
			"0.003": 18.4973434454,
			"0.004": 15.1788920491,
			"0.005": 5.0011744438,
			"0.006": 1.24438343805,
			"0.007": 2.25969677445,
			"0.008": 1.70768918437,
			"0.009": 1.16027132703,
			"0.01": 1.69167536131,
			"0.011": 2.03254734295,
			"0.012": 2.14150663233,
			"0.013": 5.07132113259,
			"0.014": 2.15035801151,
			"0.015": 0.0243829506073,
			"0.016": 0.0,
			"0.017": 0.0,
			"0.018": 0.0,
			"0.019": 0.0,
			"0.02": 0.0,
			"0.021": 0.0,
			"0.022": 0.0,
			"0.023": 0.0,
			"0.024": 0.0,
			"0.025": 0.0
		}
	}
}
