{
	 "smiles": "BrC(=NNC1=CC=CC=C1)C1=CC=CC=C1", 
	 "Tm": 463.15, 
	 "num_atms": 27, 
	 "gaussian": { 
		 "optdone": 1, 
		 "sigma_profile": "yes", 
		 "theory": "DFT", 
		 "functional": "B3LYP", 
		 "basiset": "6-31G**", 
		 "properties": { 
			 "R2extent": 7075.8391, 
			 "electric_dipole_moment_norm": 2.96875128126, 
			 "electric_quadrupole_moment_norm": 14.0295206319, 
			 "total_energy": -3182.86885626, 
			 "HOMO_LUMO_gap": 0.15548, 
			 "cosmo_polarized_energy": -9.52, 
			 "cosmo_cavitation_energy": 33.09, 
			 "cosmo_dispersion_energy": -23.41, 
			 "cosmo_repulsion_energy": 1.85, 
			 "cosmo_total_nonelectrostatic_energy": 11.54, 
			 "SMD_solvation_energy": 3.87 
		},
		"coords": [
			{
				"x": 2.2913599769,
				"y": 3.3100357403,
				"z": 3.4640971969,
				"element": "Br" 
			},
			{
				"x": 1.5020857993,
				"y": 1.778688097,
				"z": 2.5460990704,
				"element": "C" 
			},
			{
				"x": 1.0614113734,
				"y": 0.8966958735,
				"z": 3.3518158958,
				"element": "N" 
			},
			{
				"x": 0.4620890104,
				"y": -0.2730174091,
				"z": 2.9130003867,
				"element": "N" 
			},
			{
				"x": -0.6806177787,
				"y": -0.32761822,
				"z": 2.0606943427,
				"element": "C" 
			},
			{
				"x": -1.1342246764,
				"y": -1.6078281495,
				"z": 1.7050522586,
				"element": "C" 
			},
			{
				"x": -2.2694934808,
				"y": -1.7572306548,
				"z": 0.9134729938,
				"element": "C" 
			},
			{
				"x": -2.96151435,
				"y": -0.63469648,
				"z": 0.4514930591,
				"element": "C" 
			},
			{
				"x": -2.5067862763,
				"y": 0.6360933923,
				"z": 0.8028460165,
				"element": "C" 
			},
			{
				"x": -1.3767061644,
				"y": 0.7981373998,
				"z": 1.606172748,
				"element": "C" 
			},
			{
				"x": 1.6205378265,
				"y": 1.8189539349,
				"z": 1.070599949,
				"element": "C" 
			},
			{
				"x": 1.4808645618,
				"y": 3.0165869463,
				"z": 0.3514145853,
				"element": "C" 
			},
			{
				"x": 1.6119428558,
				"y": 3.0255427499,
				"z": -1.035322939,
				"element": "C" 
			},
			{
				"x": 1.9080430755,
				"y": 1.8456193096,
				"z": -1.7209358992,
				"element": "C" 
			},
			{
				"x": 2.0655209674,
				"y": 0.6534730828,
				"z": -1.0115358775,
				"element": "C" 
			},
			{
				"x": 1.914763717,
				"y": 0.633935414,
				"z": 0.3732050967,
				"element": "C" 
			},
			{
				"x": 0.3310812413,
				"y": -0.8582777627,
				"z": 3.7289977417,
				"element": "H" 
			},
			{
				"x": -0.5856142443,
				"y": -2.4804968584,
				"z": 2.050064206,
				"element": "H" 
			},
			{
				"x": -2.6078703709,
				"y": -2.7551285387,
				"z": 0.6491667599,
				"element": "H" 
			},
			{
				"x": -3.840987535,
				"y": -0.7503444281,
				"z": -0.1742831187,
				"element": "H" 
			},
			{
				"x": -3.038522438,
				"y": 1.5183290439,
				"z": 0.4577810499,
				"element": "H" 
			},
			{
				"x": -1.0526785058,
				"y": 1.7924417788,
				"z": 1.8865169015,
				"element": "H" 
			},
			{
				"x": 1.2765555506,
				"y": 3.9382273679,
				"z": 0.8852138821,
				"element": "H" 
			},
			{
				"x": 1.4922211105,
				"y": 3.9575510992,
				"z": -1.5797796211,
				"element": "H" 
			},
			{
				"x": 2.0190108788,
				"y": 1.8559187918,
				"z": -2.8013320484,
				"element": "H" 
			},
			{
				"x": 2.3046530692,
				"y": -0.2663303681,
				"z": -1.5370322044,
				"element": "H" 
			},
			{
				"x": 2.0289748064,
				"y": -0.2944611527,
				"z": 0.9206175679,
				"element": "H" 
			}
		],
		 "valence_orbital": [ 
			{
				"type": "occ",
				"energy": -0.2697,
				"method": "rhf"
			},
			{
				"type": "occ",
				"energy": -0.25695,
				"method": "rhf"
			},
			{
				"type": "occ",
				"energy": -0.25551,
				"method": "rhf"
			},
			{
				"type": "occ",
				"energy": -0.24687,
				"method": "rhf"
			},
			{
				"type": "occ",
				"energy": -0.20536,
				"method": "rhf"
			},
			{
				"type": "unocc",
				"energy": -0.04988,
				"method": "rhf"
			},
			{
				"type": "unocc",
				"energy": -0.01544,
				"method": "rhf"
			},
			{
				"type": "unocc",
				"energy": -0.00353,
				"method": "rhf"
			},
			{
				"type": "unocc",
				"energy": 0.00122,
				"method": "rhf"
			},
			{
				"type": "unocc",
				"energy": 0.00968,
				"method": "rhf"
			}
		],
		"cosmo_sigma_profile": { 
			"-0.025": 0.0,
			"-0.024": 0.0,
			"-0.023": 0.0,
			"-0.022": 0.0,
			"-0.021": 0.0,
			"-0.02": 0.0,
			"-0.019": 0.0,
			"-0.018": 0.0,
			"-0.017": 0.0,
			"-0.016": 0.0,
			"-0.015": 0.106554072104,
			"-0.014": 0.893496114268,
			"-0.013": 1.38787728168,
			"-0.012": 0.705521280833,
			"-0.011": 0.952643151298,
			"-0.01": 0.872356800657,
			"-0.009": 1.63292612877,
			"-0.008": 0.782079556536,
			"-0.007": 2.33974145335,
			"-0.006": 13.8340782427,
			"-0.005": 21.3823375627,
			"-0.004": 23.9824192567,
			"-0.003": 18.8507990814,
			"-0.002": 16.8569964254,
			"-0.001": 17.257969347,
			"0.0": 15.842671632,
			"0.001": 19.0722621143,
			"0.002": 20.6387830516,
			"0.003": 23.0599695251,
			"0.004": 26.2505840205,
			"0.005": 21.2477253219,
			"0.006": 12.2328246896,
			"0.007": 2.55856992298,
			"0.008": 1.1457391501,
			"0.009": 1.08709491912,
			"0.01": 1.68013878824,
			"0.011": 0.770377140292,
			"0.012": 0.954478893866,
			"0.013": 0.188663382091,
			"0.014": 0.0,
			"0.015": 0.0,
			"0.016": 0.0,
			"0.017": 0.0,
			"0.018": 0.0,
			"0.019": 0.0,
			"0.02": 0.0,
			"0.021": 0.0,
			"0.022": 0.0,
			"0.023": 0.0,
			"0.024": 0.0,
			"0.025": 0.0
		}
	}
}
