{
	 "smiles": "CCOC(=O)NC1=CC=C(N)C=C1", 
	 "Tm": 347.15, 
	 "num_atms": 25, 
	 "gaussian": { 
		 "optdone": 1, 
		 "sigma_profile": "yes", 
		 "theory": "DFT", 
		 "functional": "B3LYP", 
		 "basiset": "6-31G**", 
		 "properties": { 
			 "R2extent": 3483.4152, 
			 "electric_dipole_moment_norm": 3.23891131246, 
			 "electric_quadrupole_moment_norm": 11.9160803123, 
			 "total_energy": -610.168844959, 
			 "HOMO_LUMO_gap": 0.18834, 
			 "cosmo_polarized_energy": -14.37, 
			 "cosmo_cavitation_energy": 28.99, 
			 "cosmo_dispersion_energy": -21.18, 
			 "cosmo_repulsion_energy": 1.7, 
			 "cosmo_total_nonelectrostatic_energy": 9.51, 
			 "SMD_solvation_energy": 6.17 
		},
		"coords": [
			{
				"x": -0.6199726504,
				"y": -3.2226416489,
				"z": -3.241804053,
				"element": "C" 
			},
			{
				"x": 0.3041792563,
				"y": -3.0181747382,
				"z": -2.0512969762,
				"element": "C" 
			},
			{
				"x": -0.1133537925,
				"y": -1.895262858,
				"z": -1.2401533018,
				"element": "O" 
			},
			{
				"x": -1.0785534763,
				"y": -2.1615522563,
				"z": -0.3288964323,
				"element": "C" 
			},
			{
				"x": -1.594273638,
				"y": -3.2550619125,
				"z": -0.1643929747,
				"element": "O" 
			},
			{
				"x": -1.4341834114,
				"y": -1.0615402826,
				"z": 0.4117549364,
				"element": "N" 
			},
			{
				"x": -0.9268496554,
				"y": 0.2611307239,
				"z": 0.4669523679,
				"element": "C" 
			},
			{
				"x": -1.1135679635,
				"y": 0.9769796524,
				"z": 1.6578673357,
				"element": "C" 
			},
			{
				"x": -0.686571056,
				"y": 2.2946320897,
				"z": 1.7819843162,
				"element": "C" 
			},
			{
				"x": -0.0420292354,
				"y": 2.9429491512,
				"z": 0.7168446522,
				"element": "C" 
			},
			{
				"x": 0.3458719315,
				"y": 4.2852934823,
				"z": 0.8166881279,
				"element": "N" 
			},
			{
				"x": 0.1424475172,
				"y": 2.2219607869,
				"z": -0.4731684637,
				"element": "C" 
			},
			{
				"x": -0.2989836589,
				"y": 0.9081114549,
				"z": -0.605690263,
				"element": "C" 
			},
			{
				"x": -1.621132134,
				"y": -3.4976200337,
				"z": -2.9020537022,
				"element": "H" 
			},
			{
				"x": -0.2368724882,
				"y": -4.0298427991,
				"z": -3.8753374155,
				"element": "H" 
			},
			{
				"x": -0.6856160436,
				"y": -2.3134839703,
				"z": -3.8472639424,
				"element": "H" 
			},
			{
				"x": 0.3400021406,
				"y": -3.9113545569,
				"z": -1.423829752,
				"element": "H" 
			},
			{
				"x": 1.3165289315,
				"y": -2.756120697,
				"z": -2.3687128875,
				"element": "H" 
			},
			{
				"x": -2.1104283719,
				"y": -1.3088109211,
				"z": 1.1198598262,
				"element": "H" 
			},
			{
				"x": -1.5963910165,
				"y": 0.4932066295,
				"z": 2.503856579,
				"element": "H" 
			},
			{
				"x": -0.8517072166,
				"y": 2.8254764609,
				"z": 2.7162592996,
				"element": "H" 
			},
			{
				"x": 0.5267048574,
				"y": 4.6016285201,
				"z": 1.760078705,
				"element": "H" 
			},
			{
				"x": 1.0951055348,
				"y": 4.5529258644,
				"z": 0.1924601121,
				"element": "H" 
			},
			{
				"x": 0.6285129511,
				"y": 2.7030531734,
				"z": -1.3186542175,
				"element": "H" 
			},
			{
				"x": -0.1483673117,
				"y": 0.3831186852,
				"z": -1.5386518765,
				"element": "H" 
			}
		],
		 "valence_orbital": [ 
			{
				"type": "occ",
				"energy": -0.2912,
				"method": "rhf"
			},
			{
				"type": "occ",
				"energy": -0.26924,
				"method": "rhf"
			},
			{
				"type": "occ",
				"energy": -0.2665,
				"method": "rhf"
			},
			{
				"type": "occ",
				"energy": -0.24817,
				"method": "rhf"
			},
			{
				"type": "occ",
				"energy": -0.18768,
				"method": "rhf"
			},
			{
				"type": "unocc",
				"energy": 0.00066,
				"method": "rhf"
			},
			{
				"type": "unocc",
				"energy": 0.01278,
				"method": "rhf"
			},
			{
				"type": "unocc",
				"energy": 0.06947,
				"method": "rhf"
			},
			{
				"type": "unocc",
				"energy": 0.08221,
				"method": "rhf"
			},
			{
				"type": "unocc",
				"energy": 0.08867,
				"method": "rhf"
			}
		],
		"cosmo_sigma_profile": { 
			"-0.025": 0.0,
			"-0.024": 0.0,
			"-0.023": 0.0,
			"-0.022": 0.0,
			"-0.021": 0.0,
			"-0.02": 0.0,
			"-0.019": 0.0,
			"-0.018": 0.0,
			"-0.017": 0.0,
			"-0.016": 0.0,
			"-0.015": 0.188574176832,
			"-0.014": 0.946359997063,
			"-0.013": 0.936903066031,
			"-0.012": 2.97849648602,
			"-0.011": 4.11566206499,
			"-0.01": 3.51143613955,
			"-0.009": 4.48958900104,
			"-0.008": 4.74733634125,
			"-0.007": 4.25639820984,
			"-0.006": 7.02069269817,
			"-0.005": 11.4217747031,
			"-0.004": 17.0295160683,
			"-0.003": 19.0111175774,
			"-0.002": 15.7019642048,
			"-0.001": 16.3207917218,
			"0.0": 18.6937051568,
			"0.001": 14.8751650712,
			"0.002": 10.9298409427,
			"0.003": 9.44283110986,
			"0.004": 10.8195190674,
			"0.005": 10.7410422503,
			"0.006": 14.3173206646,
			"0.007": 6.4947518054,
			"0.008": 2.17190421691,
			"0.009": 2.38390109026,
			"0.01": 2.44973317791,
			"0.011": 2.42059005653,
			"0.012": 2.04813591162,
			"0.013": 6.06732180402,
			"0.014": 1.91089894789,
			"0.015": 0.490193548863,
			"0.016": 0.0914172396881,
			"0.017": 0.0,
			"0.018": 0.0,
			"0.019": 0.0,
			"0.02": 0.0,
			"0.021": 0.0,
			"0.022": 0.0,
			"0.023": 0.0,
			"0.024": 0.0,
			"0.025": 0.0
		}
	}
}
