{
	 "smiles": "OC(=O)CSCC1=CC(Cl)=CC=C1", 
	 "Tm": 348.15, 
	 "num_atms": 22, 
	 "gaussian": { 
		 "optdone": 1, 
		 "sigma_profile": "yes", 
		 "theory": "DFT", 
		 "functional": "B3LYP", 
		 "basiset": "6-31G**", 
		 "properties": { 
			 "R2extent": 3997.1772, 
			 "electric_dipole_moment_norm": 1.47092303334, 
			 "electric_quadrupole_moment_norm": 14.1515632886, 
			 "total_energy": -1357.22802455, 
			 "HOMO_LUMO_gap": 0.20939, 
			 "cosmo_polarized_energy": -11.06, 
			 "cosmo_cavitation_energy": 29.42, 
			 "cosmo_dispersion_energy": -21.43, 
			 "cosmo_repulsion_energy": 1.67, 
			 "cosmo_total_nonelectrostatic_energy": 9.66, 
			 "SMD_solvation_energy": 5.29 
		},
		"coords": [
			{
				"x": -2.4254196231,
				"y": -0.8409792544,
				"z": -2.1988055028,
				"element": "O" 
			},
			{
				"x": -1.3661303867,
				"y": -0.7879860887,
				"z": -1.3652170784,
				"element": "C" 
			},
			{
				"x": -0.7855089496,
				"y": -1.7821458615,
				"z": -0.9750370788,
				"element": "O" 
			},
			{
				"x": -0.9795048717,
				"y": 0.6293934775,
				"z": -1.0152797243,
				"element": "C" 
			},
			{
				"x": 0.4309756789,
				"y": 1.1990676752,
				"z": -2.0481196492,
				"element": "S" 
			},
			{
				"x": 1.8013681181,
				"y": 0.1409962067,
				"z": -1.3880984914,
				"element": "C" 
			},
			{
				"x": 2.1514239836,
				"y": 0.3970694032,
				"z": 0.0555939715,
				"element": "C" 
			},
			{
				"x": 1.6679154924,
				"y": -0.4625242097,
				"z": 1.0520961767,
				"element": "C" 
			},
			{
				"x": 1.9966706568,
				"y": -0.220008367,
				"z": 2.3862130566,
				"element": "C" 
			},
			{
				"x": 1.3846274839,
				"y": -1.3050186382,
				"z": 3.629687102,
				"element": "Cl" 
			},
			{
				"x": 2.798170937,
				"y": 0.8572407209,
				"z": 2.756744462,
				"element": "C" 
			},
			{
				"x": 3.275227439,
				"y": 1.7103691093,
				"z": 1.7584860273,
				"element": "C" 
			},
			{
				"x": 2.954683564,
				"y": 1.4865243782,
				"z": 0.4216478557,
				"element": "C" 
			},
			{
				"x": -2.5708401548,
				"y": -1.7812294447,
				"z": -2.4001349421,
				"element": "H" 
			},
			{
				"x": -0.7030747096,
				"y": 0.6810157485,
				"z": 0.0400402521,
				"element": "H" 
			},
			{
				"x": -1.7972662691,
				"y": 1.3217134423,
				"z": -1.2197189732,
				"element": "H" 
			},
			{
				"x": 2.6399583668,
				"y": 0.3865666434,
				"z": -2.0462917676,
				"element": "H" 
			},
			{
				"x": 1.533014029,
				"y": -0.9042704387,
				"z": -1.5511306645,
				"element": "H" 
			},
			{
				"x": 1.0393622986,
				"y": -1.3056500586,
				"z": 0.7841953756,
				"element": "H" 
			},
			{
				"x": 3.0435172147,
				"y": 1.0223801614,
				"z": 3.7998541848,
				"element": "H" 
			},
			{
				"x": 3.9039086428,
				"y": 2.5524793403,
				"z": 2.0324968872,
				"element": "H" 
			},
			{
				"x": 3.3275210588,
				"y": 2.1592960543,
				"z": -0.3457214792,
				"element": "H" 
			}
		],
		 "valence_orbital": [ 
			{
				"type": "occ",
				"energy": -0.30988,
				"method": "rhf"
			},
			{
				"type": "occ",
				"energy": -0.29236,
				"method": "rhf"
			},
			{
				"type": "occ",
				"energy": -0.25859,
				"method": "rhf"
			},
			{
				"type": "occ",
				"energy": -0.24864,
				"method": "rhf"
			},
			{
				"type": "occ",
				"energy": -0.23359,
				"method": "rhf"
			},
			{
				"type": "unocc",
				"energy": -0.0242,
				"method": "rhf"
			},
			{
				"type": "unocc",
				"energy": -0.01803,
				"method": "rhf"
			},
			{
				"type": "unocc",
				"energy": -0.01425,
				"method": "rhf"
			},
			{
				"type": "unocc",
				"energy": 0.03085,
				"method": "rhf"
			},
			{
				"type": "unocc",
				"energy": 0.04631,
				"method": "rhf"
			}
		],
		"cosmo_sigma_profile": { 
			"-0.025": 0.0,
			"-0.024": 0.0,
			"-0.023": 0.0,
			"-0.022": 0.0,
			"-0.021": 0.0,
			"-0.02": 0.0,
			"-0.019": 0.0998190270854,
			"-0.018": 0.91786350216,
			"-0.017": 0.966057926387,
			"-0.016": 0.852627945174,
			"-0.015": 0.687299655039,
			"-0.014": 1.07932074372,
			"-0.013": 0.516585708102,
			"-0.012": 0.412329079474,
			"-0.011": 1.28884361956,
			"-0.01": 0.627373665454,
			"-0.009": 0.5381738039,
			"-0.008": 2.90899371806,
			"-0.007": 8.35397019899,
			"-0.006": 13.6741088093,
			"-0.005": 15.464500527,
			"-0.004": 13.2303204469,
			"-0.003": 14.1599203244,
			"-0.002": 14.8004531875,
			"-0.001": 14.6990125097,
			"0.0": 14.6659207571,
			"0.001": 15.6165098807,
			"0.002": 19.9248862873,
			"0.003": 19.7008805637,
			"0.004": 23.6381771065,
			"0.005": 15.0521615244,
			"0.006": 4.27160783457,
			"0.007": 5.55057153263,
			"0.008": 5.47413978017,
			"0.009": 3.91190645089,
			"0.01": 2.21097072898,
			"0.011": 2.0760268968,
			"0.012": 1.23399270122,
			"0.013": 0.0,
			"0.014": 0.0,
			"0.015": 0.0,
			"0.016": 0.0,
			"0.017": 0.0,
			"0.018": 0.0,
			"0.019": 0.0,
			"0.02": 0.0,
			"0.021": 0.0,
			"0.022": 0.0,
			"0.023": 0.0,
			"0.024": 0.0,
			"0.025": 0.0
		}
	}
}
