{
	 "smiles": "CC(C)CC1=NN=C(N)S1", 
	 "Tm": 513.15, 
	 "num_atms": 21, 
	 "gaussian": { 
		 "optdone": 1, 
		 "sigma_profile": "yes", 
		 "theory": "DFT", 
		 "functional": "B3LYP", 
		 "basiset": "6-31G**", 
		 "properties": { 
			 "R2extent": 2697.1701, 
			 "electric_dipole_moment_norm": 2.89596651914, 
			 "electric_quadrupole_moment_norm": 15.2296584108, 
			 "total_energy": -797.696191763, 
			 "HOMO_LUMO_gap": 0.21387, 
			 "cosmo_polarized_energy": -13.33, 
			 "cosmo_cavitation_energy": 25.62, 
			 "cosmo_dispersion_energy": -19.21, 
			 "cosmo_repulsion_energy": 1.54, 
			 "cosmo_total_nonelectrostatic_energy": 7.95, 
			 "SMD_solvation_energy": 2.42 
		},
		"coords": [
			{
				"x": -3.5287713465,
				"y": -0.6923435817,
				"z": -1.1594548082,
				"element": "C" 
			},
			{
				"x": -2.3319958097,
				"y": -0.3046436554,
				"z": -0.2790383434,
				"element": "C" 
			},
			{
				"x": -1.4862817605,
				"y": -1.5349960373,
				"z": 0.0771149421,
				"element": "C" 
			},
			{
				"x": -1.4967483769,
				"y": 0.78308616,
				"z": -0.987370179,
				"element": "C" 
			},
			{
				"x": -0.4569976331,
				"y": 1.4362252897,
				"z": -0.1189661966,
				"element": "C" 
			},
			{
				"x": -0.4219120663,
				"y": 1.3914017106,
				"z": 1.1739767357,
				"element": "N" 
			},
			{
				"x": 0.6146466695,
				"y": 2.0866576366,
				"z": 1.7436245144,
				"element": "N" 
			},
			{
				"x": 1.3640488229,
				"y": 2.6825171902,
				"z": 0.8573634235,
				"element": "C" 
			},
			{
				"x": 2.414486893,
				"y": 3.5079254584,
				"z": 1.1865015577,
				"element": "N" 
			},
			{
				"x": 0.8541023626,
				"y": 2.423511049,
				"z": -0.8091157025,
				"element": "S" 
			},
			{
				"x": -3.1966301985,
				"y": -1.1133831298,
				"z": -2.1167216728,
				"element": "H" 
			},
			{
				"x": -4.1471551092,
				"y": -1.4481918134,
				"z": -0.6643726621,
				"element": "H" 
			},
			{
				"x": -4.1669647976,
				"y": 0.1711174718,
				"z": -1.3779609132,
				"element": "H" 
			},
			{
				"x": -2.7102901546,
				"y": 0.1293578747,
				"z": 0.6539140196,
				"element": "H" 
			},
			{
				"x": -2.0971600437,
				"y": -2.2889509439,
				"z": 0.5848910602,
				"element": "H" 
			},
			{
				"x": -1.0702306869,
				"y": -1.9995839139,
				"z": -0.8260171028,
				"element": "H" 
			},
			{
				"x": -0.6604483213,
				"y": -1.2693590524,
				"z": 0.7411414369,
				"element": "H" 
			},
			{
				"x": -2.1672238442,
				"y": 1.5678496808,
				"z": -1.3653914104,
				"element": "H" 
			},
			{
				"x": -1.0096630565,
				"y": 0.3540158926,
				"z": -1.873611745,
				"element": "H" 
			},
			{
				"x": 3.2068350236,
				"y": 3.505128578,
				"z": 0.5599189126,
				"element": "H" 
			},
			{
				"x": 2.6695534339,
				"y": 3.4327581354,
				"z": 2.1636741332,
				"element": "H" 
			}
		],
		 "valence_orbital": [ 
			{
				"type": "occ",
				"energy": -0.32418,
				"method": "rhf"
			},
			{
				"type": "occ",
				"energy": -0.29253,
				"method": "rhf"
			},
			{
				"type": "occ",
				"energy": -0.28296,
				"method": "rhf"
			},
			{
				"type": "occ",
				"energy": -0.25353,
				"method": "rhf"
			},
			{
				"type": "occ",
				"energy": -0.22874,
				"method": "rhf"
			},
			{
				"type": "unocc",
				"energy": -0.01487,
				"method": "rhf"
			},
			{
				"type": "unocc",
				"energy": -0.00052,
				"method": "rhf"
			},
			{
				"type": "unocc",
				"energy": 0.04889,
				"method": "rhf"
			},
			{
				"type": "unocc",
				"energy": 0.06744,
				"method": "rhf"
			},
			{
				"type": "unocc",
				"energy": 0.08825,
				"method": "rhf"
			}
		],
		"cosmo_sigma_profile": { 
			"-0.025": 0.0,
			"-0.024": 0.0,
			"-0.023": 0.0,
			"-0.022": 0.0,
			"-0.021": 0.0,
			"-0.02": 0.0,
			"-0.019": 0.0,
			"-0.018": 0.0,
			"-0.017": 0.0,
			"-0.016": 0.0,
			"-0.015": 0.718282609692,
			"-0.014": 2.20457656413,
			"-0.013": 2.79067784838,
			"-0.012": 2.94686530577,
			"-0.011": 2.8017438645,
			"-0.01": 2.36764499733,
			"-0.009": 1.2012415738,
			"-0.008": 1.74446684425,
			"-0.007": 2.29877990047,
			"-0.006": 2.07480583891,
			"-0.005": 6.94145332091,
			"-0.004": 9.30308172475,
			"-0.003": 16.6590707034,
			"-0.002": 20.1575465722,
			"-0.001": 20.95439945,
			"0.0": 23.850240781,
			"0.001": 24.8929295005,
			"0.002": 15.1630484701,
			"0.003": 8.06554348371,
			"0.004": 4.27516109047,
			"0.005": 3.65565853064,
			"0.006": 2.95493408016,
			"0.007": 3.40518217479,
			"0.008": 2.94408270892,
			"0.009": 2.66456393526,
			"0.01": 2.04402087359,
			"0.011": 3.51433979101,
			"0.012": 2.88765142495,
			"0.013": 3.50396516087,
			"0.014": 2.14164773688,
			"0.015": 1.42290366482,
			"0.016": 0.412588072767,
			"0.017": 0.0,
			"0.018": 0.0,
			"0.019": 0.0,
			"0.02": 0.0,
			"0.021": 0.0,
			"0.022": 0.0,
			"0.023": 0.0,
			"0.024": 0.0,
			"0.025": 0.0
		}
	}
}
