{
	 "smiles": "C1=CC2=C3C4=C1C=CC1=C4C4=C(C=C1)C=CC1=C4C3=C(C=C2)C=C1", 
	 "Tm": 712.15, 
	 "num_atms": 36, 
	 "gaussian": { 
		 "optdone": 1, 
		 "sigma_profile": "yes", 
		 "theory": "DFT", 
		 "functional": "B3LYP", 
		 "basiset": "6-31G**", 
		 "properties": { 
			 "R2extent": 6329.4135, 
			 "electric_dipole_moment_norm": 0.0, 
			 "electric_quadrupole_moment_norm": 18.117894939, 
			 "total_energy": -921.896960424, 
			 "HOMO_LUMO_gap": 0.14814, 
			 "cosmo_polarized_energy": -7.78, 
			 "cosmo_cavitation_energy": 37.29, 
			 "cosmo_dispersion_energy": -28.44, 
			 "cosmo_repulsion_energy": 1.96, 
			 "cosmo_total_nonelectrostatic_energy": 10.81, 
			 "SMD_solvation_energy": 4.17 
		},
		"coords": [
			{
				"x": 3.4479696858,
				"y": 1.5645197565,
				"z": 0.9600073133,
				"element": "C" 
			},
			{
				"x": 3.7920523883,
				"y": 0.2385356382,
				"z": 0.8781059957,
				"element": "C" 
			},
			{
				"x": 2.8730101077,
				"y": -0.7345004111,
				"z": 0.3914739058,
				"element": "C" 
			},
			{
				"x": 1.5776781593,
				"y": -0.3096358792,
				"z": -0.0137625671,
				"element": "C" 
			},
			{
				"x": 1.2197100513,
				"y": 1.0698575114,
				"z": 0.0714313016,
				"element": "C" 
			},
			{
				"x": 2.1584692724,
				"y": 2.0191398876,
				"z": 0.5615533142,
				"element": "C" 
			},
			{
				"x": 1.7733255021,
				"y": 3.3882615358,
				"z": 0.6352636445,
				"element": "C" 
			},
			{
				"x": 0.5233974519,
				"y": 3.798238782,
				"z": 0.244204276,
				"element": "C" 
			},
			{
				"x": -0.4372461085,
				"y": 2.8705210691,
				"z": -0.2505342478,
				"element": "C" 
			},
			{
				"x": -0.0806589404,
				"y": 1.4963800843,
				"z": -0.3354035761,
				"element": "C" 
			},
			{
				"x": -1.02307315,
				"y": 0.5434018714,
				"z": -0.8274308139,
				"element": "C" 
			},
			{
				"x": -2.3184039423,
				"y": 0.9682671333,
				"z": -1.2326667136,
				"element": "C" 
			},
			{
				"x": -2.6472766988,
				"y": 2.3505902089,
				"z": -1.136387437,
				"element": "C" 
			},
			{
				"x": -1.7414145773,
				"y": 3.2666088182,
				"z": -0.663459269,
				"element": "C" 
			},
			{
				"x": -3.2374474645,
				"y": -0.0047694071,
				"z": -1.7193000987,
				"element": "C" 
			},
			{
				"x": -2.8933650773,
				"y": -1.3307525588,
				"z": -1.8012034078,
				"element": "C" 
			},
			{
				"x": -1.6038630924,
				"y": -1.785373047,
				"z": -1.4027489096,
				"element": "C" 
			},
			{
				"x": -0.6651031947,
				"y": -0.8360908074,
				"z": -0.9126255002,
				"element": "C" 
			},
			{
				"x": 0.6352635744,
				"y": -1.2626138687,
				"z": -0.505790518,
				"element": "C" 
			},
			{
				"x": 0.9918509921,
				"y": -2.6367548021,
				"z": -0.5906601205,
				"element": "C" 
			},
			{
				"x": 2.2960200567,
				"y": -3.0328425228,
				"z": -0.1777337371,
				"element": "C" 
			},
			{
				"x": 3.2018817466,
				"y": -2.1168245637,
				"z": 0.2951946309,
				"element": "C" 
			},
			{
				"x": 0.0312094654,
				"y": -3.5644711223,
				"z": -1.0853990465,
				"element": "C" 
			},
			{
				"x": -1.2187196951,
				"y": -3.1544929941,
				"z": -1.4764604667,
				"element": "C" 
			},
			{
				"x": 4.1636418177,
				"y": 2.2920729373,
				"z": 1.3342439904,
				"element": "H" 
			},
			{
				"x": 4.7814600289,
				"y": -0.0887787499,
				"z": 1.1871612363,
				"element": "H" 
			},
			{
				"x": 2.4926595532,
				"y": 4.1118010946,
				"z": 1.0102674872,
				"element": "H" 
			},
			{
				"x": 0.2483575206,
				"y": 4.8479260479,
				"z": 0.308112506,
				"element": "H" 
			},
			{
				"x": -3.6379935063,
				"y": 2.6727066001,
				"z": -1.4467042875,
				"element": "H" 
			},
			{
				"x": -2.0114730301,
				"y": 4.3174641491,
				"z": -0.5975308127,
				"element": "H" 
			},
			{
				"x": -4.2268540313,
				"y": 0.322547883,
				"z": -2.0283562851,
				"element": "H" 
			},
			{
				"x": -3.6090368729,
				"y": -2.0583066952,
				"z": -2.1754392824,
				"element": "H" 
			},
			{
				"x": 2.5660793322,
				"y": -4.0836976289,
				"z": -0.2436618106,
				"element": "H" 
			},
			{
				"x": 4.1925982793,
				"y": -2.4389411753,
				"z": 0.6055119152,
				"element": "H" 
			},
			{
				"x": 0.3062449414,
				"y": -4.6141588754,
				"z": -1.1493085949,
				"element": "H" 
			},
			{
				"x": -1.9380505454,
				"y": -3.8780358998,
				"z": -1.8514640144,
				"element": "H" 
			}
		],
		 "valence_orbital": [ 
			{
				"type": "occ",
				"energy": -0.26381,
				"method": "rhf"
			},
			{
				"type": "occ",
				"energy": -0.24741,
				"method": "rhf"
			},
			{
				"type": "occ",
				"energy": -0.24741,
				"method": "rhf"
			},
			{
				"type": "occ",
				"energy": -0.20055,
				"method": "rhf"
			},
			{
				"type": "occ",
				"energy": -0.20055,
				"method": "rhf"
			},
			{
				"type": "unocc",
				"energy": -0.05241,
				"method": "rhf"
			},
			{
				"type": "unocc",
				"energy": -0.0524,
				"method": "rhf"
			},
			{
				"type": "unocc",
				"energy": -0.01123,
				"method": "rhf"
			},
			{
				"type": "unocc",
				"energy": -0.01123,
				"method": "rhf"
			},
			{
				"type": "unocc",
				"energy": 0.00883,
				"method": "rhf"
			}
		],
		"cosmo_sigma_profile": { 
			"-0.025": 0.0,
			"-0.024": 0.0,
			"-0.023": 0.0,
			"-0.022": 0.0,
			"-0.021": 0.0,
			"-0.02": 0.0,
			"-0.019": 0.0,
			"-0.018": 0.0,
			"-0.017": 0.0,
			"-0.016": 0.0,
			"-0.015": 0.0,
			"-0.014": 0.0,
			"-0.013": 0.0,
			"-0.012": 0.0,
			"-0.011": 0.0,
			"-0.01": 0.0,
			"-0.009": 0.0,
			"-0.008": 0.0,
			"-0.007": 1.32249740559,
			"-0.006": 28.6727343354,
			"-0.005": 24.4596378577,
			"-0.004": 22.6121885101,
			"-0.003": 18.7633135299,
			"-0.002": 14.2992783776,
			"-0.001": 13.7107094324,
			"0.0": 12.6978558607,
			"0.001": 17.530325836,
			"0.002": 33.4435823141,
			"0.003": 62.199185068,
			"0.004": 41.8982024607,
			"0.005": 10.4643900789,
			"0.006": 0.0,
			"0.007": 0.0,
			"0.008": 0.0,
			"0.009": 0.0,
			"0.01": 0.0,
			"0.011": 0.0,
			"0.012": 0.0,
			"0.013": 0.0,
			"0.014": 0.0,
			"0.015": 0.0,
			"0.016": 0.0,
			"0.017": 0.0,
			"0.018": 0.0,
			"0.019": 0.0,
			"0.02": 0.0,
			"0.021": 0.0,
			"0.022": 0.0,
			"0.023": 0.0,
			"0.024": 0.0,
			"0.025": 0.0
		}
	}
}
