{
	 "smiles": "OCC1=CC=C(O1)C1=CC(=CC(=C1)C(F)(F)F)C(F)(F)F", 
	 "Tm": 385.15, 
	 "num_atms": 29, 
	 "gaussian": { 
		 "optdone": 1, 
		 "sigma_profile": "yes", 
		 "theory": "DFT", 
		 "functional": "B3LYP", 
		 "basiset": "6-31G**", 
		 "properties": { 
			 "R2extent": 8210.6119, 
			 "electric_dipole_moment_norm": 2.50113975219, 
			 "electric_quadrupole_moment_norm": 7.6061673016, 
			 "total_energy": -1249.68252027, 
			 "HOMO_LUMO_gap": 0.16436, 
			 "cosmo_polarized_energy": -9.88, 
			 "cosmo_cavitation_energy": 37.66, 
			 "cosmo_dispersion_energy": -25.59, 
			 "cosmo_repulsion_energy": 1.86, 
			 "cosmo_total_nonelectrostatic_energy": 13.92, 
			 "SMD_solvation_energy": 8.99 
		},
		"coords": [
			{
				"x": -2.1607185608,
				"y": -3.6580169964,
				"z": 2.8461282434,
				"element": "O" 
			},
			{
				"x": -0.8174690328,
				"y": -3.2633518988,
				"z": 3.1076538127,
				"element": "C" 
			},
			{
				"x": -0.5109695675,
				"y": -1.870649691,
				"z": 2.6679111909,
				"element": "C" 
			},
			{
				"x": -0.2984002509,
				"y": -0.6885691886,
				"z": 3.3175270303,
				"element": "C" 
			},
			{
				"x": -0.0917866908,
				"y": 0.3022019156,
				"z": 2.3117358874,
				"element": "C" 
			},
			{
				"x": -0.196588336,
				"y": -0.3352240939,
				"z": 1.1013780921,
				"element": "C" 
			},
			{
				"x": -0.449391502,
				"y": -1.6667301744,
				"z": 1.3145351755,
				"element": "O" 
			},
			{
				"x": -0.0904022507,
				"y": 0.1084609321,
				"z": -0.2810602257,
				"element": "C" 
			},
			{
				"x": 0.1465697385,
				"y": 1.4609652455,
				"z": -0.5814164289,
				"element": "C" 
			},
			{
				"x": 0.2471104046,
				"y": 1.8839074254,
				"z": -1.9034773966,
				"element": "C" 
			},
			{
				"x": 0.116829166,
				"y": 0.9760096087,
				"z": -2.956815722,
				"element": "C" 
			},
			{
				"x": -0.1177510191,
				"y": -0.3667630556,
				"z": -2.662669377,
				"element": "C" 
			},
			{
				"x": -0.2225922301,
				"y": -0.8015703307,
				"z": -1.3425413247,
				"element": "C" 
			},
			{
				"x": -0.1955932061,
				"y": -1.3736676879,
				"z": -3.7818272688,
				"element": "C" 
			},
			{
				"x": -0.6460635221,
				"y": -0.8171755639,
				"z": -4.9261919981,
				"element": "F" 
			},
			{
				"x": -1.0174978799,
				"y": -2.4006918747,
				"z": -3.4743213328,
				"element": "F" 
			},
			{
				"x": 1.0177116361,
				"y": -1.9065437586,
				"z": -4.0505823322,
				"element": "F" 
			},
			{
				"x": 0.4346586851,
				"y": 3.3483389479,
				"z": -2.2070490576,
				"element": "C" 
			},
			{
				"x": 1.1497723052,
				"y": 3.5358594747,
				"z": -3.3365573453,
				"element": "F" 
			},
			{
				"x": -0.7522705544,
				"y": 3.9715357471,
				"z": -2.3826267929,
				"element": "F" 
			},
			{
				"x": 1.0741608014,
				"y": 3.9910938363,
				"z": -1.2055210694,
				"element": "F" 
			},
			{
				"x": -2.2942872114,
				"y": -3.6155770138,
				"z": 1.8900230791,
				"element": "H" 
			},
			{
				"x": -0.1025153658,
				"y": -3.9607717525,
				"z": 2.6437585216,
				"element": "H" 
			},
			{
				"x": -0.6836040537,
				"y": -3.3246990598,
				"z": 4.1905335813,
				"element": "H" 
			},
			{
				"x": -0.2935878802,
				"y": -0.5431687187,
				"z": 4.3882041345,
				"element": "H" 
			},
			{
				"x": 0.1091055503,
				"y": 1.3517954092,
				"z": 2.470196359,
				"element": "H" 
			},
			{
				"x": 0.2577099867,
				"y": 2.1863131859,
				"z": 0.2163050976,
				"element": "H" 
			},
			{
				"x": 0.1970909729,
				"y": 1.309405307,
				"z": -3.9842004753,
				"element": "H" 
			},
			{
				"x": -0.4102301325,
				"y": -1.8472161761,
				"z": -1.132032058,
				"element": "H" 
			}
		],
		 "valence_orbital": [ 
			{
				"type": "occ",
				"energy": -0.30967,
				"method": "rhf"
			},
			{
				"type": "occ",
				"energy": -0.2952,
				"method": "rhf"
			},
			{
				"type": "occ",
				"energy": -0.28746,
				"method": "rhf"
			},
			{
				"type": "occ",
				"energy": -0.2851,
				"method": "rhf"
			},
			{
				"type": "occ",
				"energy": -0.22587,
				"method": "rhf"
			},
			{
				"type": "unocc",
				"energy": -0.06151,
				"method": "rhf"
			},
			{
				"type": "unocc",
				"energy": -0.04755,
				"method": "rhf"
			},
			{
				"type": "unocc",
				"energy": 0.01012,
				"method": "rhf"
			},
			{
				"type": "unocc",
				"energy": 0.05003,
				"method": "rhf"
			},
			{
				"type": "unocc",
				"energy": 0.07646,
				"method": "rhf"
			}
		],
		"cosmo_sigma_profile": { 
			"-0.025": 0.0,
			"-0.024": 0.0,
			"-0.023": 0.0,
			"-0.022": 0.0,
			"-0.021": 0.0,
			"-0.02": 0.0,
			"-0.019": 0.0,
			"-0.018": 0.0,
			"-0.017": 0.0,
			"-0.016": 0.115564899432,
			"-0.015": 0.88713104421,
			"-0.014": 0.622889381386,
			"-0.013": 0.459206013578,
			"-0.012": 1.24699833805,
			"-0.011": 0.890671963716,
			"-0.01": 0.86724488998,
			"-0.009": 1.88532284106,
			"-0.008": 3.89949459248,
			"-0.007": 8.8625151588,
			"-0.006": 12.176212158,
			"-0.005": 14.4745766088,
			"-0.004": 14.1033812264,
			"-0.003": 14.4577696547,
			"-0.002": 16.488430319,
			"-0.001": 19.223694875,
			"0.0": 30.1534100452,
			"0.001": 39.5822173745,
			"0.002": 49.1898017271,
			"0.003": 49.0888313229,
			"0.004": 7.18578267147,
			"0.005": 3.39120783389,
			"0.006": 1.05850455051,
			"0.007": 1.51054183242,
			"0.008": 1.56840282056,
			"0.009": 1.12799630964,
			"0.01": 0.802348587035,
			"0.011": 1.46465333893,
			"0.012": 1.90346582048,
			"0.013": 2.11030586276,
			"0.014": 1.559995373,
			"0.015": 0.0,
			"0.016": 0.0,
			"0.017": 0.0,
			"0.018": 0.0,
			"0.019": 0.0,
			"0.02": 0.0,
			"0.021": 0.0,
			"0.022": 0.0,
			"0.023": 0.0,
			"0.024": 0.0,
			"0.025": 0.0
		}
	}
}
