{
	 "smiles": "[O-][N+](=O)C1=CC(=CC(=C1)C(=O)NC1=CC=CC=C1)S(=O)(=O)NC1=CC=CC=C1", 
	 "Tm": 461.15, 
	 "num_atms": 43, 
	 "gaussian": { 
		 "optdone": 1, 
		 "sigma_profile": "yes", 
		 "theory": "DFT", 
		 "functional": "B3LYP", 
		 "basiset": "6-31G**", 
		 "properties": { 
			 "R2extent": 11145.109, 
			 "electric_dipole_moment_norm": 7.59970306657, 
			 "electric_quadrupole_moment_norm": 17.2985781971, 
			 "total_energy": -1671.45785035, 
			 "HOMO_LUMO_gap": 0.14146, 
			 "cosmo_polarized_energy": -24.74, 
			 "cosmo_cavitation_energy": 51.29, 
			 "cosmo_dispersion_energy": -32.32, 
			 "cosmo_repulsion_energy": 2.39, 
			 "cosmo_total_nonelectrostatic_energy": 21.37, 
			 "SMD_solvation_energy": 10.55 
		},
		"coords": [
			{
				"x": -0.7442436557,
				"y": 4.6266811933,
				"z": 3.9280814102,
				"element": "O" 
			},
			{
				"x": -1.4731969441,
				"y": 4.1582884459,
				"z": 3.0577613822,
				"element": "N" 
			},
			{
				"x": -2.3621103665,
				"y": 4.7722832377,
				"z": 2.4710344213,
				"element": "O" 
			},
			{
				"x": -1.2612154184,
				"y": 2.7467529074,
				"z": 2.6796078636,
				"element": "C" 
			},
			{
				"x": -2.0781639921,
				"y": 2.1906402528,
				"z": 1.7013983072,
				"element": "C" 
			},
			{
				"x": -1.8497968934,
				"y": 0.8598835655,
				"z": 1.3562781758,
				"element": "C" 
			},
			{
				"x": -0.8467542686,
				"y": 0.1036075748,
				"z": 1.9616663439,
				"element": "C" 
			},
			{
				"x": -0.0388425212,
				"y": 0.6901594241,
				"z": 2.9471863695,
				"element": "C" 
			},
			{
				"x": -0.2614391667,
				"y": 2.0194972878,
				"z": 3.3185075444,
				"element": "C" 
			},
			{
				"x": 0.9944276524,
				"y": -0.0636263393,
				"z": 3.7473900061,
				"element": "C" 
			},
			{
				"x": 1.219132298,
				"y": 0.2627630749,
				"z": 4.9068261035,
				"element": "O" 
			},
			{
				"x": 1.626423931,
				"y": -1.1550838003,
				"z": 3.1942029859,
				"element": "N" 
			},
			{
				"x": 1.846086792,
				"y": -1.5189162466,
				"z": 1.8370726729,
				"element": "C" 
			},
			{
				"x": 2.1217505481,
				"y": -0.5623919316,
				"z": 0.8511499277,
				"element": "C" 
			},
			{
				"x": 2.3370643973,
				"y": -0.9663040054,
				"z": -0.4660725452,
				"element": "C" 
			},
			{
				"x": 2.3188004791,
				"y": -2.3205791877,
				"z": -0.8035307407,
				"element": "C" 
			},
			{
				"x": 2.0755469814,
				"y": -3.2749151578,
				"z": 0.1859199742,
				"element": "C" 
			},
			{
				"x": 1.8294155385,
				"y": -2.8784866568,
				"z": 1.4994517601,
				"element": "C" 
			},
			{
				"x": -2.9284886991,
				"y": 0.0665255674,
				"z": 0.1543150449,
				"element": "S" 
			},
			{
				"x": -2.3772856611,
				"y": -1.2683534437,
				"z": -0.0939480292,
				"element": "O" 
			},
			{
				"x": -4.323595574,
				"y": 0.2478841088,
				"z": 0.5617574317,
				"element": "O" 
			},
			{
				"x": -2.7579833614,
				"y": 1.0880576875,
				"z": -1.1965720103,
				"element": "N" 
			},
			{
				"x": -1.6550471073,
				"y": 0.9001570501,
				"z": -2.1039812831,
				"element": "C" 
			},
			{
				"x": -0.5843632439,
				"y": 1.7964126256,
				"z": -2.0385227577,
				"element": "C" 
			},
			{
				"x": 0.4860811631,
				"y": 1.667508387,
				"z": -2.9249904377,
				"element": "C" 
			},
			{
				"x": 0.4853856883,
				"y": 0.6470250627,
				"z": -3.8782936431,
				"element": "C" 
			},
			{
				"x": -0.5843139696,
				"y": -0.2497748627,
				"z": -3.9401976197,
				"element": "C" 
			},
			{
				"x": -1.6522403888,
				"y": -0.1299510873,
				"z": -3.0516922262,
				"element": "C" 
			},
			{
				"x": -2.8551327662,
				"y": 2.7823658199,
				"z": 1.234353927,
				"element": "H" 
			},
			{
				"x": -0.7188203117,
				"y": -0.929131537,
				"z": 1.6616856304,
				"element": "H" 
			},
			{
				"x": 0.3307922224,
				"y": 2.4714566247,
				"z": 4.103883131,
				"element": "H" 
			},
			{
				"x": 2.1707593453,
				"y": -1.6523387534,
				"z": 3.889871901,
				"element": "H" 
			},
			{
				"x": 2.1729876173,
				"y": 0.4880262477,
				"z": 1.1170824139,
				"element": "H" 
			},
			{
				"x": 2.5277567573,
				"y": -0.2177596827,
				"z": -1.2286024145,
				"element": "H" 
			},
			{
				"x": 2.4941126179,
				"y": -2.6295473891,
				"z": -1.8292059077,
				"element": "H" 
			},
			{
				"x": 2.0606353457,
				"y": -4.3311366243,
				"z": -0.0655320777,
				"element": "H" 
			},
			{
				"x": 1.6124001236,
				"y": -3.6158589244,
				"z": 2.267025599,
				"element": "H" 
			},
			{
				"x": -3.6751799799,
				"y": 1.1306445601,
				"z": -1.6364263421,
				"element": "H" 
			},
			{
				"x": -0.6118625261,
				"y": 2.5973963841,
				"z": -1.307125033,
				"element": "H" 
			},
			{
				"x": 1.3102568792,
				"y": 2.3735241156,
				"z": -2.8812491499,
				"element": "H" 
			},
			{
				"x": 1.3129335484,
				"y": 0.5538057856,
				"z": -4.5755511466,
				"element": "H" 
			},
			{
				"x": -0.5863927851,
				"y": -1.0456076652,
				"z": -4.6789513826,
				"element": "H" 
			},
			{
				"x": -2.4783803254,
				"y": -0.8331836958,
				"z": -3.0814655806,
				"element": "H" 
			}
		],
		 "valence_orbital": [ 
			{
				"type": "occ",
				"energy": -0.27299,
				"method": "rhf"
			},
			{
				"type": "occ",
				"energy": -0.27181,
				"method": "rhf"
			},
			{
				"type": "occ",
				"energy": -0.26851,
				"method": "rhf"
			},
			{
				"type": "occ",
				"energy": -0.26588,
				"method": "rhf"
			},
			{
				"type": "occ",
				"energy": -0.24421,
				"method": "rhf"
			},
			{
				"type": "unocc",
				"energy": -0.10275,
				"method": "rhf"
			},
			{
				"type": "unocc",
				"energy": -0.07565,
				"method": "rhf"
			},
			{
				"type": "unocc",
				"energy": -0.03871,
				"method": "rhf"
			},
			{
				"type": "unocc",
				"energy": -0.03236,
				"method": "rhf"
			},
			{
				"type": "unocc",
				"energy": -0.02339,
				"method": "rhf"
			}
		],
		"cosmo_sigma_profile": { 
			"-0.025": 0.0,
			"-0.024": 0.0,
			"-0.023": 0.0,
			"-0.022": 0.0,
			"-0.021": 0.0,
			"-0.02": 0.0,
			"-0.019": 0.0,
			"-0.018": 0.0,
			"-0.017": 0.0,
			"-0.016": 0.128935587115,
			"-0.015": 1.2762412022,
			"-0.014": 2.26384029345,
			"-0.013": 2.09425883176,
			"-0.012": 2.63604709643,
			"-0.011": 1.3898228639,
			"-0.01": 2.19798666423,
			"-0.009": 2.50440213553,
			"-0.008": 4.17870064157,
			"-0.007": 10.5773069419,
			"-0.006": 24.5622872209,
			"-0.005": 30.2992329244,
			"-0.004": 34.86669048,
			"-0.003": 36.5503384069,
			"-0.002": 30.1860879681,
			"-0.001": 26.2924450391,
			"0.0": 23.0784064388,
			"0.001": 22.7785502054,
			"0.002": 22.966690691,
			"0.003": 21.7399537577,
			"0.004": 23.8465324979,
			"0.005": 16.2370090855,
			"0.006": 10.3203358487,
			"0.007": 13.8323307322,
			"0.008": 9.58110442199,
			"0.009": 9.86308186004,
			"0.01": 10.9675537378,
			"0.011": 7.72435147152,
			"0.012": 4.60717983273,
			"0.013": 2.34297042407,
			"0.014": 0.0,
			"0.015": 0.0,
			"0.016": 0.0,
			"0.017": 0.0,
			"0.018": 0.0,
			"0.019": 0.0,
			"0.02": 0.0,
			"0.021": 0.0,
			"0.022": 0.0,
			"0.023": 0.0,
			"0.024": 0.0,
			"0.025": 0.0
		}
	}
}
