{
	 "smiles": "CCOC(=O)C1=C(C)N=C(S1)C1=CC=C(N)C=C1", 
	 "Tm": 400.65, 
	 "num_atms": 32, 
	 "gaussian": { 
		 "optdone": 1, 
		 "sigma_profile": "yes", 
		 "theory": "DFT", 
		 "functional": "B3LYP", 
		 "basiset": "6-31G**", 
		 "properties": { 
			 "R2extent": 7759.0564, 
			 "electric_dipole_moment_norm": 4.70758512828, 
			 "electric_quadrupole_moment_norm": 26.8341799357, 
			 "total_energy": -1161.99259163, 
			 "HOMO_LUMO_gap": 0.13932, 
			 "cosmo_polarized_energy": -14.87, 
			 "cosmo_cavitation_energy": 38.07, 
			 "cosmo_dispersion_energy": -28.0, 
			 "cosmo_repulsion_energy": 2.15, 
			 "cosmo_total_nonelectrostatic_energy": 12.21, 
			 "SMD_solvation_energy": 5.94 
		},
		"coords": [
			{
				"x": -1.5164394139,
				"y": 3.029340788,
				"z": 4.6198931173,
				"element": "C" 
			},
			{
				"x": -2.2289333298,
				"y": 3.1994344027,
				"z": 3.2914382459,
				"element": "C" 
			},
			{
				"x": -1.7742188603,
				"y": 2.1433915398,
				"z": 2.4177261297,
				"element": "O" 
			},
			{
				"x": -2.309289829,
				"y": 2.1371733083,
				"z": 1.1710223812,
				"element": "C" 
			},
			{
				"x": -3.124538024,
				"y": 2.9585315798,
				"z": 0.7862061196,
				"element": "O" 
			},
			{
				"x": -1.7895346248,
				"y": 1.0362272345,
				"z": 0.3622555584,
				"element": "C" 
			},
			{
				"x": -2.1218711715,
				"y": 0.7402863025,
				"z": -0.9491356929,
				"element": "C" 
			},
			{
				"x": -3.0918836747,
				"y": 1.5010783352,
				"z": -1.8050722525,
				"element": "C" 
			},
			{
				"x": -1.4863948297,
				"y": -0.3507482078,
				"z": -1.4723621494,
				"element": "N" 
			},
			{
				"x": -0.6668980741,
				"y": -0.9173942976,
				"z": -0.6106523223,
				"element": "C" 
			},
			{
				"x": -0.6206947614,
				"y": -0.1191681518,
				"z": 0.9557197384,
				"element": "S" 
			},
			{
				"x": 0.13306097,
				"y": -2.0996451019,
				"z": -0.9189888789,
				"element": "C" 
			},
			{
				"x": 0.9972600415,
				"y": -2.6970902,
				"z": 0.0153592086,
				"element": "C" 
			},
			{
				"x": 1.7407875319,
				"y": -3.8221482306,
				"z": -0.3084371263,
				"element": "C" 
			},
			{
				"x": 1.6485842794,
				"y": -4.3980497443,
				"z": -1.5904001667,
				"element": "C" 
			},
			{
				"x": 2.4276382373,
				"y": -5.4918406579,
				"z": -1.934926153,
				"element": "N" 
			},
			{
				"x": 0.7846716417,
				"y": -3.8022647701,
				"z": -2.5307768344,
				"element": "C" 
			},
			{
				"x": 0.0448563212,
				"y": -2.6786356573,
				"z": -2.2000605393,
				"element": "C" 
			},
			{
				"x": -0.4321724569,
				"y": 3.099069448,
				"z": 4.493672056,
				"element": "H" 
			},
			{
				"x": -1.7489020217,
				"y": 2.0583930584,
				"z": 5.0667379991,
				"element": "H" 
			},
			{
				"x": -1.8338315808,
				"y": 3.8133899843,
				"z": 5.3144844715,
				"element": "H" 
			},
			{
				"x": -3.3163940082,
				"y": 3.1290915032,
				"z": 3.3959846554,
				"element": "H" 
			},
			{
				"x": -2.0061485537,
				"y": 4.164864143,
				"z": 2.8259028011,
				"element": "H" 
			},
			{
				"x": -3.1450108798,
				"y": 1.0324204062,
				"z": -2.7891475479,
				"element": "H" 
			},
			{
				"x": -4.0872359235,
				"y": 1.5183762315,
				"z": -1.3520724848,
				"element": "H" 
			},
			{
				"x": -2.7872706222,
				"y": 2.5460809729,
				"z": -1.9116679634,
				"element": "H" 
			},
			{
				"x": 1.0910902894,
				"y": -2.2806833694,
				"z": 1.0147384705,
				"element": "H" 
			},
			{
				"x": 2.404301858,
				"y": -4.2634649616,
				"z": 0.4307393689,
				"element": "H" 
			},
			{
				"x": 2.776193067,
				"y": -6.0553397545,
				"z": -1.1731315077,
				"element": "H" 
			},
			{
				"x": 2.1115933427,
				"y": -6.0390370661,
				"z": -2.7223855472,
				"element": "H" 
			},
			{
				"x": 0.702819863,
				"y": -4.2299123921,
				"z": -3.5269666543,
				"element": "H" 
			},
			{
				"x": -0.620394803,
				"y": -2.2253266754,
				"z": -2.9264965006,
				"element": "H" 
			}
		],
		 "valence_orbital": [ 
			{
				"type": "occ",
				"energy": -0.26686,
				"method": "rhf"
			},
			{
				"type": "occ",
				"energy": -0.26552,
				"method": "rhf"
			},
			{
				"type": "occ",
				"energy": -0.25712,
				"method": "rhf"
			},
			{
				"type": "occ",
				"energy": -0.24839,
				"method": "rhf"
			},
			{
				"type": "occ",
				"energy": -0.19832,
				"method": "rhf"
			},
			{
				"type": "unocc",
				"energy": -0.059,
				"method": "rhf"
			},
			{
				"type": "unocc",
				"energy": -0.00629,
				"method": "rhf"
			},
			{
				"type": "unocc",
				"energy": 0.0031,
				"method": "rhf"
			},
			{
				"type": "unocc",
				"energy": 0.02731,
				"method": "rhf"
			},
			{
				"type": "unocc",
				"energy": 0.05654,
				"method": "rhf"
			}
		],
		"cosmo_sigma_profile": { 
			"-0.025": 0.0,
			"-0.024": 0.0,
			"-0.023": 0.0,
			"-0.022": 0.0,
			"-0.021": 0.0,
			"-0.02": 0.0,
			"-0.019": 0.0,
			"-0.018": 0.0,
			"-0.017": 0.0,
			"-0.016": 0.0,
			"-0.015": 0.0,
			"-0.014": 0.17240723212,
			"-0.013": 2.40310491649,
			"-0.012": 3.34669988697,
			"-0.011": 2.24478915719,
			"-0.01": 2.88671719598,
			"-0.009": 3.21855881286,
			"-0.008": 3.5491815504,
			"-0.007": 4.40561053892,
			"-0.006": 6.98892651207,
			"-0.005": 14.296085705,
			"-0.004": 24.9420362231,
			"-0.003": 21.6557980007,
			"-0.002": 23.3947610613,
			"-0.001": 26.2127579555,
			"0.0": 31.0439785615,
			"0.001": 24.8495596786,
			"0.002": 19.9482603141,
			"0.003": 21.3797151939,
			"0.004": 19.3596689199,
			"0.005": 15.9512063183,
			"0.006": 7.88536149447,
			"0.007": 4.24412067677,
			"0.008": 3.97478440655,
			"0.009": 3.27819736414,
			"0.01": 3.32697863885,
			"0.011": 3.93336760792,
			"0.012": 4.6645267403,
			"0.013": 0.78163234308,
			"0.014": 0.0,
			"0.015": 0.0,
			"0.016": 0.0,
			"0.017": 0.0,
			"0.018": 0.0,
			"0.019": 0.0,
			"0.02": 0.0,
			"0.021": 0.0,
			"0.022": 0.0,
			"0.023": 0.0,
			"0.024": 0.0,
			"0.025": 0.0
		}
	}
}
