{
	 "smiles": "C=CC1=CC2=C(OCCOCCOCCOCCOCCO2)C=C1", 
	 "Tm": 331.65, 
	 "num_atms": 50, 
	 "gaussian": { 
		 "optdone": 1, 
		 "sigma_profile": "yes", 
		 "theory": "DFT", 
		 "functional": "B3LYP", 
		 "basiset": "6-31G**", 
		 "properties": { 
			 "R2extent": 8674.7032, 
			 "electric_dipole_moment_norm": 4.41625681545, 
			 "electric_quadrupole_moment_norm": 16.4291013202, 
			 "total_energy": -1152.81335063, 
			 "HOMO_LUMO_gap": 0.18203, 
			 "cosmo_polarized_energy": -15.29, 
			 "cosmo_cavitation_energy": 49.47, 
			 "cosmo_dispersion_energy": -31.97, 
			 "cosmo_repulsion_energy": 2.41, 
			 "cosmo_total_nonelectrostatic_energy": 19.92, 
			 "SMD_solvation_energy": 8.48 
		},
		"coords": [
			{
				"x": 3.6519498884,
				"y": 1.8992421938,
				"z": 1.6131807462,
				"element": "C" 
			},
			{
				"x": 3.9593449139,
				"y": 1.3258116303,
				"z": 0.4424800607,
				"element": "C" 
			},
			{
				"x": 3.0559554269,
				"y": 1.0930999199,
				"z": -0.6952781373,
				"element": "C" 
			},
			{
				"x": 1.7839890207,
				"y": 1.6832630831,
				"z": -0.7802475703,
				"element": "C" 
			},
			{
				"x": 0.9254328376,
				"y": 1.4332457861,
				"z": -1.8486095142,
				"element": "C" 
			},
			{
				"x": 1.3400708928,
				"y": 0.5680946974,
				"z": -2.8862775088,
				"element": "C" 
			},
			{
				"x": 0.6101353204,
				"y": 0.3081803302,
				"z": -4.0208504232,
				"element": "O" 
			},
			{
				"x": -0.7164734207,
				"y": -0.210591023,
				"z": -3.8967516698,
				"element": "C" 
			},
			{
				"x": -0.7383201408,
				"y": -1.5580869965,
				"z": -3.1765542283,
				"element": "C" 
			},
			{
				"x": -2.0915474649,
				"y": -1.9898023219,
				"z": -3.1622919003,
				"element": "O" 
			},
			{
				"x": -2.2946987823,
				"y": -3.3177825453,
				"z": -2.7110158701,
				"element": "C" 
			},
			{
				"x": -2.6776972154,
				"y": -3.4227893881,
				"z": -1.2418743938,
				"element": "C" 
			},
			{
				"x": -1.5903102117,
				"y": -3.0581923405,
				"z": -0.4062896569,
				"element": "O" 
			},
			{
				"x": -1.7901070125,
				"y": -3.4520165653,
				"z": 0.9457267568,
				"element": "C" 
			},
			{
				"x": -0.6949389327,
				"y": -2.8873853028,
				"z": 1.8449630959,
				"element": "C" 
			},
			{
				"x": -0.9228700031,
				"y": -1.5571826688,
				"z": 2.274711932,
				"element": "O" 
			},
			{
				"x": -0.6207106744,
				"y": -0.5562890889,
				"z": 1.3121322737,
				"element": "C" 
			},
			{
				"x": -0.9726404733,
				"y": 0.7845747061,
				"z": 1.9615207835,
				"element": "C" 
			},
			{
				"x": -0.5435449915,
				"y": 1.9117141108,
				"z": 1.2095486397,
				"element": "O" 
			},
			{
				"x": -1.4405423529,
				"y": 2.4109464606,
				"z": 0.2308867383,
				"element": "C" 
			},
			{
				"x": -1.3853936119,
				"y": 1.7514603202,
				"z": -1.1493818502,
				"element": "C" 
			},
			{
				"x": -0.2709593465,
				"y": 2.1178779256,
				"z": -1.9710328372,
				"element": "O" 
			},
			{
				"x": 2.6172917079,
				"y": 0.0018205297,
				"z": -2.8210615022,
				"element": "C" 
			},
			{
				"x": 3.4649642094,
				"y": 0.2614619124,
				"z": -1.7500287345,
				"element": "C" 
			},
			{
				"x": 4.4026547011,
				"y": 2.0229279777,
				"z": 2.3870202417,
				"element": "H" 
			},
			{
				"x": 2.6515234601,
				"y": 2.2532656425,
				"z": 1.8454545962,
				"element": "H" 
			},
			{
				"x": 4.9787757035,
				"y": 0.9697299164,
				"z": 0.293809594,
				"element": "H" 
			},
			{
				"x": 1.4458922922,
				"y": 2.3624599003,
				"z": -0.0091537146,
				"element": "H" 
			},
			{
				"x": -1.0682445106,
				"y": -0.3409059057,
				"z": -4.9231602631,
				"element": "H" 
			},
			{
				"x": -1.3804454433,
				"y": 0.5000841143,
				"z": -3.400714579,
				"element": "H" 
			},
			{
				"x": -0.103728712,
				"y": -2.2744515768,
				"z": -3.7217194231,
				"element": "H" 
			},
			{
				"x": -0.3377376377,
				"y": -1.4682681122,
				"z": -2.1585367734,
				"element": "H" 
			},
			{
				"x": -3.125442801,
				"y": -3.7299905411,
				"z": -3.2983504524,
				"element": "H" 
			},
			{
				"x": -1.4064938712,
				"y": -3.9369441524,
				"z": -2.9025156542,
				"element": "H" 
			},
			{
				"x": -2.9784871071,
				"y": -4.4666116043,
				"z": -1.045133107,
				"element": "H" 
			},
			{
				"x": -3.5505247939,
				"y": -2.7822194126,
				"z": -1.037544455,
				"element": "H" 
			},
			{
				"x": -1.7844901565,
				"y": -4.5538820427,
				"z": 1.0128375371,
				"element": "H" 
			},
			{
				"x": -2.7657633405,
				"y": -3.1009625134,
				"z": 1.3174527867,
				"element": "H" 
			},
			{
				"x": 0.2774839461,
				"y": -2.9828162325,
				"z": 1.3375495568,
				"element": "H" 
			},
			{
				"x": -0.6611301918,
				"y": -3.4898567663,
				"z": 2.7594395027,
				"element": "H" 
			},
			{
				"x": 0.4484186727,
				"y": -0.5694970931,
				"z": 1.0499476015,
				"element": "H" 
			},
			{
				"x": -1.1922618878,
				"y": -0.725188969,
				"z": 0.3928919507,
				"element": "H" 
			},
			{
				"x": -0.4595421088,
				"y": 0.8400182316,
				"z": 2.9269935379,
				"element": "H" 
			},
			{
				"x": -2.0546973965,
				"y": 0.8334037134,
				"z": 2.1554402349,
				"element": "H" 
			},
			{
				"x": -1.2070611231,
				"y": 3.4750299153,
				"z": 0.113919974,
				"element": "H" 
			},
			{
				"x": -2.4782072563,
				"y": 2.3312694911,
				"z": 0.5955764202,
				"element": "H" 
			},
			{
				"x": -2.2638787939,
				"y": 2.1014421827,
				"z": -1.7049815213,
				"element": "H" 
			},
			{
				"x": -1.4585937118,
				"y": 0.6621261716,
				"z": -1.0655620903,
				"element": "H" 
			},
			{
				"x": 2.9235718179,
				"y": -0.6443562261,
				"z": -3.6375120246,
				"element": "H" 
			},
			{
				"x": 4.4506306666,
				"y": -0.1956814738,
				"z": -1.722454706,
				"element": "H" 
			}
		],
		 "valence_orbital": [ 
			{
				"type": "occ",
				"energy": -0.25803,
				"method": "rhf"
			},
			{
				"type": "occ",
				"energy": -0.25211,
				"method": "rhf"
			},
			{
				"type": "occ",
				"energy": -0.24938,
				"method": "rhf"
			},
			{
				"type": "occ",
				"energy": -0.23399,
				"method": "rhf"
			},
			{
				"type": "occ",
				"energy": -0.20337,
				"method": "rhf"
			},
			{
				"type": "unocc",
				"energy": -0.02134,
				"method": "rhf"
			},
			{
				"type": "unocc",
				"energy": 0.00576,
				"method": "rhf"
			},
			{
				"type": "unocc",
				"energy": 0.06691,
				"method": "rhf"
			},
			{
				"type": "unocc",
				"energy": 0.06969,
				"method": "rhf"
			},
			{
				"type": "unocc",
				"energy": 0.0787,
				"method": "rhf"
			}
		],
		"cosmo_sigma_profile": { 
			"-0.025": 0.0,
			"-0.024": 0.0,
			"-0.023": 0.0,
			"-0.022": 0.0,
			"-0.021": 0.0,
			"-0.02": 0.0,
			"-0.019": 0.0,
			"-0.018": 0.0,
			"-0.017": 0.0,
			"-0.016": 0.0,
			"-0.015": 0.0,
			"-0.014": 0.0,
			"-0.013": 0.0,
			"-0.012": 0.0,
			"-0.011": 0.0,
			"-0.01": 0.0,
			"-0.009": 0.0,
			"-0.008": 0.0257216227886,
			"-0.007": 0.805505031687,
			"-0.006": 12.2294350958,
			"-0.005": 34.7299563528,
			"-0.004": 51.5130857696,
			"-0.003": 47.8614537162,
			"-0.002": 37.0557122926,
			"-0.001": 27.8236520984,
			"0.0": 23.9939655868,
			"0.001": 22.7778470289,
			"0.002": 19.520831468,
			"0.003": 21.7498031166,
			"0.004": 23.2551088427,
			"0.005": 18.0237631783,
			"0.006": 9.42937748161,
			"0.007": 8.18913026329,
			"0.008": 6.93190914722,
			"0.009": 5.8571923855,
			"0.01": 6.21965492164,
			"0.011": 5.21715939352,
			"0.012": 3.58333589156,
			"0.013": 0.477860044467,
			"0.014": 0.0,
			"0.015": 0.0,
			"0.016": 0.0,
			"0.017": 0.0,
			"0.018": 0.0,
			"0.019": 0.0,
			"0.02": 0.0,
			"0.021": 0.0,
			"0.022": 0.0,
			"0.023": 0.0,
			"0.024": 0.0,
			"0.025": 0.0
		}
	}
}
