{
	 "smiles": "CCC1=NC(=S)NC(N)=N1", 
	 "Tm": 513.15, 
	 "num_atms": 18, 
	 "gaussian": { 
		 "optdone": 1, 
		 "sigma_profile": "yes", 
		 "theory": "DFT", 
		 "functional": "B3LYP", 
		 "basiset": "6-31G**", 
		 "properties": { 
			 "R2extent": 3098.8786, 
			 "electric_dipole_moment_norm": 7.48204604637, 
			 "electric_quadrupole_moment_norm": 24.0099657157, 
			 "total_energy": -812.572424943, 
			 "HOMO_LUMO_gap": 0.15143, 
			 "cosmo_polarized_energy": -26.64, 
			 "cosmo_cavitation_energy": 24.01, 
			 "cosmo_dispersion_energy": -18.35, 
			 "cosmo_repulsion_energy": 1.49, 
			 "cosmo_total_nonelectrostatic_energy": 7.15, 
			 "SMD_solvation_energy": 0.44 
		},
		"coords": [
			{
				"x": -2.4414606008,
				"y": 2.9259811106,
				"z": 1.2235440039,
				"element": "C" 
			},
			{
				"x": -2.9816508446,
				"y": 2.3535389268,
				"z": -0.0991983759,
				"element": "C" 
			},
			{
				"x": -1.9646618447,
				"y": 1.4916447752,
				"z": -0.7996899988,
				"element": "C" 
			},
			{
				"x": -1.4390611198,
				"y": 1.9504570041,
				"z": -1.9227197785,
				"element": "N" 
			},
			{
				"x": -0.5087442189,
				"y": 1.1936960578,
				"z": -2.5664813088,
				"element": "C" 
			},
			{
				"x": 0.2639963693,
				"y": 1.596136246,
				"z": -3.9847900923,
				"element": "S" 
			},
			{
				"x": -0.191772556,
				"y": -0.0378326752,
				"z": -1.955702878,
				"element": "N" 
			},
			{
				"x": -0.770652478,
				"y": -0.4323506927,
				"z": -0.7922849189,
				"element": "C" 
			},
			{
				"x": -0.4349075236,
				"y": -1.63779587,
				"z": -0.2728607628,
				"element": "N" 
			},
			{
				"x": -1.6680753527,
				"y": 0.3138442852,
				"z": -0.177708488,
				"element": "N" 
			},
			{
				"x": -2.1380980951,
				"y": 2.1210964287,
				"z": 1.8987835523,
				"element": "H" 
			},
			{
				"x": -1.5757308962,
				"y": 3.5713850577,
				"z": 1.0451885458,
				"element": "H" 
			},
			{
				"x": -3.2112661929,
				"y": 3.5225261839,
				"z": 1.7218394775,
				"element": "H" 
			},
			{
				"x": -3.864729225,
				"y": 1.7375348851,
				"z": 0.1082661296,
				"element": "H" 
			},
			{
				"x": -3.2696303383,
				"y": 3.1577147119,
				"z": -0.7793491955,
				"element": "H" 
			},
			{
				"x": 0.4807079721,
				"y": -0.6117398825,
				"z": -2.451009768,
				"element": "H" 
			},
			{
				"x": -0.8009626535,
				"y": -1.8392143763,
				"z": 0.6451302835,
				"element": "H" 
			},
			{
				"x": 0.3875995987,
				"y": -2.1330221765,
				"z": -0.5778564271,
				"element": "H" 
			}
		],
		 "valence_orbital": [ 
			{
				"type": "occ",
				"energy": -0.31676,
				"method": "rhf"
			},
			{
				"type": "occ",
				"energy": -0.29124,
				"method": "rhf"
			},
			{
				"type": "occ",
				"energy": -0.26345,
				"method": "rhf"
			},
			{
				"type": "occ",
				"energy": -0.21796,
				"method": "rhf"
			},
			{
				"type": "occ",
				"energy": -0.20625,
				"method": "rhf"
			},
			{
				"type": "unocc",
				"energy": -0.05482,
				"method": "rhf"
			},
			{
				"type": "unocc",
				"energy": -0.02304,
				"method": "rhf"
			},
			{
				"type": "unocc",
				"energy": 0.03606,
				"method": "rhf"
			},
			{
				"type": "unocc",
				"energy": 0.07328,
				"method": "rhf"
			},
			{
				"type": "unocc",
				"energy": 0.09569,
				"method": "rhf"
			}
		],
		"cosmo_sigma_profile": { 
			"-0.025": 0.0,
			"-0.024": 0.0,
			"-0.023": 0.0,
			"-0.022": 0.0,
			"-0.021": 0.0680806995069,
			"-0.02": 0.65985950646,
			"-0.019": 1.29602746059,
			"-0.018": 1.25210653384,
			"-0.017": 1.96600488041,
			"-0.016": 2.46856020824,
			"-0.015": 3.12931069511,
			"-0.014": 2.65950952444,
			"-0.013": 2.87970845033,
			"-0.012": 3.10350370747,
			"-0.011": 1.90571006614,
			"-0.01": 2.26059607769,
			"-0.009": 2.61234797498,
			"-0.008": 1.06160823552,
			"-0.007": 1.77234606104,
			"-0.006": 3.44788137164,
			"-0.005": 5.43425558452,
			"-0.004": 11.0426216957,
			"-0.003": 15.3112059093,
			"-0.002": 16.8328836544,
			"-0.001": 16.9503025038,
			"0.0": 13.9488522755,
			"0.001": 9.25001960627,
			"0.002": 4.73554124798,
			"0.003": 5.61276737367,
			"0.004": 5.3818760017,
			"0.005": 6.794731651,
			"0.006": 5.42863579699,
			"0.007": 5.52154753513,
			"0.008": 6.90984517163,
			"0.009": 7.90023496286,
			"0.01": 6.15233380087,
			"0.011": 6.22188095513,
			"0.012": 3.52538675776,
			"0.013": 2.3294536356,
			"0.014": 2.09350172656,
			"0.015": 1.9117690945,
			"0.016": 0.733182762683,
			"0.017": 0.363341484936,
			"0.018": 0.0,
			"0.019": 0.0,
			"0.02": 0.0,
			"0.021": 0.0,
			"0.022": 0.0,
			"0.023": 0.0,
			"0.024": 0.0,
			"0.025": 0.0
		}
	}
}
