{
	 "smiles": "CC(C)(C)C1=CC=C(CCO)C=C1", 
	 "Tm": 306.15, 
	 "num_atms": 31, 
	 "gaussian": { 
		 "optdone": 1, 
		 "sigma_profile": "yes", 
		 "theory": "DFT", 
		 "functional": "B3LYP", 
		 "basiset": "6-31G**", 
		 "properties": { 
			 "R2extent": 3698.0262, 
			 "electric_dipole_moment_norm": 1.52849955512, 
			 "electric_quadrupole_moment_norm": 10.3734237685, 
			 "total_energy": -543.357749799, 
			 "HOMO_LUMO_gap": 0.23163, 
			 "cosmo_polarized_energy": -7.96, 
			 "cosmo_cavitation_energy": 31.96, 
			 "cosmo_dispersion_energy": -22.68, 
			 "cosmo_repulsion_energy": 1.81, 
			 "cosmo_total_nonelectrostatic_energy": 11.09, 
			 "SMD_solvation_energy": 5.53 
		},
		"coords": [
			{
				"x": -1.6698959656,
				"y": -2.4575487601,
				"z": -0.3272892914,
				"element": "C" 
			},
			{
				"x": -1.8321763783,
				"y": -1.0191983911,
				"z": 0.2195610847,
				"element": "C" 
			},
			{
				"x": -1.9161250984,
				"y": -1.0664494325,
				"z": 1.7639143863,
				"element": "C" 
			},
			{
				"x": -3.1604978952,
				"y": -0.4508876988,
				"z": -0.3150141284,
				"element": "C" 
			},
			{
				"x": -0.619574769,
				"y": -0.1694313468,
				"z": -0.203234055,
				"element": "C" 
			},
			{
				"x": -0.7319172153,
				"y": 0.9897684136,
				"z": -0.9840544769,
				"element": "C" 
			},
			{
				"x": 0.3875951379,
				"y": 1.7411054294,
				"z": -1.3470553458,
				"element": "C" 
			},
			{
				"x": 1.6736970025,
				"y": 1.36257897,
				"z": -0.9447873181,
				"element": "C" 
			},
			{
				"x": 2.8964551968,
				"y": 2.1608105711,
				"z": -1.3445891954,
				"element": "C" 
			},
			{
				"x": 3.2636980583,
				"y": 2.0530708474,
				"z": -2.8277143594,
				"element": "C" 
			},
			{
				"x": 2.2856303317,
				"y": 2.7548540054,
				"z": -3.5867649771,
				"element": "O" 
			},
			{
				"x": 1.7931993659,
				"y": 0.2051547162,
				"z": -0.1648526108,
				"element": "C" 
			},
			{
				"x": 0.6740979174,
				"y": -0.5421451025,
				"z": 0.1965988668,
				"element": "C" 
			},
			{
				"x": -2.5220286223,
				"y": -3.0792359631,
				"z": -0.0290367278,
				"element": "H" 
			},
			{
				"x": -1.616568006,
				"y": -2.456179897,
				"z": -1.4210245538,
				"element": "H" 
			},
			{
				"x": -0.7610182858,
				"y": -2.9358051512,
				"z": 0.0497959883,
				"element": "H" 
			},
			{
				"x": -1.0154422523,
				"y": -1.5016460543,
				"z": 2.2070283805,
				"element": "H" 
			},
			{
				"x": -2.0393990075,
				"y": -0.060945078,
				"z": 2.1795661164,
				"element": "H" 
			},
			{
				"x": -2.77129674,
				"y": -1.6736415399,
				"z": 2.0826470934,
				"element": "H" 
			},
			{
				"x": -3.9911155219,
				"y": -1.0866290581,
				"z": 0.00901938,
				"element": "H" 
			},
			{
				"x": -3.3521378726,
				"y": 0.5594537966,
				"z": 0.0610138719,
				"element": "H" 
			},
			{
				"x": -3.178126577,
				"y": -0.4171348231,
				"z": -1.4093298939,
				"element": "H" 
			},
			{
				"x": -1.7058184368,
				"y": 1.3268683991,
				"z": -1.3211948675,
				"element": "H" 
			},
			{
				"x": 0.264625388,
				"y": 2.6266459527,
				"z": -1.9620298102,
				"element": "H" 
			},
			{
				"x": 2.7510698146,
				"y": 3.2248011728,
				"z": -1.1196871602,
				"element": "H" 
			},
			{
				"x": 3.7605599272,
				"y": 1.8277949284,
				"z": -0.7577237151,
				"element": "H" 
			},
			{
				"x": 3.3113545491,
				"y": 0.9922064619,
				"z": -3.1178388491,
				"element": "H" 
			},
			{
				"x": 4.2649518165,
				"y": 2.4871177409,
				"z": -2.9834253844,
				"element": "H" 
			},
			{
				"x": 2.403711294,
				"y": 2.5292480451,
				"z": -4.5171410228,
				"element": "H" 
			},
			{
				"x": 2.7776030531,
				"y": -0.1158638761,
				"z": 0.1696015015,
				"element": "H" 
			},
			{
				"x": 0.8178897913,
				"y": -1.430637278,
				"z": 0.8052410732,
				"element": "H" 
			}
		],
		 "valence_orbital": [ 
			{
				"type": "occ",
				"energy": -0.31094,
				"method": "rhf"
			},
			{
				"type": "occ",
				"energy": -0.30537,
				"method": "rhf"
			},
			{
				"type": "occ",
				"energy": -0.26585,
				"method": "rhf"
			},
			{
				"type": "occ",
				"energy": -0.23638,
				"method": "rhf"
			},
			{
				"type": "occ",
				"energy": -0.22359,
				"method": "rhf"
			},
			{
				"type": "unocc",
				"energy": 0.00804,
				"method": "rhf"
			},
			{
				"type": "unocc",
				"energy": 0.01245,
				"method": "rhf"
			},
			{
				"type": "unocc",
				"energy": 0.07739,
				"method": "rhf"
			},
			{
				"type": "unocc",
				"energy": 0.08707,
				"method": "rhf"
			},
			{
				"type": "unocc",
				"energy": 0.11477,
				"method": "rhf"
			}
		],
		"cosmo_sigma_profile": { 
			"-0.025": 0.0,
			"-0.024": 0.0,
			"-0.023": 0.0,
			"-0.022": 0.0,
			"-0.021": 0.0,
			"-0.02": 0.0,
			"-0.019": 0.0,
			"-0.018": 0.0,
			"-0.017": 0.0,
			"-0.016": 0.338736319816,
			"-0.015": 0.98094560375,
			"-0.014": 1.3062266587,
			"-0.013": 0.764857108842,
			"-0.012": 0.789657080078,
			"-0.011": 0.83816206561,
			"-0.01": 0.832076704517,
			"-0.009": 0.712824399246,
			"-0.008": 0.434007437185,
			"-0.007": 1.11835463258,
			"-0.006": 1.70542113103,
			"-0.005": 4.63351074749,
			"-0.004": 13.5579616183,
			"-0.003": 28.6675909094,
			"-0.002": 38.0858703013,
			"-0.001": 29.1704172738,
			"0.0": 25.7917683859,
			"0.001": 27.575424036,
			"0.002": 20.2397170096,
			"0.003": 7.49739918234,
			"0.004": 7.98726418939,
			"0.005": 7.68960503746,
			"0.006": 8.52591110691,
			"0.007": 8.33069085275,
			"0.008": 2.88219867472,
			"0.009": 2.74424107516,
			"0.01": 1.52395207246,
			"0.011": 1.16970272412,
			"0.012": 0.700007949192,
			"0.013": 0.589854972922,
			"0.014": 1.00619515572,
			"0.015": 0.111375113742,
			"0.016": 0.0,
			"0.017": 0.0,
			"0.018": 0.0,
			"0.019": 0.0,
			"0.02": 0.0,
			"0.021": 0.0,
			"0.022": 0.0,
			"0.023": 0.0,
			"0.024": 0.0,
			"0.025": 0.0
		}
	}
}
