{
	 "smiles": "NC(=O)C1CCCN(C1)C(=O)C1=C(N)C=CC(Cl)=C1", 
	 "Tm": 503.15, 
	 "num_atms": 35, 
	 "gaussian": { 
		 "optdone": 1, 
		 "sigma_profile": "yes", 
		 "theory": "DFT", 
		 "functional": "B3LYP", 
		 "basiset": "6-31G**", 
		 "properties": { 
			 "R2extent": 7517.5657, 
			 "electric_dipole_moment_norm": 1.36302008056, 
			 "electric_quadrupole_moment_norm": 29.6897900846, 
			 "total_energy": -1279.96249232, 
			 "HOMO_LUMO_gap": 0.16845, 
			 "cosmo_polarized_energy": -21.38, 
			 "cosmo_cavitation_energy": 38.9, 
			 "cosmo_dispersion_energy": -27.92, 
			 "cosmo_repulsion_energy": 2.18, 
			 "cosmo_total_nonelectrostatic_energy": 13.16, 
			 "SMD_solvation_energy": 6.03 
		},
		"coords": [
			{
				"x": -1.3187003202,
				"y": 3.8086774179,
				"z": -2.3069900468,
				"element": "N" 
			},
			{
				"x": -1.5778973713,
				"y": 2.5236578659,
				"z": -2.6910937543,
				"element": "C" 
			},
			{
				"x": -2.566762855,
				"y": 2.2241327215,
				"z": -3.3450102865,
				"element": "O" 
			},
			{
				"x": -0.5550863667,
				"y": 1.482336486,
				"z": -2.2134266479,
				"element": "C" 
			},
			{
				"x": -0.3720312374,
				"y": 0.3597544567,
				"z": -3.2598795664,
				"element": "C" 
			},
			{
				"x": -0.0426593168,
				"y": -0.991039172,
				"z": -2.5930225758,
				"element": "C" 
			},
			{
				"x": 0.7570391985,
				"y": -0.8046240817,
				"z": -1.3003561337,
				"element": "C" 
			},
			{
				"x": -0.0329271055,
				"y": -0.0281322347,
				"z": -0.3257777352,
				"element": "N" 
			},
			{
				"x": -1.0343448959,
				"y": 0.9051028629,
				"z": -0.8683542004,
				"element": "C" 
			},
			{
				"x": -0.1572292811,
				"y": -0.3299021564,
				"z": 1.0073284491,
				"element": "C" 
			},
			{
				"x": -1.1104115538,
				"y": 0.120135027,
				"z": 1.6611142973,
				"element": "O" 
			},
			{
				"x": 0.8868274206,
				"y": -1.1778362167,
				"z": 1.6696944283,
				"element": "C" 
			},
			{
				"x": 0.5016775079,
				"y": -2.0780150136,
				"z": 2.7028025246,
				"element": "C" 
			},
			{
				"x": -0.8214404283,
				"y": -2.2470723627,
				"z": 3.0492163385,
				"element": "N" 
			},
			{
				"x": 1.5089941311,
				"y": -2.8395100019,
				"z": 3.3304627607,
				"element": "C" 
			},
			{
				"x": 2.8489591326,
				"y": -2.689194338,
				"z": 3.0019644745,
				"element": "C" 
			},
			{
				"x": 3.2171318067,
				"y": -1.7623585038,
				"z": 2.0251557401,
				"element": "C" 
			},
			{
				"x": 4.9180979419,
				"y": -1.5330715138,
				"z": 1.6268987814,
				"element": "Cl" 
			},
			{
				"x": 2.2467787039,
				"y": -1.0189019724,
				"z": 1.3666212255,
				"element": "C" 
			},
			{
				"x": -0.5391427106,
				"y": 4.049915384,
				"z": -1.717186703,
				"element": "H" 
			},
			{
				"x": -2.0093355295,
				"y": 4.5145272063,
				"z": -2.5141426769,
				"element": "H" 
			},
			{
				"x": 0.4042819601,
				"y": 1.9848731137,
				"z": -2.0329925845,
				"element": "H" 
			},
			{
				"x": -1.2948302558,
				"y": 0.280947615,
				"z": -3.8407233394,
				"element": "H" 
			},
			{
				"x": 0.4252863523,
				"y": 0.6442427537,
				"z": -3.9556363419,
				"element": "H" 
			},
			{
				"x": 0.5293102796,
				"y": -1.6271832674,
				"z": -3.2764601605,
				"element": "H" 
			},
			{
				"x": -0.9646267115,
				"y": -1.5346119966,
				"z": -2.356943219,
				"element": "H" 
			},
			{
				"x": 1.7045933152,
				"y": -0.2949845613,
				"z": -1.5274670349,
				"element": "H" 
			},
			{
				"x": 1.0082156593,
				"y": -1.7697876651,
				"z": -0.8588088075,
				"element": "H" 
			},
			{
				"x": -2.0029448166,
				"y": 0.4060700779,
				"z": -1.0043422358,
				"element": "H" 
			},
			{
				"x": -1.1923159775,
				"y": 1.6912106638,
				"z": -0.1275654669,
				"element": "H" 
			},
			{
				"x": -1.4056751014,
				"y": -1.4411538547,
				"z": 2.8541785725,
				"element": "H" 
			},
			{
				"x": -0.9925125634,
				"y": -2.7041490038,
				"z": 3.9323583467,
				"element": "H" 
			},
			{
				"x": 1.2251272365,
				"y": -3.5491507242,
				"z": 4.1032539244,
				"element": "H" 
			},
			{
				"x": 3.6069183066,
				"y": -3.2757502044,
				"z": 3.5098953422,
				"element": "H" 
			},
			{
				"x": 2.5496354454,
				"y": -0.290954807,
				"z": 0.6234343114,
				"element": "H" 
			}
		],
		 "valence_orbital": [ 
			{
				"type": "occ",
				"energy": -0.26801,
				"method": "rhf"
			},
			{
				"type": "occ",
				"energy": -0.25653,
				"method": "rhf"
			},
			{
				"type": "occ",
				"energy": -0.25386,
				"method": "rhf"
			},
			{
				"type": "occ",
				"energy": -0.24031,
				"method": "rhf"
			},
			{
				"type": "occ",
				"energy": -0.20432,
				"method": "rhf"
			},
			{
				"type": "unocc",
				"energy": -0.03587,
				"method": "rhf"
			},
			{
				"type": "unocc",
				"energy": 0.00152,
				"method": "rhf"
			},
			{
				"type": "unocc",
				"energy": 0.02013,
				"method": "rhf"
			},
			{
				"type": "unocc",
				"energy": 0.03177,
				"method": "rhf"
			},
			{
				"type": "unocc",
				"energy": 0.04572,
				"method": "rhf"
			}
		],
		"cosmo_sigma_profile": { 
			"-0.025": 0.0,
			"-0.024": 0.0,
			"-0.023": 0.0,
			"-0.022": 0.0,
			"-0.021": 0.0,
			"-0.02": 0.0,
			"-0.019": 0.0,
			"-0.018": 0.0,
			"-0.017": 0.0,
			"-0.016": 0.0,
			"-0.015": 0.264574871002,
			"-0.014": 1.69875306333,
			"-0.013": 3.42872483462,
			"-0.012": 4.04433536022,
			"-0.011": 3.63280528444,
			"-0.01": 4.35892851612,
			"-0.009": 3.87168739212,
			"-0.008": 5.2102725072,
			"-0.007": 8.07614612434,
			"-0.006": 10.2836928079,
			"-0.005": 12.8104616999,
			"-0.004": 23.4031682412,
			"-0.003": 31.0066669683,
			"-0.002": 23.8751833181,
			"-0.001": 18.7384280399,
			"0.0": 18.6697302142,
			"0.001": 17.7102099199,
			"0.002": 16.9222492862,
			"0.003": 21.140272753,
			"0.004": 21.5599295374,
			"0.005": 15.542058653,
			"0.006": 6.23245935196,
			"0.007": 3.75215308698,
			"0.008": 3.46512017164,
			"0.009": 3.07846387651,
			"0.01": 4.14361480506,
			"0.011": 3.19942709008,
			"0.012": 4.86133203079,
			"0.013": 6.98851482471,
			"0.014": 5.55245411013,
			"0.015": 0.720163768826,
			"0.016": 0.0,
			"0.017": 0.0,
			"0.018": 0.0,
			"0.019": 0.0,
			"0.02": 0.0,
			"0.021": 0.0,
			"0.022": 0.0,
			"0.023": 0.0,
			"0.024": 0.0,
			"0.025": 0.0
		}
	}
}
