{
	 "smiles": "CC1(C)C2(C)CCC1(CC(Br)C1=CC=CC=C1)OC2=O", 
	 "Tm": 479.15, 
	 "num_atms": 41, 
	 "gaussian": { 
		 "optdone": 1, 
		 "sigma_profile": "yes", 
		 "theory": "DFT", 
		 "functional": "B3LYP", 
		 "basiset": "6-31G**", 
		 "properties": { 
			 "R2extent": 6851.4421, 
			 "electric_dipole_moment_norm": 2.91444489397, 
			 "electric_quadrupole_moment_norm": 19.2556733832, 
			 "total_energy": -3382.3328891, 
			 "HOMO_LUMO_gap": 0.22763, 
			 "cosmo_polarized_energy": -14.37, 
			 "cosmo_cavitation_energy": 40.73, 
			 "cosmo_dispersion_energy": -27.99, 
			 "cosmo_repulsion_energy": 2.09, 
			 "cosmo_total_nonelectrostatic_energy": 14.83, 
			 "SMD_solvation_energy": 6.25 
		},
		"coords": [
			{
				"x": 0.678249931,
				"y": 0.7194142404,
				"z": 0.5665613269,
				"element": "C" 
			},
			{
				"x": -0.5844970868,
				"y": 1.0199704519,
				"z": -0.2573090471,
				"element": "C" 
			},
			{
				"x": -1.2954280401,
				"y": 2.2291549336,
				"z": 0.3682386657,
				"element": "C" 
			},
			{
				"x": -0.2400716985,
				"y": 1.1626415649,
				"z": -1.786278117,
				"element": "C" 
			},
			{
				"x": 0.7863467157,
				"y": 2.183403923,
				"z": -2.2421958596,
				"element": "C" 
			},
			{
				"x": -1.6453768916,
				"y": 1.2956631958,
				"z": -2.4487299639,
				"element": "C" 
			},
			{
				"x": -2.5246406376,
				"y": 0.3513239537,
				"z": -1.5936018703,
				"element": "C" 
			},
			{
				"x": -1.5236467991,
				"y": -0.205116101,
				"z": -0.5381022543,
				"element": "C" 
			},
			{
				"x": -2.284254815,
				"y": -1.0292319573,
				"z": 0.5049290589,
				"element": "C" 
			},
			{
				"x": -1.6514878956,
				"y": -1.8077177463,
				"z": 1.6784890251,
				"element": "C" 
			},
			{
				"x": -1.3812683065,
				"y": -0.607800221,
				"z": 3.266392105,
				"element": "Br" 
			},
			{
				"x": -0.4612756741,
				"y": -2.7032802169,
				"z": 1.3772246832,
				"element": "C" 
			},
			{
				"x": 0.8195315075,
				"y": -2.532593845,
				"z": 1.9079882114,
				"element": "C" 
			},
			{
				"x": 1.848062466,
				"y": -3.4209434746,
				"z": 1.5834655501,
				"element": "C" 
			},
			{
				"x": 1.6097035512,
				"y": -4.4963852487,
				"z": 0.730385972,
				"element": "C" 
			},
			{
				"x": 0.3288941977,
				"y": -4.6845410569,
				"z": 0.2067333613,
				"element": "C" 
			},
			{
				"x": -0.6959676004,
				"y": -3.7996586314,
				"z": 0.5310940908,
				"element": "C" 
			},
			{
				"x": -0.6433038492,
				"y": -1.0881810602,
				"z": -1.309343816,
				"element": "O" 
			},
			{
				"x": 0.151756858,
				"y": -0.2852433302,
				"z": -2.0851123137,
				"element": "C" 
			},
			{
				"x": 0.9607697677,
				"y": -0.7202561558,
				"z": -2.8644116296,
				"element": "O" 
			},
			{
				"x": 0.4339097673,
				"y": 0.5946902122,
				"z": 1.6218677401,
				"element": "H" 
			},
			{
				"x": 1.3728404069,
				"y": 1.5623470997,
				"z": 0.4883828086,
				"element": "H" 
			},
			{
				"x": 1.2001656141,
				"y": -0.1789869132,
				"z": 0.2305639807,
				"element": "H" 
			},
			{
				"x": -2.1878465506,
				"y": 2.5495618263,
				"z": -0.1736441967,
				"element": "H" 
			},
			{
				"x": -0.6118848546,
				"y": 3.0835934865,
				"z": 0.4119227844,
				"element": "H" 
			},
			{
				"x": -1.5912195123,
				"y": 1.9965913019,
				"z": 1.3961519827,
				"element": "H" 
			},
			{
				"x": 0.4508535436,
				"y": 3.2023704314,
				"z": -2.023163884,
				"element": "H" 
			},
			{
				"x": 0.9439396523,
				"y": 2.0988662023,
				"z": -3.3214669927,
				"element": "H" 
			},
			{
				"x": 1.7556382143,
				"y": 2.0262358216,
				"z": -1.7616535281,
				"element": "H" 
			},
			{
				"x": -1.9835524006,
				"y": 2.3348104086,
				"z": -2.3985498595,
				"element": "H" 
			},
			{
				"x": -1.6166596103,
				"y": 1.0150590254,
				"z": -3.5054479786,
				"element": "H" 
			},
			{
				"x": -3.3591716796,
				"y": 0.873650715,
				"z": -1.1175120207,
				"element": "H" 
			},
			{
				"x": -2.9383810553,
				"y": -0.4811929239,
				"z": -2.1688190113,
				"element": "H" 
			},
			{
				"x": -2.8140747366,
				"y": -1.7918898598,
				"z": -0.0825525794,
				"element": "H" 
			},
			{
				"x": -3.0653128663,
				"y": -0.3885758263,
				"z": 0.9249728771,
				"element": "H" 
			},
			{
				"x": -2.4534429395,
				"y": -2.4380567102,
				"z": 2.0673233887,
				"element": "H" 
			},
			{
				"x": 1.0130920425,
				"y": -1.7115257986,
				"z": 2.5878687317,
				"element": "H" 
			},
			{
				"x": 2.8367835408,
				"y": -3.2689062326,
				"z": 2.0067762182,
				"element": "H" 
			},
			{
				"x": 2.4102684054,
				"y": -5.1858593896,
				"z": 0.4793776361,
				"element": "H" 
			},
			{
				"x": 0.1257029243,
				"y": -5.5220739665,
				"z": -0.4541489596,
				"element": "H" 
			},
			{
				"x": -1.687743606,
				"y": -3.9628321281,
				"z": 0.1173336836,
				"element": "H" 
			}
		],
		 "valence_orbital": [ 
			{
				"type": "occ",
				"energy": -0.27948,
				"method": "rhf"
			},
			{
				"type": "occ",
				"energy": -0.27509,
				"method": "rhf"
			},
			{
				"type": "occ",
				"energy": -0.25361,
				"method": "rhf"
			},
			{
				"type": "occ",
				"energy": -0.24893,
				"method": "rhf"
			},
			{
				"type": "occ",
				"energy": -0.24205,
				"method": "rhf"
			},
			{
				"type": "unocc",
				"energy": -0.01442,
				"method": "rhf"
			},
			{
				"type": "unocc",
				"energy": -0.00497,
				"method": "rhf"
			},
			{
				"type": "unocc",
				"energy": 0.00161,
				"method": "rhf"
			},
			{
				"type": "unocc",
				"energy": 0.02018,
				"method": "rhf"
			},
			{
				"type": "unocc",
				"energy": 0.05974,
				"method": "rhf"
			}
		],
		"cosmo_sigma_profile": { 
			"-0.025": 0.0,
			"-0.024": 0.0,
			"-0.023": 0.0,
			"-0.022": 0.0,
			"-0.021": 0.0,
			"-0.02": 0.0,
			"-0.019": 0.0,
			"-0.018": 0.0,
			"-0.017": 0.0,
			"-0.016": 0.0,
			"-0.015": 0.0,
			"-0.014": 0.0,
			"-0.013": 0.0,
			"-0.012": 0.0,
			"-0.011": 0.0,
			"-0.01": 0.0,
			"-0.009": 0.0744721950807,
			"-0.008": 2.86443876708,
			"-0.007": 4.72940580171,
			"-0.006": 9.85650077363,
			"-0.005": 20.8908817494,
			"-0.004": 30.9778236413,
			"-0.003": 36.9405703206,
			"-0.002": 34.0474632937,
			"-0.001": 30.1311373246,
			"0.0": 33.399296525,
			"0.001": 24.3027259698,
			"0.002": 14.6779743182,
			"0.003": 14.9154647679,
			"0.004": 12.7339577273,
			"0.005": 13.7420878367,
			"0.006": 10.1307279353,
			"0.007": 3.19597103561,
			"0.008": 3.37131483043,
			"0.009": 3.6618508376,
			"0.01": 4.05328659166,
			"0.011": 4.0068240607,
			"0.012": 5.95290422349,
			"0.013": 2.54496354057,
			"0.014": 0.14321277672,
			"0.015": 0.0,
			"0.016": 0.0,
			"0.017": 0.0,
			"0.018": 0.0,
			"0.019": 0.0,
			"0.02": 0.0,
			"0.021": 0.0,
			"0.022": 0.0,
			"0.023": 0.0,
			"0.024": 0.0,
			"0.025": 0.0
		}
	}
}
