{
	 "smiles": "COC1=CC=CC(O)=C1O", 
	 "Tm": 315.55, 
	 "num_atms": 18, 
	 "gaussian": { 
		 "optdone": 1, 
		 "sigma_profile": "yes", 
		 "theory": "DFT", 
		 "functional": "B3LYP", 
		 "basiset": "6-31G**", 
		 "properties": { 
			 "R2extent": 1980.1166, 
			 "electric_dipole_moment_norm": 3.3162164676, 
			 "electric_quadrupole_moment_norm": 5.89094782781, 
			 "total_energy": -497.217212459, 
			 "HOMO_LUMO_gap": 0.22082, 
			 "cosmo_polarized_energy": -8.88, 
			 "cosmo_cavitation_energy": 21.59, 
			 "cosmo_dispersion_energy": -16.55, 
			 "cosmo_repulsion_energy": 1.34, 
			 "cosmo_total_nonelectrostatic_energy": 6.38, 
			 "SMD_solvation_energy": 5.07 
		},
		"coords": [
			{
				"x": 2.1162209335,
				"y": -0.431660973,
				"z": -1.3249873366,
				"element": "C" 
			},
			{
				"x": 1.2917769128,
				"y": 0.7186079052,
				"z": -1.2114369409,
				"element": "O" 
			},
			{
				"x": 0.5510166131,
				"y": 0.8704732932,
				"z": -0.0621862322,
				"element": "C" 
			},
			{
				"x": 0.5218435702,
				"y": -0.0027790337,
				"z": 1.0269914375,
				"element": "C" 
			},
			{
				"x": -0.2941954366,
				"y": 0.3094023051,
				"z": 2.1209927662,
				"element": "C" 
			},
			{
				"x": -1.0699248268,
				"y": 1.4661430053,
				"z": 2.1398346873,
				"element": "C" 
			},
			{
				"x": -1.0357093059,
				"y": 2.3357421138,
				"z": 1.0458436777,
				"element": "C" 
			},
			{
				"x": -1.7884996323,
				"y": 3.4724811504,
				"z": 1.0471312969,
				"element": "O" 
			},
			{
				"x": -0.2255366522,
				"y": 2.0353896735,
				"z": -0.0515616115,
				"element": "C" 
			},
			{
				"x": -0.2238413525,
				"y": 2.9188937558,
				"z": -1.1035810756,
				"element": "O" 
			},
			{
				"x": 1.5228400943,
				"y": -1.3535438184,
				"z": -1.2861966319,
				"element": "H" 
			},
			{
				"x": 2.6091436159,
				"y": -0.3596513629,
				"z": -2.2956800071,
				"element": "H" 
			},
			{
				"x": 2.8750119639,
				"y": -0.4586877857,
				"z": -0.5331686698,
				"element": "H" 
			},
			{
				"x": 1.1176610875,
				"y": -0.9073904529,
				"z": 1.031449194,
				"element": "H" 
			},
			{
				"x": -0.3208949411,
				"y": -0.3658199902,
				"z": 2.9706033881,
				"element": "H" 
			},
			{
				"x": -1.7039032456,
				"y": 1.7133791635,
				"z": 2.9841620734,
				"element": "H" 
			},
			{
				"x": -1.6239895208,
				"y": 3.9296149413,
				"z": 0.2088254438,
				"element": "H" 
			},
			{
				"x": 0.3817801225,
				"y": 2.5666061096,
				"z": -1.7722354592,
				"element": "H" 
			}
		],
		 "valence_orbital": [ 
			{
				"type": "occ",
				"energy": -0.34444,
				"method": "rhf"
			},
			{
				"type": "occ",
				"energy": -0.34044,
				"method": "rhf"
			},
			{
				"type": "occ",
				"energy": -0.30375,
				"method": "rhf"
			},
			{
				"type": "occ",
				"energy": -0.21414,
				"method": "rhf"
			},
			{
				"type": "occ",
				"energy": -0.20199,
				"method": "rhf"
			},
			{
				"type": "unocc",
				"energy": 0.01883,
				"method": "rhf"
			},
			{
				"type": "unocc",
				"energy": 0.02421,
				"method": "rhf"
			},
			{
				"type": "unocc",
				"energy": 0.06219,
				"method": "rhf"
			},
			{
				"type": "unocc",
				"energy": 0.09439,
				"method": "rhf"
			},
			{
				"type": "unocc",
				"energy": 0.11603,
				"method": "rhf"
			}
		],
		"cosmo_sigma_profile": { 
			"-0.025": 0.0,
			"-0.024": 0.0,
			"-0.023": 0.0,
			"-0.022": 0.0,
			"-0.021": 0.0,
			"-0.02": 0.0,
			"-0.019": 0.0,
			"-0.018": 0.0,
			"-0.017": 0.0,
			"-0.016": 0.0,
			"-0.015": 0.308947965232,
			"-0.014": 1.47359150118,
			"-0.013": 0.833443848455,
			"-0.012": 1.36405266478,
			"-0.011": 0.94149635731,
			"-0.01": 1.15091447885,
			"-0.009": 1.1893063485,
			"-0.008": 1.59286548042,
			"-0.007": 1.77303832944,
			"-0.006": 7.81084982613,
			"-0.005": 15.9996734458,
			"-0.004": 15.3150786355,
			"-0.003": 15.5831023895,
			"-0.002": 9.97803423918,
			"-0.001": 6.7557973352,
			"0.0": 7.54780105642,
			"0.001": 8.07526226642,
			"0.002": 12.0071339687,
			"0.003": 11.9103371404,
			"0.004": 12.5785432504,
			"0.005": 12.8228109087,
			"0.006": 9.65380745468,
			"0.007": 5.25119937865,
			"0.008": 2.66692113684,
			"0.009": 2.02601052319,
			"0.01": 1.54805026806,
			"0.011": 1.98266321683,
			"0.012": 1.26057211221,
			"0.013": 0.0,
			"0.014": 0.0,
			"0.015": 0.0,
			"0.016": 0.0,
			"0.017": 0.0,
			"0.018": 0.0,
			"0.019": 0.0,
			"0.02": 0.0,
			"0.021": 0.0,
			"0.022": 0.0,
			"0.023": 0.0,
			"0.024": 0.0,
			"0.025": 0.0
		}
	}
}
