{
	 "smiles": "OC1=CC2=C(C=C1)C=C(O)C=C2", 
	 "Tm": 495.15, 
	 "num_atms": 20, 
	 "gaussian": { 
		 "optdone": 1, 
		 "sigma_profile": "yes", 
		 "theory": "DFT", 
		 "functional": "B3LYP", 
		 "basiset": "6-31G**", 
		 "properties": { 
			 "R2extent": 2263.8677, 
			 "electric_dipole_moment_norm": 0.0, 
			 "electric_quadrupole_moment_norm": 17.5289025535, 
			 "total_energy": -536.335574042, 
			 "HOMO_LUMO_gap": 0.16185, 
			 "cosmo_polarized_energy": -13.17, 
			 "cosmo_cavitation_energy": 24.07, 
			 "cosmo_dispersion_energy": -18.19, 
			 "cosmo_repulsion_energy": 1.42, 
			 "cosmo_total_nonelectrostatic_energy": 7.3, 
			 "SMD_solvation_energy": 4.5 
		},
		"coords": [
			{
				"x": -1.5488956692,
				"y": 1.971987713,
				"z": -2.7470837615,
				"element": "O" 
			},
			{
				"x": -0.9036231785,
				"y": 1.2204769835,
				"z": -1.8034595974,
				"element": "C" 
			},
			{
				"x": -1.4856819178,
				"y": 0.1572790885,
				"z": -1.1453251823,
				"element": "C" 
			},
			{
				"x": -0.7560802703,
				"y": -0.5798704285,
				"z": -0.1758854914,
				"element": "C" 
			},
			{
				"x": 0.596439946,
				"y": -0.2114794071,
				"z": 0.1171860591,
				"element": "C" 
			},
			{
				"x": 1.1600909329,
				"y": 0.8905948536,
				"z": -0.5829959645,
				"element": "C" 
			},
			{
				"x": 0.4356610916,
				"y": 1.5903187607,
				"z": -1.5176442505,
				"element": "C" 
			},
			{
				"x": 1.3260413802,
				"y": -0.9486284217,
				"z": 1.0866255364,
				"element": "C" 
			},
			{
				"x": 0.7439825655,
				"y": -2.0118265084,
				"z": 1.7447602426,
				"element": "C" 
			},
			{
				"x": 1.3892560967,
				"y": -2.7633369181,
				"z": 2.688384487,
				"element": "O" 
			},
			{
				"x": -0.5953012577,
				"y": -2.3816685873,
				"z": 1.4589450353,
				"element": "C" 
			},
			{
				"x": -1.3197307457,
				"y": -1.6819443205,
				"z": 0.5242962442,
				"element": "C" 
			},
			{
				"x": -2.4464033935,
				"y": 1.6324889815,
				"z": -2.8589266229,
				"element": "H" 
			},
			{
				"x": -2.5134614219,
				"y": -0.1288997187,
				"z": -1.3626311839,
				"element": "H" 
			},
			{
				"x": 2.1858977205,
				"y": 1.1792823192,
				"z": -0.3687369327,
				"element": "H" 
			},
			{
				"x": 0.8631394707,
				"y": 2.4315862214,
				"z": -2.0533606153,
				"element": "H" 
			},
			{
				"x": 2.3538209269,
				"y": -0.662450282,
				"z": 1.3039323818,
				"element": "H" 
			},
			{
				"x": 2.286765869,
				"y": -2.4238420458,
				"z": 2.8002213579,
				"element": "H" 
			},
			{
				"x": -1.0227805543,
				"y": -3.2229360739,
				"z": 1.9946607052,
				"element": "H" 
			},
			{
				"x": -2.3455375911,
				"y": -1.9706322095,
				"z": 0.3100375529,
				"element": "H" 
			}
		],
		 "valence_orbital": [ 
			{
				"type": "occ",
				"energy": -0.32884,
				"method": "rhf"
			},
			{
				"type": "occ",
				"energy": -0.29437,
				"method": "rhf"
			},
			{
				"type": "occ",
				"energy": -0.26576,
				"method": "rhf"
			},
			{
				"type": "occ",
				"energy": -0.22763,
				"method": "rhf"
			},
			{
				"type": "occ",
				"energy": -0.1947,
				"method": "rhf"
			},
			{
				"type": "unocc",
				"energy": -0.03285,
				"method": "rhf"
			},
			{
				"type": "unocc",
				"energy": 0.00924,
				"method": "rhf"
			},
			{
				"type": "unocc",
				"energy": 0.03562,
				"method": "rhf"
			},
			{
				"type": "unocc",
				"energy": 0.07042,
				"method": "rhf"
			},
			{
				"type": "unocc",
				"energy": 0.07393,
				"method": "rhf"
			}
		],
		"cosmo_sigma_profile": { 
			"-0.025": 0.0,
			"-0.024": 0.0,
			"-0.023": 0.0,
			"-0.022": 0.0,
			"-0.021": 0.0,
			"-0.02": 0.0,
			"-0.019": 0.0,
			"-0.018": 0.697385465068,
			"-0.017": 2.03040648641,
			"-0.016": 2.03498511905,
			"-0.015": 1.74863802914,
			"-0.014": 1.93599206386,
			"-0.013": 1.87222304467,
			"-0.012": 1.21083953653,
			"-0.011": 2.20387302566,
			"-0.01": 2.54410804698,
			"-0.009": 2.22534756639,
			"-0.008": 2.13130212987,
			"-0.007": 2.56584919979,
			"-0.006": 10.9287483174,
			"-0.005": 13.0163427957,
			"-0.004": 8.5271574043,
			"-0.003": 9.72946617707,
			"-0.002": 7.65935234695,
			"-0.001": 6.22612753741,
			"0.0": 8.28549767498,
			"0.001": 8.98379158515,
			"0.002": 9.46249547566,
			"0.003": 13.8753365034,
			"0.004": 23.7561210106,
			"0.005": 27.0164466068,
			"0.006": 4.02102469027,
			"0.007": 2.4042610697,
			"0.008": 3.23340406696,
			"0.009": 3.43692018584,
			"0.01": 2.5904933618,
			"0.011": 4.11162657696,
			"0.012": 1.62695433551,
			"0.013": 0.0,
			"0.014": 0.0,
			"0.015": 0.0,
			"0.016": 0.0,
			"0.017": 0.0,
			"0.018": 0.0,
			"0.019": 0.0,
			"0.02": 0.0,
			"0.021": 0.0,
			"0.022": 0.0,
			"0.023": 0.0,
			"0.024": 0.0,
			"0.025": 0.0
		}
	}
}
