{
	 "smiles": "NC1=NN=C(O1)C1=CC2=C(CCC2)C=C1", 
	 "Tm": 547.15, 
	 "num_atms": 26, 
	 "gaussian": { 
		 "optdone": 1, 
		 "sigma_profile": "yes", 
		 "theory": "DFT", 
		 "functional": "B3LYP", 
		 "basiset": "6-31G**", 
		 "properties": { 
			 "R2extent": 4664.5871, 
			 "electric_dipole_moment_norm": 3.68294042987, 
			 "electric_quadrupole_moment_norm": 22.5852258948, 
			 "total_energy": -665.268280205, 
			 "HOMO_LUMO_gap": 0.17553, 
			 "cosmo_polarized_energy": -15.69, 
			 "cosmo_cavitation_energy": 29.83, 
			 "cosmo_dispersion_energy": -22.5, 
			 "cosmo_repulsion_energy": 1.77, 
			 "cosmo_total_nonelectrostatic_energy": 9.1, 
			 "SMD_solvation_energy": 2.87 
		},
		"coords": [
			{
				"x": 5.4676898104,
				"y": 1.4568780185,
				"z": 1.9768819528,
				"element": "N" 
			},
			{
				"x": 4.5033797603,
				"y": 0.5995457539,
				"z": 1.5196262012,
				"element": "C" 
			},
			{
				"x": 4.6501424998,
				"y": -0.5890642605,
				"z": 1.013163432,
				"element": "N" 
			},
			{
				"x": 3.3669572475,
				"y": -0.986974055,
				"z": 0.6246525743,
				"element": "N" 
			},
			{
				"x": 2.5526413662,
				"y": -0.0273897875,
				"z": 0.9346489648,
				"element": "C" 
			},
			{
				"x": 3.2193321869,
				"y": 1.037767563,
				"z": 1.5169129578,
				"element": "O" 
			},
			{
				"x": 1.1091927351,
				"y": 0.0503617383,
				"z": 0.7553219194,
				"element": "C" 
			},
			{
				"x": 0.4352426624,
				"y": -1.0432604724,
				"z": 0.1789483397,
				"element": "C" 
			},
			{
				"x": -0.9413177536,
				"y": -0.9783917937,
				"z": 0.0134243423,
				"element": "C" 
			},
			{
				"x": -1.6591177061,
				"y": 0.162495655,
				"z": 0.4104497301,
				"element": "C" 
			},
			{
				"x": -3.132510136,
				"y": -0.0081856631,
				"z": 0.1078859354,
				"element": "C" 
			},
			{
				"x": -3.2727662596,
				"y": -1.5374230571,
				"z": -0.1044784362,
				"element": "C" 
			},
			{
				"x": -1.8770140447,
				"y": -2.0068729974,
				"z": -0.5883365751,
				"element": "C" 
			},
			{
				"x": -0.9940310876,
				"y": 1.2477668035,
				"z": 0.9770363224,
				"element": "C" 
			},
			{
				"x": 0.3897420802,
				"y": 1.1904200103,
				"z": 1.1506583393,
				"element": "C" 
			},
			{
				"x": 6.3564934804,
				"y": 1.0014362406,
				"z": 2.1326147712,
				"element": "H" 
			},
			{
				"x": 5.182160143,
				"y": 2.0702781774,
				"z": 2.7278517843,
				"element": "H" 
			},
			{
				"x": 1.006158373,
				"y": -1.9172609905,
				"z": -0.1186054732,
				"element": "H" 
			},
			{
				"x": -3.3955717944,
				"y": 0.5402455613,
				"z": -0.8081958102,
				"element": "H" 
			},
			{
				"x": -3.7841878556,
				"y": 0.3738923208,
				"z": 0.9009118537,
				"element": "H" 
			},
			{
				"x": -3.5009902793,
				"y": -2.0145884223,
				"z": 0.8551686148,
				"element": "H" 
			},
			{
				"x": -4.0753144251,
				"y": -1.798959569,
				"z": -0.7996246861,
				"element": "H" 
			},
			{
				"x": -1.8124365192,
				"y": -1.9788365394,
				"z": -1.6852686901,
				"element": "H" 
			},
			{
				"x": -1.6434166736,
				"y": -3.0325376552,
				"z": -0.2849272663,
				"element": "H" 
			},
			{
				"x": -1.541209153,
				"y": 2.1333857774,
				"z": 1.2895270496,
				"element": "H" 
			},
			{
				"x": 0.9172513427,
				"y": 2.0268716432,
				"z": 1.5965518522,
				"element": "H" 
			}
		],
		 "valence_orbital": [ 
			{
				"type": "occ",
				"energy": -0.30859,
				"method": "rhf"
			},
			{
				"type": "occ",
				"energy": -0.26561,
				"method": "rhf"
			},
			{
				"type": "occ",
				"energy": -0.26372,
				"method": "rhf"
			},
			{
				"type": "occ",
				"energy": -0.24527,
				"method": "rhf"
			},
			{
				"type": "occ",
				"energy": -0.21061,
				"method": "rhf"
			},
			{
				"type": "unocc",
				"energy": -0.03508,
				"method": "rhf"
			},
			{
				"type": "unocc",
				"energy": -0.00424,
				"method": "rhf"
			},
			{
				"type": "unocc",
				"energy": 0.042,
				"method": "rhf"
			},
			{
				"type": "unocc",
				"energy": 0.06715,
				"method": "rhf"
			},
			{
				"type": "unocc",
				"energy": 0.07429,
				"method": "rhf"
			}
		],
		"cosmo_sigma_profile": { 
			"-0.025": 0.0,
			"-0.024": 0.0,
			"-0.023": 0.0,
			"-0.022": 0.0,
			"-0.021": 0.0,
			"-0.02": 0.0,
			"-0.019": 0.0,
			"-0.018": 0.0,
			"-0.017": 0.0,
			"-0.016": 0.0416889766995,
			"-0.015": 1.85874278838,
			"-0.014": 3.03507587147,
			"-0.013": 2.26293929132,
			"-0.012": 2.61651416013,
			"-0.011": 3.05919759193,
			"-0.01": 1.65637432543,
			"-0.009": 1.5127064064,
			"-0.008": 1.70617765614,
			"-0.007": 1.26927618036,
			"-0.006": 4.47294862331,
			"-0.005": 6.14364184432,
			"-0.004": 15.0308637786,
			"-0.003": 22.6561622165,
			"-0.002": 28.5863113889,
			"-0.001": 25.5004479583,
			"0.0": 23.1994890263,
			"0.001": 14.4046539636,
			"0.002": 14.6949358522,
			"0.003": 13.9052855414,
			"0.004": 12.8002403705,
			"0.005": 8.8358699305,
			"0.006": 2.51174819795,
			"0.007": 2.53651215494,
			"0.008": 2.18949633948,
			"0.009": 2.5849161095,
			"0.01": 3.05686110224,
			"0.011": 2.50757887684,
			"0.012": 3.11732520471,
			"0.013": 3.82839522013,
			"0.014": 2.43624376094,
			"0.015": 2.15313738118,
			"0.016": 0.917534856616,
			"0.017": 0.170099963831,
			"0.018": 0.0,
			"0.019": 0.0,
			"0.02": 0.0,
			"0.021": 0.0,
			"0.022": 0.0,
			"0.023": 0.0,
			"0.024": 0.0,
			"0.025": 0.0
		}
	}
}
