{
	 "smiles": "CN(C)C1=CC=C(C=C1)N=C=O", 
	 "Tm": 311.15, 
	 "num_atms": 22, 
	 "gaussian": { 
		 "optdone": 1, 
		 "sigma_profile": "yes", 
		 "theory": "DFT", 
		 "functional": "B3LYP", 
		 "basiset": "6-31G**", 
		 "properties": { 
			 "R2extent": 2965.4168, 
			 "electric_dipole_moment_norm": 5.00241130056, 
			 "electric_quadrupole_moment_norm": 10.158073113, 
			 "total_energy": -533.703103559, 
			 "HOMO_LUMO_gap": 0.18321, 
			 "cosmo_polarized_energy": -6.98, 
			 "cosmo_cavitation_energy": 26.44, 
			 "cosmo_dispersion_energy": -19.18, 
			 "cosmo_repulsion_energy": 1.52, 
			 "cosmo_total_nonelectrostatic_energy": 8.78, 
			 "SMD_solvation_energy": 6.55 
		},
		"coords": [
			{
				"x": -0.4070076776,
				"y": -2.0869621824,
				"z": 3.0167475358,
				"element": "C" 
			},
			{
				"x": -0.2807965947,
				"y": -0.7229794757,
				"z": 2.532383806,
				"element": "N" 
			},
			{
				"x": -0.8243298497,
				"y": 0.3483546129,
				"z": 3.349612384,
				"element": "C" 
			},
			{
				"x": -0.061853946,
				"y": -0.4996887992,
				"z": 1.1779629179,
				"element": "C" 
			},
			{
				"x": -0.1421836972,
				"y": 0.7973160012,
				"z": 0.6208092637,
				"element": "C" 
			},
			{
				"x": 0.1095111016,
				"y": 1.0204239324,
				"z": -0.7277431843,
				"element": "C" 
			},
			{
				"x": 0.4421822194,
				"y": -0.0365856607,
				"z": -1.5803069923,
				"element": "C" 
			},
			{
				"x": 0.5123804181,
				"y": -1.3304919981,
				"z": -1.0482016193,
				"element": "C" 
			},
			{
				"x": 0.2619984973,
				"y": -1.5597891068,
				"z": 0.2990698168,
				"element": "C" 
			},
			{
				"x": 0.6848357532,
				"y": 0.233172146,
				"z": -2.931626304,
				"element": "N" 
			},
			{
				"x": 0.9814458123,
				"y": -0.3120480027,
				"z": -3.9667649412,
				"element": "C" 
			},
			{
				"x": 1.2656330375,
				"y": -0.7210136542,
				"z": -5.0385446025,
				"element": "O" 
			},
			{
				"x": 0.5065387675,
				"y": -2.6602830653,
				"z": 2.8218512507,
				"element": "H" 
			},
			{
				"x": -0.5560588429,
				"y": -2.0698465724,
				"z": 4.0974779228,
				"element": "H" 
			},
			{
				"x": -1.2511553274,
				"y": -2.6292958135,
				"z": 2.5620499823,
				"element": "H" 
			},
			{
				"x": -1.8183219955,
				"y": 0.6840347682,
				"z": 3.0138952578,
				"element": "H" 
			},
			{
				"x": -0.1577566025,
				"y": 1.2183480043,
				"z": 3.3524300892,
				"element": "H" 
			},
			{
				"x": -0.9121572192,
				"y": 0.0019063118,
				"z": 4.380508058,
				"element": "H" 
			},
			{
				"x": -0.4037313717,
				"y": 1.6453243628,
				"z": 1.240961288,
				"element": "H" 
			},
			{
				"x": 0.0442710569,
				"y": 2.0245600394,
				"z": -1.1338467742,
				"element": "H" 
			},
			{
				"x": 0.7603875418,
				"y": -2.1659005065,
				"z": -1.6967879903,
				"element": "H" 
			},
			{
				"x": 0.3202689189,
				"y": -2.5773553416,
				"z": 0.6644628351,
				"element": "H" 
			}
		],
		 "valence_orbital": [ 
			{
				"type": "occ",
				"energy": -0.32665,
				"method": "rhf"
			},
			{
				"type": "occ",
				"energy": -0.29409,
				"method": "rhf"
			},
			{
				"type": "occ",
				"energy": -0.26495,
				"method": "rhf"
			},
			{
				"type": "occ",
				"energy": -0.2537,
				"method": "rhf"
			},
			{
				"type": "occ",
				"energy": -0.18844,
				"method": "rhf"
			},
			{
				"type": "unocc",
				"energy": -0.00523,
				"method": "rhf"
			},
			{
				"type": "unocc",
				"energy": 0.00025,
				"method": "rhf"
			},
			{
				"type": "unocc",
				"energy": 0.02623,
				"method": "rhf"
			},
			{
				"type": "unocc",
				"energy": 0.08133,
				"method": "rhf"
			},
			{
				"type": "unocc",
				"energy": 0.09327,
				"method": "rhf"
			}
		],
		"cosmo_sigma_profile": { 
			"-0.025": 0.0,
			"-0.024": 0.0,
			"-0.023": 0.0,
			"-0.022": 0.0,
			"-0.021": 0.0,
			"-0.02": 0.0,
			"-0.019": 0.0,
			"-0.018": 0.0,
			"-0.017": 0.0,
			"-0.016": 0.0,
			"-0.015": 0.0,
			"-0.014": 0.0,
			"-0.013": 0.0,
			"-0.012": 0.0,
			"-0.011": 0.0,
			"-0.01": 0.0,
			"-0.009": 0.0,
			"-0.008": 0.0216797759689,
			"-0.007": 3.06022489773,
			"-0.006": 9.43328744343,
			"-0.005": 14.792381008,
			"-0.004": 18.3494761013,
			"-0.003": 21.7182036415,
			"-0.002": 25.5208584027,
			"-0.001": 21.9778114971,
			"0.0": 11.5306946189,
			"0.001": 11.7783197754,
			"0.002": 9.10148687746,
			"0.003": 13.3972016961,
			"0.004": 11.987017809,
			"0.005": 14.3692187346,
			"0.006": 11.363245431,
			"0.007": 3.71865364281,
			"0.008": 8.34938348566,
			"0.009": 0.992827783319,
			"0.01": 0.0,
			"0.011": 0.0,
			"0.012": 0.0,
			"0.013": 0.0,
			"0.014": 0.0,
			"0.015": 0.0,
			"0.016": 0.0,
			"0.017": 0.0,
			"0.018": 0.0,
			"0.019": 0.0,
			"0.02": 0.0,
			"0.021": 0.0,
			"0.022": 0.0,
			"0.023": 0.0,
			"0.024": 0.0,
			"0.025": 0.0
		}
	}
}
