{
	 "smiles": "CC(=O)C1CCC2C3CCC4=CC(=O)CCC4(C)C3C(O)CC12C", 
	 "Tm": 495.15, 
	 "num_atms": 54, 
	 "gaussian": { 
		 "optdone": 1, 
		 "sigma_profile": "yes", 
		 "theory": "DFT", 
		 "functional": "B3LYP", 
		 "basiset": "6-31G**", 
		 "properties": { 
			 "R2extent": 7736.6032, 
			 "electric_dipole_moment_norm": 6.17616729372, 
			 "electric_quadrupole_moment_norm": 22.6797658127, 
			 "total_energy": -1043.97028828, 
			 "HOMO_LUMO_gap": 0.18373, 
			 "cosmo_polarized_energy": -19.3, 
			 "cosmo_cavitation_energy": 46.3, 
			 "cosmo_dispersion_energy": -31.95, 
			 "cosmo_repulsion_energy": 2.35, 
			 "cosmo_total_nonelectrostatic_energy": 16.69, 
			 "SMD_solvation_energy": 8.02 
		},
		"coords": [
			{
				"x": 0.2572971846,
				"y": 4.1854663905,
				"z": -2.6506083046,
				"element": "C" 
			},
			{
				"x": 0.4266223595,
				"y": 2.728832974,
				"z": -3.0366427217,
				"element": "C" 
			},
			{
				"x": 1.402940252,
				"y": 2.3612780679,
				"z": -3.6698253693,
				"element": "O" 
			},
			{
				"x": -0.6907401927,
				"y": 1.7376172389,
				"z": -2.7055683954,
				"element": "C" 
			},
			{
				"x": -1.8856274249,
				"y": 2.2387828266,
				"z": -1.8748220883,
				"element": "C" 
			},
			{
				"x": -2.5458686566,
				"y": 0.9403982282,
				"z": -1.3905425917,
				"element": "C" 
			},
			{
				"x": -1.3466558871,
				"y": 0.0621558304,
				"z": -0.9603506491,
				"element": "C" 
			},
			{
				"x": -0.9719871872,
				"y": 0.410389725,
				"z": 0.5154768959,
				"element": "C" 
			},
			{
				"x": -1.8969863163,
				"y": -0.3322798415,
				"z": 1.4908169199,
				"element": "C" 
			},
			{
				"x": -1.639115378,
				"y": -1.8507735266,
				"z": 1.480100705,
				"element": "C" 
			},
			{
				"x": -0.1989125462,
				"y": -2.2458645951,
				"z": 1.2046026169,
				"element": "C" 
			},
			{
				"x": 0.0762849186,
				"y": -3.4932827545,
				"z": 0.7655989024,
				"element": "C" 
			},
			{
				"x": 1.4287686453,
				"y": -4.0737495681,
				"z": 0.7166563231,
				"element": "C" 
			},
			{
				"x": 1.6379590527,
				"y": -5.1993744277,
				"z": 0.2847094212,
				"element": "O" 
			},
			{
				"x": 2.5271839603,
				"y": -3.2157042683,
				"z": 1.3248394315,
				"element": "C" 
			},
			{
				"x": 2.2767063313,
				"y": -1.7270291863,
				"z": 1.0569219617,
				"element": "C" 
			},
			{
				"x": 0.8868767661,
				"y": -1.2252316164,
				"z": 1.5370760719,
				"element": "C" 
			},
			{
				"x": 0.9403687457,
				"y": -1.1003235089,
				"z": 3.0894172833,
				"element": "C" 
			},
			{
				"x": 0.5113577396,
				"y": 0.2159510883,
				"z": 0.9476641998,
				"element": "C" 
			},
			{
				"x": 1.4231460181,
				"y": 0.8057635511,
				"z": -0.1552746697,
				"element": "C" 
			},
			{
				"x": 1.1834861987,
				"y": 2.2209333029,
				"z": -0.2481038669,
				"element": "O" 
			},
			{
				"x": 1.171098825,
				"y": 0.2200018554,
				"z": -1.5397699961,
				"element": "C" 
			},
			{
				"x": -0.2709328628,
				"y": 0.331616489,
				"z": -2.0757660536,
				"element": "C" 
			},
			{
				"x": -0.4133058461,
				"y": -0.7330176099,
				"z": -3.1876963536,
				"element": "C" 
			},
			{
				"x": 1.0783127296,
				"y": 4.7650471266,
				"z": -3.0750984101,
				"element": "H" 
			},
			{
				"x": 0.2683313239,
				"y": 4.2750175804,
				"z": -1.5604653225,
				"element": "H" 
			},
			{
				"x": -0.7005828555,
				"y": 4.5822201209,
				"z": -3.0051802769,
				"element": "H" 
			},
			{
				"x": -1.0807544503,
				"y": 1.5023638672,
				"z": -3.7066882206,
				"element": "H" 
			},
			{
				"x": -2.5685308833,
				"y": 2.8700603012,
				"z": -2.4531930242,
				"element": "H" 
			},
			{
				"x": -1.541535645,
				"y": 2.8290029103,
				"z": -1.019634855,
				"element": "H" 
			},
			{
				"x": -3.270942069,
				"y": 1.1035725311,
				"z": -0.5863652381,
				"element": "H" 
			},
			{
				"x": -3.088313014,
				"y": 0.4673235252,
				"z": -2.2180050561,
				"element": "H" 
			},
			{
				"x": -1.6102188657,
				"y": -0.9999456574,
				"z": -1.0049053017,
				"element": "H" 
			},
			{
				"x": -1.1533991686,
				"y": 1.482614101,
				"z": 0.6370047717,
				"element": "H" 
			},
			{
				"x": -2.9486696695,
				"y": -0.1409652676,
				"z": 1.2523217077,
				"element": "H" 
			},
			{
				"x": -1.742361136,
				"y": 0.0710268643,
				"z": 2.4985869676,
				"element": "H" 
			},
			{
				"x": -2.2821716414,
				"y": -2.3513922708,
				"z": 0.7487437297,
				"element": "H" 
			},
			{
				"x": -1.9269442824,
				"y": -2.2736919444,
				"z": 2.4525431993,
				"element": "H" 
			},
			{
				"x": -0.7295879056,
				"y": -4.1771478964,
				"z": 0.50549744,
				"element": "H" 
			},
			{
				"x": 3.4896311792,
				"y": -3.5377931064,
				"z": 0.9175559839,
				"element": "H" 
			},
			{
				"x": 2.5524402267,
				"y": -3.4296741051,
				"z": 2.4020024781,
				"element": "H" 
			},
			{
				"x": 3.0625942382,
				"y": -1.1253185896,
				"z": 1.5278426848,
				"element": "H" 
			},
			{
				"x": 2.3782298009,
				"y": -1.5794177338,
				"z": -0.0193589948,
				"element": "H" 
			},
			{
				"x": -0.0099407715,
				"y": -0.7603810712,
				"z": 3.5080382016,
				"element": "H" 
			},
			{
				"x": 1.7093567513,
				"y": -0.3764180173,
				"z": 3.3807356334,
				"element": "H" 
			},
			{
				"x": 1.1827385171,
				"y": -2.0586564469,
				"z": 3.5579263251,
				"element": "H" 
			},
			{
				"x": 0.6473187906,
				"y": 0.8935619142,
				"z": 1.8032623146,
				"element": "H" 
			},
			{
				"x": 2.4782732596,
				"y": 0.6469908549,
				"z": 0.1025697425,
				"element": "H" 
			},
			{
				"x": 1.4563102219,
				"y": 2.6264838625,
				"z": 0.5849669726,
				"element": "H" 
			},
			{
				"x": 1.8640026925,
				"y": 0.6679684424,
				"z": -2.2548576212,
				"element": "H" 
			},
			{
				"x": 1.4149120493,
				"y": -0.8460167025,
				"z": -1.4955754996,
				"element": "H" 
			},
			{
				"x": -1.4280391809,
				"y": -0.7504699325,
				"z": -3.6008133993,
				"element": "H" 
			},
			{
				"x": 0.2782050925,
				"y": -0.5133248788,
				"z": -4.0080492857,
				"element": "H" 
			},
			{
				"x": -0.1881300346,
				"y": -1.7362970463,
				"z": -2.8091173195,
				"element": "H" 
			}
		],
		 "valence_orbital": [ 
			{
				"type": "occ",
				"energy": -0.28861,
				"method": "rhf"
			},
			{
				"type": "occ",
				"energy": -0.26883,
				"method": "rhf"
			},
			{
				"type": "occ",
				"energy": -0.25191,
				"method": "rhf"
			},
			{
				"type": "occ",
				"energy": -0.23082,
				"method": "rhf"
			},
			{
				"type": "occ",
				"energy": -0.23,
				"method": "rhf"
			},
			{
				"type": "unocc",
				"energy": -0.04627,
				"method": "rhf"
			},
			{
				"type": "unocc",
				"energy": -0.00262,
				"method": "rhf"
			},
			{
				"type": "unocc",
				"energy": 0.04511,
				"method": "rhf"
			},
			{
				"type": "unocc",
				"energy": 0.06306,
				"method": "rhf"
			},
			{
				"type": "unocc",
				"energy": 0.07057,
				"method": "rhf"
			}
		],
		"cosmo_sigma_profile": { 
			"-0.025": 0.0,
			"-0.024": 0.0,
			"-0.023": 0.0,
			"-0.022": 0.0,
			"-0.021": 0.0,
			"-0.02": 0.0,
			"-0.019": 0.0,
			"-0.018": 0.0,
			"-0.017": 0.0,
			"-0.016": 0.0,
			"-0.015": 0.685708773337,
			"-0.014": 1.04857768336,
			"-0.013": 0.74631290072,
			"-0.012": 0.883960483355,
			"-0.011": 1.15448049106,
			"-0.01": 0.98812285967,
			"-0.009": 1.0729383541,
			"-0.008": 0.772598874656,
			"-0.007": 0.913162324051,
			"-0.006": 1.91398823731,
			"-0.005": 10.8802398824,
			"-0.004": 33.361051464,
			"-0.003": 51.1691045186,
			"-0.002": 52.0374246814,
			"-0.001": 52.1758421033,
			"0.0": 41.3828260709,
			"0.001": 28.1418739541,
			"0.002": 13.5455560363,
			"0.003": 8.07146203322,
			"0.004": 5.01062538021,
			"0.005": 5.17886683369,
			"0.006": 4.32831946683,
			"0.007": 4.25065314744,
			"0.008": 4.14618315025,
			"0.009": 3.22951756378,
			"0.01": 5.43632711172,
			"0.011": 5.16911264467,
			"0.012": 5.94213133454,
			"0.013": 7.48299369905,
			"0.014": 4.88385778851,
			"0.015": 0.632283277526,
			"0.016": 0.0,
			"0.017": 0.0,
			"0.018": 0.0,
			"0.019": 0.0,
			"0.02": 0.0,
			"0.021": 0.0,
			"0.022": 0.0,
			"0.023": 0.0,
			"0.024": 0.0,
			"0.025": 0.0
		}
	}
}
