{
	 "smiles": "CC(C)C(C)C(O)=O", 
	 "Tm": 271.65, 
	 "num_atms": 20, 
	 "gaussian": { 
		 "optdone": 1, 
		 "sigma_profile": "yes", 
		 "theory": "DFT", 
		 "functional": "B3LYP", 
		 "basiset": "6-31G**", 
		 "properties": { 
			 "R2extent": 1672.337, 
			 "electric_dipole_moment_norm": 1.41497996099, 
			 "electric_quadrupole_moment_norm": 6.06429581073, 
			 "total_energy": -386.348935531, 
			 "HOMO_LUMO_gap": 0.27973, 
			 "cosmo_polarized_energy": -7.39, 
			 "cosmo_cavitation_energy": 21.89, 
			 "cosmo_dispersion_energy": -15.83, 
			 "cosmo_repulsion_energy": 1.32, 
			 "cosmo_total_nonelectrostatic_energy": 7.39, 
			 "SMD_solvation_energy": 5.17 
		},
		"coords": [
			{
				"x": 1.5416986437,
				"y": -0.549142687,
				"z": 0.2927771378,
				"element": "C" 
			},
			{
				"x": 0.812344369,
				"y": -1.7795863778,
				"z": 0.8543196717,
				"element": "C" 
			},
			{
				"x": 1.2553153823,
				"y": -3.0614283668,
				"z": 0.1327670525,
				"element": "C" 
			},
			{
				"x": -0.7308059961,
				"y": -1.6330415827,
				"z": 0.8449259502,
				"element": "C" 
			},
			{
				"x": -1.3465352103,
				"y": -1.2931987575,
				"z": -0.5274418479,
				"element": "C" 
			},
			{
				"x": -1.1959918949,
				"y": -0.6533668534,
				"z": 1.9156059227,
				"element": "C" 
			},
			{
				"x": -2.5423322904,
				"y": -0.4769514259,
				"z": 1.8933807726,
				"element": "O" 
			},
			{
				"x": -0.4968960406,
				"y": -0.0946527908,
				"z": 2.7343518658,
				"element": "O" 
			},
			{
				"x": 2.6236133619,
				"y": -0.6610961979,
				"z": 0.4200615877,
				"element": "H" 
			},
			{
				"x": 1.2384345726,
				"y": 0.3624983544,
				"z": 0.814018093,
				"element": "H" 
			},
			{
				"x": 1.3523971659,
				"y": -0.4184174466,
				"z": -0.7786071399,
				"element": "H" 
			},
			{
				"x": 1.0991630621,
				"y": -1.8724954898,
				"z": 1.908434935,
				"element": "H" 
			},
			{
				"x": 0.7700484482,
				"y": -3.949811814,
				"z": 0.5529691987,
				"element": "H" 
			},
			{
				"x": 2.3376483655,
				"y": -3.198663102,
				"z": 0.226205678,
				"element": "H" 
			},
			{
				"x": 1.0244216814,
				"y": -3.0291172324,
				"z": -0.938108347,
				"element": "H" 
			},
			{
				"x": -1.1563861117,
				"y": -2.5990970556,
				"z": 1.1574761414,
				"element": "H" 
			},
			{
				"x": -1.0464305786,
				"y": -0.2978756459,
				"z": -0.867850864,
				"element": "H" 
			},
			{
				"x": -2.4367496978,
				"y": -1.3156843976,
				"z": -0.4773837938,
				"element": "H" 
			},
			{
				"x": -1.0249194509,
				"y": -2.0175702635,
				"z": -1.2806437956,
				"element": "H" 
			},
			{
				"x": -2.7398377814,
				"y": 0.1384991329,
				"z": 2.6193417807,
				"element": "H" 
			}
		],
		 "valence_orbital": [ 
			{
				"type": "occ",
				"energy": -0.33256,
				"method": "rhf"
			},
			{
				"type": "occ",
				"energy": -0.32344,
				"method": "rhf"
			},
			{
				"type": "occ",
				"energy": -0.31746,
				"method": "rhf"
			},
			{
				"type": "occ",
				"energy": -0.31435,
				"method": "rhf"
			},
			{
				"type": "occ",
				"energy": -0.2702,
				"method": "rhf"
			},
			{
				"type": "unocc",
				"energy": 0.00953,
				"method": "rhf"
			},
			{
				"type": "unocc",
				"energy": 0.07477,
				"method": "rhf"
			},
			{
				"type": "unocc",
				"energy": 0.09133,
				"method": "rhf"
			},
			{
				"type": "unocc",
				"energy": 0.12036,
				"method": "rhf"
			},
			{
				"type": "unocc",
				"energy": 0.1322,
				"method": "rhf"
			}
		],
		"cosmo_sigma_profile": { 
			"-0.025": 0.0,
			"-0.024": 0.0,
			"-0.023": 0.0,
			"-0.022": 0.0,
			"-0.021": 0.0,
			"-0.02": 0.0,
			"-0.019": 0.0,
			"-0.018": 0.255856529231,
			"-0.017": 1.17971164931,
			"-0.016": 0.522421345694,
			"-0.015": 1.03558804845,
			"-0.014": 0.79596095422,
			"-0.013": 0.76108638377,
			"-0.012": 0.558277422406,
			"-0.011": 0.387788538868,
			"-0.01": 0.721754289237,
			"-0.009": 0.729560985329,
			"-0.008": 0.313308164582,
			"-0.007": 1.0854707114,
			"-0.006": 1.86309993189,
			"-0.005": 3.44651814857,
			"-0.004": 5.95671933185,
			"-0.003": 16.2269373276,
			"-0.002": 24.6989990217,
			"-0.001": 24.7845049291,
			"0.0": 21.6080859579,
			"0.001": 20.5000326757,
			"0.002": 10.4708258947,
			"0.003": 3.5312398245,
			"0.004": 2.97296998818,
			"0.005": 2.926712703,
			"0.006": 3.54806988346,
			"0.007": 2.73560800054,
			"0.008": 3.81882540402,
			"0.009": 2.10725486828,
			"0.01": 1.8075167522,
			"0.011": 2.93067506482,
			"0.012": 4.48673769672,
			"0.013": 0.538609795769,
			"0.014": 0.0,
			"0.015": 0.0,
			"0.016": 0.0,
			"0.017": 0.0,
			"0.018": 0.0,
			"0.019": 0.0,
			"0.02": 0.0,
			"0.021": 0.0,
			"0.022": 0.0,
			"0.023": 0.0,
			"0.024": 0.0,
			"0.025": 0.0
		}
	}
}
