{
	 "smiles": "CC1=CC(Cl)=C(O)C(Cl)=C1", 
	 "Tm": 312.15, 
	 "num_atms": 16, 
	 "gaussian": { 
		 "optdone": 1, 
		 "sigma_profile": "yes", 
		 "theory": "DFT", 
		 "functional": "B3LYP", 
		 "basiset": "6-31G**", 
		 "properties": { 
			 "R2extent": 3105.4605, 
			 "electric_dipole_moment_norm": 2.38962821167, 
			 "electric_quadrupole_moment_norm": 5.66470256059, 
			 "total_energy": -1265.97182569, 
			 "HOMO_LUMO_gap": 0.20713, 
			 "cosmo_polarized_energy": -6.59, 
			 "cosmo_cavitation_energy": 23.42, 
			 "cosmo_dispersion_energy": -17.82, 
			 "cosmo_repulsion_energy": 1.45, 
			 "cosmo_total_nonelectrostatic_energy": 7.05, 
			 "SMD_solvation_energy": 3.94 
		},
		"coords": [
			{
				"x": -2.3168911491,
				"y": -0.9289922657,
				"z": 0.7272070582,
				"element": "C" 
			},
			{
				"x": -0.9031093758,
				"y": -0.5166758634,
				"z": 1.0655179749,
				"element": "C" 
			},
			{
				"x": -0.1090631562,
				"y": -1.2914702116,
				"z": 1.9150878757,
				"element": "C" 
			},
			{
				"x": 1.1992418607,
				"y": -0.9075801245,
				"z": 2.1947425962,
				"element": "C" 
			},
			{
				"x": 2.1930002139,
				"y": -1.8905657243,
				"z": 3.2714181029,
				"element": "Cl" 
			},
			{
				"x": 1.7743533133,
				"y": 0.2509594,
				"z": 1.6527483789,
				"element": "C" 
			},
			{
				"x": 3.0383927377,
				"y": 0.6522831833,
				"z": 1.9068376375,
				"element": "O" 
			},
			{
				"x": 0.9622141505,
				"y": 1.0205802492,
				"z": 0.8024374228,
				"element": "C" 
			},
			{
				"x": 1.623142637,
				"y": 2.4803232236,
				"z": 0.1011235651,
				"element": "Cl" 
			},
			{
				"x": -0.3461898831,
				"y": 0.6459000569,
				"z": 0.5163748638,
				"element": "C" 
			},
			{
				"x": -2.9962064882,
				"y": -0.0707848283,
				"z": 0.7396366062,
				"element": "H" 
			},
			{
				"x": -2.373321875,
				"y": -1.3738434894,
				"z": -0.2736513861,
				"element": "H" 
			},
			{
				"x": -2.6962257563,
				"y": -1.6683216321,
				"z": 1.4377910527,
				"element": "H" 
			},
			{
				"x": -0.5016692105,
				"y": -2.1971579934,
				"z": 2.3649795009,
				"element": "H" 
			},
			{
				"x": 3.4511068556,
				"y": 0.0133371121,
				"z": 2.5082142648,
				"element": "H" 
			},
			{
				"x": -0.9342748745,
				"y": 1.2747089075,
				"z": -0.1441655146,
				"element": "H" 
			}
		],
		 "valence_orbital": [ 
			{
				"type": "occ",
				"energy": -0.33727,
				"method": "rhf"
			},
			{
				"type": "occ",
				"energy": -0.31838,
				"method": "rhf"
			},
			{
				"type": "occ",
				"energy": -0.31126,
				"method": "rhf"
			},
			{
				"type": "occ",
				"energy": -0.25187,
				"method": "rhf"
			},
			{
				"type": "occ",
				"energy": -0.23059,
				"method": "rhf"
			},
			{
				"type": "unocc",
				"energy": -0.02346,
				"method": "rhf"
			},
			{
				"type": "unocc",
				"energy": -0.00648,
				"method": "rhf"
			},
			{
				"type": "unocc",
				"energy": 0.00139,
				"method": "rhf"
			},
			{
				"type": "unocc",
				"energy": 0.04873,
				"method": "rhf"
			},
			{
				"type": "unocc",
				"energy": 0.08472,
				"method": "rhf"
			}
		],
		"cosmo_sigma_profile": { 
			"-0.025": 0.0,
			"-0.024": 0.0,
			"-0.023": 0.0,
			"-0.022": 0.0,
			"-0.021": 0.0,
			"-0.02": 0.0,
			"-0.019": 0.0,
			"-0.018": 0.0,
			"-0.017": 0.0,
			"-0.016": 0.134570680624,
			"-0.015": 0.632469323737,
			"-0.014": 0.821790342387,
			"-0.013": 0.667118998749,
			"-0.012": 0.70385097884,
			"-0.011": 0.546073113651,
			"-0.01": 1.28546308794,
			"-0.009": 0.804998257038,
			"-0.008": 1.27923624713,
			"-0.007": 4.46152765067,
			"-0.006": 5.51707101035,
			"-0.005": 8.10371065269,
			"-0.004": 10.8474129453,
			"-0.003": 11.4155117589,
			"-0.002": 14.7330592931,
			"-0.001": 17.8440707664,
			"0.0": 18.2158580655,
			"0.001": 20.3219657619,
			"0.002": 20.9408799871,
			"0.003": 19.4247489698,
			"0.004": 15.0061555145,
			"0.005": 6.7662149471,
			"0.006": 2.81660691895,
			"0.007": 1.5349798409,
			"0.008": 1.82294687826,
			"0.009": 2.14802844196,
			"0.01": 2.23793434255,
			"0.011": 0.496357369871,
			"0.012": 0.0,
			"0.013": 0.0,
			"0.014": 0.0,
			"0.015": 0.0,
			"0.016": 0.0,
			"0.017": 0.0,
			"0.018": 0.0,
			"0.019": 0.0,
			"0.02": 0.0,
			"0.021": 0.0,
			"0.022": 0.0,
			"0.023": 0.0,
			"0.024": 0.0,
			"0.025": 0.0
		}
	}
}
