{
	 "smiles": "CC1=CC(=C(Cl)C(=C1)[N+]([O-])=O)[N+]([O-])=O", 
	 "Tm": 388.15, 
	 "num_atms": 19, 
	 "gaussian": { 
		 "optdone": 1, 
		 "sigma_profile": "yes", 
		 "theory": "DFT", 
		 "functional": "B3LYP", 
		 "basiset": "6-31G**", 
		 "properties": { 
			 "R2extent": 3627.0186, 
			 "electric_dipole_moment_norm": 5.00987471899, 
			 "electric_quadrupole_moment_norm": 13.4349369842, 
			 "total_energy": -1140.12417274, 
			 "HOMO_LUMO_gap": 0.17721, 
			 "cosmo_polarized_energy": -12.51, 
			 "cosmo_cavitation_energy": 26.93, 
			 "cosmo_dispersion_energy": -19.48, 
			 "cosmo_repulsion_energy": 1.54, 
			 "cosmo_total_nonelectrostatic_energy": 8.99, 
			 "SMD_solvation_energy": 9.11 
		},
		"coords": [
			{
				"x": 0.2776155311,
				"y": -0.6990497416,
				"z": 2.4388369986,
				"element": "C" 
			},
			{
				"x": 0.2309444175,
				"y": -0.3121383132,
				"z": 0.9816245679,
				"element": "C" 
			},
			{
				"x": -0.964514445,
				"y": -0.3432625505,
				"z": 0.2613172006,
				"element": "C" 
			},
			{
				"x": -1.0158171681,
				"y": 0.0694007008,
				"z": -1.0681433607,
				"element": "C" 
			},
			{
				"x": 0.1311738782,
				"y": 0.4727325645,
				"z": -1.7710578455,
				"element": "C" 
			},
			{
				"x": 0.0713790387,
				"y": 0.9451244046,
				"z": -3.4337777314,
				"element": "Cl" 
			},
			{
				"x": 1.3305605494,
				"y": 0.4649887406,
				"z": -1.0403921744,
				"element": "C" 
			},
			{
				"x": 1.3767766123,
				"y": 0.1123958966,
				"z": 0.3064220499,
				"element": "C" 
			},
			{
				"x": 2.6300778545,
				"y": 0.8168916358,
				"z": -1.6514471139,
				"element": "N" 
			},
			{
				"x": 2.8718455513,
				"y": 0.3922784862,
				"z": -2.774095782,
				"element": "O" 
			},
			{
				"x": 3.3937298679,
				"y": 1.4844197711,
				"z": -0.9560737917,
				"element": "O" 
			},
			{
				"x": -2.3584119365,
				"y": 0.0596217168,
				"z": -1.6870455444,
				"element": "N" 
			},
			{
				"x": -3.0827271831,
				"y": -0.8913446009,
				"z": -1.3984996377,
				"element": "O" 
			},
			{
				"x": -2.6693022465,
				"y": 1.0049155761,
				"z": -2.4004127075,
				"element": "O" 
			},
			{
				"x": 1.2542979307,
				"y": -1.1077686294,
				"z": 2.7107193474,
				"element": "H" 
			},
			{
				"x": -0.4846685824,
				"y": -1.4459331064,
				"z": 2.6756508888,
				"element": "H" 
			},
			{
				"x": 0.0955515057,
				"y": 0.1726000738,
				"z": 3.0786065773,
				"element": "H" 
			},
			{
				"x": -1.8857438703,
				"y": -0.6812929419,
				"z": 0.7223072894,
				"element": "H" 
			},
			{
				"x": 2.3347326944,
				"y": 0.1662203173,
				"z": 0.8112607693,
				"element": "H" 
			}
		],
		 "valence_orbital": [ 
			{
				"type": "occ",
				"energy": -0.3241,
				"method": "rhf"
			},
			{
				"type": "occ",
				"energy": -0.31655,
				"method": "rhf"
			},
			{
				"type": "occ",
				"energy": -0.30146,
				"method": "rhf"
			},
			{
				"type": "occ",
				"energy": -0.29459,
				"method": "rhf"
			},
			{
				"type": "occ",
				"energy": -0.28292,
				"method": "rhf"
			},
			{
				"type": "unocc",
				"energy": -0.10571,
				"method": "rhf"
			},
			{
				"type": "unocc",
				"energy": -0.10009,
				"method": "rhf"
			},
			{
				"type": "unocc",
				"energy": -0.0439,
				"method": "rhf"
			},
			{
				"type": "unocc",
				"energy": -0.03598,
				"method": "rhf"
			},
			{
				"type": "unocc",
				"energy": -0.00621,
				"method": "rhf"
			}
		],
		"cosmo_sigma_profile": { 
			"-0.025": 0.0,
			"-0.024": 0.0,
			"-0.023": 0.0,
			"-0.022": 0.0,
			"-0.021": 0.0,
			"-0.02": 0.0,
			"-0.019": 0.0,
			"-0.018": 0.0,
			"-0.017": 0.0,
			"-0.016": 0.0,
			"-0.015": 0.0,
			"-0.014": 0.0,
			"-0.013": 0.0,
			"-0.012": 0.0,
			"-0.011": 0.0,
			"-0.01": 0.179767358637,
			"-0.009": 4.77162570193,
			"-0.008": 7.52457217798,
			"-0.007": 7.695027765,
			"-0.006": 10.6646572509,
			"-0.005": 12.7690702397,
			"-0.004": 15.2094220023,
			"-0.003": 22.6848484601,
			"-0.002": 20.9727238033,
			"-0.001": 16.5245923278,
			"0.0": 8.71080548084,
			"0.001": 8.25924271945,
			"0.002": 9.54436138993,
			"0.003": 7.67145767684,
			"0.004": 7.2525454585,
			"0.005": 7.98856605853,
			"0.006": 14.8880775082,
			"0.007": 20.9767132563,
			"0.008": 9.7136913441,
			"0.009": 4.19854785133,
			"0.01": 0.122437505479,
			"0.011": 0.0,
			"0.012": 0.0,
			"0.013": 0.0,
			"0.014": 0.0,
			"0.015": 0.0,
			"0.016": 0.0,
			"0.017": 0.0,
			"0.018": 0.0,
			"0.019": 0.0,
			"0.02": 0.0,
			"0.021": 0.0,
			"0.022": 0.0,
			"0.023": 0.0,
			"0.024": 0.0,
			"0.025": 0.0
		}
	}
}
