{
	 "smiles": "COC1=C(NCCC(N)=O)C=CC=C1", 
	 "Tm": 368.15, 
	 "num_atms": 28, 
	 "gaussian": { 
		 "optdone": 1, 
		 "sigma_profile": "yes", 
		 "theory": "DFT", 
		 "functional": "B3LYP", 
		 "basiset": "6-31G**", 
		 "properties": { 
			 "R2extent": 3727.5982, 
			 "electric_dipole_moment_norm": 5.3393163804, 
			 "electric_quadrupole_moment_norm": 25.9029432096, 
			 "total_energy": -649.460118864, 
			 "HOMO_LUMO_gap": 0.20463, 
			 "cosmo_polarized_energy": -15.31, 
			 "cosmo_cavitation_energy": 30.93, 
			 "cosmo_dispersion_energy": -22.34, 
			 "cosmo_repulsion_energy": 1.79, 
			 "cosmo_total_nonelectrostatic_energy": 10.38, 
			 "SMD_solvation_energy": 6.76 
		},
		"coords": [
			{
				"x": -1.8589000148,
				"y": -1.9939474917,
				"z": -2.6890675022,
				"element": "C" 
			},
			{
				"x": -1.0735043339,
				"y": -0.9849120388,
				"z": -2.0752354984,
				"element": "O" 
			},
			{
				"x": -0.3168295143,
				"y": -1.3284685021,
				"z": -0.979315111,
				"element": "C" 
			},
			{
				"x": 0.4835233488,
				"y": -0.2721346019,
				"z": -0.4723183441,
				"element": "C" 
			},
			{
				"x": 0.3819284623,
				"y": 0.9768127782,
				"z": -1.1005143212,
				"element": "N" 
			},
			{
				"x": 1.4043124103,
				"y": 2.0076851705,
				"z": -0.9168485374,
				"element": "C" 
			},
			{
				"x": 1.1349593122,
				"y": 2.9568876522,
				"z": 0.2696612436,
				"element": "C" 
			},
			{
				"x": -0.0607515525,
				"y": 3.8977150131,
				"z": 0.0958909964,
				"element": "C" 
			},
			{
				"x": -1.233305713,
				"y": 3.276861282,
				"z": -0.223557385,
				"element": "N" 
			},
			{
				"x": 0.0318903711,
				"y": 5.1067811172,
				"z": 0.262501389,
				"element": "O" 
			},
			{
				"x": 1.2978696295,
				"y": -0.5308823969,
				"z": 0.6340456012,
				"element": "C" 
			},
			{
				"x": 1.318211911,
				"y": -1.7985199902,
				"z": 1.2285196942,
				"element": "C" 
			},
			{
				"x": 0.5294434683,
				"y": -2.8237764872,
				"z": 0.7228578096,
				"element": "C" 
			},
			{
				"x": -0.2901286628,
				"y": -2.5874751492,
				"z": -0.3901468814,
				"element": "C" 
			},
			{
				"x": -2.6186105779,
				"y": -2.38587054,
				"z": -2.0010548762,
				"element": "H" 
			},
			{
				"x": -1.238452666,
				"y": -2.8248137906,
				"z": -3.048521925,
				"element": "H" 
			},
			{
				"x": -2.3543108097,
				"y": -1.5198671162,
				"z": -3.5379537693,
				"element": "H" 
			},
			{
				"x": 0.0467911155,
				"y": 0.8830803321,
				"z": -2.0502872963,
				"element": "H" 
			},
			{
				"x": 1.44675566,
				"y": 2.5957995316,
				"z": -1.8390579649,
				"element": "H" 
			},
			{
				"x": 2.3958263195,
				"y": 1.550564523,
				"z": -0.7889365604,
				"element": "H" 
			},
			{
				"x": 0.985590058,
				"y": 2.369644112,
				"z": 1.1834907398,
				"element": "H" 
			},
			{
				"x": 2.0067574411,
				"y": 3.5968182266,
				"z": 0.4258773645,
				"element": "H" 
			},
			{
				"x": -2.0392368389,
				"y": 3.8565269569,
				"z": -0.4027006586,
				"element": "H" 
			},
			{
				"x": -1.2328249914,
				"y": 2.2955967665,
				"z": -0.4739977039,
				"element": "H" 
			},
			{
				"x": 1.9206447222,
				"y": 0.2576969188,
				"z": 1.0411191453,
				"element": "H" 
			},
			{
				"x": 1.9576692081,
				"y": -1.9714928569,
				"z": 2.0887802397,
				"element": "H" 
			},
			{
				"x": 0.5409730618,
				"y": -3.8082725198,
				"z": 1.1796875449,
				"element": "H" 
			},
			{
				"x": -0.9008908243,
				"y": -3.3901368991,
				"z": -0.7869174331,
				"element": "H" 
			}
		],
		 "valence_orbital": [ 
			{
				"type": "occ",
				"energy": -0.29949,
				"method": "rhf"
			},
			{
				"type": "occ",
				"energy": -0.25183,
				"method": "rhf"
			},
			{
				"type": "occ",
				"energy": -0.23616,
				"method": "rhf"
			},
			{
				"type": "occ",
				"energy": -0.23185,
				"method": "rhf"
			},
			{
				"type": "occ",
				"energy": -0.19838,
				"method": "rhf"
			},
			{
				"type": "unocc",
				"energy": 0.00625,
				"method": "rhf"
			},
			{
				"type": "unocc",
				"energy": 0.01359,
				"method": "rhf"
			},
			{
				"type": "unocc",
				"energy": 0.03977,
				"method": "rhf"
			},
			{
				"type": "unocc",
				"energy": 0.07753,
				"method": "rhf"
			},
			{
				"type": "unocc",
				"energy": 0.08804,
				"method": "rhf"
			}
		],
		"cosmo_sigma_profile": { 
			"-0.025": 0.0,
			"-0.024": 0.0,
			"-0.023": 0.0,
			"-0.022": 0.0,
			"-0.021": 0.0,
			"-0.02": 0.0,
			"-0.019": 0.0,
			"-0.018": 0.0,
			"-0.017": 0.0,
			"-0.016": 0.0,
			"-0.015": 0.0,
			"-0.014": 0.0722406404771,
			"-0.013": 0.996890550927,
			"-0.012": 1.14409199816,
			"-0.011": 1.34757416876,
			"-0.01": 1.94631970171,
			"-0.009": 2.59143116931,
			"-0.008": 2.92112472744,
			"-0.007": 3.36088108016,
			"-0.006": 8.84645440487,
			"-0.005": 23.6477107158,
			"-0.004": 28.7865711221,
			"-0.003": 26.2806177772,
			"-0.002": 20.8877788519,
			"-0.001": 15.8457973817,
			"0.0": 9.46630113324,
			"0.001": 10.91024926,
			"0.002": 10.3605233957,
			"0.003": 12.2487159996,
			"0.004": 11.266662961,
			"0.005": 10.5243807215,
			"0.006": 10.7001983536,
			"0.007": 8.46684198253,
			"0.008": 2.98658734384,
			"0.009": 1.8627787121,
			"0.01": 0.962795731042,
			"0.011": 1.15817217224,
			"0.012": 1.92354814564,
			"0.013": 2.16774566341,
			"0.014": 5.85424123054,
			"0.015": 3.93270320648,
			"0.016": 0.42850124792,
			"0.017": 0.0,
			"0.018": 0.0,
			"0.019": 0.0,
			"0.02": 0.0,
			"0.021": 0.0,
			"0.022": 0.0,
			"0.023": 0.0,
			"0.024": 0.0,
			"0.025": 0.0
		}
	}
}
