{
	 "smiles": "CC(C)(C)C1=NN(C(=O)O1)C1=C(Cl)C=C(Cl)C(OCC#C)=C1", 
	 "Tm": 404.15, 
	 "num_atms": 36, 
	 "gaussian": { 
		 "optdone": 1, 
		 "sigma_profile": "yes", 
		 "theory": "DFT", 
		 "functional": "B3LYP", 
		 "basiset": "6-31G**", 
		 "properties": { 
			 "R2extent": 9437.5511, 
			 "electric_dipole_moment_norm": 3.33134650704, 
			 "electric_quadrupole_moment_norm": 16.8556987105, 
			 "total_energy": -1835.4993798, 
			 "HOMO_LUMO_gap": 0.19218, 
			 "cosmo_polarized_energy": -13.52, 
			 "cosmo_cavitation_energy": 45.16, 
			 "cosmo_dispersion_energy": -29.91, 
			 "cosmo_repulsion_energy": 2.32, 
			 "cosmo_total_nonelectrostatic_energy": 17.58, 
			 "SMD_solvation_energy": 9.83 
		},
		"coords": [
			{
				"x": 0.7614412691,
				"y": 4.2612913671,
				"z": -0.8601680926,
				"element": "C" 
			},
			{
				"x": 0.6251400379,
				"y": 3.2774752702,
				"z": -2.0349856708,
				"element": "C" 
			},
			{
				"x": 1.8840581656,
				"y": 3.3375906482,
				"z": -2.9325424287,
				"element": "C" 
			},
			{
				"x": -0.6291790551,
				"y": 3.6146228797,
				"z": -2.8748054006,
				"element": "C" 
			},
			{
				"x": 0.4866515467,
				"y": 1.8797479357,
				"z": -1.4973303102,
				"element": "C" 
			},
			{
				"x": 0.4880467682,
				"y": 1.5008281055,
				"z": -0.2674616292,
				"element": "N" 
			},
			{
				"x": 0.3424428368,
				"y": 0.1171658778,
				"z": -0.3364421356,
				"element": "N" 
			},
			{
				"x": 0.2166317331,
				"y": -0.3180098396,
				"z": -1.6414791042,
				"element": "C" 
			},
			{
				"x": 0.0363416479,
				"y": -1.4181612214,
				"z": -2.0990677338,
				"element": "O" 
			},
			{
				"x": 0.3355001531,
				"y": 0.8491386037,
				"z": -2.3903757699,
				"element": "O" 
			},
			{
				"x": 0.2332047619,
				"y": -0.6930246648,
				"z": 0.8181468506,
				"element": "C" 
			},
			{
				"x": 1.1439549994,
				"y": -0.6115502433,
				"z": 1.879245368,
				"element": "C" 
			},
			{
				"x": 2.5359976552,
				"y": 0.4443779121,
				"z": 1.8325959306,
				"element": "Cl" 
			},
			{
				"x": 0.9685135834,
				"y": -1.4241732228,
				"z": 3.0004022615,
				"element": "C" 
			},
			{
				"x": -0.0747651877,
				"y": -2.3396374892,
				"z": 3.0515006882,
				"element": "C" 
			},
			{
				"x": -0.2536874434,
				"y": -3.361059687,
				"z": 4.4557063684,
				"element": "Cl" 
			},
			{
				"x": -0.9739390376,
				"y": -2.4638789986,
				"z": 1.975045891,
				"element": "C" 
			},
			{
				"x": -1.945003656,
				"y": -3.4058545047,
				"z": 2.0926817671,
				"element": "O" 
			},
			{
				"x": -2.7729677329,
				"y": -3.6934851808,
				"z": 0.9595783584,
				"element": "C" 
			},
			{
				"x": -3.8196417614,
				"y": -2.6958554165,
				"z": 0.7286268963,
				"element": "C" 
			},
			{
				"x": -4.6904438052,
				"y": -1.8839260498,
				"z": 0.5300358209,
				"element": "C" 
			},
			{
				"x": -0.8182163429,
				"y": -1.6157898051,
				"z": 0.8782489851,
				"element": "C" 
			},
			{
				"x": -0.1176158484,
				"y": 4.2301275361,
				"z": -0.21084568,
				"element": "H" 
			},
			{
				"x": 1.6369884635,
				"y": 4.0306437166,
				"z": -0.2477262591,
				"element": "H" 
			},
			{
				"x": 0.8681818999,
				"y": 5.2785185772,
				"z": -1.2491946939,
				"element": "H" 
			},
			{
				"x": 2.7881067361,
				"y": 3.1126646812,
				"z": -2.358139881,
				"element": "H" 
			},
			{
				"x": 1.9883468242,
				"y": 4.3432742707,
				"z": -3.3518403859,
				"element": "H" 
			},
			{
				"x": 1.8168525605,
				"y": 2.6265608678,
				"z": -3.7606046996,
				"element": "H" 
			},
			{
				"x": -0.5311535902,
				"y": 4.6209759663,
				"z": -3.2938598204,
				"element": "H" 
			},
			{
				"x": -0.7560898684,
				"y": 2.9103690579,
				"z": -3.7016018699,
				"element": "H" 
			},
			{
				"x": -1.5340283816,
				"y": 3.5896644431,
				"z": -2.259264073,
				"element": "H" 
			},
			{
				"x": 1.6655008917,
				"y": -1.3580425517,
				"z": 3.8266078238,
				"element": "H" 
			},
			{
				"x": -3.2243544801,
				"y": -4.6617519232,
				"z": 1.1936821358,
				"element": "H" 
			},
			{
				"x": -2.1534654013,
				"y": -3.8186204198,
				"z": 0.0614535739,
				"element": "H" 
			},
			{
				"x": -5.4601435379,
				"y": -1.1662607004,
				"z": 0.3609725887,
				"element": "H" 
			},
			{
				"x": -1.5142074042,
				"y": -1.650555798,
				"z": 0.0518043299,
				"element": "H" 
			}
		],
		 "valence_orbital": [ 
			{
				"type": "occ",
				"energy": -0.29007,
				"method": "rhf"
			},
			{
				"type": "occ",
				"energy": -0.28539,
				"method": "rhf"
			},
			{
				"type": "occ",
				"energy": -0.27323,
				"method": "rhf"
			},
			{
				"type": "occ",
				"energy": -0.24685,
				"method": "rhf"
			},
			{
				"type": "occ",
				"energy": -0.22873,
				"method": "rhf"
			},
			{
				"type": "unocc",
				"energy": -0.03655,
				"method": "rhf"
			},
			{
				"type": "unocc",
				"energy": -0.01904,
				"method": "rhf"
			},
			{
				"type": "unocc",
				"energy": 0.00112,
				"method": "rhf"
			},
			{
				"type": "unocc",
				"energy": 0.00664,
				"method": "rhf"
			},
			{
				"type": "unocc",
				"energy": 0.01259,
				"method": "rhf"
			}
		],
		"cosmo_sigma_profile": { 
			"-0.025": 0.0,
			"-0.024": 0.0,
			"-0.023": 0.0,
			"-0.022": 0.0,
			"-0.021": 0.0,
			"-0.02": 0.0,
			"-0.019": 0.0,
			"-0.018": 0.0,
			"-0.017": 0.0,
			"-0.016": 0.0,
			"-0.015": 0.0,
			"-0.014": 0.0,
			"-0.013": 0.135383480114,
			"-0.012": 1.31232518495,
			"-0.011": 1.34801976039,
			"-0.01": 0.560859623586,
			"-0.009": 4.56547780893,
			"-0.008": 9.19518118479,
			"-0.007": 8.37404823315,
			"-0.006": 10.511015439,
			"-0.005": 9.1925868159,
			"-0.004": 26.6855647787,
			"-0.003": 32.5105935624,
			"-0.002": 27.5515624463,
			"-0.001": 34.6160764458,
			"0.0": 48.8883798241,
			"0.001": 30.3659338934,
			"0.002": 19.4173674824,
			"0.003": 24.2733675947,
			"0.004": 24.9092882389,
			"0.005": 14.9347259116,
			"0.006": 9.07358195071,
			"0.007": 5.70231927868,
			"0.008": 5.38627278899,
			"0.009": 3.21070891639,
			"0.01": 4.10278580274,
			"0.011": 6.49366623578,
			"0.012": 1.78379518457,
			"0.013": 0.0,
			"0.014": 0.0,
			"0.015": 0.0,
			"0.016": 0.0,
			"0.017": 0.0,
			"0.018": 0.0,
			"0.019": 0.0,
			"0.02": 0.0,
			"0.021": 0.0,
			"0.022": 0.0,
			"0.023": 0.0,
			"0.024": 0.0,
			"0.025": 0.0
		}
	}
}
