{
	 "smiles": "CN(C)S(=O)(=O)C1=CC(=CC=C1)S(Cl)(=O)=O", 
	 "Tm": 371.15, 
	 "num_atms": 26, 
	 "gaussian": { 
		 "optdone": 1, 
		 "sigma_profile": "yes", 
		 "theory": "DFT", 
		 "functional": "B3LYP", 
		 "basiset": "6-31G**", 
		 "properties": { 
			 "R2extent": 7219.2048, 
			 "electric_dipole_moment_norm": 5.63479789345, 
			 "electric_quadrupole_moment_norm": 27.8204447242, 
			 "total_energy": -1922.94368204, 
			 "HOMO_LUMO_gap": 0.17193, 
			 "cosmo_polarized_energy": -17.66, 
			 "cosmo_cavitation_energy": 34.6, 
			 "cosmo_dispersion_energy": -25.0, 
			 "cosmo_repulsion_energy": 1.87, 
			 "cosmo_total_nonelectrostatic_energy": 11.47, 
			 "SMD_solvation_energy": 3.21 
		},
		"coords": [
			{
				"x": -0.9404267854,
				"y": 0.9719018122,
				"z": 0.958940004,
				"element": "C" 
			},
			{
				"x": -1.631515958,
				"y": -0.3045529337,
				"z": 1.1625714094,
				"element": "N" 
			},
			{
				"x": -1.2551217387,
				"y": -1.0402675171,
				"z": 2.3719947282,
				"element": "C" 
			},
			{
				"x": -1.9617214303,
				"y": -1.2178342956,
				"z": -0.2098214968,
				"element": "S" 
			},
			{
				"x": -2.7558014982,
				"y": -2.3650146246,
				"z": 0.2298672399,
				"element": "O" 
			},
			{
				"x": -2.4219744482,
				"y": -0.2833402243,
				"z": -1.2355505416,
				"element": "O" 
			},
			{
				"x": -0.3795464817,
				"y": -1.8792267929,
				"z": -0.7823988899,
				"element": "C" 
			},
			{
				"x": 0.4054671545,
				"y": -1.1137647684,
				"z": -1.6456224045,
				"element": "C" 
			},
			{
				"x": 1.6391057594,
				"y": -1.6359525676,
				"z": -2.0298759655,
				"element": "C" 
			},
			{
				"x": 2.1004202178,
				"y": -2.8785372184,
				"z": -1.5919710283,
				"element": "C" 
			},
			{
				"x": 1.2886519825,
				"y": -3.628264282,
				"z": -0.7409433158,
				"element": "C" 
			},
			{
				"x": 0.0481419988,
				"y": -3.1328669394,
				"z": -0.3344155839,
				"element": "C" 
			},
			{
				"x": 2.6850523016,
				"y": -0.6589416953,
				"z": -3.1079860905,
				"element": "S" 
			},
			{
				"x": 2.0441849431,
				"y": -1.3177774348,
				"z": -5.0236052622,
				"element": "Cl" 
			},
			{
				"x": 4.0645628715,
				"y": -1.1047012159,
				"z": -2.9590156661,
				"element": "O" 
			},
			{
				"x": 2.3000545504,
				"y": 0.7422063108,
				"z": -3.0014951027,
				"element": "O" 
			},
			{
				"x": -1.3544060862,
				"y": 1.4735093329,
				"z": 0.0849837546,
				"element": "H" 
			},
			{
				"x": -1.1238527063,
				"y": 1.5975673839,
				"z": 1.8368483343,
				"element": "H" 
			},
			{
				"x": 0.1468366414,
				"y": 0.8518552066,
				"z": 0.8379104228,
				"element": "H" 
			},
			{
				"x": -1.8889648515,
				"y": -1.9206469614,
				"z": 2.472954116,
				"element": "H" 
			},
			{
				"x": -0.1963031025,
				"y": -1.3416475297,
				"z": 2.3738051937,
				"element": "H" 
			},
			{
				"x": -1.4295655017,
				"y": -0.3871897238,
				"z": 3.2315984286,
				"element": "H" 
			},
			{
				"x": 0.0594178327,
				"y": -0.155653598,
				"z": -2.0159912766,
				"element": "H" 
			},
			{
				"x": 3.0711300355,
				"y": -3.241091958,
				"z": -1.9108738492,
				"element": "H" 
			},
			{
				"x": 1.6225863236,
				"y": -4.6017608477,
				"z": -0.3969106025,
				"element": "H" 
			},
			{
				"x": -0.602412024,
				"y": -3.7171069179,
				"z": 0.3071034444,
				"element": "H" 
			}
		],
		 "valence_orbital": [ 
			{
				"type": "occ",
				"energy": -0.32213,
				"method": "rhf"
			},
			{
				"type": "occ",
				"energy": -0.31774,
				"method": "rhf"
			},
			{
				"type": "occ",
				"energy": -0.30657,
				"method": "rhf"
			},
			{
				"type": "occ",
				"energy": -0.30559,
				"method": "rhf"
			},
			{
				"type": "occ",
				"energy": -0.27219,
				"method": "rhf"
			},
			{
				"type": "unocc",
				"energy": -0.10026,
				"method": "rhf"
			},
			{
				"type": "unocc",
				"energy": -0.06797,
				"method": "rhf"
			},
			{
				"type": "unocc",
				"energy": -0.05896,
				"method": "rhf"
			},
			{
				"type": "unocc",
				"energy": 0.02876,
				"method": "rhf"
			},
			{
				"type": "unocc",
				"energy": 0.048,
				"method": "rhf"
			}
		],
		"cosmo_sigma_profile": { 
			"-0.025": 0.0,
			"-0.024": 0.0,
			"-0.023": 0.0,
			"-0.022": 0.0,
			"-0.021": 0.0,
			"-0.02": 0.0,
			"-0.019": 0.0,
			"-0.018": 0.0,
			"-0.017": 0.0,
			"-0.016": 0.0,
			"-0.015": 0.0,
			"-0.014": 0.0,
			"-0.013": 0.0,
			"-0.012": 0.0,
			"-0.011": 0.0,
			"-0.01": 0.18463129069,
			"-0.009": 3.28169659845,
			"-0.008": 6.96883783614,
			"-0.007": 10.0247523538,
			"-0.006": 15.5908096024,
			"-0.005": 21.8427900641,
			"-0.004": 23.7251416283,
			"-0.003": 26.4854695081,
			"-0.002": 23.2918685721,
			"-0.001": 21.9564982387,
			"0.0": 14.9882455716,
			"0.001": 11.315367352,
			"0.002": 12.1805429885,
			"0.003": 19.102382494,
			"0.004": 7.99620880404,
			"0.005": 6.36540867807,
			"0.006": 7.60864439886,
			"0.007": 11.844081426,
			"0.008": 12.700960763,
			"0.009": 6.97031763485,
			"0.01": 6.83478636938,
			"0.011": 6.98762458975,
			"0.012": 0.638297988075,
			"0.013": 0.0,
			"0.014": 0.0,
			"0.015": 0.0,
			"0.016": 0.0,
			"0.017": 0.0,
			"0.018": 0.0,
			"0.019": 0.0,
			"0.02": 0.0,
			"0.021": 0.0,
			"0.022": 0.0,
			"0.023": 0.0,
			"0.024": 0.0,
			"0.025": 0.0
		}
	}
}
