{
	 "smiles": "O=C(C=CC1=CC=C2C=CC=CC2=C1)/C=C/C1=CC=C2C=CC=CC2=C1", 
	 "Tm": 517.15, 
	 "num_atms": 44, 
	 "gaussian": { 
		 "optdone": 1, 
		 "sigma_profile": "yes", 
		 "theory": "DFT", 
		 "functional": "B3LYP", 
		 "basiset": "6-31G**", 
		 "properties": { 
			 "R2extent": 21809.2259, 
			 "electric_dipole_moment_norm": 3.00676083186, 
			 "electric_quadrupole_moment_norm": 26.9910647385, 
			 "total_energy": -1038.73787581, 
			 "HOMO_LUMO_gap": 0.12797, 
			 "cosmo_polarized_energy": -15.01, 
			 "cosmo_cavitation_energy": 49.68, 
			 "cosmo_dispersion_energy": -35.86, 
			 "cosmo_repulsion_energy": 2.61, 
			 "cosmo_total_nonelectrostatic_energy": 16.43, 
			 "SMD_solvation_energy": 8.15 
		},
		"coords": [
			{
				"x": -1.9077492797,
				"y": 0.5538425938,
				"z": -2.0703189282,
				"element": "O" 
			},
			{
				"x": -0.9825750338,
				"y": 0.5218085296,
				"z": -1.2564817069,
				"element": "C" 
			},
			{
				"x": 0.2945960133,
				"y": -0.1758105845,
				"z": -1.5472120806,
				"element": "C" 
			},
			{
				"x": 0.4814111624,
				"y": -0.8054836348,
				"z": -2.7248526105,
				"element": "C" 
			},
			{
				"x": 1.6592348773,
				"y": -1.5385225493,
				"z": -3.1852700435,
				"element": "C" 
			},
			{
				"x": 1.6180961814,
				"y": -2.1358190112,
				"z": -4.4817158198,
				"element": "C" 
			},
			{
				"x": 2.6867422987,
				"y": -2.8397883239,
				"z": -4.9793613795,
				"element": "C" 
			},
			{
				"x": 3.875308275,
				"y": -2.9975323836,
				"z": -4.2168772651,
				"element": "C" 
			},
			{
				"x": 5.0008494357,
				"y": -3.7177876254,
				"z": -4.6967642466,
				"element": "C" 
			},
			{
				"x": 6.1350049443,
				"y": -3.8476176229,
				"z": -3.9265441257,
				"element": "C" 
			},
			{
				"x": 6.1964149172,
				"y": -3.2614191274,
				"z": -2.636978298,
				"element": "C" 
			},
			{
				"x": 5.1230838676,
				"y": -2.5571420479,
				"z": -2.142705644,
				"element": "C" 
			},
			{
				"x": 3.9352153202,
				"y": -2.4036422191,
				"z": -2.9121661663,
				"element": "C" 
			},
			{
				"x": 2.8163395809,
				"y": -1.6851526569,
				"z": -2.4294950299,
				"element": "C" 
			},
			{
				"x": -1.0814063874,
				"y": 1.178053179,
				"z": 0.0705036403,
				"element": "C" 
			},
			{
				"x": -2.2019055043,
				"y": 1.8378368751,
				"z": 0.4292130869,
				"element": "C" 
			},
			{
				"x": -2.474242693,
				"y": 2.5351214167,
				"z": 1.681281071,
				"element": "C" 
			},
			{
				"x": -1.527952521,
				"y": 2.6082537014,
				"z": 2.7508304977,
				"element": "C" 
			},
			{
				"x": -1.8242822107,
				"y": 3.2738193394,
				"z": 3.9121609015,
				"element": "C" 
			},
			{
				"x": -3.0824201402,
				"y": 3.9155138972,
				"z": 4.0957778711,
				"element": "C" 
			},
			{
				"x": -3.4174186306,
				"y": 4.6110909537,
				"z": 5.2853396469,
				"element": "C" 
			},
			{
				"x": -4.6469673328,
				"y": 5.2190479054,
				"z": 5.423080937,
				"element": "C" 
			},
			{
				"x": -5.597241301,
				"y": 5.1577395031,
				"z": 4.3748107891,
				"element": "C" 
			},
			{
				"x": -5.3015432461,
				"y": 4.4897272796,
				"z": 3.2074247326,
				"element": "C" 
			},
			{
				"x": -4.0426793292,
				"y": 3.8525035504,
				"z": 3.034361197,
				"element": "C" 
			},
			{
				"x": -3.7051215416,
				"y": 3.1565394675,
				"z": 1.8470134661,
				"element": "C" 
			},
			{
				"x": 1.0630500635,
				"y": -0.1578965238,
				"z": -0.7781593305,
				"element": "H" 
			},
			{
				"x": -0.3573574188,
				"y": -0.7592879112,
				"z": -3.418698725,
				"element": "H" 
			},
			{
				"x": 0.7159238179,
				"y": -2.0238011938,
				"z": -5.0768779675,
				"element": "H" 
			},
			{
				"x": 2.6351017283,
				"y": -3.2870166679,
				"z": -5.9686241652,
				"element": "H" 
			},
			{
				"x": 4.9520235376,
				"y": -4.1664223783,
				"z": -5.6856179701,
				"element": "H" 
			},
			{
				"x": 6.989498018,
				"y": -4.4010996287,
				"z": -4.3049026682,
				"element": "H" 
			},
			{
				"x": 7.0971868307,
				"y": -3.3716267734,
				"z": -2.0402878688,
				"element": "H" 
			},
			{
				"x": 5.1672011574,
				"y": -2.1066410343,
				"z": -1.1544214217,
				"element": "H" 
			},
			{
				"x": 2.8809917803,
				"y": -1.2421751627,
				"z": -1.4394954525,
				"element": "H" 
			},
			{
				"x": -0.2222652282,
				"y": 1.1044129,
				"z": 0.73236099,
				"element": "H" 
			},
			{
				"x": -3.0006406977,
				"y": 1.848687002,
				"z": -0.3115482768,
				"element": "H" 
			},
			{
				"x": -0.560452454,
				"y": 2.1292232212,
				"z": 2.6413061766,
				"element": "H" 
			},
			{
				"x": -1.0938439754,
				"y": 3.3200631912,
				"z": 4.7159186333,
				"element": "H" 
			},
			{
				"x": -2.6872136627,
				"y": 4.6574513374,
				"z": 6.0892155762,
				"element": "H" 
			},
			{
				"x": -4.8921461272,
				"y": 5.7489628457,
				"z": 6.3389141222,
				"element": "H" 
			},
			{
				"x": -6.5622220107,
				"y": 5.641020055,
				"z": 4.4962826115,
				"element": "H" 
			},
			{
				"x": -6.0283152387,
				"y": 4.4404821683,
				"z": 2.4007267554,
				"element": "H" 
			},
			{
				"x": -4.4366118429,
				"y": 3.1106841479,
				"z": 1.0435544884,
				"element": "H" 
			}
		],
		 "valence_orbital": [ 
			{
				"type": "occ",
				"energy": -0.23837,
				"method": "rhf"
			},
			{
				"type": "occ",
				"energy": -0.23746,
				"method": "rhf"
			},
			{
				"type": "occ",
				"energy": -0.23623,
				"method": "rhf"
			},
			{
				"type": "occ",
				"energy": -0.21765,
				"method": "rhf"
			},
			{
				"type": "occ",
				"energy": -0.21333,
				"method": "rhf"
			},
			{
				"type": "unocc",
				"energy": -0.08536,
				"method": "rhf"
			},
			{
				"type": "unocc",
				"energy": -0.05187,
				"method": "rhf"
			},
			{
				"type": "unocc",
				"energy": -0.03678,
				"method": "rhf"
			},
			{
				"type": "unocc",
				"energy": -0.02606,
				"method": "rhf"
			},
			{
				"type": "unocc",
				"energy": 0.00243,
				"method": "rhf"
			}
		],
		"cosmo_sigma_profile": { 
			"-0.025": 0.0,
			"-0.024": 0.0,
			"-0.023": 0.0,
			"-0.022": 0.0,
			"-0.021": 0.0,
			"-0.02": 0.0,
			"-0.019": 0.0,
			"-0.018": 0.0,
			"-0.017": 0.0,
			"-0.016": 0.0,
			"-0.015": 0.0,
			"-0.014": 0.0,
			"-0.013": 0.0,
			"-0.012": 0.0,
			"-0.011": 0.0,
			"-0.01": 0.0,
			"-0.009": 0.0120887782999,
			"-0.008": 2.13108507582,
			"-0.007": 12.3297739084,
			"-0.006": 34.9680567472,
			"-0.005": 31.9171285254,
			"-0.004": 30.5078971174,
			"-0.003": 23.2194754655,
			"-0.002": 22.5668670991,
			"-0.001": 20.0710258383,
			"0.0": 22.5249589355,
			"0.001": 28.2014430931,
			"0.002": 33.3084674788,
			"0.003": 59.9137316606,
			"0.004": 43.2948816466,
			"0.005": 15.6498787349,
			"0.006": 1.79117543101,
			"0.007": 1.99361750733,
			"0.008": 1.92308994685,
			"0.009": 1.25508459538,
			"0.01": 1.67192352388,
			"0.011": 2.24862182932,
			"0.012": 2.30028873275,
			"0.013": 4.75183620078,
			"0.014": 1.21477742487,
			"0.015": 0.0,
			"0.016": 0.0,
			"0.017": 0.0,
			"0.018": 0.0,
			"0.019": 0.0,
			"0.02": 0.0,
			"0.021": 0.0,
			"0.022": 0.0,
			"0.023": 0.0,
			"0.024": 0.0,
			"0.025": 0.0
		}
	}
}
