{
	 "smiles": "NC(=O)C1=C(N)C=CC(Cl)=N1", 
	 "Tm": 438.15, 
	 "num_atms": 17, 
	 "gaussian": { 
		 "optdone": 1, 
		 "sigma_profile": "yes", 
		 "theory": "DFT", 
		 "functional": "B3LYP", 
		 "basiset": "6-31G**", 
		 "properties": { 
			 "R2extent": 2737.5338, 
			 "electric_dipole_moment_norm": 2.10039544134, 
			 "electric_quadrupole_moment_norm": 14.6443192532, 
			 "total_energy": -931.958668333, 
			 "HOMO_LUMO_gap": 0.16012, 
			 "cosmo_polarized_energy": -12.52, 
			 "cosmo_cavitation_energy": 23.16, 
			 "cosmo_dispersion_energy": -17.85, 
			 "cosmo_repulsion_energy": 1.46, 
			 "cosmo_total_nonelectrostatic_energy": 6.77, 
			 "SMD_solvation_energy": 3.47 
		},
		"coords": [
			{
				"x": -0.3783030284,
				"y": 2.5982542539,
				"z": -2.3883149748,
				"element": "N" 
			},
			{
				"x": 0.0135797992,
				"y": 1.3361527222,
				"z": -2.09505589,
				"element": "C" 
			},
			{
				"x": 0.8364535781,
				"y": 0.7138459991,
				"z": -2.7814913416,
				"element": "O" 
			},
			{
				"x": -0.6278348823,
				"y": 0.7461803075,
				"z": -0.8777331237,
				"element": "C" 
			},
			{
				"x": -0.3034075558,
				"y": -0.5641877636,
				"z": -0.4339084879,
				"element": "C" 
			},
			{
				"x": 0.6386285827,
				"y": -1.3261698697,
				"z": -1.0502798918,
				"element": "N" 
			},
			{
				"x": -0.9997636446,
				"y": -1.0275990507,
				"z": 0.7101785535,
				"element": "C" 
			},
			{
				"x": -1.9265769975,
				"y": -0.2229443992,
				"z": 1.3420176342,
				"element": "C" 
			},
			{
				"x": -2.1514456443,
				"y": 1.058218195,
				"z": 0.8137964069,
				"element": "C" 
			},
			{
				"x": -3.3271055058,
				"y": 2.1161039329,
				"z": 1.5980155725,
				"element": "Cl" 
			},
			{
				"x": -1.5330665713,
				"y": 1.5172942529,
				"z": -0.2459349205,
				"element": "N" 
			},
			{
				"x": 0.0016717475,
				"y": 3.0435292568,
				"z": -3.2075527821,
				"element": "H" 
			},
			{
				"x": -1.0682030179,
				"y": 3.0511346469,
				"z": -1.8077401543,
				"element": "H" 
			},
			{
				"x": 1.017807404,
				"y": -0.958833132,
				"z": -1.9184445456,
				"element": "H" 
			},
			{
				"x": 0.7226137249,
				"y": -2.3019508154,
				"z": -0.8184281921,
				"element": "H" 
			},
			{
				"x": -0.7935739219,
				"y": -2.024745109,
				"z": 1.0901507893,
				"element": "H" 
			},
			{
				"x": -2.4662740664,
				"y": -0.5628834277,
				"z": 2.218125348,
				"element": "H" 
			}
		],
		 "valence_orbital": [ 
			{
				"type": "occ",
				"energy": -0.29316,
				"method": "rhf"
			},
			{
				"type": "occ",
				"energy": -0.28961,
				"method": "rhf"
			},
			{
				"type": "occ",
				"energy": -0.26794,
				"method": "rhf"
			},
			{
				"type": "occ",
				"energy": -0.25579,
				"method": "rhf"
			},
			{
				"type": "occ",
				"energy": -0.21553,
				"method": "rhf"
			},
			{
				"type": "unocc",
				"energy": -0.05541,
				"method": "rhf"
			},
			{
				"type": "unocc",
				"energy": -0.01024,
				"method": "rhf"
			},
			{
				"type": "unocc",
				"energy": 0.03363,
				"method": "rhf"
			},
			{
				"type": "unocc",
				"energy": 0.05684,
				"method": "rhf"
			},
			{
				"type": "unocc",
				"energy": 0.08825,
				"method": "rhf"
			}
		],
		"cosmo_sigma_profile": { 
			"-0.025": 0.0,
			"-0.024": 0.0,
			"-0.023": 0.0,
			"-0.022": 0.0,
			"-0.021": 0.0,
			"-0.02": 0.0,
			"-0.019": 0.0,
			"-0.018": 0.0,
			"-0.017": 0.0,
			"-0.016": 0.0,
			"-0.015": 0.0889710226607,
			"-0.014": 2.09155566949,
			"-0.013": 2.39720327472,
			"-0.012": 3.55854865843,
			"-0.011": 2.67677922853,
			"-0.01": 2.89142389178,
			"-0.009": 4.14773818567,
			"-0.008": 8.07580410636,
			"-0.007": 5.98298384265,
			"-0.006": 6.86278251121,
			"-0.005": 4.28485401365,
			"-0.004": 4.91639102192,
			"-0.003": 5.51174182754,
			"-0.002": 6.40102557049,
			"-0.001": 9.40684533351,
			"0.0": 17.8928624948,
			"0.001": 19.6376032602,
			"0.002": 17.7820408358,
			"0.003": 13.3081511362,
			"0.004": 13.3155741001,
			"0.005": 12.5464605358,
			"0.006": 6.18028872176,
			"0.007": 4.60976318434,
			"0.008": 2.40626333171,
			"0.009": 1.19274132295,
			"0.01": 1.41518590128,
			"0.011": 1.85952424436,
			"0.012": 1.65028094295,
			"0.013": 2.28060094461,
			"0.014": 1.9135146991,
			"0.015": 0.252867728383,
			"0.016": 0.0,
			"0.017": 0.0,
			"0.018": 0.0,
			"0.019": 0.0,
			"0.02": 0.0,
			"0.021": 0.0,
			"0.022": 0.0,
			"0.023": 0.0,
			"0.024": 0.0,
			"0.025": 0.0
		}
	}
}
