{
	 "smiles": "OC(=O)C(F)C1=CC=CC=C1", 
	 "Tm": 356.65, 
	 "num_atms": 18, 
	 "gaussian": { 
		 "optdone": 1, 
		 "sigma_profile": "yes", 
		 "theory": "DFT", 
		 "functional": "B3LYP", 
		 "basiset": "6-31G**", 
		 "properties": { 
			 "R2extent": 2501.8389, 
			 "electric_dipole_moment_norm": 3.02060241012, 
			 "electric_quadrupole_moment_norm": 16.6036940567, 
			 "total_energy": -559.359975052, 
			 "HOMO_LUMO_gap": 0.23324, 
			 "cosmo_polarized_energy": -10.51, 
			 "cosmo_cavitation_energy": 22.51, 
			 "cosmo_dispersion_energy": -16.65, 
			 "cosmo_repulsion_energy": 1.32, 
			 "cosmo_total_nonelectrostatic_energy": 7.19, 
			 "SMD_solvation_energy": 5.4 
		},
		"coords": [
			{
				"x": -0.7747218979,
				"y": 3.7257797632,
				"z": 1.2957401825,
				"element": "O" 
			},
			{
				"x": 0.1341400839,
				"y": 2.8037205244,
				"z": 1.6479181801,
				"element": "C" 
			},
			{
				"x": 1.1230369707,
				"y": 3.0619998879,
				"z": 2.2872481421,
				"element": "O" 
			},
			{
				"x": -0.1793299666,
				"y": 1.3730157544,
				"z": 1.1757409109,
				"element": "C" 
			},
			{
				"x": -1.4856710156,
				"y": 1.3620780961,
				"z": 0.6498392847,
				"element": "F" 
			},
			{
				"x": 0.8066889462,
				"y": 0.8639819992,
				"z": 0.1417329711,
				"element": "C" 
			},
			{
				"x": 2.1703977838,
				"y": 0.7925688173,
				"z": 0.4547166014,
				"element": "C" 
			},
			{
				"x": 3.0749605097,
				"y": 0.3091955979,
				"z": -0.4894141499,
				"element": "C" 
			},
			{
				"x": 2.6286869598,
				"y": -0.1073230554,
				"z": -1.7459606342,
				"element": "C" 
			},
			{
				"x": 1.2705920743,
				"y": -0.0364864941,
				"z": -2.0552554335,
				"element": "C" 
			},
			{
				"x": 0.3586599668,
				"y": 0.447839065,
				"z": -1.1152313208,
				"element": "C" 
			},
			{
				"x": -1.4918545028,
				"y": 3.2718711234,
				"z": 0.8203911906,
				"element": "H" 
			},
			{
				"x": -0.187659657,
				"y": 0.7313622151,
				"z": 2.0639234664,
				"element": "H" 
			},
			{
				"x": 2.5171093048,
				"y": 1.1327968273,
				"z": 1.4246375524,
				"element": "H" 
			},
			{
				"x": 4.1312388034,
				"y": 0.259262167,
				"z": -0.2419478911,
				"element": "H" 
			},
			{
				"x": 3.3362488023,
				"y": -0.4848740888,
				"z": -2.4783154351,
				"element": "H" 
			},
			{
				"x": 0.9152174569,
				"y": -0.3581300716,
				"z": -3.0299317021,
				"element": "H" 
			},
			{
				"x": -0.6974406228,
				"y": 0.4978418717,
				"z": -1.3533319156,
				"element": "H" 
			}
		],
		 "valence_orbital": [ 
			{
				"type": "occ",
				"energy": -0.352,
				"method": "rhf"
			},
			{
				"type": "occ",
				"energy": -0.32427,
				"method": "rhf"
			},
			{
				"type": "occ",
				"energy": -0.28615,
				"method": "rhf"
			},
			{
				"type": "occ",
				"energy": -0.25937,
				"method": "rhf"
			},
			{
				"type": "occ",
				"energy": -0.25417,
				"method": "rhf"
			},
			{
				"type": "unocc",
				"energy": -0.02093,
				"method": "rhf"
			},
			{
				"type": "unocc",
				"energy": -0.01032,
				"method": "rhf"
			},
			{
				"type": "unocc",
				"energy": 0.0071,
				"method": "rhf"
			},
			{
				"type": "unocc",
				"energy": 0.06468,
				"method": "rhf"
			},
			{
				"type": "unocc",
				"energy": 0.09203,
				"method": "rhf"
			}
		],
		"cosmo_sigma_profile": { 
			"-0.025": 0.0,
			"-0.024": 0.0,
			"-0.023": 0.0,
			"-0.022": 0.0,
			"-0.021": 0.0,
			"-0.02": 0.0,
			"-0.019": 0.0,
			"-0.018": 0.0,
			"-0.017": 0.229128383114,
			"-0.016": 0.508866143241,
			"-0.015": 0.512986106297,
			"-0.014": 0.727876799307,
			"-0.013": 0.927974540695,
			"-0.012": 1.17248294157,
			"-0.011": 0.766203343781,
			"-0.01": 1.88008121842,
			"-0.009": 4.04794373927,
			"-0.008": 4.68311017444,
			"-0.007": 3.47433359428,
			"-0.006": 8.47392619493,
			"-0.005": 11.3105135894,
			"-0.004": 13.9399643691,
			"-0.003": 11.5626723143,
			"-0.002": 10.8856905056,
			"-0.001": 10.2213811733,
			"0.0": 9.24343072515,
			"0.001": 11.2607075606,
			"0.002": 10.7206614104,
			"0.003": 12.4773596351,
			"0.004": 14.5844614699,
			"0.005": 11.5809024813,
			"0.006": 3.60923764914,
			"0.007": 2.82480801205,
			"0.008": 3.81128469191,
			"0.009": 4.68382792505,
			"0.01": 3.89081871793,
			"0.011": 4.20622011915,
			"0.012": 1.90493870753,
			"0.013": 0.117698628696,
			"0.014": 0.0,
			"0.015": 0.0,
			"0.016": 0.0,
			"0.017": 0.0,
			"0.018": 0.0,
			"0.019": 0.0,
			"0.02": 0.0,
			"0.021": 0.0,
			"0.022": 0.0,
			"0.023": 0.0,
			"0.024": 0.0,
			"0.025": 0.0
		}
	}
}
