{
	 "smiles": "COC(=O)C(CSCC1=CC=CC=C1)NC(C)=O", 
	 "Tm": 343.15, 
	 "num_atms": 35, 
	 "gaussian": { 
		 "optdone": 1, 
		 "sigma_profile": "yes", 
		 "theory": "DFT", 
		 "functional": "B3LYP", 
		 "basiset": "6-31G**", 
		 "properties": { 
			 "R2extent": 6606.1049, 
			 "electric_dipole_moment_norm": 4.17918731813, 
			 "electric_quadrupole_moment_norm": 20.4222264748, 
			 "total_energy": -1184.2674048, 
			 "HOMO_LUMO_gap": 0.2097, 
			 "cosmo_polarized_energy": -18.21, 
			 "cosmo_cavitation_energy": 40.95, 
			 "cosmo_dispersion_energy": -27.44, 
			 "cosmo_repulsion_energy": 2.15, 
			 "cosmo_total_nonelectrostatic_energy": 15.66, 
			 "SMD_solvation_energy": 8.65 
		},
		"coords": [
			{
				"x": 4.0946727016,
				"y": -1.2823119447,
				"z": -1.4133479321,
				"element": "C" 
			},
			{
				"x": 3.155299719,
				"y": -1.1403175603,
				"z": -0.3301698559,
				"element": "O" 
			},
			{
				"x": 2.1108291068,
				"y": -1.9938976203,
				"z": -0.3602569036,
				"element": "C" 
			},
			{
				"x": 1.9593286567,
				"y": -2.8438613749,
				"z": -1.2082796696,
				"element": "O" 
			},
			{
				"x": 1.1308155078,
				"y": -1.7861113117,
				"z": 0.7915148417,
				"element": "C" 
			},
			{
				"x": -0.3085763085,
				"y": -1.7068316469,
				"z": 0.24198965,
				"element": "C" 
			},
			{
				"x": -0.6451956316,
				"y": -0.2883232486,
				"z": -0.875233622,
				"element": "S" 
			},
			{
				"x": -1.2552342117,
				"y": 0.9898523833,
				"z": 0.3226257546,
				"element": "C" 
			},
			{
				"x": -1.7403316622,
				"y": 2.2031880927,
				"z": -0.4286863317,
				"element": "C" 
			},
			{
				"x": -3.040975944,
				"y": 2.2486133579,
				"z": -0.9498892965,
				"element": "C" 
			},
			{
				"x": -3.4885751361,
				"y": 3.3686488871,
				"z": -1.6497315744,
				"element": "C" 
			},
			{
				"x": -2.6388648401,
				"y": 4.4601441674,
				"z": -1.8432508564,
				"element": "C" 
			},
			{
				"x": -1.3400084782,
				"y": 4.423786148,
				"z": -1.3334224054,
				"element": "C" 
			},
			{
				"x": -0.895280322,
				"y": 3.3017881768,
				"z": -0.6330337617,
				"element": "C" 
			},
			{
				"x": 1.4982108133,
				"y": -0.6692425927,
				"z": 1.6435436422,
				"element": "N" 
			},
			{
				"x": 1.1724984838,
				"y": -0.6708467712,
				"z": 2.9731611419,
				"element": "C" 
			},
			{
				"x": 1.7112405942,
				"y": 0.4960045203,
				"z": 3.7850789552,
				"element": "C" 
			},
			{
				"x": 0.479499583,
				"y": -1.5508176142,
				"z": 3.4716742322,
				"element": "O" 
			},
			{
				"x": 3.5959185337,
				"y": -1.1140328951,
				"z": -2.3702238427,
				"element": "H" 
			},
			{
				"x": 4.5302589366,
				"y": -2.2838310929,
				"z": -1.40895592,
				"element": "H" 
			},
			{
				"x": 4.8608694469,
				"y": -0.5276591652,
				"z": -1.2385620619,
				"element": "H" 
			},
			{
				"x": 1.1726388285,
				"y": -2.6950448324,
				"z": 1.4077394916,
				"element": "H" 
			},
			{
				"x": -0.5012560106,
				"y": -2.6075631755,
				"z": -0.3450302351,
				"element": "H" 
			},
			{
				"x": -1.0048318527,
				"y": -1.6856339602,
				"z": 1.0835852777,
				"element": "H" 
			},
			{
				"x": -0.4446294058,
				"y": 1.2522091382,
				"z": 1.0050468594,
				"element": "H" 
			},
			{
				"x": -2.0659570106,
				"y": 0.539809773,
				"z": 0.9034949073,
				"element": "H" 
			},
			{
				"x": -3.703343744,
				"y": 1.3991607939,
				"z": -0.8045430812,
				"element": "H" 
			},
			{
				"x": -4.5010050298,
				"y": 3.3902563224,
				"z": -2.0428793864,
				"element": "H" 
			},
			{
				"x": -2.9877172609,
				"y": 5.3336476033,
				"z": -2.3865324247,
				"element": "H" 
			},
			{
				"x": -0.6733479489,
				"y": 5.269095673,
				"z": -1.4790729796,
				"element": "H" 
			},
			{
				"x": 0.1171422945,
				"y": 3.2771285579,
				"z": -0.2374046662,
				"element": "H" 
			},
			{
				"x": 2.1530344204,
				"y": 0.0035029143,
				"z": 1.275768823,
				"element": "H" 
			},
			{
				"x": 0.8688588913,
				"y": 1.0496839869,
				"z": 4.2090645867,
				"element": "H" 
			},
			{
				"x": 2.3353621141,
				"y": 1.184417892,
				"z": 3.2087941133,
				"element": "H" 
			},
			{
				"x": 2.2929521657,
				"y": 0.1001884186,
				"z": 4.6218245304,
				"element": "H" 
			}
		],
		 "valence_orbital": [ 
			{
				"type": "occ",
				"energy": -0.2611,
				"method": "rhf"
			},
			{
				"type": "occ",
				"energy": -0.25349,
				"method": "rhf"
			},
			{
				"type": "occ",
				"energy": -0.252,
				"method": "rhf"
			},
			{
				"type": "occ",
				"energy": -0.24447,
				"method": "rhf"
			},
			{
				"type": "occ",
				"energy": -0.22155,
				"method": "rhf"
			},
			{
				"type": "unocc",
				"energy": -0.01185,
				"method": "rhf"
			},
			{
				"type": "unocc",
				"energy": -0.00228,
				"method": "rhf"
			},
			{
				"type": "unocc",
				"energy": -0.00194,
				"method": "rhf"
			},
			{
				"type": "unocc",
				"energy": 0.0226,
				"method": "rhf"
			},
			{
				"type": "unocc",
				"energy": 0.04324,
				"method": "rhf"
			}
		],
		"cosmo_sigma_profile": { 
			"-0.025": 0.0,
			"-0.024": 0.0,
			"-0.023": 0.0,
			"-0.022": 0.0,
			"-0.021": 0.0,
			"-0.02": 0.0,
			"-0.019": 0.0,
			"-0.018": 0.0,
			"-0.017": 0.0,
			"-0.016": 0.0,
			"-0.015": 0.0,
			"-0.014": 0.0,
			"-0.013": 0.223481305539,
			"-0.012": 0.770919304566,
			"-0.011": 0.97856630736,
			"-0.01": 1.31265241035,
			"-0.009": 0.831397407561,
			"-0.008": 2.19782126625,
			"-0.007": 5.21321533054,
			"-0.006": 20.1670229036,
			"-0.005": 33.5035899034,
			"-0.004": 36.8276444602,
			"-0.003": 31.5385449995,
			"-0.002": 26.3728239398,
			"-0.001": 23.3299625804,
			"0.0": 14.7378969238,
			"0.001": 14.2259410209,
			"0.002": 14.3850409502,
			"0.003": 14.5619907064,
			"0.004": 17.328069214,
			"0.005": 16.983831818,
			"0.006": 12.9974513465,
			"0.007": 5.05795489165,
			"0.008": 4.9991835445,
			"0.009": 4.6116868454,
			"0.01": 3.98850526049,
			"0.011": 5.93915266915,
			"0.012": 3.87870446054,
			"0.013": 3.19021505178,
			"0.014": 3.88991657496,
			"0.015": 1.2368539884,
			"0.016": 0.0146576653759,
			"0.017": 0.0,
			"0.018": 0.0,
			"0.019": 0.0,
			"0.02": 0.0,
			"0.021": 0.0,
			"0.022": 0.0,
			"0.023": 0.0,
			"0.024": 0.0,
			"0.025": 0.0
		}
	}
}
