{
	 "smiles": "CCCC1=CC=C(O)C=C1", 
	 "Tm": 294.65, 
	 "num_atms": 22, 
	 "gaussian": { 
		 "optdone": 1, 
		 "sigma_profile": "yes", 
		 "theory": "DFT", 
		 "functional": "B3LYP", 
		 "basiset": "6-31G**", 
		 "properties": { 
			 "R2extent": 2416.8368, 
			 "electric_dipole_moment_norm": 1.32961022108, 
			 "electric_quadrupole_moment_norm": 7.75569372655, 
			 "total_energy": -425.42343164, 
			 "HOMO_LUMO_gap": 0.2129, 
			 "cosmo_polarized_energy": -7.64, 
			 "cosmo_cavitation_energy": 25.06, 
			 "cosmo_dispersion_energy": -18.22, 
			 "cosmo_repulsion_energy": 1.5, 
			 "cosmo_total_nonelectrostatic_energy": 8.34, 
			 "SMD_solvation_energy": 4.43 
		},
		"coords": [
			{
				"x": 1.631292111,
				"y": 4.3967244277,
				"z": 0.6681376271,
				"element": "C" 
			},
			{
				"x": 1.5094222588,
				"y": 2.9224426796,
				"z": 0.2719887586,
				"element": "C" 
			},
			{
				"x": 0.2104154132,
				"y": 2.612119372,
				"z": -0.4989767377,
				"element": "C" 
			},
			{
				"x": 0.0811939457,
				"y": 1.1578102081,
				"z": -0.8978298169,
				"element": "C" 
			},
			{
				"x": 0.6231456204,
				"y": 0.6848479819,
				"z": -2.1026966507,
				"element": "C" 
			},
			{
				"x": 0.5453171025,
				"y": -0.6573818106,
				"z": -2.4633258963,
				"element": "C" 
			},
			{
				"x": -0.0872999092,
				"y": -1.5687029071,
				"z": -1.6111385722,
				"element": "C" 
			},
			{
				"x": -0.1417942441,
				"y": -2.8763999266,
				"z": -2.0107396173,
				"element": "O" 
			},
			{
				"x": -0.636646906,
				"y": -1.1206665963,
				"z": -0.4063460923,
				"element": "C" 
			},
			{
				"x": -0.5488125052,
				"y": 0.2288376862,
				"z": -0.0616916965,
				"element": "C" 
			},
			{
				"x": 0.7992050811,
				"y": 4.705322669,
				"z": 1.3115824765,
				"element": "H" 
			},
			{
				"x": 2.5613314004,
				"y": 4.5881035013,
				"z": 1.2133472808,
				"element": "H" 
			},
			{
				"x": 1.6233862869,
				"y": 5.0470439368,
				"z": -0.2142391494,
				"element": "H" 
			},
			{
				"x": 1.551114007,
				"y": 2.2901585832,
				"z": 1.1681051819,
				"element": "H" 
			},
			{
				"x": 2.3685241602,
				"y": 2.6295031241,
				"z": -0.3449574643,
				"element": "H" 
			},
			{
				"x": -0.6479039757,
				"y": 2.9026579773,
				"z": 0.1207878278,
				"element": "H" 
			},
			{
				"x": 0.1704513659,
				"y": 3.2454616434,
				"z": -1.3949293788,
				"element": "H" 
			},
			{
				"x": 1.1132835614,
				"y": 1.3840894139,
				"z": -2.7763742936,
				"element": "H" 
			},
			{
				"x": 0.9619626318,
				"y": -1.016205089,
				"z": -3.398899553,
				"element": "H" 
			},
			{
				"x": -0.6029442402,
				"y": -3.3917413399,
				"z": -1.3365266695,
				"element": "H" 
			},
			{
				"x": -1.1364635781,
				"y": -1.8224027294,
				"z": 0.2589204441,
				"element": "H" 
			},
			{
				"x": -0.9849795877,
				"y": 0.5629771943,
				"z": 0.8769019916,
				"element": "H" 
			}
		],
		 "valence_orbital": [ 
			{
				"type": "occ",
				"energy": -0.32859,
				"method": "rhf"
			},
			{
				"type": "occ",
				"energy": -0.32256,
				"method": "rhf"
			},
			{
				"type": "occ",
				"energy": -0.31442,
				"method": "rhf"
			},
			{
				"type": "occ",
				"energy": -0.24664,
				"method": "rhf"
			},
			{
				"type": "occ",
				"energy": -0.21109,
				"method": "rhf"
			},
			{
				"type": "unocc",
				"energy": 0.00181,
				"method": "rhf"
			},
			{
				"type": "unocc",
				"energy": 0.01818,
				"method": "rhf"
			},
			{
				"type": "unocc",
				"energy": 0.07369,
				"method": "rhf"
			},
			{
				"type": "unocc",
				"energy": 0.09313,
				"method": "rhf"
			},
			{
				"type": "unocc",
				"energy": 0.10746,
				"method": "rhf"
			}
		],
		"cosmo_sigma_profile": { 
			"-0.025": 0.0,
			"-0.024": 0.0,
			"-0.023": 0.0,
			"-0.022": 0.0,
			"-0.021": 0.0,
			"-0.02": 0.0,
			"-0.019": 0.0,
			"-0.018": 0.209843243422,
			"-0.017": 0.918066807789,
			"-0.016": 1.08203793418,
			"-0.015": 1.47274729181,
			"-0.014": 0.620468705771,
			"-0.013": 1.10542562058,
			"-0.012": 0.420656073481,
			"-0.011": 0.605971983307,
			"-0.01": 1.45879944283,
			"-0.009": 1.28086631462,
			"-0.008": 1.16918114386,
			"-0.007": 1.24801584552,
			"-0.006": 2.1602725289,
			"-0.005": 7.09759421475,
			"-0.004": 8.23695823299,
			"-0.003": 15.2362857113,
			"-0.002": 22.5458999184,
			"-0.001": 23.0878835396,
			"0.0": 21.7991824727,
			"0.001": 21.4566863743,
			"0.002": 12.7060455465,
			"0.003": 7.98490490349,
			"0.004": 10.6579845501,
			"0.005": 9.45972274142,
			"0.006": 10.1862069163,
			"0.007": 4.61319902499,
			"0.008": 1.86493330415,
			"0.009": 1.02017722901,
			"0.01": 1.33424975046,
			"0.011": 2.20606281244,
			"0.012": 1.28105664393,
			"0.013": 0.0,
			"0.014": 0.0,
			"0.015": 0.0,
			"0.016": 0.0,
			"0.017": 0.0,
			"0.018": 0.0,
			"0.019": 0.0,
			"0.02": 0.0,
			"0.021": 0.0,
			"0.022": 0.0,
			"0.023": 0.0,
			"0.024": 0.0,
			"0.025": 0.0
		}
	}
}
