{
	 "smiles": "O=S(=O)(CCS(=O)(=O)C1=CC=CC=C1)C1=CC=CC=C1", 
	 "Tm": 452.65, 
	 "num_atms": 34, 
	 "gaussian": { 
		 "optdone": 1, 
		 "sigma_profile": "yes", 
		 "theory": "DFT", 
		 "functional": "B3LYP", 
		 "basiset": "6-31G**", 
		 "properties": { 
			 "R2extent": 7797.1988, 
			 "electric_dipole_moment_norm": 8.60013125946, 
			 "electric_quadrupole_moment_norm": 21.5029592159, 
			 "total_energy": -1639.0679964, 
			 "HOMO_LUMO_gap": 0.22855, 
			 "cosmo_polarized_energy": -24.49, 
			 "cosmo_cavitation_energy": 40.96, 
			 "cosmo_dispersion_energy": -28.37, 
			 "cosmo_repulsion_energy": 2.13, 
			 "cosmo_total_nonelectrostatic_energy": 14.72, 
			 "SMD_solvation_energy": 5.14 
		},
		"coords": [
			{
				"x": 3.4386818006,
				"y": 2.0698900781,
				"z": -0.1101115927,
				"element": "O" 
			},
			{
				"x": 2.2899022083,
				"y": 1.502542878,
				"z": 0.6144717922,
				"element": "S" 
			},
			{
				"x": 2.2256090711,
				"y": 1.5023441325,
				"z": 2.0833379532,
				"element": "O" 
			},
			{
				"x": 2.1257025317,
				"y": -0.2431118264,
				"z": 0.0953786979,
				"element": "C" 
			},
			{
				"x": 2.2486538292,
				"y": -0.4232128703,
				"z": -1.407455669,
				"element": "C" 
			},
			{
				"x": 2.2765580768,
				"y": -2.1814004747,
				"z": -1.909337764,
				"element": "S" 
			},
			{
				"x": 2.4752162092,
				"y": -2.1898888039,
				"z": -3.366103735,
				"element": "O" 
			},
			{
				"x": 3.1953269434,
				"y": -2.8835174554,
				"z": -0.9985676731,
				"element": "O" 
			},
			{
				"x": 0.6084115576,
				"y": -2.7695113297,
				"z": -1.5716544099,
				"element": "C" 
			},
			{
				"x": 0.3472790164,
				"y": -3.4260739089,
				"z": -0.3670182986,
				"element": "C" 
			},
			{
				"x": -0.9482637474,
				"y": -3.8798422897,
				"z": -0.1135837096,
				"element": "C" 
			},
			{
				"x": -1.9577104659,
				"y": -3.6783875293,
				"z": -1.0576697777,
				"element": "C" 
			},
			{
				"x": -1.6787563373,
				"y": -3.0311604369,
				"z": -2.264706585,
				"element": "C" 
			},
			{
				"x": -0.3882530894,
				"y": -2.5741832708,
				"z": -2.5310427529,
				"element": "C" 
			},
			{
				"x": 0.7983312426,
				"y": 2.2966429412,
				"z": -0.0078326041,
				"element": "C" 
			},
			{
				"x": 0.8431807793,
				"y": 2.9693578636,
				"z": -1.2308740527,
				"element": "C" 
			},
			{
				"x": -0.3170439365,
				"y": 3.5836464005,
				"z": -1.7053453502,
				"element": "C" 
			},
			{
				"x": -1.496342142,
				"y": 3.5230606162,
				"z": -0.9593979497,
				"element": "C" 
			},
			{
				"x": -1.523072288,
				"y": 2.8571955814,
				"z": 0.2692533509,
				"element": "C" 
			},
			{
				"x": -0.370448299,
				"y": 2.2406686977,
				"z": 0.7555579451,
				"element": "C" 
			},
			{
				"x": 2.9387968777,
				"y": -0.7532378708,
				"z": 0.6197678425,
				"element": "H" 
			},
			{
				"x": 1.1717474618,
				"y": -0.5991168914,
				"z": 0.4924950967,
				"element": "H" 
			},
			{
				"x": 3.2004146713,
				"y": -0.0278132885,
				"z": -1.7737066368,
				"element": "H" 
			},
			{
				"x": 1.4337561481,
				"y": 0.0477047763,
				"z": -1.9630344941,
				"element": "H" 
			},
			{
				"x": 1.1534774781,
				"y": -3.5942725524,
				"z": 0.3389747188,
				"element": "H" 
			},
			{
				"x": -1.1657934016,
				"y": -4.3971377695,
				"z": 0.8158489064,
				"element": "H" 
			},
			{
				"x": -2.9635115185,
				"y": -4.0355370436,
				"z": -0.8570034055,
				"element": "H" 
			},
			{
				"x": -2.463150733,
				"y": -2.8916977457,
				"z": -3.0023290748,
				"element": "H" 
			},
			{
				"x": -0.1448741709,
				"y": -2.095925764,
				"z": -3.4740731787,
				"element": "H" 
			},
			{
				"x": 1.7773665495,
				"y": 3.0253265906,
				"z": -1.7793621774,
				"element": "H" 
			},
			{
				"x": -0.2967330834,
				"y": 4.1154476861,
				"z": -2.6516718829,
				"element": "H" 
			},
			{
				"x": -2.3957780603,
				"y": 4.0046881785,
				"z": -1.3315697744,
				"element": "H" 
			},
			{
				"x": -2.4380007698,
				"y": 2.8270871534,
				"z": 0.8530448591,
				"element": "H" 
			},
			{
				"x": -0.3629804097,
				"y": 1.7444255478,
				"z": 1.7204213863,
				"element": "H" 
			}
		],
		 "valence_orbital": [ 
			{
				"type": "occ",
				"energy": -0.28802,
				"method": "rhf"
			},
			{
				"type": "occ",
				"energy": -0.28602,
				"method": "rhf"
			},
			{
				"type": "occ",
				"energy": -0.28195,
				"method": "rhf"
			},
			{
				"type": "occ",
				"energy": -0.28158,
				"method": "rhf"
			},
			{
				"type": "occ",
				"energy": -0.28018,
				"method": "rhf"
			},
			{
				"type": "unocc",
				"energy": -0.05163,
				"method": "rhf"
			},
			{
				"type": "unocc",
				"energy": -0.04942,
				"method": "rhf"
			},
			{
				"type": "unocc",
				"energy": -0.03313,
				"method": "rhf"
			},
			{
				"type": "unocc",
				"energy": -0.03287,
				"method": "rhf"
			},
			{
				"type": "unocc",
				"energy": 0.0344,
				"method": "rhf"
			}
		],
		"cosmo_sigma_profile": { 
			"-0.025": 0.0,
			"-0.024": 0.0,
			"-0.023": 0.0,
			"-0.022": 0.0,
			"-0.021": 0.0,
			"-0.02": 0.0,
			"-0.019": 0.0,
			"-0.018": 0.0,
			"-0.017": 0.0,
			"-0.016": 0.0,
			"-0.015": 0.0,
			"-0.014": 0.0,
			"-0.013": 0.0,
			"-0.012": 0.0,
			"-0.011": 0.0,
			"-0.01": 0.344465046547,
			"-0.009": 3.6280121687,
			"-0.008": 7.20802706041,
			"-0.007": 25.9285197386,
			"-0.006": 32.3589723733,
			"-0.005": 29.131849086,
			"-0.004": 19.1344820951,
			"-0.003": 16.3619730067,
			"-0.002": 15.418243643,
			"-0.001": 17.2442483443,
			"0.0": 17.6119014628,
			"0.001": 21.070381368,
			"0.002": 25.5238142458,
			"0.003": 24.8147002676,
			"0.004": 5.46753996369,
			"0.005": 4.57824278494,
			"0.006": 5.14069427478,
			"0.007": 5.15055569645,
			"0.008": 6.34541054285,
			"0.009": 6.45367969942,
			"0.01": 12.4247650149,
			"0.011": 17.3652517942,
			"0.012": 8.97295535199,
			"0.013": 0.0,
			"0.014": 0.0,
			"0.015": 0.0,
			"0.016": 0.0,
			"0.017": 0.0,
			"0.018": 0.0,
			"0.019": 0.0,
			"0.02": 0.0,
			"0.021": 0.0,
			"0.022": 0.0,
			"0.023": 0.0,
			"0.024": 0.0,
			"0.025": 0.0
		}
	}
}
