{
	 "smiles": "NC1=C2N=CN(C2=NC=N1)C1(CO)OC(CO)C(O)C1O", 
	 "Tm": 485.15, 
	 "num_atms": 36, 
	 "gaussian": { 
		 "optdone": 1, 
		 "sigma_profile": "yes", 
		 "theory": "DFT", 
		 "functional": "B3LYP", 
		 "basiset": "6-31G**", 
		 "properties": { 
			 "R2extent": 6381.5221, 
			 "electric_dipole_moment_norm": 3.38027287804, 
			 "electric_quadrupole_moment_norm": 8.52363690217, 
			 "total_energy": -1078.05618073, 
			 "HOMO_LUMO_gap": 0.19938, 
			 "cosmo_polarized_energy": -27.97, 
			 "cosmo_cavitation_energy": 37.31, 
			 "cosmo_dispersion_energy": -27.06, 
			 "cosmo_repulsion_energy": 2.04, 
			 "cosmo_total_nonelectrostatic_energy": 12.3, 
			 "SMD_solvation_energy": 2.17 
		},
		"coords": [
			{
				"x": 3.6329668775,
				"y": 4.4940365613,
				"z": 0.9685754732,
				"element": "N" 
			},
			{
				"x": 2.60878193,
				"y": 3.6745876949,
				"z": 1.3167440897,
				"element": "C" 
			},
			{
				"x": 1.9915149356,
				"y": 2.81236789,
				"z": 0.386439012,
				"element": "C" 
			},
			{
				"x": 2.2383792768,
				"y": 2.5628370068,
				"z": -0.9505718464,
				"element": "N" 
			},
			{
				"x": 1.3440194373,
				"y": 1.6622162548,
				"z": -1.2720724082,
				"element": "C" 
			},
			{
				"x": 0.5000833635,
				"y": 1.3034912128,
				"z": -0.2295964025,
				"element": "N" 
			},
			{
				"x": 0.9258584923,
				"y": 2.0433436038,
				"z": 0.865908597,
				"element": "C" 
			},
			{
				"x": 0.4470953351,
				"y": 2.057454325,
				"z": 2.1181258223,
				"element": "N" 
			},
			{
				"x": 1.1193513515,
				"y": 2.9079334282,
				"z": 2.8977985403,
				"element": "C" 
			},
			{
				"x": 2.155871863,
				"y": 3.7014104565,
				"z": 2.5820099569,
				"element": "N" 
			},
			{
				"x": -0.513180202,
				"y": 0.2462666088,
				"z": -0.2723912638,
				"element": "C" 
			},
			{
				"x": -1.7834356671,
				"y": 0.6828464956,
				"z": 0.4884911586,
				"element": "C" 
			},
			{
				"x": -2.7698929932,
				"y": -0.3274261375,
				"z": 0.4718748495,
				"element": "O" 
			},
			{
				"x": -0.8536893826,
				"y": 0.0666385807,
				"z": -1.6603220651,
				"element": "O" 
			},
			{
				"x": -0.7246334299,
				"y": -1.3048468289,
				"z": -2.0750383521,
				"element": "C" 
			},
			{
				"x": -2.1023514851,
				"y": -2.0008204935,
				"z": -2.0351531255,
				"element": "C" 
			},
			{
				"x": -3.1587641077,
				"y": -1.0784068181,
				"z": -2.2979842437,
				"element": "O" 
			},
			{
				"x": 0.3173611113,
				"y": -1.8937070962,
				"z": -1.1100601775,
				"element": "C" 
			},
			{
				"x": 0.3255381789,
				"y": -3.3023958151,
				"z": -0.9827365184,
				"element": "O" 
			},
			{
				"x": 0.0434395552,
				"y": -1.1287237985,
				"z": 0.197784021,
				"element": "C" 
			},
			{
				"x": 1.1849778112,
				"y": -0.9597157917,
				"z": 1.0037911734,
				"element": "O" 
			},
			{
				"x": 4.1270638992,
				"y": 4.9699945062,
				"z": 1.7064555136,
				"element": "H" 
			},
			{
				"x": 4.0789936541,
				"y": 4.3652784022,
				"z": 0.0747545271,
				"element": "H" 
			},
			{
				"x": 1.2160661876,
				"y": 1.2335982649,
				"z": -2.2540538883,
				"element": "H" 
			},
			{
				"x": 0.7854046823,
				"y": 2.968353493,
				"z": 3.9318106425,
				"element": "H" 
			},
			{
				"x": -2.1346547715,
				"y": 1.6199188117,
				"z": 0.0333308807,
				"element": "H" 
			},
			{
				"x": -1.5222297282,
				"y": 0.8858405316,
				"z": 1.5285725702,
				"element": "H" 
			},
			{
				"x": -3.1346039898,
				"y": -0.4024551986,
				"z": -0.4284925375,
				"element": "H" 
			},
			{
				"x": -0.3657128893,
				"y": -1.2730918716,
				"z": -3.1091995835,
				"element": "H" 
			},
			{
				"x": -2.3003523534,
				"y": -2.432629192,
				"z": -1.0467665451,
				"element": "H" 
			},
			{
				"x": -2.1189847662,
				"y": -2.8156650396,
				"z": -2.7692112255,
				"element": "H" 
			},
			{
				"x": -2.7510363921,
				"y": -0.252429395,
				"z": -2.5986246621,
				"element": "H" 
			},
			{
				"x": 1.3213793781,
				"y": -1.6236278268,
				"z": -1.4514929517,
				"element": "H" 
			},
			{
				"x": -0.4907334071,
				"y": -3.5775141862,
				"z": -0.5427209057,
				"element": "H" 
			},
			{
				"x": -0.767194886,
				"y": -1.633037992,
				"z": 0.7446197014,
				"element": "H" 
			},
			{
				"x": 1.4373031309,
				"y": -1.8299206473,
				"z": 1.3389021737,
				"element": "H" 
			}
		],
		 "valence_orbital": [ 
			{
				"type": "occ",
				"energy": -0.275,
				"method": "rhf"
			},
			{
				"type": "occ",
				"energy": -0.26988,
				"method": "rhf"
			},
			{
				"type": "occ",
				"energy": -0.25236,
				"method": "rhf"
			},
			{
				"type": "occ",
				"energy": -0.24254,
				"method": "rhf"
			},
			{
				"type": "occ",
				"energy": -0.21392,
				"method": "rhf"
			},
			{
				"type": "unocc",
				"energy": -0.01454,
				"method": "rhf"
			},
			{
				"type": "unocc",
				"energy": 0.01037,
				"method": "rhf"
			},
			{
				"type": "unocc",
				"energy": 0.03037,
				"method": "rhf"
			},
			{
				"type": "unocc",
				"energy": 0.04653,
				"method": "rhf"
			},
			{
				"type": "unocc",
				"energy": 0.0528,
				"method": "rhf"
			}
		],
		"cosmo_sigma_profile": { 
			"-0.025": 0.0,
			"-0.024": 0.0,
			"-0.023": 0.0,
			"-0.022": 0.0,
			"-0.021": 0.0,
			"-0.02": 0.0,
			"-0.019": 0.0,
			"-0.018": 0.0,
			"-0.017": 0.0758459017277,
			"-0.016": 1.69059533663,
			"-0.015": 1.93830134723,
			"-0.014": 3.84225408877,
			"-0.013": 5.11849249489,
			"-0.012": 5.28997106445,
			"-0.011": 3.55608154664,
			"-0.01": 4.88397380665,
			"-0.009": 6.8468969708,
			"-0.008": 6.3024929347,
			"-0.007": 12.1596592728,
			"-0.006": 17.1515288313,
			"-0.005": 15.3537561899,
			"-0.004": 14.5336968062,
			"-0.003": 12.3898997668,
			"-0.002": 13.5870342941,
			"-0.001": 15.8964034451,
			"0.0": 18.2615715496,
			"0.001": 17.2867777115,
			"0.002": 12.6884660712,
			"0.003": 13.3393458539,
			"0.004": 11.5977282894,
			"0.005": 11.6331994709,
			"0.006": 9.07182839352,
			"0.007": 9.44413777827,
			"0.008": 7.25758466208,
			"0.009": 8.04643188492,
			"0.01": 8.33937205607,
			"0.011": 7.82491530641,
			"0.012": 6.71272403483,
			"0.013": 6.70077182177,
			"0.014": 2.90351422619,
			"0.015": 1.38506231789,
			"0.016": 0.524100051826,
			"0.017": 0.0,
			"0.018": 0.0,
			"0.019": 0.0,
			"0.02": 0.0,
			"0.021": 0.0,
			"0.022": 0.0,
			"0.023": 0.0,
			"0.024": 0.0,
			"0.025": 0.0
		}
	}
}
