{
	 "smiles": "NC(=S)C1=CC(NC(=O)C2CC2)=CC=C1", 
	 "Tm": 455.15, 
	 "num_atms": 27, 
	 "gaussian": { 
		 "optdone": 1, 
		 "sigma_profile": "yes", 
		 "theory": "DFT", 
		 "functional": "B3LYP", 
		 "basiset": "6-31G**", 
		 "properties": { 
			 "R2extent": 5877.0837, 
			 "electric_dipole_moment_norm": 6.71989836009, 
			 "electric_quadrupole_moment_norm": 26.4103684965, 
			 "total_energy": -1009.32150538, 
			 "HOMO_LUMO_gap": 0.1451, 
			 "cosmo_polarized_energy": -21.57, 
			 "cosmo_cavitation_energy": 32.77, 
			 "cosmo_dispersion_energy": -24.28, 
			 "cosmo_repulsion_energy": 1.86, 
			 "cosmo_total_nonelectrostatic_energy": 10.34, 
			 "SMD_solvation_energy": 4.67 
		},
		"coords": [
			{
				"x": 2.9331554958,
				"y": 2.03637073,
				"z": 0.1942279925,
				"element": "N" 
			},
			{
				"x": 2.3268188241,
				"y": 3.0176166008,
				"z": 0.8949557098,
				"element": "C" 
			},
			{
				"x": 3.2100660529,
				"y": 4.2073190324,
				"z": 1.6674337206,
				"element": "S" 
			},
			{
				"x": 0.835832161,
				"y": 2.9413439781,
				"z": 0.9349315359,
				"element": "C" 
			},
			{
				"x": 0.1920060041,
				"y": 1.7005770433,
				"z": 0.8029131574,
				"element": "C" 
			},
			{
				"x": -1.2071686783,
				"y": 1.627959402,
				"z": 0.8211533152,
				"element": "C" 
			},
			{
				"x": -1.909592703,
				"y": 0.4109563242,
				"z": 0.7018877701,
				"element": "N" 
			},
			{
				"x": -1.4225292567,
				"y": -0.8359823652,
				"z": 0.3703186021,
				"element": "C" 
			},
			{
				"x": -0.2380347235,
				"y": -1.0689463742,
				"z": 0.1456694003,
				"element": "O" 
			},
			{
				"x": -2.4677997729,
				"y": -1.9053053887,
				"z": 0.3062277048,
				"element": "C" 
			},
			{
				"x": -2.2566897728,
				"y": -3.0127817942,
				"z": -0.7129380993,
				"element": "C" 
			},
			{
				"x": -2.0485967047,
				"y": -3.3016278605,
				"z": 0.7368283044,
				"element": "C" 
			},
			{
				"x": -1.9568144825,
				"y": 2.8031554597,
				"z": 0.97932058,
				"element": "C" 
			},
			{
				"x": -1.3123624313,
				"y": 4.0297124562,
				"z": 1.1219853825,
				"element": "C" 
			},
			{
				"x": 0.0774683808,
				"y": 4.1082379664,
				"z": 1.1033504332,
				"element": "C" 
			},
			{
				"x": 3.940789766,
				"y": 2.0368914466,
				"z": 0.1408110074,
				"element": "H" 
			},
			{
				"x": 2.4122161998,
				"y": 1.389082636,
				"z": -0.3788417663,
				"element": "H" 
			},
			{
				"x": 0.7481928337,
				"y": 0.7782445712,
				"z": 0.7214544097,
				"element": "H" 
			},
			{
				"x": -2.9082714545,
				"y": 0.4780843485,
				"z": 0.8349760492,
				"element": "H" 
			},
			{
				"x": -3.4933141685,
				"y": -1.6100452814,
				"z": 0.5134246666,
				"element": "H" 
			},
			{
				"x": -1.3728325593,
				"y": -2.9172167907,
				"z": -1.3346379546,
				"element": "H" 
			},
			{
				"x": -3.1395349077,
				"y": -3.4051480706,
				"z": -1.2073475689,
				"element": "H" 
			},
			{
				"x": -2.7844539916,
				"y": -3.897763495,
				"z": 1.2668549604,
				"element": "H" 
			},
			{
				"x": -1.0257538258,
				"y": -3.3990874877,
				"z": 1.0848679863,
				"element": "H" 
			},
			{
				"x": -3.0433881237,
				"y": 2.7541891028,
				"z": 0.9930432801,
				"element": "H" 
			},
			{
				"x": -1.9033977718,
				"y": 4.9322002264,
				"z": 1.2449987829,
				"element": "H" 
			},
			{
				"x": 0.5895896104,
				"y": 5.0565635837,
				"z": 1.2160306375,
				"element": "H" 
			}
		],
		 "valence_orbital": [ 
			{
				"type": "occ",
				"energy": -0.2669,
				"method": "rhf"
			},
			{
				"type": "occ",
				"energy": -0.26349,
				"method": "rhf"
			},
			{
				"type": "occ",
				"energy": -0.2343,
				"method": "rhf"
			},
			{
				"type": "occ",
				"energy": -0.22091,
				"method": "rhf"
			},
			{
				"type": "occ",
				"energy": -0.20142,
				"method": "rhf"
			},
			{
				"type": "unocc",
				"energy": -0.05632,
				"method": "rhf"
			},
			{
				"type": "unocc",
				"energy": -0.02199,
				"method": "rhf"
			},
			{
				"type": "unocc",
				"energy": 0.01662,
				"method": "rhf"
			},
			{
				"type": "unocc",
				"energy": 0.04021,
				"method": "rhf"
			},
			{
				"type": "unocc",
				"energy": 0.05373,
				"method": "rhf"
			}
		],
		"cosmo_sigma_profile": { 
			"-0.025": 0.0,
			"-0.024": 0.0,
			"-0.023": 0.0,
			"-0.022": 0.0,
			"-0.021": 0.0,
			"-0.02": 0.0,
			"-0.019": 0.0,
			"-0.018": 0.0,
			"-0.017": 0.0,
			"-0.016": 0.724924018373,
			"-0.015": 2.59334791468,
			"-0.014": 3.31112559568,
			"-0.013": 3.4403431352,
			"-0.012": 4.3102559461,
			"-0.011": 3.39221250874,
			"-0.01": 3.95689562458,
			"-0.009": 3.5146421294,
			"-0.008": 3.69245799776,
			"-0.007": 4.90595629267,
			"-0.006": 8.20485081435,
			"-0.005": 15.3597556891,
			"-0.004": 14.9690647083,
			"-0.003": 13.0406512397,
			"-0.002": 14.2719774641,
			"-0.001": 15.1196434549,
			"0.0": 20.0070958663,
			"0.001": 21.2009347178,
			"0.002": 19.0779115444,
			"0.003": 20.3589446433,
			"0.004": 14.8374231292,
			"0.005": 7.64880712443,
			"0.006": 5.8878804101,
			"0.007": 6.57693344311,
			"0.008": 6.883306837,
			"0.009": 9.22696683006,
			"0.01": 5.89508771236,
			"0.011": 5.20450106306,
			"0.012": 3.95872286575,
			"0.013": 1.85669909388,
			"0.014": 0.357875226606,
			"0.015": 0.0,
			"0.016": 0.0,
			"0.017": 0.0,
			"0.018": 0.0,
			"0.019": 0.0,
			"0.02": 0.0,
			"0.021": 0.0,
			"0.022": 0.0,
			"0.023": 0.0,
			"0.024": 0.0,
			"0.025": 0.0
		}
	}
}
