{
	 "smiles": "O=C1NC(=O)C2=CC=CC=C12", 
	 "Tm": 509.15, 
	 "num_atms": 16, 
	 "gaussian": { 
		 "optdone": 1, 
		 "sigma_profile": "yes", 
		 "theory": "DFT", 
		 "functional": "B3LYP", 
		 "basiset": "6-31G**", 
		 "properties": { 
			 "R2extent": 2118.4067, 
			 "electric_dipole_moment_norm": 2.78783960263, 
			 "electric_quadrupole_moment_norm": 7.87340546778, 
			 "total_energy": -513.092715199, 
			 "HOMO_LUMO_gap": 0.18464, 
			 "cosmo_polarized_energy": -11.52, 
			 "cosmo_cavitation_energy": 21.22, 
			 "cosmo_dispersion_energy": -15.81, 
			 "cosmo_repulsion_energy": 1.26, 
			 "cosmo_total_nonelectrostatic_energy": 6.67, 
			 "SMD_solvation_energy": 5.04 
		},
		"coords": [
			{
				"x": 3.8904275966,
				"y": -0.2633911242,
				"z": 1.0067277841,
				"element": "O" 
			},
			{
				"x": 2.7484653172,
				"y": 0.1099317096,
				"z": 1.1742110688,
				"element": "C" 
			},
			{
				"x": 2.3558509366,
				"y": 1.3141113045,
				"z": 1.7776708407,
				"element": "N" 
			},
			{
				"x": 0.9644419561,
				"y": 1.4838011969,
				"z": 1.8370719894,
				"element": "C" 
			},
			{
				"x": 0.3830043522,
				"y": 2.4376294737,
				"z": 2.309981032,
				"element": "O" 
			},
			{
				"x": 0.4038110639,
				"y": 0.2514742702,
				"z": 1.2014325216,
				"element": "C" 
			},
			{
				"x": -0.9159137891,
				"y": -0.1203137295,
				"z": 0.9878618138,
				"element": "C" 
			},
			{
				"x": -1.1454097887,
				"y": -1.3510740071,
				"z": 0.3592017366,
				"element": "C" 
			},
			{
				"x": -0.0804328388,
				"y": -2.1711371585,
				"z": -0.0366077114,
				"element": "C" 
			},
			{
				"x": 1.2488157428,
				"y": -1.7872394814,
				"z": 0.1833412725,
				"element": "C" 
			},
			{
				"x": 1.4662745734,
				"y": -0.5666799027,
				"z": 0.8066025765,
				"element": "C" 
			},
			{
				"x": 3.0122409912,
				"y": 1.9939754725,
				"z": 2.1351744007,
				"element": "H" 
			},
			{
				"x": -1.7328076868,
				"y": 0.5229500666,
				"z": 1.2986638621,
				"element": "H" 
			},
			{
				"x": -2.164562445,
				"y": -1.6772696735,
				"z": 0.1744136062,
				"element": "H" 
			},
			{
				"x": -0.2916582707,
				"y": -3.1194634644,
				"z": -0.5216687568,
				"element": "H" 
			},
			{
				"x": 2.0814522892,
				"y": -2.4142049527,
				"z": -0.1188780369,
				"element": "H" 
			}
		],
		 "valence_orbital": [ 
			{
				"type": "occ",
				"energy": -0.29472,
				"method": "rhf"
			},
			{
				"type": "occ",
				"energy": -0.29349,
				"method": "rhf"
			},
			{
				"type": "occ",
				"energy": -0.27983,
				"method": "rhf"
			},
			{
				"type": "occ",
				"energy": -0.2765,
				"method": "rhf"
			},
			{
				"type": "occ",
				"energy": -0.26801,
				"method": "rhf"
			},
			{
				"type": "unocc",
				"energy": -0.08337,
				"method": "rhf"
			},
			{
				"type": "unocc",
				"energy": -0.04235,
				"method": "rhf"
			},
			{
				"type": "unocc",
				"energy": 0.0264,
				"method": "rhf"
			},
			{
				"type": "unocc",
				"energy": 0.076,
				"method": "rhf"
			},
			{
				"type": "unocc",
				"energy": 0.08088,
				"method": "rhf"
			}
		],
		"cosmo_sigma_profile": { 
			"-0.025": 0.0,
			"-0.024": 0.0,
			"-0.023": 0.0,
			"-0.022": 0.0,
			"-0.021": 0.0,
			"-0.02": 0.0,
			"-0.019": 0.0,
			"-0.018": 0.0,
			"-0.017": 0.230665692194,
			"-0.016": 1.1869054986,
			"-0.015": 1.57490128211,
			"-0.014": 0.565746973668,
			"-0.013": 0.5758216264,
			"-0.012": 0.853121269872,
			"-0.011": 1.11608965155,
			"-0.01": 0.882927765337,
			"-0.009": 0.783359636651,
			"-0.008": 2.44176393451,
			"-0.007": 9.32803323209,
			"-0.006": 9.81098225881,
			"-0.005": 11.5509581992,
			"-0.004": 9.90616026842,
			"-0.003": 11.0441054004,
			"-0.002": 11.1084539538,
			"-0.001": 13.9129770058,
			"0.0": 12.5776433426,
			"0.001": 12.618571443,
			"0.002": 14.9617433843,
			"0.003": 5.1481698723,
			"0.004": 3.03447423856,
			"0.005": 3.58685564728,
			"0.006": 1.99686299671,
			"0.007": 1.9332114009,
			"0.008": 2.96685121295,
			"0.009": 4.10952844703,
			"0.01": 5.7037752007,
			"0.011": 10.2200659898,
			"0.012": 5.42859824352,
			"0.013": 0.0794524749341,
			"0.014": 0.0,
			"0.015": 0.0,
			"0.016": 0.0,
			"0.017": 0.0,
			"0.018": 0.0,
			"0.019": 0.0,
			"0.02": 0.0,
			"0.021": 0.0,
			"0.022": 0.0,
			"0.023": 0.0,
			"0.024": 0.0,
			"0.025": 0.0
		}
	}
}
