{
	 "smiles": "O=C1OC(C2=CC=CC=C12)C1=CC=CC=C1", 
	 "Tm": 390.15, 
	 "num_atms": 26, 
	 "gaussian": { 
		 "optdone": 1, 
		 "sigma_profile": "yes", 
		 "theory": "DFT", 
		 "functional": "B3LYP", 
		 "basiset": "6-31G**", 
		 "properties": { 
			 "R2extent": 3710.6358, 
			 "electric_dipole_moment_norm": 5.01905193637, 
			 "electric_quadrupole_moment_norm": 20.0722962827, 
			 "total_energy": -689.977891653, 
			 "HOMO_LUMO_gap": 0.20201, 
			 "cosmo_polarized_energy": -12.4, 
			 "cosmo_cavitation_energy": 30.62, 
			 "cosmo_dispersion_energy": -21.81, 
			 "cosmo_repulsion_energy": 1.69, 
			 "cosmo_total_nonelectrostatic_energy": 10.5, 
			 "SMD_solvation_energy": 5.83 
		},
		"coords": [
			{
				"x": -1.168041748,
				"y": -3.7373699223,
				"z": -0.8878496511,
				"element": "O" 
			},
			{
				"x": -0.7434700092,
				"y": -2.7143150969,
				"z": -0.4128546166,
				"element": "C" 
			},
			{
				"x": 0.6033062473,
				"y": -2.4218126159,
				"z": -0.3649956119,
				"element": "O" 
			},
			{
				"x": 0.8518139208,
				"y": -1.1511710394,
				"z": 0.2814096571,
				"element": "C" 
			},
			{
				"x": -0.5348952772,
				"y": -0.6250030062,
				"z": 0.6012125271,
				"element": "C" 
			},
			{
				"x": -0.947587186,
				"y": 0.5632167508,
				"z": 1.1973673654,
				"element": "C" 
			},
			{
				"x": -2.3200569804,
				"y": 0.7608530074,
				"z": 1.3756285852,
				"element": "C" 
			},
			{
				"x": -3.2562494276,
				"y": -0.2022160747,
				"z": 0.9665926173,
				"element": "C" 
			},
			{
				"x": -2.8359289213,
				"y": -1.3879675594,
				"z": 0.365423607,
				"element": "C" 
			},
			{
				"x": -1.4650932701,
				"y": -1.5743346989,
				"z": 0.1950871154,
				"element": "C" 
			},
			{
				"x": 1.6907607453,
				"y": -0.2429656733,
				"z": -0.5949237555,
				"element": "C" 
			},
			{
				"x": 1.4521180636,
				"y": -0.1463197611,
				"z": -1.9710572166,
				"element": "C" 
			},
			{
				"x": 2.2044640104,
				"y": 0.7281994148,
				"z": -2.7531577815,
				"element": "C" 
			},
			{
				"x": 3.1971731504,
				"y": 1.5199165899,
				"z": -2.1690190292,
				"element": "C" 
			},
			{
				"x": 3.4404511049,
				"y": 1.4256840766,
				"z": -0.7988178466,
				"element": "C" 
			},
			{
				"x": 2.6930468874,
				"y": 0.5422980462,
				"z": -0.0167903601,
				"element": "C" 
			},
			{
				"x": 1.4022658995,
				"y": -1.3633948998,
				"z": 1.2072152455,
				"element": "H" 
			},
			{
				"x": -0.2325708769,
				"y": 1.3196764347,
				"z": 1.5070174191,
				"element": "H" 
			},
			{
				"x": -2.6704003085,
				"y": 1.6795962059,
				"z": 1.8373093412,
				"element": "H" 
			},
			{
				"x": -4.3151350864,
				"y": -0.0166539509,
				"z": 1.119041797,
				"element": "H" 
			},
			{
				"x": -3.5386811898,
				"y": -2.1470820521,
				"z": 0.0367090784,
				"element": "H" 
			},
			{
				"x": 0.6895600389,
				"y": -0.7684418463,
				"z": -2.4288080336,
				"element": "H" 
			},
			{
				"x": 2.017520062,
				"y": 0.7909304884,
				"z": -3.8212894755,
				"element": "H" 
			},
			{
				"x": 3.7820783211,
				"y": 2.2001479539,
				"z": -2.7812232924,
				"element": "H" 
			},
			{
				"x": 4.2177517693,
				"y": 2.0289285662,
				"z": -0.3387490205,
				"element": "H" 
			},
			{
				"x": 2.8973000605,
				"y": 0.4578006626,
				"z": 1.0481213354,
				"element": "H" 
			}
		],
		 "valence_orbital": [ 
			{
				"type": "occ",
				"energy": -0.27092,
				"method": "rhf"
			},
			{
				"type": "occ",
				"energy": -0.26996,
				"method": "rhf"
			},
			{
				"type": "occ",
				"energy": -0.26725,
				"method": "rhf"
			},
			{
				"type": "occ",
				"energy": -0.2587,
				"method": "rhf"
			},
			{
				"type": "occ",
				"energy": -0.25146,
				"method": "rhf"
			},
			{
				"type": "unocc",
				"energy": -0.04945,
				"method": "rhf"
			},
			{
				"type": "unocc",
				"energy": -0.02578,
				"method": "rhf"
			},
			{
				"type": "unocc",
				"energy": -0.01374,
				"method": "rhf"
			},
			{
				"type": "unocc",
				"energy": -0.00663,
				"method": "rhf"
			},
			{
				"type": "unocc",
				"energy": 0.05363,
				"method": "rhf"
			}
		],
		"cosmo_sigma_profile": { 
			"-0.025": 0.0,
			"-0.024": 0.0,
			"-0.023": 0.0,
			"-0.022": 0.0,
			"-0.021": 0.0,
			"-0.02": 0.0,
			"-0.019": 0.0,
			"-0.018": 0.0,
			"-0.017": 0.0,
			"-0.016": 0.0,
			"-0.015": 0.0,
			"-0.014": 0.0,
			"-0.013": 0.0,
			"-0.012": 0.0,
			"-0.011": 0.0,
			"-0.01": 0.0,
			"-0.009": 0.0965882523621,
			"-0.008": 3.27586160955,
			"-0.007": 9.18603888516,
			"-0.006": 18.9926373451,
			"-0.005": 23.4389838025,
			"-0.004": 21.2259554155,
			"-0.003": 16.5264268956,
			"-0.002": 14.5259156599,
			"-0.001": 14.681556199,
			"0.0": 15.7786401593,
			"0.001": 14.8134822093,
			"0.002": 18.8919288542,
			"0.003": 21.0388142417,
			"0.004": 13.3503552505,
			"0.005": 12.3310301915,
			"0.006": 3.10682759258,
			"0.007": 2.87604478503,
			"0.008": 3.13548231804,
			"0.009": 3.70378058459,
			"0.01": 3.9852178691,
			"0.011": 5.03294416153,
			"0.012": 5.06204901144,
			"0.013": 1.16955652494,
			"0.014": 0.00387451855041,
			"0.015": 0.0,
			"0.016": 0.0,
			"0.017": 0.0,
			"0.018": 0.0,
			"0.019": 0.0,
			"0.02": 0.0,
			"0.021": 0.0,
			"0.022": 0.0,
			"0.023": 0.0,
			"0.024": 0.0,
			"0.025": 0.0
		}
	}
}
