{
	 "smiles": "COC1=CC(OC)=C(C=C1)N1CC(CC1=O)C(O)=O", 
	 "Tm": 457.15, 
	 "num_atms": 34, 
	 "gaussian": { 
		 "optdone": 1, 
		 "sigma_profile": "yes", 
		 "theory": "DFT", 
		 "functional": "B3LYP", 
		 "basiset": "6-31G**", 
		 "properties": { 
			 "R2extent": 6258.6121, 
			 "electric_dipole_moment_norm": 3.83457594135, 
			 "electric_quadrupole_moment_norm": 30.5285910974, 
			 "total_energy": -935.2875824, 
			 "HOMO_LUMO_gap": 0.20288, 
			 "cosmo_polarized_energy": -25.66, 
			 "cosmo_cavitation_energy": 37.73, 
			 "cosmo_dispersion_energy": -26.51, 
			 "cosmo_repulsion_energy": 2.06, 
			 "cosmo_total_nonelectrostatic_energy": 13.28, 
			 "SMD_solvation_energy": 9.48 
		},
		"coords": [
			{
				"x": 2.9770570844,
				"y": -2.7593706263,
				"z": -3.0424021722,
				"element": "C" 
			},
			{
				"x": 2.4953574974,
				"y": -1.4244134561,
				"z": -3.0583585601,
				"element": "O" 
			},
			{
				"x": 1.7261137132,
				"y": -1.0063650582,
				"z": -2.011640615,
				"element": "C" 
			},
			{
				"x": 1.2927568397,
				"y": 0.3263198921,
				"z": -2.0917770722,
				"element": "C" 
			},
			{
				"x": 0.5093840084,
				"y": 0.8704428331,
				"z": -1.0773211519,
				"element": "C" 
			},
			{
				"x": 0.0768081465,
				"y": 2.166266945,
				"z": -1.0634188911,
				"element": "O" 
			},
			{
				"x": 0.4590543807,
				"y": 3.0142516223,
				"z": -2.1368053914,
				"element": "C" 
			},
			{
				"x": 0.1186508363,
				"y": 0.069839051,
				"z": 0.0213064414,
				"element": "C" 
			},
			{
				"x": 0.5609916999,
				"y": -1.248085916,
				"z": 0.0793338017,
				"element": "C" 
			},
			{
				"x": 1.3681508481,
				"y": -1.7989176705,
				"z": -0.9188622042,
				"element": "C" 
			},
			{
				"x": -0.6922871776,
				"y": 0.6052830131,
				"z": 1.0591055101,
				"element": "N" 
			},
			{
				"x": -2.0084368297,
				"y": 1.2009617958,
				"z": 0.8090858747,
				"element": "C" 
			},
			{
				"x": -2.6495313486,
				"y": 1.3025973687,
				"z": 2.2084537641,
				"element": "C" 
			},
			{
				"x": -1.445392838,
				"y": 1.2694857715,
				"z": 3.1794358482,
				"element": "C" 
			},
			{
				"x": -0.3180171143,
				"y": 0.6020312423,
				"z": 2.3843396743,
				"element": "C" 
			},
			{
				"x": 0.7182283471,
				"y": 0.1643819018,
				"z": 2.8509532681,
				"element": "O" 
			},
			{
				"x": -3.6404339903,
				"y": 0.159754963,
				"z": 2.4640466706,
				"element": "C" 
			},
			{
				"x": -4.2107866084,
				"y": 0.1614982003,
				"z": 3.698591008,
				"element": "O" 
			},
			{
				"x": -3.9429531579,
				"y": -0.6888055541,
				"z": 1.6640655764,
				"element": "O" 
			},
			{
				"x": 3.5624137471,
				"y": -2.8791905033,
				"z": -3.955395416,
				"element": "H" 
			},
			{
				"x": 2.1548201047,
				"y": -3.4862737312,
				"z": -3.0427725711,
				"element": "H" 
			},
			{
				"x": 3.6205483681,
				"y": -2.9467813569,
				"z": -2.1734486505,
				"element": "H" 
			},
			{
				"x": 1.6015813693,
				"y": 0.9063750217,
				"z": -2.9515597086,
				"element": "H" 
			},
			{
				"x": 1.5496516035,
				"y": 3.1100228944,
				"z": -2.2036634765,
				"element": "H" 
			},
			{
				"x": 0.0701564585,
				"y": 2.6516641485,
				"z": -3.0965073331,
				"element": "H" 
			},
			{
				"x": 0.0243937622,
				"y": 3.9907095158,
				"z": -1.9177576146,
				"element": "H" 
			},
			{
				"x": 0.272520826,
				"y": -1.8520566083,
				"z": 0.9318964805,
				"element": "H" 
			},
			{
				"x": 1.6945326007,
				"y": -2.8274170187,
				"z": -0.8334903317,
				"element": "H" 
			},
			{
				"x": -1.9051522044,
				"y": 2.184481955,
				"z": 0.3417408764,
				"element": "H" 
			},
			{
				"x": -2.6003910206,
				"y": 0.5541616064,
				"z": 0.1572458583,
				"element": "H" 
			},
			{
				"x": -3.2154203306,
				"y": 2.2370710863,
				"z": 2.3064581037,
				"element": "H" 
			},
			{
				"x": -1.6147961947,
				"y": 0.7117367729,
				"z": 4.1041944593,
				"element": "H" 
			},
			{
				"x": -1.1190215452,
				"y": 2.277345244,
				"z": 3.4581300115,
				"element": "H" 
			},
			{
				"x": -3.8749518811,
				"y": 0.9007946547,
				"z": 4.2253979327,
				"element": "H" 
			}
		],
		 "valence_orbital": [ 
			{
				"type": "occ",
				"energy": -0.27753,
				"method": "rhf"
			},
			{
				"type": "occ",
				"energy": -0.25487,
				"method": "rhf"
			},
			{
				"type": "occ",
				"energy": -0.24604,
				"method": "rhf"
			},
			{
				"type": "occ",
				"energy": -0.23185,
				"method": "rhf"
			},
			{
				"type": "occ",
				"energy": -0.20526,
				"method": "rhf"
			},
			{
				"type": "unocc",
				"energy": -0.00238,
				"method": "rhf"
			},
			{
				"type": "unocc",
				"energy": 0.00313,
				"method": "rhf"
			},
			{
				"type": "unocc",
				"energy": 0.01231,
				"method": "rhf"
			},
			{
				"type": "unocc",
				"energy": 0.03512,
				"method": "rhf"
			},
			{
				"type": "unocc",
				"energy": 0.05069,
				"method": "rhf"
			}
		],
		"cosmo_sigma_profile": { 
			"-0.025": 0.0,
			"-0.024": 0.0,
			"-0.023": 0.0,
			"-0.022": 0.0,
			"-0.021": 0.0,
			"-0.02": 0.0,
			"-0.019": 0.568531476367,
			"-0.018": 0.830949053827,
			"-0.017": 1.27139314083,
			"-0.016": 1.25460579735,
			"-0.015": 0.944044546345,
			"-0.014": 1.12121161341,
			"-0.013": 1.15457231316,
			"-0.012": 0.975312887122,
			"-0.011": 1.58186969923,
			"-0.01": 1.23005015475,
			"-0.009": 2.10477264959,
			"-0.008": 4.09728279433,
			"-0.007": 9.57212279724,
			"-0.006": 22.7927930245,
			"-0.005": 28.7555049942,
			"-0.004": 27.522611528,
			"-0.003": 26.6005714017,
			"-0.002": 15.1513199797,
			"-0.001": 12.6897750039,
			"0.0": 11.4542653415,
			"0.001": 11.6914254233,
			"0.002": 12.2411363996,
			"0.003": 15.3008715756,
			"0.004": 17.9405077791,
			"0.005": 10.7667802416,
			"0.006": 7.53061211164,
			"0.007": 6.09056002587,
			"0.008": 6.6573669053,
			"0.009": 7.05906928956,
			"0.01": 7.90507632267,
			"0.011": 7.45308508884,
			"0.012": 5.75060433137,
			"0.013": 5.34440622418,
			"0.014": 4.54893751905,
			"0.015": 0.531026150999,
			"0.016": 0.0,
			"0.017": 0.0,
			"0.018": 0.0,
			"0.019": 0.0,
			"0.02": 0.0,
			"0.021": 0.0,
			"0.022": 0.0,
			"0.023": 0.0,
			"0.024": 0.0,
			"0.025": 0.0
		}
	}
}
