{
	 "smiles": "ClC1=NC2=C(C=C1)N=CC=N2", 
	 "Tm": 422.15, 
	 "num_atms": 15, 
	 "gaussian": { 
		 "optdone": 1, 
		 "sigma_profile": "yes", 
		 "theory": "DFT", 
		 "functional": "B3LYP", 
		 "basiset": "6-31G**", 
		 "properties": { 
			 "R2extent": 3106.1541, 
			 "electric_dipole_moment_norm": 3.26255812209, 
			 "electric_quadrupole_moment_norm": 15.231886829, 
			 "total_energy": -893.590889376, 
			 "HOMO_LUMO_gap": 0.16384, 
			 "cosmo_polarized_energy": -10.78, 
			 "cosmo_cavitation_energy": 21.78, 
			 "cosmo_dispersion_energy": -16.78, 
			 "cosmo_repulsion_energy": 1.33, 
			 "cosmo_total_nonelectrostatic_energy": 6.33, 
			 "SMD_solvation_energy": -1.14 
		},
		"coords": [
			{
				"x": -3.2873228829,
				"y": 0.8550908158,
				"z": 3.9773410845,
				"element": "Cl" 
			},
			{
				"x": -1.9782399288,
				"y": 0.7175053182,
				"z": 2.8070415409,
				"element": "C" 
			},
			{
				"x": -2.1474707718,
				"y": -0.1120942718,
				"z": 1.8202976272,
				"element": "N" 
			},
			{
				"x": -1.1376310091,
				"y": -0.2213177628,
				"z": 0.9134520783,
				"element": "C" 
			},
			{
				"x": 0.0673724651,
				"y": 0.536894205,
				"z": 1.0246083002,
				"element": "C" 
			},
			{
				"x": 0.1984331127,
				"y": 1.4279067792,
				"z": 2.1225788956,
				"element": "C" 
			},
			{
				"x": -0.8273748126,
				"y": 1.5264789068,
				"z": 3.0271746406,
				"element": "C" 
			},
			{
				"x": 1.0724368301,
				"y": 0.422681067,
				"z": 0.1146932462,
				"element": "N" 
			},
			{
				"x": 0.8635236458,
				"y": -0.4274892504,
				"z": -0.8696517322,
				"element": "C" 
			},
			{
				"x": -0.336043043,
				"y": -1.1827344991,
				"z": -0.9808794035,
				"element": "C" 
			},
			{
				"x": -1.3237352794,
				"y": -1.091125422,
				"z": -0.1144623189,
				"element": "N" 
			},
			{
				"x": 1.1106442012,
				"y": 2.0085235048,
				"z": 2.2157017729,
				"element": "H" 
			},
			{
				"x": -0.7835997265,
				"y": 2.188495099,
				"z": 3.8834085789,
				"element": "H" 
			},
			{
				"x": 1.6505468178,
				"y": -0.5399794098,
				"z": -1.6131073343,
				"element": "H" 
			},
			{
				"x": -0.4645396186,
				"y": -1.8741350799,
				"z": -1.8125969765,
				"element": "H" 
			}
		],
		 "valence_orbital": [ 
			{
				"type": "occ",
				"energy": -0.32295,
				"method": "rhf"
			},
			{
				"type": "occ",
				"energy": -0.3025,
				"method": "rhf"
			},
			{
				"type": "occ",
				"energy": -0.29055,
				"method": "rhf"
			},
			{
				"type": "occ",
				"energy": -0.27135,
				"method": "rhf"
			},
			{
				"type": "occ",
				"energy": -0.25736,
				"method": "rhf"
			},
			{
				"type": "unocc",
				"energy": -0.09352,
				"method": "rhf"
			},
			{
				"type": "unocc",
				"energy": -0.04678,
				"method": "rhf"
			},
			{
				"type": "unocc",
				"energy": -0.0217,
				"method": "rhf"
			},
			{
				"type": "unocc",
				"energy": 0.02492,
				"method": "rhf"
			},
			{
				"type": "unocc",
				"energy": 0.05558,
				"method": "rhf"
			}
		],
		"cosmo_sigma_profile": { 
			"-0.025": 0.0,
			"-0.024": 0.0,
			"-0.023": 0.0,
			"-0.022": 0.0,
			"-0.021": 0.0,
			"-0.02": 0.0,
			"-0.019": 0.0,
			"-0.018": 0.0,
			"-0.017": 0.0,
			"-0.016": 0.0,
			"-0.015": 0.0,
			"-0.014": 0.0,
			"-0.013": 0.0,
			"-0.012": 0.0,
			"-0.011": 0.0,
			"-0.01": 0.0,
			"-0.009": 3.83284162779,
			"-0.008": 10.6921263449,
			"-0.007": 7.74935824556,
			"-0.006": 6.79035399691,
			"-0.005": 7.33980454284,
			"-0.004": 10.2094847361,
			"-0.003": 15.2759592206,
			"-0.002": 18.5617338866,
			"-0.001": 16.8727826815,
			"0.0": 11.5383985768,
			"0.001": 8.74044056802,
			"0.002": 8.66755660708,
			"0.003": 11.060595366,
			"0.004": 10.8282058144,
			"0.005": 4.97981742833,
			"0.006": 3.85215771885,
			"0.007": 1.89958777649,
			"0.008": 3.7528857289,
			"0.009": 2.91249229419,
			"0.01": 2.09056501501,
			"0.011": 2.43437557475,
			"0.012": 3.1293114299,
			"0.013": 2.26888169806,
			"0.014": 3.08157025167,
			"0.015": 0.8361992008,
			"0.016": 0.0,
			"0.017": 0.0,
			"0.018": 0.0,
			"0.019": 0.0,
			"0.02": 0.0,
			"0.021": 0.0,
			"0.022": 0.0,
			"0.023": 0.0,
			"0.024": 0.0,
			"0.025": 0.0
		}
	}
}
