{
	 "smiles": "CC(Cl)C(=O)NNC(C)=O", 
	 "Tm": 430.15, 
	 "num_atms": 19, 
	 "gaussian": { 
		 "optdone": 1, 
		 "sigma_profile": "yes", 
		 "theory": "DFT", 
		 "functional": "B3LYP", 
		 "basiset": "6-31G**", 
		 "properties": { 
			 "R2extent": 2341.2443, 
			 "electric_dipole_moment_norm": 3.73671873975, 
			 "electric_quadrupole_moment_norm": 16.8364627392, 
			 "total_energy": -916.102070235, 
			 "HOMO_LUMO_gap": 0.24904, 
			 "cosmo_polarized_energy": -15.47, 
			 "cosmo_cavitation_energy": 24.96, 
			 "cosmo_dispersion_energy": -17.56, 
			 "cosmo_repulsion_energy": 1.46, 
			 "cosmo_total_nonelectrostatic_energy": 8.86, 
			 "SMD_solvation_energy": 5.94 
		},
		"coords": [
			{
				"x": 0.9904545984,
				"y": -0.8442622472,
				"z": 2.4039169112,
				"element": "C" 
			},
			{
				"x": 0.4416438045,
				"y": -1.0278113359,
				"z": 0.9923511729,
				"element": "C" 
			},
			{
				"x": 1.824135395,
				"y": -1.2250458059,
				"z": -0.2006574001,
				"element": "Cl" 
			},
			{
				"x": -0.5446095677,
				"y": 0.0940315289,
				"z": 0.6332245186,
				"element": "C" 
			},
			{
				"x": -1.5236707779,
				"y": 0.2571867549,
				"z": 1.3430227124,
				"element": "O" 
			},
			{
				"x": -0.2637665809,
				"y": 0.870050379,
				"z": -0.4572995796,
				"element": "N" 
			},
			{
				"x": -1.1465765498,
				"y": 1.8419868172,
				"z": -0.8942024903,
				"element": "N" 
			},
			{
				"x": -1.3167113787,
				"y": 3.0517729973,
				"z": -0.2127306724,
				"element": "C" 
			},
			{
				"x": -0.219584063,
				"y": 3.4512706482,
				"z": 0.7498935007,
				"element": "C" 
			},
			{
				"x": -2.2995754579,
				"y": 3.7279709314,
				"z": -0.4465660436,
				"element": "O" 
			},
			{
				"x": 0.1457323032,
				"y": -0.7437447817,
				"z": 3.0899400666,
				"element": "H" 
			},
			{
				"x": 1.6086103821,
				"y": 0.055140883,
				"z": 2.4691319105,
				"element": "H" 
			},
			{
				"x": 1.5931141524,
				"y": -1.7065715822,
				"z": 2.6956944046,
				"element": "H" 
			},
			{
				"x": -0.1178146592,
				"y": -1.9625034934,
				"z": 0.9187072936,
				"element": "H" 
			},
			{
				"x": 0.5252800936,
				"y": 0.6579339641,
				"z": -1.0520592778,
				"element": "H" 
			},
			{
				"x": -2.0062823589,
				"y": 1.4975801875,
				"z": -1.3112155239,
				"element": "H" 
			},
			{
				"x": -0.3202025809,
				"y": 2.873658597,
				"z": 1.6746101225,
				"element": "H" 
			},
			{
				"x": 0.7769704873,
				"y": 3.2657917538,
				"z": 0.3407657827,
				"element": "H" 
			},
			{
				"x": -0.3411472416,
				"y": 4.5097638043,
				"z": 0.9784725915,
				"element": "H" 
			}
		],
		 "valence_orbital": [ 
			{
				"type": "occ",
				"energy": -0.32251,
				"method": "rhf"
			},
			{
				"type": "occ",
				"energy": -0.29947,
				"method": "rhf"
			},
			{
				"type": "occ",
				"energy": -0.2883,
				"method": "rhf"
			},
			{
				"type": "occ",
				"energy": -0.27204,
				"method": "rhf"
			},
			{
				"type": "occ",
				"energy": -0.25653,
				"method": "rhf"
			},
			{
				"type": "unocc",
				"energy": -0.00749,
				"method": "rhf"
			},
			{
				"type": "unocc",
				"energy": -0.00192,
				"method": "rhf"
			},
			{
				"type": "unocc",
				"energy": 0.01399,
				"method": "rhf"
			},
			{
				"type": "unocc",
				"energy": 0.07776,
				"method": "rhf"
			},
			{
				"type": "unocc",
				"energy": 0.09785,
				"method": "rhf"
			}
		],
		"cosmo_sigma_profile": { 
			"-0.025": 0.0,
			"-0.024": 0.0,
			"-0.023": 0.0,
			"-0.022": 0.0,
			"-0.021": 0.0,
			"-0.02": 0.0,
			"-0.019": 0.0,
			"-0.018": 0.0,
			"-0.017": 0.0,
			"-0.016": 0.0,
			"-0.015": 0.280215987625,
			"-0.014": 1.38234069321,
			"-0.013": 1.77547877722,
			"-0.012": 1.488370999,
			"-0.011": 1.99219325769,
			"-0.01": 1.35113713709,
			"-0.009": 3.43706185252,
			"-0.008": 4.60987232222,
			"-0.007": 3.34813621073,
			"-0.006": 8.34399391335,
			"-0.005": 17.5678242814,
			"-0.004": 17.2665615467,
			"-0.003": 15.6490186794,
			"-0.002": 16.3618641138,
			"-0.001": 16.0849583215,
			"0.0": 10.2979545006,
			"0.001": 8.82775865192,
			"0.002": 7.22193504158,
			"0.003": 6.67037341758,
			"0.004": 8.50591787209,
			"0.005": 10.1348996224,
			"0.006": 5.05313102482,
			"0.007": 3.74412400931,
			"0.008": 2.55205257612,
			"0.009": 1.13198559433,
			"0.01": 4.0663155321,
			"0.011": 4.32588250119,
			"0.012": 8.12561397973,
			"0.013": 6.0135028194,
			"0.014": 0.9417412113,
			"0.015": 0.0,
			"0.016": 0.0,
			"0.017": 0.0,
			"0.018": 0.0,
			"0.019": 0.0,
			"0.02": 0.0,
			"0.021": 0.0,
			"0.022": 0.0,
			"0.023": 0.0,
			"0.024": 0.0,
			"0.025": 0.0
		}
	}
}
