{
	 "smiles": "COC(=O)C1=C(N)SC=C1C1=CN(C)N=C1", 
	 "Tm": 402.15, 
	 "num_atms": 27, 
	 "gaussian": { 
		 "optdone": 1, 
		 "sigma_profile": "yes", 
		 "theory": "DFT", 
		 "functional": "B3LYP", 
		 "basiset": "6-31G**", 
		 "properties": { 
			 "R2extent": 4564.7633, 
			 "electric_dipole_moment_norm": 2.55555473626, 
			 "electric_quadrupole_moment_norm": 19.8025110744, 
			 "total_energy": -1100.56269228, 
			 "HOMO_LUMO_gap": 0.17449, 
			 "cosmo_polarized_energy": -14.87, 
			 "cosmo_cavitation_energy": 32.78, 
			 "cosmo_dispersion_energy": -24.02, 
			 "cosmo_repulsion_energy": 1.83, 
			 "cosmo_total_nonelectrostatic_energy": 10.59, 
			 "SMD_solvation_energy": 6.15 
		},
		"coords": [
			{
				"x": 2.275106057,
				"y": 2.2445982703,
				"z": -1.704117957,
				"element": "C" 
			},
			{
				"x": 1.3177993985,
				"y": 1.266974096,
				"z": -1.2742881841,
				"element": "O" 
			},
			{
				"x": 0.6756437186,
				"y": 1.5544236464,
				"z": -0.1188832035,
				"element": "C" 
			},
			{
				"x": 0.8974892184,
				"y": 2.6084998696,
				"z": 0.4810654904,
				"element": "O" 
			},
			{
				"x": -0.2615340877,
				"y": 0.531691491,
				"z": 0.3309145138,
				"element": "C" 
			},
			{
				"x": -0.9166974855,
				"y": 0.7350163693,
				"z": 1.5533166781,
				"element": "C" 
			},
			{
				"x": -0.7634189766,
				"y": 1.7789729094,
				"z": 2.4034553717,
				"element": "N" 
			},
			{
				"x": -1.9562206796,
				"y": -0.6062800596,
				"z": 1.9644285717,
				"element": "S" 
			},
			{
				"x": -1.524736163,
				"y": -1.4360681681,
				"z": 0.4856800831,
				"element": "C" 
			},
			{
				"x": -0.6303512006,
				"y": -0.7446729306,
				"z": -0.279847911,
				"element": "C" 
			},
			{
				"x": -0.1707837074,
				"y": -1.3318345103,
				"z": -1.5483747068,
				"element": "C" 
			},
			{
				"x": -0.0264211272,
				"y": -0.765493795,
				"z": -2.8079639611,
				"element": "C" 
			},
			{
				"x": 0.3085982059,
				"y": -1.7654758086,
				"z": -3.662282156,
				"element": "N" 
			},
			{
				"x": 0.6417754741,
				"y": -1.6595047016,
				"z": -5.0692625268,
				"element": "C" 
			},
			{
				"x": 0.4104106421,
				"y": -2.9637921834,
				"z": -3.0431885222,
				"element": "N" 
			},
			{
				"x": 0.1134608461,
				"y": -2.7053626468,
				"z": -1.7723714581,
				"element": "C" 
			},
			{
				"x": 1.7954548439,
				"y": 3.210841712,
				"z": -1.8808655572,
				"element": "H" 
			},
			{
				"x": 2.6969635985,
				"y": 1.8507190234,
				"z": -2.6293334283,
				"element": "H" 
			},
			{
				"x": 3.0588060894,
				"y": 2.376034209,
				"z": -0.9539051793,
				"element": "H" 
			},
			{
				"x": -1.4370016502,
				"y": 1.9418703028,
				"z": 3.1336028873,
				"element": "H" 
			},
			{
				"x": -0.2033251396,
				"y": 2.5442865305,
				"z": 2.0381216439,
				"element": "H" 
			},
			{
				"x": -2.0004568494,
				"y": -2.3762700066,
				"z": 0.2498785244,
				"element": "H" 
			},
			{
				"x": -0.1369893735,
				"y": 0.2535838312,
				"z": -3.1423536025,
				"element": "H" 
			},
			{
				"x": 1.7266945043,
				"y": -1.6527874627,
				"z": -5.2186810966,
				"element": "H" 
			},
			{
				"x": 0.2174894527,
				"y": -0.7371505772,
				"z": -5.4708505013,
				"element": "H" 
			},
			{
				"x": 0.2178697464,
				"y": -2.5146269831,
				"z": -5.598479966,
				"element": "H" 
			},
			{
				"x": 0.1243746443,
				"y": -3.5033924272,
				"z": -1.0415138466,
				"element": "H" 
			}
		],
		 "valence_orbital": [ 
			{
				"type": "occ",
				"energy": -0.27236,
				"method": "rhf"
			},
			{
				"type": "occ",
				"energy": -0.26279,
				"method": "rhf"
			},
			{
				"type": "occ",
				"energy": -0.24283,
				"method": "rhf"
			},
			{
				"type": "occ",
				"energy": -0.22455,
				"method": "rhf"
			},
			{
				"type": "occ",
				"energy": -0.19127,
				"method": "rhf"
			},
			{
				"type": "unocc",
				"energy": -0.01678,
				"method": "rhf"
			},
			{
				"type": "unocc",
				"energy": 0.00293,
				"method": "rhf"
			},
			{
				"type": "unocc",
				"energy": 0.01305,
				"method": "rhf"
			},
			{
				"type": "unocc",
				"energy": 0.02884,
				"method": "rhf"
			},
			{
				"type": "unocc",
				"energy": 0.08514,
				"method": "rhf"
			}
		],
		"cosmo_sigma_profile": { 
			"-0.025": 0.0,
			"-0.024": 0.0,
			"-0.023": 0.0,
			"-0.022": 0.0,
			"-0.021": 0.0,
			"-0.02": 0.0,
			"-0.019": 0.0,
			"-0.018": 0.0,
			"-0.017": 0.0,
			"-0.016": 0.0,
			"-0.015": 0.753244798928,
			"-0.014": 1.34330432252,
			"-0.013": 1.24900631621,
			"-0.012": 1.55966173503,
			"-0.011": 1.23434477297,
			"-0.01": 1.48613732437,
			"-0.009": 1.90550893627,
			"-0.008": 5.08105081021,
			"-0.007": 8.15568503261,
			"-0.006": 13.6439896528,
			"-0.005": 17.5676256765,
			"-0.004": 20.6296845504,
			"-0.003": 24.7952814267,
			"-0.002": 15.8352903324,
			"-0.001": 14.6971636741,
			"0.0": 15.0452297085,
			"0.001": 13.2406303348,
			"0.002": 16.448191142,
			"0.003": 20.1347197469,
			"0.004": 20.2012619493,
			"0.005": 13.6643199511,
			"0.006": 6.60836149024,
			"0.007": 5.75649694508,
			"0.008": 4.93191449759,
			"0.009": 3.5694746161,
			"0.01": 3.24779623557,
			"0.011": 3.40764826629,
			"0.012": 2.74744716941,
			"0.013": 1.85802782911,
			"0.014": 1.20327895168,
			"0.015": 0.852503460201,
			"0.016": 0.841645250058,
			"0.017": 0.042478451147,
			"0.018": 0.0,
			"0.019": 0.0,
			"0.02": 0.0,
			"0.021": 0.0,
			"0.022": 0.0,
			"0.023": 0.0,
			"0.024": 0.0,
			"0.025": 0.0
		}
	}
}
