{
	 "smiles": "CCCCCCCCOC1=CC=C(C=C1OCCCCCCCC)C(C)=O", 
	 "Tm": 333.15, 
	 "num_atms": 67, 
	 "gaussian": { 
		 "optdone": 1, 
		 "sigma_profile": "yes", 
		 "theory": "DFT", 
		 "functional": "B3LYP", 
		 "basiset": "6-31G**", 
		 "properties": { 
			 "R2extent": 20047.4354, 
			 "electric_dipole_moment_norm": 4.54260649848, 
			 "electric_quadrupole_moment_norm": 34.8376890043, 
			 "total_energy": -1164.36213478, 
			 "HOMO_LUMO_gap": 0.17234, 
			 "cosmo_polarized_energy": -12.07, 
			 "cosmo_cavitation_energy": 66.68, 
			 "cosmo_dispersion_energy": -43.36, 
			 "cosmo_repulsion_energy": 3.45, 
			 "cosmo_total_nonelectrostatic_energy": 26.77, 
			 "SMD_solvation_energy": 10.64 
		},
		"coords": [
			{
				"x": -3.1239381367,
				"y": 7.3817441138,
				"z": -0.9212965703,
				"element": "C" 
			},
			{
				"x": -1.6109569213,
				"y": 7.426825468,
				"z": -1.1654148342,
				"element": "C" 
			},
			{
				"x": -1.0144248536,
				"y": 6.109816586,
				"z": -1.693695137,
				"element": "C" 
			},
			{
				"x": -1.1310193871,
				"y": 4.8911028794,
				"z": -0.7601733888,
				"element": "C" 
			},
			{
				"x": -0.3624791154,
				"y": 5.0296216509,
				"z": 0.5628126694,
				"element": "C" 
			},
			{
				"x": -0.4642277057,
				"y": 3.8072727939,
				"z": 1.4907924561,
				"element": "C" 
			},
			{
				"x": 0.2332589881,
				"y": 2.5457563047,
				"z": 0.963129336,
				"element": "C" 
			},
			{
				"x": 0.1681828745,
				"y": 1.3645913029,
				"z": 1.9209184757,
				"element": "C" 
			},
			{
				"x": -1.2171702494,
				"y": 0.9974751668,
				"z": 2.0790430008,
				"element": "O" 
			},
			{
				"x": -1.4884754884,
				"y": -0.0266901909,
				"z": 2.9444043628,
				"element": "C" 
			},
			{
				"x": -2.1960223066,
				"y": 0.2479822607,
				"z": 4.114420206,
				"element": "C" 
			},
			{
				"x": -2.548352277,
				"y": -0.771943007,
				"z": 4.9934361388,
				"element": "C" 
			},
			{
				"x": -2.1852351988,
				"y": -2.0937741872,
				"z": 4.7130801624,
				"element": "C" 
			},
			{
				"x": -1.4753909827,
				"y": -2.3808256017,
				"z": 3.5322480637,
				"element": "C" 
			},
			{
				"x": -1.1304336047,
				"y": -1.3630499841,
				"z": 2.6422150735,
				"element": "C" 
			},
			{
				"x": -0.4670717393,
				"y": -1.5525627086,
				"z": 1.4646383084,
				"element": "O" 
			},
			{
				"x": -0.1506877771,
				"y": -2.8842369482,
				"z": 1.0556262315,
				"element": "C" 
			},
			{
				"x": 0.4924822147,
				"y": -2.811942803,
				"z": -0.3238321371,
				"element": "C" 
			},
			{
				"x": -0.4543452874,
				"y": -2.276447013,
				"z": -1.4064962546,
				"element": "C" 
			},
			{
				"x": 0.1081096966,
				"y": -2.2617656238,
				"z": -2.8390123513,
				"element": "C" 
			},
			{
				"x": 1.3141055457,
				"y": -1.3250465042,
				"z": -3.0832191129,
				"element": "C" 
			},
			{
				"x": 2.6910705166,
				"y": -1.9971605578,
				"z": -2.9519683938,
				"element": "C" 
			},
			{
				"x": 3.8855957642,
				"y": -1.0445258839,
				"z": -3.1296097913,
				"element": "C" 
			},
			{
				"x": 4.013126494,
				"y": -0.4337444545,
				"z": -4.5305862419,
				"element": "C" 
			},
			{
				"x": -2.5752426783,
				"y": -3.158798114,
				"z": 5.6891689321,
				"element": "C" 
			},
			{
				"x": -2.1911338648,
				"y": -4.6022084011,
				"z": 5.398859564,
				"element": "C" 
			},
			{
				"x": -3.1930804917,
				"y": -2.8798282833,
				"z": 6.7068407775,
				"element": "O" 
			},
			{
				"x": -3.3912714799,
				"y": 6.6641611347,
				"z": -0.1385845528,
				"element": "H" 
			},
			{
				"x": -3.6622425573,
				"y": 7.0920668239,
				"z": -1.8314930287,
				"element": "H" 
			},
			{
				"x": -3.5022793181,
				"y": 8.3609691769,
				"z": -0.609659598,
				"element": "H" 
			},
			{
				"x": -1.3911500322,
				"y": 8.2181515407,
				"z": -1.893627209,
				"element": "H" 
			},
			{
				"x": -1.1004341755,
				"y": 7.7249305704,
				"z": -0.2408201077,
				"element": "H" 
			},
			{
				"x": -1.5001972825,
				"y": 5.8659361482,
				"z": -2.6486498743,
				"element": "H" 
			},
			{
				"x": 0.0467559204,
				"y": 6.2730818703,
				"z": -1.9278728255,
				"element": "H" 
			},
			{
				"x": -2.1875833329,
				"y": 4.6854699111,
				"z": -0.5417361749,
				"element": "H" 
			},
			{
				"x": -0.7648157066,
				"y": 4.0124580317,
				"z": -1.3056502725,
				"element": "H" 
			},
			{
				"x": -0.7350185756,
				"y": 5.905383479,
				"z": 1.108556157,
				"element": "H" 
			},
			{
				"x": 0.696141686,
				"y": 5.2373265894,
				"z": 0.3465498076,
				"element": "H" 
			},
			{
				"x": -0.0250904708,
				"y": 4.0649668044,
				"z": 2.4646530594,
				"element": "H" 
			},
			{
				"x": -1.5187485825,
				"y": 3.5760816131,
				"z": 1.682558302,
				"element": "H" 
			},
			{
				"x": -0.202445945,
				"y": 2.2332300013,
				"z": 0.0071194141,
				"element": "H" 
			},
			{
				"x": 1.293825109,
				"y": 2.7602791686,
				"z": 0.771370109,
				"element": "H" 
			},
			{
				"x": 0.733929708,
				"y": 0.5126940135,
				"z": 1.5306398234,
				"element": "H" 
			},
			{
				"x": 0.5790393884,
				"y": 1.6353510147,
				"z": 2.9047955449,
				"element": "H" 
			},
			{
				"x": -2.4668041934,
				"y": 1.2808703911,
				"z": 4.3092323504,
				"element": "H" 
			},
			{
				"x": -3.098116911,
				"y": -0.5680425543,
				"z": 5.9052774465,
				"element": "H" 
			},
			{
				"x": -1.2001758367,
				"y": -3.4028307666,
				"z": 3.3064421451,
				"element": "H" 
			},
			{
				"x": -1.0687013553,
				"y": -3.4893837353,
				"z": 1.0244608761,
				"element": "H" 
			},
			{
				"x": 0.5352206912,
				"y": -3.3440844059,
				"z": 1.7815451924,
				"element": "H" 
			},
			{
				"x": 1.3899681219,
				"y": -2.1874889537,
				"z": -0.2504834108,
				"element": "H" 
			},
			{
				"x": 0.831812018,
				"y": -3.8231504713,
				"z": -0.585750188,
				"element": "H" 
			},
			{
				"x": -0.767340931,
				"y": -1.2628371709,
				"z": -1.1294230095,
				"element": "H" 
			},
			{
				"x": -1.3677399692,
				"y": -2.8879489843,
				"z": -1.4001014424,
				"element": "H" 
			},
			{
				"x": -0.7120750922,
				"y": -1.9622583342,
				"z": -3.5027209443,
				"element": "H" 
			},
			{
				"x": 0.3743963349,
				"y": -3.2849477092,
				"z": -3.1408023381,
				"element": "H" 
			},
			{
				"x": 1.2569179458,
				"y": -0.468890574,
				"z": -2.3951639586,
				"element": "H" 
			},
			{
				"x": 1.229212426,
				"y": -0.90109122,
				"z": -4.0905563913,
				"element": "H" 
			},
			{
				"x": 2.7746478488,
				"y": -2.4821813013,
				"z": -1.9720276587,
				"element": "H" 
			},
			{
				"x": 2.7620012353,
				"y": -2.8060373355,
				"z": -3.6936907719,
				"element": "H" 
			},
			{
				"x": 3.8179466062,
				"y": -0.239042192,
				"z": -2.3850970531,
				"element": "H" 
			},
			{
				"x": 4.8073664993,
				"y": -1.593195438,
				"z": -2.8971208022,
				"element": "H" 
			},
			{
				"x": 4.0814572018,
				"y": -1.2154529599,
				"z": -5.2963576953,
				"element": "H" 
			},
			{
				"x": 4.9126103793,
				"y": 0.1857946825,
				"z": -4.6088403037,
				"element": "H" 
			},
			{
				"x": 3.1570674358,
				"y": 0.2007715806,
				"z": -4.7814081085,
				"element": "H" 
			},
			{
				"x": -1.1041558642,
				"y": -4.7126715629,
				"z": 5.315907857,
				"element": "H" 
			},
			{
				"x": -2.628522443,
				"y": -4.9445353407,
				"z": 4.4543207665,
				"element": "H" 
			},
			{
				"x": -2.5561505296,
				"y": -5.2287417967,
				"z": 6.2130793228,
				"element": "H" 
			}
		],
		 "valence_orbital": [ 
			{
				"type": "occ",
				"energy": -0.30068,
				"method": "rhf"
			},
			{
				"type": "occ",
				"energy": -0.27454,
				"method": "rhf"
			},
			{
				"type": "occ",
				"energy": -0.24811,
				"method": "rhf"
			},
			{
				"type": "occ",
				"energy": -0.24156,
				"method": "rhf"
			},
			{
				"type": "occ",
				"energy": -0.21977,
				"method": "rhf"
			},
			{
				"type": "unocc",
				"energy": -0.04743,
				"method": "rhf"
			},
			{
				"type": "unocc",
				"energy": 0.00396,
				"method": "rhf"
			},
			{
				"type": "unocc",
				"energy": 0.0491,
				"method": "rhf"
			},
			{
				"type": "unocc",
				"energy": 0.07398,
				"method": "rhf"
			},
			{
				"type": "unocc",
				"energy": 0.08218,
				"method": "rhf"
			}
		],
		"cosmo_sigma_profile": { 
			"-0.025": 0.0,
			"-0.024": 0.0,
			"-0.023": 0.0,
			"-0.022": 0.0,
			"-0.021": 0.0,
			"-0.02": 0.0,
			"-0.019": 0.0,
			"-0.018": 0.0,
			"-0.017": 0.0,
			"-0.016": 0.0,
			"-0.015": 0.0,
			"-0.014": 0.0,
			"-0.013": 0.0,
			"-0.012": 0.0,
			"-0.011": 0.0,
			"-0.01": 0.0,
			"-0.009": 0.0,
			"-0.008": 0.0,
			"-0.007": 2.20003580955,
			"-0.006": 9.72378165063,
			"-0.005": 14.1023662719,
			"-0.004": 20.9996948216,
			"-0.003": 34.5586774319,
			"-0.002": 69.9563555995,
			"-0.001": 91.2774579671,
			"0.0": 89.8007096193,
			"0.001": 76.4346349872,
			"0.002": 40.9555829678,
			"0.003": 17.8579075107,
			"0.004": 13.0291689771,
			"0.005": 5.49270482847,
			"0.006": 5.00955763647,
			"0.007": 3.9672091253,
			"0.008": 3.57457430712,
			"0.009": 3.24692584513,
			"0.01": 3.42093506088,
			"0.011": 3.78324656281,
			"0.012": 4.13455931124,
			"0.013": 2.25057095869,
			"0.014": 0.322136889407,
			"0.015": 0.0,
			"0.016": 0.0,
			"0.017": 0.0,
			"0.018": 0.0,
			"0.019": 0.0,
			"0.02": 0.0,
			"0.021": 0.0,
			"0.022": 0.0,
			"0.023": 0.0,
			"0.024": 0.0,
			"0.025": 0.0
		}
	}
}
