{
	 "smiles": "FC(F)(F)C1=C(C=C(S1)C1=NC(=NO1)C1=CC=CC(=C1)C(F)(F)F)C1=CC=CC=C1", 
	 "Tm": 368.65, 
	 "num_atms": 40, 
	 "gaussian": { 
		 "optdone": 1, 
		 "sigma_profile": "yes", 
		 "theory": "DFT", 
		 "functional": "B3LYP", 
		 "basiset": "6-31G**", 
		 "properties": { 
			 "R2extent": 22363.5657, 
			 "electric_dipole_moment_norm": 5.09221549132, 
			 "electric_quadrupole_moment_norm": 12.3917003599, 
			 "total_energy": -1950.08441745, 
			 "HOMO_LUMO_gap": 0.15695, 
			 "cosmo_polarized_energy": -9.4, 
			 "cosmo_cavitation_energy": 50.86, 
			 "cosmo_dispersion_energy": -35.84, 
			 "cosmo_repulsion_energy": 2.48, 
			 "cosmo_total_nonelectrostatic_energy": 17.5, 
			 "SMD_solvation_energy": 8.64 
		},
		"coords": [
			{
				"x": -3.5693585432,
				"y": 4.9526467489,
				"z": 0.0105164896,
				"element": "F" 
			},
			{
				"x": -3.1153728492,
				"y": 4.2123128875,
				"z": -1.0155665125,
				"element": "C" 
			},
			{
				"x": -4.1797413064,
				"y": 3.6256663782,
				"z": -1.6079221175,
				"element": "F" 
			},
			{
				"x": -2.5910498788,
				"y": 5.0709342874,
				"z": -1.9265107536,
				"element": "F" 
			},
			{
				"x": -2.1213574789,
				"y": 3.1811839607,
				"z": -0.5732021479,
				"element": "C" 
			},
			{
				"x": -1.0803641848,
				"y": 3.3067396856,
				"z": 0.3331702453,
				"element": "C" 
			},
			{
				"x": -0.3870283306,
				"y": 2.0673901846,
				"z": 0.4781319996,
				"element": "C" 
			},
			{
				"x": -0.8916798481,
				"y": 1.0554645744,
				"z": -0.3040307408,
				"element": "C" 
			},
			{
				"x": -2.2527240302,
				"y": 1.5850448557,
				"z": -1.2443415843,
				"element": "S" 
			},
			{
				"x": -0.386801445,
				"y": -0.2961348133,
				"z": -0.3775675843,
				"element": "C" 
			},
			{
				"x": 0.6156207115,
				"y": -0.8159914578,
				"z": 0.2776859743,
				"element": "N" 
			},
			{
				"x": 0.631222099,
				"y": -2.1131268941,
				"z": -0.1878515182,
				"element": "C" 
			},
			{
				"x": -0.3018705518,
				"y": -2.3849125199,
				"z": -1.076573845,
				"element": "N" 
			},
			{
				"x": -0.9883402226,
				"y": -1.1703190519,
				"z": -1.2082769228,
				"element": "O" 
			},
			{
				"x": 1.6075154707,
				"y": -3.1133835039,
				"z": 0.2666491219,
				"element": "C" 
			},
			{
				"x": 2.5797067733,
				"y": -2.7565981399,
				"z": 1.2101812238,
				"element": "C" 
			},
			{
				"x": 3.5059925604,
				"y": -3.7013849761,
				"z": 1.6503788616,
				"element": "C" 
			},
			{
				"x": 3.4711230442,
				"y": -5.0028426312,
				"z": 1.1543139005,
				"element": "C" 
			},
			{
				"x": 2.5004376125,
				"y": -5.3585633187,
				"z": 0.210623823,
				"element": "C" 
			},
			{
				"x": 1.5705589704,
				"y": -4.4226809605,
				"z": -0.2341697514,
				"element": "C" 
			},
			{
				"x": 2.5029632808,
				"y": -6.7516430124,
				"z": -0.3625314067,
				"element": "C" 
			},
			{
				"x": 3.3992643089,
				"y": -6.8707204771,
				"z": -1.3691846759,
				"element": "F" 
			},
			{
				"x": 2.8392777817,
				"y": -7.6715516889,
				"z": 0.5697574993,
				"element": "F" 
			},
			{
				"x": 1.2978596167,
				"y": -7.0974371075,
				"z": -0.8612584165,
				"element": "F" 
			},
			{
				"x": -0.6863750918,
				"y": 4.5188968693,
				"z": 1.0915047857,
				"element": "C" 
			},
			{
				"x": -0.3410617316,
				"y": 4.3983568195,
				"z": 2.4483432568,
				"element": "C" 
			},
			{
				"x": 0.0622840459,
				"y": 5.5128648075,
				"z": 3.1814711838,
				"element": "C" 
			},
			{
				"x": 0.1329814501,
				"y": 6.7657246544,
				"z": 2.5696836176,
				"element": "C" 
			},
			{
				"x": -0.202973116,
				"y": 6.895206189,
				"z": 1.2209884171,
				"element": "C" 
			},
			{
				"x": -0.6082737652,
				"y": 5.7829104925,
				"z": 0.4850709255,
				"element": "C" 
			},
			{
				"x": 0.4735067994,
				"y": 1.9297818424,
				"z": 1.1207968068,
				"element": "H" 
			},
			{
				"x": 2.5965127958,
				"y": -1.74124991,
				"z": 1.590506033,
				"element": "H" 
			},
			{
				"x": 4.2549496799,
				"y": -3.4223133137,
				"z": 2.384841448,
				"element": "H" 
			},
			{
				"x": 4.1838523123,
				"y": -5.744114151,
				"z": 1.4997270538,
				"element": "H" 
			},
			{
				"x": 0.815122494,
				"y": -4.7023786877,
				"z": -0.9591358523,
				"element": "H" 
			},
			{
				"x": -0.40969731,
				"y": 3.4295745876,
				"z": 2.9346462542,
				"element": "H" 
			},
			{
				"x": 0.3173617729,
				"y": 5.4024728414,
				"z": 4.2313670953,
				"element": "H" 
			},
			{
				"x": 0.4487884785,
				"y": 7.6345013257,
				"z": 3.1396792883,
				"element": "H" 
			},
			{
				"x": -0.1438823415,
				"y": 7.8649651399,
				"z": 0.7356675632,
				"element": "H" 
			},
			{
				"x": -0.8529500332,
				"y": 5.8924074833,
				"z": -0.5648790383,
				"element": "H" 
			}
		],
		 "valence_orbital": [ 
			{
				"type": "occ",
				"energy": -0.27741,
				"method": "rhf"
			},
			{
				"type": "occ",
				"energy": -0.27206,
				"method": "rhf"
			},
			{
				"type": "occ",
				"energy": -0.26421,
				"method": "rhf"
			},
			{
				"type": "occ",
				"energy": -0.2579,
				"method": "rhf"
			},
			{
				"type": "occ",
				"energy": -0.24485,
				"method": "rhf"
			},
			{
				"type": "unocc",
				"energy": -0.0879,
				"method": "rhf"
			},
			{
				"type": "unocc",
				"energy": -0.05666,
				"method": "rhf"
			},
			{
				"type": "unocc",
				"energy": -0.03744,
				"method": "rhf"
			},
			{
				"type": "unocc",
				"energy": -0.03064,
				"method": "rhf"
			},
			{
				"type": "unocc",
				"energy": -0.01596,
				"method": "rhf"
			}
		],
		"cosmo_sigma_profile": { 
			"-0.025": 0.0,
			"-0.024": 0.0,
			"-0.023": 0.0,
			"-0.022": 0.0,
			"-0.021": 0.0,
			"-0.02": 0.0,
			"-0.019": 0.0,
			"-0.018": 0.0,
			"-0.017": 0.0,
			"-0.016": 0.0,
			"-0.015": 0.0,
			"-0.014": 0.0,
			"-0.013": 0.0,
			"-0.012": 0.0,
			"-0.011": 0.0,
			"-0.01": 0.0,
			"-0.009": 0.0609687123587,
			"-0.008": 2.04659066528,
			"-0.007": 7.62674852394,
			"-0.006": 16.6812675804,
			"-0.005": 22.2118981026,
			"-0.004": 25.3217245639,
			"-0.003": 23.4002348295,
			"-0.002": 27.3941965095,
			"-0.001": 43.0088248573,
			"0.0": 47.8722639902,
			"0.001": 45.8076122059,
			"0.002": 65.5722149804,
			"0.003": 45.1532522411,
			"0.004": 14.5142443139,
			"0.005": 13.4589379558,
			"0.006": 3.37965543464,
			"0.007": 2.62660372696,
			"0.008": 3.10522891814,
			"0.009": 1.96645961205,
			"0.01": 1.29252473535,
			"0.011": 1.10492065377,
			"0.012": 0.193559951933,
			"0.013": 0.0,
			"0.014": 0.0,
			"0.015": 0.0,
			"0.016": 0.0,
			"0.017": 0.0,
			"0.018": 0.0,
			"0.019": 0.0,
			"0.02": 0.0,
			"0.021": 0.0,
			"0.022": 0.0,
			"0.023": 0.0,
			"0.024": 0.0,
			"0.025": 0.0
		}
	}
}
