{
	 "smiles": "CC1=C(CCl)C=CC=C1[N+]([O-])=O", 
	 "Tm": 317.65, 
	 "num_atms": 20, 
	 "gaussian": { 
		 "optdone": 1, 
		 "sigma_profile": "yes", 
		 "theory": "DFT", 
		 "functional": "B3LYP", 
		 "basiset": "6-31G**", 
		 "properties": { 
			 "R2extent": 2623.3835, 
			 "electric_dipole_moment_norm": 4.10084321817, 
			 "electric_quadrupole_moment_norm": 12.5475681066, 
			 "total_energy": -974.96883303, 
			 "HOMO_LUMO_gap": 0.1834, 
			 "cosmo_polarized_energy": -10.52, 
			 "cosmo_cavitation_energy": 25.64, 
			 "cosmo_dispersion_energy": -18.8, 
			 "cosmo_repulsion_energy": 1.49, 
			 "cosmo_total_nonelectrostatic_energy": 8.33, 
			 "SMD_solvation_energy": 6.14 
		},
		"coords": [
			{
				"x": -1.8060643124,
				"y": -0.5761383688,
				"z": 0.1502651507,
				"element": "C" 
			},
			{
				"x": -0.4066003406,
				"y": -0.0110503497,
				"z": 0.0950010949,
				"element": "C" 
			},
			{
				"x": 0.2263527482,
				"y": 0.485399061,
				"z": 1.2610430104,
				"element": "C" 
			},
			{
				"x": -0.4495279624,
				"y": 0.4655351581,
				"z": 2.6042704234,
				"element": "C" 
			},
			{
				"x": -1.7313504489,
				"y": 1.7645724044,
				"z": 2.7732929953,
				"element": "Cl" 
			},
			{
				"x": 1.521943906,
				"y": 1.0133542479,
				"z": 1.2001438076,
				"element": "C" 
			},
			{
				"x": 2.2412773129,
				"y": 1.0445072404,
				"z": 0.0080811174,
				"element": "C" 
			},
			{
				"x": 1.6545127593,
				"y": 0.5459531277,
				"z": -1.1459555892,
				"element": "C" 
			},
			{
				"x": 0.3517391693,
				"y": 0.0467250658,
				"z": -1.0904655605,
				"element": "C" 
			},
			{
				"x": -0.1956297109,
				"y": -0.420982048,
				"z": -2.3798511464,
				"element": "N" 
			},
			{
				"x": 0.6097367659,
				"y": -0.8020215635,
				"z": -3.2293068863,
				"element": "O" 
			},
			{
				"x": -1.4145912555,
				"y": -0.3847412368,
				"z": -2.5457531486,
				"element": "O" 
			},
			{
				"x": -2.5304334046,
				"y": 0.1561757546,
				"z": -0.2169292686,
				"element": "H" 
			},
			{
				"x": -1.9106511788,
				"y": -1.4597731612,
				"z": -0.4803454877,
				"element": "H" 
			},
			{
				"x": -2.0876076753,
				"y": -0.8390477297,
				"z": 1.1697651882,
				"element": "H" 
			},
			{
				"x": -0.9575854651,
				"y": -0.4748725583,
				"z": 2.8147960219,
				"element": "H" 
			},
			{
				"x": 0.2675555376,
				"y": 0.6604630591,
				"z": 3.4006718669,
				"element": "H" 
			},
			{
				"x": 1.97275671,
				"y": 1.4023686743,
				"z": 2.1089343466,
				"element": "H" 
			},
			{
				"x": 3.2463826151,
				"y": 1.4518415209,
				"z": -0.0202255417,
				"element": "H" 
			},
			{
				"x": 2.1753842301,
				"y": 0.5361317016,
				"z": -2.0949323944,
				"element": "H" 
			}
		],
		 "valence_orbital": [ 
			{
				"type": "occ",
				"energy": -0.30519,
				"method": "rhf"
			},
			{
				"type": "occ",
				"energy": -0.3042,
				"method": "rhf"
			},
			{
				"type": "occ",
				"energy": -0.29854,
				"method": "rhf"
			},
			{
				"type": "occ",
				"energy": -0.27749,
				"method": "rhf"
			},
			{
				"type": "occ",
				"energy": -0.27191,
				"method": "rhf"
			},
			{
				"type": "unocc",
				"energy": -0.08851,
				"method": "rhf"
			},
			{
				"type": "unocc",
				"energy": -0.04624,
				"method": "rhf"
			},
			{
				"type": "unocc",
				"energy": -0.01392,
				"method": "rhf"
			},
			{
				"type": "unocc",
				"energy": 0.0287,
				"method": "rhf"
			},
			{
				"type": "unocc",
				"energy": 0.07393,
				"method": "rhf"
			}
		],
		"cosmo_sigma_profile": { 
			"-0.025": 0.0,
			"-0.024": 0.0,
			"-0.023": 0.0,
			"-0.022": 0.0,
			"-0.021": 0.0,
			"-0.02": 0.0,
			"-0.019": 0.0,
			"-0.018": 0.0,
			"-0.017": 0.0,
			"-0.016": 0.0,
			"-0.015": 0.0,
			"-0.014": 0.0,
			"-0.013": 0.0,
			"-0.012": 0.0,
			"-0.011": 0.0,
			"-0.01": 0.0833230642284,
			"-0.009": 2.99963538659,
			"-0.008": 7.53806865486,
			"-0.007": 10.8487904066,
			"-0.006": 11.9375674123,
			"-0.005": 12.8460271893,
			"-0.004": 12.8067581698,
			"-0.003": 12.0299498271,
			"-0.002": 11.3000562062,
			"-0.001": 14.6233978209,
			"0.0": 15.4199349157,
			"0.001": 15.6030582393,
			"0.002": 15.0200230772,
			"0.003": 9.73569965115,
			"0.004": 7.96316558864,
			"0.005": 8.94935457603,
			"0.006": 12.8858341069,
			"0.007": 9.83047938929,
			"0.008": 7.08448243054,
			"0.009": 4.35913533419,
			"0.01": 2.68506852922,
			"0.011": 0.228173945882,
			"0.012": 0.0,
			"0.013": 0.0,
			"0.014": 0.0,
			"0.015": 0.0,
			"0.016": 0.0,
			"0.017": 0.0,
			"0.018": 0.0,
			"0.019": 0.0,
			"0.02": 0.0,
			"0.021": 0.0,
			"0.022": 0.0,
			"0.023": 0.0,
			"0.024": 0.0,
			"0.025": 0.0
		}
	}
}
