{
	 "smiles": "ClCC(=O)NC1=CN=C(C=C1)N1CCCCC1", 
	 "Tm": 413.15, 
	 "num_atms": 33, 
	 "gaussian": { 
		 "optdone": 1, 
		 "sigma_profile": "yes", 
		 "theory": "DFT", 
		 "functional": "B3LYP", 
		 "basiset": "6-31G**", 
		 "properties": { 
			 "R2extent": 7402.971, 
			 "electric_dipole_moment_norm": 5.61698054207, 
			 "electric_quadrupole_moment_norm": 19.3474939532, 
			 "total_energy": -1166.6091366, 
			 "HOMO_LUMO_gap": 0.17901, 
			 "cosmo_polarized_energy": -13.62, 
			 "cosmo_cavitation_energy": 36.6, 
			 "cosmo_dispersion_energy": -26.68, 
			 "cosmo_repulsion_energy": 2.1, 
			 "cosmo_total_nonelectrostatic_energy": 12.02, 
			 "SMD_solvation_energy": 4.47 
		},
		"coords": [
			{
				"x": 4.7947573137,
				"y": -1.5140214368,
				"z": 1.9742520823,
				"element": "Cl" 
			},
			{
				"x": 3.5730467885,
				"y": -0.7304594969,
				"z": 3.0665561242,
				"element": "C" 
			},
			{
				"x": 2.643614441,
				"y": -1.7747859111,
				"z": 3.6837536079,
				"element": "C" 
			},
			{
				"x": 2.9341021822,
				"y": -2.3429656569,
				"z": 4.7244953668,
				"element": "O" 
			},
			{
				"x": 1.4649732644,
				"y": -2.0256229421,
				"z": 3.0236007904,
				"element": "N" 
			},
			{
				"x": 0.9704821793,
				"y": -1.4458445956,
				"z": 1.8175433665,
				"element": "C" 
			},
			{
				"x": -0.099781853,
				"y": -0.5494875223,
				"z": 1.8458573142,
				"element": "C" 
			},
			{
				"x": -0.6474797048,
				"y": -0.0023835995,
				"z": 0.7637562319,
				"element": "N" 
			},
			{
				"x": -0.1538470771,
				"y": -0.3103193884,
				"z": -0.4548682713,
				"element": "C" 
			},
			{
				"x": 0.9527674305,
				"y": -1.1913168918,
				"z": -0.5815789239,
				"element": "C" 
			},
			{
				"x": 1.4936276768,
				"y": -1.7650093976,
				"z": 0.5564778596,
				"element": "C" 
			},
			{
				"x": -0.7958057242,
				"y": 0.2549600323,
				"z": -1.5410985971,
				"element": "N" 
			},
			{
				"x": -0.2888858292,
				"y": 0.1089990834,
				"z": -2.9042211119,
				"element": "C" 
			},
			{
				"x": -1.4335093617,
				"y": 0.0840622228,
				"z": -3.9276852258,
				"element": "C" 
			},
			{
				"x": -2.3623418263,
				"y": 1.2931077836,
				"z": -3.7728799597,
				"element": "C" 
			},
			{
				"x": -2.8597647558,
				"y": 1.3836358893,
				"z": -2.3256326778,
				"element": "C" 
			},
			{
				"x": -1.687528649,
				"y": 1.4057868235,
				"z": -1.3412252789,
				"element": "C" 
			},
			{
				"x": 4.1337182546,
				"y": -0.2653269622,
				"z": 3.8748913534,
				"element": "H" 
			},
			{
				"x": 3.0491203488,
				"y": 0.0164587114,
				"z": 2.4713602099,
				"element": "H" 
			},
			{
				"x": 0.8891851317,
				"y": -2.7075460747,
				"z": 3.5041308092,
				"element": "H" 
			},
			{
				"x": -0.5346488175,
				"y": -0.2645165399,
				"z": 2.8040547774,
				"element": "H" 
			},
			{
				"x": 1.3901748102,
				"y": -1.4239366753,
				"z": -1.5430815651,
				"element": "H" 
			},
			{
				"x": 2.3327442234,
				"y": -2.4486458394,
				"z": 0.4781844758,
				"element": "H" 
			},
			{
				"x": 0.4056258074,
				"y": 0.9336095429,
				"z": -3.1428876708,
				"element": "H" 
			},
			{
				"x": 0.272190657,
				"y": -0.8212283048,
				"z": -2.9898922733,
				"element": "H" 
			},
			{
				"x": -2.0089327131,
				"y": -0.839514365,
				"z": -3.7859549356,
				"element": "H" 
			},
			{
				"x": -1.0026263827,
				"y": 0.0457625302,
				"z": -4.9349681942,
				"element": "H" 
			},
			{
				"x": -1.814838568,
				"y": 2.2114212932,
				"z": -4.0290183958,
				"element": "H" 
			},
			{
				"x": -3.203293579,
				"y": 1.2220251107,
				"z": -4.4717900177,
				"element": "H" 
			},
			{
				"x": -3.5007981014,
				"y": 0.5220646751,
				"z": -2.0995990258,
				"element": "H" 
			},
			{
				"x": -3.464726407,
				"y": 2.2854924477,
				"z": -2.1761285812,
				"element": "H" 
			},
			{
				"x": -1.1120409257,
				"y": 2.338047209,
				"z": -1.4788529025,
				"element": "H" 
			},
			{
				"x": -2.0332802343,
				"y": 1.3824982452,
				"z": -0.310050761,
				"element": "H" 
			}
		],
		 "valence_orbital": [ 
			{
				"type": "occ",
				"energy": -0.28686,
				"method": "rhf"
			},
			{
				"type": "occ",
				"energy": -0.27689,
				"method": "rhf"
			},
			{
				"type": "occ",
				"energy": -0.25622,
				"method": "rhf"
			},
			{
				"type": "occ",
				"energy": -0.2496,
				"method": "rhf"
			},
			{
				"type": "occ",
				"energy": -0.207,
				"method": "rhf"
			},
			{
				"type": "unocc",
				"energy": -0.02799,
				"method": "rhf"
			},
			{
				"type": "unocc",
				"energy": -0.02047,
				"method": "rhf"
			},
			{
				"type": "unocc",
				"energy": -0.00366,
				"method": "rhf"
			},
			{
				"type": "unocc",
				"energy": 0.06308,
				"method": "rhf"
			},
			{
				"type": "unocc",
				"energy": 0.07716,
				"method": "rhf"
			}
		],
		"cosmo_sigma_profile": { 
			"-0.025": 0.0,
			"-0.024": 0.0,
			"-0.023": 0.0,
			"-0.022": 0.0,
			"-0.021": 0.0,
			"-0.02": 0.0,
			"-0.019": 0.0,
			"-0.018": 0.0,
			"-0.017": 0.0,
			"-0.016": 0.0,
			"-0.015": 0.102595960015,
			"-0.014": 1.00530130484,
			"-0.013": 1.35501266009,
			"-0.012": 0.722715368071,
			"-0.011": 0.597865458776,
			"-0.01": 1.05542113609,
			"-0.009": 1.49136894448,
			"-0.008": 4.4528407444,
			"-0.007": 6.94308903829,
			"-0.006": 11.7832609573,
			"-0.005": 12.1607171363,
			"-0.004": 11.0631914964,
			"-0.003": 27.6928490409,
			"-0.002": 40.4832627037,
			"-0.001": 32.330785734,
			"0.0": 28.1659220231,
			"0.001": 19.8103677053,
			"0.002": 16.3724069917,
			"0.003": 15.3877765169,
			"0.004": 10.6808175386,
			"0.005": 12.5500118223,
			"0.006": 8.3725522428,
			"0.007": 3.23373597508,
			"0.008": 2.45512602566,
			"0.009": 2.79743996337,
			"0.01": 3.1599640255,
			"0.011": 3.38375564832,
			"0.012": 3.4364612989,
			"0.013": 5.58556199955,
			"0.014": 1.69046214821,
			"0.015": 0.0,
			"0.016": 0.0,
			"0.017": 0.0,
			"0.018": 0.0,
			"0.019": 0.0,
			"0.02": 0.0,
			"0.021": 0.0,
			"0.022": 0.0,
			"0.023": 0.0,
			"0.024": 0.0,
			"0.025": 0.0
		}
	}
}
