{
	 "smiles": "CC(=O)CCC1=CC=C(OCCC(O)=O)C=C1", 
	 "Tm": 376.15, 
	 "num_atms": 33, 
	 "gaussian": { 
		 "optdone": 1, 
		 "sigma_profile": "yes", 
		 "theory": "DFT", 
		 "functional": "B3LYP", 
		 "basiset": "6-31G**", 
		 "properties": { 
			 "R2extent": 6873.4898, 
			 "electric_dipole_moment_norm": 3.32360234836, 
			 "electric_quadrupole_moment_norm": 23.2846355898, 
			 "total_energy": -805.930984469, 
			 "HOMO_LUMO_gap": 0.20636, 
			 "cosmo_polarized_energy": -17.72, 
			 "cosmo_cavitation_energy": 37.18, 
			 "cosmo_dispersion_energy": -25.6, 
			 "cosmo_repulsion_energy": 2.04, 
			 "cosmo_total_nonelectrostatic_energy": 13.63, 
			 "SMD_solvation_energy": 8.2 
		},
		"coords": [
			{
				"x": -3.0813144083,
				"y": 4.1984444909,
				"z": 0.3750809722,
				"element": "C" 
			},
			{
				"x": -3.5639086098,
				"y": 3.1637181628,
				"z": -0.6273607728,
				"element": "C" 
			},
			{
				"x": -4.5130568536,
				"y": 2.4422773197,
				"z": -0.385653319,
				"element": "O" 
			},
			{
				"x": -2.8339462736,
				"y": 3.076335365,
				"z": -1.9658253372,
				"element": "C" 
			},
			{
				"x": -1.2915031122,
				"y": 3.0302564471,
				"z": -1.8885495308,
				"element": "C" 
			},
			{
				"x": -0.7294208098,
				"y": 1.8699964003,
				"z": -1.0884297842,
				"element": "C" 
			},
			{
				"x": -1.0621513137,
				"y": 0.5442672099,
				"z": -1.3871795575,
				"element": "C" 
			},
			{
				"x": -0.5422705466,
				"y": -0.5292555688,
				"z": -0.6606783757,
				"element": "C" 
			},
			{
				"x": 0.3419216647,
				"y": -0.2850563991,
				"z": 0.3982926881,
				"element": "C" 
			},
			{
				"x": 0.9307712229,
				"y": -1.2483385651,
				"z": 1.1751235401,
				"element": "O" 
			},
			{
				"x": 0.5903603703,
				"y": -2.6143150685,
				"z": 0.9718591296,
				"element": "C" 
			},
			{
				"x": -0.749015153,
				"y": -2.9703622061,
				"z": 1.6425430045,
				"element": "C" 
			},
			{
				"x": -1.1804512398,
				"y": -4.3928365936,
				"z": 1.3654674627,
				"element": "C" 
			},
			{
				"x": -1.2908448601,
				"y": -4.6239834975,
				"z": 0.0299307778,
				"element": "O" 
			},
			{
				"x": -1.4090383234,
				"y": -5.2446093265,
				"z": 2.193063433,
				"element": "O" 
			},
			{
				"x": 0.6889020939,
				"y": 1.0350682848,
				"z": 0.7117101124,
				"element": "C" 
			},
			{
				"x": 0.1592346532,
				"y": 2.0892374418,
				"z": -0.0247512097,
				"element": "C" 
			},
			{
				"x": -2.1392833246,
				"y": 3.8614863756,
				"z": 0.8232633528,
				"element": "H" 
			},
			{
				"x": -3.8255357547,
				"y": 4.3125733434,
				"z": 1.1644929399,
				"element": "H" 
			},
			{
				"x": -2.8871540202,
				"y": 5.1649759916,
				"z": -0.1029987277,
				"element": "H" 
			},
			{
				"x": -3.1248798922,
				"y": 3.9593988962,
				"z": -2.5536397359,
				"element": "H" 
			},
			{
				"x": -3.2321702993,
				"y": 2.2014264427,
				"z": -2.4867630888,
				"element": "H" 
			},
			{
				"x": -0.9151968568,
				"y": 3.9697964183,
				"z": -1.468754516,
				"element": "H" 
			},
			{
				"x": -0.9109564765,
				"y": 2.9905179423,
				"z": -2.917697373,
				"element": "H" 
			},
			{
				"x": -1.7457421188,
				"y": 0.3302162159,
				"z": -2.2045884822,
				"element": "H" 
			},
			{
				"x": -0.8362663812,
				"y": -1.5372504874,
				"z": -0.9293998736,
				"element": "H" 
			},
			{
				"x": 1.4027500339,
				"y": -3.1800436283,
				"z": 1.4358406541,
				"element": "H" 
			},
			{
				"x": 0.5740018005,
				"y": -2.8633026789,
				"z": -0.0941001737,
				"element": "H" 
			},
			{
				"x": -1.5286771612,
				"y": -2.2996886697,
				"z": 1.2646633501,
				"element": "H" 
			},
			{
				"x": -0.6782531327,
				"y": -2.840759438,
				"z": 2.7234197794,
				"element": "H" 
			},
			{
				"x": -1.5734563021,
				"y": -5.5495251619,
				"z": -0.0628945386,
				"element": "H" 
			},
			{
				"x": 1.3762975724,
				"y": 1.2098559687,
				"z": 1.532930628,
				"element": "H" 
			},
			{
				"x": 0.4485538122,
				"y": 3.1065785723,
				"z": 0.2289825718,
				"element": "H" 
			}
		],
		 "valence_orbital": [ 
			{
				"type": "occ",
				"energy": -0.31649,
				"method": "rhf"
			},
			{
				"type": "occ",
				"energy": -0.28078,
				"method": "rhf"
			},
			{
				"type": "occ",
				"energy": -0.25518,
				"method": "rhf"
			},
			{
				"type": "occ",
				"energy": -0.2397,
				"method": "rhf"
			},
			{
				"type": "occ",
				"energy": -0.21918,
				"method": "rhf"
			},
			{
				"type": "unocc",
				"energy": -0.01282,
				"method": "rhf"
			},
			{
				"type": "unocc",
				"energy": -0.00849,
				"method": "rhf"
			},
			{
				"type": "unocc",
				"energy": -0.00031,
				"method": "rhf"
			},
			{
				"type": "unocc",
				"energy": 0.00894,
				"method": "rhf"
			},
			{
				"type": "unocc",
				"energy": 0.06654,
				"method": "rhf"
			}
		],
		"cosmo_sigma_profile": { 
			"-0.025": 0.0,
			"-0.024": 0.0,
			"-0.023": 0.0,
			"-0.022": 0.0,
			"-0.021": 0.0,
			"-0.02": 0.0,
			"-0.019": 0.0173133994455,
			"-0.018": 0.666901012992,
			"-0.017": 1.07318844036,
			"-0.016": 0.771672388044,
			"-0.015": 0.751748190687,
			"-0.014": 0.938177065268,
			"-0.013": 0.734032217441,
			"-0.012": 0.472879561806,
			"-0.011": 0.397601279262,
			"-0.01": 1.02343962596,
			"-0.009": 0.443706768858,
			"-0.008": 0.815451365195,
			"-0.007": 4.15230644955,
			"-0.006": 16.1809196455,
			"-0.005": 29.0770683146,
			"-0.004": 31.8052635385,
			"-0.003": 29.734564667,
			"-0.002": 24.1316052566,
			"-0.001": 21.3025239983,
			"0.0": 14.9597847923,
			"0.001": 12.2325682848,
			"0.002": 11.4582474147,
			"0.003": 12.7362503388,
			"0.004": 13.4675385032,
			"0.005": 14.1504055373,
			"0.006": 9.66247695523,
			"0.007": 4.46881250205,
			"0.008": 5.04691421838,
			"0.009": 4.99863665228,
			"0.01": 5.26366538706,
			"0.011": 7.29855750961,
			"0.012": 8.39330398771,
			"0.013": 3.80003390107,
			"0.014": 0.487974950989,
			"0.015": 0.0,
			"0.016": 0.0,
			"0.017": 0.0,
			"0.018": 0.0,
			"0.019": 0.0,
			"0.02": 0.0,
			"0.021": 0.0,
			"0.022": 0.0,
			"0.023": 0.0,
			"0.024": 0.0,
			"0.025": 0.0
		}
	}
}
