{
	 "smiles": "OC(=O)C12CC3CC(CC(Cl)(C3)C1)C2", 
	 "Tm": 411.15, 
	 "num_atms": 29, 
	 "gaussian": { 
		 "optdone": 1, 
		 "sigma_profile": "yes", 
		 "theory": "DFT", 
		 "functional": "B3LYP", 
		 "basiset": "6-31G**", 
		 "properties": { 
			 "R2extent": 3408.8437, 
			 "electric_dipole_moment_norm": 2.22337964819, 
			 "electric_quadrupole_moment_norm": 14.0706885148, 
			 "total_energy": -1038.90600138, 
			 "HOMO_LUMO_gap": 0.27008, 
			 "cosmo_polarized_energy": -10.34, 
			 "cosmo_cavitation_energy": 29.28, 
			 "cosmo_dispersion_energy": -21.83, 
			 "cosmo_repulsion_energy": 1.68, 
			 "cosmo_total_nonelectrostatic_energy": 9.12, 
			 "SMD_solvation_energy": 4.49 
		},
		"coords": [
			{
				"x": 1.7903589231,
				"y": -1.5415469753,
				"z": -1.4552445561,
				"element": "O" 
			},
			{
				"x": 1.3391300511,
				"y": -1.0097500868,
				"z": -0.2904764929,
				"element": "C" 
			},
			{
				"x": 2.0295290263,
				"y": -0.9683561965,
				"z": 0.7049922585,
				"element": "O" 
			},
			{
				"x": -0.0915447707,
				"y": -0.5017099656,
				"z": -0.4043601976,
				"element": "C" 
			},
			{
				"x": -1.0444483793,
				"y": -1.6703981974,
				"z": -0.7813600757,
				"element": "C" 
			},
			{
				"x": -2.4890071135,
				"y": -1.1440121137,
				"z": -0.8942492233,
				"element": "C" 
			},
			{
				"x": -2.9294876009,
				"y": -0.5355069473,
				"z": 0.4517802919,
				"element": "C" 
			},
			{
				"x": -1.9880585858,
				"y": 0.6301291789,
				"z": 0.8158135779,
				"element": "C" 
			},
			{
				"x": -2.0597365855,
				"y": 1.7142925977,
				"z": -0.2850801861,
				"element": "C" 
			},
			{
				"x": -1.6208252108,
				"y": 1.0897296744,
				"z": -1.615668113,
				"element": "C" 
			},
			{
				"x": -1.6935434441,
				"y": 2.3803549657,
				"z": -2.9357848982,
				"element": "Cl" 
			},
			{
				"x": -2.5587870457,
				"y": -0.0628472032,
				"z": -1.998120641,
				"element": "C" 
			},
			{
				"x": -0.1740917229,
				"y": 0.5854110992,
				"z": -1.5180321596,
				"element": "C" 
			},
			{
				"x": -0.5421198025,
				"y": 0.1116278723,
				"z": 0.9386057706,
				"element": "C" 
			},
			{
				"x": 2.7007571244,
				"y": -1.8341535082,
				"z": -1.2813400407,
				"element": "H" 
			},
			{
				"x": -0.7235680365,
				"y": -2.119678924,
				"z": -1.7269789503,
				"element": "H" 
			},
			{
				"x": -0.9875575908,
				"y": -2.4526441746,
				"z": -0.0140634943,
				"element": "H" 
			},
			{
				"x": -3.1539916879,
				"y": -1.9727290707,
				"z": -1.1658847747,
				"element": "H" 
			},
			{
				"x": -3.9654025367,
				"y": -0.1800034819,
				"z": 0.3843896807,
				"element": "H" 
			},
			{
				"x": -2.9036532594,
				"y": -1.3004335776,
				"z": 1.237997869,
				"element": "H" 
			},
			{
				"x": -2.2960352288,
				"y": 1.0734049323,
				"z": 1.7702130833,
				"element": "H" 
			},
			{
				"x": -3.0792896874,
				"y": 2.1041553836,
				"z": -0.3777277568,
				"element": "H" 
			},
			{
				"x": -1.4066427601,
				"y": 2.5584386493,
				"z": -0.0379597654,
				"element": "H" 
			},
			{
				"x": -2.2595497617,
				"y": -0.4794567601,
				"z": -2.9661299249,
				"element": "H" 
			},
			{
				"x": -3.5823417035,
				"y": 0.3126765418,
				"z": -2.1043231326,
				"element": "H" 
			},
			{
				"x": 0.1454589478,
				"y": 0.1691073952,
				"z": -2.4771292907,
				"element": "H" 
			},
			{
				"x": 0.4937400177,
				"y": 1.4204609831,
				"z": -1.2793521889,
				"element": "H" 
			},
			{
				"x": -0.4687801151,
				"y": -0.642412049,
				"z": 1.7295663121,
				"element": "H" 
			},
			{
				"x": 0.1379885391,
				"y": 0.9231499582,
				"z": 1.219607019,
				"element": "H" 
			}
		],
		 "valence_orbital": [ 
			{
				"type": "occ",
				"energy": -0.30513,
				"method": "rhf"
			},
			{
				"type": "occ",
				"energy": -0.30263,
				"method": "rhf"
			},
			{
				"type": "occ",
				"energy": -0.29022,
				"method": "rhf"
			},
			{
				"type": "occ",
				"energy": -0.28326,
				"method": "rhf"
			},
			{
				"type": "occ",
				"energy": -0.27015,
				"method": "rhf"
			},
			{
				"type": "unocc",
				"energy": -7e-05,
				"method": "rhf"
			},
			{
				"type": "unocc",
				"energy": 0.02132,
				"method": "rhf"
			},
			{
				"type": "unocc",
				"energy": 0.06821,
				"method": "rhf"
			},
			{
				"type": "unocc",
				"energy": 0.08099,
				"method": "rhf"
			},
			{
				"type": "unocc",
				"energy": 0.11533,
				"method": "rhf"
			}
		],
		"cosmo_sigma_profile": { 
			"-0.025": 0.0,
			"-0.024": 0.0,
			"-0.023": 0.0,
			"-0.022": 0.0,
			"-0.021": 0.0,
			"-0.02": 0.0,
			"-0.019": 0.0610615291303,
			"-0.018": 0.537489390692,
			"-0.017": 0.910645726804,
			"-0.016": 0.912997372347,
			"-0.015": 1.09546942661,
			"-0.014": 0.312310554119,
			"-0.013": 0.357487383595,
			"-0.012": 0.677210517257,
			"-0.011": 1.10755212,
			"-0.01": 0.932173245928,
			"-0.009": 0.333887158603,
			"-0.008": 0.302848664619,
			"-0.007": 0.91197399998,
			"-0.006": 1.75204222813,
			"-0.005": 3.95693322315,
			"-0.004": 19.5152366422,
			"-0.003": 36.222618528,
			"-0.002": 32.0240300077,
			"-0.001": 28.4547706612,
			"0.0": 19.0272374864,
			"0.001": 10.8773130701,
			"0.002": 7.69473561375,
			"0.003": 7.32830223357,
			"0.004": 7.62280519391,
			"0.005": 8.55725806293,
			"0.006": 8.96473290665,
			"0.007": 12.3602057089,
			"0.008": 2.49048484777,
			"0.009": 1.78948065715,
			"0.01": 2.52381835869,
			"0.011": 3.20158955281,
			"0.012": 4.51489044261,
			"0.013": 0.483569304699,
			"0.014": 0.0,
			"0.015": 0.0,
			"0.016": 0.0,
			"0.017": 0.0,
			"0.018": 0.0,
			"0.019": 0.0,
			"0.02": 0.0,
			"0.021": 0.0,
			"0.022": 0.0,
			"0.023": 0.0,
			"0.024": 0.0,
			"0.025": 0.0
		}
	}
}
