{
	 "smiles": "CC1=C(Cl)C(N)=CC=N1", 
	 "Tm": 384.15, 
	 "num_atms": 16, 
	 "gaussian": { 
		 "optdone": 1, 
		 "sigma_profile": "yes", 
		 "theory": "DFT", 
		 "functional": "B3LYP", 
		 "basiset": "6-31G**", 
		 "properties": { 
			 "R2extent": 1735.6951, 
			 "electric_dipole_moment_norm": 3.12030721885, 
			 "electric_quadrupole_moment_norm": 8.63907417667, 
			 "total_energy": -802.563230088, 
			 "HOMO_LUMO_gap": 0.21842, 
			 "cosmo_polarized_energy": -9.7, 
			 "cosmo_cavitation_energy": 21.13, 
			 "cosmo_dispersion_energy": -16.14, 
			 "cosmo_repulsion_energy": 1.32, 
			 "cosmo_total_nonelectrostatic_energy": 6.31, 
			 "SMD_solvation_energy": 2.13 
		},
		"coords": [
			{
				"x": -1.7533761658,
				"y": 1.365321327,
				"z": -2.7187550044,
				"element": "C" 
			},
			{
				"x": -0.8559661334,
				"y": 1.5745780868,
				"z": -1.5272409178,
				"element": "C" 
			},
			{
				"x": -0.8080262208,
				"y": 0.6613686205,
				"z": -0.4670798755,
				"element": "C" 
			},
			{
				"x": -1.8223132284,
				"y": -0.78583452,
				"z": -0.4919853847,
				"element": "Cl" 
			},
			{
				"x": 0.0346668975,
				"y": 0.8682766162,
				"z": 0.6418018607,
				"element": "C" 
			},
			{
				"x": 0.1321314143,
				"y": -0.0372574606,
				"z": 1.6693251573,
				"element": "N" 
			},
			{
				"x": 0.8111250979,
				"y": 2.0424802809,
				"z": 0.6140421223,
				"element": "C" 
			},
			{
				"x": 0.7041094606,
				"y": 2.8938345561,
				"z": -0.4739393449,
				"element": "C" 
			},
			{
				"x": -0.0995539763,
				"y": 2.6849054095,
				"z": -1.5254705722,
				"element": "N" 
			},
			{
				"x": -1.5181104313,
				"y": 0.4291268309,
				"z": -3.2364738981,
				"element": "H" 
			},
			{
				"x": -1.6194127481,
				"y": 2.1999603132,
				"z": -3.4075643076,
				"element": "H" 
			},
			{
				"x": -2.8061060798,
				"y": 1.308953793,
				"z": -2.4212782726,
				"element": "H" 
			},
			{
				"x": -0.6068779381,
				"y": -0.7183574544,
				"z": 1.7594804794,
				"element": "H" 
			},
			{
				"x": 0.5281863436,
				"y": 0.290043977,
				"z": 2.5366467204,
				"element": "H" 
			},
			{
				"x": 1.4868007081,
				"y": 2.2683469279,
				"z": 1.434133638,
				"element": "H" 
			},
			{
				"x": 1.3004230001,
				"y": 3.8041526959,
				"z": -0.5057424003,
				"element": "H" 
			}
		],
		 "valence_orbital": [ 
			{
				"type": "occ",
				"energy": -0.33493,
				"method": "rhf"
			},
			{
				"type": "occ",
				"energy": -0.3249,
				"method": "rhf"
			},
			{
				"type": "occ",
				"energy": -0.24987,
				"method": "rhf"
			},
			{
				"type": "occ",
				"energy": -0.24742,
				"method": "rhf"
			},
			{
				"type": "occ",
				"energy": -0.2278,
				"method": "rhf"
			},
			{
				"type": "unocc",
				"energy": -0.00938,
				"method": "rhf"
			},
			{
				"type": "unocc",
				"energy": -0.00313,
				"method": "rhf"
			},
			{
				"type": "unocc",
				"energy": 0.03066,
				"method": "rhf"
			},
			{
				"type": "unocc",
				"energy": 0.07525,
				"method": "rhf"
			},
			{
				"type": "unocc",
				"energy": 0.11514,
				"method": "rhf"
			}
		],
		"cosmo_sigma_profile": { 
			"-0.025": 0.0,
			"-0.024": 0.0,
			"-0.023": 0.0,
			"-0.022": 0.0,
			"-0.021": 0.0,
			"-0.02": 0.0,
			"-0.019": 0.0,
			"-0.018": 0.0,
			"-0.017": 0.0,
			"-0.016": 0.0,
			"-0.015": 0.0,
			"-0.014": 1.07154025339,
			"-0.013": 1.55068464973,
			"-0.012": 2.36776837314,
			"-0.011": 2.72526105742,
			"-0.01": 2.96106643384,
			"-0.009": 2.22536174948,
			"-0.008": 2.23290150745,
			"-0.007": 2.95279590937,
			"-0.006": 5.0936028506,
			"-0.005": 6.49851092517,
			"-0.004": 9.76222288679,
			"-0.003": 7.85868701968,
			"-0.002": 11.6941814748,
			"-0.001": 13.7345489419,
			"0.0": 15.1689057587,
			"0.001": 12.7068274363,
			"0.002": 17.6926702798,
			"0.003": 16.5490481694,
			"0.004": 12.062830796,
			"0.005": 6.45878926343,
			"0.006": 2.92557250843,
			"0.007": 1.83437327919,
			"0.008": 2.11149193423,
			"0.009": 2.17682533834,
			"0.01": 1.78481688507,
			"0.011": 1.36738881349,
			"0.012": 0.696976536688,
			"0.013": 0.748119605568,
			"0.014": 1.42971452106,
			"0.015": 0.60511947549,
			"0.016": 0.703307624393,
			"0.017": 0.356463289691,
			"0.018": 0.0,
			"0.019": 0.0,
			"0.02": 0.0,
			"0.021": 0.0,
			"0.022": 0.0,
			"0.023": 0.0,
			"0.024": 0.0,
			"0.025": 0.0
		}
	}
}
