{
	 "smiles": "CN1N=C(C)C(CC(=O)N2CCC(CC2)C(O)=O)=C1C", 
	 "Tm": 441.15, 
	 "num_atms": 41, 
	 "gaussian": { 
		 "optdone": 1, 
		 "sigma_profile": "yes", 
		 "theory": "DFT", 
		 "functional": "B3LYP", 
		 "basiset": "6-31G**", 
		 "properties": { 
			 "R2extent": 7357.9131, 
			 "electric_dipole_moment_norm": 7.63278741418, 
			 "electric_quadrupole_moment_norm": 19.6723068012, 
			 "total_energy": -936.088678938, 
			 "HOMO_LUMO_gap": 0.22453, 
			 "cosmo_polarized_energy": -28.75, 
			 "cosmo_cavitation_energy": 41.95, 
			 "cosmo_dispersion_energy": -28.43, 
			 "cosmo_repulsion_energy": 2.19, 
			 "cosmo_total_nonelectrostatic_energy": 15.71, 
			 "SMD_solvation_energy": 6.35 
		},
		"coords": [
			{
				"x": 2.5378681023,
				"y": -3.6351925735,
				"z": 1.930760059,
				"element": "C" 
			},
			{
				"x": 2.5186167085,
				"y": -2.4996814442,
				"z": 1.0316349232,
				"element": "N" 
			},
			{
				"x": 3.0578646598,
				"y": -2.6203396358,
				"z": -0.20698738,
				"element": "N" 
			},
			{
				"x": 2.9075367915,
				"y": -1.4249724097,
				"z": -0.77520431,
				"element": "C" 
			},
			{
				"x": 3.4288359684,
				"y": -1.1752854747,
				"z": -2.1583267755,
				"element": "C" 
			},
			{
				"x": 2.2544774712,
				"y": -0.5155345867,
				"z": 0.1072302215,
				"element": "C" 
			},
			{
				"x": 1.9291664877,
				"y": 0.9320254428,
				"z": -0.1580257833,
				"element": "C" 
			},
			{
				"x": 1.0559775748,
				"y": 1.1600745772,
				"z": -1.4027807303,
				"element": "C" 
			},
			{
				"x": 1.5587220192,
				"y": 1.6039557585,
				"z": -2.4327494933,
				"element": "O" 
			},
			{
				"x": -0.2797296423,
				"y": 0.8428746347,
				"z": -1.3330279534,
				"element": "N" 
			},
			{
				"x": -0.927916962,
				"y": 0.2565531188,
				"z": -0.1576422832,
				"element": "C" 
			},
			{
				"x": -2.447492145,
				"y": 0.4272346484,
				"z": -0.245943316,
				"element": "C" 
			},
			{
				"x": -3.0314466965,
				"y": -0.3009770024,
				"z": -1.4901613812,
				"element": "C" 
			},
			{
				"x": -2.0527989915,
				"y": -0.2205470077,
				"z": -2.6849129683,
				"element": "C" 
			},
			{
				"x": -1.0850102242,
				"y": 0.9563245342,
				"z": -2.5606734139,
				"element": "C" 
			},
			{
				"x": -4.4041192459,
				"y": 0.2829184999,
				"z": -1.8358241412,
				"element": "C" 
			},
			{
				"x": -5.3540120827,
				"y": 0.1412649712,
				"z": -0.8698842964,
				"element": "O" 
			},
			{
				"x": -4.6761985167,
				"y": 0.8563062859,
				"z": -2.8603813377,
				"element": "O" 
			},
			{
				"x": 2.0263940061,
				"y": -1.2484801671,
				"z": 1.2673091633,
				"element": "C" 
			},
			{
				"x": 1.4155310868,
				"y": -0.8725901032,
				"z": 2.5804657147,
				"element": "C" 
			},
			{
				"x": 3.1202290261,
				"y": -3.4198142124,
				"z": 2.8335529868,
				"element": "H" 
			},
			{
				"x": 1.5243444739,
				"y": -3.9271572984,
				"z": 2.2274625401,
				"element": "H" 
			},
			{
				"x": 3.0050368419,
				"y": -4.4591376985,
				"z": 1.3926053457,
				"element": "H" 
			},
			{
				"x": 3.8654256017,
				"y": -2.0948760146,
				"z": -2.5542911294,
				"element": "H" 
			},
			{
				"x": 4.2006779556,
				"y": -0.3969971678,
				"z": -2.1563651602,
				"element": "H" 
			},
			{
				"x": 2.6448944153,
				"y": -0.8285959348,
				"z": -2.8376487044,
				"element": "H" 
			},
			{
				"x": 1.4649598463,
				"y": 1.3828782885,
				"z": 0.7262013177,
				"element": "H" 
			},
			{
				"x": 2.8413935082,
				"y": 1.5002688519,
				"z": -0.3630518261,
				"element": "H" 
			},
			{
				"x": -0.5703525026,
				"y": 0.7529002174,
				"z": 0.7485867804,
				"element": "H" 
			},
			{
				"x": -0.6768753272,
				"y": -0.8095365941,
				"z": -0.0574926462,
				"element": "H" 
			},
			{
				"x": -2.6798534238,
				"y": 1.4970290526,
				"z": -0.2954213824,
				"element": "H" 
			},
			{
				"x": -2.8945397163,
				"y": 0.0505426448,
				"z": 0.6813886481,
				"element": "H" 
			},
			{
				"x": -3.1886853791,
				"y": -1.3568352204,
				"z": -1.2277145018,
				"element": "H" 
			},
			{
				"x": -2.6224364351,
				"y": -0.1200252038,
				"z": -3.6117063091,
				"element": "H" 
			},
			{
				"x": -1.4751621754,
				"y": -1.1489225608,
				"z": -2.7456888401,
				"element": "H" 
			},
			{
				"x": -0.3866572232,
				"y": 0.9883197384,
				"z": -3.3969662885,
				"element": "H" 
			},
			{
				"x": -1.6400368895,
				"y": 1.9039923975,
				"z": -2.5687270416,
				"element": "H" 
			},
			{
				"x": -5.0006587711,
				"y": -0.3595813842,
				"z": -0.1214196323,
				"element": "H" 
			},
			{
				"x": 0.499633056,
				"y": -1.4393526732,
				"z": 2.7909702173,
				"element": "H" 
			},
			{
				"x": 2.1046101848,
				"y": -1.0500979842,
				"z": 3.414799174,
				"element": "H" 
			},
			{
				"x": 1.1588865641,
				"y": 0.1890666893,
				"z": 2.593951934,
				"element": "H" 
			}
		],
		 "valence_orbital": [ 
			{
				"type": "occ",
				"energy": -0.27698,
				"method": "rhf"
			},
			{
				"type": "occ",
				"energy": -0.24809,
				"method": "rhf"
			},
			{
				"type": "occ",
				"energy": -0.23721,
				"method": "rhf"
			},
			{
				"type": "occ",
				"energy": -0.23102,
				"method": "rhf"
			},
			{
				"type": "occ",
				"energy": -0.22293,
				"method": "rhf"
			},
			{
				"type": "unocc",
				"energy": 0.0016,
				"method": "rhf"
			},
			{
				"type": "unocc",
				"energy": 0.01809,
				"method": "rhf"
			},
			{
				"type": "unocc",
				"energy": 0.03139,
				"method": "rhf"
			},
			{
				"type": "unocc",
				"energy": 0.037,
				"method": "rhf"
			},
			{
				"type": "unocc",
				"energy": 0.05649,
				"method": "rhf"
			}
		],
		"cosmo_sigma_profile": { 
			"-0.025": 0.0,
			"-0.024": 0.0,
			"-0.023": 0.0,
			"-0.022": 0.0,
			"-0.021": 0.0,
			"-0.02": 0.0,
			"-0.019": 0.0602009925785,
			"-0.018": 1.05052050115,
			"-0.017": 0.789121456988,
			"-0.016": 1.30731446404,
			"-0.015": 1.42210535864,
			"-0.014": 0.880010016923,
			"-0.013": 1.08783719514,
			"-0.012": 1.02153980754,
			"-0.011": 1.05861855423,
			"-0.01": 1.97142664285,
			"-0.009": 1.32797804379,
			"-0.008": 2.88143762441,
			"-0.007": 5.54946505875,
			"-0.006": 14.1567968586,
			"-0.005": 27.0429544928,
			"-0.004": 32.8010439981,
			"-0.003": 35.5815513736,
			"-0.002": 36.1697976526,
			"-0.001": 27.3216181396,
			"0.0": 18.8998974635,
			"0.001": 16.5262665287,
			"0.002": 9.7553347392,
			"0.003": 8.79414366517,
			"0.004": 8.99254566337,
			"0.005": 8.77027295749,
			"0.006": 7.70758475541,
			"0.007": 6.77106546553,
			"0.008": 4.84862270359,
			"0.009": 5.87214943746,
			"0.01": 8.24332445359,
			"0.011": 8.43228193104,
			"0.012": 7.49835093509,
			"0.013": 4.12880246258,
			"0.014": 5.42062700075,
			"0.015": 2.37416440377,
			"0.016": 1.11981577464,
			"0.017": 0.101333145858,
			"0.018": 0.0,
			"0.019": 0.0,
			"0.02": 0.0,
			"0.021": 0.0,
			"0.022": 0.0,
			"0.023": 0.0,
			"0.024": 0.0,
			"0.025": 0.0
		}
	}
}
