{
	 "smiles": "COC1=CC(OC)=NC(OC2=CC=CC(OC3=NC(OC)=CC(OC)=N3)=C2C(=O)ON=C(C2=CC=CC=C2)C2=CC=CC=C2)=N1", 
	 "Tm": 402.15, 
	 "num_atms": 72, 
	 "gaussian": { 
		 "optdone": 1, 
		 "sigma_profile": "yes", 
		 "theory": "DFT", 
		 "functional": "B3LYP", 
		 "basiset": "6-31G**", 
		 "properties": { 
			 "R2extent": 23257.3126, 
			 "electric_dipole_moment_norm": 3.21111164241, 
			 "electric_quadrupole_moment_norm": 16.0605419336, 
			 "total_energy": -2111.16912325, 
			 "HOMO_LUMO_gap": 0.17082, 
			 "cosmo_polarized_energy": -24.8, 
			 "cosmo_cavitation_energy": 78.43, 
			 "cosmo_dispersion_energy": -46.0, 
			 "cosmo_repulsion_energy": 3.51, 
			 "cosmo_total_nonelectrostatic_energy": 35.94, 
			 "SMD_solvation_energy": 14.53 
		},
		"coords": [
			{
				"x": 4.2738590056,
				"y": 0.716260228,
				"z": 2.2617191475,
				"element": "C" 
			},
			{
				"x": 3.4920102769,
				"y": 1.7865435894,
				"z": 2.824153082,
				"element": "O" 
			},
			{
				"x": 2.1911048183,
				"y": 1.5613712599,
				"z": 3.0310220594,
				"element": "C" 
			},
			{
				"x": 1.404442621,
				"y": 2.6158691632,
				"z": 3.4955533031,
				"element": "C" 
			},
			{
				"x": 0.0500145964,
				"y": 2.3208074921,
				"z": 3.6604042588,
				"element": "C" 
			},
			{
				"x": -0.7527548648,
				"y": 3.3056331819,
				"z": 4.0931340286,
				"element": "O" 
			},
			{
				"x": -2.1465151496,
				"y": 3.0094689499,
				"z": 4.2443596894,
				"element": "C" 
			},
			{
				"x": -0.4792045587,
				"y": 1.1169475318,
				"z": 3.4046118268,
				"element": "N" 
			},
			{
				"x": 0.391894292,
				"y": 0.204072126,
				"z": 2.9861647075,
				"element": "C" 
			},
			{
				"x": -0.1842417865,
				"y": -1.0076668041,
				"z": 2.7460885073,
				"element": "O" 
			},
			{
				"x": 0.5608809039,
				"y": -2.0723855502,
				"z": 2.2593855007,
				"element": "C" 
			},
			{
				"x": 0.5972926063,
				"y": -3.1981219812,
				"z": 3.079052423,
				"element": "C" 
			},
			{
				"x": 1.2661173624,
				"y": -4.3421574879,
				"z": 2.6526013927,
				"element": "C" 
			},
			{
				"x": 1.9016543116,
				"y": -4.3578420411,
				"z": 1.4136919096,
				"element": "C" 
			},
			{
				"x": 1.863028183,
				"y": -3.2267160667,
				"z": 0.6027195193,
				"element": "C" 
			},
			{
				"x": 2.5979536064,
				"y": -3.2962693533,
				"z": -0.5678106629,
				"element": "O" 
			},
			{
				"x": 1.9835562265,
				"y": -3.2513841721,
				"z": -1.7816550742,
				"element": "C" 
			},
			{
				"x": 0.658339845,
				"y": -3.19486933,
				"z": -1.8143564331,
				"element": "N" 
			},
			{
				"x": 0.1153077162,
				"y": -3.163754544,
				"z": -3.0401421337,
				"element": "C" 
			},
			{
				"x": -1.2185240681,
				"y": -3.1015791548,
				"z": -3.1575309983,
				"element": "O" 
			},
			{
				"x": -1.9891451675,
				"y": -3.0736873275,
				"z": -1.9450874504,
				"element": "C" 
			},
			{
				"x": 0.8779968655,
				"y": -3.1966741695,
				"z": -4.2067484304,
				"element": "C" 
			},
			{
				"x": 2.259831522,
				"y": -3.2648315307,
				"z": -4.009711085,
				"element": "C" 
			},
			{
				"x": 3.04164207,
				"y": -3.3011052211,
				"z": -5.1002002827,
				"element": "O" 
			},
			{
				"x": 4.4599390357,
				"y": -3.3500993792,
				"z": -4.8940822031,
				"element": "C" 
			},
			{
				"x": 2.8320591027,
				"y": -3.2967050985,
				"z": -2.8012116495,
				"element": "N" 
			},
			{
				"x": 1.1836671823,
				"y": -2.0579665736,
				"z": 0.9973921911,
				"element": "C" 
			},
			{
				"x": 1.2114804265,
				"y": -0.848719167,
				"z": 0.116044668,
				"element": "C" 
			},
			{
				"x": 2.176986867,
				"y": -0.4484442426,
				"z": -0.482974237,
				"element": "O" 
			},
			{
				"x": -0.0349192786,
				"y": -0.2738980691,
				"z": 0.0645029335,
				"element": "O" 
			},
			{
				"x": -0.0041126189,
				"y": 1.0113520628,
				"z": -0.5368680261,
				"element": "N" 
			},
			{
				"x": -1.1843060015,
				"y": 1.4367036603,
				"z": -0.8414483037,
				"element": "C" 
			},
			{
				"x": -2.4753284101,
				"y": 0.7238965281,
				"z": -0.6114995041,
				"element": "C" 
			},
			{
				"x": -3.3687290588,
				"y": 0.5659071122,
				"z": -1.68415429,
				"element": "C" 
			},
			{
				"x": -4.5817345548,
				"y": -0.0981429508,
				"z": -1.5040488308,
				"element": "C" 
			},
			{
				"x": -4.9254497316,
				"y": -0.5956570385,
				"z": -0.2452095494,
				"element": "C" 
			},
			{
				"x": -4.0482280231,
				"y": -0.4297913655,
				"z": 0.828805692,
				"element": "C" 
			},
			{
				"x": -2.8264991671,
				"y": 0.2201788568,
				"z": 0.6517739214,
				"element": "C" 
			},
			{
				"x": -1.1936757276,
				"y": 2.7730158049,
				"z": -1.5031793937,
				"element": "C" 
			},
			{
				"x": -0.0623385449,
				"y": 3.2218902663,
				"z": -2.208257797,
				"element": "C" 
			},
			{
				"x": -0.0574203484,
				"y": 4.4800872951,
				"z": -2.8029131401,
				"element": "C" 
			},
			{
				"x": -1.1769538265,
				"y": 5.3117647268,
				"z": -2.7042601869,
				"element": "C" 
			},
			{
				"x": -2.3028865216,
				"y": 4.8757168323,
				"z": -2.0052655085,
				"element": "C" 
			},
			{
				"x": -2.314020157,
				"y": 3.6141020963,
				"z": -1.4099397573,
				"element": "C" 
			},
			{
				"x": 1.6939358331,
				"y": 0.3378805435,
				"z": 2.7893462709,
				"element": "N" 
			},
			{
				"x": 4.303059363,
				"y": -0.1398923007,
				"z": 2.9407423353,
				"element": "H" 
			},
			{
				"x": 5.2729916111,
				"y": 1.1345915246,
				"z": 2.1374287387,
				"element": "H" 
			},
			{
				"x": 3.8651671315,
				"y": 0.3987775708,
				"z": 1.2998651047,
				"element": "H" 
			},
			{
				"x": 1.8099535306,
				"y": 3.5984685646,
				"z": 3.6900826234,
				"element": "H" 
			},
			{
				"x": -2.5960097163,
				"y": 3.9328045347,
				"z": 4.611340553,
				"element": "H" 
			},
			{
				"x": -2.5935333138,
				"y": 2.723591934,
				"z": 3.2883845614,
				"element": "H" 
			},
			{
				"x": -2.3013063891,
				"y": 2.1987705793,
				"z": 4.9610874285,
				"element": "H" 
			},
			{
				"x": 0.1017598267,
				"y": -3.1518282613,
				"z": 4.0422197624,
				"element": "H" 
			},
			{
				"x": 1.2961495192,
				"y": -5.221189725,
				"z": 3.2887579741,
				"element": "H" 
			},
			{
				"x": 2.4355020757,
				"y": -5.231151096,
				"z": 1.0564821074,
				"element": "H" 
			},
			{
				"x": -3.0245252635,
				"y": -2.9654163894,
				"z": -2.2676689593,
				"element": "H" 
			},
			{
				"x": -1.6989478479,
				"y": -2.2325238294,
				"z": -1.3130653978,
				"element": "H" 
			},
			{
				"x": -1.8600361564,
				"y": -4.0027713702,
				"z": -1.382869364,
				"element": "H" 
			},
			{
				"x": 0.4335001762,
				"y": -3.1698495333,
				"z": -5.1914458382,
				"element": "H" 
			},
			{
				"x": 4.8930757082,
				"y": -3.3578380884,
				"z": -5.8949599035,
				"element": "H" 
			},
			{
				"x": 4.7463204927,
				"y": -4.2522930815,
				"z": -4.3473595414,
				"element": "H" 
			},
			{
				"x": 4.8049375052,
				"y": -2.477397517,
				"z": -4.3339449674,
				"element": "H" 
			},
			{
				"x": -3.1060412223,
				"y": 0.959433267,
				"z": -2.6612081739,
				"element": "H" 
			},
			{
				"x": -5.2588296869,
				"y": -0.2203743618,
				"z": -2.3445535139,
				"element": "H" 
			},
			{
				"x": -5.8737223141,
				"y": -1.1058647144,
				"z": -0.101267276,
				"element": "H" 
			},
			{
				"x": -4.3117971881,
				"y": -0.8099360823,
				"z": 1.8114977292,
				"element": "H" 
			},
			{
				"x": -2.1535939683,
				"y": 0.3412005538,
				"z": 1.4931395374,
				"element": "H" 
			},
			{
				"x": 0.8014232647,
				"y": 2.5703516983,
				"z": -2.2799082359,
				"element": "H" 
			},
			{
				"x": 0.8200523726,
				"y": 4.8116769554,
				"z": -3.3505092927,
				"element": "H" 
			},
			{
				"x": -1.1713132628,
				"y": 6.2919292487,
				"z": -3.1724961798,
				"element": "H" 
			},
			{
				"x": -3.1749691166,
				"y": 5.5175971136,
				"z": -1.9200706689,
				"element": "H" 
			},
			{
				"x": -3.1908748419,
				"y": 3.283732117,
				"z": -0.8633732477,
				"element": "H" 
			}
		],
		 "valence_orbital": [ 
			{
				"type": "occ",
				"energy": -0.25195,
				"method": "rhf"
			},
			{
				"type": "occ",
				"energy": -0.24755,
				"method": "rhf"
			},
			{
				"type": "occ",
				"energy": -0.23373,
				"method": "rhf"
			},
			{
				"type": "occ",
				"energy": -0.22973,
				"method": "rhf"
			},
			{
				"type": "occ",
				"energy": -0.22656,
				"method": "rhf"
			},
			{
				"type": "unocc",
				"energy": -0.05574,
				"method": "rhf"
			},
			{
				"type": "unocc",
				"energy": -0.03603,
				"method": "rhf"
			},
			{
				"type": "unocc",
				"energy": -0.01438,
				"method": "rhf"
			},
			{
				"type": "unocc",
				"energy": -0.01368,
				"method": "rhf"
			},
			{
				"type": "unocc",
				"energy": -0.01154,
				"method": "rhf"
			}
		],
		"cosmo_sigma_profile": { 
			"-0.025": 0.0,
			"-0.024": 0.0,
			"-0.023": 0.0,
			"-0.022": 0.0,
			"-0.021": 0.0,
			"-0.02": 0.0,
			"-0.019": 0.0,
			"-0.018": 0.0,
			"-0.017": 0.0,
			"-0.016": 0.0,
			"-0.015": 0.0,
			"-0.014": 0.0,
			"-0.013": 0.0,
			"-0.012": 0.0,
			"-0.011": 0.0,
			"-0.01": 0.0,
			"-0.009": 0.0107011229157,
			"-0.008": 3.64164234546,
			"-0.007": 12.4387643606,
			"-0.006": 33.4826053042,
			"-0.005": 46.0339050404,
			"-0.004": 52.3615911773,
			"-0.003": 52.8498291499,
			"-0.002": 49.5939363755,
			"-0.001": 52.2123494544,
			"0.0": 54.6323585703,
			"0.001": 61.5225951747,
			"0.002": 50.9672678287,
			"0.003": 39.015270405,
			"0.004": 36.3392175279,
			"0.005": 18.6221913147,
			"0.006": 13.5310889894,
			"0.007": 12.002047405,
			"0.008": 12.6983285513,
			"0.009": 10.0370559874,
			"0.01": 6.90873444481,
			"0.011": 4.86833095068,
			"0.012": 3.27123249668,
			"0.013": 1.66107352667,
			"0.014": 0.549747482405,
			"0.015": 0.0388307277621,
			"0.016": 0.0,
			"0.017": 0.0,
			"0.018": 0.0,
			"0.019": 0.0,
			"0.02": 0.0,
			"0.021": 0.0,
			"0.022": 0.0,
			"0.023": 0.0,
			"0.024": 0.0,
			"0.025": 0.0
		}
	}
}
