{
	 "smiles": "CCOC(=O)C1=C(C)N(CC(O)=O)C(C)=C1", 
	 "Tm": 360.15, 
	 "num_atms": 31, 
	 "gaussian": { 
		 "optdone": 1, 
		 "sigma_profile": "yes", 
		 "theory": "DFT", 
		 "functional": "B3LYP", 
		 "basiset": "6-31G**", 
		 "properties": { 
			 "R2extent": 5190.6312, 
			 "electric_dipole_moment_norm": 3.74719631058, 
			 "electric_quadrupole_moment_norm": 17.0256928446, 
			 "total_energy": -783.89512626, 
			 "HOMO_LUMO_gap": 0.19369, 
			 "cosmo_polarized_energy": -17.75, 
			 "cosmo_cavitation_energy": 34.98, 
			 "cosmo_dispersion_energy": -24.34, 
			 "cosmo_repulsion_energy": 1.94, 
			 "cosmo_total_nonelectrostatic_energy": 12.58, 
			 "SMD_solvation_energy": 8.21 
		},
		"coords": [
			{
				"x": 1.2663161524,
				"y": -4.5240061191,
				"z": -1.8234474391,
				"element": "C" 
			},
			{
				"x": 0.9990783019,
				"y": -4.3187839795,
				"z": -0.338844402,
				"element": "C" 
			},
			{
				"x": 0.0363238176,
				"y": -3.2679498946,
				"z": -0.1157928655,
				"element": "O" 
			},
			{
				"x": 0.5246566616,
				"y": -1.9983827054,
				"z": -0.0746743186,
				"element": "C" 
			},
			{
				"x": 1.7137424544,
				"y": -1.7462281999,
				"z": -0.2071264767,
				"element": "O" 
			},
			{
				"x": -0.5466029778,
				"y": -1.0257240607,
				"z": 0.1473565024,
				"element": "C" 
			},
			{
				"x": -0.3809200342,
				"y": 0.3528715747,
				"z": 0.2345258004,
				"element": "C" 
			},
			{
				"x": 0.851222933,
				"y": 1.1906903354,
				"z": 0.120380983,
				"element": "C" 
			},
			{
				"x": -1.6293139384,
				"y": 0.8937518082,
				"z": 0.4590232667,
				"element": "N" 
			},
			{
				"x": -1.9083195807,
				"y": 2.3022354377,
				"z": 0.579942535,
				"element": "C" 
			},
			{
				"x": -2.346566492,
				"y": 2.9508832375,
				"z": -0.7315242027,
				"element": "C" 
			},
			{
				"x": -2.4679904359,
				"y": 4.2883261421,
				"z": -0.5653887804,
				"element": "O" 
			},
			{
				"x": -2.5735730462,
				"y": 2.3790109808,
				"z": -1.7692908041,
				"element": "O" 
			},
			{
				"x": -2.5933790821,
				"y": -0.1173611741,
				"z": 0.4967263482,
				"element": "C" 
			},
			{
				"x": -4.0466528166,
				"y": 0.1707145087,
				"z": 0.6908766597,
				"element": "C" 
			},
			{
				"x": -1.9410672172,
				"y": -1.3067524058,
				"z": 0.3131791479,
				"element": "C" 
			},
			{
				"x": 1.739259319,
				"y": -3.6368644185,
				"z": -2.2512927622,
				"element": "H" 
			},
			{
				"x": 1.9383207208,
				"y": -5.3768858539,
				"z": -1.9684571632,
				"element": "H" 
			},
			{
				"x": 0.3353961875,
				"y": -4.7237092456,
				"z": -2.362578295,
				"element": "H" 
			},
			{
				"x": 1.921843836,
				"y": -4.0756423701,
				"z": 0.1936665871,
				"element": "H" 
			},
			{
				"x": 0.5446122294,
				"y": -5.2060861685,
				"z": 0.1100129051,
				"element": "H" 
			},
			{
				"x": 1.6993604972,
				"y": 0.5328440044,
				"z": -0.0670054374,
				"element": "H" 
			},
			{
				"x": 1.053295143,
				"y": 1.7567061324,
				"z": 1.0395422687,
				"element": "H" 
			},
			{
				"x": 0.7799051959,
				"y": 1.911292748,
				"z": -0.7041142179,
				"element": "H" 
			},
			{
				"x": -1.0270883361,
				"y": 2.8318812806,
				"z": 0.9492829576,
				"element": "H" 
			},
			{
				"x": -2.7007271321,
				"y": 2.4715907196,
				"z": 1.3163453881,
				"element": "H" 
			},
			{
				"x": -2.7634625922,
				"y": 4.6481163531,
				"z": -1.4187665632,
				"element": "H" 
			},
			{
				"x": -4.6030165074,
				"y": -0.7692251357,
				"z": 0.6834159353,
				"element": "H" 
			},
			{
				"x": -4.4509028288,
				"y": 0.8019004217,
				"z": -0.1098402557,
				"element": "H" 
			},
			{
				"x": -4.2586605201,
				"y": 0.6667387583,
				"z": 1.6476332123,
				"element": "H" 
			},
			{
				"x": -2.3962899119,
				"y": -2.2854527116,
				"z": 0.2925334864,
				"element": "H" 
			}
		],
		 "valence_orbital": [ 
			{
				"type": "occ",
				"energy": -0.29536,
				"method": "rhf"
			},
			{
				"type": "occ",
				"energy": -0.27937,
				"method": "rhf"
			},
			{
				"type": "occ",
				"energy": -0.25339,
				"method": "rhf"
			},
			{
				"type": "occ",
				"energy": -0.23931,
				"method": "rhf"
			},
			{
				"type": "occ",
				"energy": -0.20205,
				"method": "rhf"
			},
			{
				"type": "unocc",
				"energy": -0.00836,
				"method": "rhf"
			},
			{
				"type": "unocc",
				"energy": -0.00455,
				"method": "rhf"
			},
			{
				"type": "unocc",
				"energy": 0.04329,
				"method": "rhf"
			},
			{
				"type": "unocc",
				"energy": 0.062,
				"method": "rhf"
			},
			{
				"type": "unocc",
				"energy": 0.07943,
				"method": "rhf"
			}
		],
		"cosmo_sigma_profile": { 
			"-0.025": 0.0,
			"-0.024": 0.0,
			"-0.023": 0.0,
			"-0.022": 0.0,
			"-0.021": 0.0,
			"-0.02": 0.0,
			"-0.019": 0.345661037013,
			"-0.018": 0.947565877421,
			"-0.017": 1.02247453529,
			"-0.016": 0.917429012734,
			"-0.015": 0.691758404925,
			"-0.014": 0.690284643302,
			"-0.013": 0.691571068922,
			"-0.012": 0.589931756702,
			"-0.011": 1.0400729856,
			"-0.01": 0.48337667121,
			"-0.009": 2.44246197893,
			"-0.008": 6.8263223042,
			"-0.007": 8.10629242632,
			"-0.006": 8.57026228126,
			"-0.005": 14.4582181128,
			"-0.004": 21.957643457,
			"-0.003": 25.058489382,
			"-0.002": 21.7754106466,
			"-0.001": 24.7261726924,
			"0.0": 24.0298561427,
			"0.001": 15.2001875018,
			"0.002": 11.0264031143,
			"0.003": 11.9344197406,
			"0.004": 11.9419833213,
			"0.005": 12.25672795,
			"0.006": 9.86320684741,
			"0.007": 9.50691740635,
			"0.008": 6.47367328002,
			"0.009": 5.29876001035,
			"0.01": 4.0118839405,
			"0.011": 7.13462688532,
			"0.012": 3.75721974467,
			"0.013": 1.78024700923,
			"0.014": 0.0,
			"0.015": 0.0,
			"0.016": 0.0,
			"0.017": 0.0,
			"0.018": 0.0,
			"0.019": 0.0,
			"0.02": 0.0,
			"0.021": 0.0,
			"0.022": 0.0,
			"0.023": 0.0,
			"0.024": 0.0,
			"0.025": 0.0
		}
	}
}
