{
	 "smiles": "OC1=C(C=O)C=C(Cl)C=C1C=O", 
	 "Tm": 395.15, 
	 "num_atms": 17, 
	 "gaussian": { 
		 "optdone": 1, 
		 "sigma_profile": "yes", 
		 "theory": "DFT", 
		 "functional": "B3LYP", 
		 "basiset": "6-31G**", 
		 "properties": { 
			 "R2extent": 3053.9922, 
			 "electric_dipole_moment_norm": 3.11389017629, 
			 "electric_quadrupole_moment_norm": 8.54199041208, 
			 "total_energy": -993.717350808, 
			 "HOMO_LUMO_gap": 0.15096, 
			 "cosmo_polarized_energy": -10.38, 
			 "cosmo_cavitation_energy": 24.15, 
			 "cosmo_dispersion_energy": -17.94, 
			 "cosmo_repulsion_energy": 1.41, 
			 "cosmo_total_nonelectrostatic_energy": 7.62, 
			 "SMD_solvation_energy": 6.19 
		},
		"coords": [
			{
				"x": 2.9294359493,
				"y": 0.7963435815,
				"z": -1.292289334,
				"element": "O" 
			},
			{
				"x": 1.9467776897,
				"y": 0.1043267563,
				"z": -0.7116663121,
				"element": "C" 
			},
			{
				"x": 1.128585942,
				"y": 0.6857672137,
				"z": 0.2969937113,
				"element": "C" 
			},
			{
				"x": 1.3615172253,
				"y": 2.0634320383,
				"z": 0.7102394891,
				"element": "C" 
			},
			{
				"x": 2.2436084126,
				"y": 2.7817373734,
				"z": 0.2334937416,
				"element": "O" 
			},
			{
				"x": 0.1019683691,
				"y": -0.0660411504,
				"z": 0.8904052827,
				"element": "C" 
			},
			{
				"x": -0.1188476835,
				"y": -1.3792386973,
				"z": 0.4955314163,
				"element": "C" 
			},
			{
				"x": -1.4032179363,
				"y": -2.3123126552,
				"z": 1.2414403391,
				"element": "Cl" 
			},
			{
				"x": 0.6786905197,
				"y": -1.9563779825,
				"z": -0.4923983342,
				"element": "C" 
			},
			{
				"x": 1.7083124907,
				"y": -1.232409971,
				"z": -1.1011784791,
				"element": "C" 
			},
			{
				"x": 2.530082359,
				"y": -1.8909502298,
				"z": -2.1481783712,
				"element": "C" 
			},
			{
				"x": 2.3503441865,
				"y": -3.0407682623,
				"z": -2.5068607839,
				"element": "O" 
			},
			{
				"x": 2.9315374778,
				"y": 1.7015020034,
				"z": -0.8837246526,
				"element": "H" 
			},
			{
				"x": 0.6943883753,
				"y": 2.4614535583,
				"z": 1.497625492,
				"element": "H" 
			},
			{
				"x": -0.5170967435,
				"y": 0.3865884429,
				"z": 1.6594605592,
				"element": "H" 
			},
			{
				"x": 0.5223526314,
				"y": -2.9806007434,
				"z": -0.8148755125,
				"element": "H" 
			},
			{
				"x": 3.3268607349,
				"y": -1.2666512758,
				"z": -2.5907182517,
				"element": "H" 
			}
		],
		 "valence_orbital": [ 
			{
				"type": "occ",
				"energy": -0.33142,
				"method": "rhf"
			},
			{
				"type": "occ",
				"energy": -0.29782,
				"method": "rhf"
			},
			{
				"type": "occ",
				"energy": -0.29486,
				"method": "rhf"
			},
			{
				"type": "occ",
				"energy": -0.26401,
				"method": "rhf"
			},
			{
				"type": "occ",
				"energy": -0.252,
				"method": "rhf"
			},
			{
				"type": "unocc",
				"energy": -0.10104,
				"method": "rhf"
			},
			{
				"type": "unocc",
				"energy": -0.06764,
				"method": "rhf"
			},
			{
				"type": "unocc",
				"energy": -0.00651,
				"method": "rhf"
			},
			{
				"type": "unocc",
				"energy": 0.01259,
				"method": "rhf"
			},
			{
				"type": "unocc",
				"energy": 0.03606,
				"method": "rhf"
			}
		],
		"cosmo_sigma_profile": { 
			"-0.025": 0.0,
			"-0.024": 0.0,
			"-0.023": 0.0,
			"-0.022": 0.0,
			"-0.021": 0.0,
			"-0.02": 0.0,
			"-0.019": 0.0,
			"-0.018": 0.0,
			"-0.017": 0.0,
			"-0.016": 0.0,
			"-0.015": 0.0,
			"-0.014": 0.0,
			"-0.013": 0.0,
			"-0.012": 0.0,
			"-0.011": 0.738026803212,
			"-0.01": 2.73450464897,
			"-0.009": 4.47754006644,
			"-0.008": 5.1545644886,
			"-0.007": 5.18249666987,
			"-0.006": 8.19179658124,
			"-0.005": 11.6130077414,
			"-0.004": 12.1519913247,
			"-0.003": 13.5739211449,
			"-0.002": 17.3789983909,
			"-0.001": 18.9030128806,
			"0.0": 19.193300678,
			"0.001": 10.1129127486,
			"0.002": 9.00861187676,
			"0.003": 11.1080243617,
			"0.004": 12.7287977651,
			"0.005": 6.25719787634,
			"0.006": 3.35100643998,
			"0.007": 4.9337596006,
			"0.008": 4.53829543269,
			"0.009": 3.48720443071,
			"0.01": 5.10807204277,
			"0.011": 5.02560476822,
			"0.012": 2.17539673808,
			"0.013": 0.206560918594,
			"0.014": 0.0,
			"0.015": 0.0,
			"0.016": 0.0,
			"0.017": 0.0,
			"0.018": 0.0,
			"0.019": 0.0,
			"0.02": 0.0,
			"0.021": 0.0,
			"0.022": 0.0,
			"0.023": 0.0,
			"0.024": 0.0,
			"0.025": 0.0
		}
	}
}
