{
	 "smiles": "C(COCCOCC1CO1)OCCOCC1CO1", 
	 "Tm": 260.15, 
	 "num_atms": 40, 
	 "gaussian": { 
		 "optdone": 1, 
		 "sigma_profile": "yes", 
		 "theory": "DFT", 
		 "functional": "B3LYP", 
		 "basiset": "6-31G**", 
		 "properties": { 
			 "R2extent": 5849.9054, 
			 "electric_dipole_moment_norm": 2.55648469583, 
			 "electric_quadrupole_moment_norm": 16.2899441908, 
			 "total_energy": -921.718942979, 
			 "HOMO_LUMO_gap": 0.31245, 
			 "cosmo_polarized_energy": -17.44, 
			 "cosmo_cavitation_energy": 41.12, 
			 "cosmo_dispersion_energy": -27.26, 
			 "cosmo_repulsion_energy": 2.14, 
			 "cosmo_total_nonelectrostatic_energy": 16.01, 
			 "SMD_solvation_energy": 6.86 
		},
		"coords": [
			{
				"x": 0.0735201684,
				"y": -1.410548548,
				"z": -0.8699279091,
				"element": "C" 
			},
			{
				"x": -1.4463710093,
				"y": -1.4605471121,
				"z": -0.9890425701,
				"element": "C" 
			},
			{
				"x": -2.040996307,
				"y": -0.2160659073,
				"z": -1.3098279982,
				"element": "O" 
			},
			{
				"x": -1.9326477362,
				"y": 0.1806276058,
				"z": -2.6680616215,
				"element": "C" 
			},
			{
				"x": -2.2125604053,
				"y": 1.6751558975,
				"z": -2.7719415348,
				"element": "C" 
			},
			{
				"x": -1.137039037,
				"y": 2.4887526104,
				"z": -2.3467028254,
				"element": "O" 
			},
			{
				"x": -1.0025131412,
				"y": 2.6284791463,
				"z": -0.9329351039,
				"element": "C" 
			},
			{
				"x": 0.084786816,
				"y": 3.6326393117,
				"z": -0.6699668808,
				"element": "C" 
			},
			{
				"x": 0.8175705144,
				"y": 3.6374620503,
				"z": 0.6043025972,
				"element": "C" 
			},
			{
				"x": 1.4306676129,
				"y": 3.1388065876,
				"z": -0.5937399053,
				"element": "O" 
			},
			{
				"x": 0.414225543,
				"y": -0.4860550246,
				"z": 0.1436574942,
				"element": "O" 
			},
			{
				"x": 1.7980681608,
				"y": -0.1812339106,
				"z": 0.239959613,
				"element": "C" 
			},
			{
				"x": 2.6373430529,
				"y": -1.3322201831,
				"z": 0.8057472622,
				"element": "C" 
			},
			{
				"x": 2.0944574679,
				"y": -1.9553882551,
				"z": 1.9610290401,
				"element": "O" 
			},
			{
				"x": 2.1579647324,
				"y": -1.2255367421,
				"z": 3.1716096139,
				"element": "C" 
			},
			{
				"x": 1.0387434172,
				"y": -0.2211021914,
				"z": 3.3631671723,
				"element": "C" 
			},
			{
				"x": 1.1020666294,
				"y": 0.7669272291,
				"z": 4.4500379916,
				"element": "C" 
			},
			{
				"x": 1.3305868519,
				"y": 1.161610242,
				"z": 3.0922647369,
				"element": "O" 
			},
			{
				"x": 0.5359410579,
				"y": -1.1166904188,
				"z": -1.8264334301,
				"element": "H" 
			},
			{
				"x": 0.4287612765,
				"y": -2.4265282474,
				"z": -0.6325397764,
				"element": "H" 
			},
			{
				"x": -1.7219288802,
				"y": -2.2367395551,
				"z": -1.7221292731,
				"element": "H" 
			},
			{
				"x": -1.8650813858,
				"y": -1.7480950766,
				"z": -0.0193217275,
				"element": "H" 
			},
			{
				"x": -0.9278706162,
				"y": -0.009775064,
				"z": -3.0704687772,
				"element": "H" 
			},
			{
				"x": -2.6563776129,
				"y": -0.3790320989,
				"z": -3.2868034178,
				"element": "H" 
			},
			{
				"x": -3.1336872789,
				"y": 1.9083671372,
				"z": -2.2133450574,
				"element": "H" 
			},
			{
				"x": -2.3815514049,
				"y": 1.9241134337,
				"z": -3.8261764352,
				"element": "H" 
			},
			{
				"x": -0.7562602959,
				"y": 1.6757352759,
				"z": -0.4534617826,
				"element": "H" 
			},
			{
				"x": -1.9513848031,
				"y": 2.9963410948,
				"z": -0.5038943693,
				"element": "H" 
			},
			{
				"x": -0.0123954699,
				"y": 4.5710019975,
				"z": -1.2197169693,
				"element": "H" 
			},
			{
				"x": 0.6031134484,
				"y": 2.8868774083,
				"z": 1.3645451138,
				"element": "H" 
			},
			{
				"x": 1.2241605381,
				"y": 4.5771143308,
				"z": 0.9797025518,
				"element": "H" 
			},
			{
				"x": 1.8609158667,
				"y": 0.6966848741,
				"z": 0.8830662093,
				"element": "H" 
			},
			{
				"x": 2.208040989,
				"y": 0.1045262052,
				"z": -0.7419317655,
				"element": "H" 
			},
			{
				"x": 3.6551766911,
				"y": -0.9549692232,
				"z": 1.0022028884,
				"element": "H" 
			},
			{
				"x": 2.7258018569,
				"y": -2.1415927455,
				"z": 0.0732328683,
				"element": "H" 
			},
			{
				"x": 2.0850543272,
				"y": -1.9798830702,
				"z": 3.9653280832,
				"element": "H" 
			},
			{
				"x": 3.123250356,
				"y": -0.7052874528,
				"z": 3.2821377384,
				"element": "H" 
			},
			{
				"x": 0.065184532,
				"y": -0.5496167103,
				"z": 3.0002222286,
				"element": "H" 
			},
			{
				"x": 1.9793306579,
				"y": 0.802850202,
				"z": 5.0975062155,
				"element": "H" 
			},
			{
				"x": 0.1814328188,
				"y": 1.1359348969,
				"z": 4.9013497118,
				"element": "H" 
			}
		],
		 "valence_orbital": [ 
			{
				"type": "occ",
				"energy": -0.26457,
				"method": "rhf"
			},
			{
				"type": "occ",
				"energy": -0.25819,
				"method": "rhf"
			},
			{
				"type": "occ",
				"energy": -0.25009,
				"method": "rhf"
			},
			{
				"type": "occ",
				"energy": -0.24238,
				"method": "rhf"
			},
			{
				"type": "occ",
				"energy": -0.23514,
				"method": "rhf"
			},
			{
				"type": "unocc",
				"energy": 0.07731,
				"method": "rhf"
			},
			{
				"type": "unocc",
				"energy": 0.08847,
				"method": "rhf"
			},
			{
				"type": "unocc",
				"energy": 0.09584,
				"method": "rhf"
			},
			{
				"type": "unocc",
				"energy": 0.10143,
				"method": "rhf"
			},
			{
				"type": "unocc",
				"energy": 0.10349,
				"method": "rhf"
			}
		],
		"cosmo_sigma_profile": { 
			"-0.025": 0.0,
			"-0.024": 0.0,
			"-0.023": 0.0,
			"-0.022": 0.0,
			"-0.021": 0.0,
			"-0.02": 0.0,
			"-0.019": 0.0,
			"-0.018": 0.0,
			"-0.017": 0.0,
			"-0.016": 0.0,
			"-0.015": 0.0,
			"-0.014": 0.0,
			"-0.013": 0.0,
			"-0.012": 0.0,
			"-0.011": 0.0,
			"-0.01": 0.0,
			"-0.009": 0.0,
			"-0.008": 0.0,
			"-0.007": 1.19002118088,
			"-0.006": 11.120983799,
			"-0.005": 32.347823909,
			"-0.004": 59.636860524,
			"-0.003": 42.9186713607,
			"-0.002": 29.7043443328,
			"-0.001": 18.8100866795,
			"0.0": 12.4021617299,
			"0.001": 10.894871885,
			"0.002": 10.3686198878,
			"0.003": 10.2995870639,
			"0.004": 10.6956028862,
			"0.005": 9.80073520267,
			"0.006": 11.6140826612,
			"0.007": 9.16576722281,
			"0.008": 8.33354962442,
			"0.009": 8.69980992341,
			"0.01": 6.45355158532,
			"0.011": 7.41563328225,
			"0.012": 5.09740153676,
			"0.013": 3.16733082448,
			"0.014": 0.123154110824,
			"0.015": 0.0,
			"0.016": 0.0,
			"0.017": 0.0,
			"0.018": 0.0,
			"0.019": 0.0,
			"0.02": 0.0,
			"0.021": 0.0,
			"0.022": 0.0,
			"0.023": 0.0,
			"0.024": 0.0,
			"0.025": 0.0
		}
	}
}
