{
	 "smiles": "CC1=C(Cl)C(Cl)=C(Cl)C(C)=C1Cl", 
	 "Tm": 496.15, 
	 "num_atms": 18, 
	 "gaussian": { 
		 "optdone": 1, 
		 "sigma_profile": "yes", 
		 "theory": "DFT", 
		 "functional": "B3LYP", 
		 "basiset": "6-31G**", 
		 "properties": { 
			 "R2extent": 4854.9099, 
			 "electric_dipole_moment_norm": 1.89275429203, 
			 "electric_quadrupole_moment_norm": 8.09532676734, 
			 "total_energy": -2149.23813459, 
			 "HOMO_LUMO_gap": 0.21291, 
			 "cosmo_polarized_energy": -3.12, 
			 "cosmo_cavitation_energy": 27.66, 
			 "cosmo_dispersion_energy": -21.12, 
			 "cosmo_repulsion_energy": 1.66, 
			 "cosmo_total_nonelectrostatic_energy": 8.19, 
			 "SMD_solvation_energy": 3.9 
		},
		"coords": [
			{
				"x": 1.8520952361,
				"y": 0.2740224101,
				"z": 3.0114896109,
				"element": "C" 
			},
			{
				"x": 1.4216360447,
				"y": 0.786544617,
				"z": 1.6605926608,
				"element": "C" 
			},
			{
				"x": 1.375277787,
				"y": 2.1538992297,
				"z": 1.3416283277,
				"element": "C" 
			},
			{
				"x": 1.831973376,
				"y": 3.3406005979,
				"z": 2.5454473725,
				"element": "Cl" 
			},
			{
				"x": 0.9692846907,
				"y": 2.5988729889,
				"z": 0.0732945064,
				"element": "C" 
			},
			{
				"x": 0.9237782013,
				"y": 4.2990437532,
				"z": -0.2865067993,
				"element": "Cl" 
			},
			{
				"x": 0.6003534551,
				"y": 1.658374582,
				"z": -0.9018274412,
				"element": "C" 
			},
			{
				"x": 0.0964961151,
				"y": 2.2310376484,
				"z": -2.4779538186,
				"element": "Cl" 
			},
			{
				"x": 0.6274209759,
				"y": 0.2785425036,
				"z": -0.6393614198,
				"element": "C" 
			},
			{
				"x": 0.2383671601,
				"y": -0.7582953079,
				"z": -1.6623331843,
				"element": "C" 
			},
			{
				"x": 1.0414392949,
				"y": -0.1046016824,
				"z": 0.6455074236,
				"element": "C" 
			},
			{
				"x": 1.0869528655,
				"y": -1.8276348762,
				"z": 1.0103539767,
				"element": "Cl" 
			},
			{
				"x": 1.0510346574,
				"y": -0.3133101919,
				"z": 3.471262366,
				"element": "H" 
			},
			{
				"x": 2.1155090823,
				"y": 1.0871299594,
				"z": 3.684064825,
				"element": "H" 
			},
			{
				"x": 2.7164338247,
				"y": -0.3899922822,
				"z": 2.9115521182,
				"element": "H" 
			},
			{
				"x": 1.0718212329,
				"y": -1.4424067966,
				"z": -1.8502461389,
				"element": "H" 
			},
			{
				"x": -0.0548751921,
				"y": -0.3019061445,
				"z": -2.6049912383,
				"element": "H" 
			},
			{
				"x": -0.5948988077,
				"y": -1.3653210084,
				"z": -1.2945731474,
				"element": "H" 
			}
		],
		 "valence_orbital": [ 
			{
				"type": "occ",
				"energy": -0.32812,
				"method": "rhf"
			},
			{
				"type": "occ",
				"energy": -0.3149,
				"method": "rhf"
			},
			{
				"type": "occ",
				"energy": -0.3028,
				"method": "rhf"
			},
			{
				"type": "occ",
				"energy": -0.2556,
				"method": "rhf"
			},
			{
				"type": "occ",
				"energy": -0.2518,
				"method": "rhf"
			},
			{
				"type": "unocc",
				"energy": -0.03889,
				"method": "rhf"
			},
			{
				"type": "unocc",
				"energy": -0.03419,
				"method": "rhf"
			},
			{
				"type": "unocc",
				"energy": -0.02894,
				"method": "rhf"
			},
			{
				"type": "unocc",
				"energy": 0.02644,
				"method": "rhf"
			},
			{
				"type": "unocc",
				"energy": 0.04226,
				"method": "rhf"
			}
		],
		"cosmo_sigma_profile": { 
			"-0.025": 0.0,
			"-0.024": 0.0,
			"-0.023": 0.0,
			"-0.022": 0.0,
			"-0.021": 0.0,
			"-0.02": 0.0,
			"-0.019": 0.0,
			"-0.018": 0.0,
			"-0.017": 0.0,
			"-0.016": 0.0,
			"-0.015": 0.0,
			"-0.014": 0.0,
			"-0.013": 0.0,
			"-0.012": 0.0,
			"-0.011": 0.0,
			"-0.01": 0.0,
			"-0.009": 0.0,
			"-0.008": 0.0,
			"-0.007": 0.0,
			"-0.006": 0.918920496368,
			"-0.005": 6.49035334642,
			"-0.004": 11.7186327489,
			"-0.003": 17.6315845164,
			"-0.002": 26.3839449293,
			"-0.001": 42.6086795654,
			"0.0": 35.7008537783,
			"0.001": 19.5727332714,
			"0.002": 20.801537536,
			"0.003": 22.3588074565,
			"0.004": 21.5424881033,
			"0.005": 3.94561946272,
			"0.006": 0.0,
			"0.007": 0.0,
			"0.008": 0.0,
			"0.009": 0.0,
			"0.01": 0.0,
			"0.011": 0.0,
			"0.012": 0.0,
			"0.013": 0.0,
			"0.014": 0.0,
			"0.015": 0.0,
			"0.016": 0.0,
			"0.017": 0.0,
			"0.018": 0.0,
			"0.019": 0.0,
			"0.02": 0.0,
			"0.021": 0.0,
			"0.022": 0.0,
			"0.023": 0.0,
			"0.024": 0.0,
			"0.025": 0.0
		}
	}
}
