{
	 "smiles": "CC1=NC2=C(NCCO2)C=C1", 
	 "Tm": 383.15, 
	 "num_atms": 21, 
	 "gaussian": { 
		 "optdone": 1, 
		 "sigma_profile": "yes", 
		 "theory": "DFT", 
		 "functional": "B3LYP", 
		 "basiset": "6-31G**", 
		 "properties": { 
			 "R2extent": 1935.1722, 
			 "electric_dipole_moment_norm": 3.69906582531, 
			 "electric_quadrupole_moment_norm": 9.12610859841, 
			 "total_energy": -495.601154188, 
			 "HOMO_LUMO_gap": 0.1874, 
			 "cosmo_polarized_energy": -12.38, 
			 "cosmo_cavitation_energy": 23.65, 
			 "cosmo_dispersion_energy": -18.27, 
			 "cosmo_repulsion_energy": 1.47, 
			 "cosmo_total_nonelectrostatic_energy": 6.85, 
			 "SMD_solvation_energy": 1.66 
		},
		"coords": [
			{
				"x": 0.6371337727,
				"y": 4.0952807668,
				"z": 0.4463879339,
				"element": "C" 
			},
			{
				"x": 0.589553045,
				"y": 2.6576754452,
				"z": -0.0134786861,
				"element": "C" 
			},
			{
				"x": 0.6576928498,
				"y": 1.7109713872,
				"z": 0.9384621253,
				"element": "N" 
			},
			{
				"x": 0.615497407,
				"y": 0.4370824155,
				"z": 0.5893412758,
				"element": "C" 
			},
			{
				"x": 0.4910635008,
				"y": -0.0137194565,
				"z": -0.7457944054,
				"element": "C" 
			},
			{
				"x": 0.4631179624,
				"y": -1.3861339487,
				"z": -1.032824093,
				"element": "N" 
			},
			{
				"x": 0.1203860126,
				"y": -2.250798162,
				"z": 0.0871596927,
				"element": "C" 
			},
			{
				"x": 0.9561653063,
				"y": -1.8042421718,
				"z": 1.2819400652,
				"element": "C" 
			},
			{
				"x": 0.6750681931,
				"y": -0.4489259235,
				"z": 1.6340033797,
				"element": "O" 
			},
			{
				"x": 0.4313123959,
				"y": 0.9747340594,
				"z": -1.7290739357,
				"element": "C" 
			},
			{
				"x": 0.4827452091,
				"y": 2.3194996845,
				"z": -1.3658708046,
				"element": "C" 
			},
			{
				"x": -0.2568160569,
				"y": 4.6473223483,
				"z": 0.1332189134,
				"element": "H" 
			},
			{
				"x": 1.5041247513,
				"y": 4.6213331624,
				"z": 0.0294375534,
				"element": "H" 
			},
			{
				"x": 0.7028396,
				"y": 4.1286199772,
				"z": 1.5351253032,
				"element": "H" 
			},
			{
				"x": -0.0017373821,
				"y": -1.6138064323,
				"z": -1.9025548968,
				"element": "H" 
			},
			{
				"x": -0.946699983,
				"y": -2.2025031159,
				"z": 0.3595987463,
				"element": "H" 
			},
			{
				"x": 0.3608577744,
				"y": -3.2887068728,
				"z": -0.1668183628,
				"element": "H" 
			},
			{
				"x": 0.7240908366,
				"y": -2.3980380318,
				"z": 2.1690178335,
				"element": "H" 
			},
			{
				"x": 2.0234525166,
				"y": -1.9145028656,
				"z": 1.0490551393,
				"element": "H" 
			},
			{
				"x": 0.3405920824,
				"y": 0.6857050123,
				"z": -2.7738475961,
				"element": "H" 
			},
			{
				"x": 0.4348602061,
				"y": 3.0943527224,
				"z": -2.1249851814,
				"element": "H" 
			}
		],
		 "valence_orbital": [ 
			{
				"type": "occ",
				"energy": -0.31369,
				"method": "rhf"
			},
			{
				"type": "occ",
				"energy": -0.30139,
				"method": "rhf"
			},
			{
				"type": "occ",
				"energy": -0.24837,
				"method": "rhf"
			},
			{
				"type": "occ",
				"energy": -0.2471,
				"method": "rhf"
			},
			{
				"type": "occ",
				"energy": -0.19108,
				"method": "rhf"
			},
			{
				"type": "unocc",
				"energy": -0.00368,
				"method": "rhf"
			},
			{
				"type": "unocc",
				"energy": 0.01638,
				"method": "rhf"
			},
			{
				"type": "unocc",
				"energy": 0.07696,
				"method": "rhf"
			},
			{
				"type": "unocc",
				"energy": 0.11011,
				"method": "rhf"
			},
			{
				"type": "unocc",
				"energy": 0.11219,
				"method": "rhf"
			}
		],
		"cosmo_sigma_profile": { 
			"-0.025": 0.0,
			"-0.024": 0.0,
			"-0.023": 0.0,
			"-0.022": 0.0,
			"-0.021": 0.0,
			"-0.02": 0.0,
			"-0.019": 0.0,
			"-0.018": 0.0,
			"-0.017": 0.0,
			"-0.016": 0.0,
			"-0.015": 0.0,
			"-0.014": 0.0,
			"-0.013": 0.84641250269,
			"-0.012": 1.54129144911,
			"-0.011": 1.41109821719,
			"-0.01": 1.29481857277,
			"-0.009": 1.69284130655,
			"-0.008": 1.58606124187,
			"-0.007": 2.65368440614,
			"-0.006": 9.15691068669,
			"-0.005": 13.7794528067,
			"-0.004": 20.1722550091,
			"-0.003": 18.5209987108,
			"-0.002": 16.0754395858,
			"-0.001": 12.7177342827,
			"0.0": 12.6249231032,
			"0.001": 9.78556130047,
			"0.002": 8.9506134869,
			"0.003": 9.10563383412,
			"0.004": 10.6930427949,
			"0.005": 7.60562162602,
			"0.006": 3.42882468815,
			"0.007": 3.31760657505,
			"0.008": 3.14621468577,
			"0.009": 2.13209923403,
			"0.01": 2.54983043982,
			"0.011": 2.90333679265,
			"0.012": 2.7472406768,
			"0.013": 1.68542806848,
			"0.014": 1.98544189775,
			"0.015": 1.1197230964,
			"0.016": 1.1820552049,
			"0.017": 0.472139936478,
			"0.018": 0.0,
			"0.019": 0.0,
			"0.02": 0.0,
			"0.021": 0.0,
			"0.022": 0.0,
			"0.023": 0.0,
			"0.024": 0.0,
			"0.025": 0.0
		}
	}
}
