{
	 "smiles": "NC1=CC=C(Cl)C=N1", 
	 "Tm": 410.15, 
	 "num_atms": 13, 
	 "gaussian": { 
		 "optdone": 1, 
		 "sigma_profile": "yes", 
		 "theory": "DFT", 
		 "functional": "B3LYP", 
		 "basiset": "6-31G**", 
		 "properties": { 
			 "R2extent": 1510.6436, 
			 "electric_dipole_moment_norm": 3.26077242076, 
			 "electric_quadrupole_moment_norm": 10.151986641, 
			 "total_energy": -763.244192661, 
			 "HOMO_LUMO_gap": 0.18947, 
			 "cosmo_polarized_energy": -9.04, 
			 "cosmo_cavitation_energy": 19.0, 
			 "cosmo_dispersion_energy": -14.6, 
			 "cosmo_repulsion_energy": 1.22, 
			 "cosmo_total_nonelectrostatic_energy": 5.63, 
			 "SMD_solvation_energy": 1.7 
		},
		"coords": [
			{
				"x": -1.1662380405,
				"y": 1.6703051767,
				"z": -2.8982332534,
				"element": "N" 
			},
			{
				"x": -0.4270768094,
				"y": 1.3541687904,
				"z": -1.7754333768,
				"element": "C" 
			},
			{
				"x": 0.5588179182,
				"y": 2.2301265495,
				"z": -1.2729388664,
				"element": "C" 
			},
			{
				"x": 1.3021246146,
				"y": 1.834444708,
				"z": -0.1721740331,
				"element": "C" 
			},
			{
				"x": 1.0488687261,
				"y": 0.5813953923,
				"z": 0.3919521071,
				"element": "C" 
			},
			{
				"x": 1.9579576284,
				"y": 0.0247378287,
				"z": 1.78706035,
				"element": "Cl" 
			},
			{
				"x": 0.0578833798,
				"y": -0.2198260429,
				"z": -0.1678117956,
				"element": "C" 
			},
			{
				"x": -0.6696922926,
				"y": 0.1548797957,
				"z": -1.2238770309,
				"element": "N" 
			},
			{
				"x": -1.9809873918,
				"y": 1.0886733169,
				"z": -3.0337916156,
				"element": "H" 
			},
			{
				"x": -1.2984600917,
				"y": 2.6475202515,
				"z": -3.1102308405,
				"element": "H" 
			},
			{
				"x": 0.7356484743,
				"y": 3.192446278,
				"z": -1.7437234467,
				"element": "H" 
			},
			{
				"x": 2.0676605525,
				"y": 2.4804500649,
				"z": 0.2444858983,
				"element": "H" 
			},
			{
				"x": -0.1606066679,
				"y": -1.1977221097,
				"z": 0.2551159036,
				"element": "H" 
			}
		],
		 "valence_orbital": [ 
			{
				"type": "occ",
				"energy": -0.3162,
				"method": "rhf"
			},
			{
				"type": "occ",
				"energy": -0.30324,
				"method": "rhf"
			},
			{
				"type": "occ",
				"energy": -0.28759,
				"method": "rhf"
			},
			{
				"type": "occ",
				"energy": -0.26478,
				"method": "rhf"
			},
			{
				"type": "occ",
				"energy": -0.21599,
				"method": "rhf"
			},
			{
				"type": "unocc",
				"energy": -0.02652,
				"method": "rhf"
			},
			{
				"type": "unocc",
				"energy": -0.00043,
				"method": "rhf"
			},
			{
				"type": "unocc",
				"energy": 0.03293,
				"method": "rhf"
			},
			{
				"type": "unocc",
				"energy": 0.08251,
				"method": "rhf"
			},
			{
				"type": "unocc",
				"energy": 0.11371,
				"method": "rhf"
			}
		],
		"cosmo_sigma_profile": { 
			"-0.025": 0.0,
			"-0.024": 0.0,
			"-0.023": 0.0,
			"-0.022": 0.0,
			"-0.021": 0.0,
			"-0.02": 0.0,
			"-0.019": 0.0,
			"-0.018": 0.0,
			"-0.017": 0.0,
			"-0.016": 0.0,
			"-0.015": 0.0,
			"-0.014": 0.364228637599,
			"-0.013": 1.77376320321,
			"-0.012": 2.53644675372,
			"-0.011": 1.59412538505,
			"-0.01": 3.36459169697,
			"-0.009": 3.35666441967,
			"-0.008": 3.86910324756,
			"-0.007": 6.82701770643,
			"-0.006": 5.27171487942,
			"-0.005": 7.02374599817,
			"-0.004": 5.71779427005,
			"-0.003": 5.26636351582,
			"-0.002": 5.62518434796,
			"-0.001": 8.96217347604,
			"0.0": 8.68115328246,
			"0.001": 13.4794083633,
			"0.002": 18.3289891785,
			"0.003": 14.2273048838,
			"0.004": 10.6559493404,
			"0.005": 11.1700756556,
			"0.006": 3.13474992866,
			"0.007": 2.11242681282,
			"0.008": 1.96625212976,
			"0.009": 2.16487477986,
			"0.01": 1.722108038,
			"0.011": 1.1141004834,
			"0.012": 1.76892572508,
			"0.013": 0.772938610588,
			"0.014": 0.640264374485,
			"0.015": 0.743284019585,
			"0.016": 0.0,
			"0.017": 0.0,
			"0.018": 0.0,
			"0.019": 0.0,
			"0.02": 0.0,
			"0.021": 0.0,
			"0.022": 0.0,
			"0.023": 0.0,
			"0.024": 0.0,
			"0.025": 0.0
		}
	}
}
