{
	 "smiles": "N#CC1=CC=C(C=C1)C1=CSC=C1", 
	 "Tm": 383.15, 
	 "num_atms": 20, 
	 "gaussian": { 
		 "optdone": 1, 
		 "sigma_profile": "yes", 
		 "theory": "DFT", 
		 "functional": "B3LYP", 
		 "basiset": "6-31G**", 
		 "properties": { 
			 "R2extent": 4834.1237, 
			 "electric_dipole_moment_norm": 4.86018260357, 
			 "electric_quadrupole_moment_norm": 16.7188615638, 
			 "total_energy": -876.30236188, 
			 "HOMO_LUMO_gap": 0.17254, 
			 "cosmo_polarized_energy": -10.5, 
			 "cosmo_cavitation_energy": 27.31, 
			 "cosmo_dispersion_energy": -20.07, 
			 "cosmo_repulsion_energy": 1.51, 
			 "cosmo_total_nonelectrostatic_energy": 8.75, 
			 "SMD_solvation_energy": 6.07 
		},
		"coords": [
			{
				"x": 3.581571693,
				"y": -2.1256626117,
				"z": -1.14648935,
				"element": "N" 
			},
			{
				"x": 2.5397985042,
				"y": -1.6073984684,
				"z": -1.1614994761,
				"element": "C" 
			},
			{
				"x": 1.2568781047,
				"y": -0.9695805738,
				"z": -1.1802246598,
				"element": "C" 
			},
			{
				"x": 0.6620506664,
				"y": -0.608762669,
				"z": -2.401652209,
				"element": "C" 
			},
			{
				"x": -0.5790402237,
				"y": 0.0142499214,
				"z": -2.4131251671,
				"element": "C" 
			},
			{
				"x": -1.2689834008,
				"y": 0.2878350579,
				"z": -1.2174885844,
				"element": "C" 
			},
			{
				"x": -0.6608472941,
				"y": -0.0780741006,
				"z": -0.0026732335,
				"element": "C" 
			},
			{
				"x": 0.5833888783,
				"y": -0.6960919495,
				"z": 0.022081991,
				"element": "C" 
			},
			{
				"x": -2.5939104273,
				"y": 0.9368459338,
				"z": -1.2326618468,
				"element": "C" 
			},
			{
				"x": -3.5121786592,
				"y": 0.805579596,
				"z": -2.2509348225,
				"element": "C" 
			},
			{
				"x": -4.964732274,
				"y": 1.6888939792,
				"z": -1.9433893039,
				"element": "S" 
			},
			{
				"x": -4.349046257,
				"y": 2.2608933104,
				"z": -0.4260216608,
				"element": "C" 
			},
			{
				"x": -3.0950982351,
				"y": 1.7821838594,
				"z": -0.1816508145,
				"element": "C" 
			},
			{
				"x": 1.1838754394,
				"y": -0.8091618859,
				"z": -3.3314738813,
				"element": "H" 
			},
			{
				"x": -1.0125168342,
				"y": 0.3168301072,
				"z": -3.3610045408,
				"element": "H" 
			},
			{
				"x": -1.179912293,
				"y": 0.1035015781,
				"z": 0.9328641808,
				"element": "H" 
			},
			{
				"x": 1.0371804957,
				"y": -0.9774581763,
				"z": 0.9665001321,
				"element": "H" 
			},
			{
				"x": -3.4286399852,
				"y": 0.2038877585,
				"z": -3.1449966943,
				"element": "H" 
			},
			{
				"x": -4.9425524425,
				"y": 2.926517295,
				"z": 0.1848890535,
				"element": "H" 
			},
			{
				"x": -2.5235854556,
				"y": 2.0445720384,
				"z": 0.7009508874,
				"element": "H" 
			}
		],
		 "valence_orbital": [ 
			{
				"type": "occ",
				"energy": -0.3279,
				"method": "rhf"
			},
			{
				"type": "occ",
				"energy": -0.28773,
				"method": "rhf"
			},
			{
				"type": "occ",
				"energy": -0.27666,
				"method": "rhf"
			},
			{
				"type": "occ",
				"energy": -0.25714,
				"method": "rhf"
			},
			{
				"type": "occ",
				"energy": -0.23474,
				"method": "rhf"
			},
			{
				"type": "unocc",
				"energy": -0.0622,
				"method": "rhf"
			},
			{
				"type": "unocc",
				"energy": -0.02685,
				"method": "rhf"
			},
			{
				"type": "unocc",
				"energy": -0.01745,
				"method": "rhf"
			},
			{
				"type": "unocc",
				"energy": 0.01983,
				"method": "rhf"
			},
			{
				"type": "unocc",
				"energy": 0.03816,
				"method": "rhf"
			}
		],
		"cosmo_sigma_profile": { 
			"-0.025": 0.0,
			"-0.024": 0.0,
			"-0.023": 0.0,
			"-0.022": 0.0,
			"-0.021": 0.0,
			"-0.02": 0.0,
			"-0.019": 0.0,
			"-0.018": 0.0,
			"-0.017": 0.0,
			"-0.016": 0.0,
			"-0.015": 0.0,
			"-0.014": 0.0,
			"-0.013": 0.0,
			"-0.012": 0.0,
			"-0.011": 0.0,
			"-0.01": 0.0,
			"-0.009": 1.01810552013,
			"-0.008": 8.14579576338,
			"-0.007": 14.343284291,
			"-0.006": 14.3792348039,
			"-0.005": 12.6371405497,
			"-0.004": 11.4902103039,
			"-0.003": 10.9985229629,
			"-0.002": 11.8685939795,
			"-0.001": 14.4129863272,
			"0.0": 15.8306330424,
			"0.001": 17.444839434,
			"0.002": 24.9953164335,
			"0.003": 21.9989198414,
			"0.004": 16.2063112498,
			"0.005": 5.00169520133,
			"0.006": 3.22031448392,
			"0.007": 2.48236168924,
			"0.008": 3.48650114219,
			"0.009": 3.16611499534,
			"0.01": 3.65967642321,
			"0.011": 2.4724351146,
			"0.012": 2.72612024787,
			"0.013": 1.78914125214,
			"0.014": 0.111330659368,
			"0.015": 0.0,
			"0.016": 0.0,
			"0.017": 0.0,
			"0.018": 0.0,
			"0.019": 0.0,
			"0.02": 0.0,
			"0.021": 0.0,
			"0.022": 0.0,
			"0.023": 0.0,
			"0.024": 0.0,
			"0.025": 0.0
		}
	}
}
