{
	 "smiles": "NC1=C(C=CC(Cl)=N1)C(O)=O", 
	 "Tm": 490.15, 
	 "num_atms": 16, 
	 "gaussian": { 
		 "optdone": 1, 
		 "sigma_profile": "yes", 
		 "theory": "DFT", 
		 "functional": "B3LYP", 
		 "basiset": "6-31G**", 
		 "properties": { 
			 "R2extent": 2555.3582, 
			 "electric_dipole_moment_norm": 1.91774008145, 
			 "electric_quadrupole_moment_norm": 15.9993522225, 
			 "total_energy": -951.81794923, 
			 "HOMO_LUMO_gap": 0.16785, 
			 "cosmo_polarized_energy": -15.29, 
			 "cosmo_cavitation_energy": 22.43, 
			 "cosmo_dispersion_energy": -17.4, 
			 "cosmo_repulsion_energy": 1.4, 
			 "cosmo_total_nonelectrostatic_energy": 6.43, 
			 "SMD_solvation_energy": 3.25 
		},
		"coords": [
			{
				"x": 1.868154932,
				"y": 0.2594514372,
				"z": 2.7363343149,
				"element": "N" 
			},
			{
				"x": 1.1346117751,
				"y": 0.0330084779,
				"z": 1.6305214502,
				"element": "C" 
			},
			{
				"x": -0.2459863815,
				"y": 0.407612943,
				"z": 1.5354586035,
				"element": "C" 
			},
			{
				"x": -0.9101252117,
				"y": 0.0684992128,
				"z": 0.3490138355,
				"element": "C" 
			},
			{
				"x": -0.2513803054,
				"y": -0.5564917376,
				"z": -0.6995522206,
				"element": "C" 
			},
			{
				"x": 1.1079798356,
				"y": -0.8242192683,
				"z": -0.4944199971,
				"element": "C" 
			},
			{
				"x": 2.0070188049,
				"y": -1.5933465875,
				"z": -1.7979917785,
				"element": "Cl" 
			},
			{
				"x": 1.7813788385,
				"y": -0.5590903989,
				"z": 0.599282928,
				"element": "N" 
			},
			{
				"x": -0.9122779014,
				"y": 1.085671316,
				"z": 2.6707420423,
				"element": "C" 
			},
			{
				"x": -2.1336825941,
				"y": 1.6361798882,
				"z": 2.4520019252,
				"element": "O" 
			},
			{
				"x": -0.4292720866,
				"y": 1.1781739202,
				"z": 3.7867559363,
				"element": "O" 
			},
			{
				"x": 2.8221674145,
				"y": -0.0640847152,
				"z": 2.741262168,
				"element": "H" 
			},
			{
				"x": 1.3992916708,
				"y": 0.6077561018,
				"z": 3.5635963109,
				"element": "H" 
			},
			{
				"x": -1.9743752545,
				"y": 0.2646978272,
				"z": 0.2400676286,
				"element": "H" 
			},
			{
				"x": -0.7495884666,
				"y": -0.8304700792,
				"z": -1.6195783504,
				"element": "H" 
			},
			{
				"x": -2.3327150695,
				"y": 1.6684516623,
				"z": 1.5070052033,
				"element": "H" 
			}
		],
		 "valence_orbital": [ 
			{
				"type": "occ",
				"energy": -0.32185,
				"method": "rhf"
			},
			{
				"type": "occ",
				"energy": -0.29527,
				"method": "rhf"
			},
			{
				"type": "occ",
				"energy": -0.29208,
				"method": "rhf"
			},
			{
				"type": "occ",
				"energy": -0.28598,
				"method": "rhf"
			},
			{
				"type": "occ",
				"energy": -0.23474,
				"method": "rhf"
			},
			{
				"type": "unocc",
				"energy": -0.06689,
				"method": "rhf"
			},
			{
				"type": "unocc",
				"energy": -0.02237,
				"method": "rhf"
			},
			{
				"type": "unocc",
				"energy": 0.02282,
				"method": "rhf"
			},
			{
				"type": "unocc",
				"energy": 0.03214,
				"method": "rhf"
			},
			{
				"type": "unocc",
				"energy": 0.05394,
				"method": "rhf"
			}
		],
		"cosmo_sigma_profile": { 
			"-0.025": 0.0,
			"-0.024": 0.0,
			"-0.023": 0.0,
			"-0.022": 0.0,
			"-0.021": 0.0,
			"-0.02": 0.12866309006,
			"-0.019": 0.981557112792,
			"-0.018": 1.05440794418,
			"-0.017": 1.18076262972,
			"-0.016": 0.613273164606,
			"-0.015": 1.27575540199,
			"-0.014": 2.00083301567,
			"-0.013": 1.80096594024,
			"-0.012": 1.74448452344,
			"-0.011": 2.95625879613,
			"-0.01": 2.76070430691,
			"-0.009": 2.79197139786,
			"-0.008": 4.91131229367,
			"-0.007": 5.91076314577,
			"-0.006": 5.40864216719,
			"-0.005": 3.97926037952,
			"-0.004": 4.94435891995,
			"-0.003": 6.78313429171,
			"-0.002": 8.67131993681,
			"-0.001": 15.0245250536,
			"0.0": 18.1216549277,
			"0.001": 14.1829481196,
			"0.002": 12.7438808441,
			"0.003": 11.766228881,
			"0.004": 12.930186577,
			"0.005": 6.5474750659,
			"0.006": 4.30273112984,
			"0.007": 3.92706845072,
			"0.008": 4.22966342517,
			"0.009": 4.0605675185,
			"0.01": 5.44769691006,
			"0.011": 4.39229869418,
			"0.012": 3.32911447073,
			"0.013": 1.55226748347,
			"0.014": 0.0441124111417,
			"0.015": 0.0,
			"0.016": 0.0,
			"0.017": 0.0,
			"0.018": 0.0,
			"0.019": 0.0,
			"0.02": 0.0,
			"0.021": 0.0,
			"0.022": 0.0,
			"0.023": 0.0,
			"0.024": 0.0,
			"0.025": 0.0
		}
	}
}
