{
	 "smiles": "NC1=C(C#N)C(C2=CC=C(Cl)C=C2)C(C#N)=C2SC3=CC=CC=C3N12", 
	 "Tm": 482.15, 
	 "num_atms": 36, 
	 "gaussian": { 
		 "optdone": 1, 
		 "sigma_profile": "yes", 
		 "theory": "DFT", 
		 "functional": "B3LYP", 
		 "basiset": "6-31G**", 
		 "properties": { 
			 "R2extent": 10500.5976, 
			 "electric_dipole_moment_norm": 8.26129810744, 
			 "electric_quadrupole_moment_norm": 16.7083481167, 
			 "total_energy": -1807.98909053, 
			 "HOMO_LUMO_gap": 0.15498, 
			 "cosmo_polarized_energy": -23.33, 
			 "cosmo_cavitation_energy": 45.36, 
			 "cosmo_dispersion_energy": -30.95, 
			 "cosmo_repulsion_energy": 2.3, 
			 "cosmo_total_nonelectrostatic_energy": 16.71, 
			 "SMD_solvation_energy": 9.04 
		},
		"coords": [
			{
				"x": 2.1133139138,
				"y": 1.1273119428,
				"z": 1.5784124515,
				"element": "N" 
			},
			{
				"x": 1.6188394801,
				"y": 0.5622342765,
				"z": 0.419404192,
				"element": "C" 
			},
			{
				"x": 1.722004853,
				"y": 1.1467733002,
				"z": -0.8153043919,
				"element": "C" 
			},
			{
				"x": 2.4806883048,
				"y": 2.3409170049,
				"z": -0.919309251,
				"element": "C" 
			},
			{
				"x": 3.1139519088,
				"y": 3.320298023,
				"z": -0.9712568694,
				"element": "N" 
			},
			{
				"x": 1.0822247244,
				"y": 0.5664478206,
				"z": -2.0662791086,
				"element": "C" 
			},
			{
				"x": -0.2385272243,
				"y": 1.2232045475,
				"z": -2.4824627708,
				"element": "C" 
			},
			{
				"x": -1.1604509561,
				"y": 1.6952693366,
				"z": -1.5415169066,
				"element": "C" 
			},
			{
				"x": -2.3746184637,
				"y": 2.2518294157,
				"z": -1.941296026,
				"element": "C" 
			},
			{
				"x": -2.6694430154,
				"y": 2.3343666053,
				"z": -3.3016456938,
				"element": "C" 
			},
			{
				"x": -4.1966887807,
				"y": 3.0371572507,
				"z": -3.8140232466,
				"element": "Cl" 
			},
			{
				"x": -1.7688458908,
				"y": 1.8735014927,
				"z": -4.2605306594,
				"element": "C" 
			},
			{
				"x": -0.558099211,
				"y": 1.3228127264,
				"z": -3.8421755159,
				"element": "C" 
			},
			{
				"x": 0.9232776608,
				"y": -0.9413815759,
				"z": -1.8585417516,
				"element": "C" 
			},
			{
				"x": 0.8256686519,
				"y": -1.7884935151,
				"z": -2.9910600292,
				"element": "C" 
			},
			{
				"x": 0.7516248236,
				"y": -2.4680812919,
				"z": -3.9363650282,
				"element": "N" 
			},
			{
				"x": 0.8177939409,
				"y": -1.4591252426,
				"z": -0.6083875482,
				"element": "C" 
			},
			{
				"x": 0.4918577269,
				"y": -3.1468941927,
				"z": -0.2007562801,
				"element": "S" 
			},
			{
				"x": 0.3825967759,
				"y": -2.7251936794,
				"z": 1.5144704605,
				"element": "C" 
			},
			{
				"x": 0.035050057,
				"y": -3.5823116648,
				"z": 2.5531033879,
				"element": "C" 
			},
			{
				"x": -0.0740634511,
				"y": -3.0625411949,
				"z": 3.8449327066,
				"element": "C" 
			},
			{
				"x": 0.1391153854,
				"y": -1.7021717724,
				"z": 4.0734923204,
				"element": "C" 
			},
			{
				"x": 0.4889175304,
				"y": -0.8373553054,
				"z": 3.0327289391,
				"element": "C" 
			},
			{
				"x": 0.6419779423,
				"y": -1.3630561282,
				"z": 1.7457450541,
				"element": "C" 
			},
			{
				"x": 0.9816721562,
				"y": -0.6807549605,
				"z": 0.5488656076,
				"element": "N" 
			},
			{
				"x": 2.6347326324,
				"y": 1.9808149642,
				"z": 1.4137541941,
				"element": "H" 
			},
			{
				"x": 2.5928121393,
				"y": 0.4905141885,
				"z": 2.2035872743,
				"element": "H" 
			},
			{
				"x": 1.7848753535,
				"y": 0.7123856164,
				"z": -2.8947175091,
				"element": "H" 
			},
			{
				"x": -0.9285217985,
				"y": 1.6433118191,
				"z": -0.4821837244,
				"element": "H" 
			},
			{
				"x": -3.0832429183,
				"y": 2.621175669,
				"z": -1.2082422342,
				"element": "H" 
			},
			{
				"x": -2.008779058,
				"y": 1.948854609,
				"z": -5.3152175297,
				"element": "H" 
			},
			{
				"x": 0.1446259867,
				"y": 0.9631953548,
				"z": -4.589126529,
				"element": "H" 
			},
			{
				"x": -0.1596718481,
				"y": -4.6318707474,
				"z": 2.3579786843,
				"element": "H" 
			},
			{
				"x": -0.344009914,
				"y": -3.7183147857,
				"z": 4.6662230732,
				"element": "H" 
			},
			{
				"x": 0.0221538398,
				"y": -1.2967044154,
				"z": 5.0734422556,
				"element": "H" 
			},
			{
				"x": 0.6158867422,
				"y": 0.2207745083,
				"z": 3.2170580025,
				"element": "H" 
			}
		],
		 "valence_orbital": [ 
			{
				"type": "occ",
				"energy": -0.27508,
				"method": "rhf"
			},
			{
				"type": "occ",
				"energy": -0.26619,
				"method": "rhf"
			},
			{
				"type": "occ",
				"energy": -0.25075,
				"method": "rhf"
			},
			{
				"type": "occ",
				"energy": -0.23959,
				"method": "rhf"
			},
			{
				"type": "occ",
				"energy": -0.21618,
				"method": "rhf"
			},
			{
				"type": "unocc",
				"energy": -0.0612,
				"method": "rhf"
			},
			{
				"type": "unocc",
				"energy": -0.04502,
				"method": "rhf"
			},
			{
				"type": "unocc",
				"energy": -0.03738,
				"method": "rhf"
			},
			{
				"type": "unocc",
				"energy": -0.0234,
				"method": "rhf"
			},
			{
				"type": "unocc",
				"energy": -0.0181,
				"method": "rhf"
			}
		],
		"cosmo_sigma_profile": { 
			"-0.025": 0.0,
			"-0.024": 0.0,
			"-0.023": 0.0,
			"-0.022": 0.0,
			"-0.021": 0.0,
			"-0.02": 0.0,
			"-0.019": 0.0,
			"-0.018": 0.0,
			"-0.017": 0.0,
			"-0.016": 0.0,
			"-0.015": 0.255495741279,
			"-0.014": 1.742137351,
			"-0.013": 2.70931842795,
			"-0.012": 3.1091983733,
			"-0.011": 1.639818982,
			"-0.01": 2.62231534661,
			"-0.009": 2.23503265495,
			"-0.008": 7.15711131237,
			"-0.007": 16.1447110074,
			"-0.006": 20.9942843768,
			"-0.005": 22.1886646508,
			"-0.004": 20.3877610174,
			"-0.003": 19.3534840134,
			"-0.002": 21.9692296372,
			"-0.001": 25.9553486691,
			"0.0": 29.5336567755,
			"0.001": 30.2379657065,
			"0.002": 31.5203649358,
			"0.003": 32.0066939115,
			"0.004": 24.7688304335,
			"0.005": 10.8347419673,
			"0.006": 4.64422106296,
			"0.007": 4.63121428458,
			"0.008": 5.37228297462,
			"0.009": 5.74363617254,
			"0.01": 6.34834031805,
			"0.011": 6.22898089519,
			"0.012": 5.52830730493,
			"0.013": 4.60689299984,
			"0.014": 1.33476378855,
			"0.015": 0.0,
			"0.016": 0.0,
			"0.017": 0.0,
			"0.018": 0.0,
			"0.019": 0.0,
			"0.02": 0.0,
			"0.021": 0.0,
			"0.022": 0.0,
			"0.023": 0.0,
			"0.024": 0.0,
			"0.025": 0.0
		}
	}
}
