{
	 "smiles": "CC1=CN(CC2=CC=C(N)C=C2)N=C1", 
	 "Tm": 352.15, 
	 "num_atms": 27, 
	 "gaussian": { 
		 "optdone": 1, 
		 "sigma_profile": "yes", 
		 "theory": "DFT", 
		 "functional": "B3LYP", 
		 "basiset": "6-31G**", 
		 "properties": { 
			 "R2extent": 4860.5813, 
			 "electric_dipole_moment_norm": 3.36558195562, 
			 "electric_quadrupole_moment_norm": 10.9518214649, 
			 "total_energy": -591.247041242, 
			 "HOMO_LUMO_gap": 0.20258, 
			 "cosmo_polarized_energy": -13.14, 
			 "cosmo_cavitation_energy": 30.92, 
			 "cosmo_dispersion_energy": -22.14, 
			 "cosmo_repulsion_energy": 1.76, 
			 "cosmo_total_nonelectrostatic_energy": 10.54, 
			 "SMD_solvation_energy": 4.76 
		},
		"coords": [
			{
				"x": -0.7345235215,
				"y": 2.6521302932,
				"z": 4.2546755804,
				"element": "C" 
			},
			{
				"x": -1.480004799,
				"y": 2.493677868,
				"z": 2.9620956927,
				"element": "C" 
			},
			{
				"x": -1.629229171,
				"y": 1.3481083161,
				"z": 2.1988537181,
				"element": "C" 
			},
			{
				"x": -2.4039701632,
				"y": 1.6692244881,
				"z": 1.1268849383,
				"element": "N" 
			},
			{
				"x": -2.7602191235,
				"y": 0.8264910329,
				"z": -0.0114621163,
				"element": "C" 
			},
			{
				"x": -1.6743417012,
				"y": 0.7212754706,
				"z": -1.0636191827,
				"element": "C" 
			},
			{
				"x": -1.1601994564,
				"y": 1.8706417407,
				"z": -1.680788305,
				"element": "C" 
			},
			{
				"x": -0.174819958,
				"y": 1.7806199642,
				"z": -2.6562331739,
				"element": "C" 
			},
			{
				"x": 0.3302940242,
				"y": 0.5285662655,
				"z": -3.0548116017,
				"element": "C" 
			},
			{
				"x": 1.2770983462,
				"y": 0.4351924524,
				"z": -4.0765086166,
				"element": "N" 
			},
			{
				"x": -0.1835061359,
				"y": -0.6237396513,
				"z": -2.4391177533,
				"element": "C" 
			},
			{
				"x": -1.1683523027,
				"y": -0.5203143334,
				"z": -1.4583450418,
				"element": "C" 
			},
			{
				"x": -2.7620088535,
				"y": 2.9722090397,
				"z": 1.1318844046,
				"element": "N" 
			},
			{
				"x": -2.2094043494,
				"y": 3.4691524834,
				"z": 2.2392376777,
				"element": "C" 
			},
			{
				"x": 0.0317844082,
				"y": 3.4328437846,
				"z": 4.186579522,
				"element": "H" 
			},
			{
				"x": -1.4025371859,
				"y": 2.9275164271,
				"z": 5.0793219593,
				"element": "H" 
			},
			{
				"x": -0.2315562263,
				"y": 1.7224921369,
				"z": 4.5368999951,
				"element": "H" 
			},
			{
				"x": -1.2471452188,
				"y": 0.3467488662,
				"z": 2.3398509159,
				"element": "H" 
			},
			{
				"x": -3.0163340157,
				"y": -0.1684783028,
				"z": 0.3665157461,
				"element": "H" 
			},
			{
				"x": -3.6707703597,
				"y": 1.2702773877,
				"z": -0.4237819937,
				"element": "H" 
			},
			{
				"x": -1.533048098,
				"y": 2.8454403762,
				"z": -1.3783808515,
				"element": "H" 
			},
			{
				"x": 0.2088004932,
				"y": 2.684394879,
				"z": -3.1238854175,
				"element": "H" 
			},
			{
				"x": 1.8349748487,
				"y": -0.4075558833,
				"z": -4.0706025028,
				"element": "H" 
			},
			{
				"x": 1.8438827505,
				"y": 1.2607231555,
				"z": -4.2134958815,
				"element": "H" 
			},
			{
				"x": 0.1912906856,
				"y": -1.6016928816,
				"z": -2.7316091259,
				"element": "H" 
			},
			{
				"x": -1.5475979764,
				"y": -1.4282397489,
				"z": -0.9939763144,
				"element": "H" 
			},
			{
				"x": -2.3601569407,
				"y": 4.5119943732,
				"z": 2.4892177284,
				"element": "H" 
			}
		],
		 "valence_orbital": [ 
			{
				"type": "occ",
				"energy": -0.27356,
				"method": "rhf"
			},
			{
				"type": "occ",
				"energy": -0.246,
				"method": "rhf"
			},
			{
				"type": "occ",
				"energy": -0.2363,
				"method": "rhf"
			},
			{
				"type": "occ",
				"energy": -0.22315,
				"method": "rhf"
			},
			{
				"type": "occ",
				"energy": -0.20023,
				"method": "rhf"
			},
			{
				"type": "unocc",
				"energy": 0.00235,
				"method": "rhf"
			},
			{
				"type": "unocc",
				"energy": 0.01253,
				"method": "rhf"
			},
			{
				"type": "unocc",
				"energy": 0.03291,
				"method": "rhf"
			},
			{
				"type": "unocc",
				"energy": 0.07576,
				"method": "rhf"
			},
			{
				"type": "unocc",
				"energy": 0.0809,
				"method": "rhf"
			}
		],
		"cosmo_sigma_profile": { 
			"-0.025": 0.0,
			"-0.024": 0.0,
			"-0.023": 0.0,
			"-0.022": 0.0,
			"-0.021": 0.0,
			"-0.02": 0.0,
			"-0.019": 0.0,
			"-0.018": 0.0,
			"-0.017": 0.0,
			"-0.016": 0.0,
			"-0.015": 0.0,
			"-0.014": 0.0,
			"-0.013": 0.18064072832,
			"-0.012": 2.31818196459,
			"-0.011": 2.49747893923,
			"-0.01": 3.35533226557,
			"-0.009": 3.0663073825,
			"-0.008": 4.41895384782,
			"-0.007": 6.30658974804,
			"-0.006": 12.6506448123,
			"-0.005": 13.3684798353,
			"-0.004": 18.9266685075,
			"-0.003": 19.8873646858,
			"-0.002": 16.6124563086,
			"-0.001": 18.1254326158,
			"0.0": 18.2531307349,
			"0.001": 13.299800476,
			"0.002": 11.7244902018,
			"0.003": 10.8899130003,
			"0.004": 14.494739392,
			"0.005": 14.9562713491,
			"0.006": 16.8033087208,
			"0.007": 8.56613717742,
			"0.008": 2.27041119705,
			"0.009": 2.05366981822,
			"0.01": 2.16398061997,
			"0.011": 1.53816109192,
			"0.012": 1.70346039632,
			"0.013": 1.21936831074,
			"0.014": 2.04488234215,
			"0.015": 0.785021826706,
			"0.016": 0.614833046177,
			"0.017": 0.0286774390015,
			"0.018": 0.0,
			"0.019": 0.0,
			"0.02": 0.0,
			"0.021": 0.0,
			"0.022": 0.0,
			"0.023": 0.0,
			"0.024": 0.0,
			"0.025": 0.0
		}
	}
}
