{
	 "smiles": "[O-][N+](=O)C1=CC=CC(=C1)C(Cl)=O", 
	 "Tm": 307.65, 
	 "num_atms": 16, 
	 "gaussian": { 
		 "optdone": 1, 
		 "sigma_profile": "yes", 
		 "theory": "DFT", 
		 "functional": "B3LYP", 
		 "basiset": "6-31G**", 
		 "properties": { 
			 "R2extent": 3191.2745, 
			 "electric_dipole_moment_norm": 4.24109060856, 
			 "electric_quadrupole_moment_norm": 12.3597110982, 
			 "total_energy": -1009.67358781, 
			 "HOMO_LUMO_gap": 0.19452, 
			 "cosmo_polarized_energy": -9.76, 
			 "cosmo_cavitation_energy": 23.87, 
			 "cosmo_dispersion_energy": -17.61, 
			 "cosmo_repulsion_energy": 1.4, 
			 "cosmo_total_nonelectrostatic_energy": 7.66, 
			 "SMD_solvation_energy": 7.06 
		},
		"coords": [
			{
				"x": -3.2625854785,
				"y": -1.4630265276,
				"z": -2.4703478264,
				"element": "O" 
			},
			{
				"x": -2.8513549796,
				"y": -0.3059973102,
				"z": -2.4895275894,
				"element": "N" 
			},
			{
				"x": -3.4005576884,
				"y": 0.6327119872,
				"z": -3.0626148091,
				"element": "O" 
			},
			{
				"x": -1.5964321828,
				"y": -0.0166958121,
				"z": -1.7665157186,
				"element": "C" 
			},
			{
				"x": -1.1031774795,
				"y": 1.2879149728,
				"z": -1.7694873781,
				"element": "C" 
			},
			{
				"x": 0.0810394548,
				"y": 1.5541259304,
				"z": -1.0854233758,
				"element": "C" 
			},
			{
				"x": 0.7535529394,
				"y": 0.5326185837,
				"z": -0.4140692472,
				"element": "C" 
			},
			{
				"x": 0.2411598317,
				"y": -0.772682398,
				"z": -0.4230247917,
				"element": "C" 
			},
			{
				"x": -0.9503068107,
				"y": -1.0529854469,
				"z": -1.1083537759,
				"element": "C" 
			},
			{
				"x": 0.8849493946,
				"y": -1.9264189935,
				"z": 0.262108136,
				"element": "C" 
			},
			{
				"x": 2.4301172514,
				"y": -1.5416865359,
				"z": 1.1468629641,
				"element": "Cl" 
			},
			{
				"x": 0.4709899051,
				"y": -3.0455242194,
				"z": 0.2704040705,
				"element": "O" 
			},
			{
				"x": -1.6474533182,
				"y": 2.0596869376,
				"z": -2.2994969699,
				"element": "H" 
			},
			{
				"x": 0.4823667656,
				"y": 2.5619213158,
				"z": -1.0749130222,
				"element": "H" 
			},
			{
				"x": 1.6738168032,
				"y": 0.7442026358,
				"z": 0.1164037356,
				"element": "H" 
			},
			{
				"x": -1.359224408,
				"y": -2.0550651196,
				"z": -1.125104402,
				"element": "H" 
			}
		],
		 "valence_orbital": [ 
			{
				"type": "occ",
				"energy": -0.32306,
				"method": "rhf"
			},
			{
				"type": "occ",
				"energy": -0.31145,
				"method": "rhf"
			},
			{
				"type": "occ",
				"energy": -0.30845,
				"method": "rhf"
			},
			{
				"type": "occ",
				"energy": -0.3076,
				"method": "rhf"
			},
			{
				"type": "occ",
				"energy": -0.30393,
				"method": "rhf"
			},
			{
				"type": "unocc",
				"energy": -0.10941,
				"method": "rhf"
			},
			{
				"type": "unocc",
				"energy": -0.09518,
				"method": "rhf"
			},
			{
				"type": "unocc",
				"energy": -0.02999,
				"method": "rhf"
			},
			{
				"type": "unocc",
				"energy": 0.00351,
				"method": "rhf"
			},
			{
				"type": "unocc",
				"energy": 0.01239,
				"method": "rhf"
			}
		],
		"cosmo_sigma_profile": { 
			"-0.025": 0.0,
			"-0.024": 0.0,
			"-0.023": 0.0,
			"-0.022": 0.0,
			"-0.021": 0.0,
			"-0.02": 0.0,
			"-0.019": 0.0,
			"-0.018": 0.0,
			"-0.017": 0.0,
			"-0.016": 0.0,
			"-0.015": 0.0,
			"-0.014": 0.0,
			"-0.013": 0.0,
			"-0.012": 0.0,
			"-0.011": 0.0,
			"-0.01": 0.0,
			"-0.009": 1.6315700782,
			"-0.008": 7.29146398413,
			"-0.007": 7.09747143844,
			"-0.006": 8.95267671797,
			"-0.005": 11.2704530534,
			"-0.004": 12.3289236935,
			"-0.003": 17.4402204202,
			"-0.002": 19.6367503222,
			"-0.001": 16.8665432427,
			"0.0": 13.0774906655,
			"0.001": 9.51892404591,
			"0.002": 7.73889066985,
			"0.003": 10.4405319177,
			"0.004": 10.688626293,
			"0.005": 7.02431897611,
			"0.006": 7.27440277215,
			"0.007": 12.3298825603,
			"0.008": 9.05157317322,
			"0.009": 4.87109763476,
			"0.01": 0.852385371687,
			"0.011": 0.0,
			"0.012": 0.0,
			"0.013": 0.0,
			"0.014": 0.0,
			"0.015": 0.0,
			"0.016": 0.0,
			"0.017": 0.0,
			"0.018": 0.0,
			"0.019": 0.0,
			"0.02": 0.0,
			"0.021": 0.0,
			"0.022": 0.0,
			"0.023": 0.0,
			"0.024": 0.0,
			"0.025": 0.0
		}
	}
}
