{
	 "smiles": "COC(=O)C1=CC=C(NC(=O)OC2=CC=CC=C2)C=C1", 
	 "Tm": 459.15, 
	 "num_atms": 33, 
	 "gaussian": { 
		 "optdone": 1, 
		 "sigma_profile": "yes", 
		 "theory": "DFT", 
		 "functional": "B3LYP", 
		 "basiset": "6-31G**", 
		 "properties": { 
			 "R2extent": 9542.5324, 
			 "electric_dipole_moment_norm": 1.07672281949, 
			 "electric_quadrupole_moment_norm": 24.7169997259, 
			 "total_energy": -935.108679424, 
			 "HOMO_LUMO_gap": 0.18518, 
			 "cosmo_polarized_energy": -15.21, 
			 "cosmo_cavitation_energy": 38.93, 
			 "cosmo_dispersion_energy": -28.02, 
			 "cosmo_repulsion_energy": 2.14, 
			 "cosmo_total_nonelectrostatic_energy": 13.05, 
			 "SMD_solvation_energy": 9.31 
		},
		"coords": [
			{
				"x": -3.3610107825,
				"y": 3.9428402931,
				"z": 3.3733020823,
				"element": "C" 
			},
			{
				"x": -2.7388468494,
				"y": 2.7349733636,
				"z": 2.9117770498,
				"element": "O" 
			},
			{
				"x": -1.7001425369,
				"y": 2.9120721234,
				"z": 2.0592192455,
				"element": "C" 
			},
			{
				"x": -1.3155340119,
				"y": 4.0107783109,
				"z": 1.7054521137,
				"element": "O" 
			},
			{
				"x": -1.102074375,
				"y": 1.6260828422,
				"z": 1.6195409899,
				"element": "C" 
			},
			{
				"x": -1.5775643311,
				"y": 0.3789283471,
				"z": 2.048876428,
				"element": "C" 
			},
			{
				"x": -0.9778436009,
				"y": -0.7885406916,
				"z": 1.6001061101,
				"element": "C" 
			},
			{
				"x": 0.1142460811,
				"y": -0.7460470239,
				"z": 0.7122177964,
				"element": "C" 
			},
			{
				"x": 0.6570038652,
				"y": -1.9880434653,
				"z": 0.3365912295,
				"element": "N" 
			},
			{
				"x": 1.5799072187,
				"y": -2.3926361543,
				"z": -0.6049756847,
				"element": "C" 
			},
			{
				"x": 1.8745796239,
				"y": -3.5584829339,
				"z": -0.7599606847,
				"element": "O" 
			},
			{
				"x": 2.0870308878,
				"y": -1.3446322346,
				"z": -1.30966911,
				"element": "O" 
			},
			{
				"x": 3.0373627111,
				"y": -1.5713719139,
				"z": -2.3134414614,
				"element": "C" 
			},
			{
				"x": 4.1725851502,
				"y": -2.3530652822,
				"z": -2.1059749157,
				"element": "C" 
			},
			{
				"x": 5.1102998959,
				"y": -2.4536809007,
				"z": -3.1346532256,
				"element": "C" 
			},
			{
				"x": 4.9201274363,
				"y": -1.7790285662,
				"z": -4.3425463806,
				"element": "C" 
			},
			{
				"x": 3.779225642,
				"y": -0.9960972909,
				"z": -4.5268672893,
				"element": "C" 
			},
			{
				"x": 2.8292907083,
				"y": -0.8904801084,
				"z": -3.510353726,
				"element": "C" 
			},
			{
				"x": 0.5978739182,
				"y": 0.5030022173,
				"z": 0.2864058354,
				"element": "C" 
			},
			{
				"x": -0.0138039728,
				"y": 1.6662551921,
				"z": 0.7393143086,
				"element": "C" 
			},
			{
				"x": -2.6417928284,
				"y": 4.566929865,
				"z": 3.9098661846,
				"element": "H" 
			},
			{
				"x": -3.762973539,
				"y": 4.5153939791,
				"z": 2.533475557,
				"element": "H" 
			},
			{
				"x": -4.1636958918,
				"y": 3.6252452167,
				"z": 4.039019062,
				"element": "H" 
			},
			{
				"x": -2.4183003841,
				"y": 0.3293513223,
				"z": 2.7309997229,
				"element": "H" 
			},
			{
				"x": -1.3574407973,
				"y": -1.7511687718,
				"z": 1.9341270468,
				"element": "H" 
			},
			{
				"x": 0.2710258646,
				"y": -2.7934193687,
				"z": 0.8099369537,
				"element": "H" 
			},
			{
				"x": 4.3099572429,
				"y": -2.8801493412,
				"z": -1.1707557788,
				"element": "H" 
			},
			{
				"x": 5.9960917009,
				"y": -3.064053929,
				"z": -2.985972782,
				"element": "H" 
			},
			{
				"x": 5.6574801414,
				"y": -1.8630324563,
				"z": -5.1350397288,
				"element": "H" 
			},
			{
				"x": 3.6235179355,
				"y": -0.4665023609,
				"z": -5.461965594,
				"element": "H" 
			},
			{
				"x": 1.9340799163,
				"y": -0.2893606146,
				"z": -3.6304088841,
				"element": "H" 
			},
			{
				"x": 1.4403418574,
				"y": 0.5611637185,
				"z": -0.3861282702,
				"element": "H" 
			},
			{
				"x": 0.3520961035,
				"y": 2.6351766173,
				"z": 0.4163857999,
				"element": "H" 
			}
		],
		 "valence_orbital": [ 
			{
				"type": "occ",
				"energy": -0.27143,
				"method": "rhf"
			},
			{
				"type": "occ",
				"energy": -0.26433,
				"method": "rhf"
			},
			{
				"type": "occ",
				"energy": -0.25739,
				"method": "rhf"
			},
			{
				"type": "occ",
				"energy": -0.24722,
				"method": "rhf"
			},
			{
				"type": "occ",
				"energy": -0.23126,
				"method": "rhf"
			},
			{
				"type": "unocc",
				"energy": -0.04608,
				"method": "rhf"
			},
			{
				"type": "unocc",
				"energy": -0.01275,
				"method": "rhf"
			},
			{
				"type": "unocc",
				"energy": -0.00834,
				"method": "rhf"
			},
			{
				"type": "unocc",
				"energy": -0.00611,
				"method": "rhf"
			},
			{
				"type": "unocc",
				"energy": 0.03371,
				"method": "rhf"
			}
		],
		"cosmo_sigma_profile": { 
			"-0.025": 0.0,
			"-0.024": 0.0,
			"-0.023": 0.0,
			"-0.022": 0.0,
			"-0.021": 0.0,
			"-0.02": 0.0,
			"-0.019": 0.0,
			"-0.018": 0.0,
			"-0.017": 0.0,
			"-0.016": 0.535296237988,
			"-0.015": 0.988730840202,
			"-0.014": 1.37764815637,
			"-0.013": 1.51250071849,
			"-0.012": 1.00771816602,
			"-0.011": 0.821616770974,
			"-0.01": 0.793351250439,
			"-0.009": 1.27047441928,
			"-0.008": 1.41797673985,
			"-0.007": 4.78587761305,
			"-0.006": 17.7925499684,
			"-0.005": 24.7513355923,
			"-0.004": 25.0089158476,
			"-0.003": 24.6883103753,
			"-0.002": 21.9852826689,
			"-0.001": 22.3545993402,
			"0.0": 21.9067419924,
			"0.001": 23.0130001361,
			"0.002": 24.8663353472,
			"0.003": 25.5220051158,
			"0.004": 19.1351150612,
			"0.005": 13.2092060009,
			"0.006": 4.55035613445,
			"0.007": 3.2722650117,
			"0.008": 1.95856015123,
			"0.009": 3.85822440757,
			"0.01": 3.87426974276,
			"0.011": 5.23909882595,
			"0.012": 9.67163765528,
			"0.013": 1.0982892991,
			"0.014": 0.0,
			"0.015": 0.0,
			"0.016": 0.0,
			"0.017": 0.0,
			"0.018": 0.0,
			"0.019": 0.0,
			"0.02": 0.0,
			"0.021": 0.0,
			"0.022": 0.0,
			"0.023": 0.0,
			"0.024": 0.0,
			"0.025": 0.0
		}
	}
}
