{
	 "smiles": "CC1=CC(C=CC2=C(N)C=CC=C2)=C(N)C=C1N", 
	 "Tm": 424.15, 
	 "num_atms": 35, 
	 "gaussian": { 
		 "optdone": 1, 
		 "sigma_profile": "yes", 
		 "theory": "DFT", 
		 "functional": "B3LYP", 
		 "basiset": "6-31G**", 
		 "properties": { 
			 "R2extent": 6939.175, 
			 "electric_dipole_moment_norm": 2.54082845741, 
			 "electric_quadrupole_moment_norm": 20.7513140355, 
			 "total_energy": -746.10561636, 
			 "HOMO_LUMO_gap": 0.14251, 
			 "cosmo_polarized_energy": -18.59, 
			 "cosmo_cavitation_energy": 38.07, 
			 "cosmo_dispersion_energy": -27.67, 
			 "cosmo_repulsion_energy": 2.15, 
			 "cosmo_total_nonelectrostatic_energy": 12.56, 
			 "SMD_solvation_energy": 5.89 
		},
		"coords": [
			{
				"x": 0.9591264532,
				"y": 4.1747377973,
				"z": 1.4791359557,
				"element": "C" 
			},
			{
				"x": 1.2139244324,
				"y": 2.6914690649,
				"z": 1.5859311241,
				"element": "C" 
			},
			{
				"x": 0.4769858816,
				"y": 1.7713639686,
				"z": 0.8508621699,
				"element": "C" 
			},
			{
				"x": 0.6717066034,
				"y": 0.3781561411,
				"z": 0.9099899449,
				"element": "C" 
			},
			{
				"x": -0.1257589062,
				"y": -0.5363564284,
				"z": 0.0930901834,
				"element": "C" 
			},
			{
				"x": -1.387610369,
				"y": -0.3289849914,
				"z": -0.344796588,
				"element": "C" 
			},
			{
				"x": -2.1259169221,
				"y": -1.2016596541,
				"z": -1.2647545764,
				"element": "C" 
			},
			{
				"x": -3.5380595975,
				"y": -1.3128276961,
				"z": -1.1535063039,
				"element": "C" 
			},
			{
				"x": -4.2217957093,
				"y": -0.5965910151,
				"z": -0.1633813061,
				"element": "N" 
			},
			{
				"x": -4.2424071575,
				"y": -2.1164671481,
				"z": -2.0624513239,
				"element": "C" 
			},
			{
				"x": -3.5757656059,
				"y": -2.8187038133,
				"z": -3.0634891185,
				"element": "C" 
			},
			{
				"x": -2.1860908839,
				"y": -2.7322304992,
				"z": -3.1737268164,
				"element": "C" 
			},
			{
				"x": -1.4824577565,
				"y": -1.9234153993,
				"z": -2.2845519596,
				"element": "C" 
			},
			{
				"x": 1.6896067551,
				"y": -0.1004354617,
				"z": 1.7769743437,
				"element": "C" 
			},
			{
				"x": 1.9025598203,
				"y": -1.4654322012,
				"z": 1.9737588634,
				"element": "N" 
			},
			{
				"x": 2.4546289098,
				"y": 0.814342833,
				"z": 2.5125469054,
				"element": "C" 
			},
			{
				"x": 2.2322667544,
				"y": 2.1923621677,
				"z": 2.4348502013,
				"element": "C" 
			},
			{
				"x": 2.9746987119,
				"y": 3.0688656306,
				"z": 3.2286718436,
				"element": "N" 
			},
			{
				"x": 0.711257022,
				"y": 4.616944909,
				"z": 2.4527848321,
				"element": "H" 
			},
			{
				"x": 1.8303009505,
				"y": 4.7231774772,
				"z": 1.0906409223,
				"element": "H" 
			},
			{
				"x": 0.1266693888,
				"y": 4.378514133,
				"z": 0.800704583,
				"element": "H" 
			},
			{
				"x": -0.2739176046,
				"y": 2.1486681645,
				"z": 0.1615448512,
				"element": "H" 
			},
			{
				"x": 0.3495462498,
				"y": -1.4732507991,
				"z": -0.2037501393,
				"element": "H" 
			},
			{
				"x": -1.9179932682,
				"y": 0.5577690234,
				"z": 0.0013092263,
				"element": "H" 
			},
			{
				"x": -3.7226895426,
				"y": -0.5092870501,
				"z": 0.7119190741,
				"element": "H" 
			},
			{
				"x": -5.1731177724,
				"y": -0.9050790663,
				"z": -0.0135026428,
				"element": "H" 
			},
			{
				"x": -5.3235472674,
				"y": -2.1956804479,
				"z": -1.9700310549,
				"element": "H" 
			},
			{
				"x": -4.1441045664,
				"y": -3.4345084506,
				"z": -3.7550361099,
				"element": "H" 
			},
			{
				"x": -1.6602097115,
				"y": -3.2692275244,
				"z": -3.9572728309,
				"element": "H" 
			},
			{
				"x": -0.4076208401,
				"y": -1.8105818788,
				"z": -2.3950561224,
				"element": "H" 
			},
			{
				"x": 1.5210793,
				"y": -2.0863319433,
				"z": 1.2762588751,
				"element": "H" 
			},
			{
				"x": 2.8406974856,
				"y": -1.7203505139,
				"z": 2.247892836,
				"element": "H" 
			},
			{
				"x": 3.2223677372,
				"y": 0.4375816291,
				"z": 3.1861131043,
				"element": "H" 
			},
			{
				"x": 3.8520783333,
				"y": 2.6998156411,
				"z": 3.5683986556,
				"element": "H" 
			},
			{
				"x": 3.0746626917,
				"y": 4.0064334015,
				"z": 2.8660283975,
				"element": "H" 
			}
		],
		 "valence_orbital": [ 
			{
				"type": "occ",
				"energy": -0.26544,
				"method": "rhf"
			},
			{
				"type": "occ",
				"energy": -0.2271,
				"method": "rhf"
			},
			{
				"type": "occ",
				"energy": -0.20528,
				"method": "rhf"
			},
			{
				"type": "occ",
				"energy": -0.19715,
				"method": "rhf"
			},
			{
				"type": "occ",
				"energy": -0.16868,
				"method": "rhf"
			},
			{
				"type": "unocc",
				"energy": -0.02617,
				"method": "rhf"
			},
			{
				"type": "unocc",
				"energy": 0.02161,
				"method": "rhf"
			},
			{
				"type": "unocc",
				"energy": 0.02452,
				"method": "rhf"
			},
			{
				"type": "unocc",
				"energy": 0.03574,
				"method": "rhf"
			},
			{
				"type": "unocc",
				"energy": 0.06848,
				"method": "rhf"
			}
		],
		"cosmo_sigma_profile": { 
			"-0.025": 0.0,
			"-0.024": 0.0,
			"-0.023": 0.0,
			"-0.022": 0.0,
			"-0.021": 0.0,
			"-0.02": 0.0,
			"-0.019": 0.0,
			"-0.018": 0.0,
			"-0.017": 0.0,
			"-0.016": 0.0,
			"-0.015": 0.0,
			"-0.014": 0.0,
			"-0.013": 0.214274894745,
			"-0.012": 4.3159741218,
			"-0.011": 7.09061210016,
			"-0.01": 7.15075035414,
			"-0.009": 9.66946521546,
			"-0.008": 8.6675774239,
			"-0.007": 6.70559809493,
			"-0.006": 9.83293814299,
			"-0.005": 12.5973956132,
			"-0.004": 20.6833957787,
			"-0.003": 22.1270656597,
			"-0.002": 17.4082584789,
			"-0.001": 18.214930066,
			"0.0": 17.4184848378,
			"0.001": 14.5050457709,
			"0.002": 13.5107023709,
			"0.003": 12.6925903183,
			"0.004": 16.4758133506,
			"0.005": 18.5971224523,
			"0.006": 22.2784922641,
			"0.007": 21.8527778412,
			"0.008": 5.69860516748,
			"0.009": 2.24460269099,
			"0.01": 2.07900115607,
			"0.011": 2.76894749698,
			"0.012": 2.17228693925,
			"0.013": 1.70105049795,
			"0.014": 1.50658474722,
			"0.015": 0.748266749119,
			"0.016": 0.0,
			"0.017": 0.0,
			"0.018": 0.0,
			"0.019": 0.0,
			"0.02": 0.0,
			"0.021": 0.0,
			"0.022": 0.0,
			"0.023": 0.0,
			"0.024": 0.0,
			"0.025": 0.0
		}
	}
}
