{
	 "smiles": "NS(=O)(=O)C1=C(Cl)C=C2NC(NS(=O)(=O)C2=C1)C(Cl)(Cl)Cl", 
	 "Tm": 575.15, 
	 "num_atms": 28, 
	 "gaussian": { 
		 "optdone": 1, 
		 "sigma_profile": "yes", 
		 "theory": "DFT", 
		 "functional": "B3LYP", 
		 "basiset": "6-31G**", 
		 "properties": { 
			 "R2extent": 11866.9937, 
			 "electric_dipole_moment_norm": 9.11627303946, 
			 "electric_quadrupole_moment_norm": 13.5168538248, 
			 "total_energy": -3411.18179034, 
			 "HOMO_LUMO_gap": 0.1897, 
			 "cosmo_polarized_energy": -34.84, 
			 "cosmo_cavitation_energy": 41.19, 
			 "cosmo_dispersion_energy": -30.89, 
			 "cosmo_repulsion_energy": 2.26, 
			 "cosmo_total_nonelectrostatic_energy": 12.57, 
			 "SMD_solvation_energy": 3.51 
		},
		"coords": [
			{
				"x": -1.3477203557,
				"y": 4.446090845,
				"z": 0.4614463921,
				"element": "N" 
			},
			{
				"x": -1.1461822331,
				"y": 3.2119883151,
				"z": 1.5666913295,
				"element": "S" 
			},
			{
				"x": -2.4674595949,
				"y": 2.615392243,
				"z": 1.7447175878,
				"element": "O" 
			},
			{
				"x": -0.3714978034,
				"y": 3.7601512077,
				"z": 2.6724675839,
				"element": "O" 
			},
			{
				"x": -0.1436804276,
				"y": 1.9332366095,
				"z": 0.764064361,
				"element": "C" 
			},
			{
				"x": 1.1713723541,
				"y": 2.118426662,
				"z": 0.3059188042,
				"element": "C" 
			},
			{
				"x": 1.9584896663,
				"y": 3.6818600714,
				"z": 0.3786501704,
				"element": "Cl" 
			},
			{
				"x": 1.8913294101,
				"y": 1.0779232854,
				"z": -0.2719182524,
				"element": "C" 
			},
			{
				"x": 1.3265500632,
				"y": -0.2036954246,
				"z": -0.3729691784,
				"element": "C" 
			},
			{
				"x": 2.0466825426,
				"y": -1.2612500872,
				"z": -0.9062062793,
				"element": "N" 
			},
			{
				"x": 1.4477894861,
				"y": -2.2946409945,
				"z": -1.7384075188,
				"element": "C" 
			},
			{
				"x": 0.0877803523,
				"y": -2.5887321789,
				"z": -1.3560453323,
				"element": "N" 
			},
			{
				"x": -0.6240302969,
				"y": -2.0427496275,
				"z": 0.0883414281,
				"element": "S" 
			},
			{
				"x": -2.0573877098,
				"y": -2.0262080723,
				"z": -0.1935619692,
				"element": "O" 
			},
			{
				"x": -0.0742509675,
				"y": -2.779115774,
				"z": 1.2171998368,
				"element": "O" 
			},
			{
				"x": 0.0189525397,
				"y": -0.3868699048,
				"z": 0.1153182032,
				"element": "C" 
			},
			{
				"x": -0.7105783522,
				"y": 0.6610381233,
				"z": 0.6587378818,
				"element": "C" 
			},
			{
				"x": 2.3628896439,
				"y": -3.5799756321,
				"z": -1.7306299277,
				"element": "C" 
			},
			{
				"x": 2.5586613676,
				"y": -4.2722550552,
				"z": -0.1152463968,
				"element": "Cl" 
			},
			{
				"x": 3.9886708595,
				"y": -3.0909033608,
				"z": -2.3976014492,
				"element": "Cl" 
			},
			{
				"x": 1.6331054212,
				"y": -4.7777880645,
				"z": -2.8512190004,
				"element": "Cl" 
			},
			{
				"x": -0.4888282679,
				"y": 4.9335192351,
				"z": 0.2290402727,
				"element": "H" 
			},
			{
				"x": -1.9153581296,
				"y": 4.1850862445,
				"z": -0.3376301914,
				"element": "H" 
			},
			{
				"x": 2.892228934,
				"y": 1.2649244441,
				"z": -0.6462946902,
				"element": "H" 
			},
			{
				"x": 2.9947688291,
				"y": -1.0393147821,
				"z": -1.179572162,
				"element": "H" 
			},
			{
				"x": 1.4324586133,
				"y": -1.9980305623,
				"z": -2.7988417752,
				"element": "H" 
			},
			{
				"x": -0.5910523204,
				"y": -2.5754187302,
				"z": -2.1071555703,
				"element": "H" 
			},
			{
				"x": -1.7226036241,
				"y": 0.5016109649,
				"z": 1.0157058421,
				"element": "H" 
			}
		],
		 "valence_orbital": [ 
			{
				"type": "occ",
				"energy": -0.31823,
				"method": "rhf"
			},
			{
				"type": "occ",
				"energy": -0.31323,
				"method": "rhf"
			},
			{
				"type": "occ",
				"energy": -0.30349,
				"method": "rhf"
			},
			{
				"type": "occ",
				"energy": -0.2909,
				"method": "rhf"
			},
			{
				"type": "occ",
				"energy": -0.26041,
				"method": "rhf"
			},
			{
				"type": "unocc",
				"energy": -0.07071,
				"method": "rhf"
			},
			{
				"type": "unocc",
				"energy": -0.06234,
				"method": "rhf"
			},
			{
				"type": "unocc",
				"energy": -0.05605,
				"method": "rhf"
			},
			{
				"type": "unocc",
				"energy": -0.02727,
				"method": "rhf"
			},
			{
				"type": "unocc",
				"energy": -0.01373,
				"method": "rhf"
			}
		],
		"cosmo_sigma_profile": { 
			"-0.025": 0.0,
			"-0.024": 0.0,
			"-0.023": 0.0,
			"-0.022": 0.0,
			"-0.021": 0.0,
			"-0.02": 0.0,
			"-0.019": 0.0,
			"-0.018": 0.0,
			"-0.017": 0.61249855495,
			"-0.016": 2.44968330599,
			"-0.015": 3.80798753833,
			"-0.014": 4.68251797576,
			"-0.013": 4.70910230366,
			"-0.012": 5.82384048156,
			"-0.011": 5.3106913012,
			"-0.01": 7.10010180271,
			"-0.009": 8.20630388442,
			"-0.008": 8.09578180321,
			"-0.007": 6.28774354314,
			"-0.006": 7.23575774425,
			"-0.005": 7.89964205621,
			"-0.004": 14.1207029653,
			"-0.003": 14.5733231579,
			"-0.002": 22.2379507804,
			"-0.001": 28.1507920259,
			"0.0": 20.4107173981,
			"0.001": 18.7480703217,
			"0.002": 31.862403511,
			"0.003": 26.9291458273,
			"0.004": 9.72344739473,
			"0.005": 7.29740969871,
			"0.006": 9.27252199047,
			"0.007": 9.72393823827,
			"0.008": 8.58249864586,
			"0.009": 14.2050142596,
			"0.01": 19.4682067653,
			"0.011": 10.1373646412,
			"0.012": 0.426590754818,
			"0.013": 0.0,
			"0.014": 0.0,
			"0.015": 0.0,
			"0.016": 0.0,
			"0.017": 0.0,
			"0.018": 0.0,
			"0.019": 0.0,
			"0.02": 0.0,
			"0.021": 0.0,
			"0.022": 0.0,
			"0.023": 0.0,
			"0.024": 0.0,
			"0.025": 0.0
		}
	}
}
