{
	 "smiles": "O=C1CCO1", 
	 "Tm": 239.45, 
	 "num_atms": 9, 
	 "gaussian": { 
		 "optdone": 1, 
		 "sigma_profile": "yes", 
		 "theory": "DFT", 
		 "functional": "B3LYP", 
		 "basiset": "6-31G**", 
		 "properties": { 
			 "R2extent": 618.6819, 
			 "electric_dipole_moment_norm": 4.10647309257, 
			 "electric_quadrupole_moment_norm": 9.02595634988, 
			 "total_energy": -267.154330262, 
			 "HOMO_LUMO_gap": 0.28569, 
			 "cosmo_polarized_energy": -9.42, 
			 "cosmo_cavitation_energy": 12.85, 
			 "cosmo_dispersion_energy": -9.9, 
			 "cosmo_repulsion_energy": 0.91, 
			 "cosmo_total_nonelectrostatic_energy": 3.86, 
			 "SMD_solvation_energy": 3.68 
		},
		"coords": [
			{
				"x": 1.9907160139,
				"y": 2.4426121945,
				"z": -0.1909111034,
				"element": "O" 
			},
			{
				"x": 1.2938048149,
				"y": 1.5143162758,
				"z": 0.088935981,
				"element": "C" 
			},
			{
				"x": 0.598486404,
				"y": 0.3555516704,
				"z": -0.6309881209,
				"element": "C" 
			},
			{
				"x": 0.1166276641,
				"y": -0.0068040661,
				"z": 0.7827647726,
				"element": "C" 
			},
			{
				"x": 0.8368566301,
				"y": 1.1471393418,
				"z": 1.3349771988,
				"element": "O" 
			},
			{
				"x": 1.2818819047,
				"y": -0.3491355051,
				"z": -1.1097034462,
				"element": "H" 
			},
			{
				"x": -0.1683472437,
				"y": 0.6668043182,
				"z": -1.3436306404,
				"element": "H" 
			},
			{
				"x": 0.502326687,
				"y": -0.9380271422,
				"z": 1.2028157047,
				"element": "H" 
			},
			{
				"x": -0.955652875,
				"y": 0.0841429127,
				"z": 0.9680396538,
				"element": "H" 
			}
		],
		 "valence_orbital": [ 
			{
				"type": "occ",
				"energy": -0.40127,
				"method": "rhf"
			},
			{
				"type": "occ",
				"energy": -0.39483,
				"method": "rhf"
			},
			{
				"type": "occ",
				"energy": -0.35901,
				"method": "rhf"
			},
			{
				"type": "occ",
				"energy": -0.3031,
				"method": "rhf"
			},
			{
				"type": "occ",
				"energy": -0.27932,
				"method": "rhf"
			},
			{
				"type": "unocc",
				"energy": 0.00637,
				"method": "rhf"
			},
			{
				"type": "unocc",
				"energy": 0.08259,
				"method": "rhf"
			},
			{
				"type": "unocc",
				"energy": 0.0947,
				"method": "rhf"
			},
			{
				"type": "unocc",
				"energy": 0.11821,
				"method": "rhf"
			},
			{
				"type": "unocc",
				"energy": 0.11959,
				"method": "rhf"
			}
		],
		"cosmo_sigma_profile": { 
			"-0.025": 0.0,
			"-0.024": 0.0,
			"-0.023": 0.0,
			"-0.022": 0.0,
			"-0.021": 0.0,
			"-0.02": 0.0,
			"-0.019": 0.0,
			"-0.018": 0.0,
			"-0.017": 0.0,
			"-0.016": 0.0,
			"-0.015": 0.0,
			"-0.014": 0.0,
			"-0.013": 0.0,
			"-0.012": 0.0,
			"-0.011": 0.0,
			"-0.01": 0.0,
			"-0.009": 0.0,
			"-0.008": 2.61303396729,
			"-0.007": 13.5058426895,
			"-0.006": 12.7618763372,
			"-0.005": 9.17238057074,
			"-0.004": 9.2856969358,
			"-0.003": 6.42595350374,
			"-0.002": 3.86250367313,
			"-0.001": 2.57403838977,
			"0.0": 1.14784721272,
			"0.001": 2.68815222265,
			"0.002": 1.88474645885,
			"0.003": 2.33135969497,
			"0.004": 2.26030672011,
			"0.005": 2.81261731483,
			"0.006": 2.15243705519,
			"0.007": 3.66366016365,
			"0.008": 4.27323891208,
			"0.009": 4.42155647845,
			"0.01": 5.58359283185,
			"0.011": 6.90623790738,
			"0.012": 1.92424623207,
			"0.013": 0.0,
			"0.014": 0.0,
			"0.015": 0.0,
			"0.016": 0.0,
			"0.017": 0.0,
			"0.018": 0.0,
			"0.019": 0.0,
			"0.02": 0.0,
			"0.021": 0.0,
			"0.022": 0.0,
			"0.023": 0.0,
			"0.024": 0.0,
			"0.025": 0.0
		}
	}
}
