{
	 "smiles": "CCOC(=O)CCC(NC(=O)C1=CC=C(C=C1)[N+]([O-])=O)C(=O)OCC", 
	 "Tm": 366.65, 
	 "num_atms": 45, 
	 "gaussian": { 
		 "optdone": 1, 
		 "sigma_profile": "yes", 
		 "theory": "DFT", 
		 "functional": "B3LYP", 
		 "basiset": "6-31G**", 
		 "properties": { 
			 "R2extent": 11574.8042, 
			 "electric_dipole_moment_norm": 7.3554430927, 
			 "electric_quadrupole_moment_norm": 20.7884039996, 
			 "total_energy": -1257.77631782, 
			 "HOMO_LUMO_gap": 0.16095, 
			 "cosmo_polarized_energy": -20.24, 
			 "cosmo_cavitation_energy": 50.5, 
			 "cosmo_dispersion_energy": -33.29, 
			 "cosmo_repulsion_energy": 2.63, 
			 "cosmo_total_nonelectrostatic_energy": 19.84, 
			 "SMD_solvation_energy": 12.92 
		},
		"coords": [
			{
				"x": -2.5508774613,
				"y": -2.6407767304,
				"z": 4.6558007576,
				"element": "C" 
			},
			{
				"x": -2.013249734,
				"y": -1.5494506658,
				"z": 3.750901385,
				"element": "C" 
			},
			{
				"x": -0.7650064827,
				"y": -2.0274680048,
				"z": 3.1876596058,
				"element": "O" 
			},
			{
				"x": -0.1405195995,
				"y": -1.1986874369,
				"z": 2.3363622088,
				"element": "C" 
			},
			{
				"x": -0.5621439987,
				"y": -0.0967953919,
				"z": 2.0368700193,
				"element": "O" 
			},
			{
				"x": 1.148661482,
				"y": -1.8127526616,
				"z": 1.8206318895,
				"element": "C" 
			},
			{
				"x": 1.8460615285,
				"y": -0.9336421499,
				"z": 0.7791550765,
				"element": "C" 
			},
			{
				"x": 1.1406962145,
				"y": -0.8873638612,
				"z": -0.6021202736,
				"element": "C" 
			},
			{
				"x": 1.7149487019,
				"y": 0.168580141,
				"z": -1.427726443,
				"element": "N" 
			},
			{
				"x": 1.066950965,
				"y": 1.0236409277,
				"z": -2.2961116429,
				"element": "C" 
			},
			{
				"x": 1.6617401298,
				"y": 1.4963376922,
				"z": -3.2587787919,
				"element": "O" 
			},
			{
				"x": -0.3603687873,
				"y": 1.4210470424,
				"z": -2.0232440541,
				"element": "C" 
			},
			{
				"x": -1.1555868512,
				"y": 1.7116840364,
				"z": -3.1433038568,
				"element": "C" 
			},
			{
				"x": -2.4693155623,
				"y": 2.1369579761,
				"z": -2.9889764289,
				"element": "C" 
			},
			{
				"x": -2.9716057686,
				"y": 2.2902871009,
				"z": -1.6966126156,
				"element": "C" 
			},
			{
				"x": -2.199304194,
				"y": 2.0363443391,
				"z": -0.5667724695,
				"element": "C" 
			},
			{
				"x": -0.8860802807,
				"y": 1.6012327246,
				"z": -0.7353041241,
				"element": "C" 
			},
			{
				"x": -4.363889877,
				"y": 2.7392728351,
				"z": -1.5222701117,
				"element": "N" 
			},
			{
				"x": -5.0236918098,
				"y": 2.9583934538,
				"z": -2.5375524566,
				"element": "O" 
			},
			{
				"x": -4.7832902845,
				"y": 2.8665307723,
				"z": -0.3724893704,
				"element": "O" 
			},
			{
				"x": 1.2198781274,
				"y": -2.2685986609,
				"z": -1.2621475531,
				"element": "C" 
			},
			{
				"x": 0.4637578626,
				"y": -3.1804918172,
				"z": -0.9976736411,
				"element": "O" 
			},
			{
				"x": 2.2583761397,
				"y": -2.3690777073,
				"z": -2.110280483,
				"element": "O" 
			},
			{
				"x": 2.440191541,
				"y": -3.6575572169,
				"z": -2.7541127155,
				"element": "C" 
			},
			{
				"x": 3.6245676943,
				"y": -3.5351307995,
				"z": -3.6922496895,
				"element": "C" 
			},
			{
				"x": -1.8477599971,
				"y": -2.8621114406,
				"z": 5.4638235561,
				"element": "H" 
			},
			{
				"x": -3.4967686279,
				"y": -2.317860092,
				"z": 5.1013450193,
				"element": "H" 
			},
			{
				"x": -2.7317712133,
				"y": -3.561072905,
				"z": 4.0934177457,
				"element": "H" 
			},
			{
				"x": -2.6998105422,
				"y": -1.3167920594,
				"z": 2.9313738886,
				"element": "H" 
			},
			{
				"x": -1.8190642938,
				"y": -0.6196602502,
				"z": 4.2944973198,
				"element": "H" 
			},
			{
				"x": 0.9184018547,
				"y": -2.8080460842,
				"z": 1.4275526426,
				"element": "H" 
			},
			{
				"x": 1.8044080858,
				"y": -1.9700797711,
				"z": 2.6853037872,
				"element": "H" 
			},
			{
				"x": 2.8764475373,
				"y": -1.2807828236,
				"z": 0.637435852,
				"element": "H" 
			},
			{
				"x": 1.8989803271,
				"y": 0.0954819139,
				"z": 1.1443004921,
				"element": "H" 
			},
			{
				"x": 0.0816216658,
				"y": -0.6871965513,
				"z": -0.4487983534,
				"element": "H" 
			},
			{
				"x": 2.650910381,
				"y": -0.0262385322,
				"z": -1.7669438552,
				"element": "H" 
			},
			{
				"x": -0.7203464142,
				"y": 1.6063183706,
				"z": -4.1306833821,
				"element": "H" 
			},
			{
				"x": -3.1042516802,
				"y": 2.3555248729,
				"z": -3.8381965669,
				"element": "H" 
			},
			{
				"x": -2.6235435717,
				"y": 2.1770269239,
				"z": 0.4190116011,
				"element": "H" 
			},
			{
				"x": -0.2896732018,
				"y": 1.406973504,
				"z": 0.1480799687,
				"element": "H" 
			},
			{
				"x": 2.5991260062,
				"y": -4.4136655801,
				"z": -1.9790101947,
				"element": "H" 
			},
			{
				"x": 1.5169741686,
				"y": -3.9132085227,
				"z": -3.2819839545,
				"element": "H" 
			},
			{
				"x": 4.5351328792,
				"y": -3.2756786154,
				"z": -3.1445279198,
				"element": "H" 
			},
			{
				"x": 3.4457070565,
				"y": -2.7670792225,
				"z": -4.4497675979,
				"element": "H" 
			},
			{
				"x": 3.7909798847,
				"y": -4.4893690722,
				"z": -4.2013842699,
				"element": "H" 
			}
		],
		 "valence_orbital": [ 
			{
				"type": "occ",
				"energy": -0.28659,
				"method": "rhf"
			},
			{
				"type": "occ",
				"energy": -0.2819,
				"method": "rhf"
			},
			{
				"type": "occ",
				"energy": -0.27479,
				"method": "rhf"
			},
			{
				"type": "occ",
				"energy": -0.26227,
				"method": "rhf"
			},
			{
				"type": "occ",
				"energy": -0.25208,
				"method": "rhf"
			},
			{
				"type": "unocc",
				"energy": -0.09113,
				"method": "rhf"
			},
			{
				"type": "unocc",
				"energy": -0.02538,
				"method": "rhf"
			},
			{
				"type": "unocc",
				"energy": -0.02172,
				"method": "rhf"
			},
			{
				"type": "unocc",
				"energy": -0.008,
				"method": "rhf"
			},
			{
				"type": "unocc",
				"energy": -0.0007,
				"method": "rhf"
			}
		],
		"cosmo_sigma_profile": { 
			"-0.025": 0.0,
			"-0.024": 0.0,
			"-0.023": 0.0,
			"-0.022": 0.0,
			"-0.021": 0.0,
			"-0.02": 0.0,
			"-0.019": 0.0,
			"-0.018": 0.0,
			"-0.017": 0.0,
			"-0.016": 0.0,
			"-0.015": 0.0,
			"-0.014": 0.0,
			"-0.013": 0.0324997644161,
			"-0.012": 0.396024851594,
			"-0.011": 1.0909710333,
			"-0.01": 0.611058943421,
			"-0.009": 0.694975918387,
			"-0.008": 2.27219027942,
			"-0.007": 7.89011972376,
			"-0.006": 15.0186758847,
			"-0.005": 30.2347636132,
			"-0.004": 48.0923467323,
			"-0.003": 41.6276751092,
			"-0.002": 40.7953286486,
			"-0.001": 35.8666757375,
			"0.0": 35.0454317395,
			"0.001": 24.3604664337,
			"0.002": 14.4400236404,
			"0.003": 12.1502412212,
			"0.004": 12.5465415398,
			"0.005": 7.5641754554,
			"0.006": 9.54497433319,
			"0.007": 15.8609463084,
			"0.008": 10.3697784649,
			"0.009": 8.87988446679,
			"0.01": 6.57985822138,
			"0.011": 6.13475144671,
			"0.012": 5.63312155775,
			"0.013": 4.82766942191,
			"0.014": 0.726971984178,
			"0.015": 0.0,
			"0.016": 0.0,
			"0.017": 0.0,
			"0.018": 0.0,
			"0.019": 0.0,
			"0.02": 0.0,
			"0.021": 0.0,
			"0.022": 0.0,
			"0.023": 0.0,
			"0.024": 0.0,
			"0.025": 0.0
		}
	}
}
