{
	 "smiles": "ClC1=CC2=C(OCC(C=O)=C2)C(Cl)=C1", 
	 "Tm": 403.15, 
	 "num_atms": 20, 
	 "gaussian": { 
		 "optdone": 1, 
		 "sigma_profile": "yes", 
		 "theory": "DFT", 
		 "functional": "B3LYP", 
		 "basiset": "6-31G**", 
		 "properties": { 
			 "R2extent": 4975.5551, 
			 "electric_dipole_moment_norm": 1.42705752512, 
			 "electric_quadrupole_moment_norm": 10.3519660452, 
			 "total_energy": -1455.47653209, 
			 "HOMO_LUMO_gap": 0.1379, 
			 "cosmo_polarized_energy": -10.37, 
			 "cosmo_cavitation_energy": 28.6, 
			 "cosmo_dispersion_energy": -21.21, 
			 "cosmo_repulsion_energy": 1.67, 
			 "cosmo_total_nonelectrostatic_energy": 9.06, 
			 "SMD_solvation_energy": 5.45 
		},
		"coords": [
			{
				"x": -0.5795285453,
				"y": -3.7953595429,
				"z": 3.7451692355,
				"element": "Cl" 
			},
			{
				"x": -0.0575120537,
				"y": -2.7847232344,
				"z": 2.4096174642,
				"element": "C" 
			},
			{
				"x": -0.9853490918,
				"y": -2.0058700955,
				"z": 1.7291105768,
				"element": "C" 
			},
			{
				"x": -0.5621986766,
				"y": -1.1888787147,
				"z": 0.6706657344,
				"element": "C" 
			},
			{
				"x": 0.8033457282,
				"y": -1.1623641638,
				"z": 0.3009564688,
				"element": "C" 
			},
			{
				"x": 1.2390433334,
				"y": -0.4259750042,
				"z": -0.7495888143,
				"element": "O" 
			},
			{
				"x": 0.4708216606,
				"y": 0.7471240966,
				"z": -1.0735788681,
				"element": "C" 
			},
			{
				"x": -1.0148648143,
				"y": 0.487462425,
				"z": -1.0300415664,
				"element": "C" 
			},
			{
				"x": -1.9313836062,
				"y": 1.2302709612,
				"z": -1.9171443506,
				"element": "C" 
			},
			{
				"x": -3.146168775,
				"y": 1.1465931211,
				"z": -1.8761079798,
				"element": "O" 
			},
			{
				"x": -1.4821752137,
				"y": -0.4167238574,
				"z": -0.1425402607,
				"element": "C" 
			},
			{
				"x": 1.7119421003,
				"y": -1.9809984024,
				"z": 0.9836678356,
				"element": "C" 
			},
			{
				"x": 3.3928326654,
				"y": -1.991363318,
				"z": 0.5121308962,
				"element": "Cl" 
			},
			{
				"x": 1.2892955138,
				"y": -2.7857893738,
				"z": 2.0413958851,
				"element": "C" 
			},
			{
				"x": -2.0331425707,
				"y": -2.028667895,
				"z": 2.0079898481,
				"element": "H" 
			},
			{
				"x": 0.7507737592,
				"y": 1.5508695301,
				"z": -0.3737543332,
				"element": "H" 
			},
			{
				"x": 0.8055542282,
				"y": 1.0414722216,
				"z": -2.0718348344,
				"element": "H" 
			},
			{
				"x": -1.4343590182,
				"y": 1.8956804304,
				"z": -2.6573166731,
				"element": "H" 
			},
			{
				"x": -2.5519880519,
				"y": -0.5927574023,
				"z": -0.0689439743,
				"element": "H" 
			},
			{
				"x": 2.0068614282,
				"y": -3.4003017817,
				"z": 2.57114771,
				"element": "H" 
			}
		],
		 "valence_orbital": [ 
			{
				"type": "occ",
				"energy": -0.32149,
				"method": "rhf"
			},
			{
				"type": "occ",
				"energy": -0.30146,
				"method": "rhf"
			},
			{
				"type": "occ",
				"energy": -0.26714,
				"method": "rhf"
			},
			{
				"type": "occ",
				"energy": -0.25858,
				"method": "rhf"
			},
			{
				"type": "occ",
				"energy": -0.23503,
				"method": "rhf"
			},
			{
				"type": "unocc",
				"energy": -0.09713,
				"method": "rhf"
			},
			{
				"type": "unocc",
				"energy": -0.02762,
				"method": "rhf"
			},
			{
				"type": "unocc",
				"energy": -0.01438,
				"method": "rhf"
			},
			{
				"type": "unocc",
				"energy": 0.00074,
				"method": "rhf"
			},
			{
				"type": "unocc",
				"energy": 0.04041,
				"method": "rhf"
			}
		],
		"cosmo_sigma_profile": { 
			"-0.025": 0.0,
			"-0.024": 0.0,
			"-0.023": 0.0,
			"-0.022": 0.0,
			"-0.021": 0.0,
			"-0.02": 0.0,
			"-0.019": 0.0,
			"-0.018": 0.0,
			"-0.017": 0.0,
			"-0.016": 0.0,
			"-0.015": 0.0,
			"-0.014": 0.0,
			"-0.013": 0.0,
			"-0.012": 0.0,
			"-0.011": 0.0,
			"-0.01": 0.143824037381,
			"-0.009": 4.59303186651,
			"-0.008": 9.07258979714,
			"-0.007": 11.6181010812,
			"-0.006": 13.4677953247,
			"-0.005": 9.99614295648,
			"-0.004": 8.98974036041,
			"-0.003": 10.3494151759,
			"-0.002": 13.4996232029,
			"-0.001": 18.6862734735,
			"0.0": 27.6691345419,
			"0.001": 25.9386769589,
			"0.002": 13.7226586259,
			"0.003": 14.9041426484,
			"0.004": 20.5078514448,
			"0.005": 6.57596507466,
			"0.006": 3.97363076651,
			"0.007": 3.31932574232,
			"0.008": 3.38897750284,
			"0.009": 3.88004863581,
			"0.01": 2.85125084286,
			"0.011": 4.41454333855,
			"0.012": 2.54715912079,
			"0.013": 0.649682002569,
			"0.014": 0.0,
			"0.015": 0.0,
			"0.016": 0.0,
			"0.017": 0.0,
			"0.018": 0.0,
			"0.019": 0.0,
			"0.02": 0.0,
			"0.021": 0.0,
			"0.022": 0.0,
			"0.023": 0.0,
			"0.024": 0.0,
			"0.025": 0.0
		}
	}
}
