{
	 "smiles": "OC(=O)CC(CC(O)=O)C1=CC=C(Cl)C=C1", 
	 "Tm": 439.15, 
	 "num_atms": 27, 
	 "gaussian": { 
		 "optdone": 1, 
		 "sigma_profile": "yes", 
		 "theory": "DFT", 
		 "functional": "B3LYP", 
		 "basiset": "6-31G**", 
		 "properties": { 
			 "R2extent": 6000.0743, 
			 "electric_dipole_moment_norm": 5.26359008092, 
			 "electric_quadrupole_moment_norm": 18.3906764155, 
			 "total_energy": -1186.91696905, 
			 "HOMO_LUMO_gap": 0.21532, 
			 "cosmo_polarized_energy": -22.23, 
			 "cosmo_cavitation_energy": 32.36, 
			 "cosmo_dispersion_energy": -22.96, 
			 "cosmo_repulsion_energy": 1.78, 
			 "cosmo_total_nonelectrostatic_energy": 11.19, 
			 "SMD_solvation_energy": 6.95 
		},
		"coords": [
			{
				"x": 1.363904455,
				"y": -2.5782514423,
				"z": -0.6795544075,
				"element": "O" 
			},
			{
				"x": 1.5715534007,
				"y": -1.5241102055,
				"z": 0.133530121,
				"element": "C" 
			},
			{
				"x": 2.3682900985,
				"y": -1.5787354577,
				"z": 1.0415612412,
				"element": "O" 
			},
			{
				"x": 0.7127981853,
				"y": -0.2846285924,
				"z": -0.1298009051,
				"element": "C" 
			},
			{
				"x": -0.6499059845,
				"y": -0.352332053,
				"z": 0.6072124579,
				"element": "C" 
			},
			{
				"x": -1.5152228554,
				"y": -1.5878295702,
				"z": 0.194248921,
				"element": "C" 
			},
			{
				"x": -1.7854571655,
				"y": -1.6566948936,
				"z": -1.2985771504,
				"element": "C" 
			},
			{
				"x": -3.0018598611,
				"y": -1.2936835331,
				"z": -1.740874219,
				"element": "O" 
			},
			{
				"x": -0.9411196915,
				"y": -1.9976489502,
				"z": -2.108370711,
				"element": "O" 
			},
			{
				"x": -1.4401063437,
				"y": 0.9452371375,
				"z": 0.4974926133,
				"element": "C" 
			},
			{
				"x": -1.6840478307,
				"y": 1.5721922286,
				"z": -0.7342502109,
				"element": "C" 
			},
			{
				"x": -2.4357304974,
				"y": 2.7448392688,
				"z": -0.8126383464,
				"element": "C" 
			},
			{
				"x": -2.9525157834,
				"y": 3.3038064668,
				"z": 0.35569628,
				"element": "C" 
			},
			{
				"x": -3.899101597,
				"y": 4.779472586,
				"z": 0.2651744843,
				"element": "Cl" 
			},
			{
				"x": -2.7238271204,
				"y": 2.707172901,
				"z": 1.5945363102,
				"element": "C" 
			},
			{
				"x": -1.9708497237,
				"y": 1.5345935273,
				"z": 1.6532757219,
				"element": "C" 
			},
			{
				"x": 0.6513186947,
				"y": -2.3913809114,
				"z": -1.3310648478,
				"element": "H" 
			},
			{
				"x": 0.5668771099,
				"y": -0.1432865874,
				"z": -1.2044009563,
				"element": "H" 
			},
			{
				"x": 1.26618407,
				"y": 0.5737292867,
				"z": 0.2557856312,
				"element": "H" 
			},
			{
				"x": -0.4225702315,
				"y": -0.508231631,
				"z": 1.6676081621,
				"element": "H" 
			},
			{
				"x": -2.4481827398,
				"y": -1.5729771503,
				"z": 0.7670445808,
				"element": "H" 
			},
			{
				"x": -0.9789349581,
				"y": -2.5033251916,
				"z": 0.4588474732,
				"element": "H" 
			},
			{
				"x": -3.5531579921,
				"y": -0.9879152186,
				"z": -1.0065490119,
				"element": "H" 
			},
			{
				"x": -1.2814640361,
				"y": 1.1564710144,
				"z": -1.6530529244,
				"element": "H" 
			},
			{
				"x": -2.6153515302,
				"y": 3.2220054906,
				"z": -1.7696563166,
				"element": "H" 
			},
			{
				"x": -3.1238700781,
				"y": 3.1550220025,
				"z": 2.4974578004,
				"element": "H" 
			},
			{
				"x": -1.7885499937,
				"y": 1.074289478,
				"z": 2.6211182088,
				"element": "H" 
			}
		],
		 "valence_orbital": [ 
			{
				"type": "occ",
				"energy": -0.3104,
				"method": "rhf"
			},
			{
				"type": "occ",
				"energy": -0.30084,
				"method": "rhf"
			},
			{
				"type": "occ",
				"energy": -0.28311,
				"method": "rhf"
			},
			{
				"type": "occ",
				"energy": -0.26518,
				"method": "rhf"
			},
			{
				"type": "occ",
				"energy": -0.25668,
				"method": "rhf"
			},
			{
				"type": "unocc",
				"energy": -0.04136,
				"method": "rhf"
			},
			{
				"type": "unocc",
				"energy": -0.03433,
				"method": "rhf"
			},
			{
				"type": "unocc",
				"energy": -0.02615,
				"method": "rhf"
			},
			{
				"type": "unocc",
				"energy": 0.01497,
				"method": "rhf"
			},
			{
				"type": "unocc",
				"energy": 0.01585,
				"method": "rhf"
			}
		],
		"cosmo_sigma_profile": { 
			"-0.025": 0.0,
			"-0.024": 0.0,
			"-0.023": 0.0,
			"-0.022": 0.0,
			"-0.021": 0.0,
			"-0.02": 0.0599481810468,
			"-0.019": 0.951583557982,
			"-0.018": 0.746187765209,
			"-0.017": 1.17444350609,
			"-0.016": 1.13128791317,
			"-0.015": 0.945810062125,
			"-0.014": 1.2471830248,
			"-0.013": 0.669567097393,
			"-0.012": 1.34948929741,
			"-0.011": 1.14239991946,
			"-0.01": 0.964537996425,
			"-0.009": 1.11711729185,
			"-0.008": 4.16972055538,
			"-0.007": 16.4921897034,
			"-0.006": 20.8233193307,
			"-0.005": 18.3096991384,
			"-0.004": 16.2588595983,
			"-0.003": 12.9992448007,
			"-0.002": 12.608850631,
			"-0.001": 11.9203240842,
			"0.0": 11.7115336075,
			"0.001": 16.1035687898,
			"0.002": 17.3133922789,
			"0.003": 17.7744845892,
			"0.004": 15.6550079836,
			"0.005": 10.2196220147,
			"0.006": 4.41470578759,
			"0.007": 4.59481645374,
			"0.008": 4.77541350226,
			"0.009": 6.19338159396,
			"0.01": 6.27854856098,
			"0.011": 7.11792713427,
			"0.012": 7.0873057326,
			"0.013": 3.92111419093,
			"0.014": 0.954462684951,
			"0.015": 0.0,
			"0.016": 0.0,
			"0.017": 0.0,
			"0.018": 0.0,
			"0.019": 0.0,
			"0.02": 0.0,
			"0.021": 0.0,
			"0.022": 0.0,
			"0.023": 0.0,
			"0.024": 0.0,
			"0.025": 0.0
		}
	}
}
