{
	 "smiles": "CC1=NN=C(O1)C1=CC(=CC=C1)C(O)=O", 
	 "Tm": 515.15, 
	 "num_atms": 23, 
	 "gaussian": { 
		 "optdone": 1, 
		 "sigma_profile": "yes", 
		 "theory": "DFT", 
		 "functional": "B3LYP", 
		 "basiset": "6-31G**", 
		 "properties": { 
			 "R2extent": 4387.8665, 
			 "electric_dipole_moment_norm": 7.67155179739, 
			 "electric_quadrupole_moment_norm": 18.2197138597, 
			 "total_energy": -721.048282392, 
			 "HOMO_LUMO_gap": 0.18356, 
			 "cosmo_polarized_energy": -21.4, 
			 "cosmo_cavitation_energy": 28.93, 
			 "cosmo_dispersion_energy": -21.29, 
			 "cosmo_repulsion_energy": 1.66, 
			 "cosmo_total_nonelectrostatic_energy": 9.3, 
			 "SMD_solvation_energy": 4.76 
		},
		"coords": [
			{
				"x": 1.8725422032,
				"y": -4.0178599416,
				"z": -2.0312301811,
				"element": "C" 
			},
			{
				"x": 1.8976112329,
				"y": -2.5748061467,
				"z": -1.6864942256,
				"element": "C" 
			},
			{
				"x": 2.8672761486,
				"y": -1.7241911388,
				"z": -1.817143973,
				"element": "N" 
			},
			{
				"x": 2.3898938045,
				"y": -0.5011864808,
				"z": -1.3509818066,
				"element": "N" 
			},
			{
				"x": 1.1633238411,
				"y": -0.7017893939,
				"z": -0.9726164165,
				"element": "C" 
			},
			{
				"x": 0.7765505723,
				"y": -2.0015577749,
				"z": -1.154729152,
				"element": "O" 
			},
			{
				"x": 0.2171606537,
				"y": 0.2552098914,
				"z": -0.4074722614,
				"element": "C" 
			},
			{
				"x": 0.6052223364,
				"y": 1.5927570844,
				"z": -0.2566200301,
				"element": "C" 
			},
			{
				"x": -0.2768425311,
				"y": 2.521125773,
				"z": 0.3012213853,
				"element": "C" 
			},
			{
				"x": -1.566284889,
				"y": 2.1152797596,
				"z": 0.6786858446,
				"element": "C" 
			},
			{
				"x": -1.9584435531,
				"y": 0.7870054675,
				"z": 0.515249777,
				"element": "C" 
			},
			{
				"x": -1.0712790198,
				"y": -0.1450456775,
				"z": -0.0177500779,
				"element": "C" 
			},
			{
				"x": 0.1984782081,
				"y": 3.9405972763,
				"z": 0.4300567563,
				"element": "C" 
			},
			{
				"x": -0.4373567909,
				"y": 4.713197872,
				"z": 1.3517194138,
				"element": "O" 
			},
			{
				"x": 1.0926575278,
				"y": 4.4026585991,
				"z": -0.2359800478,
				"element": "O" 
			},
			{
				"x": 1.0973631089,
				"y": -4.2296964697,
				"z": -2.7746876072,
				"element": "H" 
			},
			{
				"x": 2.8445931096,
				"y": -4.2968700683,
				"z": -2.4389594341,
				"element": "H" 
			},
			{
				"x": 1.6655989146,
				"y": -4.62880264,
				"z": -1.1466647888,
				"element": "H" 
			},
			{
				"x": 1.5916983615,
				"y": 1.9150103596,
				"z": -0.570186304,
				"element": "H" 
			},
			{
				"x": -2.2850380533,
				"y": 2.8353371897,
				"z": 1.0616945859,
				"element": "H" 
			},
			{
				"x": -2.9600618639,
				"y": 0.4788386838,
				"z": 0.7980796493,
				"element": "H" 
			},
			{
				"x": -1.372681914,
				"y": -1.1797003961,
				"z": -0.1401058963,
				"element": "H" 
			},
			{
				"x": -0.998681408,
				"y": 4.1660881718,
				"z": 1.9182147902,
				"element": "H" 
			}
		],
		 "valence_orbital": [ 
			{
				"type": "occ",
				"energy": -0.31458,
				"method": "rhf"
			},
			{
				"type": "occ",
				"energy": -0.28574,
				"method": "rhf"
			},
			{
				"type": "occ",
				"energy": -0.28094,
				"method": "rhf"
			},
			{
				"type": "occ",
				"energy": -0.27274,
				"method": "rhf"
			},
			{
				"type": "occ",
				"energy": -0.25284,
				"method": "rhf"
			},
			{
				"type": "unocc",
				"energy": -0.06928,
				"method": "rhf"
			},
			{
				"type": "unocc",
				"energy": -0.05099,
				"method": "rhf"
			},
			{
				"type": "unocc",
				"energy": 0.00094,
				"method": "rhf"
			},
			{
				"type": "unocc",
				"energy": 0.02653,
				"method": "rhf"
			},
			{
				"type": "unocc",
				"energy": 0.05614,
				"method": "rhf"
			}
		],
		"cosmo_sigma_profile": { 
			"-0.025": 0.0,
			"-0.024": 0.0,
			"-0.023": 0.0,
			"-0.022": 0.0,
			"-0.021": 0.0,
			"-0.02": 0.0,
			"-0.019": 0.279464448593,
			"-0.018": 0.519149198444,
			"-0.017": 0.771880545771,
			"-0.016": 0.605006307171,
			"-0.015": 0.891131523015,
			"-0.014": 0.483223694323,
			"-0.013": 1.13202904586,
			"-0.012": 1.93518577171,
			"-0.011": 1.66932600016,
			"-0.01": 2.07003740652,
			"-0.009": 1.85434018112,
			"-0.008": 3.19377255456,
			"-0.007": 11.6825741936,
			"-0.006": 13.2879720861,
			"-0.005": 14.2373008265,
			"-0.004": 16.4100937033,
			"-0.003": 20.8936437981,
			"-0.002": 17.269963107,
			"-0.001": 15.0145205076,
			"0.0": 14.2568952346,
			"0.001": 17.7495049708,
			"0.002": 13.2484317723,
			"0.003": 6.21873057817,
			"0.004": 5.01710754586,
			"0.005": 4.71068963534,
			"0.006": 3.42436432114,
			"0.007": 3.87294275503,
			"0.008": 5.22186242801,
			"0.009": 5.55013756075,
			"0.01": 7.60105964901,
			"0.011": 9.01128205472,
			"0.012": 6.44888538361,
			"0.013": 3.06798883261,
			"0.014": 2.21336798829,
			"0.015": 0.949704340573,
			"0.016": 0.0504529327537,
			"0.017": 0.0,
			"0.018": 0.0,
			"0.019": 0.0,
			"0.02": 0.0,
			"0.021": 0.0,
			"0.022": 0.0,
			"0.023": 0.0,
			"0.024": 0.0,
			"0.025": 0.0
		}
	}
}
