{
	 "smiles": "OC(=O)COC1=C(Cl)C=C(C=C1)S(Cl)(=O)=O", 
	 "Tm": 397.15, 
	 "num_atms": 22, 
	 "gaussian": { 
		 "optdone": 1, 
		 "sigma_profile": "yes", 
		 "theory": "DFT", 
		 "functional": "B3LYP", 
		 "basiset": "6-31G**", 
		 "properties": { 
			 "R2extent": 6948.9959, 
			 "electric_dipole_moment_norm": 4.18300528687, 
			 "electric_quadrupole_moment_norm": 14.9309259539, 
			 "total_energy": -2003.07539332, 
			 "HOMO_LUMO_gap": 0.18359, 
			 "cosmo_polarized_energy": -17.18, 
			 "cosmo_cavitation_energy": 33.44, 
			 "cosmo_dispersion_energy": -24.36, 
			 "cosmo_repulsion_energy": 1.89, 
			 "cosmo_total_nonelectrostatic_energy": 10.97, 
			 "SMD_solvation_energy": 5.85 
		},
		"coords": [
			{
				"x": 3.2967365231,
				"y": -1.5729184711,
				"z": 3.6609199063,
				"element": "O" 
			},
			{
				"x": 1.9950284145,
				"y": -1.7820674005,
				"z": 3.9094371009,
				"element": "C" 
			},
			{
				"x": 1.5610533793,
				"y": -2.2526272456,
				"z": 4.9362642343,
				"element": "O" 
			},
			{
				"x": 1.0740864716,
				"y": -1.3705226899,
				"z": 2.7751324395,
				"element": "C" 
			},
			{
				"x": 1.8094532987,
				"y": -0.8413783283,
				"z": 1.672116792,
				"element": "O" 
			},
			{
				"x": 1.0638948846,
				"y": -0.398218065,
				"z": 0.6178416437,
				"element": "C" 
			},
			{
				"x": 0.5822462455,
				"y": -1.280251042,
				"z": -0.3683407314,
				"element": "C" 
			},
			{
				"x": 0.8919417421,
				"y": -2.993031186,
				"z": -0.2345281729,
				"element": "Cl" 
			},
			{
				"x": -0.1249067213,
				"y": -0.7975869282,
				"z": -1.466068545,
				"element": "C" 
			},
			{
				"x": -0.3416369098,
				"y": 0.5765898072,
				"z": -1.5621647337,
				"element": "C" 
			},
			{
				"x": 0.1279992441,
				"y": 1.4778990273,
				"z": -0.6066850731,
				"element": "C" 
			},
			{
				"x": 0.8300108916,
				"y": 0.9753552137,
				"z": 0.4840081253,
				"element": "C" 
			},
			{
				"x": -1.2662882672,
				"y": 1.1969975418,
				"z": -2.9593829153,
				"element": "S" 
			},
			{
				"x": 0.2926302646,
				"y": 1.573461542,
				"z": -4.3613557041,
				"element": "Cl" 
			},
			{
				"x": -1.8291678706,
				"y": 2.4968471041,
				"z": -2.6178990722,
				"element": "O" 
			},
			{
				"x": -2.068231522,
				"y": 0.1180142869,
				"z": -3.5211197751,
				"element": "O" 
			},
			{
				"x": 3.7744465236,
				"y": -1.8780722742,
				"z": 4.4515256574,
				"element": "H" 
			},
			{
				"x": 0.3740319854,
				"y": -0.6244629592,
				"z": 3.1732546346,
				"element": "H" 
			},
			{
				"x": 0.495894443,
				"y": -2.2556466594,
				"z": 2.4858174487,
				"element": "H" 
			},
			{
				"x": -0.5015173532,
				"y": -1.4749249356,
				"z": -2.2233143313,
				"element": "H" 
			},
			{
				"x": -0.0625153868,
				"y": 2.539556663,
				"z": -0.7125389728,
				"element": "H" 
			},
			{
				"x": 1.2205097192,
				"y": 1.6364869989,
				"z": 1.2502800441,
				"element": "H" 
			}
		],
		 "valence_orbital": [ 
			{
				"type": "occ",
				"energy": -0.32007,
				"method": "rhf"
			},
			{
				"type": "occ",
				"energy": -0.31377,
				"method": "rhf"
			},
			{
				"type": "occ",
				"energy": -0.29938,
				"method": "rhf"
			},
			{
				"type": "occ",
				"energy": -0.29587,
				"method": "rhf"
			},
			{
				"type": "occ",
				"energy": -0.28119,
				"method": "rhf"
			},
			{
				"type": "unocc",
				"energy": -0.0976,
				"method": "rhf"
			},
			{
				"type": "unocc",
				"energy": -0.05473,
				"method": "rhf"
			},
			{
				"type": "unocc",
				"energy": -0.05417,
				"method": "rhf"
			},
			{
				"type": "unocc",
				"energy": -0.01106,
				"method": "rhf"
			},
			{
				"type": "unocc",
				"energy": -0.00043,
				"method": "rhf"
			}
		],
		"cosmo_sigma_profile": { 
			"-0.025": 0.0,
			"-0.024": 0.0,
			"-0.023": 0.0,
			"-0.022": 0.0,
			"-0.021": 0.0,
			"-0.02": 0.0,
			"-0.019": 0.39550833028,
			"-0.018": 1.29973750935,
			"-0.017": 0.613941043466,
			"-0.016": 0.94176920133,
			"-0.015": 0.902106750483,
			"-0.014": 0.606450197188,
			"-0.013": 0.359764524263,
			"-0.012": 1.37159159209,
			"-0.011": 0.849233473996,
			"-0.01": 0.568557153014,
			"-0.009": 4.71411705973,
			"-0.008": 10.5288204868,
			"-0.007": 13.325284594,
			"-0.006": 14.3490720003,
			"-0.005": 8.56683048875,
			"-0.004": 11.796843787,
			"-0.003": 14.4795453546,
			"-0.002": 19.7101404218,
			"-0.001": 25.4277948721,
			"0.0": 18.768235666,
			"0.001": 15.5046422175,
			"0.002": 18.3456070716,
			"0.003": 23.2360683003,
			"0.004": 10.5857334026,
			"0.005": 6.02526332942,
			"0.006": 8.0403950776,
			"0.007": 9.10644139875,
			"0.008": 12.0516742592,
			"0.009": 5.85722263098,
			"0.01": 4.73166271212,
			"0.011": 6.56616191047,
			"0.012": 3.4547194846,
			"0.013": 0.0335626212773,
			"0.014": 0.0,
			"0.015": 0.0,
			"0.016": 0.0,
			"0.017": 0.0,
			"0.018": 0.0,
			"0.019": 0.0,
			"0.02": 0.0,
			"0.021": 0.0,
			"0.022": 0.0,
			"0.023": 0.0,
			"0.024": 0.0,
			"0.025": 0.0
		}
	}
}
