{
	 "smiles": "OC(=O)C(CC1=CC=CC=C1)NC(=O)OCC1=CC=CC=C1[N+]([O-])=O", 
	 "Tm": 414.15, 
	 "num_atms": 41, 
	 "gaussian": { 
		 "optdone": 1, 
		 "sigma_profile": "yes", 
		 "theory": "DFT", 
		 "functional": "B3LYP", 
		 "basiset": "6-31G**", 
		 "properties": { 
			 "R2extent": 10950.9464, 
			 "electric_dipole_moment_norm": 3.64667180042, 
			 "electric_quadrupole_moment_norm": 33.1828507287, 
			 "total_energy": -1218.2338145, 
			 "HOMO_LUMO_gap": 0.15548, 
			 "cosmo_polarized_energy": -20.47, 
			 "cosmo_cavitation_energy": 45.59, 
			 "cosmo_dispersion_energy": -30.77, 
			 "cosmo_repulsion_energy": 2.3, 
			 "cosmo_total_nonelectrostatic_energy": 17.12, 
			 "SMD_solvation_energy": 10.47 
		},
		"coords": [
			{
				"x": -1.9000193693,
				"y": 2.1821385965,
				"z": 0.0500439826,
				"element": "O" 
			},
			{
				"x": -2.1697994616,
				"y": 1.3687370374,
				"z": 1.0857538393,
				"element": "C" 
			},
			{
				"x": -3.1846370975,
				"y": 1.4166188684,
				"z": 1.7433969956,
				"element": "O" 
			},
			{
				"x": -1.0290645743,
				"y": 0.4041694565,
				"z": 1.425638991,
				"element": "C" 
			},
			{
				"x": -0.2119072411,
				"y": 1.0253649873,
				"z": 2.5891979387,
				"element": "C" 
			},
			{
				"x": 0.8943539727,
				"y": 0.1265325815,
				"z": 3.0990062169,
				"element": "C" 
			},
			{
				"x": 2.2361907587,
				"y": 0.3985160523,
				"z": 2.800381858,
				"element": "C" 
			},
			{
				"x": 3.2560329063,
				"y": -0.4445319453,
				"z": 3.250295588,
				"element": "C" 
			},
			{
				"x": 2.9455384486,
				"y": -1.57194957,
				"z": 4.009604273,
				"element": "C" 
			},
			{
				"x": 1.6112182902,
				"y": -1.8506861542,
				"z": 4.3188963184,
				"element": "C" 
			},
			{
				"x": 0.5962281267,
				"y": -1.0090475983,
				"z": 3.8671670467,
				"element": "C" 
			},
			{
				"x": -0.1459585884,
				"y": 0.097961361,
				"z": 0.3141051569,
				"element": "N" 
			},
			{
				"x": -0.5035023275,
				"y": -0.5376424501,
				"z": -0.8380363552,
				"element": "C" 
			},
			{
				"x": 0.2753308954,
				"y": -0.9285181766,
				"z": -1.6890026245,
				"element": "O" 
			},
			{
				"x": -1.8600570075,
				"y": -0.6737923168,
				"z": -0.9157171838,
				"element": "O" 
			},
			{
				"x": -2.3484308347,
				"y": -1.2498499436,
				"z": -2.1400628223,
				"element": "C" 
			},
			{
				"x": -2.3328333052,
				"y": -0.2631307829,
				"z": -3.292155196,
				"element": "C" 
			},
			{
				"x": -1.5547501892,
				"y": -0.5547543805,
				"z": -4.4179168608,
				"element": "C" 
			},
			{
				"x": -1.4852375,
				"y": 0.31115184,
				"z": -5.5093714849,
				"element": "C" 
			},
			{
				"x": -2.1732386953,
				"y": 1.5246892227,
				"z": -5.4862261566,
				"element": "C" 
			},
			{
				"x": -2.9277626181,
				"y": 1.8635998445,
				"z": -4.3673244317,
				"element": "C" 
			},
			{
				"x": -3.0119655034,
				"y": 0.9683336638,
				"z": -3.3005620445,
				"element": "C" 
			},
			{
				"x": -3.8541626877,
				"y": 1.3862883372,
				"z": -2.170596948,
				"element": "N" 
			},
			{
				"x": -3.929452973,
				"y": 2.599750151,
				"z": -1.9399442219,
				"element": "O" 
			},
			{
				"x": -4.4433455597,
				"y": 0.5255744916,
				"z": -1.5262532003,
				"element": "O" 
			},
			{
				"x": -2.7066905965,
				"y": 2.7002501292,
				"z": -0.1314740752,
				"element": "H" 
			},
			{
				"x": -1.5270777939,
				"y": -0.5010192862,
				"z": 1.7924155206,
				"element": "H" 
			},
			{
				"x": -0.925127289,
				"y": 1.249344255,
				"z": 3.3882330741,
				"element": "H" 
			},
			{
				"x": 0.2061185556,
				"y": 1.9791379175,
				"z": 2.2480834768,
				"element": "H" 
			},
			{
				"x": 2.4868143253,
				"y": 1.2862721873,
				"z": 2.2236126431,
				"element": "H" 
			},
			{
				"x": 4.2902989973,
				"y": -0.2154759574,
				"z": 3.0101100163,
				"element": "H" 
			},
			{
				"x": 3.7359275407,
				"y": -2.2277208024,
				"z": 4.3627527027,
				"element": "H" 
			},
			{
				"x": 1.3623776899,
				"y": -2.7232706502,
				"z": 4.9161593522,
				"element": "H" 
			},
			{
				"x": -0.4388130519,
				"y": -1.2302182612,
				"z": 4.1169032221,
				"element": "H" 
			},
			{
				"x": 0.8496250816,
				"y": 0.0963771342,
				"z": 0.4845095596,
				"element": "H" 
			},
			{
				"x": -3.3618179427,
				"y": -1.5703149508,
				"z": -1.9066189439,
				"element": "H" 
			},
			{
				"x": -1.7302846625,
				"y": -2.1099797142,
				"z": -2.4034594414,
				"element": "H" 
			},
			{
				"x": -0.9759179215,
				"y": -1.4724257146,
				"z": -4.4196074081,
				"element": "H" 
			},
			{
				"x": -0.8777144565,
				"y": 0.0446046433,
				"z": -6.3687860506,
				"element": "H" 
			},
			{
				"x": -2.1165466512,
				"y": 2.2087977848,
				"z": -6.3267403584,
				"element": "H" 
			},
			{
				"x": -3.4584396897,
				"y": 2.8055181127,
				"z": -4.3037119645,
				"element": "H" 
			}
		],
		 "valence_orbital": [ 
			{
				"type": "occ",
				"energy": -0.27681,
				"method": "rhf"
			},
			{
				"type": "occ",
				"energy": -0.27009,
				"method": "rhf"
			},
			{
				"type": "occ",
				"energy": -0.25926,
				"method": "rhf"
			},
			{
				"type": "occ",
				"energy": -0.25199,
				"method": "rhf"
			},
			{
				"type": "occ",
				"energy": -0.25035,
				"method": "rhf"
			},
			{
				"type": "unocc",
				"energy": -0.09487,
				"method": "rhf"
			},
			{
				"type": "unocc",
				"energy": -0.03063,
				"method": "rhf"
			},
			{
				"type": "unocc",
				"energy": -0.01604,
				"method": "rhf"
			},
			{
				"type": "unocc",
				"energy": -0.01272,
				"method": "rhf"
			},
			{
				"type": "unocc",
				"energy": -0.01096,
				"method": "rhf"
			}
		],
		"cosmo_sigma_profile": { 
			"-0.025": 0.0,
			"-0.024": 0.0,
			"-0.023": 0.0,
			"-0.022": 0.0,
			"-0.021": 0.0,
			"-0.02": 0.0,
			"-0.019": 0.0,
			"-0.018": 0.0,
			"-0.017": 0.0,
			"-0.016": 0.0,
			"-0.015": 0.0,
			"-0.014": 0.20828647571,
			"-0.013": 0.237540062834,
			"-0.012": 0.73122722408,
			"-0.011": 0.889503596752,
			"-0.01": 1.55147488495,
			"-0.009": 2.15541335442,
			"-0.008": 4.78287057872,
			"-0.007": 14.7112960717,
			"-0.006": 29.1793081601,
			"-0.005": 29.9893233434,
			"-0.004": 28.6918110948,
			"-0.003": 26.2819185223,
			"-0.002": 21.7135106394,
			"-0.001": 21.5871195689,
			"0.0": 24.7773045708,
			"0.001": 24.6843462365,
			"0.002": 22.2178554465,
			"0.003": 16.5030852849,
			"0.004": 15.932853591,
			"0.005": 16.8662585552,
			"0.006": 14.1830055467,
			"0.007": 10.7863947927,
			"0.008": 7.50697788948,
			"0.009": 5.7340384134,
			"0.01": 4.54697145948,
			"0.011": 5.93486454133,
			"0.012": 6.77777134207,
			"0.013": 3.4408376974,
			"0.014": 0.525503531596,
			"0.015": 0.0,
			"0.016": 0.0,
			"0.017": 0.0,
			"0.018": 0.0,
			"0.019": 0.0,
			"0.02": 0.0,
			"0.021": 0.0,
			"0.022": 0.0,
			"0.023": 0.0,
			"0.024": 0.0,
			"0.025": 0.0
		}
	}
}
