{
	 "smiles": "CCCCCCCCCCCCCCCCC=O", 
	 "Tm": 309.15, 
	 "num_atms": 52, 
	 "gaussian": { 
		 "optdone": 1, 
		 "sigma_profile": "yes", 
		 "theory": "DFT", 
		 "functional": "B3LYP", 
		 "basiset": "6-31G**", 
		 "properties": { 
			 "R2extent": 7222.4027, 
			 "electric_dipole_moment_norm": 3.31442470574, 
			 "electric_quadrupole_moment_norm": 12.654384066, 
			 "total_energy": -743.552843834, 
			 "HOMO_LUMO_gap": 0.22735, 
			 "cosmo_polarized_energy": -6.09, 
			 "cosmo_cavitation_energy": 49.16, 
			 "cosmo_dispersion_energy": -30.99, 
			 "cosmo_repulsion_energy": 2.46, 
			 "cosmo_total_nonelectrostatic_energy": 20.63, 
			 "SMD_solvation_energy": 6.77 
		},
		"coords": [
			{
				"x": -3.5155613173,
				"y": -0.2154854866,
				"z": -0.0447173328,
				"element": "C" 
			},
			{
				"x": -3.3925323449,
				"y": 0.2470043072,
				"z": 1.4127920354,
				"element": "C" 
			},
			{
				"x": -2.0369431376,
				"y": 0.8820947808,
				"z": 1.7691254637,
				"element": "C" 
			},
			{
				"x": -1.7515540303,
				"y": 2.2038699716,
				"z": 1.0389731996,
				"element": "C" 
			},
			{
				"x": -0.4979144472,
				"y": 2.9473284473,
				"z": 1.5399017739,
				"element": "C" 
			},
			{
				"x": 0.876384336,
				"y": 2.3020643763,
				"z": 1.2453952327,
				"element": "C" 
			},
			{
				"x": 1.5428079534,
				"y": 2.7127611613,
				"z": -0.0840704589,
				"element": "C" 
			},
			{
				"x": 0.9239800727,
				"y": 2.1597184896,
				"z": -1.3821746992,
				"element": "C" 
			},
			{
				"x": 1.049867767,
				"y": 0.6371310373,
				"z": -1.5742901126,
				"element": "C" 
			},
			{
				"x": 2.4731044387,
				"y": 0.1686426279,
				"z": -1.921545942,
				"element": "C" 
			},
			{
				"x": 2.6285623655,
				"y": -1.3603286948,
				"z": -2.0034854493,
				"element": "C" 
			},
			{
				"x": 2.7053793847,
				"y": -2.0547352994,
				"z": -0.6355741308,
				"element": "C" 
			},
			{
				"x": 2.7864505962,
				"y": -3.585534576,
				"z": -0.7451003185,
				"element": "C" 
			},
			{
				"x": 2.9608310617,
				"y": -4.3329258386,
				"z": 0.5968460826,
				"element": "C" 
			},
			{
				"x": 1.6824769754,
				"y": -4.861562727,
				"z": 1.2732230053,
				"element": "C" 
			},
			{
				"x": 0.6449117534,
				"y": -3.8041994387,
				"z": 1.7086448788,
				"element": "C" 
			},
			{
				"x": -0.2919270187,
				"y": -3.3621383332,
				"z": 0.6105570544,
				"element": "C" 
			},
			{
				"x": -0.5790697499,
				"y": -2.2111500505,
				"z": 0.3551529131,
				"element": "O" 
			},
			{
				"x": -2.7226261594,
				"y": -0.9282233654,
				"z": -0.2937299373,
				"element": "H" 
			},
			{
				"x": -4.4802613329,
				"y": -0.7047649613,
				"z": -0.2201598557,
				"element": "H" 
			},
			{
				"x": -3.4455552989,
				"y": 0.6237645438,
				"z": -0.7448837222,
				"element": "H" 
			},
			{
				"x": -3.5569928311,
				"y": -0.6154155434,
				"z": 2.0721958705,
				"element": "H" 
			},
			{
				"x": -4.1967770307,
				"y": 0.9606923037,
				"z": 1.6421123495,
				"element": "H" 
			},
			{
				"x": -2.0123252006,
				"y": 1.0706607895,
				"z": 2.8522441913,
				"element": "H" 
			},
			{
				"x": -1.2429644718,
				"y": 0.1531947888,
				"z": 1.5634981444,
				"element": "H" 
			},
			{
				"x": -1.6798599533,
				"y": 2.0240553765,
				"z": -0.0392627744,
				"element": "H" 
			},
			{
				"x": -2.6170237547,
				"y": 2.868307666,
				"z": 1.1759737514,
				"element": "H" 
			},
			{
				"x": -0.6001509287,
				"y": 3.0675116004,
				"z": 2.6273427667,
				"element": "H" 
			},
			{
				"x": -0.4991592587,
				"y": 3.9669749345,
				"z": 1.1299487673,
				"element": "H" 
			},
			{
				"x": 1.564319886,
				"y": 2.5946802101,
				"z": 2.0490459765,
				"element": "H" 
			},
			{
				"x": 0.8020498956,
				"y": 1.2096129506,
				"z": 1.3114224923,
				"element": "H" 
			},
			{
				"x": 1.5461955996,
				"y": 3.8102939329,
				"z": -0.1398299139,
				"element": "H" 
			},
			{
				"x": 2.6000026332,
				"y": 2.4185829019,
				"z": -0.0433510604,
				"element": "H" 
			},
			{
				"x": 1.4035972496,
				"y": 2.661471045,
				"z": -2.2347233004,
				"element": "H" 
			},
			{
				"x": -0.1334092865,
				"y": 2.4439463767,
				"z": -1.4309890193,
				"element": "H" 
			},
			{
				"x": 0.6848923069,
				"y": 0.1154672174,
				"z": -0.6819614512,
				"element": "H" 
			},
			{
				"x": 0.3805499874,
				"y": 0.3265386991,
				"z": -2.3878524286,
				"element": "H" 
			},
			{
				"x": 2.7571574788,
				"y": 0.6132071832,
				"z": -2.8850771211,
				"element": "H" 
			},
			{
				"x": 3.1925513,
				"y": 0.5584906992,
				"z": -1.1884683426,
				"element": "H" 
			},
			{
				"x": 1.7906383286,
				"y": -1.7780536504,
				"z": -2.5800170853,
				"element": "H" 
			},
			{
				"x": 3.5374144211,
				"y": -1.6042789196,
				"z": -2.5706472569,
				"element": "H" 
			},
			{
				"x": 3.5971564503,
				"y": -1.6923505198,
				"z": -0.1040916889,
				"element": "H" 
			},
			{
				"x": 1.8448938695,
				"y": -1.7621126126,
				"z": -0.0257518807,
				"element": "H" 
			},
			{
				"x": 1.8990940556,
				"y": -3.9674516956,
				"z": -1.2714325292,
				"element": "H" 
			},
			{
				"x": 3.6351761799,
				"y": -3.8327390376,
				"z": -1.3962829308,
				"element": "H" 
			},
			{
				"x": 3.4987796564,
				"y": -3.6869047888,
				"z": 1.3040811395,
				"element": "H" 
			},
			{
				"x": 3.610905867,
				"y": -5.202065084,
				"z": 0.4375006002,
				"element": "H" 
			},
			{
				"x": 1.980224229,
				"y": -5.4298102659,
				"z": 2.1618241533,
				"element": "H" 
			},
			{
				"x": 1.1923293615,
				"y": -5.586630716,
				"z": 0.6074129787,
				"element": "H" 
			},
			{
				"x": -0.0071282909,
				"y": -4.257559587,
				"z": 2.4717081674,
				"element": "H" 
			},
			{
				"x": 1.1102442294,
				"y": -2.9231574023,
				"z": 2.1610653051,
				"element": "H" 
			},
			{
				"x": -0.7519938459,
				"y": -4.1972898241,
				"z": 0.0327824492,
				"element": "H" 
			}
		],
		 "valence_orbital": [ 
			{
				"type": "occ",
				"energy": -0.29769,
				"method": "rhf"
			},
			{
				"type": "occ",
				"energy": -0.29204,
				"method": "rhf"
			},
			{
				"type": "occ",
				"energy": -0.28859,
				"method": "rhf"
			},
			{
				"type": "occ",
				"energy": -0.28402,
				"method": "rhf"
			},
			{
				"type": "occ",
				"energy": -0.25894,
				"method": "rhf"
			},
			{
				"type": "unocc",
				"energy": -0.03159,
				"method": "rhf"
			},
			{
				"type": "unocc",
				"energy": 0.08298,
				"method": "rhf"
			},
			{
				"type": "unocc",
				"energy": 0.08644,
				"method": "rhf"
			},
			{
				"type": "unocc",
				"energy": 0.09736,
				"method": "rhf"
			},
			{
				"type": "unocc",
				"energy": 0.10233,
				"method": "rhf"
			}
		],
		"cosmo_sigma_profile": { 
			"-0.025": 0.0,
			"-0.024": 0.0,
			"-0.023": 0.0,
			"-0.022": 0.0,
			"-0.021": 0.0,
			"-0.02": 0.0,
			"-0.019": 0.0,
			"-0.018": 0.0,
			"-0.017": 0.0,
			"-0.016": 0.0,
			"-0.015": 0.0,
			"-0.014": 0.0,
			"-0.013": 0.0,
			"-0.012": 0.0,
			"-0.011": 0.0,
			"-0.01": 0.0,
			"-0.009": 0.0,
			"-0.008": 0.0,
			"-0.007": 0.503300539464,
			"-0.006": 7.94240105675,
			"-0.005": 7.80616044537,
			"-0.004": 8.60811114515,
			"-0.003": 13.5368558065,
			"-0.002": 41.9664159425,
			"-0.001": 73.3138472118,
			"0.0": 78.3176177956,
			"0.001": 68.9576118716,
			"0.002": 39.7098124612,
			"0.003": 9.49195552931,
			"0.004": 5.98513877215,
			"0.005": 7.42307684173,
			"0.006": 6.93146868762,
			"0.007": 3.42732873809,
			"0.008": 1.36322206898,
			"0.009": 0.823823031032,
			"0.01": 0.538664727278,
			"0.011": 0.033703718927,
			"0.012": 0.0,
			"0.013": 0.0,
			"0.014": 0.0,
			"0.015": 0.0,
			"0.016": 0.0,
			"0.017": 0.0,
			"0.018": 0.0,
			"0.019": 0.0,
			"0.02": 0.0,
			"0.021": 0.0,
			"0.022": 0.0,
			"0.023": 0.0,
			"0.024": 0.0,
			"0.025": 0.0
		}
	}
}
