{
	 "smiles": "CC1=CC(=NO1)C1=C(C(O)=O)C(C)=NO1", 
	 "Tm": 440.15, 
	 "num_atms": 23, 
	 "gaussian": { 
		 "optdone": 1, 
		 "sigma_profile": "yes", 
		 "theory": "DFT", 
		 "functional": "B3LYP", 
		 "basiset": "6-31G**", 
		 "properties": { 
			 "R2extent": 4377.2353, 
			 "electric_dipole_moment_norm": 1.28500548248, 
			 "electric_quadrupole_moment_norm": 25.4158431375, 
			 "total_energy": -758.096092734, 
			 "HOMO_LUMO_gap": 0.19236, 
			 "cosmo_polarized_energy": -16.4, 
			 "cosmo_cavitation_energy": 29.04, 
			 "cosmo_dispersion_energy": -21.18, 
			 "cosmo_repulsion_energy": 1.67, 
			 "cosmo_total_nonelectrostatic_energy": 9.52, 
			 "SMD_solvation_energy": 6.39 
		},
		"coords": [
			{
				"x": 3.6238063496,
				"y": -0.1826613996,
				"z": -4.6327738685,
				"element": "C" 
			},
			{
				"x": 2.4466108788,
				"y": -0.0287106065,
				"z": -3.7346441445,
				"element": "C" 
			},
			{
				"x": 2.0647755857,
				"y": -0.6137995126,
				"z": -2.5665881939,
				"element": "C" 
			},
			{
				"x": 0.8271786368,
				"y": 0.0273102451,
				"z": -2.2548048248,
				"element": "C" 
			},
			{
				"x": 0.4856587561,
				"y": 0.9155201287,
				"z": -3.1695374809,
				"element": "N" 
			},
			{
				"x": 1.5112467594,
				"y": 0.881013663,
				"z": -4.1018780181,
				"element": "O" 
			},
			{
				"x": -0.0224797435,
				"y": -0.2666394575,
				"z": -1.1066546637,
				"element": "C" 
			},
			{
				"x": -0.9933684136,
				"y": 0.392692378,
				"z": -0.38452915,
				"element": "C" 
			},
			{
				"x": -1.4267642873,
				"y": 1.7930113593,
				"z": -0.5276233925,
				"element": "C" 
			},
			{
				"x": -2.5677556782,
				"y": 2.0376572357,
				"z": 0.1734957409,
				"element": "O" 
			},
			{
				"x": -0.8592307874,
				"y": 2.6568367782,
				"z": -1.1584912793,
				"element": "O" 
			},
			{
				"x": -1.4043460796,
				"y": -0.5743744064,
				"z": 0.5989584863,
				"element": "C" 
			},
			{
				"x": -2.4304801645,
				"y": -0.4585637004,
				"z": 1.6824748946,
				"element": "C" 
			},
			{
				"x": -0.7286789225,
				"y": -1.6930079917,
				"z": 0.4789507374,
				"element": "N" 
			},
			{
				"x": 0.141560425,
				"y": -1.5025478922,
				"z": -0.6030840202,
				"element": "O" 
			},
			{
				"x": 4.3005653466,
				"y": -0.9424316426,
				"z": -4.2375790736,
				"element": "H" 
			},
			{
				"x": 3.3106743194,
				"y": -0.4817798403,
				"z": -5.6383778532,
				"element": "H" 
			},
			{
				"x": 4.1714153123,
				"y": 0.7611573105,
				"z": -4.7228913729,
				"element": "H" 
			},
			{
				"x": 2.5728849766,
				"y": -1.3773288466,
				"z": -1.9997223347,
				"element": "H" 
			},
			{
				"x": -2.7584019588,
				"y": 2.9805044712,
				"z": 0.0351781877,
				"element": "H" 
			},
			{
				"x": -2.4515886586,
				"y": -1.3841447466,
				"z": 2.2606643254,
				"element": "H" 
			},
			{
				"x": -3.4200298687,
				"y": -0.2708205593,
				"z": 1.2583711665,
				"element": "H" 
			},
			{
				"x": -2.2019527838,
				"y": 0.3789070327,
				"z": 2.347086132,
				"element": "H" 
			}
		],
		 "valence_orbital": [ 
			{
				"type": "occ",
				"energy": -0.31151,
				"method": "rhf"
			},
			{
				"type": "occ",
				"energy": -0.29793,
				"method": "rhf"
			},
			{
				"type": "occ",
				"energy": -0.27842,
				"method": "rhf"
			},
			{
				"type": "occ",
				"energy": -0.26852,
				"method": "rhf"
			},
			{
				"type": "occ",
				"energy": -0.25772,
				"method": "rhf"
			},
			{
				"type": "unocc",
				"energy": -0.06536,
				"method": "rhf"
			},
			{
				"type": "unocc",
				"energy": -0.00785,
				"method": "rhf"
			},
			{
				"type": "unocc",
				"energy": -0.00203,
				"method": "rhf"
			},
			{
				"type": "unocc",
				"energy": 0.05616,
				"method": "rhf"
			},
			{
				"type": "unocc",
				"energy": 0.07598,
				"method": "rhf"
			}
		],
		"cosmo_sigma_profile": { 
			"-0.025": 0.0,
			"-0.024": 0.0,
			"-0.023": 0.0,
			"-0.022": 0.0,
			"-0.021": 0.0,
			"-0.02": 0.0,
			"-0.019": 0.304578808472,
			"-0.018": 0.886367169906,
			"-0.017": 0.911960431712,
			"-0.016": 1.08139501598,
			"-0.015": 0.459087630797,
			"-0.014": 0.614436502625,
			"-0.013": 0.258515157194,
			"-0.012": 0.537410943933,
			"-0.011": 1.30770015732,
			"-0.01": 0.753500022997,
			"-0.009": 1.42271955506,
			"-0.008": 2.26663134022,
			"-0.007": 5.32137774462,
			"-0.006": 12.1993448252,
			"-0.005": 14.378996607,
			"-0.004": 17.1311516088,
			"-0.003": 23.603572897,
			"-0.002": 28.3195165269,
			"-0.001": 21.2566852432,
			"0.0": 13.0276123801,
			"0.001": 12.5056168755,
			"0.002": 7.32382432512,
			"0.003": 6.16871795053,
			"0.004": 7.68769522746,
			"0.005": 6.99425386235,
			"0.006": 8.11222243932,
			"0.007": 8.40545690353,
			"0.008": 5.08250407372,
			"0.009": 3.23302318095,
			"0.01": 4.10322943488,
			"0.011": 5.95651352087,
			"0.012": 5.37137575385,
			"0.013": 2.87357707912,
			"0.014": 1.69623009199,
			"0.015": 0.862080623798,
			"0.016": 0.0,
			"0.017": 0.0,
			"0.018": 0.0,
			"0.019": 0.0,
			"0.02": 0.0,
			"0.021": 0.0,
			"0.022": 0.0,
			"0.023": 0.0,
			"0.024": 0.0,
			"0.025": 0.0
		}
	}
}
