{
	 "smiles": "N=C(NC1=CC=CC=C1)NC1=CC=CC=C1", 
	 "Tm": 423.15, 
	 "num_atms": 29, 
	 "gaussian": { 
		 "optdone": 1, 
		 "sigma_profile": "yes", 
		 "theory": "DFT", 
		 "functional": "B3LYP", 
		 "basiset": "6-31G**", 
		 "properties": { 
			 "R2extent": 5028.6844, 
			 "electric_dipole_moment_norm": 2.58254348657, 
			 "electric_quadrupole_moment_norm": 12.5882243823, 
			 "total_energy": -667.471545921, 
			 "HOMO_LUMO_gap": 0.19456, 
			 "cosmo_polarized_energy": -12.83, 
			 "cosmo_cavitation_energy": 32.83, 
			 "cosmo_dispersion_energy": -23.78, 
			 "cosmo_repulsion_energy": 1.84, 
			 "cosmo_total_nonelectrostatic_energy": 10.89, 
			 "SMD_solvation_energy": 4.34 
		},
		"coords": [
			{
				"x": 2.3257107961,
				"y": 1.8116578959,
				"z": 0.4655183901,
				"element": "N" 
			},
			{
				"x": 1.353968679,
				"y": 1.0277043588,
				"z": 0.1685044443,
				"element": "C" 
			},
			{
				"x": 1.3955073833,
				"y": -0.3124719109,
				"z": -0.2072034887,
				"element": "N" 
			},
			{
				"x": 2.540662339,
				"y": -1.1016806948,
				"z": -0.4325173912,
				"element": "C" 
			},
			{
				"x": 3.6979543464,
				"y": -0.5914723124,
				"z": -1.0428793553,
				"element": "C" 
			},
			{
				"x": 4.7929051324,
				"y": -1.4260412314,
				"z": -1.2698030406,
				"element": "C" 
			},
			{
				"x": 4.7470998817,
				"y": -2.7762692681,
				"z": -0.9213957952,
				"element": "C" 
			},
			{
				"x": 3.5865477765,
				"y": -3.2912051824,
				"z": -0.3392314733,
				"element": "C" 
			},
			{
				"x": 2.4964798991,
				"y": -2.46185384,
				"z": -0.0869143854,
				"element": "C" 
			},
			{
				"x": 0.0719244848,
				"y": 1.5856114493,
				"z": 0.1492787265,
				"element": "N" 
			},
			{
				"x": -1.1811215277,
				"y": 0.9765021484,
				"z": 0.3394090963,
				"element": "C" 
			},
			{
				"x": -2.3099140795,
				"y": 1.5834589973,
				"z": -0.2394156876,
				"element": "C" 
			},
			{
				"x": -3.5780487257,
				"y": 1.0397893663,
				"z": -0.0576416716,
				"element": "C" 
			},
			{
				"x": -3.748903212,
				"y": -0.1334498651,
				"z": 0.6828583246,
				"element": "C" 
			},
			{
				"x": -2.6342996768,
				"y": -0.7388098069,
				"z": 1.2619650235,
				"element": "C" 
			},
			{
				"x": -1.3611693181,
				"y": -0.1853425372,
				"z": 1.1114037274,
				"element": "C" 
			},
			{
				"x": 3.2211854905,
				"y": 1.3332473937,
				"z": 0.4233656196,
				"element": "H" 
			},
			{
				"x": 0.508337093,
				"y": -0.7842577583,
				"z": -0.3014989367,
				"element": "H" 
			},
			{
				"x": 3.7250916766,
				"y": 0.4413963847,
				"z": -1.3707632794,
				"element": "H" 
			},
			{
				"x": 5.6812615685,
				"y": -1.0157987545,
				"z": -1.7416445039,
				"element": "H" 
			},
			{
				"x": 5.6008923621,
				"y": -3.4207092873,
				"z": -1.106404026,
				"element": "H" 
			},
			{
				"x": 3.5319767368,
				"y": -4.3415041286,
				"z": -0.067345805,
				"element": "H" 
			},
			{
				"x": 1.6032796867,
				"y": -2.8614319512,
				"z": 0.3864187511,
				"element": "H" 
			},
			{
				"x": 0.1170402809,
				"y": 2.5895690018,
				"z": 0.2557426002,
				"element": "H" 
			},
			{
				"x": -2.1758671301,
				"y": 2.4789765129,
				"z": -0.8397741578,
				"element": "H" 
			},
			{
				"x": -4.4365346125,
				"y": 1.5273801943,
				"z": -0.5108847809,
				"element": "H" 
			},
			{
				"x": -4.7373643224,
				"y": -0.5631216666,
				"z": 0.8116762739,
				"element": "H" 
			},
			{
				"x": -2.7527117403,
				"y": -1.6375584647,
				"z": 1.860866919,
				"element": "H" 
			},
			{
				"x": -0.5156912683,
				"y": -0.629815043,
				"z": 1.6261098821,
				"element": "H" 
			}
		],
		 "valence_orbital": [ 
			{
				"type": "occ",
				"energy": -0.26469,
				"method": "rhf"
			},
			{
				"type": "occ",
				"energy": -0.25797,
				"method": "rhf"
			},
			{
				"type": "occ",
				"energy": -0.25189,
				"method": "rhf"
			},
			{
				"type": "occ",
				"energy": -0.21661,
				"method": "rhf"
			},
			{
				"type": "occ",
				"energy": -0.20789,
				"method": "rhf"
			},
			{
				"type": "unocc",
				"energy": -0.01333,
				"method": "rhf"
			},
			{
				"type": "unocc",
				"energy": -0.00962,
				"method": "rhf"
			},
			{
				"type": "unocc",
				"energy": -0.00729,
				"method": "rhf"
			},
			{
				"type": "unocc",
				"energy": -7e-05,
				"method": "rhf"
			},
			{
				"type": "unocc",
				"energy": 0.07089,
				"method": "rhf"
			}
		],
		"cosmo_sigma_profile": { 
			"-0.025": 0.0,
			"-0.024": 0.0,
			"-0.023": 0.0,
			"-0.022": 0.0,
			"-0.021": 0.0,
			"-0.02": 0.0,
			"-0.019": 0.0,
			"-0.018": 0.0,
			"-0.017": 0.0,
			"-0.016": 0.0,
			"-0.015": 0.0,
			"-0.014": 0.0604750481863,
			"-0.013": 0.771547994529,
			"-0.012": 1.34917694931,
			"-0.011": 1.85153098218,
			"-0.01": 1.64572547658,
			"-0.009": 2.03981212787,
			"-0.008": 2.99876159064,
			"-0.007": 4.15525736715,
			"-0.006": 16.3152942889,
			"-0.005": 22.644288023,
			"-0.004": 23.4511687619,
			"-0.003": 21.2437530995,
			"-0.002": 15.4942905576,
			"-0.001": 15.9969696114,
			"0.0": 13.7720554254,
			"0.001": 15.2578435306,
			"0.002": 17.3446212989,
			"0.003": 19.6906560472,
			"0.004": 20.091076142,
			"0.005": 19.6577341334,
			"0.006": 11.7595499741,
			"0.007": 1.5449737616,
			"0.008": 1.37053157302,
			"0.009": 0.920217469898,
			"0.01": 1.43693503911,
			"0.011": 1.2959362305,
			"0.012": 0.983965631033,
			"0.013": 1.1183288185,
			"0.014": 1.24039395727,
			"0.015": 1.0124960764,
			"0.016": 1.58042466256,
			"0.017": 1.14570668241,
			"0.018": 1.17700970169,
			"0.019": 0.211031705805,
			"0.02": 0.0,
			"0.021": 0.0,
			"0.022": 0.0,
			"0.023": 0.0,
			"0.024": 0.0,
			"0.025": 0.0
		}
	}
}
