{
	 "smiles": "COC1=CC=C(C(Cl)=N1)[N+]([O-])=O", 
	 "Tm": 352.15, 
	 "num_atms": 17, 
	 "gaussian": { 
		 "optdone": 1, 
		 "sigma_profile": "yes", 
		 "theory": "DFT", 
		 "functional": "B3LYP", 
		 "basiset": "6-31G**", 
		 "properties": { 
			 "R2extent": 3465.6732, 
			 "electric_dipole_moment_norm": 5.15478854464, 
			 "electric_quadrupole_moment_norm": 13.9392945607, 
			 "total_energy": -1026.8990077, 
			 "HOMO_LUMO_gap": 0.17228, 
			 "cosmo_polarized_energy": -9.82, 
			 "cosmo_cavitation_energy": 24.3, 
			 "cosmo_dispersion_energy": -18.13, 
			 "cosmo_repulsion_energy": 1.46, 
			 "cosmo_total_nonelectrostatic_energy": 7.63, 
			 "SMD_solvation_energy": 6.35 
		},
		"coords": [
			{
				"x": -1.9487202861,
				"y": -1.0134941104,
				"z": 1.9285185936,
				"element": "C" 
			},
			{
				"x": -2.0862669921,
				"y": -1.457216243,
				"z": 0.5684210373,
				"element": "O" 
			},
			{
				"x": -1.5944291385,
				"y": -0.6722204202,
				"z": -0.3957629081,
				"element": "C" 
			},
			{
				"x": -1.7296081586,
				"y": -1.1167332777,
				"z": -1.7263482443,
				"element": "C" 
			},
			{
				"x": -1.2312393292,
				"y": -0.2988304846,
				"z": -2.7152331633,
				"element": "C" 
			},
			{
				"x": -0.6310967594,
				"y": 0.9277878928,
				"z": -2.3820610136,
				"element": "C" 
			},
			{
				"x": -0.5319823992,
				"y": 1.264402149,
				"z": -1.0238649412,
				"element": "C" 
			},
			{
				"x": 0.2663754647,
				"y": 2.7013710375,
				"z": -0.4442595455,
				"element": "Cl" 
			},
			{
				"x": -1.0020704702,
				"y": 0.4736275534,
				"z": -0.0679390138,
				"element": "N" 
			},
			{
				"x": -0.154507492,
				"y": 1.7554773284,
				"z": -3.4934213744,
				"element": "N" 
			},
			{
				"x": -0.019934556,
				"y": 2.9616393408,
				"z": -3.3159535556,
				"element": "O" 
			},
			{
				"x": 0.059756058,
				"y": 1.1720240061,
				"z": -4.5592906863,
				"element": "O" 
			},
			{
				"x": -0.8951400485,
				"y": -0.8957601617,
				"z": 2.1932483893,
				"element": "H" 
			},
			{
				"x": -2.4604111288,
				"y": -0.0597529696,
				"z": 2.0789689967,
				"element": "H" 
			},
			{
				"x": -2.4108424211,
				"y": -1.7957498486,
				"z": 2.5302203247,
				"element": "H" 
			},
			{
				"x": -2.2086289546,
				"y": -2.064247412,
				"z": -1.9396031882,
				"element": "H" 
			},
			{
				"x": -1.2875533883,
				"y": -0.5703243803,
				"z": -3.7621397075,
				"element": "H" 
			}
		],
		 "valence_orbital": [ 
			{
				"type": "occ",
				"energy": -0.31192,
				"method": "rhf"
			},
			{
				"type": "occ",
				"energy": -0.3092,
				"method": "rhf"
			},
			{
				"type": "occ",
				"energy": -0.30221,
				"method": "rhf"
			},
			{
				"type": "occ",
				"energy": -0.28712,
				"method": "rhf"
			},
			{
				"type": "occ",
				"energy": -0.26352,
				"method": "rhf"
			},
			{
				"type": "unocc",
				"energy": -0.09124,
				"method": "rhf"
			},
			{
				"type": "unocc",
				"energy": -0.05416,
				"method": "rhf"
			},
			{
				"type": "unocc",
				"energy": -0.01119,
				"method": "rhf"
			},
			{
				"type": "unocc",
				"energy": 0.01863,
				"method": "rhf"
			},
			{
				"type": "unocc",
				"energy": 0.09303,
				"method": "rhf"
			}
		],
		"cosmo_sigma_profile": { 
			"-0.025": 0.0,
			"-0.024": 0.0,
			"-0.023": 0.0,
			"-0.022": 0.0,
			"-0.021": 0.0,
			"-0.02": 0.0,
			"-0.019": 0.0,
			"-0.018": 0.0,
			"-0.017": 0.0,
			"-0.016": 0.0,
			"-0.015": 0.0,
			"-0.014": 0.0,
			"-0.013": 0.0,
			"-0.012": 0.0,
			"-0.011": 0.0,
			"-0.01": 0.0622857480242,
			"-0.009": 2.24486407686,
			"-0.008": 4.51905037711,
			"-0.007": 6.40108907692,
			"-0.006": 10.5006524035,
			"-0.005": 12.8040890153,
			"-0.004": 17.9565570431,
			"-0.003": 19.6094289551,
			"-0.002": 15.8511398218,
			"-0.001": 13.4842791364,
			"0.0": 11.9298239667,
			"0.001": 9.8032797332,
			"0.002": 9.29249248406,
			"0.003": 11.1167039565,
			"0.004": 8.1385791747,
			"0.005": 7.63722793316,
			"0.006": 6.46280999579,
			"0.007": 11.7270328039,
			"0.008": 11.2939643932,
			"0.009": 4.81995897086,
			"0.01": 1.87141367372,
			"0.011": 0.0109897541141,
			"0.012": 0.0,
			"0.013": 0.0,
			"0.014": 0.0,
			"0.015": 0.0,
			"0.016": 0.0,
			"0.017": 0.0,
			"0.018": 0.0,
			"0.019": 0.0,
			"0.02": 0.0,
			"0.021": 0.0,
			"0.022": 0.0,
			"0.023": 0.0,
			"0.024": 0.0,
			"0.025": 0.0
		}
	}
}
