{
	 "smiles": "CC1=CC(=CC=C1)C(=O)NC1=C(C=CC=C1)C(O)=O", 
	 "Tm": 457.15, 
	 "num_atms": 32, 
	 "gaussian": { 
		 "optdone": 1, 
		 "sigma_profile": "yes", 
		 "theory": "DFT", 
		 "functional": "B3LYP", 
		 "basiset": "6-31G**", 
		 "properties": { 
			 "R2extent": 5719.3155, 
			 "electric_dipole_moment_norm": 2.99175766064, 
			 "electric_quadrupole_moment_norm": 11.5813985257, 
			 "total_energy": -859.893172298, 
			 "HOMO_LUMO_gap": 0.17123, 
			 "cosmo_polarized_energy": -15.1, 
			 "cosmo_cavitation_energy": 36.49, 
			 "cosmo_dispersion_energy": -25.35, 
			 "cosmo_repulsion_energy": 1.97, 
			 "cosmo_total_nonelectrostatic_energy": 13.11, 
			 "SMD_solvation_energy": 7.94 
		},
		"coords": [
			{
				"x": -0.5447931137,
				"y": 2.4483951248,
				"z": -2.4713313649,
				"element": "C" 
			},
			{
				"x": -0.6575059336,
				"y": 2.152298626,
				"z": -0.9938726767,
				"element": "C" 
			},
			{
				"x": 0.0043881843,
				"y": 1.0569279992,
				"z": -0.4293099387,
				"element": "C" 
			},
			{
				"x": -0.0611166223,
				"y": 0.8009638395,
				"z": 0.9473715776,
				"element": "C" 
			},
			{
				"x": -0.7886636496,
				"y": 1.6620444218,
				"z": 1.7783316941,
				"element": "C" 
			},
			{
				"x": -1.4738458549,
				"y": 2.7408028854,
				"z": 1.2238404917,
				"element": "C" 
			},
			{
				"x": -1.4089584521,
				"y": 2.9820022851,
				"z": -0.1492347374,
				"element": "C" 
			},
			{
				"x": 0.7253702396,
				"y": -0.295614788,
				"z": 1.59925484,
				"element": "C" 
			},
			{
				"x": 1.2555643384,
				"y": -0.1249030103,
				"z": 2.6899771381,
				"element": "O" 
			},
			{
				"x": 0.9452701931,
				"y": -1.4955585147,
				"z": 0.9266259764,
				"element": "N" 
			},
			{
				"x": 0.1988169252,
				"y": -2.172717837,
				"z": -0.0462310755,
				"element": "C" 
			},
			{
				"x": 0.794059399,
				"y": -3.1651533561,
				"z": -0.8735315782,
				"element": "C" 
			},
			{
				"x": 0.0088154369,
				"y": -3.8121113729,
				"z": -1.8452334455,
				"element": "C" 
			},
			{
				"x": -1.3363213205,
				"y": -3.5199917533,
				"z": -2.009510494,
				"element": "C" 
			},
			{
				"x": -1.9259842269,
				"y": -2.5674306007,
				"z": -1.1727111978,
				"element": "C" 
			},
			{
				"x": -1.1761733086,
				"y": -1.9136332388,
				"z": -0.203710174,
				"element": "C" 
			},
			{
				"x": 2.2095761983,
				"y": -3.6185970358,
				"z": -0.8208629618,
				"element": "C" 
			},
			{
				"x": 2.9047723746,
				"y": -3.1995760896,
				"z": 0.275115159,
				"element": "O" 
			},
			{
				"x": 2.7376893443,
				"y": -4.330407397,
				"z": -1.6518203414,
				"element": "O" 
			},
			{
				"x": -1.4807347982,
				"y": 2.8516277641,
				"z": -2.8704678728,
				"element": "H" 
			},
			{
				"x": 0.2377528524,
				"y": 3.191944836,
				"z": -2.6670912562,
				"element": "H" 
			},
			{
				"x": -0.2920554927,
				"y": 1.550078869,
				"z": -3.0417172646,
				"element": "H" 
			},
			{
				"x": 0.5894302743,
				"y": 0.4034269916,
				"z": -1.06937176,
				"element": "H" 
			},
			{
				"x": -0.8023998875,
				"y": 1.4744349464,
				"z": 2.8466016049,
				"element": "H" 
			},
			{
				"x": -2.0546545153,
				"y": 3.4001822847,
				"z": 1.8623114456,
				"element": "H" 
			},
			{
				"x": -1.9426486255,
				"y": 3.8296158287,
				"z": -0.5725445221,
				"element": "H" 
			},
			{
				"x": 1.7298951946,
				"y": -2.0053521593,
				"z": 1.3148255139,
				"element": "H" 
			},
			{
				"x": 0.5000094908,
				"y": -4.5550797813,
				"z": -2.463621037,
				"element": "H" 
			},
			{
				"x": -1.9222958897,
				"y": -4.0344435784,
				"z": -2.7639799807,
				"element": "H" 
			},
			{
				"x": -2.984766942,
				"y": -2.3414511287,
				"z": -1.2618237304,
				"element": "H" 
			},
			{
				"x": -1.6550528605,
				"y": -1.1974483286,
				"z": 0.4515975672,
				"element": "H" 
			},
			{
				"x": 3.7962610479,
				"y": -3.5752767318,
				"z": 0.1836244014,
				"element": "H" 
			}
		],
		 "valence_orbital": [ 
			{
				"type": "occ",
				"energy": -0.26964,
				"method": "rhf"
			},
			{
				"type": "occ",
				"energy": -0.26503,
				"method": "rhf"
			},
			{
				"type": "occ",
				"energy": -0.25423,
				"method": "rhf"
			},
			{
				"type": "occ",
				"energy": -0.24504,
				"method": "rhf"
			},
			{
				"type": "occ",
				"energy": -0.22847,
				"method": "rhf"
			},
			{
				"type": "unocc",
				"energy": -0.05724,
				"method": "rhf"
			},
			{
				"type": "unocc",
				"energy": -0.0407,
				"method": "rhf"
			},
			{
				"type": "unocc",
				"energy": -0.0098,
				"method": "rhf"
			},
			{
				"type": "unocc",
				"energy": -0.00535,
				"method": "rhf"
			},
			{
				"type": "unocc",
				"energy": 0.04805,
				"method": "rhf"
			}
		],
		"cosmo_sigma_profile": { 
			"-0.025": 0.0,
			"-0.024": 0.0,
			"-0.023": 0.0,
			"-0.022": 0.0,
			"-0.021": 0.0,
			"-0.02": 0.0,
			"-0.019": 0.289525689139,
			"-0.018": 0.983297463289,
			"-0.017": 0.925539937691,
			"-0.016": 0.750746556103,
			"-0.015": 0.302193933906,
			"-0.014": 0.703924279923,
			"-0.013": 0.832044189453,
			"-0.012": 1.09083973571,
			"-0.011": 0.605924485465,
			"-0.01": 0.736482375014,
			"-0.009": 0.518957857219,
			"-0.008": 0.656076313908,
			"-0.007": 3.01174667916,
			"-0.006": 13.8356505654,
			"-0.005": 22.2443685949,
			"-0.004": 24.1603627587,
			"-0.003": 23.1341151135,
			"-0.002": 27.4663779844,
			"-0.001": 24.6583571522,
			"0.0": 24.3924139492,
			"0.001": 19.788497579,
			"0.002": 20.6848058767,
			"0.003": 21.5705121291,
			"0.004": 18.1519567085,
			"0.005": 6.81722126806,
			"0.006": 2.22721724986,
			"0.007": 2.71214809617,
			"0.008": 4.26105410833,
			"0.009": 1.95557612189,
			"0.01": 4.20366590285,
			"0.011": 6.46978285696,
			"0.012": 6.68071045299,
			"0.013": 4.3167648618,
			"0.014": 0.460539281616,
			"0.015": 0.0,
			"0.016": 0.0,
			"0.017": 0.0,
			"0.018": 0.0,
			"0.019": 0.0,
			"0.02": 0.0,
			"0.021": 0.0,
			"0.022": 0.0,
			"0.023": 0.0,
			"0.024": 0.0,
			"0.025": 0.0
		}
	}
}
