{
	 "smiles": "CNC(C)C1=CC=C(C=C1)S(N)(=O)=O", 
	 "Tm": 419.15, 
	 "num_atms": 28, 
	 "gaussian": { 
		 "optdone": 1, 
		 "sigma_profile": "yes", 
		 "theory": "DFT", 
		 "functional": "B3LYP", 
		 "basiset": "6-31G**", 
		 "properties": { 
			 "R2extent": 5917.6857, 
			 "electric_dipole_moment_norm": 7.45116519948, 
			 "electric_quadrupole_moment_norm": 37.0171117681, 
			 "total_energy": -1009.46000344, 
			 "HOMO_LUMO_gap": 0.19488, 
			 "cosmo_polarized_energy": -19.81, 
			 "cosmo_cavitation_energy": 32.16, 
			 "cosmo_dispersion_energy": -23.75, 
			 "cosmo_repulsion_energy": 1.83, 
			 "cosmo_total_nonelectrostatic_energy": 10.24, 
			 "SMD_solvation_energy": 4.53 
		},
		"coords": [
			{
				"x": -2.7697281277,
				"y": 0.5712698356,
				"z": 3.0658958033,
				"element": "C" 
			},
			{
				"x": -1.9207822537,
				"y": 0.5340039998,
				"z": 1.8807718931,
				"element": "N" 
			},
			{
				"x": -2.3875469278,
				"y": 1.3273822681,
				"z": 0.7361514044,
				"element": "C" 
			},
			{
				"x": -2.364362871,
				"y": 2.8484399428,
				"z": 0.9723165644,
				"element": "C" 
			},
			{
				"x": -1.6296794222,
				"y": 0.8855745322,
				"z": -0.5205732802,
				"element": "C" 
			},
			{
				"x": -1.254904137,
				"y": 1.7812220094,
				"z": -1.5313702865,
				"element": "C" 
			},
			{
				"x": -0.5999660673,
				"y": 1.3383894324,
				"z": -2.6818542009,
				"element": "C" 
			},
			{
				"x": -0.3132240179,
				"y": -0.0184172538,
				"z": -2.8247969752,
				"element": "C" 
			},
			{
				"x": -0.6858257198,
				"y": -0.9346496568,
				"z": -1.8371466185,
				"element": "C" 
			},
			{
				"x": -1.3351297152,
				"y": -0.4771732993,
				"z": -0.6943697934,
				"element": "C" 
			},
			{
				"x": 0.5593051704,
				"y": -0.5916766542,
				"z": -4.2874171911,
				"element": "S" 
			},
			{
				"x": 2.2023082035,
				"y": -0.5668614281,
				"z": -3.914475453,
				"element": "N" 
			},
			{
				"x": 0.2244363942,
				"y": -2.0021868453,
				"z": -4.4765510958,
				"element": "O" 
			},
			{
				"x": 0.3809562756,
				"y": 0.4170188313,
				"z": -5.3308463154,
				"element": "O" 
			},
			{
				"x": -2.9204268382,
				"y": 1.5680900351,
				"z": 3.5138061768,
				"element": "H" 
			},
			{
				"x": -2.3369847669,
				"y": -0.0765302544,
				"z": 3.8342371287,
				"element": "H" 
			},
			{
				"x": -3.7577895088,
				"y": 0.1695594088,
				"z": 2.814237675,
				"element": "H" 
			},
			{
				"x": -0.97000767,
				"y": 0.8080665414,
				"z": 2.1178386556,
				"element": "H" 
			},
			{
				"x": -3.4387032041,
				"y": 1.0348170682,
				"z": 0.5878031143,
				"element": "H" 
			},
			{
				"x": -1.3363570258,
				"y": 3.220646539,
				"z": 1.0509908808,
				"element": "H" 
			},
			{
				"x": -2.8861589807,
				"y": 3.0954200782,
				"z": 1.9006555549,
				"element": "H" 
			},
			{
				"x": -2.8646929527,
				"y": 3.3972811232,
				"z": 0.1686106887,
				"element": "H" 
			},
			{
				"x": -1.4757458668,
				"y": 2.8384516119,
				"z": -1.4372803614,
				"element": "H" 
			},
			{
				"x": -0.3319935303,
				"y": 2.0326049983,
				"z": -3.4713202046,
				"element": "H" 
			},
			{
				"x": -0.4871192997,
				"y": -1.991986506,
				"z": -1.9788904005,
				"element": "H" 
			},
			{
				"x": -1.6196420299,
				"y": -1.1706407452,
				"z": 0.0891185225,
				"element": "H" 
			},
			{
				"x": 2.5473682296,
				"y": 0.3713153751,
				"z": -3.7368453966,
				"element": "H" 
			},
			{
				"x": 2.44429666,
				"y": -1.2219309878,
				"z": -3.1774964894,
				"element": "H" 
			}
		],
		 "valence_orbital": [ 
			{
				"type": "occ",
				"energy": -0.2988,
				"method": "rhf"
			},
			{
				"type": "occ",
				"energy": -0.29702,
				"method": "rhf"
			},
			{
				"type": "occ",
				"energy": -0.26755,
				"method": "rhf"
			},
			{
				"type": "occ",
				"energy": -0.26029,
				"method": "rhf"
			},
			{
				"type": "occ",
				"energy": -0.23134,
				"method": "rhf"
			},
			{
				"type": "unocc",
				"energy": -0.03646,
				"method": "rhf"
			},
			{
				"type": "unocc",
				"energy": -0.01869,
				"method": "rhf"
			},
			{
				"type": "unocc",
				"energy": 0.05537,
				"method": "rhf"
			},
			{
				"type": "unocc",
				"energy": 0.07055,
				"method": "rhf"
			},
			{
				"type": "unocc",
				"energy": 0.08428,
				"method": "rhf"
			}
		],
		"cosmo_sigma_profile": { 
			"-0.025": 0.0,
			"-0.024": 0.0,
			"-0.023": 0.0,
			"-0.022": 0.0,
			"-0.021": 0.0,
			"-0.02": 0.0,
			"-0.019": 0.0,
			"-0.018": 0.0,
			"-0.017": 0.0,
			"-0.016": 0.104979163462,
			"-0.015": 2.21799388517,
			"-0.014": 2.45385751314,
			"-0.013": 2.10253084681,
			"-0.012": 3.21645810736,
			"-0.011": 2.95256315567,
			"-0.01": 2.6533556929,
			"-0.009": 3.12547247028,
			"-0.008": 2.98441743412,
			"-0.007": 4.12756063406,
			"-0.006": 8.08361163115,
			"-0.005": 10.9037015466,
			"-0.004": 17.0734880173,
			"-0.003": 23.9577073574,
			"-0.002": 22.9097925503,
			"-0.001": 21.1349440469,
			"0.0": 22.1880330838,
			"0.001": 13.8956943539,
			"0.002": 12.2298620817,
			"0.003": 14.8766214457,
			"0.004": 9.31817719107,
			"0.005": 4.74731706272,
			"0.006": 3.52231390902,
			"0.007": 4.82843946502,
			"0.008": 5.95681744172,
			"0.009": 5.34147634907,
			"0.01": 7.26000077668,
			"0.011": 11.4122812905,
			"0.012": 7.13133615355,
			"0.013": 0.446711757917,
			"0.014": 0.0,
			"0.015": 0.0,
			"0.016": 0.0,
			"0.017": 0.0,
			"0.018": 0.0,
			"0.019": 0.0,
			"0.02": 0.0,
			"0.021": 0.0,
			"0.022": 0.0,
			"0.023": 0.0,
			"0.024": 0.0,
			"0.025": 0.0
		}
	}
}
