{
	 "smiles": "CCCCCCCC#N", 
	 "Tm": 227.65, 
	 "num_atms": 24, 
	 "gaussian": { 
		 "optdone": 1, 
		 "sigma_profile": "yes", 
		 "theory": "DFT", 
		 "functional": "B3LYP", 
		 "basiset": "6-31G**", 
		 "properties": { 
			 "R2extent": 2030.5852, 
			 "electric_dipole_moment_norm": 3.78991934083, 
			 "electric_quadrupole_moment_norm": 12.8594996854, 
			 "total_energy": -368.644507769, 
			 "HOMO_LUMO_gap": 0.34564, 
			 "cosmo_polarized_energy": -8.21, 
			 "cosmo_cavitation_energy": 26.18, 
			 "cosmo_dispersion_energy": -17.91, 
			 "cosmo_repulsion_energy": 1.51, 
			 "cosmo_total_nonelectrostatic_energy": 9.78, 
			 "SMD_solvation_energy": 5.25 
		},
		"coords": [
			{
				"x": -2.6561295377,
				"y": -2.3218201118,
				"z": -0.2416487302,
				"element": "C" 
			},
			{
				"x": -1.1828341789,
				"y": -2.1756328672,
				"z": -0.6419175606,
				"element": "C" 
			},
			{
				"x": -0.5861711903,
				"y": -0.7818885147,
				"z": -0.3844578836,
				"element": "C" 
			},
			{
				"x": -0.4562583047,
				"y": -0.4178333583,
				"z": 1.1048248632,
				"element": "C" 
			},
			{
				"x": 0.2216376654,
				"y": 0.9405539489,
				"z": 1.3944228544,
				"element": "C" 
			},
			{
				"x": -0.7196007124,
				"y": 2.147858992,
				"z": 1.5407021953,
				"element": "C" 
			},
			{
				"x": -1.5238017687,
				"y": 2.5447915929,
				"z": 0.2818689544,
				"element": "C" 
			},
			{
				"x": -0.6713835845,
				"y": 2.8883585891,
				"z": -0.860669052,
				"element": "C" 
			},
			{
				"x": 0.0191312059,
				"y": 3.1573228451,
				"z": -1.754419987,
				"element": "N" 
			},
			{
				"x": -3.2810409382,
				"y": -1.5877359373,
				"z": -0.7643306807,
				"element": "H" 
			},
			{
				"x": -3.036030569,
				"y": -3.3171157796,
				"z": -0.4943568791,
				"element": "H" 
			},
			{
				"x": -2.8061445511,
				"y": -2.1793048783,
				"z": 0.8336452844,
				"element": "H" 
			},
			{
				"x": -0.5832542262,
				"y": -2.9278901576,
				"z": -0.1107746913,
				"element": "H" 
			},
			{
				"x": -1.0808533341,
				"y": -2.4065435966,
				"z": -1.7096569329,
				"element": "H" 
			},
			{
				"x": -1.187872005,
				"y": -0.0347489083,
				"z": -0.9182620066,
				"element": "H" 
			},
			{
				"x": 0.4121852767,
				"y": -0.734247472,
				"z": -0.8383585593,
				"element": "H" 
			},
			{
				"x": -1.4404423087,
				"y": -0.4420273314,
				"z": 1.5924460379,
				"element": "H" 
			},
			{
				"x": 0.1304489342,
				"y": -1.2101509479,
				"z": 1.5881759381,
				"element": "H" 
			},
			{
				"x": 0.777667213,
				"y": 0.8639204227,
				"z": 2.3364357458,
				"element": "H" 
			},
			{
				"x": 0.9712701087,
				"y": 1.1534170453,
				"z": 0.6212019427,
				"element": "H" 
			},
			{
				"x": -0.1355176991,
				"y": 3.0179875944,
				"z": 1.861563811,
				"element": "H" 
			},
			{
				"x": -1.4474271297,
				"y": 1.9489149183,
				"z": 2.3371300721,
				"element": "H" 
			},
			{
				"x": -2.1577066874,
				"y": 3.4109681213,
				"z": 0.5049906004,
				"element": "H" 
			},
			{
				"x": -2.1956716782,
				"y": 1.7350457911,
				"z": -0.0221553361,
				"element": "H" 
			}
		],
		 "valence_orbital": [ 
			{
				"type": "occ",
				"energy": -0.3259,
				"method": "rhf"
			},
			{
				"type": "occ",
				"energy": -0.32139,
				"method": "rhf"
			},
			{
				"type": "occ",
				"energy": -0.31978,
				"method": "rhf"
			},
			{
				"type": "occ",
				"energy": -0.31442,
				"method": "rhf"
			},
			{
				"type": "occ",
				"energy": -0.31084,
				"method": "rhf"
			},
			{
				"type": "unocc",
				"energy": 0.0348,
				"method": "rhf"
			},
			{
				"type": "unocc",
				"energy": 0.03967,
				"method": "rhf"
			},
			{
				"type": "unocc",
				"energy": 0.07414,
				"method": "rhf"
			},
			{
				"type": "unocc",
				"energy": 0.09485,
				"method": "rhf"
			},
			{
				"type": "unocc",
				"energy": 0.10561,
				"method": "rhf"
			}
		],
		"cosmo_sigma_profile": { 
			"-0.025": 0.0,
			"-0.024": 0.0,
			"-0.023": 0.0,
			"-0.022": 0.0,
			"-0.021": 0.0,
			"-0.02": 0.0,
			"-0.019": 0.0,
			"-0.018": 0.0,
			"-0.017": 0.0,
			"-0.016": 0.0,
			"-0.015": 0.0,
			"-0.014": 0.0,
			"-0.013": 0.0,
			"-0.012": 0.0,
			"-0.011": 0.0,
			"-0.01": 0.0,
			"-0.009": 0.0,
			"-0.008": 1.30492204076,
			"-0.007": 4.10789658063,
			"-0.006": 5.551986898,
			"-0.005": 6.71898042725,
			"-0.004": 14.0577650141,
			"-0.003": 14.3842190328,
			"-0.002": 29.5309872948,
			"-0.001": 34.1233503004,
			"0.0": 28.4485295618,
			"0.001": 25.44980986,
			"0.002": 9.77804386669,
			"0.003": 2.7106202312,
			"0.004": 1.83364154111,
			"0.005": 2.15705539524,
			"0.006": 1.93686629185,
			"0.007": 2.72870556555,
			"0.008": 2.66579126305,
			"0.009": 3.47837112866,
			"0.01": 3.38724843973,
			"0.011": 3.18674762937,
			"0.012": 2.63847260484,
			"0.013": 2.35821218394,
			"0.014": 0.852831139267,
			"0.015": 0.0,
			"0.016": 0.0,
			"0.017": 0.0,
			"0.018": 0.0,
			"0.019": 0.0,
			"0.02": 0.0,
			"0.021": 0.0,
			"0.022": 0.0,
			"0.023": 0.0,
			"0.024": 0.0,
			"0.025": 0.0
		}
	}
}
