{
	 "smiles": "NC(=O)C1=CC=C(I)C=C1", 
	 "Tm": 490.15, 
	 "num_atms": 16, 
	 "gaussian": { 
		 "optdone": 1, 
		 "sigma_profile": "yes", 
		 "theory": "DFT", 
		 "functional": "B3LYP", 
		 "basiset": "6-31G**", 
		 "properties": { 
			 "R2extent": 1722.0019, 
			 "electric_dipole_moment_norm": 3.20429896701, 
			 "electric_quadrupole_moment_norm": 12.1532176855, 
			 "total_energy": -411.739665141, 
			 "HOMO_LUMO_gap": 0.19578, 
			 "cosmo_polarized_energy": -12.86, 
			 "cosmo_cavitation_energy": 23.72, 
			 "cosmo_dispersion_energy": -19.07, 
			 "cosmo_repulsion_energy": 1.51, 
			 "cosmo_total_nonelectrostatic_energy": 6.17, 
			 "SMD_solvation_energy": 3.98 
		},
		"coords": [
			{
				"x": 2.9198205304,
				"y": 0.1862273029,
				"z": -0.972526955,
				"element": "N" 
			},
			{
				"x": 1.9941330082,
				"y": 0.985080699,
				"z": -0.3444005384,
				"element": "C" 
			},
			{
				"x": 2.2798515323,
				"y": 2.0988784887,
				"z": 0.0764898887,
				"element": "O" 
			},
			{
				"x": 0.6030472652,
				"y": 0.4274882306,
				"z": -0.2260492698,
				"element": "C" 
			},
			{
				"x": 0.1253452453,
				"y": -0.636039774,
				"z": -1.002767256,
				"element": "C" 
			},
			{
				"x": -1.1801173974,
				"y": -1.1029056429,
				"z": -0.8471161059,
				"element": "C" 
			},
			{
				"x": -2.0118977782,
				"y": -0.4969764535,
				"z": 0.0965025598,
				"element": "C" 
			},
			{
				"x": -3.993245635,
				"y": -1.2062828208,
				"z": 0.3476753209,
				"element": "I" 
			},
			{
				"x": -1.5591422586,
				"y": 0.5743692121,
				"z": 0.8714355788,
				"element": "C" 
			},
			{
				"x": -0.2557463945,
				"y": 1.0335084057,
				"z": 0.6990790776,
				"element": "C" 
			},
			{
				"x": 3.8711967262,
				"y": 0.5239444187,
				"z": -0.9403486795,
				"element": "H" 
			},
			{
				"x": 2.7935729156,
				"y": -0.8132270333,
				"z": -1.0075935637,
				"element": "H" 
			},
			{
				"x": 0.7536455092,
				"y": -1.0903824183,
				"z": -1.7632450364,
				"element": "H" 
			},
			{
				"x": -1.542769157,
				"y": -1.9208831032,
				"z": -1.4591327979,
				"element": "H" 
			},
			{
				"x": -2.2127210128,
				"y": 1.0458355136,
				"z": 1.5965938422,
				"element": "H" 
			},
			{
				"x": 0.1193269013,
				"y": 1.8712649748,
				"z": 1.2773039345,
				"element": "H" 
			}
		],
		 "valence_orbital": [ 
			{
				"type": "occ",
				"energy": -0.2803,
				"method": "rhf"
			},
			{
				"type": "occ",
				"energy": -0.2743,
				"method": "rhf"
			},
			{
				"type": "occ",
				"energy": -0.27271,
				"method": "rhf"
			},
			{
				"type": "occ",
				"energy": -0.25824,
				"method": "rhf"
			},
			{
				"type": "occ",
				"energy": -0.2464,
				"method": "rhf"
			},
			{
				"type": "unocc",
				"energy": -0.05062,
				"method": "rhf"
			},
			{
				"type": "unocc",
				"energy": -0.04417,
				"method": "rhf"
			},
			{
				"type": "unocc",
				"energy": -0.02366,
				"method": "rhf"
			},
			{
				"type": "unocc",
				"energy": 0.03919,
				"method": "rhf"
			},
			{
				"type": "unocc",
				"energy": 0.04,
				"method": "rhf"
			}
		],
		"cosmo_sigma_profile": { 
			"-0.025": 0.0,
			"-0.024": 0.0,
			"-0.023": 0.0,
			"-0.022": 0.0,
			"-0.021": 0.0,
			"-0.02": 0.0,
			"-0.019": 0.0,
			"-0.018": 0.0,
			"-0.017": 0.0,
			"-0.016": 0.0,
			"-0.015": 0.126755986995,
			"-0.014": 1.82824923013,
			"-0.013": 2.48397526975,
			"-0.012": 2.1598624521,
			"-0.011": 2.95058098313,
			"-0.01": 2.50639737626,
			"-0.009": 2.72278500077,
			"-0.008": 2.77266104956,
			"-0.007": 7.91628752868,
			"-0.006": 9.31921428391,
			"-0.005": 9.12424797329,
			"-0.004": 8.62266045804,
			"-0.003": 8.40632123407,
			"-0.002": 9.58943505794,
			"-0.001": 10.8397800614,
			"0.0": 14.0926199896,
			"0.001": 15.5657531766,
			"0.002": 20.6280383884,
			"0.003": 22.0218720873,
			"0.004": 15.6006605814,
			"0.005": 4.86302926016,
			"0.006": 1.81246956967,
			"0.007": 2.24948919146,
			"0.008": 1.94452642444,
			"0.009": 1.45632951008,
			"0.01": 1.75838893569,
			"0.011": 1.48987293786,
			"0.012": 1.95368275259,
			"0.013": 5.02419423476,
			"0.014": 3.13648163829,
			"0.015": 0.0781688587412,
			"0.016": 0.0,
			"0.017": 0.0,
			"0.018": 0.0,
			"0.019": 0.0,
			"0.02": 0.0,
			"0.021": 0.0,
			"0.022": 0.0,
			"0.023": 0.0,
			"0.024": 0.0,
			"0.025": 0.0
		}
	}
}
