{
	 "smiles": "CC1=C(N)C=C(CN2CCSCC2)C=C1", 
	 "Tm": 410.15, 
	 "num_atms": 33, 
	 "gaussian": { 
		 "optdone": 1, 
		 "sigma_profile": "yes", 
		 "theory": "DFT", 
		 "functional": "B3LYP", 
		 "basiset": "6-31G**", 
		 "properties": { 
			 "R2extent": 4584.4914, 
			 "electric_dipole_moment_norm": 2.18873480349, 
			 "electric_quadrupole_moment_norm": 21.9201725712, 
			 "total_energy": -975.811481247, 
			 "HOMO_LUMO_gap": 0.20277, 
			 "cosmo_polarized_energy": -11.88, 
			 "cosmo_cavitation_energy": 34.85, 
			 "cosmo_dispersion_energy": -25.18, 
			 "cosmo_repulsion_energy": 1.93, 
			 "cosmo_total_nonelectrostatic_energy": 11.59, 
			 "SMD_solvation_energy": 2.37 
		},
		"coords": [
			{
				"x": -3.1651180224,
				"y": 1.0341226154,
				"z": -2.1070481402,
				"element": "C" 
			},
			{
				"x": -1.906661258,
				"y": 0.4083322773,
				"z": -1.559714006,
				"element": "C" 
			},
			{
				"x": -0.7315831311,
				"y": 1.1807651171,
				"z": -1.4097426401,
				"element": "C" 
			},
			{
				"x": -0.7137767182,
				"y": 2.5190478531,
				"z": -1.8173308477,
				"element": "N" 
			},
			{
				"x": 0.4345291913,
				"y": 0.5763163113,
				"z": -0.9159429587,
				"element": "C" 
			},
			{
				"x": 0.4711958831,
				"y": -0.7765826768,
				"z": -0.560697187,
				"element": "C" 
			},
			{
				"x": 1.7447298654,
				"y": -1.394085103,
				"z": 0.0073005218,
				"element": "C" 
			},
			{
				"x": 1.908074419,
				"y": -1.3898310832,
				"z": 1.4666086536,
				"element": "N" 
			},
			{
				"x": 0.9720569148,
				"y": -2.2718925952,
				"z": 2.165327974,
				"element": "C" 
			},
			{
				"x": 1.1226790633,
				"y": -2.1669933334,
				"z": 3.6809113013,
				"element": "C" 
			},
			{
				"x": 0.5151325003,
				"y": -0.5443184488,
				"z": 4.3210038412,
				"element": "S" 
			},
			{
				"x": 0.9189027987,
				"y": 0.4925601508,
				"z": 2.8477884822,
				"element": "C" 
			},
			{
				"x": 2.1246934654,
				"y": -0.0776130084,
				"z": 2.0896163086,
				"element": "C" 
			},
			{
				"x": -0.6927413678,
				"y": -1.5386914119,
				"z": -0.723045265,
				"element": "C" 
			},
			{
				"x": -1.8560301081,
				"y": -0.9426441315,
				"z": -1.21199399,
				"element": "C" 
			},
			{
				"x": -3.5506576405,
				"y": 1.8295039263,
				"z": -1.452628346,
				"element": "H" 
			},
			{
				"x": -2.9946396451,
				"y": 1.4854335686,
				"z": -3.0926359949,
				"element": "H" 
			},
			{
				"x": -3.9597965168,
				"y": 0.2910777553,
				"z": -2.2106236877,
				"element": "H" 
			},
			{
				"x": 0.0432026564,
				"y": 3.0675132424,
				"z": -1.4325696461,
				"element": "H" 
			},
			{
				"x": -1.5968659284,
				"y": 3.0055600856,
				"z": -1.749526343,
				"element": "H" 
			},
			{
				"x": 1.3375210176,
				"y": 1.1788536692,
				"z": -0.829825006,
				"element": "H" 
			},
			{
				"x": 2.6157318793,
				"y": -0.8845701034,
				"z": -0.4213376964,
				"element": "H" 
			},
			{
				"x": 1.8043471542,
				"y": -2.4418186409,
				"z": -0.3145884931,
				"element": "H" 
			},
			{
				"x": -0.0826003298,
				"y": -2.0736053164,
				"z": 1.9084645978,
				"element": "H" 
			},
			{
				"x": 1.1854969174,
				"y": -3.304617039,
				"z": 1.8522336286,
				"element": "H" 
			},
			{
				"x": 0.5159033257,
				"y": -2.9318031009,
				"z": 4.171830774,
				"element": "H" 
			},
			{
				"x": 2.1661732291,
				"y": -2.3169578126,
				"z": 3.9731960177,
				"element": "H" 
			},
			{
				"x": 0.0471327627,
				"y": 0.5648122765,
				"z": 2.1926914944,
				"element": "H" 
			},
			{
				"x": 1.148048054,
				"y": 1.4915827351,
				"z": 3.2302647618,
				"element": "H" 
			},
			{
				"x": 2.9703169801,
				"y": -0.1369849892,
				"z": 2.7892360721,
				"element": "H" 
			},
			{
				"x": 2.4190748305,
				"y": 0.6293445268,
				"z": 1.3072210921,
				"element": "H" 
			},
			{
				"x": -0.6866264484,
				"y": -2.5987614452,
				"z": -0.4855777725,
				"element": "H" 
			},
			{
				"x": -2.7531457936,
				"y": -1.5447558708,
				"z": -1.337067501,
				"element": "H" 
			}
		],
		 "valence_orbital": [ 
			{
				"type": "occ",
				"energy": -0.29065,
				"method": "rhf"
			},
			{
				"type": "occ",
				"energy": -0.2373,
				"method": "rhf"
			},
			{
				"type": "occ",
				"energy": -0.21012,
				"method": "rhf"
			},
			{
				"type": "occ",
				"energy": -0.20027,
				"method": "rhf"
			},
			{
				"type": "occ",
				"energy": -0.19899,
				"method": "rhf"
			},
			{
				"type": "unocc",
				"energy": 0.00378,
				"method": "rhf"
			},
			{
				"type": "unocc",
				"energy": 0.01593,
				"method": "rhf"
			},
			{
				"type": "unocc",
				"energy": 0.04575,
				"method": "rhf"
			},
			{
				"type": "unocc",
				"energy": 0.06954,
				"method": "rhf"
			},
			{
				"type": "unocc",
				"energy": 0.07508,
				"method": "rhf"
			}
		],
		"cosmo_sigma_profile": { 
			"-0.025": 0.0,
			"-0.024": 0.0,
			"-0.023": 0.0,
			"-0.022": 0.0,
			"-0.021": 0.0,
			"-0.02": 0.0,
			"-0.019": 0.0,
			"-0.018": 0.0,
			"-0.017": 0.0,
			"-0.016": 0.0,
			"-0.015": 0.0,
			"-0.014": 0.0,
			"-0.013": 0.0,
			"-0.012": 0.866433970823,
			"-0.011": 2.85495939487,
			"-0.01": 2.15987944638,
			"-0.009": 3.23971711198,
			"-0.008": 2.76605596789,
			"-0.007": 3.36947655595,
			"-0.006": 4.35817374161,
			"-0.005": 11.8525190488,
			"-0.004": 26.6837119889,
			"-0.003": 33.6037014197,
			"-0.002": 28.5486513524,
			"-0.001": 28.3318284687,
			"0.0": 22.9577276729,
			"0.001": 17.1977902286,
			"0.002": 11.5971485969,
			"0.003": 12.8186079983,
			"0.004": 9.92993933992,
			"0.005": 8.98814022217,
			"0.006": 10.9822181043,
			"0.007": 10.8562673662,
			"0.008": 4.90277721675,
			"0.009": 3.61046577858,
			"0.01": 3.3312733149,
			"0.011": 3.33663800586,
			"0.012": 2.32802081541,
			"0.013": 0.711824254942,
			"0.014": 1.26094366918,
			"0.015": 0.522028219662,
			"0.016": 0.0377330263593,
			"0.017": 0.0,
			"0.018": 0.0,
			"0.019": 0.0,
			"0.02": 0.0,
			"0.021": 0.0,
			"0.022": 0.0,
			"0.023": 0.0,
			"0.024": 0.0,
			"0.025": 0.0
		}
	}
}
