{
	 "smiles": "COC1=CC=C(C=C1OC)C(Cl)=O", 
	 "Tm": 344.15, 
	 "num_atms": 22, 
	 "gaussian": { 
		 "optdone": 1, 
		 "sigma_profile": "yes", 
		 "theory": "DFT", 
		 "functional": "B3LYP", 
		 "basiset": "6-31G**", 
		 "properties": { 
			 "R2extent": 3752.5358, 
			 "electric_dipole_moment_norm": 5.03268429866, 
			 "electric_quadrupole_moment_norm": 12.1061471852, 
			 "total_energy": -1034.22077428, 
			 "HOMO_LUMO_gap": 0.1791, 
			 "cosmo_polarized_energy": -7.75, 
			 "cosmo_cavitation_energy": 28.14, 
			 "cosmo_dispersion_energy": -20.35, 
			 "cosmo_repulsion_energy": 1.63, 
			 "cosmo_total_nonelectrostatic_energy": 9.41, 
			 "SMD_solvation_energy": 6.98 
		},
		"coords": [
			{
				"x": -0.5069463695,
				"y": 1.4304073827,
				"z": -2.5961159022,
				"element": "C" 
			},
			{
				"x": -1.0749027182,
				"y": 1.8336070702,
				"z": -1.3383823602,
				"element": "O" 
			},
			{
				"x": -1.1458678287,
				"y": 0.8709042414,
				"z": -0.3709104577,
				"element": "C" 
			},
			{
				"x": -2.4070936384,
				"y": 0.5258280128,
				"z": 0.1288197986,
				"element": "C" 
			},
			{
				"x": -2.534599523,
				"y": -0.4290479524,
				"z": 1.128143352,
				"element": "C" 
			},
			{
				"x": -1.3907998171,
				"y": -1.0649349,
				"z": 1.6435523062,
				"element": "C" 
			},
			{
				"x": -0.1236087999,
				"y": -0.7059043811,
				"z": 1.1626398433,
				"element": "C" 
			},
			{
				"x": 0.0069001201,
				"y": 0.2618159522,
				"z": 0.1717431277,
				"element": "C" 
			},
			{
				"x": 1.265929291,
				"y": 0.5821589605,
				"z": -0.2798670408,
				"element": "O" 
			},
			{
				"x": 1.7281801338,
				"y": 1.8827843244,
				"z": 0.1128635009,
				"element": "C" 
			},
			{
				"x": -1.6187748583,
				"y": -2.0800982932,
				"z": 2.6930369827,
				"element": "C" 
			},
			{
				"x": -0.1034046927,
				"y": -2.8951464544,
				"z": 3.3351867539,
				"element": "Cl" 
			},
			{
				"x": -2.675736296,
				"y": -2.4058817333,
				"z": 3.1448791402,
				"element": "O" 
			},
			{
				"x": -0.5138832417,
				"y": 2.3214347015,
				"z": -3.2256734849,
				"element": "H" 
			},
			{
				"x": 0.5147853257,
				"y": 1.0626570325,
				"z": -2.4753608817,
				"element": "H" 
			},
			{
				"x": -1.125728007,
				"y": 0.6532074022,
				"z": -3.0597138269,
				"element": "H" 
			},
			{
				"x": -3.2760960313,
				"y": 1.0189987216,
				"z": -0.2940389233,
				"element": "H" 
			},
			{
				"x": -3.5098178316,
				"y": -0.706693767,
				"z": 1.511314686,
				"element": "H" 
			},
			{
				"x": 0.7747281063,
				"y": -1.1665185826,
				"z": 1.5542554966,
				"element": "H" 
			},
			{
				"x": 2.7258794652,
				"y": 1.9931754044,
				"z": -0.3155179107,
				"element": "H" 
			},
			{
				"x": 1.0716992032,
				"y": 2.6714672084,
				"z": -0.2686262621,
				"element": "H" 
			},
			{
				"x": 1.7912580081,
				"y": 1.9563796493,
				"z": 1.2051720626,
				"element": "H" 
			}
		],
		 "valence_orbital": [ 
			{
				"type": "occ",
				"energy": -0.31432,
				"method": "rhf"
			},
			{
				"type": "occ",
				"energy": -0.29272,
				"method": "rhf"
			},
			{
				"type": "occ",
				"energy": -0.28228,
				"method": "rhf"
			},
			{
				"type": "occ",
				"energy": -0.26618,
				"method": "rhf"
			},
			{
				"type": "occ",
				"energy": -0.25165,
				"method": "rhf"
			},
			{
				"type": "unocc",
				"energy": -0.07255,
				"method": "rhf"
			},
			{
				"type": "unocc",
				"energy": -0.02054,
				"method": "rhf"
			},
			{
				"type": "unocc",
				"energy": 0.02224,
				"method": "rhf"
			},
			{
				"type": "unocc",
				"energy": 0.03013,
				"method": "rhf"
			},
			{
				"type": "unocc",
				"energy": 0.07293,
				"method": "rhf"
			}
		],
		"cosmo_sigma_profile": { 
			"-0.025": 0.0,
			"-0.024": 0.0,
			"-0.023": 0.0,
			"-0.022": 0.0,
			"-0.021": 0.0,
			"-0.02": 0.0,
			"-0.019": 0.0,
			"-0.018": 0.0,
			"-0.017": 0.0,
			"-0.016": 0.0,
			"-0.015": 0.0,
			"-0.014": 0.0,
			"-0.013": 0.0,
			"-0.012": 0.0,
			"-0.011": 0.0,
			"-0.01": 0.0,
			"-0.009": 0.0,
			"-0.008": 0.44238209056,
			"-0.007": 3.13945356182,
			"-0.006": 8.67164854269,
			"-0.005": 13.712994848,
			"-0.004": 19.0531069031,
			"-0.003": 27.7436265533,
			"-0.002": 23.7010408951,
			"-0.001": 20.1538600207,
			"0.0": 19.1084191047,
			"0.001": 19.7831577316,
			"0.002": 15.0984945692,
			"0.003": 11.9037772886,
			"0.004": 9.91776004094,
			"0.005": 10.046417888,
			"0.006": 5.24471642743,
			"0.007": 3.94838294023,
			"0.008": 5.96354343538,
			"0.009": 5.44610388541,
			"0.01": 2.82781381,
			"0.011": 1.08419146086,
			"0.012": 0.0611971044418,
			"0.013": 0.0,
			"0.014": 0.0,
			"0.015": 0.0,
			"0.016": 0.0,
			"0.017": 0.0,
			"0.018": 0.0,
			"0.019": 0.0,
			"0.02": 0.0,
			"0.021": 0.0,
			"0.022": 0.0,
			"0.023": 0.0,
			"0.024": 0.0,
			"0.025": 0.0
		}
	}
}
