{
	 "smiles": "CCC(=O)CC#N", 
	 "Tm": 302.15, 
	 "num_atms": 14, 
	 "gaussian": { 
		 "optdone": 1, 
		 "sigma_profile": "yes", 
		 "theory": "DFT", 
		 "functional": "B3LYP", 
		 "basiset": "6-31G**", 
		 "properties": { 
			 "R2extent": 2010.7171, 
			 "electric_dipole_moment_norm": 1.78144598852, 
			 "electric_quadrupole_moment_norm": 15.3671051291, 
			 "total_energy": -324.707155558, 
			 "HOMO_LUMO_gap": 0.23334, 
			 "cosmo_polarized_energy": -11.35, 
			 "cosmo_cavitation_energy": 18.84, 
			 "cosmo_dispersion_energy": -13.05, 
			 "cosmo_repulsion_energy": 1.14, 
			 "cosmo_total_nonelectrostatic_energy": 6.93, 
			 "SMD_solvation_energy": 5.4 
		},
		"coords": [
			{
				"x": -0.2771130641,
				"y": 0.4388929294,
				"z": 1.3586297035,
				"element": "C" 
			},
			{
				"x": -0.9011196302,
				"y": -0.9521992928,
				"z": 1.2806775539,
				"element": "C" 
			},
			{
				"x": 0.0468989049,
				"y": -2.0061935221,
				"z": 0.748322189,
				"element": "C" 
			},
			{
				"x": 1.2067946314,
				"y": -1.7910311179,
				"z": 0.4728733539,
				"element": "O" 
			},
			{
				"x": -0.5136758049,
				"y": -3.4311519731,
				"z": 0.4941620892,
				"element": "C" 
			},
			{
				"x": -1.6642807224,
				"y": -3.8172124413,
				"z": 1.3071177608,
				"element": "C" 
			},
			{
				"x": -2.5762420225,
				"y": -4.1063631792,
				"z": 1.9646367658,
				"element": "N" 
			},
			{
				"x": -0.9951251886,
				"y": 1.156988832,
				"z": 1.7637882484,
				"element": "H" 
			},
			{
				"x": 0.0377240917,
				"y": 0.7843830194,
				"z": 0.3703240628,
				"element": "H" 
			},
			{
				"x": 0.6076949059,
				"y": 0.4338998363,
				"z": 1.9999998434,
				"element": "H" 
			},
			{
				"x": -1.2518146211,
				"y": -1.2920540092,
				"z": 2.2651724014,
				"element": "H" 
			},
			{
				"x": -1.8029244647,
				"y": -0.9591729947,
				"z": 0.6514725272,
				"element": "H" 
			},
			{
				"x": -0.797770684,
				"y": -3.4787871221,
				"z": -0.5658015911,
				"element": "H" 
			},
			{
				"x": 0.3068536688,
				"y": -4.1407989646,
				"z": 0.6342250918,
				"element": "H" 
			}
		],
		 "valence_orbital": [ 
			{
				"type": "occ",
				"energy": -0.36887,
				"method": "rhf"
			},
			{
				"type": "occ",
				"energy": -0.36162,
				"method": "rhf"
			},
			{
				"type": "occ",
				"energy": -0.346,
				"method": "rhf"
			},
			{
				"type": "occ",
				"energy": -0.33511,
				"method": "rhf"
			},
			{
				"type": "occ",
				"energy": -0.27085,
				"method": "rhf"
			},
			{
				"type": "unocc",
				"energy": -0.03751,
				"method": "rhf"
			},
			{
				"type": "unocc",
				"energy": 0.01933,
				"method": "rhf"
			},
			{
				"type": "unocc",
				"energy": 0.02662,
				"method": "rhf"
			},
			{
				"type": "unocc",
				"energy": 0.07784,
				"method": "rhf"
			},
			{
				"type": "unocc",
				"energy": 0.10411,
				"method": "rhf"
			}
		],
		"cosmo_sigma_profile": { 
			"-0.025": 0.0,
			"-0.024": 0.0,
			"-0.023": 0.0,
			"-0.022": 0.0,
			"-0.021": 0.0,
			"-0.02": 0.0,
			"-0.019": 0.0,
			"-0.018": 0.0,
			"-0.017": 0.0,
			"-0.016": 0.0,
			"-0.015": 0.0,
			"-0.014": 0.0,
			"-0.013": 0.0,
			"-0.012": 0.0,
			"-0.011": 1.13743175926,
			"-0.01": 4.89159892298,
			"-0.009": 5.15866886827,
			"-0.008": 5.58461382912,
			"-0.007": 7.40321085566,
			"-0.006": 8.61028083391,
			"-0.005": 5.43507747533,
			"-0.004": 9.18145548562,
			"-0.003": 13.7099202527,
			"-0.002": 12.7635514504,
			"-0.001": 8.59513043235,
			"0.0": 9.80538001958,
			"0.001": 6.81039049707,
			"0.002": 3.30002108675,
			"0.003": 3.57719134242,
			"0.004": 3.8584055952,
			"0.005": 3.40222060871,
			"0.006": 3.29083242227,
			"0.007": 4.61252916158,
			"0.008": 4.94050455951,
			"0.009": 5.29772110506,
			"0.01": 6.29830863873,
			"0.011": 6.82803847279,
			"0.012": 3.46600152961,
			"0.013": 1.41665806233,
			"0.014": 0.0459992407822,
			"0.015": 0.0,
			"0.016": 0.0,
			"0.017": 0.0,
			"0.018": 0.0,
			"0.019": 0.0,
			"0.02": 0.0,
			"0.021": 0.0,
			"0.022": 0.0,
			"0.023": 0.0,
			"0.024": 0.0,
			"0.025": 0.0
		}
	}
}
