{
	 "smiles": "OC(=O)C12CCC(=O)N1C1=C(C=CC=C1)C(=O)N2C1CC1", 
	 "Tm": 290.15, 
	 "num_atms": 35, 
	 "gaussian": { 
		 "optdone": 1, 
		 "sigma_profile": "yes", 
		 "theory": "DFT", 
		 "functional": "B3LYP", 
		 "basiset": "6-31G**", 
		 "properties": { 
			 "R2extent": 4905.8163, 
			 "electric_dipole_moment_norm": 3.32685999255, 
			 "electric_quadrupole_moment_norm": 18.7867502251, 
			 "total_energy": -990.440318189, 
			 "HOMO_LUMO_gap": 0.18336, 
			 "cosmo_polarized_energy": -19.31, 
			 "cosmo_cavitation_energy": 36.61, 
			 "cosmo_dispersion_energy": -26.02, 
			 "cosmo_repulsion_energy": 1.96, 
			 "cosmo_total_nonelectrostatic_energy": 12.55, 
			 "SMD_solvation_energy": 6.87 
		},
		"coords": [
			{
				"x": -0.2945623812,
				"y": 0.0517116549,
				"z": -2.89065366,
				"element": "O" 
			},
			{
				"x": -0.8711349925,
				"y": 0.5838785908,
				"z": -1.795362644,
				"element": "C" 
			},
			{
				"x": -1.2967458946,
				"y": 1.714703162,
				"z": -1.7478107797,
				"element": "O" 
			},
			{
				"x": -1.007824399,
				"y": -0.436259186,
				"z": -0.6197426941,
				"element": "C" 
			},
			{
				"x": -2.4951971554,
				"y": -0.8768454709,
				"z": -0.5475183477,
				"element": "C" 
			},
			{
				"x": -3.1586991751,
				"y": 0.2179543935,
				"z": 0.293524412,
				"element": "C" 
			},
			{
				"x": -2.0351698778,
				"y": 0.7580275674,
				"z": 1.1680483453,
				"element": "C" 
			},
			{
				"x": -2.1526157729,
				"y": 1.4657695485,
				"z": 2.1491966784,
				"element": "O" 
			},
			{
				"x": -0.8333210282,
				"y": 0.3002910641,
				"z": 0.6293677511,
				"element": "N" 
			},
			{
				"x": 0.4714957143,
				"y": 0.6886291582,
				"z": 0.9857849554,
				"element": "C" 
			},
			{
				"x": 1.5300090458,
				"y": -0.0124322347,
				"z": 0.3739301058,
				"element": "C" 
			},
			{
				"x": 2.8529408711,
				"y": 0.3580023031,
				"z": 0.6463221726,
				"element": "C" 
			},
			{
				"x": 3.127631873,
				"y": 1.3991417822,
				"z": 1.5240266601,
				"element": "C" 
			},
			{
				"x": 2.0688667929,
				"y": 2.0697844282,
				"z": 2.1466649693,
				"element": "C" 
			},
			{
				"x": 0.7440785111,
				"y": 1.7254370508,
				"z": 1.8903639229,
				"element": "C" 
			},
			{
				"x": 1.2980795686,
				"y": -1.2107263576,
				"z": -0.4848190071,
				"element": "C" 
			},
			{
				"x": 2.2212385836,
				"y": -1.8963003344,
				"z": -0.9011130693,
				"element": "O" 
			},
			{
				"x": -0.0476015931,
				"y": -1.5363620113,
				"z": -0.7069443483,
				"element": "N" 
			},
			{
				"x": -0.3533178259,
				"y": -2.6728521154,
				"z": -1.5504136835,
				"element": "C" 
			},
			{
				"x": 0.2687028058,
				"y": -4.0030455276,
				"z": -1.2376195326,
				"element": "C" 
			},
			{
				"x": -1.2059534196,
				"y": -3.8158468015,
				"z": -1.0248429143,
				"element": "C" 
			},
			{
				"x": -0.2889348459,
				"y": 0.7491969211,
				"z": -3.568853618,
				"element": "H" 
			},
			{
				"x": -2.5371696636,
				"y": -1.8325896315,
				"z": -0.027146694,
				"element": "H" 
			},
			{
				"x": -2.9342119224,
				"y": -1.0104115037,
				"z": -1.5381187169,
				"element": "H" 
			},
			{
				"x": -3.5277239242,
				"y": 1.0463049821,
				"z": -0.3191047514,
				"element": "H" 
			},
			{
				"x": -3.9827827197,
				"y": -0.1397559643,
				"z": 0.913965175,
				"element": "H" 
			},
			{
				"x": 3.6421042855,
				"y": -0.2084945003,
				"z": 0.1640809491,
				"element": "H" 
			},
			{
				"x": 4.1544791589,
				"y": 1.6822934222,
				"z": 1.7330181564,
				"element": "H" 
			},
			{
				"x": 2.2745717376,
				"y": 2.8800094896,
				"z": 2.840426382,
				"element": "H" 
			},
			{
				"x": -0.07509255,
				"y": 2.2410323907,
				"z": 2.3706651977,
				"element": "H" 
			},
			{
				"x": -0.4601025939,
				"y": -2.4291883469,
				"z": -2.6051589016,
				"element": "H" 
			},
			{
				"x": 0.618480312,
				"y": -4.5912210921,
				"z": -2.0794782061,
				"element": "H" 
			},
			{
				"x": 0.9016955665,
				"y": -4.0606843758,
				"z": -0.361142181,
				"element": "H" 
			},
			{
				"x": -1.9116912485,
				"y": -4.273419121,
				"z": -1.7120257402,
				"element": "H" 
			},
			{
				"x": -1.5455218432,
				"y": -3.7658333343,
				"z": 0.004483657,
				"element": "H" 
			}
		],
		 "valence_orbital": [ 
			{
				"type": "occ",
				"energy": -0.26492,
				"method": "rhf"
			},
			{
				"type": "occ",
				"energy": -0.25963,
				"method": "rhf"
			},
			{
				"type": "occ",
				"energy": -0.25567,
				"method": "rhf"
			},
			{
				"type": "occ",
				"energy": -0.24711,
				"method": "rhf"
			},
			{
				"type": "occ",
				"energy": -0.23025,
				"method": "rhf"
			},
			{
				"type": "unocc",
				"energy": -0.04689,
				"method": "rhf"
			},
			{
				"type": "unocc",
				"energy": -0.02544,
				"method": "rhf"
			},
			{
				"type": "unocc",
				"energy": -0.00839,
				"method": "rhf"
			},
			{
				"type": "unocc",
				"energy": 0.03153,
				"method": "rhf"
			},
			{
				"type": "unocc",
				"energy": 0.05033,
				"method": "rhf"
			}
		],
		"cosmo_sigma_profile": { 
			"-0.025": 0.0,
			"-0.024": 0.0,
			"-0.023": 0.0,
			"-0.022": 0.0,
			"-0.021": 0.0,
			"-0.02": 0.0371122228906,
			"-0.019": 0.77706964183,
			"-0.018": 0.862249274594,
			"-0.017": 1.44511696546,
			"-0.016": 0.869667451229,
			"-0.015": 0.25837652996,
			"-0.014": 0.392550452074,
			"-0.013": 0.696795889167,
			"-0.012": 1.50537290777,
			"-0.011": 0.514493452367,
			"-0.01": 0.439686372694,
			"-0.009": 0.866976887944,
			"-0.008": 1.49892425725,
			"-0.007": 8.45865276171,
			"-0.006": 18.0650339075,
			"-0.005": 23.6909355819,
			"-0.004": 25.2907164786,
			"-0.003": 21.7865406454,
			"-0.002": 20.6840369179,
			"-0.001": 18.0863756715,
			"0.0": 20.1128669669,
			"0.001": 18.9616719167,
			"0.002": 19.380789888,
			"0.003": 19.1223588289,
			"0.004": 14.5614218129,
			"0.005": 7.1327728804,
			"0.006": 5.51332142778,
			"0.007": 4.23860958586,
			"0.008": 4.90219241174,
			"0.009": 4.93717603383,
			"0.01": 6.50883889127,
			"0.011": 7.31627407399,
			"0.012": 6.34588499057,
			"0.013": 5.31639689331,
			"0.014": 0.289683359397,
			"0.015": 0.0,
			"0.016": 0.0,
			"0.017": 0.0,
			"0.018": 0.0,
			"0.019": 0.0,
			"0.02": 0.0,
			"0.021": 0.0,
			"0.022": 0.0,
			"0.023": 0.0,
			"0.024": 0.0,
			"0.025": 0.0
		}
	}
}
