{
	 "smiles": "CCC(C)(CO)CO", 
	 "Tm": 315.25, 
	 "num_atms": 22, 
	 "gaussian": { 
		 "optdone": 1, 
		 "sigma_profile": "yes", 
		 "theory": "DFT", 
		 "functional": "B3LYP", 
		 "basiset": "6-31G**", 
		 "properties": { 
			 "R2extent": 1303.6736, 
			 "electric_dipole_moment_norm": 2.23260110409, 
			 "electric_quadrupole_moment_norm": 7.19112020342, 
			 "total_energy": -387.510734184, 
			 "HOMO_LUMO_gap": 0.31784, 
			 "cosmo_polarized_energy": -10.43, 
			 "cosmo_cavitation_energy": 22.55, 
			 "cosmo_dispersion_energy": -16.37, 
			 "cosmo_repulsion_energy": 1.35, 
			 "cosmo_total_nonelectrostatic_energy": 7.53, 
			 "SMD_solvation_energy": 3.97 
		},
		"coords": [
			{
				"x": 0.9566267319,
				"y": -0.9467160762,
				"z": 0.605632854,
				"element": "C" 
			},
			{
				"x": 0.1784357769,
				"y": -0.5166364071,
				"z": -0.6448801945,
				"element": "C" 
			},
			{
				"x": -0.0131109811,
				"y": 1.0054270145,
				"z": -0.8803799485,
				"element": "C" 
			},
			{
				"x": -0.9606024276,
				"y": 1.1919593828,
				"z": -2.0840364063,
				"element": "C" 
			},
			{
				"x": -0.6173117649,
				"y": 1.6947971691,
				"z": 0.3619791454,
				"element": "C" 
			},
			{
				"x": -1.8168435552,
				"y": 1.1017053307,
				"z": 0.8381767716,
				"element": "O" 
			},
			{
				"x": 1.3102644624,
				"y": 1.7188708898,
				"z": -1.2526385589,
				"element": "C" 
			},
			{
				"x": 2.3231162032,
				"y": 1.7230331128,
				"z": -0.2521886134,
				"element": "O" 
			},
			{
				"x": 1.9537826496,
				"y": -0.5038244217,
				"z": 0.6326641224,
				"element": "H" 
			},
			{
				"x": 1.0596511876,
				"y": -2.037129078,
				"z": 0.6230407623,
				"element": "H" 
			},
			{
				"x": 0.4262503752,
				"y": -0.6587019853,
				"z": 1.5190899705,
				"element": "H" 
			},
			{
				"x": -0.8180964156,
				"y": -0.9719090116,
				"z": -0.6029101374,
				"element": "H" 
			},
			{
				"x": 0.6663731592,
				"y": -0.9314833198,
				"z": -1.5377127002,
				"element": "H" 
			},
			{
				"x": -1.9302203298,
				"y": 0.7130140693,
				"z": -1.9068882453,
				"element": "H" 
			},
			{
				"x": -0.5441224667,
				"y": 0.7327053602,
				"z": -2.987295306,
				"element": "H" 
			},
			{
				"x": -1.1395279342,
				"y": 2.2519422264,
				"z": -2.3008219241,
				"element": "H" 
			},
			{
				"x": -0.7653879905,
				"y": 2.7672499106,
				"z": 0.1432454532,
				"element": "H" 
			},
			{
				"x": 0.0826021076,
				"y": 1.6272906991,
				"z": 1.2003750378,
				"element": "H" 
			},
			{
				"x": -2.493759179,
				"y": 1.2105073411,
				"z": 0.1586456161,
				"element": "H" 
			},
			{
				"x": 1.0832160642,
				"y": 2.7496504758,
				"z": -1.5721748998,
				"element": "H" 
			},
			{
				"x": 1.7533086201,
				"y": 1.2088402573,
				"z": -2.1151888454,
				"element": "H" 
			},
			{
				"x": 2.0656557067,
				"y": 2.3425070599,
				"z": 0.4410660463,
				"element": "H" 
			}
		],
		 "valence_orbital": [ 
			{
				"type": "occ",
				"energy": -0.32657,
				"method": "rhf"
			},
			{
				"type": "occ",
				"energy": -0.31691,
				"method": "rhf"
			},
			{
				"type": "occ",
				"energy": -0.31352,
				"method": "rhf"
			},
			{
				"type": "occ",
				"energy": -0.26748,
				"method": "rhf"
			},
			{
				"type": "occ",
				"energy": -0.25931,
				"method": "rhf"
			},
			{
				"type": "unocc",
				"energy": 0.05853,
				"method": "rhf"
			},
			{
				"type": "unocc",
				"energy": 0.06593,
				"method": "rhf"
			},
			{
				"type": "unocc",
				"energy": 0.10743,
				"method": "rhf"
			},
			{
				"type": "unocc",
				"energy": 0.12183,
				"method": "rhf"
			},
			{
				"type": "unocc",
				"energy": 0.13241,
				"method": "rhf"
			}
		],
		"cosmo_sigma_profile": { 
			"-0.025": 0.0,
			"-0.024": 0.0,
			"-0.023": 0.0,
			"-0.022": 0.0,
			"-0.021": 0.0,
			"-0.02": 0.0,
			"-0.019": 0.0,
			"-0.018": 0.0,
			"-0.017": 0.0,
			"-0.016": 0.0,
			"-0.015": 0.504907533775,
			"-0.014": 1.85860865376,
			"-0.013": 1.74963203069,
			"-0.012": 1.88767390438,
			"-0.011": 2.39070021638,
			"-0.01": 2.02569206224,
			"-0.009": 1.88467857589,
			"-0.008": 1.6109669754,
			"-0.007": 1.97828794467,
			"-0.006": 3.25777520881,
			"-0.005": 2.96180998999,
			"-0.004": 7.85343022838,
			"-0.003": 19.5771467243,
			"-0.002": 18.2730975578,
			"-0.001": 17.2988279509,
			"0.0": 18.1093204326,
			"0.001": 17.9820565014,
			"0.002": 14.903220679,
			"0.003": 4.8386246881,
			"0.004": 3.23429475289,
			"0.005": 3.06298770187,
			"0.006": 3.81422296618,
			"0.007": 2.21347072016,
			"0.008": 2.36282122688,
			"0.009": 2.77579788979,
			"0.01": 2.64913005276,
			"0.011": 1.881095457,
			"0.012": 2.55381978593,
			"0.013": 2.69695690281,
			"0.014": 3.14669674312,
			"0.015": 1.17773345908,
			"0.016": 0.0,
			"0.017": 0.0,
			"0.018": 0.0,
			"0.019": 0.0,
			"0.02": 0.0,
			"0.021": 0.0,
			"0.022": 0.0,
			"0.023": 0.0,
			"0.024": 0.0,
			"0.025": 0.0
		}
	}
}
