{
	 "smiles": "OC(CC(C1=CC=CC=C1)C1=C(O)OC2=CC=CC=C2C1=O)C1=CC=C(C=C1)C1=CC=C(Br)C=C1", 
	 "Tm": 472.15, 
	 "num_atms": 58, 
	 "gaussian": { 
		 "optdone": 1, 
		 "sigma_profile": "yes", 
		 "theory": "DFT", 
		 "functional": "B3LYP", 
		 "basiset": "6-31G**", 
		 "properties": { 
			 "R2extent": 36314.0427, 
			 "electric_dipole_moment_norm": 5.9350674377, 
			 "electric_quadrupole_moment_norm": 34.0230501178, 
			 "total_energy": -4029.35553258, 
			 "HOMO_LUMO_gap": 0.174, 
			 "cosmo_polarized_energy": -23.96, 
			 "cosmo_cavitation_energy": 63.81, 
			 "cosmo_dispersion_energy": -43.91, 
			 "cosmo_repulsion_energy": 3.24, 
			 "cosmo_total_nonelectrostatic_energy": 23.14, 
			 "SMD_solvation_energy": 10.09 
		},
		"coords": [
			{
				"x": 0.9554094936,
				"y": 2.0990801648,
				"z": -0.4524676003,
				"element": "O" 
			},
			{
				"x": 0.260755619,
				"y": 0.8489562401,
				"z": -0.3618031735,
				"element": "C" 
			},
			{
				"x": 0.6689254419,
				"y": 0.204006046,
				"z": 0.9782655817,
				"element": "C" 
			},
			{
				"x": 0.0069060991,
				"y": 0.7361814527,
				"z": 2.2759299822,
				"element": "C" 
			},
			{
				"x": -1.4715279269,
				"y": 0.3831801905,
				"z": 2.4694266217,
				"element": "C" 
			},
			{
				"x": -2.1648622985,
				"y": 0.9086766988,
				"z": 3.5726999505,
				"element": "C" 
			},
			{
				"x": -3.486880233,
				"y": 0.5573584882,
				"z": 3.8352687036,
				"element": "C" 
			},
			{
				"x": -4.1575483707,
				"y": -0.3369208794,
				"z": 2.9972420441,
				"element": "C" 
			},
			{
				"x": -3.4828140356,
				"y": -0.8755014097,
				"z": 1.9040351954,
				"element": "C" 
			},
			{
				"x": -2.1550190007,
				"y": -0.521187662,
				"z": 1.646100604,
				"element": "C" 
			},
			{
				"x": 0.3489578552,
				"y": 2.192833352,
				"z": 2.5468189185,
				"element": "C" 
			},
			{
				"x": -0.3348212815,
				"y": 3.2454211832,
				"z": 2.0252542323,
				"element": "C" 
			},
			{
				"x": -1.4160503935,
				"y": 3.119183616,
				"z": 1.2464453505,
				"element": "O" 
			},
			{
				"x": -0.0385855825,
				"y": 4.5526954059,
				"z": 2.2224242901,
				"element": "O" 
			},
			{
				"x": 1.0550276715,
				"y": 4.890492384,
				"z": 2.9931452989,
				"element": "C" 
			},
			{
				"x": 1.3171561365,
				"y": 6.2504182718,
				"z": 3.1637017164,
				"element": "C" 
			},
			{
				"x": 2.4127086162,
				"y": 6.6205917635,
				"z": 3.9361586202,
				"element": "C" 
			},
			{
				"x": 3.2320834146,
				"y": 5.6460273953,
				"z": 4.5277999711,
				"element": "C" 
			},
			{
				"x": 2.9519558605,
				"y": 4.298906017,
				"z": 4.3434917682,
				"element": "C" 
			},
			{
				"x": 1.851583153,
				"y": 3.8996609119,
				"z": 3.5691990411,
				"element": "C" 
			},
			{
				"x": 1.5326398555,
				"y": 2.4655824505,
				"z": 3.3581190355,
				"element": "C" 
			},
			{
				"x": 2.2330131918,
				"y": 1.5737798334,
				"z": 3.846713677,
				"element": "O" 
			},
			{
				"x": 0.6066043336,
				"y": -0.0513051254,
				"z": -1.5381110805,
				"element": "C" 
			},
			{
				"x": 1.9133750688,
				"y": -0.0977087547,
				"z": -2.0416547989,
				"element": "C" 
			},
			{
				"x": 2.2410050519,
				"y": -0.943903977,
				"z": -3.0977622926,
				"element": "C" 
			},
			{
				"x": 1.2734498131,
				"y": -1.7728102797,
				"z": -3.6919135004,
				"element": "C" 
			},
			{
				"x": -0.0370247124,
				"y": -1.7159646244,
				"z": -3.1889528714,
				"element": "C" 
			},
			{
				"x": -0.3629479268,
				"y": -0.8675710906,
				"z": -2.1326852163,
				"element": "C" 
			},
			{
				"x": 1.6225397242,
				"y": -2.6729293763,
				"z": -4.8190878968,
				"element": "C" 
			},
			{
				"x": 2.5375601091,
				"y": -2.2756324383,
				"z": -5.8088311177,
				"element": "C" 
			},
			{
				"x": 2.8707466286,
				"y": -3.1156097851,
				"z": -6.8696752402,
				"element": "C" 
			},
			{
				"x": 2.2817879353,
				"y": -4.3760162559,
				"z": -6.9505648721,
				"element": "C" 
			},
			{
				"x": 2.7306995815,
				"y": -5.5356852313,
				"z": -8.4025709475,
				"element": "Br" 
			},
			{
				"x": 1.3700370529,
				"y": -4.8019189229,
				"z": -5.9864908905,
				"element": "C" 
			},
			{
				"x": 1.0486428733,
				"y": -3.9508105379,
				"z": -4.9308986561,
				"element": "C" 
			},
			{
				"x": 0.7326783476,
				"y": 2.4870602792,
				"z": -1.3092337531,
				"element": "H" 
			},
			{
				"x": -0.8239334769,
				"y": 1.0259728129,
				"z": -0.3636772302,
				"element": "H" 
			},
			{
				"x": 0.4941282578,
				"y": -0.8749018149,
				"z": 0.9187132707,
				"element": "H" 
			},
			{
				"x": 1.7521459224,
				"y": 0.3315204338,
				"z": 1.079506106,
				"element": "H" 
			},
			{
				"x": 0.5466317079,
				"y": 0.2100082788,
				"z": 3.0751631623,
				"element": "H" 
			},
			{
				"x": -1.6553315296,
				"y": 1.602038589,
				"z": 4.2360448395,
				"element": "H" 
			},
			{
				"x": -3.9936912033,
				"y": 0.9798662938,
				"z": 4.6988344814,
				"element": "H" 
			},
			{
				"x": -5.1889025797,
				"y": -0.6121661054,
				"z": 3.1984240111,
				"element": "H" 
			},
			{
				"x": -3.9857881398,
				"y": -1.5783201735,
				"z": 1.2450985909,
				"element": "H" 
			},
			{
				"x": -1.6566103881,
				"y": -0.9712211636,
				"z": 0.7947394583,
				"element": "H" 
			},
			{
				"x": -1.7419491104,
				"y": 4.0053003185,
				"z": 1.0295134785,
				"element": "H" 
			},
			{
				"x": 0.6700350621,
				"y": 6.9848471952,
				"z": 2.6960991906,
				"element": "H" 
			},
			{
				"x": 2.6319930433,
				"y": 7.6744007583,
				"z": 4.0795102219,
				"element": "H" 
			},
			{
				"x": 4.0842034971,
				"y": 5.948846672,
				"z": 5.1283332292,
				"element": "H" 
			},
			{
				"x": 3.5621191947,
				"y": 3.5166782618,
				"z": 4.7829495749,
				"element": "H" 
			},
			{
				"x": 2.6715631067,
				"y": 0.5394197701,
				"z": -1.5967485607,
				"element": "H" 
			},
			{
				"x": 3.2674336259,
				"y": -0.982825896,
				"z": -3.4511038464,
				"element": "H" 
			},
			{
				"x": -0.8149717373,
				"y": -2.3156840483,
				"z": -3.6524675156,
				"element": "H" 
			},
			{
				"x": -1.3902494281,
				"y": -0.8265529141,
				"z": -1.7774944275,
				"element": "H" 
			},
			{
				"x": 2.9785399597,
				"y": -1.2844887497,
				"z": -5.7643786272,
				"element": "H" 
			},
			{
				"x": 3.5723287204,
				"y": -2.7912733886,
				"z": -7.6298937484,
				"element": "H" 
			},
			{
				"x": 0.9253607677,
				"y": -5.7883632018,
				"z": -6.0538684416,
				"element": "H" 
			},
			{
				"x": 0.3591775614,
				"y": -4.2972177222,
				"z": -4.167033913,
				"element": "H" 
			}
		],
		 "valence_orbital": [ 
			{
				"type": "occ",
				"energy": -0.244,
				"method": "rhf"
			},
			{
				"type": "occ",
				"energy": -0.24256,
				"method": "rhf"
			},
			{
				"type": "occ",
				"energy": -0.23279,
				"method": "rhf"
			},
			{
				"type": "occ",
				"energy": -0.22338,
				"method": "rhf"
			},
			{
				"type": "occ",
				"energy": -0.21966,
				"method": "rhf"
			},
			{
				"type": "unocc",
				"energy": -0.04566,
				"method": "rhf"
			},
			{
				"type": "unocc",
				"energy": -0.03699,
				"method": "rhf"
			},
			{
				"type": "unocc",
				"energy": -0.01533,
				"method": "rhf"
			},
			{
				"type": "unocc",
				"energy": -0.01402,
				"method": "rhf"
			},
			{
				"type": "unocc",
				"energy": -0.00867,
				"method": "rhf"
			}
		],
		"cosmo_sigma_profile": { 
			"-0.025": 0.0,
			"-0.024": 0.0,
			"-0.023": 0.0,
			"-0.022": 0.0,
			"-0.021": 0.0,
			"-0.02": 0.0637408303632,
			"-0.019": 1.04264335326,
			"-0.018": 0.85742999458,
			"-0.017": 0.958770137789,
			"-0.016": 0.721198912299,
			"-0.015": 1.48206400719,
			"-0.014": 1.73529492667,
			"-0.013": 0.958348848158,
			"-0.012": 1.40956067963,
			"-0.011": 1.85532666072,
			"-0.01": 1.46744757967,
			"-0.009": 1.76621675965,
			"-0.008": 2.50852895495,
			"-0.007": 8.40080849888,
			"-0.006": 21.1986335754,
			"-0.005": 36.6995284299,
			"-0.004": 38.1955470982,
			"-0.003": 39.7754828649,
			"-0.002": 36.2970575063,
			"-0.001": 33.8064563583,
			"0.0": 36.0159538246,
			"0.001": 38.8988368445,
			"0.002": 47.1856868353,
			"0.003": 47.0529356911,
			"0.004": 42.9975109391,
			"0.005": 26.7140012275,
			"0.006": 12.2664028555,
			"0.007": 7.72216840675,
			"0.008": 4.61290210588,
			"0.009": 3.00197135927,
			"0.01": 3.18437843958,
			"0.011": 2.37976597158,
			"0.012": 2.46807763503,
			"0.013": 3.88799755465,
			"0.014": 3.63945742681,
			"0.015": 0.0,
			"0.016": 0.0,
			"0.017": 0.0,
			"0.018": 0.0,
			"0.019": 0.0,
			"0.02": 0.0,
			"0.021": 0.0,
			"0.022": 0.0,
			"0.023": 0.0,
			"0.024": 0.0,
			"0.025": 0.0
		}
	}
}
