{
	 "smiles": "CC(C)(C)NCC(O)C1=CC(O)=CC(O)=C1", 
	 "Tm": 392.15, 
	 "num_atms": 35, 
	 "gaussian": { 
		 "optdone": 1, 
		 "sigma_profile": "yes", 
		 "theory": "DFT", 
		 "functional": "B3LYP", 
		 "basiset": "6-31G**", 
		 "properties": { 
			 "R2extent": 5171.8451, 
			 "electric_dipole_moment_norm": 4.87851943319, 
			 "electric_quadrupole_moment_norm": 11.858913403, 
			 "total_energy": -749.140378527, 
			 "HOMO_LUMO_gap": 0.21545, 
			 "cosmo_polarized_energy": -19.05, 
			 "cosmo_cavitation_energy": 36.82, 
			 "cosmo_dispersion_energy": -25.0, 
			 "cosmo_repulsion_energy": 1.97, 
			 "cosmo_total_nonelectrostatic_energy": 13.78, 
			 "SMD_solvation_energy": 6.68 
		},
		"coords": [
			{
				"x": 0.1397991943,
				"y": -1.7702145544,
				"z": -3.3179293927,
				"element": "C" 
			},
			{
				"x": 0.4282254586,
				"y": -0.4684718496,
				"z": -2.5376265478,
				"element": "C" 
			},
			{
				"x": 1.452556651,
				"y": -0.7377150117,
				"z": -1.4211066955,
				"element": "C" 
			},
			{
				"x": 0.9986276735,
				"y": 0.5882953999,
				"z": -3.4985483089,
				"element": "C" 
			},
			{
				"x": -0.7921612184,
				"y": 0.1313668915,
				"z": -1.9475660149,
				"element": "N" 
			},
			{
				"x": -1.6234810107,
				"y": -0.6973347111,
				"z": -1.0848729274,
				"element": "C" 
			},
			{
				"x": -2.6265934766,
				"y": 0.1581987103,
				"z": -0.2701709038,
				"element": "C" 
			},
			{
				"x": -3.6463877662,
				"y": -0.6786935975,
				"z": 0.2665208862,
				"element": "O" 
			},
			{
				"x": -1.9701010917,
				"y": 0.9026707301,
				"z": 0.8799184915,
				"element": "C" 
			},
			{
				"x": -1.1509227283,
				"y": 2.0065278758,
				"z": 0.6189874183,
				"element": "C" 
			},
			{
				"x": -0.5282905558,
				"y": 2.6726080959,
				"z": 1.6798061055,
				"element": "C" 
			},
			{
				"x": 0.2857865618,
				"y": 3.7541191342,
				"z": 1.4776365026,
				"element": "O" 
			},
			{
				"x": -0.7182693196,
				"y": 2.2601070407,
				"z": 2.9993768093,
				"element": "C" 
			},
			{
				"x": -1.5416838098,
				"y": 1.1620981764,
				"z": 3.2454456765,
				"element": "C" 
			},
			{
				"x": -1.7091330134,
				"y": 0.7886147395,
				"z": 4.5509247726,
				"element": "O" 
			},
			{
				"x": -2.1680388496,
				"y": 0.4789384492,
				"z": 2.1960742941,
				"element": "C" 
			},
			{
				"x": -0.5859629361,
				"y": -1.5924960143,
				"z": -4.1205843117,
				"element": "H" 
			},
			{
				"x": -0.2635608105,
				"y": -2.5498859275,
				"z": -2.6636975448,
				"element": "H" 
			},
			{
				"x": 1.0531539853,
				"y": -2.1651040199,
				"z": -3.7758865351,
				"element": "H" 
			},
			{
				"x": 1.1223667984,
				"y": -1.5288182622,
				"z": -0.7409332905,
				"element": "H" 
			},
			{
				"x": 2.4068640807,
				"y": -1.0575864747,
				"z": -1.8517508739,
				"element": "H" 
			},
			{
				"x": 1.6184563049,
				"y": 0.168028596,
				"z": -0.831414855,
				"element": "H" 
			},
			{
				"x": 0.2899131171,
				"y": 0.8099766617,
				"z": -4.3062436173,
				"element": "H" 
			},
			{
				"x": 1.9262843,
				"y": 0.2369013573,
				"z": -3.9603805182,
				"element": "H" 
			},
			{
				"x": 1.2069386419,
				"y": 1.5196860176,
				"z": -2.9637018689,
				"element": "H" 
			},
			{
				"x": -1.3675166563,
				"y": 0.4951676604,
				"z": -2.7046180717,
				"element": "H" 
			},
			{
				"x": -0.9938961081,
				"y": -1.2466506021,
				"z": -0.3800376722,
				"element": "H" 
			},
			{
				"x": -2.2108646986,
				"y": -1.4557718238,
				"z": -1.6398239016,
				"element": "H" 
			},
			{
				"x": -3.0699292313,
				"y": 0.9011854511,
				"z": -0.9562310959,
				"element": "H" 
			},
			{
				"x": -4.0141094857,
				"y": -1.1966542596,
				"z": -0.4603780638,
				"element": "H" 
			},
			{
				"x": -0.9772841187,
				"y": 2.3202069074,
				"z": -0.4057975356,
				"element": "H" 
			},
			{
				"x": 0.3269231807,
				"y": 3.9349761689,
				"z": 0.5298894239,
				"element": "H" 
			},
			{
				"x": -0.2397536657,
				"y": 2.7866167596,
				"z": 3.8165983484,
				"element": "H" 
			},
			{
				"x": -2.3082836392,
				"y": 0.0315901573,
				"z": 4.5791232679,
				"element": "H" 
			},
			{
				"x": -2.8176717579,
				"y": -0.3670838724,
				"z": 2.3941985503,
				"element": "H" 
			}
		],
		 "valence_orbital": [ 
			{
				"type": "occ",
				"energy": -0.29794,
				"method": "rhf"
			},
			{
				"type": "occ",
				"energy": -0.27174,
				"method": "rhf"
			},
			{
				"type": "occ",
				"energy": -0.22674,
				"method": "rhf"
			},
			{
				"type": "occ",
				"energy": -0.2155,
				"method": "rhf"
			},
			{
				"type": "occ",
				"energy": -0.20174,
				"method": "rhf"
			},
			{
				"type": "unocc",
				"energy": 0.01371,
				"method": "rhf"
			},
			{
				"type": "unocc",
				"energy": 0.03361,
				"method": "rhf"
			},
			{
				"type": "unocc",
				"energy": 0.06482,
				"method": "rhf"
			},
			{
				"type": "unocc",
				"energy": 0.07132,
				"method": "rhf"
			},
			{
				"type": "unocc",
				"energy": 0.07733,
				"method": "rhf"
			}
		],
		"cosmo_sigma_profile": { 
			"-0.025": 0.0,
			"-0.024": 0.0,
			"-0.023": 0.0,
			"-0.022": 0.0,
			"-0.021": 0.0,
			"-0.02": 0.0,
			"-0.019": 0.0,
			"-0.018": 0.152388934215,
			"-0.017": 1.51285384453,
			"-0.016": 2.24267467349,
			"-0.015": 2.55666382116,
			"-0.014": 3.61114052176,
			"-0.013": 2.28019545576,
			"-0.012": 2.65503924563,
			"-0.011": 3.18776873332,
			"-0.01": 2.68768612601,
			"-0.009": 3.70483304068,
			"-0.008": 5.30870618993,
			"-0.007": 3.73597701666,
			"-0.006": 5.64839231132,
			"-0.005": 7.98237383451,
			"-0.004": 10.9848337193,
			"-0.003": 20.6707141891,
			"-0.002": 27.3565014509,
			"-0.001": 24.0565156436,
			"0.0": 22.2027669261,
			"0.001": 27.9958276472,
			"0.002": 17.3932423453,
			"0.003": 9.22879837346,
			"0.004": 11.8700216986,
			"0.005": 18.5401107052,
			"0.006": 14.929975604,
			"0.007": 6.13751237513,
			"0.008": 5.60278382236,
			"0.009": 5.39887851431,
			"0.01": 6.53238374866,
			"0.011": 4.60218138041,
			"0.012": 3.92518116088,
			"0.013": 0.788645272439,
			"0.014": 0.359909928976,
			"0.015": 0.0,
			"0.016": 0.0,
			"0.017": 0.0,
			"0.018": 0.0,
			"0.019": 0.0,
			"0.02": 0.0,
			"0.021": 0.0,
			"0.022": 0.0,
			"0.023": 0.0,
			"0.024": 0.0,
			"0.025": 0.0
		}
	}
}
