{
	 "smiles": "COC1=C(OC)C=C(C=NO)C=C1", 
	 "Tm": 365.15, 
	 "num_atms": 24, 
	 "gaussian": { 
		 "optdone": 1, 
		 "sigma_profile": "yes", 
		 "theory": "DFT", 
		 "functional": "B3LYP", 
		 "basiset": "6-31G**", 
		 "properties": { 
			 "R2extent": 3621.3357, 
			 "electric_dipole_moment_norm": 1.21611538104, 
			 "electric_quadrupole_moment_norm": 9.06601912583, 
			 "total_energy": -629.913343842, 
			 "HOMO_LUMO_gap": 0.18205, 
			 "cosmo_polarized_energy": -9.95, 
			 "cosmo_cavitation_energy": 27.98, 
			 "cosmo_dispersion_energy": -20.31, 
			 "cosmo_repulsion_energy": 1.62, 
			 "cosmo_total_nonelectrostatic_energy": 9.28, 
			 "SMD_solvation_energy": 6.44 
		},
		"coords": [
			{
				"x": -0.7588023933,
				"y": 3.7602494004,
				"z": -0.880417058,
				"element": "C" 
			},
			{
				"x": 0.3779105222,
				"y": 2.8886113808,
				"z": -0.8107839324,
				"element": "O" 
			},
			{
				"x": 0.1383473537,
				"y": 1.5838856922,
				"z": -1.1694138636,
				"element": "C" 
			},
			{
				"x": -0.6848140084,
				"y": 0.7393429555,
				"z": -0.3985356546,
				"element": "C" 
			},
			{
				"x": -1.331997875,
				"y": 1.1952566164,
				"z": 0.7298241199,
				"element": "O" 
			},
			{
				"x": -0.4702279097,
				"y": 1.4714647326,
				"z": 1.8410221809,
				"element": "C" 
			},
			{
				"x": -0.8825499486,
				"y": -0.5764577271,
				"z": -0.8018837801,
				"element": "C" 
			},
			{
				"x": -0.2671638951,
				"y": -1.0991106177,
				"z": -1.9562077699,
				"element": "C" 
			},
			{
				"x": -0.5612824376,
				"y": -2.5017771917,
				"z": -2.2722396995,
				"element": "C" 
			},
			{
				"x": -0.1903477988,
				"y": -3.2946184741,
				"z": -3.2142222484,
				"element": "N" 
			},
			{
				"x": 0.6795703754,
				"y": -2.7054480706,
				"z": -4.1429131492,
				"element": "O" 
			},
			{
				"x": 0.5794624621,
				"y": -0.2528800409,
				"z": -2.6997660929,
				"element": "C" 
			},
			{
				"x": 0.7679469362,
				"y": 1.0688445039,
				"z": -2.3045926653,
				"element": "C" 
			},
			{
				"x": -1.130477867,
				"y": 3.8265207833,
				"z": -1.9104287771,
				"element": "H" 
			},
			{
				"x": -0.4076839856,
				"y": 4.7430682349,
				"z": -0.5600708138,
				"element": "H" 
			},
			{
				"x": -1.5645770932,
				"y": 3.4201803649,
				"z": -0.2234561128,
				"element": "H" 
			},
			{
				"x": 0.050578886,
				"y": 0.5610532255,
				"z": 2.1631246441,
				"element": "H" 
			},
			{
				"x": 0.2659776581,
				"y": 2.2427037382,
				"z": 1.5934850869,
				"element": "H" 
			},
			{
				"x": -1.1156889285,
				"y": 1.8225223096,
				"z": 2.648689923,
				"element": "H" 
			},
			{
				"x": -1.5315732506,
				"y": -1.1984409222,
				"z": -0.1919973469,
				"element": "H" 
			},
			{
				"x": -1.2359096928,
				"y": -3.0029427847,
				"z": -1.5780935654,
				"element": "H" 
			},
			{
				"x": 0.8424624751,
				"y": -3.4345772332,
				"z": -4.7552170825,
				"element": "H" 
			},
			{
				"x": 1.0722023362,
				"y": -0.6285825769,
				"z": -3.5841374229,
				"element": "H" 
			},
			{
				"x": 1.4083380789,
				"y": 1.7337317008,
				"z": -2.8757689195,
				"element": "H" 
			}
		],
		 "valence_orbital": [ 
			{
				"type": "occ",
				"energy": -0.2775,
				"method": "rhf"
			},
			{
				"type": "occ",
				"energy": -0.26771,
				"method": "rhf"
			},
			{
				"type": "occ",
				"energy": -0.26566,
				"method": "rhf"
			},
			{
				"type": "occ",
				"energy": -0.24315,
				"method": "rhf"
			},
			{
				"type": "occ",
				"energy": -0.22014,
				"method": "rhf"
			},
			{
				"type": "unocc",
				"energy": -0.03809,
				"method": "rhf"
			},
			{
				"type": "unocc",
				"energy": -0.0011,
				"method": "rhf"
			},
			{
				"type": "unocc",
				"energy": 0.058,
				"method": "rhf"
			},
			{
				"type": "unocc",
				"energy": 0.06895,
				"method": "rhf"
			},
			{
				"type": "unocc",
				"energy": 0.08932,
				"method": "rhf"
			}
		],
		"cosmo_sigma_profile": { 
			"-0.025": 0.0,
			"-0.024": 0.0,
			"-0.023": 0.0,
			"-0.022": 0.0,
			"-0.021": 0.0,
			"-0.02": 0.0,
			"-0.019": 0.0,
			"-0.018": 0.115915878894,
			"-0.017": 0.959800514211,
			"-0.016": 1.28059342774,
			"-0.015": 0.868494466773,
			"-0.014": 0.203623872734,
			"-0.013": 0.798738870817,
			"-0.012": 0.833814234456,
			"-0.011": 0.689282481104,
			"-0.01": 0.82811349143,
			"-0.009": 0.615458496523,
			"-0.008": 2.28838647554,
			"-0.007": 4.50373141621,
			"-0.006": 7.3081571894,
			"-0.005": 12.6291877548,
			"-0.004": 17.4704171511,
			"-0.003": 22.3427175445,
			"-0.002": 20.6899833706,
			"-0.001": 16.4840803301,
			"0.0": 12.2258917827,
			"0.001": 11.9527514847,
			"0.002": 16.1505431057,
			"0.003": 20.0353116462,
			"0.004": 13.8017582896,
			"0.005": 7.18217436662,
			"0.006": 7.51235470603,
			"0.007": 5.54243198328,
			"0.008": 4.03342205635,
			"0.009": 3.5503235212,
			"0.01": 3.3435504855,
			"0.011": 2.95697089598,
			"0.012": 1.67235136973,
			"0.013": 0.935997430054,
			"0.014": 0.362694327461,
			"0.015": 0.0,
			"0.016": 0.0,
			"0.017": 0.0,
			"0.018": 0.0,
			"0.019": 0.0,
			"0.02": 0.0,
			"0.021": 0.0,
			"0.022": 0.0,
			"0.023": 0.0,
			"0.024": 0.0,
			"0.025": 0.0
		}
	}
}
