{
	 "smiles": "CC1=CC=C(C=C1[N+]([O-])=O)C#N", 
	 "Tm": 378.65, 
	 "num_atms": 18, 
	 "gaussian": { 
		 "optdone": 1, 
		 "sigma_profile": "yes", 
		 "theory": "DFT", 
		 "functional": "B3LYP", 
		 "basiset": "6-31G**", 
		 "properties": { 
			 "R2extent": 2247.9198, 
			 "electric_dipole_moment_norm": 4.84929836574, 
			 "electric_quadrupole_moment_norm": 15.7278712962, 
			 "total_energy": -568.301065099, 
			 "HOMO_LUMO_gap": 0.17878, 
			 "cosmo_polarized_energy": -12.18, 
			 "cosmo_cavitation_energy": 24.06, 
			 "cosmo_dispersion_energy": -17.09, 
			 "cosmo_repulsion_energy": 1.35, 
			 "cosmo_total_nonelectrostatic_energy": 8.32, 
			 "SMD_solvation_energy": 7.73 
		},
		"coords": [
			{
				"x": 0.6594436824,
				"y": -2.6158246823,
				"z": -1.767075188,
				"element": "C" 
			},
			{
				"x": 0.5618754575,
				"y": -1.4434181499,
				"z": -0.8242791592,
				"element": "C" 
			},
			{
				"x": 0.8249857233,
				"y": -1.6541750227,
				"z": 0.5404292075,
				"element": "C" 
			},
			{
				"x": 0.7593150572,
				"y": -0.637498158,
				"z": 1.4837744181,
				"element": "C" 
			},
			{
				"x": 0.407226901,
				"y": 0.6629403364,
				"z": 1.0858232047,
				"element": "C" 
			},
			{
				"x": 0.1265289284,
				"y": 0.9116579502,
				"z": -0.2602766442,
				"element": "C" 
			},
			{
				"x": 0.2112719542,
				"y": -0.1261691015,
				"z": -1.186486101,
				"element": "C" 
			},
			{
				"x": -0.0927550306,
				"y": 0.2430273335,
				"z": -2.5857495407,
				"element": "N" 
			},
			{
				"x": 0.1924346815,
				"y": -0.5600839296,
				"z": -3.4728955572,
				"element": "O" 
			},
			{
				"x": -0.6086644155,
				"y": 1.3414004543,
				"z": -2.7833476922,
				"element": "O" 
			},
			{
				"x": 0.3339967641,
				"y": 1.7236372002,
				"z": 2.0480444422,
				"element": "C" 
			},
			{
				"x": 0.2778313237,
				"y": 2.5771043257,
				"z": 2.8358145137,
				"element": "N" 
			},
			{
				"x": 1.4758587936,
				"y": -2.4823972618,
				"z": -2.4812880663,
				"element": "H" 
			},
			{
				"x": -0.2483196503,
				"y": -2.733492514,
				"z": -2.3634251918,
				"element": "H" 
			},
			{
				"x": 0.8321434587,
				"y": -3.5318764449,
				"z": -1.1970849165,
				"element": "H" 
			},
			{
				"x": 1.0904231735,
				"y": -2.6560468029,
				"z": 0.8630367767,
				"element": "H" 
			},
			{
				"x": 0.9753818281,
				"y": -0.8415045025,
				"z": 2.5270095212,
				"element": "H" 
			},
			{
				"x": -0.1578786307,
				"y": 1.8982189698,
				"z": -0.6016240273,
				"element": "H" 
			}
		],
		 "valence_orbital": [ 
			{
				"type": "occ",
				"energy": -0.32361,
				"method": "rhf"
			},
			{
				"type": "occ",
				"energy": -0.32049,
				"method": "rhf"
			},
			{
				"type": "occ",
				"energy": -0.30849,
				"method": "rhf"
			},
			{
				"type": "occ",
				"energy": -0.29911,
				"method": "rhf"
			},
			{
				"type": "occ",
				"energy": -0.28325,
				"method": "rhf"
			},
			{
				"type": "unocc",
				"energy": -0.10447,
				"method": "rhf"
			},
			{
				"type": "unocc",
				"energy": -0.06983,
				"method": "rhf"
			},
			{
				"type": "unocc",
				"energy": -0.02622,
				"method": "rhf"
			},
			{
				"type": "unocc",
				"energy": 0.02097,
				"method": "rhf"
			},
			{
				"type": "unocc",
				"energy": 0.06001,
				"method": "rhf"
			}
		],
		"cosmo_sigma_profile": { 
			"-0.025": 0.0,
			"-0.024": 0.0,
			"-0.023": 0.0,
			"-0.022": 0.0,
			"-0.021": 0.0,
			"-0.02": 0.0,
			"-0.019": 0.0,
			"-0.018": 0.0,
			"-0.017": 0.0,
			"-0.016": 0.0,
			"-0.015": 0.0,
			"-0.014": 0.0,
			"-0.013": 0.0,
			"-0.012": 0.0,
			"-0.011": 0.0,
			"-0.01": 0.291400404339,
			"-0.009": 3.37785145833,
			"-0.008": 6.90176299856,
			"-0.007": 8.96747592515,
			"-0.006": 9.00090856238,
			"-0.005": 11.5737982029,
			"-0.004": 14.1000124532,
			"-0.003": 16.5590307247,
			"-0.002": 22.5963083546,
			"-0.001": 20.6570280868,
			"0.0": 10.7280163532,
			"0.001": 7.61215831315,
			"0.002": 3.51450532785,
			"0.003": 4.92457415506,
			"0.004": 4.6949582653,
			"0.005": 6.41112134617,
			"0.006": 5.74329968304,
			"0.007": 10.673898917,
			"0.008": 8.60108732182,
			"0.009": 7.40666913858,
			"0.01": 4.42833310227,
			"0.011": 2.74118063608,
			"0.012": 2.11230315065,
			"0.013": 0.65521568293,
			"0.014": 0.0,
			"0.015": 0.0,
			"0.016": 0.0,
			"0.017": 0.0,
			"0.018": 0.0,
			"0.019": 0.0,
			"0.02": 0.0,
			"0.021": 0.0,
			"0.022": 0.0,
			"0.023": 0.0,
			"0.024": 0.0,
			"0.025": 0.0
		}
	}
}
