{
	 "smiles": "CNS(=O)(=O)C1=C(Cl)C(C(O)=O)=C(Cl)C=C1", 
	 "Tm": 410.15, 
	 "num_atms": 23, 
	 "gaussian": { 
		 "optdone": 1, 
		 "sigma_profile": "yes", 
		 "theory": "DFT", 
		 "functional": "B3LYP", 
		 "basiset": "6-31G**", 
		 "properties": { 
			 "R2extent": 6073.8114, 
			 "electric_dipole_moment_norm": 6.2498725787, 
			 "electric_quadrupole_moment_norm": 22.7361319938, 
			 "total_energy": -1983.20091124, 
			 "HOMO_LUMO_gap": 0.20689, 
			 "cosmo_polarized_energy": -22.58, 
			 "cosmo_cavitation_energy": 32.87, 
			 "cosmo_dispersion_energy": -23.66, 
			 "cosmo_repulsion_energy": 1.81, 
			 "cosmo_total_nonelectrostatic_energy": 11.03, 
			 "SMD_solvation_energy": 5.62 
		},
		"coords": [
			{
				"x": 2.7715055458,
				"y": -2.9404421097,
				"z": 0.4465086384,
				"element": "C" 
			},
			{
				"x": 3.2196017317,
				"y": -1.5751014995,
				"z": 0.1439971714,
				"element": "N" 
			},
			{
				"x": 2.8787614354,
				"y": -0.9394189596,
				"z": -1.37345895,
				"element": "S" 
			},
			{
				"x": 2.3844747515,
				"y": -2.0066890868,
				"z": -2.2485617024,
				"element": "O" 
			},
			{
				"x": 4.019859669,
				"y": -0.1061843937,
				"z": -1.7478727992,
				"element": "O" 
			},
			{
				"x": 1.4495374381,
				"y": 0.1259621933,
				"z": -1.0567014657,
				"element": "C" 
			},
			{
				"x": 1.4722032098,
				"y": 1.2372975984,
				"z": -0.2008279538,
				"element": "C" 
			},
			{
				"x": 2.9070175881,
				"y": 1.6719213509,
				"z": 0.6966474499,
				"element": "Cl" 
			},
			{
				"x": 0.3292659529,
				"y": 2.0350160412,
				"z": -0.0357597207,
				"element": "C" 
			},
			{
				"x": 0.3645382231,
				"y": 3.284890573,
				"z": 0.8279301204,
				"element": "C" 
			},
			{
				"x": 0.2736862202,
				"y": 3.0754482868,
				"z": 2.1601048457,
				"element": "O" 
			},
			{
				"x": 0.4528094076,
				"y": 4.391045282,
				"z": 0.3690286137,
				"element": "O" 
			},
			{
				"x": -0.8305998353,
				"y": 1.6987142846,
				"z": -0.7508917656,
				"element": "C" 
			},
			{
				"x": -2.280821283,
				"y": 2.6530058347,
				"z": -0.5546209431,
				"element": "Cl" 
			},
			{
				"x": -0.8627769185,
				"y": 0.6001886095,
				"z": -1.6059870305,
				"element": "C" 
			},
			{
				"x": 0.2804140934,
				"y": -0.1774798867,
				"z": -1.7570783706,
				"element": "C" 
			},
			{
				"x": 3.2097799744,
				"y": -3.6997125726,
				"z": -0.2090776481,
				"element": "H" 
			},
			{
				"x": 1.6842111143,
				"y": -2.9934365346,
				"z": 0.3620632354,
				"element": "H" 
			},
			{
				"x": 3.0414910545,
				"y": -3.1511844617,
				"z": 1.4839630287,
				"element": "H" 
			},
			{
				"x": 4.1949005708,
				"y": -1.3821333393,
				"z": 0.3525059421,
				"element": "H" 
			},
			{
				"x": 0.2215255252,
				"y": 2.1272144713,
				"z": 2.3495527673,
				"element": "H" 
			},
			{
				"x": -1.7714737414,
				"y": 0.3611635048,
				"z": -2.1457783644,
				"element": "H" 
			},
			{
				"x": 0.2838882722,
				"y": -1.0339851864,
				"z": -2.4212850988,
				"element": "H" 
			}
		],
		 "valence_orbital": [ 
			{
				"type": "occ",
				"energy": -0.31652,
				"method": "rhf"
			},
			{
				"type": "occ",
				"energy": -0.30457,
				"method": "rhf"
			},
			{
				"type": "occ",
				"energy": -0.29306,
				"method": "rhf"
			},
			{
				"type": "occ",
				"energy": -0.28077,
				"method": "rhf"
			},
			{
				"type": "occ",
				"energy": -0.27498,
				"method": "rhf"
			},
			{
				"type": "unocc",
				"energy": -0.06809,
				"method": "rhf"
			},
			{
				"type": "unocc",
				"energy": -0.05821,
				"method": "rhf"
			},
			{
				"type": "unocc",
				"energy": -0.01699,
				"method": "rhf"
			},
			{
				"type": "unocc",
				"energy": -0.01159,
				"method": "rhf"
			},
			{
				"type": "unocc",
				"energy": 0.0232,
				"method": "rhf"
			}
		],
		"cosmo_sigma_profile": { 
			"-0.025": 0.0,
			"-0.024": 0.0,
			"-0.023": 0.0,
			"-0.022": 0.0,
			"-0.021": 0.00416676170525,
			"-0.02": 0.607190907619,
			"-0.019": 0.763788733395,
			"-0.018": 1.06474188678,
			"-0.017": 0.966695150637,
			"-0.016": 1.01909896327,
			"-0.015": 1.34849855267,
			"-0.014": 2.09012406656,
			"-0.013": 1.52785820654,
			"-0.012": 1.79281312048,
			"-0.011": 2.44013549,
			"-0.01": 1.94919699506,
			"-0.009": 4.36669243288,
			"-0.008": 5.96240148296,
			"-0.007": 6.84737344201,
			"-0.006": 9.48012492838,
			"-0.005": 12.3121142117,
			"-0.004": 14.4315180173,
			"-0.003": 20.8517439307,
			"-0.002": 23.6171931665,
			"-0.001": 19.2476519522,
			"0.0": 18.1350479863,
			"0.001": 15.5321661089,
			"0.002": 15.8780578818,
			"0.003": 13.4813525672,
			"0.004": 7.85976088422,
			"0.005": 6.76779881937,
			"0.006": 6.25753856581,
			"0.007": 7.91428406736,
			"0.008": 8.26505383687,
			"0.009": 9.71045589815,
			"0.01": 14.6450123065,
			"0.011": 9.41120770493,
			"0.012": 0.495550789237,
			"0.013": 0.0,
			"0.014": 0.0,
			"0.015": 0.0,
			"0.016": 0.0,
			"0.017": 0.0,
			"0.018": 0.0,
			"0.019": 0.0,
			"0.02": 0.0,
			"0.021": 0.0,
			"0.022": 0.0,
			"0.023": 0.0,
			"0.024": 0.0,
			"0.025": 0.0
		}
	}
}
