{
	 "smiles": "CCOC(=O)C1=CC=C(NC(C)=O)C(=C1)[N+]([O-])=O", 
	 "Tm": 369.15, 
	 "num_atms": 30, 
	 "gaussian": { 
		 "optdone": 1, 
		 "sigma_profile": "yes", 
		 "theory": "DFT", 
		 "functional": "B3LYP", 
		 "basiset": "6-31G**", 
		 "properties": { 
			 "R2extent": 6150.6101, 
			 "electric_dipole_moment_norm": 4.33501388002, 
			 "electric_quadrupole_moment_norm": 19.531984264, 
			 "total_energy": -911.959606736, 
			 "HOMO_LUMO_gap": 0.14859, 
			 "cosmo_polarized_energy": -16.34, 
			 "cosmo_cavitation_energy": 35.49, 
			 "cosmo_dispersion_energy": -25.39, 
			 "cosmo_repulsion_energy": 1.98, 
			 "cosmo_total_nonelectrostatic_energy": 12.09, 
			 "SMD_solvation_energy": 10.05 
		},
		"coords": [
			{
				"x": 5.3456280589,
				"y": 2.2084688406,
				"z": -0.2876623448,
				"element": "C" 
			},
			{
				"x": 4.6603078158,
				"y": 1.2637713504,
				"z": -1.2555733697,
				"element": "C" 
			},
			{
				"x": 3.3124154479,
				"y": 1.0477484212,
				"z": -0.7716610003,
				"element": "O" 
			},
			{
				"x": 2.5451637197,
				"y": 0.2241187101,
				"z": -1.5118055987,
				"element": "C" 
			},
			{
				"x": 2.922994009,
				"y": -0.3226481113,
				"z": -2.5305559843,
				"element": "O" 
			},
			{
				"x": 1.1793517473,
				"y": 0.0557361955,
				"z": -0.9420253308,
				"element": "C" 
			},
			{
				"x": 0.2645098804,
				"y": -0.7614880183,
				"z": -1.6242144651,
				"element": "C" 
			},
			{
				"x": -1.0188392576,
				"y": -0.9514176848,
				"z": -1.1446351933,
				"element": "C" 
			},
			{
				"x": -1.4636572356,
				"y": -0.3484127889,
				"z": 0.0541760464,
				"element": "C" 
			},
			{
				"x": -2.7414451854,
				"y": -0.5350921789,
				"z": 0.5473125341,
				"element": "N" 
			},
			{
				"x": -3.682436916,
				"y": -1.5657091623,
				"z": 0.4090076939,
				"element": "C" 
			},
			{
				"x": -3.322412749,
				"y": -2.8443463726,
				"z": -0.3196573368,
				"element": "C" 
			},
			{
				"x": -4.7716385045,
				"y": -1.412517433,
				"z": 0.9314278221,
				"element": "O" 
			},
			{
				"x": -0.5270121934,
				"y": 0.5004469735,
				"z": 0.7158536061,
				"element": "C" 
			},
			{
				"x": 0.7664214397,
				"y": 0.687304761,
				"z": 0.2252968432,
				"element": "C" 
			},
			{
				"x": -0.850626187,
				"y": 1.2298780991,
				"z": 1.9449837239,
				"element": "N" 
			},
			{
				"x": 0.0734397143,
				"y": 1.732600109,
				"z": 2.5778171125,
				"element": "O" 
			},
			{
				"x": -2.0389949684,
				"y": 1.3247559697,
				"z": 2.2905599418,
				"element": "O" 
			},
			{
				"x": 4.8197420121,
				"y": 3.1660056592,
				"z": -0.2356187074,
				"element": "H" 
			},
			{
				"x": 6.3710627274,
				"y": 2.3970044077,
				"z": -0.620047608,
				"element": "H" 
			},
			{
				"x": 5.3834829419,
				"y": 1.7800527186,
				"z": 0.7178954807,
				"element": "H" 
			},
			{
				"x": 5.1677829462,
				"y": 0.2962882822,
				"z": -1.3196151809,
				"element": "H" 
			},
			{
				"x": 4.6062034608,
				"y": 1.6754496016,
				"z": -2.26811488,
				"element": "H" 
			},
			{
				"x": 0.5800178545,
				"y": -1.2287430573,
				"z": -2.5510842733,
				"element": "H" 
			},
			{
				"x": -1.7107034916,
				"y": -1.5476292285,
				"z": -1.721363748,
				"element": "H" 
			},
			{
				"x": -3.0254784316,
				"y": 0.1561311034,
				"z": 1.2387111192,
				"element": "H" 
			},
			{
				"x": -2.28331798,
				"y": -3.1456565478,
				"z": -0.1694529329,
				"element": "H" 
			},
			{
				"x": -3.9929551693,
				"y": -3.6189164849,
				"z": 0.0535516204,
				"element": "H" 
			},
			{
				"x": -3.5009970866,
				"y": -2.7393347454,
				"z": -1.3952510534,
				"element": "H" 
			},
			{
				"x": 1.43769158,
				"y": 1.3330506112,
				"z": 0.7744454636,
				"element": "H" 
			}
		],
		 "valence_orbital": [ 
			{
				"type": "occ",
				"energy": -0.30788,
				"method": "rhf"
			},
			{
				"type": "occ",
				"energy": -0.29393,
				"method": "rhf"
			},
			{
				"type": "occ",
				"energy": -0.28696,
				"method": "rhf"
			},
			{
				"type": "occ",
				"energy": -0.27355,
				"method": "rhf"
			},
			{
				"type": "occ",
				"energy": -0.25183,
				"method": "rhf"
			},
			{
				"type": "unocc",
				"energy": -0.10324,
				"method": "rhf"
			},
			{
				"type": "unocc",
				"energy": -0.06631,
				"method": "rhf"
			},
			{
				"type": "unocc",
				"energy": -0.02145,
				"method": "rhf"
			},
			{
				"type": "unocc",
				"energy": 0.00178,
				"method": "rhf"
			},
			{
				"type": "unocc",
				"energy": 0.04794,
				"method": "rhf"
			}
		],
		"cosmo_sigma_profile": { 
			"-0.025": 0.0,
			"-0.024": 0.0,
			"-0.023": 0.0,
			"-0.022": 0.0,
			"-0.021": 0.0,
			"-0.02": 0.0,
			"-0.019": 0.0,
			"-0.018": 0.0,
			"-0.017": 0.0,
			"-0.016": 0.0,
			"-0.015": 0.0,
			"-0.014": 0.0,
			"-0.013": 0.0,
			"-0.012": 0.0,
			"-0.011": 0.0,
			"-0.01": 1.08884332177,
			"-0.009": 2.48578897126,
			"-0.008": 4.21373287565,
			"-0.007": 7.55408236971,
			"-0.006": 12.7964161345,
			"-0.005": 21.4104871234,
			"-0.004": 27.1084716729,
			"-0.003": 29.6177699003,
			"-0.002": 29.4051727314,
			"-0.001": 29.8608863794,
			"0.0": 23.7892360764,
			"0.001": 12.2632026164,
			"0.002": 8.10930718111,
			"0.003": 6.97861199646,
			"0.004": 7.33908206063,
			"0.005": 7.23318186837,
			"0.006": 6.45473701445,
			"0.007": 9.07184797191,
			"0.008": 7.99159641716,
			"0.009": 6.26866288832,
			"0.01": 4.67146945678,
			"0.011": 6.334091522,
			"0.012": 8.65643666044,
			"0.013": 2.22339142918,
			"0.014": 0.0782938541192,
			"0.015": 0.0,
			"0.016": 0.0,
			"0.017": 0.0,
			"0.018": 0.0,
			"0.019": 0.0,
			"0.02": 0.0,
			"0.021": 0.0,
			"0.022": 0.0,
			"0.023": 0.0,
			"0.024": 0.0,
			"0.025": 0.0
		}
	}
}
