{
	 "smiles": "CCNCC(=O)NC1=CC=C(OC)C=C1", 
	 "Tm": 362.15, 
	 "num_atms": 31, 
	 "gaussian": { 
		 "optdone": 1, 
		 "sigma_profile": "yes", 
		 "theory": "DFT", 
		 "functional": "B3LYP", 
		 "basiset": "6-31G**", 
		 "properties": { 
			 "R2extent": 4894.8483, 
			 "electric_dipole_moment_norm": 3.4506999319, 
			 "electric_quadrupole_moment_norm": 6.66613487637, 
			 "total_energy": -688.761651922, 
			 "HOMO_LUMO_gap": 0.20041, 
			 "cosmo_polarized_energy": -12.88, 
			 "cosmo_cavitation_energy": 34.26, 
			 "cosmo_dispersion_energy": -24.3, 
			 "cosmo_repulsion_energy": 1.95, 
			 "cosmo_total_nonelectrostatic_energy": 11.91, 
			 "SMD_solvation_energy": 6.22 
		},
		"coords": [
			{
				"x": 1.824845952,
				"y": -2.2911457102,
				"z": -2.872113279,
				"element": "C" 
			},
			{
				"x": 1.0499465447,
				"y": -2.3494065644,
				"z": -1.5582138125,
				"element": "C" 
			},
			{
				"x": -0.0297519625,
				"y": -1.3621876653,
				"z": -1.5439678087,
				"element": "N" 
			},
			{
				"x": -0.838164166,
				"y": -1.4090715521,
				"z": -0.3253651367,
				"element": "C" 
			},
			{
				"x": -2.0550001254,
				"y": -0.5086240652,
				"z": -0.5181882559,
				"element": "C" 
			},
			{
				"x": -2.9724705314,
				"y": -0.8632601263,
				"z": -1.2505145464,
				"element": "O" 
			},
			{
				"x": -2.1146158664,
				"y": 0.688768764,
				"z": 0.1535891743,
				"element": "N" 
			},
			{
				"x": -1.0947308427,
				"y": 1.4111959529,
				"z": 0.828880686,
				"element": "C" 
			},
			{
				"x": -1.4247053893,
				"y": 2.1249164307,
				"z": 1.9920589597,
				"element": "C" 
			},
			{
				"x": -0.4669199928,
				"y": 2.8796390892,
				"z": 2.6539997972,
				"element": "C" 
			},
			{
				"x": 0.8528622961,
				"y": 2.9215170027,
				"z": 2.1787695489,
				"element": "C" 
			},
			{
				"x": 1.7217340161,
				"y": 3.6809041246,
				"z": 2.9085363867,
				"element": "O" 
			},
			{
				"x": 3.0677907021,
				"y": 3.7667061853,
				"z": 2.4697772323,
				"element": "C" 
			},
			{
				"x": 1.1895589457,
				"y": 2.2098759488,
				"z": 1.0220345375,
				"element": "C" 
			},
			{
				"x": 0.2142594353,
				"y": 1.4751219222,
				"z": 0.3418330863,
				"element": "C" 
			},
			{
				"x": 2.2313297963,
				"y": -1.2888368612,
				"z": -3.0362318216,
				"element": "H" 
			},
			{
				"x": 1.1777154632,
				"y": -2.5360649746,
				"z": -3.7223746426,
				"element": "H" 
			},
			{
				"x": 2.6519420617,
				"y": -3.0077728809,
				"z": -2.8680301307,
				"element": "H" 
			},
			{
				"x": 0.6795495649,
				"y": -3.3779096508,
				"z": -1.3866080313,
				"element": "H" 
			},
			{
				"x": 1.7230346494,
				"y": -2.1220087803,
				"z": -0.7211214625,
				"element": "H" 
			},
			{
				"x": -0.6545266661,
				"y": -1.533377004,
				"z": -2.3308422285,
				"element": "H" 
			},
			{
				"x": -0.2240730778,
				"y": -1.1010018292,
				"z": 0.5255903614,
				"element": "H" 
			},
			{
				"x": -1.2382778007,
				"y": -2.4151683684,
				"z": -0.1093837136,
				"element": "H" 
			},
			{
				"x": -2.9968372429,
				"y": 1.1650978231,
				"z": 0.0042856785,
				"element": "H" 
			},
			{
				"x": -2.4394711317,
				"y": 2.0792026206,
				"z": 2.3777166393,
				"element": "H" 
			},
			{
				"x": -0.7135061265,
				"y": 3.4374801864,
				"z": 3.5512969124,
				"element": "H" 
			},
			{
				"x": 3.1408415246,
				"y": 4.2124648004,
				"z": 1.4692265356,
				"element": "H" 
			},
			{
				"x": 3.5545816619,
				"y": 2.7827241167,
				"z": 2.4588949716,
				"element": "H" 
			},
			{
				"x": 3.5785933979,
				"y": 4.4109891892,
				"z": 3.1870145033,
				"element": "H" 
			},
			{
				"x": 2.1976460615,
				"y": 2.2343626189,
				"z": 0.6255030975,
				"element": "H" 
			},
			{
				"x": 0.4702188488,
				"y": 0.9481692571,
				"z": -0.5734532384,
				"element": "H" 
			}
		],
		 "valence_orbital": [ 
			{
				"type": "occ",
				"energy": -0.27378,
				"method": "rhf"
			},
			{
				"type": "occ",
				"energy": -0.25712,
				"method": "rhf"
			},
			{
				"type": "occ",
				"energy": -0.24813,
				"method": "rhf"
			},
			{
				"type": "occ",
				"energy": -0.22816,
				"method": "rhf"
			},
			{
				"type": "occ",
				"energy": -0.20879,
				"method": "rhf"
			},
			{
				"type": "unocc",
				"energy": -0.00838,
				"method": "rhf"
			},
			{
				"type": "unocc",
				"energy": -0.00409,
				"method": "rhf"
			},
			{
				"type": "unocc",
				"energy": 0.03411,
				"method": "rhf"
			},
			{
				"type": "unocc",
				"energy": 0.08907,
				"method": "rhf"
			},
			{
				"type": "unocc",
				"energy": 0.09544,
				"method": "rhf"
			}
		],
		"cosmo_sigma_profile": { 
			"-0.025": 0.0,
			"-0.024": 0.0,
			"-0.023": 0.0,
			"-0.022": 0.0,
			"-0.021": 0.0,
			"-0.02": 0.0,
			"-0.019": 0.0,
			"-0.018": 0.0,
			"-0.017": 0.0,
			"-0.016": 0.0,
			"-0.015": 0.0,
			"-0.014": 0.705946140064,
			"-0.013": 1.01540513066,
			"-0.012": 0.772015506229,
			"-0.011": 1.42021128858,
			"-0.01": 0.960075334239,
			"-0.009": 1.48952328327,
			"-0.008": 1.78044775877,
			"-0.007": 3.97318044975,
			"-0.006": 10.47025357,
			"-0.005": 17.5984222027,
			"-0.004": 20.6545811227,
			"-0.003": 29.7648053479,
			"-0.002": 27.4707747733,
			"-0.001": 24.9929927354,
			"0.0": 20.6068358806,
			"0.001": 20.787308246,
			"0.002": 15.5679335066,
			"0.003": 12.7684783459,
			"0.004": 14.8622370297,
			"0.005": 10.5158283709,
			"0.006": 4.46682372336,
			"0.007": 4.26539126275,
			"0.008": 2.40359989008,
			"0.009": 3.21816757287,
			"0.01": 3.4361459439,
			"0.011": 1.96588281226,
			"0.012": 2.57056526279,
			"0.013": 4.23498058765,
			"0.014": 4.11985840868,
			"0.015": 0.531533515476,
			"0.016": 0.0,
			"0.017": 0.0,
			"0.018": 0.0,
			"0.019": 0.0,
			"0.02": 0.0,
			"0.021": 0.0,
			"0.022": 0.0,
			"0.023": 0.0,
			"0.024": 0.0,
			"0.025": 0.0
		}
	}
}
