{
	 "smiles": "CCC(=O)C1CCCCC1C(C)(C)C(O)=O", 
	 "Tm": 388.15, 
	 "num_atms": 38, 
	 "gaussian": { 
		 "optdone": 1, 
		 "sigma_profile": "yes", 
		 "theory": "DFT", 
		 "functional": "B3LYP", 
		 "basiset": "6-31G**", 
		 "properties": { 
			 "R2extent": 3956.8728, 
			 "electric_dipole_moment_norm": 1.86736185567, 
			 "electric_quadrupole_moment_norm": 16.8736689365, 
			 "total_energy": -734.342136004, 
			 "HOMO_LUMO_gap": 0.2257, 
			 "cosmo_polarized_energy": -13.7, 
			 "cosmo_cavitation_energy": 35.98, 
			 "cosmo_dispersion_energy": -24.71, 
			 "cosmo_repulsion_energy": 1.92, 
			 "cosmo_total_nonelectrostatic_energy": 13.19, 
			 "SMD_solvation_energy": 7.0 
		},
		"coords": [
			{
				"x": -1.1094831578,
				"y": -2.8549271208,
				"z": -2.933491449,
				"element": "C" 
			},
			{
				"x": -0.5960780519,
				"y": -2.0654849801,
				"z": -1.7299821383,
				"element": "C" 
			},
			{
				"x": -0.8180506642,
				"y": -0.558905115,
				"z": -1.8620657656,
				"element": "C" 
			},
			{
				"x": -1.5037137675,
				"y": -0.1098932843,
				"z": -2.7643742706,
				"element": "O" 
			},
			{
				"x": -0.0966656451,
				"y": 0.3927193871,
				"z": -0.8984275939,
				"element": "C" 
			},
			{
				"x": 1.3925395309,
				"y": 0.4527320436,
				"z": -1.3340508046,
				"element": "C" 
			},
			{
				"x": 2.136597143,
				"y": 1.6237102055,
				"z": -0.661433526,
				"element": "C" 
			},
			{
				"x": 1.6170612448,
				"y": 1.8816319518,
				"z": 0.7695589973,
				"element": "C" 
			},
			{
				"x": 1.0379718226,
				"y": 0.6031341924,
				"z": 1.3937199763,
				"element": "C" 
			},
			{
				"x": -0.2007434272,
				"y": 0.049154779,
				"z": 0.6212753049,
				"element": "C" 
			},
			{
				"x": -1.5726791397,
				"y": 0.4462261378,
				"z": 1.3073165378,
				"element": "C" 
			},
			{
				"x": -1.7102383023,
				"y": -0.3217761512,
				"z": 2.6379189614,
				"element": "C" 
			},
			{
				"x": -2.7925673525,
				"y": 0.1030733982,
				"z": 0.4235035553,
				"element": "C" 
			},
			{
				"x": -1.5846292965,
				"y": 1.9433009674,
				"z": 1.6279911059,
				"element": "C" 
			},
			{
				"x": -1.8505853596,
				"y": 2.7190006735,
				"z": 0.5437603566,
				"element": "O" 
			},
			{
				"x": -1.3733462666,
				"y": 2.4343325905,
				"z": 2.7167906439,
				"element": "O" 
			},
			{
				"x": -2.1731009687,
				"y": -2.6657509538,
				"z": -3.0958534418,
				"element": "H" 
			},
			{
				"x": -0.9630392704,
				"y": -3.9286483752,
				"z": -2.7828330192,
				"element": "H" 
			},
			{
				"x": -0.5861173984,
				"y": -2.5603705263,
				"z": -3.8474217125,
				"element": "H" 
			},
			{
				"x": -1.0991984438,
				"y": -2.4010842857,
				"z": -0.8127024449,
				"element": "H" 
			},
			{
				"x": 0.470304488,
				"y": -2.2571597782,
				"z": -1.5538991926,
				"element": "H" 
			},
			{
				"x": -0.5383956827,
				"y": 1.3755943388,
				"z": -1.0893128398,
				"element": "H" 
			},
			{
				"x": 1.4551023569,
				"y": 0.5437544781,
				"z": -2.4239363037,
				"element": "H" 
			},
			{
				"x": 1.8803091605,
				"y": -0.4949700348,
				"z": -1.0738144225,
				"element": "H" 
			},
			{
				"x": 3.2093764252,
				"y": 1.3978258153,
				"z": -0.6429875542,
				"element": "H" 
			},
			{
				"x": 2.0225494155,
				"y": 2.5306456019,
				"z": -1.2659845168,
				"element": "H" 
			},
			{
				"x": 2.418662909,
				"y": 2.274352569,
				"z": 1.4042489339,
				"element": "H" 
			},
			{
				"x": 0.8451529625,
				"y": 2.6575729439,
				"z": 0.7467411619,
				"element": "H" 
			},
			{
				"x": 0.778280858,
				"y": 0.7920630879,
				"z": 2.4382119953,
				"element": "H" 
			},
			{
				"x": 1.8204962769,
				"y": -0.1653084466,
				"z": 1.4109615331,
				"element": "H" 
			},
			{
				"x": -0.1671359273,
				"y": -1.0432757237,
				"z": 0.7140420137,
				"element": "H" 
			},
			{
				"x": -0.8886683236,
				"y": -0.117166904,
				"z": 3.3258307537,
				"element": "H" 
			},
			{
				"x": -2.6362469195,
				"y": -0.0437220104,
				"z": 3.1490113759,
				"element": "H" 
			},
			{
				"x": -1.740161247,
				"y": -1.3982518219,
				"z": 2.4402151247,
				"element": "H" 
			},
			{
				"x": -2.7956948702,
				"y": 0.6400350461,
				"z": -0.524327073,
				"element": "H" 
			},
			{
				"x": -3.719329722,
				"y": 0.3504152201,
				"z": 0.951911449,
				"element": "H" 
			},
			{
				"x": -2.8166468035,
				"y": -0.9717645733,
				"z": 0.2167899412,
				"element": "H" 
			},
			{
				"x": -1.8205885855,
				"y": 3.6375846574,
				"z": 0.8613983475,
				"element": "H" 
			}
		],
		 "valence_orbital": [ 
			{
				"type": "occ",
				"energy": -0.31897,
				"method": "rhf"
			},
			{
				"type": "occ",
				"energy": -0.30124,
				"method": "rhf"
			},
			{
				"type": "occ",
				"energy": -0.30027,
				"method": "rhf"
			},
			{
				"type": "occ",
				"energy": -0.2709,
				"method": "rhf"
			},
			{
				"type": "occ",
				"energy": -0.23654,
				"method": "rhf"
			},
			{
				"type": "unocc",
				"energy": -0.01084,
				"method": "rhf"
			},
			{
				"type": "unocc",
				"energy": 0.00456,
				"method": "rhf"
			},
			{
				"type": "unocc",
				"energy": 0.06204,
				"method": "rhf"
			},
			{
				"type": "unocc",
				"energy": 0.06908,
				"method": "rhf"
			},
			{
				"type": "unocc",
				"energy": 0.08767,
				"method": "rhf"
			}
		],
		"cosmo_sigma_profile": { 
			"-0.025": 0.0,
			"-0.024": 0.0,
			"-0.023": 0.0,
			"-0.022": 0.0,
			"-0.021": 0.0,
			"-0.02": 0.0,
			"-0.019": 0.0157339373562,
			"-0.018": 0.502123458478,
			"-0.017": 1.21873783845,
			"-0.016": 0.515438870217,
			"-0.015": 0.395351960052,
			"-0.014": 0.759586836214,
			"-0.013": 0.386712362662,
			"-0.012": 1.02608722386,
			"-0.011": 1.17666742728,
			"-0.01": 0.756706364808,
			"-0.009": 0.329564503429,
			"-0.008": 0.582774931537,
			"-0.007": 1.63113471585,
			"-0.006": 4.0506018552,
			"-0.005": 9.3974718357,
			"-0.004": 17.7798567563,
			"-0.003": 31.1833550473,
			"-0.002": 36.8723618035,
			"-0.001": 43.433146774,
			"0.0": 34.1347444068,
			"0.001": 27.5906846558,
			"0.002": 9.61890263118,
			"0.003": 6.99907448536,
			"0.004": 6.03049824557,
			"0.005": 5.11899510093,
			"0.006": 4.12167592605,
			"0.007": 4.5740442296,
			"0.008": 3.05965102437,
			"0.009": 3.07421688042,
			"0.01": 3.16843553232,
			"0.011": 5.26792057317,
			"0.012": 8.23516120611,
			"0.013": 3.67637771121,
			"0.014": 0.410744611038,
			"0.015": 0.0,
			"0.016": 0.0,
			"0.017": 0.0,
			"0.018": 0.0,
			"0.019": 0.0,
			"0.02": 0.0,
			"0.021": 0.0,
			"0.022": 0.0,
			"0.023": 0.0,
			"0.024": 0.0,
			"0.025": 0.0
		}
	}
}
