{
	 "smiles": "CC1=C2NC(=N)SC2=CC=C1", 
	 "Tm": 411.15, 
	 "num_atms": 19, 
	 "gaussian": { 
		 "optdone": 1, 
		 "sigma_profile": "yes", 
		 "theory": "DFT", 
		 "functional": "B3LYP", 
		 "basiset": "6-31G**", 
		 "properties": { 
			 "R2extent": 2290.6485, 
			 "electric_dipole_moment_norm": 2.18036997549, 
			 "electric_quadrupole_moment_norm": 9.04614599153, 
			 "total_energy": -817.373983622, 
			 "HOMO_LUMO_gap": 0.19335, 
			 "cosmo_polarized_energy": -9.88, 
			 "cosmo_cavitation_energy": 24.2, 
			 "cosmo_dispersion_energy": -18.57, 
			 "cosmo_repulsion_energy": 1.43, 
			 "cosmo_total_nonelectrostatic_energy": 7.06, 
			 "SMD_solvation_energy": 2.65 
		},
		"coords": [
			{
				"x": -0.1759706959,
				"y": 2.793270502,
				"z": 0.8065154822,
				"element": "C" 
			},
			{
				"x": -0.5671571532,
				"y": 1.3400395505,
				"z": 0.7073144574,
				"element": "C" 
			},
			{
				"x": -0.6322927296,
				"y": 0.6982272024,
				"z": -0.5373809498,
				"element": "C" 
			},
			{
				"x": -0.3629949654,
				"y": 1.2744708557,
				"z": -1.7710147523,
				"element": "N" 
			},
			{
				"x": -0.4816839055,
				"y": 0.476445982,
				"z": -2.8969330702,
				"element": "C" 
			},
			{
				"x": -0.2579193421,
				"y": 0.9061201706,
				"z": -4.0731667013,
				"element": "N" 
			},
			{
				"x": -0.9865448289,
				"y": -1.1753317199,
				"z": -2.3396751225,
				"element": "S" 
			},
			{
				"x": -0.995378674,
				"y": -0.6551717539,
				"z": -0.6439098554,
				"element": "C" 
			},
			{
				"x": -1.3030791421,
				"y": -1.404788707,
				"z": 0.4862425311,
				"element": "C" 
			},
			{
				"x": -1.2420494688,
				"y": -0.7772093158,
				"z": 1.7332587663,
				"element": "C" 
			},
			{
				"x": -0.8803614244,
				"y": 0.5690298778,
				"z": 1.8335423661,
				"element": "C" 
			},
			{
				"x": -0.8683661025,
				"y": 3.439701889,
				"z": 0.2517882385,
				"element": "H" 
			},
			{
				"x": -0.1770642223,
				"y": 3.1278646838,
				"z": 1.8466676575,
				"element": "H" 
			},
			{
				"x": 0.8294615556,
				"y": 2.972290217,
				"z": 0.403945033,
				"element": "H" 
			},
			{
				"x": -0.0864724612,
				"y": 2.2364278758,
				"z": -1.8989828189,
				"element": "H" 
			},
			{
				"x": -0.3913818725,
				"y": 0.1900547561,
				"z": -4.78294041,
				"element": "H" 
			},
			{
				"x": -1.5831194789,
				"y": -2.4497331739,
				"z": 0.4008847389,
				"element": "H" 
			},
			{
				"x": -1.4776812732,
				"y": -1.3410553427,
				"z": 2.6302765178,
				"element": "H" 
			},
			{
				"x": -0.8384438152,
				"y": 1.0398464504,
				"z": 2.8120678917,
				"element": "H" 
			}
		],
		 "valence_orbital": [ 
			{
				"type": "occ",
				"energy": -0.30678,
				"method": "rhf"
			},
			{
				"type": "occ",
				"energy": -0.2868,
				"method": "rhf"
			},
			{
				"type": "occ",
				"energy": -0.26925,
				"method": "rhf"
			},
			{
				"type": "occ",
				"energy": -0.23501,
				"method": "rhf"
			},
			{
				"type": "occ",
				"energy": -0.20184,
				"method": "rhf"
			},
			{
				"type": "unocc",
				"energy": -0.00849,
				"method": "rhf"
			},
			{
				"type": "unocc",
				"energy": -0.00061,
				"method": "rhf"
			},
			{
				"type": "unocc",
				"energy": 0.00238,
				"method": "rhf"
			},
			{
				"type": "unocc",
				"energy": 0.04116,
				"method": "rhf"
			},
			{
				"type": "unocc",
				"energy": 0.06844,
				"method": "rhf"
			}
		],
		"cosmo_sigma_profile": { 
			"-0.025": 0.0,
			"-0.024": 0.0,
			"-0.023": 0.0,
			"-0.022": 0.0,
			"-0.021": 0.0,
			"-0.02": 0.0,
			"-0.019": 0.0,
			"-0.018": 0.0,
			"-0.017": 0.0,
			"-0.016": 0.0,
			"-0.015": 0.313321567851,
			"-0.014": 0.996280288156,
			"-0.013": 0.640396792164,
			"-0.012": 1.18970603803,
			"-0.011": 2.30219828687,
			"-0.01": 2.65266956067,
			"-0.009": 2.56864532285,
			"-0.008": 2.53406316056,
			"-0.007": 4.56385208449,
			"-0.006": 6.58676783894,
			"-0.005": 12.9955789816,
			"-0.004": 14.8137397811,
			"-0.003": 12.8413313747,
			"-0.002": 11.3516947349,
			"-0.001": 13.0332210954,
			"0.0": 15.8025961265,
			"0.001": 15.1975570104,
			"0.002": 16.1276248902,
			"0.003": 12.9201388911,
			"0.004": 13.0734334895,
			"0.005": 11.862081638,
			"0.006": 7.44752946356,
			"0.007": 1.25880169148,
			"0.008": 1.34138175651,
			"0.009": 1.39392211724,
			"0.01": 1.24949569041,
			"0.011": 1.48545483202,
			"0.012": 1.4320771967,
			"0.013": 0.822987187695,
			"0.014": 0.844866882224,
			"0.015": 1.45226360719,
			"0.016": 1.19870931478,
			"0.017": 0.950219815227,
			"0.018": 0.0256501580288,
			"0.019": 0.0,
			"0.02": 0.0,
			"0.021": 0.0,
			"0.022": 0.0,
			"0.023": 0.0,
			"0.024": 0.0,
			"0.025": 0.0
		}
	}
}
