{
	 "smiles": "CCC1=CC2=C(C=C1)C(CC(O)=O)=CO2", 
	 "Tm": 356.15, 
	 "num_atms": 27, 
	 "gaussian": { 
		 "optdone": 1, 
		 "sigma_profile": "yes", 
		 "theory": "DFT", 
		 "functional": "B3LYP", 
		 "basiset": "6-31G**", 
		 "properties": { 
			 "R2extent": 4168.5546, 
			 "electric_dipole_moment_norm": 1.02257863267, 
			 "electric_quadrupole_moment_norm": 9.11158522541, 
			 "total_energy": -690.196036479, 
			 "HOMO_LUMO_gap": 0.19542, 
			 "cosmo_polarized_energy": -10.86, 
			 "cosmo_cavitation_energy": 31.35, 
			 "cosmo_dispersion_energy": -22.29, 
			 "cosmo_repulsion_energy": 1.76, 
			 "cosmo_total_nonelectrostatic_energy": 10.82, 
			 "SMD_solvation_energy": 6.96 
		},
		"coords": [
			{
				"x": -2.0779541811,
				"y": 3.6950139434,
				"z": -1.9764917521,
				"element": "C" 
			},
			{
				"x": -0.6288370639,
				"y": 3.410200516,
				"z": -1.5419461906,
				"element": "C" 
			},
			{
				"x": -0.4955147989,
				"y": 2.141639862,
				"z": -0.7241793531,
				"element": "C" 
			},
			{
				"x": -0.5280185303,
				"y": 2.1941815035,
				"z": 0.6729572918,
				"element": "C" 
			},
			{
				"x": -0.4405996068,
				"y": 0.9893510407,
				"z": 1.3594633377,
				"element": "C" 
			},
			{
				"x": -0.3205778283,
				"y": -0.2609073772,
				"z": 0.7298840421,
				"element": "C" 
			},
			{
				"x": -0.2926673466,
				"y": -0.3085485901,
				"z": -0.6726211281,
				"element": "C" 
			},
			{
				"x": -0.3783580943,
				"y": 0.8901987451,
				"z": -1.3725103797,
				"element": "C" 
			},
			{
				"x": -0.2467934341,
				"y": -1.2313581391,
				"z": 1.8043420104,
				"element": "C" 
			},
			{
				"x": -0.0817901823,
				"y": -2.7219239207,
				"z": 1.683187744,
				"element": "C" 
			},
			{
				"x": -1.2562213614,
				"y": -3.3574782034,
				"z": 0.9558733104,
				"element": "C" 
			},
			{
				"x": -2.2587885731,
				"y": -3.6834964108,
				"z": 1.802935227,
				"element": "O" 
			},
			{
				"x": -1.3215198551,
				"y": -3.5404965842,
				"z": -0.2399728383,
				"element": "O" 
			},
			{
				"x": -0.3339438594,
				"y": -0.5105707501,
				"z": 2.9523059018,
				"element": "C" 
			},
			{
				"x": -0.4494242389,
				"y": 0.837366129,
				"z": 2.7221122692,
				"element": "O" 
			},
			{
				"x": -2.4745700975,
				"y": 2.8741083868,
				"z": -2.5826489543,
				"element": "H" 
			},
			{
				"x": -2.1362868855,
				"y": 4.6139756786,
				"z": -2.5694910493,
				"element": "H" 
			},
			{
				"x": -2.7319894496,
				"y": 3.8093337146,
				"z": -1.1059645275,
				"element": "H" 
			},
			{
				"x": -0.2521380231,
				"y": 4.2607400798,
				"z": -0.9617189982,
				"element": "H" 
			},
			{
				"x": 0.005881807,
				"y": 3.3372107384,
				"z": -2.4334683381,
				"element": "H" 
			},
			{
				"x": -0.6143313454,
				"y": 3.1364194076,
				"z": 1.2052211648,
				"element": "H" 
			},
			{
				"x": -0.2192581381,
				"y": -1.2582391104,
				"z": -1.1923796089,
				"element": "H" 
			},
			{
				"x": -0.3543875503,
				"y": 0.8702405899,
				"z": -2.4592829433,
				"element": "H" 
			},
			{
				"x": 0.0139263718,
				"y": -3.1695671789,
				"z": 2.6759333382,
				"element": "H" 
			},
			{
				"x": 0.8150129334,
				"y": -2.9592823372,
				"z": 1.1021938863,
				"element": "H" 
			},
			{
				"x": -2.9752504882,
				"y": -4.0407802151,
				"z": 1.2510811116,
				"element": "H" 
			},
			{
				"x": -0.32370018,
				"y": -0.8038315183,
				"z": 3.9917854258,
				"element": "H" 
			}
		],
		 "valence_orbital": [ 
			{
				"type": "occ",
				"energy": -0.32172,
				"method": "rhf"
			},
			{
				"type": "occ",
				"energy": -0.28975,
				"method": "rhf"
			},
			{
				"type": "occ",
				"energy": -0.27348,
				"method": "rhf"
			},
			{
				"type": "occ",
				"energy": -0.23333,
				"method": "rhf"
			},
			{
				"type": "occ",
				"energy": -0.2142,
				"method": "rhf"
			},
			{
				"type": "unocc",
				"energy": -0.01878,
				"method": "rhf"
			},
			{
				"type": "unocc",
				"energy": 0.00495,
				"method": "rhf"
			},
			{
				"type": "unocc",
				"energy": 0.01502,
				"method": "rhf"
			},
			{
				"type": "unocc",
				"energy": 0.05705,
				"method": "rhf"
			},
			{
				"type": "unocc",
				"energy": 0.07437,
				"method": "rhf"
			}
		],
		"cosmo_sigma_profile": { 
			"-0.025": 0.0,
			"-0.024": 0.0,
			"-0.023": 0.0,
			"-0.022": 0.0,
			"-0.021": 0.0,
			"-0.02": 0.0,
			"-0.019": 0.0354465336358,
			"-0.018": 0.772374955735,
			"-0.017": 1.09235821965,
			"-0.016": 0.623189927651,
			"-0.015": 0.912520757253,
			"-0.014": 0.254679853028,
			"-0.013": 1.00079815762,
			"-0.012": 1.22952140531,
			"-0.011": 0.647602431895,
			"-0.01": 0.531443670266,
			"-0.009": 2.22523936809,
			"-0.008": 2.47101937647,
			"-0.007": 5.82477573913,
			"-0.006": 8.54055095429,
			"-0.005": 10.9115407286,
			"-0.004": 14.5523679855,
			"-0.003": 21.663437226,
			"-0.002": 20.1659329891,
			"-0.001": 20.6396199205,
			"0.0": 22.341816723,
			"0.001": 20.4523883994,
			"0.002": 19.8162459906,
			"0.003": 16.286431096,
			"0.004": 14.9969401423,
			"0.005": 11.4810424299,
			"0.006": 7.56899830999,
			"0.007": 4.66207827163,
			"0.008": 4.5266351475,
			"0.009": 3.95150429288,
			"0.01": 2.01739219115,
			"0.011": 3.66827297795,
			"0.012": 2.66424262854,
			"0.013": 0.0221017383897,
			"0.014": 0.0,
			"0.015": 0.0,
			"0.016": 0.0,
			"0.017": 0.0,
			"0.018": 0.0,
			"0.019": 0.0,
			"0.02": 0.0,
			"0.021": 0.0,
			"0.022": 0.0,
			"0.023": 0.0,
			"0.024": 0.0,
			"0.025": 0.0
		}
	}
}
