{
	 "smiles": "O=C(N1CCCC1)C1=CNC2=C1C=CC=C2", 
	 "Tm": 503.15, 
	 "num_atms": 30, 
	 "gaussian": { 
		 "optdone": 1, 
		 "sigma_profile": "yes", 
		 "theory": "DFT", 
		 "functional": "B3LYP", 
		 "basiset": "6-31G**", 
		 "properties": { 
			 "R2extent": 4019.2329, 
			 "electric_dipole_moment_norm": 3.50433473715, 
			 "electric_quadrupole_moment_norm": 20.1171638918, 
			 "total_energy": -688.566782667, 
			 "HOMO_LUMO_gap": 0.18735, 
			 "cosmo_polarized_energy": -15.64, 
			 "cosmo_cavitation_energy": 32.06, 
			 "cosmo_dispersion_energy": -23.45, 
			 "cosmo_repulsion_energy": 1.83, 
			 "cosmo_total_nonelectrostatic_energy": 10.43, 
			 "SMD_solvation_energy": 4.77 
		},
		"coords": [
			{
				"x": -0.1245546653,
				"y": -1.2444947521,
				"z": 3.027469219,
				"element": "O" 
			},
			{
				"x": -0.5309667232,
				"y": -0.9115197251,
				"z": 1.912395027,
				"element": "C" 
			},
			{
				"x": -1.4995116052,
				"y": -1.6332976214,
				"z": 1.252192445,
				"element": "N" 
			},
			{
				"x": -2.0831800162,
				"y": -2.8107552882,
				"z": 1.9258647725,
				"element": "C" 
			},
			{
				"x": -3.5232048534,
				"y": -2.8761033627,
				"z": 1.3968121275,
				"element": "C" 
			},
			{
				"x": -3.4222972872,
				"y": -2.2179635421,
				"z": 0.0118710684,
				"element": "C" 
			},
			{
				"x": -2.4219301523,
				"y": -1.0778980089,
				"z": 0.2407383558,
				"element": "C" 
			},
			{
				"x": 0.0155343794,
				"y": 0.2916626506,
				"z": 1.2277194952,
				"element": "C" 
			},
			{
				"x": 0.2916804677,
				"y": 1.4556484206,
				"z": 1.9080633942,
				"element": "C" 
			},
			{
				"x": 0.8429913672,
				"y": 2.379433085,
				"z": 1.0538004675,
				"element": "N" 
			},
			{
				"x": 0.9747891234,
				"y": 1.8202611553,
				"z": -0.2044991275,
				"element": "C" 
			},
			{
				"x": 0.4653569756,
				"y": 0.4939321384,
				"z": -0.132553301,
				"element": "C" 
			},
			{
				"x": 0.5482718008,
				"y": -0.3180335953,
				"z": -1.2786849359,
				"element": "C" 
			},
			{
				"x": 1.0851642841,
				"y": 0.2102696336,
				"z": -2.4463421383,
				"element": "C" 
			},
			{
				"x": 1.556029069,
				"y": 1.5377535692,
				"z": -2.499003488,
				"element": "C" 
			},
			{
				"x": 1.5131448142,
				"y": 2.3580627935,
				"z": -1.3775023005,
				"element": "C" 
			},
			{
				"x": -2.012528673,
				"y": -2.686716377,
				"z": 3.0084388283,
				"element": "H" 
			},
			{
				"x": -1.5139049641,
				"y": -3.7108601973,
				"z": 1.6595309728,
				"element": "H" 
			},
			{
				"x": -4.187532485,
				"y": -2.2889020247,
				"z": 2.041617873,
				"element": "H" 
			},
			{
				"x": -3.911283138,
				"y": -3.8978193647,
				"z": 1.3633027248,
				"element": "H" 
			},
			{
				"x": -4.3802362463,
				"y": -1.8565679342,
				"z": -0.372573969,
				"element": "H" 
			},
			{
				"x": -3.0157185047,
				"y": -2.9297170831,
				"z": -0.7162711305,
				"element": "H" 
			},
			{
				"x": -2.9295756564,
				"y": -0.184249657,
				"z": 0.6308506097,
				"element": "H" 
			},
			{
				"x": -1.9006142546,
				"y": -0.7887615401,
				"z": -0.6728843047,
				"element": "H" 
			},
			{
				"x": 0.1262967073,
				"y": 1.6803189427,
				"z": 2.9515305027,
				"element": "H" 
			},
			{
				"x": 1.1239755375,
				"y": 3.3119599794,
				"z": 1.3100745623,
				"element": "H" 
			},
			{
				"x": 0.2154857532,
				"y": -1.3509231854,
				"z": -1.2428758113,
				"element": "H" 
			},
			{
				"x": 1.1518102566,
				"y": -0.4118603765,
				"z": -3.3340691915,
				"element": "H" 
			},
			{
				"x": 1.9693999675,
				"y": 1.9224303044,
				"z": -3.426553756,
				"element": "H" 
			},
			{
				"x": 1.8929087213,
				"y": 3.3755109632,
				"z": -1.4094589914,
				"element": "H" 
			}
		],
		 "valence_orbital": [ 
			{
				"type": "occ",
				"energy": -0.2759,
				"method": "rhf"
			},
			{
				"type": "occ",
				"energy": -0.23666,
				"method": "rhf"
			},
			{
				"type": "occ",
				"energy": -0.22553,
				"method": "rhf"
			},
			{
				"type": "occ",
				"energy": -0.22461,
				"method": "rhf"
			},
			{
				"type": "occ",
				"energy": -0.20404,
				"method": "rhf"
			},
			{
				"type": "unocc",
				"energy": -0.01669,
				"method": "rhf"
			},
			{
				"type": "unocc",
				"energy": 0.01582,
				"method": "rhf"
			},
			{
				"type": "unocc",
				"energy": 0.02576,
				"method": "rhf"
			},
			{
				"type": "unocc",
				"energy": 0.07594,
				"method": "rhf"
			},
			{
				"type": "unocc",
				"energy": 0.08507,
				"method": "rhf"
			}
		],
		"cosmo_sigma_profile": { 
			"-0.025": 0.0,
			"-0.024": 0.0,
			"-0.023": 0.0,
			"-0.022": 0.0,
			"-0.021": 0.0,
			"-0.02": 0.0,
			"-0.019": 0.0,
			"-0.018": 0.0,
			"-0.017": 0.0263613591667,
			"-0.016": 1.29588035052,
			"-0.015": 1.61912025745,
			"-0.014": 1.41695345912,
			"-0.013": 1.15362390032,
			"-0.012": 1.08064347023,
			"-0.011": 1.4491235722,
			"-0.01": 1.38732741902,
			"-0.009": 1.96636684232,
			"-0.008": 3.26810134206,
			"-0.007": 3.18325523068,
			"-0.006": 4.25473245584,
			"-0.005": 7.94566756823,
			"-0.004": 17.3114684849,
			"-0.003": 33.7585169065,
			"-0.002": 32.0529185222,
			"-0.001": 23.9201745239,
			"0.0": 21.1604474569,
			"0.001": 11.874426802,
			"0.002": 11.5068875133,
			"0.003": 13.056612617,
			"0.004": 14.2647443559,
			"0.005": 11.6171612168,
			"0.006": 9.56720349148,
			"0.007": 4.54778409451,
			"0.008": 1.88784361731,
			"0.009": 1.61119361271,
			"0.01": 1.6852075294,
			"0.011": 1.90440906736,
			"0.012": 1.37342292991,
			"0.013": 2.05938858013,
			"0.014": 4.77477093582,
			"0.015": 3.48420576702,
			"0.016": 0.380275033771,
			"0.017": 0.0,
			"0.018": 0.0,
			"0.019": 0.0,
			"0.02": 0.0,
			"0.021": 0.0,
			"0.022": 0.0,
			"0.023": 0.0,
			"0.024": 0.0,
			"0.025": 0.0
		}
	}
}
