{
	 "smiles": "CC1(CC(C1)C(=N/NC(O)=S)C1=CC2=C(O1)C=CC=C2)C1=CC=CC=C1", 
	 "Tm": 465.15, 
	 "num_atms": 46, 
	 "gaussian": { 
		 "optdone": 1, 
		 "sigma_profile": "yes", 
		 "theory": "DFT", 
		 "functional": "B3LYP", 
		 "basiset": "6-31G**", 
		 "properties": { 
			 "R2extent": 13854.8035, 
			 "electric_dipole_moment_norm": 4.75906705353, 
			 "electric_quadrupole_moment_norm": 26.6709955885, 
			 "total_energy": -1470.37172039, 
			 "HOMO_LUMO_gap": 0.14196, 
			 "cosmo_polarized_energy": -19.72, 
			 "cosmo_cavitation_energy": 51.26, 
			 "cosmo_dispersion_energy": -35.45, 
			 "cosmo_repulsion_energy": 2.66, 
			 "cosmo_total_nonelectrostatic_energy": 18.46, 
			 "SMD_solvation_energy": 7.52 
		},
		"coords": [
			{
				"x": 3.6129126936,
				"y": -0.5069732111,
				"z": 0.0371604891,
				"element": "C" 
			},
			{
				"x": 2.4951111186,
				"y": -0.4919407558,
				"z": -1.0158074195,
				"element": "C" 
			},
			{
				"x": 1.0426949708,
				"y": -0.5963209725,
				"z": -0.4530689272,
				"element": "C" 
			},
			{
				"x": 0.5963115948,
				"y": 0.5340996598,
				"z": -1.4206784519,
				"element": "C" 
			},
			{
				"x": 2.1050715397,
				"y": 0.921236329,
				"z": -1.5589095057,
				"element": "C" 
			},
			{
				"x": -0.4131770141,
				"y": 1.5724153957,
				"z": -0.9680246525,
				"element": "C" 
			},
			{
				"x": -0.4989409571,
				"y": 2.7944309079,
				"z": -1.3915072828,
				"element": "N" 
			},
			{
				"x": 0.3623184619,
				"y": 3.2242618145,
				"z": -2.3415139485,
				"element": "N" 
			},
			{
				"x": 0.3412820943,
				"y": 4.5052056541,
				"z": -2.8031975541,
				"element": "C" 
			},
			{
				"x": 1.281695244,
				"y": 4.6136064514,
				"z": -3.7720210038,
				"element": "O" 
			},
			{
				"x": -0.6213897102,
				"y": 5.759830972,
				"z": -2.3168932328,
				"element": "S" 
			},
			{
				"x": -1.4402810238,
				"y": 1.2281901307,
				"z": 0.0150386651,
				"element": "C" 
			},
			{
				"x": -2.3226363828,
				"y": 2.0093628577,
				"z": 0.7087465403,
				"element": "C" 
			},
			{
				"x": -3.1198850227,
				"y": 1.1194306303,
				"z": 1.5029104292,
				"element": "C" 
			},
			{
				"x": -2.6424215456,
				"y": -0.1753530317,
				"z": 1.2149688108,
				"element": "C" 
			},
			{
				"x": -1.6192752589,
				"y": -0.1113822145,
				"z": 0.3096539176,
				"element": "O" 
			},
			{
				"x": -3.156313518,
				"y": -1.3336706273,
				"z": 1.78517867,
				"element": "C" 
			},
			{
				"x": -4.2035605601,
				"y": -1.1658206001,
				"z": 2.6902227157,
				"element": "C" 
			},
			{
				"x": -4.7048318601,
				"y": 0.1139317209,
				"z": 3.0017929632,
				"element": "C" 
			},
			{
				"x": -4.1762777195,
				"y": 1.2609144673,
				"z": 2.4196711207,
				"element": "C" 
			},
			{
				"x": 2.8185953964,
				"y": -1.4988174002,
				"z": -2.1205758863,
				"element": "C" 
			},
			{
				"x": 3.6702344975,
				"y": -1.1482940965,
				"z": -3.1798014203,
				"element": "C" 
			},
			{
				"x": 4.0288684897,
				"y": -2.0761602642,
				"z": -4.157967512,
				"element": "C" 
			},
			{
				"x": 3.5463114485,
				"y": -3.3842490763,
				"z": -4.094920934,
				"element": "C" 
			},
			{
				"x": 2.7118711542,
				"y": -3.7538274266,
				"z": -3.0400112086,
				"element": "C" 
			},
			{
				"x": 2.3558832814,
				"y": -2.8212261274,
				"z": -2.0638529939,
				"element": "C" 
			},
			{
				"x": 3.7069938777,
				"y": -1.5006916621,
				"z": 0.4882615338,
				"element": "H" 
			},
			{
				"x": 3.4082061219,
				"y": 0.2133514001,
				"z": 0.8367543747,
				"element": "H" 
			},
			{
				"x": 4.5797270597,
				"y": -0.2552189078,
				"z": -0.4119627272,
				"element": "H" 
			},
			{
				"x": 0.5117192314,
				"y": -1.5450310112,
				"z": -0.5273174485,
				"element": "H" 
			},
			{
				"x": 1.0097103153,
				"y": -0.2654514772,
				"z": 0.5881644021,
				"element": "H" 
			},
			{
				"x": 0.2483638537,
				"y": 0.0864879438,
				"z": -2.3614027326,
				"element": "H" 
			},
			{
				"x": 2.4773319405,
				"y": 1.1918906285,
				"z": -2.5524479864,
				"element": "H" 
			},
			{
				"x": 2.3862901294,
				"y": 1.7072489271,
				"z": -0.851302034,
				"element": "H" 
			},
			{
				"x": 1.0346785541,
				"y": 2.5985866933,
				"z": -2.7746234336,
				"element": "H" 
			},
			{
				"x": 1.2413054643,
				"y": 5.5352050875,
				"z": -4.0734899706,
				"element": "H" 
			},
			{
				"x": -2.381716736,
				"y": 3.0852981358,
				"z": 0.6409440672,
				"element": "H" 
			},
			{
				"x": -2.7600313664,
				"y": -2.3117335858,
				"z": 1.534762068,
				"element": "H" 
			},
			{
				"x": -4.6412346174,
				"y": -2.0391313431,
				"z": 3.1641931034,
				"element": "H" 
			},
			{
				"x": -5.5219595388,
				"y": 0.2020611886,
				"z": 3.7115672108,
				"element": "H" 
			},
			{
				"x": -4.5701123862,
				"y": 2.2425202076,
				"z": 2.6647789505,
				"element": "H" 
			},
			{
				"x": 4.0681510713,
				"y": -0.138890992,
				"z": -3.2412380356,
				"element": "H" 
			},
			{
				"x": 4.6861046802,
				"y": -1.775728842,
				"z": -4.9692814993,
				"element": "H" 
			},
			{
				"x": 3.8205055824,
				"y": -4.1075374514,
				"z": -4.8573074023,
				"element": "H" 
			},
			{
				"x": 2.3344447652,
				"y": -4.7705074764,
				"z": -2.9740094729,
				"element": "H" 
			},
			{
				"x": 1.7133505853,
				"y": -3.1347086505,
				"z": -1.2467353554,
				"element": "H" 
			}
		],
		 "valence_orbital": [ 
			{
				"type": "occ",
				"energy": -0.24782,
				"method": "rhf"
			},
			{
				"type": "occ",
				"energy": -0.24273,
				"method": "rhf"
			},
			{
				"type": "occ",
				"energy": -0.23696,
				"method": "rhf"
			},
			{
				"type": "occ",
				"energy": -0.21679,
				"method": "rhf"
			},
			{
				"type": "occ",
				"energy": -0.20514,
				"method": "rhf"
			},
			{
				"type": "unocc",
				"energy": -0.06318,
				"method": "rhf"
			},
			{
				"type": "unocc",
				"energy": -0.00909,
				"method": "rhf"
			},
			{
				"type": "unocc",
				"energy": -0.00772,
				"method": "rhf"
			},
			{
				"type": "unocc",
				"energy": -0.00733,
				"method": "rhf"
			},
			{
				"type": "unocc",
				"energy": 0.0098,
				"method": "rhf"
			}
		],
		"cosmo_sigma_profile": { 
			"-0.025": 0.0,
			"-0.024": 0.0,
			"-0.023": 0.0,
			"-0.022": 0.0,
			"-0.021": 0.0,
			"-0.02": 0.0,
			"-0.019": 0.03210584639,
			"-0.018": 0.557671945416,
			"-0.017": 1.19639776144,
			"-0.016": 0.558414643751,
			"-0.015": 0.295830169906,
			"-0.014": 1.10171816581,
			"-0.013": 1.81848706294,
			"-0.012": 1.66457795575,
			"-0.011": 1.67356051434,
			"-0.01": 1.39427901175,
			"-0.009": 2.17355962779,
			"-0.008": 2.99559104545,
			"-0.007": 6.00214827045,
			"-0.006": 14.9227680649,
			"-0.005": 27.6312216502,
			"-0.004": 35.8127329726,
			"-0.003": 35.9462807041,
			"-0.002": 30.1049779814,
			"-0.001": 30.1482752507,
			"0.0": 30.2876274571,
			"0.001": 30.0351712792,
			"0.002": 27.0341626622,
			"0.003": 28.2047336709,
			"0.004": 26.9931531671,
			"0.005": 22.088871133,
			"0.006": 15.3943510793,
			"0.007": 9.87543962424,
			"0.008": 8.26621808674,
			"0.009": 6.64859315931,
			"0.01": 3.88410147628,
			"0.011": 1.87684605765,
			"0.012": 1.9002499612,
			"0.013": 1.60692175354,
			"0.014": 0.779244020649,
			"0.015": 0.0627632354607,
			"0.016": 0.0,
			"0.017": 0.0,
			"0.018": 0.0,
			"0.019": 0.0,
			"0.02": 0.0,
			"0.021": 0.0,
			"0.022": 0.0,
			"0.023": 0.0,
			"0.024": 0.0,
			"0.025": 0.0
		}
	}
}
