{
	 "smiles": "CC(C)(C)OC1=C(F)C=C(N)C=C1F", 
	 "Tm": 373.15, 
	 "num_atms": 27, 
	 "gaussian": { 
		 "optdone": 1, 
		 "sigma_profile": "yes", 
		 "theory": "DFT", 
		 "functional": "B3LYP", 
		 "basiset": "6-31G**", 
		 "properties": { 
			 "R2extent": 3257.2408, 
			 "electric_dipole_moment_norm": 3.39064201148, 
			 "electric_quadrupole_moment_norm": 15.5417200695, 
			 "total_energy": -718.543144358, 
			 "HOMO_LUMO_gap": 0.20884, 
			 "cosmo_polarized_energy": -10.52, 
			 "cosmo_cavitation_energy": 29.96, 
			 "cosmo_dispersion_energy": -21.12, 
			 "cosmo_repulsion_energy": 1.62, 
			 "cosmo_total_nonelectrostatic_energy": 10.46, 
			 "SMD_solvation_energy": 6.12 
		},
		"coords": [
			{
				"x": -1.45885804,
				"y": -1.0537031906,
				"z": 0.9867452367,
				"element": "C" 
			},
			{
				"x": -1.578917681,
				"y": -0.9416450001,
				"z": -0.536762628,
				"element": "C" 
			},
			{
				"x": -2.419274293,
				"y": -2.0869567176,
				"z": -1.1044026294,
				"element": "C" 
			},
			{
				"x": -2.157783453,
				"y": 0.4169404605,
				"z": -0.9456288988,
				"element": "C" 
			},
			{
				"x": -0.2727828419,
				"y": -1.1572617475,
				"z": -1.1730611687,
				"element": "O" 
			},
			{
				"x": 0.7686668845,
				"y": -0.3120162923,
				"z": -0.9082654924,
				"element": "C" 
			},
			{
				"x": 1.7138018265,
				"y": -0.5810654504,
				"z": 0.0910984169,
				"element": "C" 
			},
			{
				"x": 1.5174821838,
				"y": -1.6526607245,
				"z": 0.884878417,
				"element": "F" 
			},
			{
				"x": 2.8417768663,
				"y": 0.1973627977,
				"z": 0.3075574014,
				"element": "C" 
			},
			{
				"x": 3.0853702743,
				"y": 1.3084128209,
				"z": -0.51647242,
				"element": "C" 
			},
			{
				"x": 4.2424330221,
				"y": 2.0692718438,
				"z": -0.3575276932,
				"element": "N" 
			},
			{
				"x": 2.1728492672,
				"y": 1.6012480775,
				"z": -1.5432908375,
				"element": "C" 
			},
			{
				"x": 1.0591482924,
				"y": 0.7928712005,
				"z": -1.7202365132,
				"element": "C" 
			},
			{
				"x": 0.2121774038,
				"y": 1.0868253793,
				"z": -2.7268070855,
				"element": "F" 
			},
			{
				"x": -1.0139171167,
				"y": -2.0098655048,
				"z": 1.2699195825,
				"element": "H" 
			},
			{
				"x": -0.8392808602,
				"y": -0.2505350804,
				"z": 1.3968568137,
				"element": "H" 
			},
			{
				"x": -2.4500820987,
				"y": -0.9764686564,
				"z": 1.44527229,
				"element": "H" 
			},
			{
				"x": -1.9761812784,
				"y": -3.0509900773,
				"z": -0.8392103737,
				"element": "H" 
			},
			{
				"x": -3.4380351152,
				"y": -2.0489900068,
				"z": -0.7070034817,
				"element": "H" 
			},
			{
				"x": -2.4665450992,
				"y": -2.0192866435,
				"z": -2.1949089206,
				"element": "H" 
			},
			{
				"x": -2.2091160805,
				"y": 0.503633179,
				"z": -2.0329378095,
				"element": "H" 
			},
			{
				"x": -1.5474443273,
				"y": 1.2404101551,
				"z": -0.5628278651,
				"element": "H" 
			},
			{
				"x": -3.1661824695,
				"y": 0.5311879019,
				"z": -0.5347681198,
				"element": "H" 
			},
			{
				"x": 3.5264373432,
				"y": -0.0812201111,
				"z": 1.1016591893,
				"element": "H" 
			},
			{
				"x": 4.1938550391,
				"y": 3.0109110475,
				"z": -0.7203262952,
				"element": "H" 
			},
			{
				"x": 4.6576458457,
				"y": 2.0375232714,
				"z": 0.5629385801,
				"element": "H" 
			},
			{
				"x": 2.3266565055,
				"y": 2.4367670683,
				"z": -2.2179876953,
				"element": "H" 
			}
		],
		 "valence_orbital": [ 
			{
				"type": "occ",
				"energy": -0.32386,
				"method": "rhf"
			},
			{
				"type": "occ",
				"energy": -0.28687,
				"method": "rhf"
			},
			{
				"type": "occ",
				"energy": -0.26687,
				"method": "rhf"
			},
			{
				"type": "occ",
				"energy": -0.24108,
				"method": "rhf"
			},
			{
				"type": "occ",
				"energy": -0.20357,
				"method": "rhf"
			},
			{
				"type": "unocc",
				"energy": 0.00527,
				"method": "rhf"
			},
			{
				"type": "unocc",
				"energy": 0.01256,
				"method": "rhf"
			},
			{
				"type": "unocc",
				"energy": 0.06683,
				"method": "rhf"
			},
			{
				"type": "unocc",
				"energy": 0.07886,
				"method": "rhf"
			},
			{
				"type": "unocc",
				"energy": 0.1038,
				"method": "rhf"
			}
		],
		"cosmo_sigma_profile": { 
			"-0.025": 0.0,
			"-0.024": 0.0,
			"-0.023": 0.0,
			"-0.022": 0.0,
			"-0.021": 0.0,
			"-0.02": 0.0,
			"-0.019": 0.0,
			"-0.018": 0.0,
			"-0.017": 0.0,
			"-0.016": 0.0,
			"-0.015": 0.0,
			"-0.014": 0.0,
			"-0.013": 1.46312111317,
			"-0.012": 3.08485090605,
			"-0.011": 2.94700989646,
			"-0.01": 3.32261672622,
			"-0.009": 3.20667895218,
			"-0.008": 3.79949500593,
			"-0.007": 4.67086220846,
			"-0.006": 3.82904634063,
			"-0.005": 3.73113383391,
			"-0.004": 10.5792801957,
			"-0.003": 19.3902443049,
			"-0.002": 19.6416633637,
			"-0.001": 20.0827087612,
			"0.0": 23.8654728134,
			"0.001": 25.4893599209,
			"0.002": 18.5802622881,
			"0.003": 17.2106263583,
			"0.004": 20.7032435445,
			"0.005": 11.5153905512,
			"0.006": 3.58780285393,
			"0.007": 3.13045585412,
			"0.008": 2.55709486311,
			"0.009": 2.29534927078,
			"0.01": 2.52892370827,
			"0.011": 1.53432675475,
			"0.012": 1.44925192055,
			"0.013": 0.684603741619,
			"0.014": 0.343976362034,
			"0.015": 0.0,
			"0.016": 0.0,
			"0.017": 0.0,
			"0.018": 0.0,
			"0.019": 0.0,
			"0.02": 0.0,
			"0.021": 0.0,
			"0.022": 0.0,
			"0.023": 0.0,
			"0.024": 0.0,
			"0.025": 0.0
		}
	}
}
