{
	 "smiles": "OC(=O)C1=CC(CSC2=C(Cl)C=CC=C2Cl)=CC=C1", 
	 "Tm": 496.15, 
	 "num_atms": 29, 
	 "gaussian": { 
		 "optdone": 1, 
		 "sigma_profile": "yes", 
		 "theory": "DFT", 
		 "functional": "B3LYP", 
		 "basiset": "6-31G**", 
		 "properties": { 
			 "R2extent": 6699.3057, 
			 "electric_dipole_moment_norm": 5.47694491939, 
			 "electric_quadrupole_moment_norm": 29.7737317963, 
			 "total_energy": -2008.54030441, 
			 "HOMO_LUMO_gap": 0.18979, 
			 "cosmo_polarized_energy": -15.55, 
			 "cosmo_cavitation_energy": 37.83, 
			 "cosmo_dispersion_energy": -26.2, 
			 "cosmo_repulsion_energy": 1.95, 
			 "cosmo_total_nonelectrostatic_energy": 13.59, 
			 "SMD_solvation_energy": 6.4 
		},
		"coords": [
			{
				"x": 1.2731563509,
				"y": -4.1708244019,
				"z": 0.2006230106,
				"element": "O" 
			},
			{
				"x": 1.8766412383,
				"y": -3.929076598,
				"z": -0.9918543614,
				"element": "C" 
			},
			{
				"x": 2.8202451899,
				"y": -4.5974484365,
				"z": -1.3448434317,
				"element": "O" 
			},
			{
				"x": 1.311958088,
				"y": -2.8059809155,
				"z": -1.8112500456,
				"element": "C" 
			},
			{
				"x": -0.0174264171,
				"y": -2.3911386457,
				"z": -1.6893710946,
				"element": "C" 
			},
			{
				"x": -0.5116075817,
				"y": -1.325041814,
				"z": -2.4505421552,
				"element": "C" 
			},
			{
				"x": -1.9504052446,
				"y": -0.8813300835,
				"z": -2.3403974392,
				"element": "C" 
			},
			{
				"x": -2.5679253222,
				"y": -0.5788590464,
				"z": -0.6166362486,
				"element": "S" 
			},
			{
				"x": -1.3380856121,
				"y": 0.5229689907,
				"z": 0.0647351157,
				"element": "C" 
			},
			{
				"x": -0.5295128926,
				"y": 0.1252097436,
				"z": 1.1511709027,
				"element": "C" 
			},
			{
				"x": -0.679922632,
				"y": -1.4802831796,
				"z": 1.8578882399,
				"element": "Cl" 
			},
			{
				"x": 0.4099712507,
				"y": 0.9743815022,
				"z": 1.734452086,
				"element": "C" 
			},
			{
				"x": 0.5714028578,
				"y": 2.2632965887,
				"z": 1.234808121,
				"element": "C" 
			},
			{
				"x": -0.2111107064,
				"y": 2.7050187347,
				"z": 0.1717230567,
				"element": "C" 
			},
			{
				"x": -1.1561027785,
				"y": 1.8470718062,
				"z": -0.389043857,
				"element": "C" 
			},
			{
				"x": -2.1391700874,
				"y": 2.4920890065,
				"z": -1.6916361875,
				"element": "Cl" 
			},
			{
				"x": 0.3544255332,
				"y": -0.6792605006,
				"z": -3.3401712185,
				"element": "C" 
			},
			{
				"x": 1.6769284168,
				"y": -1.1083519516,
				"z": -3.4898356889,
				"element": "C" 
			},
			{
				"x": 2.156009937,
				"y": -2.1740778933,
				"z": -2.7357546305,
				"element": "C" 
			},
			{
				"x": 0.6718960945,
				"y": -3.4460418899,
				"z": 0.4316685681,
				"element": "H" 
			},
			{
				"x": -0.6929171869,
				"y": -2.8979343227,
				"z": -1.0062039978,
				"element": "H" 
			},
			{
				"x": -2.129460594,
				"y": 0.0066487569,
				"z": -2.9483861534,
				"element": "H" 
			},
			{
				"x": -2.6350664743,
				"y": -1.6644362803,
				"z": -2.6857685024,
				"element": "H" 
			},
			{
				"x": 1.0063201139,
				"y": 0.6194501522,
				"z": 2.5667386469,
				"element": "H" 
			},
			{
				"x": 1.3049059203,
				"y": 2.9279122594,
				"z": 1.6798649214,
				"element": "H" 
			},
			{
				"x": -0.1055419402,
				"y": 3.7102102819,
				"z": -0.2195276236,
				"element": "H" 
			},
			{
				"x": -0.0104643672,
				"y": 0.1597868443,
				"z": -3.926775465,
				"element": "H" 
			},
			{
				"x": 2.3314052868,
				"y": -0.6026017407,
				"z": -4.1934590644,
				"element": "H" 
			},
			{
				"x": 3.176753559,
				"y": -2.5271569672,
				"z": -2.8348155035,
				"element": "H" 
			}
		],
		 "valence_orbital": [ 
			{
				"type": "occ",
				"energy": -0.27543,
				"method": "rhf"
			},
			{
				"type": "occ",
				"energy": -0.26948,
				"method": "rhf"
			},
			{
				"type": "occ",
				"energy": -0.26647,
				"method": "rhf"
			},
			{
				"type": "occ",
				"energy": -0.26024,
				"method": "rhf"
			},
			{
				"type": "occ",
				"energy": -0.24283,
				"method": "rhf"
			},
			{
				"type": "unocc",
				"energy": -0.05304,
				"method": "rhf"
			},
			{
				"type": "unocc",
				"energy": -0.04821,
				"method": "rhf"
			},
			{
				"type": "unocc",
				"energy": -0.03965,
				"method": "rhf"
			},
			{
				"type": "unocc",
				"energy": -0.02814,
				"method": "rhf"
			},
			{
				"type": "unocc",
				"energy": -0.01891,
				"method": "rhf"
			}
		],
		"cosmo_sigma_profile": { 
			"-0.025": 0.0,
			"-0.024": 0.0,
			"-0.023": 0.0,
			"-0.022": 0.0,
			"-0.021": 0.0,
			"-0.02": 0.0,
			"-0.019": 0.0,
			"-0.018": 0.0,
			"-0.017": 0.0,
			"-0.016": 0.0,
			"-0.015": 0.0,
			"-0.014": 0.0,
			"-0.013": 0.00321710405256,
			"-0.012": 0.403583829265,
			"-0.011": 0.91244290043,
			"-0.01": 1.21940621361,
			"-0.009": 1.83583830247,
			"-0.008": 7.48824541392,
			"-0.007": 14.449810832,
			"-0.006": 18.0470710691,
			"-0.005": 18.4621889407,
			"-0.004": 18.1169916146,
			"-0.003": 18.2782792982,
			"-0.002": 20.0388285881,
			"-0.001": 21.069534976,
			"0.0": 25.7370031083,
			"0.001": 29.2806815271,
			"0.002": 30.4724420611,
			"0.003": 25.1384883158,
			"0.004": 16.009036506,
			"0.005": 6.99519541993,
			"0.006": 5.76141400729,
			"0.007": 5.02777784173,
			"0.008": 4.58490095179,
			"0.009": 3.68379953647,
			"0.01": 4.56217601563,
			"0.011": 5.42074566621,
			"0.012": 4.96541809958,
			"0.013": 1.62118856891,
			"0.014": 0.0476527576065,
			"0.015": 0.0,
			"0.016": 0.0,
			"0.017": 0.0,
			"0.018": 0.0,
			"0.019": 0.0,
			"0.02": 0.0,
			"0.021": 0.0,
			"0.022": 0.0,
			"0.023": 0.0,
			"0.024": 0.0,
			"0.025": 0.0
		}
	}
}
