{
	 "smiles": "OC(=O)C1=C(OCC#C)N=CC=C1", 
	 "Tm": 394.15, 
	 "num_atms": 20, 
	 "gaussian": { 
		 "optdone": 1, 
		 "sigma_profile": "yes", 
		 "theory": "DFT", 
		 "functional": "B3LYP", 
		 "basiset": "6-31G**", 
		 "properties": { 
			 "R2extent": 3429.4883, 
			 "electric_dipole_moment_norm": 4.8716385026, 
			 "electric_quadrupole_moment_norm": 15.6365899946, 
			 "total_energy": -627.52640592, 
			 "HOMO_LUMO_gap": 0.19866, 
			 "cosmo_polarized_energy": -13.28, 
			 "cosmo_cavitation_energy": 26.22, 
			 "cosmo_dispersion_energy": -18.6, 
			 "cosmo_repulsion_energy": 1.46, 
			 "cosmo_total_nonelectrostatic_energy": 9.08, 
			 "SMD_solvation_energy": 6.66 
		},
		"coords": [
			{
				"x": 0.9096052102,
				"y": -1.18000252,
				"z": -0.0564144201,
				"element": "O" 
			},
			{
				"x": -0.3315834273,
				"y": -1.2245447394,
				"z": 0.455424453,
				"element": "C" 
			},
			{
				"x": -0.5444218828,
				"y": -1.7431917392,
				"z": 1.5300503876,
				"element": "O" 
			},
			{
				"x": -1.450082916,
				"y": -0.6098402552,
				"z": -0.3477159462,
				"element": "C" 
			},
			{
				"x": -1.3327802373,
				"y": 0.0217280072,
				"z": -1.6075833616,
				"element": "C" 
			},
			{
				"x": -0.0904208672,
				"y": 0.0897234379,
				"z": -2.1653875534,
				"element": "O" 
			},
			{
				"x": 0.0303149124,
				"y": 0.7363706823,
				"z": -3.4557888085,
				"element": "C" 
			},
			{
				"x": 1.4305293734,
				"y": 0.6923804612,
				"z": -3.851400274,
				"element": "C" 
			},
			{
				"x": 2.5842242252,
				"y": 0.6691408651,
				"z": -4.2024824307,
				"element": "C" 
			},
			{
				"x": -2.3447348764,
				"y": 0.5495921744,
				"z": -2.2794672504,
				"element": "N" 
			},
			{
				"x": -3.5664255382,
				"y": 0.48145946,
				"z": -1.7284719905,
				"element": "C" 
			},
			{
				"x": -3.8149192515,
				"y": -0.1126296252,
				"z": -0.4959329795,
				"element": "C" 
			},
			{
				"x": -2.7348228992,
				"y": -0.662007134,
				"z": 0.1941708955,
				"element": "C" 
			},
			{
				"x": 0.905200695,
				"y": -0.7308307189,
				"z": -0.9223010102,
				"element": "H" 
			},
			{
				"x": -0.3343990188,
				"y": 1.7656949213,
				"z": -3.3768277696,
				"element": "H" 
			},
			{
				"x": -0.6093221728,
				"y": 0.2184818303,
				"z": -4.1778814607,
				"element": "H" 
			},
			{
				"x": 3.6050867397,
				"y": 0.6459695841,
				"z": -4.5082360926,
				"element": "H" 
			},
			{
				"x": -4.3723788652,
				"y": 0.9252768067,
				"z": -2.308792963,
				"element": "H" 
			},
			{
				"x": -4.8198121026,
				"y": -0.1442125649,
				"z": -0.0899326545,
				"element": "H" 
			},
			{
				"x": -2.8503571005,
				"y": -1.1417589339,
				"z": 1.1603712294,
				"element": "H" 
			}
		],
		 "valence_orbital": [ 
			{
				"type": "occ",
				"energy": -0.29744,
				"method": "rhf"
			},
			{
				"type": "occ",
				"energy": -0.29078,
				"method": "rhf"
			},
			{
				"type": "occ",
				"energy": -0.28815,
				"method": "rhf"
			},
			{
				"type": "occ",
				"energy": -0.26651,
				"method": "rhf"
			},
			{
				"type": "occ",
				"energy": -0.2603,
				"method": "rhf"
			},
			{
				"type": "unocc",
				"energy": -0.06164,
				"method": "rhf"
			},
			{
				"type": "unocc",
				"energy": -0.02595,
				"method": "rhf"
			},
			{
				"type": "unocc",
				"energy": 0.00627,
				"method": "rhf"
			},
			{
				"type": "unocc",
				"energy": 0.03466,
				"method": "rhf"
			},
			{
				"type": "unocc",
				"energy": 0.04737,
				"method": "rhf"
			}
		],
		"cosmo_sigma_profile": { 
			"-0.025": 0.0,
			"-0.024": 0.0,
			"-0.023": 0.0,
			"-0.022": 0.0,
			"-0.021": 0.0,
			"-0.02": 0.0,
			"-0.019": 0.0,
			"-0.018": 0.0,
			"-0.017": 0.0,
			"-0.016": 0.0,
			"-0.015": 0.0,
			"-0.014": 0.0,
			"-0.013": 0.228791140259,
			"-0.012": 1.11062556365,
			"-0.011": 1.37511584181,
			"-0.01": 1.02940847736,
			"-0.009": 1.33003966686,
			"-0.008": 7.15645857318,
			"-0.007": 12.2436892245,
			"-0.006": 15.3774678146,
			"-0.005": 12.396966156,
			"-0.004": 11.9182982916,
			"-0.003": 11.9751934521,
			"-0.002": 13.8098504525,
			"-0.001": 15.1151679146,
			"0.0": 17.5276508495,
			"0.001": 16.2522257335,
			"0.002": 10.5637984595,
			"0.003": 7.99232517612,
			"0.004": 8.61988987778,
			"0.005": 11.200822673,
			"0.006": 6.99604687585,
			"0.007": 3.59222866455,
			"0.008": 3.57645951828,
			"0.009": 3.38241607172,
			"0.01": 4.67621001802,
			"0.011": 5.98742018348,
			"0.012": 4.7306149047,
			"0.013": 1.98415062286,
			"0.014": 0.198464525188,
			"0.015": 0.0,
			"0.016": 0.0,
			"0.017": 0.0,
			"0.018": 0.0,
			"0.019": 0.0,
			"0.02": 0.0,
			"0.021": 0.0,
			"0.022": 0.0,
			"0.023": 0.0,
			"0.024": 0.0,
			"0.025": 0.0
		}
	}
}
