{
	 "smiles": "O=C(CN=C=S)NC1CC1", 
	 "Tm": 443.15, 
	 "num_atms": 18, 
	 "gaussian": { 
		 "optdone": 1, 
		 "sigma_profile": "yes", 
		 "theory": "DFT", 
		 "functional": "B3LYP", 
		 "basiset": "6-31G**", 
		 "properties": { 
			 "R2extent": 3763.2344, 
			 "electric_dipole_moment_norm": 1.67275039979, 
			 "electric_quadrupole_moment_norm": 14.4486373323, 
			 "total_energy": -816.342730064, 
			 "HOMO_LUMO_gap": 0.21698, 
			 "cosmo_polarized_energy": -12.07, 
			 "cosmo_cavitation_energy": 25.35, 
			 "cosmo_dispersion_energy": -18.54, 
			 "cosmo_repulsion_energy": 1.53, 
			 "cosmo_total_nonelectrostatic_energy": 8.33, 
			 "SMD_solvation_energy": 4.16 
		},
		"coords": [
			{
				"x": 0.2599423194,
				"y": -0.7637481222,
				"z": 0.4314304956,
				"element": "O" 
			},
			{
				"x": -0.1639571659,
				"y": -0.2282668297,
				"z": -0.5811534249,
				"element": "C" 
			},
			{
				"x": -0.6498177012,
				"y": -1.1117835477,
				"z": -1.7416010422,
				"element": "C" 
			},
			{
				"x": -1.1490721754,
				"y": -0.3870418916,
				"z": -2.8776563525,
				"element": "N" 
			},
			{
				"x": -1.5804829317,
				"y": -0.457234455,
				"z": -3.9940910041,
				"element": "C" 
			},
			{
				"x": -2.1603454461,
				"y": -0.4209759243,
				"z": -5.470952222,
				"element": "S" 
			},
			{
				"x": -0.2364475444,
				"y": 1.1144945913,
				"z": -0.7841825892,
				"element": "N" 
			},
			{
				"x": 0.1112741674,
				"y": 2.0610887939,
				"z": 0.2386349853,
				"element": "C" 
			},
			{
				"x": 0.7612407345,
				"y": 3.3507940129,
				"z": -0.190028983,
				"element": "C" 
			},
			{
				"x": 1.5648191012,
				"y": 2.3064858088,
				"z": 0.5450727711,
				"element": "C" 
			},
			{
				"x": 0.1911864288,
				"y": -1.7475560737,
				"z": -2.0406588733,
				"element": "H" 
			},
			{
				"x": -1.4323678107,
				"y": -1.7672212088,
				"z": -1.3432733455,
				"element": "H" 
			},
			{
				"x": -0.6957171684,
				"y": 1.4416787191,
				"z": -1.6232695392,
				"element": "H" 
			},
			{
				"x": -0.5817413595,
				"y": 2.0976302364,
				"z": 1.0769988984,
				"element": "H" 
			},
			{
				"x": 0.4752116985,
				"y": 4.2592083886,
				"z": 0.3303582909,
				"element": "H" 
			},
			{
				"x": 0.9606448092,
				"y": 3.4842187753,
				"z": -1.2495302862,
				"element": "H" 
			},
			{
				"x": 1.8359837288,
				"y": 2.4849819839,
				"z": 1.5803128684,
				"element": "H" 
			},
			{
				"x": 2.2908463154,
				"y": 1.7344467428,
				"z": -0.0221106474,
				"element": "H" 
			}
		],
		 "valence_orbital": [ 
			{
				"type": "occ",
				"energy": -0.31001,
				"method": "rhf"
			},
			{
				"type": "occ",
				"energy": -0.27652,
				"method": "rhf"
			},
			{
				"type": "occ",
				"energy": -0.26329,
				"method": "rhf"
			},
			{
				"type": "occ",
				"energy": -0.25712,
				"method": "rhf"
			},
			{
				"type": "occ",
				"energy": -0.2535,
				"method": "rhf"
			},
			{
				"type": "unocc",
				"energy": -0.03652,
				"method": "rhf"
			},
			{
				"type": "unocc",
				"energy": -0.00774,
				"method": "rhf"
			},
			{
				"type": "unocc",
				"energy": 0.01734,
				"method": "rhf"
			},
			{
				"type": "unocc",
				"energy": 0.07994,
				"method": "rhf"
			},
			{
				"type": "unocc",
				"energy": 0.09279,
				"method": "rhf"
			}
		],
		"cosmo_sigma_profile": { 
			"-0.025": 0.0,
			"-0.024": 0.0,
			"-0.023": 0.0,
			"-0.022": 0.0,
			"-0.021": 0.0,
			"-0.02": 0.0,
			"-0.019": 0.0,
			"-0.018": 0.0,
			"-0.017": 0.0,
			"-0.016": 0.0,
			"-0.015": 0.0,
			"-0.014": 0.0,
			"-0.013": 0.105744990298,
			"-0.012": 0.749436890455,
			"-0.011": 0.652574767119,
			"-0.01": 1.15375183217,
			"-0.009": 4.16333684872,
			"-0.008": 6.81345732158,
			"-0.007": 5.31314629407,
			"-0.006": 9.28231275913,
			"-0.005": 16.3190878881,
			"-0.004": 15.8978274051,
			"-0.003": 12.0540499043,
			"-0.002": 13.9302338969,
			"-0.001": 17.5433265658,
			"0.0": 17.3404911549,
			"0.001": 12.920078768,
			"0.002": 10.7128830156,
			"0.003": 9.80049443964,
			"0.004": 11.002846338,
			"0.005": 14.5139561284,
			"0.006": 5.32401528546,
			"0.007": 1.18516505425,
			"0.008": 1.42140976628,
			"0.009": 1.69196562415,
			"0.01": 1.816341094,
			"0.011": 1.46879192197,
			"0.012": 2.19645708286,
			"0.013": 5.14669066103,
			"0.014": 4.24821070375,
			"0.015": 0.416968182786,
			"0.016": 0.0,
			"0.017": 0.0,
			"0.018": 0.0,
			"0.019": 0.0,
			"0.02": 0.0,
			"0.021": 0.0,
			"0.022": 0.0,
			"0.023": 0.0,
			"0.024": 0.0,
			"0.025": 0.0
		}
	}
}
