{
	 "smiles": "COC(=O)COC1=C(OC)C=C(C=CC)C=C1", 
	 "Tm": 342.15, 
	 "num_atms": 33, 
	 "gaussian": { 
		 "optdone": 1, 
		 "sigma_profile": "yes", 
		 "theory": "DFT", 
		 "functional": "B3LYP", 
		 "basiset": "6-31G**", 
		 "properties": { 
			 "R2extent": 5688.2254, 
			 "electric_dipole_moment_norm": 1.91804683467, 
			 "electric_quadrupole_moment_norm": 10.7382775914, 
			 "total_energy": -805.884546894, 
			 "HOMO_LUMO_gap": 0.17442, 
			 "cosmo_polarized_energy": -12.65, 
			 "cosmo_cavitation_energy": 37.25, 
			 "cosmo_dispersion_energy": -25.65, 
			 "cosmo_repulsion_energy": 2.01, 
			 "cosmo_total_nonelectrostatic_energy": 13.61, 
			 "SMD_solvation_energy": 8.98 
		},
		"coords": [
			{
				"x": -2.7461416617,
				"y": 4.2453230014,
				"z": 0.2744162665,
				"element": "C" 
			},
			{
				"x": -2.6986039293,
				"y": 2.8758319992,
				"z": 0.7020980366,
				"element": "O" 
			},
			{
				"x": -1.9942366487,
				"y": 2.652073519,
				"z": 1.821348641,
				"element": "C" 
			},
			{
				"x": -1.4615517911,
				"y": 3.5166710522,
				"z": 2.4847348094,
				"element": "O" 
			},
			{
				"x": -2.0119230215,
				"y": 1.1865886955,
				"z": 2.2388893097,
				"element": "C" 
			},
			{
				"x": -2.2721741684,
				"y": 0.2654333405,
				"z": 1.1888187305,
				"element": "O" 
			},
			{
				"x": -1.2268231724,
				"y": -0.39123668,
				"z": 0.587853708,
				"element": "C" 
			},
			{
				"x": -0.0061957074,
				"y": 0.2248798886,
				"z": 0.2213803052,
				"element": "C" 
			},
			{
				"x": 0.1061775514,
				"y": 1.5563209061,
				"z": 0.5148852343,
				"element": "O" 
			},
			{
				"x": 1.3555226902,
				"y": 2.2022184727,
				"z": 0.3255589619,
				"element": "C" 
			},
			{
				"x": 0.9820613882,
				"y": -0.5216070958,
				"z": -0.4151051107,
				"element": "C" 
			},
			{
				"x": 0.7898815264,
				"y": -1.8825356727,
				"z": -0.7267552221,
				"element": "C" 
			},
			{
				"x": 1.8106622178,
				"y": -2.7011186748,
				"z": -1.3963673058,
				"element": "C" 
			},
			{
				"x": 3.0703993956,
				"y": -2.3587975234,
				"z": -1.7057367831,
				"element": "C" 
			},
			{
				"x": 4.0508456598,
				"y": -3.2597616393,
				"z": -2.3967154862,
				"element": "C" 
			},
			{
				"x": -0.4366827475,
				"y": -2.4677113088,
				"z": -0.3836043291,
				"element": "C" 
			},
			{
				"x": -1.4230130017,
				"y": -1.7324347894,
				"z": 0.2711688137,
				"element": "C" 
			},
			{
				"x": -3.3778884571,
				"y": 4.2545049764,
				"z": -0.6135716524,
				"element": "H" 
			},
			{
				"x": -3.1694424851,
				"y": 4.8811785666,
				"z": 1.0560452236,
				"element": "H" 
			},
			{
				"x": -1.7430402762,
				"y": 4.6061895741,
				"z": 0.0322273275,
				"element": "H" 
			},
			{
				"x": -2.831147738,
				"y": 1.0651920582,
				"z": 2.9585074771,
				"element": "H" 
			},
			{
				"x": -1.0729247905,
				"y": 0.97769151,
				"z": 2.7561932789,
				"element": "H" 
			},
			{
				"x": 1.6206653908,
				"y": 2.262707626,
				"z": -0.7376332867,
				"element": "H" 
			},
			{
				"x": 1.2302433777,
				"y": 3.2079957142,
				"z": 0.7287720875,
				"element": "H" 
			},
			{
				"x": 2.1593212843,
				"y": 1.689729337,
				"z": 0.868693273,
				"element": "H" 
			},
			{
				"x": 1.9082333889,
				"y": -0.037159059,
				"z": -0.6986507015,
				"element": "H" 
			},
			{
				"x": 1.481115992,
				"y": -3.7076893333,
				"z": -1.656722606,
				"element": "H" 
			},
			{
				"x": 3.4407366278,
				"y": -1.3665998657,
				"z": -1.4479703584,
				"element": "H" 
			},
			{
				"x": 4.9477784012,
				"y": -3.4192971694,
				"z": -1.7838531472,
				"element": "H" 
			},
			{
				"x": 4.3958644586,
				"y": -2.8231911816,
				"z": -3.3433600177,
				"element": "H" 
			},
			{
				"x": 3.6125497805,
				"y": -4.23805575,
				"z": -2.6163267897,
				"element": "H" 
			},
			{
				"x": -0.6147941418,
				"y": -3.5137834225,
				"z": -0.6160957831,
				"element": "H" 
			},
			{
				"x": -2.3688753929,
				"y": -2.1844510721,
				"z": 0.5514770954,
				"element": "H" 
			}
		],
		 "valence_orbital": [ 
			{
				"type": "occ",
				"energy": -0.29653,
				"method": "rhf"
			},
			{
				"type": "occ",
				"energy": -0.27213,
				"method": "rhf"
			},
			{
				"type": "occ",
				"energy": -0.25518,
				"method": "rhf"
			},
			{
				"type": "occ",
				"energy": -0.23136,
				"method": "rhf"
			},
			{
				"type": "occ",
				"energy": -0.19793,
				"method": "rhf"
			},
			{
				"type": "unocc",
				"energy": -0.02351,
				"method": "rhf"
			},
			{
				"type": "unocc",
				"energy": 0.01123,
				"method": "rhf"
			},
			{
				"type": "unocc",
				"energy": 0.01878,
				"method": "rhf"
			},
			{
				"type": "unocc",
				"energy": 0.06896,
				"method": "rhf"
			},
			{
				"type": "unocc",
				"energy": 0.08366,
				"method": "rhf"
			}
		],
		"cosmo_sigma_profile": { 
			"-0.025": 0.0,
			"-0.024": 0.0,
			"-0.023": 0.0,
			"-0.022": 0.0,
			"-0.021": 0.0,
			"-0.02": 0.0,
			"-0.019": 0.0,
			"-0.018": 0.0,
			"-0.017": 0.0,
			"-0.016": 0.0,
			"-0.015": 0.0,
			"-0.014": 0.0,
			"-0.013": 0.0,
			"-0.012": 0.0,
			"-0.011": 0.0,
			"-0.01": 0.0,
			"-0.009": 0.148736876422,
			"-0.008": 2.45866771285,
			"-0.007": 5.99297033219,
			"-0.006": 15.4605595455,
			"-0.005": 26.3411588327,
			"-0.004": 30.6206885286,
			"-0.003": 32.6950186413,
			"-0.002": 22.4067673983,
			"-0.001": 21.6168251476,
			"0.0": 19.8143536451,
			"0.001": 15.5194961078,
			"0.002": 13.4056738933,
			"0.003": 15.7299609737,
			"0.004": 16.6766339776,
			"0.005": 18.7434845974,
			"0.006": 10.0656907699,
			"0.007": 4.58637182536,
			"0.008": 4.90100946865,
			"0.009": 2.86985208645,
			"0.01": 3.57697975006,
			"0.011": 4.20811506104,
			"0.012": 5.59158506539,
			"0.013": 1.3022999517,
			"0.014": 0.0,
			"0.015": 0.0,
			"0.016": 0.0,
			"0.017": 0.0,
			"0.018": 0.0,
			"0.019": 0.0,
			"0.02": 0.0,
			"0.021": 0.0,
			"0.022": 0.0,
			"0.023": 0.0,
			"0.024": 0.0,
			"0.025": 0.0
		}
	}
}
