{
	 "smiles": "CC1=C(CCl)N=C(O1)C1=CSC=C1", 
	 "Tm": 375.15, 
	 "num_atms": 21, 
	 "gaussian": { 
		 "optdone": 1, 
		 "sigma_profile": "yes", 
		 "theory": "DFT", 
		 "functional": "B3LYP", 
		 "basiset": "6-31G**", 
		 "properties": { 
			 "R2extent": 4841.2328, 
			 "electric_dipole_moment_norm": 2.94385476884, 
			 "electric_quadrupole_moment_norm": 16.3655856589, 
			 "total_energy": -1336.12465166, 
			 "HOMO_LUMO_gap": 0.17829, 
			 "cosmo_polarized_energy": -10.03, 
			 "cosmo_cavitation_energy": 29.46, 
			 "cosmo_dispersion_energy": -21.97, 
			 "cosmo_repulsion_energy": 1.72, 
			 "cosmo_total_nonelectrostatic_energy": 9.21, 
			 "SMD_solvation_energy": 3.71 
		},
		"coords": [
			{
				"x": -2.6948173958,
				"y": -1.675794793,
				"z": 3.4652916218,
				"element": "C" 
			},
			{
				"x": -1.8737965685,
				"y": -0.9473925735,
				"z": 2.4654499689,
				"element": "C" 
			},
			{
				"x": -1.5189543683,
				"y": 0.356456611,
				"z": 2.2656899434,
				"element": "C" 
			},
			{
				"x": -1.8919410607,
				"y": 1.5544840905,
				"z": 3.053261965,
				"element": "C" 
			},
			{
				"x": -0.6681746265,
				"y": 1.9577650597,
				"z": 4.3683150865,
				"element": "Cl" 
			},
			{
				"x": -0.6984655038,
				"y": 0.4465324756,
				"z": 1.1470865855,
				"element": "N" 
			},
			{
				"x": -0.5886609772,
				"y": -0.7753621994,
				"z": 0.7153038353,
				"element": "C" 
			},
			{
				"x": -1.2813059162,
				"y": -1.683984054,
				"z": 1.4704740846,
				"element": "O" 
			},
			{
				"x": 0.1524598582,
				"y": -1.2558080765,
				"z": -0.4357754707,
				"element": "C" 
			},
			{
				"x": 0.2114021593,
				"y": -2.5689994249,
				"z": -0.8420906717,
				"element": "C" 
			},
			{
				"x": 1.1915797276,
				"y": -2.7546044458,
				"z": -2.2513907243,
				"element": "S" 
			},
			{
				"x": 1.5301777646,
				"y": -1.0499197581,
				"z": -2.3012320696,
				"element": "C" 
			},
			{
				"x": 0.9167494088,
				"y": -0.3835285655,
				"z": -1.2829751167,
				"element": "C" 
			},
			{
				"x": -2.0884194322,
				"y": -2.3973467742,
				"z": 4.0244377466,
				"element": "H" 
			},
			{
				"x": -3.5104374648,
				"y": -2.228588714,
				"z": 2.9857383341,
				"element": "H" 
			},
			{
				"x": -3.1269827008,
				"y": -0.9735915576,
				"z": 4.1814156296,
				"element": "H" 
			},
			{
				"x": -1.9304421257,
				"y": 2.4357635697,
				"z": 2.4146543055,
				"element": "H" 
			},
			{
				"x": -2.8420526172,
				"y": 1.4293461824,
				"z": 3.5716489986,
				"element": "H" 
			},
			{
				"x": -0.2673751154,
				"y": -3.4232009658,
				"z": -0.3859136022,
				"element": "H" 
			},
			{
				"x": 2.1628892149,
				"y": -0.6475277981,
				"z": -3.0797962545,
				"element": "H" 
			},
			{
				"x": 0.9876677398,
				"y": 0.6836017116,
				"z": -1.1143941959,
				"element": "H" 
			}
		],
		 "valence_orbital": [ 
			{
				"type": "occ",
				"energy": -0.29166,
				"method": "rhf"
			},
			{
				"type": "occ",
				"energy": -0.28957,
				"method": "rhf"
			},
			{
				"type": "occ",
				"energy": -0.27967,
				"method": "rhf"
			},
			{
				"type": "occ",
				"energy": -0.25075,
				"method": "rhf"
			},
			{
				"type": "occ",
				"energy": -0.21948,
				"method": "rhf"
			},
			{
				"type": "unocc",
				"energy": -0.04119,
				"method": "rhf"
			},
			{
				"type": "unocc",
				"energy": -0.00991,
				"method": "rhf"
			},
			{
				"type": "unocc",
				"energy": 0.00669,
				"method": "rhf"
			},
			{
				"type": "unocc",
				"energy": 0.02417,
				"method": "rhf"
			},
			{
				"type": "unocc",
				"energy": 0.06445,
				"method": "rhf"
			}
		],
		"cosmo_sigma_profile": { 
			"-0.025": 0.0,
			"-0.024": 0.0,
			"-0.023": 0.0,
			"-0.022": 0.0,
			"-0.021": 0.0,
			"-0.02": 0.0,
			"-0.019": 0.0,
			"-0.018": 0.0,
			"-0.017": 0.0,
			"-0.016": 0.0,
			"-0.015": 0.0,
			"-0.014": 0.0,
			"-0.013": 0.0,
			"-0.012": 0.0,
			"-0.011": 0.0,
			"-0.01": 0.0416663281121,
			"-0.009": 2.74396917446,
			"-0.008": 7.80343326662,
			"-0.007": 9.10510409643,
			"-0.006": 12.1431599354,
			"-0.005": 14.6136439844,
			"-0.004": 14.6844734954,
			"-0.003": 13.4274227824,
			"-0.002": 17.2706595828,
			"-0.001": 17.7972430273,
			"0.0": 15.8664713826,
			"0.001": 18.4761176635,
			"0.002": 20.2840967422,
			"0.003": 23.6900531749,
			"0.004": 15.0667230435,
			"0.005": 10.4136804953,
			"0.006": 11.6606985459,
			"0.007": 9.37906689229,
			"0.008": 1.00433743975,
			"0.009": 0.935018393239,
			"0.01": 0.946000081197,
			"0.011": 1.054256657,
			"0.012": 0.936126474807,
			"0.013": 0.705177919666,
			"0.014": 0.681248615817,
			"0.015": 0.0,
			"0.016": 0.0,
			"0.017": 0.0,
			"0.018": 0.0,
			"0.019": 0.0,
			"0.02": 0.0,
			"0.021": 0.0,
			"0.022": 0.0,
			"0.023": 0.0,
			"0.024": 0.0,
			"0.025": 0.0
		}
	}
}
