{
	 "smiles": "ClC(Cl)C(=O)C(Cl)(Cl)Cl", 
	 "Tm": 275.25, 
	 "num_atms": 10, 
	 "gaussian": { 
		 "optdone": 1, 
		 "sigma_profile": "yes", 
		 "theory": "DFT", 
		 "functional": "B3LYP", 
		 "basiset": "6-31G**", 
		 "properties": { 
			 "R2extent": 4151.0435, 
			 "electric_dipole_moment_norm": 1.82404171553, 
			 "electric_quadrupole_moment_norm": 3.4281744486, 
			 "total_energy": -2491.05344948, 
			 "HOMO_LUMO_gap": 0.19975, 
			 "cosmo_polarized_energy": -6.06, 
			 "cosmo_cavitation_energy": 23.39, 
			 "cosmo_dispersion_energy": -17.31, 
			 "cosmo_repulsion_energy": 1.43, 
			 "cosmo_total_nonelectrostatic_energy": 7.52, 
			 "SMD_solvation_energy": 3.09 
		},
		"coords": [
			{
				"x": 0.0142591778,
				"y": 1.5990077654,
				"z": 0.3914388719,
				"element": "Cl" 
			},
			{
				"x": 0.1186789002,
				"y": -0.1933037307,
				"z": 0.5702708852,
				"element": "C" 
			},
			{
				"x": -0.2895062836,
				"y": -1.0381531538,
				"z": -0.9389481634,
				"element": "Cl" 
			},
			{
				"x": -0.8376078999,
				"y": -0.6163321478,
				"z": 1.707131208,
				"element": "C" 
			},
			{
				"x": -1.8966369504,
				"y": -1.1370185653,
				"z": 1.5054873562,
				"element": "O" 
			},
			{
				"x": -0.4072684401,
				"y": -0.327051533,
				"z": 3.2010874748,
				"element": "C" 
			},
			{
				"x": -0.7744541849,
				"y": -1.7878136995,
				"z": 4.1683425807,
				"element": "Cl" 
			},
			{
				"x": 1.3418940293,
				"y": 0.0618858391,
				"z": 3.3773295749,
				"element": "Cl" 
			},
			{
				"x": -1.3923470444,
				"y": 1.0576074822,
				"z": 3.7794173001,
				"element": "Cl" 
			},
			{
				"x": 1.153988696,
				"y": -0.4215282565,
				"z": 0.8079429115,
				"element": "H" 
			}
		],
		 "valence_orbital": [ 
			{
				"type": "occ",
				"energy": -0.34081,
				"method": "rhf"
			},
			{
				"type": "occ",
				"energy": -0.33374,
				"method": "rhf"
			},
			{
				"type": "occ",
				"energy": -0.32705,
				"method": "rhf"
			},
			{
				"type": "occ",
				"energy": -0.32617,
				"method": "rhf"
			},
			{
				"type": "occ",
				"energy": -0.3046,
				"method": "rhf"
			},
			{
				"type": "unocc",
				"energy": -0.10485,
				"method": "rhf"
			},
			{
				"type": "unocc",
				"energy": -0.06282,
				"method": "rhf"
			},
			{
				"type": "unocc",
				"energy": -0.03333,
				"method": "rhf"
			},
			{
				"type": "unocc",
				"energy": -0.02121,
				"method": "rhf"
			},
			{
				"type": "unocc",
				"energy": 0.00098,
				"method": "rhf"
			}
		],
		"cosmo_sigma_profile": { 
			"-0.025": 0.0,
			"-0.024": 0.0,
			"-0.023": 0.0,
			"-0.022": 0.0,
			"-0.021": 0.0,
			"-0.02": 0.0,
			"-0.019": 0.0,
			"-0.018": 0.0,
			"-0.017": 0.0,
			"-0.016": 0.0,
			"-0.015": 0.00518506524727,
			"-0.014": 0.433829362533,
			"-0.013": 1.23793946565,
			"-0.012": 2.04481066122,
			"-0.011": 2.20121727713,
			"-0.01": 1.36070089138,
			"-0.009": 1.46125712935,
			"-0.008": 1.96619634062,
			"-0.007": 1.32209902241,
			"-0.006": 2.8096201627,
			"-0.005": 4.61584715707,
			"-0.004": 10.4033240492,
			"-0.003": 11.5205876448,
			"-0.002": 13.8806125576,
			"-0.001": 13.8304030497,
			"0.0": 20.0910628163,
			"0.001": 30.0336025911,
			"0.002": 40.4502406553,
			"0.003": 19.7573117604,
			"0.004": 5.05703030111,
			"0.005": 3.30503177564,
			"0.006": 3.442609927,
			"0.007": 4.57397177815,
			"0.008": 2.61184865087,
			"0.009": 0.148232349491,
			"0.01": 0.0,
			"0.011": 0.0,
			"0.012": 0.0,
			"0.013": 0.0,
			"0.014": 0.0,
			"0.015": 0.0,
			"0.016": 0.0,
			"0.017": 0.0,
			"0.018": 0.0,
			"0.019": 0.0,
			"0.02": 0.0,
			"0.021": 0.0,
			"0.022": 0.0,
			"0.023": 0.0,
			"0.024": 0.0,
			"0.025": 0.0
		}
	}
}
