{
	 "smiles": "NC(=O)C1CN(C(=O)CCl)C2=C(O1)C=CC=C2", 
	 "Tm": 407.15, 
	 "num_atms": 28, 
	 "gaussian": { 
		 "optdone": 1, 
		 "sigma_profile": "yes", 
		 "theory": "DFT", 
		 "functional": "B3LYP", 
		 "basiset": "6-31G**", 
		 "properties": { 
			 "R2extent": 5298.9764, 
			 "electric_dipole_moment_norm": 7.0684936118, 
			 "electric_quadrupole_moment_norm": 13.2451664523, 
			 "total_energy": -1221.18004037, 
			 "HOMO_LUMO_gap": 0.20024, 
			 "cosmo_polarized_energy": -21.58, 
			 "cosmo_cavitation_energy": 33.4, 
			 "cosmo_dispersion_energy": -24.17, 
			 "cosmo_repulsion_energy": 1.9, 
			 "cosmo_total_nonelectrostatic_energy": 11.13, 
			 "SMD_solvation_energy": 6.4 
		},
		"coords": [
			{
				"x": -1.318180707,
				"y": 3.0018563637,
				"z": 1.1297038858,
				"element": "N" 
			},
			{
				"x": -1.0343377302,
				"y": 2.378182583,
				"z": -0.0396544311,
				"element": "C" 
			},
			{
				"x": -1.5472421715,
				"y": 2.6446124628,
				"z": -1.1165450612,
				"element": "O" 
			},
			{
				"x": 0.0083986272,
				"y": 1.254667189,
				"z": 0.0422535799,
				"element": "C" 
			},
			{
				"x": -0.5612345354,
				"y": -0.0543983602,
				"z": -0.5049001084,
				"element": "C" 
			},
			{
				"x": 0.461638407,
				"y": -1.092707609,
				"z": -0.3640391286,
				"element": "N" 
			},
			{
				"x": 1.0522614455,
				"y": -1.5760264362,
				"z": -1.5298168826,
				"element": "C" 
			},
			{
				"x": 0.5945474939,
				"y": -1.3144986388,
				"z": -2.626900932,
				"element": "O" 
			},
			{
				"x": 2.2989532837,
				"y": -2.4546142742,
				"z": -1.3609343473,
				"element": "C" 
			},
			{
				"x": 3.3532792873,
				"y": -2.382061436,
				"z": -2.8121477971,
				"element": "Cl" 
			},
			{
				"x": 0.9117894806,
				"y": -1.2591216276,
				"z": 0.972958793,
				"element": "C" 
			},
			{
				"x": 0.8828929077,
				"y": -0.1309653079,
				"z": 1.8183951305,
				"element": "C" 
			},
			{
				"x": 0.4631937188,
				"y": 1.1039700561,
				"z": 1.3990207569,
				"element": "O" 
			},
			{
				"x": 1.27959987,
				"y": -0.2405012383,
				"z": 3.1530508299,
				"element": "C" 
			},
			{
				"x": 1.6938989555,
				"y": -1.4675076041,
				"z": 3.6635514345,
				"element": "C" 
			},
			{
				"x": 1.688905345,
				"y": -2.6008345611,
				"z": 2.8472092052,
				"element": "C" 
			},
			{
				"x": 1.2782609297,
				"y": -2.4966602136,
				"z": 1.5202406318,
				"element": "C" 
			},
			{
				"x": -0.8431288512,
				"y": 2.7411637065,
				"z": 1.9788069971,
				"element": "H" 
			},
			{
				"x": -1.9807118591,
				"y": 3.7617517657,
				"z": 1.1206564394,
				"element": "H" 
			},
			{
				"x": 0.8603671551,
				"y": 1.5553122579,
				"z": -0.5807602611,
				"element": "H" 
			},
			{
				"x": -1.4584788736,
				"y": -0.3446321358,
				"z": 0.0523351974,
				"element": "H" 
			},
			{
				"x": -0.8095996431,
				"y": 0.0636143641,
				"z": -1.5569551712,
				"element": "H" 
			},
			{
				"x": 2.8992180819,
				"y": -2.1596596843,
				"z": -0.5018236273,
				"element": "H" 
			},
			{
				"x": 2.0022502519,
				"y": -3.4985936635,
				"z": -1.2401625286,
				"element": "H" 
			},
			{
				"x": 1.2587596992,
				"y": 0.6517237006,
				"z": 3.7704245909,
				"element": "H" 
			},
			{
				"x": 2.0061342656,
				"y": -1.5396419314,
				"z": 4.7006093202,
				"element": "H" 
			},
			{
				"x": 1.9815729854,
				"y": -3.5671733306,
				"z": 3.2445959526,
				"element": "H" 
			},
			{
				"x": 1.2207921798,
				"y": -3.3857563967,
				"z": 0.9023275313,
				"element": "H" 
			}
		],
		 "valence_orbital": [ 
			{
				"type": "occ",
				"energy": -0.27889,
				"method": "rhf"
			},
			{
				"type": "occ",
				"energy": -0.27319,
				"method": "rhf"
			},
			{
				"type": "occ",
				"energy": -0.26355,
				"method": "rhf"
			},
			{
				"type": "occ",
				"energy": -0.25285,
				"method": "rhf"
			},
			{
				"type": "occ",
				"energy": -0.23048,
				"method": "rhf"
			},
			{
				"type": "unocc",
				"energy": -0.03024,
				"method": "rhf"
			},
			{
				"type": "unocc",
				"energy": -0.02131,
				"method": "rhf"
			},
			{
				"type": "unocc",
				"energy": 0.00564,
				"method": "rhf"
			},
			{
				"type": "unocc",
				"energy": 0.01803,
				"method": "rhf"
			},
			{
				"type": "unocc",
				"energy": 0.03357,
				"method": "rhf"
			}
		],
		"cosmo_sigma_profile": { 
			"-0.025": 0.0,
			"-0.024": 0.0,
			"-0.023": 0.0,
			"-0.022": 0.0,
			"-0.021": 0.0,
			"-0.02": 0.0,
			"-0.019": 0.0,
			"-0.018": 0.0,
			"-0.017": 0.0,
			"-0.016": 0.0,
			"-0.015": 0.207013953257,
			"-0.014": 1.41481761796,
			"-0.013": 1.40758363015,
			"-0.012": 2.19335699886,
			"-0.011": 2.94187811952,
			"-0.01": 5.81705567709,
			"-0.009": 3.8448249922,
			"-0.008": 6.74402768346,
			"-0.007": 13.4623885878,
			"-0.006": 16.5364639898,
			"-0.005": 18.4251793213,
			"-0.004": 15.1260468952,
			"-0.003": 14.2051218347,
			"-0.002": 14.1633017486,
			"-0.001": 14.1877339477,
			"0.0": 14.6454267818,
			"0.001": 15.5686272749,
			"0.002": 16.1546212816,
			"0.003": 16.6793969306,
			"0.004": 14.5835376884,
			"0.005": 15.0576446522,
			"0.006": 9.05378389508,
			"0.007": 3.80615856586,
			"0.008": 3.43359879604,
			"0.009": 2.75222090836,
			"0.01": 3.23641332563,
			"0.011": 4.47871927957,
			"0.012": 6.79017556028,
			"0.013": 7.43819143261,
			"0.014": 3.42435976195,
			"0.015": 0.219744043529,
			"0.016": 0.0,
			"0.017": 0.0,
			"0.018": 0.0,
			"0.019": 0.0,
			"0.02": 0.0,
			"0.021": 0.0,
			"0.022": 0.0,
			"0.023": 0.0,
			"0.024": 0.0,
			"0.025": 0.0
		}
	}
}
