{
	 "smiles": "CCC(=O)C1=CC=C(Cl)C(Cl)=C1", 
	 "Tm": 318.15, 
	 "num_atms": 20, 
	 "gaussian": { 
		 "optdone": 1, 
		 "sigma_profile": "yes", 
		 "theory": "DFT", 
		 "functional": "B3LYP", 
		 "basiset": "6-31G**", 
		 "properties": { 
			 "R2extent": 5016.4472, 
			 "electric_dipole_moment_norm": 3.67897987355, 
			 "electric_quadrupole_moment_norm": 10.6064164203, 
			 "total_energy": -1343.39021729, 
			 "HOMO_LUMO_gap": 0.18495, 
			 "cosmo_polarized_energy": -8.07, 
			 "cosmo_cavitation_energy": 27.63, 
			 "cosmo_dispersion_energy": -20.26, 
			 "cosmo_repulsion_energy": 1.62, 
			 "cosmo_total_nonelectrostatic_energy": 9.0, 
			 "SMD_solvation_energy": 4.78 
		},
		"coords": [
			{
				"x": 0.5477674845,
				"y": -3.1737943463,
				"z": 2.4052309583,
				"element": "C" 
			},
			{
				"x": 0.9778168362,
				"y": -1.747513575,
				"z": 2.008908279,
				"element": "C" 
			},
			{
				"x": 0.4066762874,
				"y": -1.3430065617,
				"z": 0.6563756252,
				"element": "C" 
			},
			{
				"x": 1.0781315059,
				"y": -1.4612555402,
				"z": -0.3574559395,
				"element": "O" 
			},
			{
				"x": -1.00614503,
				"y": -0.8342402665,
				"z": 0.5668542641,
				"element": "C" 
			},
			{
				"x": -1.8348728643,
				"y": -0.6409905469,
				"z": 1.68091444,
				"element": "C" 
			},
			{
				"x": -3.1328703627,
				"y": -0.1655355378,
				"z": 1.5194845219,
				"element": "C" 
			},
			{
				"x": -3.6231946116,
				"y": 0.1254429908,
				"z": 0.2444255611,
				"element": "C" 
			},
			{
				"x": -5.2536514093,
				"y": 0.720000277,
				"z": 0.0877081194,
				"element": "Cl" 
			},
			{
				"x": -2.7998247727,
				"y": -0.0644332622,
				"z": -0.878266896,
				"element": "C" 
			},
			{
				"x": -3.369638775,
				"y": 0.2859821819,
				"z": -2.4909031436,
				"element": "Cl" 
			},
			{
				"x": -1.5044880571,
				"y": -0.5409301278,
				"z": -0.7094274695,
				"element": "C" 
			},
			{
				"x": 0.865050569,
				"y": -3.8939694851,
				"z": 1.6454791612,
				"element": "H" 
			},
			{
				"x": 1.0067380118,
				"y": -3.4591096402,
				"z": 3.356254458,
				"element": "H" 
			},
			{
				"x": -0.5378699762,
				"y": -3.2565316127,
				"z": 2.5152994669,
				"element": "H" 
			},
			{
				"x": 0.6847833093,
				"y": -1.0343626061,
				"z": 2.7871564156,
				"element": "H" 
			},
			{
				"x": 2.0653138143,
				"y": -1.7042897201,
				"z": 1.9086373656,
				"element": "H" 
			},
			{
				"x": -1.4797458681,
				"y": -0.8574732,
				"z": 2.6821396464,
				"element": "H" 
			},
			{
				"x": -3.7779586404,
				"y": -0.0138848272,
				"z": 2.3776265538,
				"element": "H" 
			},
			{
				"x": -0.8576174512,
				"y": -0.6918045941,
				"z": -1.566041388,
				"element": "H" 
			}
		],
		 "valence_orbital": [ 
			{
				"type": "occ",
				"energy": -0.33515,
				"method": "rhf"
			},
			{
				"type": "occ",
				"energy": -0.31604,
				"method": "rhf"
			},
			{
				"type": "occ",
				"energy": -0.27141,
				"method": "rhf"
			},
			{
				"type": "occ",
				"energy": -0.2607,
				"method": "rhf"
			},
			{
				"type": "occ",
				"energy": -0.25781,
				"method": "rhf"
			},
			{
				"type": "unocc",
				"energy": -0.07286,
				"method": "rhf"
			},
			{
				"type": "unocc",
				"energy": -0.0332,
				"method": "rhf"
			},
			{
				"type": "unocc",
				"energy": -0.00307,
				"method": "rhf"
			},
			{
				"type": "unocc",
				"energy": 0.0189,
				"method": "rhf"
			},
			{
				"type": "unocc",
				"energy": 0.05492,
				"method": "rhf"
			}
		],
		"cosmo_sigma_profile": { 
			"-0.025": 0.0,
			"-0.024": 0.0,
			"-0.023": 0.0,
			"-0.022": 0.0,
			"-0.021": 0.0,
			"-0.02": 0.0,
			"-0.019": 0.0,
			"-0.018": 0.0,
			"-0.017": 0.0,
			"-0.016": 0.0,
			"-0.015": 0.0,
			"-0.014": 0.0,
			"-0.013": 0.0,
			"-0.012": 0.0,
			"-0.011": 0.0,
			"-0.01": 0.0,
			"-0.009": 0.458717958299,
			"-0.008": 4.12307196666,
			"-0.007": 5.33560295392,
			"-0.006": 6.96917032226,
			"-0.005": 7.02102233679,
			"-0.004": 13.830569207,
			"-0.003": 19.5752840314,
			"-0.002": 22.6346587127,
			"-0.001": 24.8262228892,
			"0.0": 32.1061741106,
			"0.001": 21.9479066049,
			"0.002": 14.8303957211,
			"0.003": 16.7660605689,
			"0.004": 14.5621475741,
			"0.005": 4.45766559244,
			"0.006": 1.90314002745,
			"0.007": 0.916664528841,
			"0.008": 1.69336834692,
			"0.009": 1.79136029445,
			"0.01": 2.4568924817,
			"0.011": 2.96199061553,
			"0.012": 3.04764523985,
			"0.013": 0.822708681065,
			"0.014": 0.0,
			"0.015": 0.0,
			"0.016": 0.0,
			"0.017": 0.0,
			"0.018": 0.0,
			"0.019": 0.0,
			"0.02": 0.0,
			"0.021": 0.0,
			"0.022": 0.0,
			"0.023": 0.0,
			"0.024": 0.0,
			"0.025": 0.0
		}
	}
}
