{
	 "smiles": "CN(CC(N)=O)C(=O)COC(=O)C1=CC=CC=C1OC(C)=O", 
	 "Tm": 405.15, 
	 "num_atms": 38, 
	 "gaussian": { 
		 "optdone": 1, 
		 "sigma_profile": "yes", 
		 "theory": "DFT", 
		 "functional": "B3LYP", 
		 "basiset": "6-31G**", 
		 "properties": { 
			 "R2extent": 8614.162, 
			 "electric_dipole_moment_norm": 1.21253289028, 
			 "electric_quadrupole_moment_norm": 18.9645135363, 
			 "total_energy": -1104.02103299, 
			 "HOMO_LUMO_gap": 0.19222, 
			 "cosmo_polarized_energy": -24.5, 
			 "cosmo_cavitation_energy": 43.27, 
			 "cosmo_dispersion_energy": -28.62, 
			 "cosmo_repulsion_energy": 2.2, 
			 "cosmo_total_nonelectrostatic_energy": 16.85, 
			 "SMD_solvation_energy": 10.19 
		},
		"coords": [
			{
				"x": 3.2627304016,
				"y": -1.520263402,
				"z": 1.6626576202,
				"element": "C" 
			},
			{
				"x": 2.0785861612,
				"y": -0.6671636009,
				"z": 1.7344917058,
				"element": "N" 
			},
			{
				"x": 1.7677435143,
				"y": -0.0976795287,
				"z": 3.0508335919,
				"element": "C" 
			},
			{
				"x": 0.8887222059,
				"y": -1.0570264037,
				"z": 3.8710936306,
				"element": "C" 
			},
			{
				"x": -0.4379094506,
				"y": -0.9667250776,
				"z": 3.5786021651,
				"element": "N" 
			},
			{
				"x": 1.3675676294,
				"y": -1.8327769067,
				"z": 4.6878088605,
				"element": "O" 
			},
			{
				"x": 1.1993916591,
				"y": -0.4436183863,
				"z": 0.7204546062,
				"element": "C" 
			},
			{
				"x": 0.1360353134,
				"y": 0.1577014697,
				"z": 0.8911216598,
				"element": "O" 
			},
			{
				"x": 1.5808846478,
				"y": -0.9784285657,
				"z": -0.6688850679,
				"element": "C" 
			},
			{
				"x": 0.721113,
				"y": -0.4317595066,
				"z": -1.6627973887,
				"element": "O" 
			},
			{
				"x": 1.1118005027,
				"y": 0.762272414,
				"z": -2.1813548295,
				"element": "C" 
			},
			{
				"x": 2.1438427726,
				"y": 1.3138845876,
				"z": -1.8574653719,
				"element": "O" 
			},
			{
				"x": 0.1981816993,
				"y": 1.2683362718,
				"z": -3.2455245981,
				"element": "C" 
			},
			{
				"x": 0.7822376216,
				"y": 2.0648298429,
				"z": -4.2430190289,
				"element": "C" 
			},
			{
				"x": 0.0241491017,
				"y": 2.5670530636,
				"z": -5.2954703916,
				"element": "C" 
			},
			{
				"x": -1.3448216155,
				"y": 2.2949306612,
				"z": -5.3529016922,
				"element": "C" 
			},
			{
				"x": -1.9489317418,
				"y": 1.5331947091,
				"z": -4.3543287283,
				"element": "C" 
			},
			{
				"x": -1.183848943,
				"y": 1.0242297092,
				"z": -3.3076417644,
				"element": "C" 
			},
			{
				"x": -1.8330163346,
				"y": 0.3902238572,
				"z": -2.2589984547,
				"element": "O" 
			},
			{
				"x": -2.0322117919,
				"y": -0.9707896384,
				"z": -2.3186063601,
				"element": "C" 
			},
			{
				"x": -2.585138705,
				"y": -1.444201088,
				"z": -1.0011217248,
				"element": "C" 
			},
			{
				"x": -1.7897354389,
				"y": -1.6374311997,
				"z": -3.2912428775,
				"element": "O" 
			},
			{
				"x": 3.2572898301,
				"y": -2.2077755762,
				"z": 2.5137866079,
				"element": "H" 
			},
			{
				"x": 4.1817109084,
				"y": -0.9227780388,
				"z": 1.6992822465,
				"element": "H" 
			},
			{
				"x": 3.2691153933,
				"y": -2.1139480513,
				"z": 0.7493242137,
				"element": "H" 
			},
			{
				"x": 2.7023728433,
				"y": 0.0477059188,
				"z": 3.5949191522,
				"element": "H" 
			},
			{
				"x": 1.2730468973,
				"y": 0.8637391847,
				"z": 2.9001016616,
				"element": "H" 
			},
			{
				"x": -0.7244998937,
				"y": -0.4526571371,
				"z": 2.7531535573,
				"element": "H" 
			},
			{
				"x": -1.0547791942,
				"y": -1.6575063874,
				"z": 3.9807139156,
				"element": "H" 
			},
			{
				"x": 2.6199631453,
				"y": -0.7439887386,
				"z": -0.9082665105,
				"element": "H" 
			},
			{
				"x": 1.4265171538,
				"y": -2.0608786041,
				"z": -0.7105684766,
				"element": "H" 
			},
			{
				"x": 1.8442351054,
				"y": 2.2725922746,
				"z": -4.170035341,
				"element": "H" 
			},
			{
				"x": 0.4958034622,
				"y": 3.1707743545,
				"z": -6.0642758291,
				"element": "H" 
			},
			{
				"x": -1.9465361829,
				"y": 2.6840843365,
				"z": -6.1688284918,
				"element": "H" 
			},
			{
				"x": -3.0153896274,
				"y": 1.3359674065,
				"z": -4.3633604547,
				"element": "H" 
			},
			{
				"x": -2.7319119382,
				"y": -2.5234893757,
				"z": -1.0316074364,
				"element": "H" 
			},
			{
				"x": -1.8858945615,
				"y": -1.1631762094,
				"z": -0.208047081,
				"element": "H" 
			},
			{
				"x": -3.5357155504,
				"y": -0.9438586391,
				"z": -0.7926972952,
				"element": "H" 
			}
		],
		 "valence_orbital": [ 
			{
				"type": "occ",
				"energy": -0.27353,
				"method": "rhf"
			},
			{
				"type": "occ",
				"energy": -0.26878,
				"method": "rhf"
			},
			{
				"type": "occ",
				"energy": -0.26379,
				"method": "rhf"
			},
			{
				"type": "occ",
				"energy": -0.25523,
				"method": "rhf"
			},
			{
				"type": "occ",
				"energy": -0.24137,
				"method": "rhf"
			},
			{
				"type": "unocc",
				"energy": -0.04915,
				"method": "rhf"
			},
			{
				"type": "unocc",
				"energy": -0.01192,
				"method": "rhf"
			},
			{
				"type": "unocc",
				"energy": -0.00057,
				"method": "rhf"
			},
			{
				"type": "unocc",
				"energy": 0.01214,
				"method": "rhf"
			},
			{
				"type": "unocc",
				"energy": 0.0183,
				"method": "rhf"
			}
		],
		"cosmo_sigma_profile": { 
			"-0.025": 0.0,
			"-0.024": 0.0,
			"-0.023": 0.0,
			"-0.022": 0.0,
			"-0.021": 0.0,
			"-0.02": 0.0,
			"-0.019": 0.0,
			"-0.018": 0.0,
			"-0.017": 0.0,
			"-0.016": 0.0,
			"-0.015": 0.0,
			"-0.014": 0.52300261348,
			"-0.013": 1.15490096746,
			"-0.012": 1.1692834777,
			"-0.011": 0.922433575637,
			"-0.01": 2.05281962658,
			"-0.009": 6.31266634567,
			"-0.008": 7.16634945109,
			"-0.007": 14.8654103486,
			"-0.006": 22.6824002403,
			"-0.005": 29.1718260928,
			"-0.004": 27.8497543299,
			"-0.003": 28.796254545,
			"-0.002": 25.0024567174,
			"-0.001": 20.2042721807,
			"0.0": 17.5811704846,
			"0.001": 17.1682551348,
			"0.002": 18.7637924351,
			"0.003": 17.6488882869,
			"0.004": 9.67507032439,
			"0.005": 7.93034102253,
			"0.006": 7.68735416818,
			"0.007": 9.21315838816,
			"0.008": 7.33518357346,
			"0.009": 6.43013707408,
			"0.01": 8.55256141787,
			"0.011": 12.4643890094,
			"0.012": 6.04796203068,
			"0.013": 4.33288973197,
			"0.014": 4.37855136941,
			"0.015": 0.619344404342,
			"0.016": 0.0,
			"0.017": 0.0,
			"0.018": 0.0,
			"0.019": 0.0,
			"0.02": 0.0,
			"0.021": 0.0,
			"0.022": 0.0,
			"0.023": 0.0,
			"0.024": 0.0,
			"0.025": 0.0
		}
	}
}
