{
	 "smiles": "CC1=CC(SCC2=CC(=CC=C2)C(O)=O)=C(C)C=C1", 
	 "Tm": 403.15, 
	 "num_atms": 35, 
	 "gaussian": { 
		 "optdone": 1, 
		 "sigma_profile": "yes", 
		 "theory": "DFT", 
		 "functional": "B3LYP", 
		 "basiset": "6-31G**", 
		 "properties": { 
			 "R2extent": 8598.1498, 
			 "electric_dipole_moment_norm": 4.57357334477, 
			 "electric_quadrupole_moment_norm": 29.1470358498, 
			 "total_energy": -1168.00534979, 
			 "HOMO_LUMO_gap": 0.17609, 
			 "cosmo_polarized_energy": -17.37, 
			 "cosmo_cavitation_energy": 40.92, 
			 "cosmo_dispersion_energy": -28.74, 
			 "cosmo_repulsion_energy": 2.18, 
			 "cosmo_total_nonelectrostatic_energy": 14.36, 
			 "SMD_solvation_energy": 7.57 
		},
		"coords": [
			{
				"x": -0.9942694725,
				"y": 5.271823865,
				"z": 1.9339533162,
				"element": "C" 
			},
			{
				"x": 0.0936180818,
				"y": 4.223603465,
				"z": 1.9215799204,
				"element": "C" 
			},
			{
				"x": 0.1552633214,
				"y": 3.2565029381,
				"z": 0.9127797082,
				"element": "C" 
			},
			{
				"x": 1.143641795,
				"y": 2.2632662313,
				"z": 0.9007688915,
				"element": "C" 
			},
			{
				"x": 1.1516219111,
				"y": 1.0970858955,
				"z": -0.4705900192,
				"element": "S" 
			},
			{
				"x": 0.1915479257,
				"y": -0.3150302843,
				"z": 0.2720539571,
				"element": "C" 
			},
			{
				"x": 0.0537951209,
				"y": -1.4187165294,
				"z": -0.7429233424,
				"element": "C" 
			},
			{
				"x": -1.0828581255,
				"y": -1.50496724,
				"z": -1.5504021212,
				"element": "C" 
			},
			{
				"x": -1.2077126248,
				"y": -2.5114750164,
				"z": -2.5157813282,
				"element": "C" 
			},
			{
				"x": -0.1870455931,
				"y": -3.4615457863,
				"z": -2.658738661,
				"element": "C" 
			},
			{
				"x": 0.9501874497,
				"y": -3.387081568,
				"z": -1.8546525383,
				"element": "C" 
			},
			{
				"x": 1.0733535488,
				"y": -2.3681686276,
				"z": -0.9114457052,
				"element": "C" 
			},
			{
				"x": -2.4671820714,
				"y": -2.5381170052,
				"z": -3.3298877614,
				"element": "C" 
			},
			{
				"x": -2.4126495479,
				"y": -3.2016196371,
				"z": -4.5165559989,
				"element": "O" 
			},
			{
				"x": -3.4959029888,
				"y": -2.0085389609,
				"z": -2.9811469533,
				"element": "O" 
			},
			{
				"x": 2.1249289901,
				"y": 2.2192238901,
				"z": 1.9134289747,
				"element": "C" 
			},
			{
				"x": 3.2247925302,
				"y": 1.1851746826,
				"z": 1.9367391203,
				"element": "C" 
			},
			{
				"x": 2.0551629035,
				"y": 3.1923136131,
				"z": 2.9193911642,
				"element": "C" 
			},
			{
				"x": 1.0652071909,
				"y": 4.1729920001,
				"z": 2.9277362621,
				"element": "C" 
			},
			{
				"x": -1.4395360021,
				"y": 5.3975988282,
				"z": 0.9430191156,
				"element": "H" 
			},
			{
				"x": -1.802178953,
				"y": 4.9982987988,
				"z": 2.6240600682,
				"element": "H" 
			},
			{
				"x": -0.6089362906,
				"y": 6.2440158875,
				"z": 2.2576283365,
				"element": "H" 
			},
			{
				"x": -0.5752467684,
				"y": 3.2708404553,
				"z": 0.108691659,
				"element": "H" 
			},
			{
				"x": 0.7215648191,
				"y": -0.6652517397,
				"z": 1.1618578972,
				"element": "H" 
			},
			{
				"x": -0.7871263814,
				"y": 0.063500219,
				"z": 0.5753314013,
				"element": "H" 
			},
			{
				"x": -1.8948234798,
				"y": -0.7927080245,
				"z": -1.4434640557,
				"element": "H" 
			},
			{
				"x": -0.286522419,
				"y": -4.2865083838,
				"z": -3.3600860519,
				"element": "H" 
			},
			{
				"x": 1.7359862892,
				"y": -4.1291894024,
				"z": -1.9577800785,
				"element": "H" 
			},
			{
				"x": 1.9641635198,
				"y": -2.3101346702,
				"z": -0.2917942096,
				"element": "H" 
			},
			{
				"x": -1.4955998346,
				"y": -3.419645431,
				"z": -4.7331921492,
				"element": "H" 
			},
			{
				"x": 3.9261109363,
				"y": 1.3861074643,
				"z": 2.7511703604,
				"element": "H" 
			},
			{
				"x": 3.7813826773,
				"y": 1.1710447117,
				"z": 0.9950842045,
				"element": "H" 
			},
			{
				"x": 2.8295282182,
				"y": 0.1731362946,
				"z": 2.0829569304,
				"element": "H" 
			},
			{
				"x": 2.8017475702,
				"y": 3.1837315364,
				"z": 3.7096888161,
				"element": "H" 
			},
			{
				"x": 1.052985754,
				"y": 4.9131375304,
				"z": 3.7244208701,
				"element": "H" 
			}
		],
		 "valence_orbital": [ 
			{
				"type": "occ",
				"energy": -0.26814,
				"method": "rhf"
			},
			{
				"type": "occ",
				"energy": -0.26474,
				"method": "rhf"
			},
			{
				"type": "occ",
				"energy": -0.24915,
				"method": "rhf"
			},
			{
				"type": "occ",
				"energy": -0.23738,
				"method": "rhf"
			},
			{
				"type": "occ",
				"energy": -0.22815,
				"method": "rhf"
			},
			{
				"type": "unocc",
				"energy": -0.05206,
				"method": "rhf"
			},
			{
				"type": "unocc",
				"energy": -0.03161,
				"method": "rhf"
			},
			{
				"type": "unocc",
				"energy": -0.01529,
				"method": "rhf"
			},
			{
				"type": "unocc",
				"energy": -0.00175,
				"method": "rhf"
			},
			{
				"type": "unocc",
				"energy": 0.04042,
				"method": "rhf"
			}
		],
		"cosmo_sigma_profile": { 
			"-0.025": 0.0,
			"-0.024": 0.0,
			"-0.023": 0.0,
			"-0.022": 0.0,
			"-0.021": 0.0,
			"-0.02": 0.0,
			"-0.019": 0.340488052708,
			"-0.018": 0.880738190442,
			"-0.017": 0.666611971347,
			"-0.016": 1.31731463615,
			"-0.015": 0.76098251297,
			"-0.014": 0.572733811607,
			"-0.013": 0.910540155007,
			"-0.012": 1.57680854194,
			"-0.011": 1.32055859192,
			"-0.01": 0.926578363356,
			"-0.009": 1.40946653243,
			"-0.008": 1.40789802951,
			"-0.007": 4.93005857941,
			"-0.006": 14.4609507258,
			"-0.005": 20.8439737273,
			"-0.004": 26.9672798496,
			"-0.003": 25.2016042359,
			"-0.002": 26.4421248306,
			"-0.001": 25.230903023,
			"0.0": 29.3854359707,
			"0.001": 23.2458621378,
			"0.002": 23.1982608522,
			"0.003": 25.8535947314,
			"0.004": 14.3301715363,
			"0.005": 14.989009567,
			"0.006": 8.30735897054,
			"0.007": 4.28056557573,
			"0.008": 5.5732803237,
			"0.009": 4.39055599089,
			"0.01": 5.43517225708,
			"0.011": 5.20071531638,
			"0.012": 5.01532294631,
			"0.013": 1.53038592069,
			"0.014": 0.0327460633285,
			"0.015": 0.0,
			"0.016": 0.0,
			"0.017": 0.0,
			"0.018": 0.0,
			"0.019": 0.0,
			"0.02": 0.0,
			"0.021": 0.0,
			"0.022": 0.0,
			"0.023": 0.0,
			"0.024": 0.0,
			"0.025": 0.0
		}
	}
}
