{
	 "smiles": "CC1=NC(=CS1)C1=CC=CC(Br)=C1", 
	 "Tm": 331.15, 
	 "num_atms": 21, 
	 "gaussian": { 
		 "optdone": 1, 
		 "sigma_profile": "yes", 
		 "theory": "DFT", 
		 "functional": "B3LYP", 
		 "basiset": "6-31G**", 
		 "properties": { 
			 "R2extent": 5847.5613, 
			 "electric_dipole_moment_norm": 2.84389604065, 
			 "electric_quadrupole_moment_norm": 12.1864692028, 
			 "total_energy": -3410.23429288, 
			 "HOMO_LUMO_gap": 0.17764, 
			 "cosmo_polarized_energy": -7.46, 
			 "cosmo_cavitation_energy": 29.28, 
			 "cosmo_dispersion_energy": -22.54, 
			 "cosmo_repulsion_energy": 1.73, 
			 "cosmo_total_nonelectrostatic_energy": 8.48, 
			 "SMD_solvation_energy": 2.56 
		},
		"coords": [
			{
				"x": 1.5340934859,
				"y": 1.97779213,
				"z": 3.7325978494,
				"element": "C" 
			},
			{
				"x": 0.6602956985,
				"y": 1.1260837565,
				"z": 2.8634917367,
				"element": "C" 
			},
			{
				"x": 1.0535523153,
				"y": 0.5429322716,
				"z": 1.7729388293,
				"element": "N" 
			},
			{
				"x": 0.0414516651,
				"y": -0.1844680701,
				"z": 1.1658803112,
				"element": "C" 
			},
			{
				"x": -1.1594103852,
				"y": -0.1442732303,
				"z": 1.8291734667,
				"element": "C" 
			},
			{
				"x": -1.0350281088,
				"y": 0.8270822958,
				"z": 3.2551003976,
				"element": "S" 
			},
			{
				"x": 0.3344415332,
				"y": -0.9067407832,
				"z": -0.0878003057,
				"element": "C" 
			},
			{
				"x": -0.6404634482,
				"y": -1.6649352439,
				"z": -0.7572709535,
				"element": "C" 
			},
			{
				"x": -0.3300985498,
				"y": -2.3337421656,
				"z": -1.9379384291,
				"element": "C" 
			},
			{
				"x": 0.9546400858,
				"y": -2.2655359783,
				"z": -2.481385883,
				"element": "C" 
			},
			{
				"x": 1.9165939833,
				"y": -1.5118338308,
				"z": -1.8123066746,
				"element": "C" 
			},
			{
				"x": 3.6850997966,
				"y": -1.4030481584,
				"z": -2.5378384279,
				"element": "Br" 
			},
			{
				"x": 1.6276515091,
				"y": -0.8361307644,
				"z": -0.6317876831,
				"element": "C" 
			},
			{
				"x": 1.1412376565,
				"y": 2.9960318807,
				"z": 3.8217847047,
				"element": "H" 
			},
			{
				"x": 2.5288391061,
				"y": 2.0224017044,
				"z": 3.2857823916,
				"element": "H" 
			},
			{
				"x": 1.6197664062,
				"y": 1.5642922002,
				"z": 4.7430140252,
				"element": "H" 
			},
			{
				"x": -2.0938480922,
				"y": -0.6190477974,
				"z": 1.5694008558,
				"element": "H" 
			},
			{
				"x": -1.6470014382,
				"y": -1.7356016017,
				"z": -0.3577047086,
				"element": "H" 
			},
			{
				"x": -1.0936196178,
				"y": -2.9163550567,
				"z": -2.4449691713,
				"element": "H" 
			},
			{
				"x": 1.2019975342,
				"y": -2.7841629052,
				"z": -3.4002618392,
				"element": "H" 
			},
			{
				"x": 2.3848088644,
				"y": -0.2542406532,
				"z": -0.1225004922,
				"element": "H" 
			}
		],
		 "valence_orbital": [ 
			{
				"type": "occ",
				"energy": -0.28176,
				"method": "rhf"
			},
			{
				"type": "occ",
				"energy": -0.27763,
				"method": "rhf"
			},
			{
				"type": "occ",
				"energy": -0.276,
				"method": "rhf"
			},
			{
				"type": "occ",
				"energy": -0.24309,
				"method": "rhf"
			},
			{
				"type": "occ",
				"energy": -0.22225,
				"method": "rhf"
			},
			{
				"type": "unocc",
				"energy": -0.04461,
				"method": "rhf"
			},
			{
				"type": "unocc",
				"energy": -0.01536,
				"method": "rhf"
			},
			{
				"type": "unocc",
				"energy": -0.00515,
				"method": "rhf"
			},
			{
				"type": "unocc",
				"energy": 0.00711,
				"method": "rhf"
			},
			{
				"type": "unocc",
				"energy": 0.01828,
				"method": "rhf"
			}
		],
		"cosmo_sigma_profile": { 
			"-0.025": 0.0,
			"-0.024": 0.0,
			"-0.023": 0.0,
			"-0.022": 0.0,
			"-0.021": 0.0,
			"-0.02": 0.0,
			"-0.019": 0.0,
			"-0.018": 0.0,
			"-0.017": 0.0,
			"-0.016": 0.0,
			"-0.015": 0.0,
			"-0.014": 0.0,
			"-0.013": 0.0,
			"-0.012": 0.0,
			"-0.011": 0.0,
			"-0.01": 0.972990968741,
			"-0.009": 2.71242593348,
			"-0.008": 2.43156091484,
			"-0.007": 4.96091386472,
			"-0.006": 10.6162142,
			"-0.005": 15.6992862252,
			"-0.004": 15.1215633787,
			"-0.003": 15.7815974102,
			"-0.002": 15.7671907973,
			"-0.001": 17.9823593848,
			"0.0": 14.3298933023,
			"0.001": 20.690651247,
			"0.002": 30.8965393313,
			"0.003": 32.4357378372,
			"0.004": 21.8581795782,
			"0.005": 10.6785723708,
			"0.006": 1.87707506648,
			"0.007": 1.53965725377,
			"0.008": 1.69830406016,
			"0.009": 0.666976702028,
			"0.01": 1.81699305177,
			"0.011": 0.442537987167,
			"0.012": 0.0,
			"0.013": 0.0,
			"0.014": 0.0,
			"0.015": 0.0,
			"0.016": 0.0,
			"0.017": 0.0,
			"0.018": 0.0,
			"0.019": 0.0,
			"0.02": 0.0,
			"0.021": 0.0,
			"0.022": 0.0,
			"0.023": 0.0,
			"0.024": 0.0,
			"0.025": 0.0
		}
	}
}
