{
	 "smiles": "CC1=NN(C(N)=C1)C1=CC(Br)=CC=C1", 
	 "Tm": 419.15, 
	 "num_atms": 24, 
	 "gaussian": { 
		 "optdone": 1, 
		 "sigma_profile": "yes", 
		 "theory": "DFT", 
		 "functional": "B3LYP", 
		 "basiset": "6-31G**", 
		 "properties": { 
			 "R2extent": 8140.6699, 
			 "electric_dipole_moment_norm": 2.76057435509, 
			 "electric_quadrupole_moment_norm": 11.0182109501, 
			 "total_energy": -3122.73557198, 
			 "HOMO_LUMO_gap": 0.18758, 
			 "cosmo_polarized_energy": -11.54, 
			 "cosmo_cavitation_energy": 30.27, 
			 "cosmo_dispersion_energy": -22.63, 
			 "cosmo_repulsion_energy": 1.8, 
			 "cosmo_total_nonelectrostatic_energy": 9.44, 
			 "SMD_solvation_energy": 3.5 
		},
		"coords": [
			{
				"x": 2.3800748262,
				"y": -0.184662786,
				"z": -1.0233836574,
				"element": "C" 
			},
			{
				"x": 0.8900064598,
				"y": -0.1136903707,
				"z": -0.8884249446,
				"element": "C" 
			},
			{
				"x": 0.2984942559,
				"y": -0.5561298697,
				"z": 0.2117928572,
				"element": "N" 
			},
			{
				"x": -1.0464966245,
				"y": -0.324620928,
				"z": 0.015152194,
				"element": "N" 
			},
			{
				"x": -1.2820602416,
				"y": 0.2298078217,
				"z": -1.2223830302,
				"element": "C" 
			},
			{
				"x": -2.5567073604,
				"y": 0.5737898837,
				"z": -1.6705705895,
				"element": "N" 
			},
			{
				"x": -0.0501921032,
				"y": 0.3891042476,
				"z": -1.8262811562,
				"element": "C" 
			},
			{
				"x": -1.9618191791,
				"y": -0.7164360823,
				"z": 1.01923581,
				"element": "C" 
			},
			{
				"x": -3.1612211966,
				"y": -0.0158802662,
				"z": 1.2133814657,
				"element": "C" 
			},
			{
				"x": -4.0335253714,
				"y": -0.4442123152,
				"z": 2.2119188637,
				"element": "C" 
			},
			{
				"x": -5.6756958295,
				"y": 0.5057934801,
				"z": 2.466281036,
				"element": "Br" 
			},
			{
				"x": -3.7391995666,
				"y": -1.5272390016,
				"z": 3.0348982895,
				"element": "C" 
			},
			{
				"x": -2.5257660162,
				"y": -2.1936106713,
				"z": 2.8434221015,
				"element": "C" 
			},
			{
				"x": -1.6400928528,
				"y": -1.8040599499,
				"z": 1.8438127061,
				"element": "C" 
			},
			{
				"x": 2.8112899879,
				"y": -0.6472275776,
				"z": -0.1330289497,
				"element": "H" 
			},
			{
				"x": 2.8167501961,
				"y": 0.8133859981,
				"z": -1.1416826912,
				"element": "H" 
			},
			{
				"x": 2.6734521191,
				"y": -0.7744694815,
				"z": -1.89918118,
				"element": "H" 
			},
			{
				"x": -3.2730140221,
				"y": -0.1078359096,
				"z": -1.4442317266,
				"element": "H" 
			},
			{
				"x": -2.5621504531,
				"y": 0.7748184109,
				"z": -2.6625564677,
				"element": "H" 
			},
			{
				"x": 0.1399265194,
				"y": 0.7964592122,
				"z": -2.8086950894,
				"element": "H" 
			},
			{
				"x": -3.394704127,
				"y": 0.8573608725,
				"z": 0.6185429784,
				"element": "H" 
			},
			{
				"x": -4.4340639914,
				"y": -1.8377779809,
				"z": 3.8060085162,
				"element": "H" 
			},
			{
				"x": -2.275032646,
				"y": -3.0362435578,
				"z": 3.4809282378,
				"element": "H" 
			},
			{
				"x": -0.6964527831,
				"y": -2.3121231782,
				"z": 1.6913444265,
				"element": "H" 
			}
		],
		 "valence_orbital": [ 
			{
				"type": "occ",
				"energy": -0.28145,
				"method": "rhf"
			},
			{
				"type": "occ",
				"energy": -0.2805,
				"method": "rhf"
			},
			{
				"type": "occ",
				"energy": -0.24767,
				"method": "rhf"
			},
			{
				"type": "occ",
				"energy": -0.2225,
				"method": "rhf"
			},
			{
				"type": "occ",
				"energy": -0.21009,
				"method": "rhf"
			},
			{
				"type": "unocc",
				"energy": -0.02251,
				"method": "rhf"
			},
			{
				"type": "unocc",
				"energy": -0.01703,
				"method": "rhf"
			},
			{
				"type": "unocc",
				"energy": 0.00579,
				"method": "rhf"
			},
			{
				"type": "unocc",
				"energy": 0.04418,
				"method": "rhf"
			},
			{
				"type": "unocc",
				"energy": 0.07004,
				"method": "rhf"
			}
		],
		"cosmo_sigma_profile": { 
			"-0.025": 0.0,
			"-0.024": 0.0,
			"-0.023": 0.0,
			"-0.022": 0.0,
			"-0.021": 0.0,
			"-0.02": 0.0,
			"-0.019": 0.0,
			"-0.018": 0.0,
			"-0.017": 0.0,
			"-0.016": 0.0,
			"-0.015": 0.0,
			"-0.014": 0.49623091128,
			"-0.013": 1.76118987499,
			"-0.012": 2.77382291092,
			"-0.011": 2.52305420054,
			"-0.01": 2.53691137958,
			"-0.009": 3.14232785774,
			"-0.008": 2.45163190324,
			"-0.007": 5.83073895795,
			"-0.006": 8.91415511132,
			"-0.005": 10.5702799537,
			"-0.004": 15.0302827755,
			"-0.003": 15.6576308528,
			"-0.002": 16.5087616204,
			"-0.001": 19.7280481692,
			"0.0": 18.1554931282,
			"0.001": 18.2459114573,
			"0.002": 20.6676226404,
			"0.003": 24.5018736093,
			"0.004": 21.2610392202,
			"0.005": 13.223978858,
			"0.006": 5.97367943504,
			"0.007": 3.21852809114,
			"0.008": 2.68242775755,
			"0.009": 2.19202605489,
			"0.01": 2.0382215908,
			"0.011": 1.34319205744,
			"0.012": 1.2519997948,
			"0.013": 1.24990457087,
			"0.014": 0.614967529091,
			"0.015": 0.536496448312,
			"0.016": 0.0868906846427,
			"0.017": 0.0,
			"0.018": 0.0,
			"0.019": 0.0,
			"0.02": 0.0,
			"0.021": 0.0,
			"0.022": 0.0,
			"0.023": 0.0,
			"0.024": 0.0,
			"0.025": 0.0
		}
	}
}
