{
	 "smiles": "CCCCCCCCCCCCCCCCCCCCCC(O)=O", 
	 "Tm": 351.65, 
	 "num_atms": 68, 
	 "gaussian": { 
		 "optdone": 1, 
		 "sigma_profile": "no", 
		 "theory": "DFT", 
		 "functional": "B3LYP", 
		 "basiset": "6-31G**", 
		 "properties": { 
			 "R2extent": 15203.7867, 
			 "electric_dipole_moment_norm": 5.08198816016, 
			 "electric_quadrupole_moment_norm": 39.2843734403, 
			 "total_energy": -1015.36437043, 
			 "HOMO_LUMO_gap": 0.2739, 
			 "cosmo_polarized_energy": -22.54, 
			 "cosmo_cavitation_energy": 64.72, 
			 "cosmo_dispersion_energy": -39.06, 
			 "cosmo_repulsion_energy": 3.06, 
			 "cosmo_total_nonelectrostatic_energy": 28.71, 
			 "SMD_solvation_energy": 9.08 
		},
		"coords": [
			{
				"x": -5.1528030342,
				"y": 1.9469205091,
				"z": 0.7894389298,
				"element": "C" 
			},
			{
				"x": -4.1845642721,
				"y": 1.1541488269,
				"z": 1.6747219537,
				"element": "C" 
			},
			{
				"x": -3.5248138316,
				"y": -0.0706757973,
				"z": 1.0156764789,
				"element": "C" 
			},
			{
				"x": -2.6128876801,
				"y": 0.2293283458,
				"z": -0.1966607673,
				"element": "C" 
			},
			{
				"x": -3.3048957731,
				"y": 0.1130361165,
				"z": -1.5649254532,
				"element": "C" 
			},
			{
				"x": -2.4288130225,
				"y": 0.5256117231,
				"z": -2.7616465382,
				"element": "C" 
			},
			{
				"x": -1.1452984462,
				"y": -0.2963044357,
				"z": -2.9801806566,
				"element": "C" 
			},
			{
				"x": -1.393399646,
				"y": -1.7785697794,
				"z": -3.3052678955,
				"element": "C" 
			},
			{
				"x": -0.1396853417,
				"y": -2.5977815976,
				"z": -3.6837861338,
				"element": "C" 
			},
			{
				"x": 0.6256237356,
				"y": -3.259931233,
				"z": -2.5204120482,
				"element": "C" 
			},
			{
				"x": 1.3454193541,
				"y": -2.3399517387,
				"z": -1.5175188186,
				"element": "C" 
			},
			{
				"x": 2.4666740056,
				"y": -1.4914063158,
				"z": -2.1348727149,
				"element": "C" 
			},
			{
				"x": 3.3589290011,
				"y": -0.7241230666,
				"z": -1.1413355448,
				"element": "C" 
			},
			{
				"x": 2.6645358966,
				"y": 0.3877119837,
				"z": -0.3234893037,
				"element": "C" 
			},
			{
				"x": 2.0939911344,
				"y": -0.0530602374,
				"z": 1.0336559891,
				"element": "C" 
			},
			{
				"x": 1.4015024416,
				"y": 1.0841785702,
				"z": 1.7949091837,
				"element": "C" 
			},
			{
				"x": 0.8659633208,
				"y": 0.6654939921,
				"z": 3.1730419089,
				"element": "C" 
			},
			{
				"x": 0.1470085492,
				"y": 1.7768535077,
				"z": 3.9696568754,
				"element": "C" 
			},
			{
				"x": 0.992752482,
				"y": 2.6419276794,
				"z": 4.9258433899,
				"element": "C" 
			},
			{
				"x": 2.0901350109,
				"y": 3.5319341008,
				"z": 4.3021107492,
				"element": "C" 
			},
			{
				"x": 3.4787154848,
				"y": 2.8606669372,
				"z": 4.226140607,
				"element": "C" 
			},
			{
				"x": 4.5392838387,
				"y": 3.7365685825,
				"z": 3.5732752022,
				"element": "C" 
			},
			{
				"x": 4.3213056139,
				"y": 4.0475143014,
				"z": 2.2624586426,
				"element": "O" 
			},
			{
				"x": 5.5201340724,
				"y": 4.1579246039,
				"z": 4.1323996145,
				"element": "O" 
			},
			{
				"x": -5.9514075756,
				"y": 1.3056270999,
				"z": 0.3988581587,
				"element": "H" 
			},
			{
				"x": -5.6255708631,
				"y": 2.7563202209,
				"z": 1.3560539638,
				"element": "H" 
			},
			{
				"x": -4.6440352599,
				"y": 2.4027310671,
				"z": -0.0660354768,
				"element": "H" 
			},
			{
				"x": -4.7214916605,
				"y": 0.8146174348,
				"z": 2.5702095677,
				"element": "H" 
			},
			{
				"x": -3.3946087753,
				"y": 1.8275788602,
				"z": 2.0360768239,
				"element": "H" 
			},
			{
				"x": -4.3031755466,
				"y": -0.786880472,
				"z": 0.7162740631,
				"element": "H" 
			},
			{
				"x": -2.9349628376,
				"y": -0.5803565527,
				"z": 1.7880722838,
				"element": "H" 
			},
			{
				"x": -2.1809245806,
				"y": 1.2356565572,
				"z": -0.0891581727,
				"element": "H" 
			},
			{
				"x": -1.7615003576,
				"y": -0.4620113472,
				"z": -0.1767329298,
				"element": "H" 
			},
			{
				"x": -3.65474849,
				"y": -0.9197321404,
				"z": -1.6959868332,
				"element": "H" 
			},
			{
				"x": -4.208701261,
				"y": 0.7331965047,
				"z": -1.5732311184,
				"element": "H" 
			},
			{
				"x": -3.0380614438,
				"y": 0.4730839564,
				"z": -3.6745596209,
				"element": "H" 
			},
			{
				"x": -2.151400998,
				"y": 1.5825275282,
				"z": -2.6450347093,
				"element": "H" 
			},
			{
				"x": -0.5904697996,
				"y": 0.1529302332,
				"z": -3.815242364,
				"element": "H" 
			},
			{
				"x": -0.4924909831,
				"y": -0.2004728898,
				"z": -2.1053104333,
				"element": "H" 
			},
			{
				"x": -1.9019281557,
				"y": -2.2716989881,
				"z": -2.465593275,
				"element": "H" 
			},
			{
				"x": -2.1014780112,
				"y": -1.8187131761,
				"z": -4.1445363277,
				"element": "H" 
			},
			{
				"x": 0.5399000084,
				"y": -1.9726961929,
				"z": -4.2784272042,
				"element": "H" 
			},
			{
				"x": -0.4525851584,
				"y": -3.407844753,
				"z": -4.3546788189,
				"element": "H" 
			},
			{
				"x": -0.0780787756,
				"y": -3.8964444546,
				"z": -1.9662825445,
				"element": "H" 
			},
			{
				"x": 1.3711121698,
				"y": -3.9432488541,
				"z": -2.9509077267,
				"element": "H" 
			},
			{
				"x": 0.613321705,
				"y": -1.6948957664,
				"z": -1.0176097667,
				"element": "H" 
			},
			{
				"x": 1.775648513,
				"y": -2.9716875205,
				"z": -0.7277543988,
				"element": "H" 
			},
			{
				"x": 3.1116386493,
				"y": -2.1530681509,
				"z": -2.7303301974,
				"element": "H" 
			},
			{
				"x": 2.0384028649,
				"y": -0.7723712947,
				"z": -2.8456787662,
				"element": "H" 
			},
			{
				"x": 4.1752689045,
				"y": -0.2723790543,
				"z": -1.718169033,
				"element": "H" 
			},
			{
				"x": 3.8392228484,
				"y": -1.4350900948,
				"z": -0.4540649014,
				"element": "H" 
			},
			{
				"x": 1.8665022042,
				"y": 0.8410231379,
				"z": -0.928930935,
				"element": "H" 
			},
			{
				"x": 3.3883575317,
				"y": 1.1932180765,
				"z": -0.1372086049,
				"element": "H" 
			},
			{
				"x": 1.3830824,
				"y": -0.8773301936,
				"z": 0.900786765,
				"element": "H" 
			},
			{
				"x": 2.9112960602,
				"y": -0.4575646256,
				"z": 1.6478842418,
				"element": "H" 
			},
			{
				"x": 2.10514791,
				"y": 1.9225888061,
				"z": 1.8963810349,
				"element": "H" 
			},
			{
				"x": 0.5675987107,
				"y": 1.4710509608,
				"z": 1.1927440379,
				"element": "H" 
			},
			{
				"x": 0.1605262445,
				"y": -0.1601967581,
				"z": 3.0120785858,
				"element": "H" 
			},
			{
				"x": 1.6792925132,
				"y": 0.2408147123,
				"z": 3.7779865177,
				"element": "H" 
			},
			{
				"x": -0.6349493771,
				"y": 1.3104024421,
				"z": 4.5815016579,
				"element": "H" 
			},
			{
				"x": -0.3842533224,
				"y": 2.4347773263,
				"z": 3.2669425704,
				"element": "H" 
			},
			{
				"x": 1.446405046,
				"y": 1.9973622631,
				"z": 5.6912945271,
				"element": "H" 
			},
			{
				"x": 0.2952761536,
				"y": 3.2935172815,
				"z": 5.4660783015,
				"element": "H" 
			},
			{
				"x": 1.7648485659,
				"y": 3.8682342459,
				"z": 3.3084756409,
				"element": "H" 
			},
			{
				"x": 2.1991120631,
				"y": 4.4438011077,
				"z": 4.9005283286,
				"element": "H" 
			},
			{
				"x": 3.4204075921,
				"y": 1.914049965,
				"z": 3.675634387,
				"element": "H" 
			},
			{
				"x": 3.8352162823,
				"y": 2.6311963044,
				"z": 5.2327336163,
				"element": "H" 
			},
			{
				"x": 3.5019253974,
				"y": 3.6375616088,
				"z": 1.9504354351,
				"element": "H" 
			}
		],
		 "valence_orbital": [ 
			{
				"type": "occ",
				"energy": -0.30437,
				"method": "rhf"
			},
			{
				"type": "occ",
				"energy": -0.30226,
				"method": "rhf"
			},
			{
				"type": "occ",
				"energy": -0.30079,
				"method": "rhf"
			},
			{
				"type": "occ",
				"energy": -0.29804,
				"method": "rhf"
			},
			{
				"type": "occ",
				"energy": -0.26177,
				"method": "rhf"
			},
			{
				"type": "unocc",
				"energy": 0.01213,
				"method": "rhf"
			},
			{
				"type": "unocc",
				"energy": 0.02979,
				"method": "rhf"
			},
			{
				"type": "unocc",
				"energy": 0.04689,
				"method": "rhf"
			},
			{
				"type": "unocc",
				"energy": 0.07113,
				"method": "rhf"
			},
			{
				"type": "unocc",
				"energy": 0.08185,
				"method": "rhf"
			}
		],
		"cosmo_sigma_profile": { 
			"0.0": 0.0,
			"0.0": 0.0,
			"0.0": 0.0,
			"0.0": 0.0,
			"0.0": 0.0,
			"0.0": 0.0,
			"0.0": 0.0,
			"0.0": 0.0,
			"0.0": 0.0,
			"0.0": 0.0,
			"0.0": 0.0,
			"0.0": 0.0,
			"0.0": 0.0,
			"0.0": 0.0,
			"0.0": 0.0,
			"0.0": 0.0,
			"0.0": 0.0,
			"0.0": 0.0,
			"0.0": 0.0,
			"0.0": 0.0,
			"0.0": 0.0,
			"0.0": 0.0,
			"0.0": 0.0,
			"0.0": 0.0,
			"0.0": 0.0,
			"0.0": 0.0,
			"0.0": 0.0,
			"0.0": 0.0,
			"0.0": 0.0,
			"0.0": 0.0,
			"0.0": 0.0,
			"0.0": 0.0,
			"0.0": 0.0,
			"0.0": 0.0,
			"0.0": 0.0,
			"0.0": 0.0,
			"0.0": 0.0,
			"0.0": 0.0,
			"0.0": 0.0,
			"0.0": 0.0,
			"0.0": 0.0,
			"0.0": 0.0,
			"0.0": 0.0,
			"0.0": 0.0,
			"0.0": 0.0,
			"0.0": 0.0,
			"0.0": 0.0,
			"0.0": 0.0,
			"0.0": 0.0,
			"0.0": 0.0,
			"0.0": 0.0
		}
	}
}
