{
	 "smiles": "CC1OC(C)OC(C)O1", 
	 "Tm": 285.45, 
	 "num_atms": 21, 
	 "gaussian": { 
		 "optdone": 1, 
		 "sigma_profile": "yes", 
		 "theory": "DFT", 
		 "functional": "B3LYP", 
		 "basiset": "6-31G**", 
		 "properties": { 
			 "R2extent": 2524.4655, 
			 "electric_dipole_moment_norm": 1.74620777973, 
			 "electric_quadrupole_moment_norm": 5.68580454729, 
			 "total_energy": -461.538439916, 
			 "HOMO_LUMO_gap": 0.34328, 
			 "cosmo_polarized_energy": -7.34, 
			 "cosmo_cavitation_energy": 22.56, 
			 "cosmo_dispersion_energy": -17.09, 
			 "cosmo_repulsion_energy": 1.43, 
			 "cosmo_total_nonelectrostatic_energy": 6.91, 
			 "SMD_solvation_energy": 4.0 
		},
		"coords": [
			{
				"x": -0.6175899709,
				"y": -2.4475794271,
				"z": -3.9361260006,
				"element": "C" 
			},
			{
				"x": -0.4993041956,
				"y": -2.7071918339,
				"z": -2.4328617595,
				"element": "C" 
			},
			{
				"x": 0.75322879,
				"y": -2.2963333614,
				"z": -1.9011993819,
				"element": "O" 
			},
			{
				"x": 0.8451951328,
				"y": -0.9023611045,
				"z": -1.6656320491,
				"element": "C" 
			},
			{
				"x": 2.1435536904,
				"y": -0.6345817899,
				"z": -0.9388357686,
				"element": "C" 
			},
			{
				"x": -0.2285316616,
				"y": -0.4611431853,
				"z": -0.8552662401,
				"element": "O" 
			},
			{
				"x": -1.4710969821,
				"y": -0.7672673002,
				"z": -1.4607242165,
				"element": "C" 
			},
			{
				"x": -2.5826075771,
				"y": -0.3582644416,
				"z": -0.5210846428,
				"element": "C" 
			},
			{
				"x": -1.5833269249,
				"y": -2.1601166181,
				"z": -1.6940200253,
				"element": "O" 
			},
			{
				"x": 0.2010755158,
				"y": -2.9516093044,
				"z": -4.4572346091,
				"element": "H" 
			},
			{
				"x": -0.5782457527,
				"y": -1.3850687943,
				"z": -4.1880402712,
				"element": "H" 
			},
			{
				"x": -1.5674698179,
				"y": -2.8488076027,
				"z": -4.3002164729,
				"element": "H" 
			},
			{
				"x": -0.5453617624,
				"y": -3.7835588146,
				"z": -2.2448469757,
				"element": "H" 
			},
			{
				"x": 0.805730565,
				"y": -0.3580645453,
				"z": -2.627084294,
				"element": "H" 
			},
			{
				"x": 2.9880500012,
				"y": -0.9691409807,
				"z": -1.5461288811,
				"element": "H" 
			},
			{
				"x": 2.2445035558,
				"y": 0.4346737899,
				"z": -0.7374265038,
				"element": "H" 
			},
			{
				"x": 2.1459227319,
				"y": -1.1799503219,
				"z": 0.0078196513,
				"element": "H" 
			},
			{
				"x": -1.5377348337,
				"y": -0.2217169187,
				"z": -2.4199493589,
				"element": "H" 
			},
			{
				"x": -3.553185296,
				"y": -0.5867719031,
				"z": -0.9679311372,
				"element": "H" 
			},
			{
				"x": -2.5223934254,
				"y": 0.713450152,
				"z": -0.3164605744,
				"element": "H" 
			},
			{
				"x": -2.4826117826,
				"y": -0.9089956943,
				"z": 0.4171495111,
				"element": "H" 
			}
		],
		 "valence_orbital": [ 
			{
				"type": "occ",
				"energy": -0.32762,
				"method": "rhf"
			},
			{
				"type": "occ",
				"energy": -0.31586,
				"method": "rhf"
			},
			{
				"type": "occ",
				"energy": -0.28108,
				"method": "rhf"
			},
			{
				"type": "occ",
				"energy": -0.28099,
				"method": "rhf"
			},
			{
				"type": "occ",
				"energy": -0.2604,
				"method": "rhf"
			},
			{
				"type": "unocc",
				"energy": 0.08288,
				"method": "rhf"
			},
			{
				"type": "unocc",
				"energy": 0.11659,
				"method": "rhf"
			},
			{
				"type": "unocc",
				"energy": 0.1179,
				"method": "rhf"
			},
			{
				"type": "unocc",
				"energy": 0.12876,
				"method": "rhf"
			},
			{
				"type": "unocc",
				"energy": 0.13279,
				"method": "rhf"
			}
		],
		"cosmo_sigma_profile": { 
			"-0.025": 0.0,
			"-0.024": 0.0,
			"-0.023": 0.0,
			"-0.022": 0.0,
			"-0.021": 0.0,
			"-0.02": 0.0,
			"-0.019": 0.0,
			"-0.018": 0.0,
			"-0.017": 0.0,
			"-0.016": 0.0,
			"-0.015": 0.0,
			"-0.014": 0.0,
			"-0.013": 0.0,
			"-0.012": 0.0,
			"-0.011": 0.0,
			"-0.01": 0.0,
			"-0.009": 0.00640309687371,
			"-0.008": 0.340327464895,
			"-0.007": 1.18738220041,
			"-0.006": 4.5705600875,
			"-0.005": 13.3222929169,
			"-0.004": 22.0730204027,
			"-0.003": 22.2370348352,
			"-0.002": 18.7697314519,
			"-0.001": 19.1531896657,
			"0.0": 19.7493296401,
			"0.001": 8.7788241466,
			"0.002": 5.71139704687,
			"0.003": 3.14666415142,
			"0.004": 3.29186305005,
			"0.005": 4.79225655529,
			"0.006": 3.72902674719,
			"0.007": 3.81286420199,
			"0.008": 3.71938366923,
			"0.009": 5.06241227081,
			"0.01": 4.75239403979,
			"0.011": 5.22784130511,
			"0.012": 1.70074866547,
			"0.013": 0.0,
			"0.014": 0.0,
			"0.015": 0.0,
			"0.016": 0.0,
			"0.017": 0.0,
			"0.018": 0.0,
			"0.019": 0.0,
			"0.02": 0.0,
			"0.021": 0.0,
			"0.022": 0.0,
			"0.023": 0.0,
			"0.024": 0.0,
			"0.025": 0.0
		}
	}
}
