{
	 "smiles": "CC1(C)CC(C)(C)C2=C1C=CC(O)=C2", 
	 "Tm": 373.15, 
	 "num_atms": 32, 
	 "gaussian": { 
		 "optdone": 1, 
		 "sigma_profile": "yes", 
		 "theory": "DFT", 
		 "functional": "B3LYP", 
		 "basiset": "6-31G**", 
		 "properties": { 
			 "R2extent": 3259.4555, 
			 "electric_dipole_moment_norm": 1.51605367649, 
			 "electric_quadrupole_moment_norm": 7.9624066814, 
			 "total_energy": -581.478368483, 
			 "HOMO_LUMO_gap": 0.20955, 
			 "cosmo_polarized_energy": -7.81, 
			 "cosmo_cavitation_energy": 32.1, 
			 "cosmo_dispersion_energy": -22.36, 
			 "cosmo_repulsion_energy": 1.74, 
			 "cosmo_total_nonelectrostatic_energy": 11.47, 
			 "SMD_solvation_energy": 5.74 
		},
		"coords": [
			{
				"x": 0.3134679292,
				"y": -0.4911429755,
				"z": 3.0200433883,
				"element": "C" 
			},
			{
				"x": -0.24710083,
				"y": -0.4022025542,
				"z": 1.5823019568,
				"element": "C" 
			},
			{
				"x": -1.5760379275,
				"y": -1.1785354058,
				"z": 1.5169994252,
				"element": "C" 
			},
			{
				"x": -0.4372474069,
				"y": 1.0796903953,
				"z": 1.1231525644,
				"element": "C" 
			},
			{
				"x": 0.7760665982,
				"y": 1.4831830151,
				"z": 0.224641286,
				"element": "C" 
			},
			{
				"x": 1.8316475898,
				"y": 2.2918648727,
				"z": 1.0127733278,
				"element": "C" 
			},
			{
				"x": 0.3175362312,
				"y": 2.3108229438,
				"z": -0.9907126442,
				"element": "C" 
			},
			{
				"x": 1.3376005146,
				"y": 0.1229160366,
				"z": -0.1761821228,
				"element": "C" 
			},
			{
				"x": 0.7744895538,
				"y": -0.9143075044,
				"z": 0.5726816192,
				"element": "C" 
			},
			{
				"x": 1.1924718467,
				"y": -2.2297415495,
				"z": 0.3555897365,
				"element": "C" 
			},
			{
				"x": 2.1621961215,
				"y": -2.5062165908,
				"z": -0.6066380727,
				"element": "C" 
			},
			{
				"x": 2.7218139404,
				"y": -1.4611226204,
				"z": -1.3537224814,
				"element": "C" 
			},
			{
				"x": 3.6674333142,
				"y": -1.7954991506,
				"z": -2.2859475503,
				"element": "O" 
			},
			{
				"x": 2.312529464,
				"y": -0.1402459481,
				"z": -1.139354954,
				"element": "C" 
			},
			{
				"x": 1.2522626731,
				"y": 0.0608504813,
				"z": 3.1232864577,
				"element": "H" 
			},
			{
				"x": -0.4028266936,
				"y": -0.081755392,
				"z": 3.7422041156,
				"element": "H" 
			},
			{
				"x": 0.5111634979,
				"y": -1.532579102,
				"z": 3.2969507379,
				"element": "H" 
			},
			{
				"x": -1.9869978806,
				"y": -1.1728938457,
				"z": 0.502332697,
				"element": "H" 
			},
			{
				"x": -2.3192507317,
				"y": -0.7329143386,
				"z": 2.1885337305,
				"element": "H" 
			},
			{
				"x": -1.4438237673,
				"y": -2.2232123423,
				"z": 1.8202044806,
				"element": "H" 
			},
			{
				"x": -0.5592846702,
				"y": 1.7599206995,
				"z": 1.9733011431,
				"element": "H" 
			},
			{
				"x": -1.3556458248,
				"y": 1.1509558443,
				"z": 0.5290377012,
				"element": "H" 
			},
			{
				"x": 2.1794930889,
				"y": 1.7493986568,
				"z": 1.8965030613,
				"element": "H" 
			},
			{
				"x": 2.7071942149,
				"y": 2.5040865505,
				"z": 0.389257973,
				"element": "H" 
			},
			{
				"x": 1.4148067257,
				"y": 3.2500689592,
				"z": 1.3441699907,
				"element": "H" 
			},
			{
				"x": 1.1631486239,
				"y": 2.5874808019,
				"z": -1.630580305,
				"element": "H" 
			},
			{
				"x": -0.3985249039,
				"y": 1.752266323,
				"z": -1.6019627188,
				"element": "H" 
			},
			{
				"x": -0.1646862142,
				"y": 3.2396802282,
				"z": -0.6648394779,
				"element": "H" 
			},
			{
				"x": 0.7643972739,
				"y": -3.0486286906,
				"z": 0.9284962784,
				"element": "H" 
			},
			{
				"x": 2.4976831173,
				"y": -3.5203095017,
				"z": -0.7975331397,
				"element": "H" 
			},
			{
				"x": 3.9686210955,
				"y": -0.9915159867,
				"z": -2.7282802518,
				"element": "H" 
			},
			{
				"x": 2.751503436,
				"y": 0.6655376907,
				"z": -1.7261079524,
				"element": "H" 
			}
		],
		 "valence_orbital": [ 
			{
				"type": "occ",
				"energy": -0.30928,
				"method": "rhf"
			},
			{
				"type": "occ",
				"energy": -0.30216,
				"method": "rhf"
			},
			{
				"type": "occ",
				"energy": -0.30032,
				"method": "rhf"
			},
			{
				"type": "occ",
				"energy": -0.23972,
				"method": "rhf"
			},
			{
				"type": "occ",
				"energy": -0.20762,
				"method": "rhf"
			},
			{
				"type": "unocc",
				"energy": 0.00193,
				"method": "rhf"
			},
			{
				"type": "unocc",
				"energy": 0.02184,
				"method": "rhf"
			},
			{
				"type": "unocc",
				"energy": 0.07478,
				"method": "rhf"
			},
			{
				"type": "unocc",
				"energy": 0.07904,
				"method": "rhf"
			},
			{
				"type": "unocc",
				"energy": 0.10074,
				"method": "rhf"
			}
		],
		"cosmo_sigma_profile": { 
			"-0.025": 0.0,
			"-0.024": 0.0,
			"-0.023": 0.0,
			"-0.022": 0.0,
			"-0.021": 0.0,
			"-0.02": 0.0,
			"-0.019": 0.0,
			"-0.018": 0.00966454669551,
			"-0.017": 0.892077652365,
			"-0.016": 1.06833610735,
			"-0.015": 1.24282981189,
			"-0.014": 0.759109284332,
			"-0.013": 0.880603178873,
			"-0.012": 0.646961716219,
			"-0.011": 0.923767046865,
			"-0.01": 1.04250673503,
			"-0.009": 1.76341913769,
			"-0.008": 0.738295803279,
			"-0.007": 0.648888196185,
			"-0.006": 1.67812426308,
			"-0.005": 5.11874462687,
			"-0.004": 8.26141883816,
			"-0.003": 19.4794353295,
			"-0.002": 34.5951023521,
			"-0.001": 32.0107590267,
			"0.0": 32.7909200156,
			"0.001": 35.6639133803,
			"0.002": 20.8004844243,
			"0.003": 8.03315162219,
			"0.004": 8.41143104276,
			"0.005": 10.0503590552,
			"0.006": 8.81529008282,
			"0.007": 4.76051133592,
			"0.008": 1.57778338103,
			"0.009": 1.69018515156,
			"0.01": 1.46491599532,
			"0.011": 1.86096733966,
			"0.012": 1.64496017539,
			"0.013": 0.0321297187464,
			"0.014": 0.0,
			"0.015": 0.0,
			"0.016": 0.0,
			"0.017": 0.0,
			"0.018": 0.0,
			"0.019": 0.0,
			"0.02": 0.0,
			"0.021": 0.0,
			"0.022": 0.0,
			"0.023": 0.0,
			"0.024": 0.0,
			"0.025": 0.0
		}
	}
}
