{
	 "smiles": "OC(=O)C1=CC(NC(=O)C2=CC=C(F)C=C2)=CC=C1", 
	 "Tm": 553.15, 
	 "num_atms": 29, 
	 "gaussian": { 
		 "optdone": 1, 
		 "sigma_profile": "yes", 
		 "theory": "DFT", 
		 "functional": "B3LYP", 
		 "basiset": "6-31G**", 
		 "properties": { 
			 "R2extent": 6538.3737, 
			 "electric_dipole_moment_norm": 1.00368105492, 
			 "electric_quadrupole_moment_norm": 17.0313300335, 
			 "total_energy": -919.806315595, 
			 "HOMO_LUMO_gap": 0.17884, 
			 "cosmo_polarized_energy": -16.5, 
			 "cosmo_cavitation_energy": 35.3, 
			 "cosmo_dispersion_energy": -24.72, 
			 "cosmo_repulsion_energy": 1.88, 
			 "cosmo_total_nonelectrostatic_energy": 12.46, 
			 "SMD_solvation_energy": 8.34 
		},
		"coords": [
			{
				"x": -0.193148418,
				"y": -4.4411851946,
				"z": 0.0827616587,
				"element": "O" 
			},
			{
				"x": 1.0130162905,
				"y": -3.8807801116,
				"z": 0.3506398999,
				"element": "C" 
			},
			{
				"x": 1.928835262,
				"y": -4.5176769799,
				"z": 0.8313446084,
				"element": "O" 
			},
			{
				"x": 1.0778018356,
				"y": -2.436739233,
				"z": -0.0045407653,
				"element": "C" 
			},
			{
				"x": -0.0248833423,
				"y": -1.7591347627,
				"z": -0.5364433018,
				"element": "C" 
			},
			{
				"x": 0.0733550197,
				"y": -0.4019715634,
				"z": -0.864958578,
				"element": "C" 
			},
			{
				"x": -1.0529406356,
				"y": 0.2295243606,
				"z": -1.4471381198,
				"element": "N" 
			},
			{
				"x": -1.4475127804,
				"y": 1.5610227101,
				"z": -1.4549400766,
				"element": "C" 
			},
			{
				"x": -2.1538804406,
				"y": 1.973369157,
				"z": -2.367610939,
				"element": "O" 
			},
			{
				"x": -1.0702076194,
				"y": 2.4466852977,
				"z": -0.3078008103,
				"element": "C" 
			},
			{
				"x": -0.9212218586,
				"y": 1.9815913956,
				"z": 1.0076449323,
				"element": "C" 
			},
			{
				"x": -0.6631359514,
				"y": 2.8713377609,
				"z": 2.0480568931,
				"element": "C" 
			},
			{
				"x": -0.5484885764,
				"y": 4.2266729601,
				"z": 1.7551213064,
				"element": "C" 
			},
			{
				"x": -0.2882316513,
				"y": 5.088560763,
				"z": 2.7561880898,
				"element": "F" 
			},
			{
				"x": -0.70177755,
				"y": 4.7211509558,
				"z": 0.463117567,
				"element": "C" 
			},
			{
				"x": -0.9774110539,
				"y": 3.823108283,
				"z": -0.5633641454,
				"element": "C" 
			},
			{
				"x": 1.2897678176,
				"y": 0.2680427032,
				"z": -0.6608995711,
				"element": "C" 
			},
			{
				"x": 2.3763690854,
				"y": -0.4076395077,
				"z": -0.1054512925,
				"element": "C" 
			},
			{
				"x": 2.2814475171,
				"y": -1.7578146656,
				"z": 0.2218233968,
				"element": "C" 
			},
			{
				"x": -0.1182668967,
				"y": -5.3713411648,
				"z": 0.352118649,
				"element": "H" 
			},
			{
				"x": -0.9601457823,
				"y": -2.2858599779,
				"z": -0.6906189134,
				"element": "H" 
			},
			{
				"x": -1.5214537927,
				"y": -0.289231531,
				"z": -2.1809378902,
				"element": "H" 
			},
			{
				"x": -1.0226743233,
				"y": 0.9247119201,
				"z": 1.2272983439,
				"element": "H" 
			},
			{
				"x": -0.5557143088,
				"y": 2.5336458548,
				"z": 3.072924852,
				"element": "H" 
			},
			{
				"x": -0.6152646526,
				"y": 5.7870243046,
				"z": 0.282827789,
				"element": "H" 
			},
			{
				"x": -1.1343286653,
				"y": 4.1741187335,
				"z": -1.5775072678,
				"element": "H" 
			},
			{
				"x": 1.3838231339,
				"y": 1.3106470849,
				"z": -0.9421769971,
				"element": "H" 
			},
			{
				"x": 3.3095993131,
				"y": 0.1244838782,
				"z": 0.0516655264,
				"element": "H" 
			},
			{
				"x": 3.1192730247,
				"y": -2.3024234309,
				"z": 0.6421551556,
				"element": "H" 
			}
		],
		 "valence_orbital": [ 
			{
				"type": "occ",
				"energy": -0.27761,
				"method": "rhf"
			},
			{
				"type": "occ",
				"energy": -0.27265,
				"method": "rhf"
			},
			{
				"type": "occ",
				"energy": -0.26713,
				"method": "rhf"
			},
			{
				"type": "occ",
				"energy": -0.25176,
				"method": "rhf"
			},
			{
				"type": "occ",
				"energy": -0.2384,
				"method": "rhf"
			},
			{
				"type": "unocc",
				"energy": -0.05956,
				"method": "rhf"
			},
			{
				"type": "unocc",
				"energy": -0.04645,
				"method": "rhf"
			},
			{
				"type": "unocc",
				"energy": -0.0238,
				"method": "rhf"
			},
			{
				"type": "unocc",
				"energy": -0.01339,
				"method": "rhf"
			},
			{
				"type": "unocc",
				"energy": 0.03797,
				"method": "rhf"
			}
		],
		"cosmo_sigma_profile": { 
			"-0.025": 0.0,
			"-0.024": 0.0,
			"-0.023": 0.0,
			"-0.022": 0.0,
			"-0.021": 0.0,
			"-0.02": 0.0,
			"-0.019": 0.184255609583,
			"-0.018": 0.766148876098,
			"-0.017": 0.925838412422,
			"-0.016": 0.809866579097,
			"-0.015": 0.899516257479,
			"-0.014": 1.68727753639,
			"-0.013": 1.38770898361,
			"-0.012": 1.98352155466,
			"-0.011": 2.20456897212,
			"-0.01": 1.86963011233,
			"-0.009": 1.28092880101,
			"-0.008": 4.02442698467,
			"-0.007": 10.0039276024,
			"-0.006": 14.7135561431,
			"-0.005": 17.3567587604,
			"-0.004": 12.7493048046,
			"-0.003": 14.1059546813,
			"-0.002": 17.9064246859,
			"-0.001": 19.50129708,
			"0.0": 24.4354323135,
			"0.001": 26.7250255202,
			"0.002": 26.7827867953,
			"0.003": 24.0181950011,
			"0.004": 15.6570247395,
			"0.005": 4.69658610538,
			"0.006": 3.86731213599,
			"0.007": 4.54823574014,
			"0.008": 3.26707047522,
			"0.009": 2.76940914199,
			"0.01": 4.11697266996,
			"0.011": 5.75754193329,
			"0.012": 6.69298576848,
			"0.013": 4.98244807594,
			"0.014": 0.654402371875,
			"0.015": 0.0,
			"0.016": 0.0,
			"0.017": 0.0,
			"0.018": 0.0,
			"0.019": 0.0,
			"0.02": 0.0,
			"0.021": 0.0,
			"0.022": 0.0,
			"0.023": 0.0,
			"0.024": 0.0,
			"0.025": 0.0
		}
	}
}
