{
	 "smiles": "FC1=CC=CC(F)=C1C(=O)N1CCNCC1", 
	 "Tm": 385.15, 
	 "num_atms": 28, 
	 "gaussian": { 
		 "optdone": 1, 
		 "sigma_profile": "yes", 
		 "theory": "DFT", 
		 "functional": "B3LYP", 
		 "basiset": "6-31G**", 
		 "properties": { 
			 "R2extent": 4667.0144, 
			 "electric_dipole_moment_norm": 3.97610670128, 
			 "electric_quadrupole_moment_norm": 23.1800822324, 
			 "total_energy": -810.799095019, 
			 "HOMO_LUMO_gap": 0.20281, 
			 "cosmo_polarized_energy": -12.95, 
			 "cosmo_cavitation_energy": 31.21, 
			 "cosmo_dispersion_energy": -22.14, 
			 "cosmo_repulsion_energy": 1.69, 
			 "cosmo_total_nonelectrostatic_energy": 10.77, 
			 "SMD_solvation_energy": 3.75 
		},
		"coords": [
			{
				"x": 1.3320927072,
				"y": 1.5930746224,
				"z": 0.5197900955,
				"element": "F" 
			},
			{
				"x": 1.9970865547,
				"y": 0.4562395602,
				"z": 0.828450514,
				"element": "C" 
			},
			{
				"x": 3.1727997565,
				"y": 0.1630872182,
				"z": 0.1486827757,
				"element": "C" 
			},
			{
				"x": 3.8468138071,
				"y": -1.0165872024,
				"z": 0.4681135789,
				"element": "C" 
			},
			{
				"x": 3.347156025,
				"y": -1.8805217637,
				"z": 1.4436166289,
				"element": "C" 
			},
			{
				"x": 2.1696998504,
				"y": -1.5376340289,
				"z": 2.0979571585,
				"element": "C" 
			},
			{
				"x": 1.6800145195,
				"y": -2.3702640195,
				"z": 3.034362383,
				"element": "F" 
			},
			{
				"x": 1.4551403469,
				"y": -0.3729773387,
				"z": 1.8104626984,
				"element": "C" 
			},
			{
				"x": 0.2704680802,
				"y": 0.0418773972,
				"z": 2.6594853189,
				"element": "C" 
			},
			{
				"x": 0.4654275611,
				"y": 0.4078174404,
				"z": 3.8132500748,
				"element": "O" 
			},
			{
				"x": -0.967334427,
				"y": -0.0097755478,
				"z": 2.0841852961,
				"element": "N" 
			},
			{
				"x": -2.1324995227,
				"y": 0.458225794,
				"z": 2.8388225187,
				"element": "C" 
			},
			{
				"x": -2.8510853741,
				"y": 1.5584363399,
				"z": 2.0531264861,
				"element": "C" 
			},
			{
				"x": -3.1928109864,
				"y": 1.054735689,
				"z": 0.7203165101,
				"element": "N" 
			},
			{
				"x": -1.9948914763,
				"y": 0.6788116311,
				"z": -0.0321185292,
				"element": "C" 
			},
			{
				"x": -1.2704998382,
				"y": -0.4417844077,
				"z": 0.7214013492,
				"element": "C" 
			},
			{
				"x": 3.5406169458,
				"y": 0.8514607597,
				"z": -0.6034942952,
				"element": "H" 
			},
			{
				"x": 4.7677090312,
				"y": -1.2657017335,
				"z": -0.0492400878,
				"element": "H" 
			},
			{
				"x": 3.8509185547,
				"y": -2.8036499195,
				"z": 1.7062368382,
				"element": "H" 
			},
			{
				"x": -1.7792264423,
				"y": 0.8169953242,
				"z": 3.8053281594,
				"element": "H" 
			},
			{
				"x": -2.8176597385,
				"y": -0.385252594,
				"z": 2.9956076145,
				"element": "H" 
			},
			{
				"x": -3.7730165824,
				"y": 1.8346525773,
				"z": 2.576214091,
				"element": "H" 
			},
			{
				"x": -2.1977605325,
				"y": 2.4499519325,
				"z": 2.0225617797,
				"element": "H" 
			},
			{
				"x": -3.7191589159,
				"y": 1.7561038788,
				"z": 0.2075483805,
				"element": "H" 
			},
			{
				"x": -1.2843545164,
				"y": 1.5134292619,
				"z": -0.1703429525,
				"element": "H" 
			},
			{
				"x": -2.2938781649,
				"y": 0.3171039716,
				"z": -1.0221368537,
				"element": "H" 
			},
			{
				"x": -0.3506759948,
				"y": -0.7243506912,
				"z": 0.2096676599,
				"element": "H" 
			},
			{
				"x": -1.9245912279,
				"y": -1.3232041514,
				"z": 0.7668448085,
				"element": "H" 
			}
		],
		 "valence_orbital": [ 
			{
				"type": "occ",
				"energy": -0.27423,
				"method": "rhf"
			},
			{
				"type": "occ",
				"energy": -0.2534,
				"method": "rhf"
			},
			{
				"type": "occ",
				"energy": -0.24348,
				"method": "rhf"
			},
			{
				"type": "occ",
				"energy": -0.24223,
				"method": "rhf"
			},
			{
				"type": "occ",
				"energy": -0.22672,
				"method": "rhf"
			},
			{
				"type": "unocc",
				"energy": -0.02391,
				"method": "rhf"
			},
			{
				"type": "unocc",
				"energy": -0.00669,
				"method": "rhf"
			},
			{
				"type": "unocc",
				"energy": 0.02636,
				"method": "rhf"
			},
			{
				"type": "unocc",
				"energy": 0.07253,
				"method": "rhf"
			},
			{
				"type": "unocc",
				"energy": 0.08287,
				"method": "rhf"
			}
		],
		"cosmo_sigma_profile": { 
			"-0.025": 0.0,
			"-0.024": 0.0,
			"-0.023": 0.0,
			"-0.022": 0.0,
			"-0.021": 0.0,
			"-0.02": 0.0,
			"-0.019": 0.0,
			"-0.018": 0.0,
			"-0.017": 0.0,
			"-0.016": 0.0,
			"-0.015": 0.0,
			"-0.014": 0.0,
			"-0.013": 0.0,
			"-0.012": 0.0,
			"-0.011": 0.415114915418,
			"-0.01": 1.3718029864,
			"-0.009": 1.58875471588,
			"-0.008": 3.19198417013,
			"-0.007": 7.66435490809,
			"-0.006": 8.20264360768,
			"-0.005": 14.5242930658,
			"-0.004": 23.1741170391,
			"-0.003": 25.2703957829,
			"-0.002": 23.9252906896,
			"-0.001": 20.8265842149,
			"0.0": 19.0093802202,
			"0.001": 18.0408024888,
			"0.002": 16.6870444235,
			"0.003": 18.4246393069,
			"0.004": 14.1187897414,
			"0.005": 3.61589157706,
			"0.006": 2.78774271038,
			"0.007": 2.97052214697,
			"0.008": 2.38609374027,
			"0.009": 1.85922449028,
			"0.01": 2.5170140921,
			"0.011": 2.80636402973,
			"0.012": 2.56069453419,
			"0.013": 4.96374373563,
			"0.014": 2.4703554317,
			"0.015": 1.00931780516,
			"0.016": 0.416888839854,
			"0.017": 0.302859018663,
			"0.018": 0.0977806413367,
			"0.019": 0.0,
			"0.02": 0.0,
			"0.021": 0.0,
			"0.022": 0.0,
			"0.023": 0.0,
			"0.024": 0.0,
			"0.025": 0.0
		}
	}
}
