{
	 "smiles": "BrC1=CC2=C(NC(=O)CCC2)C=C1", 
	 "Tm": 393.15, 
	 "num_atms": 23, 
	 "gaussian": { 
		 "optdone": 1, 
		 "sigma_profile": "yes", 
		 "theory": "DFT", 
		 "functional": "B3LYP", 
		 "basiset": "6-31G**", 
		 "properties": { 
			 "R2extent": 6015.6945, 
			 "electric_dipole_moment_norm": 1.25607026475, 
			 "electric_quadrupole_moment_norm": 16.4727298321, 
			 "total_energy": -3088.49658609, 
			 "HOMO_LUMO_gap": 0.20097, 
			 "cosmo_polarized_energy": -11.22, 
			 "cosmo_cavitation_energy": 28.03, 
			 "cosmo_dispersion_energy": -21.11, 
			 "cosmo_repulsion_energy": 1.67, 
			 "cosmo_total_nonelectrostatic_energy": 8.59, 
			 "SMD_solvation_energy": 3.78 
		},
		"coords": [
			{
				"x": 3.3057775029,
				"y": -4.0504335964,
				"z": 1.8701924695,
				"element": "Br" 
			},
			{
				"x": 2.3687660517,
				"y": -2.7083217896,
				"z": 0.8830377707,
				"element": "C" 
			},
			{
				"x": 1.4676752152,
				"y": -1.8755433125,
				"z": 1.543660352,
				"element": "C" 
			},
			{
				"x": 0.7616616845,
				"y": -0.8930704233,
				"z": 0.8437427151,
				"element": "C" 
			},
			{
				"x": 1.0096012308,
				"y": -0.737877849,
				"z": -0.5369560171,
				"element": "C" 
			},
			{
				"x": 0.3205431173,
				"y": 0.2492769147,
				"z": -1.2776882536,
				"element": "N" 
			},
			{
				"x": 0.1200476789,
				"y": 1.5792029229,
				"z": -0.9337113845,
				"element": "C" 
			},
			{
				"x": -0.4849556329,
				"y": 2.327206359,
				"z": -1.6857604677,
				"element": "O" 
			},
			{
				"x": 0.7405004225,
				"y": 2.0226976455,
				"z": 0.3835817376,
				"element": "C" 
			},
			{
				"x": 0.0603053077,
				"y": 1.4468813773,
				"z": 1.6443694229,
				"element": "C" 
			},
			{
				"x": -0.297007796,
				"y": -0.0491023417,
				"z": 1.5162797688,
				"element": "C" 
			},
			{
				"x": 1.9082309476,
				"y": -1.5904978256,
				"z": -1.1890689229,
				"element": "C" 
			},
			{
				"x": 2.5862972397,
				"y": -2.5845388554,
				"z": -0.4869304381,
				"element": "C" 
			},
			{
				"x": 1.2913931703,
				"y": -2.0074996241,
				"z": 2.6059507051,
				"element": "H" 
			},
			{
				"x": 0.0340531546,
				"y": 0.0305167499,
				"z": -2.2240692426,
				"element": "H" 
			},
			{
				"x": 0.7034508154,
				"y": 3.1134949396,
				"z": 0.3938799857,
				"element": "H" 
			},
			{
				"x": 1.7949467148,
				"y": 1.7210838541,
				"z": 0.3774287778,
				"element": "H" 
			},
			{
				"x": -0.8561875214,
				"y": 2.0068357104,
				"z": 1.8599806219,
				"element": "H" 
			},
			{
				"x": 0.7333463379,
				"y": 1.6012402653,
				"z": 2.49540701,
				"element": "H" 
			},
			{
				"x": -1.2168312881,
				"y": -0.1345529939,
				"z": 0.9227524373,
				"element": "H" 
			},
			{
				"x": -0.5229565082,
				"y": -0.459166717,
				"z": 2.5054559162,
				"element": "H" 
			},
			{
				"x": 2.0850679676,
				"y": -1.4657500945,
				"z": -2.2537665358,
				"element": "H" 
			},
			{
				"x": 3.2819741871,
				"y": -3.2417813157,
				"z": -0.995468428,
				"element": "H" 
			}
		],
		 "valence_orbital": [ 
			{
				"type": "occ",
				"energy": -0.29062,
				"method": "rhf"
			},
			{
				"type": "occ",
				"energy": -0.28221,
				"method": "rhf"
			},
			{
				"type": "occ",
				"energy": -0.26626,
				"method": "rhf"
			},
			{
				"type": "occ",
				"energy": -0.25395,
				"method": "rhf"
			},
			{
				"type": "occ",
				"energy": -0.22708,
				"method": "rhf"
			},
			{
				"type": "unocc",
				"energy": -0.02611,
				"method": "rhf"
			},
			{
				"type": "unocc",
				"energy": -0.02191,
				"method": "rhf"
			},
			{
				"type": "unocc",
				"energy": 0.00313,
				"method": "rhf"
			},
			{
				"type": "unocc",
				"energy": 0.023,
				"method": "rhf"
			},
			{
				"type": "unocc",
				"energy": 0.09126,
				"method": "rhf"
			}
		],
		"cosmo_sigma_profile": { 
			"-0.025": 0.0,
			"-0.024": 0.0,
			"-0.023": 0.0,
			"-0.022": 0.0,
			"-0.021": 0.0,
			"-0.02": 0.0,
			"-0.019": 0.0,
			"-0.018": 0.0,
			"-0.017": 0.0,
			"-0.016": 0.0,
			"-0.015": 0.0980883657748,
			"-0.014": 0.983799051622,
			"-0.013": 1.21481931621,
			"-0.012": 0.83889770193,
			"-0.011": 1.23132995009,
			"-0.01": 0.993249424908,
			"-0.009": 1.68935038649,
			"-0.008": 1.76733007999,
			"-0.007": 4.41206573601,
			"-0.006": 7.54762733452,
			"-0.005": 10.6386543188,
			"-0.004": 19.1618713762,
			"-0.003": 24.9335230187,
			"-0.002": 22.7402609415,
			"-0.001": 18.4217589459,
			"0.0": 15.6053314341,
			"0.001": 13.0944444205,
			"0.002": 15.6888126862,
			"0.003": 20.1471940512,
			"0.004": 15.0387470038,
			"0.005": 9.36282542192,
			"0.006": 0.936684772113,
			"0.007": 1.51302743279,
			"0.008": 1.30152249442,
			"0.009": 1.20948190303,
			"0.01": 1.1387738302,
			"0.011": 1.71568665756,
			"0.012": 2.49694148135,
			"0.013": 5.48817153385,
			"0.014": 3.58945942011,
			"0.015": 0.321306686331,
			"0.016": 0.0,
			"0.017": 0.0,
			"0.018": 0.0,
			"0.019": 0.0,
			"0.02": 0.0,
			"0.021": 0.0,
			"0.022": 0.0,
			"0.023": 0.0,
			"0.024": 0.0,
			"0.025": 0.0
		}
	}
}
