{
	 "smiles": "CCN1C=C(C(O)=O)C(=O)C2=C1C=C(N1CCN(C)CC1)C(F)=C2", 
	 "Tm": 544.15, 
	 "num_atms": 44, 
	 "gaussian": { 
		 "optdone": 1, 
		 "sigma_profile": "yes", 
		 "theory": "DFT", 
		 "functional": "B3LYP", 
		 "basiset": "6-31G**", 
		 "properties": { 
			 "R2extent": 11080.2776, 
			 "electric_dipole_moment_norm": 11.1847159991, 
			 "electric_quadrupole_moment_norm": 34.8917745856, 
			 "total_energy": -1149.6540797, 
			 "HOMO_LUMO_gap": 0.16441, 
			 "cosmo_polarized_energy": -22.85, 
			 "cosmo_cavitation_energy": 45.13, 
			 "cosmo_dispersion_energy": -32.24, 
			 "cosmo_repulsion_energy": 2.38, 
			 "cosmo_total_nonelectrostatic_energy": 15.26, 
			 "SMD_solvation_energy": 5.52 
		},
		"coords": [
			{
				"x": 2.565807689,
				"y": -0.6798893367,
				"z": 2.3627676151,
				"element": "C" 
			},
			{
				"x": 2.0384285685,
				"y": -1.8828225412,
				"z": 1.5776193958,
				"element": "C" 
			},
			{
				"x": 0.5681257222,
				"y": -1.9923224787,
				"z": 1.5988741294,
				"element": "N" 
			},
			{
				"x": -0.0043652358,
				"y": -2.8341987138,
				"z": 2.4957430499,
				"element": "C" 
			},
			{
				"x": -1.3535487801,
				"y": -2.994134498,
				"z": 2.6582791458,
				"element": "C" 
			},
			{
				"x": -1.8127293296,
				"y": -3.9743976042,
				"z": 3.69618833,
				"element": "C" 
			},
			{
				"x": -3.1365387439,
				"y": -4.0949324912,
				"z": 3.8155379062,
				"element": "O" 
			},
			{
				"x": -1.0292964408,
				"y": -4.6095001869,
				"z": 4.3779675739,
				"element": "O" 
			},
			{
				"x": -2.275138189,
				"y": -2.2363546562,
				"z": 1.8392586996,
				"element": "C" 
			},
			{
				"x": -3.5200905992,
				"y": -2.3386526665,
				"z": 1.9374798069,
				"element": "O" 
			},
			{
				"x": -1.6480671756,
				"y": -1.3336337701,
				"z": 0.8702806217,
				"element": "C" 
			},
			{
				"x": -0.2441118718,
				"y": -1.2112880164,
				"z": 0.7626809512,
				"element": "C" 
			},
			{
				"x": 0.310417961,
				"y": -0.3347523089,
				"z": -0.1903007606,
				"element": "C" 
			},
			{
				"x": -0.4924298515,
				"y": 0.4413122047,
				"z": -1.0362220005,
				"element": "C" 
			},
			{
				"x": 0.033120067,
				"y": 1.3603566571,
				"z": -1.9464806119,
				"element": "N" 
			},
			{
				"x": -0.4055518444,
				"y": 1.2782062691,
				"z": -3.3525846328,
				"element": "C" 
			},
			{
				"x": -0.0968779772,
				"y": 2.5814364901,
				"z": -4.0827261835,
				"element": "C" 
			},
			{
				"x": 1.3278586996,
				"y": 2.8912671813,
				"z": -3.9967276036,
				"element": "N" 
			},
			{
				"x": 1.6778937101,
				"y": 4.0773937548,
				"z": -4.7649376776,
				"element": "C" 
			},
			{
				"x": 1.7278917364,
				"y": 3.0082831135,
				"z": -2.599263494,
				"element": "C" 
			},
			{
				"x": 1.4482049036,
				"y": 1.7095907039,
				"z": -1.8414642562,
				"element": "C" 
			},
			{
				"x": -1.8996495649,
				"y": 0.3043979688,
				"z": -0.8816483777,
				"element": "C" 
			},
			{
				"x": -2.7153921898,
				"y": 1.0741771888,
				"z": -1.6397522578,
				"element": "F" 
			},
			{
				"x": -2.4601810871,
				"y": -0.5562298084,
				"z": 0.0237896665,
				"element": "C" 
			},
			{
				"x": 2.2750645921,
				"y": -0.7488745678,
				"z": 3.4148760978,
				"element": "H" 
			},
			{
				"x": 2.180302187,
				"y": 0.2625714416,
				"z": 1.9653369914,
				"element": "H" 
			},
			{
				"x": 3.6586618972,
				"y": -0.6532846537,
				"z": 2.3107615994,
				"element": "H" 
			},
			{
				"x": 2.4266667245,
				"y": -2.8103311402,
				"z": 2.0040821513,
				"element": "H" 
			},
			{
				"x": 2.3706703988,
				"y": -1.8586847859,
				"z": 0.5364354975,
				"element": "H" 
			},
			{
				"x": 0.6658601665,
				"y": -3.4167339622,
				"z": 3.1194230563,
				"element": "H" 
			},
			{
				"x": -3.5647619155,
				"y": -3.4792719878,
				"z": 3.1561313324,
				"element": "H" 
			},
			{
				"x": 1.3826001173,
				"y": -0.2635678602,
				"z": -0.2945254164,
				"element": "H" 
			},
			{
				"x": -1.4751140675,
				"y": 1.0827950205,
				"z": -3.3874696737,
				"element": "H" 
			},
			{
				"x": 0.1180000239,
				"y": 0.4498464126,
				"z": -3.8572831381,
				"element": "H" 
			},
			{
				"x": -0.3714973466,
				"y": 2.4690820716,
				"z": -5.1376524376,
				"element": "H" 
			},
			{
				"x": -0.721918874,
				"y": 3.3911775692,
				"z": -3.6578507508,
				"element": "H" 
			},
			{
				"x": 1.4048951355,
				"y": 3.929994259,
				"z": -5.8146871559,
				"element": "H" 
			},
			{
				"x": 1.174400256,
				"y": 4.9953810377,
				"z": -4.4064438125,
				"element": "H" 
			},
			{
				"x": 2.7589906652,
				"y": 4.2433380137,
				"z": -4.7164250383,
				"element": "H" 
			},
			{
				"x": 1.203930433,
				"y": 3.8398309979,
				"z": -2.0875700562,
				"element": "H" 
			},
			{
				"x": 2.8027953316,
				"y": 3.217750674,
				"z": -2.5538144567,
				"element": "H" 
			},
			{
				"x": 1.6994908101,
				"y": 1.8563750686,
				"z": -0.7869806991,
				"element": "H" 
			},
			{
				"x": 2.0954171398,
				"y": 0.9108586497,
				"z": -2.2443303573,
				"element": "H" 
			},
			{
				"x": -3.5371338518,
				"y": -0.6315647132,
				"z": 0.1216272308,
				"element": "H" 
			}
		],
		 "valence_orbital": [ 
			{
				"type": "occ",
				"energy": -0.25926,
				"method": "rhf"
			},
			{
				"type": "occ",
				"energy": -0.24864,
				"method": "rhf"
			},
			{
				"type": "occ",
				"energy": -0.23324,
				"method": "rhf"
			},
			{
				"type": "occ",
				"energy": -0.23112,
				"method": "rhf"
			},
			{
				"type": "occ",
				"energy": -0.22398,
				"method": "rhf"
			},
			{
				"type": "unocc",
				"energy": -0.05957,
				"method": "rhf"
			},
			{
				"type": "unocc",
				"energy": -0.0415,
				"method": "rhf"
			},
			{
				"type": "unocc",
				"energy": -0.00345,
				"method": "rhf"
			},
			{
				"type": "unocc",
				"energy": 0.03783,
				"method": "rhf"
			},
			{
				"type": "unocc",
				"energy": 0.05602,
				"method": "rhf"
			}
		],
		"cosmo_sigma_profile": { 
			"-0.025": 0.0,
			"-0.024": 0.0,
			"-0.023": 0.0,
			"-0.022": 0.0,
			"-0.021": 0.0,
			"-0.02": 0.0,
			"-0.019": 0.0,
			"-0.018": 0.0,
			"-0.017": 0.0,
			"-0.016": 0.0,
			"-0.015": 0.0,
			"-0.014": 0.0,
			"-0.013": 0.0,
			"-0.012": 0.0,
			"-0.011": 0.277289795568,
			"-0.01": 1.94581942353,
			"-0.009": 2.78531459548,
			"-0.008": 4.15149752814,
			"-0.007": 7.21758783959,
			"-0.006": 9.06270718994,
			"-0.005": 17.836959652,
			"-0.004": 34.572353002,
			"-0.003": 38.8891485679,
			"-0.002": 46.9574696346,
			"-0.001": 42.5149023527,
			"0.0": 34.1624367224,
			"0.001": 23.7868750444,
			"0.002": 14.8549062284,
			"0.003": 10.0576201334,
			"0.004": 11.0732031972,
			"0.005": 6.22262969285,
			"0.006": 5.47391487454,
			"0.007": 5.40948524381,
			"0.008": 3.97162659145,
			"0.009": 5.40719752591,
			"0.01": 4.89099664427,
			"0.011": 6.96408990431,
			"0.012": 8.58185695286,
			"0.013": 6.08611073615,
			"0.014": 2.45030158732,
			"0.015": 0.604531105998,
			"0.016": 0.146828464274,
			"0.017": 0.0,
			"0.018": 0.0,
			"0.019": 0.0,
			"0.02": 0.0,
			"0.021": 0.0,
			"0.022": 0.0,
			"0.023": 0.0,
			"0.024": 0.0,
			"0.025": 0.0
		}
	}
}
