{
	 "smiles": "OC(=O)CN1C=NC=N1", 
	 "Tm": 473.15, 
	 "num_atms": 14, 
	 "gaussian": { 
		 "optdone": 1, 
		 "sigma_profile": "yes", 
		 "theory": "DFT", 
		 "functional": "B3LYP", 
		 "basiset": "6-31G**", 
		 "properties": { 
			 "R2extent": 2668.0296, 
			 "electric_dipole_moment_norm": 4.05774450896, 
			 "electric_quadrupole_moment_norm": 9.77592440642, 
			 "total_energy": -470.12775369, 
			 "HOMO_LUMO_gap": 0.24811, 
			 "cosmo_polarized_energy": -15.39, 
			 "cosmo_cavitation_energy": 19.21, 
			 "cosmo_dispersion_energy": -14.23, 
			 "cosmo_repulsion_energy": 1.17, 
			 "cosmo_total_nonelectrostatic_energy": 6.16, 
			 "SMD_solvation_energy": 2.43 
		},
		"coords": [
			{
				"x": 3.5555442163,
				"y": -1.2356911786,
				"z": -1.7776364044,
				"element": "O" 
			},
			{
				"x": 2.6504060731,
				"y": -1.2740955469,
				"z": -0.7779892468,
				"element": "C" 
			},
			{
				"x": 2.7088662403,
				"y": -0.5871574049,
				"z": 0.2132624348,
				"element": "O" 
			},
			{
				"x": 1.5477943191,
				"y": -2.2661839913,
				"z": -1.121585571,
				"element": "C" 
			},
			{
				"x": 0.6766513154,
				"y": -2.5562345708,
				"z": -0.0060492595,
				"element": "N" 
			},
			{
				"x": -0.0139322553,
				"y": -1.7283956657,
				"z": 0.8156829017,
				"element": "C" 
			},
			{
				"x": -0.7311356098,
				"y": -2.429629451,
				"z": 1.6753302914,
				"element": "N" 
			},
			{
				"x": -0.437784029,
				"y": -3.7151550535,
				"z": 1.3283326075,
				"element": "C" 
			},
			{
				"x": 0.4065907396,
				"y": -3.8526636296,
				"z": 0.3179530815,
				"element": "N" 
			},
			{
				"x": 4.2175407269,
				"y": -0.5675353977,
				"z": -1.531298507,
				"element": "H" 
			},
			{
				"x": 0.9853745182,
				"y": -1.8617929164,
				"z": -1.9729120683,
				"element": "H" 
			},
			{
				"x": 1.9861782151,
				"y": -3.2122218089,
				"z": -1.4432166621,
				"element": "H" 
			},
			{
				"x": 0.0588119326,
				"y": -0.6524620464,
				"z": 0.7629168872,
				"element": "H" 
			},
			{
				"x": -0.8563064023,
				"y": -4.5742813382,
				"z": 1.8343095148,
				"element": "H" 
			}
		],
		 "valence_orbital": [ 
			{
				"type": "occ",
				"energy": -0.32883,
				"method": "rhf"
			},
			{
				"type": "occ",
				"energy": -0.3095,
				"method": "rhf"
			},
			{
				"type": "occ",
				"energy": -0.28781,
				"method": "rhf"
			},
			{
				"type": "occ",
				"energy": -0.27404,
				"method": "rhf"
			},
			{
				"type": "occ",
				"energy": -0.26538,
				"method": "rhf"
			},
			{
				"type": "unocc",
				"energy": -0.01727,
				"method": "rhf"
			},
			{
				"type": "unocc",
				"energy": 0.00388,
				"method": "rhf"
			},
			{
				"type": "unocc",
				"energy": 0.05348,
				"method": "rhf"
			},
			{
				"type": "unocc",
				"energy": 0.05747,
				"method": "rhf"
			},
			{
				"type": "unocc",
				"energy": 0.09491,
				"method": "rhf"
			}
		],
		"cosmo_sigma_profile": { 
			"-0.025": 0.0,
			"-0.024": 0.0,
			"-0.023": 0.0,
			"-0.022": 0.0,
			"-0.021": 0.0,
			"-0.02": 0.0,
			"-0.019": 0.730492342232,
			"-0.018": 1.00268425276,
			"-0.017": 0.692423793584,
			"-0.016": 1.10523464007,
			"-0.015": 0.886719456096,
			"-0.014": 0.641590617654,
			"-0.013": 0.38101389154,
			"-0.012": 0.782856455926,
			"-0.011": 1.03093099277,
			"-0.01": 5.08851903207,
			"-0.009": 7.48443288039,
			"-0.008": 8.06640528508,
			"-0.007": 7.08188212095,
			"-0.006": 7.95825665041,
			"-0.005": 4.82774179472,
			"-0.004": 6.57587921005,
			"-0.003": 6.57354688504,
			"-0.002": 5.51629752656,
			"-0.001": 6.20254075536,
			"0.0": 7.9823383429,
			"0.001": 7.27437267005,
			"0.002": 8.40936458396,
			"0.003": 6.28276823432,
			"0.004": 5.81148761506,
			"0.005": 4.75703095851,
			"0.006": 6.01981856457,
			"0.007": 5.74556918929,
			"0.008": 5.67662435181,
			"0.009": 4.39607852517,
			"0.01": 5.53710984692,
			"0.011": 5.02080912324,
			"0.012": 2.13019727185,
			"0.013": 2.3136624079,
			"0.014": 1.46302805891,
			"0.015": 1.00230039508,
			"0.016": 1.14539497513,
			"0.017": 0.207128296059,
			"0.018": 0.0,
			"0.019": 0.0,
			"0.02": 0.0,
			"0.021": 0.0,
			"0.022": 0.0,
			"0.023": 0.0,
			"0.024": 0.0,
			"0.025": 0.0
		}
	}
}
