{
	 "smiles": "CCCCCCCCCCCC(=O)C1=CC=CC=C1", 
	 "Tm": 320.15, 
	 "num_atms": 47, 
	 "gaussian": { 
		 "optdone": 1, 
		 "sigma_profile": "yes", 
		 "theory": "DFT", 
		 "functional": "B3LYP", 
		 "basiset": "6-31G**", 
		 "properties": { 
			 "R2extent": 11775.9416, 
			 "electric_dipole_moment_norm": 2.72400905101, 
			 "electric_quadrupole_moment_norm": 17.7276547169, 
			 "total_energy": -778.047587797, 
			 "HOMO_LUMO_gap": 0.19299, 
			 "cosmo_polarized_energy": -7.84, 
			 "cosmo_cavitation_energy": 47.2, 
			 "cosmo_dispersion_energy": -32.82, 
			 "cosmo_repulsion_energy": 2.6, 
			 "cosmo_total_nonelectrostatic_energy": 16.98, 
			 "SMD_solvation_energy": 7.02 
		},
		"coords": [
			{
				"x": -2.6372691113,
				"y": -5.1115909358,
				"z": -1.6406518387,
				"element": "C" 
			},
			{
				"x": -1.8427846126,
				"y": -4.0965969741,
				"z": -0.8114086766,
				"element": "C" 
			},
			{
				"x": -2.053768618,
				"y": -4.2700997615,
				"z": 0.6989448812,
				"element": "C" 
			},
			{
				"x": -1.3634608551,
				"y": -3.2314788003,
				"z": 1.6014320715,
				"element": "C" 
			},
			{
				"x": 0.182937511,
				"y": -3.2375303188,
				"z": 1.5582448059,
				"element": "C" 
			},
			{
				"x": 0.83437553,
				"y": -2.2418175039,
				"z": 0.5778084317,
				"element": "C" 
			},
			{
				"x": 0.7438163071,
				"y": -0.7769778043,
				"z": 1.0339115464,
				"element": "C" 
			},
			{
				"x": 1.3089782771,
				"y": 0.2460050923,
				"z": 0.0329256772,
				"element": "C" 
			},
			{
				"x": 2.8301446061,
				"y": 0.1632660874,
				"z": -0.1622476332,
				"element": "C" 
			},
			{
				"x": 3.4202660421,
				"y": 1.1510510389,
				"z": -1.184754148,
				"element": "C" 
			},
			{
				"x": 3.2309015142,
				"y": 2.6356190467,
				"z": -0.8352583046,
				"element": "C" 
			},
			{
				"x": 1.9549778213,
				"y": 3.2634970598,
				"z": -1.3948741936,
				"element": "C" 
			},
			{
				"x": 1.2575357039,
				"y": 2.6677014852,
				"z": -2.2033371618,
				"element": "O" 
			},
			{
				"x": 1.5834511064,
				"y": 4.6533902365,
				"z": -0.9606245223,
				"element": "C" 
			},
			{
				"x": 0.3932053355,
				"y": 5.2024615702,
				"z": -1.4647785267,
				"element": "C" 
			},
			{
				"x": -0.002730296,
				"y": 6.4864790818,
				"z": -1.1035889121,
				"element": "C" 
			},
			{
				"x": 0.7892811266,
				"y": 7.2437591206,
				"z": -0.2349961824,
				"element": "C" 
			},
			{
				"x": 1.9766646571,
				"y": 6.7101781703,
				"z": 0.2692907331,
				"element": "C" 
			},
			{
				"x": 2.3717840065,
				"y": 5.4212843974,
				"z": -0.0895607211,
				"element": "C" 
			},
			{
				"x": -2.470498302,
				"y": -4.9720262746,
				"z": -2.7138540924,
				"element": "H" 
			},
			{
				"x": -3.7137381895,
				"y": -5.0180997022,
				"z": -1.4560548003,
				"element": "H" 
			},
			{
				"x": -2.3492169271,
				"y": -6.1393199089,
				"z": -1.3905857459,
				"element": "H" 
			},
			{
				"x": -2.1321920329,
				"y": -3.0779373218,
				"z": -1.1043187792,
				"element": "H" 
			},
			{
				"x": -0.7769335572,
				"y": -4.1922802851,
				"z": -1.0525548692,
				"element": "H" 
			},
			{
				"x": -1.7171491718,
				"y": -5.2754218538,
				"z": 0.9921751144,
				"element": "H" 
			},
			{
				"x": -3.1332753979,
				"y": -4.2444023362,
				"z": 0.9046041688,
				"element": "H" 
			},
			{
				"x": -1.6901501155,
				"y": -3.421667814,
				"z": 2.6313718594,
				"element": "H" 
			},
			{
				"x": -1.7411201463,
				"y": -2.2301842783,
				"z": 1.3539449181,
				"element": "H" 
			},
			{
				"x": 0.572284584,
				"y": -3.022690919,
				"z": 2.5624767294,
				"element": "H" 
			},
			{
				"x": 0.5252129122,
				"y": -4.2542453134,
				"z": 1.3219863385,
				"element": "H" 
			},
			{
				"x": 0.3776601057,
				"y": -2.3365669808,
				"z": -0.4155790334,
				"element": "H" 
			},
			{
				"x": 1.8887987346,
				"y": -2.5189659137,
				"z": 0.4543391631,
				"element": "H" 
			},
			{
				"x": 1.2619859409,
				"y": -0.6697443665,
				"z": 1.9985673452,
				"element": "H" 
			},
			{
				"x": -0.3062399713,
				"y": -0.5235620191,
				"z": 1.228394115,
				"element": "H" 
			},
			{
				"x": 0.8101741504,
				"y": 0.1292356892,
				"z": -0.9376235572,
				"element": "H" 
			},
			{
				"x": 1.0427238767,
				"y": 1.2517281351,
				"z": 0.3822580189,
				"element": "H" 
			},
			{
				"x": 3.3232328849,
				"y": 0.3155296092,
				"z": 0.8100400117,
				"element": "H" 
			},
			{
				"x": 3.1036802946,
				"y": -0.8499592511,
				"z": -0.4814388882,
				"element": "H" 
			},
			{
				"x": 2.9806528852,
				"y": 0.9695119491,
				"z": -2.1710621909,
				"element": "H" 
			},
			{
				"x": 4.4943510201,
				"y": 0.9496070897,
				"z": -1.2716099562,
				"element": "H" 
			},
			{
				"x": 4.0652138718,
				"y": 3.2297271287,
				"z": -1.2355676893,
				"element": "H" 
			},
			{
				"x": 3.2638396769,
				"y": 2.7875651379,
				"z": 0.251367694,
				"element": "H" 
			},
			{
				"x": -0.2019328705,
				"y": 4.5966745014,
				"z": -2.1397822233,
				"element": "H" 
			},
			{
				"x": -0.9265929942,
				"y": 6.9003032526,
				"z": -1.4973848306,
				"element": "H" 
			},
			{
				"x": 0.481771027,
				"y": 8.2467518887,
				"z": 0.0472662083,
				"element": "H" 
			},
			{
				"x": 2.5949527635,
				"y": 7.2969961445,
				"z": 0.9423371205,
				"element": "H" 
			},
			{
				"x": 3.2982988962,
				"y": 5.0222437242,
				"z": 0.3096105247,
				"element": "H" 
			}
		],
		 "valence_orbital": [ 
			{
				"type": "occ",
				"energy": -0.29798,
				"method": "rhf"
			},
			{
				"type": "occ",
				"energy": -0.29283,
				"method": "rhf"
			},
			{
				"type": "occ",
				"energy": -0.26066,
				"method": "rhf"
			},
			{
				"type": "occ",
				"energy": -0.25728,
				"method": "rhf"
			},
			{
				"type": "occ",
				"energy": -0.24685,
				"method": "rhf"
			},
			{
				"type": "unocc",
				"energy": -0.05386,
				"method": "rhf"
			},
			{
				"type": "unocc",
				"energy": -0.00896,
				"method": "rhf"
			},
			{
				"type": "unocc",
				"energy": 0.04043,
				"method": "rhf"
			},
			{
				"type": "unocc",
				"energy": 0.08513,
				"method": "rhf"
			},
			{
				"type": "unocc",
				"energy": 0.09172,
				"method": "rhf"
			}
		],
		"cosmo_sigma_profile": { 
			"-0.025": 0.0,
			"-0.024": 0.0,
			"-0.023": 0.0,
			"-0.022": 0.0,
			"-0.021": 0.0,
			"-0.02": 0.0,
			"-0.019": 0.0,
			"-0.018": 0.0,
			"-0.017": 0.0,
			"-0.016": 0.0,
			"-0.015": 0.0,
			"-0.014": 0.0,
			"-0.013": 0.0,
			"-0.012": 0.0,
			"-0.011": 0.0,
			"-0.01": 0.0,
			"-0.009": 0.0,
			"-0.008": 0.0,
			"-0.007": 0.992492641847,
			"-0.006": 10.8260938137,
			"-0.005": 16.655508523,
			"-0.004": 15.5637850664,
			"-0.003": 16.501570714,
			"-0.002": 37.7806223245,
			"-0.001": 59.9143650086,
			"0.0": 68.6472678501,
			"0.001": 57.9377331342,
			"0.002": 32.0812752963,
			"0.003": 12.2652263531,
			"0.004": 14.3639532063,
			"0.005": 6.01544439114,
			"0.006": 2.68360023864,
			"0.007": 2.0396737372,
			"0.008": 2.00063579949,
			"0.009": 2.17905112941,
			"0.01": 2.02249939256,
			"0.011": 2.16451320909,
			"0.012": 3.10981693068,
			"0.013": 0.729696670686,
			"0.014": 0.0,
			"0.015": 0.0,
			"0.016": 0.0,
			"0.017": 0.0,
			"0.018": 0.0,
			"0.019": 0.0,
			"0.02": 0.0,
			"0.021": 0.0,
			"0.022": 0.0,
			"0.023": 0.0,
			"0.024": 0.0,
			"0.025": 0.0
		}
	}
}
