{
	 "smiles": "CC1=CC=C(C=C1)S(=O)(=O)OCC(F)(F)F", 
	 "Tm": 313.15, 
	 "num_atms": 25, 
	 "gaussian": { 
		 "optdone": 1, 
		 "sigma_profile": "yes", 
		 "theory": "DFT", 
		 "functional": "B3LYP", 
		 "basiset": "6-31G**", 
		 "properties": { 
			 "R2extent": 4371.2489, 
			 "electric_dipole_moment_norm": 3.74304610044, 
			 "electric_quadrupole_moment_norm": 17.1373959515, 
			 "total_energy": -1271.69801971, 
			 "HOMO_LUMO_gap": 0.22114, 
			 "cosmo_polarized_energy": -11.06, 
			 "cosmo_cavitation_energy": 31.82, 
			 "cosmo_dispersion_energy": -22.7, 
			 "cosmo_repulsion_energy": 1.68, 
			 "cosmo_total_nonelectrostatic_energy": 10.8, 
			 "SMD_solvation_energy": 5.74 
		},
		"coords": [
			{
				"x": 4.4982716706,
				"y": 1.3766055103,
				"z": 2.2343888637,
				"element": "C" 
			},
			{
				"x": 3.1438722811,
				"y": 0.8902463055,
				"z": 1.7798330176,
				"element": "C" 
			},
			{
				"x": 2.0444351622,
				"y": 1.7604014156,
				"z": 1.7443780632,
				"element": "C" 
			},
			{
				"x": 0.7840066797,
				"y": 1.3162209634,
				"z": 1.35280415,
				"element": "C" 
			},
			{
				"x": 0.6259496067,
				"y": -0.0230396218,
				"z": 0.9926083912,
				"element": "C" 
			},
			{
				"x": 1.6988629063,
				"y": -0.9164370644,
				"z": 1.0199371363,
				"element": "C" 
			},
			{
				"x": 2.9507308142,
				"y": -0.4496547835,
				"z": 1.411314835,
				"element": "C" 
			},
			{
				"x": -0.9751800685,
				"y": -0.6136419143,
				"z": 0.4894406792,
				"element": "S" 
			},
			{
				"x": -1.0476184523,
				"y": -2.047153968,
				"z": 0.7314196959,
				"element": "O" 
			},
			{
				"x": -2.0112020046,
				"y": 0.3022514472,
				"z": 0.9663551132,
				"element": "O" 
			},
			{
				"x": -0.8897485051,
				"y": -0.4663009057,
				"z": -1.1725177624,
				"element": "O" 
			},
			{
				"x": -1.7637831813,
				"y": 0.4475723358,
				"z": -1.8336537703,
				"element": "C" 
			},
			{
				"x": -0.9873815721,
				"y": 1.6516938321,
				"z": -2.3394259418,
				"element": "C" 
			},
			{
				"x": -1.8265773812,
				"y": 2.4665650129,
				"z": -3.0131802922,
				"element": "F" 
			},
			{
				"x": 0.0093782776,
				"y": 1.300457187,
				"z": -3.1683278302,
				"element": "F" 
			},
			{
				"x": -0.4475365944,
				"y": 2.358186791,
				"z": -1.3238270231,
				"element": "F" 
			},
			{
				"x": 4.6326591504,
				"y": 2.4413397635,
				"z": 2.024161884,
				"element": "H" 
			},
			{
				"x": 5.3063091876,
				"y": 0.825840631,
				"z": 1.7445333231,
				"element": "H" 
			},
			{
				"x": 4.6185291106,
				"y": 1.2389825878,
				"z": 3.3161298806,
				"element": "H" 
			},
			{
				"x": 2.1763454759,
				"y": 2.8009333391,
				"z": 2.0278963235,
				"element": "H" 
			},
			{
				"x": -0.0643118555,
				"y": 1.9897642396,
				"z": 1.3300793941,
				"element": "H" 
			},
			{
				"x": 1.5474876126,
				"y": -1.9554475314,
				"z": 0.7495257848,
				"element": "H" 
			},
			{
				"x": 3.7913735996,
				"y": -1.1376785057,
				"z": 1.4341750813,
				"element": "H" 
			},
			{
				"x": -2.196044363,
				"y": -0.0751247761,
				"z": -2.6902851908,
				"element": "H" 
			},
			{
				"x": -2.5592275571,
				"y": 0.7938177088,
				"z": -1.1703638059,
				"element": "H" 
			}
		],
		 "valence_orbital": [ 
			{
				"type": "occ",
				"energy": -0.32759,
				"method": "rhf"
			},
			{
				"type": "occ",
				"energy": -0.32522,
				"method": "rhf"
			},
			{
				"type": "occ",
				"energy": -0.31087,
				"method": "rhf"
			},
			{
				"type": "occ",
				"energy": -0.27519,
				"method": "rhf"
			},
			{
				"type": "occ",
				"energy": -0.26866,
				"method": "rhf"
			},
			{
				"type": "unocc",
				"energy": -0.04752,
				"method": "rhf"
			},
			{
				"type": "unocc",
				"energy": -0.02555,
				"method": "rhf"
			},
			{
				"type": "unocc",
				"energy": 0.02823,
				"method": "rhf"
			},
			{
				"type": "unocc",
				"energy": 0.06792,
				"method": "rhf"
			},
			{
				"type": "unocc",
				"energy": 0.08458,
				"method": "rhf"
			}
		],
		"cosmo_sigma_profile": { 
			"-0.025": 0.0,
			"-0.024": 0.0,
			"-0.023": 0.0,
			"-0.022": 0.0,
			"-0.021": 0.0,
			"-0.02": 0.0,
			"-0.019": 0.0,
			"-0.018": 0.0,
			"-0.017": 0.0,
			"-0.016": 0.0,
			"-0.015": 0.0,
			"-0.014": 0.0,
			"-0.013": 0.0,
			"-0.012": 0.0,
			"-0.011": 0.0318771429351,
			"-0.01": 1.66056206265,
			"-0.009": 3.81480643828,
			"-0.008": 3.93555256743,
			"-0.007": 8.93836513747,
			"-0.006": 13.9480764841,
			"-0.005": 15.4160698763,
			"-0.004": 15.0385636568,
			"-0.003": 15.8433390829,
			"-0.002": 15.5183570513,
			"-0.001": 18.5294117388,
			"0.0": 19.9121411085,
			"0.001": 18.7691809437,
			"0.002": 38.5368712545,
			"0.003": 26.7071512361,
			"0.004": 3.29253292154,
			"0.005": 3.82870180976,
			"0.006": 4.91381098224,
			"0.007": 3.7991442012,
			"0.008": 5.34549912589,
			"0.009": 8.47332625098,
			"0.01": 7.14463909948,
			"0.011": 0.738133616028,
			"0.012": 0.0,
			"0.013": 0.0,
			"0.014": 0.0,
			"0.015": 0.0,
			"0.016": 0.0,
			"0.017": 0.0,
			"0.018": 0.0,
			"0.019": 0.0,
			"0.02": 0.0,
			"0.021": 0.0,
			"0.022": 0.0,
			"0.023": 0.0,
			"0.024": 0.0,
			"0.025": 0.0
		}
	}
}
