{
	 "smiles": "CC1=C(C)C(OC2=NC=C(N)C=C2)=CC=C1", 
	 "Tm": 342.15, 
	 "num_atms": 30, 
	 "gaussian": { 
		 "optdone": 1, 
		 "sigma_profile": "yes", 
		 "theory": "DFT", 
		 "functional": "B3LYP", 
		 "basiset": "6-31G**", 
		 "properties": { 
			 "R2extent": 5082.7112, 
			 "electric_dipole_moment_norm": 3.54909823054, 
			 "electric_quadrupole_moment_norm": 18.9525972951, 
			 "total_energy": -688.550656629, 
			 "HOMO_LUMO_gap": 0.17795, 
			 "cosmo_polarized_energy": -14.36, 
			 "cosmo_cavitation_energy": 33.52, 
			 "cosmo_dispersion_energy": -24.05, 
			 "cosmo_repulsion_energy": 1.88, 
			 "cosmo_total_nonelectrostatic_energy": 11.35, 
			 "SMD_solvation_energy": 4.35 
		},
		"coords": [
			{
				"x": 0.8964546583,
				"y": -2.9491527019,
				"z": 3.5123820469,
				"element": "C" 
			},
			{
				"x": 1.1909966811,
				"y": -2.6377899322,
				"z": 2.0639349397,
				"element": "C" 
			},
			{
				"x": 1.3463127747,
				"y": -1.298314858,
				"z": 1.6431603312,
				"element": "C" 
			},
			{
				"x": 1.2286195421,
				"y": -0.1556726366,
				"z": 2.6224507255,
				"element": "C" 
			},
			{
				"x": 1.6247113981,
				"y": -1.057918738,
				"z": 0.2889990281,
				"element": "C" 
			},
			{
				"x": 1.8583859724,
				"y": 0.2520777894,
				"z": -0.1006960008,
				"element": "O" 
			},
			{
				"x": 1.181696181,
				"y": 0.7875664787,
				"z": -1.1754232546,
				"element": "C" 
			},
			{
				"x": 1.8228190836,
				"y": 1.7807418285,
				"z": -1.7746944122,
				"element": "N" 
			},
			{
				"x": 1.2164849686,
				"y": 2.4043476973,
				"z": -2.7877256731,
				"element": "C" 
			},
			{
				"x": -0.0580016628,
				"y": 2.06884109,
				"z": -3.2694295127,
				"element": "C" 
			},
			{
				"x": -0.6112400924,
				"y": 2.7105530085,
				"z": -4.3826970424,
				"element": "N" 
			},
			{
				"x": -0.7177904074,
				"y": 1.0168406309,
				"z": -2.6140018297,
				"element": "C" 
			},
			{
				"x": -0.1016471871,
				"y": 0.3683573114,
				"z": -1.5514380696,
				"element": "C" 
			},
			{
				"x": 1.7532775091,
				"y": -2.0992219752,
				"z": -0.6353345647,
				"element": "C" 
			},
			{
				"x": 1.5873129155,
				"y": -3.4118330099,
				"z": -0.2071008296,
				"element": "C" 
			},
			{
				"x": 1.3078031308,
				"y": -3.6762424544,
				"z": 1.1343638222,
				"element": "C" 
			},
			{
				"x": -0.0397829847,
				"y": -2.4849558308,
				"z": 3.8456600609,
				"element": "H" 
			},
			{
				"x": 1.6852966198,
				"y": -2.573789708,
				"z": 4.175356709,
				"element": "H" 
			},
			{
				"x": 0.8098581917,
				"y": -4.0268860467,
				"z": 3.6727387785,
				"element": "H" 
			},
			{
				"x": 1.3452235192,
				"y": 0.8040743546,
				"z": 2.1196872288,
				"element": "H" 
			},
			{
				"x": 0.257537976,
				"y": -0.1652761793,
				"z": 3.1317081526,
				"element": "H" 
			},
			{
				"x": 1.9955173901,
				"y": -0.2222398836,
				"z": 3.4037364932,
				"element": "H" 
			},
			{
				"x": 1.7738970039,
				"y": 3.2176585647,
				"z": -3.2533254468,
				"element": "H" 
			},
			{
				"x": -1.6223516508,
				"y": 2.725019252,
				"z": -4.402889487,
				"element": "H" 
			},
			{
				"x": -0.2302311634,
				"y": 3.6292561198,
				"z": -4.5675508613,
				"element": "H" 
			},
			{
				"x": -1.7110855579,
				"y": 0.7118681446,
				"z": -2.9344072065,
				"element": "H" 
			},
			{
				"x": -0.5998338009,
				"y": -0.438464036,
				"z": -1.0271531389,
				"element": "H" 
			},
			{
				"x": 1.989035231,
				"y": -1.8695644589,
				"z": -1.6691378912,
				"element": "H" 
			},
			{
				"x": 1.686660143,
				"y": -4.2289692367,
				"z": -0.9157324397,
				"element": "H" 
			},
			{
				"x": 1.1839636173,
				"y": -4.7030105843,
				"z": 1.4681593441,
				"element": "H" 
			}
		],
		 "valence_orbital": [ 
			{
				"type": "occ",
				"energy": -0.2747,
				"method": "rhf"
			},
			{
				"type": "occ",
				"energy": -0.25698,
				"method": "rhf"
			},
			{
				"type": "occ",
				"energy": -0.23416,
				"method": "rhf"
			},
			{
				"type": "occ",
				"energy": -0.22959,
				"method": "rhf"
			},
			{
				"type": "occ",
				"energy": -0.19717,
				"method": "rhf"
			},
			{
				"type": "unocc",
				"energy": -0.01922,
				"method": "rhf"
			},
			{
				"type": "unocc",
				"energy": 0.00448,
				"method": "rhf"
			},
			{
				"type": "unocc",
				"energy": 0.00623,
				"method": "rhf"
			},
			{
				"type": "unocc",
				"energy": 0.02268,
				"method": "rhf"
			},
			{
				"type": "unocc",
				"energy": 0.07547,
				"method": "rhf"
			}
		],
		"cosmo_sigma_profile": { 
			"-0.025": 0.0,
			"-0.024": 0.0,
			"-0.023": 0.0,
			"-0.022": 0.0,
			"-0.021": 0.0,
			"-0.02": 0.0,
			"-0.019": 0.0,
			"-0.018": 0.0,
			"-0.017": 0.0,
			"-0.016": 0.0,
			"-0.015": 0.0,
			"-0.014": 0.0,
			"-0.013": 0.842066405272,
			"-0.012": 2.99312851335,
			"-0.011": 2.7840026965,
			"-0.01": 3.71617937005,
			"-0.009": 3.58571933924,
			"-0.008": 3.05843063225,
			"-0.007": 5.1907851481,
			"-0.006": 8.21880026812,
			"-0.005": 12.6870124934,
			"-0.004": 21.2300998703,
			"-0.003": 20.7803112967,
			"-0.002": 20.7881904239,
			"-0.001": 20.1976542534,
			"0.0": 24.9626740114,
			"0.001": 20.6660766599,
			"0.002": 18.1077255129,
			"0.003": 18.8566875313,
			"0.004": 16.2459620998,
			"0.005": 10.5093597432,
			"0.006": 7.97450768304,
			"0.007": 2.55181383923,
			"0.008": 3.74527409892,
			"0.009": 2.28131398045,
			"0.01": 1.83317827995,
			"0.011": 2.91133597851,
			"0.012": 2.33187082281,
			"0.013": 2.25323230396,
			"0.014": 1.66550331309,
			"0.015": 1.6476884004,
			"0.016": 1.06868798567,
			"0.017": 0.303544744784,
			"0.018": 0.0,
			"0.019": 0.0,
			"0.02": 0.0,
			"0.021": 0.0,
			"0.022": 0.0,
			"0.023": 0.0,
			"0.024": 0.0,
			"0.025": 0.0
		}
	}
}
