{
	 "smiles": "CC(=O)C1=CC=C(C=C1)C1=CC=NC=C1", 
	 "Tm": 367.15, 
	 "num_atms": 26, 
	 "gaussian": { 
		 "optdone": 1, 
		 "sigma_profile": "yes", 
		 "theory": "DFT", 
		 "functional": "B3LYP", 
		 "basiset": "6-31G**", 
		 "properties": { 
			 "R2extent": 4614.6723, 
			 "electric_dipole_moment_norm": 2.28058354374, 
			 "electric_quadrupole_moment_norm": 24.6301550247, 
			 "total_energy": -631.99332884, 
			 "HOMO_LUMO_gap": 0.17873, 
			 "cosmo_polarized_energy": -12.1, 
			 "cosmo_cavitation_energy": 30.44, 
			 "cosmo_dispersion_energy": -22.14, 
			 "cosmo_repulsion_energy": 1.69, 
			 "cosmo_total_nonelectrostatic_energy": 10.0, 
			 "SMD_solvation_energy": 4.33 
		},
		"coords": [
			{
				"x": -4.8807441163,
				"y": -1.7170337025,
				"z": 0.7595601238,
				"element": "C" 
			},
			{
				"x": -4.3550331788,
				"y": -0.5574737576,
				"z": -0.0695044214,
				"element": "C" 
			},
			{
				"x": -5.1260103245,
				"y": 0.2202873454,
				"z": -0.6113575016,
				"element": "O" 
			},
			{
				"x": -2.8722361892,
				"y": -0.382409006,
				"z": -0.2125881353,
				"element": "C" 
			},
			{
				"x": -1.9392377186,
				"y": -1.2415473798,
				"z": 0.3858477249,
				"element": "C" 
			},
			{
				"x": -0.5731304687,
				"y": -1.0301661223,
				"z": 0.2198920555,
				"element": "C" 
			},
			{
				"x": -0.0984598901,
				"y": 0.0442873516,
				"z": -0.5504677163,
				"element": "C" 
			},
			{
				"x": -1.0392192779,
				"y": 0.9025107316,
				"z": -1.1496035274,
				"element": "C" 
			},
			{
				"x": -2.4014640956,
				"y": 0.6930149966,
				"z": -0.9820608401,
				"element": "C" 
			},
			{
				"x": 1.3572144423,
				"y": 0.2674266325,
				"z": -0.7283337938,
				"element": "C" 
			},
			{
				"x": 2.2724980414,
				"y": 0.0205105424,
				"z": 0.3064255195,
				"element": "C" 
			},
			{
				"x": 3.630171988,
				"y": 0.2465375928,
				"z": 0.0865715299,
				"element": "C" 
			},
			{
				"x": 4.1372310804,
				"y": 0.6926841473,
				"z": -1.0697320586,
				"element": "N" 
			},
			{
				"x": 3.2627037009,
				"y": 0.9279148603,
				"z": -2.0562232628,
				"element": "C" 
			},
			{
				"x": 1.8869699388,
				"y": 0.7360929397,
				"z": -1.940395565,
				"element": "C" 
			},
			{
				"x": -5.9704138165,
				"y": -1.6836770397,
				"z": 0.7535872584,
				"element": "H" 
			},
			{
				"x": -4.5207697545,
				"y": -1.6577383848,
				"z": 1.7926689825,
				"element": "H" 
			},
			{
				"x": -4.544475673,
				"y": -2.6765469023,
				"z": 0.3511046787,
				"element": "H" 
			},
			{
				"x": -2.2728729123,
				"y": -2.0864676676,
				"z": 0.9794981109,
				"element": "H" 
			},
			{
				"x": 0.133838237,
				"y": -1.7202911994,
				"z": 0.6698723873,
				"element": "H" 
			},
			{
				"x": -0.6938937668,
				"y": 1.7538954885,
				"z": -1.7281430705,
				"element": "H" 
			},
			{
				"x": -3.1315168571,
				"y": 1.3562292174,
				"z": -1.4337785474,
				"element": "H" 
			},
			{
				"x": 1.9313304118,
				"y": -0.3179681127,
				"z": 1.2795615658,
				"element": "H" 
			},
			{
				"x": 4.3472116183,
				"y": 0.0635399533,
				"z": 0.8852126787,
				"element": "H" 
			},
			{
				"x": 3.6836721619,
				"y": 1.2855230654,
				"z": -2.9944607474,
				"element": "H" 
			},
			{
				"x": 1.2410364191,
				"y": 0.9248644097,
				"z": -2.7918534282,
				"element": "H" 
			}
		],
		 "valence_orbital": [ 
			{
				"type": "occ",
				"energy": -0.26989,
				"method": "rhf"
			},
			{
				"type": "occ",
				"energy": -0.26765,
				"method": "rhf"
			},
			{
				"type": "occ",
				"energy": -0.25811,
				"method": "rhf"
			},
			{
				"type": "occ",
				"energy": -0.25288,
				"method": "rhf"
			},
			{
				"type": "occ",
				"energy": -0.25132,
				"method": "rhf"
			},
			{
				"type": "unocc",
				"energy": -0.07259,
				"method": "rhf"
			},
			{
				"type": "unocc",
				"energy": -0.02231,
				"method": "rhf"
			},
			{
				"type": "unocc",
				"energy": -0.02042,
				"method": "rhf"
			},
			{
				"type": "unocc",
				"energy": -0.01541,
				"method": "rhf"
			},
			{
				"type": "unocc",
				"energy": 0.04117,
				"method": "rhf"
			}
		],
		"cosmo_sigma_profile": { 
			"-0.025": 0.0,
			"-0.024": 0.0,
			"-0.023": 0.0,
			"-0.022": 0.0,
			"-0.021": 0.0,
			"-0.02": 0.0,
			"-0.019": 0.0,
			"-0.018": 0.0,
			"-0.017": 0.0,
			"-0.016": 0.0,
			"-0.015": 0.0,
			"-0.014": 0.0,
			"-0.013": 0.0,
			"-0.012": 0.0,
			"-0.011": 0.0,
			"-0.01": 0.0,
			"-0.009": 0.0,
			"-0.008": 0.0342259689388,
			"-0.007": 8.29347124697,
			"-0.006": 23.6772952749,
			"-0.005": 21.7353959894,
			"-0.004": 17.9673393748,
			"-0.003": 17.206559803,
			"-0.002": 15.4513802431,
			"-0.001": 17.2986858167,
			"0.0": 17.0527299906,
			"0.001": 19.3202060962,
			"0.002": 25.4709592862,
			"0.003": 20.6751363514,
			"0.004": 6.65251360101,
			"0.005": 3.95763671427,
			"0.006": 3.37281827908,
			"0.007": 2.80951822791,
			"0.008": 2.88812904675,
			"0.009": 2.83182734042,
			"0.01": 3.11953997888,
			"0.011": 3.97984058713,
			"0.012": 4.80352184421,
			"0.013": 2.52543525831,
			"0.014": 0.862876137151,
			"0.015": 1.04103772121,
			"0.016": 0.878259366572,
			"0.017": 0.270574678949,
			"0.018": 0.0,
			"0.019": 0.0,
			"0.02": 0.0,
			"0.021": 0.0,
			"0.022": 0.0,
			"0.023": 0.0,
			"0.024": 0.0,
			"0.025": 0.0
		}
	}
}
