{
	 "smiles": "CC(C)C(=O)NC1=CC(N)=C(C)C=C1", 
	 "Tm": 434.15, 
	 "num_atms": 30, 
	 "gaussian": { 
		 "optdone": 1, 
		 "sigma_profile": "yes", 
		 "theory": "DFT", 
		 "functional": "B3LYP", 
		 "basiset": "6-31G**", 
		 "properties": { 
			 "R2extent": 3792.0161, 
			 "electric_dipole_moment_norm": 4.7278353292, 
			 "electric_quadrupole_moment_norm": 15.3671860749, 
			 "total_energy": -613.575870859, 
			 "HOMO_LUMO_gap": 0.19804, 
			 "cosmo_polarized_energy": -14.75, 
			 "cosmo_cavitation_energy": 32.49, 
			 "cosmo_dispersion_energy": -23.02, 
			 "cosmo_repulsion_energy": 1.84, 
			 "cosmo_total_nonelectrostatic_energy": 11.3, 
			 "SMD_solvation_energy": 6.12 
		},
		"coords": [
			{
				"x": 0.1677283104,
				"y": 3.3481496836,
				"z": 1.4492057936,
				"element": "C" 
			},
			{
				"x": -0.1471273757,
				"y": 2.6267675894,
				"z": 0.1266622958,
				"element": "C" 
			},
			{
				"x": -0.0332293771,
				"y": 3.5908231809,
				"z": -1.0673031508,
				"element": "C" 
			},
			{
				"x": -1.5744134657,
				"y": 2.0815400787,
				"z": 0.2011857069,
				"element": "C" 
			},
			{
				"x": -2.5229038765,
				"y": 2.8180085019,
				"z": 0.4478984906,
				"element": "O" 
			},
			{
				"x": -1.7977931494,
				"y": 0.7278337547,
				"z": 0.0314545373,
				"element": "N" 
			},
			{
				"x": -0.9269774688,
				"y": -0.340877354,
				"z": -0.30437859,
				"element": "C" 
			},
			{
				"x": -1.0205381419,
				"y": -1.5276279811,
				"z": 0.4302348442,
				"element": "C" 
			},
			{
				"x": -0.2261567172,
				"y": -2.6391025888,
				"z": 0.1168322838,
				"element": "C" 
			},
			{
				"x": -0.2973094306,
				"y": -3.793128811,
				"z": 0.8993850913,
				"element": "N" 
			},
			{
				"x": 0.7020359786,
				"y": -2.5586350652,
				"z": -0.9486039192,
				"element": "C" 
			},
			{
				"x": 1.5859387239,
				"y": -3.7344001393,
				"z": -1.28077057,
				"element": "C" 
			},
			{
				"x": 0.7719141391,
				"y": -1.3664169816,
				"z": -1.6698255676,
				"element": "C" 
			},
			{
				"x": -0.0346053595,
				"y": -0.2654443856,
				"z": -1.3796924135,
				"element": "C" 
			},
			{
				"x": 0.1343621316,
				"y": 2.6581076232,
				"z": 2.298693574,
				"element": "H" 
			},
			{
				"x": 1.1687858902,
				"y": 3.7898662104,
				"z": 1.4114694956,
				"element": "H" 
			},
			{
				"x": -0.5622651681,
				"y": 4.1418134573,
				"z": 1.6278476696,
				"element": "H" 
			},
			{
				"x": 0.5616782912,
				"y": 1.8050363451,
				"z": -0.0041187647,
				"element": "H" 
			},
			{
				"x": -0.2096653312,
				"y": 3.0825906065,
				"z": -2.0216875044,
				"element": "H" 
			},
			{
				"x": -0.772988692,
				"y": 4.3908932416,
				"z": -0.9721397622,
				"element": "H" 
			},
			{
				"x": 0.9647723673,
				"y": 4.0393040902,
				"z": -1.1035200244,
				"element": "H" 
			},
			{
				"x": -2.7597171066,
				"y": 0.4843437485,
				"z": 0.2369585656,
				"element": "H" 
			},
			{
				"x": -1.7093499511,
				"y": -1.5797225956,
				"z": 1.2702299738,
				"element": "H" 
			},
			{
				"x": -1.1420157252,
				"y": -3.8893188532,
				"z": 1.4456927303,
				"element": "H" 
			},
			{
				"x": -0.0488134807,
				"y": -4.6543960753,
				"z": 0.4337289896,
				"element": "H" 
			},
			{
				"x": 2.2698280855,
				"y": -3.4918292959,
				"z": -2.0979054276,
				"element": "H" 
			},
			{
				"x": 2.1893852162,
				"y": -4.0419765387,
				"z": -0.4174480465,
				"element": "H" 
			},
			{
				"x": 1.0057974778,
				"y": -4.6138267899,
				"z": -1.5964957638,
				"element": "H" 
			},
			{
				"x": 1.4694044647,
				"y": -1.3028582801,
				"z": -2.5014913146,
				"element": "H" 
			},
			{
				"x": 0.0089387409,
				"y": 0.6255836231,
				"z": -1.9950992226,
				"element": "H" 
			}
		],
		 "valence_orbital": [ 
			{
				"type": "occ",
				"energy": -0.31458,
				"method": "rhf"
			},
			{
				"type": "occ",
				"energy": -0.27353,
				"method": "rhf"
			},
			{
				"type": "occ",
				"energy": -0.24098,
				"method": "rhf"
			},
			{
				"type": "occ",
				"energy": -0.22597,
				"method": "rhf"
			},
			{
				"type": "occ",
				"energy": -0.20433,
				"method": "rhf"
			},
			{
				"type": "unocc",
				"energy": -0.00629,
				"method": "rhf"
			},
			{
				"type": "unocc",
				"energy": 0.00906,
				"method": "rhf"
			},
			{
				"type": "unocc",
				"energy": 0.04029,
				"method": "rhf"
			},
			{
				"type": "unocc",
				"energy": 0.07018,
				"method": "rhf"
			},
			{
				"type": "unocc",
				"energy": 0.09018,
				"method": "rhf"
			}
		],
		"cosmo_sigma_profile": { 
			"-0.025": 0.0,
			"-0.024": 0.0,
			"-0.023": 0.0,
			"-0.022": 0.0,
			"-0.021": 0.0,
			"-0.02": 0.0,
			"-0.019": 0.0,
			"-0.018": 0.0,
			"-0.017": 0.0,
			"-0.016": 0.0,
			"-0.015": 0.0,
			"-0.014": 0.156312259288,
			"-0.013": 0.949381859058,
			"-0.012": 2.83066675839,
			"-0.011": 3.07113805673,
			"-0.01": 4.09380396528,
			"-0.009": 4.37025551392,
			"-0.008": 3.44353035442,
			"-0.007": 4.88617459658,
			"-0.006": 6.61642156025,
			"-0.005": 9.24388775396,
			"-0.004": 15.3821324096,
			"-0.003": 21.7671254774,
			"-0.002": 25.3148726375,
			"-0.001": 25.0893137416,
			"0.0": 26.6797364535,
			"0.001": 23.6696616044,
			"0.002": 11.9739333301,
			"0.003": 10.1219902588,
			"0.004": 8.98797578624,
			"0.005": 9.23976081748,
			"0.006": 10.6650450326,
			"0.007": 4.36345102451,
			"0.008": 2.71274052738,
			"0.009": 2.09372717555,
			"0.01": 1.53336847276,
			"0.011": 2.51229839425,
			"0.012": 1.94559084313,
			"0.013": 3.7793118629,
			"0.014": 5.79511607333,
			"0.015": 1.11561148305,
			"0.016": 0.0,
			"0.017": 0.0,
			"0.018": 0.0,
			"0.019": 0.0,
			"0.02": 0.0,
			"0.021": 0.0,
			"0.022": 0.0,
			"0.023": 0.0,
			"0.024": 0.0,
			"0.025": 0.0
		}
	}
}
