{
	 "smiles": "CC1=CC=C2N=CC=NC2=C1", 
	 "Tm": 491.15, 
	 "num_atms": 19, 
	 "gaussian": { 
		 "optdone": 1, 
		 "sigma_profile": "yes", 
		 "theory": "DFT", 
		 "functional": "B3LYP", 
		 "basiset": "6-31G**", 
		 "properties": { 
			 "R2extent": 1735.9764, 
			 "electric_dipole_moment_norm": 1.14702459433, 
			 "electric_quadrupole_moment_norm": 11.1302013764, 
			 "total_energy": -457.285586456, 
			 "HOMO_LUMO_gap": 0.17389, 
			 "cosmo_polarized_energy": -6.95, 
			 "cosmo_cavitation_energy": 22.86, 
			 "cosmo_dispersion_energy": -17.24, 
			 "cosmo_repulsion_energy": 1.36, 
			 "cosmo_total_nonelectrostatic_energy": 6.98, 
			 "SMD_solvation_energy": 0.95 
		},
		"coords": [
			{
				"x": 0.57675101,
				"y": -1.108018765,
				"z": -2.9823499099,
				"element": "C" 
			},
			{
				"x": 0.1569645079,
				"y": -0.5542509244,
				"z": -1.6429079979,
				"element": "C" 
			},
			{
				"x": -0.6480338993,
				"y": 0.6226276242,
				"z": -1.5888961838,
				"element": "C" 
			},
			{
				"x": -1.0553448691,
				"y": 1.1644385653,
				"z": -0.3933706525,
				"element": "C" 
			},
			{
				"x": -0.6762392862,
				"y": 0.5528189388,
				"z": 0.830003975,
				"element": "C" 
			},
			{
				"x": -1.0832462993,
				"y": 1.0947926362,
				"z": 2.0131586862,
				"element": "N" 
			},
			{
				"x": -0.6909183649,
				"y": 0.4698526354,
				"z": 3.1045242552,
				"element": "C" 
			},
			{
				"x": 0.110501151,
				"y": -0.7026402001,
				"z": 3.0681273861,
				"element": "C" 
			},
			{
				"x": 0.5196069359,
				"y": -1.2502665257,
				"z": 1.9422292975,
				"element": "N" 
			},
			{
				"x": 0.1302601086,
				"y": -0.6270103618,
				"z": 0.7919308635,
				"element": "C" 
			},
			{
				"x": 0.5323423013,
				"y": -1.1585566197,
				"z": -0.4603785645,
				"element": "C" 
			},
			{
				"x": 1.1593995254,
				"y": -0.3724131261,
				"z": -3.5492454128,
				"element": "H" 
			},
			{
				"x": 1.1870417273,
				"y": -2.0075591556,
				"z": -2.8702919,
				"element": "H" 
			},
			{
				"x": -0.2955024549,
				"y": -1.3651487971,
				"z": -3.5947455958,
				"element": "H" 
			},
			{
				"x": -0.942421547,
				"y": 1.0967774759,
				"z": -2.5220362606,
				"element": "H" 
			},
			{
				"x": -1.6676445395,
				"y": 2.0593940263,
				"z": -0.3472717439,
				"element": "H" 
			},
			{
				"x": -1.0045869933,
				"y": 0.8853456895,
				"z": 4.061197001,
				"element": "H" 
			},
			{
				"x": 0.4104186518,
				"y": -1.1848262092,
				"z": 3.9976977847,
				"element": "H" 
			},
			{
				"x": 1.1443523341,
				"y": -2.0556569071,
				"z": -0.4516750273,
				"element": "H" 
			}
		],
		 "valence_orbital": [ 
			{
				"type": "occ",
				"energy": -0.33632,
				"method": "rhf"
			},
			{
				"type": "occ",
				"energy": -0.30511,
				"method": "rhf"
			},
			{
				"type": "occ",
				"energy": -0.25341,
				"method": "rhf"
			},
			{
				"type": "occ",
				"energy": -0.24376,
				"method": "rhf"
			},
			{
				"type": "occ",
				"energy": -0.24097,
				"method": "rhf"
			},
			{
				"type": "unocc",
				"energy": -0.06708,
				"method": "rhf"
			},
			{
				"type": "unocc",
				"energy": -0.02273,
				"method": "rhf"
			},
			{
				"type": "unocc",
				"energy": 0.01235,
				"method": "rhf"
			},
			{
				"type": "unocc",
				"energy": 0.07636,
				"method": "rhf"
			},
			{
				"type": "unocc",
				"energy": 0.09921,
				"method": "rhf"
			}
		],
		"cosmo_sigma_profile": { 
			"-0.025": 0.0,
			"-0.024": 0.0,
			"-0.023": 0.0,
			"-0.022": 0.0,
			"-0.021": 0.0,
			"-0.02": 0.0,
			"-0.019": 0.0,
			"-0.018": 0.0,
			"-0.017": 0.0,
			"-0.016": 0.0,
			"-0.015": 0.0,
			"-0.014": 0.0,
			"-0.013": 0.0,
			"-0.012": 0.0,
			"-0.011": 0.0,
			"-0.01": 0.0,
			"-0.009": 0.0,
			"-0.008": 0.995122862114,
			"-0.007": 5.95956028781,
			"-0.006": 9.4277611759,
			"-0.005": 11.9074904765,
			"-0.004": 16.300147271,
			"-0.003": 13.6216969333,
			"-0.002": 16.0456436226,
			"-0.001": 18.3222319927,
			"0.0": 17.0944628208,
			"0.001": 14.1538998195,
			"0.002": 14.761540915,
			"0.003": 15.6458210897,
			"0.004": 7.32902248969,
			"0.005": 2.81978405425,
			"0.006": 3.40816315802,
			"0.007": 2.31748989334,
			"0.008": 2.09444842241,
			"0.009": 1.40425340447,
			"0.01": 2.22863633343,
			"0.011": 1.67789102208,
			"0.012": 1.56968898195,
			"0.013": 1.72579765624,
			"0.014": 1.47081460431,
			"0.015": 1.16601522833,
			"0.016": 0.0524825766382,
			"0.017": 0.0,
			"0.018": 0.0,
			"0.019": 0.0,
			"0.02": 0.0,
			"0.021": 0.0,
			"0.022": 0.0,
			"0.023": 0.0,
			"0.024": 0.0,
			"0.025": 0.0
		}
	}
}
