{
	 "smiles": "SC1=NN=C(N1C1=CC=CC=C1)N1CCOCC1", 
	 "Tm": 290.15, 
	 "num_atms": 32, 
	 "gaussian": { 
		 "optdone": 1, 
		 "sigma_profile": "yes", 
		 "theory": "DFT", 
		 "functional": "B3LYP", 
		 "basiset": "6-31G**", 
		 "properties": { 
			 "R2extent": 5650.8861, 
			 "electric_dipole_moment_norm": 4.92088027186, 
			 "electric_quadrupole_moment_norm": 11.2025076483, 
			 "total_energy": -1158.07040538, 
			 "HOMO_LUMO_gap": 0.17289, 
			 "cosmo_polarized_energy": -16.53, 
			 "cosmo_cavitation_energy": 36.05, 
			 "cosmo_dispersion_energy": -25.83, 
			 "cosmo_repulsion_energy": 1.97, 
			 "cosmo_total_nonelectrostatic_energy": 12.19, 
			 "SMD_solvation_energy": 2.8 
		},
		"coords": [
			{
				"x": -3.4584291278,
				"y": 2.4939236451,
				"z": -1.9927303447,
				"element": "S" 
			},
			{
				"x": -1.7734442701,
				"y": 2.3298768738,
				"z": -1.4768830349,
				"element": "C" 
			},
			{
				"x": -0.9220243289,
				"y": 3.3053833193,
				"z": -1.3182714062,
				"element": "N" 
			},
			{
				"x": 0.2781917003,
				"y": 2.7396480009,
				"z": -0.9065624529,
				"element": "N" 
			},
			{
				"x": 0.1141812611,
				"y": 1.4390879497,
				"z": -0.8556106297,
				"element": "C" 
			},
			{
				"x": -1.1906856188,
				"y": 1.1022553279,
				"z": -1.2041433108,
				"element": "N" 
			},
			{
				"x": -1.7485777213,
				"y": -0.1936507594,
				"z": -1.4370383198,
				"element": "C" 
			},
			{
				"x": -2.8809834132,
				"y": -0.6013236978,
				"z": -0.7250157267,
				"element": "C" 
			},
			{
				"x": -3.4338648623,
				"y": -1.8584761646,
				"z": -0.973357152,
				"element": "C" 
			},
			{
				"x": -2.8484105313,
				"y": -2.7104790654,
				"z": -1.9111101501,
				"element": "C" 
			},
			{
				"x": -1.7098315992,
				"y": -2.3008951071,
				"z": -2.6100402379,
				"element": "C" 
			},
			{
				"x": -1.1604940415,
				"y": -1.039717781,
				"z": -2.3836133371,
				"element": "C" 
			},
			{
				"x": 1.0777667135,
				"y": 0.4915817492,
				"z": -0.5420755859,
				"element": "N" 
			},
			{
				"x": 0.7570030667,
				"y": -0.4229969969,
				"z": 0.5818996822,
				"element": "C" 
			},
			{
				"x": 2.0439109658,
				"y": -1.0361239269,
				"z": 1.1234019564,
				"element": "C" 
			},
			{
				"x": 2.9359659638,
				"y": -0.0653972352,
				"z": 1.6498210868,
				"element": "O" 
			},
			{
				"x": 2.9755660614,
				"y": 1.1617049931,
				"z": 0.9109226651,
				"element": "C" 
			},
			{
				"x": 2.4674885425,
				"y": 0.9963098565,
				"z": -0.5169778717,
				"element": "C" 
			},
			{
				"x": -3.3414931053,
				"y": 3.8297200523,
				"z": -2.1189424438,
				"element": "H" 
			},
			{
				"x": -3.3169959487,
				"y": 0.0613086421,
				"z": 0.015420894,
				"element": "H" 
			},
			{
				"x": -4.3169775672,
				"y": -2.1728592888,
				"z": -0.4256269023,
				"element": "H" 
			},
			{
				"x": -3.2769241279,
				"y": -3.690595673,
				"z": -2.0973783672,
				"element": "H" 
			},
			{
				"x": -1.2536166752,
				"y": -2.9600976914,
				"z": -3.3423887905,
				"element": "H" 
			},
			{
				"x": -0.2810883872,
				"y": -0.7066594508,
				"z": -2.9234866285,
				"element": "H" 
			},
			{
				"x": 0.2509455073,
				"y": 0.1192044943,
				"z": 1.3943168009,
				"element": "H" 
			},
			{
				"x": 0.0881778314,
				"y": -1.2203494557,
				"z": 0.2422919502,
				"element": "H" 
			},
			{
				"x": 1.8036424447,
				"y": -1.7189015777,
				"z": 1.9442883641,
				"element": "H" 
			},
			{
				"x": 2.5280033672,
				"y": -1.6298881876,
				"z": 0.3314290088,
				"element": "H" 
			},
			{
				"x": 2.3725392457,
				"y": 1.9235715193,
				"z": 1.4248692696,
				"element": "H" 
			},
			{
				"x": 4.0170370055,
				"y": 1.5033424818,
				"z": 0.9049633835,
				"element": "H" 
			},
			{
				"x": 2.4966475656,
				"y": 1.9564544512,
				"z": -1.0324728377,
				"element": "H" 
			},
			{
				"x": 3.1087740836,
				"y": 0.2925387026,
				"z": -1.0613995313,
				"element": "H" 
			}
		],
		 "valence_orbital": [ 
			{
				"type": "occ",
				"energy": -0.272,
				"method": "rhf"
			},
			{
				"type": "occ",
				"energy": -0.25631,
				"method": "rhf"
			},
			{
				"type": "occ",
				"energy": -0.25017,
				"method": "rhf"
			},
			{
				"type": "occ",
				"energy": -0.2467,
				"method": "rhf"
			},
			{
				"type": "occ",
				"energy": -0.20409,
				"method": "rhf"
			},
			{
				"type": "unocc",
				"energy": -0.0312,
				"method": "rhf"
			},
			{
				"type": "unocc",
				"energy": -0.02606,
				"method": "rhf"
			},
			{
				"type": "unocc",
				"energy": 0.01674,
				"method": "rhf"
			},
			{
				"type": "unocc",
				"energy": 0.02987,
				"method": "rhf"
			},
			{
				"type": "unocc",
				"energy": 0.05106,
				"method": "rhf"
			}
		],
		"cosmo_sigma_profile": { 
			"-0.025": 0.0,
			"-0.024": 0.0,
			"-0.023": 0.0,
			"-0.022": 0.0,
			"-0.021": 0.0,
			"-0.02": 0.0,
			"-0.019": 0.0,
			"-0.018": 0.0,
			"-0.017": 0.0,
			"-0.016": 0.0,
			"-0.015": 0.0,
			"-0.014": 0.0,
			"-0.013": 0.0122193260854,
			"-0.012": 1.01834801893,
			"-0.011": 1.42723432686,
			"-0.01": 1.077263531,
			"-0.009": 1.26661995895,
			"-0.008": 1.37785170367,
			"-0.007": 5.13367988585,
			"-0.006": 14.325624313,
			"-0.005": 28.5041020454,
			"-0.004": 34.2946925225,
			"-0.003": 26.6625140325,
			"-0.002": 24.217320635,
			"-0.001": 17.4281784588,
			"0.0": 16.6929515297,
			"0.001": 17.8104924625,
			"0.002": 21.0353953652,
			"0.003": 17.8157757259,
			"0.004": 12.8978670995,
			"0.005": 6.52984503137,
			"0.006": 5.86264770826,
			"0.007": 3.81190027885,
			"0.008": 3.31130095767,
			"0.009": 2.69997575121,
			"0.01": 3.06294939054,
			"0.011": 2.834749527,
			"0.012": 4.30886994979,
			"0.013": 4.89264512496,
			"0.014": 3.84776846995,
			"0.015": 2.50967679733,
			"0.016": 1.63500182227,
			"0.017": 0.143474888475,
			"0.018": 0.0,
			"0.019": 0.0,
			"0.02": 0.0,
			"0.021": 0.0,
			"0.022": 0.0,
			"0.023": 0.0,
			"0.024": 0.0,
			"0.025": 0.0
		}
	}
}
