{
	 "smiles": "CC1=CC=C(C=C1)C1=C(SC=C1)C(O)=O", 
	 "Tm": 408.15, 
	 "num_atms": 25, 
	 "gaussian": { 
		 "optdone": 1, 
		 "sigma_profile": "yes", 
		 "theory": "DFT", 
		 "functional": "B3LYP", 
		 "basiset": "6-31G**", 
		 "properties": { 
			 "R2extent": 4673.4087, 
			 "electric_dipole_moment_norm": 4.29163882334, 
			 "electric_quadrupole_moment_norm": 11.9103625209, 
			 "total_energy": -1011.9409429, 
			 "HOMO_LUMO_gap": 0.16672, 
			 "cosmo_polarized_energy": -13.27, 
			 "cosmo_cavitation_energy": 30.61, 
			 "cosmo_dispersion_energy": -22.89, 
			 "cosmo_repulsion_energy": 1.74, 
			 "cosmo_total_nonelectrostatic_energy": 9.46, 
			 "SMD_solvation_energy": 6.18 
		},
		"coords": [
			{
				"x": 2.1763089666,
				"y": 4.6923371697,
				"z": -0.7490688516,
				"element": "C" 
			},
			{
				"x": 1.8781584469,
				"y": 3.3241392911,
				"z": -0.1842981509,
				"element": "C" 
			},
			{
				"x": 2.8009224521,
				"y": 2.6631318313,
				"z": 0.6372014406,
				"element": "C" 
			},
			{
				"x": 2.5111627642,
				"y": 1.4158093658,
				"z": 1.1830263753,
				"element": "C" 
			},
			{
				"x": 1.289309665,
				"y": 0.7728395322,
				"z": 0.9141522115,
				"element": "C" 
			},
			{
				"x": 0.3640211041,
				"y": 1.4318624891,
				"z": 0.0886345126,
				"element": "C" 
			},
			{
				"x": 0.6601949541,
				"y": 2.6835049278,
				"z": -0.4460311505,
				"element": "C" 
			},
			{
				"x": 1.0117236087,
				"y": -0.5335075484,
				"z": 1.5577074049,
				"element": "C" 
			},
			{
				"x": 0.4681842302,
				"y": -1.681220616,
				"z": 0.9924344983,
				"element": "C" 
			},
			{
				"x": 0.3851871508,
				"y": -2.991828305,
				"z": 2.1616828607,
				"element": "S" 
			},
			{
				"x": 1.0937444751,
				"y": -2.0098975507,
				"z": 3.3899975873,
				"element": "C" 
			},
			{
				"x": 1.3672230682,
				"y": -0.7539049684,
				"z": 2.9330101674,
				"element": "C" 
			},
			{
				"x": 0.0350038408,
				"y": -1.9422931923,
				"z": -0.4027298699,
				"element": "C" 
			},
			{
				"x": 0.1749391453,
				"y": -3.2298468138,
				"z": -0.831353107,
				"element": "O" 
			},
			{
				"x": -0.4401361147,
				"y": -1.11820299,
				"z": -1.1492993278,
				"element": "O" 
			},
			{
				"x": 3.2525447651,
				"y": 4.8537249052,
				"z": -0.8618825717,
				"element": "H" 
			},
			{
				"x": 1.7070820819,
				"y": 4.8318927769,
				"z": -1.7276454942,
				"element": "H" 
			},
			{
				"x": 1.7953700691,
				"y": 5.4837172754,
				"z": -0.0909810843,
				"element": "H" 
			},
			{
				"x": 3.7604234084,
				"y": 3.1286446114,
				"z": 0.8490571326,
				"element": "H" 
			},
			{
				"x": 3.2525589791,
				"y": 0.9208764366,
				"z": 1.804068384,
				"element": "H" 
			},
			{
				"x": -0.5781456089,
				"y": 0.953974113,
				"z": -0.1429705953,
				"element": "H" 
			},
			{
				"x": -0.0733846694,
				"y": 3.1716467104,
				"z": -1.0829323511,
				"element": "H" 
			},
			{
				"x": 1.227756258,
				"y": -2.4020884099,
				"z": 4.3887858606,
				"element": "H" 
			},
			{
				"x": 1.786382117,
				"y": 0.0264405007,
				"z": 3.5569331807,
				"element": "H" 
			},
			{
				"x": 0.7405648425,
				"y": -3.7319515423,
				"z": -0.2262990625,
				"element": "H" 
			}
		],
		 "valence_orbital": [ 
			{
				"type": "occ",
				"energy": -0.27962,
				"method": "rhf"
			},
			{
				"type": "occ",
				"energy": -0.27708,
				"method": "rhf"
			},
			{
				"type": "occ",
				"energy": -0.2581,
				"method": "rhf"
			},
			{
				"type": "occ",
				"energy": -0.248,
				"method": "rhf"
			},
			{
				"type": "occ",
				"energy": -0.22749,
				"method": "rhf"
			},
			{
				"type": "unocc",
				"energy": -0.06077,
				"method": "rhf"
			},
			{
				"type": "unocc",
				"energy": -0.00701,
				"method": "rhf"
			},
			{
				"type": "unocc",
				"energy": -0.00074,
				"method": "rhf"
			},
			{
				"type": "unocc",
				"energy": 0.0041,
				"method": "rhf"
			},
			{
				"type": "unocc",
				"energy": 0.027,
				"method": "rhf"
			}
		],
		"cosmo_sigma_profile": { 
			"-0.025": 0.0,
			"-0.024": 0.0,
			"-0.023": 0.0,
			"-0.022": 0.0,
			"-0.021": 0.0,
			"-0.02": 0.0,
			"-0.019": 0.0,
			"-0.018": 0.0288687616604,
			"-0.017": 0.843051407403,
			"-0.016": 0.677523567238,
			"-0.015": 0.96070809056,
			"-0.014": 0.562909609325,
			"-0.013": 0.728204447228,
			"-0.012": 1.16252753827,
			"-0.011": 1.03830475063,
			"-0.01": 1.95446788671,
			"-0.009": 2.76559734263,
			"-0.008": 2.5968062187,
			"-0.007": 4.60078751991,
			"-0.006": 6.51666591501,
			"-0.005": 13.7808008395,
			"-0.004": 20.3735873005,
			"-0.003": 18.9640821291,
			"-0.002": 17.7615804769,
			"-0.001": 18.9825412458,
			"0.0": 22.7488695183,
			"0.001": 21.1734334147,
			"0.002": 21.7012325102,
			"0.003": 15.104881657,
			"0.004": 10.6514822188,
			"0.005": 11.077071109,
			"0.006": 7.09020568567,
			"0.007": 2.93897401624,
			"0.008": 3.50750610595,
			"0.009": 3.81250663476,
			"0.01": 4.56648376513,
			"0.011": 4.46030965586,
			"0.012": 3.00821498199,
			"0.013": 1.04554566424,
			"0.014": 0.0,
			"0.015": 0.0,
			"0.016": 0.0,
			"0.017": 0.0,
			"0.018": 0.0,
			"0.019": 0.0,
			"0.02": 0.0,
			"0.021": 0.0,
			"0.022": 0.0,
			"0.023": 0.0,
			"0.024": 0.0,
			"0.025": 0.0
		}
	}
}
