{
	 "smiles": "CCCCOCCOP(=O)(OCCOCCCC)OCCOCCCC", 
	 "Tm": 203.15, 
	 "num_atms": 65, 
	 "gaussian": { 
		 "optdone": 1, 
		 "sigma_profile": "yes", 
		 "theory": "DFT", 
		 "functional": "B3LYP", 
		 "basiset": "6-31G**", 
		 "properties": { 
			 "R2extent": 18298.5568, 
			 "electric_dipole_moment_norm": 0.463860528607, 
			 "electric_quadrupole_moment_norm": 13.8789272093, 
			 "total_energy": -1577.40867446, 
			 "HOMO_LUMO_gap": 0.30659, 
			 "cosmo_polarized_energy": -15.76, 
			 "cosmo_cavitation_energy": 67.85, 
			 "cosmo_dispersion_energy": -44.02, 
			 "cosmo_repulsion_energy": 3.6, 
			 "cosmo_total_nonelectrostatic_energy": 27.43, 
			 "SMD_solvation_energy": 12.03 
		},
		"coords": [
			{
				"x": -5.9229254905,
				"y": 0.7109748758,
				"z": 4.4416649975,
				"element": "C" 
			},
			{
				"x": -6.5393400834,
				"y": -0.4221133408,
				"z": 3.6132456389,
				"element": "C" 
			},
			{
				"x": -5.7203940814,
				"y": -1.7234339176,
				"z": 3.6093753179,
				"element": "C" 
			},
			{
				"x": -4.3623127343,
				"y": -1.6163351578,
				"z": 2.92322262,
				"element": "C" 
			},
			{
				"x": -4.563975388,
				"y": -1.2558753487,
				"z": 1.5651009933,
				"element": "O" 
			},
			{
				"x": -3.3598897661,
				"y": -1.1042841344,
				"z": 0.840398031,
				"element": "C" 
			},
			{
				"x": -3.7449941584,
				"y": -0.6509828864,
				"z": -0.5621228276,
				"element": "C" 
			},
			{
				"x": -2.5817250742,
				"y": -0.6122045811,
				"z": -1.4167723561,
				"element": "O" 
			},
			{
				"x": -1.7270789864,
				"y": 0.7508222872,
				"z": -1.5346529867,
				"element": "P" 
			},
			{
				"x": -1.491652436,
				"y": 1.4389422238,
				"z": -0.2421647388,
				"element": "O" 
			},
			{
				"x": -0.4369237801,
				"y": 0.2634327368,
				"z": -2.3551865763,
				"element": "O" 
			},
			{
				"x": 0.8084382028,
				"y": -0.0066497499,
				"z": -1.6789135752,
				"element": "C" 
			},
			{
				"x": 0.9466308374,
				"y": -1.5057267972,
				"z": -1.44462184,
				"element": "C" 
			},
			{
				"x": 2.2224992451,
				"y": -1.717014247,
				"z": -0.878689012,
				"element": "O" 
			},
			{
				"x": 2.4969594333,
				"y": -3.0815663554,
				"z": -0.597905118,
				"element": "C" 
			},
			{
				"x": 3.9053755533,
				"y": -3.1935501914,
				"z": -0.0275015337,
				"element": "C" 
			},
			{
				"x": 5.0026164247,
				"y": -2.7579348254,
				"z": -1.0068750691,
				"element": "C" 
			},
			{
				"x": 6.4093244035,
				"y": -2.8531223723,
				"z": -0.4089838657,
				"element": "C" 
			},
			{
				"x": -2.5737839962,
				"y": 1.527533974,
				"z": -2.6593605584,
				"element": "O" 
			},
			{
				"x": -2.0471164581,
				"y": 2.5849374371,
				"z": -3.4868473178,
				"element": "C" 
			},
			{
				"x": -1.6228441808,
				"y": 3.8138641654,
				"z": -2.7045070142,
				"element": "C" 
			},
			{
				"x": -0.3545449742,
				"y": 3.5717638209,
				"z": -2.1339955457,
				"element": "O" 
			},
			{
				"x": -0.0667705603,
				"y": 4.3990830021,
				"z": -1.0121953267,
				"element": "C" 
			},
			{
				"x": 1.3326402588,
				"y": 4.0728586364,
				"z": -0.5109509377,
				"element": "C" 
			},
			{
				"x": 1.7498407256,
				"y": 4.9386485026,
				"z": 0.6843560183,
				"element": "C" 
			},
			{
				"x": 3.1534059455,
				"y": 4.6055907049,
				"z": 1.200369009,
				"element": "C" 
			},
			{
				"x": -4.9540167763,
				"y": 1.0281230913,
				"z": 4.0422443834,
				"element": "H" 
			},
			{
				"x": -6.5746060038,
				"y": 1.5908830109,
				"z": 4.4477853393,
				"element": "H" 
			},
			{
				"x": -5.7693255317,
				"y": 0.405183228,
				"z": 5.483551234,
				"element": "H" 
			},
			{
				"x": -7.5412042631,
				"y": -0.6461196431,
				"z": 4.0005838769,
				"element": "H" 
			},
			{
				"x": -6.6731097568,
				"y": -0.0906312515,
				"z": 2.5776492596,
				"element": "H" 
			},
			{
				"x": -5.5524894148,
				"y": -2.0640639979,
				"z": 4.6402775395,
				"element": "H" 
			},
			{
				"x": -6.2937075688,
				"y": -2.5115932246,
				"z": 3.106226262,
				"element": "H" 
			},
			{
				"x": -3.8320722172,
				"y": -2.5818241717,
				"z": 2.9839927007,
				"element": "H" 
			},
			{
				"x": -3.7242706851,
				"y": -0.8677012442,
				"z": 3.4206913698,
				"element": "H" 
			},
			{
				"x": -2.8077781801,
				"y": -2.0571684093,
				"z": 0.7791738678,
				"element": "H" 
			},
			{
				"x": -2.6997138088,
				"y": -0.3561084223,
				"z": 1.302086527,
				"element": "H" 
			},
			{
				"x": -4.2403956574,
				"y": 0.323757588,
				"z": -0.523778773,
				"element": "H" 
			},
			{
				"x": -4.4317470721,
				"y": -1.3693514346,
				"z": -1.0158274386,
				"element": "H" 
			},
			{
				"x": 0.8531489004,
				"y": 0.5417131034,
				"z": -0.7351328681,
				"element": "H" 
			},
			{
				"x": 1.6040320703,
				"y": 0.3500278811,
				"z": -2.3367757279,
				"element": "H" 
			},
			{
				"x": 0.1464246909,
				"y": -1.8582484539,
				"z": -0.773678159,
				"element": "H" 
			},
			{
				"x": 0.8352233814,
				"y": -2.0430712388,
				"z": -2.4002562549,
				"element": "H" 
			},
			{
				"x": 1.7577421296,
				"y": -3.4743923273,
				"z": 0.1201313371,
				"element": "H" 
			},
			{
				"x": 2.4062774912,
				"y": -3.6818425858,
				"z": -1.520051219,
				"element": "H" 
			},
			{
				"x": 3.9599698462,
				"y": -2.5868758086,
				"z": 0.8856911792,
				"element": "H" 
			},
			{
				"x": 4.0675989411,
				"y": -4.2362638757,
				"z": 0.2775980311,
				"element": "H" 
			},
			{
				"x": 4.8004161019,
				"y": -1.730081976,
				"z": -1.3271737409,
				"element": "H" 
			},
			{
				"x": 4.9442323686,
				"y": -3.3795389706,
				"z": -1.9112350048,
				"element": "H" 
			},
			{
				"x": 6.6449792767,
				"y": -3.8795029238,
				"z": -0.103978355,
				"element": "H" 
			},
			{
				"x": 6.5067758014,
				"y": -2.2158748108,
				"z": 0.4774362019,
				"element": "H" 
			},
			{
				"x": 7.1715166498,
				"y": -2.537863952,
				"z": -1.1290483727,
				"element": "H" 
			},
			{
				"x": -1.2010238264,
				"y": 2.2024261505,
				"z": -4.0665472066,
				"element": "H" 
			},
			{
				"x": -2.8648263499,
				"y": 2.8353496842,
				"z": -4.1673600376,
				"element": "H" 
			},
			{
				"x": -2.3767348784,
				"y": 4.0282449181,
				"z": -1.9325515876,
				"element": "H" 
			},
			{
				"x": -1.5860295171,
				"y": 4.6795546708,
				"z": -3.3889367442,
				"element": "H" 
			},
			{
				"x": -0.1312836855,
				"y": 5.4622279029,
				"z": -1.301787282,
				"element": "H" 
			},
			{
				"x": -0.8095525217,
				"y": 4.2152456725,
				"z": -0.2220257513,
				"element": "H" 
			},
			{
				"x": 2.0443162403,
				"y": 4.2035572211,
				"z": -1.3363501185,
				"element": "H" 
			},
			{
				"x": 1.35914645,
				"y": 3.0132370995,
				"z": -0.2306105031,
				"element": "H" 
			},
			{
				"x": 1.0225665527,
				"y": 4.8107747663,
				"z": 1.4971901154,
				"element": "H" 
			},
			{
				"x": 1.7076678182,
				"y": 5.9994035519,
				"z": 0.4011113323,
				"element": "H" 
			},
			{
				"x": 3.2172789159,
				"y": 3.5608750419,
				"z": 1.5246113712,
				"element": "H" 
			},
			{
				"x": 3.425831638,
				"y": 5.2363097488,
				"z": 2.052876402,
				"element": "H" 
			},
			{
				"x": 3.9082835689,
				"y": 4.7556659299,
				"z": 0.4201103882,
				"element": "H" 
			}
		],
		 "valence_orbital": [ 
			{
				"type": "occ",
				"energy": -0.28459,
				"method": "rhf"
			},
			{
				"type": "occ",
				"energy": -0.27332,
				"method": "rhf"
			},
			{
				"type": "occ",
				"energy": -0.25625,
				"method": "rhf"
			},
			{
				"type": "occ",
				"energy": -0.25264,
				"method": "rhf"
			},
			{
				"type": "occ",
				"energy": -0.24938,
				"method": "rhf"
			},
			{
				"type": "unocc",
				"energy": 0.05721,
				"method": "rhf"
			},
			{
				"type": "unocc",
				"energy": 0.07889,
				"method": "rhf"
			},
			{
				"type": "unocc",
				"energy": 0.08172,
				"method": "rhf"
			},
			{
				"type": "unocc",
				"energy": 0.0945,
				"method": "rhf"
			},
			{
				"type": "unocc",
				"energy": 0.09575,
				"method": "rhf"
			}
		],
		"cosmo_sigma_profile": { 
			"-0.025": 0.0,
			"-0.024": 0.0,
			"-0.023": 0.0,
			"-0.022": 0.0,
			"-0.021": 0.0,
			"-0.02": 0.0,
			"-0.019": 0.0,
			"-0.018": 0.0,
			"-0.017": 0.0,
			"-0.016": 0.0,
			"-0.015": 0.0,
			"-0.014": 0.0,
			"-0.013": 0.0,
			"-0.012": 0.0,
			"-0.011": 0.0,
			"-0.01": 0.0,
			"-0.009": 0.0,
			"-0.008": 0.0442503089071,
			"-0.007": 3.11514133245,
			"-0.006": 9.45970196459,
			"-0.005": 15.5661883273,
			"-0.004": 27.7958043436,
			"-0.003": 66.4586601961,
			"-0.002": 85.50701919,
			"-0.001": 72.7825617039,
			"0.0": 62.8988908398,
			"0.001": 56.9933597798,
			"0.002": 29.512313323,
			"0.003": 13.7158968596,
			"0.004": 11.4844309967,
			"0.005": 12.0188498327,
			"0.006": 11.1168012309,
			"0.007": 11.1016559228,
			"0.008": 11.51259692,
			"0.009": 6.34136456332,
			"0.01": 4.51608236311,
			"0.011": 3.48875450926,
			"0.012": 1.73340244309,
			"0.013": 2.2555196567,
			"0.014": 1.54097189869,
			"0.015": 0.0353624845631,
			"0.016": 0.0,
			"0.017": 0.0,
			"0.018": 0.0,
			"0.019": 0.0,
			"0.02": 0.0,
			"0.021": 0.0,
			"0.022": 0.0,
			"0.023": 0.0,
			"0.024": 0.0,
			"0.025": 0.0
		}
	}
}
