{
	 "smiles": "OC1=CC2=CC=CC=C2C=C1C(=O)NC1=CC=CC=C1", 
	 "Tm": 521.15, 
	 "num_atms": 33, 
	 "gaussian": { 
		 "optdone": 1, 
		 "sigma_profile": "yes", 
		 "theory": "DFT", 
		 "functional": "B3LYP", 
		 "basiset": "6-31G**", 
		 "properties": { 
			 "R2extent": 8085.4331, 
			 "electric_dipole_moment_norm": 3.88554567854, 
			 "electric_quadrupole_moment_norm": 15.4737433732, 
			 "total_energy": -860.883439174, 
			 "HOMO_LUMO_gap": 0.14146, 
			 "cosmo_polarized_energy": -13.88, 
			 "cosmo_cavitation_energy": 36.88, 
			 "cosmo_dispersion_energy": -27.57, 
			 "cosmo_repulsion_energy": 2.04, 
			 "cosmo_total_nonelectrostatic_energy": 11.35, 
			 "SMD_solvation_energy": 6.38 
		},
		"coords": [
			{
				"x": 0.7433126096,
				"y": 0.4790482293,
				"z": -3.5865208263,
				"element": "O" 
			},
			{
				"x": 0.7589870505,
				"y": 1.2309134427,
				"z": -2.47268759,
				"element": "C" 
			},
			{
				"x": 0.8061679033,
				"y": 2.6093323384,
				"z": -2.6034344607,
				"element": "C" 
			},
			{
				"x": 0.7916444417,
				"y": 3.4606194638,
				"z": -1.4784986084,
				"element": "C" 
			},
			{
				"x": 0.8291302654,
				"y": 4.8799333353,
				"z": -1.5934225616,
				"element": "C" 
			},
			{
				"x": 0.7898090015,
				"y": 5.6781470837,
				"z": -0.4744952405,
				"element": "C" 
			},
			{
				"x": 0.7084681199,
				"y": 5.1068518752,
				"z": 0.8231401016,
				"element": "C" 
			},
			{
				"x": 0.6707612274,
				"y": 3.7410736492,
				"z": 0.9708054086,
				"element": "C" 
			},
			{
				"x": 0.7161195754,
				"y": 2.8850070867,
				"z": -0.1652683105,
				"element": "C" 
			},
			{
				"x": 0.690347201,
				"y": 1.4787802586,
				"z": -0.050988003,
				"element": "C" 
			},
			{
				"x": 0.7370313789,
				"y": 0.6412454484,
				"z": -1.1574690645,
				"element": "C" 
			},
			{
				"x": 0.7468989388,
				"y": -0.8457616958,
				"z": -1.053792543,
				"element": "C" 
			},
			{
				"x": 0.4842984375,
				"y": -1.560745583,
				"z": -2.0373237349,
				"element": "O" 
			},
			{
				"x": 1.0806000042,
				"y": -1.3750836767,
				"z": 0.163044966,
				"element": "N" 
			},
			{
				"x": 1.1430205978,
				"y": -2.7278150201,
				"z": 0.5682485449,
				"element": "C" 
			},
			{
				"x": 1.6081518442,
				"y": -2.9747712352,
				"z": 1.8702742792,
				"element": "C" 
			},
			{
				"x": 1.6918717705,
				"y": -4.2764288147,
				"z": 2.355104907,
				"element": "C" 
			},
			{
				"x": 1.3114430558,
				"y": -5.3517699663,
				"z": 1.549845243,
				"element": "C" 
			},
			{
				"x": 0.8486101049,
				"y": -5.1035705084,
				"z": 0.2573400195,
				"element": "C" 
			},
			{
				"x": 0.7591781873,
				"y": -3.8049367889,
				"z": -0.2452317594,
				"element": "C" 
			},
			{
				"x": 0.6047174621,
				"y": -0.4557322136,
				"z": -3.2950453764,
				"element": "H" 
			},
			{
				"x": 0.8368613592,
				"y": 3.0257337864,
				"z": -3.6053444249,
				"element": "H" 
			},
			{
				"x": 0.8875836342,
				"y": 5.3217312752,
				"z": -2.5843838946,
				"element": "H" 
			},
			{
				"x": 0.8192934263,
				"y": 6.758936559,
				"z": -0.5801656585,
				"element": "H" 
			},
			{
				"x": 0.676341628,
				"y": 5.7534856466,
				"z": 1.6947390065,
				"element": "H" 
			},
			{
				"x": 0.6086127114,
				"y": 3.2945431968,
				"z": 1.9603795631,
				"element": "H" 
			},
			{
				"x": 0.5954362308,
				"y": 1.0639490355,
				"z": 0.9499344649,
				"element": "H" 
			},
			{
				"x": 1.4052643872,
				"y": -0.7155302945,
				"z": 0.8537782266,
				"element": "H" 
			},
			{
				"x": 1.9049453612,
				"y": -2.1413171044,
				"z": 2.5037083811,
				"element": "H" 
			},
			{
				"x": 2.0548701245,
				"y": -4.4476142428,
				"z": 3.364277186,
				"element": "H" 
			},
			{
				"x": 1.3758752606,
				"y": -6.3682473666,
				"z": 1.9254666071,
				"element": "H" 
			},
			{
				"x": 0.5501795979,
				"y": -5.9315103029,
				"z": -0.37939397,
				"element": "H" 
			},
			{
				"x": 0.4067671009,
				"y": -3.6182968969,
				"z": -1.248820878,
				"element": "H" 
			}
		],
		 "valence_orbital": [ 
			{
				"type": "occ",
				"energy": -0.27394,
				"method": "rhf"
			},
			{
				"type": "occ",
				"energy": -0.25725,
				"method": "rhf"
			},
			{
				"type": "occ",
				"energy": -0.24599,
				"method": "rhf"
			},
			{
				"type": "occ",
				"energy": -0.22623,
				"method": "rhf"
			},
			{
				"type": "occ",
				"energy": -0.20724,
				"method": "rhf"
			},
			{
				"type": "unocc",
				"energy": -0.06578,
				"method": "rhf"
			},
			{
				"type": "unocc",
				"energy": -0.02227,
				"method": "rhf"
			},
			{
				"type": "unocc",
				"energy": -0.00747,
				"method": "rhf"
			},
			{
				"type": "unocc",
				"energy": 0.00014,
				"method": "rhf"
			},
			{
				"type": "unocc",
				"energy": 0.02046,
				"method": "rhf"
			}
		],
		"cosmo_sigma_profile": { 
			"-0.025": 0.0,
			"-0.024": 0.0,
			"-0.023": 0.0,
			"-0.022": 0.0,
			"-0.021": 0.0,
			"-0.02": 0.0,
			"-0.019": 0.0,
			"-0.018": 0.0,
			"-0.017": 0.0,
			"-0.016": 0.585619149024,
			"-0.015": 1.41249780383,
			"-0.014": 0.962517192956,
			"-0.013": 1.28262290601,
			"-0.012": 1.7540814241,
			"-0.011": 1.58022343767,
			"-0.01": 0.952937557232,
			"-0.009": 2.17606273529,
			"-0.008": 2.76223714364,
			"-0.007": 3.80653848637,
			"-0.006": 15.6420815805,
			"-0.005": 20.0079907949,
			"-0.004": 22.1906573396,
			"-0.003": 19.4731469106,
			"-0.002": 18.6199685717,
			"-0.001": 18.4441414036,
			"0.0": 18.3574157933,
			"0.001": 19.0506637,
			"0.002": 23.7576142708,
			"0.003": 30.4335266695,
			"0.004": 28.1882648293,
			"0.005": 22.7974173755,
			"0.006": 6.77688858575,
			"0.007": 3.06562545938,
			"0.008": 3.80044123814,
			"0.009": 3.21455532819,
			"0.01": 2.32035775108,
			"0.011": 2.00233524236,
			"0.012": 1.48779339985,
			"0.013": 0.000979391880923,
			"0.014": 0.0,
			"0.015": 0.0,
			"0.016": 0.0,
			"0.017": 0.0,
			"0.018": 0.0,
			"0.019": 0.0,
			"0.02": 0.0,
			"0.021": 0.0,
			"0.022": 0.0,
			"0.023": 0.0,
			"0.024": 0.0,
			"0.025": 0.0
		}
	}
}
