{
	 "smiles": "CN1C2=C(C=C(Br)C=C2)C(Cl)=C1C(O)=O", 
	 "Tm": 524.15, 
	 "num_atms": 22, 
	 "gaussian": { 
		 "optdone": 1, 
		 "sigma_profile": "yes", 
		 "theory": "DFT", 
		 "functional": "B3LYP", 
		 "basiset": "6-31G**", 
		 "properties": { 
			 "R2extent": 6538.0193, 
			 "electric_dipole_moment_norm": 5.03200157492, 
			 "electric_quadrupole_moment_norm": 12.3133380149, 
			 "total_energy": -3622.09058359, 
			 "HOMO_LUMO_gap": 0.15498, 
			 "cosmo_polarized_energy": -12.83, 
			 "cosmo_cavitation_energy": 30.46, 
			 "cosmo_dispersion_energy": -22.99, 
			 "cosmo_repulsion_energy": 1.78, 
			 "cosmo_total_nonelectrostatic_energy": 9.24, 
			 "SMD_solvation_energy": 4.75 
		},
		"coords": [
			{
				"x": -2.0356792316,
				"y": 1.9676524895,
				"z": 0.2583127115,
				"element": "C" 
			},
			{
				"x": -1.1966774867,
				"y": 1.0931598823,
				"z": -0.5544127671,
				"element": "N" 
			},
			{
				"x": 0.1101979935,
				"y": 0.7799806649,
				"z": -0.2535971007,
				"element": "C" 
			},
			{
				"x": 0.6158577881,
				"y": -0.0898543217,
				"z": -1.2575184029,
				"element": "C" 
			},
			{
				"x": 1.9376970916,
				"y": -0.5681109248,
				"z": -1.194800605,
				"element": "C" 
			},
			{
				"x": 2.7154529752,
				"y": -0.1620933892,
				"z": -0.1290589692,
				"element": "C" 
			},
			{
				"x": 4.5209371076,
				"y": -0.7784221484,
				"z": 0.0123359845,
				"element": "Br" 
			},
			{
				"x": 2.2216416947,
				"y": 0.7021997926,
				"z": 0.8736285797,
				"element": "C" 
			},
			{
				"x": 0.9222821258,
				"y": 1.1793553914,
				"z": 0.8224334316,
				"element": "C" 
			},
			{
				"x": -0.4462050893,
				"y": -0.2888620764,
				"z": -2.1805672162,
				"element": "C" 
			},
			{
				"x": -0.3195774668,
				"y": -1.2786569027,
				"z": -3.5867518739,
				"element": "Cl" 
			},
			{
				"x": -1.54737137,
				"y": 0.4369481349,
				"z": -1.7426230455,
				"element": "C" 
			},
			{
				"x": -2.8546297602,
				"y": 0.5054689207,
				"z": -2.407981932,
				"element": "C" 
			},
			{
				"x": -3.7599922173,
				"y": 1.2911843511,
				"z": -1.7599105139,
				"element": "O" 
			},
			{
				"x": -3.1347523836,
				"y": -0.0712276193,
				"z": -3.4383127938,
				"element": "O" 
			},
			{
				"x": -1.4476013034,
				"y": 2.3106751129,
				"z": 1.1082899415,
				"element": "H" 
			},
			{
				"x": -2.9150581665,
				"y": 1.435881565,
				"z": 0.6257433202,
				"element": "H" 
			},
			{
				"x": -2.3692930788,
				"y": 2.8337320415,
				"z": -0.3157271515,
				"element": "H" 
			},
			{
				"x": 2.3237156629,
				"y": -1.2312091823,
				"z": -1.9597294652,
				"element": "H" 
			},
			{
				"x": 2.8724066881,
				"y": 0.9917235537,
				"z": 1.6904332862,
				"element": "H" 
			},
			{
				"x": 0.5621855223,
				"y": 1.841615965,
				"z": 1.6019466286,
				"element": "H" 
			},
			{
				"x": -4.5655370957,
				"y": 1.2453586995,
				"z": -2.3017320469,
				"element": "H" 
			}
		],
		 "valence_orbital": [ 
			{
				"type": "occ",
				"energy": -0.28721,
				"method": "rhf"
			},
			{
				"type": "occ",
				"energy": -0.28415,
				"method": "rhf"
			},
			{
				"type": "occ",
				"energy": -0.28054,
				"method": "rhf"
			},
			{
				"type": "occ",
				"energy": -0.23748,
				"method": "rhf"
			},
			{
				"type": "occ",
				"energy": -0.22001,
				"method": "rhf"
			},
			{
				"type": "unocc",
				"energy": -0.06503,
				"method": "rhf"
			},
			{
				"type": "unocc",
				"energy": -0.00362,
				"method": "rhf"
			},
			{
				"type": "unocc",
				"energy": 0.0065,
				"method": "rhf"
			},
			{
				"type": "unocc",
				"energy": 0.01014,
				"method": "rhf"
			},
			{
				"type": "unocc",
				"energy": 0.03838,
				"method": "rhf"
			}
		],
		"cosmo_sigma_profile": { 
			"-0.025": 0.0,
			"-0.024": 0.0,
			"-0.023": 0.0,
			"-0.022": 0.0,
			"-0.021": 0.0,
			"-0.02": 0.0,
			"-0.019": 0.18073810153,
			"-0.018": 0.754452642077,
			"-0.017": 1.11086698757,
			"-0.016": 0.563456508266,
			"-0.015": 0.637033358798,
			"-0.014": 0.868740281148,
			"-0.013": 0.532407207876,
			"-0.012": 0.655880569732,
			"-0.011": 0.963283926275,
			"-0.01": 1.12583995977,
			"-0.009": 2.54928788504,
			"-0.008": 3.09326423338,
			"-0.007": 5.87750521285,
			"-0.006": 9.54479012318,
			"-0.005": 10.6841047479,
			"-0.004": 14.8618012603,
			"-0.003": 20.1176731019,
			"-0.002": 15.2158492583,
			"-0.001": 15.1378430915,
			"0.0": 17.9026727111,
			"0.001": 24.3464496528,
			"0.002": 29.6238284458,
			"0.003": 24.4699995802,
			"0.004": 20.3313001756,
			"0.005": 10.413470073,
			"0.006": 2.31043457871,
			"0.007": 1.77345225606,
			"0.008": 1.88376031611,
			"0.009": 1.56037694344,
			"0.01": 2.80293449691,
			"0.011": 4.59232240675,
			"0.012": 3.59471571457,
			"0.013": 0.00475964257875,
			"0.014": 0.0,
			"0.015": 0.0,
			"0.016": 0.0,
			"0.017": 0.0,
			"0.018": 0.0,
			"0.019": 0.0,
			"0.02": 0.0,
			"0.021": 0.0,
			"0.022": 0.0,
			"0.023": 0.0,
			"0.024": 0.0,
			"0.025": 0.0
		}
	}
}
