{
	 "smiles": "CNC1=NC2=C(O1)C=CC=C2", 
	 "Tm": 373.15, 
	 "num_atms": 19, 
	 "gaussian": { 
		 "optdone": 1, 
		 "sigma_profile": "yes", 
		 "theory": "DFT", 
		 "functional": "B3LYP", 
		 "basiset": "6-31G**", 
		 "properties": { 
			 "R2extent": 2258.4382, 
			 "electric_dipole_moment_norm": 2.65859642293, 
			 "electric_quadrupole_moment_norm": 13.2978508677, 
			 "total_energy": -494.400980218, 
			 "HOMO_LUMO_gap": 0.19992, 
			 "cosmo_polarized_energy": -9.54, 
			 "cosmo_cavitation_energy": 23.05, 
			 "cosmo_dispersion_energy": -17.61, 
			 "cosmo_repulsion_energy": 1.42, 
			 "cosmo_total_nonelectrostatic_energy": 6.86, 
			 "SMD_solvation_energy": 1.73 
		},
		"coords": [
			{
				"x": -0.4026450717,
				"y": 3.5261808796,
				"z": -0.8814320351,
				"element": "C" 
			},
			{
				"x": 0.5508267429,
				"y": 2.77860091,
				"z": -0.0754845545,
				"element": "N" 
			},
			{
				"x": 0.2125961593,
				"y": 1.6513650073,
				"z": 0.6017983969,
				"element": "C" 
			},
			{
				"x": 0.8747224567,
				"y": 1.0897524904,
				"z": 1.5724154913,
				"element": "N" 
			},
			{
				"x": 0.128857698,
				"y": -0.0562755458,
				"z": 1.854538259,
				"element": "C" 
			},
			{
				"x": -0.986894096,
				"y": -0.1054248663,
				"z": 1.0048890537,
				"element": "C" 
			},
			{
				"x": -0.930680046,
				"y": 1.0130725841,
				"z": 0.18781902,
				"element": "O" 
			},
			{
				"x": -1.9399895088,
				"y": -1.1056583336,
				"z": 1.0226827472,
				"element": "C" 
			},
			{
				"x": -1.7378534915,
				"y": -2.1212948702,
				"z": 1.9674334078,
				"element": "C" 
			},
			{
				"x": -0.6318000431,
				"y": -2.1016745529,
				"z": 2.8306368903,
				"element": "C" 
			},
			{
				"x": 0.3165316108,
				"y": -1.0745884046,
				"z": 2.7906916267,
				"element": "C" 
			},
			{
				"x": -0.909810414,
				"y": 2.8487643419,
				"z": -1.5708239665,
				"element": "H" 
			},
			{
				"x": -1.1642470676,
				"y": 4.0429044666,
				"z": -0.281077692,
				"element": "H" 
			},
			{
				"x": 0.1439158562,
				"y": 4.2668196388,
				"z": -1.4687512159,
				"element": "H" 
			},
			{
				"x": 1.3033209657,
				"y": 3.2879966099,
				"z": 0.3643495938,
				"element": "H" 
			},
			{
				"x": -2.7887229984,
				"y": -1.1047892248,
				"z": 0.3475203433,
				"element": "H" 
			},
			{
				"x": -2.4516616802,
				"y": -2.9368470602,
				"z": 2.0295337753,
				"element": "H" 
			},
			{
				"x": -0.5097569973,
				"y": -2.9070791224,
				"z": 3.5490785605,
				"element": "H" 
			},
			{
				"x": 1.1706899249,
				"y": -1.0619249478,
				"z": 3.4593822982,
				"element": "H" 
			}
		],
		 "valence_orbital": [ 
			{
				"type": "occ",
				"energy": -0.33333,
				"method": "rhf"
			},
			{
				"type": "occ",
				"energy": -0.28115,
				"method": "rhf"
			},
			{
				"type": "occ",
				"energy": -0.2785,
				"method": "rhf"
			},
			{
				"type": "occ",
				"energy": -0.23528,
				"method": "rhf"
			},
			{
				"type": "occ",
				"energy": -0.20133,
				"method": "rhf"
			},
			{
				"type": "unocc",
				"energy": -0.00141,
				"method": "rhf"
			},
			{
				"type": "unocc",
				"energy": 0.01894,
				"method": "rhf"
			},
			{
				"type": "unocc",
				"energy": 0.06217,
				"method": "rhf"
			},
			{
				"type": "unocc",
				"energy": 0.07512,
				"method": "rhf"
			},
			{
				"type": "unocc",
				"energy": 0.10391,
				"method": "rhf"
			}
		],
		"cosmo_sigma_profile": { 
			"-0.025": 0.0,
			"-0.024": 0.0,
			"-0.023": 0.0,
			"-0.022": 0.0,
			"-0.021": 0.0,
			"-0.02": 0.0,
			"-0.019": 0.0,
			"-0.018": 0.0,
			"-0.017": 0.0,
			"-0.016": 0.0,
			"-0.015": 0.438624755482,
			"-0.014": 1.14953784824,
			"-0.013": 1.52211111022,
			"-0.012": 0.418275428417,
			"-0.011": 0.882092501304,
			"-0.01": 1.19329641386,
			"-0.009": 1.04383410432,
			"-0.008": 1.06942351596,
			"-0.007": 3.00179952167,
			"-0.006": 7.6357333552,
			"-0.005": 14.207550407,
			"-0.004": 15.8864429943,
			"-0.003": 17.5280841514,
			"-0.002": 16.0068986336,
			"-0.001": 10.1590319992,
			"0.0": 9.73617464639,
			"0.001": 11.5281862622,
			"0.002": 11.1401337376,
			"0.003": 12.0749647017,
			"0.004": 13.1165114377,
			"0.005": 12.6088042263,
			"0.006": 9.5530667332,
			"0.007": 2.83549006761,
			"0.008": 1.29924379877,
			"0.009": 0.514794484463,
			"0.01": 1.23081139548,
			"0.011": 0.717232679874,
			"0.012": 1.63411808355,
			"0.013": 0.879659624982,
			"0.014": 0.845383928201,
			"0.015": 1.04291946882,
			"0.016": 0.976866752364,
			"0.017": 0.551343566564,
			"0.018": 0.0,
			"0.019": 0.0,
			"0.02": 0.0,
			"0.021": 0.0,
			"0.022": 0.0,
			"0.023": 0.0,
			"0.024": 0.0,
			"0.025": 0.0
		}
	}
}
