{
	 "smiles": "CCCCOC", 
	 "Tm": 158.15, 
	 "num_atms": 18, 
	 "gaussian": { 
		 "optdone": 1, 
		 "sigma_profile": "yes", 
		 "theory": "DFT", 
		 "functional": "B3LYP", 
		 "basiset": "6-31G**", 
		 "properties": { 
			 "R2extent": 1587.6788, 
			 "electric_dipole_moment_norm": 1.320419422, 
			 "electric_quadrupole_moment_norm": 4.55196279972, 
			 "total_energy": -272.979351744, 
			 "HOMO_LUMO_gap": 0.33171, 
			 "cosmo_polarized_energy": -3.6, 
			 "cosmo_cavitation_energy": 19.77, 
			 "cosmo_dispersion_energy": -14.64, 
			 "cosmo_repulsion_energy": 1.28, 
			 "cosmo_total_nonelectrostatic_energy": 6.41, 
			 "SMD_solvation_energy": 3.93 
		},
		"coords": [
			{
				"x": 1.6814706902,
				"y": -2.5145165358,
				"z": 0.2354192572,
				"element": "C" 
			},
			{
				"x": 1.4677120108,
				"y": -1.7778769796,
				"z": 1.5642688818,
				"element": "C" 
			},
			{
				"x": 2.0140398775,
				"y": -0.3401914431,
				"z": 1.5941570479,
				"element": "C" 
			},
			{
				"x": 1.2743097532,
				"y": 0.6194718844,
				"z": 0.6550424808,
				"element": "C" 
			},
			{
				"x": 1.7993146619,
				"y": 1.9391997254,
				"z": 0.6607309346,
				"element": "O" 
			},
			{
				"x": 1.425713084,
				"y": 2.7101735446,
				"z": 1.7829212498,
				"element": "C" 
			},
			{
				"x": 2.743758363,
				"y": -2.5402647395,
				"z": -0.0334930167,
				"element": "H" 
			},
			{
				"x": 1.33051829,
				"y": -3.5496440784,
				"z": 0.3005003131,
				"element": "H" 
			},
			{
				"x": 1.1432340892,
				"y": -2.0401380208,
				"z": -0.5915768263,
				"element": "H" 
			},
			{
				"x": 0.3960202388,
				"y": -1.7644719564,
				"z": 1.8072534288,
				"element": "H" 
			},
			{
				"x": 1.9493169823,
				"y": -2.3488661032,
				"z": 2.3675639013,
				"element": "H" 
			},
			{
				"x": 1.9506569584,
				"y": 0.039153172,
				"z": 2.6213913424,
				"element": "H" 
			},
			{
				"x": 3.078142871,
				"y": -0.3370000087,
				"z": 1.3248644308,
				"element": "H" 
			},
			{
				"x": 1.3632675887,
				"y": 0.2792275472,
				"z": -0.381647257,
				"element": "H" 
			},
			{
				"x": 0.1987500358,
				"y": 0.6351307448,
				"z": 0.9051198215,
				"element": "H" 
			},
			{
				"x": 0.3303438697,
				"y": 2.7644594037,
				"z": 1.8925203643,
				"element": "H" 
			},
			{
				"x": 1.8111003533,
				"y": 3.7200741885,
				"z": 1.619742472,
				"element": "H" 
			},
			{
				"x": 1.8454302821,
				"y": 2.328779655,
				"z": 2.7255211737,
				"element": "H" 
			}
		],
		 "valence_orbital": [ 
			{
				"type": "occ",
				"energy": -0.34505,
				"method": "rhf"
			},
			{
				"type": "occ",
				"energy": -0.33052,
				"method": "rhf"
			},
			{
				"type": "occ",
				"energy": -0.32834,
				"method": "rhf"
			},
			{
				"type": "occ",
				"energy": -0.29973,
				"method": "rhf"
			},
			{
				"type": "occ",
				"energy": -0.24511,
				"method": "rhf"
			},
			{
				"type": "unocc",
				"energy": 0.0866,
				"method": "rhf"
			},
			{
				"type": "unocc",
				"energy": 0.10096,
				"method": "rhf"
			},
			{
				"type": "unocc",
				"energy": 0.11915,
				"method": "rhf"
			},
			{
				"type": "unocc",
				"energy": 0.13683,
				"method": "rhf"
			},
			{
				"type": "unocc",
				"energy": 0.14422,
				"method": "rhf"
			}
		],
		"cosmo_sigma_profile": { 
			"-0.025": 0.0,
			"-0.024": 0.0,
			"-0.023": 0.0,
			"-0.022": 0.0,
			"-0.021": 0.0,
			"-0.02": 0.0,
			"-0.019": 0.0,
			"-0.018": 0.0,
			"-0.017": 0.0,
			"-0.016": 0.0,
			"-0.015": 0.0,
			"-0.014": 0.0,
			"-0.013": 0.0,
			"-0.012": 0.0,
			"-0.011": 0.0,
			"-0.01": 0.0,
			"-0.009": 0.0,
			"-0.008": 0.0,
			"-0.007": 0.0,
			"-0.006": 0.0,
			"-0.005": 0.917446245096,
			"-0.004": 5.83575120447,
			"-0.003": 20.0823362562,
			"-0.002": 32.2538853276,
			"-0.001": 27.7006452395,
			"0.0": 22.3054256703,
			"0.001": 18.659584444,
			"0.002": 6.72840084837,
			"0.003": 1.82546629296,
			"0.004": 1.74820238446,
			"0.005": 1.72095477678,
			"0.006": 1.59196821345,
			"0.007": 1.53145948329,
			"0.008": 1.52305819177,
			"0.009": 0.904454317021,
			"0.01": 1.12887950816,
			"0.011": 1.43251162733,
			"0.012": 1.51570036707,
			"0.013": 1.53561017264,
			"0.014": 1.46014362689,
			"0.015": 0.0267147427717,
			"0.016": 0.0,
			"0.017": 0.0,
			"0.018": 0.0,
			"0.019": 0.0,
			"0.02": 0.0,
			"0.021": 0.0,
			"0.022": 0.0,
			"0.023": 0.0,
			"0.024": 0.0,
			"0.025": 0.0
		}
	}
}
