{
	 "smiles": "OC1=C(F)C(F)=C(O)C(F)=C1F", 
	 "Tm": 446.15, 
	 "num_atms": 14, 
	 "gaussian": { 
		 "optdone": 1, 
		 "sigma_profile": "yes", 
		 "theory": "DFT", 
		 "functional": "B3LYP", 
		 "basiset": "6-31G**", 
		 "properties": { 
			 "R2extent": 2295.9927, 
			 "electric_dipole_moment_norm": 0.0, 
			 "electric_quadrupole_moment_norm": 12.1750295741, 
			 "total_energy": -779.581312712, 
			 "HOMO_LUMO_gap": 0.21487, 
			 "cosmo_polarized_energy": -9.01, 
			 "cosmo_cavitation_energy": 21.15, 
			 "cosmo_dispersion_energy": -15.42, 
			 "cosmo_repulsion_energy": 1.15, 
			 "cosmo_total_nonelectrostatic_energy": 6.88, 
			 "SMD_solvation_energy": 6.35 
		},
		"coords": [
			{
				"x": 1.8600474317,
				"y": -1.2775086225,
				"z": -1.2376903917,
				"element": "O" 
			},
			{
				"x": 0.6327903242,
				"y": -0.714358673,
				"z": -1.0930220174,
				"element": "C" 
			},
			{
				"x": -0.2285176773,
				"y": -0.6236094258,
				"z": -2.1895848599,
				"element": "C" 
			},
			{
				"x": 0.1527675421,
				"y": -1.0911025756,
				"z": -3.3852452169,
				"element": "F" 
			},
			{
				"x": -1.4840435373,
				"y": -0.046436313,
				"z": -2.0380046151,
				"element": "C" 
			},
			{
				"x": -2.3227332323,
				"y": 0.0444885119,
				"z": -3.095671427,
				"element": "F" 
			},
			{
				"x": -1.9347063852,
				"y": 0.4575573875,
				"z": -0.8155923414,
				"element": "C" 
			},
			{
				"x": -3.161961356,
				"y": 1.0207048208,
				"z": -0.670922691,
				"element": "O" 
			},
			{
				"x": -1.0733971564,
				"y": 0.3668084669,
				"z": 0.2809701749,
				"element": "C" 
			},
			{
				"x": -1.4546814135,
				"y": 0.8343022061,
				"z": 1.4766308806,
				"element": "F" 
			},
			{
				"x": 0.1821279295,
				"y": -0.2103657311,
				"z": 0.1293899969,
				"element": "C" 
			},
			{
				"x": 1.0208182095,
				"y": -0.3012894315,
				"z": 1.1870579862,
				"element": "F" 
			},
			{
				"x": 2.3013237921,
				"y": -1.2478126038,
				"z": -0.3763940985,
				"element": "H" 
			},
			{
				"x": -3.6032344709,
				"y": 0.9910219831,
				"z": -1.5322213798,
				"element": "H" 
			}
		],
		 "valence_orbital": [ 
			{
				"type": "occ",
				"energy": -0.39308,
				"method": "rhf"
			},
			{
				"type": "occ",
				"energy": -0.3781,
				"method": "rhf"
			},
			{
				"type": "occ",
				"energy": -0.31806,
				"method": "rhf"
			},
			{
				"type": "occ",
				"energy": -0.25412,
				"method": "rhf"
			},
			{
				"type": "occ",
				"energy": -0.22684,
				"method": "rhf"
			},
			{
				"type": "unocc",
				"energy": -0.01197,
				"method": "rhf"
			},
			{
				"type": "unocc",
				"energy": -0.00192,
				"method": "rhf"
			},
			{
				"type": "unocc",
				"energy": 0.00462,
				"method": "rhf"
			},
			{
				"type": "unocc",
				"energy": 0.06707,
				"method": "rhf"
			},
			{
				"type": "unocc",
				"energy": 0.09721,
				"method": "rhf"
			}
		],
		"cosmo_sigma_profile": { 
			"-0.025": 0.0,
			"-0.024": 0.0,
			"-0.023": 0.0,
			"-0.022": 0.0,
			"-0.021": 0.0,
			"-0.02": 0.0,
			"-0.019": 0.0,
			"-0.018": 0.456859906241,
			"-0.017": 1.41314677019,
			"-0.016": 1.0453576765,
			"-0.015": 1.71046928614,
			"-0.014": 1.77371507321,
			"-0.013": 0.735594252665,
			"-0.012": 2.15539661951,
			"-0.011": 2.41304196157,
			"-0.01": 2.13644341735,
			"-0.009": 1.36841949648,
			"-0.008": 2.08559312308,
			"-0.007": 2.39109184504,
			"-0.006": 2.65691497633,
			"-0.005": 1.26930064316,
			"-0.004": 2.2823789598,
			"-0.003": 6.07976871743,
			"-0.002": 21.1362275307,
			"-0.001": 17.1868971596,
			"0.0": 9.76985355585,
			"0.001": 10.1163254867,
			"0.002": 18.1573217235,
			"0.003": 32.5855108245,
			"0.004": 8.17837198123,
			"0.005": 4.86935411155,
			"0.006": 4.53588359748,
			"0.007": 2.43875518208,
			"0.008": 3.61385026291,
			"0.009": 4.32006761706,
			"0.01": 2.0760888412,
			"0.011": 0.0,
			"0.012": 0.0,
			"0.013": 0.0,
			"0.014": 0.0,
			"0.015": 0.0,
			"0.016": 0.0,
			"0.017": 0.0,
			"0.018": 0.0,
			"0.019": 0.0,
			"0.02": 0.0,
			"0.021": 0.0,
			"0.022": 0.0,
			"0.023": 0.0,
			"0.024": 0.0,
			"0.025": 0.0
		}
	}
}
