{
	 "smiles": "CCCCC1=CC=C(C=C1)N1C(=O)C=CC1=O", 
	 "Tm": 315.15, 
	 "num_atms": 32, 
	 "gaussian": { 
		 "optdone": 1, 
		 "sigma_profile": "yes", 
		 "theory": "DFT", 
		 "functional": "B3LYP", 
		 "basiset": "6-31G**", 
		 "properties": { 
			 "R2extent": 7325.3747, 
			 "electric_dipole_moment_norm": 0.935730677065, 
			 "electric_quadrupole_moment_norm": 22.6516573544, 
			 "total_energy": -747.744930628, 
			 "HOMO_LUMO_gap": 0.13035, 
			 "cosmo_polarized_energy": -10.65, 
			 "cosmo_cavitation_energy": 35.91, 
			 "cosmo_dispersion_energy": -25.2, 
			 "cosmo_repulsion_energy": 1.97, 
			 "cosmo_total_nonelectrostatic_energy": 12.69, 
			 "SMD_solvation_energy": 7.32 
		},
		"coords": [
			{
				"x": 2.1694415072,
				"y": -2.5600791413,
				"z": -1.8026885483,
				"element": "C" 
			},
			{
				"x": 0.7022906521,
				"y": -2.1227963958,
				"z": -1.8617621577,
				"element": "C" 
			},
			{
				"x": -0.2076115678,
				"y": -2.9630787008,
				"z": -0.957782414,
				"element": "C" 
			},
			{
				"x": -1.6968658259,
				"y": -2.5539582577,
				"z": -0.9967648499,
				"element": "C" 
			},
			{
				"x": -1.9758079978,
				"y": -1.1759024151,
				"z": -0.4336078067,
				"element": "C" 
			},
			{
				"x": -2.2343335804,
				"y": -0.0807152887,
				"z": -1.2668520488,
				"element": "C" 
			},
			{
				"x": -2.4652691554,
				"y": 1.1929182947,
				"z": -0.7485768311,
				"element": "C" 
			},
			{
				"x": -2.4583788533,
				"y": 1.3877134453,
				"z": 0.6357013115,
				"element": "C" 
			},
			{
				"x": -2.2141081741,
				"y": 0.3055007121,
				"z": 1.4894918399,
				"element": "C" 
			},
			{
				"x": -1.9692887931,
				"y": -0.9546932427,
				"z": 0.951157874,
				"element": "C" 
			},
			{
				"x": -2.7053569723,
				"y": 2.6852799439,
				"z": 1.1788064598,
				"element": "N" 
			},
			{
				"x": -3.6560888669,
				"y": 3.605745134,
				"z": 0.687961169,
				"element": "C" 
			},
			{
				"x": -4.3973591205,
				"y": 3.4426074387,
				"z": -0.257415431,
				"element": "O" 
			},
			{
				"x": -3.5593589692,
				"y": 4.8180244294,
				"z": 1.5660071235,
				"element": "C" 
			},
			{
				"x": -2.6193788041,
				"y": 4.6090587912,
				"z": 2.4901974508,
				"element": "C" 
			},
			{
				"x": -2.0340035265,
				"y": 3.2429697851,
				"z": 2.2880258053,
				"element": "C" 
			},
			{
				"x": -1.1610490643,
				"y": 2.7149329498,
				"z": 2.9430362946,
				"element": "O" 
			},
			{
				"x": 2.2863248426,
				"y": -3.6056582062,
				"z": -2.1105616189,
				"element": "H" 
			},
			{
				"x": 2.568562193,
				"y": -2.4693826506,
				"z": -0.7859783696,
				"element": "H" 
			},
			{
				"x": 2.7956612341,
				"y": -1.9482921633,
				"z": -2.4602643239,
				"element": "H" 
			},
			{
				"x": 0.3411682227,
				"y": -2.1899154759,
				"z": -2.8976211654,
				"element": "H" 
			},
			{
				"x": 0.622664908,
				"y": -1.0660459514,
				"z": -1.5790641955,
				"element": "H" 
			},
			{
				"x": 0.1539703038,
				"y": -2.9043588411,
				"z": 0.0778990761,
				"element": "H" 
			},
			{
				"x": -0.1307675976,
				"y": -4.0192551844,
				"z": -1.2496645713,
				"element": "H" 
			},
			{
				"x": -2.2761331035,
				"y": -3.295509501,
				"z": -0.4324065077,
				"element": "H" 
			},
			{
				"x": -2.0555499089,
				"y": -2.6041009805,
				"z": -2.0322918173,
				"element": "H" 
			},
			{
				"x": -2.2539638363,
				"y": -0.221979658,
				"z": -2.3443140898,
				"element": "H" 
			},
			{
				"x": -2.6675528301,
				"y": 2.0241360704,
				"z": -1.4122417151,
				"element": "H" 
			},
			{
				"x": -2.2058034574,
				"y": 0.4531123378,
				"z": 2.5621106751,
				"element": "H" 
			},
			{
				"x": -1.7808893558,
				"y": -1.7867675137,
				"z": 1.6252589582,
				"element": "H" 
			},
			{
				"x": -4.1902293772,
				"y": 5.6822639663,
				"z": 1.4054860703,
				"element": "H" 
			},
			{
				"x": -2.2752351251,
				"y": 5.2581262696,
				"z": 3.2845183538,
				"element": "H" 
			}
		],
		 "valence_orbital": [ 
			{
				"type": "occ",
				"energy": -0.2997,
				"method": "rhf"
			},
			{
				"type": "occ",
				"energy": -0.29826,
				"method": "rhf"
			},
			{
				"type": "occ",
				"energy": -0.27258,
				"method": "rhf"
			},
			{
				"type": "occ",
				"energy": -0.25078,
				"method": "rhf"
			},
			{
				"type": "occ",
				"energy": -0.22951,
				"method": "rhf"
			},
			{
				"type": "unocc",
				"energy": -0.09916,
				"method": "rhf"
			},
			{
				"type": "unocc",
				"energy": -0.01051,
				"method": "rhf"
			},
			{
				"type": "unocc",
				"energy": -0.00243,
				"method": "rhf"
			},
			{
				"type": "unocc",
				"energy": 0.05997,
				"method": "rhf"
			},
			{
				"type": "unocc",
				"energy": 0.06283,
				"method": "rhf"
			}
		],
		"cosmo_sigma_profile": { 
			"-0.025": 0.0,
			"-0.024": 0.0,
			"-0.023": 0.0,
			"-0.022": 0.0,
			"-0.021": 0.0,
			"-0.02": 0.0,
			"-0.019": 0.0,
			"-0.018": 0.0,
			"-0.017": 0.0,
			"-0.016": 0.0,
			"-0.015": 0.0,
			"-0.014": 0.0,
			"-0.013": 0.0,
			"-0.012": 0.0,
			"-0.011": 0.0,
			"-0.01": 2.15243474454,
			"-0.009": 3.63534497421,
			"-0.008": 3.4584059269,
			"-0.007": 3.29170819697,
			"-0.006": 7.87321878725,
			"-0.005": 13.8957628824,
			"-0.004": 21.3066796326,
			"-0.003": 25.2836702598,
			"-0.002": 30.7866628144,
			"-0.001": 33.142822532,
			"0.0": 31.4888191295,
			"0.001": 28.3134250785,
			"0.002": 16.3384853296,
			"0.003": 9.00188719309,
			"0.004": 11.6149079527,
			"0.005": 11.3504769979,
			"0.006": 3.52454036475,
			"0.007": 4.23591345531,
			"0.008": 3.91846540871,
			"0.009": 4.81861135534,
			"0.01": 7.52143955344,
			"0.011": 6.81250551884,
			"0.012": 0.930549688319,
			"0.013": 0.0,
			"0.014": 0.0,
			"0.015": 0.0,
			"0.016": 0.0,
			"0.017": 0.0,
			"0.018": 0.0,
			"0.019": 0.0,
			"0.02": 0.0,
			"0.021": 0.0,
			"0.022": 0.0,
			"0.023": 0.0,
			"0.024": 0.0,
			"0.025": 0.0
		}
	}
}
