{
	 "smiles": "OC1(NCCNC1=O)C(F)(F)F", 
	 "Tm": 418.15, 
	 "num_atms": 19, 
	 "gaussian": { 
		 "optdone": 1, 
		 "sigma_profile": "yes", 
		 "theory": "DFT", 
		 "functional": "B3LYP", 
		 "basiset": "6-31G**", 
		 "properties": { 
			 "R2extent": 1978.2493, 
			 "electric_dipole_moment_norm": 5.47016085504, 
			 "electric_quadrupole_moment_norm": 13.0569866872, 
			 "total_energy": -754.219520339, 
			 "HOMO_LUMO_gap": 0.24379, 
			 "cosmo_polarized_energy": -17.4, 
			 "cosmo_cavitation_energy": 23.2, 
			 "cosmo_dispersion_energy": -16.91, 
			 "cosmo_repulsion_energy": 1.3, 
			 "cosmo_total_nonelectrostatic_energy": 7.59, 
			 "SMD_solvation_energy": 3.31 
		},
		"coords": [
			{
				"x": 1.3655116615,
				"y": -1.6268619755,
				"z": -0.386852873,
				"element": "O" 
			},
			{
				"x": 0.8981783719,
				"y": -0.3656585881,
				"z": 0.0246197544,
				"element": "C" 
			},
			{
				"x": -0.5106956021,
				"y": -0.2263508125,
				"z": -0.3224709119,
				"element": "N" 
			},
			{
				"x": -1.3732066744,
				"y": -1.0085580171,
				"z": 0.5635505447,
				"element": "C" 
			},
			{
				"x": -1.2612218607,
				"y": -0.5551391639,
				"z": 2.0173582833,
				"element": "C" 
			},
			{
				"x": 0.1474286756,
				"y": -0.4514781766,
				"z": 2.3836291011,
				"element": "N" 
			},
			{
				"x": 1.2162574267,
				"y": -0.2823977089,
				"z": 1.5491635703,
				"element": "C" 
			},
			{
				"x": 2.3477484056,
				"y": -0.103792856,
				"z": 1.967472411,
				"element": "O" 
			},
			{
				"x": 1.6617030026,
				"y": 0.7434776169,
				"z": -0.7405965238,
				"element": "C" 
			},
			{
				"x": 1.2241304132,
				"y": 1.9674875172,
				"z": -0.3484602214,
				"element": "F" 
			},
			{
				"x": 1.4081652686,
				"y": 0.6287042578,
				"z": -2.0656927059,
				"element": "F" 
			},
			{
				"x": 2.9791885335,
				"y": 0.6907280032,
				"z": -0.5778566816,
				"element": "F" 
			},
			{
				"x": 1.083136323,
				"y": -1.7232607931,
				"z": -1.3103060745,
				"element": "H" 
			},
			{
				"x": -0.7806002593,
				"y": 0.7546243847,
				"z": -0.3207566255,
				"element": "H" 
			},
			{
				"x": -1.0702262471,
				"y": -2.0562647325,
				"z": 0.4764212756,
				"element": "H" 
			},
			{
				"x": -2.407856232,
				"y": -0.927811682,
				"z": 0.2185018779,
				"element": "H" 
			},
			{
				"x": -1.7656608067,
				"y": 0.4147413367,
				"z": 2.151242518,
				"element": "H" 
			},
			{
				"x": -1.7548956871,
				"y": -1.2733957514,
				"z": 2.6826896503,
				"element": "H" 
			},
			{
				"x": 0.3919152872,
				"y": -0.3589928589,
				"z": 3.361643631,
				"element": "H" 
			}
		],
		 "valence_orbital": [ 
			{
				"type": "occ",
				"energy": -0.36433,
				"method": "rhf"
			},
			{
				"type": "occ",
				"energy": -0.30673,
				"method": "rhf"
			},
			{
				"type": "occ",
				"energy": -0.28697,
				"method": "rhf"
			},
			{
				"type": "occ",
				"energy": -0.26026,
				"method": "rhf"
			},
			{
				"type": "occ",
				"energy": -0.23823,
				"method": "rhf"
			},
			{
				"type": "unocc",
				"energy": 0.00556,
				"method": "rhf"
			},
			{
				"type": "unocc",
				"energy": 0.06219,
				"method": "rhf"
			},
			{
				"type": "unocc",
				"energy": 0.08723,
				"method": "rhf"
			},
			{
				"type": "unocc",
				"energy": 0.10227,
				"method": "rhf"
			},
			{
				"type": "unocc",
				"energy": 0.11011,
				"method": "rhf"
			}
		],
		"cosmo_sigma_profile": { 
			"-0.025": 0.0,
			"-0.024": 0.0,
			"-0.023": 0.0,
			"-0.022": 0.0,
			"-0.021": 0.0,
			"-0.02": 0.0,
			"-0.019": 0.0,
			"-0.018": 0.0,
			"-0.017": 0.01976695321,
			"-0.016": 0.387211837541,
			"-0.015": 0.826576924655,
			"-0.014": 1.83919805704,
			"-0.013": 1.66715329274,
			"-0.012": 2.47042680996,
			"-0.011": 3.01908364055,
			"-0.01": 3.24948975481,
			"-0.009": 3.17997059177,
			"-0.008": 3.72440553963,
			"-0.007": 3.33979748321,
			"-0.006": 10.7436288122,
			"-0.005": 14.1862324995,
			"-0.004": 12.2429005582,
			"-0.003": 9.83471043939,
			"-0.002": 6.91436066341,
			"-0.001": 6.60947824531,
			"0.0": 7.48172039379,
			"0.001": 10.3334970564,
			"0.002": 24.1878582062,
			"0.003": 14.3058838372,
			"0.004": 4.5189759752,
			"0.005": 3.74280627886,
			"0.006": 2.89324005482,
			"0.007": 3.18429975324,
			"0.008": 3.81015513787,
			"0.009": 3.657771852,
			"0.01": 3.46586477356,
			"0.011": 5.49139545897,
			"0.012": 4.67664609919,
			"0.013": 5.58962646944,
			"0.014": 0.818516874028,
			"0.015": 0.0,
			"0.016": 0.0,
			"0.017": 0.0,
			"0.018": 0.0,
			"0.019": 0.0,
			"0.02": 0.0,
			"0.021": 0.0,
			"0.022": 0.0,
			"0.023": 0.0,
			"0.024": 0.0,
			"0.025": 0.0
		}
	}
}
