{
	 "smiles": "OC(=O)C1=CN=C(OC2=CC(Br)=CC=C2)C=C1", 
	 "Tm": 428.15, 
	 "num_atms": 25, 
	 "gaussian": { 
		 "optdone": 1, 
		 "sigma_profile": "yes", 
		 "theory": "DFT", 
		 "functional": "B3LYP", 
		 "basiset": "6-31G**", 
		 "properties": { 
			 "R2extent": 9809.084, 
			 "electric_dipole_moment_norm": 3.98793626579, 
			 "electric_quadrupole_moment_norm": 25.5736588049, 
			 "total_energy": -3313.92024186, 
			 "HOMO_LUMO_gap": 0.20107, 
			 "cosmo_polarized_energy": -18.07, 
			 "cosmo_cavitation_energy": 33.49, 
			 "cosmo_dispersion_energy": -24.55, 
			 "cosmo_repulsion_energy": 1.9, 
			 "cosmo_total_nonelectrostatic_energy": 10.84, 
			 "SMD_solvation_energy": 4.44 
		},
		"coords": [
			{
				"x": 2.9190577528,
				"y": 2.7895423972,
				"z": -2.1716025501,
				"element": "O" 
			},
			{
				"x": 1.61118965,
				"y": 2.8473676382,
				"z": -1.8053730122,
				"element": "C" 
			},
			{
				"x": 0.9704947768,
				"y": 3.8515372106,
				"z": -2.0123700165,
				"element": "O" 
			},
			{
				"x": 1.0307066731,
				"y": 1.634803316,
				"z": -1.153726331,
				"element": "C" 
			},
			{
				"x": 1.6026759433,
				"y": 0.3587409744,
				"z": -1.2015026678,
				"element": "C" 
			},
			{
				"x": 1.0720827643,
				"y": -0.7226395423,
				"z": -0.6295221254,
				"element": "N" 
			},
			{
				"x": -0.0774487918,
				"y": -0.5722559181,
				"z": 0.0220499883,
				"element": "C" 
			},
			{
				"x": -0.5227566249,
				"y": -1.7318508297,
				"z": 0.5861060428,
				"element": "O" 
			},
			{
				"x": -1.7304247685,
				"y": -1.7562769854,
				"z": 1.2721818018,
				"element": "C" 
			},
			{
				"x": -2.9051999365,
				"y": -2.0138536638,
				"z": 0.5649401412,
				"element": "C" 
			},
			{
				"x": -4.0978479083,
				"y": -2.1142539609,
				"z": 1.2788453756,
				"element": "C" 
			},
			{
				"x": -5.7180832739,
				"y": -2.468149198,
				"z": 0.3333541822,
				"element": "Br" 
			},
			{
				"x": -4.1315732544,
				"y": -1.9661713589,
				"z": 2.6654321617,
				"element": "C" 
			},
			{
				"x": -2.9396917589,
				"y": -1.7144953561,
				"z": 3.3471974914,
				"element": "C" 
			},
			{
				"x": -1.7310263391,
				"y": -1.6070998553,
				"z": 2.6581310017,
				"element": "C" 
			},
			{
				"x": -0.765714899,
				"y": 0.6502810307,
				"z": 0.1228860568,
				"element": "C" 
			},
			{
				"x": -0.1961196881,
				"y": 1.757576358,
				"z": -0.4830708865,
				"element": "C" 
			},
			{
				"x": 3.3429382262,
				"y": 1.9987249817,
				"z": -1.8110842129,
				"element": "H" 
			},
			{
				"x": 2.5260477935,
				"y": 0.1743851644,
				"z": -1.7521073783,
				"element": "H" 
			},
			{
				"x": -2.8769437161,
				"y": -2.1420113198,
				"z": -0.5103886868,
				"element": "H" 
			},
			{
				"x": -5.0703009816,
				"y": -2.051317291,
				"z": 3.1998910624,
				"element": "H" 
			},
			{
				"x": -2.9556049847,
				"y": -1.6039505596,
				"z": 4.4270535476,
				"element": "H" 
			},
			{
				"x": -0.7962161532,
				"y": -1.4225876046,
				"z": 3.1760879823,
				"element": "H" 
			},
			{
				"x": -1.7068953639,
				"y": 0.7211982792,
				"z": 0.6531567315,
				"element": "H" 
			},
			{
				"x": -0.6789451372,
				"y": 2.728656093,
				"z": -0.4516657,
				"element": "H" 
			}
		],
		 "valence_orbital": [ 
			{
				"type": "occ",
				"energy": -0.29538,
				"method": "rhf"
			},
			{
				"type": "occ",
				"energy": -0.27807,
				"method": "rhf"
			},
			{
				"type": "occ",
				"energy": -0.27358,
				"method": "rhf"
			},
			{
				"type": "occ",
				"energy": -0.26209,
				"method": "rhf"
			},
			{
				"type": "occ",
				"energy": -0.25777,
				"method": "rhf"
			},
			{
				"type": "unocc",
				"energy": -0.0567,
				"method": "rhf"
			},
			{
				"type": "unocc",
				"energy": -0.04824,
				"method": "rhf"
			},
			{
				"type": "unocc",
				"energy": -0.03076,
				"method": "rhf"
			},
			{
				"type": "unocc",
				"energy": -0.02982,
				"method": "rhf"
			},
			{
				"type": "unocc",
				"energy": -0.00696,
				"method": "rhf"
			}
		],
		"cosmo_sigma_profile": { 
			"-0.025": 0.0,
			"-0.024": 0.0,
			"-0.023": 0.0,
			"-0.022": 0.0,
			"-0.021": 0.0,
			"-0.02": 0.0485569798687,
			"-0.019": 0.684536346627,
			"-0.018": 1.25457679027,
			"-0.017": 0.818225192662,
			"-0.016": 0.77220657085,
			"-0.015": 1.51534987127,
			"-0.014": 1.1810687464,
			"-0.013": 1.25653835813,
			"-0.012": 1.11046589361,
			"-0.011": 0.664241240375,
			"-0.01": 1.3773473449,
			"-0.009": 1.6418659423,
			"-0.008": 5.98753888845,
			"-0.007": 12.4673414217,
			"-0.006": 13.8721045249,
			"-0.005": 14.0045919167,
			"-0.004": 14.2276983373,
			"-0.003": 15.3635348706,
			"-0.002": 17.3271513996,
			"-0.001": 21.0582744088,
			"0.0": 20.7868715804,
			"0.001": 25.3378934914,
			"0.002": 21.7949877768,
			"0.003": 15.8771401095,
			"0.004": 14.8927937795,
			"0.005": 6.58779995248,
			"0.006": 4.94298245798,
			"0.007": 3.95894521797,
			"0.008": 4.8809543446,
			"0.009": 4.91495993708,
			"0.01": 6.52529153146,
			"0.011": 7.00865635589,
			"0.012": 5.31551688739,
			"0.013": 2.27227521225,
			"0.014": 1.16380574877,
			"0.015": 0.531410421085,
			"0.016": 0.0,
			"0.017": 0.0,
			"0.018": 0.0,
			"0.019": 0.0,
			"0.02": 0.0,
			"0.021": 0.0,
			"0.022": 0.0,
			"0.023": 0.0,
			"0.024": 0.0,
			"0.025": 0.0
		}
	}
}
