{
	 "smiles": "OC(=O)C12CCC(=O)N1C1=C(S2)C=CC=C1", 
	 "Tm": 499.15, 
	 "num_atms": 25, 
	 "gaussian": { 
		 "optdone": 1, 
		 "sigma_profile": "yes", 
		 "theory": "DFT", 
		 "functional": "B3LYP", 
		 "basiset": "6-31G**", 
		 "properties": { 
			 "R2extent": 3649.8659, 
			 "electric_dipole_moment_norm": 1.28998063939, 
			 "electric_quadrupole_moment_norm": 13.0469265944, 
			 "total_energy": -1103.22806167, 
			 "HOMO_LUMO_gap": 0.17276, 
			 "cosmo_polarized_energy": -14.67, 
			 "cosmo_cavitation_energy": 30.08, 
			 "cosmo_dispersion_energy": -22.09, 
			 "cosmo_repulsion_energy": 1.67, 
			 "cosmo_total_nonelectrostatic_energy": 9.66, 
			 "SMD_solvation_energy": 6.1 
		},
		"coords": [
			{
				"x": 1.9965944159,
				"y": 1.2674098627,
				"z": 0.8183294522,
				"element": "O" 
			},
			{
				"x": 1.0256848611,
				"y": 0.5343552209,
				"z": 1.391246058,
				"element": "C" 
			},
			{
				"x": 0.8274829666,
				"y": 0.4943274673,
				"z": 2.585301235,
				"element": "O" 
			},
			{
				"x": 0.1665601475,
				"y": -0.2231900043,
				"z": 0.3618608207,
				"element": "C" 
			},
			{
				"x": -0.2985467488,
				"y": -1.5838061251,
				"z": 0.9165815303,
				"element": "C" 
			},
			{
				"x": 0.7791612261,
				"y": -2.5493175602,
				"z": 0.3848805358,
				"element": "C" 
			},
			{
				"x": 1.2518566388,
				"y": -1.9073346293,
				"z": -0.9209683808,
				"element": "C" 
			},
			{
				"x": 1.8407352998,
				"y": -2.4310753353,
				"z": -1.8455480787,
				"element": "O" 
			},
			{
				"x": 0.8865789124,
				"y": -0.5652511612,
				"z": -0.856882593,
				"element": "N" 
			},
			{
				"x": 0.7532401358,
				"y": 0.3499906842,
				"z": -1.9190134503,
				"element": "C" 
			},
			{
				"x": -0.2986247193,
				"y": 1.2593373916,
				"z": -1.7148661308,
				"element": "C" 
			},
			{
				"x": -1.1690435499,
				"y": 0.9781848069,
				"z": -0.1793253489,
				"element": "S" 
			},
			{
				"x": -0.6031109354,
				"y": 2.2140373445,
				"z": -2.6773401709,
				"element": "C" 
			},
			{
				"x": 0.1551513914,
				"y": 2.2471764028,
				"z": -3.8548788394,
				"element": "C" 
			},
			{
				"x": 1.1928903024,
				"y": 1.3369362609,
				"z": -4.0573587665,
				"element": "C" 
			},
			{
				"x": 1.5063941145,
				"y": 0.3766219098,
				"z": -3.0885273479,
				"element": "C" 
			},
			{
				"x": 2.4392913914,
				"y": 1.7494500188,
				"z": 1.5372401952,
				"element": "H" 
			},
			{
				"x": -1.2724096224,
				"y": -1.8294315421,
				"z": 0.4862708371,
				"element": "H" 
			},
			{
				"x": -0.3836518204,
				"y": -1.5597982212,
				"z": 2.0027186753,
				"element": "H" 
			},
			{
				"x": 1.6316197189,
				"y": -2.6292915589,
				"z": 1.0706659552,
				"element": "H" 
			},
			{
				"x": 0.4173979777,
				"y": -3.560715836,
				"z": 0.1911154853,
				"element": "H" 
			},
			{
				"x": -1.4136533717,
				"y": 2.9188637758,
				"z": -2.52186331,
				"element": "H" 
			},
			{
				"x": -0.0708150091,
				"y": 2.9912324073,
				"z": -4.612501074,
				"element": "H" 
			},
			{
				"x": 1.7719229794,
				"y": 1.3721981213,
				"z": -4.974914995,
				"element": "H" 
			},
			{
				"x": 2.2999932973,
				"y": -0.3452097013,
				"z": -3.233222294,
				"element": "H" 
			}
		],
		 "valence_orbital": [ 
			{
				"type": "occ",
				"energy": -0.29806,
				"method": "rhf"
			},
			{
				"type": "occ",
				"energy": -0.28859,
				"method": "rhf"
			},
			{
				"type": "occ",
				"energy": -0.26435,
				"method": "rhf"
			},
			{
				"type": "occ",
				"energy": -0.24367,
				"method": "rhf"
			},
			{
				"type": "occ",
				"energy": -0.21317,
				"method": "rhf"
			},
			{
				"type": "unocc",
				"energy": -0.04041,
				"method": "rhf"
			},
			{
				"type": "unocc",
				"energy": -0.01705,
				"method": "rhf"
			},
			{
				"type": "unocc",
				"energy": -0.0083,
				"method": "rhf"
			},
			{
				"type": "unocc",
				"energy": 0.01335,
				"method": "rhf"
			},
			{
				"type": "unocc",
				"energy": 0.02536,
				"method": "rhf"
			}
		],
		"cosmo_sigma_profile": { 
			"-0.025": 0.0,
			"-0.024": 0.0,
			"-0.023": 0.0,
			"-0.022": 0.0,
			"-0.021": 0.0,
			"-0.02": 0.0405849477974,
			"-0.019": 0.781141563675,
			"-0.018": 0.907638882403,
			"-0.017": 0.960353466068,
			"-0.016": 1.01150719462,
			"-0.015": 0.721563378292,
			"-0.014": 0.389338833381,
			"-0.013": 0.743913312988,
			"-0.012": 1.05371615066,
			"-0.011": 0.790191043913,
			"-0.01": 0.219431507125,
			"-0.009": 1.3559403054,
			"-0.008": 2.82717853915,
			"-0.007": 8.49530054695,
			"-0.006": 17.092471126,
			"-0.005": 17.6748284476,
			"-0.004": 19.0113637552,
			"-0.003": 19.1420952876,
			"-0.002": 13.6108739199,
			"-0.001": 9.96633353556,
			"0.0": 11.4918924314,
			"0.001": 13.7663885358,
			"0.002": 15.7390784295,
			"0.003": 15.5155118986,
			"0.004": 19.3174181416,
			"0.005": 12.2249270734,
			"0.006": 6.85721833507,
			"0.007": 5.48193722036,
			"0.008": 3.39593951811,
			"0.009": 3.60638399991,
			"0.01": 5.13566588166,
			"0.011": 7.11030993464,
			"0.012": 3.78819826745,
			"0.013": 1.84776355217,
			"0.014": 0.107685520058,
			"0.015": 0.0,
			"0.016": 0.0,
			"0.017": 0.0,
			"0.018": 0.0,
			"0.019": 0.0,
			"0.02": 0.0,
			"0.021": 0.0,
			"0.022": 0.0,
			"0.023": 0.0,
			"0.024": 0.0,
			"0.025": 0.0
		}
	}
}
