{
	 "smiles": "O=C(OC1CCCCC1)C1=C(C=CC=C1)C(=O)OC1CCCCC1", 
	 "Tm": 339.15, 
	 "num_atms": 50, 
	 "gaussian": { 
		 "optdone": 1, 
		 "sigma_profile": "yes", 
		 "theory": "DFT", 
		 "functional": "B3LYP", 
		 "basiset": "6-31G**", 
		 "properties": { 
			 "R2extent": 9122.7103, 
			 "electric_dipole_moment_norm": 0.916823063628, 
			 "electric_quadrupole_moment_norm": 19.8761538928, 
			 "total_energy": -1078.74130758, 
			 "HOMO_LUMO_gap": 0.20215, 
			 "cosmo_polarized_energy": -11.02, 
			 "cosmo_cavitation_energy": 49.24, 
			 "cosmo_dispersion_energy": -33.21, 
			 "cosmo_repulsion_energy": 2.53, 
			 "cosmo_total_nonelectrostatic_energy": 18.57, 
			 "SMD_solvation_energy": 7.55 
		},
		"coords": [
			{
				"x": 0.8054618905,
				"y": 2.2570009322,
				"z": 1.2233765917,
				"element": "O" 
			},
			{
				"x": 0.5415474911,
				"y": 1.0709838785,
				"z": 1.1629287377,
				"element": "C" 
			},
			{
				"x": 1.1865873969,
				"y": 0.16937104,
				"z": 0.4021534797,
				"element": "O" 
			},
			{
				"x": 2.291580685,
				"y": 0.5816655277,
				"z": -0.4589822235,
				"element": "C" 
			},
			{
				"x": 1.8797079799,
				"y": 1.5859278055,
				"z": -1.5403881447,
				"element": "C" 
			},
			{
				"x": 3.0682008741,
				"y": 1.8557672915,
				"z": -2.4807328946,
				"element": "C" 
			},
			{
				"x": 4.304944044,
				"y": 2.3329364001,
				"z": -1.7031873637,
				"element": "C" 
			},
			{
				"x": 4.6874686516,
				"y": 1.3359015138,
				"z": -0.5979774178,
				"element": "C" 
			},
			{
				"x": 3.5043758665,
				"y": 1.0592099412,
				"z": 0.3464356994,
				"element": "C" 
			},
			{
				"x": -0.4870803329,
				"y": 0.42404466,
				"z": 2.0468545127,
				"element": "C" 
			},
			{
				"x": -1.3031743394,
				"y": -0.6699432199,
				"z": 1.6922016862,
				"element": "C" 
			},
			{
				"x": -2.1166017893,
				"y": -1.2602058588,
				"z": 2.6680567668,
				"element": "C" 
			},
			{
				"x": -2.1593109827,
				"y": -0.759064911,
				"z": 3.9673841545,
				"element": "C" 
			},
			{
				"x": -1.3860653847,
				"y": 0.3515453687,
				"z": 4.3060923882,
				"element": "C" 
			},
			{
				"x": -0.5561223198,
				"y": 0.9333731793,
				"z": 3.3500260493,
				"element": "C" 
			},
			{
				"x": -1.4528944421,
				"y": -1.2347745996,
				"z": 0.3084154253,
				"element": "C" 
			},
			{
				"x": -1.6752934409,
				"y": -2.4125503565,
				"z": 0.0990546785,
				"element": "O" 
			},
			{
				"x": -1.4195417871,
				"y": -0.2747265645,
				"z": -0.6318818814,
				"element": "O" 
			},
			{
				"x": -1.6309660438,
				"y": -0.6166508124,
				"z": -2.0346148965,
				"element": "C" 
			},
			{
				"x": -0.6211806039,
				"y": -1.6192238579,
				"z": -2.5969203323,
				"element": "C" 
			},
			{
				"x": -0.7178153142,
				"y": -1.6302115195,
				"z": -4.1425134569,
				"element": "C" 
			},
			{
				"x": -2.1672595139,
				"y": -1.4106260467,
				"z": -4.6501145896,
				"element": "C" 
			},
			{
				"x": -3.1988999662,
				"y": -1.8698473293,
				"z": -3.6098459818,
				"element": "C" 
			},
			{
				"x": -3.0885721848,
				"y": -1.0488971183,
				"z": -2.3032389474,
				"element": "C" 
			},
			{
				"x": 2.5514507851,
				"y": -0.3658797995,
				"z": -0.9459754738,
				"element": "H" 
			},
			{
				"x": 1.0249801804,
				"y": 1.1915147329,
				"z": -2.1009609206,
				"element": "H" 
			},
			{
				"x": 1.5593354618,
				"y": 2.5164238495,
				"z": -1.0644353234,
				"element": "H" 
			},
			{
				"x": 2.7795598736,
				"y": 2.5978685008,
				"z": -3.2338226235,
				"element": "H" 
			},
			{
				"x": 3.3189575319,
				"y": 0.9369050588,
				"z": -3.0303358741,
				"element": "H" 
			},
			{
				"x": 5.1484969597,
				"y": 2.4814286892,
				"z": -2.3876423351,
				"element": "H" 
			},
			{
				"x": 4.0910190361,
				"y": 3.3105901904,
				"z": -1.2499266307,
				"element": "H" 
			},
			{
				"x": 5.5395644457,
				"y": 1.7117741778,
				"z": -0.0203386487,
				"element": "H" 
			},
			{
				"x": 5.0164313907,
				"y": 0.3934736949,
				"z": -1.0590047383,
				"element": "H" 
			},
			{
				"x": 3.7707380283,
				"y": 0.2974684889,
				"z": 1.0880894838,
				"element": "H" 
			},
			{
				"x": 3.2369533132,
				"y": 1.9709569576,
				"z": 0.8886398558,
				"element": "H" 
			},
			{
				"x": -2.7239600478,
				"y": -2.1116456499,
				"z": 2.3804970919,
				"element": "H" 
			},
			{
				"x": -2.8009199805,
				"y": -1.2281802458,
				"z": 4.7073399434,
				"element": "H" 
			},
			{
				"x": -1.420215439,
				"y": 0.7585446718,
				"z": 5.3123064156,
				"element": "H" 
			},
			{
				"x": 0.0655941574,
				"y": 1.7864772953,
				"z": 3.5993932367,
				"element": "H" 
			},
			{
				"x": -1.4501875403,
				"y": 0.3509425606,
				"z": -2.5143147579,
				"element": "H" 
			},
			{
				"x": 0.3899678364,
				"y": -1.3488660925,
				"z": -2.2761839855,
				"element": "H" 
			},
			{
				"x": -0.8313866822,
				"y": -2.6090473779,
				"z": -2.1875233743,
				"element": "H" 
			},
			{
				"x": -0.0637369852,
				"y": -0.8578756998,
				"z": -4.5645715755,
				"element": "H" 
			},
			{
				"x": -0.3348592687,
				"y": -2.5895159422,
				"z": -4.5076860568,
				"element": "H" 
			},
			{
				"x": -2.3172220745,
				"y": -1.9369068218,
				"z": -5.5990248924,
				"element": "H" 
			},
			{
				"x": -2.3310429977,
				"y": -0.3462909279,
				"z": -4.8652882331,
				"element": "H" 
			},
			{
				"x": -4.2149502444,
				"y": -1.7915135853,
				"z": -4.0115377962,
				"element": "H" 
			},
			{
				"x": -3.0361456841,
				"y": -2.9320701723,
				"z": -3.3896356754,
				"element": "H" 
			},
			{
				"x": -3.4461708483,
				"y": -1.6494569521,
				"z": -1.4644076036,
				"element": "H" 
			},
			{
				"x": -3.7183476415,
				"y": -0.1537249455,
				"z": -2.358131548,
				"element": "H" 
			}
		],
		 "valence_orbital": [ 
			{
				"type": "occ",
				"energy": -0.28036,
				"method": "rhf"
			},
			{
				"type": "occ",
				"energy": -0.27305,
				"method": "rhf"
			},
			{
				"type": "occ",
				"energy": -0.27021,
				"method": "rhf"
			},
			{
				"type": "occ",
				"energy": -0.25505,
				"method": "rhf"
			},
			{
				"type": "occ",
				"energy": -0.25242,
				"method": "rhf"
			},
			{
				"type": "unocc",
				"energy": -0.05027,
				"method": "rhf"
			},
			{
				"type": "unocc",
				"energy": -0.022,
				"method": "rhf"
			},
			{
				"type": "unocc",
				"energy": 0.03421,
				"method": "rhf"
			},
			{
				"type": "unocc",
				"energy": 0.04678,
				"method": "rhf"
			},
			{
				"type": "unocc",
				"energy": 0.06006,
				"method": "rhf"
			}
		],
		"cosmo_sigma_profile": { 
			"-0.025": 0.0,
			"-0.024": 0.0,
			"-0.023": 0.0,
			"-0.022": 0.0,
			"-0.021": 0.0,
			"-0.02": 0.0,
			"-0.019": 0.0,
			"-0.018": 0.0,
			"-0.017": 0.0,
			"-0.016": 0.0,
			"-0.015": 0.0,
			"-0.014": 0.0,
			"-0.013": 0.0,
			"-0.012": 0.0,
			"-0.011": 0.0,
			"-0.01": 0.0,
			"-0.009": 0.0,
			"-0.008": 0.0493735549629,
			"-0.007": 3.9339480454,
			"-0.006": 8.36206931145,
			"-0.005": 11.6437387264,
			"-0.004": 17.1540363611,
			"-0.003": 37.7786304972,
			"-0.002": 58.2713738212,
			"-0.001": 59.8897285809,
			"0.0": 55.6119567759,
			"0.001": 41.6372792445,
			"0.002": 24.7401072261,
			"0.003": 20.2761870869,
			"0.004": 7.89128335712,
			"0.005": 6.12961034897,
			"0.006": 5.95234940519,
			"0.007": 5.07349875073,
			"0.008": 2.90547393031,
			"0.009": 2.7601008481,
			"0.01": 3.54223185695,
			"0.011": 4.23957097302,
			"0.012": 5.58523685699,
			"0.013": 0.736523105641,
			"0.014": 0.0,
			"0.015": 0.0,
			"0.016": 0.0,
			"0.017": 0.0,
			"0.018": 0.0,
			"0.019": 0.0,
			"0.02": 0.0,
			"0.021": 0.0,
			"0.022": 0.0,
			"0.023": 0.0,
			"0.024": 0.0,
			"0.025": 0.0
		}
	}
}
