{
	 "smiles": "CN1C(=O)N(C=C(C(N)=NO)C1=O)C1=CC=CC=C1", 
	 "Tm": 463.15, 
	 "num_atms": 31, 
	 "gaussian": { 
		 "optdone": 1, 
		 "sigma_profile": "yes", 
		 "theory": "DFT", 
		 "functional": "B3LYP", 
		 "basiset": "6-31G**", 
		 "properties": { 
			 "R2extent": 6053.3608, 
			 "electric_dipole_moment_norm": 4.18645141976, 
			 "electric_quadrupole_moment_norm": 4.89749262276, 
			 "total_energy": -909.159311182, 
			 "HOMO_LUMO_gap": 0.1641, 
			 "cosmo_polarized_energy": -23.27, 
			 "cosmo_cavitation_energy": 35.82, 
			 "cosmo_dispersion_energy": -25.85, 
			 "cosmo_repulsion_energy": 2.01, 
			 "cosmo_total_nonelectrostatic_energy": 11.98, 
			 "SMD_solvation_energy": 7.78 
		},
		"coords": [
			{
				"x": -1.5647571929,
				"y": -1.7932434236,
				"z": -3.4862515412,
				"element": "C" 
			},
			{
				"x": -1.0786261704,
				"y": -1.1999858685,
				"z": -2.2343038886,
				"element": "N" 
			},
			{
				"x": -0.4589987452,
				"y": -2.0864583513,
				"z": -1.3646419262,
				"element": "C" 
			},
			{
				"x": -0.3339477315,
				"y": -3.2726966569,
				"z": -1.6173699952,
				"element": "O" 
			},
			{
				"x": 0.0203367574,
				"y": -1.514894545,
				"z": -0.1667658465,
				"element": "N" 
			},
			{
				"x": -0.1446568562,
				"y": -0.1747091979,
				"z": 0.0928668695,
				"element": "C" 
			},
			{
				"x": -0.7599689632,
				"y": 0.6917238399,
				"z": -0.7518052866,
				"element": "C" 
			},
			{
				"x": -0.8624470726,
				"y": 2.1183273508,
				"z": -0.3740050396,
				"element": "C" 
			},
			{
				"x": 0.1946428402,
				"y": 2.6464348948,
				"z": 0.3646468032,
				"element": "N" 
			},
			{
				"x": -1.9488728212,
				"y": 2.7573011414,
				"z": -0.6494733302,
				"element": "N" 
			},
			{
				"x": -1.8387924622,
				"y": 4.0984230664,
				"z": -0.1895250858,
				"element": "O" 
			},
			{
				"x": -1.2734241275,
				"y": 0.1966681849,
				"z": -2.0360771791,
				"element": "C" 
			},
			{
				"x": -1.8003908096,
				"y": 0.874260124,
				"z": -2.9006908453,
				"element": "O" 
			},
			{
				"x": 0.6104848444,
				"y": -2.3652320801,
				"z": 0.8348130152,
				"element": "C" 
			},
			{
				"x": 0.1367232954,
				"y": -2.2976472558,
				"z": 2.1479704765,
				"element": "C" 
			},
			{
				"x": 0.7333170844,
				"y": -3.0766658304,
				"z": 3.140309721,
				"element": "C" 
			},
			{
				"x": 1.7861308289,
				"y": -3.9336473967,
				"z": 2.8197660678,
				"element": "C" 
			},
			{
				"x": 2.2433330792,
				"y": -4.0073982691,
				"z": 1.5017124368,
				"element": "C" 
			},
			{
				"x": 1.6638343399,
				"y": -3.223426791,
				"z": 0.5059204566,
				"element": "C" 
			},
			{
				"x": -2.025763141,
				"y": -0.9955445049,
				"z": -4.063198717,
				"element": "H" 
			},
			{
				"x": -0.7318108752,
				"y": -2.2354412364,
				"z": -4.0371658525,
				"element": "H" 
			},
			{
				"x": -2.2881906271,
				"y": -2.580970341,
				"z": -3.2664388579,
				"element": "H" 
			},
			{
				"x": 0.2597405291,
				"y": 0.1643802274,
				"z": 1.0387826092,
				"element": "H" 
			},
			{
				"x": 0.1000666133,
				"y": 3.6460766481,
				"z": 0.4988526144,
				"element": "H" 
			},
			{
				"x": 1.11110359,
				"y": 2.3783147948,
				"z": 0.0298172892,
				"element": "H" 
			},
			{
				"x": -2.6558152926,
				"y": 4.4869160577,
				"z": -0.5248456005,
				"element": "H" 
			},
			{
				"x": -0.7018104062,
				"y": -1.6510898756,
				"z": 2.3880185537,
				"element": "H" 
			},
			{
				"x": 0.3634060309,
				"y": -3.0199392849,
				"z": 4.1595231439,
				"element": "H" 
			},
			{
				"x": 2.2452450103,
				"y": -4.5450263277,
				"z": 3.5907012606,
				"element": "H" 
			},
			{
				"x": 3.0600554418,
				"y": -4.6753658642,
				"z": 1.2453254213,
				"element": "H" 
			},
			{
				"x": 2.0120530094,
				"y": -3.2811432291,
				"z": -0.5176677468,
				"element": "H" 
			}
		],
		 "valence_orbital": [ 
			{
				"type": "occ",
				"energy": -0.27007,
				"method": "rhf"
			},
			{
				"type": "occ",
				"energy": -0.26612,
				"method": "rhf"
			},
			{
				"type": "occ",
				"energy": -0.25347,
				"method": "rhf"
			},
			{
				"type": "occ",
				"energy": -0.24305,
				"method": "rhf"
			},
			{
				"type": "occ",
				"energy": -0.2104,
				"method": "rhf"
			},
			{
				"type": "unocc",
				"energy": -0.0463,
				"method": "rhf"
			},
			{
				"type": "unocc",
				"energy": -0.02147,
				"method": "rhf"
			},
			{
				"type": "unocc",
				"energy": -0.01668,
				"method": "rhf"
			},
			{
				"type": "unocc",
				"energy": 0.00571,
				"method": "rhf"
			},
			{
				"type": "unocc",
				"energy": 0.04211,
				"method": "rhf"
			}
		],
		"cosmo_sigma_profile": { 
			"-0.025": 0.0,
			"-0.024": 0.0,
			"-0.023": 0.0,
			"-0.022": 0.0,
			"-0.021": 0.0,
			"-0.02": 0.0,
			"-0.019": 0.0,
			"-0.018": 0.0,
			"-0.017": 0.525865527234,
			"-0.016": 1.20757299633,
			"-0.015": 0.662964808224,
			"-0.014": 0.847225281665,
			"-0.013": 2.13434814926,
			"-0.012": 2.12604329843,
			"-0.011": 2.61984932211,
			"-0.01": 3.39344981119,
			"-0.009": 3.31216448642,
			"-0.008": 5.69522016403,
			"-0.007": 8.96645396809,
			"-0.006": 18.2538924675,
			"-0.005": 23.9082608712,
			"-0.004": 22.9057322515,
			"-0.003": 23.5174734517,
			"-0.002": 21.0717861046,
			"-0.001": 13.3173815717,
			"0.0": 12.1197298937,
			"0.001": 11.467900229,
			"0.002": 12.6184477201,
			"0.003": 12.9473473792,
			"0.004": 16.5228515914,
			"0.005": 9.18842655555,
			"0.006": 6.9244379794,
			"0.007": 6.69056160743,
			"0.008": 6.88481429546,
			"0.009": 6.07126745143,
			"0.01": 5.14014487905,
			"0.011": 6.48176802583,
			"0.012": 8.7798947885,
			"0.013": 3.25326278245,
			"0.014": 2.01640897772,
			"0.015": 1.8271775846,
			"0.016": 1.31021425309,
			"0.017": 0.990667195872,
			"0.018": 0.125990049015,
			"0.019": 0.0,
			"0.02": 0.0,
			"0.021": 0.0,
			"0.022": 0.0,
			"0.023": 0.0,
			"0.024": 0.0,
			"0.025": 0.0
		}
	}
}
