{
	 "smiles": "CC1=CC=C(C=C1N=C=O)N=C=O", 
	 "Tm": 293.65, 
	 "num_atms": 19, 
	 "gaussian": { 
		 "optdone": 1, 
		 "sigma_profile": "yes", 
		 "theory": "DFT", 
		 "functional": "B3LYP", 
		 "basiset": "6-31G**", 
		 "properties": { 
			 "R2extent": 3375.0706, 
			 "electric_dipole_moment_norm": 2.62805358773, 
			 "electric_quadrupole_moment_norm": 11.8491765596, 
			 "total_energy": -606.530453328, 
			 "HOMO_LUMO_gap": 0.19797, 
			 "cosmo_polarized_energy": -6.36, 
			 "cosmo_cavitation_energy": 26.44, 
			 "cosmo_dispersion_energy": -18.41, 
			 "cosmo_repulsion_energy": 1.47, 
			 "cosmo_total_nonelectrostatic_energy": 9.5, 
			 "SMD_solvation_energy": 9.43 
		},
		"coords": [
			{
				"x": -0.0544293646,
				"y": -1.5562154104,
				"z": -2.0413695181,
				"element": "C" 
			},
			{
				"x": -0.2466508872,
				"y": -0.2407219766,
				"z": -1.3328212515,
				"element": "C" 
			},
			{
				"x": -0.9777483096,
				"y": 0.805577756,
				"z": -1.905267095,
				"element": "C" 
			},
			{
				"x": -1.1614795048,
				"y": 2.0244959846,
				"z": -1.2582503748,
				"element": "C" 
			},
			{
				"x": -0.5993577897,
				"y": 2.2221678027,
				"z": 0.0103218333,
				"element": "C" 
			},
			{
				"x": 0.137071411,
				"y": 1.1977375257,
				"z": 0.6094974935,
				"element": "C" 
			},
			{
				"x": 0.3091164223,
				"y": -0.0200835235,
				"z": -0.0575910134,
				"element": "C" 
			},
			{
				"x": 1.0412327605,
				"y": -1.060642133,
				"z": 0.5236260058,
				"element": "N" 
			},
			{
				"x": 1.6566324139,
				"y": -1.3174082628,
				"z": 1.5330552977,
				"element": "C" 
			},
			{
				"x": 2.2804188282,
				"y": -1.6931250292,
				"z": 2.4589913148,
				"element": "O" 
			},
			{
				"x": -0.745885059,
				"y": 3.4209800792,
				"z": 0.713472452,
				"element": "N" 
			},
			{
				"x": -1.2839350852,
				"y": 4.4987277994,
				"z": 0.59645177,
				"element": "C" 
			},
			{
				"x": -1.7516620141,
				"y": 5.5799237967,
				"z": 0.6087792749,
				"element": "O" 
			},
			{
				"x": -0.4611114867,
				"y": -2.3875520068,
				"z": -1.4551833617,
				"element": "H" 
			},
			{
				"x": -0.5497354491,
				"y": -1.5501606984,
				"z": -3.0154496586,
				"element": "H" 
			},
			{
				"x": 1.0079052672,
				"y": -1.7727727475,
				"z": -2.1981989044,
				"element": "H" 
			},
			{
				"x": -1.4163988713,
				"y": 0.6595875804,
				"z": -2.8884064571,
				"element": "H" 
			},
			{
				"x": -1.7339237065,
				"y": 2.8184318774,
				"z": -1.727424289,
				"element": "H" 
			},
			{
				"x": 0.5703404247,
				"y": 1.355251586,
				"z": 1.5910664815,
				"element": "H" 
			}
		],
		 "valence_orbital": [ 
			{
				"type": "occ",
				"energy": -0.31743,
				"method": "rhf"
			},
			{
				"type": "occ",
				"energy": -0.31323,
				"method": "rhf"
			},
			{
				"type": "occ",
				"energy": -0.31257,
				"method": "rhf"
			},
			{
				"type": "occ",
				"energy": -0.25511,
				"method": "rhf"
			},
			{
				"type": "occ",
				"energy": -0.2348,
				"method": "rhf"
			},
			{
				"type": "unocc",
				"energy": -0.03683,
				"method": "rhf"
			},
			{
				"type": "unocc",
				"energy": -0.02601,
				"method": "rhf"
			},
			{
				"type": "unocc",
				"energy": 0.00235,
				"method": "rhf"
			},
			{
				"type": "unocc",
				"energy": 0.00972,
				"method": "rhf"
			},
			{
				"type": "unocc",
				"energy": 0.05198,
				"method": "rhf"
			}
		],
		"cosmo_sigma_profile": { 
			"-0.025": 0.0,
			"-0.024": 0.0,
			"-0.023": 0.0,
			"-0.022": 0.0,
			"-0.021": 0.0,
			"-0.02": 0.0,
			"-0.019": 0.0,
			"-0.018": 0.0,
			"-0.017": 0.0,
			"-0.016": 0.0,
			"-0.015": 0.0,
			"-0.014": 0.0,
			"-0.013": 0.0,
			"-0.012": 0.0,
			"-0.011": 0.0,
			"-0.01": 0.0,
			"-0.009": 0.530012290494,
			"-0.008": 4.77480015454,
			"-0.007": 5.04065166492,
			"-0.006": 8.21717515153,
			"-0.005": 10.9905860302,
			"-0.004": 14.7354334734,
			"-0.003": 16.955873927,
			"-0.002": 19.1483188561,
			"-0.001": 18.8867881027,
			"0.0": 21.1040983308,
			"0.001": 16.9505715027,
			"0.002": 19.3761780762,
			"0.003": 18.078196717,
			"0.004": 9.69855512899,
			"0.005": 5.45824730237,
			"0.006": 5.69658605851,
			"0.007": 13.9760255798,
			"0.008": 4.93762452179,
			"0.009": 0.0,
			"0.01": 0.0,
			"0.011": 0.0,
			"0.012": 0.0,
			"0.013": 0.0,
			"0.014": 0.0,
			"0.015": 0.0,
			"0.016": 0.0,
			"0.017": 0.0,
			"0.018": 0.0,
			"0.019": 0.0,
			"0.02": 0.0,
			"0.021": 0.0,
			"0.022": 0.0,
			"0.023": 0.0,
			"0.024": 0.0,
			"0.025": 0.0
		}
	}
}
