{
	 "smiles": "OC(=O)C1=C(Br)SC=C1", 
	 "Tm": 447.15, 
	 "num_atms": 12, 
	 "gaussian": { 
		 "optdone": 1, 
		 "sigma_profile": "yes", 
		 "theory": "DFT", 
		 "functional": "B3LYP", 
		 "basiset": "6-31G**", 
		 "properties": { 
			 "R2extent": 3178.3611, 
			 "electric_dipole_moment_norm": 4.15060842407, 
			 "electric_quadrupole_moment_norm": 9.75648547941, 
			 "total_energy": -3312.36212602, 
			 "HOMO_LUMO_gap": 0.19538, 
			 "cosmo_polarized_energy": -10.41, 
			 "cosmo_cavitation_energy": 20.45, 
			 "cosmo_dispersion_energy": -16.44, 
			 "cosmo_repulsion_energy": 1.28, 
			 "cosmo_total_nonelectrostatic_energy": 5.29, 
			 "SMD_solvation_energy": 3.73 
		},
		"coords": [
			{
				"x": 1.7463701453,
				"y": 0.6267295157,
				"z": -1.9875147602,
				"element": "O" 
			},
			{
				"x": 1.1446889806,
				"y": 0.4770196496,
				"z": -0.7910827235,
				"element": "C" 
			},
			{
				"x": 1.7904329123,
				"y": 0.5533751975,
				"z": 0.2299079364,
				"element": "O" 
			},
			{
				"x": -0.33127765,
				"y": 0.2156101487,
				"z": -0.7455529665,
				"element": "C" 
			},
			{
				"x": -1.260399605,
				"y": 0.0879887089,
				"z": -1.7557026935,
				"element": "C" 
			},
			{
				"x": -1.010113568,
				"y": 0.1985497066,
				"z": -3.6311334781,
				"element": "Br" 
			},
			{
				"x": -2.8627663016,
				"y": -0.2149057629,
				"z": -1.1664995443,
				"element": "S" 
			},
			{
				"x": -2.2949668327,
				"y": -0.1732396356,
				"z": 0.4754438055,
				"element": "C" 
			},
			{
				"x": -0.9562506449,
				"y": 0.0600346259,
				"z": 0.5393590148,
				"element": "C" 
			},
			{
				"x": 1.1167333619,
				"y": 0.5427603239,
				"z": -2.7225082937,
				"element": "H" 
			},
			{
				"x": -2.9929740002,
				"y": -0.3248000402,
				"z": 1.2870212665,
				"element": "H" 
			},
			{
				"x": -0.3802767975,
				"y": 0.1288775621,
				"z": 1.4529624366,
				"element": "H" 
			}
		],
		 "valence_orbital": [ 
			{
				"type": "occ",
				"energy": -0.33128,
				"method": "rhf"
			},
			{
				"type": "occ",
				"energy": -0.31758,
				"method": "rhf"
			},
			{
				"type": "occ",
				"energy": -0.28012,
				"method": "rhf"
			},
			{
				"type": "occ",
				"energy": -0.27846,
				"method": "rhf"
			},
			{
				"type": "occ",
				"energy": -0.25758,
				"method": "rhf"
			},
			{
				"type": "unocc",
				"energy": -0.0622,
				"method": "rhf"
			},
			{
				"type": "unocc",
				"energy": -0.03527,
				"method": "rhf"
			},
			{
				"type": "unocc",
				"energy": -0.00592,
				"method": "rhf"
			},
			{
				"type": "unocc",
				"energy": -0.0042,
				"method": "rhf"
			},
			{
				"type": "unocc",
				"energy": 0.07902,
				"method": "rhf"
			}
		],
		"cosmo_sigma_profile": { 
			"-0.025": 0.0,
			"-0.024": 0.0,
			"-0.023": 0.0,
			"-0.022": 0.0,
			"-0.021": 0.0,
			"-0.02": 0.0,
			"-0.019": 0.0,
			"-0.018": 0.0,
			"-0.017": 0.0,
			"-0.016": 0.0,
			"-0.015": 0.0,
			"-0.014": 0.0,
			"-0.013": 0.0,
			"-0.012": 0.0925285811627,
			"-0.011": 0.887643069443,
			"-0.01": 2.60280276914,
			"-0.009": 5.09935137488,
			"-0.008": 4.3317355365,
			"-0.007": 6.54665888878,
			"-0.006": 5.98306287442,
			"-0.005": 7.583790602,
			"-0.004": 7.99787425046,
			"-0.003": 11.0133038862,
			"-0.002": 11.5995513439,
			"-0.001": 16.0176372308,
			"0.0": 21.2303085184,
			"0.001": 20.0027937826,
			"0.002": 13.1864741093,
			"0.003": 5.19431142376,
			"0.004": 2.73411084463,
			"0.005": 2.49267910092,
			"0.006": 2.78192431547,
			"0.007": 1.90093831275,
			"0.008": 2.87334887616,
			"0.009": 3.22000446969,
			"0.01": 4.95564771705,
			"0.011": 4.98685398566,
			"0.012": 4.14546897286,
			"0.013": 1.26151548108,
			"0.014": 0.0230434560867,
			"0.015": 0.0,
			"0.016": 0.0,
			"0.017": 0.0,
			"0.018": 0.0,
			"0.019": 0.0,
			"0.02": 0.0,
			"0.021": 0.0,
			"0.022": 0.0,
			"0.023": 0.0,
			"0.024": 0.0,
			"0.025": 0.0
		}
	}
}
