{
	 "smiles": "NCCCC1C=NNC1=O", 
	 "Tm": 489.15, 
	 "num_atms": 21, 
	 "gaussian": { 
		 "optdone": 1, 
		 "sigma_profile": "yes", 
		 "theory": "DFT", 
		 "functional": "B3LYP", 
		 "basiset": "6-31G**", 
		 "properties": { 
			 "R2extent": 2070.0879, 
			 "electric_dipole_moment_norm": 3.06617398234, 
			 "electric_quadrupole_moment_norm": 10.9123314273, 
			 "total_energy": -474.71358417, 
			 "HOMO_LUMO_gap": 0.19081, 
			 "cosmo_polarized_energy": -15.09, 
			 "cosmo_cavitation_energy": 23.96, 
			 "cosmo_dispersion_energy": -17.5, 
			 "cosmo_repulsion_energy": 1.45, 
			 "cosmo_total_nonelectrostatic_energy": 7.91, 
			 "SMD_solvation_energy": 2.36 
		},
		"coords": [
			{
				"x": -2.0764769317,
				"y": 2.0791781656,
				"z": 1.5547074816,
				"element": "N" 
			},
			{
				"x": -1.5434582738,
				"y": 1.6585559078,
				"z": 0.2590536806,
				"element": "C" 
			},
			{
				"x": -2.1808117932,
				"y": 0.3907378851,
				"z": -0.3421675279,
				"element": "C" 
			},
			{
				"x": -1.5903633806,
				"y": -0.0232075678,
				"z": -1.7110405036,
				"element": "C" 
			},
			{
				"x": -0.5696328576,
				"y": -1.1846146117,
				"z": -1.6588608681,
				"element": "C" 
			},
			{
				"x": 0.0128541886,
				"y": -1.5631807673,
				"z": -2.9935672419,
				"element": "C" 
			},
			{
				"x": 1.2993628804,
				"y": -1.5398751097,
				"z": -3.030191638,
				"element": "N" 
			},
			{
				"x": 1.7286079198,
				"y": -1.1672158094,
				"z": -1.7640811189,
				"element": "N" 
			},
			{
				"x": 0.7187071002,
				"y": -0.9118769616,
				"z": -0.8604610573,
				"element": "C" 
			},
			{
				"x": 0.8591193529,
				"y": -0.5667676203,
				"z": 0.2998500391,
				"element": "O" 
			},
			{
				"x": -1.884782304,
				"y": 1.3625570597,
				"z": 2.2512879222,
				"element": "H" 
			},
			{
				"x": -3.0897377477,
				"y": 2.1669852749,
				"z": 1.5059246755,
				"element": "H" 
			},
			{
				"x": -1.6722732721,
				"y": 2.4898219149,
				"z": -0.4479457135,
				"element": "H" 
			},
			{
				"x": -0.4676536967,
				"y": 1.5016212688,
				"z": 0.3751044651,
				"element": "H" 
			},
			{
				"x": -3.2585995177,
				"y": 0.5681450525,
				"z": -0.4572350004,
				"element": "H" 
			},
			{
				"x": -2.0773013874,
				"y": -0.432601353,
				"z": 0.3753478995,
				"element": "H" 
			},
			{
				"x": -2.3940449282,
				"y": -0.341972812,
				"z": -2.3848682909,
				"element": "H" 
			},
			{
				"x": -1.120022832,
				"y": 0.8430744121,
				"z": -2.1933067862,
				"element": "H" 
			},
			{
				"x": -1.0606060548,
				"y": -2.0546411145,
				"z": -1.1986434862,
				"element": "H" 
			},
			{
				"x": -0.5480590006,
				"y": -1.8290387047,
				"z": -3.8833001742,
				"element": "H" 
			},
			{
				"x": 2.7167725362,
				"y": -1.0675845094,
				"z": -1.5877067564,
				"element": "H" 
			}
		],
		 "valence_orbital": [ 
			{
				"type": "occ",
				"energy": -0.3284,
				"method": "rhf"
			},
			{
				"type": "occ",
				"energy": -0.31117,
				"method": "rhf"
			},
			{
				"type": "occ",
				"energy": -0.25557,
				"method": "rhf"
			},
			{
				"type": "occ",
				"energy": -0.2468,
				"method": "rhf"
			},
			{
				"type": "occ",
				"energy": -0.22435,
				"method": "rhf"
			},
			{
				"type": "unocc",
				"energy": -0.03354,
				"method": "rhf"
			},
			{
				"type": "unocc",
				"energy": 0.03357,
				"method": "rhf"
			},
			{
				"type": "unocc",
				"energy": 0.08532,
				"method": "rhf"
			},
			{
				"type": "unocc",
				"energy": 0.08733,
				"method": "rhf"
			},
			{
				"type": "unocc",
				"energy": 0.10191,
				"method": "rhf"
			}
		],
		"cosmo_sigma_profile": { 
			"-0.025": 0.0,
			"-0.024": 0.0,
			"-0.023": 0.0,
			"-0.022": 0.0,
			"-0.021": 0.0,
			"-0.02": 0.0,
			"-0.019": 0.0,
			"-0.018": 0.0,
			"-0.017": 0.0271210907007,
			"-0.016": 0.807632477014,
			"-0.015": 1.40601207048,
			"-0.014": 0.971372499461,
			"-0.013": 0.647309032281,
			"-0.012": 0.776447322177,
			"-0.011": 1.03480890939,
			"-0.01": 1.1289889513,
			"-0.009": 3.34928787825,
			"-0.008": 5.73201294849,
			"-0.007": 7.70255264909,
			"-0.006": 9.77096010785,
			"-0.005": 11.4493698937,
			"-0.004": 12.892406018,
			"-0.003": 16.3255279973,
			"-0.002": 18.9372890358,
			"-0.001": 14.7815916732,
			"0.0": 11.1850780148,
			"0.001": 9.96427982811,
			"0.002": 6.56403901435,
			"0.003": 5.63864677889,
			"0.004": 3.66243708203,
			"0.005": 4.25515969464,
			"0.006": 3.80789385516,
			"0.007": 3.33038939254,
			"0.008": 3.39555278768,
			"0.009": 4.02361768915,
			"0.01": 3.62830207964,
			"0.011": 4.10031846477,
			"0.012": 3.56394930194,
			"0.013": 5.59918445889,
			"0.014": 2.34443827499,
			"0.015": 0.931406441458,
			"0.016": 0.8917955656,
			"0.017": 0.616110221803,
			"0.018": 0.326847558596,
			"0.019": 0.708074151803,
			"0.02": 0.642254381669,
			"0.021": 0.0,
			"0.022": 0.0,
			"0.023": 0.0,
			"0.024": 0.0,
			"0.025": 0.0
		}
	}
}
