{
	 "smiles": "CC(=O)N1CCCC2=C1C=C(C=C2)S(Cl)(=O)=O", 
	 "Tm": 367.15, 
	 "num_atms": 29, 
	 "gaussian": { 
		 "optdone": 1, 
		 "sigma_profile": "yes", 
		 "theory": "DFT", 
		 "functional": "B3LYP", 
		 "basiset": "6-31G**", 
		 "properties": { 
			 "R2extent": 7919.1063, 
			 "electric_dipole_moment_norm": 5.79689089168, 
			 "electric_quadrupole_moment_norm": 25.592022904, 
			 "total_energy": -1565.16037237, 
			 "HOMO_LUMO_gap": 0.15203, 
			 "cosmo_polarized_energy": -14.76, 
			 "cosmo_cavitation_energy": 34.94, 
			 "cosmo_dispersion_energy": -25.38, 
			 "cosmo_repulsion_energy": 1.93, 
			 "cosmo_total_nonelectrostatic_energy": 11.49, 
			 "SMD_solvation_energy": 4.63 
		},
		"coords": [
			{
				"x": -2.4936992384,
				"y": -2.542998859,
				"z": 1.5106170716,
				"element": "C" 
			},
			{
				"x": -2.0825282796,
				"y": -1.9947148188,
				"z": 0.154747712,
				"element": "C" 
			},
			{
				"x": -2.456753166,
				"y": -2.5462489368,
				"z": -0.8702691475,
				"element": "O" 
			},
			{
				"x": -1.3050472936,
				"y": -0.8306730568,
				"z": 0.0847059109,
				"element": "N" 
			},
			{
				"x": -1.2146490189,
				"y": -0.1620845956,
				"z": -1.2241769153,
				"element": "C" 
			},
			{
				"x": -1.9493928032,
				"y": 1.1765626769,
				"z": -1.1494642708,
				"element": "C" 
			},
			{
				"x": -1.3011001415,
				"y": 2.0759448938,
				"z": -0.087723188,
				"element": "C" 
			},
			{
				"x": -0.7982198492,
				"y": 1.3206228853,
				"z": 1.1288711069,
				"element": "C" 
			},
			{
				"x": -0.7907290141,
				"y": -0.0944155643,
				"z": 1.1774941762,
				"element": "C" 
			},
			{
				"x": -0.2019361126,
				"y": -0.7389365709,
				"z": 2.275670268,
				"element": "C" 
			},
			{
				"x": 0.2801537311,
				"y": 0.020991538,
				"z": 3.3355511076,
				"element": "C" 
			},
			{
				"x": 0.2460029537,
				"y": 1.4148154375,
				"z": 3.3368200582,
				"element": "C" 
			},
			{
				"x": -0.2852332921,
				"y": 2.0413757255,
				"z": 2.214916082,
				"element": "C" 
			},
			{
				"x": 0.9843809106,
				"y": -0.8323345065,
				"z": 4.7360875796,
				"element": "S" 
			},
			{
				"x": 3.0423227731,
				"y": -0.9511560654,
				"z": 4.1748571867,
				"element": "Cl" 
			},
			{
				"x": 0.4951816589,
				"y": -2.2057701837,
				"z": 4.7636278354,
				"element": "O" 
			},
			{
				"x": 0.9350368548,
				"y": 0.0360662426,
				"z": 5.9055715337,
				"element": "O" 
			},
			{
				"x": -3.4343321457,
				"y": -3.0724239889,
				"z": 1.3539571876,
				"element": "H" 
			},
			{
				"x": -2.6209428878,
				"y": -1.7786068405,
				"z": 2.2787932002,
				"element": "H" 
			},
			{
				"x": -1.7637783194,
				"y": -3.2741143068,
				"z": 1.8725991001,
				"element": "H" 
			},
			{
				"x": -1.6565517396,
				"y": -0.8367812592,
				"z": -1.9548186168,
				"element": "H" 
			},
			{
				"x": -0.1570825334,
				"y": -0.0161644553,
				"z": -1.4764241305,
				"element": "H" 
			},
			{
				"x": -1.9360332351,
				"y": 1.6741799915,
				"z": -2.1246486184,
				"element": "H" 
			},
			{
				"x": -2.9988426858,
				"y": 0.9811888614,
				"z": -0.9018968022,
				"element": "H" 
			},
			{
				"x": -1.9945470176,
				"y": 2.8629283345,
				"z": 0.2307480203,
				"element": "H" 
			},
			{
				"x": -0.4405130576,
				"y": 2.5978264594,
				"z": -0.5284433173,
				"element": "H" 
			},
			{
				"x": -0.1091792616,
				"y": -1.8158642221,
				"z": 2.3027652104,
				"element": "H" 
			},
			{
				"x": 0.6227968601,
				"y": 1.9792204858,
				"z": 4.1814593554,
				"element": "H" 
			},
			{
				"x": -0.3114846494,
				"y": 3.1272646983,
				"z": 2.1773053041,
				"element": "H" 
			}
		],
		 "valence_orbital": [ 
			{
				"type": "occ",
				"energy": -0.31377,
				"method": "rhf"
			},
			{
				"type": "occ",
				"energy": -0.31326,
				"method": "rhf"
			},
			{
				"type": "occ",
				"energy": -0.28418,
				"method": "rhf"
			},
			{
				"type": "occ",
				"energy": -0.26601,
				"method": "rhf"
			},
			{
				"type": "occ",
				"energy": -0.24304,
				"method": "rhf"
			},
			{
				"type": "unocc",
				"energy": -0.09101,
				"method": "rhf"
			},
			{
				"type": "unocc",
				"energy": -0.04679,
				"method": "rhf"
			},
			{
				"type": "unocc",
				"energy": -0.04175,
				"method": "rhf"
			},
			{
				"type": "unocc",
				"energy": 0.01103,
				"method": "rhf"
			},
			{
				"type": "unocc",
				"energy": 0.04893,
				"method": "rhf"
			}
		],
		"cosmo_sigma_profile": { 
			"-0.025": 0.0,
			"-0.024": 0.0,
			"-0.023": 0.0,
			"-0.022": 0.0,
			"-0.021": 0.0,
			"-0.02": 0.0,
			"-0.019": 0.0,
			"-0.018": 0.0,
			"-0.017": 0.0,
			"-0.016": 0.0,
			"-0.015": 0.0,
			"-0.014": 0.0,
			"-0.013": 0.0,
			"-0.012": 0.0,
			"-0.011": 0.0153165786006,
			"-0.01": 0.695929476654,
			"-0.009": 1.1596121387,
			"-0.008": 4.21600171773,
			"-0.007": 5.2383467717,
			"-0.006": 10.0427137466,
			"-0.005": 21.1418128849,
			"-0.004": 28.835917866,
			"-0.003": 31.5639713292,
			"-0.002": 27.9809518444,
			"-0.001": 23.3339346557,
			"0.0": 18.4757352216,
			"0.001": 18.3979740687,
			"0.002": 14.9693782893,
			"0.003": 14.8673015001,
			"0.004": 13.195758584,
			"0.005": 4.60799468028,
			"0.006": 4.67448390265,
			"0.007": 7.06690560088,
			"0.008": 10.8981817974,
			"0.009": 6.77406264281,
			"0.01": 1.50433630826,
			"0.011": 1.84074906401,
			"0.012": 2.83703831718,
			"0.013": 4.27766229889,
			"0.014": 1.53012222818,
			"0.015": 0.0297727215415,
			"0.016": 0.0,
			"0.017": 0.0,
			"0.018": 0.0,
			"0.019": 0.0,
			"0.02": 0.0,
			"0.021": 0.0,
			"0.022": 0.0,
			"0.023": 0.0,
			"0.024": 0.0,
			"0.025": 0.0
		}
	}
}
