{
	 "smiles": "CC1=C(C)C(OCC(O)=O)=CC=C1", 
	 "Tm": 461.15, 
	 "num_atms": 25, 
	 "gaussian": { 
		 "optdone": 1, 
		 "sigma_profile": "yes", 
		 "theory": "DFT", 
		 "functional": "B3LYP", 
		 "basiset": "6-31G**", 
		 "properties": { 
			 "R2extent": 3593.7068, 
			 "electric_dipole_moment_norm": 1.11507785378, 
			 "electric_quadrupole_moment_norm": 7.527522354, 
			 "total_energy": -613.977079114, 
			 "HOMO_LUMO_gap": 0.21305, 
			 "cosmo_polarized_energy": -11.71, 
			 "cosmo_cavitation_energy": 28.79, 
			 "cosmo_dispersion_energy": -20.81, 
			 "cosmo_repulsion_energy": 1.66, 
			 "cosmo_total_nonelectrostatic_energy": 9.64, 
			 "SMD_solvation_energy": 6.65 
		},
		"coords": [
			{
				"x": -2.6378188864,
				"y": -1.375331958,
				"z": -2.2968651936,
				"element": "C" 
			},
			{
				"x": -1.9510320026,
				"y": -0.2092717626,
				"z": -1.6254017159,
				"element": "C" 
			},
			{
				"x": -1.451321946,
				"y": -0.3414862356,
				"z": -0.317216779,
				"element": "C" 
			},
			{
				"x": -1.58773858,
				"y": -1.6404913351,
				"z": 0.4418817679,
				"element": "C" 
			},
			{
				"x": -0.8165459967,
				"y": 0.768930183,
				"z": 0.2759251052,
				"element": "C" 
			},
			{
				"x": -0.3514910823,
				"y": 0.5714853453,
				"z": 1.5557132293,
				"element": "O" 
			},
			{
				"x": 0.2909752686,
				"y": 1.634664364,
				"z": 2.2126047065,
				"element": "C" 
			},
			{
				"x": 0.7314525707,
				"y": 1.2327581343,
				"z": 3.6095178144,
				"element": "C" 
			},
			{
				"x": 0.4258166515,
				"y": -0.0332944091,
				"z": 3.9421175418,
				"element": "O" 
			},
			{
				"x": 1.3074006004,
				"y": 2.0036326055,
				"z": 4.3446013336,
				"element": "O" 
			},
			{
				"x": -0.6796046083,
				"y": 1.9803847014,
				"z": -0.4088857214,
				"element": "C" 
			},
			{
				"x": -1.18223856,
				"y": 2.0907403835,
				"z": -1.7058186831,
				"element": "C" 
			},
			{
				"x": -1.8117114169,
				"y": 1.007293874,
				"z": -2.3084999689,
				"element": "C" 
			},
			{
				"x": -3.5183866905,
				"y": -1.7064519559,
				"z": -1.7331953663,
				"element": "H" 
			},
			{
				"x": -1.9736571588,
				"y": -2.2441903656,
				"z": -2.3791598892,
				"element": "H" 
			},
			{
				"x": -2.9668682635,
				"y": -1.1098498607,
				"z": -3.3047797006,
				"element": "H" 
			},
			{
				"x": -2.6411949457,
				"y": -1.9237380557,
				"z": 0.5560555567,
				"element": "H" 
			},
			{
				"x": -1.0961659578,
				"y": -2.4638426989,
				"z": -0.0904931734,
				"element": "H" 
			},
			{
				"x": -1.1465638039,
				"y": -1.5673457636,
				"z": 1.435214569,
				"element": "H" 
			},
			{
				"x": 1.1905958564,
				"y": 1.968944143,
				"z": 1.6761285271,
				"element": "H" 
			},
			{
				"x": -0.3656291213,
				"y": 2.509742648,
				"z": 2.3224167435,
				"element": "H" 
			},
			{
				"x": 0.7593493172,
				"y": -0.1562000843,
				"z": 4.8475093006,
				"element": "H" 
			},
			{
				"x": -0.1909506071,
				"y": 2.8313829851,
				"z": 0.0503185356,
				"element": "H" 
			},
			{
				"x": -1.0779347292,
				"y": 3.030033082,
				"z": -2.2412131141,
				"element": "H" 
			},
			{
				"x": -2.2014359079,
				"y": 1.0983020359,
				"z": -3.3185754258,
				"element": "H" 
			}
		],
		 "valence_orbital": [ 
			{
				"type": "occ",
				"energy": -0.32464,
				"method": "rhf"
			},
			{
				"type": "occ",
				"energy": -0.31222,
				"method": "rhf"
			},
			{
				"type": "occ",
				"energy": -0.28473,
				"method": "rhf"
			},
			{
				"type": "occ",
				"energy": -0.23494,
				"method": "rhf"
			},
			{
				"type": "occ",
				"energy": -0.21677,
				"method": "rhf"
			},
			{
				"type": "unocc",
				"energy": -0.00372,
				"method": "rhf"
			},
			{
				"type": "unocc",
				"energy": 0.00636,
				"method": "rhf"
			},
			{
				"type": "unocc",
				"energy": 0.01785,
				"method": "rhf"
			},
			{
				"type": "unocc",
				"energy": 0.06808,
				"method": "rhf"
			},
			{
				"type": "unocc",
				"energy": 0.094,
				"method": "rhf"
			}
		],
		"cosmo_sigma_profile": { 
			"-0.025": 0.0,
			"-0.024": 0.0,
			"-0.023": 0.0,
			"-0.022": 0.0,
			"-0.021": 0.0,
			"-0.02": 0.0,
			"-0.019": 0.386983241015,
			"-0.018": 1.01581056642,
			"-0.017": 0.923620779541,
			"-0.016": 0.756361945008,
			"-0.015": 0.595555582546,
			"-0.014": 0.680967295128,
			"-0.013": 0.812715025854,
			"-0.012": 0.733670266464,
			"-0.011": 0.966766045991,
			"-0.01": 0.494779457874,
			"-0.009": 0.318165392619,
			"-0.008": 5.23544085986,
			"-0.007": 9.0597954318,
			"-0.006": 6.83973655257,
			"-0.005": 8.87380866196,
			"-0.004": 18.8747328355,
			"-0.003": 18.8195437761,
			"-0.002": 16.7580400068,
			"-0.001": 16.2364851612,
			"0.0": 21.5922361067,
			"0.001": 16.1666851925,
			"0.002": 10.2372609908,
			"0.003": 10.924628147,
			"0.004": 11.2207769733,
			"0.005": 11.7028197448,
			"0.006": 11.1557291429,
			"0.007": 6.04008451198,
			"0.008": 4.23232478875,
			"0.009": 4.59219636315,
			"0.01": 2.73816283835,
			"0.011": 4.82894400704,
			"0.012": 3.43772431473,
			"0.013": 0.130346956738,
			"0.014": 0.0,
			"0.015": 0.0,
			"0.016": 0.0,
			"0.017": 0.0,
			"0.018": 0.0,
			"0.019": 0.0,
			"0.02": 0.0,
			"0.021": 0.0,
			"0.022": 0.0,
			"0.023": 0.0,
			"0.024": 0.0,
			"0.025": 0.0
		}
	}
}
