{
	 "smiles": "COC(=O)C1=CC(OC2=NC(Cl)=NC=C2)=CC=C1", 
	 "Tm": 391.15, 
	 "num_atms": 27, 
	 "gaussian": { 
		 "optdone": 1, 
		 "sigma_profile": "yes", 
		 "theory": "DFT", 
		 "functional": "B3LYP", 
		 "basiset": "6-31G**", 
		 "properties": { 
			 "R2extent": 8053.3285, 
			 "electric_dipole_moment_norm": 3.96973483623, 
			 "electric_quadrupole_moment_norm": 34.8734219914, 
			 "total_energy": -1258.06563966, 
			 "HOMO_LUMO_gap": 0.20469, 
			 "cosmo_polarized_energy": -14.71, 
			 "cosmo_cavitation_energy": 35.28, 
			 "cosmo_dispersion_energy": -25.47, 
			 "cosmo_repulsion_energy": 1.99, 
			 "cosmo_total_nonelectrostatic_energy": 11.8, 
			 "SMD_solvation_energy": 4.71 
		},
		"coords": [
			{
				"x": 3.0017645202,
				"y": 1.81420221,
				"z": 2.151981598,
				"element": "C" 
			},
			{
				"x": 1.9341505839,
				"y": 1.0656673046,
				"z": 1.5467480756,
				"element": "O" 
			},
			{
				"x": 2.2865020671,
				"y": -0.1358942879,
				"z": 1.0418231721,
				"element": "C" 
			},
			{
				"x": 3.4199770133,
				"y": -0.571699863,
				"z": 1.078994512,
				"element": "O" 
			},
			{
				"x": 1.1289821746,
				"y": -0.859424267,
				"z": 0.4356862203,
				"element": "C" 
			},
			{
				"x": -0.1604732688,
				"y": -0.3122711144,
				"z": 0.4164891478,
				"element": "C" 
			},
			{
				"x": -1.1922188993,
				"y": -1.0434314623,
				"z": -0.1636726885,
				"element": "C" 
			},
			{
				"x": -2.493258616,
				"y": -0.5430329204,
				"z": -0.1189846025,
				"element": "O" 
			},
			{
				"x": -2.9316842386,
				"y": 0.2812825565,
				"z": -1.1011389772,
				"element": "C" 
			},
			{
				"x": -4.1824430513,
				"y": 0.7012663939,
				"z": -0.9192772808,
				"element": "N" 
			},
			{
				"x": -4.6601927483,
				"y": 1.508135799,
				"z": -1.8554089144,
				"element": "C" 
			},
			{
				"x": -6.3068283141,
				"y": 2.0577248911,
				"z": -1.6104793897,
				"element": "Cl" 
			},
			{
				"x": -4.058908219,
				"y": 1.9543639332,
				"z": -2.9510134841,
				"element": "N" 
			},
			{
				"x": -2.8006057967,
				"y": 1.5148662571,
				"z": -3.1092051638,
				"element": "C" 
			},
			{
				"x": -2.1663953471,
				"y": 0.6657667186,
				"z": -2.2122072159,
				"element": "C" 
			},
			{
				"x": -0.9727161217,
				"y": -2.305446289,
				"z": -0.7149136372,
				"element": "C" 
			},
			{
				"x": 0.3161054038,
				"y": -2.8426240591,
				"z": -0.6893040516,
				"element": "C" 
			},
			{
				"x": 1.364893582,
				"y": -2.1239722523,
				"z": -0.1192946816,
				"element": "C" 
			},
			{
				"x": 3.7868879575,
				"y": 2.0215779249,
				"z": 1.4208384835,
				"element": "H" 
			},
			{
				"x": 2.5481603428,
				"y": 2.7408143924,
				"z": 2.5025952256,
				"element": "H" 
			},
			{
				"x": 3.4346968199,
				"y": 1.2572505599,
				"z": 2.9863976647,
				"element": "H" 
			},
			{
				"x": -0.3589599826,
				"y": 0.6585113554,
				"z": 0.8541425456,
				"element": "H" 
			},
			{
				"x": -2.2818153811,
				"y": 1.8633493596,
				"z": -3.9996058574,
				"element": "H" 
			},
			{
				"x": -1.1508242083,
				"y": 0.3272373759,
				"z": -2.3655921253,
				"element": "H" 
			},
			{
				"x": -1.8065952877,
				"y": -2.8519387461,
				"z": -1.1432015541,
				"element": "H" 
			},
			{
				"x": 0.4970473834,
				"y": -3.8255297468,
				"z": -1.11283479,
				"element": "H" 
			},
			{
				"x": 2.3723516319,
				"y": -2.5235520236,
				"z": -0.0873622313,
				"element": "H" 
			}
		],
		 "valence_orbital": [ 
			{
				"type": "occ",
				"energy": -0.28717,
				"method": "rhf"
			},
			{
				"type": "occ",
				"energy": -0.28315,
				"method": "rhf"
			},
			{
				"type": "occ",
				"energy": -0.27451,
				"method": "rhf"
			},
			{
				"type": "occ",
				"energy": -0.27201,
				"method": "rhf"
			},
			{
				"type": "occ",
				"energy": -0.27018,
				"method": "rhf"
			},
			{
				"type": "unocc",
				"energy": -0.06549,
				"method": "rhf"
			},
			{
				"type": "unocc",
				"energy": -0.04651,
				"method": "rhf"
			},
			{
				"type": "unocc",
				"energy": -0.03379,
				"method": "rhf"
			},
			{
				"type": "unocc",
				"energy": -0.02762,
				"method": "rhf"
			},
			{
				"type": "unocc",
				"energy": 0.03743,
				"method": "rhf"
			}
		],
		"cosmo_sigma_profile": { 
			"-0.025": 0.0,
			"-0.024": 0.0,
			"-0.023": 0.0,
			"-0.022": 0.0,
			"-0.021": 0.0,
			"-0.02": 0.0,
			"-0.019": 0.0,
			"-0.018": 0.0,
			"-0.017": 0.0,
			"-0.016": 0.0,
			"-0.015": 0.0,
			"-0.014": 0.0,
			"-0.013": 0.0,
			"-0.012": 0.0,
			"-0.011": 0.0,
			"-0.01": 0.025842841135,
			"-0.009": 2.31802955629,
			"-0.008": 6.66612779483,
			"-0.007": 11.3151552126,
			"-0.006": 16.1283311024,
			"-0.005": 19.4602651344,
			"-0.004": 21.057616664,
			"-0.003": 25.1707454108,
			"-0.002": 19.9758822158,
			"-0.001": 23.0565363055,
			"0.0": 22.6554809012,
			"0.001": 20.7728240186,
			"0.002": 19.4746240931,
			"0.003": 15.4164285445,
			"0.004": 14.273111002,
			"0.005": 9.77742352497,
			"0.006": 6.0103034976,
			"0.007": 5.51411737596,
			"0.008": 4.88872455204,
			"0.009": 4.91526366998,
			"0.01": 4.99570915919,
			"0.011": 5.81810634059,
			"0.012": 4.91153086879,
			"0.013": 1.63071048303,
			"0.014": 0.4624303856,
			"0.015": 0.0,
			"0.016": 0.0,
			"0.017": 0.0,
			"0.018": 0.0,
			"0.019": 0.0,
			"0.02": 0.0,
			"0.021": 0.0,
			"0.022": 0.0,
			"0.023": 0.0,
			"0.024": 0.0,
			"0.025": 0.0
		}
	}
}
