{
	 "smiles": "N#CCCOC1=CC=CC=C1", 
	 "Tm": 332.65, 
	 "num_atms": 20, 
	 "gaussian": { 
		 "optdone": 1, 
		 "sigma_profile": "yes", 
		 "theory": "DFT", 
		 "functional": "B3LYP", 
		 "basiset": "6-31G**", 
		 "properties": { 
			 "R2extent": 2945.0002, 
			 "electric_dipole_moment_norm": 3.04011154072, 
			 "electric_quadrupole_moment_norm": 19.8935838312, 
			 "total_energy": -478.329358238, 
			 "HOMO_LUMO_gap": 0.22139, 
			 "cosmo_polarized_energy": -10.97, 
			 "cosmo_cavitation_energy": 25.14, 
			 "cosmo_dispersion_energy": -17.99, 
			 "cosmo_repulsion_energy": 1.47, 
			 "cosmo_total_nonelectrostatic_energy": 8.62, 
			 "SMD_solvation_energy": 5.93 
		},
		"coords": [
			{
				"x": 4.1098766178,
				"y": 4.0580590587,
				"z": 0.5590342875,
				"element": "N" 
			},
			{
				"x": 3.3988846732,
				"y": 3.2631298042,
				"z": 0.1018260084,
				"element": "C" 
			},
			{
				"x": 2.4919312151,
				"y": 2.2575437484,
				"z": -0.4530215938,
				"element": "C" 
			},
			{
				"x": 1.5411055344,
				"y": 1.694869479,
				"z": 0.6110994712,
				"element": "C" 
			},
			{
				"x": 0.7314214415,
				"y": 0.7448392384,
				"z": -0.0589562142,
				"element": "O" 
			},
			{
				"x": -0.2247257662,
				"y": 0.0738908281,
				"z": 0.661398574,
				"element": "C" 
			},
			{
				"x": -0.4619157747,
				"y": 0.2621683555,
				"z": 2.0268603702,
				"element": "C" 
			},
			{
				"x": -1.4666100653,
				"y": -0.4813110176,
				"z": 2.6555921923,
				"element": "C" 
			},
			{
				"x": -2.2292646607,
				"y": -1.4019470549,
				"z": 1.9410729776,
				"element": "C" 
			},
			{
				"x": -1.9827090947,
				"y": -1.5815413683,
				"z": 0.5754561724,
				"element": "C" 
			},
			{
				"x": -0.9879173041,
				"y": -0.8506586249,
				"z": -0.064753779,
				"element": "C" 
			},
			{
				"x": 3.0784426484,
				"y": 1.4404844928,
				"z": -0.8866730307,
				"element": "H" 
			},
			{
				"x": 1.9076332178,
				"y": 2.7048226123,
				"z": -1.2642991957,
				"element": "H" 
			},
			{
				"x": 2.1121193362,
				"y": 1.2251755403,
				"z": 1.4229140256,
				"element": "H" 
			},
			{
				"x": 0.9314856076,
				"y": 2.5000601968,
				"z": 1.0420811197,
				"element": "H" 
			},
			{
				"x": 0.1177359745,
				"y": 0.9722928399,
				"z": 2.6049798209,
				"element": "H" 
			},
			{
				"x": -1.6466928859,
				"y": -0.3312106582,
				"z": 3.7162933659,
				"element": "H" 
			},
			{
				"x": -3.0064331032,
				"y": -1.9738760853,
				"z": 2.4381405782,
				"element": "H" 
			},
			{
				"x": -2.5694255733,
				"y": -2.295947093,
				"z": 0.0050666127,
				"element": "H" 
			},
			{
				"x": -0.7824420387,
				"y": -0.9764442922,
				"z": -1.1228117632,
				"element": "H" 
			}
		],
		 "valence_orbital": [ 
			{
				"type": "occ",
				"energy": -0.33103,
				"method": "rhf"
			},
			{
				"type": "occ",
				"energy": -0.33102,
				"method": "rhf"
			},
			{
				"type": "occ",
				"energy": -0.32798,
				"method": "rhf"
			},
			{
				"type": "occ",
				"energy": -0.25724,
				"method": "rhf"
			},
			{
				"type": "occ",
				"energy": -0.22928,
				"method": "rhf"
			},
			{
				"type": "unocc",
				"energy": -0.00789,
				"method": "rhf"
			},
			{
				"type": "unocc",
				"energy": 0.00514,
				"method": "rhf"
			},
			{
				"type": "unocc",
				"energy": 0.0241,
				"method": "rhf"
			},
			{
				"type": "unocc",
				"energy": 0.0331,
				"method": "rhf"
			},
			{
				"type": "unocc",
				"energy": 0.08363,
				"method": "rhf"
			}
		],
		"cosmo_sigma_profile": { 
			"-0.025": 0.0,
			"-0.024": 0.0,
			"-0.023": 0.0,
			"-0.022": 0.0,
			"-0.021": 0.0,
			"-0.02": 0.0,
			"-0.019": 0.0,
			"-0.018": 0.0,
			"-0.017": 0.0,
			"-0.016": 0.0,
			"-0.015": 0.0,
			"-0.014": 0.0,
			"-0.013": 0.0,
			"-0.012": 0.0,
			"-0.011": 0.0,
			"-0.01": 0.0,
			"-0.009": 2.14687693516,
			"-0.008": 5.71113023062,
			"-0.007": 12.2963993262,
			"-0.006": 17.4341997597,
			"-0.005": 18.1244413831,
			"-0.004": 14.4904122109,
			"-0.003": 12.9402081624,
			"-0.002": 9.47737614752,
			"-0.001": 8.97046292213,
			"0.0": 8.66277942721,
			"0.001": 9.25579001898,
			"0.002": 9.37815936721,
			"0.003": 11.3155455551,
			"0.004": 12.9295421892,
			"0.005": 13.2534252409,
			"0.006": 11.5592033486,
			"0.007": 4.42846050718,
			"0.008": 5.01688497302,
			"0.009": 3.59251327618,
			"0.01": 3.55474497496,
			"0.011": 2.41205785171,
			"0.012": 2.54047192896,
			"0.013": 1.68446504832,
			"0.014": 0.104467827731,
			"0.015": 0.0,
			"0.016": 0.0,
			"0.017": 0.0,
			"0.018": 0.0,
			"0.019": 0.0,
			"0.02": 0.0,
			"0.021": 0.0,
			"0.022": 0.0,
			"0.023": 0.0,
			"0.024": 0.0,
			"0.025": 0.0
		}
	}
}
