{
	 "smiles": "[O-][N+](=O)C1=C(C=C(Cl)C=C1)[N+]([O-])=O", 
	 "Tm": 313.65, 
	 "num_atms": 16, 
	 "gaussian": { 
		 "optdone": 1, 
		 "sigma_profile": "yes", 
		 "theory": "DFT", 
		 "functional": "B3LYP", 
		 "basiset": "6-31G**", 
		 "properties": { 
			 "R2extent": 3300.6119, 
			 "electric_dipole_moment_norm": 5.31979708072, 
			 "electric_quadrupole_moment_norm": 10.2965406419, 
			 "total_energy": -1100.80993904, 
			 "HOMO_LUMO_gap": 0.17222, 
			 "cosmo_polarized_energy": -12.01, 
			 "cosmo_cavitation_energy": 24.53, 
			 "cosmo_dispersion_energy": -17.75, 
			 "cosmo_repulsion_energy": 1.4, 
			 "cosmo_total_nonelectrostatic_energy": 8.19, 
			 "SMD_solvation_energy": 8.65 
		},
		"coords": [
			{
				"x": 0.7953544728,
				"y": -2.754085195,
				"z": -1.3500431483,
				"element": "O" 
			},
			{
				"x": 0.6930378577,
				"y": -2.5880734563,
				"z": -0.1377650329,
				"element": "N" 
			},
			{
				"x": 0.8612785089,
				"y": -3.440425382,
				"z": 0.7264189765,
				"element": "O" 
			},
			{
				"x": 0.2633269548,
				"y": -1.253328128,
				"z": 0.3129642529,
				"element": "C" 
			},
			{
				"x": 0.6813214954,
				"y": -0.6988295828,
				"z": 1.5266019755,
				"element": "C" 
			},
			{
				"x": 0.1448261236,
				"y": 0.5005925671,
				"z": 1.9772997852,
				"element": "C" 
			},
			{
				"x": -0.8048181222,
				"y": 1.1551928849,
				"z": 1.1906613558,
				"element": "C" 
			},
			{
				"x": -1.4763818638,
				"y": 2.6643873611,
				"z": 1.7483881388,
				"element": "Cl" 
			},
			{
				"x": -1.2135394193,
				"y": 0.6248982005,
				"z": -0.0336870838,
				"element": "C" 
			},
			{
				"x": -0.6759501602,
				"y": -0.5853983782,
				"z": -0.4662563388,
				"element": "C" 
			},
			{
				"x": 1.7770008644,
				"y": -1.2770809818,
				"z": 2.3317668952,
				"element": "N" 
			},
			{
				"x": 1.6413953959,
				"y": -1.2409001957,
				"z": 3.5502880955,
				"element": "O" 
			},
			{
				"x": 2.7542494511,
				"y": -1.6874642331,
				"z": 1.7192874159,
				"element": "O" 
			},
			{
				"x": 0.4789935992,
				"y": 0.9123098563,
				"z": 2.9213179423,
				"element": "H" 
			},
			{
				"x": -1.9494143151,
				"y": 1.145731801,
				"z": -0.6350557799,
				"element": "H" 
			},
			{
				"x": -0.9849808432,
				"y": -1.0328271379,
				"z": -1.4033874499,
				"element": "H" 
			}
		],
		 "valence_orbital": [ 
			{
				"type": "occ",
				"energy": -0.32653,
				"method": "rhf"
			},
			{
				"type": "occ",
				"energy": -0.32433,
				"method": "rhf"
			},
			{
				"type": "occ",
				"energy": -0.31848,
				"method": "rhf"
			},
			{
				"type": "occ",
				"energy": -0.30552,
				"method": "rhf"
			},
			{
				"type": "occ",
				"energy": -0.29154,
				"method": "rhf"
			},
			{
				"type": "unocc",
				"energy": -0.11932,
				"method": "rhf"
			},
			{
				"type": "unocc",
				"energy": -0.09362,
				"method": "rhf"
			},
			{
				"type": "unocc",
				"energy": -0.0553,
				"method": "rhf"
			},
			{
				"type": "unocc",
				"energy": -0.03907,
				"method": "rhf"
			},
			{
				"type": "unocc",
				"energy": -0.00728,
				"method": "rhf"
			}
		],
		"cosmo_sigma_profile": { 
			"-0.025": 0.0,
			"-0.024": 0.0,
			"-0.023": 0.0,
			"-0.022": 0.0,
			"-0.021": 0.0,
			"-0.02": 0.0,
			"-0.019": 0.0,
			"-0.018": 0.0,
			"-0.017": 0.0,
			"-0.016": 0.0,
			"-0.015": 0.0,
			"-0.014": 0.0,
			"-0.013": 0.0,
			"-0.012": 0.0,
			"-0.011": 0.184171428924,
			"-0.01": 4.38897311283,
			"-0.009": 8.00107122099,
			"-0.008": 6.97703284062,
			"-0.007": 5.43430074076,
			"-0.006": 5.91858259454,
			"-0.005": 6.43867881228,
			"-0.004": 13.4183383085,
			"-0.003": 16.9034295996,
			"-0.002": 18.6849103415,
			"-0.001": 13.6704481649,
			"0.0": 8.3938590042,
			"0.001": 10.4549514188,
			"0.002": 11.2577773792,
			"0.003": 12.4529734102,
			"0.004": 7.61515723533,
			"0.005": 8.47276722848,
			"0.006": 17.9580977145,
			"0.007": 13.9372270139,
			"0.008": 7.29527076371,
			"0.009": 2.67845004326,
			"0.01": 0.0,
			"0.011": 0.0,
			"0.012": 0.0,
			"0.013": 0.0,
			"0.014": 0.0,
			"0.015": 0.0,
			"0.016": 0.0,
			"0.017": 0.0,
			"0.018": 0.0,
			"0.019": 0.0,
			"0.02": 0.0,
			"0.021": 0.0,
			"0.022": 0.0,
			"0.023": 0.0,
			"0.024": 0.0,
			"0.025": 0.0
		}
	}
}
