{
	 "smiles": "NC1=C(C2=NC3=C(N2)C=CC=C3)C2=C(CCCC2)S1", 
	 "Tm": 449.15, 
	 "num_atms": 34, 
	 "gaussian": { 
		 "optdone": 1, 
		 "sigma_profile": "yes", 
		 "theory": "DFT", 
		 "functional": "B3LYP", 
		 "basiset": "6-31G**", 
		 "properties": { 
			 "R2extent": 6854.0897, 
			 "electric_dipole_moment_norm": 3.77252391643, 
			 "electric_quadrupole_moment_norm": 15.1841880632, 
			 "total_energy": -1143.10685464, 
			 "HOMO_LUMO_gap": 0.16464, 
			 "cosmo_polarized_energy": -13.22, 
			 "cosmo_cavitation_energy": 37.04, 
			 "cosmo_dispersion_energy": -28.31, 
			 "cosmo_repulsion_energy": 2.14, 
			 "cosmo_total_nonelectrostatic_energy": 10.87, 
			 "SMD_solvation_energy": 3.55 
		},
		"coords": [
			{
				"x": -0.3179100234,
				"y": 2.7523951507,
				"z": 1.4441936663,
				"element": "N" 
			},
			{
				"x": -0.7367604074,
				"y": 1.3897613624,
				"z": 1.4296557585,
				"element": "C" 
			},
			{
				"x": -0.7685734131,
				"y": 0.5447729759,
				"z": 0.3380241348,
				"element": "C" 
			},
			{
				"x": -0.3498510449,
				"y": 0.9435201968,
				"z": -1.0066118508,
				"element": "C" 
			},
			{
				"x": -0.3344457917,
				"y": 0.1648803103,
				"z": -2.076028488,
				"element": "N" 
			},
			{
				"x": 0.1336396331,
				"y": 0.9670393443,
				"z": -3.100067019,
				"element": "C" 
			},
			{
				"x": 0.4086088341,
				"y": 2.2733401534,
				"z": -2.6177532496,
				"element": "C" 
			},
			{
				"x": 0.0879789671,
				"y": 2.2240690256,
				"z": -1.2794385461,
				"element": "N" 
			},
			{
				"x": 0.8965525783,
				"y": 3.2885739967,
				"z": -3.4444862234,
				"element": "C" 
			},
			{
				"x": 1.1059274444,
				"y": 2.9635931257,
				"z": -4.7824916077,
				"element": "C" 
			},
			{
				"x": 0.8377192824,
				"y": 1.6707813104,
				"z": -5.2787126808,
				"element": "C" 
			},
			{
				"x": 0.3521882938,
				"y": 0.6637546609,
				"z": -4.4513683999,
				"element": "C" 
			},
			{
				"x": -1.2570874017,
				"y": -0.7795470145,
				"z": 0.6781640024,
				"element": "C" 
			},
			{
				"x": -1.5653295587,
				"y": -0.9047872568,
				"z": 2.0066833413,
				"element": "C" 
			},
			{
				"x": -2.0853300079,
				"y": -2.1458878283,
				"z": 2.681933702,
				"element": "C" 
			},
			{
				"x": -1.8537759358,
				"y": -3.3734661943,
				"z": 1.783890177,
				"element": "C" 
			},
			{
				"x": -2.2664129514,
				"y": -3.0717702411,
				"z": 0.3374896622,
				"element": "C" 
			},
			{
				"x": -1.4233629176,
				"y": -1.9414852475,
				"z": -0.2759915237,
				"element": "C" 
			},
			{
				"x": -1.2890361733,
				"y": 0.5793729454,
				"z": 2.8829342562,
				"element": "S" 
			},
			{
				"x": -1.0656092152,
				"y": 3.3718655986,
				"z": 1.7490882126,
				"element": "H" 
			},
			{
				"x": 0.4725712647,
				"y": 2.8962278122,
				"z": 2.068975109,
				"element": "H" 
			},
			{
				"x": 0.1450781974,
				"y": 2.9339437082,
				"z": -0.5558063649,
				"element": "H" 
			},
			{
				"x": 1.1040344452,
				"y": 4.2852984843,
				"z": -3.0665429811,
				"element": "H" 
			},
			{
				"x": 1.4845487811,
				"y": 3.7236937126,
				"z": -5.4597867071,
				"element": "H" 
			},
			{
				"x": 1.0156961405,
				"y": 1.461849578,
				"z": -6.3296043593,
				"element": "H" 
			},
			{
				"x": 0.1442503929,
				"y": -0.3328326606,
				"z": -4.8277643806,
				"element": "H" 
			},
			{
				"x": -1.6004659201,
				"y": -2.2866833824,
				"z": 3.6556235008,
				"element": "H" 
			},
			{
				"x": -3.1598481456,
				"y": -2.0355357307,
				"z": 2.888328023,
				"element": "H" 
			},
			{
				"x": -2.4134049274,
				"y": -4.2285089683,
				"z": 2.1793875314,
				"element": "H" 
			},
			{
				"x": -0.7909947447,
				"y": -3.6469695164,
				"z": 1.8104099147,
				"element": "H" 
			},
			{
				"x": -3.3271707373,
				"y": -2.7862991322,
				"z": 0.321887195,
				"element": "H" 
			},
			{
				"x": -2.17575884,
				"y": -3.9713912431,
				"z": -0.2812536381,
				"element": "H" 
			},
			{
				"x": -0.4308218045,
				"y": -2.3172530459,
				"z": -0.5585149104,
				"element": "H" 
			},
			{
				"x": -1.8616442934,
				"y": -1.5908159903,
				"z": -1.2130452566,
				"element": "H" 
			}
		],
		 "valence_orbital": [ 
			{
				"type": "occ",
				"energy": -0.25868,
				"method": "rhf"
			},
			{
				"type": "occ",
				"energy": -0.25621,
				"method": "rhf"
			},
			{
				"type": "occ",
				"energy": -0.22288,
				"method": "rhf"
			},
			{
				"type": "occ",
				"energy": -0.21405,
				"method": "rhf"
			},
			{
				"type": "occ",
				"energy": -0.19921,
				"method": "rhf"
			},
			{
				"type": "unocc",
				"energy": -0.03457,
				"method": "rhf"
			},
			{
				"type": "unocc",
				"energy": 0.00801,
				"method": "rhf"
			},
			{
				"type": "unocc",
				"energy": 0.01616,
				"method": "rhf"
			},
			{
				"type": "unocc",
				"energy": 0.03423,
				"method": "rhf"
			},
			{
				"type": "unocc",
				"energy": 0.048,
				"method": "rhf"
			}
		],
		"cosmo_sigma_profile": { 
			"-0.025": 0.0,
			"-0.024": 0.0,
			"-0.023": 0.0,
			"-0.022": 0.0,
			"-0.021": 0.0,
			"-0.02": 0.0,
			"-0.019": 0.0,
			"-0.018": 0.0,
			"-0.017": 0.0,
			"-0.016": 0.0,
			"-0.015": 0.0,
			"-0.014": 0.0,
			"-0.013": 0.827916788101,
			"-0.012": 3.29159463645,
			"-0.011": 3.36915427305,
			"-0.01": 3.46585361365,
			"-0.009": 3.72750081352,
			"-0.008": 3.2324461113,
			"-0.007": 3.58467093687,
			"-0.006": 5.91140379395,
			"-0.005": 9.64652411488,
			"-0.004": 14.2725182145,
			"-0.003": 22.3820691898,
			"-0.002": 30.9281675609,
			"-0.001": 32.5167205645,
			"0.0": 28.1711709748,
			"0.001": 21.675948343,
			"0.002": 21.771009528,
			"0.003": 20.9432248147,
			"0.004": 22.0059913361,
			"0.005": 17.7235287749,
			"0.006": 11.2064039213,
			"0.007": 5.2283448721,
			"0.008": 2.16228048692,
			"0.009": 1.72696181518,
			"0.01": 1.83196256843,
			"0.011": 1.32489906734,
			"0.012": 1.24488958882,
			"0.013": 1.17935501586,
			"0.014": 0.384813905942,
			"0.015": 0.0,
			"0.016": 0.0,
			"0.017": 0.0,
			"0.018": 0.0,
			"0.019": 0.0,
			"0.02": 0.0,
			"0.021": 0.0,
			"0.022": 0.0,
			"0.023": 0.0,
			"0.024": 0.0,
			"0.025": 0.0
		}
	}
}
