{
	 "smiles": "O=S(=O)(N1CCNCC1)C1=CNC2=C1C=CC=N2", 
	 "Tm": 481.15, 
	 "num_atms": 32, 
	 "gaussian": { 
		 "optdone": 1, 
		 "sigma_profile": "yes", 
		 "theory": "DFT", 
		 "functional": "B3LYP", 
		 "basiset": "6-31G**", 
		 "properties": { 
			 "R2extent": 4941.0099, 
			 "electric_dipole_moment_norm": 5.02441703385, 
			 "electric_quadrupole_moment_norm": 22.4985250885, 
			 "total_energy": -1195.16173812, 
			 "HOMO_LUMO_gap": 0.17974, 
			 "cosmo_polarized_energy": -21.63, 
			 "cosmo_cavitation_energy": 35.25, 
			 "cosmo_dispersion_energy": -25.66, 
			 "cosmo_repulsion_energy": 1.93, 
			 "cosmo_total_nonelectrostatic_energy": 11.52, 
			 "SMD_solvation_energy": -0.41 
		},
		"coords": [
			{
				"x": 1.1029323273,
				"y": -2.7149924374,
				"z": -0.1653064584,
				"element": "O" 
			},
			{
				"x": 0.0309929401,
				"y": -1.9616184109,
				"z": 0.4908159127,
				"element": "S" 
			},
			{
				"x": -0.8602307596,
				"y": -2.5539176544,
				"z": 1.4922416009,
				"element": "O" 
			},
			{
				"x": 0.7810157403,
				"y": -0.6649973489,
				"z": 1.2404757253,
				"element": "N" 
			},
			{
				"x": -0.0092741519,
				"y": 0.1743192501,
				"z": 2.1666388497,
				"element": "C" 
			},
			{
				"x": -0.0103306677,
				"y": 1.6354125428,
				"z": 1.7204943614,
				"element": "C" 
			},
			{
				"x": 1.3633633643,
				"y": 2.1626702356,
				"z": 1.7078484347,
				"element": "N" 
			},
			{
				"x": 2.3864849261,
				"y": 1.1550899386,
				"z": 1.3910727148,
				"element": "C" 
			},
			{
				"x": 1.873422274,
				"y": 0.0095482132,
				"z": 0.5115310289,
				"element": "C" 
			},
			{
				"x": -1.0074187598,
				"y": -1.3314978817,
				"z": -0.7929502045,
				"element": "C" 
			},
			{
				"x": -2.3533913054,
				"y": -1.077135613,
				"z": -0.6413456135,
				"element": "C" 
			},
			{
				"x": -2.8526648294,
				"y": -0.56883367,
				"z": -1.8129314802,
				"element": "N" 
			},
			{
				"x": -1.8404874218,
				"y": -0.4983020116,
				"z": -2.7520865792,
				"element": "C" 
			},
			{
				"x": -0.6490087733,
				"y": -0.9781718566,
				"z": -2.142221879,
				"element": "C" 
			},
			{
				"x": 0.4954765332,
				"y": -1.0311151382,
				"z": -2.9493869868,
				"element": "C" 
			},
			{
				"x": 0.3689787841,
				"y": -0.5848254274,
				"z": -4.2609441651,
				"element": "C" 
			},
			{
				"x": -0.8706883068,
				"y": -0.1140990934,
				"z": -4.7350859608,
				"element": "C" 
			},
			{
				"x": -1.9874291802,
				"y": -0.066652022,
				"z": -4.0015733072,
				"element": "N" 
			},
			{
				"x": 0.4173887221,
				"y": 0.0911428317,
				"z": 3.1732228191,
				"element": "H" 
			},
			{
				"x": -1.0277747062,
				"y": -0.213445385,
				"z": 2.2222218076,
				"element": "H" 
			},
			{
				"x": -0.6209737025,
				"y": 2.2219733076,
				"z": 2.4190101904,
				"element": "H" 
			},
			{
				"x": -0.5023380644,
				"y": 1.6936118747,
				"z": 0.7351413161,
				"element": "H" 
			},
			{
				"x": 1.4235829969,
				"y": 2.9344440931,
				"z": 1.0528522239,
				"element": "H" 
			},
			{
				"x": 3.2271019112,
				"y": 1.6459367281,
				"z": 0.8915193539,
				"element": "H" 
			},
			{
				"x": 2.7814293277,
				"y": 0.7252336483,
				"z": 2.3208390484,
				"element": "H" 
			},
			{
				"x": 1.5303926113,
				"y": 0.4127193621,
				"z": -0.4542024785,
				"element": "H" 
			},
			{
				"x": 2.6638985098,
				"y": -0.7182325697,
				"z": 0.3152057897,
				"element": "H" 
			},
			{
				"x": -2.9808956234,
				"y": -1.2544574664,
				"z": 0.2190906397,
				"element": "H" 
			},
			{
				"x": -3.8139838567,
				"y": -0.3267820174,
				"z": -1.9997215577,
				"element": "H" 
			},
			{
				"x": 1.4309576064,
				"y": -1.4216332616,
				"z": -2.563641499,
				"element": "H" 
			},
			{
				"x": 1.2204096594,
				"y": -0.603792282,
				"z": -4.933297285,
				"element": "H" 
			},
			{
				"x": -0.9607381253,
				"y": 0.2337995218,
				"z": -5.7618263625,
				"element": "H" 
			}
		],
		 "valence_orbital": [ 
			{
				"type": "occ",
				"energy": -0.27401,
				"method": "rhf"
			},
			{
				"type": "occ",
				"energy": -0.26135,
				"method": "rhf"
			},
			{
				"type": "occ",
				"energy": -0.25057,
				"method": "rhf"
			},
			{
				"type": "occ",
				"energy": -0.23129,
				"method": "rhf"
			},
			{
				"type": "occ",
				"energy": -0.22517,
				"method": "rhf"
			},
			{
				"type": "unocc",
				"energy": -0.04543,
				"method": "rhf"
			},
			{
				"type": "unocc",
				"energy": 0.00239,
				"method": "rhf"
			},
			{
				"type": "unocc",
				"energy": 0.01039,
				"method": "rhf"
			},
			{
				"type": "unocc",
				"energy": 0.05914,
				"method": "rhf"
			},
			{
				"type": "unocc",
				"energy": 0.06601,
				"method": "rhf"
			}
		],
		"cosmo_sigma_profile": { 
			"-0.025": 0.0,
			"-0.024": 0.0,
			"-0.023": 0.0,
			"-0.022": 0.0,
			"-0.021": 0.0,
			"-0.02": 0.0,
			"-0.019": 0.0,
			"-0.018": 0.0268658071855,
			"-0.017": 1.1434452064,
			"-0.016": 1.32254225019,
			"-0.015": 1.5626655234,
			"-0.014": 1.06974089476,
			"-0.013": 0.802897017965,
			"-0.012": 0.968819293161,
			"-0.011": 1.90922149101,
			"-0.01": 3.82635346241,
			"-0.009": 3.67660575285,
			"-0.008": 3.56566040397,
			"-0.007": 4.83206539435,
			"-0.006": 12.0604402395,
			"-0.005": 18.2396727523,
			"-0.004": 24.2943295855,
			"-0.003": 30.1933916431,
			"-0.002": 23.4309819526,
			"-0.001": 15.8928907585,
			"0.0": 16.7006676313,
			"0.001": 16.4594668144,
			"0.002": 15.0998564358,
			"0.003": 14.4401553178,
			"0.004": 8.35784614931,
			"0.005": 6.43392842942,
			"0.006": 6.19576591826,
			"0.007": 6.05722420977,
			"0.008": 6.65435740808,
			"0.009": 4.83885420767,
			"0.01": 7.2904175094,
			"0.011": 8.50883593884,
			"0.012": 7.31454620657,
			"0.013": 2.0186375385,
			"0.014": 1.24027793878,
			"0.015": 1.34819727565,
			"0.016": 0.488895841209,
			"0.017": 0.339190119447,
			"0.018": 0.470640717974,
			"0.019": 0.00466439278698,
			"0.02": 0.0,
			"0.021": 0.0,
			"0.022": 0.0,
			"0.023": 0.0,
			"0.024": 0.0,
			"0.025": 0.0
		}
	}
}
