{
	 "smiles": "NC1=CC=C(C=C1)C(=O)CC#N", 
	 "Tm": 432.15, 
	 "num_atms": 20, 
	 "gaussian": { 
		 "optdone": 1, 
		 "sigma_profile": "yes", 
		 "theory": "DFT", 
		 "functional": "B3LYP", 
		 "basiset": "6-31G**", 
		 "properties": { 
			 "R2extent": 2536.9536, 
			 "electric_dipole_moment_norm": 5.51807656888, 
			 "electric_quadrupole_moment_norm": 22.317093647, 
			 "total_energy": -532.491336541, 
			 "HOMO_LUMO_gap": 0.16614, 
			 "cosmo_polarized_energy": -18.11, 
			 "cosmo_cavitation_energy": 25.56, 
			 "cosmo_dispersion_energy": -18.02, 
			 "cosmo_repulsion_energy": 1.45, 
			 "cosmo_total_nonelectrostatic_energy": 8.98, 
			 "SMD_solvation_energy": 6.26 
		},
		"coords": [
			{
				"x": 2.9278178531,
				"y": 2.2743784654,
				"z": -0.4739049589,
				"element": "N" 
			},
			{
				"x": 1.7584404082,
				"y": 1.559017784,
				"z": -0.6198872705,
				"element": "C" 
			},
			{
				"x": 1.5432276445,
				"y": 0.3729662277,
				"z": 0.1112292721,
				"element": "C" 
			},
			{
				"x": 0.3487510844,
				"y": -0.3205793222,
				"z": -0.007258467,
				"element": "C" 
			},
			{
				"x": -0.6760494449,
				"y": 0.1378055967,
				"z": -0.8553928865,
				"element": "C" 
			},
			{
				"x": -0.4556356701,
				"y": 1.3253572416,
				"z": -1.5814132171,
				"element": "C" 
			},
			{
				"x": 0.7316408392,
				"y": 2.024268695,
				"z": -1.4709606497,
				"element": "C" 
			},
			{
				"x": -1.9725367504,
				"y": -0.5458407539,
				"z": -1.0210184188,
				"element": "C" 
			},
			{
				"x": -2.8640890965,
				"y": -0.1148348472,
				"z": -1.7352072045,
				"element": "O" 
			},
			{
				"x": -2.2524703753,
				"y": -1.8517160104,
				"z": -0.2244586935,
				"element": "C" 
			},
			{
				"x": -1.3779037116,
				"y": -2.9688819985,
				"z": -0.5772950398,
				"element": "C" 
			},
			{
				"x": -0.6786808601,
				"y": -3.8506604033,
				"z": -0.8634010567,
				"element": "N" 
			},
			{
				"x": 3.7251722918,
				"y": 1.7924385533,
				"z": -0.0869038653,
				"element": "H" 
			},
			{
				"x": 3.1568722479,
				"y": 2.9450051643,
				"z": -1.191942177,
				"element": "H" 
			},
			{
				"x": 2.3233046144,
				"y": 0.0017309886,
				"z": 0.7703969045,
				"element": "H" 
			},
			{
				"x": 0.228302299,
				"y": -1.2369339215,
				"z": 0.5609613706,
				"element": "H" 
			},
			{
				"x": -1.246162996,
				"y": 1.6781749906,
				"z": -2.2353323663,
				"element": "H" 
			},
			{
				"x": 0.8823636647,
				"y": 2.939092544,
				"z": -2.0384268522,
				"element": "H" 
			},
			{
				"x": -2.1625895914,
				"y": -1.6583671441,
				"z": 0.8514111328,
				"element": "H" 
			},
			{
				"x": -3.290074451,
				"y": -2.1220218501,
				"z": -0.4356955562,
				"element": "H" 
			}
		],
		 "valence_orbital": [ 
			{
				"type": "occ",
				"energy": -0.32559,
				"method": "rhf"
			},
			{
				"type": "occ",
				"energy": -0.32035,
				"method": "rhf"
			},
			{
				"type": "occ",
				"energy": -0.26663,
				"method": "rhf"
			},
			{
				"type": "occ",
				"energy": -0.25677,
				"method": "rhf"
			},
			{
				"type": "occ",
				"energy": -0.223,
				"method": "rhf"
			},
			{
				"type": "unocc",
				"energy": -0.05686,
				"method": "rhf"
			},
			{
				"type": "unocc",
				"energy": -0.01408,
				"method": "rhf"
			},
			{
				"type": "unocc",
				"energy": 0.02916,
				"method": "rhf"
			},
			{
				"type": "unocc",
				"energy": 0.03682,
				"method": "rhf"
			},
			{
				"type": "unocc",
				"energy": 0.05013,
				"method": "rhf"
			}
		],
		"cosmo_sigma_profile": { 
			"-0.025": 0.0,
			"-0.024": 0.0,
			"-0.023": 0.0,
			"-0.022": 0.0,
			"-0.021": 0.0,
			"-0.02": 0.0,
			"-0.019": 0.0,
			"-0.018": 0.0,
			"-0.017": 0.0,
			"-0.016": 0.0,
			"-0.015": 0.0,
			"-0.014": 0.947765490107,
			"-0.013": 3.40048101783,
			"-0.012": 2.04476359181,
			"-0.011": 3.27771985225,
			"-0.01": 6.09621767854,
			"-0.009": 7.51582980227,
			"-0.008": 7.55834088975,
			"-0.007": 8.38325370433,
			"-0.006": 11.0614750494,
			"-0.005": 10.5964312704,
			"-0.004": 9.65572703259,
			"-0.003": 8.56374184802,
			"-0.002": 7.93907989569,
			"-0.001": 7.88526239623,
			"0.0": 8.16837287226,
			"0.001": 9.81564250036,
			"0.002": 11.9070138883,
			"0.003": 13.9881608479,
			"0.004": 17.6630027297,
			"0.005": 7.57753548991,
			"0.006": 3.98715311156,
			"0.007": 4.90371526323,
			"0.008": 5.64182821854,
			"0.009": 5.67738883231,
			"0.01": 5.7987431392,
			"0.011": 6.76068530672,
			"0.012": 5.96265946017,
			"0.013": 1.97124264016,
			"0.014": 0.0885526844072,
			"0.015": 0.0,
			"0.016": 0.0,
			"0.017": 0.0,
			"0.018": 0.0,
			"0.019": 0.0,
			"0.02": 0.0,
			"0.021": 0.0,
			"0.022": 0.0,
			"0.023": 0.0,
			"0.024": 0.0,
			"0.025": 0.0
		}
	}
}
