{
	 "smiles": "CC1=C(NC(=O)C2=CC=CS2)C=CC(=C1)C(O)=O", 
	 "Tm": 473.15, 
	 "num_atms": 29, 
	 "gaussian": { 
		 "optdone": 1, 
		 "sigma_profile": "yes", 
		 "theory": "DFT", 
		 "functional": "B3LYP", 
		 "basiset": "6-31G**", 
		 "properties": { 
			 "R2extent": 5973.3716, 
			 "electric_dipole_moment_norm": 2.82917511123, 
			 "electric_quadrupole_moment_norm": 16.9217995724, 
			 "total_energy": -1180.64529756, 
			 "HOMO_LUMO_gap": 0.18118, 
			 "cosmo_polarized_energy": -17.33, 
			 "cosmo_cavitation_energy": 35.34, 
			 "cosmo_dispersion_energy": -25.15, 
			 "cosmo_repulsion_energy": 1.9, 
			 "cosmo_total_nonelectrostatic_energy": 12.08, 
			 "SMD_solvation_energy": 8.01 
		},
		"coords": [
			{
				"x": -1.0747043981,
				"y": -1.7081178033,
				"z": 0.1196074644,
				"element": "C" 
			},
			{
				"x": 0.3847552446,
				"y": -1.4354966494,
				"z": 0.3853498849,
				"element": "C" 
			},
			{
				"x": 1.2438738432,
				"y": -0.9232967753,
				"z": -0.6119404898,
				"element": "C" 
			},
			{
				"x": 0.7746579844,
				"y": -0.657294506,
				"z": -1.9301594415,
				"element": "N" 
			},
			{
				"x": -0.1942042816,
				"y": 0.2135522801,
				"z": -2.39870287,
				"element": "C" 
			},
			{
				"x": -0.6078913017,
				"y": 0.1014731079,
				"z": -3.5497095612,
				"element": "O" 
			},
			{
				"x": -0.6819587474,
				"y": 1.3012222906,
				"z": -1.5212269773,
				"element": "C" 
			},
			{
				"x": -0.184505767,
				"y": 1.8707508597,
				"z": -0.3678717332,
				"element": "C" 
			},
			{
				"x": -0.9619626932,
				"y": 2.9709212675,
				"z": 0.0873243709,
				"element": "C" 
			},
			{
				"x": -2.03630922,
				"y": 3.2254932057,
				"z": -0.7272121534,
				"element": "C" 
			},
			{
				"x": -2.1102337923,
				"y": 2.1447327257,
				"z": -2.0695133777,
				"element": "S" 
			},
			{
				"x": 2.6089414133,
				"y": -0.7362292477,
				"z": -0.3487802266,
				"element": "C" 
			},
			{
				"x": 3.1373289632,
				"y": -1.0264667284,
				"z": 0.9023549678,
				"element": "C" 
			},
			{
				"x": 2.2937728754,
				"y": -1.5057670239,
				"z": 1.911605072,
				"element": "C" 
			},
			{
				"x": 0.9343584532,
				"y": -1.7060535127,
				"z": 1.6426098523,
				"element": "C" 
			},
			{
				"x": 2.8912812744,
				"y": -1.797806997,
				"z": 3.2411365544,
				"element": "C" 
			},
			{
				"x": 1.9881604951,
				"y": -2.2591817861,
				"z": 4.1425558472,
				"element": "O" 
			},
			{
				"x": 4.0641753979,
				"y": -1.6476467528,
				"z": 3.5220342731,
				"element": "O" 
			},
			{
				"x": -1.481741431,
				"y": -2.3870807417,
				"z": 0.8730048603,
				"element": "H" 
			},
			{
				"x": -1.2220299156,
				"y": -2.1573037184,
				"z": -0.8670186236,
				"element": "H" 
			},
			{
				"x": -1.6665434011,
				"y": -0.78662258,
				"z": 0.1440936531,
				"element": "H" 
			},
			{
				"x": 1.1402808831,
				"y": -1.2353105785,
				"z": -2.6778903372,
				"element": "H" 
			},
			{
				"x": 0.7120555847,
				"y": 1.526482695,
				"z": 0.1306051532,
				"element": "H" 
			},
			{
				"x": -0.7307739874,
				"y": 3.5466524088,
				"z": 0.9761311817,
				"element": "H" 
			},
			{
				"x": -2.7870049188,
				"y": 3.9957748866,
				"z": -0.6116590931,
				"element": "H" 
			},
			{
				"x": 3.2435601567,
				"y": -0.348693747,
				"z": -1.1400602767,
				"element": "H" 
			},
			{
				"x": 4.1899975035,
				"y": -0.8825707425,
				"z": 1.119272142,
				"element": "H" 
			},
			{
				"x": 0.2953100117,
				"y": -2.1013622687,
				"z": 2.4248367652,
				"element": "H" 
			},
			{
				"x": 2.4884537708,
				"y": -2.4145535684,
				"z": 4.9604231189,
				"element": "H" 
			}
		],
		 "valence_orbital": [ 
			{
				"type": "occ",
				"energy": -0.2661,
				"method": "rhf"
			},
			{
				"type": "occ",
				"energy": -0.26431,
				"method": "rhf"
			},
			{
				"type": "occ",
				"energy": -0.25975,
				"method": "rhf"
			},
			{
				"type": "occ",
				"energy": -0.24814,
				"method": "rhf"
			},
			{
				"type": "occ",
				"energy": -0.24323,
				"method": "rhf"
			},
			{
				"type": "unocc",
				"energy": -0.06205,
				"method": "rhf"
			},
			{
				"type": "unocc",
				"energy": -0.04633,
				"method": "rhf"
			},
			{
				"type": "unocc",
				"energy": -0.01967,
				"method": "rhf"
			},
			{
				"type": "unocc",
				"energy": 0.0289,
				"method": "rhf"
			},
			{
				"type": "unocc",
				"energy": 0.03337,
				"method": "rhf"
			}
		],
		"cosmo_sigma_profile": { 
			"-0.025": 0.0,
			"-0.024": 0.0,
			"-0.023": 0.0,
			"-0.022": 0.0,
			"-0.021": 0.0,
			"-0.02": 0.0,
			"-0.019": 0.00324769665831,
			"-0.018": 0.739855828247,
			"-0.017": 1.08599056463,
			"-0.016": 0.434518734348,
			"-0.015": 1.18827016296,
			"-0.014": 2.19977606922,
			"-0.013": 0.988585752418,
			"-0.012": 1.8336644206,
			"-0.011": 1.68738100263,
			"-0.01": 2.27789603322,
			"-0.009": 2.71974718974,
			"-0.008": 3.67998218041,
			"-0.007": 7.25116425487,
			"-0.006": 12.3165504895,
			"-0.005": 15.4850985802,
			"-0.004": 14.9465921465,
			"-0.003": 16.3053815468,
			"-0.002": 24.7714717525,
			"-0.001": 23.6776185173,
			"0.0": 25.2759059759,
			"0.001": 23.0691390727,
			"0.002": 25.2628596486,
			"0.003": 21.8986841091,
			"0.004": 11.0047266195,
			"0.005": 5.58777158966,
			"0.006": 5.02859070911,
			"0.007": 4.34062761069,
			"0.008": 3.48297919921,
			"0.009": 2.78463484899,
			"0.01": 3.72289485055,
			"0.011": 5.68302751407,
			"0.012": 6.46888198251,
			"0.013": 6.06634746005,
			"0.014": 1.25619173369,
			"0.015": 0.0,
			"0.016": 0.0,
			"0.017": 0.0,
			"0.018": 0.0,
			"0.019": 0.0,
			"0.02": 0.0,
			"0.021": 0.0,
			"0.022": 0.0,
			"0.023": 0.0,
			"0.024": 0.0,
			"0.025": 0.0
		}
	}
}
