{
	 "smiles": "OCCCCC(O)CO", 
	 "Tm": 301.65, 
	 "num_atms": 23, 
	 "gaussian": { 
		 "optdone": 1, 
		 "sigma_profile": "yes", 
		 "theory": "DFT", 
		 "functional": "B3LYP", 
		 "basiset": "6-31G**", 
		 "properties": { 
			 "R2extent": 2460.5985, 
			 "electric_dipole_moment_norm": 1.70435031904, 
			 "electric_quadrupole_moment_norm": 13.5952570829, 
			 "total_energy": -462.723439257, 
			 "HOMO_LUMO_gap": 0.31452, 
			 "cosmo_polarized_energy": -15.24, 
			 "cosmo_cavitation_energy": 25.04, 
			 "cosmo_dispersion_energy": -18.08, 
			 "cosmo_repulsion_energy": 1.53, 
			 "cosmo_total_nonelectrostatic_energy": 8.49, 
			 "SMD_solvation_energy": 3.89 
		},
		"coords": [
			{
				"x": 1.8373621364,
				"y": 4.1357774635,
				"z": 1.1505806274,
				"element": "O" 
			},
			{
				"x": 0.6058379463,
				"y": 3.5664186134,
				"z": 1.5802780762,
				"element": "C" 
			},
			{
				"x": 0.3204151202,
				"y": 2.1995024454,
				"z": 0.9502903929,
				"element": "C" 
			},
			{
				"x": 0.2705395838,
				"y": 2.2463829507,
				"z": -0.5831761415,
				"element": "C" 
			},
			{
				"x": 0.1591846333,
				"y": 0.8760229795,
				"z": -1.269687,
				"element": "C" 
			},
			{
				"x": -1.1448439611,
				"y": 0.1127212171,
				"z": -0.999723167,
				"element": "C" 
			},
			{
				"x": -2.2884813914,
				"y": 0.82777866,
				"z": -1.4669726656,
				"element": "O" 
			},
			{
				"x": -1.1952890428,
				"y": -1.2341500301,
				"z": -1.7311535007,
				"element": "C" 
			},
			{
				"x": -0.1663556539,
				"y": -2.1234383205,
				"z": -1.3197763331,
				"element": "O" 
			},
			{
				"x": 2.5499283898,
				"y": 3.5636967528,
				"z": 1.4645638022,
				"element": "H" 
			},
			{
				"x": -0.1656145277,
				"y": 4.2856557281,
				"z": 1.2819719442,
				"element": "H" 
			},
			{
				"x": 0.566579778,
				"y": 3.4871103424,
				"z": 2.678150872,
				"element": "H" 
			},
			{
				"x": 1.0973459076,
				"y": 1.4887605077,
				"z": 1.2711669002,
				"element": "H" 
			},
			{
				"x": -0.6218479382,
				"y": 1.8188595646,
				"z": 1.3673262639,
				"element": "H" 
			},
			{
				"x": -0.5647891733,
				"y": 2.8863259624,
				"z": -0.9034652801,
				"element": "H" 
			},
			{
				"x": 1.1744972895,
				"y": 2.753530302,
				"z": -0.9363378372,
				"element": "H" 
			},
			{
				"x": 0.9995118723,
				"y": 0.2462047749,
				"z": -0.9466165097,
				"element": "H" 
			},
			{
				"x": 0.2514766504,
				"y": 1.0130353867,
				"z": -2.3557619708,
				"element": "H" 
			},
			{
				"x": -1.2306110795,
				"y": -0.0955995448,
				"z": 0.0787652828,
				"element": "H" 
			},
			{
				"x": -2.3833509468,
				"y": 1.6286457457,
				"z": -0.9377846555,
				"element": "H" 
			},
			{
				"x": -2.1465018793,
				"y": -1.7211480896,
				"z": -1.4984824061,
				"element": "H" 
			},
			{
				"x": -1.1761220766,
				"y": -1.0510544355,
				"z": -2.8163782354,
				"element": "H" 
			},
			{
				"x": 0.6509283631,
				"y": -1.8574389766,
				"z": -1.757578459,
				"element": "H" 
			}
		],
		 "valence_orbital": [ 
			{
				"type": "occ",
				"energy": -0.32278,
				"method": "rhf"
			},
			{
				"type": "occ",
				"energy": -0.31794,
				"method": "rhf"
			},
			{
				"type": "occ",
				"energy": -0.271,
				"method": "rhf"
			},
			{
				"type": "occ",
				"energy": -0.26981,
				"method": "rhf"
			},
			{
				"type": "occ",
				"energy": -0.26226,
				"method": "rhf"
			},
			{
				"type": "unocc",
				"energy": 0.05226,
				"method": "rhf"
			},
			{
				"type": "unocc",
				"energy": 0.07227,
				"method": "rhf"
			},
			{
				"type": "unocc",
				"energy": 0.07792,
				"method": "rhf"
			},
			{
				"type": "unocc",
				"energy": 0.11403,
				"method": "rhf"
			},
			{
				"type": "unocc",
				"energy": 0.11955,
				"method": "rhf"
			}
		],
		"cosmo_sigma_profile": { 
			"-0.025": 0.0,
			"-0.024": 0.0,
			"-0.023": 0.0,
			"-0.022": 0.0,
			"-0.021": 0.0,
			"-0.02": 0.0,
			"-0.019": 0.0,
			"-0.018": 0.0,
			"-0.017": 0.0,
			"-0.016": 0.0,
			"-0.015": 1.28939321032,
			"-0.014": 2.61590352638,
			"-0.013": 2.98832597666,
			"-0.012": 2.36414764545,
			"-0.011": 2.8253542529,
			"-0.01": 3.6353136775,
			"-0.009": 2.52462108548,
			"-0.008": 2.50032652004,
			"-0.007": 3.96141307418,
			"-0.006": 4.43327816888,
			"-0.005": 4.70320087051,
			"-0.004": 10.0667226233,
			"-0.003": 20.8383726802,
			"-0.002": 23.2387191013,
			"-0.001": 21.3624813174,
			"0.0": 15.3302392327,
			"0.001": 10.3204317641,
			"0.002": 6.26262039048,
			"0.003": 3.79333096503,
			"0.004": 3.62380154577,
			"0.005": 4.1866429334,
			"0.006": 3.51154791365,
			"0.007": 4.5525384881,
			"0.008": 3.27814835011,
			"0.009": 3.60412368559,
			"0.01": 3.85387960863,
			"0.011": 3.47882489415,
			"0.012": 4.36890090027,
			"0.013": 4.29923746924,
			"0.014": 6.2700297043,
			"0.015": 1.76972825193,
			"0.016": 0.0,
			"0.017": 0.0,
			"0.018": 0.0,
			"0.019": 0.0,
			"0.02": 0.0,
			"0.021": 0.0,
			"0.022": 0.0,
			"0.023": 0.0,
			"0.024": 0.0,
			"0.025": 0.0
		}
	}
}
