{
	 "smiles": "OC1=CC=C(OC(F)(F)F)C=C1", 
	 "Tm": 290.65, 
	 "num_atms": 17, 
	 "gaussian": { 
		 "optdone": 1, 
		 "sigma_profile": "yes", 
		 "theory": "DFT", 
		 "functional": "B3LYP", 
		 "basiset": "6-31G**", 
		 "properties": { 
			 "R2extent": 2812.8017, 
			 "electric_dipole_moment_norm": 2.73606859563, 
			 "electric_quadrupole_moment_norm": 9.75860121739, 
			 "total_energy": -719.721050579, 
			 "HOMO_LUMO_gap": 0.20608, 
			 "cosmo_polarized_energy": -8.04, 
			 "cosmo_cavitation_energy": 23.03, 
			 "cosmo_dispersion_energy": -16.88, 
			 "cosmo_repulsion_energy": 1.29, 
			 "cosmo_total_nonelectrostatic_energy": 7.43, 
			 "SMD_solvation_energy": 5.91 
		},
		"coords": [
			{
				"x": -2.2158557262,
				"y": -1.8522578992,
				"z": 1.857833202,
				"element": "O" 
			},
			{
				"x": -1.5851098342,
				"y": -1.1630684951,
				"z": 0.8607060718,
				"element": "C" 
			},
			{
				"x": -0.3963594326,
				"y": -1.6993272923,
				"z": 0.3574011893,
				"element": "C" 
			},
			{
				"x": 0.3010943305,
				"y": -1.0507694915,
				"z": -0.6600272865,
				"element": "C" 
			},
			{
				"x": -0.2010215607,
				"y": 0.1455317641,
				"z": -1.1745106524,
				"element": "C" 
			},
			{
				"x": 0.3984607697,
				"y": 0.8974296103,
				"z": -2.1947011479,
				"element": "O" 
			},
			{
				"x": 1.5524303793,
				"y": 0.4989694864,
				"z": -2.7735003494,
				"element": "C" 
			},
			{
				"x": 1.8720674849,
				"y": 1.405951427,
				"z": -3.6966102116,
				"element": "F" 
			},
			{
				"x": 1.445180023,
				"y": -0.7030018374,
				"z": -3.3773938729,
				"element": "F" 
			},
			{
				"x": 2.572534895,
				"y": 0.4085910662,
				"z": -1.8947922129,
				"element": "F" 
			},
			{
				"x": -1.3839241681,
				"y": 0.6894856726,
				"z": -0.6814656505,
				"element": "C" 
			},
			{
				"x": -2.0768263089,
				"y": 0.0368171492,
				"z": 0.3355662618,
				"element": "C" 
			},
			{
				"x": -3.0180360698,
				"y": -1.3796699551,
				"z": 2.114450197,
				"element": "H" 
			},
			{
				"x": -0.0244582231,
				"y": -2.6300595365,
				"z": 0.771958381,
				"element": "H" 
			},
			{
				"x": 1.2190856351,
				"y": -1.4829691875,
				"z": -1.0351822184,
				"element": "H" 
			},
			{
				"x": -1.7515423049,
				"y": 1.6203517884,
				"z": -1.0993523797,
				"element": "H" 
			},
			{
				"x": -3.000519889,
				"y": 0.4648957305,
				"z": 0.7181206794,
				"element": "H" 
			}
		],
		 "valence_orbital": [ 
			{
				"type": "occ",
				"energy": -0.37906,
				"method": "rhf"
			},
			{
				"type": "occ",
				"energy": -0.35125,
				"method": "rhf"
			},
			{
				"type": "occ",
				"energy": -0.326,
				"method": "rhf"
			},
			{
				"type": "occ",
				"energy": -0.26631,
				"method": "rhf"
			},
			{
				"type": "occ",
				"energy": -0.22273,
				"method": "rhf"
			},
			{
				"type": "unocc",
				"energy": -0.01665,
				"method": "rhf"
			},
			{
				"type": "unocc",
				"energy": 0.00705,
				"method": "rhf"
			},
			{
				"type": "unocc",
				"energy": 0.06206,
				"method": "rhf"
			},
			{
				"type": "unocc",
				"energy": 0.08318,
				"method": "rhf"
			},
			{
				"type": "unocc",
				"energy": 0.13527,
				"method": "rhf"
			}
		],
		"cosmo_sigma_profile": { 
			"-0.025": 0.0,
			"-0.024": 0.0,
			"-0.023": 0.0,
			"-0.022": 0.0,
			"-0.021": 0.0,
			"-0.02": 0.0,
			"-0.019": 0.0,
			"-0.018": 0.633563498755,
			"-0.017": 1.24236964663,
			"-0.016": 0.906190376968,
			"-0.015": 1.19128325685,
			"-0.014": 1.17432463974,
			"-0.013": 0.940699835661,
			"-0.012": 0.57448896623,
			"-0.011": 1.07779596214,
			"-0.01": 1.35822347906,
			"-0.009": 1.29891584394,
			"-0.008": 1.74122373847,
			"-0.007": 5.20595361245,
			"-0.006": 6.2880705206,
			"-0.005": 7.06631550285,
			"-0.004": 7.14380085693,
			"-0.003": 5.38844733128,
			"-0.002": 7.56630571003,
			"-0.001": 8.56375406742,
			"0.0": 14.029861297,
			"0.001": 24.7727664373,
			"0.002": 39.8839667158,
			"0.003": 18.3982309056,
			"0.004": 13.369278554,
			"0.005": 3.86068254538,
			"0.006": 3.10961051388,
			"0.007": 1.58003291217,
			"0.008": 1.66040202819,
			"0.009": 0.292849505821,
			"0.01": 2.05152959187,
			"0.011": 2.17652385921,
			"0.012": 0.232750154688,
			"0.013": 0.0,
			"0.014": 0.0,
			"0.015": 0.0,
			"0.016": 0.0,
			"0.017": 0.0,
			"0.018": 0.0,
			"0.019": 0.0,
			"0.02": 0.0,
			"0.021": 0.0,
			"0.022": 0.0,
			"0.023": 0.0,
			"0.024": 0.0,
			"0.025": 0.0
		}
	}
}
