{
	 "smiles": "CCCCCCCCCCCCCCCCCCCCCCCCCCCCCC", 
	 "Tm": 339.55, 
	 "num_atms": 92, 
	 "gaussian": { 
		 "optdone": 1, 
		 "sigma_profile": "yes", 
		 "theory": "DFT", 
		 "functional": "B3LYP", 
		 "basiset": "6-31G**", 
		 "properties": { 
			 "R2extent": 30188.5176, 
			 "electric_dipole_moment_norm": 0.10415536472, 
			 "electric_quadrupole_moment_norm": 0.427461951523, 
			 "total_energy": -1180.65312456, 
			 "HOMO_LUMO_gap": 0.36191, 
			 "cosmo_polarized_energy": -1.8, 
			 "cosmo_cavitation_energy": 85.77, 
			 "cosmo_dispersion_energy": -51.98, 
			 "cosmo_repulsion_energy": 4.19, 
			 "cosmo_total_nonelectrostatic_energy": 37.99, 
			 "SMD_solvation_energy": 10.33 
		},
		"coords": [
			{
				"x": -6.3087411978,
				"y": 1.3631525314,
				"z": 0.4348152071,
				"element": "C" 
			},
			{
				"x": -6.895498279,
				"y": 1.0015037756,
				"z": -0.9334458723,
				"element": "C" 
			},
			{
				"x": -5.9232340243,
				"y": 1.2475892514,
				"z": -2.0946025435,
				"element": "C" 
			},
			{
				"x": -6.50832487,
				"y": 0.8690890384,
				"z": -3.46417112,
				"element": "C" 
			},
			{
				"x": -5.559714338,
				"y": 1.0431435175,
				"z": -4.6705066633,
				"element": "C" 
			},
			{
				"x": -5.5895704476,
				"y": 2.4170152784,
				"z": -5.3694616784,
				"element": "C" 
			},
			{
				"x": -5.1083916435,
				"y": 3.638104761,
				"z": -4.5666948748,
				"element": "C" 
			},
			{
				"x": -3.6344314979,
				"y": 3.5887626704,
				"z": -4.1414400732,
				"element": "C" 
			},
			{
				"x": -3.177968497,
				"y": 4.8624550525,
				"z": -3.4150988436,
				"element": "C" 
			},
			{
				"x": -1.6908053407,
				"y": 4.8855489327,
				"z": -3.0248841634,
				"element": "C" 
			},
			{
				"x": -1.2846387833,
				"y": 3.8429916298,
				"z": -1.9725162381,
				"element": "C" 
			},
			{
				"x": 0.1851838715,
				"y": 3.9692613125,
				"z": -1.5478474083,
				"element": "C" 
			},
			{
				"x": 0.7055468099,
				"y": 2.8884597588,
				"z": -0.5827634011,
				"element": "C" 
			},
			{
				"x": 0.0414936476,
				"y": 2.8636197055,
				"z": 0.8139343199,
				"element": "C" 
			},
			{
				"x": -1.1620502108,
				"y": 1.9149332531,
				"z": 0.9763760221,
				"element": "C" 
			},
			{
				"x": -0.7914814792,
				"y": 0.4246940943,
				"z": 0.9908155173,
				"element": "C" 
			},
			{
				"x": -2.0096772713,
				"y": -0.4945344058,
				"z": 1.1630834549,
				"element": "C" 
			},
			{
				"x": -1.6798961161,
				"y": -1.9930615769,
				"z": 1.2692753401,
				"element": "C" 
			},
			{
				"x": -1.1194484291,
				"y": -2.612452322,
				"z": -0.022310535,
				"element": "C" 
			},
			{
				"x": -0.8789071512,
				"y": -4.138003559,
				"z": 0.0276904515,
				"element": "C" 
			},
			{
				"x": 0.5178748618,
				"y": -4.5945394471,
				"z": 0.488550475,
				"element": "C" 
			},
			{
				"x": 0.8829044557,
				"y": -4.2791637789,
				"z": 1.9467558185,
				"element": "C" 
			},
			{
				"x": 2.1872494211,
				"y": -4.9426917646,
				"z": 2.4258040272,
				"element": "C" 
			},
			{
				"x": 3.4718473264,
				"y": -4.5118225867,
				"z": 1.6953142698,
				"element": "C" 
			},
			{
				"x": 3.827683704,
				"y": -3.0262796546,
				"z": 1.8461250237,
				"element": "C" 
			},
			{
				"x": 5.1635584241,
				"y": -2.6527895052,
				"z": 1.1892361966,
				"element": "C" 
			},
			{
				"x": 5.5163429375,
				"y": -1.1660068422,
				"z": 1.335375587,
				"element": "C" 
			},
			{
				"x": 6.807190338,
				"y": -0.7377196831,
				"z": 0.6152332627,
				"element": "C" 
			},
			{
				"x": 8.1086478884,
				"y": -1.3821751636,
				"z": 1.1252221872,
				"element": "C" 
			},
			{
				"x": 8.4534021188,
				"y": -1.0431812895,
				"z": 2.5802532415,
				"element": "C" 
			},
			{
				"x": -5.4060332303,
				"y": 0.7785018677,
				"z": 0.6467204642,
				"element": "H" 
			},
			{
				"x": -7.024460954,
				"y": 1.1730744137,
				"z": 1.2415328528,
				"element": "H" 
			},
			{
				"x": -6.0316031289,
				"y": 2.4227178187,
				"z": 0.4796575222,
				"element": "H" 
			},
			{
				"x": -7.8139488075,
				"y": 1.5803908874,
				"z": -1.1023285798,
				"element": "H" 
			},
			{
				"x": -7.1997395003,
				"y": -0.0542958745,
				"z": -0.9347034671,
				"element": "H" 
			},
			{
				"x": -5.0059414482,
				"y": 0.6648648543,
				"z": -1.9251315151,
				"element": "H" 
			},
			{
				"x": -5.6166779157,
				"y": 2.3008863472,
				"z": -2.0858304356,
				"element": "H" 
			},
			{
				"x": -7.4302717857,
				"y": 1.4421627432,
				"z": -3.6402109027,
				"element": "H" 
			},
			{
				"x": -6.8203362241,
				"y": -0.1828621902,
				"z": -3.412933626,
				"element": "H" 
			},
			{
				"x": -4.5341123232,
				"y": 0.7940563251,
				"z": -4.3668220086,
				"element": "H" 
			},
			{
				"x": -5.8275809811,
				"y": 0.2973289158,
				"z": -5.4296380791,
				"element": "H" 
			},
			{
				"x": -6.6181007944,
				"y": 2.6064036986,
				"z": -5.7066057531,
				"element": "H" 
			},
			{
				"x": -4.983908287,
				"y": 2.3462170963,
				"z": -6.2839498148,
				"element": "H" 
			},
			{
				"x": -5.2652040584,
				"y": 4.533801848,
				"z": -5.1838377747,
				"element": "H" 
			},
			{
				"x": -5.7408325597,
				"y": 3.7784312479,
				"z": -3.6802146333,
				"element": "H" 
			},
			{
				"x": -3.4655068315,
				"y": 2.7170867228,
				"z": -3.4982667556,
				"element": "H" 
			},
			{
				"x": -3.0068864044,
				"y": 3.4361928712,
				"z": -5.032068356,
				"element": "H" 
			},
			{
				"x": -3.7901075012,
				"y": 5.0032044883,
				"z": -2.5122655301,
				"element": "H" 
			},
			{
				"x": -3.3875182011,
				"y": 5.7284753342,
				"z": -4.0578724988,
				"element": "H" 
			},
			{
				"x": -1.4433136366,
				"y": 5.8852540019,
				"z": -2.6420920412,
				"element": "H" 
			},
			{
				"x": -1.0768082509,
				"y": 4.7480794505,
				"z": -3.9267669574,
				"element": "H" 
			},
			{
				"x": -1.4599206877,
				"y": 2.8308628902,
				"z": -2.3608304404,
				"element": "H" 
			},
			{
				"x": -1.9376101301,
				"y": 3.9529337411,
				"z": -1.0965258833,
				"element": "H" 
			},
			{
				"x": 0.341446429,
				"y": 4.9577634177,
				"z": -1.0917627503,
				"element": "H" 
			},
			{
				"x": 0.8115510863,
				"y": 3.9543526197,
				"z": -2.4509216913,
				"element": "H" 
			},
			{
				"x": 0.6127822375,
				"y": 1.9031717977,
				"z": -1.0593098471,
				"element": "H" 
			},
			{
				"x": 1.7830366819,
				"y": 3.0526931565,
				"z": -0.4570667589,
				"element": "H" 
			},
			{
				"x": 0.7933979407,
				"y": 2.5816521442,
				"z": 1.5631582042,
				"element": "H" 
			},
			{
				"x": -0.2664731956,
				"y": 3.8849529951,
				"z": 1.076233203,
				"element": "H" 
			},
			{
				"x": -1.8964168066,
				"y": 2.0957245562,
				"z": 0.1816016626,
				"element": "H" 
			},
			{
				"x": -1.6733528727,
				"y": 2.1551732984,
				"z": 1.9188010271,
				"element": "H" 
			},
			{
				"x": -0.2615573673,
				"y": 0.1664311467,
				"z": 0.0656024806,
				"element": "H" 
			},
			{
				"x": -0.0807876152,
				"y": 0.2391580623,
				"z": 1.8097464501,
				"element": "H" 
			},
			{
				"x": -2.5539541062,
				"y": -0.1893272295,
				"z": 2.0674478911,
				"element": "H" 
			},
			{
				"x": -2.7041907558,
				"y": -0.3351780561,
				"z": 0.3247995606,
				"element": "H" 
			},
			{
				"x": -0.9823492111,
				"y": -2.1478098709,
				"z": 2.1016289161,
				"element": "H" 
			},
			{
				"x": -2.5959970952,
				"y": -2.5354290038,
				"z": 1.5404820994,
				"element": "H" 
			},
			{
				"x": -1.8325637482,
				"y": -2.395336499,
				"z": -0.8294909053,
				"element": "H" 
			},
			{
				"x": -0.1848930046,
				"y": -2.112360862,
				"z": -0.3098168225,
				"element": "H" 
			},
			{
				"x": -1.6447884084,
				"y": -4.6067523413,
				"z": 0.6622654102,
				"element": "H" 
			},
			{
				"x": -1.0373963204,
				"y": -4.5460240415,
				"z": -0.9786058708,
				"element": "H" 
			},
			{
				"x": 0.5865808571,
				"y": -5.6820640677,
				"z": 0.3421927968,
				"element": "H" 
			},
			{
				"x": 1.2669113264,
				"y": -4.1546754399,
				"z": -0.1839649108,
				"element": "H" 
			},
			{
				"x": 0.0654005102,
				"y": -4.617294166,
				"z": 2.5982459454,
				"element": "H" 
			},
			{
				"x": 0.9508148966,
				"y": -3.1942216763,
				"z": 2.0894243963,
				"element": "H" 
			},
			{
				"x": 2.0805009186,
				"y": -6.032410407,
				"z": 2.3335662128,
				"element": "H" 
			},
			{
				"x": 2.3098478402,
				"y": -4.7407878024,
				"z": 3.4988679004,
				"element": "H" 
			},
			{
				"x": 3.3966432703,
				"y": -4.7595822777,
				"z": 0.6280034362,
				"element": "H" 
			},
			{
				"x": 4.3052699399,
				"y": -5.114595448,
				"z": 2.0814352455,
				"element": "H" 
			},
			{
				"x": 3.8648769433,
				"y": -2.7698796279,
				"z": 2.9150804179,
				"element": "H" 
			},
			{
				"x": 3.0323472034,
				"y": -2.404120345,
				"z": 1.4140696222,
				"element": "H" 
			},
			{
				"x": 5.9595476408,
				"y": -3.272247968,
				"z": 1.6238509856,
				"element": "H" 
			},
			{
				"x": 5.1279038534,
				"y": -2.9123889543,
				"z": 0.121018292,
				"element": "H" 
			},
			{
				"x": 5.5813421847,
				"y": -0.9122280479,
				"z": 2.4020435575,
				"element": "H" 
			},
			{
				"x": 4.6855675891,
				"y": -0.5664691779,
				"z": 0.9387547426,
				"element": "H" 
			},
			{
				"x": 6.9050714972,
				"y": 0.3541445576,
				"z": 0.6909991682,
				"element": "H" 
			},
			{
				"x": 6.7016768456,
				"y": -0.958168266,
				"z": -0.45603974,
				"element": "H" 
			},
			{
				"x": 8.9314549133,
				"y": -1.0517136115,
				"z": 0.4782516929,
				"element": "H" 
			},
			{
				"x": 8.0566976159,
				"y": -2.4719591046,
				"z": 1.0065457288,
				"element": "H" 
			},
			{
				"x": 7.7024578177,
				"y": -1.4266509841,
				"z": 3.2789586126,
				"element": "H" 
			},
			{
				"x": 8.5178157022,
				"y": 0.0413012194,
				"z": 2.7283746815,
				"element": "H" 
			},
			{
				"x": 9.4177541807,
				"y": -1.4750161788,
				"z": 2.8678961831,
				"element": "H" 
			}
		],
		 "valence_orbital": [ 
			{
				"type": "occ",
				"energy": -0.29666,
				"method": "rhf"
			},
			{
				"type": "occ",
				"energy": -0.29546,
				"method": "rhf"
			},
			{
				"type": "occ",
				"energy": -0.2939,
				"method": "rhf"
			},
			{
				"type": "occ",
				"energy": -0.29288,
				"method": "rhf"
			},
			{
				"type": "occ",
				"energy": -0.29154,
				"method": "rhf"
			},
			{
				"type": "unocc",
				"energy": 0.07037,
				"method": "rhf"
			},
			{
				"type": "unocc",
				"energy": 0.07702,
				"method": "rhf"
			},
			{
				"type": "unocc",
				"energy": 0.08475,
				"method": "rhf"
			},
			{
				"type": "unocc",
				"energy": 0.08789,
				"method": "rhf"
			},
			{
				"type": "unocc",
				"energy": 0.09066,
				"method": "rhf"
			}
		],
		"cosmo_sigma_profile": { 
			"-0.025": 0.0,
			"-0.024": 0.0,
			"-0.023": 0.0,
			"-0.022": 0.0,
			"-0.021": 0.0,
			"-0.02": 0.0,
			"-0.019": 0.0,
			"-0.018": 0.0,
			"-0.017": 0.0,
			"-0.016": 0.0,
			"-0.015": 0.0,
			"-0.014": 0.0,
			"-0.013": 0.0,
			"-0.012": 0.0,
			"-0.011": 0.0,
			"-0.01": 0.0,
			"-0.009": 0.0,
			"-0.008": 0.0,
			"-0.007": 0.0,
			"-0.006": 0.0,
			"-0.005": 0.0,
			"-0.004": 0.0,
			"-0.003": 2.72716139608,
			"-0.002": 60.6269716434,
			"-0.001": 169.348234978,
			"0.0": 193.863896042,
			"0.001": 155.175550487,
			"0.002": 68.8390027734,
			"0.003": 2.05774374219,
			"0.004": 0.0,
			"0.005": 0.0,
			"0.006": 0.0,
			"0.007": 0.0,
			"0.008": 0.0,
			"0.009": 0.0,
			"0.01": 0.0,
			"0.011": 0.0,
			"0.012": 0.0,
			"0.013": 0.0,
			"0.014": 0.0,
			"0.015": 0.0,
			"0.016": 0.0,
			"0.017": 0.0,
			"0.018": 0.0,
			"0.019": 0.0,
			"0.02": 0.0,
			"0.021": 0.0,
			"0.022": 0.0,
			"0.023": 0.0,
			"0.024": 0.0,
			"0.025": 0.0
		}
	}
}
