{
	 "smiles": "NCC(O)CN1CCC2=C(C1)C=CC=C2", 
	 "Tm": 333.15, 
	 "num_atms": 33, 
	 "gaussian": { 
		 "optdone": 1, 
		 "sigma_profile": "yes", 
		 "theory": "DFT", 
		 "functional": "B3LYP", 
		 "basiset": "6-31G**", 
		 "properties": { 
			 "R2extent": 4298.1737, 
			 "electric_dipole_moment_norm": 2.76385869935, 
			 "electric_quadrupole_moment_norm": 5.38686074815, 
			 "total_energy": -652.845753495, 
			 "HOMO_LUMO_gap": 0.21539, 
			 "cosmo_polarized_energy": -9.33, 
			 "cosmo_cavitation_energy": 32.85, 
			 "cosmo_dispersion_energy": -23.7, 
			 "cosmo_repulsion_energy": 1.86, 
			 "cosmo_total_nonelectrostatic_energy": 11.01, 
			 "SMD_solvation_energy": 3.84 
		},
		"coords": [
			{
				"x": 2.554867774,
				"y": -0.4706325391,
				"z": 0.6178046766,
				"element": "N" 
			},
			{
				"x": 2.7613894803,
				"y": 0.920561904,
				"z": 0.1998886149,
				"element": "C" 
			},
			{
				"x": 1.4096161866,
				"y": 1.664749073,
				"z": 0.2941137791,
				"element": "C" 
			},
			{
				"x": 0.7562739496,
				"y": 1.2839283668,
				"z": 1.4949286453,
				"element": "O" 
			},
			{
				"x": 0.5306806268,
				"y": 1.4627592373,
				"z": -0.955166999,
				"element": "C" 
			},
			{
				"x": 0.2627998151,
				"y": 0.0582841167,
				"z": -1.2977804578,
				"element": "N" 
			},
			{
				"x": 0.0496312012,
				"y": -0.1597368052,
				"z": -2.7320919278,
				"element": "C" 
			},
			{
				"x": 0.1162376455,
				"y": -1.6568627803,
				"z": -3.0422507199,
				"element": "C" 
			},
			{
				"x": -0.7341339125,
				"y": -2.4789255467,
				"z": -2.0947096299,
				"element": "C" 
			},
			{
				"x": -1.1812983312,
				"y": -1.9185393918,
				"z": -0.8883479709,
				"element": "C" 
			},
			{
				"x": -0.8823396833,
				"y": -0.4736229994,
				"z": -0.5469701641,
				"element": "C" 
			},
			{
				"x": -1.9463422327,
				"y": -2.6967558686,
				"z": -0.0097125674,
				"element": "C" 
			},
			{
				"x": -2.270593778,
				"y": -4.0160405795,
				"z": -0.3172240417,
				"element": "C" 
			},
			{
				"x": -1.8258705803,
				"y": -4.5754340904,
				"z": -1.518030367,
				"element": "C" 
			},
			{
				"x": -1.06311699,
				"y": -3.8075484993,
				"z": -2.3949922844,
				"element": "C" 
			},
			{
				"x": 3.4367299511,
				"y": -0.9449306592,
				"z": 0.7820804991,
				"element": "H" 
			},
			{
				"x": 2.0405995838,
				"y": -0.9584788533,
				"z": -0.1131600709,
				"element": "H" 
			},
			{
				"x": 3.1821247394,
				"y": 1.035862584,
				"z": -0.8116483265,
				"element": "H" 
			},
			{
				"x": 3.465168832,
				"y": 1.3803429925,
				"z": 0.9025715175,
				"element": "H" 
			},
			{
				"x": 1.6104235865,
				"y": 2.745456719,
				"z": 0.3495321399,
				"element": "H" 
			},
			{
				"x": 1.1665811565,
				"y": 0.4216209652,
				"z": 1.7112123874,
				"element": "H" 
			},
			{
				"x": -0.406923485,
				"y": 2.0317873857,
				"z": -0.8213390375,
				"element": "H" 
			},
			{
				"x": 1.0618770716,
				"y": 1.9205434764,
				"z": -1.7988775206,
				"element": "H" 
			},
			{
				"x": -0.9234917419,
				"y": 0.2522362524,
				"z": -3.0641814546,
				"element": "H" 
			},
			{
				"x": 0.8292855225,
				"y": 0.3676438673,
				"z": -3.2910723076,
				"element": "H" 
			},
			{
				"x": 1.1621422122,
				"y": -1.9850648967,
				"z": -2.9679522714,
				"element": "H" 
			},
			{
				"x": -0.1927873768,
				"y": -1.8346630594,
				"z": -4.0796348242,
				"element": "H" 
			},
			{
				"x": -1.7868646576,
				"y": 0.137111052,
				"z": -0.7521631838,
				"element": "H" 
			},
			{
				"x": -0.6811197152,
				"y": -0.3616937904,
				"z": 0.519759152,
				"element": "H" 
			},
			{
				"x": -2.288495728,
				"y": -2.2590297212,
				"z": 0.9254915227,
				"element": "H" 
			},
			{
				"x": -2.8631073188,
				"y": -4.6062361241,
				"z": 0.3760613161,
				"element": "H" 
			},
			{
				"x": -2.0733656725,
				"y": -5.6031171284,
				"z": -1.7686360563,
				"element": "H" 
			},
			{
				"x": -0.716278131,
				"y": -4.240374659,
				"z": -3.3310020675,
				"element": "H" 
			}
		],
		 "valence_orbital": [ 
			{
				"type": "occ",
				"energy": -0.25624,
				"method": "rhf"
			},
			{
				"type": "occ",
				"energy": -0.24492,
				"method": "rhf"
			},
			{
				"type": "occ",
				"energy": -0.24091,
				"method": "rhf"
			},
			{
				"type": "occ",
				"energy": -0.23267,
				"method": "rhf"
			},
			{
				"type": "occ",
				"energy": -0.21408,
				"method": "rhf"
			},
			{
				"type": "unocc",
				"energy": 0.00131,
				"method": "rhf"
			},
			{
				"type": "unocc",
				"energy": 0.00637,
				"method": "rhf"
			},
			{
				"type": "unocc",
				"energy": 0.07493,
				"method": "rhf"
			},
			{
				"type": "unocc",
				"energy": 0.10125,
				"method": "rhf"
			},
			{
				"type": "unocc",
				"energy": 0.10423,
				"method": "rhf"
			}
		],
		"cosmo_sigma_profile": { 
			"-0.025": 0.0,
			"-0.024": 0.0,
			"-0.023": 0.0,
			"-0.022": 0.0,
			"-0.021": 0.0,
			"-0.02": 0.0,
			"-0.019": 0.0,
			"-0.018": 0.0,
			"-0.017": 0.0,
			"-0.016": 0.0,
			"-0.015": 0.0,
			"-0.014": 0.0,
			"-0.013": 0.0,
			"-0.012": 0.0,
			"-0.011": 0.161710905768,
			"-0.01": 1.30481414477,
			"-0.009": 1.22144939165,
			"-0.008": 1.0064502119,
			"-0.007": 1.70201270253,
			"-0.006": 2.65764887593,
			"-0.005": 11.3453321319,
			"-0.004": 23.2884397303,
			"-0.003": 33.3967388309,
			"-0.002": 37.4731257353,
			"-0.001": 35.0378247806,
			"0.0": 21.9292393765,
			"0.001": 13.5229544062,
			"0.002": 11.3953920893,
			"0.003": 9.94359661325,
			"0.004": 11.2108744046,
			"0.005": 9.11837281082,
			"0.006": 9.71210096112,
			"0.007": 6.67882711961,
			"0.008": 1.98045482657,
			"0.009": 2.08891141976,
			"0.01": 1.58794419596,
			"0.011": 1.21481073316,
			"0.012": 1.24454160294,
			"0.013": 1.61687237185,
			"0.014": 1.05751968809,
			"0.015": 2.15806622545,
			"0.016": 0.666982322301,
			"0.017": 0.0,
			"0.018": 0.0,
			"0.019": 0.0,
			"0.02": 0.0,
			"0.021": 0.0,
			"0.022": 0.0,
			"0.023": 0.0,
			"0.024": 0.0,
			"0.025": 0.0
		}
	}
}
