{
	 "smiles": "NC1=C(C=CC=C1)N1C=NN=N1", 
	 "Tm": 358.15, 
	 "num_atms": 19, 
	 "gaussian": { 
		 "optdone": 1, 
		 "sigma_profile": "yes", 
		 "theory": "DFT", 
		 "functional": "B3LYP", 
		 "basiset": "6-31G**", 
		 "properties": { 
			 "R2extent": 2481.21, 
			 "electric_dipole_moment_norm": 5.08192462164, 
			 "electric_quadrupole_moment_norm": 21.5138192469, 
			 "total_energy": -544.664626068, 
			 "HOMO_LUMO_gap": 0.17559, 
			 "cosmo_polarized_energy": -14.66, 
			 "cosmo_cavitation_energy": 23.45, 
			 "cosmo_dispersion_energy": -17.6, 
			 "cosmo_repulsion_energy": 1.38, 
			 "cosmo_total_nonelectrostatic_energy": 7.22, 
			 "SMD_solvation_energy": 2.67 
		},
		"coords": [
			{
				"x": -0.0722089342,
				"y": 2.4182833057,
				"z": -2.1171558111,
				"element": "N" 
			},
			{
				"x": 0.4684765436,
				"y": 1.3346536443,
				"z": -1.4557183155,
				"element": "C" 
			},
			{
				"x": -0.3389354349,
				"y": 0.3538771539,
				"z": -0.8304225599,
				"element": "C" 
			},
			{
				"x": 0.2267586644,
				"y": -0.7543523024,
				"z": -0.1940113762,
				"element": "C" 
			},
			{
				"x": 1.6048251875,
				"y": -0.9420498726,
				"z": -0.186982079,
				"element": "C" 
			},
			{
				"x": 2.4175305421,
				"y": 0.0070327906,
				"z": -0.8141590862,
				"element": "C" 
			},
			{
				"x": 1.8616399364,
				"y": 1.1225703433,
				"z": -1.427485557,
				"element": "C" 
			},
			{
				"x": -1.7627868478,
				"y": 0.4616561342,
				"z": -0.868380691,
				"element": "N" 
			},
			{
				"x": -2.6981603268,
				"y": -0.5021823199,
				"z": -1.0253206384,
				"element": "C" 
			},
			{
				"x": -3.8970389692,
				"y": 0.0408461094,
				"z": -0.9661863922,
				"element": "N" 
			},
			{
				"x": -3.6902322005,
				"y": 1.3695349428,
				"z": -0.7792344891,
				"element": "N" 
			},
			{
				"x": -2.4265267081,
				"y": 1.6392128687,
				"z": -0.7125861323,
				"element": "N" 
			},
			{
				"x": 0.573996751,
				"y": 3.1590378836,
				"z": -2.3450529658,
				"element": "H" 
			},
			{
				"x": -0.976944722,
				"y": 2.7346050981,
				"z": -1.792107438,
				"element": "H" 
			},
			{
				"x": -0.4262977643,
				"y": -1.4603247747,
				"z": 0.3099155068,
				"element": "H" 
			},
			{
				"x": 2.0357190422,
				"y": -1.8042609725,
				"z": 0.3098765713,
				"element": "H" 
			},
			{
				"x": 3.496538226,
				"y": -0.1160593655,
				"z": -0.8151507613,
				"element": "H" 
			},
			{
				"x": 2.5045257996,
				"y": 1.8571773315,
				"z": -1.9053330724,
				"element": "H" 
			},
			{
				"x": -2.4718787848,
				"y": -1.5435579985,
				"z": -1.1910047128,
				"element": "H" 
			}
		],
		 "valence_orbital": [ 
			{
				"type": "occ",
				"energy": -0.30681,
				"method": "rhf"
			},
			{
				"type": "occ",
				"energy": -0.3044,
				"method": "rhf"
			},
			{
				"type": "occ",
				"energy": -0.28866,
				"method": "rhf"
			},
			{
				"type": "occ",
				"energy": -0.26167,
				"method": "rhf"
			},
			{
				"type": "occ",
				"energy": -0.219,
				"method": "rhf"
			},
			{
				"type": "unocc",
				"energy": -0.04341,
				"method": "rhf"
			},
			{
				"type": "unocc",
				"energy": -0.00957,
				"method": "rhf"
			},
			{
				"type": "unocc",
				"energy": 0.00563,
				"method": "rhf"
			},
			{
				"type": "unocc",
				"energy": 0.01969,
				"method": "rhf"
			},
			{
				"type": "unocc",
				"energy": 0.07993,
				"method": "rhf"
			}
		],
		"cosmo_sigma_profile": { 
			"-0.025": 0.0,
			"-0.024": 0.0,
			"-0.023": 0.0,
			"-0.022": 0.0,
			"-0.021": 0.0,
			"-0.02": 0.0,
			"-0.019": 0.0,
			"-0.018": 0.0,
			"-0.017": 0.0,
			"-0.016": 0.0,
			"-0.015": 0.0,
			"-0.014": 0.103722051888,
			"-0.013": 1.44141791717,
			"-0.012": 3.35890549105,
			"-0.011": 3.12269789905,
			"-0.01": 4.06595655311,
			"-0.009": 5.14291924499,
			"-0.008": 4.76389867343,
			"-0.007": 6.27313967191,
			"-0.006": 9.66326456419,
			"-0.005": 11.2362197523,
			"-0.004": 13.6981551988,
			"-0.003": 10.0001074894,
			"-0.002": 9.33387478585,
			"-0.001": 9.0632824172,
			"0.0": 9.86061026097,
			"0.001": 10.0021361886,
			"0.002": 9.03049676392,
			"0.003": 11.7314839869,
			"0.004": 11.6935430384,
			"0.005": 11.2840959037,
			"0.006": 4.20578980152,
			"0.007": 4.78459546638,
			"0.008": 4.07997525597,
			"0.009": 5.2504388041,
			"0.01": 4.66309113092,
			"0.011": 3.50387436445,
			"0.012": 3.07170578759,
			"0.013": 2.50240391616,
			"0.014": 1.56659748011,
			"0.015": 0.329195222185,
			"0.016": 0.0,
			"0.017": 0.0,
			"0.018": 0.0,
			"0.019": 0.0,
			"0.02": 0.0,
			"0.021": 0.0,
			"0.022": 0.0,
			"0.023": 0.0,
			"0.024": 0.0,
			"0.025": 0.0
		}
	}
}
