{
	 "smiles": "CC1=C(Br)N=C2C=CC=CC2=N1", 
	 "Tm": 376.15, 
	 "num_atms": 19, 
	 "gaussian": { 
		 "optdone": 1, 
		 "sigma_profile": "yes", 
		 "theory": "DFT", 
		 "functional": "B3LYP", 
		 "basiset": "6-31G**", 
		 "properties": { 
			 "R2extent": 3698.1859, 
			 "electric_dipole_moment_norm": 1.91414829624, 
			 "electric_quadrupole_moment_norm": 9.30421307312, 
			 "total_energy": -3028.09217414, 
			 "HOMO_LUMO_gap": 0.17426, 
			 "cosmo_polarized_energy": -6.22, 
			 "cosmo_cavitation_energy": 25.44, 
			 "cosmo_dispersion_energy": -19.48, 
			 "cosmo_repulsion_energy": 1.54, 
			 "cosmo_total_nonelectrostatic_energy": 7.49, 
			 "SMD_solvation_energy": 0.27 
		},
		"coords": [
			{
				"x": -0.633609685,
				"y": 3.298925751,
				"z": -0.960547239,
				"element": "C" 
			},
			{
				"x": 0.0860492611,
				"y": 2.1242296217,
				"z": -0.3630663907,
				"element": "C" 
			},
			{
				"x": -0.3701865779,
				"y": 1.4535590039,
				"z": 0.8274329834,
				"element": "C" 
			},
			{
				"x": -1.9725778007,
				"y": 2.0892554317,
				"z": 1.6918742303,
				"element": "Br" 
			},
			{
				"x": 0.2239107147,
				"y": 0.4392699777,
				"z": 1.3701409797,
				"element": "N" 
			},
			{
				"x": 1.3598775075,
				"y": -0.0157736266,
				"z": 0.7620301026,
				"element": "C" 
			},
			{
				"x": 2.060478466,
				"y": -1.1214089175,
				"z": 1.301825782,
				"element": "C" 
			},
			{
				"x": 3.2050026171,
				"y": -1.5703507796,
				"z": 0.678646245,
				"element": "C" 
			},
			{
				"x": 3.6862551335,
				"y": -0.9369208275,
				"z": -0.4951313574,
				"element": "C" 
			},
			{
				"x": 3.0199484811,
				"y": 0.1408196319,
				"z": -1.0376144398,
				"element": "C" 
			},
			{
				"x": 1.840571937,
				"y": 0.6237932057,
				"z": -0.4179832088,
				"element": "C" 
			},
			{
				"x": 1.1804454322,
				"y": 1.6908746356,
				"z": -0.9545504749,
				"element": "N" 
			},
			{
				"x": -1.6615955684,
				"y": 3.0362986631,
				"z": -1.2314007884,
				"element": "H" 
			},
			{
				"x": -0.0952774349,
				"y": 3.6262339737,
				"z": -1.8506689049,
				"element": "H" 
			},
			{
				"x": -0.6977047754,
				"y": 4.1273142194,
				"z": -0.2472785526,
				"element": "H" 
			},
			{
				"x": 1.6703250493,
				"y": -1.5873927869,
				"z": 2.2006602596,
				"element": "H" 
			},
			{
				"x": 3.7477130087,
				"y": -2.4177688119,
				"z": 1.0867391021,
				"element": "H" 
			},
			{
				"x": 4.590294881,
				"y": -1.3093304203,
				"z": -0.9676531039,
				"element": "H" 
			},
			{
				"x": 3.3677793531,
				"y": 0.6425720551,
				"z": -1.9346552244,
				"element": "H" 
			}
		],
		 "valence_orbital": [ 
			{
				"type": "occ",
				"energy": -0.30314,
				"method": "rhf"
			},
			{
				"type": "occ",
				"energy": -0.28599,
				"method": "rhf"
			},
			{
				"type": "occ",
				"energy": -0.25779,
				"method": "rhf"
			},
			{
				"type": "occ",
				"energy": -0.25458,
				"method": "rhf"
			},
			{
				"type": "occ",
				"energy": -0.24929,
				"method": "rhf"
			},
			{
				"type": "unocc",
				"energy": -0.07503,
				"method": "rhf"
			},
			{
				"type": "unocc",
				"energy": -0.03248,
				"method": "rhf"
			},
			{
				"type": "unocc",
				"energy": 0.00276,
				"method": "rhf"
			},
			{
				"type": "unocc",
				"energy": 0.00517,
				"method": "rhf"
			},
			{
				"type": "unocc",
				"energy": 0.0672,
				"method": "rhf"
			}
		],
		"cosmo_sigma_profile": { 
			"-0.025": 0.0,
			"-0.024": 0.0,
			"-0.023": 0.0,
			"-0.022": 0.0,
			"-0.021": 0.0,
			"-0.02": 0.0,
			"-0.019": 0.0,
			"-0.018": 0.0,
			"-0.017": 0.0,
			"-0.016": 0.0,
			"-0.015": 0.0,
			"-0.014": 0.0,
			"-0.013": 0.0,
			"-0.012": 0.0,
			"-0.011": 0.0,
			"-0.01": 0.0,
			"-0.009": 0.0,
			"-0.008": 0.0,
			"-0.007": 4.58073673203,
			"-0.006": 9.20029168788,
			"-0.005": 13.7378524394,
			"-0.004": 18.4487409506,
			"-0.003": 16.5603500545,
			"-0.002": 18.0248496173,
			"-0.001": 17.842384158,
			"0.0": 16.4984451483,
			"0.001": 19.7231258788,
			"0.002": 20.3351806564,
			"0.003": 19.8652717399,
			"0.004": 11.7229122678,
			"0.005": 5.23044397161,
			"0.006": 3.78867063235,
			"0.007": 1.99297105319,
			"0.008": 2.30285655437,
			"0.009": 2.53263814836,
			"0.01": 1.65549497057,
			"0.011": 1.33319734534,
			"0.012": 1.71620334103,
			"0.013": 0.77703689592,
			"0.014": 0.0389880054448,
			"0.015": 0.0,
			"0.016": 0.0,
			"0.017": 0.0,
			"0.018": 0.0,
			"0.019": 0.0,
			"0.02": 0.0,
			"0.021": 0.0,
			"0.022": 0.0,
			"0.023": 0.0,
			"0.024": 0.0,
			"0.025": 0.0
		}
	}
}
