{
	 "smiles": "CC(Cl)C(=O)NC1CCCC(C)C1C", 
	 "Tm": 437.15, 
	 "num_atms": 34, 
	 "gaussian": { 
		 "optdone": 1, 
		 "sigma_profile": "yes", 
		 "theory": "DFT", 
		 "functional": "B3LYP", 
		 "basiset": "6-31G**", 
		 "properties": { 
			 "R2extent": 4413.649, 
			 "electric_dipole_moment_norm": 1.75225857966, 
			 "electric_quadrupole_moment_norm": 6.8886865497, 
			 "total_energy": -1021.4433421, 
			 "HOMO_LUMO_gap": 0.26321, 
			 "cosmo_polarized_energy": -8.83, 
			 "cosmo_cavitation_energy": 35.09, 
			 "cosmo_dispersion_energy": -24.28, 
			 "cosmo_repulsion_energy": 1.93, 
			 "cosmo_total_nonelectrostatic_energy": 12.75, 
			 "SMD_solvation_energy": 5.55 
		},
		"coords": [
			{
				"x": -0.8071277421,
				"y": 2.6443185403,
				"z": -2.4048556768,
				"element": "C" 
			},
			{
				"x": 0.2003579524,
				"y": 2.7630697391,
				"z": -1.2662181438,
				"element": "C" 
			},
			{
				"x": -0.433117242,
				"y": 3.9334504955,
				"z": 0.0061657858,
				"element": "Cl" 
			},
			{
				"x": 0.5836560834,
				"y": 1.3754759156,
				"z": -0.7187398655,
				"element": "C" 
			},
			{
				"x": 1.0731131421,
				"y": 0.5825271672,
				"z": -1.5188947708,
				"element": "O" 
			},
			{
				"x": 0.3650501043,
				"y": 1.1108596141,
				"z": 0.5886822077,
				"element": "N" 
			},
			{
				"x": 0.6999743822,
				"y": -0.1778314159,
				"z": 1.1951634361,
				"element": "C" 
			},
			{
				"x": 1.3475286989,
				"y": 0.0296501092,
				"z": 2.5731151126,
				"element": "C" 
			},
			{
				"x": 1.7495098858,
				"y": -1.3147678476,
				"z": 3.1991333501,
				"element": "C" 
			},
			{
				"x": 0.560504289,
				"y": -2.2864004943,
				"z": 3.2619729716,
				"element": "C" 
			},
			{
				"x": -0.1185736539,
				"y": -2.4951902738,
				"z": 1.889027179,
				"element": "C" 
			},
			{
				"x": 0.7384138336,
				"y": -3.3561340925,
				"z": 0.944211732,
				"element": "C" 
			},
			{
				"x": -0.522080368,
				"y": -1.1367572311,
				"z": 1.2483794737,
				"element": "C" 
			},
			{
				"x": -1.7464104237,
				"y": -0.5159858835,
				"z": 1.942029786,
				"element": "C" 
			},
			{
				"x": -0.9828773409,
				"y": 3.6163732103,
				"z": -2.870334035,
				"element": "H" 
			},
			{
				"x": -0.400029446,
				"y": 1.9534335971,
				"z": -3.1471299557,
				"element": "H" 
			},
			{
				"x": -1.7604087212,
				"y": 2.2500404644,
				"z": -2.0421037003,
				"element": "H" 
			},
			{
				"x": 1.1245267407,
				"y": 3.2239305223,
				"z": -1.6197759899,
				"element": "H" 
			},
			{
				"x": -0.04588634,
				"y": 1.8356177616,
				"z": 1.1601501507,
				"element": "H" 
			},
			{
				"x": 1.4403826981,
				"y": -0.6200814789,
				"z": 0.5223396796,
				"element": "H" 
			},
			{
				"x": 2.2214536505,
				"y": 0.682317312,
				"z": 2.4661675746,
				"element": "H" 
			},
			{
				"x": 0.6468662319,
				"y": 0.5508720695,
				"z": 3.2410426289,
				"element": "H" 
			},
			{
				"x": 2.154427326,
				"y": -1.1516332887,
				"z": 4.2046341108,
				"element": "H" 
			},
			{
				"x": 2.5635969719,
				"y": -1.7557632851,
				"z": 2.609703654,
				"element": "H" 
			},
			{
				"x": 0.8872946172,
				"y": -3.2550536884,
				"z": 3.6596703371,
				"element": "H" 
			},
			{
				"x": -0.1764687568,
				"y": -1.8975405975,
				"z": 3.9765244634,
				"element": "H" 
			},
			{
				"x": -1.0490446479,
				"y": -3.0529354141,
				"z": 2.0648822693,
				"element": "H" 
			},
			{
				"x": 0.2192180446,
				"y": -3.5287732938,
				"z": -0.0044265384,
				"element": "H" 
			},
			{
				"x": 0.9454961227,
				"y": -4.3332723343,
				"z": 1.3944351192,
				"element": "H" 
			},
			{
				"x": 1.7026319573,
				"y": -2.8960853483,
				"z": 0.7068579117,
				"element": "H" 
			},
			{
				"x": -0.8053728987,
				"y": -1.3297693112,
				"z": 0.205108465,
				"element": "H" 
			},
			{
				"x": -2.0563194318,
				"y": 0.4101814999,
				"z": 1.4480252372,
				"element": "H" 
			},
			{
				"x": -2.5949953687,
				"y": -1.2068051167,
				"z": 1.9005682839,
				"element": "H" 
			},
			{
				"x": -1.565890351,
				"y": -0.2868376221,
				"z": 2.9973877563,
				"element": "H" 
			}
		],
		 "valence_orbital": [ 
			{
				"type": "occ",
				"energy": -0.30838,
				"method": "rhf"
			},
			{
				"type": "occ",
				"energy": -0.30243,
				"method": "rhf"
			},
			{
				"type": "occ",
				"energy": -0.30086,
				"method": "rhf"
			},
			{
				"type": "occ",
				"energy": -0.25406,
				"method": "rhf"
			},
			{
				"type": "occ",
				"energy": -0.24935,
				"method": "rhf"
			},
			{
				"type": "unocc",
				"energy": 0.01386,
				"method": "rhf"
			},
			{
				"type": "unocc",
				"energy": 0.02251,
				"method": "rhf"
			},
			{
				"type": "unocc",
				"energy": 0.07105,
				"method": "rhf"
			},
			{
				"type": "unocc",
				"energy": 0.08691,
				"method": "rhf"
			},
			{
				"type": "unocc",
				"energy": 0.10036,
				"method": "rhf"
			}
		],
		"cosmo_sigma_profile": { 
			"-0.025": 0.0,
			"-0.024": 0.0,
			"-0.023": 0.0,
			"-0.022": 0.0,
			"-0.021": 0.0,
			"-0.02": 0.0,
			"-0.019": 0.0,
			"-0.018": 0.0,
			"-0.017": 0.0,
			"-0.016": 0.0,
			"-0.015": 0.0,
			"-0.014": 0.0,
			"-0.013": 0.0,
			"-0.012": 0.0,
			"-0.011": 0.0345693536237,
			"-0.01": 0.610462568091,
			"-0.009": 1.21535808462,
			"-0.008": 3.18025502421,
			"-0.007": 3.44681843055,
			"-0.006": 3.5383432539,
			"-0.005": 7.09796104428,
			"-0.004": 13.5098614841,
			"-0.003": 23.8494590258,
			"-0.002": 39.9037389702,
			"-0.001": 42.8153481245,
			"0.0": 42.7095682714,
			"0.001": 34.5069863139,
			"0.002": 14.154968377,
			"0.003": 5.61062583169,
			"0.004": 6.04642120117,
			"0.005": 7.61388261055,
			"0.006": 7.32545687211,
			"0.007": 1.35245982084,
			"0.008": 1.48151082413,
			"0.009": 1.47388252378,
			"0.01": 1.39903699599,
			"0.011": 1.10812192257,
			"0.012": 1.80737013646,
			"0.013": 4.00077326002,
			"0.014": 3.51479114924,
			"0.015": 0.0234355752174,
			"0.016": 0.0,
			"0.017": 0.0,
			"0.018": 0.0,
			"0.019": 0.0,
			"0.02": 0.0,
			"0.021": 0.0,
			"0.022": 0.0,
			"0.023": 0.0,
			"0.024": 0.0,
			"0.025": 0.0
		}
	}
}
