{
	 "smiles": "CC(C)(C)CNC1=CC(Cl)=C(C=C1)C(N)=O", 
	 "Tm": 412.15, 
	 "num_atms": 33, 
	 "gaussian": { 
		 "optdone": 1, 
		 "sigma_profile": "yes", 
		 "theory": "DFT", 
		 "functional": "B3LYP", 
		 "basiset": "6-31G**", 
		 "properties": { 
			 "R2extent": 7075.2711, 
			 "electric_dipole_moment_norm": 6.21551544202, 
			 "electric_quadrupole_moment_norm": 27.5799886032, 
			 "total_energy": -1112.47239197, 
			 "HOMO_LUMO_gap": 0.18793, 
			 "cosmo_polarized_energy": -18.68, 
			 "cosmo_cavitation_energy": 36.92, 
			 "cosmo_dispersion_energy": -25.97, 
			 "cosmo_repulsion_energy": 2.04, 
			 "cosmo_total_nonelectrostatic_energy": 12.99, 
			 "SMD_solvation_energy": 6.56 
		},
		"coords": [
			{
				"x": 2.3140109749,
				"y": -0.9441515141,
				"z": -2.9621448333,
				"element": "C" 
			},
			{
				"x": 1.7969360758,
				"y": -0.9169063634,
				"z": -1.5121139526,
				"element": "C" 
			},
			{
				"x": 2.9789402748,
				"y": -1.0761123556,
				"z": -0.5381562903,
				"element": "C" 
			},
			{
				"x": 0.7906162277,
				"y": -2.0602856614,
				"z": -1.295221791,
				"element": "C" 
			},
			{
				"x": 1.1130862006,
				"y": 0.4582597312,
				"z": -1.2822211759,
				"element": "C" 
			},
			{
				"x": 0.6024476265,
				"y": 0.6808329699,
				"z": 0.0625233274,
				"element": "N" 
			},
			{
				"x": -0.7232260411,
				"y": 0.7722473192,
				"z": 0.4334094699,
				"element": "C" 
			},
			{
				"x": -1.0369810274,
				"y": 1.2887178997,
				"z": 1.7090376349,
				"element": "C" 
			},
			{
				"x": -2.3521871052,
				"y": 1.4016077922,
				"z": 2.1360891233,
				"element": "C" 
			},
			{
				"x": -2.601206888,
				"y": 2.0265376496,
				"z": 3.758106447,
				"element": "Cl" 
			},
			{
				"x": -3.4301607698,
				"y": 0.9933907282,
				"z": 1.3282094162,
				"element": "C" 
			},
			{
				"x": -3.0990336733,
				"y": 0.470986281,
				"z": 0.0670770795,
				"element": "C" 
			},
			{
				"x": -1.7913869093,
				"y": 0.3556834164,
				"z": -0.3858966572,
				"element": "C" 
			},
			{
				"x": -4.8696915947,
				"y": 1.1452741623,
				"z": 1.723475492,
				"element": "C" 
			},
			{
				"x": -5.6913866593,
				"y": 0.1234283808,
				"z": 1.2846272864,
				"element": "N" 
			},
			{
				"x": -5.3139118706,
				"y": 2.1094409053,
				"z": 2.327405084,
				"element": "O" 
			},
			{
				"x": 1.4947617545,
				"y": -0.824347046,
				"z": -3.680767321,
				"element": "H" 
			},
			{
				"x": 2.8096223134,
				"y": -1.8959622342,
				"z": -3.1804527721,
				"element": "H" 
			},
			{
				"x": 3.0395331232,
				"y": -0.1427233698,
				"z": -3.1443343808,
				"element": "H" 
			},
			{
				"x": 2.6381474107,
				"y": -1.0613776578,
				"z": 0.5023248069,
				"element": "H" 
			},
			{
				"x": 3.4945025019,
				"y": -2.0279419171,
				"z": -0.7043651429,
				"element": "H" 
			},
			{
				"x": 3.7151028058,
				"y": -0.2735001286,
				"z": -0.6691203983,
				"element": "H" 
			},
			{
				"x": -0.0351980443,
				"y": -2.0064387273,
				"z": -2.014089993,
				"element": "H" 
			},
			{
				"x": 0.3659001348,
				"y": -2.0271922785,
				"z": -0.2873815295,
				"element": "H" 
			},
			{
				"x": 1.2770368544,
				"y": -3.0333301934,
				"z": -1.4245731917,
				"element": "H" 
			},
			{
				"x": 1.8425223431,
				"y": 1.2483489176,
				"z": -1.5082213733,
				"element": "H" 
			},
			{
				"x": 0.296154802,
				"y": 0.5855304381,
				"z": -1.9994796969,
				"element": "H" 
			},
			{
				"x": 1.2541987899,
				"y": 1.0904038578,
				"z": 0.7139522773,
				"element": "H" 
			},
			{
				"x": -0.2392934617,
				"y": 1.6070638682,
				"z": 2.3730022401,
				"element": "H" 
			},
			{
				"x": -3.9074291157,
				"y": 0.1676220141,
				"z": -0.5913412318,
				"element": "H" 
			},
			{
				"x": -1.6066995136,
				"y": -0.0603725937,
				"z": -1.3686422153,
				"element": "H" 
			},
			{
				"x": -5.3040161115,
				"y": -0.7956502358,
				"z": 1.1333087606,
				"element": "H" 
			},
			{
				"x": -6.6398114286,
				"y": 0.165415945,
				"z": 1.6307755017,
				"element": "H" 
			}
		],
		 "valence_orbital": [ 
			{
				"type": "occ",
				"energy": -0.29307,
				"method": "rhf"
			},
			{
				"type": "occ",
				"energy": -0.26208,
				"method": "rhf"
			},
			{
				"type": "occ",
				"energy": -0.24463,
				"method": "rhf"
			},
			{
				"type": "occ",
				"energy": -0.2393,
				"method": "rhf"
			},
			{
				"type": "occ",
				"energy": -0.20586,
				"method": "rhf"
			},
			{
				"type": "unocc",
				"energy": -0.01793,
				"method": "rhf"
			},
			{
				"type": "unocc",
				"energy": -0.01155,
				"method": "rhf"
			},
			{
				"type": "unocc",
				"energy": 0.03942,
				"method": "rhf"
			},
			{
				"type": "unocc",
				"energy": 0.0556,
				"method": "rhf"
			},
			{
				"type": "unocc",
				"energy": 0.06305,
				"method": "rhf"
			}
		],
		"cosmo_sigma_profile": { 
			"-0.025": 0.0,
			"-0.024": 0.0,
			"-0.023": 0.0,
			"-0.022": 0.0,
			"-0.021": 0.0,
			"-0.02": 0.0,
			"-0.019": 0.0,
			"-0.018": 0.0,
			"-0.017": 0.0,
			"-0.016": 0.0,
			"-0.015": 0.0,
			"-0.014": 0.716378121739,
			"-0.013": 3.3889730014,
			"-0.012": 3.29301943896,
			"-0.011": 3.86318647264,
			"-0.01": 3.7729298752,
			"-0.009": 3.27400456246,
			"-0.008": 4.66880437965,
			"-0.007": 4.48091727267,
			"-0.006": 8.0199738309,
			"-0.005": 9.34453085512,
			"-0.004": 12.0415220947,
			"-0.003": 20.7585169035,
			"-0.002": 28.4598469302,
			"-0.001": 26.0753411082,
			"0.0": 25.7302379298,
			"0.001": 31.318160204,
			"0.002": 27.193695179,
			"0.003": 15.4058769335,
			"0.004": 21.3123479527,
			"0.005": 11.5238881219,
			"0.006": 2.86897115475,
			"0.007": 2.61565413751,
			"0.008": 2.39351966025,
			"0.009": 1.62835951309,
			"0.01": 2.36364005665,
			"0.011": 1.47794622599,
			"0.012": 2.57138608576,
			"0.013": 3.87130279729,
			"0.014": 5.39269685667,
			"0.015": 1.22197408584,
			"0.016": 0.0,
			"0.017": 0.0,
			"0.018": 0.0,
			"0.019": 0.0,
			"0.02": 0.0,
			"0.021": 0.0,
			"0.022": 0.0,
			"0.023": 0.0,
			"0.024": 0.0,
			"0.025": 0.0
		}
	}
}
