{
	 "smiles": "ICCC1=CC=C(CCI)C=C1", 
	 "Tm": 384.15, 
	 "num_atms": 24, 
	 "gaussian": { 
		 "optdone": 1, 
		 "sigma_profile": "no", 
		 "theory": "DFT", 
		 "functional": "B3LYP", 
		 "basiset": "6-31G**", 
		 "properties": { 
			 "R2extent": 3284.7808, 
			 "electric_dipole_moment_norm": 3.49441880146, 
			 "electric_quadrupole_moment_norm": 12.3186445366, 
			 "total_energy": -411.094363525, 
			 "HOMO_LUMO_gap": 0.19871, 
			 "cosmo_polarized_energy": -215915.85, 
			 "cosmo_cavitation_energy": 33.59, 
			 "cosmo_dispersion_energy": -26.21, 
			 "cosmo_repulsion_energy": 2.07, 
			 "cosmo_total_nonelectrostatic_energy": 9.45, 
			 "SMD_solvation_energy": 3.28 
		},
		"coords": [
			{
				"x": -3.1379586133,
				"y": -4.8594483308,
				"z": 1.3257130425,
				"element": "I" 
			},
			{
				"x": -1.8333252009,
				"y": -3.1642922883,
				"z": 0.8488810811,
				"element": "C" 
			},
			{
				"x": -2.5446334752,
				"y": -2.093855451,
				"z": 0.0184091083,
				"element": "C" 
			},
			{
				"x": -1.5922625543,
				"y": -0.9510334043,
				"z": -0.2758484917,
				"element": "C" 
			},
			{
				"x": -0.7814908316,
				"y": -0.9654452957,
				"z": -1.4175023564,
				"element": "C" 
			},
			{
				"x": 0.1204890799,
				"y": 0.0680627667,
				"z": -1.6696524551,
				"element": "C" 
			},
			{
				"x": 0.241580005,
				"y": 1.1470769835,
				"z": -0.7867893895,
				"element": "C" 
			},
			{
				"x": 1.224699649,
				"y": 2.2677809713,
				"z": -1.046764548,
				"element": "C" 
			},
			{
				"x": 2.4411024112,
				"y": 2.293295357,
				"z": -0.1190780955,
				"element": "C" 
			},
			{
				"x": 3.8247845503,
				"y": 0.6231497903,
				"z": -0.4239420236,
				"element": "I" 
			},
			{
				"x": -0.5752771571,
				"y": 1.1656326371,
				"z": 0.3523133681,
				"element": "C" 
			},
			{
				"x": -1.4745290516,
				"y": 0.1323705904,
				"z": 0.6061749797,
				"element": "C" 
			},
			{
				"x": -0.986525481,
				"y": -3.6019750362,
				"z": 0.32167598,
				"element": "H" 
			},
			{
				"x": -1.5017840121,
				"y": -2.7859173922,
				"z": 1.8150784476,
				"element": "H" 
			},
			{
				"x": -3.4201656582,
				"y": -1.7289344191,
				"z": 0.5645633538,
				"element": "H" 
			},
			{
				"x": -2.9079351807,
				"y": -2.5360454757,
				"z": -0.9144841082,
				"element": "H" 
			},
			{
				"x": -0.8610461779,
				"y": -1.7903695595,
				"z": -2.1215613322,
				"element": "H" 
			},
			{
				"x": 0.7371411743,
				"y": 0.0363859028,
				"z": -2.5636806145,
				"element": "H" 
			},
			{
				"x": 0.7184806272,
				"y": 3.2337339651,
				"z": -0.8989059786,
				"element": "H" 
			},
			{
				"x": 1.5576167035,
				"y": 2.2483253247,
				"z": -2.0889061306,
				"element": "H" 
			},
			{
				"x": 3.0527395545,
				"y": 3.1802569191,
				"z": -0.2803444723,
				"element": "H" 
			},
			{
				"x": 2.1619744422,
				"y": 2.2265685052,
				"z": 0.9319266219,
				"element": "H" 
			},
			{
				"x": -0.5157725121,
				"y": 2.0030134803,
				"z": 1.0443074114,
				"element": "H" 
			},
			{
				"x": -2.1035022911,
				"y": 0.1731634594,
				"z": 1.4924166016,
				"element": "H" 
			}
		],
		 "valence_orbital": [ 
			{
				"type": "occ",
				"energy": -0.26026,
				"method": "rhf"
			},
			{
				"type": "occ",
				"energy": -0.25803,
				"method": "rhf"
			},
			{
				"type": "occ",
				"energy": -0.2569,
				"method": "rhf"
			},
			{
				"type": "occ",
				"energy": -0.255,
				"method": "rhf"
			},
			{
				"type": "occ",
				"energy": -0.24743,
				"method": "rhf"
			},
			{
				"type": "unocc",
				"energy": -0.04872,
				"method": "rhf"
			},
			{
				"type": "unocc",
				"energy": -0.04205,
				"method": "rhf"
			},
			{
				"type": "unocc",
				"energy": -0.01346,
				"method": "rhf"
			},
			{
				"type": "unocc",
				"energy": -0.00564,
				"method": "rhf"
			},
			{
				"type": "unocc",
				"energy": 0.03712,
				"method": "rhf"
			}
		],
		"cosmo_sigma_profile": { 
			"0.0": 0.0,
			"0.0": 0.0,
			"0.0": 0.0,
			"0.0": 0.0,
			"0.0": 0.0,
			"0.0": 0.0,
			"0.0": 0.0,
			"0.0": 0.0,
			"0.0": 0.0,
			"0.0": 0.0,
			"0.0": 0.0,
			"0.0": 0.0,
			"0.0": 0.0,
			"0.0": 0.0,
			"0.0": 0.0,
			"0.0": 0.0,
			"0.0": 0.0,
			"0.0": 0.0,
			"0.0": 0.0,
			"0.0": 0.0,
			"0.0": 0.0,
			"0.0": 0.0,
			"0.0": 0.0,
			"0.0": 0.0,
			"0.0": 0.0,
			"0.0": 0.0,
			"0.0": 0.0,
			"0.0": 0.0,
			"0.0": 0.0,
			"0.0": 0.0,
			"0.0": 0.0,
			"0.0": 0.0,
			"0.0": 0.0,
			"0.0": 0.0,
			"0.0": 0.0,
			"0.0": 0.0,
			"0.0": 0.0,
			"0.0": 0.0,
			"0.0": 0.0,
			"0.0": 0.0,
			"0.0": 0.0,
			"0.0": 0.0,
			"0.0": 0.0,
			"0.0": 0.0,
			"0.0": 0.0,
			"0.0": 0.0,
			"0.0": 0.0,
			"0.0": 0.0,
			"0.0": 0.0,
			"0.0": 0.0,
			"0.0": 0.0
		}
	}
}
