{
	 "smiles": "OC(=O)C1=CC(S)=CC=C1", 
	 "Tm": 419.15, 
	 "num_atms": 16, 
	 "gaussian": { 
		 "optdone": 1, 
		 "sigma_profile": "yes", 
		 "theory": "DFT", 
		 "functional": "B3LYP", 
		 "basiset": "6-31G**", 
		 "properties": { 
			 "R2extent": 2343.2061, 
			 "electric_dipole_moment_norm": 1.10365476486, 
			 "electric_quadrupole_moment_norm": 13.1662736433, 
			 "total_energy": -819.010872916, 
			 "HOMO_LUMO_gap": 0.17491, 
			 "cosmo_polarized_energy": -10.75, 
			 "cosmo_cavitation_energy": 22.47, 
			 "cosmo_dispersion_energy": -17.18, 
			 "cosmo_repulsion_energy": 1.34, 
			 "cosmo_total_nonelectrostatic_energy": 6.63, 
			 "SMD_solvation_energy": 4.63 
		},
		"coords": [
			{
				"x": -1.3075466086,
				"y": -2.2765769194,
				"z": -2.4880806429,
				"element": "O" 
			},
			{
				"x": -0.6135977857,
				"y": -1.1126033389,
				"z": -2.5636925309,
				"element": "C" 
			},
			{
				"x": -0.6161674461,
				"y": -0.4249062661,
				"z": -3.5650470257,
				"element": "O" 
			},
			{
				"x": 0.1265098967,
				"y": -0.7904602079,
				"z": -1.313325948,
				"element": "C" 
			},
			{
				"x": 0.0825501926,
				"y": -1.6342733671,
				"z": -0.1960213453,
				"element": "C" 
			},
			{
				"x": 0.7917720285,
				"y": -1.2969206807,
				"z": 0.9603310236,
				"element": "C" 
			},
			{
				"x": 0.7894685068,
				"y": -2.3161686061,
				"z": 2.427590932,
				"element": "S" 
			},
			{
				"x": 1.5428322468,
				"y": -0.1123499768,
				"z": 0.9891286661,
				"element": "C" 
			},
			{
				"x": 1.5813758527,
				"y": 0.7224527711,
				"z": -0.1273446006,
				"element": "C" 
			},
			{
				"x": 0.8764997634,
				"y": 0.3909638335,
				"z": -1.2817460136,
				"element": "C" 
			},
			{
				"x": -1.7433233893,
				"y": -2.3793142286,
				"z": -3.3500466141,
				"element": "H" 
			},
			{
				"x": -0.5048672509,
				"y": -2.5440938541,
				"z": -0.2426456011,
				"element": "H" 
			},
			{
				"x": -0.0162961371,
				"y": -3.2831193418,
				"z": 1.9498436273,
				"element": "H" 
			},
			{
				"x": 2.0967030119,
				"y": 0.1555368173,
				"z": 1.8844028644,
				"element": "H" 
			},
			{
				"x": 2.1666913889,
				"y": 1.6362600579,
				"z": -0.0911188689,
				"element": "H" 
			},
			{
				"x": 0.8923957293,
				"y": 1.0248733078,
				"z": -2.1610279221,
				"element": "H" 
			}
		],
		 "valence_orbital": [ 
			{
				"type": "occ",
				"energy": -0.32524,
				"method": "rhf"
			},
			{
				"type": "occ",
				"energy": -0.30517,
				"method": "rhf"
			},
			{
				"type": "occ",
				"energy": -0.2812,
				"method": "rhf"
			},
			{
				"type": "occ",
				"energy": -0.26978,
				"method": "rhf"
			},
			{
				"type": "occ",
				"energy": -0.22898,
				"method": "rhf"
			},
			{
				"type": "unocc",
				"energy": -0.05407,
				"method": "rhf"
			},
			{
				"type": "unocc",
				"energy": -0.01515,
				"method": "rhf"
			},
			{
				"type": "unocc",
				"energy": 0.00801,
				"method": "rhf"
			},
			{
				"type": "unocc",
				"energy": 0.0512,
				"method": "rhf"
			},
			{
				"type": "unocc",
				"energy": 0.06348,
				"method": "rhf"
			}
		],
		"cosmo_sigma_profile": { 
			"-0.025": 0.0,
			"-0.024": 0.0,
			"-0.023": 0.0,
			"-0.022": 0.0,
			"-0.021": 0.0,
			"-0.02": 0.0,
			"-0.019": 0.0656144933842,
			"-0.018": 0.708487860096,
			"-0.017": 1.27083791731,
			"-0.016": 0.615524751449,
			"-0.015": 0.782819210055,
			"-0.014": 0.496768093389,
			"-0.013": 0.416191944059,
			"-0.012": 1.00209505312,
			"-0.011": 3.42011496142,
			"-0.01": 3.44290807173,
			"-0.009": 2.34689773213,
			"-0.008": 2.70752242331,
			"-0.007": 6.07189563596,
			"-0.006": 9.14032936498,
			"-0.005": 7.61578202236,
			"-0.004": 8.0705970414,
			"-0.003": 8.6991879994,
			"-0.002": 9.5107861912,
			"-0.001": 10.516303446,
			"0.0": 11.4154328574,
			"0.001": 13.044482078,
			"0.002": 15.0609325425,
			"0.003": 22.0127246529,
			"0.004": 10.7859006806,
			"0.005": 5.44159723608,
			"0.006": 6.17719290583,
			"0.007": 5.81507541746,
			"0.008": 3.84125538938,
			"0.009": 2.33059591515,
			"0.01": 2.00298182606,
			"0.011": 4.05430496303,
			"0.012": 3.50888431583,
			"0.013": 0.0516898271219,
			"0.014": 0.0,
			"0.015": 0.0,
			"0.016": 0.0,
			"0.017": 0.0,
			"0.018": 0.0,
			"0.019": 0.0,
			"0.02": 0.0,
			"0.021": 0.0,
			"0.022": 0.0,
			"0.023": 0.0,
			"0.024": 0.0,
			"0.025": 0.0
		}
	}
}
