{
	 "smiles": "ClCC(=O)ONC1=NC2=C(NC1=O)C=CC=C2", 
	 "Tm": 461.15, 
	 "num_atms": 25, 
	 "gaussian": { 
		 "optdone": 1, 
		 "sigma_profile": "yes", 
		 "theory": "DFT", 
		 "functional": "B3LYP", 
		 "basiset": "6-31G**", 
		 "properties": { 
			 "R2extent": 7564.072, 
			 "electric_dipole_moment_norm": 4.83665342567, 
			 "electric_quadrupole_moment_norm": 9.29364495126, 
			 "total_energy": -1235.9700217, 
			 "HOMO_LUMO_gap": 0.15549, 
			 "cosmo_polarized_energy": -19.25, 
			 "cosmo_cavitation_energy": 32.97, 
			 "cosmo_dispersion_energy": -24.33, 
			 "cosmo_repulsion_energy": 1.9, 
			 "cosmo_total_nonelectrostatic_energy": 10.54, 
			 "SMD_solvation_energy": 5.61 
		},
		"coords": [
			{
				"x": 1.6669476291,
				"y": -6.6789199624,
				"z": 1.054833603,
				"element": "Cl" 
			},
			{
				"x": 0.3847164524,
				"y": -5.5108347326,
				"z": 1.4928053045,
				"element": "C" 
			},
			{
				"x": 0.1815923651,
				"y": -4.4512239211,
				"z": 0.4206940198,
				"element": "C" 
			},
			{
				"x": 0.4205291613,
				"y": -4.5381550472,
				"z": -0.7589084106,
				"element": "O" 
			},
			{
				"x": -0.3848892966,
				"y": -3.3714273375,
				"z": 1.0116549565,
				"element": "O" 
			},
			{
				"x": -0.7882234853,
				"y": -2.3685084006,
				"z": 0.0612735409,
				"element": "N" 
			},
			{
				"x": -0.3952934626,
				"y": -1.0797960066,
				"z": 0.436796009,
				"element": "C" 
			},
			{
				"x": 0.1015937909,
				"y": -0.3270583533,
				"z": -0.4921931301,
				"element": "N" 
			},
			{
				"x": 0.3318667134,
				"y": 1.0127509061,
				"z": -0.2337862162,
				"element": "C" 
			},
			{
				"x": 0.085178806,
				"y": 1.5655968507,
				"z": 1.044559996,
				"element": "C" 
			},
			{
				"x": -0.416805022,
				"y": 0.710722908,
				"z": 2.0134249134,
				"element": "N" 
			},
			{
				"x": -0.7335928524,
				"y": -0.623546842,
				"z": 1.8200318583,
				"element": "C" 
			},
			{
				"x": -1.2304924621,
				"y": -1.3115812738,
				"z": 2.6979362868,
				"element": "O" 
			},
			{
				"x": 0.3444047399,
				"y": 2.919133069,
				"z": 1.297566771,
				"element": "C" 
			},
			{
				"x": 0.8484186644,
				"y": 3.7180346421,
				"z": 0.2781242614,
				"element": "C" 
			},
			{
				"x": 1.0993712056,
				"y": 3.1825890748,
				"z": -0.9955595815,
				"element": "C" 
			},
			{
				"x": 0.8433836399,
				"y": 1.842351804,
				"z": -1.2469859339,
				"element": "C" 
			},
			{
				"x": 0.6398236948,
				"y": -5.0413516749,
				"z": 2.442786879,
				"element": "H" 
			},
			{
				"x": -0.5498536117,
				"y": -6.0636528001,
				"z": 1.6161921103,
				"element": "H" 
			},
			{
				"x": -0.3768635706,
				"y": -2.6310905756,
				"z": -0.8384962159,
				"element": "H" 
			},
			{
				"x": -0.6391906688,
				"y": 1.0671715879,
				"z": 2.935591578,
				"element": "H" 
			},
			{
				"x": 0.1500714869,
				"y": 3.3318463631,
				"z": 2.2838969008,
				"element": "H" 
			},
			{
				"x": 1.0488674493,
				"y": 4.7669594466,
				"z": 0.4737322651,
				"element": "H" 
			},
			{
				"x": 1.4936265815,
				"y": 3.8177832818,
				"z": -1.7821038396,
				"element": "H" 
			},
			{
				"x": 1.0276120517,
				"y": 1.3976069935,
				"z": -2.2192679259,
				"element": "H" 
			}
		],
		 "valence_orbital": [ 
			{
				"type": "occ",
				"energy": -0.30341,
				"method": "rhf"
			},
			{
				"type": "occ",
				"energy": -0.28909,
				"method": "rhf"
			},
			{
				"type": "occ",
				"energy": -0.26181,
				"method": "rhf"
			},
			{
				"type": "occ",
				"energy": -0.2517,
				"method": "rhf"
			},
			{
				"type": "occ",
				"energy": -0.22911,
				"method": "rhf"
			},
			{
				"type": "unocc",
				"energy": -0.07362,
				"method": "rhf"
			},
			{
				"type": "unocc",
				"energy": -0.02042,
				"method": "rhf"
			},
			{
				"type": "unocc",
				"energy": -0.01899,
				"method": "rhf"
			},
			{
				"type": "unocc",
				"energy": -0.00615,
				"method": "rhf"
			},
			{
				"type": "unocc",
				"energy": 0.01409,
				"method": "rhf"
			}
		],
		"cosmo_sigma_profile": { 
			"-0.025": 0.0,
			"-0.024": 0.0,
			"-0.023": 0.0,
			"-0.022": 0.0,
			"-0.021": 0.0,
			"-0.02": 0.0,
			"-0.019": 0.0,
			"-0.018": 0.0,
			"-0.017": 0.130267588128,
			"-0.016": 1.20842591814,
			"-0.015": 1.43840536783,
			"-0.014": 1.56883093634,
			"-0.013": 1.1087232243,
			"-0.012": 0.64938614585,
			"-0.011": 3.59219795126,
			"-0.01": 5.75654048289,
			"-0.009": 4.87678289049,
			"-0.008": 6.76967045374,
			"-0.007": 9.37873134238,
			"-0.006": 15.0645025016,
			"-0.005": 16.760569623,
			"-0.004": 15.3612361515,
			"-0.003": 13.2454399014,
			"-0.002": 15.9725546951,
			"-0.001": 14.2698140494,
			"0.0": 13.5649544134,
			"0.001": 14.8657200779,
			"0.002": 17.0596560165,
			"0.003": 19.0873278344,
			"0.004": 16.8564383273,
			"0.005": 12.5186602516,
			"0.006": 6.76321274368,
			"0.007": 5.0771555639,
			"0.008": 6.18407943531,
			"0.009": 6.83720802762,
			"0.01": 6.16380907404,
			"0.011": 4.53332258097,
			"0.012": 4.99974438393,
			"0.013": 4.88040568181,
			"0.014": 0.638014156278,
			"0.015": 0.0,
			"0.016": 0.0,
			"0.017": 0.0,
			"0.018": 0.0,
			"0.019": 0.0,
			"0.02": 0.0,
			"0.021": 0.0,
			"0.022": 0.0,
			"0.023": 0.0,
			"0.024": 0.0,
			"0.025": 0.0
		}
	}
}
