{
	 "smiles": "CSC1=CC=C(C=C1)N1C(C)=C(C=C1C1=CC=CC=C1)C(O)=O", 
	 "Tm": 475.15, 
	 "num_atms": 40, 
	 "gaussian": { 
		 "optdone": 1, 
		 "sigma_profile": "yes", 
		 "theory": "DFT", 
		 "functional": "B3LYP", 
		 "basiset": "6-31G**", 
		 "properties": { 
			 "R2extent": 9550.6692, 
			 "electric_dipole_moment_norm": 7.46204799636, 
			 "electric_quadrupole_moment_norm": 30.1202654409, 
			 "total_energy": -1337.66767227, 
			 "HOMO_LUMO_gap": 0.17396, 
			 "cosmo_polarized_energy": -20.57, 
			 "cosmo_cavitation_energy": 45.34, 
			 "cosmo_dispersion_energy": -31.26, 
			 "cosmo_repulsion_energy": 2.35, 
			 "cosmo_total_nonelectrostatic_energy": 16.44, 
			 "SMD_solvation_energy": 8.38 
		},
		"coords": [
			{
				"x": -0.3201217737,
				"y": -3.5776798969,
				"z": 4.7272784909,
				"element": "C" 
			},
			{
				"x": -1.1124421094,
				"y": -1.9506094279,
				"z": 4.9318947445,
				"element": "S" 
			},
			{
				"x": -0.9256465561,
				"y": -1.1891632481,
				"z": 3.3345296011,
				"element": "C" 
			},
			{
				"x": -0.3268302422,
				"y": -1.8025838931,
				"z": 2.2255626117,
				"element": "C" 
			},
			{
				"x": -0.2328190765,
				"y": -1.1260492291,
				"z": 1.0094166215,
				"element": "C" 
			},
			{
				"x": -0.7240519026,
				"y": 0.1744299045,
				"z": 0.8839312664,
				"element": "C" 
			},
			{
				"x": -1.3180958631,
				"y": 0.7946227925,
				"z": 1.9895767199,
				"element": "C" 
			},
			{
				"x": -1.4225838019,
				"y": 0.1190439168,
				"z": 3.1999614613,
				"element": "C" 
			},
			{
				"x": -0.629126922,
				"y": 0.8649841508,
				"z": -0.3658704972,
				"element": "N" 
			},
			{
				"x": -1.7180492435,
				"y": 1.1768121511,
				"z": -1.1617592342,
				"element": "C" 
			},
			{
				"x": -3.1204807377,
				"y": 0.8469241555,
				"z": -0.7447459058,
				"element": "C" 
			},
			{
				"x": -1.2220932606,
				"y": 1.6902895332,
				"z": -2.358913181,
				"element": "C" 
			},
			{
				"x": 0.1991309209,
				"y": 1.6553297243,
				"z": -2.2860426763,
				"element": "C" 
			},
			{
				"x": 0.5591757408,
				"y": 1.1567466087,
				"z": -1.0554006231,
				"element": "C" 
			},
			{
				"x": 1.912841776,
				"y": 0.9929432611,
				"z": -0.502681549,
				"element": "C" 
			},
			{
				"x": 2.2376513093,
				"y": 1.312240797,
				"z": 0.8281158518,
				"element": "C" 
			},
			{
				"x": 3.5468881302,
				"y": 1.1875795927,
				"z": 1.2901293397,
				"element": "C" 
			},
			{
				"x": 4.5609579586,
				"y": 0.7525810325,
				"z": 0.434528637,
				"element": "C" 
			},
			{
				"x": 4.2534385132,
				"y": 0.4400409456,
				"z": -0.8911714098,
				"element": "C" 
			},
			{
				"x": 2.9436231702,
				"y": 0.5526704073,
				"z": -1.3532290581,
				"element": "C" 
			},
			{
				"x": -1.9445589342,
				"y": 2.1579953475,
				"z": -3.5584831352,
				"element": "C" 
			},
			{
				"x": -3.2386831943,
				"y": 2.5747792931,
				"z": -3.3822765443,
				"element": "O" 
			},
			{
				"x": -1.4556571804,
				"y": 2.1943817724,
				"z": -4.6643602034,
				"element": "O" 
			},
			{
				"x": -0.4028658526,
				"y": -4.0657777596,
				"z": 5.7004460186,
				"element": "H" 
			},
			{
				"x": -0.8372531021,
				"y": -4.1869204946,
				"z": 3.9824654886,
				"element": "H" 
			},
			{
				"x": 0.7370249177,
				"y": -3.4790429044,
				"z": 4.4702552839,
				"element": "H" 
			},
			{
				"x": 0.0659651806,
				"y": -2.8101773008,
				"z": 2.2923512762,
				"element": "H" 
			},
			{
				"x": 0.2277018188,
				"y": -1.6079099715,
				"z": 0.1533018952,
				"element": "H" 
			},
			{
				"x": -1.6858168194,
				"y": 1.8120515742,
				"z": 1.9000008331,
				"element": "H" 
			},
			{
				"x": -1.8837159313,
				"y": 0.6120024229,
				"z": 4.0509285179,
				"element": "H" 
			},
			{
				"x": -3.1668841071,
				"y": -0.1287211718,
				"z": -0.2518353331,
				"element": "H" 
			},
			{
				"x": -3.542202843,
				"y": 1.5758851751,
				"z": -0.0402494745,
				"element": "H" 
			},
			{
				"x": -3.7712808751,
				"y": 0.8040273699,
				"z": -1.6207231303,
				"element": "H" 
			},
			{
				"x": 0.8696536038,
				"y": 2.019566843,
				"z": -3.0499504669,
				"element": "H" 
			},
			{
				"x": 1.4667304397,
				"y": 1.6737409843,
				"z": 1.4998526052,
				"element": "H" 
			},
			{
				"x": 3.7765305073,
				"y": 1.4424636896,
				"z": 2.3209482352,
				"element": "H" 
			},
			{
				"x": 5.5804829773,
				"y": 0.6592036284,
				"z": 0.7971233414,
				"element": "H" 
			},
			{
				"x": 5.0330061162,
				"y": 0.0980060004,
				"z": -1.5660420794,
				"element": "H" 
			},
			{
				"x": 2.7044516031,
				"y": 0.2887106137,
				"z": -2.3789368463,
				"element": "H" 
			},
			{
				"x": -3.4128943548,
				"y": 2.69118161,
				"z": -2.4388274931,
				"element": "H" 
			}
		],
		 "valence_orbital": [ 
			{
				"type": "occ",
				"energy": -0.26182,
				"method": "rhf"
			},
			{
				"type": "occ",
				"energy": -0.25255,
				"method": "rhf"
			},
			{
				"type": "occ",
				"energy": -0.24914,
				"method": "rhf"
			},
			{
				"type": "occ",
				"energy": -0.22275,
				"method": "rhf"
			},
			{
				"type": "occ",
				"energy": -0.20648,
				"method": "rhf"
			},
			{
				"type": "unocc",
				"energy": -0.03252,
				"method": "rhf"
			},
			{
				"type": "unocc",
				"energy": -0.02827,
				"method": "rhf"
			},
			{
				"type": "unocc",
				"energy": -0.01779,
				"method": "rhf"
			},
			{
				"type": "unocc",
				"energy": -0.00594,
				"method": "rhf"
			},
			{
				"type": "unocc",
				"energy": -0.00157,
				"method": "rhf"
			}
		],
		"cosmo_sigma_profile": { 
			"-0.025": 0.0,
			"-0.024": 0.0,
			"-0.023": 0.0,
			"-0.022": 0.0,
			"-0.021": 0.0,
			"-0.02": 0.0,
			"-0.019": 0.0,
			"-0.018": 0.0,
			"-0.017": 0.147342086231,
			"-0.016": 0.899884243172,
			"-0.015": 0.836756163741,
			"-0.014": 0.906219172668,
			"-0.013": 0.904564072424,
			"-0.012": 0.860012739799,
			"-0.011": 0.742038042177,
			"-0.01": 1.21284945368,
			"-0.009": 0.919762000096,
			"-0.008": 0.89606147987,
			"-0.007": 8.12033191636,
			"-0.006": 25.9291292227,
			"-0.005": 30.1049115271,
			"-0.004": 31.4907544174,
			"-0.003": 31.2914438003,
			"-0.002": 29.7279021508,
			"-0.001": 23.8175702186,
			"0.0": 18.249881794,
			"0.001": 19.8501118999,
			"0.002": 20.810449934,
			"0.003": 23.2827266124,
			"0.004": 26.5964152139,
			"0.005": 20.1396901054,
			"0.006": 11.0349893509,
			"0.007": 5.50430652885,
			"0.008": 5.31155059015,
			"0.009": 4.65496564365,
			"0.01": 2.70465765371,
			"0.011": 5.4711003522,
			"0.012": 6.06776505272,
			"0.013": 4.42156431905,
			"0.014": 1.11092996904,
			"0.015": 0.0,
			"0.016": 0.0,
			"0.017": 0.0,
			"0.018": 0.0,
			"0.019": 0.0,
			"0.02": 0.0,
			"0.021": 0.0,
			"0.022": 0.0,
			"0.023": 0.0,
			"0.024": 0.0,
			"0.025": 0.0
		}
	}
}
