{
	 "smiles": "O1N=C2C=CC3=C(C=C(N=N3)C3=CC=CC=C3)C2=N1", 
	 "Tm": 475.15, 
	 "num_atms": 27, 
	 "gaussian": { 
		 "optdone": 1, 
		 "sigma_profile": "yes", 
		 "theory": "DFT", 
		 "functional": "B3LYP", 
		 "basiset": "6-31G**", 
		 "properties": { 
			 "R2extent": 7634.3807, 
			 "electric_dipole_moment_norm": 1.61677941909, 
			 "electric_quadrupole_moment_norm": 16.3440509278, 
			 "total_energy": -832.42395646, 
			 "HOMO_LUMO_gap": 0.1433, 
			 "cosmo_polarized_energy": -12.31, 
			 "cosmo_cavitation_energy": 32.74, 
			 "cosmo_dispersion_energy": -24.4, 
			 "cosmo_repulsion_energy": 1.8, 
			 "cosmo_total_nonelectrostatic_energy": 10.14, 
			 "SMD_solvation_energy": 2.78 
		},
		"coords": [
			{
				"x": 3.7593940391,
				"y": -0.2295067291,
				"z": -4.5984057772,
				"element": "O" 
			},
			{
				"x": 3.687698085,
				"y": 1.0252581043,
				"z": -5.1555627813,
				"element": "N" 
			},
			{
				"x": 2.7966975098,
				"y": 1.665917053,
				"z": -4.4273906463,
				"element": "C" 
			},
			{
				"x": 2.3109017365,
				"y": 3.0151806187,
				"z": -4.5423369527,
				"element": "C" 
			},
			{
				"x": 1.3775613063,
				"y": 3.4227947627,
				"z": -3.6434834951,
				"element": "C" 
			},
			{
				"x": 0.8708592528,
				"y": 2.552359088,
				"z": -2.5964048566,
				"element": "C" 
			},
			{
				"x": 1.3230780033,
				"y": 1.2148258538,
				"z": -2.4536719198,
				"element": "C" 
			},
			{
				"x": 0.786029023,
				"y": 0.4588298814,
				"z": -1.4198229883,
				"element": "C" 
			},
			{
				"x": -0.1775955761,
				"y": 1.0596050222,
				"z": -0.6014358659,
				"element": "C" 
			},
			{
				"x": -0.5566415369,
				"y": 2.3517451505,
				"z": -0.7898764533,
				"element": "N" 
			},
			{
				"x": -0.0455810385,
				"y": 3.0810383879,
				"z": -1.7547584489,
				"element": "N" 
			},
			{
				"x": -0.8340763703,
				"y": 0.3517083032,
				"z": 0.5228992787,
				"element": "C" 
			},
			{
				"x": -0.8307364262,
				"y": -1.0508360927,
				"z": 0.6088666751,
				"element": "C" 
			},
			{
				"x": -1.4470884076,
				"y": -1.6985051,
				"z": 1.6776801688,
				"element": "C" 
			},
			{
				"x": -2.0785496426,
				"y": -0.9567084362,
				"z": 2.6777587202,
				"element": "C" 
			},
			{
				"x": -2.0952491645,
				"y": 0.4378720283,
				"z": 2.5974381895,
				"element": "C" 
			},
			{
				"x": -1.4824366376,
				"y": 1.088302131,
				"z": 1.5297671475,
				"element": "C" 
			},
			{
				"x": 2.3180894839,
				"y": 0.7809011505,
				"z": -3.4068610229,
				"element": "C" 
			},
			{
				"x": 2.9202541462,
				"y": -0.3807949565,
				"z": -3.5273005039,
				"element": "N" 
			},
			{
				"x": 2.6893159703,
				"y": 3.6649708739,
				"z": -5.3226865611,
				"element": "H" 
			},
			{
				"x": 0.9660017304,
				"y": 4.4262602157,
				"z": -3.6660288845,
				"element": "H" 
			},
			{
				"x": 1.125635836,
				"y": -0.5570306301,
				"z": -1.2540906817,
				"element": "H" 
			},
			{
				"x": -0.3677592441,
				"y": -1.6479040279,
				"z": -0.1706237373,
				"element": "H" 
			},
			{
				"x": -1.4398333415,
				"y": -2.7834351869,
				"z": 1.7247380156,
				"element": "H" 
			},
			{
				"x": -2.5578391104,
				"y": -1.4621753227,
				"z": 3.5110625166,
				"element": "H" 
			},
			{
				"x": -2.5865479797,
				"y": 1.0215150564,
				"z": 3.3704741958,
				"element": "H" 
			},
			{
				"x": -1.4947816467,
				"y": 2.1694128006,
				"z": 1.4568566691,
				"element": "H" 
			}
		],
		 "valence_orbital": [ 
			{
				"type": "occ",
				"energy": -0.29593,
				"method": "rhf"
			},
			{
				"type": "occ",
				"energy": -0.27968,
				"method": "rhf"
			},
			{
				"type": "occ",
				"energy": -0.26185,
				"method": "rhf"
			},
			{
				"type": "occ",
				"energy": -0.24363,
				"method": "rhf"
			},
			{
				"type": "occ",
				"energy": -0.2423,
				"method": "rhf"
			},
			{
				"type": "unocc",
				"energy": -0.099,
				"method": "rhf"
			},
			{
				"type": "unocc",
				"energy": -0.08177,
				"method": "rhf"
			},
			{
				"type": "unocc",
				"energy": -0.04542,
				"method": "rhf"
			},
			{
				"type": "unocc",
				"energy": -0.0113,
				"method": "rhf"
			},
			{
				"type": "unocc",
				"energy": 0.00591,
				"method": "rhf"
			}
		],
		"cosmo_sigma_profile": { 
			"-0.025": 0.0,
			"-0.024": 0.0,
			"-0.023": 0.0,
			"-0.022": 0.0,
			"-0.021": 0.0,
			"-0.02": 0.0,
			"-0.019": 0.0,
			"-0.018": 0.0,
			"-0.017": 0.0,
			"-0.016": 0.0,
			"-0.015": 0.0,
			"-0.014": 0.0,
			"-0.013": 0.0,
			"-0.012": 0.0,
			"-0.011": 0.00289081877787,
			"-0.01": 0.963050868205,
			"-0.009": 3.47735705778,
			"-0.008": 5.52719443093,
			"-0.007": 7.31645355514,
			"-0.006": 12.2363527649,
			"-0.005": 18.9962413765,
			"-0.004": 22.3366025456,
			"-0.003": 23.8218088294,
			"-0.002": 24.5554991157,
			"-0.001": 18.5480516093,
			"0.0": 17.0041399452,
			"0.001": 15.8076351715,
			"0.002": 13.7162638632,
			"0.003": 13.9571189217,
			"0.004": 21.2666094059,
			"0.005": 15.8961578915,
			"0.006": 6.02397476383,
			"0.007": 3.87016124999,
			"0.008": 4.4835416209,
			"0.009": 3.76967592515,
			"0.01": 3.89878626793,
			"0.011": 3.14703376698,
			"0.012": 2.27871953003,
			"0.013": 1.96801698103,
			"0.014": 1.15619858691,
			"0.015": 0.296247202873,
			"0.016": 0.0,
			"0.017": 0.0,
			"0.018": 0.0,
			"0.019": 0.0,
			"0.02": 0.0,
			"0.021": 0.0,
			"0.022": 0.0,
			"0.023": 0.0,
			"0.024": 0.0,
			"0.025": 0.0
		}
	}
}
