{
	 "smiles": "OC(=O)C1=C(O)C=CC(Br)=C1", 
	 "Tm": 443.15, 
	 "num_atms": 16, 
	 "gaussian": { 
		 "optdone": 1, 
		 "sigma_profile": "yes", 
		 "theory": "DFT", 
		 "functional": "B3LYP", 
		 "basiset": "6-31G**", 
		 "properties": { 
			 "R2extent": 3736.8947, 
			 "electric_dipole_moment_norm": 6.71106459587, 
			 "electric_quadrupole_moment_norm": 8.6291916939, 
			 "total_energy": -3066.84154301, 
			 "HOMO_LUMO_gap": 0.18689, 
			 "cosmo_polarized_energy": -17.62, 
			 "cosmo_cavitation_energy": 23.05, 
			 "cosmo_dispersion_energy": -17.88, 
			 "cosmo_repulsion_energy": 1.43, 
			 "cosmo_total_nonelectrostatic_energy": 6.6, 
			 "SMD_solvation_energy": 4.33 
		},
		"coords": [
			{
				"x": 2.4801845422,
				"y": 0.3041615353,
				"z": -0.7182356482,
				"element": "O" 
			},
			{
				"x": 1.652287768,
				"y": -0.7542036489,
				"z": -0.6470999864,
				"element": "C" 
			},
			{
				"x": 2.005437127,
				"y": -1.8412853391,
				"z": -1.0468943653,
				"element": "O" 
			},
			{
				"x": 0.2778746562,
				"y": -0.5418433254,
				"z": -0.0560590702,
				"element": "C" 
			},
			{
				"x": -0.2255564467,
				"y": 0.6771718343,
				"z": 0.4345342091,
				"element": "C" 
			},
			{
				"x": 0.584386667,
				"y": 1.7864707032,
				"z": 0.3831923781,
				"element": "O" 
			},
			{
				"x": -1.5171530406,
				"y": 0.754223892,
				"z": 0.9602923672,
				"element": "C" 
			},
			{
				"x": -2.3261990257,
				"y": -0.37738114,
				"z": 1.0061753076,
				"element": "C" 
			},
			{
				"x": -1.8332515441,
				"y": -1.5892815005,
				"z": 0.5214835393,
				"element": "C" 
			},
			{
				"x": -2.9383566962,
				"y": -3.1439504952,
				"z": 0.5822407895,
				"element": "Br" 
			},
			{
				"x": -0.5502482595,
				"y": -1.6714996114,
				"z": -0.0021754472,
				"element": "C" 
			},
			{
				"x": 2.0524507781,
				"y": 1.1016557834,
				"z": -0.3596153227,
				"element": "H" 
			},
			{
				"x": 0.1326395211,
				"y": 2.5593982818,
				"z": 0.7447338835,
				"element": "H" 
			},
			{
				"x": -1.8931146675,
				"y": 1.7031564674,
				"z": 1.3359102882,
				"element": "H" 
			},
			{
				"x": -3.3283449409,
				"y": -0.3158834196,
				"z": 1.4145601502,
				"element": "H" 
			},
			{
				"x": -0.1497364385,
				"y": -2.6031100173,
				"z": -0.3833430727,
				"element": "H" 
			}
		],
		 "valence_orbital": [ 
			{
				"type": "occ",
				"energy": -0.30704,
				"method": "rhf"
			},
			{
				"type": "occ",
				"energy": -0.29539,
				"method": "rhf"
			},
			{
				"type": "occ",
				"energy": -0.28132,
				"method": "rhf"
			},
			{
				"type": "occ",
				"energy": -0.27207,
				"method": "rhf"
			},
			{
				"type": "occ",
				"energy": -0.2462,
				"method": "rhf"
			},
			{
				"type": "unocc",
				"energy": -0.05931,
				"method": "rhf"
			},
			{
				"type": "unocc",
				"energy": -0.02407,
				"method": "rhf"
			},
			{
				"type": "unocc",
				"energy": -0.00275,
				"method": "rhf"
			},
			{
				"type": "unocc",
				"energy": 0.03098,
				"method": "rhf"
			},
			{
				"type": "unocc",
				"energy": 0.04649,
				"method": "rhf"
			}
		],
		"cosmo_sigma_profile": { 
			"-0.025": 0.0,
			"-0.024": 0.0,
			"-0.023": 0.0,
			"-0.022": 0.0,
			"-0.021": 0.0,
			"-0.02": 0.654057091226,
			"-0.019": 1.35280259321,
			"-0.018": 1.30145159645,
			"-0.017": 0.969719133382,
			"-0.016": 1.131275347,
			"-0.015": 1.00106571522,
			"-0.014": 0.755965914355,
			"-0.013": 1.10454561696,
			"-0.012": 0.968786000655,
			"-0.011": 1.17048060308,
			"-0.01": 1.68774279298,
			"-0.009": 2.4753280098,
			"-0.008": 4.14282398591,
			"-0.007": 4.95507945338,
			"-0.006": 6.30828115681,
			"-0.005": 7.75240210393,
			"-0.004": 8.85248185412,
			"-0.003": 8.9516148936,
			"-0.002": 9.85327213869,
			"-0.001": 12.5515950304,
			"0.0": 16.0832043517,
			"0.001": 21.9477447365,
			"0.002": 17.0794086709,
			"0.003": 9.6189188893,
			"0.004": 12.7103193649,
			"0.005": 6.48320694653,
			"0.006": 1.98612787921,
			"0.007": 2.55415804868,
			"0.008": 2.25511171898,
			"0.009": 2.74753663305,
			"0.01": 4.54507758104,
			"0.011": 5.26686164682,
			"0.012": 4.87078982867,
			"0.013": 2.24308783307,
			"0.014": 0.263241852409,
			"0.015": 0.0,
			"0.016": 0.0,
			"0.017": 0.0,
			"0.018": 0.0,
			"0.019": 0.0,
			"0.02": 0.0,
			"0.021": 0.0,
			"0.022": 0.0,
			"0.023": 0.0,
			"0.024": 0.0,
			"0.025": 0.0
		}
	}
}
