{
	 "smiles": "CC1=CC=C(NC=CC(=O)C2=CC=C3CCCCC3=C2)C=C1", 
	 "Tm": 412.15, 
	 "num_atms": 43, 
	 "gaussian": { 
		 "optdone": 1, 
		 "sigma_profile": "yes", 
		 "theory": "DFT", 
		 "functional": "B3LYP", 
		 "basiset": "6-31G**", 
		 "properties": { 
			 "R2extent": 9867.1461, 
			 "electric_dipole_moment_norm": 5.31856232548, 
			 "electric_quadrupole_moment_norm": 21.6187931881, 
			 "total_energy": -904.77570223, 
			 "HOMO_LUMO_gap": 0.15616, 
			 "cosmo_polarized_energy": -17.1, 
			 "cosmo_cavitation_energy": 45.63, 
			 "cosmo_dispersion_energy": -31.78, 
			 "cosmo_repulsion_energy": 2.43, 
			 "cosmo_total_nonelectrostatic_energy": 16.27, 
			 "SMD_solvation_energy": 7.38 
		},
		"coords": [
			{
				"x": 0.1989088399,
				"y": 1.2724107452,
				"z": 6.3440335318,
				"element": "C" 
			},
			{
				"x": 0.7607794568,
				"y": 0.7361863317,
				"z": 5.0487845977,
				"element": "C" 
			},
			{
				"x": 2.0109874104,
				"y": 0.1043994849,
				"z": 5.0041309779,
				"element": "C" 
			},
			{
				"x": 2.5472024804,
				"y": -0.3617901298,
				"z": 3.8086846088,
				"element": "C" 
			},
			{
				"x": 1.8415948494,
				"y": -0.2172517119,
				"z": 2.603291969,
				"element": "C" 
			},
			{
				"x": 2.4248782857,
				"y": -0.71059282,
				"z": 1.4263531564,
				"element": "N" 
			},
			{
				"x": 1.9859753936,
				"y": -0.5503832973,
				"z": 0.1416569726,
				"element": "C" 
			},
			{
				"x": 2.5988286523,
				"y": -1.0732012804,
				"z": -0.9501332411,
				"element": "C" 
			},
			{
				"x": 2.2196770327,
				"y": -0.8141031722,
				"z": -2.3426743121,
				"element": "C" 
			},
			{
				"x": 3.0356852083,
				"y": -1.0048877181,
				"z": -3.2460303818,
				"element": "O" 
			},
			{
				"x": 0.8471543753,
				"y": -0.2978453342,
				"z": -2.6877266945,
				"element": "C" 
			},
			{
				"x": 0.7331693377,
				"y": 0.5755892855,
				"z": -3.7788446256,
				"element": "C" 
			},
			{
				"x": -0.5125900815,
				"y": 1.0602449602,
				"z": -4.1681290568,
				"element": "C" 
			},
			{
				"x": -1.6743850193,
				"y": 0.6541888502,
				"z": -3.5035975104,
				"element": "C" 
			},
			{
				"x": -3.0581568512,
				"y": 1.1277108373,
				"z": -3.8732808855,
				"element": "C" 
			},
			{
				"x": -3.847550461,
				"y": 1.572960985,
				"z": -2.6201759995,
				"element": "C" 
			},
			{
				"x": -3.7585750991,
				"y": 0.5526441189,
				"z": -1.4473325177,
				"element": "C" 
			},
			{
				"x": -2.8675619415,
				"y": -0.6700424238,
				"z": -1.7714583799,
				"element": "C" 
			},
			{
				"x": -1.575637431,
				"y": -0.2483420203,
				"z": -2.4288349117,
				"element": "C" 
			},
			{
				"x": -0.3203886596,
				"y": -0.7076133175,
				"z": -2.0244950922,
				"element": "C" 
			},
			{
				"x": 0.5825948815,
				"y": 0.4005935989,
				"z": 2.6340943753,
				"element": "C" 
			},
			{
				"x": 0.0652058951,
				"y": 0.867824215,
				"z": 3.8410910467,
				"element": "C" 
			},
			{
				"x": 0.4695090124,
				"y": 0.6360228146,
				"z": 7.1926038111,
				"element": "H" 
			},
			{
				"x": -0.8926209853,
				"y": 1.3389985629,
				"z": 6.3089532142,
				"element": "H" 
			},
			{
				"x": 0.5793834426,
				"y": 2.2788538428,
				"z": 6.5606140485,
				"element": "H" 
			},
			{
				"x": 2.5798194554,
				"y": -0.0247701271,
				"z": 5.9216431825,
				"element": "H" 
			},
			{
				"x": 3.5227822397,
				"y": -0.842814075,
				"z": 3.8048536209,
				"element": "H" 
			},
			{
				"x": 3.2834677595,
				"y": -1.2306648066,
				"z": 1.5474172603,
				"element": "H" 
			},
			{
				"x": 1.1027990462,
				"y": 0.0662658487,
				"z": 0.0301586029,
				"element": "H" 
			},
			{
				"x": 3.5251955268,
				"y": -1.6338497483,
				"z": -0.839688747,
				"element": "H" 
			},
			{
				"x": 1.6359782209,
				"y": 0.8628475267,
				"z": -4.30767874,
				"element": "H" 
			},
			{
				"x": -0.5873680486,
				"y": 1.7546989376,
				"z": -5.001800387,
				"element": "H" 
			},
			{
				"x": -3.6016934407,
				"y": 0.3061856056,
				"z": -4.3633195664,
				"element": "H" 
			},
			{
				"x": -3.0104164897,
				"y": 1.9429736848,
				"z": -4.6027887276,
				"element": "H" 
			},
			{
				"x": -4.8925099552,
				"y": 1.7473847316,
				"z": -2.8979811427,
				"element": "H" 
			},
			{
				"x": -3.4504409485,
				"y": 2.5394176846,
				"z": -2.2919182347,
				"element": "H" 
			},
			{
				"x": -4.7575977362,
				"y": 0.2010948198,
				"z": -1.1679455881,
				"element": "H" 
			},
			{
				"x": -3.350080864,
				"y": 1.0529917263,
				"z": -0.5626057097,
				"element": "H" 
			},
			{
				"x": -3.4163596758,
				"y": -1.3372658419,
				"z": -2.4522320477,
				"element": "H" 
			},
			{
				"x": -2.6742243134,
				"y": -1.2512419661,
				"z": -0.8634964266,
				"element": "H" 
			},
			{
				"x": -0.2545828543,
				"y": -1.4230874451,
				"z": -1.2093537765,
				"element": "H" 
			},
			{
				"x": -0.0079407546,
				"y": 0.5083249845,
				"z": 1.7310441694,
				"element": "H" 
			},
			{
				"x": -0.9135951921,
				"y": 1.3412330522,
				"z": 3.8393135565,
				"element": "H" 
			}
		],
		 "valence_orbital": [ 
			{
				"type": "occ",
				"energy": -0.25896,
				"method": "rhf"
			},
			{
				"type": "occ",
				"energy": -0.24314,
				"method": "rhf"
			},
			{
				"type": "occ",
				"energy": -0.23774,
				"method": "rhf"
			},
			{
				"type": "occ",
				"energy": -0.22253,
				"method": "rhf"
			},
			{
				"type": "occ",
				"energy": -0.19942,
				"method": "rhf"
			},
			{
				"type": "unocc",
				"energy": -0.04326,
				"method": "rhf"
			},
			{
				"type": "unocc",
				"energy": -0.01136,
				"method": "rhf"
			},
			{
				"type": "unocc",
				"energy": -0.00478,
				"method": "rhf"
			},
			{
				"type": "unocc",
				"energy": 0.00292,
				"method": "rhf"
			},
			{
				"type": "unocc",
				"energy": 0.02451,
				"method": "rhf"
			}
		],
		"cosmo_sigma_profile": { 
			"-0.025": 0.0,
			"-0.024": 0.0,
			"-0.023": 0.0,
			"-0.022": 0.0,
			"-0.021": 0.0,
			"-0.02": 0.0,
			"-0.019": 0.0,
			"-0.018": 0.0,
			"-0.017": 0.0,
			"-0.016": 0.0402188659709,
			"-0.015": 0.881705541701,
			"-0.014": 1.51405914143,
			"-0.013": 1.08064666848,
			"-0.012": 1.49497510542,
			"-0.011": 1.31166050497,
			"-0.01": 2.00578251724,
			"-0.009": 1.43696875887,
			"-0.008": 2.95989003069,
			"-0.007": 4.57061541809,
			"-0.006": 6.80164210116,
			"-0.005": 15.0319673929,
			"-0.004": 27.5822799032,
			"-0.003": 34.7320719074,
			"-0.002": 37.4519121657,
			"-0.001": 42.1360557843,
			"0.0": 40.1513471102,
			"0.001": 30.5905867388,
			"0.002": 20.2646113654,
			"0.003": 18.5547169681,
			"0.004": 17.9764881515,
			"0.005": 18.8126182907,
			"0.006": 12.0767456561,
			"0.007": 2.04408450483,
			"0.008": 2.11129093503,
			"0.009": 1.52292101121,
			"0.01": 1.34448416368,
			"0.011": 1.76316987405,
			"0.012": 2.18421280633,
			"0.013": 3.14051820338,
			"0.014": 4.98103130184,
			"0.015": 2.07715483313,
			"0.016": 0.13578145015,
			"0.017": 0.0,
			"0.018": 0.0,
			"0.019": 0.0,
			"0.02": 0.0,
			"0.021": 0.0,
			"0.022": 0.0,
			"0.023": 0.0,
			"0.024": 0.0,
			"0.025": 0.0
		}
	}
}
