{
	 "smiles": "CC1=C(C=CC(=C1)N(CCO)CCO)N=N/C1=C(C=C(C=C1)[N+]([O-])=O)[N+]([O-])=O", 
	 "Tm": 463.15, 
	 "num_atms": 47, 
	 "gaussian": { 
		 "optdone": 1, 
		 "sigma_profile": "yes", 
		 "theory": "DFT", 
		 "functional": "B3LYP", 
		 "basiset": "6-31G**", 
		 "properties": { 
			 "R2extent": 19599.5391, 
			 "electric_dipole_moment_norm": 8.89868487531, 
			 "electric_quadrupole_moment_norm": 49.7571024295, 
			 "total_energy": -1384.0742814, 
			 "HOMO_LUMO_gap": 0.09946, 
			 "cosmo_polarized_energy": -24.39, 
			 "cosmo_cavitation_energy": 52.71, 
			 "cosmo_dispersion_energy": -36.27, 
			 "cosmo_repulsion_energy": 2.78, 
			 "cosmo_total_nonelectrostatic_energy": 19.22, 
			 "SMD_solvation_energy": 11.73 
		},
		"coords": [
			{
				"x": 1.7015599108,
				"y": -0.9736579088,
				"z": -0.8104950318,
				"element": "C" 
			},
			{
				"x": 0.9435013629,
				"y": -0.125446744,
				"z": 0.1813299442,
				"element": "C" 
			},
			{
				"x": -0.4617537695,
				"y": -0.2378836175,
				"z": 0.3200920312,
				"element": "C" 
			},
			{
				"x": -1.1377965674,
				"y": 0.5777422652,
				"z": 1.2550572711,
				"element": "C" 
			},
			{
				"x": -0.4475273935,
				"y": 1.462197326,
				"z": 2.055226611,
				"element": "C" 
			},
			{
				"x": 0.9657518161,
				"y": 1.5596603772,
				"z": 1.9695425573,
				"element": "C" 
			},
			{
				"x": 1.626056712,
				"y": 0.7653686813,
				"z": 1.0070363181,
				"element": "C" 
			},
			{
				"x": 1.653378044,
				"y": 2.4828960027,
				"z": 2.7730065497,
				"element": "N" 
			},
			{
				"x": 2.9635321158,
				"y": 2.9530553594,
				"z": 2.3173108982,
				"element": "C" 
			},
			{
				"x": 2.8707816045,
				"y": 3.815516503,
				"z": 1.0584899359,
				"element": "C" 
			},
			{
				"x": 4.2022822242,
				"y": 4.2006399954,
				"z": 0.7440543427,
				"element": "O" 
			},
			{
				"x": 1.589426534,
				"y": 2.4014438207,
				"z": 4.2485619546,
				"element": "C" 
			},
			{
				"x": 0.2589394698,
				"y": 2.0965649675,
				"z": 4.9182955489,
				"element": "C" 
			},
			{
				"x": -0.6464320867,
				"y": 3.1665878708,
				"z": 4.6820887513,
				"element": "O" 
			},
			{
				"x": -1.1060937043,
				"y": -1.1384921537,
				"z": -0.5264524642,
				"element": "N" 
			},
			{
				"x": -2.3460171211,
				"y": -1.2996034297,
				"z": -0.3064452073,
				"element": "N" 
			},
			{
				"x": -2.9553635456,
				"y": -2.2567602203,
				"z": -1.1316022004,
				"element": "C" 
			},
			{
				"x": -4.3558782639,
				"y": -2.222704569,
				"z": -1.3153209511,
				"element": "C" 
			},
			{
				"x": -5.0354228266,
				"y": -3.2243609491,
				"z": -1.9955761006,
				"element": "C" 
			},
			{
				"x": -4.297023008,
				"y": -4.2699756093,
				"z": -2.5362822779,
				"element": "C" 
			},
			{
				"x": -2.9086344067,
				"y": -4.3414359457,
				"z": -2.3924773577,
				"element": "C" 
			},
			{
				"x": -2.2533262147,
				"y": -3.3461854863,
				"z": -1.6857574046,
				"element": "C" 
			},
			{
				"x": -4.9989109623,
				"y": -5.3280260384,
				"z": -3.2726804431,
				"element": "N" 
			},
			{
				"x": -4.319296005,
				"y": -6.2492689804,
				"z": -3.7256639901,
				"element": "O" 
			},
			{
				"x": -6.2192287882,
				"y": -5.2273195791,
				"z": -3.3911930926,
				"element": "O" 
			},
			{
				"x": -5.1617591607,
				"y": -1.0978882531,
				"z": -0.8144525194,
				"element": "N" 
			},
			{
				"x": -6.311189915,
				"y": -1.3549089197,
				"z": -0.4546235939,
				"element": "O" 
			},
			{
				"x": -4.6500042581,
				"y": 0.0177189843,
				"z": -0.8125676136,
				"element": "O" 
			},
			{
				"x": 1.6934846734,
				"y": -2.0294310121,
				"z": -0.5179157982,
				"element": "H" 
			},
			{
				"x": 1.2501117154,
				"y": -0.9202907644,
				"z": -1.8043604157,
				"element": "H" 
			},
			{
				"x": 2.7438328602,
				"y": -0.6515857489,
				"z": -0.8792719398,
				"element": "H" 
			},
			{
				"x": -2.2200437842,
				"y": 0.5222362429,
				"z": 1.2923808052,
				"element": "H" 
			},
			{
				"x": -0.9756421659,
				"y": 2.1397161976,
				"z": 2.7153968585,
				"element": "H" 
			},
			{
				"x": 2.7034001641,
				"y": 0.8273854704,
				"z": 0.9052881471,
				"element": "H" 
			},
			{
				"x": 3.3888131686,
				"y": 3.5754878083,
				"z": 3.1083226644,
				"element": "H" 
			},
			{
				"x": 3.6857170433,
				"y": 2.1384246783,
				"z": 2.1535579911,
				"element": "H" 
			},
			{
				"x": 2.2268815407,
				"y": 4.6816213224,
				"z": 1.2718238232,
				"element": "H" 
			},
			{
				"x": 2.4074066463,
				"y": 3.2520097367,
				"z": 0.2365435644,
				"element": "H" 
			},
			{
				"x": 4.1760442717,
				"y": 4.7668176806,
				"z": -0.0364485659,
				"element": "H" 
			},
			{
				"x": 1.9275845248,
				"y": 3.3690130852,
				"z": 4.6321175516,
				"element": "H" 
			},
			{
				"x": 2.305049121,
				"y": 1.6408409111,
				"z": 4.6081747866,
				"element": "H" 
			},
			{
				"x": 0.4780451145,
				"y": 1.9932948695,
				"z": 5.9924793877,
				"element": "H" 
			},
			{
				"x": -0.1446184503,
				"y": 1.1349161871,
				"z": 4.5739604322,
				"element": "H" 
			},
			{
				"x": -1.4681838379,
				"y": 2.9763894903,
				"z": 5.152345981,
				"element": "H" 
			},
			{
				"x": -6.1105283095,
				"y": -3.1856987711,
				"z": -2.1071249174,
				"element": "H" 
			},
			{
				"x": -2.3745061648,
				"y": -5.1785060028,
				"z": -2.8247762136,
				"element": "H" 
			},
			{
				"x": -1.1821999282,
				"y": -3.3840151307,
				"z": -1.5285966083,
				"element": "H" 
			}
		],
		 "valence_orbital": [ 
			{
				"type": "occ",
				"energy": -0.27967,
				"method": "rhf"
			},
			{
				"type": "occ",
				"energy": -0.26924,
				"method": "rhf"
			},
			{
				"type": "occ",
				"energy": -0.2592,
				"method": "rhf"
			},
			{
				"type": "occ",
				"energy": -0.23799,
				"method": "rhf"
			},
			{
				"type": "occ",
				"energy": -0.21302,
				"method": "rhf"
			},
			{
				"type": "unocc",
				"energy": -0.11356,
				"method": "rhf"
			},
			{
				"type": "unocc",
				"energy": -0.08516,
				"method": "rhf"
			},
			{
				"type": "unocc",
				"energy": -0.0716,
				"method": "rhf"
			},
			{
				"type": "unocc",
				"energy": -0.02299,
				"method": "rhf"
			},
			{
				"type": "unocc",
				"energy": -0.01172,
				"method": "rhf"
			}
		],
		"cosmo_sigma_profile": { 
			"-0.025": 0.0,
			"-0.024": 0.0,
			"-0.023": 0.0,
			"-0.022": 0.0,
			"-0.021": 0.0,
			"-0.02": 0.0,
			"-0.019": 0.0,
			"-0.018": 0.0,
			"-0.017": 0.0185142897552,
			"-0.016": 1.42866930247,
			"-0.015": 2.24633192687,
			"-0.014": 1.91498613615,
			"-0.013": 1.80484198376,
			"-0.012": 2.34654424529,
			"-0.011": 1.26847236954,
			"-0.01": 1.31992807147,
			"-0.009": 3.39549838854,
			"-0.008": 4.81325680897,
			"-0.007": 10.0706711335,
			"-0.006": 14.1765138378,
			"-0.005": 23.9328706444,
			"-0.004": 38.077214037,
			"-0.003": 44.3991193935,
			"-0.002": 38.6336979634,
			"-0.001": 31.2970920237,
			"0.0": 27.143710954,
			"0.001": 20.6560090281,
			"0.002": 22.3118907972,
			"0.003": 21.5175740407,
			"0.004": 13.14805614,
			"0.005": 12.9610844226,
			"0.006": 14.1297158806,
			"0.007": 22.6382529417,
			"0.008": 15.9335166388,
			"0.009": 10.5021306712,
			"0.01": 4.58839193681,
			"0.011": 3.37488368785,
			"0.012": 2.5655463689,
			"0.013": 3.35037182985,
			"0.014": 2.21493926104,
			"0.015": 0.00164789048522,
			"0.016": 0.0,
			"0.017": 0.0,
			"0.018": 0.0,
			"0.019": 0.0,
			"0.02": 0.0,
			"0.021": 0.0,
			"0.022": 0.0,
			"0.023": 0.0,
			"0.024": 0.0,
			"0.025": 0.0
		}
	}
}
