{
	 "smiles": "ClC1=CN=C(OC2CCCNC2)C=C1", 
	 "Tm": 338.15, 
	 "num_atms": 27, 
	 "gaussian": { 
		 "optdone": 1, 
		 "sigma_profile": "yes", 
		 "theory": "DFT", 
		 "functional": "B3LYP", 
		 "basiset": "6-31G**", 
		 "properties": { 
			 "R2extent": 4208.9032, 
			 "electric_dipole_moment_norm": 2.05620908713, 
			 "electric_quadrupole_moment_norm": 7.65015716571, 
			 "total_energy": -1033.8010986, 
			 "HOMO_LUMO_gap": 0.17564, 
			 "cosmo_polarized_energy": -7.68, 
			 "cosmo_cavitation_energy": 30.34, 
			 "cosmo_dispersion_energy": -22.7, 
			 "cosmo_repulsion_energy": 1.8, 
			 "cosmo_total_nonelectrostatic_energy": 9.44, 
			 "SMD_solvation_energy": 2.02 
		},
		"coords": [
			{
				"x": 0.7370852303,
				"y": 2.9462792028,
				"z": -3.230048061,
				"element": "Cl" 
			},
			{
				"x": 1.0927011807,
				"y": 1.9166131409,
				"z": -1.8554721598,
				"element": "C" 
			},
			{
				"x": 0.0613410625,
				"y": 1.3435351981,
				"z": -1.1237234722,
				"element": "C" 
			},
			{
				"x": 0.2785237227,
				"y": 0.5490828925,
				"z": -0.0645139314,
				"element": "N" 
			},
			{
				"x": 1.5362822401,
				"y": 0.3043213684,
				"z": 0.2952297507,
				"element": "C" 
			},
			{
				"x": 1.821416286,
				"y": -0.4870847722,
				"z": 1.3472239507,
				"element": "O" 
			},
			{
				"x": 0.7924607681,
				"y": -1.1071247791,
				"z": 2.1662802987,
				"element": "C" 
			},
			{
				"x": -0.1297641791,
				"y": -2.0989350397,
				"z": 1.4059256022,
				"element": "C" 
			},
			{
				"x": -1.6076501679,
				"y": -1.6929654175,
				"z": 1.4814561139,
				"element": "C" 
			},
			{
				"x": -2.0609689351,
				"y": -1.4657461258,
				"z": 2.9382803119,
				"element": "C" 
			},
			{
				"x": -1.056823523,
				"y": -0.7678784903,
				"z": 3.7708956817,
				"element": "N" 
			},
			{
				"x": -0.0165272197,
				"y": -0.0921324181,
				"z": 2.9977410683,
				"element": "C" 
			},
			{
				"x": 2.6474528698,
				"y": 0.8410942445,
				"z": -0.3882915459,
				"element": "C" 
			},
			{
				"x": 2.4172079306,
				"y": 1.6600136104,
				"z": -1.4793398159,
				"element": "C" 
			},
			{
				"x": -0.9752545247,
				"y": 1.5269542137,
				"z": -1.3945259721,
				"element": "H" 
			},
			{
				"x": 1.4129986078,
				"y": -1.6765342855,
				"z": 2.865881689,
				"element": "H" 
			},
			{
				"x": 0.000426636,
				"y": -3.097489504,
				"z": 1.84153284,
				"element": "H" 
			},
			{
				"x": 0.1920849783,
				"y": -2.1732643543,
				"z": 0.3639949679,
				"element": "H" 
			},
			{
				"x": -2.2381278542,
				"y": -2.4583043995,
				"z": 1.014173917,
				"element": "H" 
			},
			{
				"x": -1.7416325451,
				"y": -0.7752070441,
				"z": 0.902635266,
				"element": "H" 
			},
			{
				"x": -2.2892471902,
				"y": -2.4270039637,
				"z": 3.4146528822,
				"element": "H" 
			},
			{
				"x": -2.9978119329,
				"y": -0.891154234,
				"z": 2.9376502042,
				"element": "H" 
			},
			{
				"x": -0.6223032495,
				"y": -1.4265018474,
				"z": 4.4101957877,
				"element": "H" 
			},
			{
				"x": 0.6512305539,
				"y": 0.4440232252,
				"z": 3.6801974019,
				"element": "H" 
			},
			{
				"x": -0.4805327899,
				"y": 0.6505543174,
				"z": 2.3449092018,
				"element": "H" 
			},
			{
				"x": 3.6495889015,
				"y": 0.60513091,
				"z": -0.0495960339,
				"element": "H" 
			},
			{
				"x": 3.2404431431,
				"y": 2.0961243511,
				"z": -2.0350459439,
				"element": "H" 
			}
		],
		 "valence_orbital": [ 
			{
				"type": "occ",
				"energy": -0.30922,
				"method": "rhf"
			},
			{
				"type": "occ",
				"energy": -0.29364,
				"method": "rhf"
			},
			{
				"type": "occ",
				"energy": -0.27375,
				"method": "rhf"
			},
			{
				"type": "occ",
				"energy": -0.23533,
				"method": "rhf"
			},
			{
				"type": "occ",
				"energy": -0.20944,
				"method": "rhf"
			},
			{
				"type": "unocc",
				"energy": -0.0338,
				"method": "rhf"
			},
			{
				"type": "unocc",
				"energy": -0.00876,
				"method": "rhf"
			},
			{
				"type": "unocc",
				"energy": 0.02764,
				"method": "rhf"
			},
			{
				"type": "unocc",
				"energy": 0.07003,
				"method": "rhf"
			},
			{
				"type": "unocc",
				"energy": 0.09333,
				"method": "rhf"
			}
		],
		"cosmo_sigma_profile": { 
			"-0.025": 0.0,
			"-0.024": 0.0,
			"-0.023": 0.0,
			"-0.022": 0.0,
			"-0.021": 0.0,
			"-0.02": 0.0,
			"-0.019": 0.0,
			"-0.018": 0.0,
			"-0.017": 0.0,
			"-0.016": 0.0,
			"-0.015": 0.0,
			"-0.014": 0.0,
			"-0.013": 0.0,
			"-0.012": 0.0,
			"-0.011": 0.0,
			"-0.01": 0.778662461692,
			"-0.009": 1.77001215015,
			"-0.008": 4.49935879959,
			"-0.007": 7.07658661602,
			"-0.006": 7.90373038542,
			"-0.005": 8.82263092693,
			"-0.004": 12.319633161,
			"-0.003": 18.0485609957,
			"-0.002": 19.8442826887,
			"-0.001": 25.9736202043,
			"0.0": 31.7168791671,
			"0.001": 28.7198834498,
			"0.002": 20.9632523995,
			"0.003": 12.8214052164,
			"0.004": 14.7696453091,
			"0.005": 9.70480480378,
			"0.006": 3.09367362155,
			"0.007": 2.21610028549,
			"0.008": 1.81015832187,
			"0.009": 2.37308751252,
			"0.01": 1.34077184843,
			"0.011": 0.278379542476,
			"0.012": 0.492231680726,
			"0.013": 1.19052791344,
			"0.014": 0.526241357826,
			"0.015": 0.539760692383,
			"0.016": 0.441521711272,
			"0.017": 0.588131905901,
			"0.018": 0.657478961976,
			"0.019": 0.0125632300594,
			"0.02": 0.0,
			"0.021": 0.0,
			"0.022": 0.0,
			"0.023": 0.0,
			"0.024": 0.0,
			"0.025": 0.0
		}
	}
}
