{
	 "smiles": "CN(C)C(=O)NC1=CC(C(O)=O)=C(Cl)C=C1", 
	 "Tm": 488.15, 
	 "num_atms": 27, 
	 "gaussian": { 
		 "optdone": 1, 
		 "sigma_profile": "yes", 
		 "theory": "DFT", 
		 "functional": "B3LYP", 
		 "basiset": "6-31G**", 
		 "properties": { 
			 "R2extent": 5200.0945, 
			 "electric_dipole_moment_norm": 3.92492457252, 
			 "electric_quadrupole_moment_norm": 16.5529320046, 
			 "total_energy": -1183.08282784, 
			 "HOMO_LUMO_gap": 0.17113, 
			 "cosmo_polarized_energy": -17.51, 
			 "cosmo_cavitation_energy": 32.55, 
			 "cosmo_dispersion_energy": -23.26, 
			 "cosmo_repulsion_energy": 1.79, 
			 "cosmo_total_nonelectrostatic_energy": 11.09, 
			 "SMD_solvation_energy": 7.78 
		},
		"coords": [
			{
				"x": 1.6446536758,
				"y": 1.8484058657,
				"z": -0.8566059318,
				"element": "C" 
			},
			{
				"x": 0.3445227989,
				"y": 2.4808130344,
				"z": -1.0605369599,
				"element": "N" 
			},
			{
				"x": 0.3303821461,
				"y": 3.5989062783,
				"z": -1.9975874789,
				"element": "C" 
			},
			{
				"x": -0.7023197315,
				"y": 2.3909021014,
				"z": -0.1779449433,
				"element": "C" 
			},
			{
				"x": -1.5683081826,
				"y": 3.2489538223,
				"z": -0.0573989963,
				"element": "O" 
			},
			{
				"x": -0.7466213025,
				"y": 1.2418261096,
				"z": 0.6506478241,
				"element": "N" 
			},
			{
				"x": -0.6492060448,
				"y": -0.1095751295,
				"z": 0.2779506587,
				"element": "C" 
			},
			{
				"x": -0.3731224005,
				"y": -0.5337073585,
				"z": -1.0245838348,
				"element": "C" 
			},
			{
				"x": -0.2628023573,
				"y": -1.8900423363,
				"z": -1.3657491486,
				"element": "C" 
			},
			{
				"x": 0.0873724488,
				"y": -2.1236889111,
				"z": -2.8241460818,
				"element": "C" 
			},
			{
				"x": -0.0878179129,
				"y": -3.3450467777,
				"z": -3.3560235584,
				"element": "O" 
			},
			{
				"x": 0.5001739219,
				"y": -1.2186713105,
				"z": -3.5154200511,
				"element": "O" 
			},
			{
				"x": -0.4671592916,
				"y": -2.8390034267,
				"z": -0.3512941379,
				"element": "C" 
			},
			{
				"x": -0.3447063797,
				"y": -4.5876815624,
				"z": -0.6182688311,
				"element": "Cl" 
			},
			{
				"x": -0.7597094206,
				"y": -2.4368893381,
				"z": 0.9523936894,
				"element": "C" 
			},
			{
				"x": -0.8451074002,
				"y": -1.0883819063,
				"z": 1.2682992508,
				"element": "C" 
			},
			{
				"x": 2.4132640411,
				"y": 2.6232350836,
				"z": -0.7414632715,
				"element": "H" 
			},
			{
				"x": 1.9159963973,
				"y": 1.2142267033,
				"z": -1.7081618388,
				"element": "H" 
			},
			{
				"x": 1.6368569341,
				"y": 1.2416880672,
				"z": 0.04717809,
				"element": "H" 
			},
			{
				"x": -0.6984558802,
				"y": 3.910179165,
				"z": -2.1698760113,
				"element": "H" 
			},
			{
				"x": 0.7853334273,
				"y": 3.2824793492,
				"z": -2.9412261578,
				"element": "H" 
			},
			{
				"x": 0.8927540533,
				"y": 4.4574080337,
				"z": -1.6059623232,
				"element": "H" 
			},
			{
				"x": -1.4071376179,
				"y": 1.4159844518,
				"z": 1.3980028043,
				"element": "H" 
			},
			{
				"x": -0.2334129874,
				"y": 0.1813371146,
				"z": -1.823226906,
				"element": "H" 
			},
			{
				"x": -0.4005208272,
				"y": -3.9830466423,
				"z": -2.6936991148,
				"element": "H" 
			},
			{
				"x": -0.9081494174,
				"y": -3.1865506343,
				"z": 1.7214828063,
				"element": "H" 
			},
			{
				"x": -1.0592526904,
				"y": -0.7897598461,
				"z": 2.2907204538,
				"element": "H" 
			}
		],
		 "valence_orbital": [ 
			{
				"type": "occ",
				"energy": -0.28638,
				"method": "rhf"
			},
			{
				"type": "occ",
				"energy": -0.27642,
				"method": "rhf"
			},
			{
				"type": "occ",
				"energy": -0.27516,
				"method": "rhf"
			},
			{
				"type": "occ",
				"energy": -0.24654,
				"method": "rhf"
			},
			{
				"type": "occ",
				"energy": -0.23349,
				"method": "rhf"
			},
			{
				"type": "unocc",
				"energy": -0.06236,
				"method": "rhf"
			},
			{
				"type": "unocc",
				"energy": -0.02929,
				"method": "rhf"
			},
			{
				"type": "unocc",
				"energy": -8e-05,
				"method": "rhf"
			},
			{
				"type": "unocc",
				"energy": 0.02827,
				"method": "rhf"
			},
			{
				"type": "unocc",
				"energy": 0.05012,
				"method": "rhf"
			}
		],
		"cosmo_sigma_profile": { 
			"-0.025": 0.0,
			"-0.024": 0.0,
			"-0.023": 0.0,
			"-0.022": 0.0,
			"-0.021": 0.0,
			"-0.02": 0.0,
			"-0.019": 0.0,
			"-0.018": 0.0,
			"-0.017": 0.0,
			"-0.016": 0.0,
			"-0.015": 0.23793625555,
			"-0.014": 0.814803911049,
			"-0.013": 1.3102239496,
			"-0.012": 2.35032529386,
			"-0.011": 2.37334273067,
			"-0.01": 2.62486628534,
			"-0.009": 2.29288587798,
			"-0.008": 4.7819604323,
			"-0.007": 5.62569938384,
			"-0.006": 7.08274285321,
			"-0.005": 14.4886585923,
			"-0.004": 21.5753924338,
			"-0.003": 25.6086030149,
			"-0.002": 28.9728393228,
			"-0.001": 21.5425857111,
			"0.0": 19.2915615677,
			"0.001": 21.7974460783,
			"0.002": 16.8958687217,
			"0.003": 9.72687425176,
			"0.004": 5.03865931896,
			"0.005": 3.9269453723,
			"0.006": 3.86586480022,
			"0.007": 4.07137216663,
			"0.008": 4.08691803447,
			"0.009": 4.70320270434,
			"0.01": 4.95198726464,
			"0.011": 6.19904233187,
			"0.012": 5.71744192334,
			"0.013": 5.41341445028,
			"0.014": 3.91047931842,
			"0.015": 0.118477805811,
			"0.016": 0.0,
			"0.017": 0.0,
			"0.018": 0.0,
			"0.019": 0.0,
			"0.02": 0.0,
			"0.021": 0.0,
			"0.022": 0.0,
			"0.023": 0.0,
			"0.024": 0.0,
			"0.025": 0.0
		}
	}
}
