{
	 "smiles": "OCCN(CCO)CCCC1=CC=C(COC2=CC=CC=C2)C=C1", 
	 "Tm": 336.65, 
	 "num_atms": 51, 
	 "gaussian": { 
		 "optdone": 1, 
		 "sigma_profile": "yes", 
		 "theory": "DFT", 
		 "functional": "B3LYP", 
		 "basiset": "6-31G**", 
		 "properties": { 
			 "R2extent": 14644.38, 
			 "electric_dipole_moment_norm": 3.9075636348, 
			 "electric_quadrupole_moment_norm": 8.93817600576, 
			 "total_energy": -1058.7859957, 
			 "HOMO_LUMO_gap": 0.20829, 
			 "cosmo_polarized_energy": -17.59, 
			 "cosmo_cavitation_energy": 52.11, 
			 "cosmo_dispersion_energy": -35.38, 
			 "cosmo_repulsion_energy": 2.75, 
			 "cosmo_total_nonelectrostatic_energy": 19.48, 
			 "SMD_solvation_energy": 7.53 
		},
		"coords": [
			{
				"x": -3.8196562361,
				"y": -1.194903902,
				"z": 1.4443850054,
				"element": "O" 
			},
			{
				"x": -4.2591077658,
				"y": 0.0046384125,
				"z": 0.8140900975,
				"element": "C" 
			},
			{
				"x": -4.7966773017,
				"y": -0.3114002784,
				"z": -0.578340102,
				"element": "C" 
			},
			{
				"x": -3.786335528,
				"y": -0.4744630872,
				"z": -1.6271030075,
				"element": "N" 
			},
			{
				"x": -4.3947083693,
				"y": -0.3931792318,
				"z": -2.9557911561,
				"element": "C" 
			},
			{
				"x": -3.4415341954,
				"y": -0.0040293385,
				"z": -4.0919919778,
				"element": "C" 
			},
			{
				"x": -2.5289396726,
				"y": -1.0177926919,
				"z": -4.503920489,
				"element": "O" 
			},
			{
				"x": -2.918696098,
				"y": -1.6618242936,
				"z": -1.4480984173,
				"element": "C" 
			},
			{
				"x": -1.5559222205,
				"y": -1.3572778118,
				"z": -0.8075539842,
				"element": "C" 
			},
			{
				"x": -0.702802192,
				"y": -0.3514834826,
				"z": -1.6048417472,
				"element": "C" 
			},
			{
				"x": 0.6491602064,
				"y": -0.1035664845,
				"z": -0.9745842743,
				"element": "C" 
			},
			{
				"x": 0.822425095,
				"y": 0.8846384798,
				"z": 0.00390497,
				"element": "C" 
			},
			{
				"x": 2.0600725874,
				"y": 1.0861159276,
				"z": 0.6152292493,
				"element": "C" 
			},
			{
				"x": 3.1677739692,
				"y": 0.3097689807,
				"z": 0.2578073803,
				"element": "C" 
			},
			{
				"x": 4.5260850572,
				"y": 0.5859948792,
				"z": 0.872302151,
				"element": "C" 
			},
			{
				"x": 5.3723249419,
				"y": -0.5582103445,
				"z": 0.9696586337,
				"element": "O" 
			},
			{
				"x": 5.1740833571,
				"y": -1.4544774102,
				"z": 1.9871760608,
				"element": "C" 
			},
			{
				"x": 6.150716972,
				"y": -2.4546028335,
				"z": 2.102358614,
				"element": "C" 
			},
			{
				"x": 6.0542092331,
				"y": -3.4099767588,
				"z": 3.1085508606,
				"element": "C" 
			},
			{
				"x": 4.987760812,
				"y": -3.3830623678,
				"z": 4.0135035231,
				"element": "C" 
			},
			{
				"x": 4.0184130422,
				"y": -2.3897130569,
				"z": 3.8908070908,
				"element": "C" 
			},
			{
				"x": 4.0986516818,
				"y": -1.4237193526,
				"z": 2.8827630359,
				"element": "C" 
			},
			{
				"x": 3.0058854205,
				"y": -0.676352591,
				"z": -0.7215158942,
				"element": "C" 
			},
			{
				"x": 1.7646670875,
				"y": -0.8792942917,
				"z": -1.3223195176,
				"element": "C" 
			},
			{
				"x": -3.3975729255,
				"y": -0.9600482608,
				"z": 2.279841689,
				"element": "H" 
			},
			{
				"x": -5.0727441553,
				"y": 0.4655230427,
				"z": 1.3970417969,
				"element": "H" 
			},
			{
				"x": -3.4471910998,
				"y": 0.7412908734,
				"z": 0.7246508741,
				"element": "H" 
			},
			{
				"x": -5.4329099041,
				"y": 0.5336611101,
				"z": -0.865868304,
				"element": "H" 
			},
			{
				"x": -5.4581763149,
				"y": -1.1947949892,
				"z": -0.4855497365,
				"element": "H" 
			},
			{
				"x": -5.1627525874,
				"y": 0.3893393849,
				"z": -2.9234262161,
				"element": "H" 
			},
			{
				"x": -4.9255703456,
				"y": -1.3267951776,
				"z": -3.2398077426,
				"element": "H" 
			},
			{
				"x": -4.0502526344,
				"y": 0.3324167516,
				"z": -4.9469008654,
				"element": "H" 
			},
			{
				"x": -2.8249330021,
				"y": 0.8390814881,
				"z": -3.7687277101,
				"element": "H" 
			},
			{
				"x": -3.0459301233,
				"y": -1.751156674,
				"z": -4.8629256712,
				"element": "H" 
			},
			{
				"x": -2.7370372189,
				"y": -2.0970986899,
				"z": -2.4330057528,
				"element": "H" 
			},
			{
				"x": -3.4339551638,
				"y": -2.4180683641,
				"z": -0.8382848383,
				"element": "H" 
			},
			{
				"x": -1.701364453,
				"y": -0.9967101926,
				"z": 0.2151608484,
				"element": "H" 
			},
			{
				"x": -1.0100364412,
				"y": -2.3064658837,
				"z": -0.7189960808,
				"element": "H" 
			},
			{
				"x": -0.5786357167,
				"y": -0.7186131132,
				"z": -2.6301710104,
				"element": "H" 
			},
			{
				"x": -1.2594957119,
				"y": 0.589513978,
				"z": -1.6748969667,
				"element": "H" 
			},
			{
				"x": -0.0247369976,
				"y": 1.5032282485,
				"z": 0.2920336983,
				"element": "H" 
			},
			{
				"x": 2.1654521691,
				"y": 1.8592919416,
				"z": 1.3740552465,
				"element": "H" 
			},
			{
				"x": 4.4149120436,
				"y": 1.0644664007,
				"z": 1.8547863293,
				"element": "H" 
			},
			{
				"x": 5.0922439323,
				"y": 1.2760978053,
				"z": 0.2364743814,
				"element": "H" 
			},
			{
				"x": 6.9746469065,
				"y": -2.4561564297,
				"z": 1.3959603879,
				"element": "H" 
			},
			{
				"x": 6.8182736678,
				"y": -4.1782846656,
				"z": 3.1890109963,
				"element": "H" 
			},
			{
				"x": 4.9142936323,
				"y": -4.1289527913,
				"z": 4.7989201807,
				"element": "H" 
			},
			{
				"x": 3.1791689529,
				"y": -2.3610089004,
				"z": 4.5804684946,
				"element": "H" 
			},
			{
				"x": 3.3177336134,
				"y": -0.6792510606,
				"z": 2.7888962736,
				"element": "H" 
			},
			{
				"x": 3.8574083687,
				"y": -1.2875303603,
				"z": -1.0049988787,
				"element": "H" 
			},
			{
				"x": 1.6579116249,
				"y": -1.6510025421,
				"z": -2.0812175284,
				"element": "H" 
			}
		],
		 "valence_orbital": [ 
			{
				"type": "occ",
				"energy": -0.24279,
				"method": "rhf"
			},
			{
				"type": "occ",
				"energy": -0.24134,
				"method": "rhf"
			},
			{
				"type": "occ",
				"energy": -0.22852,
				"method": "rhf"
			},
			{
				"type": "occ",
				"energy": -0.21146,
				"method": "rhf"
			},
			{
				"type": "occ",
				"energy": -0.20661,
				"method": "rhf"
			},
			{
				"type": "unocc",
				"energy": 0.00168,
				"method": "rhf"
			},
			{
				"type": "unocc",
				"energy": 0.00455,
				"method": "rhf"
			},
			{
				"type": "unocc",
				"energy": 0.01112,
				"method": "rhf"
			},
			{
				"type": "unocc",
				"energy": 0.0215,
				"method": "rhf"
			},
			{
				"type": "unocc",
				"energy": 0.06455,
				"method": "rhf"
			}
		],
		"cosmo_sigma_profile": { 
			"-0.025": 0.0,
			"-0.024": 0.0,
			"-0.023": 0.0,
			"-0.022": 0.0,
			"-0.021": 0.0,
			"-0.02": 0.0,
			"-0.019": 0.0,
			"-0.018": 0.0,
			"-0.017": 0.0,
			"-0.016": 0.0666055385065,
			"-0.015": 2.01119662044,
			"-0.014": 1.59103365368,
			"-0.013": 1.75603395561,
			"-0.012": 2.20292584475,
			"-0.011": 1.76452346093,
			"-0.01": 1.6809056664,
			"-0.009": 1.6463987906,
			"-0.008": 1.85330693192,
			"-0.007": 3.11959131051,
			"-0.006": 10.0812309713,
			"-0.005": 24.5024899637,
			"-0.004": 34.4855637868,
			"-0.003": 42.4524949194,
			"-0.002": 37.4615787082,
			"-0.001": 41.2207420079,
			"0.0": 34.0675929593,
			"0.001": 24.8752550737,
			"0.002": 22.7924053107,
			"0.003": 21.340597245,
			"0.004": 22.6475240546,
			"0.005": 23.1492669433,
			"0.006": 20.994876434,
			"0.007": 7.67992976057,
			"0.008": 4.4810540692,
			"0.009": 4.37272639318,
			"0.01": 4.37915782458,
			"0.011": 2.51601341957,
			"0.012": 2.26700971834,
			"0.013": 1.97823249427,
			"0.014": 1.71570339381,
			"0.015": 0.538359538183,
			"0.016": 0.0,
			"0.017": 0.0,
			"0.018": 0.0,
			"0.019": 0.0,
			"0.02": 0.0,
			"0.021": 0.0,
			"0.022": 0.0,
			"0.023": 0.0,
			"0.024": 0.0,
			"0.025": 0.0
		}
	}
}
