{
	 "smiles": "CCCCC(=O)OC1(CCC2C3CCC4=CC(=O)CCC4(C)C3C(O)CC12C)C(=O)CO", 
	 "Tm": 491.15, 
	 "num_atms": 70, 
	 "gaussian": { 
		 "optdone": 1, 
		 "sigma_profile": "yes", 
		 "theory": "DFT", 
		 "functional": "B3LYP", 
		 "basiset": "6-31G**", 
		 "properties": { 
			 "R2extent": 15598.9363, 
			 "electric_dipole_moment_norm": 4.09322958799, 
			 "electric_quadrupole_moment_norm": 36.4242571106, 
			 "total_energy": -1465.00476982, 
			 "HOMO_LUMO_gap": 0.18601, 
			 "cosmo_polarized_energy": -23.54, 
			 "cosmo_cavitation_energy": 61.41, 
			 "cosmo_dispersion_energy": -39.76, 
			 "cosmo_repulsion_energy": 2.91, 
			 "cosmo_total_nonelectrostatic_energy": 24.56, 
			 "SMD_solvation_energy": 10.31 
		},
		"coords": [
			{
				"x": 3.2405836134,
				"y": -3.7118144606,
				"z": -4.1825629649,
				"element": "C" 
			},
			{
				"x": 1.8531174173,
				"y": -3.0852834144,
				"z": -4.3520974032,
				"element": "C" 
			},
			{
				"x": 1.8028542881,
				"y": -2.0673911481,
				"z": -5.5008357774,
				"element": "C" 
			},
			{
				"x": 0.4439306247,
				"y": -1.3416908403,
				"z": -5.6736539925,
				"element": "C" 
			},
			{
				"x": 0.2926947647,
				"y": -0.0835325667,
				"z": -4.8431707173,
				"element": "C" 
			},
			{
				"x": 0.2010162147,
				"y": 1.0370106512,
				"z": -5.2937315679,
				"element": "O" 
			},
			{
				"x": 0.2971726719,
				"y": -0.3440527165,
				"z": -3.5014124635,
				"element": "O" 
			},
			{
				"x": 0.0335674264,
				"y": 0.7726409448,
				"z": -2.5887222984,
				"element": "C" 
			},
			{
				"x": -1.3620856944,
				"y": 1.4217069241,
				"z": -2.8518526455,
				"element": "C" 
			},
			{
				"x": -2.059453518,
				"y": 1.5848419136,
				"z": -1.4764751643,
				"element": "C" 
			},
			{
				"x": -0.9414144343,
				"y": 1.31636315,
				"z": -0.4586112531,
				"element": "C" 
			},
			{
				"x": -1.3169106344,
				"y": 1.0181854516,
				"z": 0.9971478934,
				"element": "C" 
			},
			{
				"x": -2.1103414479,
				"y": 2.1940292373,
				"z": 1.6082440852,
				"element": "C" 
			},
			{
				"x": -2.3740136938,
				"y": 2.0250860287,
				"z": 3.1401504605,
				"element": "C" 
			},
			{
				"x": -1.8944267356,
				"y": 0.6645223854,
				"z": 3.5689527055,
				"element": "C" 
			},
			{
				"x": -2.7700387544,
				"y": -0.2796097077,
				"z": 3.9750110828,
				"element": "C" 
			},
			{
				"x": -2.4445670991,
				"y": -1.7118654575,
				"z": 4.0951860496,
				"element": "C" 
			},
			{
				"x": -3.2474276452,
				"y": -2.5299780405,
				"z": 4.5236931498,
				"element": "O" 
			},
			{
				"x": -1.0817634058,
				"y": -2.1063185712,
				"z": 3.5485963843,
				"element": "C" 
			},
			{
				"x": -0.0408949339,
				"y": -1.0262202308,
				"z": 3.8559589648,
				"element": "C" 
			},
			{
				"x": -0.4017592326,
				"y": 0.4075502723,
				"z": 3.3709287185,
				"element": "C" 
			},
			{
				"x": 0.4110607769,
				"y": 1.3796676363,
				"z": 4.2691027268,
				"element": "C" 
			},
			{
				"x": -0.0425699631,
				"y": 0.7487212263,
				"z": 1.8482927471,
				"element": "C" 
			},
			{
				"x": 0.9384157799,
				"y": -0.2355655536,
				"z": 1.1833718688,
				"element": "C" 
			},
			{
				"x": 2.1669980867,
				"y": -0.1412884787,
				"z": 1.9157944865,
				"element": "O" 
			},
			{
				"x": 1.2122457003,
				"y": 0.084056487,
				"z": -0.2990759013,
				"element": "C" 
			},
			{
				"x": -0.0844285337,
				"y": 0.203835189,
				"z": -1.1184573547,
				"element": "C" 
			},
			{
				"x": -0.8137569591,
				"y": -1.1586625788,
				"z": -1.1803326135,
				"element": "C" 
			},
			{
				"x": 1.1725075266,
				"y": 1.8128328806,
				"z": -2.7004578859,
				"element": "C" 
			},
			{
				"x": 0.9669751995,
				"y": 2.9722144193,
				"z": -2.397242842,
				"element": "O" 
			},
			{
				"x": 2.5728761243,
				"y": 1.4042120495,
				"z": -3.1850969511,
				"element": "C" 
			},
			{
				"x": 2.9997530208,
				"y": 0.0846029001,
				"z": -2.8927296412,
				"element": "O" 
			},
			{
				"x": 3.2437251567,
				"y": -4.4591742585,
				"z": -3.3829525548,
				"element": "H" 
			},
			{
				"x": 3.5674292624,
				"y": -4.208510003,
				"z": -5.1030654453,
				"element": "H" 
			},
			{
				"x": 3.9872063619,
				"y": -2.9502909581,
				"z": -3.9316018053,
				"element": "H" 
			},
			{
				"x": 1.5463111147,
				"y": -2.6108255402,
				"z": -3.4121650229,
				"element": "H" 
			},
			{
				"x": 1.109232089,
				"y": -3.8701996584,
				"z": -4.543829952,
				"element": "H" 
			},
			{
				"x": 2.022929567,
				"y": -2.5904421255,
				"z": -6.4389006497,
				"element": "H" 
			},
			{
				"x": 2.6041687129,
				"y": -1.3267956296,
				"z": -5.3788972124,
				"element": "H" 
			},
			{
				"x": -0.3745932726,
				"y": -2.0279722217,
				"z": -5.4247736616,
				"element": "H" 
			},
			{
				"x": 0.312711952,
				"y": -1.022840779,
				"z": -6.709586207,
				"element": "H" 
			},
			{
				"x": -1.9360334861,
				"y": 0.7774045528,
				"z": -3.52166267,
				"element": "H" 
			},
			{
				"x": -1.2292550077,
				"y": 2.3792798785,
				"z": -3.3533020379,
				"element": "H" 
			},
			{
				"x": -2.8756367158,
				"y": 0.8624903377,
				"z": -1.360009851,
				"element": "H" 
			},
			{
				"x": -2.4932250442,
				"y": 2.5815374751,
				"z": -1.3626686878,
				"element": "H" 
			},
			{
				"x": -0.3119083552,
				"y": 2.2168904224,
				"z": -0.4444289707,
				"element": "H" 
			},
			{
				"x": -1.9627684398,
				"y": 0.1304616289,
				"z": 1.0283269927,
				"element": "H" 
			},
			{
				"x": -1.5574225397,
				"y": 3.123593031,
				"z": 1.425589583,
				"element": "H" 
			},
			{
				"x": -3.0660430207,
				"y": 2.2918662797,
				"z": 1.0841320786,
				"element": "H" 
			},
			{
				"x": -3.4386342861,
				"y": 2.1355147492,
				"z": 3.3629499788,
				"element": "H" 
			},
			{
				"x": -1.8514877572,
				"y": 2.8126951112,
				"z": 3.6930700932,
				"element": "H" 
			},
			{
				"x": -3.8151852353,
				"y": -0.0259672589,
				"z": 4.1409437562,
				"element": "H" 
			},
			{
				"x": -1.1970239964,
				"y": -2.2570266466,
				"z": 2.4653732047,
				"element": "H" 
			},
			{
				"x": -0.7988908451,
				"y": -3.0734359218,
				"z": 3.9744252937,
				"element": "H" 
			},
			{
				"x": 0.9463818084,
				"y": -1.3008001976,
				"z": 3.4819253195,
				"element": "H" 
			},
			{
				"x": 0.0570667517,
				"y": -0.9758450285,
				"z": 4.94771537,
				"element": "H" 
			},
			{
				"x": 0.1312365377,
				"y": 1.2716525776,
				"z": 5.3222890003,
				"element": "H" 
			},
			{
				"x": 0.2682139165,
				"y": 2.4259000934,
				"z": 3.9842872446,
				"element": "H" 
			},
			{
				"x": 1.475302631,
				"y": 1.1508980399,
				"z": 4.1639243753,
				"element": "H" 
			},
			{
				"x": 0.507116423,
				"y": 1.7005177849,
				"z": 1.8667557663,
				"element": "H" 
			},
			{
				"x": 0.5447767986,
				"y": -1.2589719951,
				"z": 1.2625556817,
				"element": "H" 
			},
			{
				"x": 2.8104232831,
				"y": -0.7268669293,
				"z": 1.4944856944,
				"element": "H" 
			},
			{
				"x": 1.7640139536,
				"y": 1.0308530044,
				"z": -0.323101791,
				"element": "H" 
			},
			{
				"x": 1.8842228271,
				"y": -0.6775322558,
				"z": -0.7111750559,
				"element": "H" 
			},
			{
				"x": -0.1549593155,
				"y": -1.9300721665,
				"z": -1.5863322246,
				"element": "H" 
			},
			{
				"x": -1.7031564793,
				"y": -1.1246187538,
				"z": -1.8139208038,
				"element": "H" 
			},
			{
				"x": -1.1317727459,
				"y": -1.4839823422,
				"z": -0.1879896428,
				"element": "H" 
			},
			{
				"x": 3.2773425076,
				"y": 2.0886433377,
				"z": -2.7068688699,
				"element": "H" 
			},
			{
				"x": 2.5940806336,
				"y": 1.616607453,
				"z": -4.2660926062,
				"element": "H" 
			},
			{
				"x": 2.3021877031,
				"y": -0.519041069,
				"z": -3.1796355967,
				"element": "H" 
			}
		],
		 "valence_orbital": [ 
			{
				"type": "occ",
				"energy": -0.28638,
				"method": "rhf"
			},
			{
				"type": "occ",
				"energy": -0.27407,
				"method": "rhf"
			},
			{
				"type": "occ",
				"energy": -0.25036,
				"method": "rhf"
			},
			{
				"type": "occ",
				"energy": -0.24827,
				"method": "rhf"
			},
			{
				"type": "occ",
				"energy": -0.22692,
				"method": "rhf"
			},
			{
				"type": "unocc",
				"energy": -0.04091,
				"method": "rhf"
			},
			{
				"type": "unocc",
				"energy": -0.03392,
				"method": "rhf"
			},
			{
				"type": "unocc",
				"energy": -0.01628,
				"method": "rhf"
			},
			{
				"type": "unocc",
				"energy": 0.04382,
				"method": "rhf"
			},
			{
				"type": "unocc",
				"energy": 0.05583,
				"method": "rhf"
			}
		],
		"cosmo_sigma_profile": { 
			"-0.025": 0.0,
			"-0.024": 0.0,
			"-0.023": 0.0,
			"-0.022": 0.0,
			"-0.021": 0.0,
			"-0.02": 0.0,
			"-0.019": 0.0,
			"-0.018": 0.0,
			"-0.017": 0.0,
			"-0.016": 0.0745563181006,
			"-0.015": 0.764136796668,
			"-0.014": 1.25517617763,
			"-0.013": 0.93954298286,
			"-0.012": 0.39004076522,
			"-0.011": 0.859515321221,
			"-0.01": 0.956991777443,
			"-0.009": 0.97010385784,
			"-0.008": 1.86720496114,
			"-0.007": 2.41924339509,
			"-0.006": 11.5585796298,
			"-0.005": 21.6961317279,
			"-0.004": 38.6863822709,
			"-0.003": 65.7414124146,
			"-0.002": 68.0597386959,
			"-0.001": 57.9995513957,
			"0.0": 51.6411402881,
			"0.001": 36.544005728,
			"0.002": 16.2533348071,
			"0.003": 10.5515151153,
			"0.004": 9.51119366044,
			"0.005": 9.12513396768,
			"0.006": 7.48166424108,
			"0.007": 6.90769593916,
			"0.008": 7.50933706684,
			"0.009": 7.70166592055,
			"0.01": 7.00232562236,
			"0.011": 10.9632663583,
			"0.012": 6.95845085851,
			"0.013": 7.12545971879,
			"0.014": 3.57427292394,
			"0.015": 0.625129838749,
			"0.016": 0.0,
			"0.017": 0.0,
			"0.018": 0.0,
			"0.019": 0.0,
			"0.02": 0.0,
			"0.021": 0.0,
			"0.022": 0.0,
			"0.023": 0.0,
			"0.024": 0.0,
			"0.025": 0.0
		}
	}
}
