{
	 "smiles": "NC1=CC=C(OC2=NN=C(Cl)C=C2)C=C1", 
	 "Tm": 379.15, 
	 "num_atms": 23, 
	 "gaussian": { 
		 "optdone": 1, 
		 "sigma_profile": "yes", 
		 "theory": "DFT", 
		 "functional": "B3LYP", 
		 "basiset": "6-31G**", 
		 "properties": { 
			 "R2extent": 5606.6525, 
			 "electric_dipole_moment_norm": 2.40281746706, 
			 "electric_quadrupole_moment_norm": 29.566242673, 
			 "total_energy": -1085.5052136, 
			 "HOMO_LUMO_gap": 0.1431, 
			 "cosmo_polarized_energy": -16.91, 
			 "cosmo_cavitation_energy": 30.53, 
			 "cosmo_dispersion_energy": -22.44, 
			 "cosmo_repulsion_energy": 1.78, 
			 "cosmo_total_nonelectrostatic_energy": 9.87, 
			 "SMD_solvation_energy": 3.59 
		},
		"coords": [
			{
				"x": -4.315474197,
				"y": 1.965739032,
				"z": -2.463326219,
				"element": "N" 
			},
			{
				"x": -3.0550206091,
				"y": 1.8276695342,
				"z": -1.876248755,
				"element": "C" 
			},
			{
				"x": -2.2905225327,
				"y": 0.6658335636,
				"z": -2.0818572996,
				"element": "C" 
			},
			{
				"x": -1.0124500028,
				"y": 0.5498049206,
				"z": -1.542524605,
				"element": "C" 
			},
			{
				"x": -0.4856433209,
				"y": 1.5949205472,
				"z": -0.7913154273,
				"element": "C" 
			},
			{
				"x": 0.8381755481,
				"y": 1.5151726541,
				"z": -0.3239626272,
				"element": "O" 
			},
			{
				"x": 1.0833388565,
				"y": 1.0005700289,
				"z": 0.9032396276,
				"element": "C" 
			},
			{
				"x": 0.0765225544,
				"y": 0.5762924258,
				"z": 1.6547608209,
				"element": "N" 
			},
			{
				"x": 0.3310229505,
				"y": 0.06784447,
				"z": 2.8695798848,
				"element": "N" 
			},
			{
				"x": 1.5762106862,
				"y": 0.0001101502,
				"z": 3.2919743534,
				"element": "C" 
			},
			{
				"x": 1.8248888443,
				"y": -0.6772188074,
				"z": 4.8905353234,
				"element": "Cl" 
			},
			{
				"x": 2.6922077042,
				"y": 0.43085999,
				"z": 2.5494285835,
				"element": "C" 
			},
			{
				"x": 2.4353970405,
				"y": 0.9522750553,
				"z": 1.3044921755,
				"element": "C" 
			},
			{
				"x": -1.218819461,
				"y": 2.7576617701,
				"z": -0.5801885614,
				"element": "C" 
			},
			{
				"x": -2.4968297942,
				"y": 2.8730614546,
				"z": -1.1198481597,
				"element": "C" 
			},
			{
				"x": -4.7876366634,
				"y": 1.0954619224,
				"z": -2.6673193621,
				"element": "H" 
			},
			{
				"x": -4.9305568484,
				"y": 2.6217537821,
				"z": -2.0015353528,
				"element": "H" 
			},
			{
				"x": -2.7015253349,
				"y": -0.1495563852,
				"z": -2.6713876435,
				"element": "H" 
			},
			{
				"x": -0.4244083674,
				"y": -0.3480802719,
				"z": -1.7019257424,
				"element": "H" 
			},
			{
				"x": 3.6957102339,
				"y": 0.3496620236,
				"z": 2.9506963632,
				"element": "H" 
			},
			{
				"x": 3.214677966,
				"y": 1.3154001757,
				"z": 0.6437468609,
				"element": "H" 
			},
			{
				"x": -0.7901374305,
				"y": 3.5654930663,
				"z": 0.003806112,
				"element": "H" 
			},
			{
				"x": -3.0690278223,
				"y": 3.7827688978,
				"z": -0.9575203502,
				"element": "H" 
			}
		],
		 "valence_orbital": [ 
			{
				"type": "occ",
				"energy": -0.30752,
				"method": "rhf"
			},
			{
				"type": "occ",
				"energy": -0.25626,
				"method": "rhf"
			},
			{
				"type": "occ",
				"energy": -0.2505,
				"method": "rhf"
			},
			{
				"type": "occ",
				"energy": -0.24678,
				"method": "rhf"
			},
			{
				"type": "occ",
				"energy": -0.20304,
				"method": "rhf"
			},
			{
				"type": "unocc",
				"energy": -0.05994,
				"method": "rhf"
			},
			{
				"type": "unocc",
				"energy": -0.02116,
				"method": "rhf"
			},
			{
				"type": "unocc",
				"energy": -0.00279,
				"method": "rhf"
			},
			{
				"type": "unocc",
				"energy": 0.01463,
				"method": "rhf"
			},
			{
				"type": "unocc",
				"energy": 0.02854,
				"method": "rhf"
			}
		],
		"cosmo_sigma_profile": { 
			"-0.025": 0.0,
			"-0.024": 0.0,
			"-0.023": 0.0,
			"-0.022": 0.0,
			"-0.021": 0.0,
			"-0.02": 0.0,
			"-0.019": 0.0,
			"-0.018": 0.0,
			"-0.017": 0.0,
			"-0.016": 0.0,
			"-0.015": 0.0,
			"-0.014": 0.0,
			"-0.013": 0.322318414918,
			"-0.012": 2.73056249944,
			"-0.011": 2.79240413507,
			"-0.01": 4.19882840087,
			"-0.009": 8.62634910956,
			"-0.008": 7.12708912163,
			"-0.007": 7.42146348054,
			"-0.006": 12.0193302515,
			"-0.005": 12.1456208204,
			"-0.004": 13.2028748247,
			"-0.003": 17.9974825494,
			"-0.002": 19.6274803375,
			"-0.001": 15.8920530202,
			"0.0": 11.2825704344,
			"0.001": 11.6932550279,
			"0.002": 11.9429643071,
			"0.003": 17.9945645283,
			"0.004": 17.0852639413,
			"0.005": 14.7256753337,
			"0.006": 8.33510418341,
			"0.007": 5.89058482064,
			"0.008": 4.55243764377,
			"0.009": 3.66622454992,
			"0.01": 2.75658793413,
			"0.011": 3.26019598801,
			"0.012": 4.56029238813,
			"0.013": 2.89766996757,
			"0.014": 2.37772423896,
			"0.015": 0.461783513095,
			"0.016": 0.0,
			"0.017": 0.0,
			"0.018": 0.0,
			"0.019": 0.0,
			"0.02": 0.0,
			"0.021": 0.0,
			"0.022": 0.0,
			"0.023": 0.0,
			"0.024": 0.0,
			"0.025": 0.0
		}
	}
}
