{
	 "smiles": "[O-][N+](=O)C1=CC2=C(C=C1)C1=CC=CC3=C1C2=CC=C3[N+]([O-])=O", 
	 "Tm": 496.15, 
	 "num_atms": 30, 
	 "gaussian": { 
		 "optdone": 1, 
		 "sigma_profile": "yes", 
		 "theory": "DFT", 
		 "functional": "B3LYP", 
		 "basiset": "6-31G**", 
		 "properties": { 
			 "R2extent": 8208.5979, 
			 "electric_dipole_moment_norm": 3.50114687638, 
			 "electric_quadrupole_moment_norm": 43.0354186541, 
			 "total_energy": -1024.74107894, 
			 "HOMO_LUMO_gap": 0.1294, 
			 "cosmo_polarized_energy": -14.13, 
			 "cosmo_cavitation_energy": 35.95, 
			 "cosmo_dispersion_energy": -26.4, 
			 "cosmo_repulsion_energy": 1.91, 
			 "cosmo_total_nonelectrostatic_energy": 11.45, 
			 "SMD_solvation_energy": 9.53 
		},
		"coords": [
			{
				"x": 1.5612826893,
				"y": -4.8584219581,
				"z": -2.2564437057,
				"element": "O" 
			},
			{
				"x": 0.3891519943,
				"y": -4.7218866775,
				"z": -2.6083863005,
				"element": "N" 
			},
			{
				"x": -0.2045181564,
				"y": -5.4784690301,
				"z": -3.3764136735,
				"element": "O" 
			},
			{
				"x": -0.3523043578,
				"y": -3.5717655769,
				"z": -2.0711612569,
				"element": "C" 
			},
			{
				"x": 0.3073741796,
				"y": -2.7022461344,
				"z": -1.1967235603,
				"element": "C" 
			},
			{
				"x": -0.4133806634,
				"y": -1.6248935467,
				"z": -0.7034333537,
				"element": "C" 
			},
			{
				"x": -1.7753488849,
				"y": -1.421955918,
				"z": -1.0810335265,
				"element": "C" 
			},
			{
				"x": -2.4033168797,
				"y": -2.3068542177,
				"z": -1.9542832376,
				"element": "C" 
			},
			{
				"x": -1.6828016327,
				"y": -3.3938690256,
				"z": -2.4545251455,
				"element": "C" 
			},
			{
				"x": -2.2603526707,
				"y": -0.2093314247,
				"z": -0.4007329832,
				"element": "C" 
			},
			{
				"x": -3.4603900581,
				"y": 0.4691858188,
				"z": -0.3761009945,
				"element": "C" 
			},
			{
				"x": -3.5521583671,
				"y": 1.6376209262,
				"z": 0.4237738469,
				"element": "C" 
			},
			{
				"x": -2.4950525265,
				"y": 2.1231488546,
				"z": 1.1759728071,
				"element": "C" 
			},
			{
				"x": -1.2386956658,
				"y": 1.4436755993,
				"z": 1.1720794329,
				"element": "C" 
			},
			{
				"x": -1.1755587623,
				"y": 0.2863297387,
				"z": 0.3695155943,
				"element": "C" 
			},
			{
				"x": -0.0314445699,
				"y": -0.5414870783,
				"z": 0.217334864,
				"element": "C" 
			},
			{
				"x": 1.1238760293,
				"y": -0.2127437739,
				"z": 0.8962482957,
				"element": "C" 
			},
			{
				"x": 1.1127218,
				"y": 0.9384331251,
				"z": 1.714924778,
				"element": "C" 
			},
			{
				"x": -0.011505395,
				"y": 1.7396015742,
				"z": 1.8551633796,
				"element": "C" 
			},
			{
				"x": 0.1329936347,
				"y": 2.9058713843,
				"z": 2.7435998679,
				"element": "N" 
			},
			{
				"x": -0.8374705919,
				"y": 3.6512862906,
				"z": 2.8894706159,
				"element": "O" 
			},
			{
				"x": 1.2184519491,
				"y": 3.0791637446,
				"z": 3.2975112788,
				"element": "O" 
			},
			{
				"x": 1.3413075514,
				"y": -2.8919804491,
				"z": -0.9356242342,
				"element": "H" 
			},
			{
				"x": -3.4382037007,
				"y": -2.1637522163,
				"z": -2.2491154892,
				"element": "H" 
			},
			{
				"x": -2.1305331899,
				"y": -4.1065469677,
				"z": -3.1354890783,
				"element": "H" 
			},
			{
				"x": -4.3225709374,
				"y": 0.134693544,
				"z": -0.9457262335,
				"element": "H" 
			},
			{
				"x": -4.4940470642,
				"y": 2.1774454094,
				"z": 0.448459433,
				"element": "H" 
			},
			{
				"x": -2.6175242148,
				"y": 3.0174541642,
				"z": 1.767940346,
				"element": "H" 
			},
			{
				"x": 2.0300717692,
				"y": -0.8054052798,
				"z": 0.820843107,
				"element": "H" 
			},
			{
				"x": 2.0020466922,
				"y": 1.2247991008,
				"z": 2.2617551258,
				"element": "H" 
			}
		],
		 "valence_orbital": [ 
			{
				"type": "occ",
				"energy": -0.29602,
				"method": "rhf"
			},
			{
				"type": "occ",
				"energy": -0.2957,
				"method": "rhf"
			},
			{
				"type": "occ",
				"energy": -0.28177,
				"method": "rhf"
			},
			{
				"type": "occ",
				"energy": -0.25976,
				"method": "rhf"
			},
			{
				"type": "occ",
				"energy": -0.25114,
				"method": "rhf"
			},
			{
				"type": "unocc",
				"energy": -0.12174,
				"method": "rhf"
			},
			{
				"type": "unocc",
				"energy": -0.09514,
				"method": "rhf"
			},
			{
				"type": "unocc",
				"energy": -0.05796,
				"method": "rhf"
			},
			{
				"type": "unocc",
				"energy": -0.04958,
				"method": "rhf"
			},
			{
				"type": "unocc",
				"energy": -0.033,
				"method": "rhf"
			}
		],
		"cosmo_sigma_profile": { 
			"-0.025": 0.0,
			"-0.024": 0.0,
			"-0.023": 0.0,
			"-0.022": 0.0,
			"-0.021": 0.0,
			"-0.02": 0.0,
			"-0.019": 0.0,
			"-0.018": 0.0,
			"-0.017": 0.0,
			"-0.016": 0.0,
			"-0.015": 0.0,
			"-0.014": 0.0,
			"-0.013": 0.0,
			"-0.012": 0.0,
			"-0.011": 0.0,
			"-0.01": 0.0,
			"-0.009": 1.013570952,
			"-0.008": 9.75439399561,
			"-0.007": 15.1446560756,
			"-0.006": 15.8966318475,
			"-0.005": 15.2352763103,
			"-0.004": 14.3770877269,
			"-0.003": 14.6828845823,
			"-0.002": 19.5439382259,
			"-0.001": 28.9860734382,
			"0.0": 38.2647529416,
			"0.001": 33.6450650615,
			"0.002": 16.2547855411,
			"0.003": 7.89935393182,
			"0.004": 5.46217801919,
			"0.005": 5.44254134055,
			"0.006": 7.64747215691,
			"0.007": 13.2692950513,
			"0.008": 14.1142444748,
			"0.009": 8.67811856594,
			"0.01": 5.94255645035,
			"0.011": 0.424964618668,
			"0.012": 0.0,
			"0.013": 0.0,
			"0.014": 0.0,
			"0.015": 0.0,
			"0.016": 0.0,
			"0.017": 0.0,
			"0.018": 0.0,
			"0.019": 0.0,
			"0.02": 0.0,
			"0.021": 0.0,
			"0.022": 0.0,
			"0.023": 0.0,
			"0.024": 0.0,
			"0.025": 0.0
		}
	}
}
