{
	 "smiles": "COC1=CC(C=C2CC(CC3=C2N=C2C=CC=CC2=C3C(O)=O)C(C)(C)C)=CC(OC)=C1OC", 
	 "Tm": 494.15, 
	 "num_atms": 65, 
	 "gaussian": { 
		 "optdone": 1, 
		 "sigma_profile": "yes", 
		 "theory": "DFT", 
		 "functional": "B3LYP", 
		 "basiset": "6-31G**", 
		 "properties": { 
			 "R2extent": 18750.6798, 
			 "electric_dipole_moment_norm": 2.85178400655, 
			 "electric_quadrupole_moment_norm": 15.6676414294, 
			 "total_energy": -1516.5098644, 
			 "HOMO_LUMO_gap": 0.12739, 
			 "cosmo_polarized_energy": -19.6, 
			 "cosmo_cavitation_energy": 65.03, 
			 "cosmo_dispersion_energy": -41.69, 
			 "cosmo_repulsion_energy": 3.12, 
			 "cosmo_total_nonelectrostatic_energy": 26.46, 
			 "SMD_solvation_energy": 12.51 
		},
		"coords": [
			{
				"x": 0.4960893705,
				"y": -2.2348864666,
				"z": -3.5739359009,
				"element": "C" 
			},
			{
				"x": 1.6939966109,
				"y": -2.9057150822,
				"z": -3.2106420382,
				"element": "O" 
			},
			{
				"x": 2.2301162429,
				"y": -2.6456807207,
				"z": -1.9813791573,
				"element": "C" 
			},
			{
				"x": 1.696921234,
				"y": -1.7445163477,
				"z": -1.0622747228,
				"element": "C" 
			},
			{
				"x": 2.3161738815,
				"y": -1.5442136377,
				"z": 0.1868457535,
				"element": "C" 
			},
			{
				"x": 1.852439325,
				"y": -0.5829025537,
				"z": 1.1993597613,
				"element": "C" 
			},
			{
				"x": 0.6563037684,
				"y": -0.0067791775,
				"z": 1.4605642631,
				"element": "C" 
			},
			{
				"x": 0.5805688541,
				"y": 1.0402428372,
				"z": 2.5754074799,
				"element": "C" 
			},
			{
				"x": -0.5533390443,
				"y": 2.0888678894,
				"z": 2.4063445451,
				"element": "C" 
			},
			{
				"x": -0.9447070124,
				"y": 2.1681768661,
				"z": 0.9104047583,
				"element": "C" 
			},
			{
				"x": -1.4791006498,
				"y": 0.8214149551,
				"z": 0.4872134994,
				"element": "C" 
			},
			{
				"x": -0.628135236,
				"y": -0.3009931637,
				"z": 0.7793339357,
				"element": "C" 
			},
			{
				"x": -0.9546204457,
				"y": -1.5516951543,
				"z": 0.5108841565,
				"element": "N" 
			},
			{
				"x": -2.1360797056,
				"y": -1.7989148622,
				"z": -0.1170006175,
				"element": "C" 
			},
			{
				"x": -2.4550645379,
				"y": -3.1536955642,
				"z": -0.4061261272,
				"element": "C" 
			},
			{
				"x": -3.6286849561,
				"y": -3.4738317973,
				"z": -1.0489397554,
				"element": "C" 
			},
			{
				"x": -4.5303447023,
				"y": -2.4505572882,
				"z": -1.4271415931,
				"element": "C" 
			},
			{
				"x": -4.2517604369,
				"y": -1.1275204997,
				"z": -1.158464809,
				"element": "C" 
			},
			{
				"x": -3.0493254197,
				"y": -0.762624042,
				"z": -0.4949074655,
				"element": "C" 
			},
			{
				"x": -2.6890849825,
				"y": 0.580444335,
				"z": -0.140604572,
				"element": "C" 
			},
			{
				"x": -3.6358024794,
				"y": 1.6880925353,
				"z": -0.4960318726,
				"element": "C" 
			},
			{
				"x": -3.9319461083,
				"y": 2.4886872952,
				"z": 0.5576159448,
				"element": "O" 
			},
			{
				"x": -4.1303382994,
				"y": 1.8607311551,
				"z": -1.590342716,
				"element": "O" 
			},
			{
				"x": -0.2357081476,
				"y": 3.4722704482,
				"z": 3.0678753116,
				"element": "C" 
			},
			{
				"x": 0.8815732941,
				"y": 4.231627769,
				"z": 2.3243208926,
				"element": "C" 
			},
			{
				"x": -1.5087031483,
				"y": 4.3462527381,
				"z": 3.0772150078,
				"element": "C" 
			},
			{
				"x": 0.1898684787,
				"y": 3.2509705691,
				"z": 4.5356566548,
				"element": "C" 
			},
			{
				"x": 3.5015922163,
				"y": -2.2402188883,
				"z": 0.4652185664,
				"element": "C" 
			},
			{
				"x": 4.0332725906,
				"y": -3.1572170338,
				"z": -0.4440894016,
				"element": "C" 
			},
			{
				"x": 5.1507574423,
				"y": -3.8680402246,
				"z": -0.0760644721,
				"element": "O" 
			},
			{
				"x": 6.3297080704,
				"y": -3.617364679,
				"z": -0.8462582629,
				"element": "C" 
			},
			{
				"x": 3.4035105113,
				"y": -3.3725477512,
				"z": -1.6756841456,
				"element": "C" 
			},
			{
				"x": 3.9505564212,
				"y": -4.2433079655,
				"z": -2.5868530037,
				"element": "O" 
			},
			{
				"x": 3.2696880229,
				"y": -5.4966586951,
				"z": -2.7011368304,
				"element": "C" 
			},
			{
				"x": 0.6386182255,
				"y": -1.1474560348,
				"z": -3.6134383739,
				"element": "H" 
			},
			{
				"x": 0.2408934279,
				"y": -2.5977818546,
				"z": -4.5708882367,
				"element": "H" 
			},
			{
				"x": -0.3233442089,
				"y": -2.4643576718,
				"z": -2.8817197419,
				"element": "H" 
			},
			{
				"x": 0.8033035314,
				"y": -1.1917587698,
				"z": -1.3079531984,
				"element": "H" 
			},
			{
				"x": 2.6601763437,
				"y": -0.2672176943,
				"z": 1.8615284242,
				"element": "H" 
			},
			{
				"x": 1.550886641,
				"y": 1.5428104983,
				"z": 2.6324627163,
				"element": "H" 
			},
			{
				"x": 0.4475761377,
				"y": 0.5250007557,
				"z": 3.5353011558,
				"element": "H" 
			},
			{
				"x": -1.4404521826,
				"y": 1.7078194931,
				"z": 2.9306094397,
				"element": "H" 
			},
			{
				"x": -1.6716029277,
				"y": 2.9565146424,
				"z": 0.7298217238,
				"element": "H" 
			},
			{
				"x": -0.0520663978,
				"y": 2.3972662559,
				"z": 0.3125645744,
				"element": "H" 
			},
			{
				"x": -1.7390837796,
				"y": -3.9085749913,
				"z": -0.0982403765,
				"element": "H" 
			},
			{
				"x": -3.8671587615,
				"y": -4.5105727808,
				"z": -1.2679229065,
				"element": "H" 
			},
			{
				"x": -5.4528644748,
				"y": -2.7102536821,
				"z": -1.9381729296,
				"element": "H" 
			},
			{
				"x": -4.9426724014,
				"y": -0.3542004034,
				"z": -1.4706917444,
				"element": "H" 
			},
			{
				"x": -4.5455657634,
				"y": 3.1615121228,
				"z": 0.2143502233,
				"element": "H" 
			},
			{
				"x": 0.59384419,
				"y": 4.4741985151,
				"z": 1.2961433594,
				"element": "H" 
			},
			{
				"x": 1.0989631681,
				"y": 5.1767700228,
				"z": 2.8340251955,
				"element": "H" 
			},
			{
				"x": 1.8159548876,
				"y": 3.6620803454,
				"z": 2.2850638527,
				"element": "H" 
			},
			{
				"x": -2.3361033859,
				"y": 3.8357098819,
				"z": 3.582632717,
				"element": "H" 
			},
			{
				"x": -1.843258415,
				"y": 4.6063614336,
				"z": 2.0685400583,
				"element": "H" 
			},
			{
				"x": -1.3209035157,
				"y": 5.285391451,
				"z": 3.6092515057,
				"element": "H" 
			},
			{
				"x": -0.574906868,
				"y": 2.6943790128,
				"z": 5.0899081167,
				"element": "H" 
			},
			{
				"x": 1.1311159149,
				"y": 2.6992872725,
				"z": 4.6159000626,
				"element": "H" 
			},
			{
				"x": 0.330518015,
				"y": 4.2131270293,
				"z": 5.0402915869,
				"element": "H" 
			},
			{
				"x": 4.0205095062,
				"y": -2.1005227783,
				"z": 1.4082450692,
				"element": "H" 
			},
			{
				"x": 6.6237458657,
				"y": -2.5616573592,
				"z": -0.7767231342,
				"element": "H" 
			},
			{
				"x": 6.1873283909,
				"y": -3.8891695128,
				"z": -1.8956038171,
				"element": "H" 
			},
			{
				"x": 7.1154748679,
				"y": -4.2364134529,
				"z": -0.4074330156,
				"element": "H" 
			},
			{
				"x": 2.2427301396,
				"y": -5.3559110584,
				"z": -3.0530803316,
				"element": "H" 
			},
			{
				"x": 3.8278373447,
				"y": -6.0823053962,
				"z": -3.4349144079,
				"element": "H" 
			},
			{
				"x": 3.2637154616,
				"y": -6.0269730892,
				"z": -1.7411406345,
				"element": "H" 
			}
		],
		 "valence_orbital": [ 
			{
				"type": "occ",
				"energy": -0.25207,
				"method": "rhf"
			},
			{
				"type": "occ",
				"energy": -0.24032,
				"method": "rhf"
			},
			{
				"type": "occ",
				"energy": -0.23307,
				"method": "rhf"
			},
			{
				"type": "occ",
				"energy": -0.21414,
				"method": "rhf"
			},
			{
				"type": "occ",
				"energy": -0.19715,
				"method": "rhf"
			},
			{
				"type": "unocc",
				"energy": -0.06976,
				"method": "rhf"
			},
			{
				"type": "unocc",
				"energy": -0.03823,
				"method": "rhf"
			},
			{
				"type": "unocc",
				"energy": -0.01152,
				"method": "rhf"
			},
			{
				"type": "unocc",
				"energy": -0.00274,
				"method": "rhf"
			},
			{
				"type": "unocc",
				"energy": 0.02198,
				"method": "rhf"
			}
		],
		"cosmo_sigma_profile": { 
			"-0.025": 0.0,
			"-0.024": 0.0,
			"-0.023": 0.0,
			"-0.022": 0.0,
			"-0.021": 0.0,
			"-0.02": 0.0,
			"-0.019": 0.175879525021,
			"-0.018": 0.953165659313,
			"-0.017": 0.885079192163,
			"-0.016": 0.638530142724,
			"-0.015": 0.97617862726,
			"-0.014": 0.64749391466,
			"-0.013": 0.957874502574,
			"-0.012": 0.703378650541,
			"-0.011": 0.832700530032,
			"-0.01": 0.293232084564,
			"-0.009": 0.543191599936,
			"-0.008": 0.769561562307,
			"-0.007": 1.51764543825,
			"-0.006": 11.7848431127,
			"-0.005": 25.8816069797,
			"-0.004": 40.3194186958,
			"-0.003": 57.0599378293,
			"-0.002": 73.0957947736,
			"-0.001": 49.4969715579,
			"0.0": 40.4501639557,
			"0.001": 43.995562482,
			"0.002": 36.9307304328,
			"0.003": 29.071611185,
			"0.004": 28.1718674854,
			"0.005": 15.4522106457,
			"0.006": 9.81758562287,
			"0.007": 6.18210004877,
			"0.008": 6.75082905884,
			"0.009": 6.40947564658,
			"0.01": 6.59280617604,
			"0.011": 8.11852971548,
			"0.012": 4.56232537696,
			"0.013": 1.41992703994,
			"0.014": 0.825434732198,
			"0.015": 0.452289748435,
			"0.016": 0.0,
			"0.017": 0.0,
			"0.018": 0.0,
			"0.019": 0.0,
			"0.02": 0.0,
			"0.021": 0.0,
			"0.022": 0.0,
			"0.023": 0.0,
			"0.024": 0.0,
			"0.0": 0.0
		}
	}
}
