{
	 "smiles": "COC1=CC(F)=C(C=C1F)C#N", 
	 "Tm": 364.15, 
	 "num_atms": 17, 
	 "gaussian": { 
		 "optdone": 1, 
		 "sigma_profile": "yes", 
		 "theory": "DFT", 
		 "functional": "B3LYP", 
		 "basiset": "6-31G**", 
		 "properties": { 
			 "R2extent": 2396.8517, 
			 "electric_dipole_moment_norm": 5.86928445809, 
			 "electric_quadrupole_moment_norm": 14.119662946, 
			 "total_energy": -637.469128243, 
			 "HOMO_LUMO_gap": 0.19216, 
			 "cosmo_polarized_energy": -11.08, 
			 "cosmo_cavitation_energy": 23.91, 
			 "cosmo_dispersion_energy": -16.71, 
			 "cosmo_repulsion_energy": 1.29, 
			 "cosmo_total_nonelectrostatic_energy": 8.49, 
			 "SMD_solvation_energy": 7.39 
		},
		"coords": [
			{
				"x": -2.7160525503,
				"y": 0.9879785293,
				"z": -1.9974018068,
				"element": "C" 
			},
			{
				"x": -1.8934334195,
				"y": 1.7097112436,
				"z": -1.0851866214,
				"element": "O" 
			},
			{
				"x": -0.7223477587,
				"y": 1.1587000423,
				"z": -0.7074734849,
				"element": "C" 
			},
			{
				"x": -0.2307803605,
				"y": -0.0786021274,
				"z": -1.1361977718,
				"element": "C" 
			},
			{
				"x": 0.9982449166,
				"y": -0.5253308516,
				"z": -0.6631072777,
				"element": "C" 
			},
			{
				"x": 1.4516297803,
				"y": -1.7145162507,
				"z": -1.0865656405,
				"element": "F" 
			},
			{
				"x": 1.7722588409,
				"y": 0.2175046455,
				"z": 0.2326959813,
				"element": "C" 
			},
			{
				"x": 1.2707819937,
				"y": 1.4649792545,
				"z": 0.6614558496,
				"element": "C" 
			},
			{
				"x": 0.0543682782,
				"y": 1.9144903899,
				"z": 0.1975246824,
				"element": "C" 
			},
			{
				"x": -0.4236707755,
				"y": 3.1015891618,
				"z": 0.6050591861,
				"element": "F" 
			},
			{
				"x": 3.0293859179,
				"y": -0.2752400481,
				"z": 0.6957353701,
				"element": "C" 
			},
			{
				"x": 4.05564071,
				"y": -0.6639160909,
				"z": 1.0816676409,
				"element": "N" 
			},
			{
				"x": -3.5953661,
				"y": 1.6113730645,
				"z": -2.1586711608,
				"element": "H" 
			},
			{
				"x": -2.2035447884,
				"y": 0.8252482086,
				"z": -2.9529870774,
				"element": "H" 
			},
			{
				"x": -3.0244868934,
				"y": 0.0230034194,
				"z": -1.5779063503,
				"element": "H" 
			},
			{
				"x": -0.7768969456,
				"y": -0.7056312906,
				"z": -1.8283143659,
				"element": "H" 
			},
			{
				"x": 1.8346691543,
				"y": 2.0769586998,
				"z": 1.3553728473,
				"element": "H" 
			}
		],
		 "valence_orbital": [ 
			{
				"type": "occ",
				"energy": -0.35942,
				"method": "rhf"
			},
			{
				"type": "occ",
				"energy": -0.33426,
				"method": "rhf"
			},
			{
				"type": "occ",
				"energy": -0.32621,
				"method": "rhf"
			},
			{
				"type": "occ",
				"energy": -0.27744,
				"method": "rhf"
			},
			{
				"type": "occ",
				"energy": -0.24479,
				"method": "rhf"
			},
			{
				"type": "unocc",
				"energy": -0.05263,
				"method": "rhf"
			},
			{
				"type": "unocc",
				"energy": -0.02403,
				"method": "rhf"
			},
			{
				"type": "unocc",
				"energy": 0.02955,
				"method": "rhf"
			},
			{
				"type": "unocc",
				"energy": 0.05541,
				"method": "rhf"
			},
			{
				"type": "unocc",
				"energy": 0.07774,
				"method": "rhf"
			}
		],
		"cosmo_sigma_profile": { 
			"-0.025": 0.0,
			"-0.024": 0.0,
			"-0.023": 0.0,
			"-0.022": 0.0,
			"-0.021": 0.0,
			"-0.02": 0.0,
			"-0.019": 0.0,
			"-0.018": 0.0,
			"-0.017": 0.0,
			"-0.016": 0.0,
			"-0.015": 0.0,
			"-0.014": 0.0,
			"-0.013": 0.0,
			"-0.012": 0.0,
			"-0.011": 0.0,
			"-0.01": 0.767603658107,
			"-0.009": 4.21720760772,
			"-0.008": 4.66035019381,
			"-0.007": 8.56661548501,
			"-0.006": 11.0074449064,
			"-0.005": 10.2755903949,
			"-0.004": 10.9016739476,
			"-0.003": 9.83298964163,
			"-0.002": 17.9748195396,
			"-0.001": 22.1713077571,
			"0.0": 14.13452963,
			"0.001": 8.05165693071,
			"0.002": 10.1579612078,
			"0.003": 18.5755923692,
			"0.004": 9.58616325876,
			"0.005": 4.87401107259,
			"0.006": 4.60453521243,
			"0.007": 4.55900305687,
			"0.008": 5.29650903612,
			"0.009": 4.03767563881,
			"0.01": 3.44780269766,
			"0.011": 2.26610383483,
			"0.012": 2.57348018601,
			"0.013": 1.10038202128,
			"0.014": 0.0,
			"0.015": 0.0,
			"0.016": 0.0,
			"0.017": 0.0,
			"0.018": 0.0,
			"0.019": 0.0,
			"0.02": 0.0,
			"0.021": 0.0,
			"0.022": 0.0,
			"0.023": 0.0,
			"0.024": 0.0,
			"0.025": 0.0
		}
	}
}
