{
	 "smiles": "CC1=NC2=C(C3=C(CCCC3)S2)C(=O)N1NC(=O)C1=CC=C(Cl)C=C1", 
	 "Tm": 507.15, 
	 "num_atms": 41, 
	 "gaussian": { 
		 "optdone": 1, 
		 "sigma_profile": "yes", 
		 "theory": "DFT", 
		 "functional": "B3LYP", 
		 "basiset": "6-31G**", 
		 "properties": { 
			 "R2extent": 15847.9886, 
			 "electric_dipole_moment_norm": 1.72729379377, 
			 "electric_quadrupole_moment_norm": 17.5227106197, 
			 "total_energy": -1868.66814776, 
			 "HOMO_LUMO_gap": 0.14732, 
			 "cosmo_polarized_energy": -14.43, 
			 "cosmo_cavitation_energy": 47.4, 
			 "cosmo_dispersion_energy": -34.61, 
			 "cosmo_repulsion_energy": 2.56, 
			 "cosmo_total_nonelectrostatic_energy": 15.34, 
			 "SMD_solvation_energy": 5.97 
		},
		"coords": [
			{
				"x": -1.7051177678,
				"y": 2.5906370596,
				"z": -0.5266863439,
				"element": "C" 
			},
			{
				"x": -0.9901628676,
				"y": 1.2844760078,
				"z": -0.6889387632,
				"element": "C" 
			},
			{
				"x": -1.4905384054,
				"y": 0.3590890114,
				"z": -1.463724219,
				"element": "N" 
			},
			{
				"x": -0.7795236755,
				"y": -0.7910644039,
				"z": -1.570474522,
				"element": "C" 
			},
			{
				"x": 0.4418961586,
				"y": -1.0801329551,
				"z": -0.9649383429,
				"element": "C" 
			},
			{
				"x": 0.9515088941,
				"y": -2.38619757,
				"z": -1.2888802831,
				"element": "C" 
			},
			{
				"x": 0.1132933039,
				"y": -3.0604102233,
				"z": -2.1345214526,
				"element": "C" 
			},
			{
				"x": 0.3433362716,
				"y": -4.4515177788,
				"z": -2.6584596638,
				"element": "C" 
			},
			{
				"x": 1.8107547859,
				"y": -4.8659502799,
				"z": -2.4387142689,
				"element": "C" 
			},
			{
				"x": 2.2881226756,
				"y": -4.5017096854,
				"z": -1.025153658,
				"element": "C" 
			},
			{
				"x": 2.2446689031,
				"y": -2.982991735,
				"z": -0.7872553325,
				"element": "C" 
			},
			{
				"x": -1.318955921,
				"y": -2.1279871132,
				"z": -2.5575411528,
				"element": "S" 
			},
			{
				"x": 1.0216137258,
				"y": -0.0767719088,
				"z": -0.114781125,
				"element": "C" 
			},
			{
				"x": 2.0986641646,
				"y": -0.0933724811,
				"z": 0.480700428,
				"element": "O" 
			},
			{
				"x": 0.1954656765,
				"y": 1.0867392449,
				"z": -0.0079833555,
				"element": "N" 
			},
			{
				"x": 0.7120990475,
				"y": 2.0828118451,
				"z": 0.8259639799,
				"element": "N" 
			},
			{
				"x": 0.1603440468,
				"y": 2.1661934718,
				"z": 2.1200098685,
				"element": "C" 
			},
			{
				"x": -0.8982684138,
				"y": 1.6359599542,
				"z": 2.4082153651,
				"element": "O" 
			},
			{
				"x": 0.941462562,
				"y": 3.0074178656,
				"z": 3.0763257618,
				"element": "C" 
			},
			{
				"x": 1.9451127246,
				"y": 3.9035129594,
				"z": 2.6797986214,
				"element": "C" 
			},
			{
				"x": 2.6355807278,
				"y": 4.6568323107,
				"z": 3.6268606144,
				"element": "C" 
			},
			{
				"x": 2.3157296839,
				"y": 4.5091860633,
				"z": 4.9769800653,
				"element": "C" 
			},
			{
				"x": 3.1837631179,
				"y": 5.4519305732,
				"z": 6.1729647255,
				"element": "Cl" 
			},
			{
				"x": 1.3125982414,
				"y": 3.6308020246,
				"z": 5.3925483671,
				"element": "C" 
			},
			{
				"x": 0.6266420612,
				"y": 2.8883893914,
				"z": 4.4373989047,
				"element": "C" 
			},
			{
				"x": -2.1080368052,
				"y": 2.6809603994,
				"z": 0.4863886817,
				"element": "H" 
			},
			{
				"x": -1.0293737342,
				"y": 3.4342308996,
				"z": -0.696535398,
				"element": "H" 
			},
			{
				"x": -2.5231599651,
				"y": 2.6177408514,
				"z": -1.2457436222,
				"element": "H" 
			},
			{
				"x": 0.0868306474,
				"y": -4.5122771161,
				"z": -3.7231713568,
				"element": "H" 
			},
			{
				"x": -0.3244336745,
				"y": -5.1572372799,
				"z": -2.1432660953,
				"element": "H" 
			},
			{
				"x": 1.9166327775,
				"y": -5.9416941547,
				"z": -2.616995248,
				"element": "H" 
			},
			{
				"x": 2.443840742,
				"y": -4.3572311917,
				"z": -3.1772512769,
				"element": "H" 
			},
			{
				"x": 3.3056768335,
				"y": -4.8724251239,
				"z": -0.8601358231,
				"element": "H" 
			},
			{
				"x": 1.6464468953,
				"y": -5.0041791565,
				"z": -0.2890561715,
				"element": "H" 
			},
			{
				"x": 3.087067371,
				"y": -2.4969181013,
				"z": -1.299043345,
				"element": "H" 
			},
			{
				"x": 2.3759782952,
				"y": -2.7464169574,
				"z": 0.272868167,
				"element": "H" 
			},
			{
				"x": 1.726982756,
				"y": 1.9864020108,
				"z": 0.8183054358,
				"element": "H" 
			},
			{
				"x": 2.1765197642,
				"y": 4.0441389771,
				"z": 1.6289684351,
				"element": "H" 
			},
			{
				"x": 3.4069752984,
				"y": 5.3557120588,
				"z": 3.3240484491,
				"element": "H" 
			},
			{
				"x": 1.0765036832,
				"y": 3.5351285021,
				"z": 6.4463544499,
				"element": "H" 
			},
			{
				"x": -0.1623406063,
				"y": 2.2036937336,
				"z": 4.7288504998,
				"element": "H" 
			}
		],
		 "valence_orbital": [ 
			{
				"type": "occ",
				"energy": -0.27417,
				"method": "rhf"
			},
			{
				"type": "occ",
				"energy": -0.26781,
				"method": "rhf"
			},
			{
				"type": "occ",
				"energy": -0.26217,
				"method": "rhf"
			},
			{
				"type": "occ",
				"energy": -0.2526,
				"method": "rhf"
			},
			{
				"type": "occ",
				"energy": -0.21149,
				"method": "rhf"
			},
			{
				"type": "unocc",
				"energy": -0.06417,
				"method": "rhf"
			},
			{
				"type": "unocc",
				"energy": -0.04129,
				"method": "rhf"
			},
			{
				"type": "unocc",
				"energy": -0.03079,
				"method": "rhf"
			},
			{
				"type": "unocc",
				"energy": -0.00959,
				"method": "rhf"
			},
			{
				"type": "unocc",
				"energy": 0.01773,
				"method": "rhf"
			}
		],
		"cosmo_sigma_profile": { 
			"-0.025": 0.0,
			"-0.024": 0.0,
			"-0.023": 0.0,
			"-0.022": 0.0,
			"-0.021": 0.0,
			"-0.02": 0.0,
			"-0.019": 0.0,
			"-0.018": 0.0,
			"-0.017": 0.0,
			"-0.016": 0.0,
			"-0.015": 0.0,
			"-0.014": 0.112637611645,
			"-0.013": 1.06321958695,
			"-0.012": 0.750794497353,
			"-0.011": 1.08597611277,
			"-0.01": 1.23112644989,
			"-0.009": 1.52760456659,
			"-0.008": 4.64980499262,
			"-0.007": 7.83770210453,
			"-0.006": 9.32940120479,
			"-0.005": 13.2647439744,
			"-0.004": 22.3768832951,
			"-0.003": 34.8901224291,
			"-0.002": 45.7832971728,
			"-0.001": 42.9437355536,
			"0.0": 38.8499196707,
			"0.001": 38.6581641302,
			"0.002": 36.4549488953,
			"0.003": 22.1179946994,
			"0.004": 19.3740600083,
			"0.005": 6.41544125503,
			"0.006": 4.81342403906,
			"0.007": 3.54334888469,
			"0.008": 4.02071341777,
			"0.009": 4.06980450521,
			"0.01": 4.65407766497,
			"0.011": 5.65609540378,
			"0.012": 5.31448630528,
			"0.013": 1.42169428707,
			"0.014": 0.0838135540238,
			"0.015": 0.0,
			"0.016": 0.0,
			"0.017": 0.0,
			"0.018": 0.0,
			"0.019": 0.0,
			"0.02": 0.0,
			"0.021": 0.0,
			"0.022": 0.0,
			"0.023": 0.0,
			"0.024": 0.0,
			"0.025": 0.0
		}
	}
}
