{
	 "smiles": "CC(O)(C#C)C1=CC=CC=C1", 
	 "Tm": 323.25, 
	 "num_atms": 21, 
	 "gaussian": { 
		 "optdone": 1, 
		 "sigma_profile": "yes", 
		 "theory": "DFT", 
		 "functional": "B3LYP", 
		 "basiset": "6-31G**", 
		 "properties": { 
			 "R2extent": 1944.2099, 
			 "electric_dipole_moment_norm": 1.19775087977, 
			 "electric_quadrupole_moment_norm": 4.9842840218, 
			 "total_energy": -462.23428528, 
			 "HOMO_LUMO_gap": 0.23957, 
			 "cosmo_polarized_energy": -7.97, 
			 "cosmo_cavitation_energy": 25.25, 
			 "cosmo_dispersion_energy": -17.44, 
			 "cosmo_repulsion_energy": 1.4, 
			 "cosmo_total_nonelectrostatic_energy": 9.2, 
			 "SMD_solvation_energy": 5.91 
		},
		"coords": [
			{
				"x": -2.2696243896,
				"y": -1.3035876116,
				"z": 0.6280077128,
				"element": "C" 
			},
			{
				"x": -0.8605115586,
				"y": -0.6808983723,
				"z": 0.5927698929,
				"element": "C" 
			},
			{
				"x": 0.0329108491,
				"y": -1.7796810198,
				"z": 0.8160274579,
				"element": "O" 
			},
			{
				"x": -0.7151359737,
				"y": 0.300715512,
				"z": 1.6888420646,
				"element": "C" 
			},
			{
				"x": -0.5832657278,
				"y": 1.081037657,
				"z": 2.6015782659,
				"element": "C" 
			},
			{
				"x": -0.6017625225,
				"y": -0.0306927647,
				"z": -0.7789770942,
				"element": "C" 
			},
			{
				"x": -0.0846668984,
				"y": -0.8140986383,
				"z": -1.8179311957,
				"element": "C" 
			},
			{
				"x": 0.1105659959,
				"y": -0.2668430605,
				"z": -3.0869378185,
				"element": "C" 
			},
			{
				"x": -0.2115842471,
				"y": 1.0687174735,
				"z": -3.3334539429,
				"element": "C" 
			},
			{
				"x": -0.7289979978,
				"y": 1.8539551724,
				"z": -2.3015777209,
				"element": "C" 
			},
			{
				"x": -0.9211985382,
				"y": 1.3084544056,
				"z": -1.0315319766,
				"element": "C" 
			},
			{
				"x": -2.3483062817,
				"y": -2.0511868152,
				"z": -0.1654170622,
				"element": "H" 
			},
			{
				"x": -2.4350587533,
				"y": -1.7864511428,
				"z": 1.5942451386,
				"element": "H" 
			},
			{
				"x": -3.0311106292,
				"y": -0.5365390308,
				"z": 0.4714130691,
				"element": "H" 
			},
			{
				"x": 0.9307875232,
				"y": -1.4199023488,
				"z": 0.8443560578,
				"element": "H" 
			},
			{
				"x": -0.4640163223,
				"y": 1.7655821132,
				"z": 3.4094100643,
				"element": "H" 
			},
			{
				"x": 0.166404202,
				"y": -1.8509606456,
				"z": -1.6205950605,
				"element": "H" 
			},
			{
				"x": 0.516423758,
				"y": -0.8853621444,
				"z": -3.8827217911,
				"element": "H" 
			},
			{
				"x": -0.0580466825,
				"y": 1.4953709342,
				"z": -4.3205759531,
				"element": "H" 
			},
			{
				"x": -0.9780465265,
				"y": 2.895926957,
				"z": -2.4823453814,
				"element": "H" 
			},
			{
				"x": -1.309859279,
				"y": 1.9268433701,
				"z": -0.2281847265,
				"element": "H" 
			}
		],
		 "valence_orbital": [ 
			{
				"type": "occ",
				"energy": -0.29576,
				"method": "rhf"
			},
			{
				"type": "occ",
				"energy": -0.27255,
				"method": "rhf"
			},
			{
				"type": "occ",
				"energy": -0.2684,
				"method": "rhf"
			},
			{
				"type": "occ",
				"energy": -0.24913,
				"method": "rhf"
			},
			{
				"type": "occ",
				"energy": -0.24453,
				"method": "rhf"
			},
			{
				"type": "unocc",
				"energy": -0.00496,
				"method": "rhf"
			},
			{
				"type": "unocc",
				"energy": -0.00161,
				"method": "rhf"
			},
			{
				"type": "unocc",
				"energy": 0.03627,
				"method": "rhf"
			},
			{
				"type": "unocc",
				"energy": 0.05352,
				"method": "rhf"
			},
			{
				"type": "unocc",
				"energy": 0.09499,
				"method": "rhf"
			}
		],
		"cosmo_sigma_profile": { 
			"-0.025": 0.0,
			"-0.024": 0.0,
			"-0.023": 0.0,
			"-0.022": 0.0,
			"-0.021": 0.0,
			"-0.02": 0.0,
			"-0.019": 0.0,
			"-0.018": 0.0,
			"-0.017": 0.0,
			"-0.016": 0.504876408645,
			"-0.015": 0.590669096491,
			"-0.014": 0.896405470657,
			"-0.013": 0.792178195542,
			"-0.012": 1.33047463148,
			"-0.011": 1.9842970055,
			"-0.01": 1.65585800252,
			"-0.009": 1.76856198865,
			"-0.008": 2.18149853817,
			"-0.007": 1.785355136,
			"-0.006": 4.90185363432,
			"-0.005": 10.7208870493,
			"-0.004": 15.5009206516,
			"-0.003": 17.563248039,
			"-0.002": 16.6358049808,
			"-0.001": 16.1244581785,
			"0.0": 16.2949817042,
			"0.001": 12.5728786958,
			"0.002": 11.9620666564,
			"0.003": 12.9321822707,
			"0.004": 13.2684965027,
			"0.005": 15.7954939771,
			"0.006": 13.0289381723,
			"0.007": 2.89152452948,
			"0.008": 1.42425966097,
			"0.009": 1.37348374789,
			"0.01": 0.884621614043,
			"0.011": 1.31348550322,
			"0.012": 1.40548507857,
			"0.013": 1.26602831216,
			"0.014": 0.0253849583009,
			"0.015": 0.0,
			"0.016": 0.0,
			"0.017": 0.0,
			"0.018": 0.0,
			"0.019": 0.0,
			"0.02": 0.0,
			"0.021": 0.0,
			"0.022": 0.0,
			"0.023": 0.0,
			"0.024": 0.0,
			"0.025": 0.0
		}
	}
}
