{
	 "smiles": "CC1=C(C=O)N=C(O1)C1=CC=CC=C1", 
	 "Tm": 360.65, 
	 "num_atms": 23, 
	 "gaussian": { 
		 "optdone": 1, 
		 "sigma_profile": "yes", 
		 "theory": "DFT", 
		 "functional": "B3LYP", 
		 "basiset": "6-31G**", 
		 "properties": { 
			 "R2extent": 3564.4758, 
			 "electric_dipole_moment_norm": 4.92676420179, 
			 "electric_quadrupole_moment_norm": 20.6054133307, 
			 "total_energy": -629.780761921, 
			 "HOMO_LUMO_gap": 0.17806, 
			 "cosmo_polarized_energy": -14.32, 
			 "cosmo_cavitation_energy": 28.52, 
			 "cosmo_dispersion_energy": -20.64, 
			 "cosmo_repulsion_energy": 1.62, 
			 "cosmo_total_nonelectrostatic_energy": 9.51, 
			 "SMD_solvation_energy": 4.96 
		},
		"coords": [
			{
				"x": -3.0642603558,
				"y": -0.5879350227,
				"z": -1.7502768211,
				"element": "C" 
			},
			{
				"x": -1.6075324814,
				"y": -0.3300719481,
				"z": -1.5680669327,
				"element": "C" 
			},
			{
				"x": -0.4611453467,
				"y": -0.6416689697,
				"z": -2.2596120874,
				"element": "C" 
			},
			{
				"x": -0.3761397881,
				"y": -1.4028230157,
				"z": -3.5091099728,
				"element": "C" 
			},
			{
				"x": 0.6518037647,
				"y": -1.6659409172,
				"z": -4.1009250191,
				"element": "O" 
			},
			{
				"x": 0.6391399824,
				"y": -0.1193615527,
				"z": -1.590193915,
				"element": "N" 
			},
			{
				"x": 0.1459106327,
				"y": 0.4738790176,
				"z": -0.5476866839,
				"element": "C" 
			},
			{
				"x": -1.2293933117,
				"y": 0.3837693838,
				"z": -0.4709138422,
				"element": "O" 
			},
			{
				"x": 0.8482756975,
				"y": 1.195393738,
				"z": 0.509264964,
				"element": "C" 
			},
			{
				"x": 2.2482699258,
				"y": 1.2959185553,
				"z": 0.4469954997,
				"element": "C" 
			},
			{
				"x": 2.9404920012,
				"y": 1.9785177309,
				"z": 1.4425324731,
				"element": "C" 
			},
			{
				"x": 2.2485769535,
				"y": 2.5657117683,
				"z": 2.5060555685,
				"element": "C" 
			},
			{
				"x": 0.85710685,
				"y": 2.4671711164,
				"z": 2.5701160636,
				"element": "C" 
			},
			{
				"x": 0.1553608938,
				"y": 1.7855378774,
				"z": 1.5777021356,
				"element": "C" 
			},
			{
				"x": -3.4314102492,
				"y": -0.1614288388,
				"z": -2.689323769,
				"element": "H" 
			},
			{
				"x": -3.6233111715,
				"y": -0.1370718594,
				"z": -0.9278903796,
				"element": "H" 
			},
			{
				"x": -3.2815252005,
				"y": -1.6608195548,
				"z": -1.7654099699,
				"element": "H" 
			},
			{
				"x": -1.3645047866,
				"y": -1.7408652853,
				"z": -3.8956345445,
				"element": "H" 
			},
			{
				"x": 2.7699934869,
				"y": 0.8347047747,
				"z": -0.3848482955,
				"element": "H" 
			},
			{
				"x": 4.022641748,
				"y": 2.0535104063,
				"z": 1.3900315599,
				"element": "H" 
			},
			{
				"x": 2.7922899705,
				"y": 3.0977042616,
				"z": 3.2812559146,
				"element": "H" 
			},
			{
				"x": 0.3163397743,
				"y": 2.9221098711,
				"z": 3.394800731,
				"element": "H" 
			},
			{
				"x": -0.92557899,
				"y": 1.7080584631,
				"z": 1.6259373226,
				"element": "H" 
			}
		],
		 "valence_orbital": [ 
			{
				"type": "occ",
				"energy": -0.29442,
				"method": "rhf"
			},
			{
				"type": "occ",
				"energy": -0.28579,
				"method": "rhf"
			},
			{
				"type": "occ",
				"energy": -0.26053,
				"method": "rhf"
			},
			{
				"type": "occ",
				"energy": -0.25027,
				"method": "rhf"
			},
			{
				"type": "occ",
				"energy": -0.22939,
				"method": "rhf"
			},
			{
				"type": "unocc",
				"energy": -0.05133,
				"method": "rhf"
			},
			{
				"type": "unocc",
				"energy": -0.0473,
				"method": "rhf"
			},
			{
				"type": "unocc",
				"energy": -0.00938,
				"method": "rhf"
			},
			{
				"type": "unocc",
				"energy": 0.04855,
				"method": "rhf"
			},
			{
				"type": "unocc",
				"energy": 0.08517,
				"method": "rhf"
			}
		],
		"cosmo_sigma_profile": { 
			"-0.025": 0.0,
			"-0.024": 0.0,
			"-0.023": 0.0,
			"-0.022": 0.0,
			"-0.021": 0.0,
			"-0.02": 0.0,
			"-0.019": 0.0,
			"-0.018": 0.0,
			"-0.017": 0.0,
			"-0.016": 0.0,
			"-0.015": 0.0,
			"-0.014": 0.0,
			"-0.013": 0.0,
			"-0.012": 0.0,
			"-0.011": 0.0,
			"-0.01": 0.0,
			"-0.009": 0.0,
			"-0.008": 0.177290225576,
			"-0.007": 9.22988708953,
			"-0.006": 19.4291220012,
			"-0.005": 19.7777884233,
			"-0.004": 19.5747463134,
			"-0.003": 22.2729953352,
			"-0.002": 18.6880255427,
			"-0.001": 15.3383874488,
			"0.0": 12.5080312233,
			"0.001": 14.2962505905,
			"0.002": 13.5189800088,
			"0.003": 14.8790710051,
			"0.004": 14.3515651071,
			"0.005": 5.57910376043,
			"0.006": 2.35699131013,
			"0.007": 2.53440829879,
			"0.008": 2.94078458671,
			"0.009": 2.57514879122,
			"0.01": 3.02467721702,
			"0.011": 5.28163379787,
			"0.012": 4.84375766975,
			"0.013": 3.19535936361,
			"0.014": 2.12847673397,
			"0.015": 0.774820839071,
			"0.016": 0.0335219697382,
			"0.017": 0.0,
			"0.018": 0.0,
			"0.019": 0.0,
			"0.02": 0.0,
			"0.021": 0.0,
			"0.022": 0.0,
			"0.023": 0.0,
			"0.024": 0.0,
			"0.025": 0.0
		}
	}
}
