{
	 "smiles": "CC1=C(O)C=CC=N1", 
	 "Tm": 440.65, 
	 "num_atms": 15, 
	 "gaussian": { 
		 "optdone": 1, 
		 "sigma_profile": "yes", 
		 "theory": "DFT", 
		 "functional": "B3LYP", 
		 "basiset": "6-31G**", 
		 "properties": { 
			 "R2extent": 1128.3449, 
			 "electric_dipole_moment_norm": 1.19762186854, 
			 "electric_quadrupole_moment_norm": 8.46341182916, 
			 "total_energy": -362.828671986, 
			 "HOMO_LUMO_gap": 0.21124, 
			 "cosmo_polarized_energy": -9.03, 
			 "cosmo_cavitation_energy": 18.54, 
			 "cosmo_dispersion_energy": -14.1, 
			 "cosmo_repulsion_energy": 1.17, 
			 "cosmo_total_nonelectrostatic_energy": 5.6, 
			 "SMD_solvation_energy": 2.3 
		},
		"coords": [
			{
				"x": 1.7162139937,
				"y": -0.9838106216,
				"z": 0.7188235289,
				"element": "C" 
			},
			{
				"x": 1.0758034132,
				"y": -0.2287972994,
				"z": -0.4215846277,
				"element": "C" 
			},
			{
				"x": -0.1411384718,
				"y": -0.6637202872,
				"z": -0.982587151,
				"element": "C" 
			},
			{
				"x": -0.8047230499,
				"y": -1.7727623559,
				"z": -0.5397387347,
				"element": "O" 
			},
			{
				"x": -0.7039036972,
				"y": 0.0582216652,
				"z": -2.0347576712,
				"element": "C" 
			},
			{
				"x": -0.0368589389,
				"y": 1.1900467343,
				"z": -2.494597058,
				"element": "C" 
			},
			{
				"x": 1.1638749079,
				"y": 1.5523734104,
				"z": -1.8837819536,
				"element": "C" 
			},
			{
				"x": 1.7066763231,
				"y": 0.8622501439,
				"z": -0.8742433111,
				"element": "N" 
			},
			{
				"x": 1.962109452,
				"y": -2.0186738448,
				"z": 0.443342694,
				"element": "H" 
			},
			{
				"x": 1.0692046598,
				"y": -1.0196147446,
				"z": 1.6061727994,
				"element": "H" 
			},
			{
				"x": 2.642582648,
				"y": -0.4802040832,
				"z": 0.9974846379,
				"element": "H" 
			},
			{
				"x": -0.3096890502,
				"y": -2.1747404718,
				"z": 0.185292033,
				"element": "H" 
			},
			{
				"x": -1.6413528853,
				"y": -0.2771033794,
				"z": -2.4666528531,
				"element": "H" 
			},
			{
				"x": -0.4408909245,
				"y": 1.7799439613,
				"z": -3.3115161183,
				"element": "H" 
			},
			{
				"x": 1.71339162,
				"y": 2.4305911729,
				"z": -2.2161562145,
				"element": "H" 
			}
		],
		 "valence_orbital": [ 
			{
				"type": "occ",
				"energy": -0.36704,
				"method": "rhf"
			},
			{
				"type": "occ",
				"energy": -0.35749,
				"method": "rhf"
			},
			{
				"type": "occ",
				"energy": -0.27331,
				"method": "rhf"
			},
			{
				"type": "occ",
				"energy": -0.24955,
				"method": "rhf"
			},
			{
				"type": "occ",
				"energy": -0.22777,
				"method": "rhf"
			},
			{
				"type": "unocc",
				"energy": -0.01653,
				"method": "rhf"
			},
			{
				"type": "unocc",
				"energy": 0.00438,
				"method": "rhf"
			},
			{
				"type": "unocc",
				"energy": 0.06238,
				"method": "rhf"
			},
			{
				"type": "unocc",
				"energy": 0.10886,
				"method": "rhf"
			},
			{
				"type": "unocc",
				"energy": 0.13405,
				"method": "rhf"
			}
		],
		"cosmo_sigma_profile": { 
			"-0.025": 0.0,
			"-0.024": 0.0,
			"-0.023": 0.0,
			"-0.022": 0.0,
			"-0.021": 0.0,
			"-0.02": 0.0,
			"-0.019": 0.0,
			"-0.018": 0.0,
			"-0.017": 0.0250308196152,
			"-0.016": 0.922079852549,
			"-0.015": 0.758351492822,
			"-0.014": 0.647745282715,
			"-0.013": 0.975915414179,
			"-0.012": 1.26501649909,
			"-0.011": 1.66261010911,
			"-0.01": 1.12011157456,
			"-0.009": 1.31231365417,
			"-0.008": 1.33389505931,
			"-0.007": 3.46951034999,
			"-0.006": 7.14275571375,
			"-0.005": 9.89080781678,
			"-0.004": 11.1469227794,
			"-0.003": 9.41072384646,
			"-0.002": 9.06903465318,
			"-0.001": 10.5842487516,
			"0.0": 9.16928531519,
			"0.001": 9.32700697891,
			"0.002": 10.8367329595,
			"0.003": 12.6518711321,
			"0.004": 9.46335298881,
			"0.005": 3.55476841063,
			"0.006": 3.87072183351,
			"0.007": 1.7323437199,
			"0.008": 3.56560312957,
			"0.009": 2.90936044974,
			"0.01": 2.40725863028,
			"0.011": 2.63941529406,
			"0.012": 1.4912626912,
			"0.013": 0.68828035582,
			"0.014": 0.775808877149,
			"0.015": 0.826792556588,
			"0.016": 0.705719521002,
			"0.017": 0.125232268676,
			"0.018": 0.0,
			"0.019": 0.0,
			"0.02": 0.0,
			"0.021": 0.0,
			"0.022": 0.0,
			"0.023": 0.0,
			"0.024": 0.0,
			"0.025": 0.0
		}
	}
}
