{
	 "smiles": "CC(C)C1=CC=C(NC(=S)NN)C=C1", 
	 "Tm": 453.15, 
	 "num_atms": 29, 
	 "gaussian": { 
		 "optdone": 1, 
		 "sigma_profile": "yes", 
		 "theory": "DFT", 
		 "functional": "B3LYP", 
		 "basiset": "6-31G**", 
		 "properties": { 
			 "R2extent": 5441.7219, 
			 "electric_dipole_moment_norm": 5.58686856835, 
			 "electric_quadrupole_moment_norm": 21.0631537698, 
			 "total_energy": -952.537316762, 
			 "HOMO_LUMO_gap": 0.16932, 
			 "cosmo_polarized_energy": -15.87, 
			 "cosmo_cavitation_energy": 33.32, 
			 "cosmo_dispersion_energy": -23.98, 
			 "cosmo_repulsion_energy": 1.88, 
			 "cosmo_total_nonelectrostatic_energy": 11.21, 
			 "SMD_solvation_energy": 5.09 
		},
		"coords": [
			{
				"x": -3.9783911607,
				"y": -0.8107057374,
				"z": -2.5563287047,
				"element": "C" 
			},
			{
				"x": -3.3686659465,
				"y": -0.5413992315,
				"z": -1.1674712469,
				"element": "C" 
			},
			{
				"x": -3.4670601692,
				"y": -1.7886187176,
				"z": -0.2684405148,
				"element": "C" 
			},
			{
				"x": -1.9397622503,
				"y": -0.0252825213,
				"z": -1.2661415403,
				"element": "C" 
			},
			{
				"x": -0.9146911153,
				"y": -0.7992276117,
				"z": -1.8322075172,
				"element": "C" 
			},
			{
				"x": 0.3924508759,
				"y": -0.3287134243,
				"z": -1.909741019,
				"element": "C" 
			},
			{
				"x": 0.7160828557,
				"y": 0.949432888,
				"z": -1.4327091787,
				"element": "C" 
			},
			{
				"x": 2.054757092,
				"y": 1.4006478299,
				"z": -1.5864755786,
				"element": "N" 
			},
			{
				"x": 2.699683721,
				"y": 2.4403558305,
				"z": -0.9577696563,
				"element": "C" 
			},
			{
				"x": 3.8597926689,
				"y": 3.3558622118,
				"z": -1.7522476768,
				"element": "S" 
			},
			{
				"x": 2.3801359274,
				"y": 2.6815300728,
				"z": 0.3521000203,
				"element": "N" 
			},
			{
				"x": 1.9652506534,
				"y": 1.6991366388,
				"z": 1.2776051425,
				"element": "N" 
			},
			{
				"x": -0.2980314001,
				"y": 1.7453595436,
				"z": -0.8843077872,
				"element": "C" 
			},
			{
				"x": -1.5997727209,
				"y": 1.2486672487,
				"z": -0.7964660783,
				"element": "C" 
			},
			{
				"x": -3.4397201494,
				"y": -1.608493724,
				"z": -3.0796289121,
				"element": "H" 
			},
			{
				"x": -3.9430288179,
				"y": 0.0838395993,
				"z": -3.1856144409,
				"element": "H" 
			},
			{
				"x": -5.0243131465,
				"y": -1.1227395348,
				"z": -2.4645369409,
				"element": "H" 
			},
			{
				"x": -3.9629589093,
				"y": 0.2520285204,
				"z": -0.6955288779,
				"element": "H" 
			},
			{
				"x": -2.9043370807,
				"y": -2.6286688258,
				"z": -0.6905781293,
				"element": "H" 
			},
			{
				"x": -3.0695980485,
				"y": -1.5899695732,
				"z": 0.7317413827,
				"element": "H" 
			},
			{
				"x": -4.5095510238,
				"y": -2.1079515546,
				"z": -0.1638163535,
				"element": "H" 
			},
			{
				"x": -1.1343845707,
				"y": -1.7929189279,
				"z": -2.2129094622,
				"element": "H" 
			},
			{
				"x": 1.173411942,
				"y": -0.9521221372,
				"z": -2.3370611082,
				"element": "H" 
			},
			{
				"x": 2.473226869,
				"y": 1.2001170928,
				"z": -2.4857778782,
				"element": "H" 
			},
			{
				"x": 2.9377127735,
				"y": 3.4161126622,
				"z": 0.767689089,
				"element": "H" 
			},
			{
				"x": 0.9665374578,
				"y": 1.5364883628,
				"z": 1.1681221918,
				"element": "H" 
			},
			{
				"x": 2.4429160976,
				"y": 0.8215527482,
				"z": 1.077011545,
				"element": "H" 
			},
			{
				"x": -0.0737394333,
				"y": 2.7533770424,
				"z": -0.5500640618,
				"element": "H" 
			},
			{
				"x": -2.3725529911,
				"y": 1.8807032291,
				"z": -0.3657467072,
				"element": "H" 
			}
		],
		 "valence_orbital": [ 
			{
				"type": "occ",
				"energy": -0.2821,
				"method": "rhf"
			},
			{
				"type": "occ",
				"energy": -0.2659,
				"method": "rhf"
			},
			{
				"type": "occ",
				"energy": -0.24135,
				"method": "rhf"
			},
			{
				"type": "occ",
				"energy": -0.21925,
				"method": "rhf"
			},
			{
				"type": "occ",
				"energy": -0.20505,
				"method": "rhf"
			},
			{
				"type": "unocc",
				"energy": -0.03573,
				"method": "rhf"
			},
			{
				"type": "unocc",
				"energy": -0.02017,
				"method": "rhf"
			},
			{
				"type": "unocc",
				"energy": 0.00766,
				"method": "rhf"
			},
			{
				"type": "unocc",
				"energy": 0.06896,
				"method": "rhf"
			},
			{
				"type": "unocc",
				"energy": 0.0771,
				"method": "rhf"
			}
		],
		"cosmo_sigma_profile": { 
			"-0.025": 0.0,
			"-0.024": 0.0,
			"-0.023": 0.0,
			"-0.022": 0.0,
			"-0.021": 0.0,
			"-0.02": 0.0,
			"-0.019": 0.0,
			"-0.018": 0.0,
			"-0.017": 0.0,
			"-0.016": 0.0,
			"-0.015": 0.129448354779,
			"-0.014": 1.07212820888,
			"-0.013": 1.54924768136,
			"-0.012": 2.84062349606,
			"-0.011": 2.9691119105,
			"-0.01": 3.29069855701,
			"-0.009": 3.90055866876,
			"-0.008": 4.70256269912,
			"-0.007": 4.02375188607,
			"-0.006": 8.56273426798,
			"-0.005": 14.015367241,
			"-0.004": 15.6995703207,
			"-0.003": 21.0310891175,
			"-0.002": 22.8743711142,
			"-0.001": 22.102372779,
			"0.0": 24.8118217557,
			"0.001": 26.6025704919,
			"0.002": 14.9524212664,
			"0.003": 10.2310178405,
			"0.004": 10.597451999,
			"0.005": 10.0553905812,
			"0.006": 4.04491522593,
			"0.007": 3.7616967675,
			"0.008": 4.56291637478,
			"0.009": 5.63416893493,
			"0.01": 7.85058091775,
			"0.011": 6.43281899081,
			"0.012": 3.92038417335,
			"0.013": 1.04238287002,
			"0.014": 0.528303160276,
			"0.015": 0.550870307818,
			"0.016": 0.232042794215,
			"0.017": 0.0,
			"0.018": 0.0,
			"0.019": 0.0,
			"0.02": 0.0,
			"0.021": 0.0,
			"0.022": 0.0,
			"0.023": 0.0,
			"0.024": 0.0,
			"0.025": 0.0
		}
	}
}
