{
	 "smiles": "OCC1=CC2=C(C=NN2)C=C1", 
	 "Tm": 432.15, 
	 "num_atms": 19, 
	 "gaussian": { 
		 "optdone": 1, 
		 "sigma_profile": "yes", 
		 "theory": "DFT", 
		 "functional": "B3LYP", 
		 "basiset": "6-31G**", 
		 "properties": { 
			 "R2extent": 2193.8819, 
			 "electric_dipole_moment_norm": 1.33844114551, 
			 "electric_quadrupole_moment_norm": 12.8165247868, 
			 "total_energy": -494.373428465, 
			 "HOMO_LUMO_gap": 0.1923, 
			 "cosmo_polarized_energy": -12.57, 
			 "cosmo_cavitation_energy": 22.88, 
			 "cosmo_dispersion_energy": -17.33, 
			 "cosmo_repulsion_energy": 1.39, 
			 "cosmo_total_nonelectrostatic_energy": 6.94, 
			 "SMD_solvation_energy": 2.97 
		},
		"coords": [
			{
				"x": -1.0690289636,
				"y": 1.5415031398,
				"z": 1.8446405796,
				"element": "O" 
			},
			{
				"x": -0.6402311803,
				"y": 1.617424297,
				"z": 0.4936875021,
				"element": "C" 
			},
			{
				"x": -0.268610037,
				"y": 0.2755821037,
				"z": -0.1128091509,
				"element": "C" 
			},
			{
				"x": 0.1136228994,
				"y": -0.775424831,
				"z": 0.7106608467,
				"element": "C" 
			},
			{
				"x": 0.4727123291,
				"y": -1.9834412996,
				"z": 0.0930372525,
				"element": "C" 
			},
			{
				"x": 0.459003031,
				"y": -2.1521007826,
				"z": -1.3149657692,
				"element": "C" 
			},
			{
				"x": 0.8843066659,
				"y": -3.5020975277,
				"z": -1.5133685945,
				"element": "C" 
			},
			{
				"x": 1.1367972065,
				"y": -4.1074007899,
				"z": -0.3661928097,
				"element": "N" 
			},
			{
				"x": 0.8837240005,
				"y": -3.1848716763,
				"z": 0.6015088218,
				"element": "N" 
			},
			{
				"x": 0.0684468331,
				"y": -1.0730777802,
				"z": -2.1301399783,
				"element": "C" 
			},
			{
				"x": -0.2922117271,
				"y": 0.1177261452,
				"z": -1.5237841163,
				"element": "C" 
			},
			{
				"x": -1.8509789244,
				"y": 0.9734423216,
				"z": 1.8670484549,
				"element": "H" 
			},
			{
				"x": 0.2367368644,
				"y": 2.2762951315,
				"z": 0.5072562532,
				"element": "H" 
			},
			{
				"x": -1.3931440956,
				"y": 2.1105370595,
				"z": -0.1415787041,
				"element": "H" 
			},
			{
				"x": 0.1304658838,
				"y": -0.644609174,
				"z": 1.7877148204,
				"element": "H" 
			},
			{
				"x": 1.0125300041,
				"y": -4.0400817965,
				"z": -2.4432759809,
				"element": "H" 
			},
			{
				"x": 1.0241246132,
				"y": -3.440880153,
				"z": 1.5653126797,
				"element": "H" 
			},
			{
				"x": 0.0413945315,
				"y": -1.1745175005,
				"z": -3.2112460106,
				"element": "H" 
			},
			{
				"x": -0.6066599345,
				"y": 0.958093113,
				"z": -2.1378060964,
				"element": "H" 
			}
		],
		 "valence_orbital": [ 
			{
				"type": "occ",
				"energy": -0.29211,
				"method": "rhf"
			},
			{
				"type": "occ",
				"energy": -0.29087,
				"method": "rhf"
			},
			{
				"type": "occ",
				"energy": -0.27913,
				"method": "rhf"
			},
			{
				"type": "occ",
				"energy": -0.23651,
				"method": "rhf"
			},
			{
				"type": "occ",
				"energy": -0.22089,
				"method": "rhf"
			},
			{
				"type": "unocc",
				"energy": -0.02859,
				"method": "rhf"
			},
			{
				"type": "unocc",
				"energy": 0.01379,
				"method": "rhf"
			},
			{
				"type": "unocc",
				"energy": 0.0575,
				"method": "rhf"
			},
			{
				"type": "unocc",
				"energy": 0.08082,
				"method": "rhf"
			},
			{
				"type": "unocc",
				"energy": 0.08581,
				"method": "rhf"
			}
		],
		"cosmo_sigma_profile": { 
			"-0.025": 0.0,
			"-0.024": 0.0,
			"-0.023": 0.0,
			"-0.022": 0.0,
			"-0.021": 0.0,
			"-0.02": 0.0,
			"-0.019": 0.0,
			"-0.018": 0.0,
			"-0.017": 0.0688921765481,
			"-0.016": 1.48297427813,
			"-0.015": 2.19977729623,
			"-0.014": 1.47509515248,
			"-0.013": 3.04984277927,
			"-0.012": 1.8102116042,
			"-0.011": 1.10586998434,
			"-0.01": 1.71072984684,
			"-0.009": 2.3910559873,
			"-0.008": 2.07371469218,
			"-0.007": 3.88014690369,
			"-0.006": 7.29344464155,
			"-0.005": 13.0646958885,
			"-0.004": 14.7826951794,
			"-0.003": 12.1786796231,
			"-0.002": 10.0942987031,
			"-0.001": 9.00835595732,
			"0.0": 6.85710160915,
			"0.001": 7.85496837613,
			"0.002": 11.3174238702,
			"0.003": 14.1192231816,
			"0.004": 14.7152413726,
			"0.005": 12.1277075245,
			"0.006": 4.63269931816,
			"0.007": 2.9898252162,
			"0.008": 3.25022137974,
			"0.009": 1.9613033426,
			"0.01": 2.88623418986,
			"0.011": 2.2282476176,
			"0.012": 2.18007743637,
			"0.013": 3.19198614137,
			"0.014": 2.96575350162,
			"0.015": 0.861028244634,
			"0.016": 0.365665671344,
			"0.017": 0.0,
			"0.018": 0.0,
			"0.019": 0.0,
			"0.02": 0.0,
			"0.021": 0.0,
			"0.022": 0.0,
			"0.023": 0.0,
			"0.024": 0.0,
			"0.025": 0.0
		}
	}
}
