{
	 "smiles": "CC1=CN(C2CC(N=[N+]=[N-])C(CO)O2)C(=O)NC1=O", 
	 "Tm": 379.15, 
	 "num_atms": 32, 
	 "gaussian": { 
		 "optdone": 1, 
		 "sigma_profile": "yes", 
		 "theory": "DFT", 
		 "functional": "B3LYP", 
		 "basiset": "6-31G**", 
		 "properties": { 
			 "R2extent": 6530.8373, 
			 "electric_dipole_moment_norm": 4.59103169342, 
			 "electric_quadrupole_moment_norm": 19.6944794077, 
			 "total_energy": -963.499884825, 
			 "HOMO_LUMO_gap": 0.19632, 
			 "cosmo_polarized_energy": -21.29, 
			 "cosmo_cavitation_energy": 36.81, 
			 "cosmo_dispersion_energy": -25.57, 
			 "cosmo_repulsion_energy": 1.98, 
			 "cosmo_total_nonelectrostatic_energy": 13.22, 
			 "SMD_solvation_energy": 4.96 
		},
		"coords": [
			{
				"x": 3.4196279723,
				"y": 1.2289821508,
				"z": -2.1817114446,
				"element": "C" 
			},
			{
				"x": 2.5856614138,
				"y": 1.3722077776,
				"z": -0.9413780437,
				"element": "C" 
			},
			{
				"x": 1.2838440486,
				"y": 1.005149094,
				"z": -0.8662182887,
				"element": "C" 
			},
			{
				"x": 0.5174093512,
				"y": 1.1419651072,
				"z": 0.2748568908,
				"element": "N" 
			},
			{
				"x": -0.9078016513,
				"y": 0.7321406973,
				"z": 0.334480731,
				"element": "C" 
			},
			{
				"x": -1.130100319,
				"y": -0.5793009924,
				"z": 1.1113258817,
				"element": "C" 
			},
			{
				"x": -2.2771395034,
				"y": -1.2473268457,
				"z": 0.3461395628,
				"element": "C" 
			},
			{
				"x": -3.5581366062,
				"y": -0.6929230885,
				"z": 0.8432240105,
				"element": "N" 
			},
			{
				"x": -4.5495303849,
				"y": -1.4248959172,
				"z": 0.7476320968,
				"element": "N" 
			},
			{
				"x": -5.5361799891,
				"y": -1.9985563167,
				"z": 0.7362168785,
				"element": "N" 
			},
			{
				"x": -1.961703852,
				"y": -0.8000558954,
				"z": -1.0977066907,
				"element": "C" 
			},
			{
				"x": -3.1519968675,
				"y": -0.7174540833,
				"z": -2.0391787375,
				"element": "C" 
			},
			{
				"x": -3.7026610366,
				"y": -2.02693547,
				"z": -2.0876045238,
				"element": "O" 
			},
			{
				"x": -1.3908435763,
				"y": 0.5134402514,
				"z": -0.9781146481,
				"element": "O" 
			},
			{
				"x": 1.0331651991,
				"y": 1.6872433389,
				"z": 1.4479427921,
				"element": "C" 
			},
			{
				"x": 0.3678288436,
				"y": 1.8064491606,
				"z": 2.4679159853,
				"element": "O" 
			},
			{
				"x": 2.3581069903,
				"y": 2.0687530761,
				"z": 1.3504332195,
				"element": "N" 
			},
			{
				"x": 3.2183475679,
				"y": 1.9548090754,
				"z": 0.2417449961,
				"element": "C" 
			},
			{
				"x": 4.3797369363,
				"y": 2.3294716805,
				"z": 0.3183393417,
				"element": "O" 
			},
			{
				"x": 2.8417993168,
				"y": 0.7903244621,
				"z": -2.9996878078,
				"element": "H" 
			},
			{
				"x": 3.8037301748,
				"y": 2.2013828765,
				"z": -2.507637347,
				"element": "H" 
			},
			{
				"x": 4.2941050178,
				"y": 0.5972100891,
				"z": -1.9929919585,
				"element": "H" 
			},
			{
				"x": 0.7465393543,
				"y": 0.5950936252,
				"z": -1.711739611,
				"element": "H" 
			},
			{
				"x": -1.4479063646,
				"y": 1.5643652177,
				"z": 0.7926952565,
				"element": "H" 
			},
			{
				"x": -0.2323453174,
				"y": -1.2018234432,
				"z": 1.0449219484,
				"element": "H" 
			},
			{
				"x": -1.3558917549,
				"y": -0.4009432316,
				"z": 2.1618136573,
				"element": "H" 
			},
			{
				"x": -2.2692600354,
				"y": -2.3375581343,
				"z": 0.4312920746,
				"element": "H" 
			},
			{
				"x": -1.2189232124,
				"y": -1.4963137369,
				"z": -1.5158486754,
				"element": "H" 
			},
			{
				"x": -3.8602158475,
				"y": 0.0223557178,
				"z": -1.6438007654,
				"element": "H" 
			},
			{
				"x": -2.8129550037,
				"y": -0.3726870968,
				"z": -3.0267214957,
				"element": "H" 
			},
			{
				"x": -4.5352393475,
				"y": -1.9944309225,
				"z": -2.573647523,
				"element": "H" 
			},
			{
				"x": 2.7587284831,
				"y": 2.4669617766,
				"z": 2.1913122372,
				"element": "H" 
			}
		],
		 "valence_orbital": [ 
			{
				"type": "occ",
				"energy": -0.28855,
				"method": "rhf"
			},
			{
				"type": "occ",
				"energy": -0.28118,
				"method": "rhf"
			},
			{
				"type": "occ",
				"energy": -0.264,
				"method": "rhf"
			},
			{
				"type": "occ",
				"energy": -0.25818,
				"method": "rhf"
			},
			{
				"type": "occ",
				"energy": -0.2323,
				"method": "rhf"
			},
			{
				"type": "unocc",
				"energy": -0.03598,
				"method": "rhf"
			},
			{
				"type": "unocc",
				"energy": -0.03288,
				"method": "rhf"
			},
			{
				"type": "unocc",
				"energy": 0.00316,
				"method": "rhf"
			},
			{
				"type": "unocc",
				"energy": 0.01254,
				"method": "rhf"
			},
			{
				"type": "unocc",
				"energy": 0.04712,
				"method": "rhf"
			}
		],
		"cosmo_sigma_profile": { 
			"-0.025": 0.0,
			"-0.024": 0.0,
			"-0.023": 0.0,
			"-0.022": 0.0,
			"-0.021": 0.0,
			"-0.02": 0.0,
			"-0.019": 0.0,
			"-0.018": 0.0,
			"-0.017": 0.179710058679,
			"-0.016": 1.00126872299,
			"-0.015": 2.77714835662,
			"-0.014": 1.23156424565,
			"-0.013": 1.58134801673,
			"-0.012": 1.66667795459,
			"-0.011": 1.55582281209,
			"-0.01": 1.46568645096,
			"-0.009": 1.70265244699,
			"-0.008": 5.34979876489,
			"-0.007": 11.7327101976,
			"-0.006": 15.3421107649,
			"-0.005": 16.9196652514,
			"-0.004": 25.1120196702,
			"-0.003": 23.7478706594,
			"-0.002": 23.9328121054,
			"-0.001": 22.9685394827,
			"0.0": 20.6439437247,
			"0.001": 14.1425193485,
			"0.002": 10.1233542839,
			"0.003": 9.97463469373,
			"0.004": 9.42584153415,
			"0.005": 9.95326717414,
			"0.006": 8.35505667041,
			"0.007": 9.14804686083,
			"0.008": 7.55462734354,
			"0.009": 4.81144582329,
			"0.01": 4.92781256925,
			"0.011": 4.76971623366,
			"0.012": 7.27600826037,
			"0.013": 9.69316514769,
			"0.014": 1.81971575996,
			"0.015": 0.0,
			"0.016": 0.0,
			"0.017": 0.0,
			"0.018": 0.0,
			"0.019": 0.0,
			"0.02": 0.0,
			"0.021": 0.0,
			"0.022": 0.0,
			"0.023": 0.0,
			"0.024": 0.0,
			"0.025": 0.0
		}
	}
}
