{
	 "smiles": "OC(=O)CNC(=O)CNS(=O)(=O)CC1=CC=C(F)C=C1", 
	 "Tm": 472.15, 
	 "num_atms": 33, 
	 "gaussian": { 
		 "optdone": 1, 
		 "sigma_profile": "yes", 
		 "theory": "DFT", 
		 "functional": "B3LYP", 
		 "basiset": "6-31G**", 
		 "properties": { 
			 "R2extent": 7304.4538, 
			 "electric_dipole_moment_norm": 6.81304200266, 
			 "electric_quadrupole_moment_norm": 20.8828687273, 
			 "total_energy": -1410.60083706, 
			 "HOMO_LUMO_gap": 0.22715, 
			 "cosmo_polarized_energy": -29.67, 
			 "cosmo_cavitation_energy": 39.87, 
			 "cosmo_dispersion_energy": -27.04, 
			 "cosmo_repulsion_energy": 2.06, 
			 "cosmo_total_nonelectrostatic_energy": 14.89, 
			 "SMD_solvation_energy": 6.88 
		},
		"coords": [
			{
				"x": -2.4314156121,
				"y": 1.5688148499,
				"z": -3.9664360757,
				"element": "O" 
			},
			{
				"x": -2.7110250863,
				"y": 1.8972350823,
				"z": -2.6864957324,
				"element": "C" 
			},
			{
				"x": -3.7299541461,
				"y": 2.4728385312,
				"z": -2.3993104882,
				"element": "O" 
			},
			{
				"x": -1.6463059305,
				"y": 1.5013350611,
				"z": -1.6647924543,
				"element": "C" 
			},
			{
				"x": -2.0995905792,
				"y": 1.8897862498,
				"z": -0.3454600878,
				"element": "N" 
			},
			{
				"x": -1.6449634255,
				"y": 1.4044793351,
				"z": 0.8421036435,
				"element": "C" 
			},
			{
				"x": -2.2700316273,
				"y": 1.5163171955,
				"z": 1.8905990984,
				"element": "O" 
			},
			{
				"x": -0.2602938392,
				"y": 0.7413753115,
				"z": 0.8785596727,
				"element": "C" 
			},
			{
				"x": -0.3003786335,
				"y": -0.4813118181,
				"z": 1.6929152887,
				"element": "N" 
			},
			{
				"x": -0.7339835133,
				"y": -1.9134788247,
				"z": 0.8912975408,
				"element": "S" 
			},
			{
				"x": -1.7041142702,
				"y": -2.6158051714,
				"z": 1.7342929116,
				"element": "O" 
			},
			{
				"x": -1.0267006215,
				"y": -1.6066257636,
				"z": -0.5209589808,
				"element": "O" 
			},
			{
				"x": 0.8198466617,
				"y": -2.8784339363,
				"z": 0.9352960782,
				"element": "C" 
			},
			{
				"x": 1.9675451556,
				"y": -2.228057903,
				"z": 0.2175985109,
				"element": "C" 
			},
			{
				"x": 2.1184998466,
				"y": -2.3779673652,
				"z": -1.1689967072,
				"element": "C" 
			},
			{
				"x": 3.1773202268,
				"y": -1.7729280049,
				"z": -1.843221949,
				"element": "C" 
			},
			{
				"x": 4.0850181583,
				"y": -1.0115490633,
				"z": -1.1139817081,
				"element": "C" 
			},
			{
				"x": 5.1128564419,
				"y": -0.4261079315,
				"z": -1.7593500562,
				"element": "F" 
			},
			{
				"x": 3.9645493224,
				"y": -0.8382513432,
				"z": 0.2603974029,
				"element": "C" 
			},
			{
				"x": 2.8990419983,
				"y": -1.4497717956,
				"z": 0.9196246361,
				"element": "C" 
			},
			{
				"x": -1.5991648897,
				"y": 1.0768486228,
				"z": -4.0247870398,
				"element": "H" 
			},
			{
				"x": -1.4784829078,
				"y": 0.4174762368,
				"z": -1.7267013119,
				"element": "H" 
			},
			{
				"x": -0.709540127,
				"y": 2.0051228035,
				"z": -1.9487229194,
				"element": "H" 
			},
			{
				"x": -3.0256707441,
				"y": 2.3089254324,
				"z": -0.3262782037,
				"element": "H" 
			},
			{
				"x": 0.4207463846,
				"y": 1.4461189241,
				"z": 1.3690825711,
				"element": "H" 
			},
			{
				"x": 0.1522353903,
				"y": 0.5057375021,
				"z": -0.1004887864,
				"element": "H" 
			},
			{
				"x": -0.9511554294,
				"y": -0.3542692523,
				"z": 2.47164781,
				"element": "H" 
			},
			{
				"x": 0.5338105557,
				"y": -3.834551613,
				"z": 0.487434674,
				"element": "H" 
			},
			{
				"x": 1.0194595383,
				"y": -3.0372616054,
				"z": 1.9969507185,
				"element": "H" 
			},
			{
				"x": 1.398535812,
				"y": -2.9703774946,
				"z": -1.7253073728,
				"element": "H" 
			},
			{
				"x": 3.3114924593,
				"y": -1.8871862398,
				"z": -2.9133696859,
				"element": "H" 
			},
			{
				"x": 4.6962058704,
				"y": -0.240046661,
				"z": 0.7922865793,
				"element": "H" 
			},
			{
				"x": 2.7891075605,
				"y": -1.320429351,
				"z": 1.9920724228,
				"element": "H" 
			}
		],
		 "valence_orbital": [ 
			{
				"type": "occ",
				"energy": -0.29447,
				"method": "rhf"
			},
			{
				"type": "occ",
				"energy": -0.27988,
				"method": "rhf"
			},
			{
				"type": "occ",
				"energy": -0.27158,
				"method": "rhf"
			},
			{
				"type": "occ",
				"energy": -0.25956,
				"method": "rhf"
			},
			{
				"type": "occ",
				"energy": -0.25906,
				"method": "rhf"
			},
			{
				"type": "unocc",
				"energy": -0.03191,
				"method": "rhf"
			},
			{
				"type": "unocc",
				"energy": -0.03102,
				"method": "rhf"
			},
			{
				"type": "unocc",
				"energy": -0.01276,
				"method": "rhf"
			},
			{
				"type": "unocc",
				"energy": 0.00547,
				"method": "rhf"
			},
			{
				"type": "unocc",
				"energy": 0.03443,
				"method": "rhf"
			}
		],
		"cosmo_sigma_profile": { 
			"-0.025": 0.0,
			"-0.024": 0.0,
			"-0.023": 0.0,
			"-0.022": 0.0,
			"-0.021": 0.133906279364,
			"-0.02": 1.05257075845,
			"-0.019": 1.42203563056,
			"-0.018": 1.20819118564,
			"-0.017": 1.08836770673,
			"-0.016": 1.00919408076,
			"-0.015": 0.995600264016,
			"-0.014": 0.947411772567,
			"-0.013": 1.4536003042,
			"-0.012": 1.79111460224,
			"-0.011": 1.35304611505,
			"-0.01": 2.4726427004,
			"-0.009": 7.97900454261,
			"-0.008": 13.5864215355,
			"-0.007": 17.8824844124,
			"-0.006": 17.4534421005,
			"-0.005": 17.0751305311,
			"-0.004": 15.8061604467,
			"-0.003": 14.8334042602,
			"-0.002": 14.6547360816,
			"-0.001": 13.5372119103,
			"0.0": 18.8347755608,
			"0.001": 20.0358914056,
			"0.002": 19.4499501798,
			"0.003": 18.1027837517,
			"0.004": 18.0130883146,
			"0.005": 9.19051324295,
			"0.006": 6.034218255,
			"0.007": 6.80079921331,
			"0.008": 7.70589255626,
			"0.009": 10.1006552335,
			"0.01": 11.1211402087,
			"0.011": 12.1044687045,
			"0.012": 5.89728104141,
			"0.013": 4.55927494289,
			"0.014": 1.20473198194,
			"0.015": 0.000902952061292,
			"0.016": 0.0,
			"0.017": 0.0,
			"0.018": 0.0,
			"0.019": 0.0,
			"0.02": 0.0,
			"0.021": 0.0,
			"0.022": 0.0,
			"0.023": 0.0,
			"0.024": 0.0,
			"0.025": 0.0
		}
	}
}
