{
	 "smiles": "CC(=N)NP(=S)(OC1=CC=C(Cl)C=C1)OC1=CC=C(Cl)C=C1", 
	 "Tm": 378.15, 
	 "num_atms": 35, 
	 "gaussian": { 
		 "optdone": 1, 
		 "sigma_profile": "yes", 
		 "theory": "DFT", 
		 "functional": "B3LYP", 
		 "basiset": "6-31G**", 
		 "properties": { 
			 "R2extent": 12236.287, 
			 "electric_dipole_moment_norm": 5.50852486788, 
			 "electric_quadrupole_moment_norm": 30.9711991739, 
			 "total_energy": -2461.25331882, 
			 "HOMO_LUMO_gap": 0.20836, 
			 "cosmo_polarized_energy": -19.58, 
			 "cosmo_cavitation_energy": 47.1, 
			 "cosmo_dispersion_energy": -32.28, 
			 "cosmo_repulsion_energy": 2.47, 
			 "cosmo_total_nonelectrostatic_energy": 17.28, 
			 "SMD_solvation_energy": 7.03 
		},
		"coords": [
			{
				"x": -1.2023458882,
				"y": 4.5482975363,
				"z": 0.5484210375,
				"element": "C" 
			},
			{
				"x": -0.9878697519,
				"y": 3.2225423107,
				"z": 1.2470299009,
				"element": "C" 
			},
			{
				"x": -0.5545477586,
				"y": 3.0362679526,
				"z": 2.4324961422,
				"element": "N" 
			},
			{
				"x": -1.313089254,
				"y": 2.1191712118,
				"z": 0.4488650292,
				"element": "N" 
			},
			{
				"x": -1.442840123,
				"y": 0.508425877,
				"z": 0.9780472315,
				"element": "P" 
			},
			{
				"x": -2.8159877863,
				"y": -0.0162317747,
				"z": 2.2163943694,
				"element": "S" 
			},
			{
				"x": 0.1058247697,
				"y": 0.1764193815,
				"z": 1.3665845495,
				"element": "O" 
			},
			{
				"x": 0.5047699988,
				"y": -0.5489214025,
				"z": 2.4946187634,
				"element": "C" 
			},
			{
				"x": 0.6200250825,
				"y": 0.1019979875,
				"z": 3.7197959481,
				"element": "C" 
			},
			{
				"x": 1.0947060928,
				"y": -0.6104066229,
				"z": 4.8203535074,
				"element": "C" 
			},
			{
				"x": 1.4451956045,
				"y": -1.9527879003,
				"z": 4.6709698376,
				"element": "C" 
			},
			{
				"x": 2.0498175612,
				"y": -2.8467584085,
				"z": 6.0595728223,
				"element": "Cl" 
			},
			{
				"x": 1.3273399224,
				"y": -2.6000772064,
				"z": 3.4412044817,
				"element": "C" 
			},
			{
				"x": 0.8489669363,
				"y": -1.888786551,
				"z": 2.3408429813,
				"element": "C" 
			},
			{
				"x": -1.6457209258,
				"y": -0.2178724779,
				"z": -0.4770110686,
				"element": "O" 
			},
			{
				"x": -0.9644945973,
				"y": 0.0223199245,
				"z": -1.6673709523,
				"element": "C" 
			},
			{
				"x": 0.403700676,
				"y": 0.2962637706,
				"z": -1.734650989,
				"element": "C" 
			},
			{
				"x": 1.0010231693,
				"y": 0.485646103,
				"z": -2.981434869,
				"element": "C" 
			},
			{
				"x": 0.2329861833,
				"y": 0.3916127407,
				"z": -4.1413789039,
				"element": "C" 
			},
			{
				"x": 0.9938326064,
				"y": 0.6309392422,
				"z": -5.7066757687,
				"element": "Cl" 
			},
			{
				"x": -1.1313092179,
				"y": 0.108539134,
				"z": -4.0756183798,
				"element": "C" 
			},
			{
				"x": -1.7306685979,
				"y": -0.0744956196,
				"z": -2.8309218297,
				"element": "C" 
			},
			{
				"x": -0.6402773603,
				"y": 4.5889709704,
				"z": -0.3910978565,
				"element": "H" 
			},
			{
				"x": -2.2628127085,
				"y": 4.6909460268,
				"z": 0.3108921667,
				"element": "H" 
			},
			{
				"x": -0.8772643603,
				"y": 5.3736274583,
				"z": 1.1840427634,
				"element": "H" 
			},
			{
				"x": -0.3509602222,
				"y": 3.9281010848,
				"z": 2.8809046984,
				"element": "H" 
			},
			{
				"x": -1.7723743979,
				"y": 2.3156157028,
				"z": -0.4310635831,
				"element": "H" 
			},
			{
				"x": 0.333379134,
				"y": 1.1459694062,
				"z": 3.7850822302,
				"element": "H" 
			},
			{
				"x": 1.1917592102,
				"y": -0.1283721766,
				"z": 5.7866727828,
				"element": "H" 
			},
			{
				"x": 1.6028684272,
				"y": -3.6441405301,
				"z": 3.3454675853,
				"element": "H" 
			},
			{
				"x": 0.7469679455,
				"y": -2.3656231549,
				"z": 1.3718725407,
				"element": "H" 
			},
			{
				"x": 0.9953454473,
				"y": 0.3580034463,
				"z": -0.8299421453,
				"element": "H" 
			},
			{
				"x": 2.0618651817,
				"y": 0.6997787233,
				"z": -3.0488681905,
				"element": "H" 
			},
			{
				"x": -1.7176441092,
				"y": 0.0322974169,
				"z": -4.9843979738,
				"element": "H" 
			},
			{
				"x": -2.7882668898,
				"y": -0.3008795825,
				"z": -2.7481988593,
				"element": "H" 
			}
		],
		 "valence_orbital": [ 
			{
				"type": "occ",
				"energy": -0.26539,
				"method": "rhf"
			},
			{
				"type": "occ",
				"energy": -0.25074,
				"method": "rhf"
			},
			{
				"type": "occ",
				"energy": -0.24465,
				"method": "rhf"
			},
			{
				"type": "occ",
				"energy": -0.24202,
				"method": "rhf"
			},
			{
				"type": "occ",
				"energy": -0.23915,
				"method": "rhf"
			},
			{
				"type": "unocc",
				"energy": -0.03079,
				"method": "rhf"
			},
			{
				"type": "unocc",
				"energy": -0.02542,
				"method": "rhf"
			},
			{
				"type": "unocc",
				"energy": -0.01573,
				"method": "rhf"
			},
			{
				"type": "unocc",
				"energy": -0.01378,
				"method": "rhf"
			},
			{
				"type": "unocc",
				"energy": -0.00012,
				"method": "rhf"
			}
		],
		"cosmo_sigma_profile": { 
			"-0.025": 0.0,
			"-0.024": 0.0,
			"-0.023": 0.0,
			"-0.022": 0.0,
			"-0.021": 0.0,
			"-0.02": 0.0,
			"-0.019": 0.0,
			"-0.018": 0.0,
			"-0.017": 0.0,
			"-0.016": 0.0568367940404,
			"-0.015": 0.709054510705,
			"-0.014": 1.06760871359,
			"-0.013": 1.50606420655,
			"-0.012": 1.37319119722,
			"-0.011": 2.01955632796,
			"-0.01": 3.14642193009,
			"-0.009": 3.32991920312,
			"-0.008": 8.03050468049,
			"-0.007": 16.2429483662,
			"-0.006": 20.3963948935,
			"-0.005": 19.3276297078,
			"-0.004": 19.0123844787,
			"-0.003": 19.318497276,
			"-0.002": 23.9054795347,
			"-0.001": 23.7489386875,
			"0.0": 21.845989805,
			"0.001": 32.3992969124,
			"0.002": 43.276105512,
			"0.003": 33.4277706166,
			"0.004": 27.3279204618,
			"0.005": 19.209958288,
			"0.006": 9.66741219271,
			"0.007": 11.2004865029,
			"0.008": 13.116917038,
			"0.009": 5.88493858038,
			"0.01": 1.95650354568,
			"0.011": 1.04166182936,
			"0.012": 0.0,
			"0.013": 0.0,
			"0.014": 0.0,
			"0.015": 0.0,
			"0.016": 0.0,
			"0.017": 0.0,
			"0.018": 0.0,
			"0.019": 0.0,
			"0.02": 0.0,
			"0.021": 0.0,
			"0.022": 0.0,
			"0.023": 0.0,
			"0.024": 0.0,
			"0.025": 0.0
		}
	}
}
