{
	 "smiles": "CC(CCOC1=CC=CC=C1)C(O)=O", 
	 "Tm": 350.15, 
	 "num_atms": 28, 
	 "gaussian": { 
		 "optdone": 1, 
		 "sigma_profile": "yes", 
		 "theory": "DFT", 
		 "functional": "B3LYP", 
		 "basiset": "6-31G**", 
		 "properties": { 
			 "R2extent": 4498.3473, 
			 "electric_dipole_moment_norm": 3.51387914562, 
			 "electric_quadrupole_moment_norm": 13.2589782276, 
			 "total_energy": -653.283176692, 
			 "HOMO_LUMO_gap": 0.21655, 
			 "cosmo_polarized_energy": -16.38, 
			 "cosmo_cavitation_energy": 30.93, 
			 "cosmo_dispersion_energy": -21.83, 
			 "cosmo_repulsion_energy": 1.72, 
			 "cosmo_total_nonelectrostatic_energy": 10.81, 
			 "SMD_solvation_energy": 6.27 
		},
		"coords": [
			{
				"x": 0.0395015213,
				"y": 3.4262102176,
				"z": 2.6952978199,
				"element": "C" 
			},
			{
				"x": -0.5202993009,
				"y": 3.1997197141,
				"z": 1.2870633258,
				"element": "C" 
			},
			{
				"x": -1.6019737206,
				"y": 2.0901013152,
				"z": 1.2261395681,
				"element": "C" 
			},
			{
				"x": -1.0839119741,
				"y": 0.6842141772,
				"z": 1.5563889587,
				"element": "C" 
			},
			{
				"x": -2.1050955046,
				"y": -0.2966929949,
				"z": 1.3962457703,
				"element": "O" 
			},
			{
				"x": -2.4012917841,
				"y": -0.7715590662,
				"z": 0.1448252102,
				"element": "C" 
			},
			{
				"x": -1.7274593991,
				"y": -0.4219257678,
				"z": -1.0328980718,
				"element": "C" 
			},
			{
				"x": -2.1211666237,
				"y": -0.9983613569,
				"z": -2.2456048329,
				"element": "C" 
			},
			{
				"x": -3.1728010396,
				"y": -1.9099066377,
				"z": -2.3011875061,
				"element": "C" 
			},
			{
				"x": -3.8413390679,
				"y": -2.2504479344,
				"z": -1.1202945718,
				"element": "C" 
			},
			{
				"x": -3.4625231192,
				"y": -1.6878445491,
				"z": 0.093557725,
				"element": "C" 
			},
			{
				"x": 0.6134304225,
				"y": 2.9075344419,
				"z": 0.2979833353,
				"element": "C" 
			},
			{
				"x": 0.2503189354,
				"y": 2.8477537934,
				"z": -1.0169732012,
				"element": "O" 
			},
			{
				"x": 1.7617026592,
				"y": 2.7121288529,
				"z": 0.6067267797,
				"element": "O" 
			},
			{
				"x": 0.607669841,
				"y": 2.5601147632,
				"z": 3.042136895,
				"element": "H" 
			},
			{
				"x": 0.720011608,
				"y": 4.2808579674,
				"z": 2.7080717364,
				"element": "H" 
			},
			{
				"x": -0.7743093455,
				"y": 3.6203490484,
				"z": 3.4006158053,
				"element": "H" 
			},
			{
				"x": -1.0016593035,
				"y": 4.1298101184,
				"z": 0.949813928,
				"element": "H" 
			},
			{
				"x": -2.0655410666,
				"y": 2.0636495197,
				"z": 0.2327763944,
				"element": "H" 
			},
			{
				"x": -2.4059815337,
				"y": 2.3416807396,
				"z": 1.9259990017,
				"element": "H" 
			},
			{
				"x": -0.1994999838,
				"y": 0.4268193862,
				"z": 0.960385711,
				"element": "H" 
			},
			{
				"x": -0.7959076531,
				"y": 0.6181854083,
				"z": 2.6083349581,
				"element": "H" 
			},
			{
				"x": -0.9051691203,
				"y": 0.2841500656,
				"z": -1.0280372594,
				"element": "H" 
			},
			{
				"x": -1.5901702396,
				"y": -0.7238076467,
				"z": -3.1529134661,
				"element": "H" 
			},
			{
				"x": -3.4694354049,
				"y": -2.3502635623,
				"z": -3.2479550847,
				"element": "H" 
			},
			{
				"x": -4.6630723322,
				"y": -2.9607478293,
				"z": -1.1445055836,
				"element": "H" 
			},
			{
				"x": -3.967689669,
				"y": -1.9433875568,
				"z": 1.0193819858,
				"element": "H" 
			},
			{
				"x": -0.6907378015,
				"y": 3.0505653731,
				"z": -1.1174753309,
				"element": "H" 
			}
		],
		 "valence_orbital": [ 
			{
				"type": "occ",
				"energy": -0.31998,
				"method": "rhf"
			},
			{
				"type": "occ",
				"energy": -0.31619,
				"method": "rhf"
			},
			{
				"type": "occ",
				"energy": -0.27596,
				"method": "rhf"
			},
			{
				"type": "occ",
				"energy": -0.25088,
				"method": "rhf"
			},
			{
				"type": "occ",
				"energy": -0.2196,
				"method": "rhf"
			},
			{
				"type": "unocc",
				"energy": -0.00305,
				"method": "rhf"
			},
			{
				"type": "unocc",
				"energy": 0.00099,
				"method": "rhf"
			},
			{
				"type": "unocc",
				"energy": 0.0122,
				"method": "rhf"
			},
			{
				"type": "unocc",
				"energy": 0.03752,
				"method": "rhf"
			},
			{
				"type": "unocc",
				"energy": 0.08509,
				"method": "rhf"
			}
		],
		"cosmo_sigma_profile": { 
			"-0.025": 0.0,
			"-0.024": 0.0,
			"-0.023": 0.0,
			"-0.022": 0.0,
			"-0.021": 0.0,
			"-0.02": 0.0,
			"-0.019": 0.0866056045508,
			"-0.018": 0.970163048946,
			"-0.017": 1.00218226466,
			"-0.016": 1.09348759213,
			"-0.015": 0.848619891944,
			"-0.014": 1.0304463399,
			"-0.013": 0.898757826291,
			"-0.012": 1.05563042565,
			"-0.011": 1.98791449106,
			"-0.01": 1.042104595,
			"-0.009": 1.68054197559,
			"-0.008": 1.86942594534,
			"-0.007": 3.00822290177,
			"-0.006": 7.88122763965,
			"-0.005": 18.1186261023,
			"-0.004": 24.8946450778,
			"-0.003": 26.0488874047,
			"-0.002": 19.0949086437,
			"-0.001": 15.7698359839,
			"0.0": 13.6325603872,
			"0.001": 12.4061313596,
			"0.002": 10.5896698657,
			"0.003": 10.8696291306,
			"0.004": 11.6777183158,
			"0.005": 13.2067741136,
			"0.006": 11.7899156988,
			"0.007": 4.64977720937,
			"0.008": 3.77514670246,
			"0.009": 4.35450538129,
			"0.01": 5.55449410555,
			"0.011": 5.84436464474,
			"0.012": 5.2106612625,
			"0.013": 1.83603243499,
			"0.014": 0.034266665878,
			"0.015": 0.0,
			"0.016": 0.0,
			"0.017": 0.0,
			"0.018": 0.0,
			"0.019": 0.0,
			"0.02": 0.0,
			"0.021": 0.0,
			"0.022": 0.0,
			"0.023": 0.0,
			"0.024": 0.0,
			"0.025": 0.0
		}
	}
}
