{
	 "smiles": "OC(=O)CN1C(=O)SC2=C1C(Cl)=CC=C2", 
	 "Tm": 466.15, 
	 "num_atms": 21, 
	 "gaussian": { 
		 "optdone": 1, 
		 "sigma_profile": "yes", 
		 "theory": "DFT", 
		 "functional": "B3LYP", 
		 "basiset": "6-31G**", 
		 "properties": { 
			 "R2extent": 3599.6724, 
			 "electric_dipole_moment_norm": 6.14955434645, 
			 "electric_quadrupole_moment_norm": 13.2196439926, 
			 "total_energy": -1485.39422887, 
			 "HOMO_LUMO_gap": 0.20451, 
			 "cosmo_polarized_energy": -16.77, 
			 "cosmo_cavitation_energy": 28.79, 
			 "cosmo_dispersion_energy": -21.38, 
			 "cosmo_repulsion_energy": 1.59, 
			 "cosmo_total_nonelectrostatic_energy": 9.01, 
			 "SMD_solvation_energy": 6.28 
		},
		"coords": [
			{
				"x": 1.1988441059,
				"y": 0.936698259,
				"z": 2.8802950188,
				"element": "O" 
			},
			{
				"x": 1.8369665597,
				"y": -0.2291858462,
				"z": 2.6554725743,
				"element": "C" 
			},
			{
				"x": 2.3364908121,
				"y": -0.8673758755,
				"z": 3.5452726834,
				"element": "O" 
			},
			{
				"x": 1.9509854439,
				"y": -0.6874203491,
				"z": 1.1962867961,
				"element": "C" 
			},
			{
				"x": 1.0733462837,
				"y": -0.0061611899,
				"z": 0.2365270737,
				"element": "N" 
			},
			{
				"x": 1.6922662012,
				"y": 0.9106711554,
				"z": -0.6292077526,
				"element": "C" 
			},
			{
				"x": 2.8334793641,
				"y": 1.3007031878,
				"z": -0.5329178084,
				"element": "O" 
			},
			{
				"x": 0.532979062,
				"y": 1.4143930807,
				"z": -1.9053322855,
				"element": "S" 
			},
			{
				"x": -0.7015408983,
				"y": 0.3380843213,
				"z": -1.256759335,
				"element": "C" 
			},
			{
				"x": -0.2508867925,
				"y": -0.3481749876,
				"z": -0.1066997351,
				"element": "C" 
			},
			{
				"x": -1.1519334982,
				"y": -1.2146899221,
				"z": 0.5329100754,
				"element": "C" 
			},
			{
				"x": -0.7589893853,
				"y": -2.077066492,
				"z": 2.0099090415,
				"element": "Cl" 
			},
			{
				"x": -2.4348594858,
				"y": -1.3969138392,
				"z": 0.0107189422,
				"element": "C" 
			},
			{
				"x": -2.8474309806,
				"y": -0.7175229511,
				"z": -1.1340263668,
				"element": "C" 
			},
			{
				"x": -1.9809730705,
				"y": 0.1660068742,
				"z": -1.7741100507,
				"element": "C" 
			},
			{
				"x": 0.8753402746,
				"y": 1.3004871941,
				"z": 2.041823095,
				"element": "H" 
			},
			{
				"x": 2.9736850507,
				"y": -0.4697230307,
				"z": 0.8763603626,
				"element": "H" 
			},
			{
				"x": 1.7999890139,
				"y": -1.7645466289,
				"z": 1.1645020774,
				"element": "H" 
			},
			{
				"x": -3.1078280137,
				"y": -2.0751980407,
				"z": 0.5225008742,
				"element": "H" 
			},
			{
				"x": -3.8491213686,
				"y": -0.8743474429,
				"z": -1.5199482434,
				"element": "H" 
			},
			{
				"x": -2.2913086784,
				"y": 0.7100825233,
				"z": -2.6597770369,
				"element": "H" 
			}
		],
		 "valence_orbital": [ 
			{
				"type": "occ",
				"energy": -0.32056,
				"method": "rhf"
			},
			{
				"type": "occ",
				"energy": -0.30291,
				"method": "rhf"
			},
			{
				"type": "occ",
				"energy": -0.2813,
				"method": "rhf"
			},
			{
				"type": "occ",
				"energy": -0.25934,
				"method": "rhf"
			},
			{
				"type": "occ",
				"energy": -0.24836,
				"method": "rhf"
			},
			{
				"type": "unocc",
				"energy": -0.04385,
				"method": "rhf"
			},
			{
				"type": "unocc",
				"energy": -0.03724,
				"method": "rhf"
			},
			{
				"type": "unocc",
				"energy": -0.02474,
				"method": "rhf"
			},
			{
				"type": "unocc",
				"energy": -0.00612,
				"method": "rhf"
			},
			{
				"type": "unocc",
				"energy": 0.00545,
				"method": "rhf"
			}
		],
		"cosmo_sigma_profile": { 
			"-0.025": 0.0,
			"-0.024": 0.0,
			"-0.023": 0.0,
			"-0.022": 0.0,
			"-0.021": 0.0,
			"-0.02": 0.0,
			"-0.019": 0.0,
			"-0.018": 0.00865637980394,
			"-0.017": 0.910570931132,
			"-0.016": 0.876664130609,
			"-0.015": 1.03038807095,
			"-0.014": 0.856471034273,
			"-0.013": 0.889684554164,
			"-0.012": 1.29290324843,
			"-0.011": 1.18383297097,
			"-0.01": 1.00772058203,
			"-0.009": 2.71939641485,
			"-0.008": 8.86859871018,
			"-0.007": 11.163133827,
			"-0.006": 14.572373583,
			"-0.005": 12.0376962606,
			"-0.004": 10.2404351395,
			"-0.003": 11.2519097645,
			"-0.002": 11.4655340668,
			"-0.001": 14.8933006323,
			"0.0": 20.0972854825,
			"0.001": 22.2512782438,
			"0.002": 20.7389552744,
			"0.003": 17.1628680841,
			"0.004": 7.70757620356,
			"0.005": 2.65355002736,
			"0.006": 4.15787668537,
			"0.007": 3.11473651519,
			"0.008": 5.35092735203,
			"0.009": 5.44668395725,
			"0.01": 8.15942743776,
			"0.011": 8.66542660268,
			"0.012": 4.5733930998,
			"0.013": 0.582622253159,
			"0.014": 0.0,
			"0.015": 0.0,
			"0.016": 0.0,
			"0.017": 0.0,
			"0.018": 0.0,
			"0.019": 0.0,
			"0.02": 0.0,
			"0.021": 0.0,
			"0.022": 0.0,
			"0.023": 0.0,
			"0.024": 0.0,
			"0.025": 0.0
		}
	}
}
