{
	 "smiles": "CCNC(=O)NC1(CCCC1)C(O)=O", 
	 "Tm": 416.15, 
	 "num_atms": 30, 
	 "gaussian": { 
		 "optdone": 1, 
		 "sigma_profile": "yes", 
		 "theory": "DFT", 
		 "functional": "B3LYP", 
		 "basiset": "6-31G**", 
		 "properties": { 
			 "R2extent": 3866.6065, 
			 "electric_dipole_moment_norm": 5.03936324747, 
			 "electric_quadrupole_moment_norm": 14.0061676582, 
			 "total_energy": -687.817920681, 
			 "HOMO_LUMO_gap": 0.26646, 
			 "cosmo_polarized_energy": -19.4, 
			 "cosmo_cavitation_energy": 31.46, 
			 "cosmo_dispersion_energy": -22.75, 
			 "cosmo_repulsion_energy": 1.83, 
			 "cosmo_total_nonelectrostatic_energy": 10.54, 
			 "SMD_solvation_energy": 6.07 
		},
		"coords": [
			{
				"x": -0.4922372434,
				"y": -4.0654798395,
				"z": -0.2072778693,
				"element": "C" 
			},
			{
				"x": 0.6227712097,
				"y": -3.0696025639,
				"z": -0.522353266,
				"element": "C" 
			},
			{
				"x": 0.4020308267,
				"y": -1.7847309413,
				"z": 0.1341482935,
				"element": "N" 
			},
			{
				"x": 0.689432381,
				"y": -0.5976910661,
				"z": -0.4993486444,
				"element": "C" 
			},
			{
				"x": 1.0437045248,
				"y": -0.5228193522,
				"z": -1.6682318394,
				"element": "O" 
			},
			{
				"x": 0.5337260787,
				"y": 0.521228529,
				"z": 0.3449965905,
				"element": "N" 
			},
			{
				"x": 0.5324791472,
				"y": 1.8966685642,
				"z": -0.2094589955,
				"element": "C" 
			},
			{
				"x": 1.8310328292,
				"y": 2.2261696623,
				"z": -1.0456090867,
				"element": "C" 
			},
			{
				"x": 1.3322327471,
				"y": 2.6231903637,
				"z": -2.4476762368,
				"element": "C" 
			},
			{
				"x": -0.0795198813,
				"y": 3.1808933416,
				"z": -2.202430295,
				"element": "C" 
			},
			{
				"x": -0.6557990714,
				"y": 2.2178956894,
				"z": -1.1534503745,
				"element": "C" 
			},
			{
				"x": 0.544630314,
				"y": 2.8433391339,
				"z": 1.0080010514,
				"element": "C" 
			},
			{
				"x": 1.2841057595,
				"y": 2.404337427,
				"z": 2.0542481093,
				"element": "O" 
			},
			{
				"x": -0.0038918301,
				"y": 3.917819225,
				"z": 1.035140728,
				"element": "O" 
			},
			{
				"x": -0.5615623171,
				"y": -4.2654707788,
				"z": 0.8684013671,
				"element": "H" 
			},
			{
				"x": -0.3000461731,
				"y": -5.0199151437,
				"z": -0.7072761137,
				"element": "H" 
			},
			{
				"x": -1.4612886978,
				"y": -3.6866889247,
				"z": -0.544992128,
				"element": "H" 
			},
			{
				"x": 1.5974196054,
				"y": -3.4864284565,
				"z": -0.2305332437,
				"element": "H" 
			},
			{
				"x": 0.6735127813,
				"y": -2.8592890843,
				"z": -1.5921763916,
				"element": "H" 
			},
			{
				"x": 0.3719390376,
				"y": -1.783447574,
				"z": 1.1442178237,
				"element": "H" 
			},
			{
				"x": -0.2268243077,
				"y": 0.3846844782,
				"z": 1.0049682214,
				"element": "H" 
			},
			{
				"x": 2.5102675042,
				"y": 1.3741118248,
				"z": -1.0646728152,
				"element": "H" 
			},
			{
				"x": 2.3595781557,
				"y": 3.0648785735,
				"z": -0.5797643347,
				"element": "H" 
			},
			{
				"x": 1.2747574052,
				"y": 1.7266995706,
				"z": -3.0717889477,
				"element": "H" 
			},
			{
				"x": 1.999371561,
				"y": 3.3398095943,
				"z": -2.9367949452,
				"element": "H" 
			},
			{
				"x": -0.0271936209,
				"y": 4.1912864938,
				"z": -1.7822937459,
				"element": "H" 
			},
			{
				"x": -0.6879989166,
				"y": 3.2250875889,
				"z": -3.1112128876,
				"element": "H" 
			},
			{
				"x": -0.9649140837,
				"y": 1.2880556902,
				"z": -1.6402299138,
				"element": "H" 
			},
			{
				"x": -1.5056307573,
				"y": 2.6329394614,
				"z": -0.6060929062,
				"element": "H" 
			},
			{
				"x": 1.5999150324,
				"y": 1.5108685133,
				"z": 1.825742796,
				"element": "H" 
			}
		],
		 "valence_orbital": [ 
			{
				"type": "occ",
				"energy": -0.30821,
				"method": "rhf"
			},
			{
				"type": "occ",
				"energy": -0.2846,
				"method": "rhf"
			},
			{
				"type": "occ",
				"energy": -0.27432,
				"method": "rhf"
			},
			{
				"type": "occ",
				"energy": -0.26196,
				"method": "rhf"
			},
			{
				"type": "occ",
				"energy": -0.25902,
				"method": "rhf"
			},
			{
				"type": "unocc",
				"energy": 0.00744,
				"method": "rhf"
			},
			{
				"type": "unocc",
				"energy": 0.03371,
				"method": "rhf"
			},
			{
				"type": "unocc",
				"energy": 0.05044,
				"method": "rhf"
			},
			{
				"type": "unocc",
				"energy": 0.08519,
				"method": "rhf"
			},
			{
				"type": "unocc",
				"energy": 0.097,
				"method": "rhf"
			}
		],
		"cosmo_sigma_profile": { 
			"-0.025": 0.0,
			"-0.024": 0.0,
			"-0.023": 0.0,
			"-0.022": 0.0,
			"-0.021": 0.0,
			"-0.02": 0.0,
			"-0.019": 0.0,
			"-0.018": 0.0,
			"-0.017": 0.0,
			"-0.016": 0.0,
			"-0.015": 1.88580972873,
			"-0.014": 3.8929664087,
			"-0.013": 2.79833629,
			"-0.012": 2.2331040434,
			"-0.011": 3.60331454625,
			"-0.01": 3.11554942021,
			"-0.009": 2.87618460941,
			"-0.008": 3.1229089081,
			"-0.007": 2.838217541,
			"-0.006": 3.04038516009,
			"-0.005": 4.59320157357,
			"-0.004": 10.2903100744,
			"-0.003": 24.2795550743,
			"-0.002": 27.8758921838,
			"-0.001": 28.6793150191,
			"0.0": 30.2999468118,
			"0.001": 22.3798859007,
			"0.002": 7.07308333713,
			"0.003": 6.09407908722,
			"0.004": 4.91437367768,
			"0.005": 4.85310753332,
			"0.006": 4.9429247263,
			"0.007": 5.21066656425,
			"0.008": 4.32333454709,
			"0.009": 4.83520891329,
			"0.01": 6.77151503018,
			"0.011": 5.8199638223,
			"0.012": 6.69715167633,
			"0.013": 3.59345474408,
			"0.014": 1.74060492879,
			"0.015": 0.0278207165645,
			"0.016": 0.0,
			"0.017": 0.0,
			"0.018": 0.0,
			"0.019": 0.0,
			"0.02": 0.0,
			"0.021": 0.0,
			"0.022": 0.0,
			"0.023": 0.0,
			"0.024": 0.0,
			"0.025": 0.0
		}
	}
}
