{
	 "smiles": "FC1=C(CBr)C=CC=C1C(F)(F)F", 
	 "Tm": 321.15, 
	 "num_atms": 18, 
	 "gaussian": { 
		 "optdone": 1, 
		 "sigma_profile": "yes", 
		 "theory": "DFT", 
		 "functional": "B3LYP", 
		 "basiset": "6-31G**", 
		 "properties": { 
			 "R2extent": 4326.149, 
			 "electric_dipole_moment_norm": 3.53443781951, 
			 "electric_quadrupole_moment_norm": 12.5148105251, 
			 "total_energy": -3278.63379705, 
			 "HOMO_LUMO_gap": 0.2087, 
			 "cosmo_polarized_energy": -6.76, 
			 "cosmo_cavitation_energy": 26.51, 
			 "cosmo_dispersion_energy": -18.91, 
			 "cosmo_repulsion_energy": 1.44, 
			 "cosmo_total_nonelectrostatic_energy": 9.03, 
			 "SMD_solvation_energy": 4.8 
		},
		"coords": [
			{
				"x": 0.1131485518,
				"y": -0.4432460376,
				"z": 0.823904905,
				"element": "F" 
			},
			{
				"x": 0.6032415191,
				"y": 0.7986325474,
				"z": 0.6535039284,
				"element": "C" 
			},
			{
				"x": 0.830668313,
				"y": 1.2552089678,
				"z": -0.646048777,
				"element": "C" 
			},
			{
				"x": 0.534684293,
				"y": 0.3794157835,
				"z": -1.8168193088,
				"element": "C" 
			},
			{
				"x": -1.3293672966,
				"y": 0.6424409074,
				"z": -2.4970472341,
				"element": "Br" 
			},
			{
				"x": 1.344815813,
				"y": 2.5507643836,
				"z": -0.7958910678,
				"element": "C" 
			},
			{
				"x": 1.6223934086,
				"y": 3.347805589,
				"z": 0.3118541456,
				"element": "C" 
			},
			{
				"x": 1.3879306667,
				"y": 2.8609089826,
				"z": 1.5983351197,
				"element": "C" 
			},
			{
				"x": 0.8758155731,
				"y": 1.5749424949,
				"z": 1.7803029001,
				"element": "C" 
			},
			{
				"x": 0.6187650559,
				"y": 1.0152597145,
				"z": 3.1554452881,
				"element": "C" 
			},
			{
				"x": 1.3463384094,
				"y": -0.098626675,
				"z": 3.3822789017,
				"element": "F" 
			},
			{
				"x": 0.9399245775,
				"y": 1.9086258307,
				"z": 4.116870816,
				"element": "F" 
			},
			{
				"x": -0.6776212237,
				"y": 0.6870166922,
				"z": 3.3268780227,
				"element": "F" 
			},
			{
				"x": 1.1713670314,
				"y": 0.6056329468,
				"z": -2.6694290709,
				"element": "H" 
			},
			{
				"x": 0.5884116997,
				"y": -0.6776704519,
				"z": -1.5702729094,
				"element": "H" 
			},
			{
				"x": 1.5222970699,
				"y": 2.9299064974,
				"z": -1.7984107893,
				"element": "H" 
			},
			{
				"x": 2.0215461475,
				"y": 4.3474036804,
				"z": 0.1762664232,
				"element": "H" 
			},
			{
				"x": 1.6008403905,
				"y": 3.4701781464,
				"z": 2.4687787067,
				"element": "H" 
			}
		],
		 "valence_orbital": [ 
			{
				"type": "occ",
				"energy": -0.36605,
				"method": "rhf"
			},
			{
				"type": "occ",
				"energy": -0.28791,
				"method": "rhf"
			},
			{
				"type": "occ",
				"energy": -0.27907,
				"method": "rhf"
			},
			{
				"type": "occ",
				"energy": -0.27541,
				"method": "rhf"
			},
			{
				"type": "occ",
				"energy": -0.26519,
				"method": "rhf"
			},
			{
				"type": "unocc",
				"energy": -0.05649,
				"method": "rhf"
			},
			{
				"type": "unocc",
				"energy": -0.0339,
				"method": "rhf"
			},
			{
				"type": "unocc",
				"energy": 0.0123,
				"method": "rhf"
			},
			{
				"type": "unocc",
				"energy": 0.07511,
				"method": "rhf"
			},
			{
				"type": "unocc",
				"energy": 0.09067,
				"method": "rhf"
			}
		],
		"cosmo_sigma_profile": { 
			"-0.025": 0.0,
			"-0.024": 0.0,
			"-0.023": 0.0,
			"-0.022": 0.0,
			"-0.021": 0.0,
			"-0.02": 0.0,
			"-0.019": 0.0,
			"-0.018": 0.0,
			"-0.017": 0.0,
			"-0.016": 0.0,
			"-0.015": 0.0,
			"-0.014": 0.0,
			"-0.013": 0.0,
			"-0.012": 0.0,
			"-0.011": 0.0,
			"-0.01": 0.0,
			"-0.009": 1.22820794572,
			"-0.008": 6.28382521765,
			"-0.007": 9.43794506316,
			"-0.006": 9.81313798262,
			"-0.005": 10.4321416072,
			"-0.004": 8.42536831053,
			"-0.003": 10.1404116889,
			"-0.002": 11.2278571885,
			"-0.001": 13.6979556914,
			"0.0": 17.829644556,
			"0.001": 19.497186287,
			"0.002": 33.8097051433,
			"0.003": 38.3791085419,
			"0.004": 7.37189720127,
			"0.005": 8.0645843343,
			"0.006": 10.0945063893,
			"0.007": 0.595608082167,
			"0.008": 0.0,
			"0.009": 0.0,
			"0.01": 0.0,
			"0.011": 0.0,
			"0.012": 0.0,
			"0.013": 0.0,
			"0.014": 0.0,
			"0.015": 0.0,
			"0.016": 0.0,
			"0.017": 0.0,
			"0.018": 0.0,
			"0.019": 0.0,
			"0.02": 0.0,
			"0.021": 0.0,
			"0.022": 0.0,
			"0.023": 0.0,
			"0.024": 0.0,
			"0.025": 0.0
		}
	}
}
