{
	 "smiles": "CC(=O)NC1=C(Cl)C=CC(N)=C1", 
	 "Tm": 474.15, 
	 "num_atms": 21, 
	 "gaussian": { 
		 "optdone": 1, 
		 "sigma_profile": "yes", 
		 "theory": "DFT", 
		 "functional": "B3LYP", 
		 "basiset": "6-31G**", 
		 "properties": { 
			 "R2extent": 2784.4227, 
			 "electric_dipole_moment_norm": 5.6958597639, 
			 "electric_quadrupole_moment_norm": 10.2116531806, 
			 "total_energy": -955.213991387, 
			 "HOMO_LUMO_gap": 0.19081, 
			 "cosmo_polarized_energy": -15.33, 
			 "cosmo_cavitation_energy": 26.71, 
			 "cosmo_dispersion_energy": -19.55, 
			 "cosmo_repulsion_energy": 1.58, 
			 "cosmo_total_nonelectrostatic_energy": 8.73, 
			 "SMD_solvation_energy": 5.13 
		},
		"coords": [
			{
				"x": 1.6518743011,
				"y": 2.5754375306,
				"z": -0.9984577153,
				"element": "C" 
			},
			{
				"x": 2.4493343823,
				"y": 1.6609541469,
				"z": -0.0878315627,
				"element": "C" 
			},
			{
				"x": 3.637697004,
				"y": 1.8448389545,
				"z": 0.1262508356,
				"element": "O" 
			},
			{
				"x": 1.8082059059,
				"y": 0.599436018,
				"z": 0.537661407,
				"element": "N" 
			},
			{
				"x": 0.4776632894,
				"y": 0.1528293903,
				"z": 0.5043577785,
				"element": "C" 
			},
			{
				"x": -0.119761472,
				"y": -0.3441086559,
				"z": 1.6798270577,
				"element": "C" 
			},
			{
				"x": 0.7849827847,
				"y": -0.367300892,
				"z": 3.1909339306,
				"element": "Cl" 
			},
			{
				"x": -1.4265840379,
				"y": -0.8220076827,
				"z": 1.663342162,
				"element": "C" 
			},
			{
				"x": -2.1717315796,
				"y": -0.8068368494,
				"z": 0.4897607574,
				"element": "C" 
			},
			{
				"x": -1.5981128076,
				"y": -0.3303543346,
				"z": -0.7010924242,
				"element": "C" 
			},
			{
				"x": -2.3017731384,
				"y": -0.3844415493,
				"z": -1.9016650372,
				"element": "N" 
			},
			{
				"x": -0.2711374317,
				"y": 0.1260698474,
				"z": -0.6793563266,
				"element": "C" 
			},
			{
				"x": 1.6577002292,
				"y": 2.1897603817,
				"z": -2.0236526057,
				"element": "H" 
			},
			{
				"x": 0.6134098415,
				"y": 2.6957353283,
				"z": -0.6831185628,
				"element": "H" 
			},
			{
				"x": 2.158985646,
				"y": 3.5409222547,
				"z": -1.0041342804,
				"element": "H" 
			},
			{
				"x": 2.4013098865,
				"y": 0.1778209795,
				"z": 1.2433122769,
				"element": "H" 
			},
			{
				"x": -1.86447489,
				"y": -1.1959617395,
				"z": 2.5823972784,
				"element": "H" 
			},
			{
				"x": -3.1924522113,
				"y": -1.1780731332,
				"z": 0.4920822359,
				"element": "H" 
			},
			{
				"x": -2.0042146088,
				"y": 0.2637839068,
				"z": -2.616816884,
				"element": "H" 
			},
			{
				"x": -3.3073113662,
				"y": -0.4260544374,
				"z": -1.8158526711,
				"element": "H" 
			},
			{
				"x": 0.1979902729,
				"y": 0.4297505354,
				"z": -1.60784765,
				"element": "H" 
			}
		],
		 "valence_orbital": [ 
			{
				"type": "occ",
				"energy": -0.31341,
				"method": "rhf"
			},
			{
				"type": "occ",
				"energy": -0.28994,
				"method": "rhf"
			},
			{
				"type": "occ",
				"energy": -0.25373,
				"method": "rhf"
			},
			{
				"type": "occ",
				"energy": -0.23633,
				"method": "rhf"
			},
			{
				"type": "occ",
				"energy": -0.2109,
				"method": "rhf"
			},
			{
				"type": "unocc",
				"energy": -0.02009,
				"method": "rhf"
			},
			{
				"type": "unocc",
				"energy": -0.00502,
				"method": "rhf"
			},
			{
				"type": "unocc",
				"energy": 0.02543,
				"method": "rhf"
			},
			{
				"type": "unocc",
				"energy": 0.03388,
				"method": "rhf"
			},
			{
				"type": "unocc",
				"energy": 0.07137,
				"method": "rhf"
			}
		],
		"cosmo_sigma_profile": { 
			"-0.025": 0.0,
			"-0.024": 0.0,
			"-0.023": 0.0,
			"-0.022": 0.0,
			"-0.021": 0.0,
			"-0.02": 0.0,
			"-0.019": 0.0,
			"-0.018": 0.0,
			"-0.017": 0.0,
			"-0.016": 0.0,
			"-0.015": 0.0,
			"-0.014": 0.0,
			"-0.013": 1.04439117449,
			"-0.012": 3.33440048611,
			"-0.011": 3.34445906769,
			"-0.01": 4.19012363494,
			"-0.009": 4.11020245583,
			"-0.008": 6.65743453015,
			"-0.007": 7.79517656175,
			"-0.006": 9.54676017343,
			"-0.005": 9.91772504914,
			"-0.004": 11.1435404243,
			"-0.003": 12.5534651277,
			"-0.002": 15.6374926448,
			"-0.001": 13.6894855201,
			"0.0": 10.7919536852,
			"0.001": 12.6688312553,
			"0.002": 14.7728129616,
			"0.003": 15.4546454701,
			"0.004": 18.2541919094,
			"0.005": 13.4240297413,
			"0.006": 2.3985011934,
			"0.007": 2.87593918136,
			"0.008": 1.7463188104,
			"0.009": 1.11360484582,
			"0.01": 2.82782829217,
			"0.011": 2.29063517476,
			"0.012": 3.12638610337,
			"0.013": 6.02655804104,
			"0.014": 3.30995585758,
			"0.015": 0.269049291773,
			"0.016": 0.0,
			"0.017": 0.0,
			"0.018": 0.0,
			"0.019": 0.0,
			"0.02": 0.0,
			"0.021": 0.0,
			"0.022": 0.0,
			"0.023": 0.0,
			"0.024": 0.0,
			"0.025": 0.0
		}
	}
}
