{
	 "smiles": "CC1(C)OC(=O)C(=C2CCCN2)C(=O)O1", 
	 "Tm": 446.15, 
	 "num_atms": 28, 
	 "gaussian": { 
		 "optdone": 1, 
		 "sigma_profile": "yes", 
		 "theory": "DFT", 
		 "functional": "B3LYP", 
		 "basiset": "6-31G**", 
		 "properties": { 
			 "R2extent": 3699.6685, 
			 "electric_dipole_moment_norm": 3.5967265687, 
			 "electric_quadrupole_moment_norm": 24.7675881882, 
			 "total_energy": -744.592361813, 
			 "HOMO_LUMO_gap": 0.19572, 
			 "cosmo_polarized_energy": -15.38, 
			 "cosmo_cavitation_energy": 30.06, 
			 "cosmo_dispersion_energy": -22.45, 
			 "cosmo_repulsion_energy": 1.78, 
			 "cosmo_total_nonelectrostatic_energy": 9.38, 
			 "SMD_solvation_energy": 5.65 
		},
		"coords": [
			{
				"x": 3.4229117093,
				"y": 1.0179580865,
				"z": -0.5927287189,
				"element": "C" 
			},
			{
				"x": 3.1704757691,
				"y": -0.4336790631,
				"z": -0.1825870499,
				"element": "C" 
			},
			{
				"x": 4.4298374359,
				"y": -1.1583558327,
				"z": 0.2612718516,
				"element": "C" 
			},
			{
				"x": 2.2767392028,
				"y": -0.4694906053,
				"z": 0.943283006,
				"element": "O" 
			},
			{
				"x": 0.9459032062,
				"y": -0.2666539931,
				"z": 0.7301554159,
				"element": "C" 
			},
			{
				"x": 0.251213087,
				"y": 0.0256952246,
				"z": 1.6992729829,
				"element": "O" 
			},
			{
				"x": 0.4616933044,
				"y": -0.4535361662,
				"z": -0.6292519382,
				"element": "C" 
			},
			{
				"x": -0.8876940489,
				"y": -0.2170450052,
				"z": -0.9107899754,
				"element": "C" 
			},
			{
				"x": -1.5965657076,
				"y": -0.3966330604,
				"z": -2.2348957179,
				"element": "C" 
			},
			{
				"x": -2.95028147,
				"y": 0.3172598068,
				"z": -2.0230858642,
				"element": "C" 
			},
			{
				"x": -3.1456520594,
				"y": 0.3116342055,
				"z": -0.494401215,
				"element": "C" 
			},
			{
				"x": -1.7732746506,
				"y": 0.2007388774,
				"z": -0.0041018103,
				"element": "N" 
			},
			{
				"x": 1.336773062,
				"y": -1.0090075951,
				"z": -1.6565009166,
				"element": "C" 
			},
			{
				"x": 1.0032511572,
				"y": -1.3788816037,
				"z": -2.7659913879,
				"element": "O" 
			},
			{
				"x": 2.6516766501,
				"y": -1.17516543,
				"z": -1.2883244667,
				"element": "O" 
			},
			{
				"x": 4.1246325887,
				"y": 1.048297139,
				"z": -1.429897963,
				"element": "H" 
			},
			{
				"x": 3.8434841526,
				"y": 1.5748199687,
				"z": 0.2482683633,
				"element": "H" 
			},
			{
				"x": 2.492764721,
				"y": 1.5021890136,
				"z": -0.9012478409,
				"element": "H" 
			},
			{
				"x": 5.1544813686,
				"y": -1.1784411033,
				"z": -0.5558906571,
				"element": "H" 
			},
			{
				"x": 4.1796432897,
				"y": -2.1837938999,
				"z": 0.5409011208,
				"element": "H" 
			},
			{
				"x": 4.8700170661,
				"y": -0.6501969187,
				"z": 1.1223444367,
				"element": "H" 
			},
			{
				"x": -1.0077969511,
				"y": -0.013694283,
				"z": -3.0679957538,
				"element": "H" 
			},
			{
				"x": -1.7096924467,
				"y": -1.4706871227,
				"z": -2.422086395,
				"element": "H" 
			},
			{
				"x": -2.8882010445,
				"y": 1.3488414698,
				"z": -2.3831543205,
				"element": "H" 
			},
			{
				"x": -3.7739868048,
				"y": -0.1703639771,
				"z": -2.5482661938,
				"element": "H" 
			},
			{
				"x": -3.6198992064,
				"y": 1.2214994878,
				"z": -0.114882642,
				"element": "H" 
			},
			{
				"x": -3.7417923442,
				"y": -0.546230556,
				"z": -0.1544867976,
				"element": "H" 
			},
			{
				"x": -1.4619610364,
				"y": 0.2791229358,
				"z": 0.9650704476,
				"element": "H" 
			}
		],
		 "valence_orbital": [ 
			{
				"type": "occ",
				"energy": -0.29731,
				"method": "rhf"
			},
			{
				"type": "occ",
				"energy": -0.28861,
				"method": "rhf"
			},
			{
				"type": "occ",
				"energy": -0.27651,
				"method": "rhf"
			},
			{
				"type": "occ",
				"energy": -0.25611,
				"method": "rhf"
			},
			{
				"type": "occ",
				"energy": -0.23012,
				"method": "rhf"
			},
			{
				"type": "unocc",
				"energy": -0.0344,
				"method": "rhf"
			},
			{
				"type": "unocc",
				"energy": 0.00955,
				"method": "rhf"
			},
			{
				"type": "unocc",
				"energy": 0.07506,
				"method": "rhf"
			},
			{
				"type": "unocc",
				"energy": 0.09512,
				"method": "rhf"
			},
			{
				"type": "unocc",
				"energy": 0.09973,
				"method": "rhf"
			}
		],
		"cosmo_sigma_profile": { 
			"-0.025": 0.0,
			"-0.024": 0.0,
			"-0.023": 0.0,
			"-0.022": 0.0,
			"-0.021": 0.0,
			"-0.02": 0.0,
			"-0.019": 0.0,
			"-0.018": 0.0,
			"-0.017": 0.0,
			"-0.016": 0.0,
			"-0.015": 0.0,
			"-0.014": 0.0,
			"-0.013": 0.0,
			"-0.012": 0.0359881219655,
			"-0.011": 0.39339735483,
			"-0.01": 0.779103217671,
			"-0.009": 0.951409224934,
			"-0.008": 0.720067750014,
			"-0.007": 1.07472681738,
			"-0.006": 7.05964132689,
			"-0.005": 28.020758515,
			"-0.004": 33.1430994117,
			"-0.003": 27.4591716284,
			"-0.002": 25.4950338362,
			"-0.001": 26.1194293848,
			"0.0": 15.4705304496,
			"0.001": 8.1743785547,
			"0.002": 5.25004743466,
			"0.003": 5.31598563849,
			"0.004": 3.78492444906,
			"0.005": 4.35998036511,
			"0.006": 3.21616914179,
			"0.007": 4.34755201562,
			"0.008": 4.74949705075,
			"0.009": 4.28371714362,
			"0.01": 5.46816151053,
			"0.011": 5.97412977417,
			"0.012": 6.3839035701,
			"0.013": 5.88044247139,
			"0.014": 2.58522796561,
			"0.015": 0.0544405000087,
			"0.016": 0.0,
			"0.017": 0.0,
			"0.018": 0.0,
			"0.019": 0.0,
			"0.02": 0.0,
			"0.021": 0.0,
			"0.022": 0.0,
			"0.023": 0.0,
			"0.024": 0.0,
			"0.025": 0.0
		}
	}
}
