{
	 "smiles": "CN1CCN(CC1)C(=O)C1=NC=CC(N)=C1", 
	 "Tm": 407.15, 
	 "num_atms": 32, 
	 "gaussian": { 
		 "optdone": 1, 
		 "sigma_profile": "yes", 
		 "theory": "DFT", 
		 "functional": "B3LYP", 
		 "basiset": "6-31G**", 
		 "properties": { 
			 "R2extent": 5702.0031, 
			 "electric_dipole_moment_norm": 3.37460322112, 
			 "electric_quadrupole_moment_norm": 22.5590953722, 
			 "total_energy": -723.040792145, 
			 "HOMO_LUMO_gap": 0.17045, 
			 "cosmo_polarized_energy": -16.87, 
			 "cosmo_cavitation_energy": 33.78, 
			 "cosmo_dispersion_energy": -24.83, 
			 "cosmo_repulsion_energy": 1.93, 
			 "cosmo_total_nonelectrostatic_energy": 10.89, 
			 "SMD_solvation_energy": 2.06 
		},
		"coords": [
			{
				"x": -3.0669117552,
				"y": -1.4169993651,
				"z": 3.4370081087,
				"element": "C" 
			},
			{
				"x": -1.8281860189,
				"y": -1.2089353132,
				"z": 2.7055251196,
				"element": "N" 
			},
			{
				"x": -1.2386479657,
				"y": 0.0987816669,
				"z": 3.0039007612,
				"element": "C" 
			},
			{
				"x": -0.181029375,
				"y": 0.47905038,
				"z": 1.9748340671,
				"element": "C" 
			},
			{
				"x": -0.7985822789,
				"y": 0.6201885935,
				"z": 0.6465582777,
				"element": "N" 
			},
			{
				"x": -2.0019360951,
				"y": -0.1919033497,
				"z": 0.4048906837,
				"element": "C" 
			},
			{
				"x": -1.9255904821,
				"y": -1.4641112679,
				"z": 1.2585625023,
				"element": "C" 
			},
			{
				"x": -0.1171637929,
				"y": 1.383042748,
				"z": -0.2595676921,
				"element": "C" 
			},
			{
				"x": 0.9951593962,
				"y": 1.8481113505,
				"z": 0.0089792284,
				"element": "O" 
			},
			{
				"x": -0.7299444256,
				"y": 1.6983626861,
				"z": -1.6100244449,
				"element": "C" 
			},
			{
				"x": -2.0647452026,
				"y": 1.6668975664,
				"z": -1.7679973229,
				"element": "N" 
			},
			{
				"x": -2.5336725726,
				"y": 2.0287643312,
				"z": -2.9692638901,
				"element": "C" 
			},
			{
				"x": -1.7389626886,
				"y": 2.420176253,
				"z": -4.03967212,
				"element": "C" 
			},
			{
				"x": -0.3423726906,
				"y": 2.4534026764,
				"z": -3.8709462658,
				"element": "C" 
			},
			{
				"x": 0.5037064025,
				"y": 2.7908102998,
				"z": -4.9082949033,
				"element": "N" 
			},
			{
				"x": 0.1579468914,
				"y": 2.0858852016,
				"z": -2.6122387972,
				"element": "C" 
			},
			{
				"x": -3.4350673458,
				"y": -2.4345066784,
				"z": 3.2724772666,
				"element": "H" 
			},
			{
				"x": -2.8785803095,
				"y": -1.3027763202,
				"z": 4.5105013036,
				"element": "H" 
			},
			{
				"x": -3.8746562479,
				"y": -0.7085927193,
				"z": 3.1658640818,
				"element": "H" 
			},
			{
				"x": -2.0026735988,
				"y": 0.9002571416,
				"z": 3.0317505989,
				"element": "H" 
			},
			{
				"x": -0.778681307,
				"y": 0.0685229049,
				"z": 4.0000121183,
				"element": "H" 
			},
			{
				"x": 0.2887610976,
				"y": 1.4294046218,
				"z": 2.2341055738,
				"element": "H" 
			},
			{
				"x": 0.6175167544,
				"y": -0.2751764435,
				"z": 1.9526939167,
				"element": "H" 
			},
			{
				"x": -2.0614570474,
				"y": -0.455187436,
				"z": -0.6500793295,
				"element": "H" 
			},
			{
				"x": -2.908222277,
				"y": 0.3804696216,
				"z": 0.6364892741,
				"element": "H" 
			},
			{
				"x": -2.8119306545,
				"y": -2.0751403808,
				"z": 1.0597037462,
				"element": "H" 
			},
			{
				"x": -1.0568440962,
				"y": -2.051629289,
				"z": 0.9299250789,
				"element": "H" 
			},
			{
				"x": -3.6164151106,
				"y": 2.0092367706,
				"z": -3.0844771178,
				"element": "H" 
			},
			{
				"x": -2.1919033984,
				"y": 2.6956156612,
				"z": -4.9880764917,
				"element": "H" 
			},
			{
				"x": 0.1096017784,
				"y": 3.3247974411,
				"z": -5.668516395,
				"element": "H" 
			},
			{
				"x": 1.4426219335,
				"y": 3.0644798112,
				"z": -4.6585002139,
				"element": "H" 
			},
			{
				"x": 1.2183624827,
				"y": 2.1140008357,
				"z": -2.3875267234,
				"element": "H" 
			}
		],
		 "valence_orbital": [ 
			{
				"type": "occ",
				"energy": -0.25484,
				"method": "rhf"
			},
			{
				"type": "occ",
				"energy": -0.23596,
				"method": "rhf"
			},
			{
				"type": "occ",
				"energy": -0.22859,
				"method": "rhf"
			},
			{
				"type": "occ",
				"energy": -0.22293,
				"method": "rhf"
			},
			{
				"type": "occ",
				"energy": -0.20091,
				"method": "rhf"
			},
			{
				"type": "unocc",
				"energy": -0.03046,
				"method": "rhf"
			},
			{
				"type": "unocc",
				"energy": -0.00353,
				"method": "rhf"
			},
			{
				"type": "unocc",
				"energy": 0.06554,
				"method": "rhf"
			},
			{
				"type": "unocc",
				"energy": 0.07573,
				"method": "rhf"
			},
			{
				"type": "unocc",
				"energy": 0.08331,
				"method": "rhf"
			}
		],
		"cosmo_sigma_profile": { 
			"-0.025": 0.0,
			"-0.024": 0.0,
			"-0.023": 0.0,
			"-0.022": 0.0,
			"-0.021": 0.0,
			"-0.02": 0.0,
			"-0.019": 0.0,
			"-0.018": 0.0,
			"-0.017": 0.0,
			"-0.016": 0.0,
			"-0.015": 0.0,
			"-0.014": 0.621569181265,
			"-0.013": 2.77899944216,
			"-0.012": 2.54503764738,
			"-0.011": 3.63828094607,
			"-0.01": 2.89977701028,
			"-0.009": 2.90404903428,
			"-0.008": 2.90646447981,
			"-0.007": 3.97783578713,
			"-0.006": 5.86903288855,
			"-0.005": 8.44308688712,
			"-0.004": 21.3265557689,
			"-0.003": 30.9712740901,
			"-0.002": 32.5405034071,
			"-0.001": 23.3203742515,
			"0.0": 19.706644721,
			"0.001": 13.0030921373,
			"0.002": 13.672744595,
			"0.003": 17.2520564152,
			"0.004": 10.3128651078,
			"0.005": 7.57437029183,
			"0.006": 4.33994832349,
			"0.007": 3.85379280706,
			"0.008": 4.63580590169,
			"0.009": 5.13915177715,
			"0.01": 3.1795724582,
			"0.011": 3.62151165255,
			"0.012": 3.60016091518,
			"0.013": 2.85258908408,
			"0.014": 5.1157489251,
			"0.015": 1.88115813444,
			"0.016": 0.423921467281,
			"0.017": 0.0,
			"0.018": 0.0,
			"0.019": 0.0,
			"0.02": 0.0,
			"0.021": 0.0,
			"0.022": 0.0,
			"0.023": 0.0,
			"0.024": 0.0,
			"0.025": 0.0
		}
	}
}
