{
	 "smiles": "CC1=C(F)C=C(CNC(=O)C2CCNCC2)C=C1", 
	 "Tm": 408.15, 
	 "num_atms": 37, 
	 "gaussian": { 
		 "optdone": 1, 
		 "sigma_profile": "yes", 
		 "theory": "DFT", 
		 "functional": "B3LYP", 
		 "basiset": "6-31G**", 
		 "properties": { 
			 "R2extent": 7685.991, 
			 "electric_dipole_moment_norm": 2.9684415625, 
			 "electric_quadrupole_moment_norm": 15.0105978039, 
			 "total_energy": -829.515626464, 
			 "HOMO_LUMO_gap": 0.18988, 
			 "cosmo_polarized_energy": -14.69, 
			 "cosmo_cavitation_energy": 38.9, 
			 "cosmo_dispersion_energy": -27.47, 
			 "cosmo_repulsion_energy": 2.11, 
			 "cosmo_total_nonelectrostatic_energy": 13.54, 
			 "SMD_solvation_energy": 4.33 
		},
		"coords": [
			{
				"x": -2.6198696176,
				"y": -4.9037624773,
				"z": -0.3756412447,
				"element": "C" 
			},
			{
				"x": -2.3469290976,
				"y": -3.4468531927,
				"z": -0.1056279571,
				"element": "C" 
			},
			{
				"x": -3.2586733241,
				"y": -2.4679770058,
				"z": -0.505768921,
				"element": "C" 
			},
			{
				"x": -4.3873104203,
				"y": -2.8669363373,
				"z": -1.1382858099,
				"element": "F" 
			},
			{
				"x": -3.0706461462,
				"y": -1.1118136952,
				"z": -0.2797123424,
				"element": "C" 
			},
			{
				"x": -1.9115724912,
				"y": -0.6786737532,
				"z": 0.3737015593,
				"element": "C" 
			},
			{
				"x": -1.6742361252,
				"y": 0.8082408215,
				"z": 0.5808054034,
				"element": "C" 
			},
			{
				"x": -1.0627471235,
				"y": 1.103628312,
				"z": 1.8670451709,
				"element": "N" 
			},
			{
				"x": -0.0945699891,
				"y": 2.0236025809,
				"z": 2.1945885065,
				"element": "C" 
			},
			{
				"x": 0.187823816,
				"y": 2.2174566989,
				"z": 3.3730244265,
				"element": "O" 
			},
			{
				"x": 0.6525980726,
				"y": 2.7278361008,
				"z": 1.0586667389,
				"element": "C" 
			},
			{
				"x": 1.2929700632,
				"y": 4.0527382043,
				"z": 1.5515225849,
				"element": "C" 
			},
			{
				"x": 2.753287735,
				"y": 3.8650634211,
				"z": 1.9628672406,
				"element": "C" 
			},
			{
				"x": 3.5668145544,
				"y": 3.4717035086,
				"z": 0.7964413498,
				"element": "N" 
			},
			{
				"x": 2.8718544597,
				"y": 2.5897383374,
				"z": -0.1548108611,
				"element": "C" 
			},
			{
				"x": 1.741087889,
				"y": 1.77122184,
				"z": 0.4849761757,
				"element": "C" 
			},
			{
				"x": -0.9772934123,
				"y": -1.6337624004,
				"z": 0.7895366343,
				"element": "C" 
			},
			{
				"x": -1.1981789896,
				"y": -2.9912275901,
				"z": 0.5514648159,
				"element": "C" 
			},
			{
				"x": -3.5481415426,
				"y": -5.2308781939,
				"z": 0.1052617142,
				"element": "H" 
			},
			{
				"x": -2.7354465503,
				"y": -5.0949366339,
				"z": -1.4479549509,
				"element": "H" 
			},
			{
				"x": -1.8042648164,
				"y": -5.5282325331,
				"z": -0.0030855842,
				"element": "H" 
			},
			{
				"x": -3.8310795699,
				"y": -0.4119494386,
				"z": -0.6128527563,
				"element": "H" 
			},
			{
				"x": -2.6284659508,
				"y": 1.3427181841,
				"z": 0.4650465579,
				"element": "H" 
			},
			{
				"x": -1.0146008902,
				"y": 1.1802150854,
				"z": -0.2077938532,
				"element": "H" 
			},
			{
				"x": -1.4997991984,
				"y": 0.6948061282,
				"z": 2.684574192,
				"element": "H" 
			},
			{
				"x": -0.0511530288,
				"y": 2.9695672998,
				"z": 0.2538344505,
				"element": "H" 
			},
			{
				"x": 1.2461805123,
				"y": 4.7965854317,
				"z": 0.7479394377,
				"element": "H" 
			},
			{
				"x": 0.7264063225,
				"y": 4.4417036725,
				"z": 2.4003880963,
				"element": "H" 
			},
			{
				"x": 3.150357946,
				"y": 4.8051676113,
				"z": 2.3654464551,
				"element": "H" 
			},
			{
				"x": 2.7817006691,
				"y": 3.1287530949,
				"z": 2.7811420933,
				"element": "H" 
			},
			{
				"x": 4.4136238599,
				"y": 3.0168746129,
				"z": 1.12105165,
				"element": "H" 
			},
			{
				"x": 3.6083754471,
				"y": 1.9253219052,
				"z": -0.6193620664,
				"element": "H" 
			},
			{
				"x": 2.4480907196,
				"y": 3.192704359,
				"z": -0.9721983968,
				"element": "H" 
			},
			{
				"x": 2.1562550874,
				"y": 1.1582506653,
				"z": 1.2945325795,
				"element": "H" 
			},
			{
				"x": 1.3060456565,
				"y": 1.0783848488,
				"z": -0.2449735827,
				"element": "H" 
			},
			{
				"x": -0.0797482318,
				"y": -1.3127830152,
				"z": 1.3085463615,
				"element": "H" 
			},
			{
				"x": -0.4628462946,
				"y": -3.7196964579,
				"z": 0.8832641322,
				"element": "H" 
			}
		],
		 "valence_orbital": [ 
			{
				"type": "occ",
				"energy": -0.26032,
				"method": "rhf"
			},
			{
				"type": "occ",
				"energy": -0.25429,
				"method": "rhf"
			},
			{
				"type": "occ",
				"energy": -0.24655,
				"method": "rhf"
			},
			{
				"type": "occ",
				"energy": -0.23812,
				"method": "rhf"
			},
			{
				"type": "occ",
				"energy": -0.20484,
				"method": "rhf"
			},
			{
				"type": "unocc",
				"energy": -0.01496,
				"method": "rhf"
			},
			{
				"type": "unocc",
				"energy": -0.00768,
				"method": "rhf"
			},
			{
				"type": "unocc",
				"energy": 0.02683,
				"method": "rhf"
			},
			{
				"type": "unocc",
				"energy": 0.07239,
				"method": "rhf"
			},
			{
				"type": "unocc",
				"energy": 0.08993,
				"method": "rhf"
			}
		],
		"cosmo_sigma_profile": { 
			"-0.025": 0.0,
			"-0.024": 0.0,
			"-0.023": 0.0,
			"-0.022": 0.0,
			"-0.021": 0.0,
			"-0.02": 0.0,
			"-0.019": 0.0,
			"-0.018": 0.0,
			"-0.017": 0.0,
			"-0.016": 0.0,
			"-0.015": 0.0,
			"-0.014": 0.0,
			"-0.013": 0.363327862845,
			"-0.012": 0.912178776904,
			"-0.011": 1.01925769629,
			"-0.01": 1.13462837365,
			"-0.009": 2.39385201282,
			"-0.008": 2.2601100992,
			"-0.007": 5.57499656084,
			"-0.006": 10.2370615421,
			"-0.005": 16.6306023756,
			"-0.004": 25.1472346335,
			"-0.003": 28.0254192027,
			"-0.002": 35.9090952099,
			"-0.001": 35.5841546844,
			"0.0": 31.0284521109,
			"0.001": 20.265592713,
			"0.002": 15.4441970225,
			"0.003": 12.3758843562,
			"0.004": 17.8219952832,
			"0.005": 13.55499445,
			"0.006": 2.5725246481,
			"0.007": 2.76725055929,
			"0.008": 2.13634142255,
			"0.009": 2.04646579144,
			"0.01": 1.7359705008,
			"0.011": 2.9494334909,
			"0.012": 1.99832733465,
			"0.013": 2.86892299066,
			"0.014": 5.61581704081,
			"0.015": 2.03174937894,
			"0.016": 0.323884039642,
			"0.017": 0.825963604594,
			"0.018": 0.330157124493,
			"0.019": 0.441337860599,
			"0.02": 0.00786860983646,
			"0.021": 0.0,
			"0.022": 0.0,
			"0.023": 0.0,
			"0.024": 0.0,
			"0.025": 0.0
		}
	}
}
