{
	 "smiles": "NC1=NC=NC2=C1N=C(Br)N2C1OC(CO)C(O)C1O", 
	 "Tm": 484.15, 
	 "num_atms": 32, 
	 "gaussian": { 
		 "optdone": 1, 
		 "sigma_profile": "yes", 
		 "theory": "DFT", 
		 "functional": "B3LYP", 
		 "basiset": "6-31G**", 
		 "properties": { 
			 "R2extent": 7935.5989, 
			 "electric_dipole_moment_norm": 2.56395592786, 
			 "electric_quadrupole_moment_norm": 11.3953102858, 
			 "total_energy": -3534.33563318, 
			 "HOMO_LUMO_gap": 0.19606, 
			 "cosmo_polarized_energy": -19.94, 
			 "cosmo_cavitation_energy": 36.74, 
			 "cosmo_dispersion_energy": -27.43, 
			 "cosmo_repulsion_energy": 2.11, 
			 "cosmo_total_nonelectrostatic_energy": 11.42, 
			 "SMD_solvation_energy": 1.03 
		},
		"coords": [
			{
				"x": -0.3589553344,
				"y": 2.2719413494,
				"z": -4.9901070749,
				"element": "N" 
			},
			{
				"x": -0.701401453,
				"y": 1.728273448,
				"z": -3.7999072395,
				"element": "C" 
			},
			{
				"x": -1.868284211,
				"y": 2.0845327613,
				"z": -3.2315051071,
				"element": "N" 
			},
			{
				"x": -2.1831946868,
				"y": 1.5512303842,
				"z": -2.0425829912,
				"element": "C" 
			},
			{
				"x": -1.4886546341,
				"y": 0.6777331184,
				"z": -1.3041942128,
				"element": "N" 
			},
			{
				"x": -0.335336834,
				"y": 0.3371699057,
				"z": -1.8949885153,
				"element": "C" 
			},
			{
				"x": 0.1283555423,
				"y": 0.8089334824,
				"z": -3.124614488,
				"element": "C" 
			},
			{
				"x": 1.3533302592,
				"y": 0.2544120196,
				"z": -3.4516213405,
				"element": "N" 
			},
			{
				"x": 1.6088763615,
				"y": -0.5297253729,
				"z": -2.4444807297,
				"element": "C" 
			},
			{
				"x": 3.172693464,
				"y": -1.5712016518,
				"z": -2.3276361893,
				"element": "Br" 
			},
			{
				"x": 0.6456676928,
				"y": -0.5373329189,
				"z": -1.4424589663,
				"element": "N" 
			},
			{
				"x": 0.6151233886,
				"y": -1.3684792765,
				"z": -0.230834178,
				"element": "C" 
			},
			{
				"x": -0.563566939,
				"y": -2.1456471481,
				"z": -0.2104862308,
				"element": "O" 
			},
			{
				"x": -1.4243491031,
				"y": -1.7851827904,
				"z": 0.8795939381,
				"element": "C" 
			},
			{
				"x": -1.5328547946,
				"y": -2.9948369812,
				"z": 1.8144039384,
				"element": "C" 
			},
			{
				"x": -2.4296751508,
				"y": -2.7265992485,
				"z": 2.9035204582,
				"element": "O" 
			},
			{
				"x": -0.8083621373,
				"y": -0.5257546553,
				"z": 1.5478182828,
				"element": "C" 
			},
			{
				"x": -0.8395603668,
				"y": -0.5147555059,
				"z": 2.9690870645,
				"element": "O" 
			},
			{
				"x": 0.6695233323,
				"y": -0.5794042213,
				"z": 1.0885671698,
				"element": "C" 
			},
			{
				"x": 1.4270362441,
				"y": -1.3394695652,
				"z": 2.0068473374,
				"element": "O" 
			},
			{
				"x": -1.0287947277,
				"y": 2.8554738031,
				"z": -5.464486134,
				"element": "H" 
			},
			{
				"x": 0.4635371112,
				"y": 1.9484839175,
				"z": -5.4721197658,
				"element": "H" 
			},
			{
				"x": -3.1346576938,
				"y": 1.8741055777,
				"z": -1.6247507987,
				"element": "H" 
			},
			{
				"x": 1.4865947724,
				"y": -2.0220138584,
				"z": -0.2938204064,
				"element": "H" 
			},
			{
				"x": -2.4093176125,
				"y": -1.5486326153,
				"z": 0.4567354261,
				"element": "H" 
			},
			{
				"x": -0.5587452041,
				"y": -3.202916332,
				"z": 2.2612943588,
				"element": "H" 
			},
			{
				"x": -1.8475295721,
				"y": -3.877866835,
				"z": 1.2456102235,
				"element": "H" 
			},
			{
				"x": -3.3259043119,
				"y": -2.651631964,
				"z": 2.5485965263,
				"element": "H" 
			},
			{
				"x": -1.2900839744,
				"y": 0.3669110365,
				"z": 1.142087798,
				"element": "H" 
			},
			{
				"x": -1.5306773645,
				"y": -1.1374074675,
				"z": 3.2625277778,
				"element": "H" 
			},
			{
				"x": 1.1004169269,
				"y": 0.420431289,
				"z": 0.9422658031,
				"element": "H" 
			},
			{
				"x": 0.9843510107,
				"y": -1.1842736846,
				"z": 2.8618382658,
				"element": "H" 
			}
		],
		 "valence_orbital": [ 
			{
				"type": "occ",
				"energy": -0.27381,
				"method": "rhf"
			},
			{
				"type": "occ",
				"energy": -0.27168,
				"method": "rhf"
			},
			{
				"type": "occ",
				"energy": -0.26387,
				"method": "rhf"
			},
			{
				"type": "occ",
				"energy": -0.25587,
				"method": "rhf"
			},
			{
				"type": "occ",
				"energy": -0.22361,
				"method": "rhf"
			},
			{
				"type": "unocc",
				"energy": -0.02755,
				"method": "rhf"
			},
			{
				"type": "unocc",
				"energy": -0.00351,
				"method": "rhf"
			},
			{
				"type": "unocc",
				"energy": -0.00179,
				"method": "rhf"
			},
			{
				"type": "unocc",
				"energy": 0.0272,
				"method": "rhf"
			},
			{
				"type": "unocc",
				"energy": 0.03896,
				"method": "rhf"
			}
		],
		"cosmo_sigma_profile": { 
			"-0.025": 0.0,
			"-0.024": 0.0,
			"-0.023": 0.0,
			"-0.022": 0.0,
			"-0.021": 0.0,
			"-0.02": 0.0,
			"-0.019": 0.0,
			"-0.018": 0.0278213827062,
			"-0.017": 0.759167464855,
			"-0.016": 1.18406172424,
			"-0.015": 1.85399840037,
			"-0.014": 2.80751062825,
			"-0.013": 3.09783608777,
			"-0.012": 2.77627763078,
			"-0.011": 3.15522045624,
			"-0.01": 3.66620938294,
			"-0.009": 4.07566776418,
			"-0.008": 3.14495359594,
			"-0.007": 6.1263977237,
			"-0.006": 11.9393549853,
			"-0.005": 18.6949666156,
			"-0.004": 17.1002544437,
			"-0.003": 18.2084857472,
			"-0.002": 20.5077495527,
			"-0.001": 21.0174252517,
			"0.0": 22.2611119348,
			"0.001": 19.9853752048,
			"0.002": 21.0699129541,
			"0.003": 15.4341026906,
			"0.004": 12.0458841918,
			"0.005": 11.4170816482,
			"0.006": 9.26405673274,
			"0.007": 6.38679066898,
			"0.008": 7.81269869805,
			"0.009": 5.44174558446,
			"0.01": 5.5123308103,
			"0.011": 6.23895777442,
			"0.012": 4.8244421079,
			"0.013": 4.34542240714,
			"0.014": 1.50177273884,
			"0.015": 0.686544505534,
			"0.016": 0.0258111872101,
			"0.017": 0.0,
			"0.018": 0.0,
			"0.019": 0.0,
			"0.02": 0.0,
			"0.021": 0.0,
			"0.022": 0.0,
			"0.023": 0.0,
			"0.024": 0.0,
			"0.025": 0.0
		}
	}
}
