{
	 "smiles": "CCC(=O)C1=CC=CC(=C1)C(F)(F)F", 
	 "Tm": 292.15, 
	 "num_atms": 23, 
	 "gaussian": { 
		 "optdone": 1, 
		 "sigma_profile": "yes", 
		 "theory": "DFT", 
		 "functional": "B3LYP", 
		 "basiset": "6-31G**", 
		 "properties": { 
			 "R2extent": 3941.9999, 
			 "electric_dipole_moment_norm": 0.533946570361, 
			 "electric_quadrupole_moment_norm": 18.2195066108, 
			 "total_energy": -761.246542464, 
			 "HOMO_LUMO_gap": 0.18548, 
			 "cosmo_polarized_energy": -7.46, 
			 "cosmo_cavitation_energy": 28.5, 
			 "cosmo_dispersion_energy": -19.75, 
			 "cosmo_repulsion_energy": 1.51, 
			 "cosmo_total_nonelectrostatic_energy": 10.25, 
			 "SMD_solvation_energy": 6.63 
		},
		"coords": [
			{
				"x": 1.9514270961,
				"y": -2.4377809496,
				"z": 0.145091204,
				"element": "C" 
			},
			{
				"x": 0.7184080046,
				"y": -1.9034589761,
				"z": -0.610361848,
				"element": "C" 
			},
			{
				"x": 0.9450395497,
				"y": -0.489780479,
				"z": -1.1299296505,
				"element": "C" 
			},
			{
				"x": 1.3042358522,
				"y": -0.3079202348,
				"z": -2.283700874,
				"element": "O" 
			},
			{
				"x": 0.7647129549,
				"y": 0.6852867697,
				"z": -0.2069259837,
				"element": "C" 
			},
			{
				"x": 1.0568819943,
				"y": 1.963890602,
				"z": -0.7079709125,
				"element": "C" 
			},
			{
				"x": 0.9140862153,
				"y": 3.0902006077,
				"z": 0.0963674182,
				"element": "C" 
			},
			{
				"x": 0.475977601,
				"y": 2.957283609,
				"z": 1.41516871,
				"element": "C" 
			},
			{
				"x": 0.1824180055,
				"y": 1.6888657733,
				"z": 1.9219751507,
				"element": "C" 
			},
			{
				"x": 0.3247896162,
				"y": 0.5572972279,
				"z": 1.1167426286,
				"element": "C" 
			},
			{
				"x": -0.3454996849,
				"y": 1.5487468981,
				"z": 3.3251445066,
				"element": "C" 
			},
			{
				"x": -1.6906970215,
				"y": 1.6885945944,
				"z": 3.3671155679,
				"element": "F" 
			},
			{
				"x": -0.0601735672,
				"y": 0.336932839,
				"z": 3.8518386313,
				"element": "F" 
			},
			{
				"x": 0.1718274634,
				"y": 2.4845981057,
				"z": 4.1508627003,
				"element": "F" 
			},
			{
				"x": 1.7825206945,
				"y": -3.4694929482,
				"z": 0.4668081827,
				"element": "H" 
			},
			{
				"x": 2.1760724064,
				"y": -1.83976156,
				"z": 1.0335151084,
				"element": "H" 
			},
			{
				"x": 2.8328152873,
				"y": -2.4239373101,
				"z": -0.5027352794,
				"element": "H" 
			},
			{
				"x": -0.1665971998,
				"y": -1.9475776761,
				"z": 0.0336740564,
				"element": "H" 
			},
			{
				"x": 0.5247217077,
				"y": -2.5259119082,
				"z": -1.4876735841,
				"element": "H" 
			},
			{
				"x": 1.3968110835,
				"y": 2.0416737891,
				"z": -1.7351673806,
				"element": "H" 
			},
			{
				"x": 1.1462506333,
				"y": 4.0745317353,
				"z": -0.298367424,
				"element": "H" 
			},
			{
				"x": 0.3695295758,
				"y": 3.8293070632,
				"z": 2.0516999664,
				"element": "H" 
			},
			{
				"x": 0.0976417317,
				"y": -0.4152875723,
				"z": 1.5365291053,
				"element": "H" 
			}
		],
		 "valence_orbital": [ 
			{
				"type": "occ",
				"energy": -0.35814,
				"method": "rhf"
			},
			{
				"type": "occ",
				"energy": -0.35416,
				"method": "rhf"
			},
			{
				"type": "occ",
				"energy": -0.27856,
				"method": "rhf"
			},
			{
				"type": "occ",
				"energy": -0.27488,
				"method": "rhf"
			},
			{
				"type": "occ",
				"energy": -0.25444,
				"method": "rhf"
			},
			{
				"type": "unocc",
				"energy": -0.06896,
				"method": "rhf"
			},
			{
				"type": "unocc",
				"energy": -0.0343,
				"method": "rhf"
			},
			{
				"type": "unocc",
				"energy": 0.02153,
				"method": "rhf"
			},
			{
				"type": "unocc",
				"energy": 0.08115,
				"method": "rhf"
			},
			{
				"type": "unocc",
				"energy": 0.10419,
				"method": "rhf"
			}
		],
		"cosmo_sigma_profile": { 
			"-0.025": 0.0,
			"-0.024": 0.0,
			"-0.023": 0.0,
			"-0.022": 0.0,
			"-0.021": 0.0,
			"-0.02": 0.0,
			"-0.019": 0.0,
			"-0.018": 0.0,
			"-0.017": 0.0,
			"-0.016": 0.0,
			"-0.015": 0.0,
			"-0.014": 0.0,
			"-0.013": 0.0,
			"-0.012": 0.0,
			"-0.011": 0.0,
			"-0.01": 0.0,
			"-0.009": 0.168572929242,
			"-0.008": 1.83722070879,
			"-0.007": 6.04683139795,
			"-0.006": 8.84468151917,
			"-0.005": 11.7810265032,
			"-0.004": 14.7098145957,
			"-0.003": 18.7492240051,
			"-0.002": 21.3928980732,
			"-0.001": 20.5947482391,
			"0.0": 22.4633763826,
			"0.001": 21.2894328597,
			"0.002": 29.2316564865,
			"0.003": 29.5734827583,
			"0.004": 2.77196646076,
			"0.005": 1.9820775466,
			"0.006": 1.88064141336,
			"0.007": 1.53585315522,
			"0.008": 0.817134110981,
			"0.009": 1.27293252224,
			"0.01": 2.65509571718,
			"0.011": 3.18951102722,
			"0.012": 3.3241869342,
			"0.013": 1.10301235416,
			"0.014": 0.103408870585,
			"0.015": 0.0,
			"0.016": 0.0,
			"0.017": 0.0,
			"0.018": 0.0,
			"0.019": 0.0,
			"0.02": 0.0,
			"0.021": 0.0,
			"0.022": 0.0,
			"0.023": 0.0,
			"0.024": 0.0,
			"0.025": 0.0
		}
	}
}
