{
	 "smiles": "CC(C)OC1=CC=C(C=C1)C(N)=O", 
	 "Tm": 440.15, 
	 "num_atms": 26, 
	 "gaussian": { 
		 "optdone": 1, 
		 "sigma_profile": "yes", 
		 "theory": "DFT", 
		 "functional": "B3LYP", 
		 "basiset": "6-31G**", 
		 "properties": { 
			 "R2extent": 3436.9967, 
			 "electric_dipole_moment_norm": 4.45012182418, 
			 "electric_quadrupole_moment_norm": 18.7409288777, 
			 "total_energy": -594.114728181, 
			 "HOMO_LUMO_gap": 0.20665, 
			 "cosmo_polarized_energy": -14.49, 
			 "cosmo_cavitation_energy": 29.18, 
			 "cosmo_dispersion_energy": -20.99, 
			 "cosmo_repulsion_energy": 1.68, 
			 "cosmo_total_nonelectrostatic_energy": 9.87, 
			 "SMD_solvation_energy": 5.86 
		},
		"coords": [
			{
				"x": 1.9000658147,
				"y": -2.2383637672,
				"z": -0.3726525698,
				"element": "C" 
			},
			{
				"x": 0.6139329413,
				"y": -2.3873145295,
				"z": 0.4391820273,
				"element": "C" 
			},
			{
				"x": -0.5526557294,
				"y": -2.9118025021,
				"z": -0.3972827634,
				"element": "C" 
			},
			{
				"x": 0.2710207432,
				"y": -1.1696494154,
				"z": 1.1533196039,
				"element": "O" 
			},
			{
				"x": -0.036433922,
				"y": -0.0332139172,
				"z": 0.4433237311,
				"element": "C" 
			},
			{
				"x": 0.9652387412,
				"y": 0.8950143104,
				"z": 0.1266193889,
				"element": "C" 
			},
			{
				"x": 0.6364539428,
				"y": 2.0829840812,
				"z": -0.5175181853,
				"element": "C" 
			},
			{
				"x": -0.6915218543,
				"y": 2.3676984215,
				"z": -0.8635215501,
				"element": "C" 
			},
			{
				"x": -1.6926250191,
				"y": 1.448536915,
				"z": -0.5176511108,
				"element": "C" 
			},
			{
				"x": -1.3706252191,
				"y": 0.258507047,
				"z": 0.1313329395,
				"element": "C" 
			},
			{
				"x": -0.9614451847,
				"y": 3.6688669444,
				"z": -1.5597027682,
				"element": "C" 
			},
			{
				"x": -2.1898292645,
				"y": 3.7933497324,
				"z": -2.1695671995,
				"element": "N" 
			},
			{
				"x": -0.1453467545,
				"y": 4.5829174543,
				"z": -1.5710769609,
				"element": "O" 
			},
			{
				"x": 2.7163299998,
				"y": -1.8749033217,
				"z": 0.2580398699,
				"element": "H" 
			},
			{
				"x": 1.7696784247,
				"y": -1.5433077124,
				"z": -1.2078402841,
				"element": "H" 
			},
			{
				"x": 2.1935342193,
				"y": -3.2090619229,
				"z": -0.7855843344,
				"element": "H" 
			},
			{
				"x": 0.797487629,
				"y": -3.0859334555,
				"z": 1.262145974,
				"element": "H" 
			},
			{
				"x": -0.7805722164,
				"y": -2.2415419679,
				"z": -1.2319186166,
				"element": "H" 
			},
			{
				"x": -0.3011328514,
				"y": -3.8930166627,
				"z": -0.8129378756,
				"element": "H" 
			},
			{
				"x": -1.4513112968,
				"y": -3.021254763,
				"z": 0.2165877049,
				"element": "H" 
			},
			{
				"x": 1.99051226,
				"y": 0.6802891371,
				"z": 0.4082641558,
				"element": "H" 
			},
			{
				"x": 1.3965833282,
				"y": 2.8179533447,
				"z": -0.7600711361,
				"element": "H" 
			},
			{
				"x": -2.7370001528,
				"y": 1.6725396165,
				"z": -0.7153961089,
				"element": "H" 
			},
			{
				"x": -2.1452829183,
				"y": -0.4411992176,
				"z": 0.4260391399,
				"element": "H" 
			},
			{
				"x": -2.6980306698,
				"y": 2.9729748794,
				"z": -2.4606194417,
				"element": "H" 
			},
			{
				"x": -2.3020249912,
				"y": 4.6215312712,
				"z": -2.7366136298,
				"element": "H" 
			}
		],
		 "valence_orbital": [ 
			{
				"type": "occ",
				"energy": -0.27163,
				"method": "rhf"
			},
			{
				"type": "occ",
				"energy": -0.26992,
				"method": "rhf"
			},
			{
				"type": "occ",
				"energy": -0.25817,
				"method": "rhf"
			},
			{
				"type": "occ",
				"energy": -0.24829,
				"method": "rhf"
			},
			{
				"type": "occ",
				"energy": -0.23947,
				"method": "rhf"
			},
			{
				"type": "unocc",
				"energy": -0.03282,
				"method": "rhf"
			},
			{
				"type": "unocc",
				"energy": -0.00899,
				"method": "rhf"
			},
			{
				"type": "unocc",
				"energy": 0.05977,
				"method": "rhf"
			},
			{
				"type": "unocc",
				"energy": 0.079,
				"method": "rhf"
			},
			{
				"type": "unocc",
				"energy": 0.08661,
				"method": "rhf"
			}
		],
		"cosmo_sigma_profile": { 
			"-0.025": 0.0,
			"-0.024": 0.0,
			"-0.023": 0.0,
			"-0.022": 0.0,
			"-0.021": 0.0,
			"-0.02": 0.0,
			"-0.019": 0.0,
			"-0.018": 0.0,
			"-0.017": 0.0,
			"-0.016": 0.0,
			"-0.015": 0.0194395457466,
			"-0.014": 1.0967349801,
			"-0.013": 2.43608193632,
			"-0.012": 2.83292684597,
			"-0.011": 2.12669375966,
			"-0.01": 2.07972797516,
			"-0.009": 2.60938609142,
			"-0.008": 2.42005033077,
			"-0.007": 3.14776972059,
			"-0.006": 5.4272819727,
			"-0.005": 9.55240790855,
			"-0.004": 17.5240949831,
			"-0.003": 23.6320087179,
			"-0.002": 20.424746656,
			"-0.001": 21.3401493404,
			"0.0": 23.3698057571,
			"0.001": 16.5224830093,
			"0.002": 10.730995054,
			"0.003": 13.9296060817,
			"0.004": 13.9292632571,
			"0.005": 3.71629845092,
			"0.006": 3.37864607099,
			"0.007": 3.00473051149,
			"0.008": 3.57333849181,
			"0.009": 2.91224250858,
			"0.01": 2.49625596543,
			"0.011": 3.21843962685,
			"0.012": 3.30982978491,
			"0.013": 3.86749591226,
			"0.014": 4.66561862253,
			"0.015": 0.347999767673,
			"0.016": 0.0,
			"0.017": 0.0,
			"0.018": 0.0,
			"0.019": 0.0,
			"0.02": 0.0,
			"0.021": 0.0,
			"0.022": 0.0,
			"0.023": 0.0,
			"0.024": 0.0,
			"0.025": 0.0
		}
	}
}
