{
	 "smiles": "CC(C)(C)C(C)(C)O", 
	 "Tm": 290.15, 
	 "num_atms": 24, 
	 "gaussian": { 
		 "optdone": 1, 
		 "sigma_profile": "yes", 
		 "theory": "DFT", 
		 "functional": "B3LYP", 
		 "basiset": "6-31G**", 
		 "properties": { 
			 "R2extent": 1193.7255, 
			 "electric_dipole_moment_norm": 1.41472216354, 
			 "electric_quadrupole_moment_norm": 4.97595612521, 
			 "total_energy": -351.624808532, 
			 "HOMO_LUMO_gap": 0.3223, 
			 "cosmo_polarized_energy": -5.34, 
			 "cosmo_cavitation_energy": 23.2, 
			 "cosmo_dispersion_energy": -16.83, 
			 "cosmo_repulsion_energy": 1.35, 
			 "cosmo_total_nonelectrostatic_energy": 7.72, 
			 "SMD_solvation_energy": 4.29 
		},
		"coords": [
			{
				"x": -0.8459544815,
				"y": -1.0395176364,
				"z": -2.3379759775,
				"element": "C" 
			},
			{
				"x": 0.1554251732,
				"y": -0.4429240668,
				"z": -1.3226243357,
				"element": "C" 
			},
			{
				"x": 1.1705058305,
				"y": 0.4085172772,
				"z": -2.1148266515,
				"element": "C" 
			},
			{
				"x": 0.9015433681,
				"y": -1.6084542005,
				"z": -0.6401223778,
				"element": "C" 
			},
			{
				"x": -0.6024570805,
				"y": 0.464173381,
				"z": -0.2698959811,
				"element": "C" 
			},
			{
				"x": -1.5648270519,
				"y": -0.3355407767,
				"z": 0.6278331741,
				"element": "C" 
			},
			{
				"x": 0.354354021,
				"y": 1.2682235711,
				"z": 0.6222151542,
				"element": "C" 
			},
			{
				"x": -1.3543844086,
				"y": 1.4765380656,
				"z": -0.9652769042,
				"element": "O" 
			},
			{
				"x": -1.3499282012,
				"y": -0.256843771,
				"z": -2.9147991713,
				"element": "H" 
			},
			{
				"x": -0.3146159786,
				"y": -1.6722333496,
				"z": -3.0565306834,
				"element": "H" 
			},
			{
				"x": -1.6077600194,
				"y": -1.6654080657,
				"z": -1.8618949708,
				"element": "H" 
			},
			{
				"x": 0.6928661632,
				"y": 1.3106515409,
				"z": -2.5067714143,
				"element": "H" 
			},
			{
				"x": 2.0219286262,
				"y": 0.7112427291,
				"z": -1.4980007253,
				"element": "H" 
			},
			{
				"x": 1.5685973079,
				"y": -0.1651164122,
				"z": -2.9590594461,
				"element": "H" 
			},
			{
				"x": 0.2159837831,
				"y": -2.312859555,
				"z": -0.1586793812,
				"element": "H" 
			},
			{
				"x": 1.611185879,
				"y": -1.2568860511,
				"z": 0.115353471,
				"element": "H" 
			},
			{
				"x": 1.4746765134,
				"y": -2.1710746406,
				"z": -1.3855473895,
				"element": "H" 
			},
			{
				"x": -2.2845534105,
				"y": -0.9207179372,
				"z": 0.0454847062,
				"element": "H" 
			},
			{
				"x": -2.1296348481,
				"y": 0.3638579105,
				"z": 1.2510079123,
				"element": "H" 
			},
			{
				"x": -1.0338285087,
				"y": -1.025574604,
				"z": 1.2894078603,
				"element": "H" 
			},
			{
				"x": -0.2278028364,
				"y": 1.8404743891,
				"z": 1.3500522457,
				"element": "H" 
			},
			{
				"x": 1.0431069939,
				"y": 0.6195857473,
				"z": 1.1698210852,
				"element": "H" 
			},
			{
				"x": 0.9354068374,
				"y": 1.9795298006,
				"z": 0.0322555352,
				"element": "H" 
			},
			{
				"x": -2.1078336714,
				"y": 1.0466566544,
				"z": -1.3894257346,
				"element": "H" 
			}
		],
		 "valence_orbital": [ 
			{
				"type": "occ",
				"energy": -0.33899,
				"method": "rhf"
			},
			{
				"type": "occ",
				"energy": -0.32259,
				"method": "rhf"
			},
			{
				"type": "occ",
				"energy": -0.31734,
				"method": "rhf"
			},
			{
				"type": "occ",
				"energy": -0.29915,
				"method": "rhf"
			},
			{
				"type": "occ",
				"energy": -0.25637,
				"method": "rhf"
			},
			{
				"type": "unocc",
				"energy": 0.06593,
				"method": "rhf"
			},
			{
				"type": "unocc",
				"energy": 0.1047,
				"method": "rhf"
			},
			{
				"type": "unocc",
				"energy": 0.12132,
				"method": "rhf"
			},
			{
				"type": "unocc",
				"energy": 0.12625,
				"method": "rhf"
			},
			{
				"type": "unocc",
				"energy": 0.13545,
				"method": "rhf"
			}
		],
		"cosmo_sigma_profile": { 
			"-0.025": 0.0,
			"-0.024": 0.0,
			"-0.023": 0.0,
			"-0.022": 0.0,
			"-0.021": 0.0,
			"-0.02": 0.0,
			"-0.019": 0.0,
			"-0.018": 0.0,
			"-0.017": 0.0,
			"-0.016": 0.0,
			"-0.015": 0.0,
			"-0.014": 0.248772319406,
			"-0.013": 0.545481211112,
			"-0.012": 1.04292391914,
			"-0.011": 0.684766631692,
			"-0.01": 0.7895761905,
			"-0.009": 0.942995052672,
			"-0.008": 1.03242091685,
			"-0.007": 1.18002577915,
			"-0.006": 1.53076377394,
			"-0.005": 1.63954824868,
			"-0.004": 4.09536934894,
			"-0.003": 12.2333569286,
			"-0.002": 31.2574005199,
			"-0.001": 26.9570388144,
			"0.0": 25.2789756775,
			"0.001": 29.5734800412,
			"0.002": 19.8403713758,
			"0.003": 3.30175228728,
			"0.004": 1.229665807,
			"0.005": 1.08955636214,
			"0.006": 1.50804903442,
			"0.007": 1.23196201656,
			"0.008": 1.59710645489,
			"0.009": 1.60954166345,
			"0.01": 1.11235655584,
			"0.011": 0.861957484982,
			"0.012": 0.994243019143,
			"0.013": 1.74757050919,
			"0.014": 1.32831888808,
			"0.015": 0.907084616672,
			"0.016": 0.0,
			"0.017": 0.0,
			"0.018": 0.0,
			"0.019": 0.0,
			"0.02": 0.0,
			"0.021": 0.0,
			"0.022": 0.0,
			"0.023": 0.0,
			"0.024": 0.0,
			"0.025": 0.0
		}
	}
}
