{
	 "smiles": "OC(=O)CNC(=O)OCC1=CC=CC=C1", 
	 "Tm": 394.15, 
	 "num_atms": 26, 
	 "gaussian": { 
		 "optdone": 1, 
		 "sigma_profile": "yes", 
		 "theory": "DFT", 
		 "functional": "B3LYP", 
		 "basiset": "6-31G**", 
		 "properties": { 
			 "R2extent": 3808.9795, 
			 "electric_dipole_moment_norm": 3.14326564102, 
			 "electric_quadrupole_moment_norm": 9.41416668484, 
			 "total_energy": -743.372854189, 
			 "HOMO_LUMO_gap": 0.23754, 
			 "cosmo_polarized_energy": -17.01, 
			 "cosmo_cavitation_energy": 31.43, 
			 "cosmo_dispersion_energy": -21.68, 
			 "cosmo_repulsion_energy": 1.75, 
			 "cosmo_total_nonelectrostatic_energy": 11.51, 
			 "SMD_solvation_energy": 6.91 
		},
		"coords": [
			{
				"x": 2.0828014888,
				"y": -2.6925900301,
				"z": -2.314078969,
				"element": "O" 
			},
			{
				"x": 2.4680533622,
				"y": -1.6054814196,
				"z": -1.6076362921,
				"element": "C" 
			},
			{
				"x": 2.8325236434,
				"y": -1.6478540176,
				"z": -0.4567417233,
				"element": "O" 
			},
			{
				"x": 2.4008743668,
				"y": -0.349338222,
				"z": -2.4715191517,
				"element": "C" 
			},
			{
				"x": 2.7003809487,
				"y": 0.860115168,
				"z": -1.7441445154,
				"element": "N" 
			},
			{
				"x": 1.792757324,
				"y": 1.5142108086,
				"z": -0.9443253925,
				"element": "C" 
			},
			{
				"x": 2.1023583061,
				"y": 2.3714219432,
				"z": -0.1369428685,
				"element": "O" 
			},
			{
				"x": 0.5251304687,
				"y": 1.1151209104,
				"z": -1.2156784594,
				"element": "O" 
			},
			{
				"x": -0.5293963519,
				"y": 1.7830920923,
				"z": -0.4707435726,
				"element": "C" 
			},
			{
				"x": -0.9472813603,
				"y": 0.9912655061,
				"z": 0.7432440592,
				"element": "C" 
			},
			{
				"x": -0.1728339249,
				"y": 1.0218650537,
				"z": 1.9124577929,
				"element": "C" 
			},
			{
				"x": -0.5591538154,
				"y": 0.2845948273,
				"z": 3.0309897434,
				"element": "C" 
			},
			{
				"x": -1.7241250369,
				"y": -0.486462615,
				"z": 2.9974812294,
				"element": "C" 
			},
			{
				"x": -2.5013502445,
				"y": -0.5199875109,
				"z": 1.8389393438,
				"element": "C" 
			},
			{
				"x": -2.1112858616,
				"y": 0.2145188061,
				"z": 0.7176374018,
				"element": "C" 
			},
			{
				"x": 2.1585986239,
				"y": -3.4529950041,
				"z": -1.713257794,
				"element": "H" 
			},
			{
				"x": 3.1079624095,
				"y": -0.4692951935,
				"z": -3.3002889821,
				"element": "H" 
			},
			{
				"x": 1.4055912581,
				"y": -0.2783894099,
				"z": -2.9126764231,
				"element": "H" 
			},
			{
				"x": 3.6466692446,
				"y": 0.9753621404,
				"z": -1.4095818298,
				"element": "H" 
			},
			{
				"x": -1.3540244199,
				"y": 1.8717896804,
				"z": -1.1815287902,
				"element": "H" 
			},
			{
				"x": -0.1717253295,
				"y": 2.7767797903,
				"z": -0.1952255315,
				"element": "H" 
			},
			{
				"x": 0.7326394701,
				"y": 1.6207439292,
				"z": 1.9305768793,
				"element": "H" 
			},
			{
				"x": 0.0473206758,
				"y": 0.3142102975,
				"z": 3.9317482778,
				"element": "H" 
			},
			{
				"x": -2.0252521477,
				"y": -1.0566755568,
				"z": 3.8718236102,
				"element": "H" 
			},
			{
				"x": -3.4091995789,
				"y": -1.1158443263,
				"z": 1.8074622635,
				"element": "H" 
			},
			{
				"x": -2.717833519,
				"y": 0.1875223525,
				"z": -0.184690306,
				"element": "H" 
			}
		],
		 "valence_orbital": [ 
			{
				"type": "occ",
				"energy": -0.29005,
				"method": "rhf"
			},
			{
				"type": "occ",
				"energy": -0.27432,
				"method": "rhf"
			},
			{
				"type": "occ",
				"energy": -0.26225,
				"method": "rhf"
			},
			{
				"type": "occ",
				"energy": -0.24815,
				"method": "rhf"
			},
			{
				"type": "occ",
				"energy": -0.24543,
				"method": "rhf"
			},
			{
				"type": "unocc",
				"energy": -0.00789,
				"method": "rhf"
			},
			{
				"type": "unocc",
				"energy": 0.00104,
				"method": "rhf"
			},
			{
				"type": "unocc",
				"energy": 0.00223,
				"method": "rhf"
			},
			{
				"type": "unocc",
				"energy": 0.04764,
				"method": "rhf"
			},
			{
				"type": "unocc",
				"energy": 0.07221,
				"method": "rhf"
			}
		],
		"cosmo_sigma_profile": { 
			"-0.025": 0.0,
			"-0.024": 0.0,
			"-0.023": 0.0,
			"-0.022": 0.0,
			"-0.021": 0.0,
			"-0.02": 0.0,
			"-0.019": 0.263862982447,
			"-0.018": 0.736109490976,
			"-0.017": 1.19817874009,
			"-0.016": 0.8582013008,
			"-0.015": 0.83080425232,
			"-0.014": 1.61019562727,
			"-0.013": 1.10458800005,
			"-0.012": 2.13350457488,
			"-0.011": 2.17778066408,
			"-0.01": 2.06853375039,
			"-0.009": 3.12315418336,
			"-0.008": 4.17360481583,
			"-0.007": 5.31598512222,
			"-0.006": 13.548329618,
			"-0.005": 17.1625288575,
			"-0.004": 17.8647112501,
			"-0.003": 18.7720669465,
			"-0.002": 13.8333854189,
			"-0.001": 12.6598361965,
			"0.0": 12.9897885743,
			"0.001": 14.3997443997,
			"0.002": 14.6916882648,
			"0.003": 14.1842862787,
			"0.004": 17.3329471152,
			"0.005": 17.4957979406,
			"0.006": 8.38719522827,
			"0.007": 4.30662508926,
			"0.008": 4.01080956264,
			"0.009": 3.9900393158,
			"0.01": 3.71895139836,
			"0.011": 6.33968384603,
			"0.012": 4.66867509347,
			"0.013": 3.41394342635,
			"0.014": 0.292376504337,
			"0.015": 0.0,
			"0.016": 0.0,
			"0.017": 0.0,
			"0.018": 0.0,
			"0.019": 0.0,
			"0.02": 0.0,
			"0.021": 0.0,
			"0.022": 0.0,
			"0.023": 0.0,
			"0.024": 0.0,
			"0.025": 0.0
		}
	}
}
