{
	 "smiles": "CCOC(=O)C1=C(C)C(C)=C(C)N1", 
	 "Tm": 399.15, 
	 "num_atms": 28, 
	 "gaussian": { 
		 "optdone": 1, 
		 "sigma_profile": "yes", 
		 "theory": "DFT", 
		 "functional": "B3LYP", 
		 "basiset": "6-31G**", 
		 "properties": { 
			 "R2extent": 3492.8289, 
			 "electric_dipole_moment_norm": 1.33524105314, 
			 "electric_quadrupole_moment_norm": 10.5673316708, 
			 "total_energy": -595.341409139, 
			 "HOMO_LUMO_gap": 0.18849, 
			 "cosmo_polarized_energy": -8.99, 
			 "cosmo_cavitation_energy": 31.15, 
			 "cosmo_dispersion_energy": -21.98, 
			 "cosmo_repulsion_energy": 1.78, 
			 "cosmo_total_nonelectrostatic_energy": 10.95, 
			 "SMD_solvation_energy": 6.37 
		},
		"coords": [
			{
				"x": 3.3890752533,
				"y": 2.8050362374,
				"z": -2.8622875158,
				"element": "C" 
			},
			{
				"x": 3.2641721953,
				"y": 1.3084933904,
				"z": -2.6459566515,
				"element": "C" 
			},
			{
				"x": 2.0779198577,
				"y": 1.0823713919,
				"z": -1.856488673,
				"element": "O" 
			},
			{
				"x": 1.8094809194,
				"y": -0.214383699,
				"z": -1.5652653452,
				"element": "C" 
			},
			{
				"x": 2.5107381377,
				"y": -1.147564695,
				"z": -1.9363273403,
				"element": "O" 
			},
			{
				"x": 0.6059501986,
				"y": -0.3818579476,
				"z": -0.7710617087,
				"element": "C" 
			},
			{
				"x": -0.3495937472,
				"y": 0.4816447172,
				"z": -0.230058587,
				"element": "C" 
			},
			{
				"x": -0.3820025758,
				"y": 1.978302016,
				"z": -0.3433951429,
				"element": "C" 
			},
			{
				"x": -1.2955847044,
				"y": -0.3309662023,
				"z": 0.4552074186,
				"element": "C" 
			},
			{
				"x": -2.5120099635,
				"y": 0.1420036631,
				"z": 1.2000535652,
				"element": "C" 
			},
			{
				"x": -0.8933860862,
				"y": -1.6614079092,
				"z": 0.3142168479,
				"element": "C" 
			},
			{
				"x": -1.5107899312,
				"y": -2.9256778059,
				"z": 0.8271928128,
				"element": "C" 
			},
			{
				"x": 0.2493329158,
				"y": -1.6688484991,
				"z": -0.4248302711,
				"element": "N" 
			},
			{
				"x": 3.4780223026,
				"y": 3.3322936367,
				"z": -1.9079419834,
				"element": "H" 
			},
			{
				"x": 4.2804058054,
				"y": 3.0216749113,
				"z": -3.45949933,
				"element": "H" 
			},
			{
				"x": 2.5163393335,
				"y": 3.1980684936,
				"z": -3.3919523146,
				"element": "H" 
			},
			{
				"x": 4.1295382279,
				"y": 0.8973698031,
				"z": -2.1158935541,
				"element": "H" 
			},
			{
				"x": 3.1729861812,
				"y": 0.7639137033,
				"z": -3.5914528978,
				"element": "H" 
			},
			{
				"x": -0.4315807287,
				"y": 2.3021660613,
				"z": -1.3881803514,
				"element": "H" 
			},
			{
				"x": -1.2486693254,
				"y": 2.3901219203,
				"z": 0.1804102437,
				"element": "H" 
			},
			{
				"x": 0.5187955254,
				"y": 2.4340131557,
				"z": 0.0806649903,
				"element": "H" 
			},
			{
				"x": -3.2081854328,
				"y": 0.684381182,
				"z": 0.5487411727,
				"element": "H" 
			},
			{
				"x": -3.0627392947,
				"y": -0.6985297309,
				"z": 1.6323974091,
				"element": "H" 
			},
			{
				"x": -2.2528909338,
				"y": 0.8174859144,
				"z": 2.0244438449,
				"element": "H" 
			},
			{
				"x": -0.923727343,
				"y": -3.7985801247,
				"z": 0.5261196798,
				"element": "H" 
			},
			{
				"x": -2.5279185507,
				"y": -3.0651380386,
				"z": 0.4437344375,
				"element": "H" 
			},
			{
				"x": -1.572467266,
				"y": -2.9322022628,
				"z": 1.9213537551,
				"element": "H" 
			},
			{
				"x": 0.7970890296,
				"y": -2.4684832827,
				"z": -0.7077445107,
				"element": "H" 
			}
		],
		 "valence_orbital": [ 
			{
				"type": "occ",
				"energy": -0.33269,
				"method": "rhf"
			},
			{
				"type": "occ",
				"energy": -0.28665,
				"method": "rhf"
			},
			{
				"type": "occ",
				"energy": -0.26173,
				"method": "rhf"
			},
			{
				"type": "occ",
				"energy": -0.22685,
				"method": "rhf"
			},
			{
				"type": "occ",
				"energy": -0.20133,
				"method": "rhf"
			},
			{
				"type": "unocc",
				"energy": -0.01284,
				"method": "rhf"
			},
			{
				"type": "unocc",
				"energy": 0.06387,
				"method": "rhf"
			},
			{
				"type": "unocc",
				"energy": 0.08731,
				"method": "rhf"
			},
			{
				"type": "unocc",
				"energy": 0.10243,
				"method": "rhf"
			},
			{
				"type": "unocc",
				"energy": 0.10493,
				"method": "rhf"
			}
		],
		"cosmo_sigma_profile": { 
			"-0.025": 0.0,
			"-0.024": 0.0,
			"-0.023": 0.0,
			"-0.022": 0.0,
			"-0.021": 0.0,
			"-0.02": 0.0,
			"-0.019": 0.0,
			"-0.018": 0.0,
			"-0.017": 0.0,
			"-0.016": 0.0,
			"-0.015": 0.0,
			"-0.014": 0.59643581674,
			"-0.013": 0.614408841425,
			"-0.012": 0.74058374627,
			"-0.011": 1.45680913857,
			"-0.01": 1.05503012642,
			"-0.009": 0.772359848384,
			"-0.008": 1.44623538395,
			"-0.007": 1.51834355944,
			"-0.006": 1.45920077011,
			"-0.005": 6.78682457306,
			"-0.004": 18.1177595897,
			"-0.003": 30.5517569047,
			"-0.002": 30.9985813054,
			"-0.001": 30.2883260324,
			"0.0": 29.1410092567,
			"0.001": 22.9505252424,
			"0.002": 12.3112008381,
			"0.003": 9.93178597546,
			"0.004": 10.2264790887,
			"0.005": 9.17459886492,
			"0.006": 8.17811884765,
			"0.007": 2.86862095082,
			"0.008": 1.11703947058,
			"0.009": 1.43472008616,
			"0.01": 1.17050446241,
			"0.011": 1.92038860031,
			"0.012": 2.70452438585,
			"0.013": 4.16050772377,
			"0.014": 0.477751689564,
			"0.015": 0.0,
			"0.016": 0.0,
			"0.017": 0.0,
			"0.018": 0.0,
			"0.019": 0.0,
			"0.02": 0.0,
			"0.021": 0.0,
			"0.022": 0.0,
			"0.023": 0.0,
			"0.024": 0.0,
			"0.025": 0.0
		}
	}
}
