{
	 "smiles": "OC(=O)C1=CN=C(Br)C=C1", 
	 "Tm": 456.65, 
	 "num_atms": 14, 
	 "gaussian": { 
		 "optdone": 1, 
		 "sigma_profile": "yes", 
		 "theory": "DFT", 
		 "functional": "B3LYP", 
		 "basiset": "6-31G**", 
		 "properties": { 
			 "R2extent": 4629.5097, 
			 "electric_dipole_moment_norm": 4.3802475478, 
			 "electric_quadrupole_moment_norm": 9.67550140975, 
			 "total_energy": -3007.64843037, 
			 "HOMO_LUMO_gap": 0.19614, 
			 "cosmo_polarized_energy": -16.59, 
			 "cosmo_cavitation_energy": 21.66, 
			 "cosmo_dispersion_energy": -16.61, 
			 "cosmo_repulsion_energy": 1.34, 
			 "cosmo_total_nonelectrostatic_energy": 6.39, 
			 "SMD_solvation_energy": 2.41 
		},
		"coords": [
			{
				"x": -1.4699464297,
				"y": 1.1093079586,
				"z": 0.6224171063,
				"element": "O" 
			},
			{
				"x": -0.3841426169,
				"y": 0.8601742953,
				"z": -0.1564208832,
				"element": "C" 
			},
			{
				"x": 0.1005992466,
				"y": 1.7413403365,
				"z": -0.824262073,
				"element": "O" 
			},
			{
				"x": 0.1554890561,
				"y": -0.5371117039,
				"z": -0.1377103334,
				"element": "C" 
			},
			{
				"x": 1.4749248929,
				"y": -0.7388321755,
				"z": -0.5635416991,
				"element": "C" 
			},
			{
				"x": 2.0644786736,
				"y": -1.9383741614,
				"z": -0.5973323747,
				"element": "N" 
			},
			{
				"x": 1.344165082,
				"y": -2.9817024174,
				"z": -0.2237009036,
				"element": "C" 
			},
			{
				"x": 2.2024081603,
				"y": -4.6918934299,
				"z": -0.2807517164,
				"element": "Br" 
			},
			{
				"x": 0.0127046246,
				"y": -2.9209104998,
				"z": 0.199172208,
				"element": "C" 
			},
			{
				"x": -0.5840999906,
				"y": -1.6662847624,
				"z": 0.2407388938,
				"element": "C" 
			},
			{
				"x": -1.6363298597,
				"y": 0.3730146546,
				"z": 1.2267521822,
				"element": "H" 
			},
			{
				"x": 2.0682761529,
				"y": 0.1126295113,
				"z": -0.8840786823,
				"element": "H" 
			},
			{
				"x": -0.5253368394,
				"y": -3.8196780495,
				"z": 0.4732981489,
				"element": "H" 
			},
			{
				"x": -1.6279901527,
				"y": -1.5870795565,
				"z": 0.5348201265,
				"element": "H" 
			}
		],
		 "valence_orbital": [ 
			{
				"type": "occ",
				"energy": -0.32061,
				"method": "rhf"
			},
			{
				"type": "occ",
				"energy": -0.30401,
				"method": "rhf"
			},
			{
				"type": "occ",
				"energy": -0.29609,
				"method": "rhf"
			},
			{
				"type": "occ",
				"energy": -0.28439,
				"method": "rhf"
			},
			{
				"type": "occ",
				"energy": -0.27191,
				"method": "rhf"
			},
			{
				"type": "unocc",
				"energy": -0.07577,
				"method": "rhf"
			},
			{
				"type": "unocc",
				"energy": -0.05771,
				"method": "rhf"
			},
			{
				"type": "unocc",
				"energy": -0.00674,
				"method": "rhf"
			},
			{
				"type": "unocc",
				"energy": 0.02279,
				"method": "rhf"
			},
			{
				"type": "unocc",
				"energy": 0.04786,
				"method": "rhf"
			}
		],
		"cosmo_sigma_profile": { 
			"-0.025": 0.0,
			"-0.024": 0.0,
			"-0.023": 0.0,
			"-0.022": 0.0,
			"-0.021": 0.0,
			"-0.02": 0.347948394154,
			"-0.019": 0.922062190062,
			"-0.018": 1.27040505794,
			"-0.017": 0.835582435138,
			"-0.016": 1.29128982756,
			"-0.015": 1.27480463235,
			"-0.014": 1.02907054498,
			"-0.013": 0.810938275979,
			"-0.012": 1.49533711435,
			"-0.011": 1.51508534546,
			"-0.01": 1.66273904636,
			"-0.009": 3.85348554605,
			"-0.008": 5.84472673607,
			"-0.007": 4.42888946247,
			"-0.006": 5.13025817276,
			"-0.005": 7.11870688131,
			"-0.004": 7.52517336578,
			"-0.003": 9.89571086172,
			"-0.002": 13.3202327043,
			"-0.001": 17.4633140312,
			"0.0": 11.0144616427,
			"0.001": 8.20870788097,
			"0.002": 9.22760673781,
			"0.003": 10.9010961041,
			"0.004": 11.0624280153,
			"0.005": 5.47251981538,
			"0.006": 4.96494690788,
			"0.007": 3.30960580284,
			"0.008": 4.77270520806,
			"0.009": 4.59319712566,
			"0.01": 6.50815916954,
			"0.011": 6.15047763203,
			"0.012": 3.45388405725,
			"0.013": 1.27715139416,
			"0.014": 0.123138294339,
			"0.015": 0.0,
			"0.016": 0.0,
			"0.017": 0.0,
			"0.018": 0.0,
			"0.019": 0.0,
			"0.02": 0.0,
			"0.021": 0.0,
			"0.022": 0.0,
			"0.023": 0.0,
			"0.024": 0.0,
			"0.025": 0.0
		}
	}
}
