{
	 "smiles": "OC(=O)CCCC1=C(Cl)SC(Cl)=C1", 
	 "Tm": 316.15, 
	 "num_atms": 21, 
	 "gaussian": { 
		 "optdone": 1, 
		 "sigma_profile": "yes", 
		 "theory": "DFT", 
		 "functional": "B3LYP", 
		 "basiset": "6-31G**", 
		 "properties": { 
			 "R2extent": 5070.1499, 
			 "electric_dipole_moment_norm": 2.90667809191, 
			 "electric_quadrupole_moment_norm": 3.70468377868, 
			 "total_energy": -1778.69175968, 
			 "HOMO_LUMO_gap": 0.19718, 
			 "cosmo_polarized_energy": -8.08, 
			 "cosmo_cavitation_energy": 30.12, 
			 "cosmo_dispersion_energy": -22.13, 
			 "cosmo_repulsion_energy": 1.74, 
			 "cosmo_total_nonelectrostatic_energy": 9.74, 
			 "SMD_solvation_energy": 5.03 
		},
		"coords": [
			{
				"x": -2.7204552797,
				"y": -1.8213146544,
				"z": 0.6271394344,
				"element": "O" 
			},
			{
				"x": -1.5965783607,
				"y": -1.068550967,
				"z": 0.5984962176,
				"element": "C" 
			},
			{
				"x": -1.3324872053,
				"y": -0.2710079271,
				"z": 1.4772157743,
				"element": "O" 
			},
			{
				"x": -0.7765020973,
				"y": -1.3076813613,
				"z": -0.6479535194,
				"element": "C" 
			},
			{
				"x": -1.0978573825,
				"y": -0.2770497598,
				"z": -1.755532402,
				"element": "C" 
			},
			{
				"x": -0.7892241625,
				"y": 1.1932415963,
				"z": -1.3957955167,
				"element": "C" 
			},
			{
				"x": 0.6684383168,
				"y": 1.4730376292,
				"z": -1.1250459779,
				"element": "C" 
			},
			{
				"x": 1.589401288,
				"y": 1.8584342656,
				"z": -2.0639330733,
				"element": "C" 
			},
			{
				"x": 1.3064319358,
				"y": 2.1285277115,
				"z": -3.7553681909,
				"element": "Cl" 
			},
			{
				"x": 3.1931859344,
				"y": 2.0988798074,
				"z": -1.4137331306,
				"element": "S" 
			},
			{
				"x": 2.6042870277,
				"y": 1.6616289547,
				"z": 0.1711471235,
				"element": "C" 
			},
			{
				"x": 3.6833220817,
				"y": 1.6472112345,
				"z": 1.5253166011,
				"element": "Cl" 
			},
			{
				"x": 1.2752476628,
				"y": 1.3603479539,
				"z": 0.1749650555,
				"element": "C" 
			},
			{
				"x": -3.1942701278,
				"y": -1.5734566401,
				"z": 1.4396305429,
				"element": "H" 
			},
			{
				"x": 0.2783032193,
				"y": -1.2390057292,
				"z": -0.3691984478,
				"element": "H" 
			},
			{
				"x": -0.9746751369,
				"y": -2.315042837,
				"z": -1.0226479114,
				"element": "H" 
			},
			{
				"x": -2.1585552099,
				"y": -0.3579965892,
				"z": -2.0213714715,
				"element": "H" 
			},
			{
				"x": -0.5273167147,
				"y": -0.556568335,
				"z": -2.6477728295,
				"element": "H" 
			},
			{
				"x": -1.3708089018,
				"y": 1.4863370427,
				"z": -0.5160626442,
				"element": "H" 
			},
			{
				"x": -1.1275003111,
				"y": 1.8215279855,
				"z": -2.225859997,
				"element": "H" 
			},
			{
				"x": 0.7193134237,
				"y": 1.0578006189,
				"z": 1.0548643627,
				"element": "H" 
			}
		],
		 "valence_orbital": [ 
			{
				"type": "occ",
				"energy": -0.32065,
				"method": "rhf"
			},
			{
				"type": "occ",
				"energy": -0.31784,
				"method": "rhf"
			},
			{
				"type": "occ",
				"energy": -0.28401,
				"method": "rhf"
			},
			{
				"type": "occ",
				"energy": -0.26177,
				"method": "rhf"
			},
			{
				"type": "occ",
				"energy": -0.22654,
				"method": "rhf"
			},
			{
				"type": "unocc",
				"energy": -0.02936,
				"method": "rhf"
			},
			{
				"type": "unocc",
				"energy": -0.0045,
				"method": "rhf"
			},
			{
				"type": "unocc",
				"energy": 0.00238,
				"method": "rhf"
			},
			{
				"type": "unocc",
				"energy": 0.0037,
				"method": "rhf"
			},
			{
				"type": "unocc",
				"energy": 0.04688,
				"method": "rhf"
			}
		],
		"cosmo_sigma_profile": { 
			"-0.025": 0.0,
			"-0.024": 0.0,
			"-0.023": 0.0,
			"-0.022": 0.0,
			"-0.021": 0.0,
			"-0.02": 0.0,
			"-0.019": 0.0,
			"-0.018": 0.619454274827,
			"-0.017": 0.959691797343,
			"-0.016": 0.797801800179,
			"-0.015": 0.774131538431,
			"-0.014": 0.754548206922,
			"-0.013": 0.915584251843,
			"-0.012": 0.405710104455,
			"-0.011": 0.659856678129,
			"-0.01": 1.11389844481,
			"-0.009": 0.371990976873,
			"-0.008": 0.666669250972,
			"-0.007": 0.589935428205,
			"-0.006": 1.50797584449,
			"-0.005": 5.49659548873,
			"-0.004": 17.4559751286,
			"-0.003": 24.9558865357,
			"-0.002": 27.2638990677,
			"-0.001": 25.9950584268,
			"0.0": 22.8213468344,
			"0.001": 27.9276733378,
			"0.002": 28.8371834014,
			"0.003": 24.5476554126,
			"0.004": 11.3668654163,
			"0.005": 2.88974864603,
			"0.006": 2.07460412891,
			"0.007": 2.39915577197,
			"0.008": 2.1122665182,
			"0.009": 3.41808504378,
			"0.01": 2.28644559149,
			"0.011": 2.11247856996,
			"0.012": 2.01955378252,
			"0.013": 0.0822657525941,
			"0.014": 0.0,
			"0.015": 0.0,
			"0.016": 0.0,
			"0.017": 0.0,
			"0.018": 0.0,
			"0.019": 0.0,
			"0.02": 0.0,
			"0.021": 0.0,
			"0.022": 0.0,
			"0.023": 0.0,
			"0.024": 0.0,
			"0.025": 0.0
		}
	}
}
