{
	 "smiles": "CC1=NN=C(S)N1N", 
	 "Tm": 460.15, 
	 "num_atms": 14, 
	 "gaussian": { 
		 "optdone": 1, 
		 "sigma_profile": "yes", 
		 "theory": "DFT", 
		 "functional": "B3LYP", 
		 "basiset": "6-31G**", 
		 "properties": { 
			 "R2extent": 2218.4581, 
			 "electric_dipole_moment_norm": 7.06614556459, 
			 "electric_quadrupole_moment_norm": 14.209329651, 
			 "total_energy": -735.0668113, 
			 "HOMO_LUMO_gap": 0.24125, 
			 "cosmo_polarized_energy": -22.27, 
			 "cosmo_cavitation_energy": 19.89, 
			 "cosmo_dispersion_energy": -15.3, 
			 "cosmo_repulsion_energy": 1.23, 
			 "cosmo_total_nonelectrostatic_energy": 5.83, 
			 "SMD_solvation_energy": 1.61 
		},
		"coords": [
			{
				"x": -0.1973632905,
				"y": -1.2719476309,
				"z": -0.9341188196,
				"element": "C" 
			},
			{
				"x": 0.2003304809,
				"y": -1.3442142181,
				"z": 0.4994757628,
				"element": "C" 
			},
			{
				"x": 1.1863359026,
				"y": -2.0410595918,
				"z": 1.0006609555,
				"element": "N" 
			},
			{
				"x": 1.2154130118,
				"y": -1.8309483968,
				"z": 2.3762335762,
				"element": "N" 
			},
			{
				"x": 0.2400986631,
				"y": -1.0088652924,
				"z": 2.6632815596,
				"element": "C" 
			},
			{
				"x": -0.1585547322,
				"y": -0.4195335699,
				"z": 4.2743856484,
				"element": "S" 
			},
			{
				"x": -0.444404191,
				"y": -0.6603906315,
				"z": 1.517348676,
				"element": "N" 
			},
			{
				"x": -1.541584967,
				"y": 0.2018239521,
				"z": 1.4703477129,
				"element": "N" 
			},
			{
				"x": 0.4808895006,
				"y": -1.9063515361,
				"z": -1.5064537425,
				"element": "H" 
			},
			{
				"x": -1.2220696052,
				"y": -1.6275669243,
				"z": -1.095901013,
				"element": "H" 
			},
			{
				"x": -0.1313154728,
				"y": -0.2510286469,
				"z": -1.3291165446,
				"element": "H" 
			},
			{
				"x": -1.1932896523,
				"y": 0.3265529903,
				"z": 3.8315743842,
				"element": "H" 
			},
			{
				"x": -2.3496659181,
				"y": -0.2886738365,
				"z": 1.0947601837,
				"element": "H" 
			},
			{
				"x": -1.32811973,
				"y": 0.9993033328,
				"z": 0.8761216603,
				"element": "H" 
			}
		],
		 "valence_orbital": [ 
			{
				"type": "occ",
				"energy": -0.30573,
				"method": "rhf"
			},
			{
				"type": "occ",
				"energy": -0.3052,
				"method": "rhf"
			},
			{
				"type": "occ",
				"energy": -0.29396,
				"method": "rhf"
			},
			{
				"type": "occ",
				"energy": -0.24761,
				"method": "rhf"
			},
			{
				"type": "occ",
				"energy": -0.22541,
				"method": "rhf"
			},
			{
				"type": "unocc",
				"energy": 0.01584,
				"method": "rhf"
			},
			{
				"type": "unocc",
				"energy": 0.01988,
				"method": "rhf"
			},
			{
				"type": "unocc",
				"energy": 0.03538,
				"method": "rhf"
			},
			{
				"type": "unocc",
				"energy": 0.04836,
				"method": "rhf"
			},
			{
				"type": "unocc",
				"energy": 0.07423,
				"method": "rhf"
			}
		],
		"cosmo_sigma_profile": { 
			"-0.025": 0.0,
			"-0.024": 0.0,
			"-0.023": 0.0,
			"-0.022": 0.0,
			"-0.021": 0.0,
			"-0.02": 0.0,
			"-0.019": 0.0,
			"-0.018": 0.0,
			"-0.017": 0.0,
			"-0.016": 0.0,
			"-0.015": 0.000723382632358,
			"-0.014": 2.19833077016,
			"-0.013": 4.04803256925,
			"-0.012": 4.20392942745,
			"-0.011": 3.80791215616,
			"-0.01": 3.69937696634,
			"-0.009": 3.63610864323,
			"-0.008": 3.93729514998,
			"-0.007": 4.63968981247,
			"-0.006": 7.04851876923,
			"-0.005": 8.02596235371,
			"-0.004": 8.00943853302,
			"-0.003": 9.82944747088,
			"-0.002": 12.1005645334,
			"-0.001": 8.6058998807,
			"0.0": 6.44221906194,
			"0.001": 6.75688794367,
			"0.002": 8.68432878989,
			"0.003": 6.40149847489,
			"0.004": 7.5244588791,
			"0.005": 6.46438904387,
			"0.006": 4.95137465915,
			"0.007": 4.76133598351,
			"0.008": 2.33605710987,
			"0.009": 1.74774362047,
			"0.01": 1.58832234226,
			"0.011": 2.59738425627,
			"0.012": 2.51333068375,
			"0.013": 2.8343865868,
			"0.014": 4.23444076717,
			"0.015": 2.547618158,
			"0.016": 2.43980497021,
			"0.017": 1.86187281854,
			"0.018": 0.0947057110941,
			"0.019": 0.0,
			"0.02": 0.0,
			"0.021": 0.0,
			"0.022": 0.0,
			"0.023": 0.0,
			"0.024": 0.0,
			"0.025": 0.0
		}
	}
}
