{
	 "smiles": "OC(C1=CC=CC=C1)C1=C(F)C(F)=C(F)C(F)=C1F", 
	 "Tm": 328.65, 
	 "num_atms": 26, 
	 "gaussian": { 
		 "optdone": 1, 
		 "sigma_profile": "yes", 
		 "theory": "DFT", 
		 "functional": "B3LYP", 
		 "basiset": "6-31G**", 
		 "properties": { 
			 "R2extent": 6382.8409, 
			 "electric_dipole_moment_norm": 2.95235642496, 
			 "electric_quadrupole_moment_norm": 4.79045446905, 
			 "total_energy": -1073.9532612, 
			 "HOMO_LUMO_gap": 0.21567, 
			 "cosmo_polarized_energy": -8.27, 
			 "cosmo_cavitation_energy": 33.32, 
			 "cosmo_dispersion_energy": -22.83, 
			 "cosmo_repulsion_energy": 1.66, 
			 "cosmo_total_nonelectrostatic_energy": 12.14, 
			 "SMD_solvation_energy": 7.83 
		},
		"coords": [
			{
				"x": -2.365666186,
				"y": 1.8491800056,
				"z": 1.1089243316,
				"element": "O" 
			},
			{
				"x": -1.411461225,
				"y": 0.8091474191,
				"z": 1.2787630781,
				"element": "C" 
			},
			{
				"x": -0.1022251679,
				"y": 1.0646949541,
				"z": 0.5344141665,
				"element": "C" 
			},
			{
				"x": 1.0848668747,
				"y": 0.4962289963,
				"z": 1.0129840445,
				"element": "C" 
			},
			{
				"x": 2.2904542612,
				"y": 0.7103529319,
				"z": 0.3457130558,
				"element": "C" 
			},
			{
				"x": 2.321422125,
				"y": 1.5022569158,
				"z": -0.8047521994,
				"element": "C" 
			},
			{
				"x": 1.1413659279,
				"y": 2.0736594171,
				"z": -1.2837097443,
				"element": "C" 
			},
			{
				"x": -0.0673163275,
				"y": 1.8546344649,
				"z": -0.6201389939,
				"element": "C" 
			},
			{
				"x": -2.0733055603,
				"y": -0.4879343755,
				"z": 0.8369263952,
				"element": "C" 
			},
			{
				"x": -2.0452953661,
				"y": -1.6112504616,
				"z": 1.6649826542,
				"element": "C" 
			},
			{
				"x": -1.4228979078,
				"y": -1.5520292775,
				"z": 2.8582394151,
				"element": "F" 
			},
			{
				"x": -2.6367411344,
				"y": -2.8199307021,
				"z": 1.3060491517,
				"element": "C" 
			},
			{
				"x": -2.5875291397,
				"y": -3.8729359217,
				"z": 2.1301094187,
				"element": "F" 
			},
			{
				"x": -3.2851979336,
				"y": -2.9228668517,
				"z": 0.0789818975,
				"element": "C" 
			},
			{
				"x": -3.8589559877,
				"y": -4.073416604,
				"z": -0.2827354049,
				"element": "F" 
			},
			{
				"x": -3.3275576071,
				"y": -1.8221365007,
				"z": -0.7738973325,
				"element": "C" 
			},
			{
				"x": -3.9432849352,
				"y": -1.9219395321,
				"z": -1.957373701,
				"element": "F" 
			},
			{
				"x": -2.7222007941,
				"y": -0.6264202403,
				"z": -0.3936208898,
				"element": "C" 
			},
			{
				"x": -2.7737582383,
				"y": 0.3935678534,
				"z": -1.2599780185,
				"element": "F" 
			},
			{
				"x": -1.9286974127,
				"y": 2.6789872662,
				"z": 1.3443514603,
				"element": "H" 
			},
			{
				"x": -1.1686167773,
				"y": 0.6865538958,
				"z": 2.3422710448,
				"element": "H" 
			},
			{
				"x": 1.0611883938,
				"y": -0.117457592,
				"z": 1.9107518465,
				"element": "H" 
			},
			{
				"x": 3.2054963459,
				"y": 0.2662605399,
				"z": 0.727095763,
				"element": "H" 
			},
			{
				"x": 3.2605094715,
				"y": 1.6744458521,
				"z": -1.3226334518,
				"element": "H" 
			},
			{
				"x": 1.1596683135,
				"y": 2.6902071314,
				"z": -2.1780103107,
				"element": "H" 
			},
			{
				"x": -0.9882640126,
				"y": 2.2894404158,
				"z": -0.9929076765,
				"element": "H" 
			}
		],
		 "valence_orbital": [ 
			{
				"type": "occ",
				"energy": -0.29255,
				"method": "rhf"
			},
			{
				"type": "occ",
				"energy": -0.26543,
				"method": "rhf"
			},
			{
				"type": "occ",
				"energy": -0.25789,
				"method": "rhf"
			},
			{
				"type": "occ",
				"energy": -0.254,
				"method": "rhf"
			},
			{
				"type": "occ",
				"energy": -0.24884,
				"method": "rhf"
			},
			{
				"type": "unocc",
				"energy": -0.03317,
				"method": "rhf"
			},
			{
				"type": "unocc",
				"energy": -0.01636,
				"method": "rhf"
			},
			{
				"type": "unocc",
				"energy": -0.00887,
				"method": "rhf"
			},
			{
				"type": "unocc",
				"energy": -0.00511,
				"method": "rhf"
			},
			{
				"type": "unocc",
				"energy": 0.0165,
				"method": "rhf"
			}
		],
		"cosmo_sigma_profile": { 
			"-0.025": 0.0,
			"-0.024": 0.0,
			"-0.023": 0.0,
			"-0.022": 0.0,
			"-0.021": 0.0,
			"-0.02": 0.0,
			"-0.019": 0.0,
			"-0.018": 0.0,
			"-0.017": 0.0,
			"-0.016": 0.926437268914,
			"-0.015": 0.800685615745,
			"-0.014": 0.6275191078,
			"-0.013": 0.724361430098,
			"-0.012": 1.06247785729,
			"-0.011": 0.876446740786,
			"-0.01": 0.947381093492,
			"-0.009": 0.740729796354,
			"-0.008": 1.05501704274,
			"-0.007": 1.37371564988,
			"-0.006": 6.11397341852,
			"-0.005": 12.3320019326,
			"-0.004": 21.187715374,
			"-0.003": 32.1522445925,
			"-0.002": 19.638961372,
			"-0.001": 18.3938555981,
			"0.0": 14.1235712208,
			"0.001": 18.0922519564,
			"0.002": 38.1970723425,
			"0.003": 43.1948754245,
			"0.004": 10.9808053939,
			"0.005": 10.7822466865,
			"0.006": 5.15370581201,
			"0.007": 1.28254296371,
			"0.008": 1.3949324739,
			"0.009": 1.53309148973,
			"0.01": 1.41426113863,
			"0.011": 1.31147068504,
			"0.012": 1.49546351044,
			"0.013": 0.531201129157,
			"0.014": 0.0,
			"0.015": 0.0,
			"0.016": 0.0,
			"0.017": 0.0,
			"0.018": 0.0,
			"0.019": 0.0,
			"0.02": 0.0,
			"0.021": 0.0,
			"0.022": 0.0,
			"0.023": 0.0,
			"0.024": 0.0,
			"0.025": 0.0
		}
	}
}
