{
	 "smiles": "CC1=CC=C(C=C1)S(=O)(=O)OCC1CCC(=O)O1", 
	 "Tm": 359.65, 
	 "num_atms": 32, 
	 "gaussian": { 
		 "optdone": 1, 
		 "sigma_profile": "yes", 
		 "theory": "DFT", 
		 "functional": "B3LYP", 
		 "basiset": "6-31G**", 
		 "properties": { 
			 "R2extent": 6932.0306, 
			 "electric_dipole_moment_norm": 0.461343537941, 
			 "electric_quadrupole_moment_norm": 33.3251896323, 
			 "total_energy": -1239.96565636, 
			 "HOMO_LUMO_gap": 0.22316, 
			 "cosmo_polarized_energy": -19.47, 
			 "cosmo_cavitation_energy": 37.39, 
			 "cosmo_dispersion_energy": -26.86, 
			 "cosmo_repulsion_energy": 2.05, 
			 "cosmo_total_nonelectrostatic_energy": 12.58, 
			 "SMD_solvation_energy": 6.25 
		},
		"coords": [
			{
				"x": 1.5050851275,
				"y": 4.3391390471,
				"z": -2.7715487287,
				"element": "C" 
			},
			{
				"x": 1.4710530953,
				"y": 2.8642393105,
				"z": -2.4527932385,
				"element": "C" 
			},
			{
				"x": 0.9844427959,
				"y": 2.4169850458,
				"z": -1.2126243416,
				"element": "C" 
			},
			{
				"x": 0.9555061531,
				"y": 1.0640497438,
				"z": -0.8940537421,
				"element": "C" 
			},
			{
				"x": 1.430944161,
				"y": 0.1425969934,
				"z": -1.8328620551,
				"element": "C" 
			},
			{
				"x": 1.9242967422,
				"y": 0.5529252431,
				"z": -3.0697913369,
				"element": "C" 
			},
			{
				"x": 1.9372784816,
				"y": 1.9151257715,
				"z": -3.3705224938,
				"element": "C" 
			},
			{
				"x": 1.3371678019,
				"y": -1.6020018588,
				"z": -1.4942700848,
				"element": "S" 
			},
			{
				"x": -0.0509010348,
				"y": -2.0326891099,
				"z": -1.2964800382,
				"element": "O" 
			},
			{
				"x": 2.1803329912,
				"y": -2.331876907,
				"z": -2.4374093563,
				"element": "O" 
			},
			{
				"x": 2.0679396983,
				"y": -1.5696845289,
				"z": -0.0170224857,
				"element": "O" 
			},
			{
				"x": 1.7277701793,
				"y": -2.6143099294,
				"z": 0.9219329804,
				"element": "C" 
			},
			{
				"x": 0.4986895902,
				"y": -2.2778838022,
				"z": 1.7488807826,
				"element": "C" 
			},
			{
				"x": 0.189878248,
				"y": -3.3205098972,
				"z": 2.8403127756,
				"element": "C" 
			},
			{
				"x": -0.4182719139,
				"y": -2.4577717372,
				"z": 3.9497404784,
				"element": "C" 
			},
			{
				"x": 0.1987540484,
				"y": -1.0815539871,
				"z": 3.7181356269,
				"element": "C" 
			},
			{
				"x": 0.2365401554,
				"y": -0.1408140425,
				"z": 4.4653580307,
				"element": "O" 
			},
			{
				"x": 0.7332131048,
				"y": -1.0385332591,
				"z": 2.4597981933,
				"element": "O" 
			},
			{
				"x": 1.7483796484,
				"y": 4.5173111059,
				"z": -3.8220968704,
				"element": "H" 
			},
			{
				"x": 0.5408815025,
				"y": 4.8132730757,
				"z": -2.5603463301,
				"element": "H" 
			},
			{
				"x": 2.2573727027,
				"y": 4.8544231501,
				"z": -2.1626253694,
				"element": "H" 
			},
			{
				"x": 0.6263423252,
				"y": 3.1407300657,
				"z": -0.4853893806,
				"element": "H" 
			},
			{
				"x": 0.5978550835,
				"y": 0.7308543387,
				"z": 0.0743514673,
				"element": "H" 
			},
			{
				"x": 2.295514766,
				"y": -0.1825271247,
				"z": -3.7747155352,
				"element": "H" 
			},
			{
				"x": 2.3198307677,
				"y": 2.2433485086,
				"z": -4.3329201996,
				"element": "H" 
			},
			{
				"x": 2.6069859958,
				"y": -2.6911671307,
				"z": 1.5667490974,
				"element": "H" 
			},
			{
				"x": 1.5801209428,
				"y": -3.5707184426,
				"z": 0.409150297,
				"element": "H" 
			},
			{
				"x": -0.35773891,
				"y": -2.1263611366,
				"z": 1.0860442536,
				"element": "H" 
			},
			{
				"x": 1.1174870888,
				"y": -3.7902521426,
				"z": 3.188581407,
				"element": "H" 
			},
			{
				"x": -0.471721159,
				"y": -4.1090723275,
				"z": 2.4756329208,
				"element": "H" 
			},
			{
				"x": -1.505507142,
				"y": -2.3600013563,
				"z": 3.8450923342,
				"element": "H" 
			},
			{
				"x": -0.2143230379,
				"y": -2.7979726799,
				"z": 4.9663109416,
				"element": "H" 
			}
		],
		 "valence_orbital": [ 
			{
				"type": "occ",
				"energy": -0.30718,
				"method": "rhf"
			},
			{
				"type": "occ",
				"energy": -0.28674,
				"method": "rhf"
			},
			{
				"type": "occ",
				"energy": -0.27162,
				"method": "rhf"
			},
			{
				"type": "occ",
				"energy": -0.27076,
				"method": "rhf"
			},
			{
				"type": "occ",
				"energy": -0.2636,
				"method": "rhf"
			},
			{
				"type": "unocc",
				"energy": -0.04044,
				"method": "rhf"
			},
			{
				"type": "unocc",
				"energy": -0.02114,
				"method": "rhf"
			},
			{
				"type": "unocc",
				"energy": 0.00563,
				"method": "rhf"
			},
			{
				"type": "unocc",
				"energy": 0.03838,
				"method": "rhf"
			},
			{
				"type": "unocc",
				"energy": 0.06293,
				"method": "rhf"
			}
		],
		"cosmo_sigma_profile": { 
			"-0.025": 0.0,
			"-0.024": 0.0,
			"-0.023": 0.0,
			"-0.022": 0.0,
			"-0.021": 0.0,
			"-0.02": 0.0,
			"-0.019": 0.0,
			"-0.018": 0.0,
			"-0.017": 0.0,
			"-0.016": 0.0,
			"-0.015": 0.0,
			"-0.014": 0.0,
			"-0.013": 0.0,
			"-0.012": 0.0,
			"-0.011": 0.0,
			"-0.01": 0.0,
			"-0.009": 0.458531012028,
			"-0.008": 6.81412629206,
			"-0.007": 15.6169201915,
			"-0.006": 25.5316272288,
			"-0.005": 28.9684452687,
			"-0.004": 24.0466100803,
			"-0.003": 22.3277390137,
			"-0.002": 20.0437939347,
			"-0.001": 19.9618000701,
			"0.0": 15.8195723658,
			"0.001": 13.0695664136,
			"0.002": 17.7904826102,
			"0.003": 15.7934495719,
			"0.004": 6.41449754678,
			"0.005": 6.12794017503,
			"0.006": 6.02445400766,
			"0.007": 7.2537759934,
			"0.008": 7.49708518441,
			"0.009": 8.65950990173,
			"0.01": 12.1001524085,
			"0.011": 9.07769331756,
			"0.012": 5.74939024097,
			"0.013": 1.51822609981,
			"0.014": 0.0,
			"0.015": 0.0,
			"0.016": 0.0,
			"0.017": 0.0,
			"0.018": 0.0,
			"0.019": 0.0,
			"0.02": 0.0,
			"0.021": 0.0,
			"0.022": 0.0,
			"0.023": 0.0,
			"0.024": 0.0,
			"0.025": 0.0
		}
	}
}
