{
	 "smiles": "OC(=O)CC1=CC=C(OC2=CC(=NC=C2)C#N)C=C1", 
	 "Tm": 443.15, 
	 "num_atms": 29, 
	 "gaussian": { 
		 "optdone": 1, 
		 "sigma_profile": "yes", 
		 "theory": "DFT", 
		 "functional": "B3LYP", 
		 "basiset": "6-31G**", 
		 "properties": { 
			 "R2extent": 7268.6325, 
			 "electric_dipole_moment_norm": 6.57897112473, 
			 "electric_quadrupole_moment_norm": 30.0301802629, 
			 "total_energy": -874.672766819, 
			 "HOMO_LUMO_gap": 0.19983, 
			 "cosmo_polarized_energy": -18.76, 
			 "cosmo_cavitation_energy": 36.56, 
			 "cosmo_dispersion_energy": -25.15, 
			 "cosmo_repulsion_energy": 1.97, 
			 "cosmo_total_nonelectrostatic_energy": 13.38, 
			 "SMD_solvation_energy": 7.57 
		},
		"coords": [
			{
				"x": -0.1659447933,
				"y": -5.9033399032,
				"z": -2.6000779943,
				"element": "O" 
			},
			{
				"x": 0.5660133198,
				"y": -4.8190214534,
				"z": -2.2554660313,
				"element": "C" 
			},
			{
				"x": 1.1734816034,
				"y": -4.1543254358,
				"z": -3.063975699,
				"element": "O" 
			},
			{
				"x": 0.5511363843,
				"y": -4.6052566449,
				"z": -0.7483867055,
				"element": "C" 
			},
			{
				"x": 0.6242361246,
				"y": -3.154539914,
				"z": -0.3231332765,
				"element": "C" 
			},
			{
				"x": 1.7036898691,
				"y": -2.34022344,
				"z": -0.6956563549,
				"element": "C" 
			},
			{
				"x": 1.7679430978,
				"y": -1.0101346029,
				"z": -0.284644,
				"element": "C" 
			},
			{
				"x": 0.7468443449,
				"y": -0.4910312143,
				"z": 0.5092249652,
				"element": "C" 
			},
			{
				"x": 0.8518846201,
				"y": 0.8182850715,
				"z": 0.9840762501,
				"element": "O" 
			},
			{
				"x": 0.2538709516,
				"y": 1.8342068751,
				"z": 0.3035365631,
				"element": "C" 
			},
			{
				"x": -0.4568749561,
				"y": 1.6778631284,
				"z": -0.889580932,
				"element": "C" 
			},
			{
				"x": -1.0125749059,
				"y": 2.8284589045,
				"z": -1.464405562,
				"element": "C" 
			},
			{
				"x": -0.9119832597,
				"y": 4.0666592198,
				"z": -0.9569661939,
				"element": "N" 
			},
			{
				"x": -0.2227436582,
				"y": 4.1813079451,
				"z": 0.1846298851,
				"element": "C" 
			},
			{
				"x": 0.3739950679,
				"y": 3.116019069,
				"z": 0.8522344922,
				"element": "C" 
			},
			{
				"x": -1.7568664636,
				"y": 2.6952737031,
				"z": -2.6965506164,
				"element": "C" 
			},
			{
				"x": -2.3514268126,
				"y": 2.55646407,
				"z": -3.6852153529,
				"element": "N" 
			},
			{
				"x": -0.3328834163,
				"y": -1.2785653725,
				"z": 0.8982993538,
				"element": "C" 
			},
			{
				"x": -0.3869012725,
				"y": -2.6076152633,
				"z": 0.4755603169,
				"element": "C" 
			},
			{
				"x": -0.0736339136,
				"y": -5.9999029373,
				"z": -3.5635438162,
				"element": "H" 
			},
			{
				"x": -0.3332949041,
				"y": -5.0927983754,
				"z": -0.3324203692,
				"element": "H" 
			},
			{
				"x": 1.418576378,
				"y": -5.1594746521,
				"z": -0.3622915275,
				"element": "H" 
			},
			{
				"x": 2.487347734,
				"y": -2.7449517571,
				"z": -1.3258384199,
				"element": "H" 
			},
			{
				"x": 2.6026995126,
				"y": -0.3762723025,
				"z": -0.5652650111,
				"element": "H" 
			},
			{
				"x": -0.5787592627,
				"y": 0.7104880631,
				"z": -1.3597129686,
				"element": "H" 
			},
			{
				"x": -0.1428704083,
				"y": 5.1867370208,
				"z": 0.5920460135,
				"element": "H" 
			},
			{
				"x": 0.9222381856,
				"y": 3.2589767526,
				"z": 1.7766074703,
				"element": "H" 
			},
			{
				"x": -1.1107622418,
				"y": -0.8562078221,
				"z": 1.5258630983,
				"element": "H" 
			},
			{
				"x": -1.228236925,
				"y": -3.2259787322,
				"z": 0.7765524225,
				"element": "H" 
			}
		],
		 "valence_orbital": [ 
			{
				"type": "occ",
				"energy": -0.27963,
				"method": "rhf"
			},
			{
				"type": "occ",
				"energy": -0.27926,
				"method": "rhf"
			},
			{
				"type": "occ",
				"energy": -0.27176,
				"method": "rhf"
			},
			{
				"type": "occ",
				"energy": -0.26763,
				"method": "rhf"
			},
			{
				"type": "occ",
				"energy": -0.25935,
				"method": "rhf"
			},
			{
				"type": "unocc",
				"energy": -0.05952,
				"method": "rhf"
			},
			{
				"type": "unocc",
				"energy": -0.02934,
				"method": "rhf"
			},
			{
				"type": "unocc",
				"energy": -0.02511,
				"method": "rhf"
			},
			{
				"type": "unocc",
				"energy": -0.02128,
				"method": "rhf"
			},
			{
				"type": "unocc",
				"energy": -0.00134,
				"method": "rhf"
			}
		],
		"cosmo_sigma_profile": { 
			"-0.025": 0.0,
			"-0.024": 0.0,
			"-0.023": 0.0,
			"-0.022": 0.0,
			"-0.021": 0.0,
			"-0.02": 0.0,
			"-0.019": 0.12297020384,
			"-0.018": 0.802759397397,
			"-0.017": 0.861504346728,
			"-0.016": 0.927822627041,
			"-0.015": 0.958196075008,
			"-0.014": 0.567667485187,
			"-0.013": 0.440655041697,
			"-0.012": 0.627876528877,
			"-0.011": 1.05016032198,
			"-0.01": 0.716336196743,
			"-0.009": 1.4879965181,
			"-0.008": 6.82495092991,
			"-0.007": 16.4570241711,
			"-0.006": 16.4973077884,
			"-0.005": 17.4219807184,
			"-0.004": 19.2374196493,
			"-0.003": 20.3091841479,
			"-0.002": 20.5396195685,
			"-0.001": 24.008230398,
			"0.0": 20.1725432285,
			"0.001": 16.1080569052,
			"0.002": 17.6381275933,
			"0.003": 14.7714324429,
			"0.004": 14.2002288419,
			"0.005": 8.77074689023,
			"0.006": 8.52362567737,
			"0.007": 8.65651554452,
			"0.008": 7.36355503237,
			"0.009": 7.81923861657,
			"0.01": 6.61468843139,
			"0.011": 7.25438102107,
			"0.012": 5.04830481626,
			"0.013": 1.02712801215,
			"0.014": 0.768383644818,
			"0.015": 0.0953864713221,
			"0.016": 0.0,
			"0.017": 0.0,
			"0.018": 0.0,
			"0.019": 0.0,
			"0.02": 0.0,
			"0.021": 0.0,
			"0.022": 0.0,
			"0.023": 0.0,
			"0.024": 0.0,
			"0.025": 0.0
		}
	}
}
