{
	 "smiles": "[O-][N+](=O)C1=C(CCl)N=C2C=CC=CN12", 
	 "Tm": 426.15, 
	 "num_atms": 20, 
	 "gaussian": { 
		 "optdone": 1, 
		 "sigma_profile": "yes", 
		 "theory": "DFT", 
		 "functional": "B3LYP", 
		 "basiset": "6-31G**", 
		 "properties": { 
			 "R2extent": 3841.2762, 
			 "electric_dipole_moment_norm": 6.00930232057, 
			 "electric_quadrupole_moment_norm": 20.1762948221, 
			 "total_energy": -1083.25656828, 
			 "HOMO_LUMO_gap": 0.15516, 
			 "cosmo_polarized_energy": -13.49, 
			 "cosmo_cavitation_energy": 26.79, 
			 "cosmo_dispersion_energy": -19.93, 
			 "cosmo_repulsion_energy": 1.55, 
			 "cosmo_total_nonelectrostatic_energy": 8.41, 
			 "SMD_solvation_energy": 4.74 
		},
		"coords": [
			{
				"x": -0.2819298378,
				"y": -1.3634097322,
				"z": -1.5810841894,
				"element": "O" 
			},
			{
				"x": -1.0434680763,
				"y": -0.4142498324,
				"z": -1.3635315043,
				"element": "N" 
			},
			{
				"x": -1.7443096387,
				"y": 0.132805455,
				"z": -2.2320142137,
				"element": "O" 
			},
			{
				"x": -1.1096551312,
				"y": 0.0742532477,
				"z": -0.0420953975,
				"element": "C" 
			},
			{
				"x": -0.4297048412,
				"y": -0.35347795,
				"z": 1.1094812354,
				"element": "C" 
			},
			{
				"x": 0.5261573358,
				"y": -1.4877150673,
				"z": 1.2554315986,
				"element": "C" 
			},
			{
				"x": -0.3574314824,
				"y": -3.0578657952,
				"z": 1.5404716566,
				"element": "Cl" 
			},
			{
				"x": -0.7556970575,
				"y": 0.412296381,
				"z": 2.165005173,
				"element": "N" 
			},
			{
				"x": -1.6340161353,
				"y": 1.3218581617,
				"z": 1.7133297077,
				"element": "C" 
			},
			{
				"x": -2.2834740329,
				"y": 2.3565959363,
				"z": 2.4120025353,
				"element": "C" 
			},
			{
				"x": -3.1557376506,
				"y": 3.1795609334,
				"z": 1.7359277722,
				"element": "C" 
			},
			{
				"x": -3.3921642642,
				"y": 2.9823418586,
				"z": 0.3523954534,
				"element": "C" 
			},
			{
				"x": -2.7628492405,
				"y": 1.9774060017,
				"z": -0.3342041239,
				"element": "C" 
			},
			{
				"x": -1.89214882,
				"y": 1.158684506,
				"z": 0.3460952305,
				"element": "N" 
			},
			{
				"x": 1.1196871929,
				"y": -1.6350317979,
				"z": 0.357050743,
				"element": "H" 
			},
			{
				"x": 1.1498725781,
				"y": -1.321258969,
				"z": 2.1320861621,
				"element": "H" 
			},
			{
				"x": -2.0705874251,
				"y": 2.4654872349,
				"z": 3.4686060144,
				"element": "H" 
			},
			{
				"x": -3.6661755639,
				"y": 3.9810266122,
				"z": 2.2593630346,
				"element": "H" 
			},
			{
				"x": -4.0783823763,
				"y": 3.6242003766,
				"z": -0.1875728486,
				"element": "H" 
			},
			{
				"x": -2.8903855329,
				"y": 1.7624924391,
				"z": -1.3834440393,
				"element": "H" 
			}
		],
		 "valence_orbital": [ 
			{
				"type": "occ",
				"energy": -0.30269,
				"method": "rhf"
			},
			{
				"type": "occ",
				"energy": -0.29407,
				"method": "rhf"
			},
			{
				"type": "occ",
				"energy": -0.29157,
				"method": "rhf"
			},
			{
				"type": "occ",
				"energy": -0.27729,
				"method": "rhf"
			},
			{
				"type": "occ",
				"energy": -0.24995,
				"method": "rhf"
			},
			{
				"type": "unocc",
				"energy": -0.09479,
				"method": "rhf"
			},
			{
				"type": "unocc",
				"energy": -0.06489,
				"method": "rhf"
			},
			{
				"type": "unocc",
				"energy": -0.01496,
				"method": "rhf"
			},
			{
				"type": "unocc",
				"energy": 0.00803,
				"method": "rhf"
			},
			{
				"type": "unocc",
				"energy": 0.07109,
				"method": "rhf"
			}
		],
		"cosmo_sigma_profile": { 
			"-0.025": 0.0,
			"-0.024": 0.0,
			"-0.023": 0.0,
			"-0.022": 0.0,
			"-0.021": 0.0,
			"-0.02": 0.0,
			"-0.019": 0.0,
			"-0.018": 0.0,
			"-0.017": 0.0,
			"-0.016": 0.0,
			"-0.015": 0.0,
			"-0.014": 0.0,
			"-0.013": 0.0,
			"-0.012": 0.0,
			"-0.011": 0.0,
			"-0.01": 0.0,
			"-0.009": 1.90188117538,
			"-0.008": 10.6116879468,
			"-0.007": 11.6975814189,
			"-0.006": 14.7405760401,
			"-0.005": 16.0095439288,
			"-0.004": 14.0693886608,
			"-0.003": 13.4812063421,
			"-0.002": 12.3405741785,
			"-0.001": 13.9922893466,
			"0.0": 16.3292797352,
			"0.001": 15.6249584319,
			"0.002": 7.52269489285,
			"0.003": 7.25741117973,
			"0.004": 9.65161839753,
			"0.005": 11.8808649304,
			"0.006": 12.7225995447,
			"0.007": 6.53919460729,
			"0.008": 6.31272106128,
			"0.009": 6.02550491189,
			"0.01": 4.76850924969,
			"0.011": 2.26932173565,
			"0.012": 0.803149019276,
			"0.013": 0.957539093978,
			"0.014": 0.617475922652,
			"0.015": 0.394648274067,
			"0.016": 0.0,
			"0.017": 0.0,
			"0.018": 0.0,
			"0.019": 0.0,
			"0.02": 0.0,
			"0.021": 0.0,
			"0.022": 0.0,
			"0.023": 0.0,
			"0.024": 0.0,
			"0.025": 0.0
		}
	}
}
