{
	 "smiles": "CC(C)(C)OOC(C)(C)CCC(C)(C)OOC(C)(C)C", 
	 "Tm": 281.15, 
	 "num_atms": 54, 
	 "gaussian": { 
		 "optdone": 1, 
		 "sigma_profile": "yes", 
		 "theory": "DFT", 
		 "functional": "B3LYP", 
		 "basiset": "6-31G**", 
		 "properties": { 
			 "R2extent": 9933.0591, 
			 "electric_dipole_moment_norm": 0.0003, 
			 "electric_quadrupole_moment_norm": 8.00801055569, 
			 "total_energy": -930.960559959, 
			 "HOMO_LUMO_gap": 0.24723, 
			 "cosmo_polarized_energy": -7.61, 
			 "cosmo_cavitation_energy": 52.66, 
			 "cosmo_dispersion_energy": -32.45, 
			 "cosmo_repulsion_energy": 2.55, 
			 "cosmo_total_nonelectrostatic_energy": 22.76, 
			 "SMD_solvation_energy": 8.87 
		},
		"coords": [
			{
				"x": 2.4393498354,
				"y": -1.1414398382,
				"z": -5.4094324305,
				"element": "C" 
			},
			{
				"x": 2.1425618973,
				"y": -1.5468702911,
				"z": -3.9596526527,
				"element": "C" 
			},
			{
				"x": 1.1895596019,
				"y": -2.7486242452,
				"z": -3.9101444808,
				"element": "C" 
			},
			{
				"x": 3.4380365647,
				"y": -1.8200685159,
				"z": -3.1858804969,
				"element": "C" 
			},
			{
				"x": 1.4832896237,
				"y": -0.3678972605,
				"z": -3.453735742,
				"element": "O" 
			},
			{
				"x": 1.1049081445,
				"y": -0.6311659096,
				"z": -2.0557291783,
				"element": "O" 
			},
			{
				"x": 0.9780337517,
				"y": 0.6414160781,
				"z": -1.3870499508,
				"element": "C" 
			},
			{
				"x": 2.3385220572,
				"y": 1.3488249815,
				"z": -1.3242228805,
				"element": "C" 
			},
			{
				"x": -0.0610018384,
				"y": 1.5200814722,
				"z": -2.0984071834,
				"element": "C" 
			},
			{
				"x": 0.5390959717,
				"y": 0.2263732045,
				"z": 0.0361532756,
				"element": "C" 
			},
			{
				"x": -0.8014473502,
				"y": -0.5169719216,
				"z": 0.1262927253,
				"element": "C" 
			},
			{
				"x": -1.2404578006,
				"y": -0.9318238821,
				"z": 1.5495319965,
				"element": "C" 
			},
			{
				"x": -0.2013108815,
				"y": -1.8101439753,
				"z": 2.2611648435,
				"element": "C" 
			},
			{
				"x": -2.6007865191,
				"y": -1.6395228893,
				"z": 1.4867075875,
				"element": "C" 
			},
			{
				"x": -1.3676400926,
				"y": 0.3408628892,
				"z": 2.2179476509,
				"element": "O" 
			},
			{
				"x": -1.7460898648,
				"y": 0.0778223785,
				"z": 3.6159705348,
				"element": "O" 
			},
			{
				"x": -2.4058408171,
				"y": 1.2566761386,
				"z": 4.121530796,
				"element": "C" 
			},
			{
				"x": -1.4532409226,
				"y": 2.4587494243,
				"z": 4.0718820297,
				"element": "C" 
			},
			{
				"x": -3.7012974638,
				"y": 1.5292904769,
				"z": 3.3475268674,
				"element": "C" 
			},
			{
				"x": -2.7026870113,
				"y": 0.8514594672,
				"z": 5.571359661,
				"element": "C" 
			},
			{
				"x": 1.5130436087,
				"y": -0.9118568377,
				"z": -5.9436892136,
				"element": "H" 
			},
			{
				"x": 2.946082322,
				"y": -1.9605926112,
				"z": -5.9282740566,
				"element": "H" 
			},
			{
				"x": 3.0858605828,
				"y": -0.2595436058,
				"z": -5.4402162557,
				"element": "H" 
			},
			{
				"x": 0.2607951781,
				"y": -2.516630357,
				"z": -4.4397720191,
				"element": "H" 
			},
			{
				"x": 0.9422800288,
				"y": -3.0047402459,
				"z": -2.8777110913,
				"element": "H" 
			},
			{
				"x": 1.6504230716,
				"y": -3.6225560708,
				"z": -4.3821408834,
				"element": "H" 
			},
			{
				"x": 4.1047026328,
				"y": -0.9539556357,
				"z": -3.238677037,
				"element": "H" 
			},
			{
				"x": 3.220389388,
				"y": -2.0256860226,
				"z": -2.1359257444,
				"element": "H" 
			},
			{
				"x": 3.9612617092,
				"y": -2.6841922711,
				"z": -3.6081731665,
				"element": "H" 
			},
			{
				"x": 3.0711043747,
				"y": 0.7281796215,
				"z": -0.7990940096,
				"element": "H" 
			},
			{
				"x": 2.7097046354,
				"y": 1.5459877382,
				"z": -2.3320011194,
				"element": "H" 
			},
			{
				"x": 2.2510615188,
				"y": 2.3023383112,
				"z": -0.7933747063,
				"element": "H" 
			},
			{
				"x": -0.2759683415,
				"y": 2.4126268943,
				"z": -1.5015363806,
				"element": "H" 
			},
			{
				"x": -0.9938215953,
				"y": 0.9743673818,
				"z": -2.2580230112,
				"element": "H" 
			},
			{
				"x": 0.3124578745,
				"y": 1.8391582837,
				"z": -3.073693088,
				"element": "H" 
			},
			{
				"x": 0.4983912107,
				"y": 1.1327777438,
				"z": 0.6487994733,
				"element": "H" 
			},
			{
				"x": 1.3387253566,
				"y": -0.3968766404,
				"z": 0.4507814541,
				"element": "H" 
			},
			{
				"x": -0.7606987743,
				"y": -1.4234592587,
				"z": -0.4862270384,
				"element": "H" 
			},
			{
				"x": -1.6010681725,
				"y": 0.1062004293,
				"z": -0.2884645348,
				"element": "H" 
			},
			{
				"x": -0.5748058081,
				"y": -2.1291118997,
				"z": 3.2364739026,
				"element": "H" 
			},
			{
				"x": 0.0139050539,
				"y": -2.7027609512,
				"z": 1.6644908321,
				"element": "H" 
			},
			{
				"x": 0.7313750033,
				"y": -1.2641981556,
				"z": 2.4207691322,
				"element": "H" 
			},
			{
				"x": -2.9720561235,
				"y": -1.8364990626,
				"z": 2.4944908138,
				"element": "H" 
			},
			{
				"x": -3.3334408968,
				"y": -1.0191895451,
				"z": 0.9613101392,
				"element": "H" 
			},
			{
				"x": -2.5130507001,
				"y": -2.5931636409,
				"z": 0.9561315094,
				"element": "H" 
			},
			{
				"x": -0.5244811524,
				"y": 2.2272121097,
				"z": 4.6017169329,
				"element": "H" 
			},
			{
				"x": -1.2058839619,
				"y": 2.7146782679,
				"z": 3.0394190301,
				"element": "H" 
			},
			{
				"x": -1.9144786259,
				"y": 3.3326475712,
				"z": 4.5435738821,
				"element": "H" 
			},
			{
				"x": -4.3677178634,
				"y": 0.6629952372,
				"z": 3.4004190001,
				"element": "H" 
			},
			{
				"x": -4.2248386664,
				"y": 2.3933493341,
				"z": 3.7695611966,
				"element": "H" 
			},
			{
				"x": -3.4835716916,
				"y": 1.7347509765,
				"z": 2.2975573626,
				"element": "H" 
			},
			{
				"x": -3.2097283592,
				"y": 1.6705695713,
				"z": 6.0899676483,
				"element": "H" 
			},
			{
				"x": -3.348936474,
				"y": -0.0306243796,
				"z": 5.6022470138,
				"element": "H" 
			},
			{
				"x": -1.7763732293,
				"y": 0.6222699374,
				"z": 6.1057710602,
				"element": "H" 
			}
		],
		 "valence_orbital": [ 
			{
				"type": "occ",
				"energy": -0.29638,
				"method": "rhf"
			},
			{
				"type": "occ",
				"energy": -0.2931,
				"method": "rhf"
			},
			{
				"type": "occ",
				"energy": -0.29144,
				"method": "rhf"
			},
			{
				"type": "occ",
				"energy": -0.22411,
				"method": "rhf"
			},
			{
				"type": "occ",
				"energy": -0.22283,
				"method": "rhf"
			},
			{
				"type": "unocc",
				"energy": 0.0244,
				"method": "rhf"
			},
			{
				"type": "unocc",
				"energy": 0.03801,
				"method": "rhf"
			},
			{
				"type": "unocc",
				"energy": 0.07954,
				"method": "rhf"
			},
			{
				"type": "unocc",
				"energy": 0.08704,
				"method": "rhf"
			},
			{
				"type": "unocc",
				"energy": 0.10285,
				"method": "rhf"
			}
		],
		"cosmo_sigma_profile": { 
			"-0.025": 0.0,
			"-0.024": 0.0,
			"-0.023": 0.0,
			"-0.022": 0.0,
			"-0.021": 0.0,
			"-0.02": 0.0,
			"-0.019": 0.0,
			"-0.018": 0.0,
			"-0.017": 0.0,
			"-0.016": 0.0,
			"-0.015": 0.0,
			"-0.014": 0.0,
			"-0.013": 0.0,
			"-0.012": 0.0,
			"-0.011": 0.0,
			"-0.01": 0.0,
			"-0.009": 0.0,
			"-0.008": 0.0,
			"-0.007": 0.0,
			"-0.006": 0.0,
			"-0.005": 0.321548466521,
			"-0.004": 18.0804663494,
			"-0.003": 57.0511541843,
			"-0.002": 55.8907847422,
			"-0.001": 60.6169814828,
			"0.0": 64.6143586627,
			"0.001": 68.3143282601,
			"0.002": 24.0176919662,
			"0.003": 8.55805792855,
			"0.004": 11.6598226055,
			"0.005": 10.641549238,
			"0.006": 7.95892442936,
			"0.007": 5.5783462795,
			"0.008": 3.63188657392,
			"0.009": 3.32357490174,
			"0.01": 2.8444957461,
			"0.011": 0.80832444318,
			"0.012": 0.0,
			"0.013": 0.0,
			"0.014": 0.0,
			"0.015": 0.0,
			"0.016": 0.0,
			"0.017": 0.0,
			"0.018": 0.0,
			"0.019": 0.0,
			"0.02": 0.0,
			"0.021": 0.0,
			"0.022": 0.0,
			"0.023": 0.0,
			"0.024": 0.0,
			"0.025": 0.0
		}
	}
}
