{
	 "smiles": "OC1=CC=C2C=CC=CC2=C1CN1CCCCC1", 
	 "Tm": 366.65, 
	 "num_atms": 37, 
	 "gaussian": { 
		 "optdone": 1, 
		 "sigma_profile": "yes", 
		 "theory": "DFT", 
		 "functional": "B3LYP", 
		 "basiset": "6-31G**", 
		 "properties": { 
			 "R2extent": 5448.6972, 
			 "electric_dipole_moment_norm": 2.85245402592, 
			 "electric_quadrupole_moment_norm": 10.3614853771, 
			 "total_energy": -751.142061774, 
			 "HOMO_LUMO_gap": 0.16505, 
			 "cosmo_polarized_energy": -8.24, 
			 "cosmo_cavitation_energy": 36.61, 
			 "cosmo_dispersion_energy": -26.55, 
			 "cosmo_repulsion_energy": 2.01, 
			 "cosmo_total_nonelectrostatic_energy": 12.07, 
			 "SMD_solvation_energy": 5.32 
		},
		"coords": [
			{
				"x": 1.5808857621,
				"y": -2.3002933756,
				"z": -0.4158420766,
				"element": "O" 
			},
			{
				"x": 0.8878638746,
				"y": -1.5253502857,
				"z": -1.2839645902,
				"element": "C" 
			},
			{
				"x": 1.4065942088,
				"y": -1.4388322765,
				"z": -2.6032046318,
				"element": "C" 
			},
			{
				"x": 0.7715716376,
				"y": -0.6783535523,
				"z": -3.5482416684,
				"element": "C" 
			},
			{
				"x": -0.4130995095,
				"y": 0.040429493,
				"z": -3.2330582503,
				"element": "C" 
			},
			{
				"x": -1.073245357,
				"y": 0.8270481542,
				"z": -4.2118428833,
				"element": "C" 
			},
			{
				"x": -2.2288118762,
				"y": 1.5145188868,
				"z": -3.9169865587,
				"element": "C" 
			},
			{
				"x": -2.7680598092,
				"y": 1.4324662169,
				"z": -2.6135385161,
				"element": "C" 
			},
			{
				"x": -2.1500676691,
				"y": 0.6784255103,
				"z": -1.6388034234,
				"element": "C" 
			},
			{
				"x": -0.9480534281,
				"y": -0.0423868048,
				"z": -1.9005753731,
				"element": "C" 
			},
			{
				"x": -0.2716552784,
				"y": -0.8386682446,
				"z": -0.9189008065,
				"element": "C" 
			},
			{
				"x": -0.8313871682,
				"y": -1.0336856832,
				"z": 0.4815861704,
				"element": "C" 
			},
			{
				"x": 0.2185535929,
				"y": -1.1119672306,
				"z": 1.5178046578,
				"element": "N" 
			},
			{
				"x": 0.9091378668,
				"y": 0.1859632934,
				"z": 1.6995293001,
				"element": "C" 
			},
			{
				"x": 1.7588061701,
				"y": 0.2029771121,
				"z": 2.9887662021,
				"element": "C" 
			},
			{
				"x": 2.1753864022,
				"y": -1.2169240534,
				"z": 3.3866692009,
				"element": "C" 
			},
			{
				"x": 0.9224300301,
				"y": -2.0700174021,
				"z": 3.6820614643,
				"element": "C" 
			},
			{
				"x": -0.2700327542,
				"y": -1.6373571431,
				"z": 2.8008691253,
				"element": "C" 
			},
			{
				"x": 1.217883453,
				"y": -2.0931928629,
				"z": 0.490192595,
				"element": "H" 
			},
			{
				"x": 2.3136427369,
				"y": -1.9918467405,
				"z": -2.8247642409,
				"element": "H" 
			},
			{
				"x": 1.1696800555,
				"y": -0.6139060465,
				"z": -4.5577590387,
				"element": "H" 
			},
			{
				"x": -0.6443135236,
				"y": 0.8733366964,
				"z": -5.2100946382,
				"element": "H" 
			},
			{
				"x": -2.7247993947,
				"y": 2.1123711954,
				"z": -4.6757942107,
				"element": "H" 
			},
			{
				"x": -3.6824896179,
				"y": 1.9689717933,
				"z": -2.3751779856,
				"element": "H" 
			},
			{
				"x": -2.6031541116,
				"y": 0.6359376935,
				"z": -0.6547923318,
				"element": "H" 
			},
			{
				"x": -1.5482893145,
				"y": -0.2396042012,
				"z": 0.7355889315,
				"element": "H" 
			},
			{
				"x": -1.3862889475,
				"y": -1.9814988661,
				"z": 0.5208635406,
				"element": "H" 
			},
			{
				"x": 1.539905721,
				"y": 0.3498620164,
				"z": 0.8207792885,
				"element": "H" 
			},
			{
				"x": 0.1717602706,
				"y": 1.0067749873,
				"z": 1.7240292849,
				"element": "H" 
			},
			{
				"x": 1.1847490859,
				"y": 0.6502682895,
				"z": 3.8098896282,
				"element": "H" 
			},
			{
				"x": 2.6328357891,
				"y": 0.8447936719,
				"z": 2.8383024393,
				"element": "H" 
			},
			{
				"x": 2.8372334873,
				"y": -1.196987084,
				"z": 4.25883921,
				"element": "H" 
			},
			{
				"x": 2.7487459551,
				"y": -1.6664990155,
				"z": 2.5677928292,
				"element": "H" 
			},
			{
				"x": 1.1470486197,
				"y": -3.1284346272,
				"z": 3.5120171562,
				"element": "H" 
			},
			{
				"x": 0.6352034817,
				"y": -1.9733474273,
				"z": 4.7355906916,
				"element": "H" 
			},
			{
				"x": -0.9248177992,
				"y": -2.4904268196,
				"z": 2.5987667729,
				"element": "H" 
			},
			{
				"x": -0.8878526424,
				"y": -0.8826652671,
				"z": 3.3198027351,
				"element": "H" 
			}
		],
		 "valence_orbital": [ 
			{
				"type": "occ",
				"energy": -0.29338,
				"method": "rhf"
			},
			{
				"type": "occ",
				"energy": -0.2665,
				"method": "rhf"
			},
			{
				"type": "occ",
				"energy": -0.23401,
				"method": "rhf"
			},
			{
				"type": "occ",
				"energy": -0.21996,
				"method": "rhf"
			},
			{
				"type": "occ",
				"energy": -0.19228,
				"method": "rhf"
			},
			{
				"type": "unocc",
				"energy": -0.02723,
				"method": "rhf"
			},
			{
				"type": "unocc",
				"energy": 0.00786,
				"method": "rhf"
			},
			{
				"type": "unocc",
				"energy": 0.03777,
				"method": "rhf"
			},
			{
				"type": "unocc",
				"energy": 0.06747,
				"method": "rhf"
			},
			{
				"type": "unocc",
				"energy": 0.09741,
				"method": "rhf"
			}
		],
		"cosmo_sigma_profile": { 
			"-0.025": 0.0,
			"-0.024": 0.0,
			"-0.023": 0.0,
			"-0.022": 0.0,
			"-0.021": 0.0,
			"-0.02": 0.0,
			"-0.019": 0.0,
			"-0.018": 0.0,
			"-0.017": 0.0,
			"-0.016": 0.0,
			"-0.015": 0.0,
			"-0.014": 0.0,
			"-0.013": 0.0,
			"-0.012": 0.0,
			"-0.011": 0.0,
			"-0.01": 0.0,
			"-0.009": 0.0,
			"-0.008": 0.0,
			"-0.007": 0.2829953668,
			"-0.006": 5.99294827726,
			"-0.005": 16.8409853135,
			"-0.004": 18.2313732203,
			"-0.003": 35.1873556215,
			"-0.002": 46.2417136557,
			"-0.001": 37.5927894603,
			"0.0": 26.4660458713,
			"0.001": 18.468890934,
			"0.002": 9.71038008787,
			"0.003": 12.4884166343,
			"0.004": 17.4476989193,
			"0.005": 20.6248038513,
			"0.006": 11.1359390345,
			"0.007": 2.09966130737,
			"0.008": 1.2836358465,
			"0.009": 1.0250972627,
			"0.01": 1.57501689368,
			"0.011": 1.59944091961,
			"0.012": 1.38017841192,
			"0.013": 1.97612432446,
			"0.014": 0.129018517967,
			"0.015": 0.0,
			"0.016": 0.0,
			"0.017": 0.0,
			"0.018": 0.0,
			"0.019": 0.0,
			"0.02": 0.0,
			"0.021": 0.0,
			"0.022": 0.0,
			"0.023": 0.0,
			"0.024": 0.0,
			"0.025": 0.0
		}
	}
}
