{
	 "smiles": "CC(=O)C1=CC(Cl)=NC=C1", 
	 "Tm": 310.95, 
	 "num_atms": 16, 
	 "gaussian": { 
		 "optdone": 1, 
		 "sigma_profile": "yes", 
		 "theory": "DFT", 
		 "functional": "B3LYP", 
		 "basiset": "6-31G**", 
		 "properties": { 
			 "R2extent": 3072.0695, 
			 "electric_dipole_moment_norm": 4.15041078569, 
			 "electric_quadrupole_moment_norm": 10.7268436732, 
			 "total_energy": -860.524009243, 
			 "HOMO_LUMO_gap": 0.18394, 
			 "cosmo_polarized_energy": -10.23, 
			 "cosmo_cavitation_energy": 22.53, 
			 "cosmo_dispersion_energy": -16.7, 
			 "cosmo_repulsion_energy": 1.35, 
			 "cosmo_total_nonelectrostatic_energy": 7.18, 
			 "SMD_solvation_energy": 3.04 
		},
		"coords": [
			{
				"x": 0.7421817009,
				"y": -1.1440124813,
				"z": 1.8680834468,
				"element": "C" 
			},
			{
				"x": -0.3911061373,
				"y": -1.4455542866,
				"z": 0.908010782,
				"element": "C" 
			},
			{
				"x": -1.4705787011,
				"y": -1.8478388059,
				"z": 1.3045990816,
				"element": "O" 
			},
			{
				"x": -0.1619071521,
				"y": -1.2367744931,
				"z": -0.5701710794,
				"element": "C" 
			},
			{
				"x": -1.2150892323,
				"y": -1.5181246393,
				"z": -1.4448704624,
				"element": "C" 
			},
			{
				"x": -0.9942785241,
				"y": -1.3223880103,
				"z": -2.8076084043,
				"element": "C" 
			},
			{
				"x": -2.3044663416,
				"y": -1.6692090028,
				"z": -3.9313865718,
				"element": "Cl" 
			},
			{
				"x": 0.1390021105,
				"y": -0.8897090221,
				"z": -3.3352392031,
				"element": "N" 
			},
			{
				"x": 1.1434820771,
				"y": -0.6223213158,
				"z": -2.4901906503,
				"element": "C" 
			},
			{
				"x": 1.0473510247,
				"y": -0.7772795237,
				"z": -1.1085619515,
				"element": "C" 
			},
			{
				"x": 0.4055711136,
				"y": -1.3481108716,
				"z": 2.8845311067,
				"element": "H" 
			},
			{
				"x": 1.6193330012,
				"y": -1.7609883007,
				"z": 1.6430245948,
				"element": "H" 
			},
			{
				"x": 1.052223766,
				"y": -0.095963232,
				"z": 1.7895374745,
				"element": "H" 
			},
			{
				"x": -2.1612930481,
				"y": -1.8746363742,
				"z": -1.0574512427,
				"element": "H" 
			},
			{
				"x": 2.0656492108,
				"y": -0.2679877026,
				"z": -2.9450506904,
				"element": "H" 
			},
			{
				"x": 1.8989251318,
				"y": -0.5428019379,
				"z": -0.4801562305,
				"element": "H" 
			}
		],
		 "valence_orbital": [ 
			{
				"type": "occ",
				"energy": -0.31827,
				"method": "rhf"
			},
			{
				"type": "occ",
				"energy": -0.30583,
				"method": "rhf"
			},
			{
				"type": "occ",
				"energy": -0.28668,
				"method": "rhf"
			},
			{
				"type": "occ",
				"energy": -0.27019,
				"method": "rhf"
			},
			{
				"type": "occ",
				"energy": -0.26929,
				"method": "rhf"
			},
			{
				"type": "unocc",
				"energy": -0.08535,
				"method": "rhf"
			},
			{
				"type": "unocc",
				"energy": -0.03468,
				"method": "rhf"
			},
			{
				"type": "unocc",
				"energy": 0.01222,
				"method": "rhf"
			},
			{
				"type": "unocc",
				"energy": 0.03096,
				"method": "rhf"
			},
			{
				"type": "unocc",
				"energy": 0.08089,
				"method": "rhf"
			}
		],
		"cosmo_sigma_profile": { 
			"-0.025": 0.0,
			"-0.024": 0.0,
			"-0.023": 0.0,
			"-0.022": 0.0,
			"-0.021": 0.0,
			"-0.02": 0.0,
			"-0.019": 0.0,
			"-0.018": 0.0,
			"-0.017": 0.0,
			"-0.016": 0.0,
			"-0.015": 0.0,
			"-0.014": 0.0,
			"-0.013": 0.0,
			"-0.012": 0.0,
			"-0.011": 0.0,
			"-0.01": 0.0,
			"-0.009": 0.363092032506,
			"-0.008": 4.83088091715,
			"-0.007": 12.8073608534,
			"-0.006": 10.5370900441,
			"-0.005": 9.32346345219,
			"-0.004": 10.3986184554,
			"-0.003": 9.65693430351,
			"-0.002": 15.7189257936,
			"-0.001": 23.9056735963,
			"0.0": 16.3044166932,
			"0.001": 8.44860208377,
			"0.002": 8.05931474146,
			"0.003": 9.33165248258,
			"0.004": 11.3676295811,
			"0.005": 6.78304382851,
			"0.006": 4.03996377506,
			"0.007": 2.75101720155,
			"0.008": 3.23770471683,
			"0.009": 2.92775628046,
			"0.01": 4.07805555879,
			"0.011": 4.52493145767,
			"0.012": 2.15779534972,
			"0.013": 1.11081770745,
			"0.014": 0.487106503873,
			"0.015": 0.0122823917015,
			"0.016": 0.0,
			"0.017": 0.0,
			"0.018": 0.0,
			"0.019": 0.0,
			"0.02": 0.0,
			"0.021": 0.0,
			"0.022": 0.0,
			"0.023": 0.0,
			"0.024": 0.0,
			"0.025": 0.0
		}
	}
}
