{
	 "smiles": "CC1=CC=C(C=C1)C(=O)C(Br)CC(O)=O", 
	 "Tm": 390.15, 
	 "num_atms": 26, 
	 "gaussian": { 
		 "optdone": 1, 
		 "sigma_profile": "yes", 
		 "theory": "DFT", 
		 "functional": "B3LYP", 
		 "basiset": "6-31G**", 
		 "properties": { 
			 "R2extent": 8538.3538, 
			 "electric_dipole_moment_norm": 2.05520153756, 
			 "electric_quadrupole_moment_norm": 14.9805854065, 
			 "total_energy": -3222.89457867, 
			 "HOMO_LUMO_gap": 0.18149, 
			 "cosmo_polarized_energy": -13.87, 
			 "cosmo_cavitation_energy": 32.7, 
			 "cosmo_dispersion_energy": -22.98, 
			 "cosmo_repulsion_energy": 1.84, 
			 "cosmo_total_nonelectrostatic_energy": 11.56, 
			 "SMD_solvation_energy": 6.18 
		},
		"coords": [
			{
				"x": -2.7712936449,
				"y": -0.0417755245,
				"z": 0.7381897137,
				"element": "C" 
			},
			{
				"x": -1.2744164139,
				"y": 0.0708867646,
				"z": 0.8879500373,
				"element": "C" 
			},
			{
				"x": -0.5673705318,
				"y": -0.7757219425,
				"z": 1.7514508954,
				"element": "C" 
			},
			{
				"x": 0.8182466812,
				"y": -0.6951378945,
				"z": 1.8696456769,
				"element": "C" 
			},
			{
				"x": 1.5416858003,
				"y": 0.2475113473,
				"z": 1.1214171508,
				"element": "C" 
			},
			{
				"x": 0.8327838148,
				"y": 1.1081477249,
				"z": 0.263642133,
				"element": "C" 
			},
			{
				"x": -0.5475742531,
				"y": 1.0186699873,
				"z": 0.1493230612,
				"element": "C" 
			},
			{
				"x": 3.0241333664,
				"y": 0.4089471217,
				"z": 1.161663928,
				"element": "C" 
			},
			{
				"x": 3.5726315252,
				"y": 1.345646486,
				"z": 0.5991094099,
				"element": "O" 
			},
			{
				"x": 3.9585993335,
				"y": -0.6219859013,
				"z": 1.822789418,
				"element": "C" 
			},
			{
				"x": 3.7153151506,
				"y": -0.6381538574,
				"z": 3.8056785631,
				"element": "Br" 
			},
			{
				"x": 3.8705517631,
				"y": -2.0500104718,
				"z": 1.2702273175,
				"element": "C" 
			},
			{
				"x": 4.2691631046,
				"y": -2.132927383,
				"z": -0.1965058014,
				"element": "C" 
			},
			{
				"x": 5.4796813279,
				"y": -1.5696459631,
				"z": -0.4157166698,
				"element": "O" 
			},
			{
				"x": 3.6135677736,
				"y": -2.6546067944,
				"z": -1.0676624795,
				"element": "O" 
			},
			{
				"x": -3.2375149838,
				"y": 0.9428598695,
				"z": 0.6335349622,
				"element": "H" 
			},
			{
				"x": -3.0313936831,
				"y": -0.61922577,
				"z": -0.1577801168,
				"element": "H" 
			},
			{
				"x": -3.2243345438,
				"y": -0.5458473076,
				"z": 1.5962452694,
				"element": "H" 
			},
			{
				"x": -1.1101095836,
				"y": -1.5057936542,
				"z": 2.3460448541,
				"element": "H" 
			},
			{
				"x": 1.3228946178,
				"y": -1.3448648523,
				"z": 2.5741976388,
				"element": "H" 
			},
			{
				"x": 1.3935380813,
				"y": 1.8413967881,
				"z": -0.3056385695,
				"element": "H" 
			},
			{
				"x": -1.0751961355,
				"y": 1.6921509178,
				"z": -0.5213996305,
				"element": "H" 
			},
			{
				"x": 4.963370714,
				"y": -0.2274459304,
				"z": 1.6940532052,
				"element": "H" 
			},
			{
				"x": 2.8687471107,
				"y": -2.467562573,
				"z": 1.3585962982,
				"element": "H" 
			},
			{
				"x": 4.5613838454,
				"y": -2.682699604,
				"z": 1.8375940779,
				"element": "H" 
			},
			{
				"x": 5.6570097632,
				"y": -1.653511583,
				"z": -1.3678503432,
				"element": "H" 
			}
		],
		 "valence_orbital": [ 
			{
				"type": "occ",
				"energy": -0.28683,
				"method": "rhf"
			},
			{
				"type": "occ",
				"energy": -0.27919,
				"method": "rhf"
			},
			{
				"type": "occ",
				"energy": -0.26255,
				"method": "rhf"
			},
			{
				"type": "occ",
				"energy": -0.25771,
				"method": "rhf"
			},
			{
				"type": "occ",
				"energy": -0.25389,
				"method": "rhf"
			},
			{
				"type": "unocc",
				"energy": -0.0724,
				"method": "rhf"
			},
			{
				"type": "unocc",
				"energy": -0.02512,
				"method": "rhf"
			},
			{
				"type": "unocc",
				"energy": -0.01235,
				"method": "rhf"
			},
			{
				"type": "unocc",
				"energy": 0.00574,
				"method": "rhf"
			},
			{
				"type": "unocc",
				"energy": 0.04414,
				"method": "rhf"
			}
		],
		"cosmo_sigma_profile": { 
			"-0.025": 0.0,
			"-0.024": 0.0,
			"-0.023": 0.0,
			"-0.022": 0.0,
			"-0.021": 0.0,
			"-0.02": 0.0,
			"-0.019": 0.519386307956,
			"-0.018": 0.927609785831,
			"-0.017": 0.962629100574,
			"-0.016": 1.0295670612,
			"-0.015": 0.416446088559,
			"-0.014": 0.411949263585,
			"-0.013": 0.313170209105,
			"-0.012": 1.01899227881,
			"-0.011": 1.09760479271,
			"-0.01": 0.757002338465,
			"-0.009": 0.669097326352,
			"-0.008": 3.9433690706,
			"-0.007": 5.621480707,
			"-0.006": 11.5900535649,
			"-0.005": 18.0092610245,
			"-0.004": 20.7235292955,
			"-0.003": 18.7671184743,
			"-0.002": 19.6770810909,
			"-0.001": 20.3824689209,
			"0.0": 18.924908007,
			"0.001": 16.2238879493,
			"0.002": 18.3653114986,
			"0.003": 21.3255844965,
			"0.004": 20.3195825905,
			"0.005": 8.88995223729,
			"0.006": 3.34865803066,
			"0.007": 3.86888308318,
			"0.008": 3.70951952698,
			"0.009": 3.94894949348,
			"0.01": 5.2753155658,
			"0.011": 9.11218596545,
			"0.012": 2.57352613909,
			"0.013": 0.0859536534645,
			"0.014": 0.0,
			"0.015": 0.0,
			"0.016": 0.0,
			"0.017": 0.0,
			"0.018": 0.0,
			"0.019": 0.0,
			"0.02": 0.0,
			"0.021": 0.0,
			"0.022": 0.0,
			"0.023": 0.0,
			"0.024": 0.0,
			"0.025": 0.0
		}
	}
}
