{
	 "smiles": "OC(=O)C1(CC1)C1=CC=C(Cl)C=C1Cl", 
	 "Tm": 417.15, 
	 "num_atms": 22, 
	 "gaussian": { 
		 "optdone": 1, 
		 "sigma_profile": "yes", 
		 "theory": "DFT", 
		 "functional": "B3LYP", 
		 "basiset": "6-31G**", 
		 "properties": { 
			 "R2extent": 4371.2883, 
			 "electric_dipole_moment_norm": 4.08223748207, 
			 "electric_quadrupole_moment_norm": 12.8763181686, 
			 "total_energy": -1456.69972779, 
			 "HOMO_LUMO_gap": 0.21128, 
			 "cosmo_polarized_energy": -13.12, 
			 "cosmo_cavitation_energy": 29.51, 
			 "cosmo_dispersion_energy": -21.01, 
			 "cosmo_repulsion_energy": 1.65, 
			 "cosmo_total_nonelectrostatic_energy": 10.14, 
			 "SMD_solvation_energy": 5.41 
		},
		"coords": [
			{
				"x": 1.7920292124,
				"y": -1.0402026958,
				"z": 0.5092346952,
				"element": "O" 
			},
			{
				"x": 1.7979887151,
				"y": 0.3068386823,
				"z": 0.6304913816,
				"element": "C" 
			},
			{
				"x": 2.449297236,
				"y": 0.840032753,
				"z": 1.4979097327,
				"element": "O" 
			},
			{
				"x": 0.9830261482,
				"y": 1.0903335286,
				"z": -0.3804450101,
				"element": "C" 
			},
			{
				"x": 1.6528400879,
				"y": 2.3939692,
				"z": -0.8177271322,
				"element": "C" 
			},
			{
				"x": 0.5008775548,
				"y": 2.4442531638,
				"z": 0.1265618052,
				"element": "C" 
			},
			{
				"x": 0.1487610671,
				"y": 0.325353281,
				"z": -1.3682242664,
				"element": "C" 
			},
			{
				"x": 0.6093436174,
				"y": 0.1099139449,
				"z": -2.678424021,
				"element": "C" 
			},
			{
				"x": -0.1285975033,
				"y": -0.5984301133,
				"z": -3.6229992297,
				"element": "C" 
			},
			{
				"x": -1.3696950376,
				"y": -1.1162783369,
				"z": -3.2542510629,
				"element": "C" 
			},
			{
				"x": -2.3229900018,
				"y": -2.0063803667,
				"z": -4.4233864814,
				"element": "Cl" 
			},
			{
				"x": -1.8672531548,
				"y": -0.9412694144,
				"z": -1.9647691768,
				"element": "C" 
			},
			{
				"x": -1.1039874679,
				"y": -0.2290231693,
				"z": -1.0384655138,
				"element": "C" 
			},
			{
				"x": -1.7575194374,
				"y": -0.0490679636,
				"z": 0.5796084428,
				"element": "Cl" 
			},
			{
				"x": 1.2305069086,
				"y": -1.3046100155,
				"z": -0.2353671985,
				"element": "H" 
			},
			{
				"x": 2.6445451743,
				"y": 2.5735308989,
				"z": -0.4177059974,
				"element": "H" 
			},
			{
				"x": 1.4929920555,
				"y": 2.7104399527,
				"z": -1.8435391591,
				"element": "H" 
			},
			{
				"x": 0.7063895989,
				"y": 2.6530821856,
				"z": 1.1703769189,
				"element": "H" 
			},
			{
				"x": -0.4586972235,
				"y": 2.7867445037,
				"z": -0.2461707131,
				"element": "H" 
			},
			{
				"x": 1.5756924069,
				"y": 0.5180875908,
				"z": -2.9582309955,
				"element": "H" 
			},
			{
				"x": 0.2497144894,
				"y": -0.7468960526,
				"z": -4.6278004425,
				"element": "H" 
			},
			{
				"x": -2.8297644462,
				"y": -1.3491215572,
				"z": -1.681776576,
				"element": "H" 
			}
		],
		 "valence_orbital": [ 
			{
				"type": "occ",
				"energy": -0.31994,
				"method": "rhf"
			},
			{
				"type": "occ",
				"energy": -0.30154,
				"method": "rhf"
			},
			{
				"type": "occ",
				"energy": -0.28539,
				"method": "rhf"
			},
			{
				"type": "occ",
				"energy": -0.27812,
				"method": "rhf"
			},
			{
				"type": "occ",
				"energy": -0.25879,
				"method": "rhf"
			},
			{
				"type": "unocc",
				"energy": -0.04751,
				"method": "rhf"
			},
			{
				"type": "unocc",
				"energy": -0.04411,
				"method": "rhf"
			},
			{
				"type": "unocc",
				"energy": -0.00653,
				"method": "rhf"
			},
			{
				"type": "unocc",
				"energy": 0.00746,
				"method": "rhf"
			},
			{
				"type": "unocc",
				"energy": 0.03621,
				"method": "rhf"
			}
		],
		"cosmo_sigma_profile": { 
			"-0.025": 0.0,
			"-0.024": 0.0,
			"-0.023": 0.0,
			"-0.022": 0.0,
			"-0.021": 0.0,
			"-0.02": 0.0,
			"-0.019": 0.0,
			"-0.018": 0.0,
			"-0.017": 0.0,
			"-0.016": 0.113285076512,
			"-0.015": 0.550981973461,
			"-0.014": 0.73560430392,
			"-0.013": 0.646500839267,
			"-0.012": 0.685592580124,
			"-0.011": 1.33884980123,
			"-0.01": 1.07877868535,
			"-0.009": 1.35103969182,
			"-0.008": 4.41405078757,
			"-0.007": 7.94137848509,
			"-0.006": 12.6760345088,
			"-0.005": 12.3669801074,
			"-0.004": 13.6092439494,
			"-0.003": 13.868074369,
			"-0.002": 18.8035039379,
			"-0.001": 18.8011602844,
			"0.0": 23.0939527382,
			"0.001": 26.8587315269,
			"0.002": 17.8772413776,
			"0.003": 17.7874579,
			"0.004": 16.5218047592,
			"0.005": 3.06339748998,
			"0.006": 2.13028331795,
			"0.007": 2.55563417184,
			"0.008": 2.51484986591,
			"0.009": 3.25929516315,
			"0.01": 4.60215855787,
			"0.011": 3.95966439581,
			"0.012": 5.05390033547,
			"0.013": 1.84152362484,
			"0.014": 0.105210224967,
			"0.015": 0.0,
			"0.016": 0.0,
			"0.017": 0.0,
			"0.018": 0.0,
			"0.019": 0.0,
			"0.02": 0.0,
			"0.021": 0.0,
			"0.022": 0.0,
			"0.023": 0.0,
			"0.024": 0.0,
			"0.025": 0.0
		}
	}
}
