{
	 "smiles": "O=C1C=C(NCCCC2=CC=CC=C2)C(=O)C2=CC=CC=C12", 
	 "Tm": 389.15, 
	 "num_atms": 39, 
	 "gaussian": { 
		 "optdone": 1, 
		 "sigma_profile": "yes", 
		 "theory": "DFT", 
		 "functional": "B3LYP", 
		 "basiset": "6-31G**", 
		 "properties": { 
			 "R2extent": 9264.5775, 
			 "electric_dipole_moment_norm": 2.6602805961, 
			 "electric_quadrupole_moment_norm": 25.0132695878, 
			 "total_energy": -939.484118042, 
			 "HOMO_LUMO_gap": 0.12133, 
			 "cosmo_polarized_energy": -14.52, 
			 "cosmo_cavitation_energy": 43.03, 
			 "cosmo_dispersion_energy": -29.77, 
			 "cosmo_repulsion_energy": 2.25, 
			 "cosmo_total_nonelectrostatic_energy": 15.51, 
			 "SMD_solvation_energy": 7.1 
		},
		"coords": [
			{
				"x": 2.2697050311,
				"y": -2.8304073538,
				"z": -2.3652742835,
				"element": "O" 
			},
			{
				"x": 1.2936132619,
				"y": -2.6658279408,
				"z": -1.6305660863,
				"element": "C" 
			},
			{
				"x": 0.5872278837,
				"y": -1.3996166313,
				"z": -1.5545238104,
				"element": "C" 
			},
			{
				"x": -0.4932178981,
				"y": -1.2106470826,
				"z": -0.734149505,
				"element": "C" 
			},
			{
				"x": -1.190017906,
				"y": -0.0635640163,
				"z": -0.5789210436,
				"element": "N" 
			},
			{
				"x": -0.9662481847,
				"y": 1.1501264559,
				"z": -1.3438190041,
				"element": "C" 
			},
			{
				"x": -1.8251657042,
				"y": 2.3040074907,
				"z": -0.8211865449,
				"element": "C" 
			},
			{
				"x": -1.4821105174,
				"y": 2.7695578853,
				"z": 0.6128826901,
				"element": "C" 
			},
			{
				"x": -0.0909782218,
				"y": 3.3541703194,
				"z": 0.7465548671,
				"element": "C" 
			},
			{
				"x": 0.1636749224,
				"y": 4.6803931403,
				"z": 0.3672967832,
				"element": "C" 
			},
			{
				"x": 1.4464740845,
				"y": 5.2199409401,
				"z": 0.4614254784,
				"element": "C" 
			},
			{
				"x": 2.5018482643,
				"y": 4.4390990078,
				"z": 0.938454705,
				"element": "C" 
			},
			{
				"x": 2.2629433622,
				"y": 3.1187446739,
				"z": 1.3211790723,
				"element": "C" 
			},
			{
				"x": 0.9766542882,
				"y": 2.5830716944,
				"z": 1.2261512643,
				"element": "C" 
			},
			{
				"x": -1.0272946858,
				"y": -2.3371616942,
				"z": 0.1165522756,
				"element": "C" 
			},
			{
				"x": -2.0196062916,
				"y": -2.1420792036,
				"z": 0.8139238507,
				"element": "O" 
			},
			{
				"x": -0.3231538926,
				"y": -3.6358970458,
				"z": 0.0630557019,
				"element": "C" 
			},
			{
				"x": -0.7768548721,
				"y": -4.702293338,
				"z": 0.849626902,
				"element": "C" 
			},
			{
				"x": -0.1167236609,
				"y": -5.9278891212,
				"z": 0.8027574781,
				"element": "C" 
			},
			{
				"x": 0.9958207744,
				"y": -6.0908631937,
				"z": -0.0302030482,
				"element": "C" 
			},
			{
				"x": 1.4493869945,
				"y": -5.0309826999,
				"z": -0.8162836001,
				"element": "C" 
			},
			{
				"x": 0.7954577871,
				"y": -3.7989691923,
				"z": -0.7752777064,
				"element": "C" 
			},
			{
				"x": 0.9698964747,
				"y": -0.6051183335,
				"z": -2.1853136652,
				"element": "H" 
			},
			{
				"x": -2.0148364976,
				"y": -0.1544440473,
				"z": 0.003641415,
				"element": "H" 
			},
			{
				"x": 0.0959375156,
				"y": 1.4182156684,
				"z": -1.2813841769,
				"element": "H" 
			},
			{
				"x": -1.1893213237,
				"y": 0.9728672843,
				"z": -2.4070430649,
				"element": "H" 
			},
			{
				"x": -1.7101837124,
				"y": 3.1468864415,
				"z": -1.5118551523,
				"element": "H" 
			},
			{
				"x": -2.883182571,
				"y": 2.011618446,
				"z": -0.8629203916,
				"element": "H" 
			},
			{
				"x": -1.5949932098,
				"y": 1.929619899,
				"z": 1.3077669,
				"element": "H" 
			},
			{
				"x": -2.2245600747,
				"y": 3.519234984,
				"z": 0.9108080469,
				"element": "H" 
			},
			{
				"x": -0.6541050868,
				"y": 5.2980737445,
				"z": 0.0021059724,
				"element": "H" 
			},
			{
				"x": 1.6216099415,
				"y": 6.2511996436,
				"z": 0.1676336337,
				"element": "H" 
			},
			{
				"x": 3.5008823923,
				"y": 4.8584252769,
				"z": 1.0146851428,
				"element": "H" 
			},
			{
				"x": 3.0762238554,
				"y": 2.504261112,
				"z": 1.6969048307,
				"element": "H" 
			},
			{
				"x": 0.7967466534,
				"y": 1.554950482,
				"z": 1.5305759089,
				"element": "H" 
			},
			{
				"x": -1.6422797664,
				"y": -4.5482369297,
				"z": 1.4856138334,
				"element": "H" 
			},
			{
				"x": -0.4660907998,
				"y": -6.7558375461,
				"z": 1.4124552338,
				"element": "H" 
			},
			{
				"x": 1.5089822368,
				"y": -7.0476801315,
				"z": -0.0657214716,
				"element": "H" 
			},
			{
				"x": 2.3080391536,
				"y": -5.1312490884,
				"z": -1.4717094311,
				"element": "H" 
			}
		],
		 "valence_orbital": [ 
			{
				"type": "occ",
				"energy": -0.26154,
				"method": "rhf"
			},
			{
				"type": "occ",
				"energy": -0.25188,
				"method": "rhf"
			},
			{
				"type": "occ",
				"energy": -0.24507,
				"method": "rhf"
			},
			{
				"type": "occ",
				"energy": -0.24118,
				"method": "rhf"
			},
			{
				"type": "occ",
				"energy": -0.21976,
				"method": "rhf"
			},
			{
				"type": "unocc",
				"energy": -0.09843,
				"method": "rhf"
			},
			{
				"type": "unocc",
				"energy": -0.03157,
				"method": "rhf"
			},
			{
				"type": "unocc",
				"energy": -0.00524,
				"method": "rhf"
			},
			{
				"type": "unocc",
				"energy": -0.00349,
				"method": "rhf"
			},
			{
				"type": "unocc",
				"energy": -0.00259,
				"method": "rhf"
			}
		],
		"cosmo_sigma_profile": { 
			"-0.025": 0.0,
			"-0.024": 0.0,
			"-0.023": 0.0,
			"-0.022": 0.0,
			"-0.021": 0.0,
			"-0.02": 0.0,
			"-0.019": 0.0,
			"-0.018": 0.0,
			"-0.017": 0.0,
			"-0.016": 0.0,
			"-0.015": 0.0,
			"-0.014": 0.0,
			"-0.013": 0.0,
			"-0.012": 0.0,
			"-0.011": 0.378477775424,
			"-0.01": 1.13399566548,
			"-0.009": 1.1127871671,
			"-0.008": 1.42316881817,
			"-0.007": 5.35397336848,
			"-0.006": 11.450374033,
			"-0.005": 24.4952166782,
			"-0.004": 35.3671007718,
			"-0.003": 38.8854594796,
			"-0.002": 29.7930356201,
			"-0.001": 30.2380571169,
			"0.0": 27.1683465342,
			"0.001": 24.6973045942,
			"0.002": 26.1709047053,
			"0.003": 22.0911232811,
			"0.004": 11.2188599232,
			"0.005": 11.3589075541,
			"0.006": 10.9215461343,
			"0.007": 5.57296278968,
			"0.008": 2.94196980519,
			"0.009": 3.60987585242,
			"0.01": 4.61001212666,
			"0.011": 3.46807106733,
			"0.012": 2.48725646286,
			"0.013": 4.80621045695,
			"0.014": 1.97847622032,
			"0.015": 0.253533610951,
			"0.016": 0.0,
			"0.017": 0.0,
			"0.018": 0.0,
			"0.019": 0.0,
			"0.02": 0.0,
			"0.021": 0.0,
			"0.022": 0.0,
			"0.023": 0.0,
			"0.024": 0.0,
			"0.025": 0.0
		}
	}
}
