{
	 "smiles": "COC1=CC(=C(O)C(=C1)C(C)(C)C)C(C)(C)C", 
	 "Tm": 378.15, 
	 "num_atms": 41, 
	 "gaussian": { 
		 "optdone": 1, 
		 "sigma_profile": "yes", 
		 "theory": "DFT", 
		 "functional": "B3LYP", 
		 "basiset": "6-31G**", 
		 "properties": { 
			 "R2extent": 4748.331, 
			 "electric_dipole_moment_norm": 2.9601937842, 
			 "electric_quadrupole_moment_norm": 5.66278107735, 
			 "total_energy": -736.510968585, 
			 "HOMO_LUMO_gap": 0.19738, 
			 "cosmo_polarized_energy": -7.89, 
			 "cosmo_cavitation_energy": 38.98, 
			 "cosmo_dispersion_energy": -27.1, 
			 "cosmo_repulsion_energy": 2.08, 
			 "cosmo_total_nonelectrostatic_energy": 13.97, 
			 "SMD_solvation_energy": 7.76 
		},
		"coords": [
			{
				"x": -1.7472733608,
				"y": -0.261289259,
				"z": 3.8197090379,
				"element": "C" 
			},
			{
				"x": -0.4437700169,
				"y": -0.5347044981,
				"z": 3.3434720459,
				"element": "O" 
			},
			{
				"x": -0.208950287,
				"y": -0.4141263357,
				"z": 1.9960038841,
				"element": "C" 
			},
			{
				"x": 1.0962016244,
				"y": -0.6953149595,
				"z": 1.5857715561,
				"element": "C" 
			},
			{
				"x": 1.4803428235,
				"y": -0.6141296766,
				"z": 0.2487754086,
				"element": "C" 
			},
			{
				"x": 0.4888341631,
				"y": -0.2318895421,
				"z": -0.691448671,
				"element": "C" 
			},
			{
				"x": 0.901784436,
				"y": -0.1604119141,
				"z": -2.0083549036,
				"element": "O" 
			},
			{
				"x": -0.8377289258,
				"y": 0.0580724307,
				"z": -0.3088459159,
				"element": "C" 
			},
			{
				"x": -1.1638100701,
				"y": -0.0416581617,
				"z": 1.0561336127,
				"element": "C" 
			},
			{
				"x": -1.9214813533,
				"y": 0.4751741331,
				"z": -1.3363872037,
				"element": "C" 
			},
			{
				"x": -3.288814068,
				"y": 0.7367620118,
				"z": -0.6687170375,
				"element": "C" 
			},
			{
				"x": -2.1621036865,
				"y": -0.6583627748,
				"z": -2.3708982716,
				"element": "C" 
			},
			{
				"x": -1.5290936685,
				"y": 1.8036769353,
				"z": -2.0393696383,
				"element": "C" 
			},
			{
				"x": 2.932825787,
				"y": -0.9310620954,
				"z": -0.1767381016,
				"element": "C" 
			},
			{
				"x": 2.9545366199,
				"y": -2.1266650192,
				"z": -1.1615249059,
				"element": "C" 
			},
			{
				"x": 3.5829412394,
				"y": 0.3125527926,
				"z": -0.8329108738,
				"element": "C" 
			},
			{
				"x": 3.8114305623,
				"y": -1.3201193953,
				"z": 1.0305656375,
				"element": "C" 
			},
			{
				"x": -2.0496972283,
				"y": 0.7748717996,
				"z": 3.6140571587,
				"element": "H" 
			},
			{
				"x": -2.493523657,
				"y": -0.9402405809,
				"z": 3.3843635953,
				"element": "H" 
			},
			{
				"x": -1.714984367,
				"y": -0.4143776757,
				"z": 4.9000782089,
				"element": "H" 
			},
			{
				"x": 1.8010383965,
				"y": -0.9806208614,
				"z": 2.3552350463,
				"element": "H" 
			},
			{
				"x": 0.16351969,
				"y": 0.1042276748,
				"z": -2.5637617335,
				"element": "H" 
			},
			{
				"x": -2.1713725301,
				"y": 0.1746366485,
				"z": 1.3777537768,
				"element": "H" 
			},
			{
				"x": -3.239200307,
				"y": 1.5505166877,
				"z": 0.0612283969,
				"element": "H" 
			},
			{
				"x": -4.0152983836,
				"y": 1.0263061337,
				"z": -1.4348201267,
				"element": "H" 
			},
			{
				"x": -3.6773116308,
				"y": -0.1552776741,
				"z": -0.1679363916,
				"element": "H" 
			},
			{
				"x": -2.5284586326,
				"y": -1.5561324116,
				"z": -1.8636215146,
				"element": "H" 
			},
			{
				"x": -1.2699648509,
				"y": -0.9609408427,
				"z": -2.9274089386,
				"element": "H" 
			},
			{
				"x": -2.9159305498,
				"y": -0.3499080049,
				"z": -3.1036488352,
				"element": "H" 
			},
			{
				"x": -1.4569830622,
				"y": 2.6095969071,
				"z": -1.3026027299,
				"element": "H" 
			},
			{
				"x": -0.5669530604,
				"y": 1.7741039373,
				"z": -2.5595146974,
				"element": "H" 
			},
			{
				"x": -2.2907517883,
				"y": 2.0828624554,
				"z": -2.7757477936,
				"element": "H" 
			},
			{
				"x": 2.5311681797,
				"y": -3.0205813849,
				"z": -0.6903744455,
				"element": "H" 
			},
			{
				"x": 3.9881658019,
				"y": -2.3557588142,
				"z": -1.4461448536,
				"element": "H" 
			},
			{
				"x": 2.3879469023,
				"y": -1.9148723747,
				"z": -2.0682998531,
				"element": "H" 
			},
			{
				"x": 3.0430464326,
				"y": 0.628347834,
				"z": -1.7256231906,
				"element": "H" 
			},
			{
				"x": 3.6059402613,
				"y": 1.1511954523,
				"z": -0.1283129993,
				"element": "H" 
			},
			{
				"x": 4.6171027678,
				"y": 0.0856274088,
				"z": -1.11732659,
				"element": "H" 
			},
			{
				"x": 3.8821067806,
				"y": -0.5129848565,
				"z": 1.7670580808,
				"element": "H" 
			},
			{
				"x": 4.8262105127,
				"y": -1.5346266954,
				"z": 0.6802060024,
				"element": "H" 
			},
			{
				"x": 3.4425125037,
				"y": -2.2177754341,
				"z": 1.5375287671,
				"element": "H" 
			}
		],
		 "valence_orbital": [ 
			{
				"type": "occ",
				"energy": -0.30693,
				"method": "rhf"
			},
			{
				"type": "occ",
				"energy": -0.29663,
				"method": "rhf"
			},
			{
				"type": "occ",
				"energy": -0.28235,
				"method": "rhf"
			},
			{
				"type": "occ",
				"energy": -0.23356,
				"method": "rhf"
			},
			{
				"type": "occ",
				"energy": -0.19006,
				"method": "rhf"
			},
			{
				"type": "unocc",
				"energy": 0.00732,
				"method": "rhf"
			},
			{
				"type": "unocc",
				"energy": 0.02899,
				"method": "rhf"
			},
			{
				"type": "unocc",
				"energy": 0.06463,
				"method": "rhf"
			},
			{
				"type": "unocc",
				"energy": 0.09385,
				"method": "rhf"
			},
			{
				"type": "unocc",
				"energy": 0.10473,
				"method": "rhf"
			}
		],
		"cosmo_sigma_profile": { 
			"-0.025": 0.0,
			"-0.024": 0.0,
			"-0.023": 0.0,
			"-0.022": 0.0,
			"-0.021": 0.0,
			"-0.02": 0.0,
			"-0.019": 0.0,
			"-0.018": 0.0,
			"-0.017": 0.0,
			"-0.016": 0.0,
			"-0.015": 0.0159959057802,
			"-0.014": 0.336814048181,
			"-0.013": 0.457407542436,
			"-0.012": 0.689207968633,
			"-0.011": 0.605961648747,
			"-0.01": 0.887943912934,
			"-0.009": 1.00315923881,
			"-0.008": 0.314241357909,
			"-0.007": 1.0995420425,
			"-0.006": 2.06872120267,
			"-0.005": 8.50135324419,
			"-0.004": 16.3143232341,
			"-0.003": 36.4496499025,
			"-0.002": 40.0704313061,
			"-0.001": 36.3589374752,
			"0.0": 36.5782873596,
			"0.001": 35.982976418,
			"0.002": 25.3959713338,
			"0.003": 11.5820139506,
			"0.004": 12.0230591642,
			"0.005": 13.2559101062,
			"0.006": 12.2572184064,
			"0.007": 3.87520095019,
			"0.008": 1.84186166759,
			"0.009": 1.57299059857,
			"0.01": 1.3901092495,
			"0.011": 1.50926906191,
			"0.012": 0.215646604862,
			"0.013": 0.0,
			"0.014": 0.0,
			"0.015": 0.0,
			"0.016": 0.0,
			"0.017": 0.0,
			"0.018": 0.0,
			"0.019": 0.0,
			"0.02": 0.0,
			"0.021": 0.0,
			"0.022": 0.0,
			"0.023": 0.0,
			"0.024": 0.0,
			"0.025": 0.0
		}
	}
}
