{
	 "smiles": "CN(C)C1=CC=C(C=NN2C(S)=NN=C2C(F)(F)F)C=C1", 
	 "Tm": 473.15, 
	 "num_atms": 33, 
	 "gaussian": { 
		 "optdone": 1, 
		 "sigma_profile": "yes", 
		 "theory": "DFT", 
		 "functional": "B3LYP", 
		 "basiset": "6-31G**", 
		 "properties": { 
			 "R2extent": 10554.3397, 
			 "electric_dipole_moment_norm": 12.1440910903, 
			 "electric_quadrupole_moment_norm": 21.8295351426, 
			 "total_energy": -1435.89652444, 
			 "HOMO_LUMO_gap": 0.14196, 
			 "cosmo_polarized_energy": -17.26, 
			 "cosmo_cavitation_energy": 40.62, 
			 "cosmo_dispersion_energy": -28.84, 
			 "cosmo_repulsion_energy": 2.08, 
			 "cosmo_total_nonelectrostatic_energy": 13.85, 
			 "SMD_solvation_energy": 5.01 
		},
		"coords": [
			{
				"x": -3.3978873418,
				"y": 2.8569183258,
				"z": 2.2568052504,
				"element": "C" 
			},
			{
				"x": -3.0414445669,
				"y": 2.6672165504,
				"z": 0.858414509,
				"element": "N" 
			},
			{
				"x": -3.6874345664,
				"y": 3.4786720642,
				"z": -0.1622724668,
				"element": "C" 
			},
			{
				"x": -2.0746713597,
				"y": 1.7564799776,
				"z": 0.5062838594,
				"element": "C" 
			},
			{
				"x": -1.697096306,
				"y": 1.5675218794,
				"z": -0.8477640264,
				"element": "C" 
			},
			{
				"x": -0.7224384837,
				"y": 0.6444466465,
				"z": -1.187696614,
				"element": "C" 
			},
			{
				"x": -0.0744206477,
				"y": -0.1384951807,
				"z": -0.2150138465,
				"element": "C" 
			},
			{
				"x": 0.9265206787,
				"y": -1.0985219917,
				"z": -0.629086343,
				"element": "C" 
			},
			{
				"x": 1.4967435807,
				"y": -1.8956797775,
				"z": 0.2144541915,
				"element": "N" 
			},
			{
				"x": 2.4680922691,
				"y": -2.7571774897,
				"z": -0.2778165158,
				"element": "N" 
			},
			{
				"x": 2.681428472,
				"y": -3.9984371045,
				"z": 0.2791354622,
				"element": "C" 
			},
			{
				"x": 1.6893566977,
				"y": -4.7014439379,
				"z": 1.5476515979,
				"element": "S" 
			},
			{
				"x": 3.7108834608,
				"y": -4.5958011016,
				"z": -0.2810243889,
				"element": "N" 
			},
			{
				"x": 4.2241605171,
				"y": -3.7286189703,
				"z": -1.2140560286,
				"element": "N" 
			},
			{
				"x": 3.4925419693,
				"y": -2.6421429984,
				"z": -1.2085198443,
				"element": "C" 
			},
			{
				"x": 3.7867238569,
				"y": -1.454229423,
				"z": -2.0688536764,
				"element": "C" 
			},
			{
				"x": 2.901245752,
				"y": -1.3383908368,
				"z": -3.0982536761,
				"element": "F" 
			},
			{
				"x": 5.0058757028,
				"y": -1.5416984937,
				"z": -2.5993404,
				"element": "F" 
			},
			{
				"x": 3.7053325342,
				"y": -0.3020810471,
				"z": -1.3634390572,
				"element": "F" 
			},
			{
				"x": -0.4412628714,
				"y": 0.0536768448,
				"z": 1.1325583406,
				"element": "C" 
			},
			{
				"x": -1.4111125627,
				"y": 0.9702574953,
				"z": 1.4887637719,
				"element": "C" 
			},
			{
				"x": -4.1850155724,
				"y": 3.6077237676,
				"z": 2.3266047897,
				"element": "H" 
			},
			{
				"x": -3.7753718251,
				"y": 1.9306832366,
				"z": 2.7084952334,
				"element": "H" 
			},
			{
				"x": -2.5446001848,
				"y": 3.2047670346,
				"z": 2.8540202221,
				"element": "H" 
			},
			{
				"x": -2.9673602628,
				"y": 4.1109909059,
				"z": -0.6985009122,
				"element": "H" 
			},
			{
				"x": -4.2125179869,
				"y": 2.859000174,
				"z": -0.9005869523,
				"element": "H" 
			},
			{
				"x": -4.4217185492,
				"y": 4.1312716135,
				"z": 0.3100109577,
				"element": "H" 
			},
			{
				"x": -2.1661894197,
				"y": 2.1459143108,
				"z": -1.633259279,
				"element": "H" 
			},
			{
				"x": -0.4541268801,
				"y": 0.523573508,
				"z": -2.2344302577,
				"element": "H" 
			},
			{
				"x": 1.1708413175,
				"y": -1.1192913919,
				"z": -1.6917897157,
				"element": "H" 
			},
			{
				"x": 0.9747971545,
				"y": -3.570282998,
				"z": 1.726051943,
				"element": "H" 
			},
			{
				"x": 0.0582354864,
				"y": -0.5270540996,
				"z": 1.901012574,
				"element": "H" 
			},
			{
				"x": -1.6570100626,
				"y": 1.0880325074,
				"z": 2.5365412981,
				"element": "H" 
			}
		],
		 "valence_orbital": [ 
			{
				"type": "occ",
				"energy": -0.27255,
				"method": "rhf"
			},
			{
				"type": "occ",
				"energy": -0.2717,
				"method": "rhf"
			},
			{
				"type": "occ",
				"energy": -0.25767,
				"method": "rhf"
			},
			{
				"type": "occ",
				"energy": -0.23451,
				"method": "rhf"
			},
			{
				"type": "occ",
				"energy": -0.21154,
				"method": "rhf"
			},
			{
				"type": "unocc",
				"energy": -0.06958,
				"method": "rhf"
			},
			{
				"type": "unocc",
				"energy": -0.01829,
				"method": "rhf"
			},
			{
				"type": "unocc",
				"energy": 0.00024,
				"method": "rhf"
			},
			{
				"type": "unocc",
				"energy": 0.01811,
				"method": "rhf"
			},
			{
				"type": "unocc",
				"energy": 0.03385,
				"method": "rhf"
			}
		],
		"cosmo_sigma_profile": { 
			"-0.025": 0.0,
			"-0.024": 0.0,
			"-0.023": 0.0,
			"-0.022": 0.0,
			"-0.021": 0.0,
			"-0.02": 0.0,
			"-0.019": 0.0,
			"-0.018": 0.0,
			"-0.017": 0.0,
			"-0.016": 0.0,
			"-0.015": 0.0,
			"-0.014": 0.0,
			"-0.013": 0.0,
			"-0.012": 0.0460946543545,
			"-0.011": 0.856645248684,
			"-0.01": 0.684244311721,
			"-0.009": 1.33595981621,
			"-0.008": 3.64619458614,
			"-0.007": 7.76566984435,
			"-0.006": 12.9830832563,
			"-0.005": 22.5070543337,
			"-0.004": 29.02498966,
			"-0.003": 28.3287293075,
			"-0.002": 29.443959146,
			"-0.001": 20.6943969358,
			"0.0": 22.1754408509,
			"0.001": 33.2100491692,
			"0.002": 38.2765546772,
			"0.003": 20.0819980996,
			"0.004": 16.3744180106,
			"0.005": 12.3446281628,
			"0.006": 4.86664693822,
			"0.007": 3.50649911022,
			"0.008": 2.88930205082,
			"0.009": 1.61989113877,
			"0.01": 2.48508547622,
			"0.011": 3.59801322096,
			"0.012": 3.35352921326,
			"0.013": 2.23680189689,
			"0.014": 2.74140853351,
			"0.015": 1.03586011208,
			"0.016": 0.165910291219,
			"0.017": 0.0,
			"0.018": 0.0,
			"0.019": 0.0,
			"0.02": 0.0,
			"0.021": 0.0,
			"0.022": 0.0,
			"0.023": 0.0,
			"0.024": 0.0,
			"0.025": 0.0
		}
	}
}
