{
	 "smiles": "CC(Cl)C(=O)NC1CC1", 
	 "Tm": 342.15, 
	 "num_atms": 19, 
	 "gaussian": { 
		 "optdone": 1, 
		 "sigma_profile": "yes", 
		 "theory": "DFT", 
		 "functional": "B3LYP", 
		 "basiset": "6-31G**", 
		 "properties": { 
			 "R2extent": 1851.8225, 
			 "electric_dipole_moment_norm": 1.60893548037, 
			 "electric_quadrupole_moment_norm": 10.7104677438, 
			 "total_energy": -824.823176365, 
			 "HOMO_LUMO_gap": 0.26289, 
			 "cosmo_polarized_energy": -9.58, 
			 "cosmo_cavitation_energy": 23.96, 
			 "cosmo_dispersion_energy": -17.27, 
			 "cosmo_repulsion_energy": 1.46, 
			 "cosmo_total_nonelectrostatic_energy": 8.15, 
			 "SMD_solvation_energy": 3.63 
		},
		"coords": [
			{
				"x": 2.5540697813,
				"y": 0.5594860001,
				"z": 0.632847772,
				"element": "C" 
			},
			{
				"x": 1.5871250943,
				"y": -0.1531505596,
				"z": -0.3070573716,
				"element": "C" 
			},
			{
				"x": 0.9531160424,
				"y": -1.6854936989,
				"z": 0.4928021373,
				"element": "Cl" 
			},
			{
				"x": 0.489103936,
				"y": 0.8070936601,
				"z": -0.8013158291,
				"element": "C" 
			},
			{
				"x": 0.8519523378,
				"y": 1.7947320811,
				"z": -1.4279435051,
				"element": "O" 
			},
			{
				"x": -0.8035663464,
				"y": 0.5219179814,
				"z": -0.503213058,
				"element": "N" 
			},
			{
				"x": -1.8843897493,
				"y": 1.3371741399,
				"z": -0.9848932761,
				"element": "C" 
			},
			{
				"x": -2.1816343454,
				"y": 2.643224158,
				"z": -0.2971436762,
				"element": "C" 
			},
			{
				"x": -3.106992177,
				"y": 1.4645752636,
				"z": -0.1153062974,
				"element": "C" 
			},
			{
				"x": 3.3985040329,
				"y": -0.0861936428,
				"z": 0.8828027069,
				"element": "H" 
			},
			{
				"x": 2.0514424126,
				"y": 0.8560835719,
				"z": 1.5575279639,
				"element": "H" 
			},
			{
				"x": 2.9198232153,
				"y": 1.4564890627,
				"z": 0.1269099181,
				"element": "H" 
			},
			{
				"x": 2.1106900645,
				"y": -0.5102345427,
				"z": -1.1955792264,
				"element": "H" 
			},
			{
				"x": -1.0115306076,
				"y": -0.3698381916,
				"z": -0.0759123353,
				"element": "H" 
			},
			{
				"x": -2.0291999162,
				"y": 1.3046948935,
				"z": -2.0629277796,
				"element": "H" 
			},
			{
				"x": -2.5050101836,
				"y": 3.4745003344,
				"z": -0.9149254712,
				"element": "H" 
			},
			{
				"x": -1.5432288149,
				"y": 2.9175023206,
				"z": 0.5356451642,
				"element": "H" 
			},
			{
				"x": -4.0766972986,
				"y": 1.4750991033,
				"z": -0.6025647458,
				"element": "H" 
			},
			{
				"x": -3.0938774782,
				"y": 0.9597380651,
				"z": 0.8465469092,
				"element": "H" 
			}
		],
		 "valence_orbital": [ 
			{
				"type": "occ",
				"energy": -0.31626,
				"method": "rhf"
			},
			{
				"type": "occ",
				"energy": -0.30723,
				"method": "rhf"
			},
			{
				"type": "occ",
				"energy": -0.30326,
				"method": "rhf"
			},
			{
				"type": "occ",
				"energy": -0.25767,
				"method": "rhf"
			},
			{
				"type": "occ",
				"energy": -0.25223,
				"method": "rhf"
			},
			{
				"type": "unocc",
				"energy": 0.01066,
				"method": "rhf"
			},
			{
				"type": "unocc",
				"energy": 0.01887,
				"method": "rhf"
			},
			{
				"type": "unocc",
				"energy": 0.09602,
				"method": "rhf"
			},
			{
				"type": "unocc",
				"energy": 0.09821,
				"method": "rhf"
			},
			{
				"type": "unocc",
				"energy": 0.11032,
				"method": "rhf"
			}
		],
		"cosmo_sigma_profile": { 
			"-0.025": 0.0,
			"-0.024": 0.0,
			"-0.023": 0.0,
			"-0.022": 0.0,
			"-0.021": 0.0,
			"-0.02": 0.0,
			"-0.019": 0.0,
			"-0.018": 0.0,
			"-0.017": 0.0,
			"-0.016": 0.0,
			"-0.015": 0.0,
			"-0.014": 0.0,
			"-0.013": 0.0,
			"-0.012": 0.141360592988,
			"-0.011": 0.604690496761,
			"-0.01": 1.07999428549,
			"-0.009": 0.939759624281,
			"-0.008": 2.96803582205,
			"-0.007": 3.59369085065,
			"-0.006": 5.49392960036,
			"-0.005": 16.2949199491,
			"-0.004": 19.6340694126,
			"-0.003": 16.3302112439,
			"-0.002": 18.2695660273,
			"-0.001": 19.494149564,
			"0.0": 16.1455338431,
			"0.001": 11.0442014914,
			"0.002": 9.53565009896,
			"0.003": 7.48761908601,
			"0.004": 7.6862173199,
			"0.005": 8.77758497377,
			"0.006": 6.69063033874,
			"0.007": 1.89609685355,
			"0.008": 0.980224845776,
			"0.009": 1.64091698587,
			"0.01": 1.29838227065,
			"0.011": 1.9581484143,
			"0.012": 2.46069164992,
			"0.013": 4.97702352326,
			"0.014": 2.95253740967,
			"0.015": 0.0777403567672,
			"0.016": 0.0,
			"0.017": 0.0,
			"0.018": 0.0,
			"0.019": 0.0,
			"0.02": 0.0,
			"0.021": 0.0,
			"0.022": 0.0,
			"0.023": 0.0,
			"0.024": 0.0,
			"0.025": 0.0
		}
	}
}
