{
	 "smiles": "CC(C)N1C(=O)C(=O)C2=C1C=CC=C2", 
	 "Tm": 351.15, 
	 "num_atms": 25, 
	 "gaussian": { 
		 "optdone": 1, 
		 "sigma_profile": "yes", 
		 "theory": "DFT", 
		 "functional": "B3LYP", 
		 "basiset": "6-31G**", 
		 "properties": { 
			 "R2extent": 2990.8068, 
			 "electric_dipole_moment_norm": 5.77149415403, 
			 "electric_quadrupole_moment_norm": 16.5237731191, 
			 "total_energy": -631.011220753, 
			 "HOMO_LUMO_gap": 0.1365, 
			 "cosmo_polarized_energy": -13.0, 
			 "cosmo_cavitation_energy": 28.58, 
			 "cosmo_dispersion_energy": -20.33, 
			 "cosmo_repulsion_energy": 1.58, 
			 "cosmo_total_nonelectrostatic_energy": 9.84, 
			 "SMD_solvation_energy": 6.3 
		},
		"coords": [
			{
				"x": 0.0422300884,
				"y": 3.3928001273,
				"z": -0.6918686356,
				"element": "C" 
			},
			{
				"x": -0.6088654102,
				"y": 2.0604647045,
				"z": -0.2954730545,
				"element": "C" 
			},
			{
				"x": -2.0499898832,
				"y": 1.9310707263,
				"z": -0.8079573289,
				"element": "C" 
			},
			{
				"x": 0.2134108615,
				"y": 0.9188300285,
				"z": -0.7438438434,
				"element": "N" 
			},
			{
				"x": 0.4841057693,
				"y": 0.6370446799,
				"z": -2.0757515737,
				"element": "C" 
			},
			{
				"x": 0.1043572855,
				"y": 1.2590028872,
				"z": -3.0480289582,
				"element": "O" 
			},
			{
				"x": 1.3796290612,
				"y": -0.6454972336,
				"z": -2.0758158792,
				"element": "C" 
			},
			{
				"x": 1.810138315,
				"y": -1.1831685468,
				"z": -3.0734002833,
				"element": "O" 
			},
			{
				"x": 1.5401563639,
				"y": -0.9896699318,
				"z": -0.6579540719,
				"element": "C" 
			},
			{
				"x": 0.8297929741,
				"y": -0.0321227346,
				"z": 0.0977596461,
				"element": "C" 
			},
			{
				"x": 0.8093838604,
				"y": -0.114388039,
				"z": 1.487184955,
				"element": "C" 
			},
			{
				"x": 1.5101807513,
				"y": -1.1675823438,
				"z": 2.0922798663,
				"element": "C" 
			},
			{
				"x": 2.2154916751,
				"y": -2.1188705295,
				"z": 1.347243351,
				"element": "C" 
			},
			{
				"x": 2.2316974558,
				"y": -2.0301372724,
				"z": -0.0466560263,
				"element": "C" 
			},
			{
				"x": 0.0928232271,
				"y": 3.4867315785,
				"z": -1.7785819835,
				"element": "H" 
			},
			{
				"x": 1.0555110978,
				"y": 3.4679033453,
				"z": -0.2858347198,
				"element": "H" 
			},
			{
				"x": -0.5477836597,
				"y": 4.2257326962,
				"z": -0.2968357527,
				"element": "H" 
			},
			{
				"x": -0.6265138125,
				"y": 1.9991845996,
				"z": 0.7962500942,
				"element": "H" 
			},
			{
				"x": -2.0741725029,
				"y": 1.9724185104,
				"z": -1.8988482187,
				"element": "H" 
			},
			{
				"x": -2.4963488516,
				"y": 0.9864539529,
				"z": -0.4828386052,
				"element": "H" 
			},
			{
				"x": -2.6586233745,
				"y": 2.7511036004,
				"z": -0.4141764936,
				"element": "H" 
			},
			{
				"x": 0.2747678516,
				"y": 0.6028345118,
				"z": 2.0994576197,
				"element": "H" 
			},
			{
				"x": 1.5010256457,
				"y": -1.2414842556,
				"z": 3.1761396216,
				"element": "H" 
			},
			{
				"x": 2.7454208727,
				"y": -2.9191636032,
				"z": 1.8530543595,
				"element": "H" 
			},
			{
				"x": 2.7677743384,
				"y": -2.7493914584,
				"z": -0.6586040847,
				"element": "H" 
			}
		],
		 "valence_orbital": [ 
			{
				"type": "occ",
				"energy": -0.31578,
				"method": "rhf"
			},
			{
				"type": "occ",
				"energy": -0.30298,
				"method": "rhf"
			},
			{
				"type": "occ",
				"energy": -0.27522,
				"method": "rhf"
			},
			{
				"type": "occ",
				"energy": -0.24082,
				"method": "rhf"
			},
			{
				"type": "occ",
				"energy": -0.23082,
				"method": "rhf"
			},
			{
				"type": "unocc",
				"energy": -0.09432,
				"method": "rhf"
			},
			{
				"type": "unocc",
				"energy": -0.01965,
				"method": "rhf"
			},
			{
				"type": "unocc",
				"energy": 0.0102,
				"method": "rhf"
			},
			{
				"type": "unocc",
				"energy": 0.07289,
				"method": "rhf"
			},
			{
				"type": "unocc",
				"energy": 0.08505,
				"method": "rhf"
			}
		],
		"cosmo_sigma_profile": { 
			"-0.025": 0.0,
			"-0.024": 0.0,
			"-0.023": 0.0,
			"-0.022": 0.0,
			"-0.021": 0.0,
			"-0.02": 0.0,
			"-0.019": 0.0,
			"-0.018": 0.0,
			"-0.017": 0.0,
			"-0.016": 0.0,
			"-0.015": 0.0,
			"-0.014": 0.0,
			"-0.013": 0.0,
			"-0.012": 0.0,
			"-0.011": 0.0,
			"-0.01": 0.0257342354971,
			"-0.009": 1.28242389141,
			"-0.008": 2.43050827221,
			"-0.007": 8.34209993046,
			"-0.006": 11.1423377259,
			"-0.005": 13.3794890467,
			"-0.004": 20.3201865868,
			"-0.003": 20.0253991811,
			"-0.002": 21.2589104965,
			"-0.001": 21.0785582164,
			"0.0": 24.5016831773,
			"0.001": 17.7609991406,
			"0.002": 13.0863354817,
			"0.003": 12.5564177165,
			"0.004": 5.18398469666,
			"0.005": 3.35546063934,
			"0.006": 2.7438137181,
			"0.007": 2.49556700906,
			"0.008": 3.38556603955,
			"0.009": 4.02027962434,
			"0.01": 7.01000218792,
			"0.011": 6.88225936576,
			"0.012": 4.63754918395,
			"0.013": 0.866323552225,
			"0.014": 0.0,
			"0.015": 0.0,
			"0.016": 0.0,
			"0.017": 0.0,
			"0.018": 0.0,
			"0.019": 0.0,
			"0.02": 0.0,
			"0.021": 0.0,
			"0.022": 0.0,
			"0.023": 0.0,
			"0.024": 0.0,
			"0.0": 0.0
		}
	}
}
