{
	 "smiles": "COC1=CC=C2C(OC(=O)C2=C1OC)C1N(C)CCC2=CC3=C(OCO3)C(OC)=C12", 
	 "Tm": 449.15, 
	 "num_atms": 53, 
	 "gaussian": { 
		 "optdone": 1, 
		 "sigma_profile": "yes", 
		 "theory": "DFT", 
		 "functional": "B3LYP", 
		 "basiset": "6-31G**", 
		 "properties": { 
			 "R2extent": 13744.2413, 
			 "electric_dipole_moment_norm": 1.97278449406, 
			 "electric_quadrupole_moment_norm": 10.3825715938, 
			 "total_energy": -1433.44894793, 
			 "HOMO_LUMO_gap": 0.1587, 
			 "cosmo_polarized_energy": -15.7, 
			 "cosmo_cavitation_energy": 52.89, 
			 "cosmo_dispersion_energy": -36.38, 
			 "cosmo_repulsion_energy": 2.7, 
			 "cosmo_total_nonelectrostatic_energy": 19.21, 
			 "SMD_solvation_energy": 11.59 
		},
		"coords": [
			{
				"x": 3.9822560816,
				"y": 0.7590710839,
				"z": -4.3102680038,
				"element": "C" 
			},
			{
				"x": 3.9894291086,
				"y": -0.5055130697,
				"z": -3.638771513,
				"element": "O" 
			},
			{
				"x": 3.1680309463,
				"y": -0.6168859439,
				"z": -2.547019973,
				"element": "C" 
			},
			{
				"x": 3.7638474688,
				"y": -0.8421927795,
				"z": -1.2995976304,
				"element": "C" 
			},
			{
				"x": 3.0042498222,
				"y": -1.0410102632,
				"z": -0.1453425316,
				"element": "C" 
			},
			{
				"x": 1.6199365643,
				"y": -0.9812021599,
				"z": -0.2620050388,
				"element": "C" 
			},
			{
				"x": 0.5448663235,
				"y": -1.1095796108,
				"z": 0.7883447589,
				"element": "C" 
			},
			{
				"x": -0.6861875419,
				"y": -1.0109892866,
				"z": 0.0374912568,
				"element": "O" 
			},
			{
				"x": -0.4582093576,
				"y": -0.7605324456,
				"z": -1.2880394365,
				"element": "C" 
			},
			{
				"x": -1.3761384362,
				"y": -0.5748955623,
				"z": -2.0570204981,
				"element": "O" 
			},
			{
				"x": 1.0068460029,
				"y": -0.773557426,
				"z": -1.5029360316,
				"element": "C" 
			},
			{
				"x": 1.7619468845,
				"y": -0.5929078683,
				"z": -2.6752375633,
				"element": "C" 
			},
			{
				"x": 1.2429306592,
				"y": -0.3583339772,
				"z": -3.9120238929,
				"element": "O" 
			},
			{
				"x": 0.3833406354,
				"y": -1.3634590051,
				"z": -4.4759774818,
				"element": "C" 
			},
			{
				"x": 0.5465514334,
				"y": -0.0126873966,
				"z": 1.9023573053,
				"element": "C" 
			},
			{
				"x": 1.8166155373,
				"y": -0.118859265,
				"z": 2.6532345726,
				"element": "N" 
			},
			{
				"x": 2.6273063134,
				"y": 1.092413934,
				"z": 2.5868793245,
				"element": "C" 
			},
			{
				"x": 1.7280645775,
				"y": -0.6151863284,
				"z": 4.0300128615,
				"element": "C" 
			},
			{
				"x": 0.6213819376,
				"y": -1.6586358653,
				"z": 4.1889895295,
				"element": "C" 
			},
			{
				"x": -0.7024886908,
				"y": -1.0199163774,
				"z": 3.8398932374,
				"element": "C" 
			},
			{
				"x": -1.8592788258,
				"y": -1.2446556426,
				"z": 4.6071128954,
				"element": "C" 
			},
			{
				"x": -2.995291798,
				"y": -0.558428866,
				"z": 4.2268078709,
				"element": "C" 
			},
			{
				"x": -3.0107838243,
				"y": 0.3398343851,
				"z": 3.164308707,
				"element": "C" 
			},
			{
				"x": -4.2560200722,
				"y": 0.9377374792,
				"z": 3.0845824863,
				"element": "O" 
			},
			{
				"x": -5.0864702879,
				"y": 0.1725047276,
				"z": 3.9623503222,
				"element": "C" 
			},
			{
				"x": -4.2301924765,
				"y": -0.5697529392,
				"z": 4.8344092621,
				"element": "O" 
			},
			{
				"x": -1.876710624,
				"y": 0.5809667775,
				"z": 2.3974167669,
				"element": "C" 
			},
			{
				"x": -1.8057140656,
				"y": 1.4991336844,
				"z": 1.3925842357,
				"element": "O" 
			},
			{
				"x": -2.8723467446,
				"y": 1.5171849048,
				"z": 0.4296108607,
				"element": "C" 
			},
			{
				"x": -0.70781895,
				"y": -0.1379964504,
				"z": 2.7507043452,
				"element": "C" 
			},
			{
				"x": 4.3025910816,
				"y": 1.561033215,
				"z": -3.6324103631,
				"element": "H" 
			},
			{
				"x": 2.9937489702,
				"y": 0.9915812168,
				"z": -4.7142501155,
				"element": "H" 
			},
			{
				"x": 4.7029530718,
				"y": 0.6705453403,
				"z": -5.1256910016,
				"element": "H" 
			},
			{
				"x": 4.8484526033,
				"y": -0.8768164896,
				"z": -1.2670035405,
				"element": "H" 
			},
			{
				"x": 3.4729481414,
				"y": -1.2186565514,
				"z": 0.8148042942,
				"element": "H" 
			},
			{
				"x": 0.5562551991,
				"y": -2.0955663348,
				"z": 1.2657018353,
				"element": "H" 
			},
			{
				"x": 0.8890262635,
				"y": -2.3360094997,
				"z": -4.4827788784,
				"element": "H" 
			},
			{
				"x": -0.560136788,
				"y": -1.4212721076,
				"z": -3.9308739508,
				"element": "H" 
			},
			{
				"x": 0.1992296392,
				"y": -1.0462898334,
				"z": -5.5038657764,
				"element": "H" 
			},
			{
				"x": 0.5136778686,
				"y": 0.9499096035,
				"z": 1.3861560288,
				"element": "H" 
			},
			{
				"x": 2.171303315,
				"y": 1.9493900469,
				"z": 3.1151016027,
				"element": "H" 
			},
			{
				"x": 3.6046418293,
				"y": 0.9006248956,
				"z": 3.0438653044,
				"element": "H" 
			},
			{
				"x": 2.7977639175,
				"y": 1.3772263784,
				"z": 1.5456424333,
				"element": "H" 
			},
			{
				"x": 2.7029144183,
				"y": -1.0399316865,
				"z": 4.3028241247,
				"element": "H" 
			},
			{
				"x": 1.523954847,
				"y": 0.2063914025,
				"z": 4.741746793,
				"element": "H" 
			},
			{
				"x": 0.8369180182,
				"y": -2.5246689873,
				"z": 3.5473130097,
				"element": "H" 
			},
			{
				"x": 0.6097026812,
				"y": -2.0274508075,
				"z": 5.2195583169,
				"element": "H" 
			},
			{
				"x": -1.8594672788,
				"y": -1.9142729629,
				"z": 5.4598910689,
				"element": "H" 
			},
			{
				"x": -5.7044458238,
				"y": -0.5237757525,
				"z": 3.3744610047,
				"element": "H" 
			},
			{
				"x": -5.710768035,
				"y": 0.8489274486,
				"z": 4.5518453011,
				"element": "H" 
			},
			{
				"x": -3.8322119429,
				"y": 1.7425686283,
				"z": 0.9011018978,
				"element": "H" 
			},
			{
				"x": -2.6147393751,
				"y": 2.3085946988,
				"z": -0.2760514371,
				"element": "H" 
			},
			{
				"x": -2.9206612224,
				"y": 0.5631496909,
				"z": -0.1033389563,
				"element": "H" 
			}
		],
		 "valence_orbital": [ 
			{
				"type": "occ",
				"energy": -0.25529,
				"method": "rhf"
			},
			{
				"type": "occ",
				"energy": -0.22956,
				"method": "rhf"
			},
			{
				"type": "occ",
				"energy": -0.21774,
				"method": "rhf"
			},
			{
				"type": "occ",
				"energy": -0.2138,
				"method": "rhf"
			},
			{
				"type": "occ",
				"energy": -0.20277,
				"method": "rhf"
			},
			{
				"type": "unocc",
				"energy": -0.04407,
				"method": "rhf"
			},
			{
				"type": "unocc",
				"energy": -0.00933,
				"method": "rhf"
			},
			{
				"type": "unocc",
				"energy": 0.00834,
				"method": "rhf"
			},
			{
				"type": "unocc",
				"energy": 0.00955,
				"method": "rhf"
			},
			{
				"type": "unocc",
				"energy": 0.05794,
				"method": "rhf"
			}
		],
		"cosmo_sigma_profile": { 
			"-0.025": 0.0,
			"-0.024": 0.0,
			"-0.023": 0.0,
			"-0.022": 0.0,
			"-0.021": 0.0,
			"-0.02": 0.0,
			"-0.019": 0.0,
			"-0.018": 0.0,
			"-0.017": 0.0,
			"-0.016": 0.0,
			"-0.015": 0.0,
			"-0.014": 0.0,
			"-0.013": 0.0,
			"-0.012": 0.0,
			"-0.011": 0.0,
			"-0.01": 0.0,
			"-0.009": 0.00242807490798,
			"-0.008": 2.66475987704,
			"-0.007": 8.12751269048,
			"-0.006": 17.3013687401,
			"-0.005": 24.9518128184,
			"-0.004": 33.0751942088,
			"-0.003": 46.1265316267,
			"-0.002": 51.9029471974,
			"-0.001": 41.5348335694,
			"0.0": 32.761559364,
			"0.001": 24.321303531,
			"0.002": 26.9538897892,
			"0.003": 24.3054448512,
			"0.004": 19.9357808885,
			"0.005": 13.4124672071,
			"0.006": 11.1461128555,
			"0.007": 8.72776821311,
			"0.008": 9.59717243057,
			"0.009": 8.51464453669,
			"0.01": 5.83775349979,
			"0.011": 5.13831750862,
			"0.012": 2.40898574614,
			"0.013": 0.0604874213814,
			"0.014": 0.0,
			"0.015": 0.0,
			"0.016": 0.0,
			"0.017": 0.0,
			"0.018": 0.0,
			"0.019": 0.0,
			"0.02": 0.0,
			"0.021": 0.0,
			"0.022": 0.0,
			"0.023": 0.0,
			"0.024": 0.0,
			"0.025": 0.0
		}
	}
}
