{
	 "smiles": "CCN(CC)C1=CC=C(C=C[N+]([O-])=O)C=C1", 
	 "Tm": 372.15, 
	 "num_atms": 32, 
	 "gaussian": { 
		 "optdone": 1, 
		 "sigma_profile": "yes", 
		 "theory": "DFT", 
		 "functional": "B3LYP", 
		 "basiset": "6-31G**", 
		 "properties": { 
			 "R2extent": 6149.3616, 
			 "electric_dipole_moment_norm": 7.20539901532, 
			 "electric_quadrupole_moment_norm": 27.7802627984, 
			 "total_energy": -726.752684967, 
			 "HOMO_LUMO_gap": 0.12936, 
			 "cosmo_polarized_energy": -11.95, 
			 "cosmo_cavitation_energy": 35.39, 
			 "cosmo_dispersion_energy": -24.9, 
			 "cosmo_repulsion_energy": 1.96, 
			 "cosmo_total_nonelectrostatic_energy": 12.45, 
			 "SMD_solvation_energy": 7.52 
		},
		"coords": [
			{
				"x": -0.924848885,
				"y": -2.2831946941,
				"z": -2.7451229752,
				"element": "C" 
			},
			{
				"x": -1.8746682164,
				"y": -1.1159268424,
				"z": -2.4850916477,
				"element": "C" 
			},
			{
				"x": -2.0944715624,
				"y": -0.7783770251,
				"z": -1.0608165352,
				"element": "N" 
			},
			{
				"x": -3.2849570858,
				"y": 0.0662788321,
				"z": -0.8815041651,
				"element": "C" 
			},
			{
				"x": -3.7424769124,
				"y": 0.1521142482,
				"z": 0.5741654134,
				"element": "C" 
			},
			{
				"x": -0.9251897222,
				"y": -0.3649364777,
				"z": -0.3581674316,
				"element": "C" 
			},
			{
				"x": -0.0478376577,
				"y": -1.3398777208,
				"z": 0.1470501946,
				"element": "C" 
			},
			{
				"x": 1.107246302,
				"y": -0.9769240759,
				"z": 0.8276527291,
				"element": "C" 
			},
			{
				"x": 1.4288239532,
				"y": 0.3751241517,
				"z": 1.0542201081,
				"element": "C" 
			},
			{
				"x": 2.6471562717,
				"y": 0.6920584119,
				"z": 1.7848595341,
				"element": "C" 
			},
			{
				"x": 3.1066842178,
				"y": 1.9118814896,
				"z": 2.1064765684,
				"element": "C" 
			},
			{
				"x": 4.3480303007,
				"y": 2.0608750805,
				"z": 2.8377855803,
				"element": "N" 
			},
			{
				"x": 4.9828651483,
				"y": 1.0550722304,
				"z": 3.1669333595,
				"element": "O" 
			},
			{
				"x": 4.689291145,
				"y": 3.2220885818,
				"z": 3.0854867466,
				"element": "O" 
			},
			{
				"x": 0.5397608523,
				"y": 1.3506363439,
				"z": 0.5619718189,
				"element": "C" 
			},
			{
				"x": -0.6078288315,
				"y": 0.9897155903,
				"z": -0.1303243719,
				"element": "C" 
			},
			{
				"x": -1.2569286113,
				"y": -3.1834573694,
				"z": -2.218949804,
				"element": "H" 
			},
			{
				"x": 0.1004945764,
				"y": -2.0613633376,
				"z": -2.4396957155,
				"element": "H" 
			},
			{
				"x": -0.9107670884,
				"y": -2.5002306491,
				"z": -3.8182148232,
				"element": "H" 
			},
			{
				"x": -1.5262438316,
				"y": -0.2296654286,
				"z": -3.0460371074,
				"element": "H" 
			},
			{
				"x": -2.8584962452,
				"y": -1.3741692505,
				"z": -2.8911291877,
				"element": "H" 
			},
			{
				"x": -4.0809980276,
				"y": -0.3999444159,
				"z": -1.4718628033,
				"element": "H" 
			},
			{
				"x": -3.1554233979,
				"y": 1.0799698151,
				"z": -1.3029327236,
				"element": "H" 
			},
			{
				"x": -3.9143453061,
				"y": -0.8499588013,
				"z": 0.977778546,
				"element": "H" 
			},
			{
				"x": -4.6778468685,
				"y": 0.7170312483,
				"z": 0.637624837,
				"element": "H" 
			},
			{
				"x": -3.0065258311,
				"y": 0.6515326387,
				"z": 1.2098074674,
				"element": "H" 
			},
			{
				"x": -0.3013778248,
				"y": -2.3860695095,
				"z": 0.0196263807,
				"element": "H" 
			},
			{
				"x": 1.7671459853,
				"y": -1.7497694012,
				"z": 1.2128593768,
				"element": "H" 
			},
			{
				"x": 3.2602244632,
				"y": -0.1456108481,
				"z": 2.1092134444,
				"element": "H" 
			},
			{
				"x": 2.6549352312,
				"y": 2.8679831033,
				"z": 1.8850205699,
				"element": "H" 
			},
			{
				"x": 0.752861949,
				"y": 2.4046872097,
				"z": 0.712552135,
				"element": "H" 
			},
			{
				"x": -1.26318849,
				"y": 1.7687268715,
				"z": -0.5049355185,
				"element": "H" 
			}
		],
		 "valence_orbital": [ 
			{
				"type": "occ",
				"energy": -0.29393,
				"method": "rhf"
			},
			{
				"type": "occ",
				"energy": -0.27613,
				"method": "rhf"
			},
			{
				"type": "occ",
				"energy": -0.27106,
				"method": "rhf"
			},
			{
				"type": "occ",
				"energy": -0.26026,
				"method": "rhf"
			},
			{
				"type": "occ",
				"energy": -0.22004,
				"method": "rhf"
			},
			{
				"type": "unocc",
				"energy": -0.09068,
				"method": "rhf"
			},
			{
				"type": "unocc",
				"energy": -0.02167,
				"method": "rhf"
			},
			{
				"type": "unocc",
				"energy": -0.01697,
				"method": "rhf"
			},
			{
				"type": "unocc",
				"energy": 0.04957,
				"method": "rhf"
			},
			{
				"type": "unocc",
				"energy": 0.07446,
				"method": "rhf"
			}
		],
		"cosmo_sigma_profile": { 
			"-0.025": 0.0,
			"-0.024": 0.0,
			"-0.023": 0.0,
			"-0.022": 0.0,
			"-0.021": 0.0,
			"-0.02": 0.0,
			"-0.019": 0.0,
			"-0.018": 0.0,
			"-0.017": 0.0,
			"-0.016": 0.0,
			"-0.015": 0.0,
			"-0.014": 0.0,
			"-0.013": 0.0,
			"-0.012": 0.0,
			"-0.011": 0.00120295114387,
			"-0.01": 1.29725622382,
			"-0.009": 2.54701431027,
			"-0.008": 3.81323649735,
			"-0.007": 5.02490366776,
			"-0.006": 8.08574176137,
			"-0.005": 11.9952974975,
			"-0.004": 17.8950929526,
			"-0.003": 26.0009391885,
			"-0.002": 33.1202534458,
			"-0.001": 37.0577233279,
			"0.0": 30.7408142132,
			"0.001": 25.7602583159,
			"0.002": 13.5168270331,
			"0.003": 13.8015322188,
			"0.004": 8.49158233527,
			"0.005": 3.75186144948,
			"0.006": 3.74437334288,
			"0.007": 3.85108241486,
			"0.008": 9.5097101651,
			"0.009": 9.51079319854,
			"0.01": 5.21661122659,
			"0.011": 4.02128658682,
			"0.012": 0.439043940596,
			"0.013": 0.0,
			"0.014": 0.0,
			"0.015": 0.0,
			"0.016": 0.0,
			"0.017": 0.0,
			"0.018": 0.0,
			"0.019": 0.0,
			"0.02": 0.0,
			"0.021": 0.0,
			"0.022": 0.0,
			"0.023": 0.0,
			"0.024": 0.0,
			"0.025": 0.0
		}
	}
}
