{
	 "smiles": "OC1=C(Br)C=C(C=N1)[N+]([O-])=O", 
	 "Tm": 483.15, 
	 "num_atms": 14, 
	 "gaussian": { 
		 "optdone": 1, 
		 "sigma_profile": "yes", 
		 "theory": "DFT", 
		 "functional": "B3LYP", 
		 "basiset": "6-31G**", 
		 "properties": { 
			 "R2extent": 2742.6112, 
			 "electric_dipole_moment_norm": 3.24695835976, 
			 "electric_quadrupole_moment_norm": 11.693256286, 
			 "total_energy": -3098.81150278, 
			 "HOMO_LUMO_gap": 0.16611, 
			 "cosmo_polarized_energy": -10.54, 
			 "cosmo_cavitation_energy": 22.25, 
			 "cosmo_dispersion_energy": -17.04, 
			 "cosmo_repulsion_energy": 1.37, 
			 "cosmo_total_nonelectrostatic_energy": 6.57, 
			 "SMD_solvation_energy": 4.31 
		},
		"coords": [
			{
				"x": 1.3489400392,
				"y": -0.0326418857,
				"z": -2.2248488392,
				"element": "O" 
			},
			{
				"x": 0.413545082,
				"y": 0.0283823034,
				"z": -1.2715705471,
				"element": "C" 
			},
			{
				"x": 0.6600233408,
				"y": -0.5721771122,
				"z": -0.0165428698,
				"element": "C" 
			},
			{
				"x": 2.2985985855,
				"y": -1.4594341634,
				"z": 0.3240101332,
				"element": "Br" 
			},
			{
				"x": -0.3232331914,
				"y": -0.4947786641,
				"z": 0.951468205,
				"element": "C" 
			},
			{
				"x": -1.5083829226,
				"y": 0.1749228925,
				"z": 0.6326498544,
				"element": "C" 
			},
			{
				"x": -1.6751976114,
				"y": 0.7407158098,
				"z": -0.6274809158,
				"element": "C" 
			},
			{
				"x": -0.7230354534,
				"y": 0.663707677,
				"z": -1.5594625185,
				"element": "N" 
			},
			{
				"x": -2.5723162231,
				"y": 0.2787500444,
				"z": 1.6283759087,
				"element": "N" 
			},
			{
				"x": -3.5970643708,
				"y": 0.8775072327,
				"z": 1.3021442353,
				"element": "O" 
			},
			{
				"x": -2.3737476628,
				"y": -0.2390476705,
				"z": 2.7270888452,
				"element": "O" 
			},
			{
				"x": 0.9866379306,
				"y": 0.4336361345,
				"z": -2.9964258806,
				"element": "H" 
			},
			{
				"x": -0.1952433159,
				"y": -0.9343523031,
				"z": 1.9323737726,
				"element": "H" 
			},
			{
				"x": -2.5923242268,
				"y": 1.2613097047,
				"z": -0.8802793833,
				"element": "H" 
			}
		],
		 "valence_orbital": [ 
			{
				"type": "occ",
				"energy": -0.31644,
				"method": "rhf"
			},
			{
				"type": "occ",
				"energy": -0.30673,
				"method": "rhf"
			},
			{
				"type": "occ",
				"energy": -0.30285,
				"method": "rhf"
			},
			{
				"type": "occ",
				"energy": -0.29723,
				"method": "rhf"
			},
			{
				"type": "occ",
				"energy": -0.26574,
				"method": "rhf"
			},
			{
				"type": "unocc",
				"energy": -0.09963,
				"method": "rhf"
			},
			{
				"type": "unocc",
				"energy": -0.06278,
				"method": "rhf"
			},
			{
				"type": "unocc",
				"energy": -0.01504,
				"method": "rhf"
			},
			{
				"type": "unocc",
				"energy": -0.01071,
				"method": "rhf"
			},
			{
				"type": "unocc",
				"energy": 0.06146,
				"method": "rhf"
			}
		],
		"cosmo_sigma_profile": { 
			"-0.025": 0.0,
			"-0.024": 0.0,
			"-0.023": 0.0,
			"-0.022": 0.0,
			"-0.021": 0.0,
			"-0.02": 0.0,
			"-0.019": 0.485174118194,
			"-0.018": 0.758821636335,
			"-0.017": 0.985106001469,
			"-0.016": 0.593914074675,
			"-0.015": 0.641327991787,
			"-0.014": 1.03844333249,
			"-0.013": 0.423190165913,
			"-0.012": 0.888309255953,
			"-0.011": 0.542290534622,
			"-0.01": 0.331021784606,
			"-0.009": 2.61962042656,
			"-0.008": 3.5641432596,
			"-0.007": 4.89182206733,
			"-0.006": 6.3729027156,
			"-0.005": 8.71180355042,
			"-0.004": 14.0647549694,
			"-0.003": 16.5957411527,
			"-0.002": 15.3263914952,
			"-0.001": 10.8668164278,
			"0.0": 9.01863015113,
			"0.001": 9.73390861206,
			"0.002": 9.84513401446,
			"0.003": 12.7692537518,
			"0.004": 9.20090910166,
			"0.005": 5.72696670972,
			"0.006": 7.53709969229,
			"0.007": 11.7687833829,
			"0.008": 8.70871811987,
			"0.009": 5.74934376391,
			"0.01": 2.49335879029,
			"0.011": 0.43363617126,
			"0.012": 0.0544401339329,
			"0.013": 0.0,
			"0.014": 0.0,
			"0.015": 0.0,
			"0.016": 0.0,
			"0.017": 0.0,
			"0.018": 0.0,
			"0.019": 0.0,
			"0.02": 0.0,
			"0.021": 0.0,
			"0.022": 0.0,
			"0.023": 0.0,
			"0.024": 0.0,
			"0.025": 0.0
		}
	}
}
