{
	 "smiles": "[O-][N+](=O)C1=CC2=C(NCCC2)C=C1", 
	 "Tm": 429.15, 
	 "num_atms": 23, 
	 "gaussian": { 
		 "optdone": 1, 
		 "sigma_profile": "yes", 
		 "theory": "DFT", 
		 "functional": "B3LYP", 
		 "basiset": "6-31G**", 
		 "properties": { 
			 "R2extent": 2834.7234, 
			 "electric_dipole_moment_norm": 7.90612602859, 
			 "electric_quadrupole_moment_norm": 6.29389648946, 
			 "total_energy": -608.852371971, 
			 "HOMO_LUMO_gap": 0.1474, 
			 "cosmo_polarized_energy": -14.34, 
			 "cosmo_cavitation_energy": 26.17, 
			 "cosmo_dispersion_energy": -19.81, 
			 "cosmo_repulsion_energy": 1.56, 
			 "cosmo_total_nonelectrostatic_energy": 7.92, 
			 "SMD_solvation_energy": 5.37 
		},
		"coords": [
			{
				"x": 1.5260579158,
				"y": -1.3156935613,
				"z": 2.9001645692,
				"element": "O" 
			},
			{
				"x": 1.4811895531,
				"y": -1.6406028511,
				"z": 1.7090292535,
				"element": "N" 
			},
			{
				"x": 2.1267159433,
				"y": -2.5741670401,
				"z": 1.221332921,
				"element": "O" 
			},
			{
				"x": 0.6155739747,
				"y": -0.8775254946,
				"z": 0.8260364495,
				"element": "C" 
			},
			{
				"x": -0.1278993215,
				"y": 0.1865872947,
				"z": 1.3422895991,
				"element": "C" 
			},
			{
				"x": -0.9579002138,
				"y": 0.9365778616,
				"z": 0.5208056485,
				"element": "C" 
			},
			{
				"x": -1.0528466857,
				"y": 0.5937929023,
				"z": -0.8554066049,
				"element": "C" 
			},
			{
				"x": -1.8972031671,
				"y": 1.285942308,
				"z": -1.6892694478,
				"element": "N" 
			},
			{
				"x": -2.5831490205,
				"y": 2.5041377292,
				"z": -1.2817907717,
				"element": "C" 
			},
			{
				"x": -2.9865639028,
				"y": 2.400074754,
				"z": 0.1905926597,
				"element": "C" 
			},
			{
				"x": -1.7524432002,
				"y": 2.1120241303,
				"z": 1.0567507492,
				"element": "C" 
			},
			{
				"x": -0.2947492046,
				"y": -0.4890393366,
				"z": -1.3562608118,
				"element": "C" 
			},
			{
				"x": 0.5361903338,
				"y": -1.2197992548,
				"z": -0.5265474044,
				"element": "C" 
			},
			{
				"x": -0.0404757433,
				"y": 0.4176838107,
				"z": 2.3979739324,
				"element": "H" 
			},
			{
				"x": -1.8161445939,
				"y": 1.1026681566,
				"z": -2.6776838685,
				"element": "H" 
			},
			{
				"x": -1.9454162631,
				"y": 3.3912044855,
				"z": -1.4289208643,
				"element": "H" 
			},
			{
				"x": -3.4661339181,
				"y": 2.6301456167,
				"z": -1.9168839791,
				"element": "H" 
			},
			{
				"x": -3.7194658968,
				"y": 1.5929224353,
				"z": 0.3033591385,
				"element": "H" 
			},
			{
				"x": -3.4696204128,
				"y": 3.3306709171,
				"z": 0.5045856828,
				"element": "H" 
			},
			{
				"x": -1.1146394016,
				"y": 3.0071121509,
				"z": 1.0828195979,
				"element": "H" 
			},
			{
				"x": -2.0491848417,
				"y": 1.9185382666,
				"z": 2.0930883646,
				"element": "H" 
			},
			{
				"x": -0.3729392358,
				"y": -0.7487677162,
				"z": -2.408869808,
				"element": "H" 
			},
			{
				"x": 1.1224473026,
				"y": -2.0501875648,
				"z": -0.8994950055,
				"element": "H" 
			}
		],
		 "valence_orbital": [ 
			{
				"type": "occ",
				"energy": -0.28701,
				"method": "rhf"
			},
			{
				"type": "occ",
				"energy": -0.2861,
				"method": "rhf"
			},
			{
				"type": "occ",
				"energy": -0.26751,
				"method": "rhf"
			},
			{
				"type": "occ",
				"energy": -0.26003,
				"method": "rhf"
			},
			{
				"type": "occ",
				"energy": -0.21269,
				"method": "rhf"
			},
			{
				"type": "unocc",
				"energy": -0.06529,
				"method": "rhf"
			},
			{
				"type": "unocc",
				"energy": -0.01472,
				"method": "rhf"
			},
			{
				"type": "unocc",
				"energy": 0.0261,
				"method": "rhf"
			},
			{
				"type": "unocc",
				"energy": 0.06302,
				"method": "rhf"
			},
			{
				"type": "unocc",
				"energy": 0.09142,
				"method": "rhf"
			}
		],
		"cosmo_sigma_profile": { 
			"-0.025": 0.0,
			"-0.024": 0.0,
			"-0.023": 0.0,
			"-0.022": 0.0,
			"-0.021": 0.0,
			"-0.02": 0.0,
			"-0.019": 0.0,
			"-0.018": 0.0,
			"-0.017": 0.0,
			"-0.016": 0.0,
			"-0.015": 0.0516294783237,
			"-0.014": 1.05471230037,
			"-0.013": 1.38943631855,
			"-0.012": 1.14428960384,
			"-0.011": 2.06950462235,
			"-0.01": 1.45318823933,
			"-0.009": 1.61353211895,
			"-0.008": 1.50850937403,
			"-0.007": 2.79574665894,
			"-0.006": 5.83314987188,
			"-0.005": 9.35025920378,
			"-0.004": 19.8422427227,
			"-0.003": 24.1411433515,
			"-0.002": 21.8805452759,
			"-0.001": 16.530857483,
			"0.0": 12.6047811417,
			"0.001": 12.7224710158,
			"0.002": 12.317276912,
			"0.003": 14.4686809187,
			"0.004": 7.83730077942,
			"0.005": 3.0428658032,
			"0.006": 3.70724056524,
			"0.007": 3.54737645189,
			"0.008": 4.46424763278,
			"0.009": 10.9830592033,
			"0.01": 5.02532048038,
			"0.011": 4.23612848582,
			"0.012": 1.42575920325,
			"0.013": 0.0,
			"0.014": 0.0,
			"0.015": 0.0,
			"0.016": 0.0,
			"0.017": 0.0,
			"0.018": 0.0,
			"0.019": 0.0,
			"0.02": 0.0,
			"0.021": 0.0,
			"0.022": 0.0,
			"0.023": 0.0,
			"0.024": 0.0,
			"0.025": 0.0
		}
	}
}
