{
	 "smiles": "[O-][N+](=O)C1=CC(F)=C(Br)C=C1F", 
	 "Tm": 329.15, 
	 "num_atms": 14, 
	 "gaussian": { 
		 "optdone": 1, 
		 "sigma_profile": "yes", 
		 "theory": "DFT", 
		 "functional": "B3LYP", 
		 "basiset": "6-31G**", 
		 "properties": { 
			 "R2extent": 4994.6531, 
			 "electric_dipole_moment_norm": 3.288366222, 
			 "electric_quadrupole_moment_norm": 5.50751095505, 
			 "total_energy": -3205.99363341, 
			 "HOMO_LUMO_gap": 0.16944, 
			 "cosmo_polarized_energy": -7.75, 
			 "cosmo_cavitation_energy": 23.09, 
			 "cosmo_dispersion_energy": -17.26, 
			 "cosmo_repulsion_energy": 1.33, 
			 "cosmo_total_nonelectrostatic_energy": 7.15, 
			 "SMD_solvation_energy": 6.1 
		},
		"coords": [
			{
				"x": -1.3427364115,
				"y": -0.8818677711,
				"z": 1.4624338887,
				"element": "O" 
			},
			{
				"x": -1.1541037244,
				"y": -0.889663122,
				"z": 0.2504133177,
				"element": "N" 
			},
			{
				"x": -2.0308956891,
				"y": -1.0300031358,
				"z": -0.6024191379,
				"element": "O" 
			},
			{
				"x": 0.2228505942,
				"y": -0.7189650711,
				"z": -0.2345187014,
				"element": "C" 
			},
			{
				"x": 0.4280555009,
				"y": -0.7293608184,
				"z": -1.6159132652,
				"element": "C" 
			},
			{
				"x": 1.7053836991,
				"y": -0.5728589248,
				"z": -2.1229863708,
				"element": "C" 
			},
			{
				"x": 1.8904780161,
				"y": -0.5844658258,
				"z": -3.4480121112,
				"element": "F" 
			},
			{
				"x": 2.7988167498,
				"y": -0.4036141725,
				"z": -1.2664854773,
				"element": "C" 
			},
			{
				"x": 4.5327695597,
				"y": -0.1926359365,
				"z": -1.9859968637,
				"element": "Br" 
			},
			{
				"x": 2.5966346209,
				"y": -0.3928231353,
				"z": 0.110119503,
				"element": "C" 
			},
			{
				"x": 1.3141329205,
				"y": -0.5496715528,
				"z": 0.6301458303,
				"element": "C" 
			},
			{
				"x": 1.1833881597,
				"y": -0.5307143241,
				"z": 1.9549813797,
				"element": "F" 
			},
			{
				"x": -0.4180939239,
				"y": -0.8603828077,
				"z": -2.2780601071,
				"element": "H" 
			},
			{
				"x": 3.4252199281,
				"y": -0.263573402,
				"z": 0.7953981151,
				"element": "H" 
			}
		],
		 "valence_orbital": [ 
			{
				"type": "occ",
				"energy": -0.32161,
				"method": "rhf"
			},
			{
				"type": "occ",
				"energy": -0.31675,
				"method": "rhf"
			},
			{
				"type": "occ",
				"energy": -0.30286,
				"method": "rhf"
			},
			{
				"type": "occ",
				"energy": -0.29309,
				"method": "rhf"
			},
			{
				"type": "occ",
				"energy": -0.27607,
				"method": "rhf"
			},
			{
				"type": "unocc",
				"energy": -0.10663,
				"method": "rhf"
			},
			{
				"type": "unocc",
				"energy": -0.04448,
				"method": "rhf"
			},
			{
				"type": "unocc",
				"energy": -0.02767,
				"method": "rhf"
			},
			{
				"type": "unocc",
				"energy": -0.02077,
				"method": "rhf"
			},
			{
				"type": "unocc",
				"energy": 0.06472,
				"method": "rhf"
			}
		],
		"cosmo_sigma_profile": { 
			"-0.025": 0.0,
			"-0.024": 0.0,
			"-0.023": 0.0,
			"-0.022": 0.0,
			"-0.021": 0.0,
			"-0.02": 0.0,
			"-0.019": 0.0,
			"-0.018": 0.0,
			"-0.017": 0.0,
			"-0.016": 0.0,
			"-0.015": 0.0,
			"-0.014": 0.0,
			"-0.013": 0.0,
			"-0.012": 0.0,
			"-0.011": 0.0573115492305,
			"-0.01": 1.80576263545,
			"-0.009": 2.42710668071,
			"-0.008": 3.99638331884,
			"-0.007": 4.83497673048,
			"-0.006": 6.36039844485,
			"-0.005": 8.53505393214,
			"-0.004": 12.1994156729,
			"-0.003": 21.8006126617,
			"-0.002": 19.8413955737,
			"-0.001": 12.0002992325,
			"0.0": 9.57557454337,
			"0.001": 9.53346989844,
			"0.002": 19.6103693565,
			"0.003": 21.6607717622,
			"0.004": 6.38164270695,
			"0.005": 3.3778843956,
			"0.006": 5.32996671515,
			"0.007": 10.5097242057,
			"0.008": 6.29169915264,
			"0.009": 3.6640358099,
			"0.01": 0.704080603946,
			"0.011": 0.0,
			"0.012": 0.0,
			"0.013": 0.0,
			"0.014": 0.0,
			"0.015": 0.0,
			"0.016": 0.0,
			"0.017": 0.0,
			"0.018": 0.0,
			"0.019": 0.0,
			"0.02": 0.0,
			"0.021": 0.0,
			"0.022": 0.0,
			"0.023": 0.0,
			"0.024": 0.0,
			"0.025": 0.0
		}
	}
}
