{
	 "smiles": "NC(=O)C1=CNC(=C1)C(O)=O", 
	 "Tm": 538.15, 
	 "num_atms": 17, 
	 "gaussian": { 
		 "optdone": 1, 
		 "sigma_profile": "yes", 
		 "theory": "DFT", 
		 "functional": "B3LYP", 
		 "basiset": "6-31G**", 
		 "properties": { 
			 "R2extent": 2720.7829, 
			 "electric_dipole_moment_norm": 4.69151079398, 
			 "electric_quadrupole_moment_norm": 19.9231931384, 
			 "total_energy": -567.4509571, 
			 "HOMO_LUMO_gap": 0.20675, 
			 "cosmo_polarized_energy": -25.09, 
			 "cosmo_cavitation_energy": 22.58, 
			 "cosmo_dispersion_energy": -16.8, 
			 "cosmo_repulsion_energy": 1.37, 
			 "cosmo_total_nonelectrostatic_energy": 7.15, 
			 "SMD_solvation_energy": 6.08 
		},
		"coords": [
			{
				"x": 2.8024055136,
				"y": 1.0855747898,
				"z": -1.1952444174,
				"element": "N" 
			},
			{
				"x": 2.4077252859,
				"y": 0.1985622167,
				"z": -0.2298603903,
				"element": "C" 
			},
			{
				"x": 3.0148385726,
				"y": -0.8475990776,
				"z": -0.0258560685,
				"element": "O" 
			},
			{
				"x": 1.2065828246,
				"y": 0.5594982402,
				"z": 0.5638061585,
				"element": "C" 
			},
			{
				"x": 0.3788882052,
				"y": 1.6799245587,
				"z": 0.4992901704,
				"element": "C" 
			},
			{
				"x": -0.5882787581,
				"y": 1.5418355516,
				"z": 1.4392046673,
				"element": "N" 
			},
			{
				"x": -0.4189933991,
				"y": 0.3560052041,
				"z": 2.1235200555,
				"element": "C" 
			},
			{
				"x": 0.6947056361,
				"y": -0.2723886241,
				"z": 1.5933908827,
				"element": "C" 
			},
			{
				"x": -1.3854740686,
				"y": 0.0446084362,
				"z": 3.1845782353,
				"element": "C" 
			},
			{
				"x": -1.2145081851,
				"y": -1.1203909516,
				"z": 3.8525752746,
				"element": "O" 
			},
			{
				"x": -2.3032751425,
				"y": 0.7908338745,
				"z": 3.4597011302,
				"element": "O" 
			},
			{
				"x": 3.6173442941,
				"y": 0.8480825807,
				"z": -1.738786159,
				"element": "H" 
			},
			{
				"x": 2.3258699964,
				"y": 1.9505221601,
				"z": -1.3856169176,
				"element": "H" 
			},
			{
				"x": 0.4090287534,
				"y": 2.5517364395,
				"z": -0.1385292884,
				"element": "H" 
			},
			{
				"x": -1.3463563093,
				"y": 2.1747835243,
				"z": 1.6560046844,
				"element": "H" 
			},
			{
				"x": 1.1354217817,
				"y": -1.2193412643,
				"z": 1.8733533465,
				"element": "H" 
			},
			{
				"x": -0.4424250008,
				"y": -1.5959476587,
				"z": 3.5139686357,
				"element": "H" 
			}
		],
		 "valence_orbital": [ 
			{
				"type": "occ",
				"energy": -0.28342,
				"method": "rhf"
			},
			{
				"type": "occ",
				"energy": -0.27617,
				"method": "rhf"
			},
			{
				"type": "occ",
				"energy": -0.26715,
				"method": "rhf"
			},
			{
				"type": "occ",
				"energy": -0.25595,
				"method": "rhf"
			},
			{
				"type": "occ",
				"energy": -0.24676,
				"method": "rhf"
			},
			{
				"type": "unocc",
				"energy": -0.04001,
				"method": "rhf"
			},
			{
				"type": "unocc",
				"energy": -0.0172,
				"method": "rhf"
			},
			{
				"type": "unocc",
				"energy": 0.05151,
				"method": "rhf"
			},
			{
				"type": "unocc",
				"energy": 0.05905,
				"method": "rhf"
			},
			{
				"type": "unocc",
				"energy": 0.08301,
				"method": "rhf"
			}
		],
		"cosmo_sigma_profile": { 
			"-0.025": 0.0,
			"-0.024": 0.0,
			"-0.023": 0.0,
			"-0.022": 0.0,
			"-0.021": 0.0,
			"-0.02": 0.0,
			"-0.019": 0.0551605269936,
			"-0.018": 1.08471771609,
			"-0.017": 1.29019835243,
			"-0.016": 1.9915977683,
			"-0.015": 2.76166859915,
			"-0.014": 4.43888254902,
			"-0.013": 4.21172947339,
			"-0.012": 4.78873452211,
			"-0.011": 5.67512179139,
			"-0.01": 5.78653333026,
			"-0.009": 4.28822609054,
			"-0.008": 4.58639603523,
			"-0.007": 4.32662720174,
			"-0.006": 4.18558652609,
			"-0.005": 5.35554204829,
			"-0.004": 4.86493170986,
			"-0.003": 5.29403274787,
			"-0.002": 7.06796569151,
			"-0.001": 7.28134498901,
			"0.0": 6.87302083473,
			"0.001": 10.8106997361,
			"0.002": 10.8081308648,
			"0.003": 11.4382674245,
			"0.004": 9.89278864828,
			"0.005": 4.32555362919,
			"0.006": 3.66893096556,
			"0.007": 3.6456664081,
			"0.008": 4.73967746584,
			"0.009": 4.26098484516,
			"0.01": 5.97239679109,
			"0.011": 5.68544773473,
			"0.012": 6.203417006,
			"0.013": 4.73209106751,
			"0.014": 6.36760910665,
			"0.015": 1.31615061404,
			"0.016": 0.00309780051805,
			"0.017": 0.0,
			"0.018": 0.0,
			"0.019": 0.0,
			"0.02": 0.0,
			"0.021": 0.0,
			"0.022": 0.0,
			"0.023": 0.0,
			"0.024": 0.0,
			"0.025": 0.0
		}
	}
}
