{
	 "smiles": "IC1=CC(=CC=C1)N=C=S", 
	 "Tm": 319.15, 
	 "num_atms": 14, 
	 "gaussian": { 
		 "optdone": 1, 
		 "sigma_profile": "no", 
		 "theory": "DFT", 
		 "functional": "B3LYP", 
		 "basiset": "6-31G**", 
		 "properties": { 
			 "R2extent": 2636.3162, 
			 "electric_dipole_moment_norm": 3.07484548392, 
			 "electric_quadrupole_moment_norm": 12.6746810658, 
			 "total_energy": -733.471996416, 
			 "HOMO_LUMO_gap": 0.18029, 
			 "cosmo_polarized_energy": -99388.49, 
			 "cosmo_cavitation_energy": 25.06, 
			 "cosmo_dispersion_energy": -20.14, 
			 "cosmo_repulsion_energy": 1.57, 
			 "cosmo_total_nonelectrostatic_energy": 6.49, 
			 "SMD_solvation_energy": 4.02 
		},
		"coords": [
			{
				"x": 2.4560300729,
				"y": -1.3548559724,
				"z": 2.2003840034,
				"element": "I" 
			},
			{
				"x": 1.5484076739,
				"y": 0.2071312513,
				"z": 1.0931649838,
				"element": "C" 
			},
			{
				"x": 0.453011027,
				"y": -0.083920164,
				"z": 0.2841870946,
				"element": "C" 
			},
			{
				"x": -0.1456037431,
				"y": 0.9569203085,
				"z": -0.4476227978,
				"element": "C" 
			},
			{
				"x": 0.3530202204,
				"y": 2.2667633124,
				"z": -0.3638270186,
				"element": "C" 
			},
			{
				"x": 1.4492988347,
				"y": 2.5257239844,
				"z": 0.4531249273,
				"element": "C" 
			},
			{
				"x": 2.0574512192,
				"y": 1.5049870976,
				"z": 1.1879605405,
				"element": "C" 
			},
			{
				"x": -1.2253660135,
				"y": 0.6831157598,
				"z": -1.2471803128,
				"element": "N" 
			},
			{
				"x": -2.1609831572,
				"y": 0.4460706786,
				"z": -1.9392627607,
				"element": "C" 
			},
			{
				"x": -3.4132130032,
				"y": 0.1283513377,
				"z": -2.8692713605,
				"element": "S" 
			},
			{
				"x": 0.0542608989,
				"y": -1.0878719229,
				"z": 0.2066156569,
				"element": "H" 
			},
			{
				"x": -0.1219993125,
				"y": 3.0560138859,
				"z": -0.9355768502,
				"element": "H" 
			},
			{
				"x": 1.8392419296,
				"y": 3.5366166614,
				"z": 0.5216675299,
				"element": "H" 
			},
			{
				"x": 2.9105433528,
				"y": 1.7186537815,
				"z": 1.8211363641,
				"element": "H" 
			}
		],
		 "valence_orbital": [ 
			{
				"type": "occ",
				"energy": -0.29741,
				"method": "rhf"
			},
			{
				"type": "occ",
				"energy": -0.27986,
				"method": "rhf"
			},
			{
				"type": "occ",
				"energy": -0.25828,
				"method": "rhf"
			},
			{
				"type": "occ",
				"energy": -0.25826,
				"method": "rhf"
			},
			{
				"type": "occ",
				"energy": -0.2392,
				"method": "rhf"
			},
			{
				"type": "unocc",
				"energy": -0.05891,
				"method": "rhf"
			},
			{
				"type": "unocc",
				"energy": -0.05173,
				"method": "rhf"
			},
			{
				"type": "unocc",
				"energy": -0.03594,
				"method": "rhf"
			},
			{
				"type": "unocc",
				"energy": -0.00122,
				"method": "rhf"
			},
			{
				"type": "unocc",
				"energy": 0.03269,
				"method": "rhf"
			}
		],
		"cosmo_sigma_profile": { 
			"0.0": 0.0,
			"0.0": 0.0,
			"0.0": 0.0,
			"0.0": 0.0,
			"0.0": 0.0,
			"0.0": 0.0,
			"0.0": 0.0,
			"0.0": 0.0,
			"0.0": 0.0,
			"0.0": 0.0,
			"0.0": 0.0,
			"0.0": 0.0,
			"0.0": 0.0,
			"0.0": 0.0,
			"0.0": 0.0,
			"0.0": 0.0,
			"0.0": 0.0,
			"0.0": 0.0,
			"0.0": 0.0,
			"0.0": 0.0,
			"0.0": 0.0,
			"0.0": 0.0,
			"0.0": 0.0,
			"0.0": 0.0,
			"0.0": 0.0,
			"0.0": 0.0,
			"0.0": 0.0,
			"0.0": 0.0,
			"0.0": 0.0,
			"0.0": 0.0,
			"0.0": 0.0,
			"0.0": 0.0,
			"0.0": 0.0,
			"0.0": 0.0,
			"0.0": 0.0,
			"0.0": 0.0,
			"0.0": 0.0,
			"0.0": 0.0,
			"0.0": 0.0,
			"0.0": 0.0,
			"0.0": 0.0,
			"0.0": 0.0,
			"0.0": 0.0,
			"0.0": 0.0,
			"0.0": 0.0,
			"0.0": 0.0,
			"0.0": 0.0,
			"0.0": 0.0,
			"0.0": 0.0,
			"0.0": 0.0,
			"0.0": 0.0
		}
	}
}
