{
	 "smiles": "CC(=O)C1=C(F)C=CC(=C1)[N+]([O-])=O", 
	 "Tm": 322.15, 
	 "num_atms": 19, 
	 "gaussian": { 
		 "optdone": 1, 
		 "sigma_profile": "yes", 
		 "theory": "DFT", 
		 "functional": "B3LYP", 
		 "basiset": "6-31G**", 
		 "properties": { 
			 "R2extent": 2815.4764, 
			 "electric_dipole_moment_norm": 0.799958680183, 
			 "electric_quadrupole_moment_norm": 20.201317167, 
			 "total_energy": -688.619103546, 
			 "HOMO_LUMO_gap": 0.16276, 
			 "cosmo_polarized_energy": -12.37, 
			 "cosmo_cavitation_energy": 25.06, 
			 "cosmo_dispersion_energy": -18.03, 
			 "cosmo_repulsion_energy": 1.4, 
			 "cosmo_total_nonelectrostatic_energy": 8.43, 
			 "SMD_solvation_energy": 7.8 
		},
		"coords": [
			{
				"x": -0.8601696666,
				"y": 0.7895159051,
				"z": 2.300996528,
				"element": "C" 
			},
			{
				"x": 0.0863119682,
				"y": -0.1897350218,
				"z": 1.6245242886,
				"element": "C" 
			},
			{
				"x": 0.8666218717,
				"y": -0.8553618107,
				"z": 2.2804496559,
				"element": "O" 
			},
			{
				"x": 0.0248621859,
				"y": -0.306492176,
				"z": 0.123698427,
				"element": "C" 
			},
			{
				"x": 0.861023368,
				"y": -1.1881438344,
				"z": -0.5922505869,
				"element": "C" 
			},
			{
				"x": 1.743130987,
				"y": -1.955778037,
				"z": 0.0446115142,
				"element": "F" 
			},
			{
				"x": 0.8117247253,
				"y": -1.3034507386,
				"z": -1.9816937529,
				"element": "C" 
			},
			{
				"x": -0.0859648665,
				"y": -0.5312088771,
				"z": -2.7062524876,
				"element": "C" 
			},
			{
				"x": -0.9194025192,
				"y": 0.345418363,
				"z": -2.0118922683,
				"element": "C" 
			},
			{
				"x": -0.8732248355,
				"y": 0.4629121158,
				"z": -0.6277226182,
				"element": "C" 
			},
			{
				"x": -1.8753948878,
				"y": 1.1701349588,
				"z": -2.7638094549,
				"element": "N" 
			},
			{
				"x": -1.8934527712,
				"y": 1.0442309226,
				"z": -3.9873063151,
				"element": "O" 
			},
			{
				"x": -2.5971606945,
				"y": 1.9341147865,
				"z": -2.1235167961,
				"element": "O" 
			},
			{
				"x": -0.6930433635,
				"y": 1.8139383263,
				"z": 1.9507425995,
				"element": "H" 
			},
			{
				"x": -1.9070846917,
				"y": 0.53849291,
				"z": 2.098541921,
				"element": "H" 
			},
			{
				"x": -0.6807186357,
				"y": 0.7433545406,
				"z": 3.375114419,
				"element": "H" 
			},
			{
				"x": 1.4831624824,
				"y": -2.001298769,
				"z": -2.4689730305,
				"element": "H" 
			},
			{
				"x": -0.1526170293,
				"y": -0.5936471995,
				"z": -3.7850959631,
				"element": "H" 
			},
			{
				"x": -1.5477036269,
				"y": 1.1622036353,
				"z": -0.1522660796,
				"element": "H" 
			}
		],
		 "valence_orbital": [ 
			{
				"type": "occ",
				"energy": -0.32017,
				"method": "rhf"
			},
			{
				"type": "occ",
				"energy": -0.30318,
				"method": "rhf"
			},
			{
				"type": "occ",
				"energy": -0.29946,
				"method": "rhf"
			},
			{
				"type": "occ",
				"energy": -0.28588,
				"method": "rhf"
			},
			{
				"type": "occ",
				"energy": -0.26352,
				"method": "rhf"
			},
			{
				"type": "unocc",
				"energy": -0.10076,
				"method": "rhf"
			},
			{
				"type": "unocc",
				"energy": -0.08051,
				"method": "rhf"
			},
			{
				"type": "unocc",
				"energy": -0.02041,
				"method": "rhf"
			},
			{
				"type": "unocc",
				"energy": 0.02043,
				"method": "rhf"
			},
			{
				"type": "unocc",
				"energy": 0.06582,
				"method": "rhf"
			}
		],
		"cosmo_sigma_profile": { 
			"-0.025": 0.0,
			"-0.024": 0.0,
			"-0.023": 0.0,
			"-0.022": 0.0,
			"-0.021": 0.0,
			"-0.02": 0.0,
			"-0.019": 0.0,
			"-0.018": 0.0,
			"-0.017": 0.0,
			"-0.016": 0.0,
			"-0.015": 0.0,
			"-0.014": 0.0,
			"-0.013": 0.0,
			"-0.012": 0.0,
			"-0.011": 0.0,
			"-0.01": 0.0259909338005,
			"-0.009": 2.76216177224,
			"-0.008": 7.17099609101,
			"-0.007": 11.796955082,
			"-0.006": 9.1158706923,
			"-0.005": 12.0523798049,
			"-0.004": 12.6386519439,
			"-0.003": 19.5434767005,
			"-0.002": 23.560028457,
			"-0.001": 18.9691293814,
			"0.0": 9.70606941727,
			"0.001": 5.89325537628,
			"0.002": 5.05055426756,
			"0.003": 9.51127176445,
			"0.004": 5.21632130108,
			"0.005": 4.88963334657,
			"0.006": 6.59714709691,
			"0.007": 10.6477230282,
			"0.008": 7.91247346334,
			"0.009": 6.57971443898,
			"0.01": 4.36368886351,
			"0.011": 4.50757456355,
			"0.012": 2.59958126316,
			"0.013": 0.321081603178,
			"0.014": 0.0,
			"0.015": 0.0,
			"0.016": 0.0,
			"0.017": 0.0,
			"0.018": 0.0,
			"0.019": 0.0,
			"0.02": 0.0,
			"0.021": 0.0,
			"0.022": 0.0,
			"0.023": 0.0,
			"0.024": 0.0,
			"0.025": 0.0
		}
	}
}
