{
	 "smiles": "CC1=CC=CC(C)=C1NC(=O)C1C2CC(C=C2)C1C(O)=O", 
	 "Tm": 440.15, 
	 "num_atms": 40, 
	 "gaussian": { 
		 "optdone": 1, 
		 "sigma_profile": "yes", 
		 "theory": "DFT", 
		 "functional": "B3LYP", 
		 "basiset": "6-31G**", 
		 "properties": { 
			 "R2extent": 7316.0433, 
			 "electric_dipole_moment_norm": 7.26562571566, 
			 "electric_quadrupole_moment_norm": 27.8242122519, 
			 "total_energy": -939.693622334, 
			 "HOMO_LUMO_gap": 0.22257, 
			 "cosmo_polarized_energy": -20.16, 
			 "cosmo_cavitation_energy": 40.89, 
			 "cosmo_dispersion_energy": -28.2, 
			 "cosmo_repulsion_energy": 2.13, 
			 "cosmo_total_nonelectrostatic_energy": 14.81, 
			 "SMD_solvation_energy": 7.81 
		},
		"coords": [
			{
				"x": -2.762166854,
				"y": 1.3783642999,
				"z": -0.5236757151,
				"element": "C" 
			},
			{
				"x": -2.2057910747,
				"y": 1.378589637,
				"z": 0.8770754626,
				"element": "C" 
			},
			{
				"x": -2.9232210645,
				"y": 1.9793161259,
				"z": 1.9194102017,
				"element": "C" 
			},
			{
				"x": -2.4183334563,
				"y": 2.022115887,
				"z": 3.21602409,
				"element": "C" 
			},
			{
				"x": -1.1744700723,
				"y": 1.4597825797,
				"z": 3.4960139733,
				"element": "C" 
			},
			{
				"x": -0.4290129424,
				"y": 0.8370043794,
				"z": 2.4909350973,
				"element": "C" 
			},
			{
				"x": 0.9126296775,
				"y": 0.216606921,
				"z": 2.8032295845,
				"element": "C" 
			},
			{
				"x": -0.9622093999,
				"y": 0.7983059886,
				"z": 1.1877174935,
				"element": "C" 
			},
			{
				"x": -0.1676842659,
				"y": 0.18811786,
				"z": 0.16141504,
				"element": "N" 
			},
			{
				"x": -0.5065094811,
				"y": -0.9152257454,
				"z": -0.5569895892,
				"element": "C" 
			},
			{
				"x": -1.6080604728,
				"y": -1.4714700361,
				"z": -0.4558846682,
				"element": "O" 
			},
			{
				"x": 0.5188513253,
				"y": -1.491747533,
				"z": -1.5257120466,
				"element": "C" 
			},
			{
				"x": 1.8623010288,
				"y": -0.7410848522,
				"z": -1.8549311044,
				"element": "C" 
			},
			{
				"x": 1.4527792523,
				"y": 0.1248203147,
				"z": -3.0700947204,
				"element": "C" 
			},
			{
				"x": 0.9839713624,
				"y": -1.0949373918,
				"z": -3.9023905721,
				"element": "C" 
			},
			{
				"x": 2.1951599361,
				"y": -2.0072751372,
				"z": -3.76155604,
				"element": "C" 
			},
			{
				"x": 2.726999237,
				"y": -1.7885856919,
				"z": -2.5520837749,
				"element": "C" 
			},
			{
				"x": -0.1302270381,
				"y": -1.6345315731,
				"z": -2.9562865917,
				"element": "C" 
			},
			{
				"x": -0.6545237163,
				"y": -3.034192801,
				"z": -3.2560234116,
				"element": "C" 
			},
			{
				"x": -1.5439007791,
				"y": -3.496938982,
				"z": -2.3615203501,
				"element": "O" 
			},
			{
				"x": -0.3219019112,
				"y": -3.6817612611,
				"z": -4.2238914199,
				"element": "O" 
			},
			{
				"x": -3.1217479043,
				"y": 0.3819481486,
				"z": -0.797880561,
				"element": "H" 
			},
			{
				"x": -1.9971939475,
				"y": 1.6584778465,
				"z": -1.2562683404,
				"element": "H" 
			},
			{
				"x": -3.590324017,
				"y": 2.0861252827,
				"z": -0.610173388,
				"element": "H" 
			},
			{
				"x": -3.8875640696,
				"y": 2.4286241333,
				"z": 1.6988419393,
				"element": "H" 
			},
			{
				"x": -2.9906942437,
				"y": 2.4977359157,
				"z": 4.0070460053,
				"element": "H" 
			},
			{
				"x": -0.7764031956,
				"y": 1.492957412,
				"z": 4.5064445564,
				"element": "H" 
			},
			{
				"x": 1.1063909558,
				"y": 0.2377419709,
				"z": 3.8782136297,
				"element": "H" 
			},
			{
				"x": 0.9630789185,
				"y": -0.8257936519,
				"z": 2.4706367067,
				"element": "H" 
			},
			{
				"x": 1.7405735771,
				"y": 0.7508849932,
				"z": 2.3174331415,
				"element": "H" 
			},
			{
				"x": 0.7900301154,
				"y": 0.4993723654,
				"z": 0.0810884561,
				"element": "H" 
			},
			{
				"x": 0.7484534212,
				"y": -2.4829921655,
				"z": -1.1193487192,
				"element": "H" 
			},
			{
				"x": 2.3412575361,
				"y": -0.2396888676,
				"z": -1.0082424819,
				"element": "H" 
			},
			{
				"x": 2.3021629992,
				"y": 0.6453368565,
				"z": -3.5190534123,
				"element": "H" 
			},
			{
				"x": 0.6526030047,
				"y": 0.8425365194,
				"z": -2.8533870762,
				"element": "H" 
			},
			{
				"x": 0.6350236754,
				"y": -0.9090378843,
				"z": -4.9184644052,
				"element": "H" 
			},
			{
				"x": 2.4797753946,
				"y": -2.7605785047,
				"z": -4.4847743199,
				"element": "H" 
			},
			{
				"x": 3.5370103285,
				"y": -2.3302005421,
				"z": -2.0760351459,
				"element": "H" 
			},
			{
				"x": -0.9950613346,
				"y": -0.9612362699,
				"z": -3.013788576,
				"element": "H" 
			},
			{
				"x": -1.6922505048,
				"y": -2.8322865465,
				"z": -1.6440689477,
				"element": "H" 
			}
		],
		 "valence_orbital": [ 
			{
				"type": "occ",
				"energy": -0.28344,
				"method": "rhf"
			},
			{
				"type": "occ",
				"energy": -0.25197,
				"method": "rhf"
			},
			{
				"type": "occ",
				"energy": -0.24873,
				"method": "rhf"
			},
			{
				"type": "occ",
				"energy": -0.24722,
				"method": "rhf"
			},
			{
				"type": "occ",
				"energy": -0.24453,
				"method": "rhf"
			},
			{
				"type": "unocc",
				"energy": -0.02196,
				"method": "rhf"
			},
			{
				"type": "unocc",
				"energy": -0.00722,
				"method": "rhf"
			},
			{
				"type": "unocc",
				"energy": 0.00583,
				"method": "rhf"
			},
			{
				"type": "unocc",
				"energy": 0.00878,
				"method": "rhf"
			},
			{
				"type": "unocc",
				"energy": 0.02532,
				"method": "rhf"
			}
		],
		"cosmo_sigma_profile": { 
			"-0.025": 0.0,
			"-0.024": 0.0,
			"-0.023": 0.0,
			"-0.022": 0.0,
			"-0.021": 0.0,
			"-0.02": 0.0,
			"-0.019": 0.0,
			"-0.018": 0.0,
			"-0.017": 0.0,
			"-0.016": 0.0,
			"-0.015": 0.00297118433919,
			"-0.014": 0.93577640314,
			"-0.013": 0.857546749203,
			"-0.012": 0.906971548559,
			"-0.011": 1.84513636908,
			"-0.01": 1.65940375742,
			"-0.009": 1.4319159599,
			"-0.008": 1.62496783545,
			"-0.007": 4.71953919271,
			"-0.006": 12.4370299824,
			"-0.005": 23.4651740584,
			"-0.004": 30.6696042483,
			"-0.003": 35.048774716,
			"-0.002": 29.1258545769,
			"-0.001": 30.5094408046,
			"0.0": 30.1565608726,
			"0.001": 19.2637247228,
			"0.002": 12.8237263591,
			"0.003": 13.1375034979,
			"0.004": 11.133121796,
			"0.005": 13.2019532984,
			"0.006": 10.672899243,
			"0.007": 4.55957002763,
			"0.008": 4.31857673942,
			"0.009": 3.96450703641,
			"0.01": 5.46785102542,
			"0.011": 5.98158977561,
			"0.012": 7.28217733901,
			"0.013": 4.14268945946,
			"0.014": 1.08811874376,
			"0.015": 0.00159734323186,
			"0.016": 0.0,
			"0.017": 0.0,
			"0.018": 0.0,
			"0.019": 0.0,
			"0.02": 0.0,
			"0.021": 0.0,
			"0.022": 0.0,
			"0.023": 0.0,
			"0.024": 0.0,
			"0.025": 0.0
		}
	}
}
