{
	 "smiles": "O=C1N(CC#N)C(=O)C2=C1C=CC=C2", 
	 "Tm": 399.15, 
	 "num_atms": 20, 
	 "gaussian": { 
		 "optdone": 1, 
		 "sigma_profile": "yes", 
		 "theory": "DFT", 
		 "functional": "B3LYP", 
		 "basiset": "6-31G**", 
		 "properties": { 
			 "R2extent": 3133.8793, 
			 "electric_dipole_moment_norm": 5.66799236591, 
			 "electric_quadrupole_moment_norm": 26.8215346901, 
			 "total_energy": -644.63377976, 
			 "HOMO_LUMO_gap": 0.18829, 
			 "cosmo_polarized_energy": -15.07, 
			 "cosmo_cavitation_energy": 26.81, 
			 "cosmo_dispersion_energy": -18.55, 
			 "cosmo_repulsion_energy": 1.44, 
			 "cosmo_total_nonelectrostatic_energy": 9.71, 
			 "SMD_solvation_energy": 7.36 
		},
		"coords": [
			{
				"x": 0.1007974341,
				"y": 0.9258302977,
				"z": -2.4083089462,
				"element": "O" 
			},
			{
				"x": 0.26339593,
				"y": 0.1548975984,
				"z": -1.4863438581,
				"element": "C" 
			},
			{
				"x": -0.67928575,
				"y": -0.8043518383,
				"z": -1.0621507986,
				"element": "N" 
			},
			{
				"x": -1.9621861299,
				"y": -1.0071519078,
				"z": -1.702697217,
				"element": "C" 
			},
			{
				"x": -1.9117176889,
				"y": -2.0045444961,
				"z": -2.7871665421,
				"element": "C" 
			},
			{
				"x": -1.8783563908,
				"y": -2.7882334794,
				"z": -3.6413407147,
				"element": "N" 
			},
			{
				"x": -0.2371411231,
				"y": -1.5439848736,
				"z": 0.0542001471,
				"element": "C" 
			},
			{
				"x": -0.8809389189,
				"y": -2.406386306,
				"z": 0.6132915727,
				"element": "O" 
			},
			{
				"x": 1.1224134396,
				"y": -1.0125402091,
				"z": 0.3590252263,
				"element": "C" 
			},
			{
				"x": 1.4205690109,
				"y": -0.000435737,
				"z": -0.5586828306,
				"element": "C" 
			},
			{
				"x": 2.6257877128,
				"y": 0.6856214673,
				"z": -0.5158889887,
				"element": "C" 
			},
			{
				"x": 3.538234557,
				"y": 0.3225972777,
				"z": 0.4835347489,
				"element": "C" 
			},
			{
				"x": 3.2395414169,
				"y": -0.6914204795,
				"z": 1.402945161,
				"element": "C" 
			},
			{
				"x": 2.0183347261,
				"y": -1.3765854002,
				"z": 1.3539461254,
				"element": "C" 
			},
			{
				"x": -2.6753781101,
				"y": -1.3441884603,
				"z": -0.9447151455,
				"element": "H" 
			},
			{
				"x": -2.2947328543,
				"y": -0.050692226,
				"z": -2.1166737862,
				"element": "H" 
			},
			{
				"x": 2.8465321941,
				"y": 1.4699570155,
				"z": -1.2324534587,
				"element": "H" 
			},
			{
				"x": 4.4936195771,
				"y": 0.8344046647,
				"z": 0.5480246075,
				"element": "H" 
			},
			{
				"x": 3.9681619587,
				"y": -0.949438973,
				"z": 2.1654447421,
				"element": "H" 
			},
			{
				"x": 1.7764490088,
				"y": -2.1628539351,
				"z": 2.0615099555,
				"element": "H" 
			}
		],
		 "valence_orbital": [ 
			{
				"type": "occ",
				"energy": -0.30679,
				"method": "rhf"
			},
			{
				"type": "occ",
				"energy": -0.30334,
				"method": "rhf"
			},
			{
				"type": "occ",
				"energy": -0.28927,
				"method": "rhf"
			},
			{
				"type": "occ",
				"energy": -0.28405,
				"method": "rhf"
			},
			{
				"type": "occ",
				"energy": -0.28371,
				"method": "rhf"
			},
			{
				"type": "unocc",
				"energy": -0.09542,
				"method": "rhf"
			},
			{
				"type": "unocc",
				"energy": -0.05324,
				"method": "rhf"
			},
			{
				"type": "unocc",
				"energy": 0.01547,
				"method": "rhf"
			},
			{
				"type": "unocc",
				"energy": 0.01558,
				"method": "rhf"
			},
			{
				"type": "unocc",
				"energy": 0.03203,
				"method": "rhf"
			}
		],
		"cosmo_sigma_profile": { 
			"-0.025": 0.0,
			"-0.024": 0.0,
			"-0.023": 0.0,
			"-0.022": 0.0,
			"-0.021": 0.0,
			"-0.02": 0.0,
			"-0.019": 0.0,
			"-0.018": 0.0,
			"-0.017": 0.0,
			"-0.016": 0.0,
			"-0.015": 0.0,
			"-0.014": 0.0,
			"-0.013": 0.0,
			"-0.012": 0.0,
			"-0.011": 0.998245352993,
			"-0.01": 3.56027675546,
			"-0.009": 4.40487706212,
			"-0.008": 8.2485330755,
			"-0.007": 14.0363504574,
			"-0.006": 15.2844178426,
			"-0.005": 13.8569789974,
			"-0.004": 10.4841118995,
			"-0.003": 11.1385717276,
			"-0.002": 13.403630633,
			"-0.001": 15.4248284946,
			"0.0": 14.8656014382,
			"0.001": 16.2115532162,
			"0.002": 13.6352011993,
			"0.003": 5.92650929692,
			"0.004": 4.69619457876,
			"0.005": 4.63903920939,
			"0.006": 4.5670557011,
			"0.007": 5.91236689998,
			"0.008": 7.08898889983,
			"0.009": 7.71592179409,
			"0.01": 9.97488651456,
			"0.011": 8.80506548387,
			"0.012": 2.36295189331,
			"0.013": 0.323848379324,
			"0.014": 0.0,
			"0.015": 0.0,
			"0.016": 0.0,
			"0.017": 0.0,
			"0.018": 0.0,
			"0.019": 0.0,
			"0.02": 0.0,
			"0.021": 0.0,
			"0.022": 0.0,
			"0.023": 0.0,
			"0.024": 0.0,
			"0.025": 0.0
		}
	}
}
