{
	 "smiles": "CCOC1=CC=C(OCC)C=C1", 
	 "Tm": 344.15, 
	 "num_atms": 26, 
	 "gaussian": { 
		 "optdone": 1, 
		 "sigma_profile": "yes", 
		 "theory": "DFT", 
		 "functional": "B3LYP", 
		 "basiset": "6-31G**", 
		 "properties": { 
			 "R2extent": 3461.0117, 
			 "electric_dipole_moment_norm": 2.35333366313, 
			 "electric_quadrupole_moment_norm": 8.3872249022, 
			 "total_energy": -539.935624386, 
			 "HOMO_LUMO_gap": 0.19334, 
			 "cosmo_polarized_energy": -7.39, 
			 "cosmo_cavitation_energy": 28.46, 
			 "cosmo_dispersion_energy": -21.01, 
			 "cosmo_repulsion_energy": 1.71, 
			 "cosmo_total_nonelectrostatic_energy": 9.15, 
			 "SMD_solvation_energy": 5.64 
		},
		"coords": [
			{
				"x": 1.960548765,
				"y": 3.3265993031,
				"z": 2.551055845,
				"element": "C" 
			},
			{
				"x": 2.2283658363,
				"y": 3.57652239,
				"z": 1.0693210208,
				"element": "C" 
			},
			{
				"x": 2.9327339511,
				"y": 2.5035365173,
				"z": 0.4473229481,
				"element": "O" 
			},
			{
				"x": 2.250461176,
				"y": 1.3791895429,
				"z": 0.0582530713,
				"element": "C" 
			},
			{
				"x": 0.8723596682,
				"y": 1.1848480994,
				"z": 0.1625280378,
				"element": "C" 
			},
			{
				"x": 0.2853067787,
				"y": -0.0054706736,
				"z": -0.2921704799,
				"element": "C" 
			},
			{
				"x": 1.071094637,
				"y": -1.0120889119,
				"z": -0.8552703418,
				"element": "C" 
			},
			{
				"x": 0.6105522644,
				"y": -2.2048748422,
				"z": -1.3514530944,
				"element": "O" 
			},
			{
				"x": -0.7778199003,
				"y": -2.5184198245,
				"z": -1.2595711365,
				"element": "C" 
			},
			{
				"x": -1.1765940242,
				"y": -3.0335163668,
				"z": 0.1207792287,
				"element": "C" 
			},
			{
				"x": 2.4583824012,
				"y": -0.8145181537,
				"z": -0.9530897817,
				"element": "C" 
			},
			{
				"x": 3.0381791238,
				"y": 0.3610753547,
				"z": -0.5039843001,
				"element": "C" 
			},
			{
				"x": 2.9011256463,
				"y": 3.1449416585,
				"z": 3.0789547472,
				"element": "H" 
			},
			{
				"x": 1.4762519066,
				"y": 4.2009651938,
				"z": 2.9991867616,
				"element": "H" 
			},
			{
				"x": 1.3120449893,
				"y": 2.4599332271,
				"z": 2.704607048,
				"element": "H" 
			},
			{
				"x": 1.2999633329,
				"y": 3.792767372,
				"z": 0.5239875491,
				"element": "H" 
			},
			{
				"x": 2.8851788167,
				"y": 4.4429733279,
				"z": 0.9470352907,
				"element": "H" 
			},
			{
				"x": 0.2304667165,
				"y": 1.9413573871,
				"z": 0.5982724208,
				"element": "H" 
			},
			{
				"x": -0.7871565088,
				"y": -0.1219752412,
				"z": -0.1898867393,
				"element": "H" 
			},
			{
				"x": -1.386493175,
				"y": -1.6541767863,
				"z": -1.5573675506,
				"element": "H" 
			},
			{
				"x": -0.93308716,
				"y": -3.2983273389,
				"z": -2.011059809,
				"element": "H" 
			},
			{
				"x": -1.0240138077,
				"y": -2.2766638616,
				"z": 0.8948176025,
				"element": "H" 
			},
			{
				"x": -2.2337919772,
				"y": -3.3202068171,
				"z": 0.1251218651,
				"element": "H" 
			},
			{
				"x": -0.5799158534,
				"y": -3.9121049045,
				"z": 0.3823511355,
				"element": "H" 
			},
			{
				"x": 3.0626716602,
				"y": -1.6014745807,
				"z": -1.3927222378,
				"element": "H" 
			},
			{
				"x": 4.1088847365,
				"y": 0.5198089293,
				"z": -0.5823191011,
				"element": "H" 
			}
		],
		 "valence_orbital": [ 
			{
				"type": "occ",
				"energy": -0.32003,
				"method": "rhf"
			},
			{
				"type": "occ",
				"energy": -0.30867,
				"method": "rhf"
			},
			{
				"type": "occ",
				"energy": -0.27964,
				"method": "rhf"
			},
			{
				"type": "occ",
				"energy": -0.24477,
				"method": "rhf"
			},
			{
				"type": "occ",
				"energy": -0.19106,
				"method": "rhf"
			},
			{
				"type": "unocc",
				"energy": 0.00228,
				"method": "rhf"
			},
			{
				"type": "unocc",
				"energy": 0.03178,
				"method": "rhf"
			},
			{
				"type": "unocc",
				"energy": 0.08784,
				"method": "rhf"
			},
			{
				"type": "unocc",
				"energy": 0.10041,
				"method": "rhf"
			},
			{
				"type": "unocc",
				"energy": 0.11594,
				"method": "rhf"
			}
		],
		"cosmo_sigma_profile": { 
			"-0.025": 0.0,
			"-0.024": 0.0,
			"-0.023": 0.0,
			"-0.022": 0.0,
			"-0.021": 0.0,
			"-0.02": 0.0,
			"-0.019": 0.0,
			"-0.018": 0.0,
			"-0.017": 0.0,
			"-0.016": 0.0,
			"-0.015": 0.0,
			"-0.014": 0.0,
			"-0.013": 0.0,
			"-0.012": 0.0,
			"-0.011": 0.0,
			"-0.01": 0.0,
			"-0.009": 0.0,
			"-0.008": 0.0,
			"-0.007": 0.911564670964,
			"-0.006": 6.86448853756,
			"-0.005": 14.8290721687,
			"-0.004": 22.8450669101,
			"-0.003": 30.2909205294,
			"-0.002": 24.6248004282,
			"-0.001": 19.3308355065,
			"0.0": 19.9473731447,
			"0.001": 14.8555855766,
			"0.002": 9.02365540969,
			"0.003": 8.51750238376,
			"0.004": 13.7920590005,
			"0.005": 13.7400863369,
			"0.006": 10.7108630133,
			"0.007": 3.52183380108,
			"0.008": 2.4967511153,
			"0.009": 2.47676375493,
			"0.01": 2.71447778635,
			"0.011": 2.5278336784,
			"0.012": 0.156569018116,
			"0.013": 0.0,
			"0.014": 0.0,
			"0.015": 0.0,
			"0.016": 0.0,
			"0.017": 0.0,
			"0.018": 0.0,
			"0.019": 0.0,
			"0.02": 0.0,
			"0.021": 0.0,
			"0.022": 0.0,
			"0.023": 0.0,
			"0.024": 0.0,
			"0.025": 0.0
		}
	}
}
