{
	 "smiles": "CNC(CO)C1=CC(Br)=CC=C1", 
	 "Tm": 353.15, 
	 "num_atms": 24, 
	 "gaussian": { 
		 "optdone": 1, 
		 "sigma_profile": "yes", 
		 "theory": "DFT", 
		 "functional": "B3LYP", 
		 "basiset": "6-31G**", 
		 "properties": { 
			 "R2extent": 4375.0031, 
			 "electric_dipole_moment_norm": 2.51912976442, 
			 "electric_quadrupole_moment_norm": 12.3248184859, 
			 "total_energy": -3051.54697588, 
			 "HOMO_LUMO_gap": 0.20135, 
			 "cosmo_polarized_energy": -13.0, 
			 "cosmo_cavitation_energy": 29.47, 
			 "cosmo_dispersion_energy": -21.23, 
			 "cosmo_repulsion_energy": 1.74, 
			 "cosmo_total_nonelectrostatic_energy": 9.99, 
			 "SMD_solvation_energy": 2.45 
		},
		"coords": [
			{
				"x": 0.2200118425,
				"y": -2.5816366889,
				"z": 0.7486076366,
				"element": "C" 
			},
			{
				"x": -0.1423548541,
				"y": -2.3874888992,
				"z": -0.6493313851,
				"element": "N" 
			},
			{
				"x": -0.9179573072,
				"y": -1.1880592117,
				"z": -0.9318862847,
				"element": "C" 
			},
			{
				"x": -1.336031349,
				"y": -1.1640684619,
				"z": -2.4097526926,
				"element": "C" 
			},
			{
				"x": -2.18650917,
				"y": -2.2648929225,
				"z": -2.6707017648,
				"element": "O" 
			},
			{
				"x": -0.2446884851,
				"y": 0.1454723093,
				"z": -0.5781494709,
				"element": "C" 
			},
			{
				"x": -0.9723717042,
				"y": 1.1458811114,
				"z": 0.0778963953,
				"element": "C" 
			},
			{
				"x": -0.3731026767,
				"y": 2.3705275476,
				"z": 0.3642029667,
				"element": "C" 
			},
			{
				"x": -1.3885628089,
				"y": 3.7211598035,
				"z": 1.2648023749,
				"element": "Br" 
			},
			{
				"x": 0.9497628603,
				"y": 2.6327231012,
				"z": 0.0149360824,
				"element": "C" 
			},
			{
				"x": 1.6764001931,
				"y": 1.6338597267,
				"z": -0.6353203493,
				"element": "C" 
			},
			{
				"x": 1.0868827383,
				"y": 0.4041361184,
				"z": -0.9280592437,
				"element": "C" 
			},
			{
				"x": -0.6934203441,
				"y": -2.6872559023,
				"z": 1.3451514903,
				"element": "H" 
			},
			{
				"x": 0.7851298209,
				"y": -3.5134187441,
				"z": 0.846548887,
				"element": "H" 
			},
			{
				"x": 0.8164313602,
				"y": -1.7675712073,
				"z": 1.1942299676,
				"element": "H" 
			},
			{
				"x": 0.6775811228,
				"y": -2.4358113184,
				"z": -1.2473199589,
				"element": "H" 
			},
			{
				"x": -1.8437130681,
				"y": -1.2607735416,
				"z": -0.3454082696,
				"element": "H" 
			},
			{
				"x": -1.8371357353,
				"y": -0.2045716506,
				"z": -2.6106017469,
				"element": "H" 
			},
			{
				"x": -0.4266742791,
				"y": -1.1893461816,
				"z": -3.0369545208,
				"element": "H" 
			},
			{
				"x": -2.4743051303,
				"y": -2.2052966698,
				"z": -3.5899277828,
				"element": "H" 
			},
			{
				"x": -2.0038736251,
				"y": 0.9690018431,
				"z": 0.366078862,
				"element": "H" 
			},
			{
				"x": 1.4005564002,
				"y": 3.5900032413,
				"z": 0.2497163598,
				"element": "H" 
			},
			{
				"x": 2.7102597995,
				"y": 1.8207692243,
				"z": -0.9114470866,
				"element": "H" 
			},
			{
				"x": 1.6730843995,
				"y": -0.3644426267,
				"z": -1.424910466,
				"element": "H" 
			}
		],
		 "valence_orbital": [ 
			{
				"type": "occ",
				"energy": -0.28624,
				"method": "rhf"
			},
			{
				"type": "occ",
				"energy": -0.27069,
				"method": "rhf"
			},
			{
				"type": "occ",
				"energy": -0.25754,
				"method": "rhf"
			},
			{
				"type": "occ",
				"energy": -0.24283,
				"method": "rhf"
			},
			{
				"type": "occ",
				"energy": -0.21709,
				"method": "rhf"
			},
			{
				"type": "unocc",
				"energy": -0.01574,
				"method": "rhf"
			},
			{
				"type": "unocc",
				"energy": -0.0149,
				"method": "rhf"
			},
			{
				"type": "unocc",
				"energy": 0.00771,
				"method": "rhf"
			},
			{
				"type": "unocc",
				"energy": 0.07464,
				"method": "rhf"
			},
			{
				"type": "unocc",
				"energy": 0.08211,
				"method": "rhf"
			}
		],
		"cosmo_sigma_profile": { 
			"-0.025": 0.0,
			"-0.024": 0.0,
			"-0.023": 0.0,
			"-0.022": 0.0,
			"-0.021": 0.0,
			"-0.02": 0.0,
			"-0.019": 0.0,
			"-0.018": 0.0,
			"-0.017": 0.0,
			"-0.016": 0.545690423345,
			"-0.015": 0.887153886839,
			"-0.014": 1.42177579509,
			"-0.013": 0.776696136677,
			"-0.012": 0.90035591756,
			"-0.011": 0.547076351294,
			"-0.01": 1.96870683974,
			"-0.009": 3.32007310466,
			"-0.008": 3.02175824456,
			"-0.007": 4.7394927466,
			"-0.006": 10.7310316523,
			"-0.005": 11.3873802514,
			"-0.004": 16.8983773165,
			"-0.003": 21.1095487226,
			"-0.002": 18.6573836706,
			"-0.001": 16.7499112788,
			"0.0": 20.9512615514,
			"0.001": 14.7427805704,
			"0.002": 16.2412578624,
			"0.003": 17.9086015194,
			"0.004": 19.8121485288,
			"0.005": 12.0599110955,
			"0.006": 1.7333378297,
			"0.007": 1.36630125645,
			"0.008": 1.50449997921,
			"0.009": 1.37553924054,
			"0.01": 1.28160540059,
			"0.011": 1.41882736645,
			"0.012": 1.70929667628,
			"0.013": 1.64233641834,
			"0.014": 1.81169147279,
			"0.015": 1.61932684165,
			"0.016": 0.985490955607,
			"0.017": 1.04677601888,
			"0.018": 0.865004901968,
			"0.019": 0.987895267724,
			"0.02": 0.388805813327,
			"0.021": 0.0,
			"0.022": 0.0,
			"0.023": 0.0,
			"0.024": 0.0,
			"0.025": 0.0
		}
	}
}
