{
	 "smiles": "CC1=CC(C)=C(CC2=C(C)C=C(C)C=C2C)C(C)=C1", 
	 "Tm": 403.15, 
	 "num_atms": 43, 
	 "gaussian": { 
		 "optdone": 1, 
		 "sigma_profile": "yes", 
		 "theory": "DFT", 
		 "functional": "B3LYP", 
		 "basiset": "6-31G**", 
		 "properties": { 
			 "R2extent": 6462.6648, 
			 "electric_dipole_moment_norm": 0.242358762994, 
			 "electric_quadrupole_moment_norm": 2.98704425645, 
			 "total_energy": -738.527766502, 
			 "HOMO_LUMO_gap": 0.21962, 
			 "cosmo_polarized_energy": -5.58, 
			 "cosmo_cavitation_energy": 42.2, 
			 "cosmo_dispersion_energy": -28.96, 
			 "cosmo_repulsion_energy": 2.21, 
			 "cosmo_total_nonelectrostatic_energy": 15.45, 
			 "SMD_solvation_energy": 7.18 
		},
		"coords": [
			{
				"x": -1.0469863889,
				"y": -0.5551951382,
				"z": 4.5276368507,
				"element": "C" 
			},
			{
				"x": -0.6882589436,
				"y": 0.138996658,
				"z": 3.2348491345,
				"element": "C" 
			},
			{
				"x": -1.2582308719,
				"y": 1.3648745253,
				"z": 2.8882785288,
				"element": "C" 
			},
			{
				"x": -0.9667700007,
				"y": 2.0062511044,
				"z": 1.6786142704,
				"element": "C" 
			},
			{
				"x": -1.6160355054,
				"y": 3.3501794049,
				"z": 1.4145731592,
				"element": "C" 
			},
			{
				"x": -0.0749993443,
				"y": 1.4031300886,
				"z": 0.7616957023,
				"element": "C" 
			},
			{
				"x": 0.2678909086,
				"y": 2.1130075292,
				"z": -0.5490144294,
				"element": "C" 
			},
			{
				"x": 0.1591331513,
				"y": 1.3389732453,
				"z": -1.8637637259,
				"element": "C" 
			},
			{
				"x": -1.0314995449,
				"y": 0.6671505211,
				"z": -2.2229186754,
				"element": "C" 
			},
			{
				"x": -2.2583282107,
				"y": 0.6674991044,
				"z": -1.3375077395,
				"element": "C" 
			},
			{
				"x": -1.100019994,
				"y": -0.0138329307,
				"z": -3.4440200907,
				"element": "C" 
			},
			{
				"x": -0.0327588019,
				"y": -0.0416675027,
				"z": -4.3432020637,
				"element": "C" 
			},
			{
				"x": -0.1424954299,
				"y": -0.7599648021,
				"z": -5.6677990723,
				"element": "C" 
			},
			{
				"x": 1.1250177076,
				"y": 0.6527959337,
				"z": -3.98975083,
				"element": "C" 
			},
			{
				"x": 1.2379409201,
				"y": 1.344700927,
				"z": -2.7780874392,
				"element": "C" 
			},
			{
				"x": 2.528303707,
				"y": 2.0919889295,
				"z": -2.5064770358,
				"element": "C" 
			},
			{
				"x": 0.5413506999,
				"y": 0.1818946295,
				"z": 1.1177461088,
				"element": "C" 
			},
			{
				"x": 1.56798913,
				"y": -0.4927086445,
				"z": 0.2346352498,
				"element": "C" 
			},
			{
				"x": 0.2188566122,
				"y": -0.4259301736,
				"z": 2.3367721158,
				"element": "C" 
			},
			{
				"x": -1.3188648154,
				"y": 0.163810689,
				"z": 5.3067111163,
				"element": "H" 
			},
			{
				"x": -1.9036716194,
				"y": -1.2282302923,
				"z": 4.3943713716,
				"element": "H" 
			},
			{
				"x": -0.2154923555,
				"y": -1.1609641144,
				"z": 4.9011801549,
				"element": "H" 
			},
			{
				"x": -1.9482890041,
				"y": 1.8431910411,
				"z": 3.5804141554,
				"element": "H" 
			},
			{
				"x": -2.2534520682,
				"y": 3.3411513155,
				"z": 0.5226201517,
				"element": "H" 
			},
			{
				"x": -2.2453996687,
				"y": 3.6416645595,
				"z": 2.259618167,
				"element": "H" 
			},
			{
				"x": -0.875490913,
				"y": 4.1452609748,
				"z": 1.2695296034,
				"element": "H" 
			},
			{
				"x": -0.3634381931,
				"y": 3.0027058222,
				"z": -0.6378164275,
				"element": "H" 
			},
			{
				"x": 1.2870498276,
				"y": 2.5014649033,
				"z": -0.4572846914,
				"element": "H" 
			},
			{
				"x": -3.1097822171,
				"y": 0.2289498418,
				"z": -1.8652832252,
				"element": "H" 
			},
			{
				"x": -2.5429428022,
				"y": 1.6829312363,
				"z": -1.0409503152,
				"element": "H" 
			},
			{
				"x": -2.1040755762,
				"y": 0.1011510982,
				"z": -0.4144064988,
				"element": "H" 
			},
			{
				"x": -2.0222011178,
				"y": -0.5322138564,
				"z": -3.6993302563,
				"element": "H" 
			},
			{
				"x": -0.815533013,
				"y": -1.6204570532,
				"z": -5.602122762,
				"element": "H" 
			},
			{
				"x": 0.8328829258,
				"y": -1.1187759652,
				"z": -6.0108541668,
				"element": "H" 
			},
			{
				"x": -0.5377041627,
				"y": -0.0981738549,
				"z": -6.4491347315,
				"element": "H" 
			},
			{
				"x": 1.9687107169,
				"y": 0.6611393142,
				"z": -4.6769131394,
				"element": "H" 
			},
			{
				"x": 3.0477376546,
				"y": 1.7243789795,
				"z": -1.6138323133,
				"element": "H" 
			},
			{
				"x": 2.3602150345,
				"y": 3.1650777365,
				"z": -2.3586747783,
				"element": "H" 
			},
			{
				"x": 3.2159041721,
				"y": 1.9833980409,
				"z": -3.3494332421,
				"element": "H" 
			},
			{
				"x": 2.3713778201,
				"y": 0.19539446,
				"z": -0.0503600647,
				"element": "H" 
			},
			{
				"x": 1.1317822988,
				"y": -0.8705097539,
				"z": -0.6946864615,
				"element": "H" 
			},
			{
				"x": 2.0279846236,
				"y": -1.3348256156,
				"z": 0.7591013012,
				"element": "H" 
			},
			{
				"x": 0.702192652,
				"y": -1.3667629159,
				"z": 2.5926770341,
				"element": "H" 
			}
		],
		 "valence_orbital": [ 
			{
				"type": "occ",
				"energy": -0.31159,
				"method": "rhf"
			},
			{
				"type": "occ",
				"energy": -0.2279,
				"method": "rhf"
			},
			{
				"type": "occ",
				"energy": -0.2262,
				"method": "rhf"
			},
			{
				"type": "occ",
				"energy": -0.22178,
				"method": "rhf"
			},
			{
				"type": "occ",
				"energy": -0.21605,
				"method": "rhf"
			},
			{
				"type": "unocc",
				"energy": 0.00357,
				"method": "rhf"
			},
			{
				"type": "unocc",
				"energy": 0.00977,
				"method": "rhf"
			},
			{
				"type": "unocc",
				"energy": 0.01177,
				"method": "rhf"
			},
			{
				"type": "unocc",
				"energy": 0.01622,
				"method": "rhf"
			},
			{
				"type": "unocc",
				"energy": 0.08476,
				"method": "rhf"
			}
		],
		"cosmo_sigma_profile": { 
			"-0.025": 0.0,
			"-0.024": 0.0,
			"-0.023": 0.0,
			"-0.022": 0.0,
			"-0.021": 0.0,
			"-0.02": 0.0,
			"-0.019": 0.0,
			"-0.018": 0.0,
			"-0.017": 0.0,
			"-0.016": 0.0,
			"-0.015": 0.0,
			"-0.014": 0.0,
			"-0.013": 0.0,
			"-0.012": 0.0,
			"-0.011": 0.0,
			"-0.01": 0.0,
			"-0.009": 0.0,
			"-0.008": 0.0,
			"-0.007": 0.0287105110498,
			"-0.006": 0.678135801916,
			"-0.005": 5.67163615704,
			"-0.004": 30.6823547593,
			"-0.003": 43.9140684374,
			"-0.002": 36.603910065,
			"-0.001": 38.9021600494,
			"0.0": 46.9832346784,
			"0.001": 41.7172666547,
			"0.002": 21.7353650787,
			"0.003": 16.344272796,
			"0.004": 13.4603668747,
			"0.005": 12.8560209497,
			"0.006": 13.1694996561,
			"0.007": 6.91544222912,
			"0.008": 1.09749399547,
			"0.009": 0.0,
			"0.01": 0.0,
			"0.011": 0.0,
			"0.012": 0.0,
			"0.013": 0.0,
			"0.014": 0.0,
			"0.015": 0.0,
			"0.016": 0.0,
			"0.017": 0.0,
			"0.018": 0.0,
			"0.019": 0.0,
			"0.02": 0.0,
			"0.021": 0.0,
			"0.022": 0.0,
			"0.023": 0.0,
			"0.024": 0.0,
			"0.025": 0.0
		}
	}
}
