{
	 "smiles": "CCC(C(O)=O)C(O)=O", 
	 "Tm": 387.15, 
	 "num_atms": 17, 
	 "gaussian": { 
		 "optdone": 1, 
		 "sigma_profile": "yes", 
		 "theory": "DFT", 
		 "functional": "B3LYP", 
		 "basiset": "6-31G**", 
		 "properties": { 
			 "R2extent": 1784.809, 
			 "electric_dipole_moment_norm": 2.48432177666, 
			 "electric_quadrupole_moment_norm": 12.4649592426, 
			 "total_energy": -496.279780364, 
			 "HOMO_LUMO_gap": 0.27324, 
			 "cosmo_polarized_energy": -14.13, 
			 "cosmo_cavitation_energy": 21.4, 
			 "cosmo_dispersion_energy": -15.22, 
			 "cosmo_repulsion_energy": 1.3, 
			 "cosmo_total_nonelectrostatic_energy": 7.48, 
			 "SMD_solvation_energy": 6.22 
		},
		"coords": [
			{
				"x": -1.0376879058,
				"y": 1.2188379446,
				"z": 1.1946948208,
				"element": "C" 
			},
			{
				"x": -0.0055978609,
				"y": 0.6522691687,
				"z": 0.2156331505,
				"element": "C" 
			},
			{
				"x": -0.3475507241,
				"y": 0.9564365206,
				"z": -1.2630624995,
				"element": "C" 
			},
			{
				"x": -1.6860128411,
				"y": 0.3859380399,
				"z": -1.7158307315,
				"element": "C" 
			},
			{
				"x": -1.8614547017,
				"y": -0.8898168991,
				"z": -1.3072998895,
				"element": "O" 
			},
			{
				"x": -2.5111133958,
				"y": 0.9943731988,
				"z": -2.3568791965,
				"element": "O" 
			},
			{
				"x": 0.7408244113,
				"y": 0.4665113446,
				"z": -2.2118956763,
				"element": "C" 
			},
			{
				"x": 1.9334825827,
				"y": 1.0385449481,
				"z": -1.9235922116,
				"element": "O" 
			},
			{
				"x": 0.5915363388,
				"y": -0.318219678,
				"z": -3.1202501469,
				"element": "O" 
			},
			{
				"x": -2.0250099076,
				"y": 0.7717472009,
				"z": 1.0414320605,
				"element": "H" 
			},
			{
				"x": -1.1378263425,
				"y": 2.3043142904,
				"z": 1.0853969671,
				"element": "H" 
			},
			{
				"x": -0.7391337506,
				"y": 1.013087234,
				"z": 2.2271198461,
				"element": "H" 
			},
			{
				"x": 0.9806934543,
				"y": 1.0775569924,
				"z": 0.4226733593,
				"element": "H" 
			},
			{
				"x": 0.0761364118,
				"y": -0.4320093896,
				"z": 0.3429268676,
				"element": "H" 
			},
			{
				"x": -0.4205803515,
				"y": 2.0413941539,
				"z": -1.398802843,
				"element": "H" 
			},
			{
				"x": -2.7139828433,
				"y": -1.1776326046,
				"z": -1.6747943651,
				"element": "H" 
			},
			{
				"x": 2.566677426,
				"y": 0.6842675343,
				"z": -2.5706695122,
				"element": "H" 
			}
		],
		 "valence_orbital": [ 
			{
				"type": "occ",
				"energy": -0.35,
				"method": "rhf"
			},
			{
				"type": "occ",
				"energy": -0.32951,
				"method": "rhf"
			},
			{
				"type": "occ",
				"energy": -0.32042,
				"method": "rhf"
			},
			{
				"type": "occ",
				"energy": -0.28384,
				"method": "rhf"
			},
			{
				"type": "occ",
				"energy": -0.27686,
				"method": "rhf"
			},
			{
				"type": "unocc",
				"energy": -0.00362,
				"method": "rhf"
			},
			{
				"type": "unocc",
				"energy": 0.00455,
				"method": "rhf"
			},
			{
				"type": "unocc",
				"energy": 0.06508,
				"method": "rhf"
			},
			{
				"type": "unocc",
				"energy": 0.07752,
				"method": "rhf"
			},
			{
				"type": "unocc",
				"energy": 0.10656,
				"method": "rhf"
			}
		],
		"cosmo_sigma_profile": { 
			"-0.025": 0.0,
			"-0.024": 0.0,
			"-0.023": 0.0,
			"-0.022": 0.0,
			"-0.021": 0.0,
			"-0.02": 0.0,
			"-0.019": 0.492567117222,
			"-0.018": 2.02100518169,
			"-0.017": 2.03152903601,
			"-0.016": 1.25388870685,
			"-0.015": 1.47748963175,
			"-0.014": 0.957256688483,
			"-0.013": 1.18937478915,
			"-0.012": 2.37584501556,
			"-0.011": 1.98400097444,
			"-0.01": 1.2194410224,
			"-0.009": 0.697903763241,
			"-0.008": 2.33662901994,
			"-0.007": 3.40149666772,
			"-0.006": 4.21192520543,
			"-0.005": 4.70507148588,
			"-0.004": 11.316757255,
			"-0.003": 15.1605659624,
			"-0.002": 13.9966957472,
			"-0.001": 15.2368985737,
			"0.0": 13.2220449775,
			"0.001": 8.32249623967,
			"0.002": 4.29423368757,
			"0.003": 4.80937857576,
			"0.004": 5.78272893042,
			"0.005": 5.5585497276,
			"0.006": 4.35119101013,
			"0.007": 4.81570851485,
			"0.008": 6.04261652378,
			"0.009": 4.06996870448,
			"0.01": 6.71504636834,
			"0.011": 9.84522858252,
			"0.012": 3.23415063744,
			"0.013": 0.226485855794,
			"0.014": 0.0,
			"0.015": 0.0,
			"0.016": 0.0,
			"0.017": 0.0,
			"0.018": 0.0,
			"0.019": 0.0,
			"0.02": 0.0,
			"0.021": 0.0,
			"0.022": 0.0,
			"0.023": 0.0,
			"0.024": 0.0,
			"0.025": 0.0
		}
	}
}
