{
	 "smiles": "CCCCCCCCC(=O)OC1CCC2(C)C3CCC4(C)C(CCC4C3CC=C2C1)C(C)CCCC(C)C", 
	 "Tm": 348.65, 
	 "num_atms": 100, 
	 "gaussian": { 
		 "optdone": 1, 
		 "sigma_profile": "yes", 
		 "theory": "DFT", 
		 "functional": "B3LYP", 
		 "basiset": "6-31G**", 
		 "properties": { 
			 "R2extent": 26511.1748, 
			 "electric_dipole_moment_norm": 1.92920369324, 
			 "electric_quadrupole_moment_norm": 11.9901451663, 
			 "total_energy": -1559.70102335, 
			 "HOMO_LUMO_gap": 0.24025, 
			 "cosmo_polarized_energy": -7.65, 
			 "cosmo_cavitation_energy": 85.84, 
			 "cosmo_dispersion_energy": -51.78, 
			 "cosmo_repulsion_energy": 3.89, 
			 "cosmo_total_nonelectrostatic_energy": 37.95, 
			 "SMD_solvation_energy": 12.2 
		},
		"coords": [
			{
				"x": -5.2561263476,
				"y": 4.6826096438,
				"z": 0.4238155862,
				"element": "C" 
			},
			{
				"x": -4.1739461374,
				"y": 4.0652314421,
				"z": 1.3158168191,
				"element": "C" 
			},
			{
				"x": -4.6780974812,
				"y": 3.7388253919,
				"z": 2.7289161183,
				"element": "C" 
			},
			{
				"x": -3.6092734003,
				"y": 3.1799914158,
				"z": 3.6831150525,
				"element": "C" 
			},
			{
				"x": -3.0667780672,
				"y": 1.7974226343,
				"z": 3.2883509081,
				"element": "C" 
			},
			{
				"x": -2.1216278637,
				"y": 1.1607480112,
				"z": 4.3205989358,
				"element": "C" 
			},
			{
				"x": -0.8037212605,
				"y": 1.9228003901,
				"z": 4.5227408876,
				"element": "C" 
			},
			{
				"x": 0.1896425361,
				"y": 1.2078280327,
				"z": 5.4674135113,
				"element": "C" 
			},
			{
				"x": 0.691304955,
				"y": -0.0984482419,
				"z": 4.8857624531,
				"element": "C" 
			},
			{
				"x": 0.2209708226,
				"y": -1.1931872167,
				"z": 5.1197718636,
				"element": "O" 
			},
			{
				"x": 1.7243121915,
				"y": 0.113429779,
				"z": 4.0350398343,
				"element": "O" 
			},
			{
				"x": 2.2865105291,
				"y": -1.0563050826,
				"z": 3.3636607385,
				"element": "C" 
			},
			{
				"x": 1.5012008638,
				"y": -1.3701244007,
				"z": 2.0944407459,
				"element": "C" 
			},
			{
				"x": 1.5871317819,
				"y": -0.2681265739,
				"z": 1.021183335,
				"element": "C" 
			},
			{
				"x": 3.0300157243,
				"y": 0.3372913995,
				"z": 0.8091356091,
				"element": "C" 
			},
			{
				"x": 3.0459082752,
				"y": 1.7423308416,
				"z": 1.4789894513,
				"element": "C" 
			},
			{
				"x": 3.4598522236,
				"y": 0.5788345241,
				"z": -0.6953235933,
				"element": "C" 
			},
			{
				"x": 2.2937733406,
				"y": 1.0389672938,
				"z": -1.6166333384,
				"element": "C" 
			},
			{
				"x": 2.4899435908,
				"y": 0.6482399122,
				"z": -3.0889693014,
				"element": "C" 
			},
			{
				"x": 2.6053063295,
				"y": -0.8817251699,
				"z": -3.3348570085,
				"element": "C" 
			},
			{
				"x": 3.2278108246,
				"y": -1.1036161632,
				"z": -4.72807773,
				"element": "C" 
			},
			{
				"x": 1.2314136128,
				"y": -1.6461486286,
				"z": -3.1659334874,
				"element": "C" 
			},
			{
				"x": 1.6382479826,
				"y": -2.9939491883,
				"z": -2.528766886,
				"element": "C" 
			},
			{
				"x": 2.7240464554,
				"y": -2.6129964996,
				"z": -1.5187518825,
				"element": "C" 
			},
			{
				"x": 3.5593324568,
				"y": -1.5472986796,
				"z": -2.2541501613,
				"element": "C" 
			},
			{
				"x": 4.3234188426,
				"y": -0.5021448092,
				"z": -1.4158816445,
				"element": "C" 
			},
			{
				"x": 5.4042963628,
				"y": -1.1094406093,
				"z": -0.4957226874,
				"element": "C" 
			},
			{
				"x": 5.0210387999,
				"y": -1.2169587075,
				"z": 0.9508990231,
				"element": "C" 
			},
			{
				"x": 4.013978855,
				"y": -0.5676541922,
				"z": 1.5453927504,
				"element": "C" 
			},
			{
				"x": 3.764516376,
				"y": -0.7473012734,
				"z": 3.0328139284,
				"element": "C" 
			},
			{
				"x": 0.3131082312,
				"y": -1.7976866711,
				"z": -4.4091246742,
				"element": "C" 
			},
			{
				"x": -0.8562919271,
				"y": -2.7614553852,
				"z": -4.1283096466,
				"element": "C" 
			},
			{
				"x": -0.2171383614,
				"y": -0.462046702,
				"z": -4.9926652995,
				"element": "C" 
			},
			{
				"x": -1.1725502294,
				"y": 0.3652353476,
				"z": -4.0931474506,
				"element": "C" 
			},
			{
				"x": -2.6550034164,
				"y": 0.2528049376,
				"z": -4.4859459671,
				"element": "C" 
			},
			{
				"x": -3.6399086685,
				"y": 0.9889440482,
				"z": -3.555801914,
				"element": "C" 
			},
			{
				"x": -3.4200790721,
				"y": 2.5098155583,
				"z": -3.5442679969,
				"element": "C" 
			},
			{
				"x": -5.0903284142,
				"y": 0.6596740124,
				"z": -3.9405575694,
				"element": "C" 
			},
			{
				"x": -5.6361468622,
				"y": 5.6181687351,
				"z": 0.850298356,
				"element": "H" 
			},
			{
				"x": -6.1091030619,
				"y": 4.0038342057,
				"z": 0.3088814708,
				"element": "H" 
			},
			{
				"x": -4.8719681056,
				"y": 4.9057758952,
				"z": -0.5772179432,
				"element": "H" 
			},
			{
				"x": -3.3215893711,
				"y": 4.7551827438,
				"z": 1.3886799565,
				"element": "H" 
			},
			{
				"x": -3.7888501015,
				"y": 3.1563492684,
				"z": 0.8370063847,
				"element": "H" 
			},
			{
				"x": -5.1015914567,
				"y": 4.6520532937,
				"z": 3.1691891908,
				"element": "H" 
			},
			{
				"x": -5.5105971842,
				"y": 3.0235925161,
				"z": 2.659055305,
				"element": "H" 
			},
			{
				"x": -2.7840408983,
				"y": 3.9016317902,
				"z": 3.75338495,
				"element": "H" 
			},
			{
				"x": -4.0390734209,
				"y": 3.111615088,
				"z": 4.6922292949,
				"element": "H" 
			},
			{
				"x": -2.5479277041,
				"y": 1.860572907,
				"z": 2.322424195,
				"element": "H" 
			},
			{
				"x": -3.9172471553,
				"y": 1.1198752397,
				"z": 3.1310380576,
				"element": "H" 
			},
			{
				"x": -1.8998478979,
				"y": 0.1321555527,
				"z": 4.0126127947,
				"element": "H" 
			},
			{
				"x": -2.6387390889,
				"y": 1.0774953165,
				"z": 5.2870381992,
				"element": "H" 
			},
			{
				"x": -0.3155192132,
				"y": 2.0880572309,
				"z": 3.5533499014,
				"element": "H" 
			},
			{
				"x": -1.0039951435,
				"y": 2.91610668,
				"z": 4.9400587717,
				"element": "H" 
			},
			{
				"x": 1.0453834084,
				"y": 1.8616840086,
				"z": 5.6609524481,
				"element": "H" 
			},
			{
				"x": -0.2977344465,
				"y": 0.9753278172,
				"z": 6.4186204231,
				"element": "H" 
			},
			{
				"x": 2.2022299002,
				"y": -1.887476694,
				"z": 4.0667494826,
				"element": "H" 
			},
			{
				"x": 0.4567373506,
				"y": -1.5785809697,
				"z": 2.3462204973,
				"element": "H" 
			},
			{
				"x": 1.9201841472,
				"y": -2.3022873285,
				"z": 1.6947416493,
				"element": "H" 
			},
			{
				"x": 0.8976022543,
				"y": 0.5424985774,
				"z": 1.2814777544,
				"element": "H" 
			},
			{
				"x": 1.2007946311,
				"y": -0.6955954719,
				"z": 0.0944921507,
				"element": "H" 
			},
			{
				"x": 2.6639746549,
				"y": 1.713064148,
				"z": 2.5011563474,
				"element": "H" 
			},
			{
				"x": 2.4138273031,
				"y": 2.4338721174,
				"z": 0.9105849655,
				"element": "H" 
			},
			{
				"x": 4.0610484378,
				"y": 2.1540117429,
				"z": 1.5001434932,
				"element": "H" 
			},
			{
				"x": 4.1487744924,
				"y": 1.4303066391,
				"z": -0.6223036363,
				"element": "H" 
			},
			{
				"x": 2.1698091245,
				"y": 2.1258839035,
				"z": -1.5477562907,
				"element": "H" 
			},
			{
				"x": 1.3428214267,
				"y": 0.6191725094,
				"z": -1.2795922581,
				"element": "H" 
			},
			{
				"x": 3.3951921006,
				"y": 1.1355547857,
				"z": -3.4755925542,
				"element": "H" 
			},
			{
				"x": 1.6635426798,
				"y": 1.0586204223,
				"z": -3.6773893716,
				"element": "H" 
			},
			{
				"x": 4.2503071406,
				"y": -0.708213397,
				"z": -4.746311222,
				"element": "H" 
			},
			{
				"x": 3.286505858,
				"y": -2.167584146,
				"z": -4.9824601062,
				"element": "H" 
			},
			{
				"x": 2.6707968736,
				"y": -0.5981053716,
				"z": -5.5234829987,
				"element": "H" 
			},
			{
				"x": 0.6545362489,
				"y": -1.1078405744,
				"z": -2.3997903207,
				"element": "H" 
			},
			{
				"x": 0.7985686288,
				"y": -3.5172379902,
				"z": -2.0624748683,
				"element": "H" 
			},
			{
				"x": 2.0483000888,
				"y": -3.6641367266,
				"z": -3.2979469478,
				"element": "H" 
			},
			{
				"x": 3.3302190671,
				"y": -3.4661910004,
				"z": -1.196371223,
				"element": "H" 
			},
			{
				"x": 2.2582204427,
				"y": -2.2031007486,
				"z": -0.6202246576,
				"element": "H" 
			},
			{
				"x": 4.333840439,
				"y": -2.0926188114,
				"z": -2.8111874171,
				"element": "H" 
			},
			{
				"x": 4.8766427865,
				"y": 0.0699849911,
				"z": -2.1723566076,
				"element": "H" 
			},
			{
				"x": 6.321284272,
				"y": -0.5029819036,
				"z": -0.5594064014,
				"element": "H" 
			},
			{
				"x": 5.6977590568,
				"y": -2.0990544275,
				"z": -0.8713076351,
				"element": "H" 
			},
			{
				"x": 5.6586887688,
				"y": -1.8542324302,
				"z": 1.5649161428,
				"element": "H" 
			},
			{
				"x": 4.0531149957,
				"y": 0.1515600219,
				"z": 3.5905920935,
				"element": "H" 
			},
			{
				"x": 4.3980484661,
				"y": -1.5585505065,
				"z": 3.4052846614,
				"element": "H" 
			},
			{
				"x": 0.913825391,
				"y": -2.2601631394,
				"z": -5.2043128431,
				"element": "H" 
			},
			{
				"x": -1.4619276396,
				"y": -2.4285939543,
				"z": -3.2771120177,
				"element": "H" 
			},
			{
				"x": -0.5068186075,
				"y": -3.7731144341,
				"z": -3.9063913255,
				"element": "H" 
			},
			{
				"x": -1.5170040768,
				"y": -2.827343752,
				"z": -4.9995748252,
				"element": "H" 
			},
			{
				"x": -0.7345757791,
				"y": -0.6960690149,
				"z": -5.9331025189,
				"element": "H" 
			},
			{
				"x": 0.635064611,
				"y": 0.1589852987,
				"z": -5.2828882074,
				"element": "H" 
			},
			{
				"x": -0.8737415128,
				"y": 1.4190645266,
				"z": -4.1308998208,
				"element": "H" 
			},
			{
				"x": -1.0604343301,
				"y": 0.06759516,
				"z": -3.0422563104,
				"element": "H" 
			},
			{
				"x": -2.7838663463,
				"y": 0.6303998802,
				"z": -5.5116005215,
				"element": "H" 
			},
			{
				"x": -2.9369388582,
				"y": -0.8071427543,
				"z": -4.5192758273,
				"element": "H" 
			},
			{
				"x": -3.4718370899,
				"y": 0.6166785564,
				"z": -2.5333226147,
				"element": "H" 
			},
			{
				"x": -3.5507234415,
				"y": 2.9295334097,
				"z": -4.5497404946,
				"element": "H" 
			},
			{
				"x": -4.1411795831,
				"y": 3.0043025679,
				"z": -2.8838780822,
				"element": "H" 
			},
			{
				"x": -2.4181341354,
				"y": 2.7806538598,
				"z": -3.1978437428,
				"element": "H" 
			},
			{
				"x": -5.8023111733,
				"y": 1.1432547056,
				"z": -3.2627515908,
				"element": "H" 
			},
			{
				"x": -5.3135291718,
				"y": 1.0066770591,
				"z": -4.9571138292,
				"element": "H" 
			},
			{
				"x": -5.2776635064,
				"y": -0.4193480458,
				"z": -3.9100112186,
				"element": "H" 
			}
		],
		 "valence_orbital": [ 
			{
				"type": "occ",
				"energy": -0.27583,
				"method": "rhf"
			},
			{
				"type": "occ",
				"energy": -0.27398,
				"method": "rhf"
			},
			{
				"type": "occ",
				"energy": -0.26925,
				"method": "rhf"
			},
			{
				"type": "occ",
				"energy": -0.26056,
				"method": "rhf"
			},
			{
				"type": "occ",
				"energy": -0.22655,
				"method": "rhf"
			},
			{
				"type": "unocc",
				"energy": 0.0137,
				"method": "rhf"
			},
			{
				"type": "unocc",
				"energy": 0.03065,
				"method": "rhf"
			},
			{
				"type": "unocc",
				"energy": 0.06367,
				"method": "rhf"
			},
			{
				"type": "unocc",
				"energy": 0.0739,
				"method": "rhf"
			},
			{
				"type": "unocc",
				"energy": 0.07527,
				"method": "rhf"
			}
		],
		"cosmo_sigma_profile": { 
			"-0.025": 0.0,
			"-0.024": 0.0,
			"-0.023": 0.0,
			"-0.022": 0.0,
			"-0.021": 0.0,
			"-0.02": 0.0,
			"-0.019": 0.0,
			"-0.018": 0.0,
			"-0.017": 0.0,
			"-0.016": 0.0,
			"-0.015": 0.0,
			"-0.014": 0.0,
			"-0.013": 0.0,
			"-0.012": 0.0,
			"-0.011": 0.0,
			"-0.01": 0.0,
			"-0.009": 0.0,
			"-0.008": 0.0,
			"-0.007": 0.00222935515144,
			"-0.006": 0.300717943343,
			"-0.005": 3.16310914758,
			"-0.004": 11.6486979193,
			"-0.003": 27.6286305911,
			"-0.002": 99.4938698775,
			"-0.001": 156.451484549,
			"0.0": 142.633621836,
			"0.001": 108.064598646,
			"0.002": 62.3188282966,
			"0.003": 14.4929338844,
			"0.004": 6.40600454439,
			"0.005": 5.47037264293,
			"0.006": 3.70470638165,
			"0.007": 1.63652814376,
			"0.008": 1.39517651546,
			"0.009": 1.39090748508,
			"0.01": 1.54572271629,
			"0.011": 2.06898376204,
			"0.012": 3.94290901122,
			"0.013": 2.12200265203,
			"0.014": 0.239426419098,
			"0.015": 0.0,
			"0.016": 0.0,
			"0.017": 0.0,
			"0.018": 0.0,
			"0.019": 0.0,
			"0.02": 0.0,
			"0.021": 0.0,
			"0.022": 0.0,
			"0.023": 0.0,
			"0.024": 0.0,
			"0.025": 0.0
		}
	}
}
