{
	 "smiles": "CCC1=NC(=NC(NN)=C1)C1=NC=CC=C1", 
	 "Tm": 384.15, 
	 "num_atms": 29, 
	 "gaussian": { 
		 "optdone": 1, 
		 "sigma_profile": "yes", 
		 "theory": "DFT", 
		 "functional": "B3LYP", 
		 "basiset": "6-31G**", 
		 "properties": { 
			 "R2extent": 4410.9143, 
			 "electric_dipole_moment_norm": 1.94871530245, 
			 "electric_quadrupole_moment_norm": 17.13846498, 
			 "total_energy": -700.747820716, 
			 "HOMO_LUMO_gap": 0.17701, 
			 "cosmo_polarized_energy": -17.56, 
			 "cosmo_cavitation_energy": 33.37, 
			 "cosmo_dispersion_energy": -24.01, 
			 "cosmo_repulsion_energy": 1.9, 
			 "cosmo_total_nonelectrostatic_energy": 11.26, 
			 "SMD_solvation_energy": 3.22 
		},
		"coords": [
			{
				"x": 2.0337303132,
				"y": 1.8518916081,
				"z": 3.0412049636,
				"element": "C" 
			},
			{
				"x": 0.7032528053,
				"y": 2.5169964571,
				"z": 2.6537540566,
				"element": "C" 
			},
			{
				"x": -0.0968815439,
				"y": 1.6783995476,
				"z": 1.6846962145,
				"element": "C" 
			},
			{
				"x": 0.4874872526,
				"y": 1.4336185008,
				"z": 0.4913264506,
				"element": "N" 
			},
			{
				"x": -0.1984191456,
				"y": 0.6868132476,
				"z": -0.3708065333,
				"element": "C" 
			},
			{
				"x": -1.4209354263,
				"y": 0.1564327658,
				"z": -0.1693151721,
				"element": "N" 
			},
			{
				"x": -1.9978515999,
				"y": 0.4075748244,
				"z": 1.011198137,
				"element": "C" 
			},
			{
				"x": -3.2549151595,
				"y": -0.1017443118,
				"z": 1.2252877395,
				"element": "N" 
			},
			{
				"x": -3.8429304669,
				"y": -1.051363474,
				"z": 0.3676944835,
				"element": "N" 
			},
			{
				"x": -1.3509652018,
				"y": 1.1805084475,
				"z": 1.9996882221,
				"element": "C" 
			},
			{
				"x": 0.4288060254,
				"y": 0.3957290899,
				"z": -1.7008301281,
				"element": "C" 
			},
			{
				"x": 1.6866469586,
				"y": 0.823327599,
				"z": -1.8984282717,
				"element": "N" 
			},
			{
				"x": 2.2538680603,
				"y": 0.570496148,
				"z": -3.0791792505,
				"element": "C" 
			},
			{
				"x": 1.6173559692,
				"y": -0.1104414596,
				"z": -4.1201838877,
				"element": "C" 
			},
			{
				"x": 0.312279843,
				"y": -0.5527217632,
				"z": -3.9106696823,
				"element": "C" 
			},
			{
				"x": -0.2937320882,
				"y": -0.2983216666,
				"z": -2.6834903152,
				"element": "C" 
			},
			{
				"x": 1.863847137,
				"y": 0.9125503774,
				"z": 3.5781148046,
				"element": "H" 
			},
			{
				"x": 2.6153663919,
				"y": 1.6306671438,
				"z": 2.1429875638,
				"element": "H" 
			},
			{
				"x": 2.6221832933,
				"y": 2.5103954422,
				"z": 3.6876352626,
				"element": "H" 
			},
			{
				"x": 0.1029709922,
				"y": 2.7266597657,
				"z": 3.546188113,
				"element": "H" 
			},
			{
				"x": 0.9132853388,
				"y": 3.4784844327,
				"z": 2.1694287423,
				"element": "H" 
			},
			{
				"x": -3.5874937004,
				"y": -0.1526772227,
				"z": 2.176579611,
				"element": "H" 
			},
			{
				"x": -3.1097965031,
				"y": -1.6847311307,
				"z": 0.0459202612,
				"element": "H" 
			},
			{
				"x": -4.1583043255,
				"y": -0.5571787203,
				"z": -0.4656264748,
				"element": "H" 
			},
			{
				"x": -1.8192047339,
				"y": 1.3795809539,
				"z": 2.9586575961,
				"element": "H" 
			},
			{
				"x": 3.2744717061,
				"y": 0.9302015789,
				"z": -3.2040809222,
				"element": "H" 
			},
			{
				"x": 2.1319485009,
				"y": -0.2850572328,
				"z": -5.0600239876,
				"element": "H" 
			},
			{
				"x": -0.2256311511,
				"y": -1.0861708782,
				"z": -4.6894440951,
				"element": "H" 
			},
			{
				"x": -1.3049395417,
				"y": -0.6197200707,
				"z": -2.4682835015,
				"element": "H" 
			}
		],
		 "valence_orbital": [ 
			{
				"type": "occ",
				"energy": -0.27626,
				"method": "rhf"
			},
			{
				"type": "occ",
				"energy": -0.25235,
				"method": "rhf"
			},
			{
				"type": "occ",
				"energy": -0.24894,
				"method": "rhf"
			},
			{
				"type": "occ",
				"energy": -0.2326,
				"method": "rhf"
			},
			{
				"type": "occ",
				"energy": -0.22559,
				"method": "rhf"
			},
			{
				"type": "unocc",
				"energy": -0.04858,
				"method": "rhf"
			},
			{
				"type": "unocc",
				"energy": -0.0181,
				"method": "rhf"
			},
			{
				"type": "unocc",
				"energy": -0.00387,
				"method": "rhf"
			},
			{
				"type": "unocc",
				"energy": 0.03299,
				"method": "rhf"
			},
			{
				"type": "unocc",
				"energy": 0.07978,
				"method": "rhf"
			}
		],
		"cosmo_sigma_profile": { 
			"-0.025": 0.0,
			"-0.024": 0.0,
			"-0.023": 0.0,
			"-0.022": 0.0,
			"-0.021": 0.0,
			"-0.02": 0.0,
			"-0.019": 0.0,
			"-0.018": 0.0,
			"-0.017": 0.0,
			"-0.016": 0.0,
			"-0.015": 0.112791322731,
			"-0.014": 1.00426749799,
			"-0.013": 1.10371001349,
			"-0.012": 1.88021480425,
			"-0.011": 2.05839896094,
			"-0.01": 2.70086823772,
			"-0.009": 3.93818243133,
			"-0.008": 3.67088743106,
			"-0.007": 8.35611310188,
			"-0.006": 11.588842562,
			"-0.005": 13.9998181955,
			"-0.004": 14.4193676771,
			"-0.003": 16.8899635928,
			"-0.002": 19.8540949725,
			"-0.001": 21.4017051922,
			"0.0": 24.067930686,
			"0.001": 28.6982266837,
			"0.002": 28.1505308383,
			"0.003": 16.7939317148,
			"0.004": 7.63675942458,
			"0.005": 6.94005133386,
			"0.006": 4.48571580555,
			"0.007": 2.95951724973,
			"0.008": 2.34251986662,
			"0.009": 3.22913601927,
			"0.01": 2.55123561114,
			"0.011": 1.94691864556,
			"0.012": 2.13768817225,
			"0.013": 0.813054845756,
			"0.014": 1.13151138036,
			"0.015": 2.37357584139,
			"0.016": 1.51518416647,
			"0.017": 1.08818055122,
			"0.018": 0.560604844134,
			"0.019": 1.19330666314,
			"0.02": 0.519214405673,
			"0.021": 0.599764484672,
			"0.022": 0.351534531581,
			"0.023": 0.0282925466957,
			"0.024": 0.0,
			"0.025": 0.0
		}
	}
}
