{
	 "smiles": "CC(O)C1=CC=C(CN)C=C1", 
	 "Tm": 361.15, 
	 "num_atms": 24, 
	 "gaussian": { 
		 "optdone": 1, 
		 "sigma_profile": "yes", 
		 "theory": "DFT", 
		 "functional": "B3LYP", 
		 "basiset": "6-31G**", 
		 "properties": { 
			 "R2extent": 2373.1403, 
			 "electric_dipole_moment_norm": 0.99986332566, 
			 "electric_quadrupole_moment_norm": 14.3873658082, 
			 "total_energy": -480.764219625, 
			 "HOMO_LUMO_gap": 0.21965, 
			 "cosmo_polarized_energy": -10.78, 
			 "cosmo_cavitation_energy": 27.13, 
			 "cosmo_dispersion_energy": -19.27, 
			 "cosmo_repulsion_energy": 1.58, 
			 "cosmo_total_nonelectrostatic_energy": 9.45, 
			 "SMD_solvation_energy": 3.16 
		},
		"coords": [
			{
				"x": 0.3768160146,
				"y": -2.0871498036,
				"z": 2.4079283958,
				"element": "C" 
			},
			{
				"x": -0.7709183621,
				"y": -1.1163686577,
				"z": 2.1248940736,
				"element": "C" 
			},
			{
				"x": -0.7315181622,
				"y": -0.1434484734,
				"z": 3.1682087797,
				"element": "O" 
			},
			{
				"x": -0.6610186744,
				"y": -0.4834410115,
				"z": 0.7451082831,
				"element": "C" 
			},
			{
				"x": 0.1008391632,
				"y": 0.6753951215,
				"z": 0.5492386644,
				"element": "C" 
			},
			{
				"x": 0.2220564237,
				"y": 1.2389050845,
				"z": -0.720434813,
				"element": "C" 
			},
			{
				"x": -0.4074457327,
				"y": 0.6629804399,
				"z": -1.8325555084,
				"element": "C" 
			},
			{
				"x": -0.2211952045,
				"y": 1.2426028914,
				"z": -3.2240797754,
				"element": "C" 
			},
			{
				"x": 0.929080481,
				"y": 0.7179200634,
				"z": -3.9804797975,
				"element": "N" 
			},
			{
				"x": -1.175314651,
				"y": -0.4917837495,
				"z": -1.629100468,
				"element": "C" 
			},
			{
				"x": -1.302614592,
				"y": -1.0551732659,
				"z": -0.3598107521,
				"element": "C" 
			},
			{
				"x": 1.3346142368,
				"y": -1.5608605083,
				"z": 2.3566192697,
				"element": "H" 
			},
			{
				"x": 0.3858590732,
				"y": -2.8989347538,
				"z": 1.675138402,
				"element": "H" 
			},
			{
				"x": 0.2667421605,
				"y": -2.5135765836,
				"z": 3.4093083829,
				"element": "H" 
			},
			{
				"x": -1.7187979818,
				"y": -1.6787376061,
				"z": 2.1692858982,
				"element": "H" 
			},
			{
				"x": -1.4225103194,
				"y": 0.5076493642,
				"z": 2.9868443976,
				"element": "H" 
			},
			{
				"x": 0.5843485528,
				"y": 1.1367730589,
				"z": 1.4052118285,
				"element": "H" 
			},
			{
				"x": 0.8098697822,
				"y": 2.1456539961,
				"z": -0.8501569341,
				"element": "H" 
			},
			{
				"x": -0.1036079438,
				"y": 2.3303365255,
				"z": -3.1580128187,
				"element": "H" 
			},
			{
				"x": -1.1207025932,
				"y": 1.0602141454,
				"z": -3.8233018374,
				"element": "H" 
			},
			{
				"x": 0.843900099,
				"y": -0.2943072906,
				"z": -4.0553693476,
				"element": "H" 
			},
			{
				"x": 1.7803395128,
				"y": 0.878244028,
				"z": -3.4446529543,
				"element": "H" 
			},
			{
				"x": -1.6911568374,
				"y": -0.9464158605,
				"z": -2.472583977,
				"element": "H" 
			},
			{
				"x": -1.9156644454,
				"y": -1.9438771542,
				"z": -0.223947392,
				"element": "H" 
			}
		],
		 "valence_orbital": [ 
			{
				"type": "occ",
				"energy": -0.32249,
				"method": "rhf"
			},
			{
				"type": "occ",
				"energy": -0.2753,
				"method": "rhf"
			},
			{
				"type": "occ",
				"energy": -0.25183,
				"method": "rhf"
			},
			{
				"type": "occ",
				"energy": -0.24962,
				"method": "rhf"
			},
			{
				"type": "occ",
				"energy": -0.2264,
				"method": "rhf"
			},
			{
				"type": "unocc",
				"energy": -0.00675,
				"method": "rhf"
			},
			{
				"type": "unocc",
				"energy": -0.00476,
				"method": "rhf"
			},
			{
				"type": "unocc",
				"energy": 0.08486,
				"method": "rhf"
			},
			{
				"type": "unocc",
				"energy": 0.08939,
				"method": "rhf"
			},
			{
				"type": "unocc",
				"energy": 0.10759,
				"method": "rhf"
			}
		],
		"cosmo_sigma_profile": { 
			"-0.025": 0.0,
			"-0.024": 0.0,
			"-0.023": 0.0,
			"-0.022": 0.0,
			"-0.021": 0.0,
			"-0.02": 0.0,
			"-0.019": 0.0,
			"-0.018": 0.0,
			"-0.017": 0.0,
			"-0.016": 0.0,
			"-0.015": 0.648310171376,
			"-0.014": 0.963916379128,
			"-0.013": 0.578520302003,
			"-0.012": 1.03349965983,
			"-0.011": 0.546572824315,
			"-0.01": 1.44636927623,
			"-0.009": 2.44416763432,
			"-0.008": 3.11758709788,
			"-0.007": 3.21651979974,
			"-0.006": 4.75561269099,
			"-0.005": 13.1678054108,
			"-0.004": 21.7697336697,
			"-0.003": 22.8862589834,
			"-0.002": 18.4507237996,
			"-0.001": 19.8600274001,
			"0.0": 17.3016957414,
			"0.001": 13.5640210654,
			"0.002": 9.99232725845,
			"0.003": 8.78046038853,
			"0.004": 7.82111519624,
			"0.005": 8.65588808228,
			"0.006": 9.92309872683,
			"0.007": 2.88379374944,
			"0.008": 2.15168694689,
			"0.009": 1.83794824826,
			"0.01": 1.80803075972,
			"0.011": 1.75296874473,
			"0.012": 1.80168297476,
			"0.013": 2.74826264181,
			"0.014": 2.29144793677,
			"0.015": 0.590873828929,
			"0.016": 0.551206839228,
			"0.017": 0.722532299137,
			"0.018": 0.804886526844,
			"0.019": 0.613695040932,
			"0.02": 0.341439007968,
			"0.021": 0.00949105920516,
			"0.022": 0.0,
			"0.023": 0.0,
			"0.024": 0.0,
			"0.025": 0.0
		}
	}
}
