{
	 "smiles": "CC(=O)C1=C(C)C=C(C)N1", 
	 "Tm": 393.15, 
	 "num_atms": 21, 
	 "gaussian": { 
		 "optdone": 1, 
		 "sigma_profile": "yes", 
		 "theory": "DFT", 
		 "functional": "B3LYP", 
		 "basiset": "6-31G**", 
		 "properties": { 
			 "R2extent": 1951.5586, 
			 "electric_dipole_moment_norm": 4.55186229361, 
			 "electric_quadrupole_moment_norm": 12.1397278141, 
			 "total_energy": -441.468681463, 
			 "HOMO_LUMO_gap": 0.17877, 
			 "cosmo_polarized_energy": -12.93, 
			 "cosmo_cavitation_energy": 24.42, 
			 "cosmo_dispersion_energy": -17.66, 
			 "cosmo_repulsion_energy": 1.45, 
			 "cosmo_total_nonelectrostatic_energy": 8.21, 
			 "SMD_solvation_energy": 4.88 
		},
		"coords": [
			{
				"x": 0.7458855529,
				"y": -2.0334549607,
				"z": 2.3326289569,
				"element": "C" 
			},
			{
				"x": 0.3119114796,
				"y": -0.5700893412,
				"z": 2.3857637275,
				"element": "C" 
			},
			{
				"x": -0.1702863689,
				"y": -0.1001165457,
				"z": 3.4140772437,
				"element": "O" 
			},
			{
				"x": 0.485986794,
				"y": 0.2377224431,
				"z": 1.1878649575,
				"element": "C" 
			},
			{
				"x": 0.174374177,
				"y": 1.5849623939,
				"z": 0.9726179122,
				"element": "C" 
			},
			{
				"x": -0.4306908062,
				"y": 2.5296274073,
				"z": 1.9665459398,
				"element": "C" 
			},
			{
				"x": 0.5405153386,
				"y": 1.8805408376,
				"z": -0.3619637468,
				"element": "C" 
			},
			{
				"x": 1.0643713724,
				"y": 0.7333365636,
				"z": -0.9448618326,
				"element": "C" 
			},
			{
				"x": 1.5963860305,
				"y": 0.4972135579,
				"z": -2.3220048735,
				"element": "C" 
			},
			{
				"x": 1.0258290961,
				"y": -0.250710954,
				"z": 0.0007333598,
				"element": "N" 
			},
			{
				"x": 1.8159840369,
				"y": -2.1234039708,
				"z": 2.1086181692,
				"element": "H" 
			},
			{
				"x": 0.547730725,
				"y": -2.4900082085,
				"z": 3.3027773183,
				"element": "H" 
			},
			{
				"x": 0.1947138163,
				"y": -2.5843555667,
				"z": 1.5605454281,
				"element": "H" 
			},
			{
				"x": -1.4015639572,
				"y": 2.1683665676,
				"z": 2.3197415271,
				"element": "H" 
			},
			{
				"x": 0.1960934445,
				"y": 2.624783254,
				"z": 2.8587006753,
				"element": "H" 
			},
			{
				"x": -0.5645758598,
				"y": 3.5210106058,
				"z": 1.5239677321,
				"element": "H" 
			},
			{
				"x": 0.4343469754,
				"y": 2.8374915774,
				"z": -0.8559476853,
				"element": "H" 
			},
			{
				"x": 2.6478140736,
				"y": 0.1840238611,
				"z": -2.3077618177,
				"element": "H" 
			},
			{
				"x": 1.5326073454,
				"y": 1.416028029,
				"z": -2.9090483671,
				"element": "H" 
			},
			{
				"x": 1.0295462267,
				"y": -0.2771746539,
				"z": -2.8538055825,
				"element": "H" 
			},
			{
				"x": 1.3434205075,
				"y": -1.1963928968,
				"z": -0.1414890423,
				"element": "H" 
			}
		],
		 "valence_orbital": [ 
			{
				"type": "occ",
				"energy": -0.34696,
				"method": "rhf"
			},
			{
				"type": "occ",
				"energy": -0.34098,
				"method": "rhf"
			},
			{
				"type": "occ",
				"energy": -0.24118,
				"method": "rhf"
			},
			{
				"type": "occ",
				"energy": -0.23258,
				"method": "rhf"
			},
			{
				"type": "occ",
				"energy": -0.20815,
				"method": "rhf"
			},
			{
				"type": "unocc",
				"energy": -0.02938,
				"method": "rhf"
			},
			{
				"type": "unocc",
				"energy": 0.06045,
				"method": "rhf"
			},
			{
				"type": "unocc",
				"energy": 0.06608,
				"method": "rhf"
			},
			{
				"type": "unocc",
				"energy": 0.10124,
				"method": "rhf"
			},
			{
				"type": "unocc",
				"energy": 0.1074,
				"method": "rhf"
			}
		],
		"cosmo_sigma_profile": { 
			"-0.025": 0.0,
			"-0.024": 0.0,
			"-0.023": 0.0,
			"-0.022": 0.0,
			"-0.021": 0.0,
			"-0.02": 0.0,
			"-0.019": 0.0,
			"-0.018": 0.0,
			"-0.017": 0.0,
			"-0.016": 0.0,
			"-0.015": 0.669988904229,
			"-0.014": 1.12501670558,
			"-0.013": 0.880023958374,
			"-0.012": 1.20568802562,
			"-0.011": 1.35557490837,
			"-0.01": 1.84680444258,
			"-0.009": 2.14746170769,
			"-0.008": 1.50441584159,
			"-0.007": 2.12954513546,
			"-0.006": 4.59266858657,
			"-0.005": 12.3593026171,
			"-0.004": 14.7050871447,
			"-0.003": 18.7387563609,
			"-0.002": 18.2048753612,
			"-0.001": 19.9310833718,
			"0.0": 17.5830298665,
			"0.001": 12.7996231889,
			"0.002": 8.93029854988,
			"0.003": 7.04171312966,
			"0.004": 8.40472505382,
			"0.005": 8.29481769105,
			"0.006": 6.85216504835,
			"0.007": 4.15096094538,
			"0.008": 2.16102282268,
			"0.009": 1.46301378026,
			"0.01": 1.93755474323,
			"0.011": 1.96384043857,
			"0.012": 2.10680855208,
			"0.013": 3.49805787369,
			"0.014": 2.85757137736,
			"0.015": 0.789781749873,
			"0.016": 0.0,
			"0.017": 0.0,
			"0.018": 0.0,
			"0.019": 0.0,
			"0.02": 0.0,
			"0.021": 0.0,
			"0.022": 0.0,
			"0.023": 0.0,
			"0.024": 0.0,
			"0.025": 0.0
		}
	}
}
