{
	 "smiles": "CSC1=C(N=CS1)S(=O)(=O)C1=CC=C(C)C=C1", 
	 "Tm": 443.15, 
	 "num_atms": 28, 
	 "gaussian": { 
		 "optdone": 1, 
		 "sigma_profile": "yes", 
		 "theory": "DFT", 
		 "functional": "B3LYP", 
		 "basiset": "6-31G**", 
		 "properties": { 
			 "R2extent": 6976.936, 
			 "electric_dipole_moment_norm": 5.45462724116, 
			 "electric_quadrupole_moment_norm": 19.0785757333, 
			 "total_energy": -1825.47337722, 
			 "HOMO_LUMO_gap": 0.17663, 
			 "cosmo_polarized_energy": -16.1, 
			 "cosmo_cavitation_energy": 36.62, 
			 "cosmo_dispersion_energy": -26.96, 
			 "cosmo_repulsion_energy": 1.98, 
			 "cosmo_total_nonelectrostatic_energy": 11.63, 
			 "SMD_solvation_energy": 4.79 
		},
		"coords": [
			{
				"x": -2.4002672765,
				"y": -3.7377815787,
				"z": -2.0684746108,
				"element": "C" 
			},
			{
				"x": -3.7951255634,
				"y": -2.560877155,
				"z": -1.862482046,
				"element": "S" 
			},
			{
				"x": -3.3182443567,
				"y": -1.6853420633,
				"z": -0.4059426382,
				"element": "C" 
			},
			{
				"x": -2.437211986,
				"y": -0.6429843228,
				"z": -0.209300525,
				"element": "C" 
			},
			{
				"x": -2.3635285477,
				"y": -0.1100024033,
				"z": 1.0464058396,
				"element": "N" 
			},
			{
				"x": -3.1800465833,
				"y": -0.7295888757,
				"z": 1.8533678273,
				"element": "C" 
			},
			{
				"x": -4.0973074961,
				"y": -2.0126634501,
				"z": 1.1307100925,
				"element": "S" 
			},
			{
				"x": -1.4394961107,
				"y": 0.1330091069,
				"z": -1.5117027253,
				"element": "S" 
			},
			{
				"x": -2.2686371762,
				"y": 1.1656475858,
				"z": -2.1476052561,
				"element": "O" 
			},
			{
				"x": -0.8358991007,
				"y": -0.9483490504,
				"z": -2.3097491527,
				"element": "O" 
			},
			{
				"x": -0.1193888876,
				"y": 0.9479979609,
				"z": -0.6144005883,
				"element": "C" 
			},
			{
				"x": 1.0820372808,
				"y": 0.2701261923,
				"z": -0.4085295301,
				"element": "C" 
			},
			{
				"x": 2.1196323833,
				"y": 0.9220992809,
				"z": 0.2555235878,
				"element": "C" 
			},
			{
				"x": 1.9732684987,
				"y": 2.2401221543,
				"z": 0.7100075811,
				"element": "C" 
			},
			{
				"x": 3.1120764651,
				"y": 2.9515635373,
				"z": 1.3998813244,
				"element": "C" 
			},
			{
				"x": 0.7538346073,
				"y": 2.8970208443,
				"z": 0.4829879681,
				"element": "C" 
			},
			{
				"x": -0.29393607,
				"y": 2.2621293158,
				"z": -0.1774926306,
				"element": "C" 
			},
			{
				"x": -1.4806190885,
				"y": -3.1823453741,
				"z": -2.2487029572,
				"element": "H" 
			},
			{
				"x": -2.3140757127,
				"y": -4.392556133,
				"z": -1.1994834062,
				"element": "H" 
			},
			{
				"x": -2.6550887993,
				"y": -4.3344005319,
				"z": -2.9477109557,
				"element": "H" 
			},
			{
				"x": -3.2984193069,
				"y": -0.4709439501,
				"z": 2.8994057221,
				"element": "H" 
			},
			{
				"x": 1.2012341418,
				"y": -0.7427943626,
				"z": -0.7771207342,
				"element": "H" 
			},
			{
				"x": 3.0595613623,
				"y": 0.4014432545,
				"z": 0.4182654774,
				"element": "H" 
			},
			{
				"x": 2.7479229501,
				"y": 3.6244998346,
				"z": 2.1820249452,
				"element": "H" 
			},
			{
				"x": 3.8100705991,
				"y": 2.243755452,
				"z": 1.8555439257,
				"element": "H" 
			},
			{
				"x": 3.6813352691,
				"y": 3.5608435736,
				"z": 0.6869264225,
				"element": "H" 
			},
			{
				"x": 0.625742863,
				"y": 3.9200731389,
				"z": 0.8267343834,
				"element": "H" 
			},
			{
				"x": -1.2317243583,
				"y": 2.7732980189,
				"z": -0.3637873407,
				"element": "H" 
			}
		],
		 "valence_orbital": [ 
			{
				"type": "occ",
				"energy": -0.29071,
				"method": "rhf"
			},
			{
				"type": "occ",
				"energy": -0.26703,
				"method": "rhf"
			},
			{
				"type": "occ",
				"energy": -0.26495,
				"method": "rhf"
			},
			{
				"type": "occ",
				"energy": -0.25759,
				"method": "rhf"
			},
			{
				"type": "occ",
				"energy": -0.23799,
				"method": "rhf"
			},
			{
				"type": "unocc",
				"energy": -0.06136,
				"method": "rhf"
			},
			{
				"type": "unocc",
				"energy": -0.03619,
				"method": "rhf"
			},
			{
				"type": "unocc",
				"energy": -0.01542,
				"method": "rhf"
			},
			{
				"type": "unocc",
				"energy": -0.00594,
				"method": "rhf"
			},
			{
				"type": "unocc",
				"energy": 0.00158,
				"method": "rhf"
			}
		],
		"cosmo_sigma_profile": { 
			"-0.025": 0.0,
			"-0.024": 0.0,
			"-0.023": 0.0,
			"-0.022": 0.0,
			"-0.021": 0.0,
			"-0.02": 0.0,
			"-0.019": 0.0,
			"-0.018": 0.0,
			"-0.017": 0.0,
			"-0.016": 0.0,
			"-0.015": 0.0,
			"-0.014": 0.0,
			"-0.013": 0.0,
			"-0.012": 0.0621707871393,
			"-0.011": 2.36054578378,
			"-0.01": 2.44211772105,
			"-0.009": 1.52041367213,
			"-0.008": 2.73985010565,
			"-0.007": 6.82734984863,
			"-0.006": 13.8072324063,
			"-0.005": 20.548698091,
			"-0.004": 20.9169147356,
			"-0.003": 21.1891162221,
			"-0.002": 32.2279787093,
			"-0.001": 34.0343475371,
			"0.0": 24.5188470614,
			"0.001": 18.5468686578,
			"0.002": 16.0061426063,
			"0.003": 17.6732280098,
			"0.004": 11.0750028865,
			"0.005": 8.83485981322,
			"0.006": 6.47841672274,
			"0.007": 5.91429209565,
			"0.008": 6.23423372944,
			"0.009": 5.95173196763,
			"0.01": 6.68206769405,
			"0.011": 8.41913442175,
			"0.012": 2.58100145487,
			"0.013": 0.0,
			"0.014": 0.0,
			"0.015": 0.0,
			"0.016": 0.0,
			"0.017": 0.0,
			"0.018": 0.0,
			"0.019": 0.0,
			"0.02": 0.0,
			"0.021": 0.0,
			"0.022": 0.0,
			"0.023": 0.0,
			"0.024": 0.0,
			"0.025": 0.0
		}
	}
}
