{
	 "smiles": "OC(=O)C1=C(O)C=CC(F)=C1F", 
	 "Tm": 456.15, 
	 "num_atms": 16, 
	 "gaussian": { 
		 "optdone": 1, 
		 "sigma_profile": "yes", 
		 "theory": "DFT", 
		 "functional": "B3LYP", 
		 "basiset": "6-31G**", 
		 "properties": { 
			 "R2extent": 2151.6367, 
			 "electric_dipole_moment_norm": 2.84834849343, 
			 "electric_quadrupole_moment_norm": 6.61519209245, 
			 "total_energy": -694.505423416, 
			 "HOMO_LUMO_gap": 0.17004, 
			 "cosmo_polarized_energy": -9.28, 
			 "cosmo_cavitation_energy": 21.39, 
			 "cosmo_dispersion_energy": -16.34, 
			 "cosmo_repulsion_energy": 1.24, 
			 "cosmo_total_nonelectrostatic_energy": 6.28, 
			 "SMD_solvation_energy": 6.07 
		},
		"coords": [
			{
				"x": 1.4924871512,
				"y": -0.7290360581,
				"z": -1.9414671757,
				"element": "O" 
			},
			{
				"x": 0.9304869003,
				"y": 0.3260715448,
				"z": -1.3423267839,
				"element": "C" 
			},
			{
				"x": 1.5137958528,
				"y": 1.4061997604,
				"z": -1.3770129699,
				"element": "O" 
			},
			{
				"x": -0.3760825997,
				"y": 0.1725108623,
				"z": -0.653683528,
				"element": "C" 
			},
			{
				"x": -0.9509613819,
				"y": 1.3159994558,
				"z": -0.0246609508,
				"element": "C" 
			},
			{
				"x": -0.3537801655,
				"y": 2.5093529769,
				"z": -0.0371137487,
				"element": "O" 
			},
			{
				"x": -2.1876561146,
				"y": 1.2028498783,
				"z": 0.6357745689,
				"element": "C" 
			},
			{
				"x": -2.8571439284,
				"y": -0.0099970976,
				"z": 0.6832192363,
				"element": "C" 
			},
			{
				"x": -2.308185254,
				"y": -1.1371391521,
				"z": 0.0730552386,
				"element": "C" 
			},
			{
				"x": -2.9430699972,
				"y": -2.3219070358,
				"z": 0.108739422,
				"element": "F" 
			},
			{
				"x": -1.0935724699,
				"y": -1.0337944105,
				"z": -0.5776523842,
				"element": "C" 
			},
			{
				"x": -0.5955478343,
				"y": -2.161433447,
				"z": -1.1594229322,
				"element": "F" 
			},
			{
				"x": 0.934483194,
				"y": -1.5175605312,
				"z": -1.8425464947,
				"element": "H" 
			},
			{
				"x": 0.4961234706,
				"y": 2.3985741635,
				"z": -0.5419415084,
				"element": "H" 
			},
			{
				"x": -2.5983491047,
				"y": 2.0897100101,
				"z": 1.1039665628,
				"element": "H" 
			},
			{
				"x": -3.8113277187,
				"y": -0.1072009197,
				"z": 1.190073448,
				"element": "H" 
			}
		],
		 "valence_orbital": [ 
			{
				"type": "occ",
				"energy": -0.34746,
				"method": "rhf"
			},
			{
				"type": "occ",
				"energy": -0.33606,
				"method": "rhf"
			},
			{
				"type": "occ",
				"energy": -0.30101,
				"method": "rhf"
			},
			{
				"type": "occ",
				"energy": -0.28901,
				"method": "rhf"
			},
			{
				"type": "occ",
				"energy": -0.24122,
				"method": "rhf"
			},
			{
				"type": "unocc",
				"energy": -0.07118,
				"method": "rhf"
			},
			{
				"type": "unocc",
				"energy": -0.01178,
				"method": "rhf"
			},
			{
				"type": "unocc",
				"energy": 0.03284,
				"method": "rhf"
			},
			{
				"type": "unocc",
				"energy": 0.03814,
				"method": "rhf"
			},
			{
				"type": "unocc",
				"energy": 0.10149,
				"method": "rhf"
			}
		],
		"cosmo_sigma_profile": { 
			"-0.025": 0.0,
			"-0.024": 0.0,
			"-0.023": 0.0,
			"-0.022": 0.0,
			"-0.021": 0.0,
			"-0.02": 0.0,
			"-0.019": 0.0,
			"-0.018": 0.0,
			"-0.017": 0.0,
			"-0.016": 0.0,
			"-0.015": 0.0347626155254,
			"-0.014": 0.627060250334,
			"-0.013": 0.552924119706,
			"-0.012": 1.00664004421,
			"-0.011": 2.0851856411,
			"-0.01": 1.54904337332,
			"-0.009": 3.09164087215,
			"-0.008": 4.52879585945,
			"-0.007": 5.59721587305,
			"-0.006": 6.74541802316,
			"-0.005": 6.95438020351,
			"-0.004": 9.8376434283,
			"-0.003": 10.8226234237,
			"-0.002": 13.3699567755,
			"-0.001": 17.3986927273,
			"0.0": 12.6981782042,
			"0.001": 12.8224369959,
			"0.002": 11.674010761,
			"0.003": 13.6773646492,
			"0.004": 7.97190153892,
			"0.005": 3.27665605291,
			"0.006": 4.00803185651,
			"0.007": 3.73315441082,
			"0.008": 3.97601599772,
			"0.009": 5.77447089306,
			"0.01": 5.25656260571,
			"0.011": 2.82513999472,
			"0.012": 1.23599779429,
			"0.013": 0.00140375468529,
			"0.014": 0.0,
			"0.015": 0.0,
			"0.016": 0.0,
			"0.017": 0.0,
			"0.018": 0.0,
			"0.019": 0.0,
			"0.02": 0.0,
			"0.021": 0.0,
			"0.022": 0.0,
			"0.023": 0.0,
			"0.024": 0.0,
			"0.025": 0.0
		}
	}
}
