{
	 "smiles": "CC1CCN(CC(O)CN)CC1", 
	 "Tm": 337.15, 
	 "num_atms": 32, 
	 "gaussian": { 
		 "optdone": 1, 
		 "sigma_profile": "yes", 
		 "theory": "DFT", 
		 "functional": "B3LYP", 
		 "basiset": "6-31G**", 
		 "properties": { 
			 "R2extent": 3520.3873, 
			 "electric_dipole_moment_norm": 2.56537177618, 
			 "electric_quadrupole_moment_norm": 11.8154341901, 
			 "total_energy": -539.725160471, 
			 "HOMO_LUMO_gap": 0.27076, 
			 "cosmo_polarized_energy": -8.93, 
			 "cosmo_cavitation_energy": 31.25, 
			 "cosmo_dispersion_energy": -22.6, 
			 "cosmo_repulsion_energy": 1.83, 
			 "cosmo_total_nonelectrostatic_energy": 10.48, 
			 "SMD_solvation_energy": 2.49 
		},
		"coords": [
			{
				"x": -4.6389670995,
				"y": 0.6920717682,
				"z": -1.8896351051,
				"element": "C" 
			},
			{
				"x": -3.2490356063,
				"y": 0.1422908713,
				"z": -2.2329815117,
				"element": "C" 
			},
			{
				"x": -2.1673328077,
				"y": 1.2585830701,
				"z": -2.269761785,
				"element": "C" 
			},
			{
				"x": -1.363214414,
				"y": 1.280063064,
				"z": -0.9618120801,
				"element": "C" 
			},
			{
				"x": -0.6165300836,
				"y": 0.0323986566,
				"z": -0.7124866894,
				"element": "N" 
			},
			{
				"x": 0.7860478378,
				"y": 0.0743622404,
				"z": -1.1209675574,
				"element": "C" 
			},
			{
				"x": 1.6614456743,
				"y": -0.9372360611,
				"z": -0.374139806,
				"element": "C" 
			},
			{
				"x": 2.9741585069,
				"y": -0.8175993517,
				"z": -0.8943032314,
				"element": "O" 
			},
			{
				"x": 1.686912073,
				"y": -0.6994707262,
				"z": 1.141013601,
				"element": "C" 
			},
			{
				"x": 2.7243894135,
				"y": -1.5681047255,
				"z": 1.7255064597,
				"element": "N" 
			},
			{
				"x": -1.3102676035,
				"y": -1.1633052658,
				"z": -1.2208449289,
				"element": "C" 
			},
			{
				"x": -2.826833154,
				"y": -0.9636176373,
				"z": -1.2364073773,
				"element": "C" 
			},
			{
				"x": -4.6282529562,
				"y": 1.2093447173,
				"z": -0.9222045322,
				"element": "H" 
			},
			{
				"x": -5.3816765816,
				"y": -0.1113560758,
				"z": -1.8249767797,
				"element": "H" 
			},
			{
				"x": -4.9825756029,
				"y": 1.4067875024,
				"z": -2.6454348193,
				"element": "H" 
			},
			{
				"x": -3.3024005906,
				"y": -0.3109344103,
				"z": -3.2319668798,
				"element": "H" 
			},
			{
				"x": -2.6316697803,
				"y": 2.2374127668,
				"z": -2.4421844178,
				"element": "H" 
			},
			{
				"x": -1.4779783669,
				"y": 1.0909819826,
				"z": -3.1060643747,
				"element": "H" 
			},
			{
				"x": -0.6526100146,
				"y": 2.1117821013,
				"z": -0.959524796,
				"element": "H" 
			},
			{
				"x": -2.0495507288,
				"y": 1.4639359595,
				"z": -0.1225192675,
				"element": "H" 
			},
			{
				"x": 1.1909514018,
				"y": 1.0690541307,
				"z": -0.9051903795,
				"element": "H" 
			},
			{
				"x": 0.9236954164,
				"y": -0.1008368395,
				"z": -2.2053202415,
				"element": "H" 
			},
			{
				"x": 1.277240226,
				"y": -1.9592090049,
				"z": -0.5541918537,
				"element": "H" 
			},
			{
				"x": 3.5374139172,
				"y": -1.1859749232,
				"z": -0.1898511479,
				"element": "H" 
			},
			{
				"x": 1.9852642557,
				"y": 0.3402711979,
				"z": 1.3204562711,
				"element": "H" 
			},
			{
				"x": 0.6814301813,
				"y": -0.8338307468,
				"z": 1.5618838312,
				"element": "H" 
			},
			{
				"x": 2.9784351747,
				"y": -1.251824265,
				"z": 2.6564080644,
				"element": "H" 
			},
			{
				"x": 2.3744213238,
				"y": -2.5183201695,
				"z": 1.8255020605,
				"element": "H" 
			},
			{
				"x": -0.9731664277,
				"y": -1.4115800434,
				"z": -2.2472496743,
				"element": "H" 
			},
			{
				"x": -1.0527643012,
				"y": -2.028274763,
				"z": -0.5971918354,
				"element": "H" 
			},
			{
				"x": -3.1586194265,
				"y": -0.7021164493,
				"z": -0.2229589173,
				"element": "H" 
			},
			{
				"x": -3.3202598567,
				"y": -1.9089485709,
				"z": -1.4885002989,
				"element": "H" 
			}
		],
		 "valence_orbital": [ 
			{
				"type": "occ",
				"energy": -0.30483,
				"method": "rhf"
			},
			{
				"type": "occ",
				"energy": -0.30172,
				"method": "rhf"
			},
			{
				"type": "occ",
				"energy": -0.25767,
				"method": "rhf"
			},
			{
				"type": "occ",
				"energy": -0.23916,
				"method": "rhf"
			},
			{
				"type": "occ",
				"energy": -0.19565,
				"method": "rhf"
			},
			{
				"type": "unocc",
				"energy": 0.07511,
				"method": "rhf"
			},
			{
				"type": "unocc",
				"energy": 0.0779,
				"method": "rhf"
			},
			{
				"type": "unocc",
				"energy": 0.10458,
				"method": "rhf"
			},
			{
				"type": "unocc",
				"energy": 0.10996,
				"method": "rhf"
			},
			{
				"type": "unocc",
				"energy": 0.11366,
				"method": "rhf"
			}
		],
		"cosmo_sigma_profile": { 
			"-0.025": 0.0,
			"-0.024": 0.0,
			"-0.023": 0.0,
			"-0.022": 0.0,
			"-0.021": 0.0,
			"-0.02": 0.0,
			"-0.019": 0.0,
			"-0.018": 0.0,
			"-0.017": 0.0,
			"-0.016": 0.0,
			"-0.015": 0.0,
			"-0.014": 0.0,
			"-0.013": 0.0,
			"-0.012": 0.0,
			"-0.011": 0.363341864671,
			"-0.01": 2.26911794125,
			"-0.009": 3.08524957268,
			"-0.008": 2.98807444762,
			"-0.007": 3.46349997461,
			"-0.006": 3.1680561639,
			"-0.005": 2.87197283298,
			"-0.004": 7.14639759393,
			"-0.003": 16.9781179001,
			"-0.002": 36.8404496949,
			"-0.001": 48.9658759868,
			"0.0": 38.7581144896,
			"0.001": 24.4138565203,
			"0.002": 10.1971977245,
			"0.003": 5.58022693493,
			"0.004": 3.41450255193,
			"0.005": 3.53910675444,
			"0.006": 3.39652603451,
			"0.007": 2.42278979408,
			"0.008": 2.98487493472,
			"0.009": 2.60394574622,
			"0.01": 2.81193272267,
			"0.011": 2.03352974094,
			"0.012": 2.08492813714,
			"0.013": 2.09029370935,
			"0.014": 1.62721021941,
			"0.015": 1.96973812103,
			"0.016": 0.449647057796,
			"0.017": 0.0,
			"0.018": 0.0,
			"0.019": 0.0,
			"0.02": 0.0,
			"0.021": 0.0,
			"0.022": 0.0,
			"0.023": 0.0,
			"0.024": 0.0,
			"0.025": 0.0
		}
	}
}
