{
	 "smiles": "NC1=CC=CC=C1C=O", 
	 "Tm": 311.65, 
	 "num_atms": 16, 
	 "gaussian": { 
		 "optdone": 1, 
		 "sigma_profile": "yes", 
		 "theory": "DFT", 
		 "functional": "B3LYP", 
		 "basiset": "6-31G**", 
		 "properties": { 
			 "R2extent": 1561.6117, 
			 "electric_dipole_moment_norm": 4.19275609116, 
			 "electric_quadrupole_moment_norm": 12.7296857322, 
			 "total_energy": -400.931421896, 
			 "HOMO_LUMO_gap": 0.16141, 
			 "cosmo_polarized_energy": -12.52, 
			 "cosmo_cavitation_energy": 20.0, 
			 "cosmo_dispersion_energy": -14.98, 
			 "cosmo_repulsion_energy": 1.22, 
			 "cosmo_total_nonelectrostatic_energy": 6.25, 
			 "SMD_solvation_energy": 4.47 
		},
		"coords": [
			{
				"x": -0.0107503502,
				"y": -0.5406369001,
				"z": -1.2473701795,
				"element": "N" 
			},
			{
				"x": -0.1129805626,
				"y": -0.4697182367,
				"z": 0.1350214133,
				"element": "C" 
			},
			{
				"x": -1.2633015248,
				"y": 0.1096463492,
				"z": 0.7081605043,
				"element": "C" 
			},
			{
				"x": -1.4230760865,
				"y": 0.1693562748,
				"z": 2.0853141629,
				"element": "C" 
			},
			{
				"x": -0.4415291383,
				"y": -0.3417315555,
				"z": 2.9474533672,
				"element": "C" 
			},
			{
				"x": 0.6910428111,
				"y": -0.9192510168,
				"z": 2.3980008901,
				"element": "C" 
			},
			{
				"x": 0.8751903976,
				"y": -1.0033136358,
				"z": 1.0047181086,
				"element": "C" 
			},
			{
				"x": 2.0891176506,
				"y": -1.6720061008,
				"z": 0.5081800382,
				"element": "C" 
			},
			{
				"x": 2.9824712924,
				"y": -2.1043900187,
				"z": 1.2181451804,
				"element": "O" 
			},
			{
				"x": 0.9125081859,
				"y": -0.5787838702,
				"z": -1.6500223125,
				"element": "H" 
			},
			{
				"x": -0.635614423,
				"y": 0.0641365414,
				"z": -1.7603127141,
				"element": "H" 
			},
			{
				"x": -2.0302379302,
				"y": 0.516129405,
				"z": 0.0531216534,
				"element": "H" 
			},
			{
				"x": -2.3206574968,
				"y": 0.6256366085,
				"z": 2.4939610626,
				"element": "H" 
			},
			{
				"x": -0.5706086703,
				"y": -0.2877346474,
				"z": 4.0234500659,
				"element": "H" 
			},
			{
				"x": 1.4755232176,
				"y": -1.3348954964,
				"z": 3.0226261981,
				"element": "H" 
			},
			{
				"x": 2.1667026274,
				"y": -1.7940437003,
				"z": -0.5947474388,
				"element": "H" 
			}
		],
		 "valence_orbital": [ 
			{
				"type": "occ",
				"energy": -0.35208,
				"method": "rhf"
			},
			{
				"type": "occ",
				"energy": -0.32102,
				"method": "rhf"
			},
			{
				"type": "occ",
				"energy": -0.25661,
				"method": "rhf"
			},
			{
				"type": "occ",
				"energy": -0.2471,
				"method": "rhf"
			},
			{
				"type": "occ",
				"energy": -0.21715,
				"method": "rhf"
			},
			{
				"type": "unocc",
				"energy": -0.05574,
				"method": "rhf"
			},
			{
				"type": "unocc",
				"energy": 0.00461,
				"method": "rhf"
			},
			{
				"type": "unocc",
				"energy": 0.04603,
				"method": "rhf"
			},
			{
				"type": "unocc",
				"energy": 0.06481,
				"method": "rhf"
			},
			{
				"type": "unocc",
				"energy": 0.09086,
				"method": "rhf"
			}
		],
		"cosmo_sigma_profile": { 
			"-0.025": 0.0,
			"-0.024": 0.0,
			"-0.023": 0.0,
			"-0.022": 0.0,
			"-0.021": 0.0,
			"-0.02": 0.0,
			"-0.019": 0.0,
			"-0.018": 0.0,
			"-0.017": 0.0,
			"-0.016": 0.0,
			"-0.015": 0.0,
			"-0.014": 0.667228121391,
			"-0.013": 2.78141218677,
			"-0.012": 3.5047587365,
			"-0.011": 3.11105140877,
			"-0.01": 2.435051018,
			"-0.009": 3.37590664828,
			"-0.008": 3.15436790139,
			"-0.007": 3.11375509956,
			"-0.006": 6.86649954823,
			"-0.005": 9.18900738047,
			"-0.004": 10.8598257497,
			"-0.003": 9.44767588431,
			"-0.002": 8.34346512772,
			"-0.001": 7.59337998002,
			"0.0": 7.89890005234,
			"0.001": 9.39062291632,
			"0.002": 8.58451398964,
			"0.003": 10.8064543411,
			"0.004": 13.3955342712,
			"0.005": 10.8628282973,
			"0.006": 3.81384470996,
			"0.007": 2.24107789857,
			"0.008": 1.97584141974,
			"0.009": 2.3567856333,
			"0.01": 2.82569536801,
			"0.011": 3.53137472367,
			"0.012": 5.28493298004,
			"0.013": 2.01734147503,
			"0.014": 0.373972834711,
			"0.015": 0.0,
			"0.016": 0.0,
			"0.017": 0.0,
			"0.018": 0.0,
			"0.019": 0.0,
			"0.02": 0.0,
			"0.021": 0.0,
			"0.022": 0.0,
			"0.023": 0.0,
			"0.024": 0.0,
			"0.025": 0.0
		}
	}
}
