{
	 "smiles": "FC1=CC=C(CC(=O)N2CCNCC2)C=C1", 
	 "Tm": 339.15, 
	 "num_atms": 31, 
	 "gaussian": { 
		 "optdone": 1, 
		 "sigma_profile": "yes", 
		 "theory": "DFT", 
		 "functional": "B3LYP", 
		 "basiset": "6-31G**", 
		 "properties": { 
			 "R2extent": 4898.2994, 
			 "electric_dipole_moment_norm": 3.86824276643, 
			 "electric_quadrupole_moment_norm": 8.72577473924, 
			 "total_energy": -750.878396134, 
			 "HOMO_LUMO_gap": 0.21054, 
			 "cosmo_polarized_energy": -13.6, 
			 "cosmo_cavitation_energy": 33.28, 
			 "cosmo_dispersion_energy": -23.78, 
			 "cosmo_repulsion_energy": 1.84, 
			 "cosmo_total_nonelectrostatic_energy": 11.34, 
			 "SMD_solvation_energy": 2.98 
		},
		"coords": [
			{
				"x": 1.6304580591,
				"y": -1.3077487455,
				"z": 5.2712274219,
				"element": "F" 
			},
			{
				"x": 1.724240469,
				"y": -1.217430845,
				"z": 3.92706742,
				"element": "C" 
			},
			{
				"x": 1.1065783832,
				"y": -2.1839485315,
				"z": 3.1395732708,
				"element": "C" 
			},
			{
				"x": 1.2062115487,
				"y": -2.0863277328,
				"z": 1.7532223898,
				"element": "C" 
			},
			{
				"x": 1.9149813912,
				"y": -1.03379076,
				"z": 1.1529824379,
				"element": "C" 
			},
			{
				"x": 2.0346203647,
				"y": -0.9519190998,
				"z": -0.3616789157,
				"element": "C" 
			},
			{
				"x": 0.6814303629,
				"y": -1.1164393617,
				"z": -1.0613407058,
				"element": "C" 
			},
			{
				"x": 0.2841166083,
				"y": -2.2375988724,
				"z": -1.3774126363,
				"element": "O" 
			},
			{
				"x": -0.0603834919,
				"y": 0.0113947345,
				"z": -1.289792712,
				"element": "N" 
			},
			{
				"x": 0.3381813891,
				"y": 1.3640225665,
				"z": -0.8753706838,
				"element": "C" 
			},
			{
				"x": -0.8900312884,
				"y": 2.2847357365,
				"z": -0.9184382877,
				"element": "C" 
			},
			{
				"x": -1.5616194444,
				"y": 2.3317850339,
				"z": -2.2184797728,
				"element": "N" 
			},
			{
				"x": -1.5618938582,
				"y": 1.0453041862,
				"z": -2.9422028796,
				"element": "C" 
			},
			{
				"x": -1.3460964791,
				"y": -0.1253828277,
				"z": -1.986447085,
				"element": "C" 
			},
			{
				"x": 2.52293952,
				"y": -0.0791529293,
				"z": 1.9776947934,
				"element": "C" 
			},
			{
				"x": 2.4341769004,
				"y": -0.1625603702,
				"z": 3.3691463057,
				"element": "C" 
			},
			{
				"x": 0.5616602422,
				"y": -2.9929372216,
				"z": 3.6143243564,
				"element": "H" 
			},
			{
				"x": 0.7279822215,
				"y": -2.8279975046,
				"z": 1.1205937292,
				"element": "H" 
			},
			{
				"x": 2.5360204782,
				"y": -0.022474848,
				"z": -0.6458779065,
				"element": "H" 
			},
			{
				"x": 2.6449002776,
				"y": -1.7814352229,
				"z": -0.7318409533,
				"element": "H" 
			},
			{
				"x": 1.1203459286,
				"y": 1.763001853,
				"z": -1.5396862445,
				"element": "H" 
			},
			{
				"x": 0.7424401476,
				"y": 1.3416845783,
				"z": 0.1418933999,
				"element": "H" 
			},
			{
				"x": -0.5901198555,
				"y": 3.2995773603,
				"z": -0.6404198697,
				"element": "H" 
			},
			{
				"x": -1.6003444069,
				"y": 1.9511800836,
				"z": -0.1508882792,
				"element": "H" 
			},
			{
				"x": -1.1412994167,
				"y": 3.0497228063,
				"z": -2.7980924776,
				"element": "H" 
			},
			{
				"x": -0.7762803922,
				"y": 1.0052910379,
				"z": -3.7128632713,
				"element": "H" 
			},
			{
				"x": -2.5219266111,
				"y": 0.9088090808,
				"z": -3.4570888464,
				"element": "H" 
			},
			{
				"x": -1.3239057804,
				"y": -1.0724224474,
				"z": -2.526227037,
				"element": "H" 
			},
			{
				"x": -2.1712173226,
				"y": -0.1831823692,
				"z": -1.2635301596,
				"element": "H" 
			},
			{
				"x": 3.0835532154,
				"y": 0.7385401605,
				"z": 1.5314186689,
				"element": "H" 
			},
			{
				"x": 2.9036808394,
				"y": 0.5712004711,
				"z": 4.01543453,
				"element": "H" 
			}
		],
		 "valence_orbital": [ 
			{
				"type": "occ",
				"energy": -0.26026,
				"method": "rhf"
			},
			{
				"type": "occ",
				"energy": -0.25082,
				"method": "rhf"
			},
			{
				"type": "occ",
				"energy": -0.23672,
				"method": "rhf"
			},
			{
				"type": "occ",
				"energy": -0.23397,
				"method": "rhf"
			},
			{
				"type": "occ",
				"energy": -0.2235,
				"method": "rhf"
			},
			{
				"type": "unocc",
				"energy": -0.01296,
				"method": "rhf"
			},
			{
				"type": "unocc",
				"energy": -0.0023,
				"method": "rhf"
			},
			{
				"type": "unocc",
				"energy": 0.02863,
				"method": "rhf"
			},
			{
				"type": "unocc",
				"energy": 0.06524,
				"method": "rhf"
			},
			{
				"type": "unocc",
				"energy": 0.08908,
				"method": "rhf"
			}
		],
		"cosmo_sigma_profile": { 
			"-0.025": 0.0,
			"-0.024": 0.0,
			"-0.023": 0.0,
			"-0.022": 0.0,
			"-0.021": 0.0,
			"-0.02": 0.0,
			"-0.019": 0.0,
			"-0.018": 0.0,
			"-0.017": 0.0,
			"-0.016": 0.0,
			"-0.015": 0.0,
			"-0.014": 0.0,
			"-0.013": 0.0,
			"-0.012": 0.0,
			"-0.011": 0.071543930402,
			"-0.01": 1.34212691195,
			"-0.009": 1.4061675059,
			"-0.008": 1.74718854134,
			"-0.007": 4.93529569106,
			"-0.006": 11.6084320225,
			"-0.005": 17.9429162947,
			"-0.004": 29.3460771357,
			"-0.003": 32.4514396981,
			"-0.002": 24.6251173259,
			"-0.001": 17.4364017016,
			"0.0": 15.3899139719,
			"0.001": 17.3423803505,
			"0.002": 15.8917218475,
			"0.003": 13.7909154935,
			"0.004": 20.9556583341,
			"0.005": 9.90204604559,
			"0.006": 2.41239829823,
			"0.007": 2.3044219732,
			"0.008": 2.20389984441,
			"0.009": 2.56487112742,
			"0.01": 0.925705655432,
			"0.011": 1.78650397092,
			"0.012": 2.24133122323,
			"0.013": 2.79884153154,
			"0.014": 4.83018601687,
			"0.015": 2.41222024011,
			"0.016": 0.490697619639,
			"0.017": 0.521858269365,
			"0.018": 0.388627107547,
			"0.019": 0.00390029272945,
			"0.02": 0.0,
			"0.021": 0.0,
			"0.022": 0.0,
			"0.023": 0.0,
			"0.024": 0.0,
			"0.025": 0.0
		}
	}
}
