{
	 "smiles": "CNC(C)C1=CC=C(C=C1)N1C=NC2=C1C=CC=C2", 
	 "Tm": 336.15, 
	 "num_atms": 36, 
	 "gaussian": { 
		 "optdone": 1, 
		 "sigma_profile": "yes", 
		 "theory": "DFT", 
		 "functional": "B3LYP", 
		 "basiset": "6-31G**", 
		 "properties": { 
			 "R2extent": 7384.3746, 
			 "electric_dipole_moment_norm": 5.05898513736, 
			 "electric_quadrupole_moment_norm": 12.8069586999, 
			 "total_energy": -784.207487805, 
			 "HOMO_LUMO_gap": 0.19221, 
			 "cosmo_polarized_energy": -12.04, 
			 "cosmo_cavitation_energy": 38.44, 
			 "cosmo_dispersion_energy": -27.48, 
			 "cosmo_repulsion_energy": 2.08, 
			 "cosmo_total_nonelectrostatic_energy": 13.04, 
			 "SMD_solvation_energy": 3.6 
		},
		"coords": [
			{
				"x": -4.442676649,
				"y": 0.5884493938,
				"z": -2.376456623,
				"element": "C" 
			},
			{
				"x": -3.7950692748,
				"y": 1.7605103869,
				"z": -1.7898708175,
				"element": "N" 
			},
			{
				"x": -2.3779421854,
				"y": 1.9599288749,
				"z": -2.1392353914,
				"element": "C" 
			},
			{
				"x": -2.0994395927,
				"y": 2.08182902,
				"z": -3.6490404755,
				"element": "C" 
			},
			{
				"x": -1.5184088949,
				"y": 0.9122836204,
				"z": -1.426209325,
				"element": "C" 
			},
			{
				"x": -0.4362787681,
				"y": 0.2656656524,
				"z": -2.0346584872,
				"element": "C" 
			},
			{
				"x": 0.3436724008,
				"y": -0.6582786152,
				"z": -1.3369240352,
				"element": "C" 
			},
			{
				"x": 0.0610933391,
				"y": -0.9397873301,
				"z": 0.0020137293,
				"element": "C" 
			},
			{
				"x": -1.0137995531,
				"y": -0.2964346069,
				"z": 0.6290926259,
				"element": "C" 
			},
			{
				"x": -1.7950976277,
				"y": 0.6066979926,
				"z": -0.0842036263,
				"element": "C" 
			},
			{
				"x": 0.8387485048,
				"y": -1.8855596287,
				"z": 0.7222072075,
				"element": "N" 
			},
			{
				"x": 0.3446562848,
				"y": -2.8958730902,
				"z": 1.5325391637,
				"element": "C" 
			},
			{
				"x": 1.2631513823,
				"y": -3.6468326116,
				"z": 2.0772943961,
				"element": "N" 
			},
			{
				"x": 2.4638148931,
				"y": -3.1194373858,
				"z": 1.6181378924,
				"element": "C" 
			},
			{
				"x": 2.2269690616,
				"y": -2.0154444467,
				"z": 0.7633061124,
				"element": "C" 
			},
			{
				"x": 3.2673489625,
				"y": -1.2796971352,
				"z": 0.1893597751,
				"element": "C" 
			},
			{
				"x": 4.5646440154,
				"y": -1.6950696876,
				"z": 0.4792831496,
				"element": "C" 
			},
			{
				"x": 4.8170736536,
				"y": -2.8010367874,
				"z": 1.3158495298,
				"element": "C" 
			},
			{
				"x": 3.7769937525,
				"y": -3.5199962903,
				"z": 1.8950501895,
				"element": "C" 
			},
			{
				"x": -5.473038965,
				"y": 0.5346918751,
				"z": -2.0119172064,
				"element": "H" 
			},
			{
				"x": -3.9264184818,
				"y": -0.3166740372,
				"z": -2.0421533002,
				"element": "H" 
			},
			{
				"x": -4.4730464574,
				"y": 0.5699531663,
				"z": -3.478336519,
				"element": "H" 
			},
			{
				"x": -4.3133101825,
				"y": 2.5976045815,
				"z": -2.0416658439,
				"element": "H" 
			},
			{
				"x": -2.1156369724,
				"y": 2.9299532621,
				"z": -1.6913887268,
				"element": "H" 
			},
			{
				"x": -2.2580292544,
				"y": 1.1374019388,
				"z": -4.1786272808,
				"element": "H" 
			},
			{
				"x": -1.072744019,
				"y": 2.408387937,
				"z": -3.842097385,
				"element": "H" 
			},
			{
				"x": -2.7682670574,
				"y": 2.8304441802,
				"z": -4.0866568031,
				"element": "H" 
			},
			{
				"x": -0.1931255832,
				"y": 0.4638027876,
				"z": -3.0728122604,
				"element": "H" 
			},
			{
				"x": 1.1561518657,
				"y": -1.1754821922,
				"z": -1.8360913971,
				"element": "H" 
			},
			{
				"x": -1.2215992804,
				"y": -0.4943009046,
				"z": 1.6762027584,
				"element": "H" 
			},
			{
				"x": -2.6390520462,
				"y": 1.0927730967,
				"z": 0.3939305667,
				"element": "H" 
			},
			{
				"x": -0.7233238461,
				"y": -3.0265477087,
				"z": 1.6512192558,
				"element": "H" 
			},
			{
				"x": 3.0792584997,
				"y": -0.4205565572,
				"z": -0.4453942993,
				"element": "H" 
			},
			{
				"x": 5.4015863531,
				"y": -1.1507818109,
				"z": 0.0516352188,
				"element": "H" 
			},
			{
				"x": 5.844982619,
				"y": -3.0906513462,
				"z": 1.5132070586,
				"element": "H" 
			},
			{
				"x": 3.9606591035,
				"y": -4.3662355935,
				"z": 2.5491111737,
				"element": "H" 
			}
		],
		 "valence_orbital": [ 
			{
				"type": "occ",
				"energy": -0.26147,
				"method": "rhf"
			},
			{
				"type": "occ",
				"energy": -0.25305,
				"method": "rhf"
			},
			{
				"type": "occ",
				"energy": -0.22696,
				"method": "rhf"
			},
			{
				"type": "occ",
				"energy": -0.22285,
				"method": "rhf"
			},
			{
				"type": "occ",
				"energy": -0.21408,
				"method": "rhf"
			},
			{
				"type": "unocc",
				"energy": -0.02187,
				"method": "rhf"
			},
			{
				"type": "unocc",
				"energy": -0.01371,
				"method": "rhf"
			},
			{
				"type": "unocc",
				"energy": -0.00861,
				"method": "rhf"
			},
			{
				"type": "unocc",
				"energy": 0.02863,
				"method": "rhf"
			},
			{
				"type": "unocc",
				"energy": 0.05728,
				"method": "rhf"
			}
		],
		"cosmo_sigma_profile": { 
			"-0.025": 0.0,
			"-0.024": 0.0,
			"-0.023": 0.0,
			"-0.022": 0.0,
			"-0.021": 0.0,
			"-0.02": 0.0,
			"-0.019": 0.0,
			"-0.018": 0.0,
			"-0.017": 0.0,
			"-0.016": 0.0,
			"-0.015": 0.0,
			"-0.014": 0.0,
			"-0.013": 0.0,
			"-0.012": 0.0,
			"-0.011": 0.0,
			"-0.01": 0.866735844586,
			"-0.009": 2.7253867349,
			"-0.008": 3.62570351465,
			"-0.007": 5.00619451746,
			"-0.006": 10.6688535209,
			"-0.005": 18.2270906144,
			"-0.004": 25.7837909654,
			"-0.003": 28.2710664254,
			"-0.002": 28.8921216726,
			"-0.001": 30.2148939181,
			"0.0": 30.3674231579,
			"0.001": 22.4572516968,
			"0.002": 17.7794469587,
			"0.003": 16.2214696073,
			"0.004": 22.0761182317,
			"0.005": 15.5209364714,
			"0.006": 7.81144105269,
			"0.007": 2.28630219649,
			"0.008": 2.94947325138,
			"0.009": 2.00711449576,
			"0.01": 2.40469693764,
			"0.011": 1.45446197296,
			"0.012": 1.22943617175,
			"0.013": 1.4976408264,
			"0.014": 1.96199158197,
			"0.015": 1.12377905373,
			"0.016": 1.00553855619,
			"0.017": 0.678748668973,
			"0.018": 0.184919393006,
			"0.019": 0.0,
			"0.02": 0.0,
			"0.021": 0.0,
			"0.022": 0.0,
			"0.023": 0.0,
			"0.024": 0.0,
			"0.025": 0.0
		}
	}
}
