{
	 "smiles": "COC(=O)C1=C(N)C(I)=CC(F)=C1", 
	 "Tm": 326.15, 
	 "num_atms": 20, 
	 "gaussian": { 
		 "optdone": 1, 
		 "sigma_profile": "yes", 
		 "theory": "DFT", 
		 "functional": "B3LYP", 
		 "basiset": "6-31G**", 
		 "properties": { 
			 "R2extent": 3220.1302, 
			 "electric_dipole_moment_norm": 3.61012732601, 
			 "electric_quadrupole_moment_norm": 7.11739435398, 
			 "total_energy": -625.500515092, 
			 "HOMO_LUMO_gap": 0.15709, 
			 "cosmo_polarized_energy": -8.99, 
			 "cosmo_cavitation_energy": 27.77, 
			 "cosmo_dispersion_energy": -21.92, 
			 "cosmo_repulsion_energy": 1.67, 
			 "cosmo_total_nonelectrostatic_energy": 7.51, 
			 "SMD_solvation_energy": 5.8 
		},
		"coords": [
			{
				"x": -2.8092181397,
				"y": 1.9128536094,
				"z": -1.4179039904,
				"element": "C" 
			},
			{
				"x": -1.4937460756,
				"y": 1.7844561345,
				"z": -0.847693836,
				"element": "O" 
			},
			{
				"x": -1.40544701,
				"y": 0.9368426298,
				"z": 0.2164583489,
				"element": "C" 
			},
			{
				"x": -2.3797169611,
				"y": 0.3398145443,
				"z": 0.6309356004,
				"element": "O" 
			},
			{
				"x": -0.0398409723,
				"y": 0.8083224395,
				"z": 0.7959487851,
				"element": "C" 
			},
			{
				"x": 1.118607873,
				"y": 1.5283325411,
				"z": 0.3660164015,
				"element": "C" 
			},
			{
				"x": 1.0773323663,
				"y": 2.4824454869,
				"z": -0.6115018931,
				"element": "N" 
			},
			{
				"x": 2.3317762621,
				"y": 1.2317455227,
				"z": 1.0457001942,
				"element": "C" 
			},
			{
				"x": 4.1340184052,
				"y": 2.2182580564,
				"z": 0.4946169936,
				"element": "I" 
			},
			{
				"x": 2.4070720226,
				"y": 0.3065149751,
				"z": 2.0772831962,
				"element": "C" 
			},
			{
				"x": 1.2500555307,
				"y": -0.3609691851,
				"z": 2.4701468951,
				"element": "C" 
			},
			{
				"x": 1.3258868229,
				"y": -1.2583881313,
				"z": 3.476929142,
				"element": "F" 
			},
			{
				"x": 0.0456785788,
				"y": -0.1214177395,
				"z": 1.8464667732,
				"element": "C" 
			},
			{
				"x": -3.1617739971,
				"y": 0.9467643972,
				"z": -1.7855133859,
				"element": "H" 
			},
			{
				"x": -3.5131470304,
				"y": 2.2864384011,
				"z": -0.6713400835,
				"element": "H" 
			},
			{
				"x": -2.70452302,
				"y": 2.6227393054,
				"z": -2.2382400882,
				"element": "H" 
			},
			{
				"x": 0.243834078,
				"y": 2.5398184898,
				"z": -1.1742741735,
				"element": "H" 
			},
			{
				"x": 1.9483218954,
				"y": 2.7965897806,
				"z": -1.0094088518,
				"element": "H" 
			},
			{
				"x": 3.3429401803,
				"y": 0.0957676788,
				"z": 2.5805488783,
				"element": "H" 
			},
			{
				"x": -0.8518108093,
				"y": -0.6459289367,
				"z": 2.1503250936,
				"element": "H" 
			}
		],
		 "valence_orbital": [ 
			{
				"type": "occ",
				"energy": -0.30066,
				"method": "rhf"
			},
			{
				"type": "occ",
				"energy": -0.28684,
				"method": "rhf"
			},
			{
				"type": "occ",
				"energy": -0.27958,
				"method": "rhf"
			},
			{
				"type": "occ",
				"energy": -0.25509,
				"method": "rhf"
			},
			{
				"type": "occ",
				"energy": -0.21257,
				"method": "rhf"
			},
			{
				"type": "unocc",
				"energy": -0.05548,
				"method": "rhf"
			},
			{
				"type": "unocc",
				"energy": -0.04767,
				"method": "rhf"
			},
			{
				"type": "unocc",
				"energy": -0.00051,
				"method": "rhf"
			},
			{
				"type": "unocc",
				"energy": 0.03438,
				"method": "rhf"
			},
			{
				"type": "unocc",
				"energy": 0.04236,
				"method": "rhf"
			}
		],
		"cosmo_sigma_profile": { 
			"-0.025": 0.0,
			"-0.024": 0.0,
			"-0.023": 0.0,
			"-0.022": 0.0,
			"-0.021": 0.0,
			"-0.02": 0.0,
			"-0.019": 0.0,
			"-0.018": 0.0,
			"-0.017": 0.0,
			"-0.016": 0.0,
			"-0.015": 0.0,
			"-0.014": 0.0,
			"-0.013": 0.0,
			"-0.012": 0.22771527856,
			"-0.011": 0.954513680715,
			"-0.01": 1.88521250347,
			"-0.009": 1.71910679893,
			"-0.008": 3.56109879528,
			"-0.007": 5.01220494974,
			"-0.006": 11.8435313881,
			"-0.005": 13.7317020784,
			"-0.004": 14.0765851599,
			"-0.003": 15.5671062586,
			"-0.002": 14.9453409519,
			"-0.001": 13.6306844645,
			"0.0": 18.0955349973,
			"0.001": 27.5808807497,
			"0.002": 26.6123807609,
			"0.003": 15.793765441,
			"0.004": 18.206040777,
			"0.005": 6.89692533651,
			"0.006": 2.28500544522,
			"0.007": 2.34355737782,
			"0.008": 1.86831698217,
			"0.009": 2.1082626651,
			"0.01": 2.11928180376,
			"0.011": 3.29162684054,
			"0.012": 3.20667031387,
			"0.013": 0.0174245620693,
			"0.014": 0.0,
			"0.015": 0.0,
			"0.016": 0.0,
			"0.017": 0.0,
			"0.018": 0.0,
			"0.019": 0.0,
			"0.02": 0.0,
			"0.021": 0.0,
			"0.022": 0.0,
			"0.023": 0.0,
			"0.024": 0.0,
			"0.025": 0.0
		}
	}
}
