{
	 "smiles": "CC1=CC2=CC=CC=C2C1O", 
	 "Tm": 360.15, 
	 "num_atms": 21, 
	 "gaussian": { 
		 "optdone": 1, 
		 "sigma_profile": "yes", 
		 "theory": "DFT", 
		 "functional": "B3LYP", 
		 "basiset": "6-31G**", 
		 "properties": { 
			 "R2extent": 1883.0695, 
			 "electric_dipole_moment_norm": 1.14355259171, 
			 "electric_quadrupole_moment_norm": 4.27979100307, 
			 "total_energy": -462.298640559, 
			 "HOMO_LUMO_gap": 0.18088, 
			 "cosmo_polarized_energy": -7.04, 
			 "cosmo_cavitation_energy": 24.28, 
			 "cosmo_dispersion_energy": -17.76, 
			 "cosmo_repulsion_energy": 1.43, 
			 "cosmo_total_nonelectrostatic_energy": 7.94, 
			 "SMD_solvation_energy": 3.97 
		},
		"coords": [
			{
				"x": -1.091706694,
				"y": -2.8173592179,
				"z": -2.584577924,
				"element": "C" 
			},
			{
				"x": -0.7511865835,
				"y": -1.9273053335,
				"z": -1.4347562825,
				"element": "C" 
			},
			{
				"x": -1.5524935651,
				"y": -1.4595730385,
				"z": -0.4565365208,
				"element": "C" 
			},
			{
				"x": -0.7962721657,
				"y": -0.5846449559,
				"z": 0.4540226696,
				"element": "C" 
			},
			{
				"x": -1.1854641426,
				"y": 0.1319448242,
				"z": 1.5839200998,
				"element": "C" 
			},
			{
				"x": -0.2324706035,
				"y": 0.9283820389,
				"z": 2.2340527776,
				"element": "C" 
			},
			{
				"x": 1.0807678287,
				"y": 1.004799806,
				"z": 1.7647654813,
				"element": "C" 
			},
			{
				"x": 1.4758097487,
				"y": 0.2717921677,
				"z": 0.6338244137,
				"element": "C" 
			},
			{
				"x": 0.5350279006,
				"y": -0.5191318305,
				"z": -0.0051700927,
				"element": "C" 
			},
			{
				"x": 0.6749620476,
				"y": -1.412491372,
				"z": -1.2256370168,
				"element": "C" 
			},
			{
				"x": 1.2593051117,
				"y": -0.7981602137,
				"z": -2.3716713237,
				"element": "O" 
			},
			{
				"x": -0.7408514519,
				"y": -2.3762240852,
				"z": -3.5250948745,
				"element": "H" 
			},
			{
				"x": -0.5925830733,
				"y": -3.7916146256,
				"z": -2.4957102625,
				"element": "H" 
			},
			{
				"x": -2.168361914,
				"y": -2.9936150864,
				"z": -2.6571946112,
				"element": "H" 
			},
			{
				"x": -2.6097785687,
				"y": -1.6810647741,
				"z": -0.345983118,
				"element": "H" 
			},
			{
				"x": -2.2061488298,
				"y": 0.0829035256,
				"z": 1.9539069506,
				"element": "H" 
			},
			{
				"x": -0.5211784988,
				"y": 1.4974643616,
				"z": 3.1134863896,
				"element": "H" 
			},
			{
				"x": 1.80138985,
				"y": 1.6339652614,
				"z": 2.2792091765,
				"element": "H" 
			},
			{
				"x": 2.496496221,
				"y": 0.328001545,
				"z": 0.2647532098,
				"element": "H" 
			},
			{
				"x": 1.3373852278,
				"y": -2.2612890646,
				"z": -1.0022828255,
				"element": "H" 
			},
			{
				"x": 0.7632521549,
				"y": 0.0157200673,
				"z": -2.5376263163,
				"element": "H" 
			}
		],
		 "valence_orbital": [ 
			{
				"type": "occ",
				"energy": -0.31834,
				"method": "rhf"
			},
			{
				"type": "occ",
				"energy": -0.29157,
				"method": "rhf"
			},
			{
				"type": "occ",
				"energy": -0.27324,
				"method": "rhf"
			},
			{
				"type": "occ",
				"energy": -0.24456,
				"method": "rhf"
			},
			{
				"type": "occ",
				"energy": -0.21032,
				"method": "rhf"
			},
			{
				"type": "unocc",
				"energy": -0.02944,
				"method": "rhf"
			},
			{
				"type": "unocc",
				"energy": -0.00072,
				"method": "rhf"
			},
			{
				"type": "unocc",
				"energy": 0.05353,
				"method": "rhf"
			},
			{
				"type": "unocc",
				"energy": 0.09599,
				"method": "rhf"
			},
			{
				"type": "unocc",
				"energy": 0.10476,
				"method": "rhf"
			}
		],
		"cosmo_sigma_profile": { 
			"-0.025": 0.0,
			"-0.024": 0.0,
			"-0.023": 0.0,
			"-0.022": 0.0,
			"-0.021": 0.0,
			"-0.02": 0.0,
			"-0.019": 0.0,
			"-0.018": 0.0,
			"-0.017": 0.0,
			"-0.016": 0.144184660888,
			"-0.015": 0.857947449583,
			"-0.014": 0.823599998278,
			"-0.013": 0.613920886853,
			"-0.012": 0.588543456104,
			"-0.011": 0.988885931135,
			"-0.01": 0.765465696381,
			"-0.009": 0.93580735429,
			"-0.008": 0.535588037577,
			"-0.007": 0.911086276225,
			"-0.006": 3.88975005106,
			"-0.005": 13.1218182663,
			"-0.004": 19.1131095418,
			"-0.003": 19.0215759868,
			"-0.002": 16.5050338438,
			"-0.001": 15.9702352678,
			"0.0": 17.5454267379,
			"0.001": 13.0478411415,
			"0.002": 10.1271234635,
			"0.003": 11.8958157507,
			"0.004": 12.9071993613,
			"0.005": 11.4934996361,
			"0.006": 9.05355794759,
			"0.007": 2.79994877407,
			"0.008": 1.22759209227,
			"0.009": 1.28415832862,
			"0.01": 0.768292038481,
			"0.011": 1.27880911102,
			"0.012": 1.16770397269,
			"0.013": 1.94474235657,
			"0.014": 1.20110064768,
			"0.015": 0.0,
			"0.016": 0.0,
			"0.017": 0.0,
			"0.018": 0.0,
			"0.019": 0.0,
			"0.02": 0.0,
			"0.021": 0.0,
			"0.022": 0.0,
			"0.023": 0.0,
			"0.024": 0.0,
			"0.025": 0.0
		}
	}
}
