{
	 "smiles": "CN1N=NN=C1S(C)(=O)=O", 
	 "Tm": 338.15, 
	 "num_atms": 16, 
	 "gaussian": { 
		 "optdone": 1, 
		 "sigma_profile": "yes", 
		 "theory": "DFT", 
		 "functional": "B3LYP", 
		 "basiset": "6-31G**", 
		 "properties": { 
			 "R2extent": 1761.2938, 
			 "electric_dipole_moment_norm": 2.00808487121, 
			 "electric_quadrupole_moment_norm": 23.180579851, 
			 "total_energy": -885.439688676, 
			 "HOMO_LUMO_gap": 0.25835, 
			 "cosmo_polarized_energy": -15.97, 
			 "cosmo_cavitation_energy": 22.01, 
			 "cosmo_dispersion_energy": -16.61, 
			 "cosmo_repulsion_energy": 1.29, 
			 "cosmo_total_nonelectrostatic_energy": 6.69, 
			 "SMD_solvation_energy": 2.12 
		},
		"coords": [
			{
				"x": 2.3078819059,
				"y": -0.1806554174,
				"z": 0.2506652684,
				"element": "C" 
			},
			{
				"x": 1.3873740682,
				"y": -1.2488302328,
				"z": 0.6312723588,
				"element": "N" 
			},
			{
				"x": 1.8338333612,
				"y": -2.4684715517,
				"z": 1.0047455968,
				"element": "N" 
			},
			{
				"x": 0.791822052,
				"y": -3.1940739587,
				"z": 1.2587248285,
				"element": "N" 
			},
			{
				"x": -0.3521238791,
				"y": -2.489072235,
				"z": 1.0559117416,
				"element": "N" 
			},
			{
				"x": 0.0405799638,
				"y": -1.2915671953,
				"z": 0.6714009184,
				"element": "C" 
			},
			{
				"x": -1.050633209,
				"y": 0.0668262455,
				"z": 0.2270014896,
				"element": "S" 
			},
			{
				"x": -2.5882269822,
				"y": -0.4360094007,
				"z": 1.0095029953,
				"element": "C" 
			},
			{
				"x": -1.2175937766,
				"y": 0.0517493988,
				"z": -1.2291879145,
				"element": "O" 
			},
			{
				"x": -0.5185005255,
				"y": 1.2609019168,
				"z": 0.8994461653,
				"element": "O" 
			},
			{
				"x": 1.9423209856,
				"y": 0.7625446315,
				"z": 0.6570063924,
				"element": "H" 
			},
			{
				"x": 3.283024629,
				"y": -0.431865914,
				"z": 0.6656058919,
				"element": "H" 
			},
			{
				"x": 2.3715022869,
				"y": -0.1140231433,
				"z": -0.8380810814,
				"element": "H" 
			},
			{
				"x": -3.3254924072,
				"y": 0.3066277617,
				"z": 0.6975169863,
				"element": "H" 
			},
			{
				"x": -2.855414897,
				"y": -1.4308621429,
				"z": 0.6536076638,
				"element": "H" 
			},
			{
				"x": -2.4563535761,
				"y": -0.4266187626,
				"z": 2.0914606988,
				"element": "H" 
			}
		],
		 "valence_orbital": [ 
			{
				"type": "occ",
				"energy": -0.33101,
				"method": "rhf"
			},
			{
				"type": "occ",
				"energy": -0.3261,
				"method": "rhf"
			},
			{
				"type": "occ",
				"energy": -0.31955,
				"method": "rhf"
			},
			{
				"type": "occ",
				"energy": -0.31174,
				"method": "rhf"
			},
			{
				"type": "occ",
				"energy": -0.30747,
				"method": "rhf"
			},
			{
				"type": "unocc",
				"energy": -0.04912,
				"method": "rhf"
			},
			{
				"type": "unocc",
				"energy": -0.01353,
				"method": "rhf"
			},
			{
				"type": "unocc",
				"energy": 0.02337,
				"method": "rhf"
			},
			{
				"type": "unocc",
				"energy": 0.04922,
				"method": "rhf"
			},
			{
				"type": "unocc",
				"energy": 0.06073,
				"method": "rhf"
			}
		],
		"cosmo_sigma_profile": { 
			"-0.025": 0.0,
			"-0.024": 0.0,
			"-0.023": 0.0,
			"-0.022": 0.0,
			"-0.021": 0.0,
			"-0.02": 0.0,
			"-0.019": 0.0,
			"-0.018": 0.0,
			"-0.017": 0.0,
			"-0.016": 0.0,
			"-0.015": 0.0,
			"-0.014": 0.0,
			"-0.013": 0.0,
			"-0.012": 0.0483449638648,
			"-0.011": 1.2759774416,
			"-0.01": 3.90581262215,
			"-0.009": 7.17554017782,
			"-0.008": 10.7933885785,
			"-0.007": 12.4196373693,
			"-0.006": 16.6837132364,
			"-0.005": 18.060464377,
			"-0.004": 8.39539247325,
			"-0.003": 5.72470027663,
			"-0.002": 5.26277981621,
			"-0.001": 4.68148646013,
			"0.0": 3.91164884211,
			"0.001": 5.08045101624,
			"0.002": 4.58901808202,
			"0.003": 3.7366414648,
			"0.004": 6.01857211798,
			"0.005": 4.29693106051,
			"0.006": 6.19524260668,
			"0.007": 7.90108582898,
			"0.008": 7.88199716957,
			"0.009": 11.8047596242,
			"0.01": 14.5241505562,
			"0.011": 4.06401286765,
			"0.012": 1.54935344075,
			"0.013": 0.295491900542,
			"0.014": 0.0,
			"0.015": 0.0,
			"0.016": 0.0,
			"0.017": 0.0,
			"0.018": 0.0,
			"0.019": 0.0,
			"0.02": 0.0,
			"0.021": 0.0,
			"0.022": 0.0,
			"0.023": 0.0,
			"0.024": 0.0,
			"0.025": 0.0
		}
	}
}
