{
	 "smiles": "CNS(=O)(=O)C1=CC(C(=O)NCC2CCCN2CC=C)=C(OC)C=C1N", 
	 "Tm": 442.15, 
	 "num_atms": 52, 
	 "gaussian": { 
		 "optdone": 1, 
		 "sigma_profile": "yes", 
		 "theory": "DFT", 
		 "functional": "B3LYP", 
		 "basiset": "6-31G**", 
		 "properties": { 
			 "R2extent": 15455.2305, 
			 "electric_dipole_moment_norm": 9.19812866892, 
			 "electric_quadrupole_moment_norm": 36.2845019766, 
			 "total_energy": -1581.48198496, 
			 "HOMO_LUMO_gap": 0.1637, 
			 "cosmo_polarized_energy": -29.32, 
			 "cosmo_cavitation_energy": 53.87, 
			 "cosmo_dispersion_energy": -37.31, 
			 "cosmo_repulsion_energy": 2.82, 
			 "cosmo_total_nonelectrostatic_energy": 19.38, 
			 "SMD_solvation_energy": 7.21 
		},
		"coords": [
			{
				"x": -5.4731883941,
				"y": 0.1820761326,
				"z": 2.4419830072,
				"element": "C" 
			},
			{
				"x": -6.193278597,
				"y": 0.0179301375,
				"z": 1.1751427678,
				"element": "N" 
			},
			{
				"x": -5.4874404681,
				"y": 0.6438992569,
				"z": -0.2169813487,
				"element": "S" 
			},
			{
				"x": -6.4362979438,
				"y": 0.3188738528,
				"z": -1.2963336285,
				"element": "O" 
			},
			{
				"x": -5.1097446865,
				"y": 2.0216177761,
				"z": 0.0848136218,
				"element": "O" 
			},
			{
				"x": -3.9949499807,
				"y": -0.2969097695,
				"z": -0.5102017222,
				"element": "C" 
			},
			{
				"x": -2.7709565472,
				"y": 0.2683591508,
				"z": -0.1682530012,
				"element": "C" 
			},
			{
				"x": -1.5590142766,
				"y": -0.4127945705,
				"z": -0.3012449862,
				"element": "C" 
			},
			{
				"x": -0.3385409569,
				"y": 0.3643593848,
				"z": 0.1301049321,
				"element": "C" 
			},
			{
				"x": -0.4665363739,
				"y": 1.4983938274,
				"z": 0.598901015,
				"element": "O" 
			},
			{
				"x": 0.880435446,
				"y": -0.2249640015,
				"z": -0.0162611838,
				"element": "N" 
			},
			{
				"x": 2.1125401044,
				"y": 0.4327101707,
				"z": 0.3917748991,
				"element": "C" 
			},
			{
				"x": 2.9055302367,
				"y": 1.0345829748,
				"z": -0.7984220731,
				"element": "C" 
			},
			{
				"x": 2.1753533116,
				"y": 2.2096466519,
				"z": -1.4682014105,
				"element": "C" 
			},
			{
				"x": 2.5504671955,
				"y": 3.4224173578,
				"z": -0.586750895,
				"element": "C" 
			},
			{
				"x": 3.8746642758,
				"y": 3.0116526068,
				"z": 0.1048503711,
				"element": "C" 
			},
			{
				"x": 4.1761146123,
				"y": 1.671009707,
				"z": -0.4188024064,
				"element": "N" 
			},
			{
				"x": 5.1558544329,
				"y": 0.9158762957,
				"z": 0.3389090913,
				"element": "C" 
			},
			{
				"x": 5.8258263836,
				"y": -0.1982135717,
				"z": -0.4325812789,
				"element": "C" 
			},
			{
				"x": 5.8496649682,
				"y": -0.3181298526,
				"z": -1.7597825544,
				"element": "C" 
			},
			{
				"x": -1.6209081354,
				"y": -1.7354254581,
				"z": -0.8093142374,
				"element": "C" 
			},
			{
				"x": -0.4432171863,
				"y": -2.4157899627,
				"z": -0.9468523814,
				"element": "O" 
			},
			{
				"x": -0.4483368757,
				"y": -3.7453489461,
				"z": -1.4560512155,
				"element": "C" 
			},
			{
				"x": -2.8415230755,
				"y": -2.3133098427,
				"z": -1.1613048627,
				"element": "C" 
			},
			{
				"x": -4.0547450717,
				"y": -1.6165633042,
				"z": -1.023527106,
				"element": "C" 
			},
			{
				"x": -5.2532197372,
				"y": -2.2283741969,
				"z": -1.3311214195,
				"element": "N" 
			},
			{
				"x": -6.1326199432,
				"y": -0.1461545752,
				"z": 3.2490098044,
				"element": "H" 
			},
			{
				"x": -5.2566715526,
				"y": 1.2418283046,
				"z": 2.5821318448,
				"element": "H" 
			},
			{
				"x": -4.5344195968,
				"y": -0.3861538126,
				"z": 2.4924971912,
				"element": "H" 
			},
			{
				"x": -6.521484042,
				"y": -0.9273716344,
				"z": 0.9928336211,
				"element": "H" 
			},
			{
				"x": -2.7304037702,
				"y": 1.2822887546,
				"z": 0.2141150083,
				"element": "H" 
			},
			{
				"x": 0.915587369,
				"y": -1.1506800573,
				"z": -0.4157170414,
				"element": "H" 
			},
			{
				"x": 2.7326462719,
				"y": -0.305357286,
				"z": 0.9127267437,
				"element": "H" 
			},
			{
				"x": 1.8401136556,
				"y": 1.2113777545,
				"z": 1.1073420131,
				"element": "H" 
			},
			{
				"x": 3.1045230705,
				"y": 0.2253778846,
				"z": -1.5110537965,
				"element": "H" 
			},
			{
				"x": 2.5662601636,
				"y": 2.3354052753,
				"z": -2.4829084694,
				"element": "H" 
			},
			{
				"x": 1.0960984225,
				"y": 2.0615672142,
				"z": -1.5312104834,
				"element": "H" 
			},
			{
				"x": 1.7676918323,
				"y": 3.6043892645,
				"z": 0.1541686291,
				"element": "H" 
			},
			{
				"x": 2.6606320867,
				"y": 4.336451075,
				"z": -1.1764174201,
				"element": "H" 
			},
			{
				"x": 4.7063735663,
				"y": 3.6897351607,
				"z": -0.1250711563,
				"element": "H" 
			},
			{
				"x": 3.7543218423,
				"y": 3.0172727398,
				"z": 1.2029710719,
				"element": "H" 
			},
			{
				"x": 5.9382078602,
				"y": 1.6220788165,
				"z": 0.6550523042,
				"element": "H" 
			},
			{
				"x": 4.7550781501,
				"y": 0.5043875102,
				"z": 1.2865020365,
				"element": "H" 
			},
			{
				"x": 6.3468419212,
				"y": -0.9319485976,
				"z": 0.1832845452,
				"element": "H" 
			},
			{
				"x": 5.3537586333,
				"y": 0.4092895393,
				"z": -2.3950687376,
				"element": "H" 
			},
			{
				"x": 6.3757316566,
				"y": -1.1346143832,
				"z": -2.2455735435,
				"element": "H" 
			},
			{
				"x": -1.0280069652,
				"y": -4.4163064514,
				"z": -0.8119366255,
				"element": "H" 
			},
			{
				"x": 0.5944750557,
				"y": -4.0641437489,
				"z": -1.4640995206,
				"element": "H" 
			},
			{
				"x": -0.8460237086,
				"y": -3.7799185339,
				"z": -2.4767388744,
				"element": "H" 
			},
			{
				"x": -2.8763145667,
				"y": -3.3204266235,
				"z": -1.5591463715,
				"element": "H" 
			},
			{
				"x": -5.9930466664,
				"y": -1.5961560675,
				"z": -1.6245602475,
				"element": "H" 
			},
			{
				"x": -5.1849034063,
				"y": -3.0767993293,
				"z": -1.8746245202,
				"element": "H" 
			}
		],
		 "valence_orbital": [ 
			{
				"type": "occ",
				"energy": -0.25042,
				"method": "rhf"
			},
			{
				"type": "occ",
				"energy": -0.24862,
				"method": "rhf"
			},
			{
				"type": "occ",
				"energy": -0.24391,
				"method": "rhf"
			},
			{
				"type": "occ",
				"energy": -0.22556,
				"method": "rhf"
			},
			{
				"type": "occ",
				"energy": -0.19602,
				"method": "rhf"
			},
			{
				"type": "unocc",
				"energy": -0.03232,
				"method": "rhf"
			},
			{
				"type": "unocc",
				"energy": -0.023,
				"method": "rhf"
			},
			{
				"type": "unocc",
				"energy": 0.02219,
				"method": "rhf"
			},
			{
				"type": "unocc",
				"energy": 0.05178,
				"method": "rhf"
			},
			{
				"type": "unocc",
				"energy": 0.06175,
				"method": "rhf"
			}
		],
		"cosmo_sigma_profile": { 
			"-0.025": 0.0,
			"-0.024": 0.0,
			"-0.023": 0.0,
			"-0.022": 0.0,
			"-0.021": 0.0,
			"-0.02": 0.0,
			"-0.019": 0.0,
			"-0.018": 0.0,
			"-0.017": 0.0,
			"-0.016": 0.0,
			"-0.015": 0.0,
			"-0.014": 0.982051394896,
			"-0.013": 3.11469575536,
			"-0.012": 2.46902283607,
			"-0.011": 2.65283160703,
			"-0.01": 3.05211056421,
			"-0.009": 3.90780098184,
			"-0.008": 6.55732028459,
			"-0.007": 7.93306286502,
			"-0.006": 17.7562435373,
			"-0.005": 20.5835749472,
			"-0.004": 29.1419109824,
			"-0.003": 35.9793748262,
			"-0.002": 44.9484699244,
			"-0.001": 38.6875157776,
			"0.0": 36.7396649623,
			"0.001": 35.2969246286,
			"0.002": 28.4469564081,
			"0.003": 18.6477564986,
			"0.004": 10.2571163801,
			"0.005": 9.69113230357,
			"0.006": 10.9505321268,
			"0.007": 10.3149970487,
			"0.008": 8.24840151334,
			"0.009": 7.06749217584,
			"0.01": 9.3380233228,
			"0.011": 9.41529274709,
			"0.012": 6.01558408373,
			"0.013": 1.61033191524,
			"0.014": 3.21415195226,
			"0.015": 0.47289092589,
			"0.016": 0.0,
			"0.017": 0.0,
			"0.018": 0.0,
			"0.019": 0.0,
			"0.02": 0.0,
			"0.021": 0.0,
			"0.022": 0.0,
			"0.023": 0.0,
			"0.024": 0.0,
			"0.025": 0.0
		}
	}
}
