{
	 "smiles": "CCOC(=O)CSC1=NN=C(O1)C1=CC=CS1", 
	 "Tm": 327.15, 
	 "num_atms": 27, 
	 "gaussian": { 
		 "optdone": 1, 
		 "sigma_profile": "yes", 
		 "theory": "DFT", 
		 "functional": "B3LYP", 
		 "basiset": "6-31G**", 
		 "properties": { 
			 "R2extent": 7443.1118, 
			 "electric_dipole_moment_norm": 5.19018811798, 
			 "electric_quadrupole_moment_norm": 29.4317147263, 
			 "total_energy": -1518.59709369, 
			 "HOMO_LUMO_gap": 0.16577, 
			 "cosmo_polarized_energy": -15.97, 
			 "cosmo_cavitation_energy": 36.41, 
			 "cosmo_dispersion_energy": -25.98, 
			 "cosmo_repulsion_energy": 1.96, 
			 "cosmo_total_nonelectrostatic_energy": 12.39, 
			 "SMD_solvation_energy": 5.06 
		},
		"coords": [
			{
				"x": -1.7693535443,
				"y": -1.0890842975,
				"z": -3.2497379459,
				"element": "C" 
			},
			{
				"x": -0.6601499629,
				"y": -0.8089757768,
				"z": -2.2551941187,
				"element": "C" 
			},
			{
				"x": -0.8905116381,
				"y": -1.6527450987,
				"z": -1.0979731788,
				"element": "O" 
			},
			{
				"x": -0.0132169172,
				"y": -1.5264267965,
				"z": -0.0927517932,
				"element": "C" 
			},
			{
				"x": 0.9549565003,
				"y": -0.7972944701,
				"z": -0.108411532,
				"element": "O" 
			},
			{
				"x": -0.3464346136,
				"y": -2.4564255485,
				"z": 1.0684709814,
				"element": "C" 
			},
			{
				"x": -2.0531524197,
				"y": -2.3367933772,
				"z": 1.7451434705,
				"element": "S" 
			},
			{
				"x": -1.9452237176,
				"y": -0.8003124846,
				"z": 2.5822861213,
				"element": "C" 
			},
			{
				"x": -2.7137625079,
				"y": -0.3652674225,
				"z": 3.5315261045,
				"element": "N" 
			},
			{
				"x": -2.279472764,
				"y": 0.9323777895,
				"z": 3.8125675358,
				"element": "N" 
			},
			{
				"x": -1.273476422,
				"y": 1.1706563076,
				"z": 3.0229793667,
				"element": "C" 
			},
			{
				"x": -1.0045663144,
				"y": 0.1080680617,
				"z": 2.1959069993,
				"element": "O" 
			},
			{
				"x": -0.4356322598,
				"y": 2.3358917218,
				"z": 2.9146950186,
				"element": "C" 
			},
			{
				"x": 0.6371923454,
				"y": 2.5162674432,
				"z": 2.0678110515,
				"element": "C" 
			},
			{
				"x": 1.2455949986,
				"y": 3.7916620828,
				"z": 2.2258722847,
				"element": "C" 
			},
			{
				"x": 0.6302758689,
				"y": 4.555833532,
				"z": 3.1830384941,
				"element": "C" 
			},
			{
				"x": -0.7069756797,
				"y": 3.737307431,
				"z": 3.9175747431,
				"element": "S" 
			},
			{
				"x": -1.7628166349,
				"y": -2.1379898438,
				"z": -3.5593186709,
				"element": "H" 
			},
			{
				"x": -2.7478785415,
				"y": -0.8623967814,
				"z": -2.8176413756,
				"element": "H" 
			},
			{
				"x": -1.6321759708,
				"y": -0.4668425178,
				"z": -4.1394225146,
				"element": "H" 
			},
			{
				"x": 0.3299654793,
				"y": -1.0374030576,
				"z": -2.6615645021,
				"element": "H" 
			},
			{
				"x": -0.6518455137,
				"y": 0.2349048794,
				"z": -1.9272688083,
				"element": "H" 
			},
			{
				"x": -0.2803617587,
				"y": -3.492740227,
				"z": 0.7230040418,
				"element": "H" 
			},
			{
				"x": 0.3854477352,
				"y": -2.2974084757,
				"z": 1.8596960468,
				"element": "H" 
			},
			{
				"x": 0.9656662818,
				"y": 1.7550055677,
				"z": 1.3689314794,
				"element": "H" 
			},
			{
				"x": 2.103064081,
				"y": 4.1259569465,
				"z": 1.6538041624,
				"element": "H" 
			},
			{
				"x": 0.8840438904,
				"y": 5.5571744126,
				"z": 3.5029765383,
				"element": "H" 
			}
		],
		 "valence_orbital": [ 
			{
				"type": "occ",
				"energy": -0.29161,
				"method": "rhf"
			},
			{
				"type": "occ",
				"energy": -0.28045,
				"method": "rhf"
			},
			{
				"type": "occ",
				"energy": -0.26484,
				"method": "rhf"
			},
			{
				"type": "occ",
				"energy": -0.26311,
				"method": "rhf"
			},
			{
				"type": "occ",
				"energy": -0.22256,
				"method": "rhf"
			},
			{
				"type": "unocc",
				"energy": -0.05679,
				"method": "rhf"
			},
			{
				"type": "unocc",
				"energy": -0.02688,
				"method": "rhf"
			},
			{
				"type": "unocc",
				"energy": 0.00305,
				"method": "rhf"
			},
			{
				"type": "unocc",
				"energy": 0.01961,
				"method": "rhf"
			},
			{
				"type": "unocc",
				"energy": 0.02572,
				"method": "rhf"
			}
		],
		"cosmo_sigma_profile": { 
			"-0.025": 0.0,
			"-0.024": 0.0,
			"-0.023": 0.0,
			"-0.022": 0.0,
			"-0.021": 0.0,
			"-0.02": 0.0,
			"-0.019": 0.0,
			"-0.018": 0.0,
			"-0.017": 0.0,
			"-0.016": 0.0,
			"-0.015": 0.0,
			"-0.014": 0.0,
			"-0.013": 0.0,
			"-0.012": 0.0,
			"-0.011": 0.71292660653,
			"-0.01": 3.57538128504,
			"-0.009": 5.69227387779,
			"-0.008": 6.95125570904,
			"-0.007": 7.8431764865,
			"-0.006": 9.61195791883,
			"-0.005": 18.9743908134,
			"-0.004": 23.3927299788,
			"-0.003": 21.8205763897,
			"-0.002": 21.188080513,
			"-0.001": 24.2801923889,
			"0.0": 23.7618232755,
			"0.001": 23.6127870007,
			"0.002": 26.5205648913,
			"0.003": 20.4430340802,
			"0.004": 11.1646999511,
			"0.005": 7.54072199095,
			"0.006": 6.24007793426,
			"0.007": 4.22209019194,
			"0.008": 4.71295185687,
			"0.009": 4.30621354126,
			"0.01": 5.02114761644,
			"0.011": 6.67841742962,
			"0.012": 3.19668780579,
			"0.013": 2.24833063869,
			"0.014": 1.81294223782,
			"0.015": 0.192441375024,
			"0.016": 0.0,
			"0.017": 0.0,
			"0.018": 0.0,
			"0.019": 0.0,
			"0.02": 0.0,
			"0.021": 0.0,
			"0.022": 0.0,
			"0.023": 0.0,
			"0.024": 0.0,
			"0.025": 0.0
		}
	}
}
