{
	 "smiles": "ClC(Cl)C(=O)NC1=CC=C(C=C1)C1=NNC(=O)CC1", 
	 "Tm": 525.15, 
	 "num_atms": 30, 
	 "gaussian": { 
		 "optdone": 1, 
		 "sigma_profile": "yes", 
		 "theory": "DFT", 
		 "functional": "B3LYP", 
		 "basiset": "6-31G**", 
		 "properties": { 
			 "R2extent": 10864.1237, 
			 "electric_dipole_moment_norm": 2.39394575962, 
			 "electric_quadrupole_moment_norm": 46.6606100843, 
			 "total_energy": -1698.98117897, 
			 "HOMO_LUMO_gap": 0.15975, 
			 "cosmo_polarized_energy": -22.19, 
			 "cosmo_cavitation_energy": 38.18, 
			 "cosmo_dispersion_energy": -27.79, 
			 "cosmo_repulsion_energy": 2.17, 
			 "cosmo_total_nonelectrostatic_energy": 12.55, 
			 "SMD_solvation_energy": 6.2 
		},
		"coords": [
			{
				"x": 0.8721404068,
				"y": -0.5785858147,
				"z": 6.2581864945,
				"element": "Cl" 
			},
			{
				"x": 0.8958744701,
				"y": -1.2779633198,
				"z": 4.6130524215,
				"element": "C" 
			},
			{
				"x": 2.3887410718,
				"y": -2.2492046058,
				"z": 4.3280704018,
				"element": "Cl" 
			},
			{
				"x": -0.3403340542,
				"y": -2.1811368162,
				"z": 4.4169705171,
				"element": "C" 
			},
			{
				"x": -0.6559644322,
				"y": -3.0231687989,
				"z": 5.2334037841,
				"element": "O" 
			},
			{
				"x": -1.0940573764,
				"y": -1.9494779509,
				"z": 3.2874548567,
				"element": "N" 
			},
			{
				"x": -0.8958805713,
				"y": -1.0984662161,
				"z": 2.1702219057,
				"element": "C" 
			},
			{
				"x": 0.3310463732,
				"y": -1.0139883335,
				"z": 1.5030781999,
				"element": "C" 
			},
			{
				"x": 0.4717151107,
				"y": -0.1678833178,
				"z": 0.4032385333,
				"element": "C" 
			},
			{
				"x": -0.6094460777,
				"y": 0.5809397641,
				"z": -0.0863926434,
				"element": "C" 
			},
			{
				"x": -1.84764355,
				"y": 0.4579236187,
				"z": 0.575307488,
				"element": "C" 
			},
			{
				"x": -1.9879817385,
				"y": -0.3590535216,
				"z": 1.6862157368,
				"element": "C" 
			},
			{
				"x": -0.4782862442,
				"y": 1.4532206084,
				"z": -1.2740563175,
				"element": "C" 
			},
			{
				"x": -1.5728145991,
				"y": 1.8957651511,
				"z": -1.8012014462,
				"element": "N" 
			},
			{
				"x": -1.4742402957,
				"y": 2.6901375149,
				"z": -2.9167886525,
				"element": "N" 
			},
			{
				"x": -0.3744161623,
				"y": 3.4178191661,
				"z": -3.3389814348,
				"element": "C" 
			},
			{
				"x": -0.4492484897,
				"y": 4.1931642785,
				"z": -4.2764656455,
				"element": "O" 
			},
			{
				"x": 0.8621551046,
				"y": 3.1814746743,
				"z": -2.4953792447,
				"element": "C" 
			},
			{
				"x": 0.8725716811,
				"y": 1.7766343167,
				"z": -1.8784451123,
				"element": "C" 
			},
			{
				"x": 0.9308292892,
				"y": -0.4447167967,
				"z": 3.9172941438,
				"element": "H" 
			},
			{
				"x": -1.9520626775,
				"y": -2.4894760408,
				"z": 3.3033920832,
				"element": "H" 
			},
			{
				"x": 1.1683338922,
				"y": -1.6252552242,
				"z": 1.8225563304,
				"element": "H" 
			},
			{
				"x": 1.4354999977,
				"y": -0.1317196691,
				"z": -0.0929305776,
				"element": "H" 
			},
			{
				"x": -2.6926930403,
				"y": 1.0283045635,
				"z": 0.2074624594,
				"element": "H" 
			},
			{
				"x": -2.9429836618,
				"y": -0.4196920101,
				"z": 2.2005863784,
				"element": "H" 
			},
			{
				"x": -2.3629203574,
				"y": 2.9307310505,
				"z": -3.3357992553,
				"element": "H" 
			},
			{
				"x": 1.7419702896,
				"y": 3.3674736102,
				"z": -3.1143905039,
				"element": "H" 
			},
			{
				"x": 0.8573976306,
				"y": 3.9427005121,
				"z": -1.7035829746,
				"element": "H" 
			},
			{
				"x": 1.6701312491,
				"y": 1.7019131883,
				"z": -1.1363573698,
				"element": "H" 
			},
			{
				"x": 1.0922667616,
				"y": 1.0295864186,
				"z": -2.6554205566,
				"element": "H" 
			}
		],
		 "valence_orbital": [ 
			{
				"type": "occ",
				"energy": -0.28035,
				"method": "rhf"
			},
			{
				"type": "occ",
				"energy": -0.27944,
				"method": "rhf"
			},
			{
				"type": "occ",
				"energy": -0.27194,
				"method": "rhf"
			},
			{
				"type": "occ",
				"energy": -0.25909,
				"method": "rhf"
			},
			{
				"type": "occ",
				"energy": -0.2296,
				"method": "rhf"
			},
			{
				"type": "unocc",
				"energy": -0.06985,
				"method": "rhf"
			},
			{
				"type": "unocc",
				"energy": -0.03685,
				"method": "rhf"
			},
			{
				"type": "unocc",
				"energy": -0.03263,
				"method": "rhf"
			},
			{
				"type": "unocc",
				"energy": -0.0148,
				"method": "rhf"
			},
			{
				"type": "unocc",
				"energy": 0.00143,
				"method": "rhf"
			}
		],
		"cosmo_sigma_profile": { 
			"-0.025": 0.0,
			"-0.024": 0.0,
			"-0.023": 0.0,
			"-0.022": 0.0,
			"-0.021": 0.0,
			"-0.02": 0.0,
			"-0.019": 0.0,
			"-0.018": 0.0,
			"-0.017": 0.0,
			"-0.016": 0.448155238654,
			"-0.015": 1.56465320291,
			"-0.014": 2.35576610523,
			"-0.013": 1.8028800003,
			"-0.012": 2.10354741091,
			"-0.011": 2.22153930586,
			"-0.01": 3.3058752577,
			"-0.009": 3.13553724289,
			"-0.008": 4.90033366668,
			"-0.007": 10.4501713958,
			"-0.006": 18.4819111302,
			"-0.005": 23.9364066093,
			"-0.004": 20.6632079166,
			"-0.003": 19.3223873679,
			"-0.002": 16.6861384086,
			"-0.001": 16.7210826787,
			"0.0": 17.9054404411,
			"0.001": 18.2335528441,
			"0.002": 20.4895636351,
			"0.003": 29.904159477,
			"0.004": 21.469304865,
			"0.005": 7.09356663519,
			"0.006": 5.55719240581,
			"0.007": 4.72066036514,
			"0.008": 3.90563194598,
			"0.009": 4.74057731351,
			"0.01": 4.47028132997,
			"0.011": 5.49589128232,
			"0.012": 8.64727454636,
			"0.013": 6.50832118994,
			"0.014": 1.76183119486,
			"0.015": 0.0364432703767,
			"0.016": 0.0,
			"0.017": 0.0,
			"0.018": 0.0,
			"0.019": 0.0,
			"0.02": 0.0,
			"0.021": 0.0,
			"0.022": 0.0,
			"0.023": 0.0,
			"0.024": 0.0,
			"0.025": 0.0
		}
	}
}
