{
	 "smiles": "CC(C)(C)C1CCC(CC1)C1=NNC(N)=C1", 
	 "Tm": 406.15, 
	 "num_atms": 39, 
	 "gaussian": { 
		 "optdone": 1, 
		 "sigma_profile": "yes", 
		 "theory": "DFT", 
		 "functional": "B3LYP", 
		 "basiset": "6-31G**", 
		 "properties": { 
			 "R2extent": 5640.0945, 
			 "electric_dipole_moment_norm": 3.09608795418, 
			 "electric_quadrupole_moment_norm": 18.2272449536, 
			 "total_energy": -673.497098322, 
			 "HOMO_LUMO_gap": 0.24352, 
			 "cosmo_polarized_energy": -13.98, 
			 "cosmo_cavitation_energy": 37.5, 
			 "cosmo_dispersion_energy": -26.43, 
			 "cosmo_repulsion_energy": 2.06, 
			 "cosmo_total_nonelectrostatic_energy": 13.13, 
			 "SMD_solvation_energy": 4.62 
		},
		"coords": [
			{
				"x": -1.1110470174,
				"y": -1.3761042634,
				"z": 3.1994881941,
				"element": "C" 
			},
			{
				"x": -1.0335935073,
				"y": -0.3621845097,
				"z": 2.0374357114,
				"element": "C" 
			},
			{
				"x": 0.1335833051,
				"y": 0.6115415305,
				"z": 2.3007550797,
				"element": "C" 
			},
			{
				"x": -2.35356537,
				"y": 0.438637119,
				"z": 2.0309334453,
				"element": "C" 
			},
			{
				"x": -0.8699754143,
				"y": -1.1354681606,
				"z": 0.6830437557,
				"element": "C" 
			},
			{
				"x": -1.0782464678,
				"y": -0.2544128324,
				"z": -0.5731240901,
				"element": "C" 
			},
			{
				"x": -0.6614673791,
				"y": -0.9915292976,
				"z": -1.8539544053,
				"element": "C" 
			},
			{
				"x": 0.8605876855,
				"y": -1.3399001648,
				"z": -1.8866120021,
				"element": "C" 
			},
			{
				"x": 1.4455196348,
				"y": -1.3248869929,
				"z": -0.4530509391,
				"element": "C" 
			},
			{
				"x": 0.4678862159,
				"y": -1.9346781687,
				"z": 0.560977358,
				"element": "C" 
			},
			{
				"x": 1.6462510387,
				"y": -0.4558263919,
				"z": -2.8188662103,
				"element": "C" 
			},
			{
				"x": 2.3026839175,
				"y": -0.9924484093,
				"z": -3.8450339067,
				"element": "N" 
			},
			{
				"x": 2.8989548488,
				"y": 0.0704737402,
				"z": -4.4599471776,
				"element": "N" 
			},
			{
				"x": 2.6326128353,
				"y": 1.2556096005,
				"z": -3.8487505246,
				"element": "C" 
			},
			{
				"x": 3.1054814044,
				"y": 2.4647542243,
				"z": -4.3736251726,
				"element": "N" 
			},
			{
				"x": 1.8215988894,
				"y": 0.9563914473,
				"z": -2.767760141,
				"element": "C" 
			},
			{
				"x": -0.2025568185,
				"y": -1.9797992668,
				"z": 3.2875749167,
				"element": "H" 
			},
			{
				"x": -1.2518420232,
				"y": -0.8573532111,
				"z": 4.1545771879,
				"element": "H" 
			},
			{
				"x": -1.9554580156,
				"y": -2.0623073623,
				"z": 3.0658572376,
				"element": "H" 
			},
			{
				"x": 1.0940380483,
				"y": 0.0908286905,
				"z": 2.3695797266,
				"element": "H" 
			},
			{
				"x": -0.0195264763,
				"y": 1.1401343732,
				"z": 3.248635929,
				"element": "H" 
			},
			{
				"x": 0.2176098273,
				"y": 1.3703487951,
				"z": 1.5156040734,
				"element": "H" 
			},
			{
				"x": -3.2084379143,
				"y": -0.2064123509,
				"z": 1.795437608,
				"element": "H" 
			},
			{
				"x": -2.5357634606,
				"y": 0.8826677947,
				"z": 3.0161555383,
				"element": "H" 
			},
			{
				"x": -2.3376280293,
				"y": 1.2546625723,
				"z": 1.3024246612,
				"element": "H" 
			},
			{
				"x": -1.6870339875,
				"y": -1.8718255686,
				"z": 0.6743984931,
				"element": "H" 
			},
			{
				"x": -2.1297098561,
				"y": 0.0395629774,
				"z": -0.6516837499,
				"element": "H" 
			},
			{
				"x": -0.5082030786,
				"y": 0.6799648405,
				"z": -0.4891218815,
				"element": "H" 
			},
			{
				"x": -1.2431329986,
				"y": -1.9197821725,
				"z": -1.9239175248,
				"element": "H" 
			},
			{
				"x": -0.9264315262,
				"y": -0.3983328382,
				"z": -2.7350955814,
				"element": "H" 
			},
			{
				"x": 0.9702090103,
				"y": -2.3549383936,
				"z": -2.2844958603,
				"element": "H" 
			},
			{
				"x": 2.3964201838,
				"y": -1.8694855755,
				"z": -0.4443486114,
				"element": "H" 
			},
			{
				"x": 1.6843564361,
				"y": -0.2946887666,
				"z": -0.1625444475,
				"element": "H" 
			},
			{
				"x": 0.2476965481,
				"y": -2.9646402614,
				"z": 0.2524645896,
				"element": "H" 
			},
			{
				"x": 0.9607777465,
				"y": -2.020546646,
				"z": 1.5342195201,
				"element": "H" 
			},
			{
				"x": 3.3790438874,
				"y": -0.0692986809,
				"z": -5.3345287832,
				"element": "H" 
			},
			{
				"x": 2.8335256983,
				"y": 3.2515048932,
				"z": -3.7975781921,
				"element": "H" 
			},
			{
				"x": 4.1122525256,
				"y": 2.4787973052,
				"z": -4.5032380875,
				"element": "H" 
			},
			{
				"x": 1.4340296537,
				"y": 1.6534703817,
				"z": -2.0392857367,
				"element": "H" 
			}
		],
		 "valence_orbital": [ 
			{
				"type": "occ",
				"energy": -0.28275,
				"method": "rhf"
			},
			{
				"type": "occ",
				"energy": -0.28026,
				"method": "rhf"
			},
			{
				"type": "occ",
				"energy": -0.26823,
				"method": "rhf"
			},
			{
				"type": "occ",
				"energy": -0.23181,
				"method": "rhf"
			},
			{
				"type": "occ",
				"energy": -0.2031,
				"method": "rhf"
			},
			{
				"type": "unocc",
				"energy": 0.04042,
				"method": "rhf"
			},
			{
				"type": "unocc",
				"energy": 0.06886,
				"method": "rhf"
			},
			{
				"type": "unocc",
				"energy": 0.0748,
				"method": "rhf"
			},
			{
				"type": "unocc",
				"energy": 0.08618,
				"method": "rhf"
			},
			{
				"type": "unocc",
				"energy": 0.09337,
				"method": "rhf"
			}
		],
		"cosmo_sigma_profile": { 
			"-0.025": 0.0,
			"-0.024": 0.0,
			"-0.023": 0.0,
			"-0.022": 0.0,
			"-0.021": 0.0,
			"-0.02": 0.0,
			"-0.019": 0.0,
			"-0.018": 0.0,
			"-0.017": 0.0,
			"-0.016": 0.232991475003,
			"-0.015": 1.35633972068,
			"-0.014": 1.39185580222,
			"-0.013": 2.40710433313,
			"-0.012": 4.4653880977,
			"-0.011": 4.11451449965,
			"-0.01": 3.64246528417,
			"-0.009": 3.03170316192,
			"-0.008": 3.29186367939,
			"-0.007": 2.47402781193,
			"-0.006": 2.65535109108,
			"-0.005": 3.52890092314,
			"-0.004": 4.19543051871,
			"-0.003": 11.0839547831,
			"-0.002": 33.1732579653,
			"-0.001": 49.4602581019,
			"0.0": 42.803937103,
			"0.001": 36.0352906144,
			"0.002": 28.8004678797,
			"0.003": 7.35561304831,
			"0.004": 5.13708767278,
			"0.005": 6.03119822659,
			"0.006": 6.52615251445,
			"0.007": 6.20517538731,
			"0.008": 2.53286970313,
			"0.009": 2.7742919499,
			"0.01": 2.3947834382,
			"0.011": 2.30290500077,
			"0.012": 1.4745613813,
			"0.013": 1.79562630646,
			"0.014": 1.7576059767,
			"0.015": 1.85243464942,
			"0.016": 1.27366486563,
			"0.017": 0.841455877845,
			"0.018": 0.368468472015,
			"0.019": 0.0,
			"0.02": 0.0,
			"0.021": 0.0,
			"0.022": 0.0,
			"0.023": 0.0,
			"0.024": 0.0,
			"0.025": 0.0
		}
	}
}
