{
	 "smiles": "CCOC(=O)C(=O)C=CN(C)C", 
	 "Tm": 311.15, 
	 "num_atms": 25, 
	 "gaussian": { 
		 "optdone": 1, 
		 "sigma_profile": "yes", 
		 "theory": "DFT", 
		 "functional": "B3LYP", 
		 "basiset": "6-31G**", 
		 "properties": { 
			 "R2extent": 2814.6634, 
			 "electric_dipole_moment_norm": 7.05034832686, 
			 "electric_quadrupole_moment_norm": 6.46332061792, 
			 "total_energy": -593.078008257, 
			 "HOMO_LUMO_gap": 0.16893, 
			 "cosmo_polarized_energy": -18.5, 
			 "cosmo_cavitation_energy": 28.61, 
			 "cosmo_dispersion_energy": -19.68, 
			 "cosmo_repulsion_energy": 1.6, 
			 "cosmo_total_nonelectrostatic_energy": 10.53, 
			 "SMD_solvation_energy": 6.87 
		},
		"coords": [
			{
				"x": 1.4120461697,
				"y": -3.9246046149,
				"z": -2.0951411568,
				"element": "C" 
			},
			{
				"x": 1.1229948821,
				"y": -2.4494027493,
				"z": -2.3268087523,
				"element": "C" 
			},
			{
				"x": 0.1192183631,
				"y": -1.9620620408,
				"z": -1.3984366145,
				"element": "O" 
			},
			{
				"x": 0.5628437677,
				"y": -1.5847124332,
				"z": -0.1776120016,
				"element": "C" 
			},
			{
				"x": 1.726773685,
				"y": -1.5518225718,
				"z": 0.1525379602,
				"element": "O" 
			},
			{
				"x": -0.6183612648,
				"y": -1.3035409385,
				"z": 0.7711577096,
				"element": "C" 
			},
			{
				"x": -0.6191353774,
				"y": -1.9725237914,
				"z": 1.8012914249,
				"element": "O" 
			},
			{
				"x": -1.7208152118,
				"y": -0.4279935752,
				"z": 0.4141320758,
				"element": "C" 
			},
			{
				"x": -1.9018164295,
				"y": 0.5481465552,
				"z": -0.5295906381,
				"element": "C" 
			},
			{
				"x": -1.0408004238,
				"y": 1.2590265481,
				"z": -1.3019746261,
				"element": "N" 
			},
			{
				"x": -1.5462131914,
				"y": 2.0648032947,
				"z": -2.4027174831,
				"element": "C" 
			},
			{
				"x": 0.4003644876,
				"y": 1.2640937187,
				"z": -1.1230234877,
				"element": "C" 
			},
			{
				"x": 2.115404085,
				"y": -4.2886062169,
				"z": -2.8515533469,
				"element": "H" 
			},
			{
				"x": 1.8580536494,
				"y": -4.0775135191,
				"z": -1.1095570148,
				"element": "H" 
			},
			{
				"x": 0.4944408473,
				"y": -4.5157288703,
				"z": -2.1637966871,
				"element": "H" 
			},
			{
				"x": 0.6874014424,
				"y": -2.2750279533,
				"z": -3.3136719329,
				"element": "H" 
			},
			{
				"x": 2.0293077635,
				"y": -1.8488318318,
				"z": -2.2149113064,
				"element": "H" 
			},
			{
				"x": -2.5953759127,
				"y": -0.6266541278,
				"z": 1.0273442934,
				"element": "H" 
			},
			{
				"x": -2.9307089357,
				"y": 0.8800145173,
				"z": -0.6649955349,
				"element": "H" 
			},
			{
				"x": -1.1217343485,
				"y": 3.0750208543,
				"z": -2.3612113199,
				"element": "H" 
			},
			{
				"x": -2.6339955262,
				"y": 2.1392327409,
				"z": -2.342933493,
				"element": "H" 
			},
			{
				"x": -1.2870869218,
				"y": 1.6259772876,
				"z": -3.3757134323,
				"element": "H" 
			},
			{
				"x": 0.9143397646,
				"y": 0.5956067897,
				"z": -1.8225311406,
				"element": "H" 
			},
			{
				"x": 0.7737361519,
				"y": 2.2813633966,
				"z": -1.2860637082,
				"element": "H" 
			},
			{
				"x": 0.6500184843,
				"y": 0.9642395312,
				"z": -0.1044197868,
				"element": "H" 
			}
		],
		 "valence_orbital": [ 
			{
				"type": "occ",
				"energy": -0.32435,
				"method": "rhf"
			},
			{
				"type": "occ",
				"energy": -0.29977,
				"method": "rhf"
			},
			{
				"type": "occ",
				"energy": -0.28394,
				"method": "rhf"
			},
			{
				"type": "occ",
				"energy": -0.22942,
				"method": "rhf"
			},
			{
				"type": "occ",
				"energy": -0.21234,
				"method": "rhf"
			},
			{
				"type": "unocc",
				"energy": -0.04341,
				"method": "rhf"
			},
			{
				"type": "unocc",
				"energy": 0.01087,
				"method": "rhf"
			},
			{
				"type": "unocc",
				"energy": 0.0645,
				"method": "rhf"
			},
			{
				"type": "unocc",
				"energy": 0.08464,
				"method": "rhf"
			},
			{
				"type": "unocc",
				"energy": 0.09254,
				"method": "rhf"
			}
		],
		"cosmo_sigma_profile": { 
			"-0.025": 0.0,
			"-0.024": 0.0,
			"-0.023": 0.0,
			"-0.022": 0.0,
			"-0.021": 0.0,
			"-0.02": 0.0,
			"-0.019": 0.0,
			"-0.018": 0.0,
			"-0.017": 0.0,
			"-0.016": 0.0,
			"-0.015": 0.0,
			"-0.014": 0.0,
			"-0.013": 0.0,
			"-0.012": 0.0,
			"-0.011": 0.0,
			"-0.01": 0.032977232536,
			"-0.009": 1.71136582261,
			"-0.008": 3.25437786271,
			"-0.007": 4.81520025726,
			"-0.006": 12.3695500985,
			"-0.005": 22.0563640195,
			"-0.004": 28.173816656,
			"-0.003": 29.968179834,
			"-0.002": 19.3823844282,
			"-0.001": 14.6597848685,
			"0.0": 14.3159624221,
			"0.001": 8.60683615186,
			"0.002": 6.04481395049,
			"0.003": 6.08706312002,
			"0.004": 6.23641817945,
			"0.005": 5.92638581047,
			"0.006": 3.92170920504,
			"0.007": 4.46419087773,
			"0.008": 4.24478624718,
			"0.009": 3.67855008212,
			"0.01": 2.84816413224,
			"0.011": 6.70363598134,
			"0.012": 7.20157003171,
			"0.013": 5.80637165632,
			"0.014": 2.39718796664,
			"0.015": 0.0793228305111,
			"0.016": 0.0,
			"0.017": 0.0,
			"0.018": 0.0,
			"0.019": 0.0,
			"0.02": 0.0,
			"0.021": 0.0,
			"0.022": 0.0,
			"0.023": 0.0,
			"0.024": 0.0,
			"0.025": 0.0
		}
	}
}
