{
	 "smiles": "OC(=O)C1=CC(=C(SC2=CC=CC=C2)C=C1)[N+]([O-])=O", 
	 "Tm": 502.15, 
	 "num_atms": 28, 
	 "gaussian": { 
		 "optdone": 1, 
		 "sigma_profile": "yes", 
		 "theory": "DFT", 
		 "functional": "B3LYP", 
		 "basiset": "6-31G**", 
		 "properties": { 
			 "R2extent": 5984.3439, 
			 "electric_dipole_moment_norm": 5.60823794253, 
			 "electric_quadrupole_moment_norm": 22.7222665443, 
			 "total_energy": -1254.53124785, 
			 "HOMO_LUMO_gap": 0.14028, 
			 "cosmo_polarized_energy": -20.77, 
			 "cosmo_cavitation_energy": 35.48, 
			 "cosmo_dispersion_energy": -25.01, 
			 "cosmo_repulsion_energy": 1.87, 
			 "cosmo_total_nonelectrostatic_energy": 12.33, 
			 "SMD_solvation_energy": 8.87 
		},
		"coords": [
			{
				"x": -3.7609299675,
				"y": 1.2788007137,
				"z": 3.8112838492,
				"element": "O" 
			},
			{
				"x": -2.4315757676,
				"y": 1.4680288595,
				"z": 3.6047400443,
				"element": "C" 
			},
			{
				"x": -1.8295124869,
				"y": 2.2989767531,
				"z": 4.2409501683,
				"element": "O" 
			},
			{
				"x": -1.7764686569,
				"y": 0.6008403523,
				"z": 2.5701666141,
				"element": "C" 
			},
			{
				"x": -0.5451452733,
				"y": 1.0216587798,
				"z": 2.0631124421,
				"element": "C" 
			},
			{
				"x": 0.1317034173,
				"y": 0.2497521803,
				"z": 1.1254672872,
				"element": "C" 
			},
			{
				"x": -0.4101378934,
				"y": -0.9485241662,
				"z": 0.6174225127,
				"element": "C" 
			},
			{
				"x": 0.2986472955,
				"y": -2.0347213328,
				"z": -0.6054241087,
				"element": "S" 
			},
			{
				"x": 0.9211202489,
				"y": -0.9384471656,
				"z": -1.8835910267,
				"element": "C" 
			},
			{
				"x": 2.2487592959,
				"y": -1.0827238815,
				"z": -2.3014738583,
				"element": "C" 
			},
			{
				"x": 2.7264683419,
				"y": -0.3117670488,
				"z": -3.3623129458,
				"element": "C" 
			},
			{
				"x": 1.8930156604,
				"y": 0.6155524072,
				"z": -3.9890499202,
				"element": "C" 
			},
			{
				"x": 0.5710195836,
				"y": 0.7644995938,
				"z": -3.5627672055,
				"element": "C" 
			},
			{
				"x": 0.0770097262,
				"y": -0.019580566,
				"z": -2.5207341346,
				"element": "C" 
			},
			{
				"x": -1.6454229693,
				"y": -1.3583680207,
				"z": 1.1480054972,
				"element": "C" 
			},
			{
				"x": -2.3077199626,
				"y": -0.6150067993,
				"z": 2.1186851919,
				"element": "C" 
			},
			{
				"x": 1.4719875419,
				"y": 0.7436658954,
				"z": 0.7500701555,
				"element": "N" 
			},
			{
				"x": 1.6079421598,
				"y": 1.9606689383,
				"z": 0.6485529265,
				"element": "O" 
			},
			{
				"x": 2.3665629227,
				"y": -0.0848374071,
				"z": 0.6134050051,
				"element": "O" 
			},
			{
				"x": -4.1380504929,
				"y": 0.715273659,
				"z": 3.1219449693,
				"element": "H" 
			},
			{
				"x": -0.1062777156,
				"y": 1.9456325228,
				"z": 2.419589095,
				"element": "H" 
			},
			{
				"x": 2.9015144026,
				"y": -1.7811594972,
				"z": -1.7893815743,
				"element": "H" 
			},
			{
				"x": 3.7570136014,
				"y": -0.4251440054,
				"z": -3.68512266,
				"element": "H" 
			},
			{
				"x": 2.2716401567,
				"y": 1.2221998377,
				"z": -4.8061881339,
				"element": "H" 
			},
			{
				"x": -0.0818973928,
				"y": 1.4827598557,
				"z": -4.0498473522,
				"element": "H" 
			},
			{
				"x": -0.9572377547,
				"y": 0.0776257287,
				"z": -2.2058290591,
				"element": "H" 
			},
			{
				"x": -2.0904246541,
				"y": -2.2741645626,
				"z": 0.772730238,
				"element": "H" 
			},
			{
				"x": -3.2389033672,
				"y": -1.0044916243,
				"z": 2.5222959829,
				"element": "H" 
			}
		],
		 "valence_orbital": [ 
			{
				"type": "occ",
				"energy": -0.28718,
				"method": "rhf"
			},
			{
				"type": "occ",
				"energy": -0.28579,
				"method": "rhf"
			},
			{
				"type": "occ",
				"energy": -0.27553,
				"method": "rhf"
			},
			{
				"type": "occ",
				"energy": -0.26491,
				"method": "rhf"
			},
			{
				"type": "occ",
				"energy": -0.2371,
				"method": "rhf"
			},
			{
				"type": "unocc",
				"energy": -0.09682,
				"method": "rhf"
			},
			{
				"type": "unocc",
				"energy": -0.06998,
				"method": "rhf"
			},
			{
				"type": "unocc",
				"energy": -0.03332,
				"method": "rhf"
			},
			{
				"type": "unocc",
				"energy": -0.0307,
				"method": "rhf"
			},
			{
				"type": "unocc",
				"energy": -0.01521,
				"method": "rhf"
			}
		],
		"cosmo_sigma_profile": { 
			"-0.025": 0.0,
			"-0.024": 0.0,
			"-0.023": 0.0,
			"-0.022": 0.0,
			"-0.021": 0.0,
			"-0.02": 0.221971633317,
			"-0.019": 0.845748433912,
			"-0.018": 1.21383817494,
			"-0.017": 1.13897420327,
			"-0.016": 1.00041658462,
			"-0.015": 0.780896938148,
			"-0.014": 1.27227833078,
			"-0.013": 0.90711735262,
			"-0.012": 1.42859290306,
			"-0.011": 1.51450917392,
			"-0.01": 1.47826564257,
			"-0.009": 2.54991635672,
			"-0.008": 5.63371178651,
			"-0.007": 7.74583598272,
			"-0.006": 16.4275325389,
			"-0.005": 17.3910995685,
			"-0.004": 18.0157060683,
			"-0.003": 18.1721098821,
			"-0.002": 20.0080512329,
			"-0.001": 22.8993152834,
			"0.0": 18.5130446764,
			"0.001": 14.7350726814,
			"0.002": 15.8177948438,
			"0.003": 16.5132569436,
			"0.004": 17.8233381687,
			"0.005": 9.5944449761,
			"0.006": 9.49080812331,
			"0.007": 12.7243070472,
			"0.008": 8.90329153343,
			"0.009": 7.9795155064,
			"0.01": 6.09498318007,
			"0.011": 5.17926203232,
			"0.012": 2.77817415742,
			"0.013": 0.394054124806,
			"0.014": 0.0,
			"0.015": 0.0,
			"0.016": 0.0,
			"0.017": 0.0,
			"0.018": 0.0,
			"0.019": 0.0,
			"0.02": 0.0,
			"0.021": 0.0,
			"0.022": 0.0,
			"0.023": 0.0,
			"0.024": 0.0,
			"0.025": 0.0
		}
	}
}
