{
	 "smiles": "O=C(C(C#N)C1=CC=CC=C1)C1=CC=CC=C1", 
	 "Tm": 371.15, 
	 "num_atms": 28, 
	 "gaussian": { 
		 "optdone": 1, 
		 "sigma_profile": "yes", 
		 "theory": "DFT", 
		 "functional": "B3LYP", 
		 "basiset": "6-31G**", 
		 "properties": { 
			 "R2extent": 4045.9344, 
			 "electric_dipole_moment_norm": 3.70087484387, 
			 "electric_quadrupole_moment_norm": 13.354722592, 
			 "total_energy": -708.177320016, 
			 "HOMO_LUMO_gap": 0.17933, 
			 "cosmo_polarized_energy": -11.12, 
			 "cosmo_cavitation_energy": 33.05, 
			 "cosmo_dispersion_energy": -22.63, 
			 "cosmo_repulsion_energy": 1.75, 
			 "cosmo_total_nonelectrostatic_energy": 12.17, 
			 "SMD_solvation_energy": 7.11 
		},
		"coords": [
			{
				"x": -0.0506771516,
				"y": 0.4543285339,
				"z": -2.9402108789,
				"element": "O" 
			},
			{
				"x": 0.4572332838,
				"y": 0.139089903,
				"z": -1.8775854465,
				"element": "C" 
			},
			{
				"x": 0.0164975157,
				"y": -1.2320770352,
				"z": -1.2654414834,
				"element": "C" 
			},
			{
				"x": 1.1503773693,
				"y": -2.085694053,
				"z": -0.904687663,
				"element": "C" 
			},
			{
				"x": 2.0475706952,
				"y": -2.7709649877,
				"z": -0.6329613579,
				"element": "N" 
			},
			{
				"x": -1.001365427,
				"y": -1.0379322917,
				"z": -0.1323496024,
				"element": "C" 
			},
			{
				"x": -0.8358607886,
				"y": -1.6115613208,
				"z": 1.1321455167,
				"element": "C" 
			},
			{
				"x": -1.8018984619,
				"y": -1.4190650679,
				"z": 2.1225597425,
				"element": "C" 
			},
			{
				"x": -2.9379350558,
				"y": -0.6542941457,
				"z": 1.8588753101,
				"element": "C" 
			},
			{
				"x": -3.1084457518,
				"y": -0.0844004709,
				"z": 0.5950861891,
				"element": "C" 
			},
			{
				"x": -2.1474019884,
				"y": -0.2751911853,
				"z": -0.3964287533,
				"element": "C" 
			},
			{
				"x": 1.4186932734,
				"y": 1.0302613966,
				"z": -1.1709475489,
				"element": "C" 
			},
			{
				"x": 1.8992702481,
				"y": 0.7839848594,
				"z": 0.1249469368,
				"element": "C" 
			},
			{
				"x": 2.7920302707,
				"y": 1.6735149389,
				"z": 0.7206433915,
				"element": "C" 
			},
			{
				"x": 3.215370978,
				"y": 2.8105005995,
				"z": 0.0300960442,
				"element": "C" 
			},
			{
				"x": 2.7398868307,
				"y": 3.0643272479,
				"z": -1.2604085806,
				"element": "C" 
			},
			{
				"x": 1.8448481974,
				"y": 2.1826125073,
				"z": -1.8554536003,
				"element": "C" 
			},
			{
				"x": -0.4912759666,
				"y": -1.7219676633,
				"z": -2.1043749141,
				"element": "H" 
			},
			{
				"x": 0.0400063274,
				"y": -2.2181946134,
				"z": 1.3425345239,
				"element": "H" 
			},
			{
				"x": -1.6635433347,
				"y": -1.872491437,
				"z": 3.0997239793,
				"element": "H" 
			},
			{
				"x": -3.6877585317,
				"y": -0.5059192293,
				"z": 2.6302763519,
				"element": "H" 
			},
			{
				"x": -3.9920512918,
				"y": 0.5087787949,
				"z": 0.3784878162,
				"element": "H" 
			},
			{
				"x": -2.2846777709,
				"y": 0.1669570086,
				"z": -1.379078044,
				"element": "H" 
			},
			{
				"x": 1.5764833459,
				"y": -0.0893216579,
				"z": 0.6779390563,
				"element": "H" 
			},
			{
				"x": 3.1575713089,
				"y": 1.4773259587,
				"z": 1.7238800163,
				"element": "H" 
			},
			{
				"x": 3.9146010609,
				"y": 3.4987417901,
				"z": 0.4963806496,
				"element": "H" 
			},
			{
				"x": 3.0684706602,
				"y": 3.9487726,
				"z": -1.797966435,
				"element": "H" 
			},
			{
				"x": 1.4596801551,
				"y": 2.3599790202,
				"z": -2.8536812158,
				"element": "H" 
			}
		],
		 "valence_orbital": [ 
			{
				"type": "occ",
				"energy": -0.27774,
				"method": "rhf"
			},
			{
				"type": "occ",
				"energy": -0.26787,
				"method": "rhf"
			},
			{
				"type": "occ",
				"energy": -0.26613,
				"method": "rhf"
			},
			{
				"type": "occ",
				"energy": -0.26345,
				"method": "rhf"
			},
			{
				"type": "occ",
				"energy": -0.25303,
				"method": "rhf"
			},
			{
				"type": "unocc",
				"energy": -0.0737,
				"method": "rhf"
			},
			{
				"type": "unocc",
				"energy": -0.02128,
				"method": "rhf"
			},
			{
				"type": "unocc",
				"energy": -0.01675,
				"method": "rhf"
			},
			{
				"type": "unocc",
				"energy": -0.01332,
				"method": "rhf"
			},
			{
				"type": "unocc",
				"energy": 0.01621,
				"method": "rhf"
			}
		],
		"cosmo_sigma_profile": { 
			"-0.025": 0.0,
			"-0.024": 0.0,
			"-0.023": 0.0,
			"-0.022": 0.0,
			"-0.021": 0.0,
			"-0.02": 0.0,
			"-0.019": 0.0,
			"-0.018": 0.0,
			"-0.017": 0.0,
			"-0.016": 0.0,
			"-0.015": 0.0,
			"-0.014": 0.0,
			"-0.013": 0.0,
			"-0.012": 0.0,
			"-0.011": 0.0,
			"-0.01": 0.811318613496,
			"-0.009": 2.28421243642,
			"-0.008": 1.61295048245,
			"-0.007": 6.04148094403,
			"-0.006": 20.1802190722,
			"-0.005": 24.3247849733,
			"-0.004": 22.8335379247,
			"-0.003": 18.0807385203,
			"-0.002": 16.6400745543,
			"-0.001": 15.2372910802,
			"0.0": 17.4234912562,
			"0.001": 19.7857470848,
			"0.002": 21.5167695981,
			"0.003": 24.5760824757,
			"0.004": 16.525249432,
			"0.005": 8.29955315025,
			"0.006": 3.76362334631,
			"0.007": 3.64594662638,
			"0.008": 4.48254607611,
			"0.009": 4.98367547741,
			"0.01": 5.83043556496,
			"0.011": 4.79459130572,
			"0.012": 2.34913467132,
			"0.013": 0.547858800216,
			"0.014": 0.0,
			"0.015": 0.0,
			"0.016": 0.0,
			"0.017": 0.0,
			"0.018": 0.0,
			"0.019": 0.0,
			"0.02": 0.0,
			"0.021": 0.0,
			"0.022": 0.0,
			"0.023": 0.0,
			"0.024": 0.0,
			"0.025": 0.0
		}
	}
}
