{
	 "smiles": "O=C1CCC2OCC(N12)C1=CC=CC=C1", 
	 "Tm": 351.15, 
	 "num_atms": 28, 
	 "gaussian": { 
		 "optdone": 1, 
		 "sigma_profile": "yes", 
		 "theory": "DFT", 
		 "functional": "B3LYP", 
		 "basiset": "6-31G**", 
		 "properties": { 
			 "R2extent": 3747.2515, 
			 "electric_dipole_moment_norm": 2.61195533461, 
			 "electric_quadrupole_moment_norm": 13.1810898885, 
			 "total_energy": -670.313929849, 
			 "HOMO_LUMO_gap": 0.23744, 
			 "cosmo_polarized_energy": -12.58, 
			 "cosmo_cavitation_energy": 30.49, 
			 "cosmo_dispersion_energy": -22.0, 
			 "cosmo_repulsion_energy": 1.73, 
			 "cosmo_total_nonelectrostatic_energy": 10.22, 
			 "SMD_solvation_energy": 5.03 
		},
		"coords": [
			{
				"x": 0.8253619515,
				"y": -0.8287616323,
				"z": -2.7187002023,
				"element": "O" 
			},
			{
				"x": -0.3808596678,
				"y": -0.9654174583,
				"z": -2.6536362184,
				"element": "C" 
			},
			{
				"x": -1.3040513431,
				"y": -1.6470793418,
				"z": -3.665509141,
				"element": "C" 
			},
			{
				"x": -2.6817792639,
				"y": -0.9948911303,
				"z": -3.4218969961,
				"element": "C" 
			},
			{
				"x": -2.5920531168,
				"y": -0.4171137624,
				"z": -1.9984969144,
				"element": "C" 
			},
			{
				"x": -2.8823082491,
				"y": 0.9726121552,
				"z": -1.9475703812,
				"element": "O" 
			},
			{
				"x": -2.1579867304,
				"y": 1.4547377986,
				"z": -0.818909492,
				"element": "C" 
			},
			{
				"x": -0.8098975921,
				"y": 0.6563801547,
				"z": -0.807249495,
				"element": "C" 
			},
			{
				"x": -1.1830578233,
				"y": -0.505861914,
				"z": -1.6186132369,
				"element": "N" 
			},
			{
				"x": -0.3169103627,
				"y": 0.3529405728,
				"z": 0.5936391799,
				"element": "C" 
			},
			{
				"x": 0.4683317127,
				"y": 1.3004126032,
				"z": 1.2621259273,
				"element": "C" 
			},
			{
				"x": 0.887853782,
				"y": 1.0801336632,
				"z": 2.5744450481,
				"element": "C" 
			},
			{
				"x": 0.5311644806,
				"y": -0.0973704595,
				"z": 3.2340379193,
				"element": "C" 
			},
			{
				"x": -0.2438140595,
				"y": -1.0511670587,
				"z": 2.5714905243,
				"element": "C" 
			},
			{
				"x": -0.6660629296,
				"y": -0.8266341961,
				"z": 1.2605428408,
				"element": "C" 
			},
			{
				"x": -0.9112716441,
				"y": -1.5056322152,
				"z": -4.673982095,
				"element": "H" 
			},
			{
				"x": -1.3186990177,
				"y": -2.724870691,
				"z": -3.4666438345,
				"element": "H" 
			},
			{
				"x": -2.8418966828,
				"y": -0.1553071727,
				"z": -4.1039844966,
				"element": "H" 
			},
			{
				"x": -3.5176094708,
				"y": -1.6884397291,
				"z": -3.5346337463,
				"element": "H" 
			},
			{
				"x": -3.2258516982,
				"y": -0.9493041277,
				"z": -1.2717175213,
				"element": "H" 
			},
			{
				"x": -2.0166204501,
				"y": 2.5313815158,
				"z": -0.9340457458,
				"element": "H" 
			},
			{
				"x": -2.7111726448,
				"y": 1.2622317096,
				"z": 0.1120868151,
				"element": "H" 
			},
			{
				"x": -0.0291718197,
				"y": 1.2044086026,
				"z": -1.346771015,
				"element": "H" 
			},
			{
				"x": 0.7618082196,
				"y": 2.2130592163,
				"z": 0.7482165049,
				"element": "H" 
			},
			{
				"x": 1.5003328665,
				"y": 1.8232096452,
				"z": 3.0772551712,
				"element": "H" 
			},
			{
				"x": 0.8621000279,
				"y": -0.2742267012,
				"z": 4.2533315601,
				"element": "H" 
			},
			{
				"x": -0.5161615635,
				"y": -1.9750762146,
				"z": 3.074116264,
				"element": "H" 
			},
			{
				"x": -1.2533169108,
				"y": -1.5770538324,
				"z": 0.7398727767,
				"element": "H" 
			}
		],
		 "valence_orbital": [ 
			{
				"type": "occ",
				"energy": -0.27629,
				"method": "rhf"
			},
			{
				"type": "occ",
				"energy": -0.26026,
				"method": "rhf"
			},
			{
				"type": "occ",
				"energy": -0.25095,
				"method": "rhf"
			},
			{
				"type": "occ",
				"energy": -0.24991,
				"method": "rhf"
			},
			{
				"type": "occ",
				"energy": -0.24143,
				"method": "rhf"
			},
			{
				"type": "unocc",
				"energy": -0.00399,
				"method": "rhf"
			},
			{
				"type": "unocc",
				"energy": -0.00363,
				"method": "rhf"
			},
			{
				"type": "unocc",
				"energy": 0.01717,
				"method": "rhf"
			},
			{
				"type": "unocc",
				"energy": 0.08441,
				"method": "rhf"
			},
			{
				"type": "unocc",
				"energy": 0.08948,
				"method": "rhf"
			}
		],
		"cosmo_sigma_profile": { 
			"-0.025": 0.0,
			"-0.024": 0.0,
			"-0.023": 0.0,
			"-0.022": 0.0,
			"-0.021": 0.0,
			"-0.02": 0.0,
			"-0.019": 0.0,
			"-0.018": 0.0,
			"-0.017": 0.0,
			"-0.016": 0.0,
			"-0.015": 0.0,
			"-0.014": 0.0,
			"-0.013": 0.0,
			"-0.012": 0.0,
			"-0.011": 0.0,
			"-0.01": 0.0,
			"-0.009": 0.0,
			"-0.008": 0.0,
			"-0.007": 1.4370537045,
			"-0.006": 14.5237729,
			"-0.005": 30.8946883611,
			"-0.004": 32.4839838825,
			"-0.003": 25.5708262765,
			"-0.002": 18.9238831039,
			"-0.001": 15.9625863406,
			"0.0": 10.4634699761,
			"0.001": 9.82737400525,
			"0.002": 10.5703525202,
			"0.003": 10.6388064502,
			"0.004": 11.676843783,
			"0.005": 12.3050396613,
			"0.006": 9.1899440656,
			"0.007": 3.38233232635,
			"0.008": 2.92792274428,
			"0.009": 1.91047543571,
			"0.01": 2.95303808115,
			"0.011": 3.51611753779,
			"0.012": 4.31443195809,
			"0.013": 5.54565738674,
			"0.014": 2.08395550719,
			"0.015": 0.0607334790352,
			"0.016": 0.0,
			"0.017": 0.0,
			"0.018": 0.0,
			"0.019": 0.0,
			"0.02": 0.0,
			"0.021": 0.0,
			"0.022": 0.0,
			"0.023": 0.0,
			"0.024": 0.0,
			"0.025": 0.0
		}
	}
}
