{
	 "smiles": "OC(=O)CC[C@H]1CC[C@H](CCC(O)=O)C1=O", 
	 "Tm": 394.5, 
	 "num_atms": 32, 
	 "gaussian": { 
		 "optdone": 1, 
		 "sigma_profile": "yes", 
		 "theory": "DFT", 
		 "functional": "B3LYP", 
		 "basiset": "6-31G**", 
		 "properties": { 
			 "R2extent": 6598.8792, 
			 "electric_dipole_moment_norm": 2.80026434645, 
			 "electric_quadrupole_moment_norm": 12.2471956133, 
			 "total_energy": -804.980716539, 
			 "HOMO_LUMO_gap": 0.21771, 
			 "cosmo_polarized_energy": -19.29, 
			 "cosmo_cavitation_energy": 35.43, 
			 "cosmo_dispersion_energy": -24.81, 
			 "cosmo_repulsion_energy": 1.99, 
			 "cosmo_total_nonelectrostatic_energy": 12.61, 
			 "SMD_solvation_energy": 8.12 
		},
		"coords": [
			{
				"x": -0.48368187,
				"y": -2.8961796358,
				"z": -5.5821319026,
				"element": "O" 
			},
			{
				"x": -0.8616586993,
				"y": -2.0244087615,
				"z": -4.6135588551,
				"element": "C" 
			},
			{
				"x": -1.9832564802,
				"y": -1.5728295533,
				"z": -4.5465033784,
				"element": "O" 
			},
			{
				"x": 0.2851562325,
				"y": -1.7071140435,
				"z": -3.6781534615,
				"element": "C" 
			},
			{
				"x": -0.1358840471,
				"y": -0.8338432319,
				"z": -2.4951015623,
				"element": "C" 
			},
			{
				"x": 1.0292309359,
				"y": -0.4775294151,
				"z": -1.5667952342,
				"element": "C" 
			},
			{
				"x": 2.1091969979,
				"y": 0.4816790474,
				"z": -2.1036037153,
				"element": "C" 
			},
			{
				"x": 2.7216696018,
				"y": 1.1074779771,
				"z": -0.8335838717,
				"element": "C" 
			},
			{
				"x": 1.5176649114,
				"y": 1.3310435573,
				"z": 0.1012529347,
				"element": "C" 
			},
			{
				"x": 1.8544807188,
				"y": 1.4543491309,
				"z": 1.5960210204,
				"element": "C" 
			},
			{
				"x": 0.677721269,
				"y": 1.8665987256,
				"z": 2.4884089005,
				"element": "C" 
			},
			{
				"x": 0.2348569625,
				"y": 3.296034308,
				"z": 2.2762474565,
				"element": "C" 
			},
			{
				"x": -0.7521896348,
				"y": 3.6442280169,
				"z": 3.1355235399,
				"element": "O" 
			},
			{
				"x": 0.6776583216,
				"y": 4.0716729354,
				"z": 1.4532469586,
				"element": "O" 
			},
			{
				"x": 0.56515979,
				"y": 0.1859499462,
				"z": -0.2586365462,
				"element": "C" 
			},
			{
				"x": -0.4092736567,
				"y": -0.1640080909,
				"z": 0.3790716722,
				"element": "O" 
			},
			{
				"x": -1.2683851237,
				"y": -3.0356301337,
				"z": -6.1385756321,
				"element": "H" 
			},
			{
				"x": 1.0674231111,
				"y": -1.2241968164,
				"z": -4.2782426941,
				"element": "H" 
			},
			{
				"x": 0.7195141779,
				"y": -2.6570369085,
				"z": -3.3419109696,
				"element": "H" 
			},
			{
				"x": -0.9050125935,
				"y": -1.3463210566,
				"z": -1.9088896305,
				"element": "H" 
			},
			{
				"x": -0.6025335938,
				"y": 0.0838042385,
				"z": -2.8711914607,
				"element": "H" 
			},
			{
				"x": 1.5217893003,
				"y": -1.4103325633,
				"z": -1.2426205264,
				"element": "H" 
			},
			{
				"x": 2.8552791642,
				"y": -0.0138897561,
				"z": -2.7315166871,
				"element": "H" 
			},
			{
				"x": 1.6360287275,
				"y": 1.2634824487,
				"z": -2.7127007217,
				"element": "H" 
			},
			{
				"x": 3.2728818317,
				"y": 2.0301098115,
				"z": -1.0350462201,
				"element": "H" 
			},
			{
				"x": 3.4248009115,
				"y": 0.4009925921,
				"z": -0.3714197052,
				"element": "H" 
			},
			{
				"x": 1.0084129413,
				"y": 2.2549888975,
				"z": -0.2107017625,
				"element": "H" 
			},
			{
				"x": 2.6629605168,
				"y": 2.1859307703,
				"z": 1.7051498453,
				"element": "H" 
			},
			{
				"x": 2.2442264107,
				"y": 0.4940739403,
				"z": 1.9553580987,
				"element": "H" 
			},
			{
				"x": 0.9353416286,
				"y": 1.7580588501,
				"z": 3.5486833534,
				"element": "H" 
			},
			{
				"x": -0.1834828942,
				"y": 1.2134330462,
				"z": 2.3129389369,
				"element": "H" 
			},
			{
				"x": -0.9816958696,
				"y": 4.5647117265,
				"z": 2.9237818203,
				"element": "H" 
			}
		],
		 "valence_orbital": [ 
			{
				"type": "occ",
				"energy": -0.3187,
				"method": "rhf"
			},
			{
				"type": "occ",
				"energy": -0.31616,
				"method": "rhf"
			},
			{
				"type": "occ",
				"energy": -0.27644,
				"method": "rhf"
			},
			{
				"type": "occ",
				"energy": -0.2748,
				"method": "rhf"
			},
			{
				"type": "occ",
				"energy": -0.23828,
				"method": "rhf"
			},
			{
				"type": "unocc",
				"energy": -0.02057,
				"method": "rhf"
			},
			{
				"type": "unocc",
				"energy": 0.00953,
				"method": "rhf"
			},
			{
				"type": "unocc",
				"energy": 0.01147,
				"method": "rhf"
			},
			{
				"type": "unocc",
				"energy": 0.07722,
				"method": "rhf"
			},
			{
				"type": "unocc",
				"energy": 0.08078,
				"method": "rhf"
			}
		],
		"cosmo_sigma_profile": { 
			"-0.025": 0.0,
			"-0.024": 0.0,
			"-0.023": 0.0,
			"-0.022": 0.0,
			"-0.021": 0.0,
			"-0.02": 0.0,
			"-0.019": 0.0192644935835,
			"-0.018": 0.921744827858,
			"-0.017": 1.94732766967,
			"-0.016": 1.93620631176,
			"-0.015": 1.18665557443,
			"-0.014": 1.79190360155,
			"-0.013": 1.39405403807,
			"-0.012": 1.06243494387,
			"-0.011": 1.53172984259,
			"-0.01": 1.44664876233,
			"-0.009": 0.945590906094,
			"-0.008": 0.866544198768,
			"-0.007": 1.82943676847,
			"-0.006": 10.3843151665,
			"-0.005": 19.1104238335,
			"-0.004": 24.8006053889,
			"-0.003": 37.4617178219,
			"-0.002": 29.9228721341,
			"-0.001": 22.2690553824,
			"0.0": 15.691556134,
			"0.001": 9.6691351149,
			"0.002": 9.15748513567,
			"0.003": 7.24331943714,
			"0.004": 6.77935080559,
			"0.005": 8.54591770873,
			"0.006": 6.31426086666,
			"0.007": 6.96279922393,
			"0.008": 5.89072291943,
			"0.009": 9.87723763415,
			"0.01": 7.56304611497,
			"0.011": 8.78421007115,
			"0.012": 11.2400703874,
			"0.013": 1.22809489584,
			"0.014": 0.0,
			"0.015": 0.0,
			"0.016": 0.0,
			"0.017": 0.0,
			"0.018": 0.0,
			"0.019": 0.0,
			"0.02": 0.0,
			"0.021": 0.0,
			"0.022": 0.0,
			"0.023": 0.0,
			"0.024": 0.0,
			"0.025": 0.0
		}
	}
}
