{
	 "smiles": "CN(C)S(=O)(=O)C1=CC=C(NC(=O)CCCl)C=C1", 
	 "Tm": 433.15, 
	 "num_atms": 33, 
	 "gaussian": { 
		 "optdone": 1, 
		 "sigma_profile": "yes", 
		 "theory": "DFT", 
		 "functional": "B3LYP", 
		 "basiset": "6-31G**", 
		 "properties": { 
			 "R2extent": 8831.9753, 
			 "electric_dipole_moment_norm": 5.22977009342, 
			 "electric_quadrupole_moment_norm": 29.866052628, 
			 "total_energy": -1621.71102954, 
			 "HOMO_LUMO_gap": 0.19421, 
			 "cosmo_polarized_energy": -22.9, 
			 "cosmo_cavitation_energy": 39.47, 
			 "cosmo_dispersion_energy": -28.43, 
			 "cosmo_repulsion_energy": 2.18, 
			 "cosmo_total_nonelectrostatic_energy": 13.21, 
			 "SMD_solvation_energy": 5.29 
		},
		"coords": [
			{
				"x": 0.7345599811,
				"y": -1.8471113402,
				"z": -4.0123582522,
				"element": "C" 
			},
			{
				"x": -0.4170542553,
				"y": -2.3291203064,
				"z": -3.2474892053,
				"element": "N" 
			},
			{
				"x": -1.6688750017,
				"y": -1.6089096237,
				"z": -3.4883435385,
				"element": "C" 
			},
			{
				"x": -0.1155299527,
				"y": -2.795230992,
				"z": -1.6513388985,
				"element": "S" 
			},
			{
				"x": 1.1201479884,
				"y": -3.5798339551,
				"z": -1.681946463,
				"element": "O" 
			},
			{
				"x": -1.3760142045,
				"y": -3.3348856721,
				"z": -1.1387322466,
				"element": "O" 
			},
			{
				"x": 0.2341738098,
				"y": -1.296083319,
				"z": -0.7254208818,
				"element": "C" 
			},
			{
				"x": -0.8096510022,
				"y": -0.5891922711,
				"z": -0.1253869376,
				"element": "C" 
			},
			{
				"x": -0.5488519279,
				"y": 0.5965409803,
				"z": 0.5579194276,
				"element": "C" 
			},
			{
				"x": 0.7678260071,
				"y": 1.0712348063,
				"z": 0.6718325447,
				"element": "C" 
			},
			{
				"x": 1.1072580619,
				"y": 2.2675453144,
				"z": 1.3309122963,
				"element": "N" 
			},
			{
				"x": 0.6086414402,
				"y": 2.9096633186,
				"z": 2.454806689,
				"element": "C" 
			},
			{
				"x": 1.1571093314,
				"y": 3.9318515692,
				"z": 2.8426402964,
				"element": "O" 
			},
			{
				"x": -0.5852223285,
				"y": 2.3146150211,
				"z": 3.1882557229,
				"element": "C" 
			},
			{
				"x": -0.667424333,
				"y": 2.8897371538,
				"z": 4.5983520469,
				"element": "C" 
			},
			{
				"x": -2.1330962905,
				"y": 2.2507064118,
				"z": 5.4557256957,
				"element": "Cl" 
			},
			{
				"x": 1.809356076,
				"y": 0.3476098931,
				"z": 0.0623868812,
				"element": "C" 
			},
			{
				"x": 1.5478479526,
				"y": -0.8246876469,
				"z": -0.6354127945,
				"element": "C" 
			},
			{
				"x": 0.9985238672,
				"y": -0.8045955461,
				"z": -3.7748949242,
				"element": "H" 
			},
			{
				"x": 1.5904308734,
				"y": -2.4943209451,
				"z": -3.8231695452,
				"element": "H" 
			},
			{
				"x": 0.4831054059,
				"y": -1.9060894107,
				"z": -5.075260474,
				"element": "H" 
			},
			{
				"x": -1.8934450057,
				"y": -1.6694381553,
				"z": -4.5571501764,
				"element": "H" 
			},
			{
				"x": -1.6111544869,
				"y": -0.5463061712,
				"z": -3.204762316,
				"element": "H" 
			},
			{
				"x": -2.4754791282,
				"y": -2.092053034,
				"z": -2.9377344106,
				"element": "H" 
			},
			{
				"x": -1.8225556124,
				"y": -0.971715572,
				"z": -0.1856250566,
				"element": "H" 
			},
			{
				"x": -1.3751292027,
				"y": 1.1522249164,
				"z": 0.9810491834,
				"element": "H" 
			},
			{
				"x": 1.9656065707,
				"y": 2.7118921417,
				"z": 1.0252949364,
				"element": "H" 
			},
			{
				"x": -1.5035578775,
				"y": 2.5655162932,
				"z": 2.6444020256,
				"element": "H" 
			},
			{
				"x": -0.523634824,
				"y": 1.2226725347,
				"z": 3.2177896796,
				"element": "H" 
			},
			{
				"x": 0.1973466228,
				"y": 2.6104555125,
				"z": 5.1998645085,
				"element": "H" 
			},
			{
				"x": -0.7473538453,
				"y": 3.9746167654,
				"z": 4.5805270102,
				"element": "H" 
			},
			{
				"x": 2.8318243084,
				"y": 0.7022462222,
				"z": 0.1588199832,
				"element": "H" 
			},
			{
				"x": 2.3570709822,
				"y": -1.3961548939,
				"z": -1.076352807,
				"element": "H" 
			}
		],
		 "valence_orbital": [ 
			{
				"type": "occ",
				"energy": -0.30037,
				"method": "rhf"
			},
			{
				"type": "occ",
				"energy": -0.28694,
				"method": "rhf"
			},
			{
				"type": "occ",
				"energy": -0.27875,
				"method": "rhf"
			},
			{
				"type": "occ",
				"energy": -0.26947,
				"method": "rhf"
			},
			{
				"type": "occ",
				"energy": -0.24788,
				"method": "rhf"
			},
			{
				"type": "unocc",
				"energy": -0.05367,
				"method": "rhf"
			},
			{
				"type": "unocc",
				"energy": -0.03839,
				"method": "rhf"
			},
			{
				"type": "unocc",
				"energy": 0.00142,
				"method": "rhf"
			},
			{
				"type": "unocc",
				"energy": 0.0246,
				"method": "rhf"
			},
			{
				"type": "unocc",
				"energy": 0.04943,
				"method": "rhf"
			}
		],
		"cosmo_sigma_profile": { 
			"-0.025": 0.0,
			"-0.024": 0.0,
			"-0.023": 0.0,
			"-0.022": 0.0,
			"-0.021": 0.0,
			"-0.02": 0.0,
			"-0.019": 0.0,
			"-0.018": 0.0,
			"-0.017": 0.0,
			"-0.016": 0.00836191082601,
			"-0.015": 0.704310281058,
			"-0.014": 1.09392517133,
			"-0.013": 1.63778713898,
			"-0.012": 0.755712208131,
			"-0.011": 1.2332896966,
			"-0.01": 2.14966904104,
			"-0.009": 3.31965238185,
			"-0.008": 6.01346184629,
			"-0.007": 13.8199495992,
			"-0.006": 19.1790944783,
			"-0.005": 20.8119238216,
			"-0.004": 26.0043671263,
			"-0.003": 31.8084395581,
			"-0.002": 25.7174544842,
			"-0.001": 13.8944856147,
			"0.0": 14.6487368124,
			"0.001": 17.6509441671,
			"0.002": 19.5716087222,
			"0.003": 11.7868141593,
			"0.004": 8.15457058175,
			"0.005": 10.4261455674,
			"0.006": 15.6347362679,
			"0.007": 9.33901669839,
			"0.008": 4.8821078132,
			"0.009": 5.38654127919,
			"0.01": 7.90598608646,
			"0.011": 10.3315606268,
			"0.012": 8.32089505907,
			"0.013": 2.58569964528,
			"0.014": 0.0,
			"0.015": 0.0,
			"0.016": 0.0,
			"0.017": 0.0,
			"0.018": 0.0,
			"0.019": 0.0,
			"0.02": 0.0,
			"0.021": 0.0,
			"0.022": 0.0,
			"0.023": 0.0,
			"0.024": 0.0,
			"0.025": 0.0
		}
	}
}
