{
	 "smiles": "NC1=NC2=C(N=CN2C2OC(CO)C(O)C2O)C(SCC2=CC=C(C=C2)[N+]([O-])=O)=N1", 
	 "Tm": 477.15, 
	 "num_atms": 48, 
	 "gaussian": { 
		 "optdone": 1, 
		 "sigma_profile": "yes", 
		 "theory": "DFT", 
		 "functional": "B3LYP", 
		 "basiset": "6-31G**", 
		 "properties": { 
			 "R2extent": 17370.1634, 
			 "electric_dipole_moment_norm": 9.66743697057, 
			 "electric_quadrupole_moment_norm": 28.9772203959, 
			 "total_energy": -1836.58462512, 
			 "HOMO_LUMO_gap": 0.13526, 
			 "cosmo_polarized_energy": -31.13, 
			 "cosmo_cavitation_energy": 54.17, 
			 "cosmo_dispersion_energy": -38.13, 
			 "cosmo_repulsion_energy": 2.87, 
			 "cosmo_total_nonelectrostatic_energy": 18.92, 
			 "SMD_solvation_energy": 7.57 
		},
		"coords": [
			{
				"x": -1.0703500813,
				"y": 4.8291718833,
				"z": -2.0732452882,
				"element": "N" 
			},
			{
				"x": -1.1502794966,
				"y": 3.5082386435,
				"z": -1.7382815333,
				"element": "C" 
			},
			{
				"x": -0.0505670455,
				"y": 2.7558432969,
				"z": -1.9394669425,
				"element": "N" 
			},
			{
				"x": -0.2301912383,
				"y": 1.5054552284,
				"z": -1.5226593284,
				"element": "C" 
			},
			{
				"x": -1.3913337895,
				"y": 0.9446311971,
				"z": -0.9524019472,
				"element": "C" 
			},
			{
				"x": -1.1906094745,
				"y": -0.4067504849,
				"z": -0.6924298214,
				"element": "N" 
			},
			{
				"x": 0.0359065734,
				"y": -0.645975459,
				"z": -1.0817455727,
				"element": "C" 
			},
			{
				"x": 0.6779852794,
				"y": 0.4697361402,
				"z": -1.5973399968,
				"element": "N" 
			},
			{
				"x": 2.0377353383,
				"y": 0.582480131,
				"z": -2.1008147136,
				"element": "C" 
			},
			{
				"x": 2.9221369723,
				"y": -0.0655168439,
				"z": -1.2080958686,
				"element": "O" 
			},
			{
				"x": 3.8122167757,
				"y": -0.9406296761,
				"z": -1.9393545968,
				"element": "C" 
			},
			{
				"x": 4.2703748163,
				"y": -2.0316429403,
				"z": -0.9820001964,
				"element": "C" 
			},
			{
				"x": 4.9950807076,
				"y": -1.483393223,
				"z": 0.1044664409,
				"element": "O" 
			},
			{
				"x": 3.0060093801,
				"y": -1.3664907851,
				"z": -3.1661524979,
				"element": "C" 
			},
			{
				"x": 2.1064088332,
				"y": -2.4008694239,
				"z": -2.7856070352,
				"element": "O" 
			},
			{
				"x": 2.2635406459,
				"y": -0.0613020313,
				"z": -3.5027830609,
				"element": "C" 
			},
			{
				"x": 3.1432678894,
				"y": 0.7180634966,
				"z": -4.2917689477,
				"element": "O" 
			},
			{
				"x": -2.472199211,
				"y": 1.837012325,
				"z": -0.8216500783,
				"element": "C" 
			},
			{
				"x": -4.1176788405,
				"y": 1.4860135282,
				"z": -0.2628113967,
				"element": "S" 
			},
			{
				"x": -4.0245403892,
				"y": -0.1391289908,
				"z": 0.6249431791,
				"element": "C" 
			},
			{
				"x": -3.6382823652,
				"y": -0.0170075497,
				"z": 2.0787122943,
				"element": "C" 
			},
			{
				"x": -2.3552536686,
				"y": -0.3885095643,
				"z": 2.5068879799,
				"element": "C" 
			},
			{
				"x": -1.9954602157,
				"y": -0.2868947537,
				"z": 3.8485182534,
				"element": "C" 
			},
			{
				"x": -2.9337896464,
				"y": 0.1909561081,
				"z": 4.7601861106,
				"element": "C" 
			},
			{
				"x": -4.2180079729,
				"y": 0.5677890484,
				"z": 4.367084092,
				"element": "C" 
			},
			{
				"x": -4.5605232374,
				"y": 0.4599482256,
				"z": 3.0244231831,
				"element": "C" 
			},
			{
				"x": -2.5628169847,
				"y": 0.2974214794,
				"z": 6.1782676595,
				"element": "N" 
			},
			{
				"x": -1.423133591,
				"y": -0.0404515201,
				"z": 6.4991744811,
				"element": "O" 
			},
			{
				"x": -3.4139066299,
				"y": 0.718100894,
				"z": 6.962531625,
				"element": "O" 
			},
			{
				"x": -2.3293828461,
				"y": 3.1038227156,
				"z": -1.2155652436,
				"element": "N" 
			},
			{
				"x": -0.2939181391,
				"y": 5.125747264,
				"z": -2.6409196239,
				"element": "H" 
			},
			{
				"x": -1.9321441652,
				"y": 5.3482668624,
				"z": -2.1132621351,
				"element": "H" 
			},
			{
				"x": 0.5413979036,
				"y": -1.5993399201,
				"z": -1.0394934065,
				"element": "H" 
			},
			{
				"x": 2.2423148406,
				"y": 1.658947012,
				"z": -2.1527860857,
				"element": "H" 
			},
			{
				"x": 4.6821235913,
				"y": -0.3612910203,
				"z": -2.2755757527,
				"element": "H" 
			},
			{
				"x": 3.4007763588,
				"y": -2.6126299988,
				"z": -0.6492856293,
				"element": "H" 
			},
			{
				"x": 4.9497591207,
				"y": -2.7117383962,
				"z": -1.5062326311,
				"element": "H" 
			},
			{
				"x": 4.4074485416,
				"y": -0.8490464742,
				"z": 0.5376002582,
				"element": "H" 
			},
			{
				"x": 3.6530615662,
				"y": -1.6689334983,
				"z": -3.9981690017,
				"element": "H" 
			},
			{
				"x": 1.6183043677,
				"y": -2.6858914495,
				"z": -3.5687645206,
				"element": "H" 
			},
			{
				"x": 1.3072538944,
				"y": -0.2475535899,
				"z": -4.0118731281,
				"element": "H" 
			},
			{
				"x": 2.7354309648,
				"y": 1.5797018237,
				"z": -4.4505937753,
				"element": "H" 
			},
			{
				"x": -5.0434419738,
				"y": -0.5251516534,
				"z": 0.5281831909,
				"element": "H" 
			},
			{
				"x": -3.3460094183,
				"y": -0.7954086392,
				"z": 0.0818165533,
				"element": "H" 
			},
			{
				"x": -1.6417034647,
				"y": -0.75599453,
				"z": 1.7766696967,
				"element": "H" 
			},
			{
				"x": -1.0107447635,
				"y": -0.5707708151,
				"z": 4.198243295,
				"element": "H" 
			},
			{
				"x": -4.9175145425,
				"y": 0.930764459,
				"z": 5.1094861296,
				"element": "H" 
			},
			{
				"x": -5.5566511699,
				"y": 0.7521014686,
				"z": 2.7036353336,
				"element": "H" 
			}
		],
		 "valence_orbital": [ 
			{
				"type": "occ",
				"energy": -0.26849,
				"method": "rhf"
			},
			{
				"type": "occ",
				"energy": -0.26649,
				"method": "rhf"
			},
			{
				"type": "occ",
				"energy": -0.25696,
				"method": "rhf"
			},
			{
				"type": "occ",
				"energy": -0.24282,
				"method": "rhf"
			},
			{
				"type": "occ",
				"energy": -0.21691,
				"method": "rhf"
			},
			{
				"type": "unocc",
				"energy": -0.08165,
				"method": "rhf"
			},
			{
				"type": "unocc",
				"energy": -0.04165,
				"method": "rhf"
			},
			{
				"type": "unocc",
				"energy": -0.01986,
				"method": "rhf"
			},
			{
				"type": "unocc",
				"energy": -9e-05,
				"method": "rhf"
			},
			{
				"type": "unocc",
				"energy": 0.00247,
				"method": "rhf"
			}
		],
		"cosmo_sigma_profile": { 
			"-0.025": 0.0,
			"-0.024": 0.0,
			"-0.023": 0.0,
			"-0.022": 0.0,
			"-0.021": 0.0,
			"-0.02": 0.0,
			"-0.019": 0.0,
			"-0.018": 0.00452441278367,
			"-0.017": 0.930467769406,
			"-0.016": 2.26685891565,
			"-0.015": 1.86007542816,
			"-0.014": 2.50910153888,
			"-0.013": 5.43413237989,
			"-0.012": 5.16353742589,
			"-0.011": 3.96120834094,
			"-0.01": 5.32433564044,
			"-0.009": 4.97741380717,
			"-0.008": 8.69258430326,
			"-0.007": 13.7157515433,
			"-0.006": 22.605162424,
			"-0.005": 21.6798540645,
			"-0.004": 19.6259589658,
			"-0.003": 23.5942665094,
			"-0.002": 25.5233027836,
			"-0.001": 31.2455520497,
			"0.0": 30.6999243084,
			"0.001": 35.2107855995,
			"0.002": 28.0163517389,
			"0.003": 17.4205133561,
			"0.004": 17.5310515071,
			"0.005": 18.2254839927,
			"0.006": 15.7595242165,
			"0.007": 19.24211783,
			"0.008": 15.3780911729,
			"0.009": 11.8438032623,
			"0.01": 10.161591973,
			"0.011": 4.15870195012,
			"0.012": 3.69930012874,
			"0.013": 2.9380326313,
			"0.014": 2.36649455861,
			"0.015": 0.166124185891,
			"0.016": 0.0,
			"0.017": 0.0,
			"0.018": 0.0,
			"0.019": 0.0,
			"0.02": 0.0,
			"0.021": 0.0,
			"0.022": 0.0,
			"0.023": 0.0,
			"0.024": 0.0,
			"0.025": 0.0
		}
	}
}
