{
	 "smiles": "CC1CCC2(CCC3(C)C(=CCC4C5(C)CCC(O)C(C)(C)C5CCC34C)C2C1C)C(O)=O", 
	 "Tm": 557.15, 
	 "num_atms": 81, 
	 "gaussian": { 
		 "optdone": 1, 
		 "sigma_profile": "yes", 
		 "theory": "DFT", 
		 "functional": "B3LYP", 
		 "basiset": "6-31G**", 
		 "properties": { 
			 "R2extent": 14511.3515, 
			 "electric_dipole_moment_norm": 1.1151892261, 
			 "electric_quadrupole_moment_norm": 21.5581522172, 
			 "total_energy": -1397.78252812, 
			 "HOMO_LUMO_gap": 0.22989, 
			 "cosmo_polarized_energy": -13.47, 
			 "cosmo_cavitation_energy": 63.27, 
			 "cosmo_dispersion_energy": -41.16, 
			 "cosmo_repulsion_energy": 2.91, 
			 "cosmo_total_nonelectrostatic_energy": 25.02, 
			 "SMD_solvation_energy": 9.77 
		},
		"coords": [
			{
				"x": 1.7946311411,
				"y": -2.4115724353,
				"z": 3.5510156595,
				"element": "C" 
			},
			{
				"x": 1.5964735324,
				"y": -1.870168558,
				"z": 2.1286038531,
				"element": "C" 
			},
			{
				"x": 2.7744870356,
				"y": -0.9905384093,
				"z": 1.6803367306,
				"element": "C" 
			},
			{
				"x": 2.4915667652,
				"y": -0.3646471787,
				"z": 0.3124946195,
				"element": "C" 
			},
			{
				"x": 2.1860685892,
				"y": -1.3941401171,
				"z": -0.7975085404,
				"element": "C" 
			},
			{
				"x": 1.7105060106,
				"y": -0.6318583486,
				"z": -2.0813381206,
				"element": "C" 
			},
			{
				"x": 0.7151239102,
				"y": -1.4433137157,
				"z": -2.9177432555,
				"element": "C" 
			},
			{
				"x": -0.6288734494,
				"y": -1.7154887151,
				"z": -2.1674432309,
				"element": "C" 
			},
			{
				"x": -1.0973719516,
				"y": -3.1320473306,
				"z": -2.6249910835,
				"element": "C" 
			},
			{
				"x": -0.3180352457,
				"y": -1.8919399275,
				"z": -0.6665936601,
				"element": "C" 
			},
			{
				"x": -1.3118533459,
				"y": -1.7951799161,
				"z": 0.2241517386,
				"element": "C" 
			},
			{
				"x": -2.6970614992,
				"y": -1.3869019688,
				"z": -0.1928982614,
				"element": "C" 
			},
			{
				"x": -2.6803435518,
				"y": -0.224173696,
				"z": -1.205987385,
				"element": "C" 
			},
			{
				"x": -2.6156839826,
				"y": 1.2096772467,
				"z": -0.4768028184,
				"element": "C" 
			},
			{
				"x": -4.1102771727,
				"y": 1.6127799946,
				"z": -0.3554635875,
				"element": "C" 
			},
			{
				"x": -2.0025575036,
				"y": 1.1946971832,
				"z": 0.9610506564,
				"element": "C" 
			},
			{
				"x": -1.3622545674,
				"y": 2.5404559741,
				"z": 1.3917475076,
				"element": "C" 
			},
			{
				"x": -1.9880327765,
				"y": 3.7709355697,
				"z": 0.7290293952,
				"element": "C" 
			},
			{
				"x": -1.4979417906,
				"y": 4.9842262258,
				"z": 1.3015813478,
				"element": "O" 
			},
			{
				"x": -1.8334120346,
				"y": 3.7239738363,
				"z": -0.8313030088,
				"element": "C" 
			},
			{
				"x": -2.9659076469,
				"y": 4.547941735,
				"z": -1.4768103748,
				"element": "C" 
			},
			{
				"x": -0.4938070981,
				"y": 4.3874008395,
				"z": -1.2287566349,
				"element": "C" 
			},
			{
				"x": -1.7722246924,
				"y": 2.2247087899,
				"z": -1.2995108367,
				"element": "C" 
			},
			{
				"x": -1.947828541,
				"y": 1.9850997023,
				"z": -2.8030573209,
				"element": "C" 
			},
			{
				"x": -1.1959232701,
				"y": 0.69796124,
				"z": -3.1537998678,
				"element": "C" 
			},
			{
				"x": -1.7741145172,
				"y": -0.5873772547,
				"z": -2.4716814405,
				"element": "C" 
			},
			{
				"x": -2.7804485328,
				"y": -1.131034578,
				"z": -3.5254868887,
				"element": "C" 
			},
			{
				"x": 1.0819136439,
				"y": -2.4177475536,
				"z": -0.3535551899,
				"element": "C" 
			},
			{
				"x": 1.3030855988,
				"y": -2.9813912267,
				"z": 1.0843495221,
				"element": "C" 
			},
			{
				"x": 2.3612226686,
				"y": -4.1050846668,
				"z": 1.1021245147,
				"element": "C" 
			},
			{
				"x": 3.4246684111,
				"y": -2.1709670884,
				"z": -1.2514274079,
				"element": "C" 
			},
			{
				"x": 4.5938770735,
				"y": -1.5351056375,
				"z": -0.986029221,
				"element": "O" 
			},
			{
				"x": 3.4069438754,
				"y": -3.2178607157,
				"z": -1.867972946,
				"element": "O" 
			},
			{
				"x": 1.841307784,
				"y": -1.5881327234,
				"z": 4.2721868428,
				"element": "H" 
			},
			{
				"x": 0.9692548551,
				"y": -3.0683256788,
				"z": 3.8496899499,
				"element": "H" 
			},
			{
				"x": 2.7248206302,
				"y": -2.9812839373,
				"z": 3.6465385818,
				"element": "H" 
			},
			{
				"x": 0.7138430281,
				"y": -1.2161622637,
				"z": 2.1540819405,
				"element": "H" 
			},
			{
				"x": 3.7028975963,
				"y": -1.5744860618,
				"z": 1.647501131,
				"element": "H" 
			},
			{
				"x": 2.9416706694,
				"y": -0.1952385604,
				"z": 2.417724845,
				"element": "H" 
			},
			{
				"x": 1.60524923,
				"y": 0.2765488962,
				"z": 0.4055143748,
				"element": "H" 
			},
			{
				"x": 3.3164256573,
				"y": 0.2814096342,
				"z": -0.0025378676,
				"element": "H" 
			},
			{
				"x": 2.5763977162,
				"y": -0.3390122952,
				"z": -2.6870591186,
				"element": "H" 
			},
			{
				"x": 1.2509788104,
				"y": 0.3014810405,
				"z": -1.7439723659,
				"element": "H" 
			},
			{
				"x": 1.1874002245,
				"y": -2.3994593261,
				"z": -3.166735038,
				"element": "H" 
			},
			{
				"x": 0.5322517989,
				"y": -0.9517818823,
				"z": -3.8768049867,
				"element": "H" 
			},
			{
				"x": -1.1879707956,
				"y": -3.2033364333,
				"z": -3.7124389512,
				"element": "H" 
			},
			{
				"x": -0.3581660378,
				"y": -3.8776291794,
				"z": -2.3184798788,
				"element": "H" 
			},
			{
				"x": -2.0523177927,
				"y": -3.4219366608,
				"z": -2.1817529359,
				"element": "H" 
			},
			{
				"x": -1.1498173702,
				"y": -2.0275701434,
				"z": 1.2723889598,
				"element": "H" 
			},
			{
				"x": -3.3003522271,
				"y": -1.1199487393,
				"z": 0.6804234811,
				"element": "H" 
			},
			{
				"x": -3.2138584547,
				"y": -2.2445660313,
				"z": -0.6481464153,
				"element": "H" 
			},
			{
				"x": -3.684743329,
				"y": -0.2123404739,
				"z": -1.6362286837,
				"element": "H" 
			},
			{
				"x": -4.2730008086,
				"y": 2.4958061047,
				"z": 0.2633018372,
				"element": "H" 
			},
			{
				"x": -4.5637030928,
				"y": 1.7995198776,
				"z": -1.3347500996,
				"element": "H" 
			},
			{
				"x": -4.6715441036,
				"y": 0.7949119713,
				"z": 0.111476259,
				"element": "H" 
			},
			{
				"x": -2.779835759,
				"y": 0.9211941185,
				"z": 1.6839144547,
				"element": "H" 
			},
			{
				"x": -1.2338828227,
				"y": 0.4226136382,
				"z": 1.0289859669,
				"element": "H" 
			},
			{
				"x": -1.4280759244,
				"y": 2.6574912627,
				"z": 2.4785281063,
				"element": "H" 
			},
			{
				"x": -0.2883419412,
				"y": 2.532702434,
				"z": 1.1534533629,
				"element": "H" 
			},
			{
				"x": -3.0532116077,
				"y": 3.7999684989,
				"z": 0.9746986831,
				"element": "H" 
			},
			{
				"x": -0.5331951912,
				"y": 4.9651677588,
				"z": 1.2509009678,
				"element": "H" 
			},
			{
				"x": -2.8251625603,
				"y": 4.6523100967,
				"z": -2.5575929982,
				"element": "H" 
			},
			{
				"x": -2.9719392279,
				"y": 5.5536689239,
				"z": -1.0433163004,
				"element": "H" 
			},
			{
				"x": -3.9519649618,
				"y": 4.1087854163,
				"z": -1.3098545138,
				"element": "H" 
			},
			{
				"x": -0.4999702794,
				"y": 5.4548256984,
				"z": -0.9926843313,
				"element": "H" 
			},
			{
				"x": -0.314499835,
				"y": 4.288833825,
				"z": -2.3036849757,
				"element": "H" 
			},
			{
				"x": 0.3615830884,
				"y": 3.9256620039,
				"z": -0.7190045407,
				"element": "H" 
			},
			{
				"x": -0.7321401775,
				"y": 1.9310204757,
				"z": -1.0936848245,
				"element": "H" 
			},
			{
				"x": -3.0085332429,
				"y": 1.9299357234,
				"z": -3.0795872483,
				"element": "H" 
			},
			{
				"x": -1.5236219888,
				"y": 2.8080474931,
				"z": -3.3890173672,
				"element": "H" 
			},
			{
				"x": -1.1883563529,
				"y": 0.5474935071,
				"z": -4.2400720138,
				"element": "H" 
			},
			{
				"x": -0.1590550492,
				"y": 0.8773181527,
				"z": -2.8725107765,
				"element": "H" 
			},
			{
				"x": -2.2730772185,
				"y": -1.4790242864,
				"z": -4.430280628,
				"element": "H" 
			},
			{
				"x": -3.4558864427,
				"y": -0.3231851006,
				"z": -3.8269767999,
				"element": "H" 
			},
			{
				"x": -3.4009849542,
				"y": -1.9482772617,
				"z": -3.1479171162,
				"element": "H" 
			},
			{
				"x": 1.2161301231,
				"y": -3.2726042391,
				"z": -1.0265781607,
				"element": "H" 
			},
			{
				"x": 0.3600814687,
				"y": -3.4613149902,
				"z": 1.3743917677,
				"element": "H" 
			},
			{
				"x": 2.1626040025,
				"y": -4.8370710485,
				"z": 0.314166751,
				"element": "H" 
			},
			{
				"x": 3.3811870062,
				"y": -3.7395691861,
				"z": 0.9507420547,
				"element": "H" 
			},
			{
				"x": 2.3456817673,
				"y": -4.6352678845,
				"z": 2.0586793681,
				"element": "H" 
			},
			{
				"x": 5.2875290074,
				"y": -2.0886114633,
				"z": -1.3835452138,
				"element": "H" 
			}
		],
		 "valence_orbital": [ 
			{
				"type": "occ",
				"energy": -0.27436,
				"method": "rhf"
			},
			{
				"type": "occ",
				"energy": -0.26966,
				"method": "rhf"
			},
			{
				"type": "occ",
				"energy": -0.26374,
				"method": "rhf"
			},
			{
				"type": "occ",
				"energy": -0.24956,
				"method": "rhf"
			},
			{
				"type": "occ",
				"energy": -0.22289,
				"method": "rhf"
			},
			{
				"type": "unocc",
				"energy": 0.007,
				"method": "rhf"
			},
			{
				"type": "unocc",
				"energy": 0.02334,
				"method": "rhf"
			},
			{
				"type": "unocc",
				"energy": 0.05059,
				"method": "rhf"
			},
			{
				"type": "unocc",
				"energy": 0.06839,
				"method": "rhf"
			},
			{
				"type": "unocc",
				"energy": 0.07595,
				"method": "rhf"
			}
		],
		"cosmo_sigma_profile": { 
			"-0.025": 0.0,
			"-0.024": 0.0,
			"-0.023": 0.0,
			"-0.022": 0.0,
			"-0.021": 0.0,
			"-0.02": 0.0,
			"-0.019": 0.0,
			"-0.018": 0.274126855111,
			"-0.017": 1.06720183323,
			"-0.016": 0.768282467976,
			"-0.015": 0.762489828177,
			"-0.014": 1.08419280935,
			"-0.013": 1.09518394489,
			"-0.012": 1.40940920372,
			"-0.011": 1.51427591413,
			"-0.01": 2.14348602718,
			"-0.009": 1.50720555324,
			"-0.008": 1.51843647877,
			"-0.007": 1.65826492547,
			"-0.006": 2.090918715,
			"-0.005": 2.57128569408,
			"-0.004": 7.58012917979,
			"-0.003": 32.9627614228,
			"-0.002": 78.2881215046,
			"-0.001": 89.3353755565,
			"0.0": 83.582076097,
			"0.001": 70.3454744633,
			"0.002": 44.4565744777,
			"0.003": 10.4143258851,
			"0.004": 7.42100632326,
			"0.005": 6.33819757325,
			"0.006": 5.40767524551,
			"0.007": 3.54467609056,
			"0.008": 4.30601606454,
			"0.009": 3.22263507197,
			"0.01": 2.5700389874,
			"0.011": 3.12337990803,
			"0.012": 4.89643207692,
			"0.013": 2.11417924223,
			"0.014": 1.9952846294,
			"0.015": 1.4101063006,
			"0.016": 0.00883049219431,
			"0.017": 0.0,
			"0.018": 0.0,
			"0.019": 0.0,
			"0.02": 0.0,
			"0.021": 0.0,
			"0.022": 0.0,
			"0.023": 0.0,
			"0.024": 0.0,
			"0.025": 0.0
		}
	}
}
