{
	 "smiles": "OCC(O)COC1=CC=C(Cl)C=C1", 
	 "Tm": 352.15, 
	 "num_atms": 24, 
	 "gaussian": { 
		 "optdone": 1, 
		 "sigma_profile": "yes", 
		 "theory": "DFT", 
		 "functional": "B3LYP", 
		 "basiset": "6-31G**", 
		 "properties": { 
			 "R2extent": 4996.4551, 
			 "electric_dipole_moment_norm": 1.77225110241, 
			 "electric_quadrupole_moment_norm": 15.0487077947, 
			 "total_energy": -1035.42362766, 
			 "HOMO_LUMO_gap": 0.20599, 
			 "cosmo_polarized_energy": -12.23, 
			 "cosmo_cavitation_energy": 29.48, 
			 "cosmo_dispersion_energy": -21.56, 
			 "cosmo_repulsion_energy": 1.74, 
			 "cosmo_total_nonelectrostatic_energy": 9.66, 
			 "SMD_solvation_energy": 4.86 
		},
		"coords": [
			{
				"x": 4.0495836807,
				"y": 1.9381748438,
				"z": -1.3196828643,
				"element": "O" 
			},
			{
				"x": 3.1162729958,
				"y": 0.9466947986,
				"z": -0.8857756447,
				"element": "C" 
			},
			{
				"x": 2.2529550043,
				"y": 1.5054634575,
				"z": 0.2475216715,
				"element": "C" 
			},
			{
				"x": 3.0825179551,
				"y": 2.0421332933,
				"z": 1.2619454432,
				"element": "O" 
			},
			{
				"x": 1.3885655721,
				"y": 0.4333318121,
				"z": 0.9138490232,
				"element": "C" 
			},
			{
				"x": 0.4130980137,
				"y": -0.1038737689,
				"z": 0.0222646243,
				"element": "O" 
			},
			{
				"x": -0.7828256725,
				"y": 0.5376506955,
				"z": -0.1495958619,
				"element": "C" 
			},
			{
				"x": -1.1517094182,
				"y": 1.7396193698,
				"z": 0.4668556816,
				"element": "C" 
			},
			{
				"x": -2.4120967372,
				"y": 2.29107957,
				"z": 0.2194355719,
				"element": "C" 
			},
			{
				"x": -3.2957167076,
				"y": 1.6482909301,
				"z": -0.6411894359,
				"element": "C" 
			},
			{
				"x": -4.8793134679,
				"y": 2.3499730755,
				"z": -0.9526745112,
				"element": "Cl" 
			},
			{
				"x": -2.9357922946,
				"y": 0.4507036932,
				"z": -1.2635137185,
				"element": "C" 
			},
			{
				"x": -1.6839767126,
				"y": -0.0996241193,
				"z": -1.0156694513,
				"element": "C" 
			},
			{
				"x": 3.5699056827,
				"y": 2.5904346719,
				"z": -1.8479135787,
				"element": "H" 
			},
			{
				"x": 2.4941511536,
				"y": 0.573813358,
				"z": -1.7088390638,
				"element": "H" 
			},
			{
				"x": 3.7219250445,
				"y": 0.1167577257,
				"z": -0.5065256688,
				"element": "H" 
			},
			{
				"x": 1.5943490544,
				"y": 2.2879085315,
				"z": -0.172308911,
				"element": "H" 
			},
			{
				"x": 3.8325708039,
				"y": 2.4421455596,
				"z": 0.7937366581,
				"element": "H" 
			},
			{
				"x": 2.017019678,
				"y": -0.4124812335,
				"z": 1.2073769831,
				"element": "H" 
			},
			{
				"x": 0.9281865178,
				"y": 0.8358157348,
				"z": 1.8225974712,
				"element": "H" 
			},
			{
				"x": -0.4766355213,
				"y": 2.2615029968,
				"z": 1.1343220003,
				"element": "H" 
			},
			{
				"x": -2.6985404356,
				"y": 3.2219357181,
				"z": 0.6965087223,
				"element": "H" 
			},
			{
				"x": -3.6306327459,
				"y": -0.0455187079,
				"z": -1.9320830347,
				"element": "H" 
			},
			{
				"x": -1.3833614432,
				"y": -1.031732006,
				"z": -1.4824421057,
				"element": "H" 
			}
		],
		 "valence_orbital": [ 
			{
				"type": "occ",
				"energy": -0.30991,
				"method": "rhf"
			},
			{
				"type": "occ",
				"energy": -0.295,
				"method": "rhf"
			},
			{
				"type": "occ",
				"energy": -0.27242,
				"method": "rhf"
			},
			{
				"type": "occ",
				"energy": -0.26463,
				"method": "rhf"
			},
			{
				"type": "occ",
				"energy": -0.22271,
				"method": "rhf"
			},
			{
				"type": "unocc",
				"energy": -0.01672,
				"method": "rhf"
			},
			{
				"type": "unocc",
				"energy": -0.00119,
				"method": "rhf"
			},
			{
				"type": "unocc",
				"energy": 0.03148,
				"method": "rhf"
			},
			{
				"type": "unocc",
				"energy": 0.05059,
				"method": "rhf"
			},
			{
				"type": "unocc",
				"energy": 0.09248,
				"method": "rhf"
			}
		],
		"cosmo_sigma_profile": { 
			"-0.025": 0.0,
			"-0.024": 0.0,
			"-0.023": 0.0,
			"-0.022": 0.0,
			"-0.021": 0.0,
			"-0.02": 0.0,
			"-0.019": 0.0,
			"-0.018": 0.0,
			"-0.017": 0.0778781666295,
			"-0.016": 0.904338951726,
			"-0.015": 1.13864440979,
			"-0.014": 1.17210910858,
			"-0.013": 1.12688477265,
			"-0.012": 0.873062302731,
			"-0.011": 1.31606540006,
			"-0.01": 1.15468954717,
			"-0.009": 1.71670007512,
			"-0.008": 3.64301262242,
			"-0.007": 8.14763043829,
			"-0.006": 13.8103936372,
			"-0.005": 17.3655985042,
			"-0.004": 14.5472198176,
			"-0.003": 14.7008744667,
			"-0.002": 13.8529370601,
			"-0.001": 12.9000749778,
			"0.0": 13.2198492527,
			"0.001": 13.9348149901,
			"0.002": 17.9894974234,
			"0.003": 20.2442656712,
			"0.004": 22.5962730323,
			"0.005": 13.4435431036,
			"0.006": 3.78411690653,
			"0.007": 2.73186081287,
			"0.008": 2.90901101544,
			"0.009": 3.62831154285,
			"0.01": 2.86819139476,
			"0.011": 1.34447523191,
			"0.012": 2.73548406527,
			"0.013": 3.53927246526,
			"0.014": 1.56582704938,
			"0.015": 0.0262397666318,
			"0.016": 0.0,
			"0.017": 0.0,
			"0.018": 0.0,
			"0.019": 0.0,
			"0.02": 0.0,
			"0.021": 0.0,
			"0.022": 0.0,
			"0.023": 0.0,
			"0.024": 0.0,
			"0.025": 0.0
		}
	}
}
