{
	 "smiles": "OC1(CCN(CCCC(=O)C2=CC=C(F)C=C2)CC1)C1=CC=C(Br)C=C1", 
	 "Tm": 428.15, 
	 "num_atms": 49, 
	 "gaussian": { 
		 "optdone": 1, 
		 "sigma_profile": "yes", 
		 "theory": "DFT", 
		 "functional": "B3LYP", 
		 "basiset": "6-31G**", 
		 "properties": { 
			 "R2extent": 16210.6731, 
			 "electric_dipole_moment_norm": 3.29253018969, 
			 "electric_quadrupole_moment_norm": 8.764307514, 
			 "total_energy": -3690.52587261, 
			 "HOMO_LUMO_gap": 0.16425, 
			 "cosmo_polarized_energy": -15.36, 
			 "cosmo_cavitation_energy": 52.89, 
			 "cosmo_dispersion_energy": -35.3, 
			 "cosmo_repulsion_energy": 2.63, 
			 "cosmo_total_nonelectrostatic_energy": 20.22, 
			 "SMD_solvation_energy": 7.68 
		},
		"coords": [
			{
				"x": 2.4166492166,
				"y": -1.0772934875,
				"z": 3.2131018367,
				"element": "O" 
			},
			{
				"x": 1.6384374561,
				"y": -1.1423941323,
				"z": 2.009605696,
				"element": "C" 
			},
			{
				"x": 1.1022105443,
				"y": -2.5869928807,
				"z": 1.9907318205,
				"element": "C" 
			},
			{
				"x": 0.0441914458,
				"y": -2.848330891,
				"z": 0.9082233821,
				"element": "C" 
			},
			{
				"x": -0.8565764309,
				"y": -1.6959903687,
				"z": 0.6914887746,
				"element": "N" 
			},
			{
				"x": -2.1566802348,
				"y": -2.1360238374,
				"z": 0.1815211251,
				"element": "C" 
			},
			{
				"x": -2.9820125592,
				"y": -1.039652554,
				"z": -0.5047613193,
				"element": "C" 
			},
			{
				"x": -2.3054275315,
				"y": -0.4674051959,
				"z": -1.7675124852,
				"element": "C" 
			},
			{
				"x": -3.1954213765,
				"y": 0.5559044458,
				"z": -2.4603017394,
				"element": "C" 
			},
			{
				"x": -3.9360028064,
				"y": 0.2040844393,
				"z": -3.3687301595,
				"element": "O" 
			},
			{
				"x": -3.195385232,
				"y": 1.981847501,
				"z": -1.9964140488,
				"element": "C" 
			},
			{
				"x": -2.3515114726,
				"y": 2.4658759536,
				"z": -0.9837745337,
				"element": "C" 
			},
			{
				"x": -2.3976739531,
				"y": 3.8028678069,
				"z": -0.5929636826,
				"element": "C" 
			},
			{
				"x": -3.2976832773,
				"y": 4.6513340744,
				"z": -1.2287859933,
				"element": "C" 
			},
			{
				"x": -3.3468638249,
				"y": 5.9436490692,
				"z": -0.8565435035,
				"element": "F" 
			},
			{
				"x": -4.1494090056,
				"y": 4.2076365877,
				"z": -2.2382018217,
				"element": "C" 
			},
			{
				"x": -4.091351627,
				"y": 2.8716840286,
				"z": -2.6146849018,
				"element": "C" 
			},
			{
				"x": -0.9329067541,
				"y": -0.8382418655,
				"z": 1.8740104145,
				"element": "C" 
			},
			{
				"x": 0.4257692704,
				"y": -0.1598628834,
				"z": 2.1138051937,
				"element": "C" 
			},
			{
				"x": 2.5364314908,
				"y": -0.8744656312,
				"z": 0.79178918,
				"element": "C" 
			},
			{
				"x": 2.0063468862,
				"y": -0.5549371659,
				"z": -0.4670072873,
				"element": "C" 
			},
			{
				"x": 2.8360916561,
				"y": -0.3410243572,
				"z": -1.5678897585,
				"element": "C" 
			},
			{
				"x": 4.2165625455,
				"y": -0.4474548612,
				"z": -1.412415775,
				"element": "C" 
			},
			{
				"x": 5.3624916776,
				"y": -0.1429868615,
				"z": -2.9137360193,
				"element": "Br" 
			},
			{
				"x": 4.7715925919,
				"y": -0.7771634569,
				"z": -0.1787413526,
				"element": "C" 
			},
			{
				"x": 3.9279693307,
				"y": -0.9933617272,
				"z": 0.9116284953,
				"element": "C" 
			},
			{
				"x": 2.7864921006,
				"y": -0.1851008775,
				"z": 3.2724146344,
				"element": "H" 
			},
			{
				"x": 0.6780719275,
				"y": -2.7690653874,
				"z": 2.9838119994,
				"element": "H" 
			},
			{
				"x": 1.9348506323,
				"y": -3.2861413689,
				"z": 1.8707733199,
				"element": "H" 
			},
			{
				"x": -0.5277870974,
				"y": -3.741555244,
				"z": 1.2136502877,
				"element": "H" 
			},
			{
				"x": 0.5241067474,
				"y": -3.0909324654,
				"z": -0.0478640441,
				"element": "H" 
			},
			{
				"x": -1.9653068974,
				"y": -2.9288699522,
				"z": -0.5516531245,
				"element": "H" 
			},
			{
				"x": -2.7658293619,
				"y": -2.5961705266,
				"z": 0.9842463734,
				"element": "H" 
			},
			{
				"x": -3.9477282103,
				"y": -1.4744437637,
				"z": -0.7883852164,
				"element": "H" 
			},
			{
				"x": -3.210970287,
				"y": -0.2308163729,
				"z": 0.1990246339,
				"element": "H" 
			},
			{
				"x": -2.1408653373,
				"y": -1.2744058754,
				"z": -2.4876940609,
				"element": "H" 
			},
			{
				"x": -1.3302357345,
				"y": -0.0480783624,
				"z": -1.5050601525,
				"element": "H" 
			},
			{
				"x": -1.6470851157,
				"y": 1.8038671538,
				"z": -0.491835446,
				"element": "H" 
			},
			{
				"x": -1.7520206301,
				"y": 4.1939764973,
				"z": 0.1856223225,
				"element": "H" 
			},
			{
				"x": -4.8344419554,
				"y": 4.9065925121,
				"z": -2.7058100335,
				"element": "H" 
			},
			{
				"x": -4.7356019035,
				"y": 2.4832262419,
				"z": -3.3960189196,
				"element": "H" 
			},
			{
				"x": -1.6912032018,
				"y": -0.0676626374,
				"z": 1.7081296337,
				"element": "H" 
			},
			{
				"x": -1.2557521684,
				"y": -1.3966960929,
				"z": 2.7734418854,
				"element": "H" 
			},
			{
				"x": 0.4352511284,
				"y": 0.2631485884,
				"z": 3.1237293225,
				"element": "H" 
			},
			{
				"x": 0.5478706714,
				"y": 0.6681274233,
				"z": 1.408706455,
				"element": "H" 
			},
			{
				"x": 0.9291244491,
				"y": -0.4972741769,
				"z": -0.5907393805,
				"element": "H" 
			},
			{
				"x": 2.4138806109,
				"y": -0.0942094309,
				"z": -2.5356864014,
				"element": "H" 
			},
			{
				"x": 5.8467050176,
				"y": -0.8660685274,
				"z": -0.069487039,
				"element": "H" 
			},
			{
				"x": 4.35443659,
				"y": -1.263549104,
				"z": 1.8714414136,
				"element": "H" 
			}
		],
		 "valence_orbital": [ 
			{
				"type": "occ",
				"energy": -0.26162,
				"method": "rhf"
			},
			{
				"type": "occ",
				"energy": -0.25637,
				"method": "rhf"
			},
			{
				"type": "occ",
				"energy": -0.24838,
				"method": "rhf"
			},
			{
				"type": "occ",
				"energy": -0.23781,
				"method": "rhf"
			},
			{
				"type": "occ",
				"energy": -0.22211,
				"method": "rhf"
			},
			{
				"type": "unocc",
				"energy": -0.05786,
				"method": "rhf"
			},
			{
				"type": "unocc",
				"energy": -0.02287,
				"method": "rhf"
			},
			{
				"type": "unocc",
				"energy": -0.01563,
				"method": "rhf"
			},
			{
				"type": "unocc",
				"energy": -0.01397,
				"method": "rhf"
			},
			{
				"type": "unocc",
				"energy": 0.00941,
				"method": "rhf"
			}
		],
		"cosmo_sigma_profile": { 
			"-0.025": 0.0,
			"-0.024": 0.0,
			"-0.023": 0.0,
			"-0.022": 0.0,
			"-0.021": 0.0,
			"-0.02": 0.0,
			"-0.019": 0.0,
			"-0.018": 0.0,
			"-0.017": 0.0,
			"-0.016": 0.0,
			"-0.015": 0.475590492276,
			"-0.014": 0.896934411465,
			"-0.013": 0.849170231019,
			"-0.012": 0.711831798433,
			"-0.011": 0.801687354777,
			"-0.01": 0.849567702376,
			"-0.009": 1.3402631972,
			"-0.008": 1.90880269673,
			"-0.007": 7.31481753128,
			"-0.006": 10.3873200523,
			"-0.005": 20.0556058589,
			"-0.004": 28.0829950645,
			"-0.003": 38.9274769651,
			"-0.002": 54.9068655749,
			"-0.001": 46.3520266605,
			"0.0": 36.9190805068,
			"0.001": 29.6575058626,
			"0.002": 32.2132166981,
			"0.003": 32.6609008432,
			"0.004": 32.3677565551,
			"0.005": 15.8136086703,
			"0.006": 3.30625500493,
			"0.007": 2.20737002845,
			"0.008": 2.19341939724,
			"0.009": 3.2555713919,
			"0.01": 2.22098667845,
			"0.011": 3.96702479906,
			"0.012": 4.92428558679,
			"0.013": 3.72817504714,
			"0.014": 1.27830250019,
			"0.015": 0.0,
			"0.016": 0.0,
			"0.017": 0.0,
			"0.018": 0.0,
			"0.019": 0.0,
			"0.02": 0.0,
			"0.021": 0.0,
			"0.022": 0.0,
			"0.023": 0.0,
			"0.024": 0.0,
			"0.025": 0.0
		}
	}
}
