{
	 "smiles": "ClC1=NC(=NO1)C1=CC(Cl)=CC=C1", 
	 "Tm": 318.15, 
	 "num_atms": 17, 
	 "gaussian": { 
		 "optdone": 1, 
		 "sigma_profile": "yes", 
		 "theory": "DFT", 
		 "functional": "B3LYP", 
		 "basiset": "6-31G**", 
		 "properties": { 
			 "R2extent": 5421.2343, 
			 "electric_dipole_moment_norm": 0.956515540909, 
			 "electric_quadrupole_moment_norm": 9.95334947945, 
			 "total_energy": -1412.32377339, 
			 "HOMO_LUMO_gap": 0.1891, 
			 "cosmo_polarized_energy": -5.65, 
			 "cosmo_cavitation_energy": 26.45, 
			 "cosmo_dispersion_energy": -20.08, 
			 "cosmo_repulsion_energy": 1.59, 
			 "cosmo_total_nonelectrostatic_energy": 7.95, 
			 "SMD_solvation_energy": 2.61 
		},
		"coords": [
			{
				"x": -3.6933416914,
				"y": 3.9150871395,
				"z": -3.0829893054,
				"element": "Cl" 
			},
			{
				"x": -2.6516883046,
				"y": 3.1656462646,
				"z": -1.9609641372,
				"element": "C" 
			},
			{
				"x": -2.2023849108,
				"y": 1.9540059064,
				"z": -1.9874480198,
				"element": "N" 
			},
			{
				"x": -1.4225006251,
				"y": 1.9248182459,
				"z": -0.8438384477,
				"element": "C" 
			},
			{
				"x": -1.4029423366,
				"y": 3.0551487987,
				"z": -0.1691816304,
				"element": "N" 
			},
			{
				"x": -2.236159394,
				"y": 3.9026496529,
				"z": -0.9242885347,
				"element": "O" 
			},
			{
				"x": -0.6785890412,
				"y": 0.7312733,
				"z": -0.4204026545,
				"element": "C" 
			},
			{
				"x": -0.7553664379,
				"y": -0.4313058563,
				"z": -1.1989436226,
				"element": "C" 
			},
			{
				"x": -0.0494551692,
				"y": -1.5614476371,
				"z": -0.7956156261,
				"element": "C" 
			},
			{
				"x": -0.1423563709,
				"y": -3.0213681601,
				"z": -1.7678942237,
				"element": "Cl" 
			},
			{
				"x": 0.7284164393,
				"y": -1.5587292224,
				"z": 0.3619571146,
				"element": "C" 
			},
			{
				"x": 0.7961994602,
				"y": -0.3928870173,
				"z": 1.12890444,
				"element": "C" 
			},
			{
				"x": 0.0998154105,
				"y": 0.7497841467,
				"z": 0.7469967049,
				"element": "C" 
			},
			{
				"x": -1.3570178672,
				"y": -0.4425564557,
				"z": -2.0996147888,
				"element": "H" 
			},
			{
				"x": 1.2689792533,
				"y": -2.4518153261,
				"z": 0.6549406295,
				"element": "H" 
			},
			{
				"x": 1.3993856243,
				"y": -0.3822494728,
				"z": 2.0314050029,
				"element": "H" 
			},
			{
				"x": 0.1519059613,
				"y": 1.6550456931,
				"z": 1.341777099,
				"element": "H" 
			}
		],
		 "valence_orbital": [ 
			{
				"type": "occ",
				"energy": -0.32015,
				"method": "rhf"
			},
			{
				"type": "occ",
				"energy": -0.3182,
				"method": "rhf"
			},
			{
				"type": "occ",
				"energy": -0.30654,
				"method": "rhf"
			},
			{
				"type": "occ",
				"energy": -0.26916,
				"method": "rhf"
			},
			{
				"type": "occ",
				"energy": -0.25578,
				"method": "rhf"
			},
			{
				"type": "unocc",
				"energy": -0.06668,
				"method": "rhf"
			},
			{
				"type": "unocc",
				"energy": -0.03066,
				"method": "rhf"
			},
			{
				"type": "unocc",
				"energy": -0.02001,
				"method": "rhf"
			},
			{
				"type": "unocc",
				"energy": -0.00013,
				"method": "rhf"
			},
			{
				"type": "unocc",
				"energy": 0.02229,
				"method": "rhf"
			}
		],
		"cosmo_sigma_profile": { 
			"-0.025": 0.0,
			"-0.024": 0.0,
			"-0.023": 0.0,
			"-0.022": 0.0,
			"-0.021": 0.0,
			"-0.02": 0.0,
			"-0.019": 0.0,
			"-0.018": 0.0,
			"-0.017": 0.0,
			"-0.016": 0.0,
			"-0.015": 0.0,
			"-0.014": 0.0,
			"-0.013": 0.0,
			"-0.012": 0.0,
			"-0.011": 0.0,
			"-0.01": 0.0,
			"-0.009": 0.0,
			"-0.008": 1.48646868169,
			"-0.007": 6.96082212606,
			"-0.006": 11.3072724594,
			"-0.005": 11.9727155894,
			"-0.004": 10.6477714526,
			"-0.003": 13.1378387567,
			"-0.002": 14.3227236499,
			"-0.001": 20.9756094928,
			"0.0": 27.4677973057,
			"0.001": 29.8066167157,
			"0.002": 22.3809426717,
			"0.003": 12.6025224154,
			"0.004": 15.1688095388,
			"0.005": 8.56107461287,
			"0.006": 2.8702419959,
			"0.007": 2.44750863425,
			"0.008": 2.59456944914,
			"0.009": 2.00896074457,
			"0.01": 1.77993231668,
			"0.011": 0.83900517852,
			"0.012": 0.00786702726246,
			"0.013": 0.0,
			"0.014": 0.0,
			"0.015": 0.0,
			"0.016": 0.0,
			"0.017": 0.0,
			"0.018": 0.0,
			"0.019": 0.0,
			"0.02": 0.0,
			"0.021": 0.0,
			"0.022": 0.0,
			"0.023": 0.0,
			"0.024": 0.0,
			"0.025": 0.0
		}
	}
}
