{
	 "smiles": "CC1=CC(O)=C(C=C1)C(C)(C)C", 
	 "Tm": 319.65, 
	 "num_atms": 28, 
	 "gaussian": { 
		 "optdone": 1, 
		 "sigma_profile": "yes", 
		 "theory": "DFT", 
		 "functional": "B3LYP", 
		 "basiset": "6-31G**", 
		 "properties": { 
			 "R2extent": 2534.4468, 
			 "electric_dipole_moment_norm": 1.62044262163, 
			 "electric_quadrupole_moment_norm": 9.74764708019, 
			 "total_energy": -504.05369179, 
			 "HOMO_LUMO_gap": 0.21667, 
			 "cosmo_polarized_energy": -6.9, 
			 "cosmo_cavitation_energy": 28.73, 
			 "cosmo_dispersion_energy": -20.82, 
			 "cosmo_repulsion_energy": 1.65, 
			 "cosmo_total_nonelectrostatic_energy": 9.55, 
			 "SMD_solvation_energy": 5.48 
		},
		"coords": [
			{
				"x": 1.0274192747,
				"y": -2.9110017975,
				"z": 2.3247522123,
				"element": "C" 
			},
			{
				"x": 0.7725579531,
				"y": -1.6615324718,
				"z": 1.5156850184,
				"element": "C" 
			},
			{
				"x": 0.5121081741,
				"y": -0.4414264795,
				"z": 2.1492299914,
				"element": "C" 
			},
			{
				"x": 0.2808544103,
				"y": 0.7277149794,
				"z": 1.4227264964,
				"element": "C" 
			},
			{
				"x": 0.0287005474,
				"y": 1.9040668899,
				"z": 2.0884630965,
				"element": "O" 
			},
			{
				"x": 0.2977332883,
				"y": 0.7369598773,
				"z": 0.0075560205,
				"element": "C" 
			},
			{
				"x": 0.5597675962,
				"y": -0.4964452872,
				"z": -0.6005702884,
				"element": "C" 
			},
			{
				"x": 0.791997516,
				"y": -1.6702209608,
				"z": 0.1214881476,
				"element": "C" 
			},
			{
				"x": 0.0433006131,
				"y": 2.0204513796,
				"z": -0.8082095253,
				"element": "C" 
			},
			{
				"x": 1.1130455424,
				"y": 3.0873338968,
				"z": -0.4669569185,
				"element": "C" 
			},
			{
				"x": 0.1174786323,
				"y": 1.7580479013,
				"z": -2.3259094035,
				"element": "C" 
			},
			{
				"x": -1.3697234421,
				"y": 2.5746980775,
				"z": -0.4996717071,
				"element": "C" 
			},
			{
				"x": 0.2064585904,
				"y": -3.1121888403,
				"z": 3.0225961454,
				"element": "H" 
			},
			{
				"x": 1.9423728615,
				"y": -2.821349449,
				"z": 2.9226454814,
				"element": "H" 
			},
			{
				"x": 1.138265195,
				"y": -3.7857242835,
				"z": 1.6782311746,
				"element": "H" 
			},
			{
				"x": 0.4872670356,
				"y": -0.3953021627,
				"z": 3.2382834947,
				"element": "H" 
			},
			{
				"x": 0.0518134217,
				"y": 1.7311289109,
				"z": 3.0384264065,
				"element": "H" 
			},
			{
				"x": 0.585206284,
				"y": -0.5557283552,
				"z": -1.6820461376,
				"element": "H" 
			},
			{
				"x": 0.9890302665,
				"y": -2.5966139969,
				"z": -0.4112317094,
				"element": "H" 
			},
			{
				"x": 0.9348598693,
				"y": 3.9970913903,
				"z": -1.0521235207,
				"element": "H" 
			},
			{
				"x": 1.0944979086,
				"y": 3.3523463066,
				"z": 0.5910158077,
				"element": "H" 
			},
			{
				"x": 2.1157938159,
				"y": 2.7209275729,
				"z": -0.7126461624,
				"element": "H" 
			},
			{
				"x": -0.0681583908,
				"y": 2.6939079982,
				"z": -2.8628718275,
				"element": "H" 
			},
			{
				"x": 1.1032244306,
				"y": 1.3930753718,
				"z": -2.6332030892,
				"element": "H" 
			},
			{
				"x": -0.6357198938,
				"y": 1.0349548112,
				"z": -2.6562949144,
				"element": "H" 
			},
			{
				"x": -1.5518489727,
				"y": 3.4833661663,
				"z": -1.0853175025,
				"element": "H" 
			},
			{
				"x": -2.1387907122,
				"y": 1.8422029747,
				"z": -0.7681833881,
				"element": "H" 
			},
			{
				"x": -1.4842118153,
				"y": 2.8203595796,
				"z": 0.5569366012,
				"element": "H" 
			}
		],
		 "valence_orbital": [ 
			{
				"type": "occ",
				"energy": -0.31313,
				"method": "rhf"
			},
			{
				"type": "occ",
				"energy": -0.31073,
				"method": "rhf"
			},
			{
				"type": "occ",
				"energy": -0.30507,
				"method": "rhf"
			},
			{
				"type": "occ",
				"energy": -0.23416,
				"method": "rhf"
			},
			{
				"type": "occ",
				"energy": -0.21195,
				"method": "rhf"
			},
			{
				"type": "unocc",
				"energy": 0.00472,
				"method": "rhf"
			},
			{
				"type": "unocc",
				"energy": 0.01979,
				"method": "rhf"
			},
			{
				"type": "unocc",
				"energy": 0.06996,
				"method": "rhf"
			},
			{
				"type": "unocc",
				"energy": 0.10139,
				"method": "rhf"
			},
			{
				"type": "unocc",
				"energy": 0.10428,
				"method": "rhf"
			}
		],
		"cosmo_sigma_profile": { 
			"-0.025": 0.0,
			"-0.024": 0.0,
			"-0.023": 0.0,
			"-0.022": 0.0,
			"-0.021": 0.0,
			"-0.02": 0.0,
			"-0.019": 0.0,
			"-0.018": 0.095478147657,
			"-0.017": 0.776756319864,
			"-0.016": 1.22448722868,
			"-0.015": 0.360841802737,
			"-0.014": 1.06364749786,
			"-0.013": 1.41614582026,
			"-0.012": 1.00882550548,
			"-0.011": 0.611743443765,
			"-0.01": 0.820023226204,
			"-0.009": 1.59344100329,
			"-0.008": 0.819678259185,
			"-0.007": 1.0350376702,
			"-0.006": 1.30490079502,
			"-0.005": 1.99522756431,
			"-0.004": 10.3003484884,
			"-0.003": 18.3638534187,
			"-0.002": 29.1711973156,
			"-0.001": 24.4123418755,
			"0.0": 27.1468174771,
			"0.001": 25.7085233744,
			"0.002": 24.1024364689,
			"0.003": 10.2509696498,
			"0.004": 11.5229608723,
			"0.005": 9.90175185434,
			"0.006": 10.5326627487,
			"0.007": 7.29444377763,
			"0.008": 1.07255612822,
			"0.009": 0.063668670847,
			"0.01": 0.0,
			"0.011": 0.0,
			"0.012": 0.0,
			"0.013": 0.0,
			"0.014": 0.0,
			"0.015": 0.0,
			"0.016": 0.0,
			"0.017": 0.0,
			"0.018": 0.0,
			"0.019": 0.0,
			"0.02": 0.0,
			"0.021": 0.0,
			"0.022": 0.0,
			"0.023": 0.0,
			"0.024": 0.0,
			"0.025": 0.0
		}
	}
}
