{
	 "smiles": "CCC(=O)C1=CC=C2SC3=C(C=CC=C3)N(CCCN(C)C)C2=C1", 
	 "Tm": 342.65, 
	 "num_atms": 48, 
	 "gaussian": { 
		 "optdone": 1, 
		 "sigma_profile": "yes", 
		 "theory": "DFT", 
		 "functional": "B3LYP", 
		 "basiset": "6-31G**", 
		 "properties": { 
			 "R2extent": 10662.3276, 
			 "electric_dipole_moment_norm": 0.649368069742, 
			 "electric_quadrupole_moment_norm": 16.3521025064, 
			 "total_energy": -1359.50669926, 
			 "HOMO_LUMO_gap": 0.13488, 
			 "cosmo_polarized_energy": -11.63, 
			 "cosmo_cavitation_energy": 50.21, 
			 "cosmo_dispersion_energy": -34.62, 
			 "cosmo_repulsion_energy": 2.61, 
			 "cosmo_total_nonelectrostatic_energy": 18.2, 
			 "SMD_solvation_energy": 6.62 
		},
		"coords": [
			{
				"x": 4.6124757217,
				"y": 0.5312704967,
				"z": -3.6094125,
				"element": "C" 
			},
			{
				"x": 4.5048704493,
				"y": -0.4275101863,
				"z": -2.40779876,
				"element": "C" 
			},
			{
				"x": 3.4601455441,
				"y": 0.0436343395,
				"z": -1.4021804754,
				"element": "C" 
			},
			{
				"x": 3.8074134082,
				"y": 0.6876866938,
				"z": -0.4203793963,
				"element": "O" 
			},
			{
				"x": 2.0098459958,
				"y": -0.2489957602,
				"z": -1.6437736571,
				"element": "C" 
			},
			{
				"x": 1.5472164984,
				"y": -1.0176451096,
				"z": -2.7201259546,
				"element": "C" 
			},
			{
				"x": 0.1794089754,
				"y": -1.2343305895,
				"z": -2.8773190329,
				"element": "C" 
			},
			{
				"x": -0.7301904393,
				"y": -0.722289162,
				"z": -1.9514330825,
				"element": "C" 
			},
			{
				"x": -2.4588434347,
				"y": -1.1096762189,
				"z": -2.0846217377,
				"element": "S" 
			},
			{
				"x": -3.113928996,
				"y": 0.4335175338,
				"z": -1.4748839679,
				"element": "C" 
			},
			{
				"x": -2.4361349992,
				"y": 1.1019169693,
				"z": -0.4362482794,
				"element": "C" 
			},
			{
				"x": -2.9915621199,
				"y": 2.2953131018,
				"z": 0.0525954911,
				"element": "C" 
			},
			{
				"x": -4.204759923,
				"y": 2.7741627536,
				"z": -0.4439444344,
				"element": "C" 
			},
			{
				"x": -4.8694346379,
				"y": 2.0995210716,
				"z": -1.4665054021,
				"element": "C" 
			},
			{
				"x": -4.3066487177,
				"y": 0.9367981841,
				"z": -1.9945426723,
				"element": "C" 
			},
			{
				"x": -1.2262449373,
				"y": 0.5629777185,
				"z": 0.066775779,
				"element": "N" 
			},
			{
				"x": -0.7731773062,
				"y": 0.9445505471,
				"z": 1.4080336105,
				"element": "C" 
			},
			{
				"x": -0.2154940719,
				"y": -0.2406345229,
				"z": 2.20878552,
				"element": "C" 
			},
			{
				"x": 0.1574519361,
				"y": 0.1673157094,
				"z": 3.6401060731,
				"element": "C" 
			},
			{
				"x": -0.9602428634,
				"y": 0.7334919777,
				"z": 4.4010086527,
				"element": "N" 
			},
			{
				"x": -0.4929059578,
				"y": 1.4501589084,
				"z": 5.5814373703,
				"element": "C" 
			},
			{
				"x": -1.9524991818,
				"y": -0.2711214505,
				"z": 4.767110879,
				"element": "C" 
			},
			{
				"x": -0.2854916954,
				"y": 0.0568837152,
				"z": -0.8597328144,
				"element": "C" 
			},
			{
				"x": 1.0856998504,
				"y": 0.2934799757,
				"z": -0.7368952872,
				"element": "C" 
			},
			{
				"x": 5.399571145,
				"y": 0.2005344978,
				"z": -4.293721666,
				"element": "H" 
			},
			{
				"x": 4.8595238541,
				"y": 1.5421057146,
				"z": -3.2714380874,
				"element": "H" 
			},
			{
				"x": 3.6747230388,
				"y": 0.5834761598,
				"z": -4.1707593734,
				"element": "H" 
			},
			{
				"x": 4.2851009936,
				"y": -1.4428342912,
				"z": -2.7549164583,
				"element": "H" 
			},
			{
				"x": 5.4571288733,
				"y": -0.4558963609,
				"z": -1.8716827256,
				"element": "H" 
			},
			{
				"x": 2.2363501689,
				"y": -1.4462858137,
				"z": -3.4388965909,
				"element": "H" 
			},
			{
				"x": -0.1902899055,
				"y": -1.8174736942,
				"z": -3.7151958957,
				"element": "H" 
			},
			{
				"x": -2.4741603614,
				"y": 2.8595119774,
				"z": 0.819716217,
				"element": "H" 
			},
			{
				"x": -4.6178489656,
				"y": 3.6920058595,
				"z": -0.0360406712,
				"element": "H" 
			},
			{
				"x": -5.8086127207,
				"y": 2.4760267664,
				"z": -1.8593024161,
				"element": "H" 
			},
			{
				"x": -4.7969056526,
				"y": 0.4053532857,
				"z": -2.8047933595,
				"element": "H" 
			},
			{
				"x": -0.0372183949,
				"y": 1.7628875644,
				"z": 1.3739779176,
				"element": "H" 
			},
			{
				"x": -1.6345168831,
				"y": 1.3274143209,
				"z": 1.9532339834,
				"element": "H" 
			},
			{
				"x": 0.6787139043,
				"y": -0.6530784212,
				"z": 1.7313801093,
				"element": "H" 
			},
			{
				"x": -0.9609617753,
				"y": -1.0433839354,
				"z": 2.2076610972,
				"element": "H" 
			},
			{
				"x": 0.6054781417,
				"y": -0.7026442406,
				"z": 4.1596071457,
				"element": "H" 
			},
			{
				"x": 0.941092659,
				"y": 0.9335146763,
				"z": 3.5909769472,
				"element": "H" 
			},
			{
				"x": -1.3430394132,
				"y": 1.9145020946,
				"z": 6.0917738809,
				"element": "H" 
			},
			{
				"x": 0.0257699501,
				"y": 0.7999296073,
				"z": 6.3125113799,
				"element": "H" 
			},
			{
				"x": 0.199524864,
				"y": 2.2447441457,
				"z": 5.2859427343,
				"element": "H" 
			},
			{
				"x": -1.542103023,
				"y": -1.0639091899,
				"z": 5.4227537174,
				"element": "H" 
			},
			{
				"x": -2.7817597318,
				"y": 0.2090007002,
				"z": 5.2960073034,
				"element": "H" 
			},
			{
				"x": -2.3638204172,
				"y": -0.7509746357,
				"z": 3.8752481278,
				"element": "H" 
			},
			{
				"x": 1.4843905539,
				"y": 0.8957965157,
				"z": 0.0699007616,
				"element": "H" 
			}
		],
		 "valence_orbital": [ 
			{
				"type": "occ",
				"energy": -0.25467,
				"method": "rhf"
			},
			{
				"type": "occ",
				"energy": -0.24289,
				"method": "rhf"
			},
			{
				"type": "occ",
				"energy": -0.22634,
				"method": "rhf"
			},
			{
				"type": "occ",
				"energy": -0.21519,
				"method": "rhf"
			},
			{
				"type": "occ",
				"energy": -0.18994,
				"method": "rhf"
			},
			{
				"type": "unocc",
				"energy": -0.05506,
				"method": "rhf"
			},
			{
				"type": "unocc",
				"energy": -0.01255,
				"method": "rhf"
			},
			{
				"type": "unocc",
				"energy": -0.00443,
				"method": "rhf"
			},
			{
				"type": "unocc",
				"energy": 0.00374,
				"method": "rhf"
			},
			{
				"type": "unocc",
				"energy": 0.03042,
				"method": "rhf"
			}
		],
		"cosmo_sigma_profile": { 
			"-0.025": 0.0,
			"-0.024": 0.0,
			"-0.023": 0.0,
			"-0.022": 0.0,
			"-0.021": 0.0,
			"-0.02": 0.0,
			"-0.019": 0.0,
			"-0.018": 0.0,
			"-0.017": 0.0,
			"-0.016": 0.0,
			"-0.015": 0.0,
			"-0.014": 0.0,
			"-0.013": 0.0,
			"-0.012": 0.0,
			"-0.011": 0.0,
			"-0.01": 0.0,
			"-0.009": 0.0,
			"-0.008": 0.22471061764,
			"-0.007": 4.15935662102,
			"-0.006": 13.4655925732,
			"-0.005": 18.4433809354,
			"-0.004": 33.212343878,
			"-0.003": 39.6156400025,
			"-0.002": 43.0949432607,
			"-0.001": 54.6192293331,
			"0.0": 47.8761356933,
			"0.001": 24.8260078629,
			"0.002": 23.4627655856,
			"0.003": 28.549676155,
			"0.004": 19.827896115,
			"0.005": 15.3387628799,
			"0.006": 7.72030111378,
			"0.007": 4.61305238343,
			"0.008": 3.62442645761,
			"0.009": 2.73374862322,
			"0.01": 2.52714897026,
			"0.011": 2.94014325886,
			"0.012": 4.63968523211,
			"0.013": 2.13861178744,
			"0.014": 0.374467254147,
			"0.015": 0.0,
			"0.016": 0.0,
			"0.017": 0.0,
			"0.018": 0.0,
			"0.019": 0.0,
			"0.02": 0.0,
			"0.021": 0.0,
			"0.022": 0.0,
			"0.023": 0.0,
			"0.024": 0.0,
			"0.025": 0.0
		}
	}
}
