{
	 "smiles": "OC(=O)C1=CN=C2SC(CC3=CC=CC=C3)=CN2C1=O", 
	 "Tm": 471.15, 
	 "num_atms": 30, 
	 "gaussian": { 
		 "optdone": 1, 
		 "sigma_profile": "yes", 
		 "theory": "DFT", 
		 "functional": "B3LYP", 
		 "basiset": "6-31G**", 
		 "properties": { 
			 "R2extent": 8355.9944, 
			 "electric_dipole_moment_norm": 9.41468488798, 
			 "electric_quadrupole_moment_norm": 26.6242120543, 
			 "total_energy": -1272.90269839, 
			 "HOMO_LUMO_gap": 0.16605, 
			 "cosmo_polarized_energy": -18.36, 
			 "cosmo_cavitation_energy": 37.02, 
			 "cosmo_dispersion_energy": -27.14, 
			 "cosmo_repulsion_energy": 2.0, 
			 "cosmo_total_nonelectrostatic_energy": 11.88, 
			 "SMD_solvation_energy": 6.04 
		},
		"coords": [
			{
				"x": -4.5937388629,
				"y": 2.9853128257,
				"z": -2.5060372756,
				"element": "O" 
			},
			{
				"x": -3.3410431964,
				"y": 3.1096382375,
				"z": -2.9669438329,
				"element": "C" 
			},
			{
				"x": -3.0276428245,
				"y": 3.9706940811,
				"z": -3.7618921802,
				"element": "O" 
			},
			{
				"x": -2.3445506347,
				"y": 2.1180619848,
				"z": -2.4406437406,
				"element": "C" 
			},
			{
				"x": -1.0315909671,
				"y": 2.1890237007,
				"z": -2.8743749061,
				"element": "C" 
			},
			{
				"x": -0.0351612298,
				"y": 1.3616370972,
				"z": -2.4812934234,
				"element": "N" 
			},
			{
				"x": -0.3866552616,
				"y": 0.4364704205,
				"z": -1.6243384677,
				"element": "C" 
			},
			{
				"x": 0.6984950176,
				"y": -0.7584407639,
				"z": -0.9450530157,
				"element": "S" 
			},
			{
				"x": -0.6250242813,
				"y": -1.4653638364,
				"z": -0.0044564774,
				"element": "C" 
			},
			{
				"x": -0.4024249377,
				"y": -2.6595678901,
				"z": 0.8820827751,
				"element": "C" 
			},
			{
				"x": 0.6643359601,
				"y": -2.4544356947,
				"z": 1.9478263692,
				"element": "C" 
			},
			{
				"x": 1.8275800343,
				"y": -3.2314693557,
				"z": 1.9488239966,
				"element": "C" 
			},
			{
				"x": 2.8055699779,
				"y": -3.0469629907,
				"z": 2.9293435268,
				"element": "C" 
			},
			{
				"x": 2.628156684,
				"y": -2.0814532313,
				"z": 3.9197406764,
				"element": "C" 
			},
			{
				"x": 1.4688583266,
				"y": -1.300831862,
				"z": 3.92646781,
				"element": "C" 
			},
			{
				"x": 0.4949933102,
				"y": -1.4856843683,
				"z": 2.9467863388,
				"element": "C" 
			},
			{
				"x": -1.7790092574,
				"y": -0.7993411777,
				"z": -0.2182478368,
				"element": "C" 
			},
			{
				"x": -1.6538766089,
				"y": 0.2604717842,
				"z": -1.1193564799,
				"element": "N" 
			},
			{
				"x": -2.7327542811,
				"y": 1.1050935405,
				"z": -1.5000047218,
				"element": "C" 
			},
			{
				"x": -3.854075936,
				"y": 0.9041841612,
				"z": -1.0134847515,
				"element": "O" 
			},
			{
				"x": -4.6362117266,
				"y": 2.2286681501,
				"z": -1.8743983854,
				"element": "H" 
			},
			{
				"x": -0.769792302,
				"y": 2.966620999,
				"z": -3.5862137041,
				"element": "H" 
			},
			{
				"x": -0.1340901631,
				"y": -3.523894145,
				"z": 0.2627816722,
				"element": "H" 
			},
			{
				"x": -1.3650590717,
				"y": -2.9000985944,
				"z": 1.3490342576,
				"element": "H" 
			},
			{
				"x": 1.968798085,
				"y": -3.989076478,
				"z": 1.1817262184,
				"element": "H" 
			},
			{
				"x": 3.7030734431,
				"y": -3.6584132086,
				"z": 2.9171585204,
				"element": "H" 
			},
			{
				"x": 3.3868265474,
				"y": -1.9367471927,
				"z": 4.6831177443,
				"element": "H" 
			},
			{
				"x": 1.3238218054,
				"y": -0.5481461979,
				"z": 4.695920958,
				"element": "H" 
			},
			{
				"x": -0.4032800317,
				"y": -0.873170836,
				"z": 2.9547384439,
				"element": "H" 
			},
			{
				"x": -2.7545276171,
				"y": -0.9870791591,
				"z": 0.2059898918,
				"element": "H" 
			}
		],
		 "valence_orbital": [ 
			{
				"type": "occ",
				"energy": -0.28573,
				"method": "rhf"
			},
			{
				"type": "occ",
				"energy": -0.26989,
				"method": "rhf"
			},
			{
				"type": "occ",
				"energy": -0.26491,
				"method": "rhf"
			},
			{
				"type": "occ",
				"energy": -0.26169,
				"method": "rhf"
			},
			{
				"type": "occ",
				"energy": -0.24648,
				"method": "rhf"
			},
			{
				"type": "unocc",
				"energy": -0.08043,
				"method": "rhf"
			},
			{
				"type": "unocc",
				"energy": -0.04127,
				"method": "rhf"
			},
			{
				"type": "unocc",
				"energy": -0.03061,
				"method": "rhf"
			},
			{
				"type": "unocc",
				"energy": -0.02224,
				"method": "rhf"
			},
			{
				"type": "unocc",
				"energy": -0.01568,
				"method": "rhf"
			}
		],
		"cosmo_sigma_profile": { 
			"-0.025": 0.0,
			"-0.024": 0.0,
			"-0.023": 0.0,
			"-0.022": 0.0,
			"-0.021": 0.0,
			"-0.02": 0.0,
			"-0.019": 0.0,
			"-0.018": 0.0,
			"-0.017": 0.0,
			"-0.016": 0.0,
			"-0.015": 0.0,
			"-0.014": 0.0,
			"-0.013": 0.0,
			"-0.012": 0.0,
			"-0.011": 0.175980586604,
			"-0.01": 1.20216764609,
			"-0.009": 1.67361212735,
			"-0.008": 3.62786912566,
			"-0.007": 11.3795098669,
			"-0.006": 18.6326174617,
			"-0.005": 25.9431710419,
			"-0.004": 25.311722203,
			"-0.003": 26.8994845783,
			"-0.002": 26.0471798765,
			"-0.001": 26.2525315866,
			"0.0": 17.0989107271,
			"0.001": 17.7062239293,
			"0.002": 14.0160536165,
			"0.003": 12.0714298692,
			"0.004": 11.4694659961,
			"0.005": 14.1549847661,
			"0.006": 7.90310871983,
			"0.007": 4.61303122566,
			"0.008": 4.48652138571,
			"0.009": 5.59581392027,
			"0.01": 7.34084845206,
			"0.011": 6.95706643717,
			"0.012": 6.29205791836,
			"0.013": 3.0477124013,
			"0.014": 0.556596221646,
			"0.015": 0.0,
			"0.016": 0.0,
			"0.017": 0.0,
			"0.018": 0.0,
			"0.019": 0.0,
			"0.02": 0.0,
			"0.021": 0.0,
			"0.022": 0.0,
			"0.023": 0.0,
			"0.024": 0.0,
			"0.025": 0.0
		}
	}
}
