{
	 "smiles": "CC(C)(C)N(NC(=O)C1=CC=CC=C1)C(=O)C1=C(Cl)C=CC=C1Cl", 
	 "Tm": 471.15, 
	 "num_atms": 42, 
	 "gaussian": { 
		 "optdone": 1, 
		 "sigma_profile": "yes", 
		 "theory": "DFT", 
		 "functional": "B3LYP", 
		 "basiset": "6-31G**", 
		 "properties": { 
			 "R2extent": 8164.1218, 
			 "electric_dipole_moment_norm": 1.05455040657, 
			 "electric_quadrupole_moment_norm": 20.6167424784, 
			 "total_energy": -1877.08993229, 
			 "HOMO_LUMO_gap": 0.20266, 
			 "cosmo_polarized_energy": -14.79, 
			 "cosmo_cavitation_energy": 46.59, 
			 "cosmo_dispersion_energy": -30.28, 
			 "cosmo_repulsion_energy": 2.25, 
			 "cosmo_total_nonelectrostatic_energy": 18.56, 
			 "SMD_solvation_energy": 8.86 
		},
		"coords": [
			{
				"x": -3.140445137,
				"y": 0.0950643208,
				"z": 0.4459574507,
				"element": "C" 
			},
			{
				"x": -1.8949197042,
				"y": -0.6649752951,
				"z": 0.9404635302,
				"element": "C" 
			},
			{
				"x": -2.0314743943,
				"y": -2.1494541154,
				"z": 0.572968899,
				"element": "C" 
			},
			{
				"x": -1.7403720162,
				"y": -0.5457834857,
				"z": 2.4679269215,
				"element": "C" 
			},
			{
				"x": -0.6472890838,
				"y": -0.0912062309,
				"z": 0.2674126491,
				"element": "N" 
			},
			{
				"x": -0.1240956612,
				"y": -0.731807178,
				"z": -0.8521362262,
				"element": "N" 
			},
			{
				"x": 0.7066526071,
				"y": -1.8467267138,
				"z": -0.9239727606,
				"element": "C" 
			},
			{
				"x": 0.7881830473,
				"y": -2.3909739997,
				"z": -2.0198811508,
				"element": "O" 
			},
			{
				"x": 1.4780643207,
				"y": -2.3647587597,
				"z": 0.2532865961,
				"element": "C" 
			},
			{
				"x": 1.9979845194,
				"y": -3.6621377784,
				"z": 0.1041748751,
				"element": "C" 
			},
			{
				"x": 2.7505146129,
				"y": -4.2460464764,
				"z": 1.1185393084,
				"element": "C" 
			},
			{
				"x": 3.0090171827,
				"y": -3.536206717,
				"z": 2.2941330932,
				"element": "C" 
			},
			{
				"x": 2.5107435208,
				"y": -2.241727908,
				"z": 2.4447197552,
				"element": "C" 
			},
			{
				"x": 1.7454629148,
				"y": -1.6572582535,
				"z": 1.4343704509,
				"element": "C" 
			},
			{
				"x": -0.357201448,
				"y": 1.2620258569,
				"z": 0.3847697573,
				"element": "C" 
			},
			{
				"x": -0.9010536261,
				"y": 1.9993887327,
				"z": 1.1906824312,
				"element": "O" 
			},
			{
				"x": 0.7005454868,
				"y": 1.8423080696,
				"z": -0.5443348765,
				"element": "C" 
			},
			{
				"x": 1.9588411525,
				"y": 2.2302332734,
				"z": -0.0590589003,
				"element": "C" 
			},
			{
				"x": 2.3955715894,
				"y": 1.927839035,
				"z": 1.6147813659,
				"element": "Cl" 
			},
			{
				"x": 2.8975109901,
				"y": 2.8734792657,
				"z": -0.8647457224,
				"element": "C" 
			},
			{
				"x": 2.5742921835,
				"y": 3.1756127466,
				"z": -2.1849396937,
				"element": "C" 
			},
			{
				"x": 1.3193821928,
				"y": 2.8475380137,
				"z": -2.6935204063,
				"element": "C" 
			},
			{
				"x": 0.4055384916,
				"y": 2.197363525,
				"z": -1.8690528394,
				"element": "C" 
			},
			{
				"x": -1.1881941546,
				"y": 1.8425550743,
				"z": -2.5344045748,
				"element": "Cl" 
			},
			{
				"x": -4.0352447587,
				"y": -0.3305823244,
				"z": 0.9111448149,
				"element": "H" 
			},
			{
				"x": -3.0889263452,
				"y": 1.1534072264,
				"z": 0.7031761783,
				"element": "H" 
			},
			{
				"x": -3.2503170759,
				"y": -0.0002441717,
				"z": -0.6394662043,
				"element": "H" 
			},
			{
				"x": -2.1709951197,
				"y": -2.3066878301,
				"z": -0.4994456665,
				"element": "H" 
			},
			{
				"x": -1.1708472489,
				"y": -2.7352681583,
				"z": 0.904075884,
				"element": "H" 
			},
			{
				"x": -2.9159849971,
				"y": -2.5410753224,
				"z": 1.083264954,
				"element": "H" 
			},
			{
				"x": -2.6219621987,
				"y": -0.9801506765,
				"z": 2.9505806295,
				"element": "H" 
			},
			{
				"x": -0.8610518799,
				"y": -1.0998305247,
				"z": 2.8090133871,
				"element": "H" 
			},
			{
				"x": -1.6488893825,
				"y": 0.4937907079,
				"z": 2.7793111035,
				"element": "H" 
			},
			{
				"x": -0.6226811322,
				"y": -0.5910788483,
				"z": -1.7266471184,
				"element": "H" 
			},
			{
				"x": 1.8012149855,
				"y": -4.188795809,
				"z": -0.8227622218,
				"element": "H" 
			},
			{
				"x": 3.1396001317,
				"y": -5.252047611,
				"z": 0.9914696593,
				"element": "H" 
			},
			{
				"x": 3.599611718,
				"y": -3.9882705162,
				"z": 3.0859872233,
				"element": "H" 
			},
			{
				"x": 2.7195099119,
				"y": -1.6782248596,
				"z": 3.3493260803,
				"element": "H" 
			},
			{
				"x": 1.3763218432,
				"y": -0.65179846,
				"z": 1.568986889,
				"element": "H" 
			},
			{
				"x": 3.8633909743,
				"y": 3.13888354,
				"z": -0.4510217221,
				"element": "H" 
			},
			{
				"x": 3.2987671561,
				"y": 3.67868934,
				"z": -2.8172856475,
				"element": "H" 
			},
			{
				"x": 1.0447238312,
				"y": 3.0932392957,
				"z": -3.7126481556,
				"element": "H" 
			}
		],
		 "valence_orbital": [ 
			{
				"type": "occ",
				"energy": -0.2636,
				"method": "rhf"
			},
			{
				"type": "occ",
				"energy": -0.25916,
				"method": "rhf"
			},
			{
				"type": "occ",
				"energy": -0.25676,
				"method": "rhf"
			},
			{
				"type": "occ",
				"energy": -0.25321,
				"method": "rhf"
			},
			{
				"type": "occ",
				"energy": -0.24857,
				"method": "rhf"
			},
			{
				"type": "unocc",
				"energy": -0.04591,
				"method": "rhf"
			},
			{
				"type": "unocc",
				"energy": -0.03788,
				"method": "rhf"
			},
			{
				"type": "unocc",
				"energy": -0.03104,
				"method": "rhf"
			},
			{
				"type": "unocc",
				"energy": -0.00929,
				"method": "rhf"
			},
			{
				"type": "unocc",
				"energy": -0.00491,
				"method": "rhf"
			}
		],
		"cosmo_sigma_profile": { 
			"-0.025": 0.0,
			"-0.024": 0.0,
			"-0.023": 0.0,
			"-0.022": 0.0,
			"-0.021": 0.0,
			"-0.02": 0.0,
			"-0.019": 0.0,
			"-0.018": 0.0,
			"-0.017": 0.0,
			"-0.016": 0.0,
			"-0.015": 0.0,
			"-0.014": 0.0,
			"-0.013": 0.0,
			"-0.012": 0.0,
			"-0.011": 0.0,
			"-0.01": 0.358856292689,
			"-0.009": 1.50246350323,
			"-0.008": 6.65350245478,
			"-0.007": 10.1620342167,
			"-0.006": 15.0093451181,
			"-0.005": 16.4585235229,
			"-0.004": 26.3050736441,
			"-0.003": 25.6192221329,
			"-0.002": 34.5740476303,
			"-0.001": 37.3775693696,
			"0.0": 45.001652294,
			"0.001": 41.7226519179,
			"0.002": 29.1252806291,
			"0.003": 25.6369457658,
			"0.004": 21.3583819525,
			"0.005": 6.10691043312,
			"0.006": 3.08671491551,
			"0.007": 4.08469708688,
			"0.008": 3.50618115528,
			"0.009": 2.32808682709,
			"0.01": 3.3629416393,
			"0.011": 4.17846299922,
			"0.012": 6.13147183465,
			"0.013": 4.76061707754,
			"0.014": 0.188473447754,
			"0.015": 0.0,
			"0.016": 0.0,
			"0.017": 0.0,
			"0.018": 0.0,
			"0.019": 0.0,
			"0.02": 0.0,
			"0.021": 0.0,
			"0.022": 0.0,
			"0.023": 0.0,
			"0.024": 0.0,
			"0.025": 0.0
		}
	}
}
