{
	 "smiles": "COCC1=C(C=CC=C1)C(O)=O", 
	 "Tm": 368.15, 
	 "num_atms": 22, 
	 "gaussian": { 
		 "optdone": 1, 
		 "sigma_profile": "yes", 
		 "theory": "DFT", 
		 "functional": "B3LYP", 
		 "basiset": "6-31G**", 
		 "properties": { 
			 "R2extent": 2733.1986, 
			 "electric_dipole_moment_norm": 2.68338316496, 
			 "electric_quadrupole_moment_norm": 8.52749901202, 
			 "total_energy": -574.652404769, 
			 "HOMO_LUMO_gap": 0.2026, 
			 "cosmo_polarized_energy": -11.74, 
			 "cosmo_cavitation_energy": 25.77, 
			 "cosmo_dispersion_energy": -18.54, 
			 "cosmo_repulsion_energy": 1.49, 
			 "cosmo_total_nonelectrostatic_energy": 8.72, 
			 "SMD_solvation_energy": 6.09 
		},
		"coords": [
			{
				"x": 0.6700831158,
				"y": -2.6019171598,
				"z": 2.5842755936,
				"element": "C" 
			},
			{
				"x": 0.7696928808,
				"y": -1.223370108,
				"z": 2.8813675454,
				"element": "O" 
			},
			{
				"x": 1.0799237931,
				"y": -0.4145944533,
				"z": 1.7544286037,
				"element": "C" 
			},
			{
				"x": -0.0745230264,
				"y": -0.299631999,
				"z": 0.7706675416,
				"element": "C" 
			},
			{
				"x": -1.3066308946,
				"y": 0.3037024258,
				"z": 1.1141284164,
				"element": "C" 
			},
			{
				"x": -2.3629348494,
				"y": 0.3125904446,
				"z": 0.1920596487,
				"element": "C" 
			},
			{
				"x": -2.2102873742,
				"y": -0.2468254708,
				"z": -1.0755676229,
				"element": "C" 
			},
			{
				"x": -0.996138061,
				"y": -0.8338192422,
				"z": -1.4257637931,
				"element": "C" 
			},
			{
				"x": 0.0509233043,
				"y": -0.8640146959,
				"z": -0.5021363847,
				"element": "C" 
			},
			{
				"x": -1.4938772895,
				"y": 0.9969860608,
				"z": 2.4238358679,
				"element": "C" 
			},
			{
				"x": -2.8000284904,
				"y": 1.0558786242,
				"z": 2.7946243068,
				"element": "O" 
			},
			{
				"x": -0.6208672975,
				"y": 1.5009549245,
				"z": 3.10018794,
				"element": "O" 
			},
			{
				"x": 1.6048084723,
				"y": -2.9931485009,
				"z": 2.1506588484,
				"element": "H" 
			},
			{
				"x": -0.1512258988,
				"y": -2.8249011816,
				"z": 1.8878588176,
				"element": "H" 
			},
			{
				"x": 0.4790973755,
				"y": -3.116986162,
				"z": 3.5289472424,
				"element": "H" 
			},
			{
				"x": 1.9578006936,
				"y": -0.817838136,
				"z": 1.224437783,
				"element": "H" 
			},
			{
				"x": 1.3308362713,
				"y": 0.5646894498,
				"z": 2.1617843311,
				"element": "H" 
			},
			{
				"x": -3.3024145698,
				"y": 0.7735863657,
				"z": 0.4744891465,
				"element": "H" 
			},
			{
				"x": -3.0348881317,
				"y": -0.2232076254,
				"z": -1.7816071633,
				"element": "H" 
			},
			{
				"x": -0.8640438072,
				"y": -1.2759280929,
				"z": -2.4092013907,
				"element": "H" 
			},
			{
				"x": 0.9905220601,
				"y": -1.3394462455,
				"z": -0.7721916513,
				"element": "H" 
			},
			{
				"x": -2.8088282763,
				"y": 1.558640778,
				"z": 3.6260163729,
				"element": "H" 
			}
		],
		 "valence_orbital": [ 
			{
				"type": "occ",
				"energy": -0.30748,
				"method": "rhf"
			},
			{
				"type": "occ",
				"energy": -0.2734,
				"method": "rhf"
			},
			{
				"type": "occ",
				"energy": -0.26257,
				"method": "rhf"
			},
			{
				"type": "occ",
				"energy": -0.25917,
				"method": "rhf"
			},
			{
				"type": "occ",
				"energy": -0.24955,
				"method": "rhf"
			},
			{
				"type": "unocc",
				"energy": -0.04695,
				"method": "rhf"
			},
			{
				"type": "unocc",
				"energy": -0.01281,
				"method": "rhf"
			},
			{
				"type": "unocc",
				"energy": 0.04982,
				"method": "rhf"
			},
			{
				"type": "unocc",
				"energy": 0.07981,
				"method": "rhf"
			},
			{
				"type": "unocc",
				"energy": 0.09548,
				"method": "rhf"
			}
		],
		"cosmo_sigma_profile": { 
			"-0.025": 0.0,
			"-0.024": 0.0,
			"-0.023": 0.0,
			"-0.022": 0.0,
			"-0.021": 0.0,
			"-0.02": 0.0,
			"-0.019": 0.028767063829,
			"-0.018": 0.60059617886,
			"-0.017": 1.12882012976,
			"-0.016": 0.800309854902,
			"-0.015": 0.638461307884,
			"-0.014": 0.621655287069,
			"-0.013": 0.690960624878,
			"-0.012": 0.711418072679,
			"-0.011": 0.467443190976,
			"-0.01": 0.785767923465,
			"-0.009": 0.422315555759,
			"-0.008": 0.954116631906,
			"-0.007": 2.51571972463,
			"-0.006": 9.78061241641,
			"-0.005": 13.4661218196,
			"-0.004": 16.2508613776,
			"-0.003": 19.450960321,
			"-0.002": 21.1811930853,
			"-0.001": 14.5656901859,
			"0.0": 13.620282038,
			"0.001": 12.7274915527,
			"0.002": 12.9219986222,
			"0.003": 15.5332062906,
			"0.004": 11.417851158,
			"0.005": 3.82497790943,
			"0.006": 4.37684793839,
			"0.007": 2.8756757192,
			"0.008": 3.10355259622,
			"0.009": 3.70544954969,
			"0.01": 3.4555229682,
			"0.011": 4.95194656561,
			"0.012": 4.34559858155,
			"0.013": 1.95442357477,
			"0.014": 0.479319295928,
			"0.015": 0.0,
			"0.016": 0.0,
			"0.017": 0.0,
			"0.018": 0.0,
			"0.019": 0.0,
			"0.02": 0.0,
			"0.021": 0.0,
			"0.022": 0.0,
			"0.023": 0.0,
			"0.024": 0.0,
			"0.025": 0.0
		}
	}
}
