{
	 "smiles": "CC(C)(C)OC(=O)NC1=CC=C(CC(N)=S)C=C1", 
	 "Tm": 434.15, 
	 "num_atms": 36, 
	 "gaussian": { 
		 "optdone": 1, 
		 "sigma_profile": "yes", 
		 "theory": "DFT", 
		 "functional": "B3LYP", 
		 "basiset": "6-31G**", 
		 "properties": { 
			 "R2extent": 11293.5778, 
			 "electric_dipole_moment_norm": 6.99115996527, 
			 "electric_quadrupole_moment_norm": 42.1469526986, 
			 "total_energy": -1164.42769545, 
			 "HOMO_LUMO_gap": 0.17426, 
			 "cosmo_polarized_energy": -20.18, 
			 "cosmo_cavitation_energy": 40.82, 
			 "cosmo_dispersion_energy": -29.32, 
			 "cosmo_repulsion_energy": 2.25, 
			 "cosmo_total_nonelectrostatic_energy": 13.75, 
			 "SMD_solvation_energy": 6.74 
		},
		"coords": [
			{
				"x": 2.684248908,
				"y": 1.5560666483,
				"z": -3.3190555138,
				"element": "C" 
			},
			{
				"x": 3.0894714534,
				"y": 0.5481969115,
				"z": -2.2386822455,
				"element": "C" 
			},
			{
				"x": 4.2989483071,
				"y": 1.0535339339,
				"z": -1.4483903502,
				"element": "C" 
			},
			{
				"x": 3.3569788669,
				"y": -0.8469386522,
				"z": -2.8123711746,
				"element": "C" 
			},
			{
				"x": 2.0422640858,
				"y": 0.4735459917,
				"z": -1.2025360298,
				"element": "O" 
			},
			{
				"x": 0.790289712,
				"y": 0.0575402502,
				"z": -1.5042981381,
				"element": "C" 
			},
			{
				"x": 0.3841037133,
				"y": -0.2853895931,
				"z": -2.6006200254,
				"element": "O" 
			},
			{
				"x": 0.0449152451,
				"y": 0.0904468921,
				"z": -0.3452597891,
				"element": "N" 
			},
			{
				"x": -1.304856248,
				"y": -0.2556024882,
				"z": -0.1650939691,
				"element": "C" 
			},
			{
				"x": -2.1275638147,
				"y": -0.736070157,
				"z": -1.1948009446,
				"element": "C" 
			},
			{
				"x": -3.4558955309,
				"y": -1.0598447602,
				"z": -0.9160863795,
				"element": "C" 
			},
			{
				"x": -4.0061552145,
				"y": -0.9196904085,
				"z": 0.3652912854,
				"element": "C" 
			},
			{
				"x": -5.4559159771,
				"y": -1.2528323689,
				"z": 0.6456077629,
				"element": "C" 
			},
			{
				"x": -6.4495623687,
				"y": -0.0877641499,
				"z": 0.5631618863,
				"element": "C" 
			},
			{
				"x": -6.0462840576,
				"y": 0.9598189911,
				"z": -0.1727956132,
				"element": "N" 
			},
			{
				"x": -7.9449693002,
				"y": -0.1578858232,
				"z": 1.2928026878,
				"element": "S" 
			},
			{
				"x": -3.1685179981,
				"y": -0.4368153727,
				"z": 1.3819479049,
				"element": "C" 
			},
			{
				"x": -1.8420819049,
				"y": -0.1115843821,
				"z": 1.1256921308,
				"element": "C" 
			},
			{
				"x": 2.4569415213,
				"y": 2.5269837605,
				"z": -2.867649375,
				"element": "H" 
			},
			{
				"x": 1.8114442477,
				"y": 1.2096054586,
				"z": -3.8729457279,
				"element": "H" 
			},
			{
				"x": 3.5139902876,
				"y": 1.6940653709,
				"z": -4.0196989179,
				"element": "H" 
			},
			{
				"x": 5.162876312,
				"y": 1.1557046265,
				"z": -2.1115046139,
				"element": "H" 
			},
			{
				"x": 4.0888425635,
				"y": 2.0293505089,
				"z": -1.0009436557,
				"element": "H" 
			},
			{
				"x": 4.5578749043,
				"y": 0.3544561388,
				"z": -0.6479072707,
				"element": "H" 
			},
			{
				"x": 2.4914472209,
				"y": -1.2197332075,
				"z": -3.3605443608,
				"element": "H" 
			},
			{
				"x": 4.2132182741,
				"y": -0.8039317114,
				"z": -3.493105835,
				"element": "H" 
			},
			{
				"x": 3.5982620921,
				"y": -1.5492159863,
				"z": -2.0082420802,
				"element": "H" 
			},
			{
				"x": 0.5483315958,
				"y": 0.4046755065,
				"z": 0.4717763471,
				"element": "H" 
			},
			{
				"x": -1.7216866273,
				"y": -0.8570797308,
				"z": -2.1892419493,
				"element": "H" 
			},
			{
				"x": -4.0760635211,
				"y": -1.4450944514,
				"z": -1.7224430253,
				"element": "H" 
			},
			{
				"x": -5.573121321,
				"y": -1.697143529,
				"z": 1.6363797197,
				"element": "H" 
			},
			{
				"x": -5.8127341977,
				"y": -2.0066254883,
				"z": -0.0671028461,
				"element": "H" 
			},
			{
				"x": -5.1162223165,
				"y": 0.9946471639,
				"z": -0.5679832219,
				"element": "H" 
			},
			{
				"x": -6.6666209287,
				"y": 1.7486163595,
				"z": -0.2814790471,
				"element": "H" 
			},
			{
				"x": -3.5597106378,
				"y": -0.317386052,
				"z": 2.3889985958,
				"element": "H" 
			},
			{
				"x": -1.211787346,
				"y": 0.2554737997,
				"z": 1.932523779,
				"element": "H" 
			}
		],
		 "valence_orbital": [ 
			{
				"type": "occ",
				"energy": -0.27794,
				"method": "rhf"
			},
			{
				"type": "occ",
				"energy": -0.264,
				"method": "rhf"
			},
			{
				"type": "occ",
				"energy": -0.22886,
				"method": "rhf"
			},
			{
				"type": "occ",
				"energy": -0.22301,
				"method": "rhf"
			},
			{
				"type": "occ",
				"energy": -0.19884,
				"method": "rhf"
			},
			{
				"type": "unocc",
				"energy": -0.02458,
				"method": "rhf"
			},
			{
				"type": "unocc",
				"energy": -0.01742,
				"method": "rhf"
			},
			{
				"type": "unocc",
				"energy": -0.01309,
				"method": "rhf"
			},
			{
				"type": "unocc",
				"energy": 0.0502,
				"method": "rhf"
			},
			{
				"type": "unocc",
				"energy": 0.07208,
				"method": "rhf"
			}
		],
		"cosmo_sigma_profile": { 
			"-0.025": 0.0,
			"-0.024": 0.0,
			"-0.023": 0.0,
			"-0.022": 0.0,
			"-0.021": 0.0,
			"-0.02": 0.0,
			"-0.019": 0.0,
			"-0.018": 0.0,
			"-0.017": 0.0,
			"-0.016": 0.0,
			"-0.015": 1.40249840206,
			"-0.014": 2.25193684648,
			"-0.013": 3.11984312041,
			"-0.012": 3.55246917418,
			"-0.011": 2.73232709109,
			"-0.01": 2.54428884135,
			"-0.009": 3.34131613277,
			"-0.008": 2.30016282664,
			"-0.007": 4.84526475972,
			"-0.006": 12.9448055488,
			"-0.005": 14.1774992186,
			"-0.004": 23.0634960877,
			"-0.003": 25.2886408392,
			"-0.002": 25.2129857153,
			"-0.001": 26.3845345611,
			"0.0": 37.4248081914,
			"0.001": 26.1058726122,
			"0.002": 15.5943703266,
			"0.003": 16.3762843017,
			"0.004": 15.030145975,
			"0.005": 12.6382776882,
			"0.006": 7.35097392693,
			"0.007": 5.91750299504,
			"0.008": 5.78663897254,
			"0.009": 7.15483907952,
			"0.01": 9.32319449546,
			"0.011": 5.59495632847,
			"0.012": 5.40625457395,
			"0.013": 1.37989778117,
			"0.014": 0.0314587424249,
			"0.015": 0.0,
			"0.016": 0.0,
			"0.017": 0.0,
			"0.018": 0.0,
			"0.019": 0.0,
			"0.02": 0.0,
			"0.021": 0.0,
			"0.022": 0.0,
			"0.023": 0.0,
			"0.024": 0.0,
			"0.025": 0.0
		}
	}
}
