{
	 "smiles": "COC1=CC2=C(OC(CCC(C)=O)=C2C2=CC=C(C)O2)C=C1", 
	 "Tm": 309.15, 
	 "num_atms": 40, 
	 "gaussian": { 
		 "optdone": 1, 
		 "sigma_profile": "yes", 
		 "theory": "DFT", 
		 "functional": "B3LYP", 
		 "basiset": "6-31G**", 
		 "properties": { 
			 "R2extent": 8284.1745, 
			 "electric_dipole_moment_norm": 2.66093572451, 
			 "electric_quadrupole_moment_norm": 32.6368120297, 
			 "total_energy": -997.634873567, 
			 "HOMO_LUMO_gap": 0.16448, 
			 "cosmo_polarized_energy": -14.3, 
			 "cosmo_cavitation_energy": 43.97, 
			 "cosmo_dispersion_energy": -30.09, 
			 "cosmo_repulsion_energy": 2.3, 
			 "cosmo_total_nonelectrostatic_energy": 16.18, 
			 "SMD_solvation_energy": 9.21 
		},
		"coords": [
			{
				"x": -5.1401512645,
				"y": 2.3153171592,
				"z": 1.6418832795,
				"element": "C" 
			},
			{
				"x": -4.2390361273,
				"y": 1.2401690263,
				"z": 1.4447080425,
				"element": "O" 
			},
			{
				"x": -3.0211702376,
				"y": 1.5037573134,
				"z": 0.8759290667,
				"element": "C" 
			},
			{
				"x": -2.1965780108,
				"y": 0.3879062234,
				"z": 0.6929527621,
				"element": "C" 
			},
			{
				"x": -0.936497627,
				"y": 0.5747456011,
				"z": 0.1193428615,
				"element": "C" 
			},
			{
				"x": -0.5474417931,
				"y": 1.8685870763,
				"z": -0.2675849116,
				"element": "C" 
			},
			{
				"x": 0.7052059987,
				"y": 1.8418833172,
				"z": -0.8289733674,
				"element": "O" 
			},
			{
				"x": 1.1258928792,
				"y": 0.5297024425,
				"z": -0.8001636339,
				"element": "C" 
			},
			{
				"x": 2.4766217462,
				"y": 0.2785762904,
				"z": -1.3815197635,
				"element": "C" 
			},
			{
				"x": 2.4781537151,
				"y": 0.084716278,
				"z": -2.9193255053,
				"element": "C" 
			},
			{
				"x": 2.0342825399,
				"y": 1.2903931454,
				"z": -3.7456673685,
				"element": "C" 
			},
			{
				"x": 2.7042196952,
				"y": 2.6252210163,
				"z": -3.4652130212,
				"element": "C" 
			},
			{
				"x": 1.1899377376,
				"y": 1.1738698451,
				"z": -4.6133785281,
				"element": "O" 
			},
			{
				"x": 0.177435166,
				"y": -0.2896764905,
				"z": -0.2397246049,
				"element": "C" 
			},
			{
				"x": 0.2529464429,
				"y": -1.7211565435,
				"z": -0.0406496815,
				"element": "C" 
			},
			{
				"x": -0.4211349208,
				"y": -2.5928110871,
				"z": 0.7731165348,
				"element": "C" 
			},
			{
				"x": 0.1101622674,
				"y": -3.8955523474,
				"z": 0.5116850897,
				"element": "C" 
			},
			{
				"x": 1.0750615918,
				"y": -3.7467116806,
				"z": -0.4402857159,
				"element": "C" 
			},
			{
				"x": 1.9872926191,
				"y": -4.6900212599,
				"z": -1.1410580255,
				"element": "C" 
			},
			{
				"x": 1.1727047701,
				"y": -2.4238516013,
				"z": -0.7881369041,
				"element": "O" 
			},
			{
				"x": -1.3463372467,
				"y": 2.9856974923,
				"z": -0.0960811793,
				"element": "C" 
			},
			{
				"x": -2.6004487867,
				"y": 2.7923696497,
				"z": 0.4889763691,
				"element": "C" 
			},
			{
				"x": -4.7299009534,
				"y": 3.0727975702,
				"z": 2.323056397,
				"element": "H" 
			},
			{
				"x": -6.0346713592,
				"y": 1.8802912162,
				"z": 2.0909367767,
				"element": "H" 
			},
			{
				"x": -5.4131975213,
				"y": 2.7981399328,
				"z": 0.6941945317,
				"element": "H" 
			},
			{
				"x": -2.5673562787,
				"y": -0.5872721879,
				"z": 0.9846332677,
				"element": "H" 
			},
			{
				"x": 2.8825408686,
				"y": -0.6277895288,
				"z": -0.9274124918,
				"element": "H" 
			},
			{
				"x": 3.1357541134,
				"y": 1.1092116917,
				"z": -1.1044325422,
				"element": "H" 
			},
			{
				"x": 1.8390005991,
				"y": -0.7582280109,
				"z": -3.1914917786,
				"element": "H" 
			},
			{
				"x": 3.5055372179,
				"y": -0.1590997622,
				"z": -3.2264737864,
				"element": "H" 
			},
			{
				"x": 2.5003016623,
				"y": 3.3115312097,
				"z": -4.2884714508,
				"element": "H" 
			},
			{
				"x": 3.7852967762,
				"y": 2.5159427147,
				"z": -3.3247440962,
				"element": "H" 
			},
			{
				"x": 2.293267137,
				"y": 3.0470390835,
				"z": -2.5414158942,
				"element": "H" 
			},
			{
				"x": -1.1825853225,
				"y": -2.3349034949,
				"z": 1.4934782861,
				"element": "H" 
			},
			{
				"x": -0.1876170039,
				"y": -4.8256021644,
				"z": 0.9747643611,
				"element": "H" 
			},
			{
				"x": 3.0402088838,
				"y": -4.4388250744,
				"z": -0.9655362966,
				"element": "H" 
			},
			{
				"x": 1.8154495558,
				"y": -5.7070061323,
				"z": -0.7811386546,
				"element": "H" 
			},
			{
				"x": 1.8236292619,
				"y": -4.6782559832,
				"z": -2.2250771364,
				"element": "H" 
			},
			{
				"x": -1.0155460713,
				"y": 3.9703209197,
				"z": -0.4079370637,
				"element": "H" 
			},
			{
				"x": -3.2469327205,
				"y": 3.6485771342,
				"z": 0.6351357761,
				"element": "H" 
			}
		],
		 "valence_orbital": [ 
			{
				"type": "occ",
				"energy": -0.27309,
				"method": "rhf"
			},
			{
				"type": "occ",
				"energy": -0.23867,
				"method": "rhf"
			},
			{
				"type": "occ",
				"energy": -0.23514,
				"method": "rhf"
			},
			{
				"type": "occ",
				"energy": -0.21053,
				"method": "rhf"
			},
			{
				"type": "occ",
				"energy": -0.19124,
				"method": "rhf"
			},
			{
				"type": "unocc",
				"energy": -0.02676,
				"method": "rhf"
			},
			{
				"type": "unocc",
				"energy": -0.0063,
				"method": "rhf"
			},
			{
				"type": "unocc",
				"energy": 0.00358,
				"method": "rhf"
			},
			{
				"type": "unocc",
				"energy": 0.02585,
				"method": "rhf"
			},
			{
				"type": "unocc",
				"energy": 0.05803,
				"method": "rhf"
			}
		],
		"cosmo_sigma_profile": { 
			"-0.025": 0.0,
			"-0.024": 0.0,
			"-0.023": 0.0,
			"-0.022": 0.0,
			"-0.021": 0.0,
			"-0.02": 0.0,
			"-0.019": 0.0,
			"-0.018": 0.0,
			"-0.017": 0.0,
			"-0.016": 0.0,
			"-0.015": 0.0,
			"-0.014": 0.0,
			"-0.013": 0.0,
			"-0.012": 0.0,
			"-0.011": 0.0,
			"-0.01": 0.0,
			"-0.009": 0.0,
			"-0.008": 0.539193651688,
			"-0.007": 6.00684452733,
			"-0.006": 17.9347766208,
			"-0.005": 31.0445439961,
			"-0.004": 31.408088933,
			"-0.003": 33.6051137899,
			"-0.002": 29.5251962817,
			"-0.001": 30.3209477152,
			"0.0": 22.2526019123,
			"0.001": 21.622781363,
			"0.002": 24.8389795392,
			"0.003": 27.9133086128,
			"0.004": 25.0157404564,
			"0.005": 15.3541363296,
			"0.006": 8.98424371616,
			"0.007": 2.68769293276,
			"0.008": 2.2600647847,
			"0.009": 2.81014068933,
			"0.01": 4.31263885538,
			"0.011": 3.42281948202,
			"0.012": 4.49439214387,
			"0.013": 2.87421532299,
			"0.014": 0.349656014668,
			"0.015": 0.0,
			"0.016": 0.0,
			"0.017": 0.0,
			"0.018": 0.0,
			"0.019": 0.0,
			"0.02": 0.0,
			"0.021": 0.0,
			"0.022": 0.0,
			"0.023": 0.0,
			"0.024": 0.0,
			"0.025": 0.0
		}
	}
}
