{
	 "smiles": "OC(=O)C1=CNN=C1C1=C(Cl)C=CC=C1", 
	 "Tm": 529.15, 
	 "num_atms": 22, 
	 "gaussian": { 
		 "optdone": 1, 
		 "sigma_profile": "yes", 
		 "theory": "DFT", 
		 "functional": "B3LYP", 
		 "basiset": "6-31G**", 
		 "properties": { 
			 "R2extent": 3265.2903, 
			 "electric_dipole_moment_norm": 3.28983217049, 
			 "electric_quadrupole_moment_norm": 19.1506835948, 
			 "total_energy": -1105.42093296, 
			 "HOMO_LUMO_gap": 0.20833, 
			 "cosmo_polarized_energy": -18.5, 
			 "cosmo_cavitation_energy": 28.98, 
			 "cosmo_dispersion_energy": -20.87, 
			 "cosmo_repulsion_energy": 1.65, 
			 "cosmo_total_nonelectrostatic_energy": 9.76, 
			 "SMD_solvation_energy": 5.03 
		},
		"coords": [
			{
				"x": 2.1183977285,
				"y": 2.1938684898,
				"z": 1.9916815282,
				"element": "O" 
			},
			{
				"x": 1.4917699616,
				"y": 1.1801473579,
				"z": 1.3295796549,
				"element": "C" 
			},
			{
				"x": 1.9496409788,
				"y": 0.0569226291,
				"z": 1.28613457,
				"element": "O" 
			},
			{
				"x": 0.2534362675,
				"y": 1.6318376286,
				"z": 0.6909968246,
				"element": "C" 
			},
			{
				"x": -0.2083199891,
				"y": 2.9373547657,
				"z": 0.6151086688,
				"element": "C" 
			},
			{
				"x": -1.3284623921,
				"y": 2.8950193109,
				"z": -0.1335532313,
				"element": "N" 
			},
			{
				"x": -1.6480332869,
				"y": 1.6486842416,
				"z": -0.5576282256,
				"element": "N" 
			},
			{
				"x": -0.6936944948,
				"y": 0.8646398105,
				"z": -0.0572676509,
				"element": "C" 
			},
			{
				"x": -0.7096093809,
				"y": -0.5843218261,
				"z": -0.363597961,
				"element": "C" 
			},
			{
				"x": -0.8302303928,
				"y": -1.5824175283,
				"z": 0.6161121037,
				"element": "C" 
			},
			{
				"x": -1.0217592166,
				"y": -1.1597980253,
				"z": 2.3112406417,
				"element": "Cl" 
			},
			{
				"x": -0.8489894942,
				"y": -2.9345297646,
				"z": 0.2767147251,
				"element": "C" 
			},
			{
				"x": -0.7585131232,
				"y": -3.3126416922,
				"z": -1.0621844598,
				"element": "C" 
			},
			{
				"x": -0.6608331634,
				"y": -2.3396512578,
				"z": -2.0568760009,
				"element": "C" 
			},
			{
				"x": -0.6393699877,
				"y": -0.9923707834,
				"z": -1.7044863453,
				"element": "C" 
			},
			{
				"x": 2.9241083346,
				"y": 1.7999540867,
				"z": 2.3645259758,
				"element": "H" 
			},
			{
				"x": 0.1906692042,
				"y": 3.8518838345,
				"z": 1.0268899506,
				"element": "H" 
			},
			{
				"x": -1.9327804282,
				"y": 3.6620883586,
				"z": -0.38573701,
				"element": "H" 
			},
			{
				"x": -0.9426438355,
				"y": -3.6783200443,
				"z": 1.0600223743,
				"element": "H" 
			},
			{
				"x": -0.7714194685,
				"y": -4.3668733791,
				"z": -1.3224026239,
				"element": "H" 
			},
			{
				"x": -0.5994672047,
				"y": -2.626922287,
				"z": -3.1020024886,
				"element": "H" 
			},
			{
				"x": -0.5624966165,
				"y": -0.2265539258,
				"z": -2.4693710207,
				"element": "H" 
			}
		],
		 "valence_orbital": [ 
			{
				"type": "occ",
				"energy": -0.28128,
				"method": "rhf"
			},
			{
				"type": "occ",
				"energy": -0.27182,
				"method": "rhf"
			},
			{
				"type": "occ",
				"energy": -0.26408,
				"method": "rhf"
			},
			{
				"type": "occ",
				"energy": -0.2485,
				"method": "rhf"
			},
			{
				"type": "occ",
				"energy": -0.23627,
				"method": "rhf"
			},
			{
				"type": "unocc",
				"energy": -0.02794,
				"method": "rhf"
			},
			{
				"type": "unocc",
				"energy": -0.01508,
				"method": "rhf"
			},
			{
				"type": "unocc",
				"energy": -0.00497,
				"method": "rhf"
			},
			{
				"type": "unocc",
				"energy": 0.01907,
				"method": "rhf"
			},
			{
				"type": "unocc",
				"energy": 0.04032,
				"method": "rhf"
			}
		],
		"cosmo_sigma_profile": { 
			"-0.025": 0.0,
			"-0.024": 0.0,
			"-0.023": 0.0,
			"-0.022": 0.0,
			"-0.021": 0.0,
			"-0.02": 0.0,
			"-0.019": 0.0394188048262,
			"-0.018": 1.30253357678,
			"-0.017": 2.94787961393,
			"-0.016": 2.3103283859,
			"-0.015": 1.92590624227,
			"-0.014": 1.46102340705,
			"-0.013": 1.86897819776,
			"-0.012": 1.63350930566,
			"-0.011": 2.09166759603,
			"-0.01": 3.36046337368,
			"-0.009": 3.07530712287,
			"-0.008": 2.99757583486,
			"-0.007": 5.70687715059,
			"-0.006": 10.6695496316,
			"-0.005": 11.6003734621,
			"-0.004": 9.60145502465,
			"-0.003": 8.65243589358,
			"-0.002": 10.4928890845,
			"-0.001": 12.8457250201,
			"0.0": 16.5474699973,
			"0.001": 19.5011508562,
			"0.002": 17.877228333,
			"0.003": 19.4170681128,
			"0.004": 22.1910387367,
			"0.005": 10.0232131171,
			"0.006": 6.05218991616,
			"0.007": 3.96735711762,
			"0.008": 4.98631650038,
			"0.009": 3.42932260537,
			"0.01": 4.14594627215,
			"0.011": 4.29758782021,
			"0.012": 5.14276209554,
			"0.013": 1.41937482503,
			"0.014": 0.619283522249,
			"0.015": 0.521878888412,
			"0.016": 0.0,
			"0.017": 0.0,
			"0.018": 0.0,
			"0.019": 0.0,
			"0.02": 0.0,
			"0.021": 0.0,
			"0.022": 0.0,
			"0.023": 0.0,
			"0.024": 0.0,
			"0.025": 0.0
		}
	}
}
