{
	 "smiles": "CCCSC1=C2C(CC(C)(C)CC2=O)=C(S1)C(=O)OC", 
	 "Tm": 369.65, 
	 "num_atms": 40, 
	 "gaussian": { 
		 "optdone": 1, 
		 "sigma_profile": "yes", 
		 "theory": "DFT", 
		 "functional": "B3LYP", 
		 "basiset": "6-31G**", 
		 "properties": { 
			 "R2extent": 7424.0459, 
			 "electric_dipole_moment_norm": 4.10926471038, 
			 "electric_quadrupole_moment_norm": 19.6203119975, 
			 "total_energy": -1605.72186634, 
			 "HOMO_LUMO_gap": 0.15312, 
			 "cosmo_polarized_energy": -12.1, 
			 "cosmo_cavitation_energy": 43.95, 
			 "cosmo_dispersion_energy": -30.48, 
			 "cosmo_repulsion_energy": 2.29, 
			 "cosmo_total_nonelectrostatic_energy": 15.76, 
			 "SMD_solvation_energy": 8.34 
		},
		"coords": [
			{
				"x": -3.8906499116,
				"y": -0.7656492877,
				"z": -2.9323435522,
				"element": "C" 
			},
			{
				"x": -3.5336593962,
				"y": -0.2008837207,
				"z": -1.5551223524,
				"element": "C" 
			},
			{
				"x": -3.5153663259,
				"y": -1.231064516,
				"z": -0.423660049,
				"element": "C" 
			},
			{
				"x": -2.2186049447,
				"y": -2.5403241603,
				"z": -0.5691137652,
				"element": "S" 
			},
			{
				"x": -0.6979049212,
				"y": -1.6549599004,
				"z": -0.4346320679,
				"element": "C" 
			},
			{
				"x": -0.1312953737,
				"y": -0.9027599745,
				"z": 0.5990987104,
				"element": "C" 
			},
			{
				"x": 1.2100554999,
				"y": -0.4727557179,
				"z": 0.3075244529,
				"element": "C" 
			},
			{
				"x": 2.0224774332,
				"y": 0.324347472,
				"z": 1.3015821635,
				"element": "C" 
			},
			{
				"x": 1.1659873267,
				"y": 1.0362950263,
				"z": 2.3744665711,
				"element": "C" 
			},
			{
				"x": 2.0868139235,
				"y": 1.5426300966,
				"z": 3.4976525047,
				"element": "C" 
			},
			{
				"x": 0.4151227019,
				"y": 2.235683147,
				"z": 1.7605991333,
				"element": "C" 
			},
			{
				"x": 0.1629464735,
				"y": 0.0140941981,
				"z": 2.9523247805,
				"element": "C" 
			},
			{
				"x": -0.755533427,
				"y": -0.6093451626,
				"z": 1.909387844,
				"element": "C" 
			},
			{
				"x": -1.9233856257,
				"y": -0.863621203,
				"z": 2.1758113502,
				"element": "O" 
			},
			{
				"x": 1.6410322194,
				"y": -0.9123679523,
				"z": -0.9300229897,
				"element": "C" 
			},
			{
				"x": 0.4050293498,
				"y": -1.8256692844,
				"z": -1.7565954783,
				"element": "S" 
			},
			{
				"x": 2.9148002987,
				"y": -0.7647479128,
				"z": -1.6485372231,
				"element": "C" 
			},
			{
				"x": 3.1129020551,
				"y": -1.2120370288,
				"z": -2.7639423521,
				"element": "O" 
			},
			{
				"x": 3.8513687221,
				"y": -0.0864957658,
				"z": -0.9443326437,
				"element": "O" 
			},
			{
				"x": 5.1114431716,
				"y": 0.0791200549,
				"z": -1.6176132131,
				"element": "C" 
			},
			{
				"x": -3.1676394868,
				"y": -1.521799585,
				"z": -3.2520714373,
				"element": "H" 
			},
			{
				"x": -4.8809582337,
				"y": -1.2355558812,
				"z": -2.9204610766,
				"element": "H" 
			},
			{
				"x": -3.9064930405,
				"y": 0.0263301873,
				"z": -3.687709343,
				"element": "H" 
			},
			{
				"x": -4.2653245103,
				"y": 0.5685863231,
				"z": -1.2723084742,
				"element": "H" 
			},
			{
				"x": -2.5624710908,
				"y": 0.307649761,
				"z": -1.5959743794,
				"element": "H" 
			},
			{
				"x": -3.387530156,
				"y": -0.7728861646,
				"z": 0.5572345321,
				"element": "H" 
			},
			{
				"x": -4.4411748655,
				"y": -1.8179687415,
				"z": -0.4115504671,
				"element": "H" 
			},
			{
				"x": 2.720373381,
				"y": -0.3626658752,
				"z": 1.8016139023,
				"element": "H" 
			},
			{
				"x": 2.6504219359,
				"y": 1.0471545745,
				"z": 0.775163114,
				"element": "H" 
			},
			{
				"x": 1.5115802393,
				"y": 2.0640414371,
				"z": 4.270300519,
				"element": "H" 
			},
			{
				"x": 2.8320880263,
				"y": 2.2441394581,
				"z": 3.1059806367,
				"element": "H" 
			},
			{
				"x": 2.6228773143,
				"y": 0.7163027662,
				"z": 3.9777472243,
				"element": "H" 
			},
			{
				"x": 1.1233028283,
				"y": 2.9794637108,
				"z": 1.3794774146,
				"element": "H" 
			},
			{
				"x": -0.2312984363,
				"y": 1.9376371649,
				"z": 0.92914827,
				"element": "H" 
			},
			{
				"x": -0.2135092569,
				"y": 2.7255083161,
				"z": 2.5120234536,
				"element": "H" 
			},
			{
				"x": -0.4728693186,
				"y": 0.4588686986,
				"z": 3.723728979,
				"element": "H" 
			},
			{
				"x": 0.7206121081,
				"y": -0.8066544306,
				"z": 3.4284450042,
				"element": "H" 
			},
			{
				"x": 4.9801965995,
				"y": 0.6342908686,
				"z": -2.5495244145,
				"element": "H" 
			},
			{
				"x": 5.7417311834,
				"y": 0.6355372014,
				"z": -0.9241361241,
				"element": "H" 
			},
			{
				"x": 5.5549055298,
				"y": -0.8928681974,
				"z": -1.8461591572,
				"element": "H" 
			}
		],
		 "valence_orbital": [ 
			{
				"type": "occ",
				"energy": -0.28401,
				"method": "rhf"
			},
			{
				"type": "occ",
				"energy": -0.26261,
				"method": "rhf"
			},
			{
				"type": "occ",
				"energy": -0.26029,
				"method": "rhf"
			},
			{
				"type": "occ",
				"energy": -0.24761,
				"method": "rhf"
			},
			{
				"type": "occ",
				"energy": -0.22401,
				"method": "rhf"
			},
			{
				"type": "unocc",
				"energy": -0.07089,
				"method": "rhf"
			},
			{
				"type": "unocc",
				"energy": -0.04183,
				"method": "rhf"
			},
			{
				"type": "unocc",
				"energy": 0.02094,
				"method": "rhf"
			},
			{
				"type": "unocc",
				"energy": 0.04133,
				"method": "rhf"
			},
			{
				"type": "unocc",
				"energy": 0.06056,
				"method": "rhf"
			}
		],
		"cosmo_sigma_profile": { 
			"-0.025": 0.0,
			"-0.024": 0.0,
			"-0.023": 0.0,
			"-0.022": 0.0,
			"-0.021": 0.0,
			"-0.02": 0.0,
			"-0.019": 0.0,
			"-0.018": 0.0,
			"-0.017": 0.0,
			"-0.016": 0.0,
			"-0.015": 0.0,
			"-0.014": 0.0,
			"-0.013": 0.0,
			"-0.012": 0.0,
			"-0.011": 0.0,
			"-0.01": 0.0,
			"-0.009": 0.0,
			"-0.008": 0.0,
			"-0.007": 0.966396831811,
			"-0.006": 10.7105734781,
			"-0.005": 16.4082545898,
			"-0.004": 22.3175877833,
			"-0.003": 44.0575126952,
			"-0.002": 41.8972559783,
			"-0.001": 46.6744079946,
			"0.0": 46.9594811466,
			"0.001": 37.5512951405,
			"0.002": 20.058286645,
			"0.003": 9.70312239734,
			"0.004": 8.65448978021,
			"0.005": 7.16566647912,
			"0.006": 4.83483429238,
			"0.007": 4.54886288137,
			"0.008": 4.03652060173,
			"0.009": 4.42017108159,
			"0.01": 3.91103571596,
			"0.011": 7.18701655962,
			"0.012": 4.95723044088,
			"0.013": 1.37659256095,
			"0.014": 0.0755128997138,
			"0.015": 0.0,
			"0.016": 0.0,
			"0.017": 0.0,
			"0.018": 0.0,
			"0.019": 0.0,
			"0.02": 0.0,
			"0.021": 0.0,
			"0.022": 0.0,
			"0.023": 0.0,
			"0.024": 0.0,
			"0.025": 0.0
		}
	}
}
