{
	 "smiles": "CC1=CSC(SCC2=C(C=CC=C2)C(O)=O)=N1", 
	 "Tm": 433.15, 
	 "num_atms": 28, 
	 "gaussian": { 
		 "optdone": 1, 
		 "sigma_profile": "yes", 
		 "theory": "DFT", 
		 "functional": "B3LYP", 
		 "basiset": "6-31G**", 
		 "properties": { 
			 "R2extent": 7854.0593, 
			 "electric_dipole_moment_norm": 2.63976743862, 
			 "electric_quadrupole_moment_norm": 8.9140189707, 
			 "total_energy": -1465.49386469, 
			 "HOMO_LUMO_gap": 0.1584, 
			 "cosmo_polarized_energy": -11.45, 
			 "cosmo_cavitation_energy": 35.32, 
			 "cosmo_dispersion_energy": -26.0, 
			 "cosmo_repulsion_energy": 1.94, 
			 "cosmo_total_nonelectrostatic_energy": 11.25, 
			 "SMD_solvation_energy": 6.21 
		},
		"coords": [
			{
				"x": -0.8826667502,
				"y": 3.1166567439,
				"z": 0.5373773371,
				"element": "C" 
			},
			{
				"x": 0.4885917162,
				"y": 2.7064629421,
				"z": 0.9862975878,
				"element": "C" 
			},
			{
				"x": 1.6033155895,
				"y": 3.4917187169,
				"z": 0.9878257923,
				"element": "C" 
			},
			{
				"x": 2.9785470635,
				"y": 2.605287229,
				"z": 1.585490815,
				"element": "S" 
			},
			{
				"x": 1.9180442798,
				"y": 1.2114553814,
				"z": 1.8038532075,
				"element": "C" 
			},
			{
				"x": 2.590706313,
				"y": -0.2769111566,
				"z": 2.4786136637,
				"element": "S" 
			},
			{
				"x": 1.1109810115,
				"y": -1.3900220846,
				"z": 2.3780677658,
				"element": "C" 
			},
			{
				"x": 1.0287511383,
				"y": -2.1924762456,
				"z": 1.1016481134,
				"element": "C" 
			},
			{
				"x": 1.7567745823,
				"y": -3.3799572449,
				"z": 0.841934748,
				"element": "C" 
			},
			{
				"x": 1.5678600151,
				"y": -4.0585785308,
				"z": -0.3735510345,
				"element": "C" 
			},
			{
				"x": 0.6861331703,
				"y": -3.5838013515,
				"z": -1.3370850232,
				"element": "C" 
			},
			{
				"x": -0.0250307089,
				"y": -2.4088523533,
				"z": -1.0914497942,
				"element": "C" 
			},
			{
				"x": 0.1475058376,
				"y": -1.7298497494,
				"z": 0.1129650717,
				"element": "C" 
			},
			{
				"x": 2.7546702576,
				"y": -4.0175380266,
				"z": 1.7511319827,
				"element": "C" 
			},
			{
				"x": 3.013967913,
				"y": -3.3297479376,
				"z": 2.8942846195,
				"element": "O" 
			},
			{
				"x": 3.3221401669,
				"y": -5.0666774813,
				"z": 1.5163766782,
				"element": "O" 
			},
			{
				"x": 0.6819571675,
				"y": 1.4142977061,
				"z": 1.4519806663,
				"element": "N" 
			},
			{
				"x": -1.6082678477,
				"y": 2.9959883807,
				"z": 1.3489720038,
				"element": "H" 
			},
			{
				"x": -1.2216147387,
				"y": 2.4923205682,
				"z": -0.2967435627,
				"element": "H" 
			},
			{
				"x": -0.8960781326,
				"y": 4.1600959191,
				"z": 0.2135522855,
				"element": "H" 
			},
			{
				"x": 1.7004597577,
				"y": 4.5221771013,
				"z": 0.677446355,
				"element": "H" 
			},
			{
				"x": 1.19217307,
				"y": -2.0196803645,
				"z": 3.2608202897,
				"element": "H" 
			},
			{
				"x": 0.2427022625,
				"y": -0.7379350865,
				"z": 2.4719448171,
				"element": "H" 
			},
			{
				"x": 2.1363118875,
				"y": -4.9674057554,
				"z": -0.535860721,
				"element": "H" 
			},
			{
				"x": 0.5567037453,
				"y": -4.1239013892,
				"z": -2.2699648171,
				"element": "H" 
			},
			{
				"x": -0.7159261538,
				"y": -2.0204180442,
				"z": -1.8344155508,
				"element": "H" 
			},
			{
				"x": -0.3943200333,
				"y": -0.8085505765,
				"z": 0.3010589461,
				"element": "H" 
			},
			{
				"x": 3.69060742,
				"y": -3.8493573099,
				"z": 3.3600277572,
				"element": "H" 
			}
		],
		 "valence_orbital": [ 
			{
				"type": "occ",
				"energy": -0.27878,
				"method": "rhf"
			},
			{
				"type": "occ",
				"energy": -0.27231,
				"method": "rhf"
			},
			{
				"type": "occ",
				"energy": -0.26171,
				"method": "rhf"
			},
			{
				"type": "occ",
				"energy": -0.25429,
				"method": "rhf"
			},
			{
				"type": "occ",
				"energy": -0.21225,
				"method": "rhf"
			},
			{
				"type": "unocc",
				"energy": -0.05385,
				"method": "rhf"
			},
			{
				"type": "unocc",
				"energy": -0.02131,
				"method": "rhf"
			},
			{
				"type": "unocc",
				"energy": -0.01481,
				"method": "rhf"
			},
			{
				"type": "unocc",
				"energy": 0.00822,
				"method": "rhf"
			},
			{
				"type": "unocc",
				"energy": 0.04072,
				"method": "rhf"
			}
		],
		"cosmo_sigma_profile": { 
			"-0.025": 0.0,
			"-0.024": 0.0,
			"-0.023": 0.0,
			"-0.022": 0.0,
			"-0.021": 0.0,
			"-0.02": 0.0,
			"-0.019": 0.109087745982,
			"-0.018": 0.745269419915,
			"-0.017": 1.05316522247,
			"-0.016": 0.794463876953,
			"-0.015": 0.488675451709,
			"-0.014": 0.865683048343,
			"-0.013": 0.423891560632,
			"-0.012": 0.809997317343,
			"-0.011": 0.740183856399,
			"-0.01": 0.785107802332,
			"-0.009": 1.04888676495,
			"-0.008": 2.43217144435,
			"-0.007": 5.02656302408,
			"-0.006": 9.28626372432,
			"-0.005": 16.1956201343,
			"-0.004": 20.0146627564,
			"-0.003": 22.0436744542,
			"-0.002": 20.4515627242,
			"-0.001": 21.1927774588,
			"0.0": 23.8257544841,
			"0.001": 24.0177103654,
			"0.002": 28.8084526326,
			"0.003": 32.7933804413,
			"0.004": 21.9727846775,
			"0.005": 8.07809153817,
			"0.006": 5.4024927168,
			"0.007": 4.15154401141,
			"0.008": 1.84563554667,
			"0.009": 2.20679914497,
			"0.01": 1.90094882207,
			"0.011": 4.05374649636,
			"0.012": 3.12654757074,
			"0.013": 0.00982101007272,
			"0.014": 0.0,
			"0.015": 0.0,
			"0.016": 0.0,
			"0.017": 0.0,
			"0.018": 0.0,
			"0.019": 0.0,
			"0.02": 0.0,
			"0.021": 0.0,
			"0.022": 0.0,
			"0.023": 0.0,
			"0.024": 0.0,
			"0.025": 0.0
		}
	}
}
