{
	 "smiles": "N#CC1(CCCCC1)N1CCNCC1", 
	 "Tm": 356.15, 
	 "num_atms": 33, 
	 "gaussian": { 
		 "optdone": 1, 
		 "sigma_profile": "yes", 
		 "theory": "DFT", 
		 "functional": "B3LYP", 
		 "basiset": "6-31G**", 
		 "properties": { 
			 "R2extent": 3478.2499, 
			 "electric_dipole_moment_norm": 3.39922580009, 
			 "electric_quadrupole_moment_norm": 13.4176686216, 
			 "total_energy": -594.845848594, 
			 "HOMO_LUMO_gap": 0.25463, 
			 "cosmo_polarized_energy": -10.83, 
			 "cosmo_cavitation_energy": 31.59, 
			 "cosmo_dispersion_energy": -22.74, 
			 "cosmo_repulsion_energy": 1.78, 
			 "cosmo_total_nonelectrostatic_energy": 10.63, 
			 "SMD_solvation_energy": 0.98 
		},
		"coords": [
			{
				"x": 2.1164872666,
				"y": -1.0260221192,
				"z": 2.0836172549,
				"element": "N" 
			},
			{
				"x": 1.0029482334,
				"y": -0.9900939732,
				"z": 1.752296857,
				"element": "C" 
			},
			{
				"x": -0.4034145901,
				"y": -0.9261663593,
				"z": 1.2476395131,
				"element": "C" 
			},
			{
				"x": -1.0738920356,
				"y": -2.3186308979,
				"z": 1.4291833767,
				"element": "C" 
			},
			{
				"x": -1.242054476,
				"y": -2.7334101666,
				"z": 2.8982805271,
				"element": "C" 
			},
			{
				"x": -2.0213375711,
				"y": -1.6864646297,
				"z": 3.7015374304,
				"element": "C" 
			},
			{
				"x": -1.3587175457,
				"y": -0.3109745405,
				"z": 3.569717133,
				"element": "C" 
			},
			{
				"x": -1.1906838006,
				"y": 0.1084275881,
				"z": 2.1020479318,
				"element": "C" 
			},
			{
				"x": -0.4155515699,
				"y": -0.530003177,
				"z": -0.1762190178,
				"element": "N" 
			},
			{
				"x": -0.0189526946,
				"y": 0.8729680871,
				"z": -0.4265765792,
				"element": "C" 
			},
			{
				"x": 0.1767414661,
				"y": 1.1162887177,
				"z": -1.947119314,
				"element": "C" 
			},
			{
				"x": -0.6132575644,
				"y": 0.2131870859,
				"z": -2.7785747844,
				"element": "N" 
			},
			{
				"x": -0.1997129573,
				"y": -1.1760903708,
				"z": -2.5346799229,
				"element": "C" 
			},
			{
				"x": 0.3185225176,
				"y": -1.4147137291,
				"z": -1.0944945969,
				"element": "C" 
			},
			{
				"x": -0.5015884623,
				"y": -3.0884590692,
				"z": 0.9062750372,
				"element": "H" 
			},
			{
				"x": -2.0512123185,
				"y": -2.2487136646,
				"z": 0.9365998765,
				"element": "H" 
			},
			{
				"x": -1.7483187201,
				"y": -3.7047596215,
				"z": 2.9350613624,
				"element": "H" 
			},
			{
				"x": -0.2527888057,
				"y": -2.8812389609,
				"z": 3.3505861672,
				"element": "H" 
			},
			{
				"x": -3.0539301245,
				"y": -1.6329399265,
				"z": 3.3284420869,
				"element": "H" 
			},
			{
				"x": -2.0823447276,
				"y": -1.9812279659,
				"z": 4.755353367,
				"element": "H" 
			},
			{
				"x": -1.9476559219,
				"y": 0.4534929689,
				"z": 4.0892830415,
				"element": "H" 
			},
			{
				"x": -0.3751145309,
				"y": -0.3296767828,
				"z": 4.0567811078,
				"element": "H" 
			},
			{
				"x": -0.6971420251,
				"y": 1.0821646949,
				"z": 2.0613942944,
				"element": "H" 
			},
			{
				"x": -2.1721774614,
				"y": 0.2175826963,
				"z": 1.6235908777,
				"element": "H" 
			},
			{
				"x": 0.9085017081,
				"y": 1.1426084772,
				"z": 0.1104178722,
				"element": "H" 
			},
			{
				"x": -0.8137394575,
				"y": 1.5289608325,
				"z": -0.0594740105,
				"element": "H" 
			},
			{
				"x": 1.2300653966,
				"y": 0.9842706551,
				"z": -2.2204259828,
				"element": "H" 
			},
			{
				"x": -0.0776876549,
				"y": 2.1543732592,
				"z": -2.1845468282,
				"element": "H" 
			},
			{
				"x": -1.589222417,
				"y": 0.3064283816,
				"z": -2.5085057101,
				"element": "H" 
			},
			{
				"x": -1.056189443,
				"y": -1.8262381462,
				"z": -2.7391966805,
				"element": "H" 
			},
			{
				"x": 0.5917699848,
				"y": -1.4512813703,
				"z": -3.2449904723,
				"element": "H" 
			},
			{
				"x": 1.4068494481,
				"y": -1.2411599069,
				"z": -1.0356404938,
				"element": "H" 
			},
			{
				"x": 0.1577008543,
				"y": -2.4589880662,
				"z": -0.8256607217,
				"element": "H" 
			}
		],
		 "valence_orbital": [ 
			{
				"type": "occ",
				"energy": -0.32351,
				"method": "rhf"
			},
			{
				"type": "occ",
				"energy": -0.31755,
				"method": "rhf"
			},
			{
				"type": "occ",
				"energy": -0.30197,
				"method": "rhf"
			},
			{
				"type": "occ",
				"energy": -0.22925,
				"method": "rhf"
			},
			{
				"type": "occ",
				"energy": -0.22129,
				"method": "rhf"
			},
			{
				"type": "unocc",
				"energy": 0.03334,
				"method": "rhf"
			},
			{
				"type": "unocc",
				"energy": 0.04143,
				"method": "rhf"
			},
			{
				"type": "unocc",
				"energy": 0.06922,
				"method": "rhf"
			},
			{
				"type": "unocc",
				"energy": 0.08643,
				"method": "rhf"
			},
			{
				"type": "unocc",
				"energy": 0.10152,
				"method": "rhf"
			}
		],
		"cosmo_sigma_profile": { 
			"-0.025": 0.0,
			"-0.024": 0.0,
			"-0.023": 0.0,
			"-0.022": 0.0,
			"-0.021": 0.0,
			"-0.02": 0.0,
			"-0.019": 0.0,
			"-0.018": 0.0,
			"-0.017": 0.0,
			"-0.016": 0.0,
			"-0.015": 0.0,
			"-0.014": 0.0,
			"-0.013": 0.0,
			"-0.012": 0.0,
			"-0.011": 0.0,
			"-0.01": 0.184203217938,
			"-0.009": 1.2846916757,
			"-0.008": 0.722673470612,
			"-0.007": 1.47555152389,
			"-0.006": 3.37959477486,
			"-0.005": 4.43398988446,
			"-0.004": 20.2703219286,
			"-0.003": 41.0347680273,
			"-0.002": 46.8147156606,
			"-0.001": 39.3384991419,
			"0.0": 23.8443119009,
			"0.001": 11.3374384754,
			"0.002": 5.00009899554,
			"0.003": 3.65760379933,
			"0.004": 4.22875281771,
			"0.005": 3.52921669948,
			"0.006": 3.36828983172,
			"0.007": 3.8160439626,
			"0.008": 3.4041648888,
			"0.009": 4.49731929524,
			"0.01": 4.09741749838,
			"0.011": 4.02476798125,
			"0.012": 2.93077538653,
			"0.013": 3.5509179636,
			"0.014": 1.4678541084,
			"0.015": 0.442830584817,
			"0.016": 0.696904173438,
			"0.017": 0.290376478149,
			"0.018": 0.859074403665,
			"0.019": 0.112330915196,
			"0.02": 0.0,
			"0.021": 0.0,
			"0.022": 0.0,
			"0.023": 0.0,
			"0.024": 0.0,
			"0.025": 0.0
		}
	}
}
