{
	 "smiles": "CCOC1=CC=C(NC2CCN(CC(F)(F)F)CC2)C=C1", 
	 "Tm": 328.15, 
	 "num_atms": 42, 
	 "gaussian": { 
		 "optdone": 1, 
		 "sigma_profile": "yes", 
		 "theory": "DFT", 
		 "functional": "B3LYP", 
		 "basiset": "6-31G**", 
		 "properties": { 
			 "R2extent": 11671.2641, 
			 "electric_dipole_moment_norm": 2.75337830492, 
			 "electric_quadrupole_moment_norm": 17.42130292, 
			 "total_energy": -1068.48570326, 
			 "HOMO_LUMO_gap": 0.18876, 
			 "cosmo_polarized_energy": -11.13, 
			 "cosmo_cavitation_energy": 43.78, 
			 "cosmo_dispersion_energy": -30.52, 
			 "cosmo_repulsion_energy": 2.29, 
			 "cosmo_total_nonelectrostatic_energy": 15.55, 
			 "SMD_solvation_energy": 5.79 
		},
		"coords": [
			{
				"x": 5.8962935054,
				"y": 3.2151119267,
				"z": 1.2156796045,
				"element": "C" 
			},
			{
				"x": 5.6243724595,
				"y": 2.7843065151,
				"z": -0.2227903617,
				"element": "C" 
			},
			{
				"x": 5.37544476,
				"y": 1.383912242,
				"z": -0.3412762776,
				"element": "O" 
			},
			{
				"x": 4.1373279436,
				"y": 0.8850741934,
				"z": -0.0334162942,
				"element": "C" 
			},
			{
				"x": 3.0223922011,
				"y": 1.644650457,
				"z": 0.3403754712,
				"element": "C" 
			},
			{
				"x": 1.8059209949,
				"y": 1.0171762151,
				"z": 0.6210362373,
				"element": "C" 
			},
			{
				"x": 1.6535887476,
				"y": -0.3718446363,
				"z": 0.5080747125,
				"element": "C" 
			},
			{
				"x": 0.4302478444,
				"y": -1.0150323286,
				"z": 0.838411736,
				"element": "N" 
			},
			{
				"x": -0.7651536082,
				"y": -0.8525439753,
				"z": -0.0167604155,
				"element": "C" 
			},
			{
				"x": -0.5349541071,
				"y": -1.1822492238,
				"z": -1.5134471482,
				"element": "C" 
			},
			{
				"x": -1.6214995167,
				"y": -0.5481192282,
				"z": -2.4067394331,
				"element": "C" 
			},
			{
				"x": -2.8861394021,
				"y": -0.4676468717,
				"z": -1.6694560011,
				"element": "N" 
			},
			{
				"x": -4.058488153,
				"y": -0.308903183,
				"z": -2.5019159475,
				"element": "C" 
			},
			{
				"x": -5.2970260811,
				"y": -0.9799756821,
				"z": -1.9246999007,
				"element": "C" 
			},
			{
				"x": -5.1176239618,
				"y": -2.2990787881,
				"z": -1.7334651813,
				"element": "F" 
			},
			{
				"x": -6.3362640674,
				"y": -0.826596252,
				"z": -2.7794098375,
				"element": "F" 
			},
			{
				"x": -5.6763378681,
				"y": -0.4464995861,
				"z": -0.7395721075,
				"element": "F" 
			},
			{
				"x": -2.8203011875,
				"y": 0.5022572621,
				"z": -0.5606996574,
				"element": "C" 
			},
			{
				"x": -1.4213195264,
				"y": 0.5291090507,
				"z": 0.0876775163,
				"element": "C" 
			},
			{
				"x": 2.7849714082,
				"y": -1.1184042448,
				"z": 0.1311963011,
				"element": "C" 
			},
			{
				"x": 4.0074071663,
				"y": -0.5074847679,
				"z": -0.1207872907,
				"element": "C" 
			},
			{
				"x": 6.1447363794,
				"y": 4.2814145842,
				"z": 1.2486499679,
				"element": "H" 
			},
			{
				"x": 6.7394905358,
				"y": 2.6517255747,
				"z": 1.6254605145,
				"element": "H" 
			},
			{
				"x": 5.0292483326,
				"y": 3.0457747386,
				"z": 1.8597495701,
				"element": "H" 
			},
			{
				"x": 4.7999661284,
				"y": 3.3587102024,
				"z": -0.6656228482,
				"element": "H" 
			},
			{
				"x": 6.5097110441,
				"y": 2.9577299961,
				"z": -0.841652804,
				"element": "H" 
			},
			{
				"x": 3.0880864891,
				"y": 2.7213378303,
				"z": 0.4448355997,
				"element": "H" 
			},
			{
				"x": 0.9730885651,
				"y": 1.6188900817,
				"z": 0.9665188264,
				"element": "H" 
			},
			{
				"x": 0.598559806,
				"y": -2.0067730258,
				"z": 0.9707503364,
				"element": "H" 
			},
			{
				"x": -1.4860351776,
				"y": -1.5739552532,
				"z": 0.3837954022,
				"element": "H" 
			},
			{
				"x": -0.5251448306,
				"y": -2.2700613149,
				"z": -1.6469396924,
				"element": "H" 
			},
			{
				"x": 0.448063014,
				"y": -0.8081742353,
				"z": -1.8202884722,
				"element": "H" 
			},
			{
				"x": -1.2915988538,
				"y": 0.4455141068,
				"z": -2.7649199457,
				"element": "H" 
			},
			{
				"x": -1.7766283422,
				"y": -1.1623375225,
				"z": -3.2989437838,
				"element": "H" 
			},
			{
				"x": -3.8901905611,
				"y": -0.7881404127,
				"z": -3.4703815587,
				"element": "H" 
			},
			{
				"x": -4.3279644271,
				"y": 0.744946572,
				"z": -2.6998112865,
				"element": "H" 
			},
			{
				"x": -3.5716694241,
				"y": 0.221950802,
				"z": 0.1825984468,
				"element": "H" 
			},
			{
				"x": -3.0821025741,
				"y": 1.5190317056,
				"z": -0.9109834149,
				"element": "H" 
			},
			{
				"x": -0.7909008359,
				"y": 1.2725275808,
				"z": -0.4118093055,
				"element": "H" 
			},
			{
				"x": -1.506081807,
				"y": 0.8305768522,
				"z": 1.1361104449,
				"element": "H" 
			},
			{
				"x": 2.7020134954,
				"y": -2.1989914122,
				"z": 0.035871124,
				"element": "H" 
			},
			{
				"x": 4.8761934921,
				"y": -1.0916165453,
				"z": -0.4070028459,
				"element": "H" 
			}
		],
		 "valence_orbital": [ 
			{
				"type": "occ",
				"energy": -0.31256,
				"method": "rhf"
			},
			{
				"type": "occ",
				"energy": -0.25068,
				"method": "rhf"
			},
			{
				"type": "occ",
				"energy": -0.24689,
				"method": "rhf"
			},
			{
				"type": "occ",
				"energy": -0.21959,
				"method": "rhf"
			},
			{
				"type": "occ",
				"energy": -0.18901,
				"method": "rhf"
			},
			{
				"type": "unocc",
				"energy": -0.00025,
				"method": "rhf"
			},
			{
				"type": "unocc",
				"energy": 0.0208,
				"method": "rhf"
			},
			{
				"type": "unocc",
				"energy": 0.07447,
				"method": "rhf"
			},
			{
				"type": "unocc",
				"energy": 0.08222,
				"method": "rhf"
			},
			{
				"type": "unocc",
				"energy": 0.08914,
				"method": "rhf"
			}
		],
		"cosmo_sigma_profile": { 
			"-0.025": 0.0,
			"-0.024": 0.0,
			"-0.023": 0.0,
			"-0.022": 0.0,
			"-0.021": 0.0,
			"-0.02": 0.0,
			"-0.019": 0.0,
			"-0.018": 0.0,
			"-0.017": 0.0,
			"-0.016": 0.0,
			"-0.015": 0.0,
			"-0.014": 0.0,
			"-0.013": 0.0,
			"-0.012": 0.0,
			"-0.011": 0.639945117433,
			"-0.01": 1.29373373539,
			"-0.009": 1.32394280924,
			"-0.008": 2.67339393195,
			"-0.007": 4.43100462242,
			"-0.006": 8.87050956493,
			"-0.005": 17.1477956402,
			"-0.004": 24.352237856,
			"-0.003": 37.5385978185,
			"-0.002": 45.688623628,
			"-0.001": 34.466076762,
			"0.0": 25.8587288828,
			"0.001": 20.2972188197,
			"0.002": 17.9604658591,
			"0.003": 35.8061706601,
			"0.004": 20.9784740245,
			"0.005": 11.6253878935,
			"0.006": 12.590259513,
			"0.007": 5.80322925015,
			"0.008": 2.77610946684,
			"0.009": 3.18065071925,
			"0.01": 2.55908370332,
			"0.011": 2.27614418839,
			"0.012": 0.769055796776,
			"0.013": 0.924571578235,
			"0.014": 0.23186655396,
			"0.015": 0.457546024147,
			"0.016": 0.135981408235,
			"0.017": 0.0,
			"0.018": 0.0,
			"0.019": 0.0,
			"0.02": 0.0,
			"0.021": 0.0,
			"0.022": 0.0,
			"0.023": 0.0,
			"0.024": 0.0,
			"0.025": 0.0
		}
	}
}
