{
	 "smiles": "O=CC1=CC(=CC=C1)N1C=CC=N1", 
	 "Tm": 311.65, 
	 "num_atms": 21, 
	 "gaussian": { 
		 "optdone": 1, 
		 "sigma_profile": "yes", 
		 "theory": "DFT", 
		 "functional": "B3LYP", 
		 "basiset": "6-31G**", 
		 "properties": { 
			 "R2extent": 3417.4611, 
			 "electric_dipole_moment_norm": 4.83570771036, 
			 "electric_quadrupole_moment_norm": 14.6479784878, 
			 "total_energy": -570.576911859, 
			 "HOMO_LUMO_gap": 0.16745, 
			 "cosmo_polarized_energy": -12.65, 
			 "cosmo_cavitation_energy": 25.96, 
			 "cosmo_dispersion_energy": -19.05, 
			 "cosmo_repulsion_energy": 1.46, 
			 "cosmo_total_nonelectrostatic_energy": 8.37, 
			 "SMD_solvation_energy": 5.43 
		},
		"coords": [
			{
				"x": -1.8701045333,
				"y": -3.2312936394,
				"z": 0.1714603116,
				"element": "O" 
			},
			{
				"x": -2.1083487476,
				"y": -2.8075696579,
				"z": -0.942066014,
				"element": "C" 
			},
			{
				"x": -1.2878663632,
				"y": -1.7989468345,
				"z": -1.6570446556,
				"element": "C" 
			},
			{
				"x": -0.1476843568,
				"y": -1.2698114888,
				"z": -1.0422340492,
				"element": "C" 
			},
			{
				"x": 0.6224159828,
				"y": -0.3212078421,
				"z": -1.7168586311,
				"element": "C" 
			},
			{
				"x": 0.2471219537,
				"y": 0.0934073986,
				"z": -3.0047775891,
				"element": "C" 
			},
			{
				"x": -0.8905076457,
				"y": -0.4395153693,
				"z": -3.6090639324,
				"element": "C" 
			},
			{
				"x": -1.6637838184,
				"y": -1.3866805469,
				"z": -2.9414246537,
				"element": "C" 
			},
			{
				"x": 1.7773182915,
				"y": 0.2132049524,
				"z": -1.0910778634,
				"element": "N" 
			},
			{
				"x": 2.6614128277,
				"y": 1.1432620458,
				"z": -1.5723359986,
				"element": "C" 
			},
			{
				"x": 3.6135982349,
				"y": 1.335059787,
				"z": -0.5976802858,
				"element": "C" 
			},
			{
				"x": 3.2235051537,
				"y": 0.4700996148,
				"z": 0.452822567,
				"element": "C" 
			},
			{
				"x": 2.1202891637,
				"y": -0.2040908729,
				"z": 0.1567578925,
				"element": "N" 
			},
			{
				"x": -2.9934633942,
				"y": -3.1673654905,
				"z": -1.5133148603,
				"element": "H" 
			},
			{
				"x": 0.1318978378,
				"y": -1.5970947801,
				"z": -0.0489696508,
				"element": "H" 
			},
			{
				"x": 0.8341672152,
				"y": 0.8291354092,
				"z": -3.5424179615,
				"element": "H" 
			},
			{
				"x": -1.1671524842,
				"y": -0.1084762152,
				"z": -4.6052657003,
				"element": "H" 
			},
			{
				"x": -2.5517329043,
				"y": -1.8056147568,
				"z": -3.4075951455,
				"element": "H" 
			},
			{
				"x": 2.5548178243,
				"y": 1.5913252406,
				"z": -2.5470541192,
				"element": "H" 
			},
			{
				"x": 4.4632163512,
				"y": 1.9998646588,
				"z": -0.6381221926,
				"element": "H" 
			},
			{
				"x": 3.7022834112,
				"y": 0.3131083872,
				"z": 1.4101625321,
				"element": "H" 
			}
		],
		 "valence_orbital": [ 
			{
				"type": "occ",
				"energy": -0.29428,
				"method": "rhf"
			},
			{
				"type": "occ",
				"energy": -0.27092,
				"method": "rhf"
			},
			{
				"type": "occ",
				"energy": -0.25672,
				"method": "rhf"
			},
			{
				"type": "occ",
				"energy": -0.25651,
				"method": "rhf"
			},
			{
				"type": "occ",
				"energy": -0.23444,
				"method": "rhf"
			},
			{
				"type": "unocc",
				"energy": -0.06699,
				"method": "rhf"
			},
			{
				"type": "unocc",
				"energy": -0.03394,
				"method": "rhf"
			},
			{
				"type": "unocc",
				"energy": 0.01593,
				"method": "rhf"
			},
			{
				"type": "unocc",
				"energy": 0.05091,
				"method": "rhf"
			},
			{
				"type": "unocc",
				"energy": 0.06668,
				"method": "rhf"
			}
		],
		"cosmo_sigma_profile": { 
			"-0.025": 0.0,
			"-0.024": 0.0,
			"-0.023": 0.0,
			"-0.022": 0.0,
			"-0.021": 0.0,
			"-0.02": 0.0,
			"-0.019": 0.0,
			"-0.018": 0.0,
			"-0.017": 0.0,
			"-0.016": 0.0,
			"-0.015": 0.0,
			"-0.014": 0.0,
			"-0.013": 0.0,
			"-0.012": 0.178693663062,
			"-0.011": 1.45379718306,
			"-0.01": 1.87229971916,
			"-0.009": 2.39659368954,
			"-0.008": 4.86951468547,
			"-0.007": 12.5484922605,
			"-0.006": 13.3720023224,
			"-0.005": 12.7473480138,
			"-0.004": 11.336949704,
			"-0.003": 11.5592282492,
			"-0.002": 10.5628718596,
			"-0.001": 12.841830569,
			"0.0": 14.7687892967,
			"0.001": 16.7453359798,
			"0.002": 21.158697367,
			"0.003": 16.4586244374,
			"0.004": 10.7885354631,
			"0.005": 6.68330219955,
			"0.006": 2.55332435292,
			"0.007": 3.37718917347,
			"0.008": 4.3196334665,
			"0.009": 3.1840120229,
			"0.01": 3.85153736993,
			"0.011": 6.04570915261,
			"0.012": 3.48600629338,
			"0.013": 0.561309732181,
			"0.014": 0.0,
			"0.015": 0.0,
			"0.016": 0.0,
			"0.017": 0.0,
			"0.018": 0.0,
			"0.019": 0.0,
			"0.02": 0.0,
			"0.021": 0.0,
			"0.022": 0.0,
			"0.023": 0.0,
			"0.024": 0.0,
			"0.025": 0.0
		}
	}
}
