{
	 "smiles": "CCCCCCC1=CC=C(C=C1)C(=O)CCl", 
	 "Tm": 311.15, 
	 "num_atms": 35, 
	 "gaussian": { 
		 "optdone": 1, 
		 "sigma_profile": "yes", 
		 "theory": "DFT", 
		 "functional": "B3LYP", 
		 "basiset": "6-31G**", 
		 "properties": { 
			 "R2extent": 7160.92, 
			 "electric_dipole_moment_norm": 3.47619514124, 
			 "electric_quadrupole_moment_norm": 10.4118544405, 
			 "total_energy": -1080.38097389, 
			 "HOMO_LUMO_gap": 0.18411, 
			 "cosmo_polarized_energy": -8.67, 
			 "cosmo_cavitation_energy": 39.2, 
			 "cosmo_dispersion_energy": -27.16, 
			 "cosmo_repulsion_energy": 2.19, 
			 "cosmo_total_nonelectrostatic_energy": 14.22, 
			 "SMD_solvation_energy": 6.22 
		},
		"coords": [
			{
				"x": -4.0961686359,
				"y": 2.278827927,
				"z": -2.618982887,
				"element": "C" 
			},
			{
				"x": -3.1138436334,
				"y": 1.3086688604,
				"z": -1.9543856169,
				"element": "C" 
			},
			{
				"x": -2.0563415269,
				"y": 0.7700568823,
				"z": -2.9288321407,
				"element": "C" 
			},
			{
				"x": -0.9991375143,
				"y": -0.148345951,
				"z": -2.293580954,
				"element": "C" 
			},
			{
				"x": -1.5473454382,
				"y": -1.4884109175,
				"z": -1.7847396415,
				"element": "C" 
			},
			{
				"x": -0.4635633621,
				"y": -2.4404362019,
				"z": -1.2280705457,
				"element": "C" 
			},
			{
				"x": 0.2074092153,
				"y": -1.9386132738,
				"z": 0.0321046409,
				"element": "C" 
			},
			{
				"x": -0.4592194325,
				"y": -2.0001860913,
				"z": 1.2656316113,
				"element": "C" 
			},
			{
				"x": 0.1346871857,
				"y": -1.5246546878,
				"z": 2.4306509388,
				"element": "C" 
			},
			{
				"x": 1.4257754549,
				"y": -0.9725685572,
				"z": 2.3943775855,
				"element": "C" 
			},
			{
				"x": 2.0993115071,
				"y": -0.911559012,
				"z": 1.1638191422,
				"element": "C" 
			},
			{
				"x": 1.4980019343,
				"y": -1.3869077858,
				"z": 0.0044483386,
				"element": "C" 
			},
			{
				"x": 2.1372056815,
				"y": -0.4740933731,
				"z": 3.6030911121,
				"element": "C" 
			},
			{
				"x": 3.2845243265,
				"y": -0.0586168725,
				"z": 3.5539334053,
				"element": "O" 
			},
			{
				"x": 1.443904485,
				"y": -0.5126545232,
				"z": 4.9698869415,
				"element": "C" 
			},
			{
				"x": 0.0966181929,
				"y": 0.7004513276,
				"z": 5.0829689955,
				"element": "Cl" 
			},
			{
				"x": -4.8379190248,
				"y": 2.6505354729,
				"z": -1.9045288275,
				"element": "H" 
			},
			{
				"x": -4.6384822684,
				"y": 1.7941081344,
				"z": -3.4390566758,
				"element": "H" 
			},
			{
				"x": -3.573666402,
				"y": 3.1465172265,
				"z": -3.0378555347,
				"element": "H" 
			},
			{
				"x": -3.6751353044,
				"y": 0.4759974782,
				"z": -1.5120012366,
				"element": "H" 
			},
			{
				"x": -2.6087126028,
				"y": 1.8126877651,
				"z": -1.1190022545,
				"element": "H" 
			},
			{
				"x": -2.5578493654,
				"y": 0.2359898233,
				"z": -3.7491684407,
				"element": "H" 
			},
			{
				"x": -1.5438104637,
				"y": 1.6228125557,
				"z": -3.3944193716,
				"element": "H" 
			},
			{
				"x": -0.5050746235,
				"y": 0.383524277,
				"z": -1.4699233496,
				"element": "H" 
			},
			{
				"x": -0.2159357212,
				"y": -0.3511968276,
				"z": -3.0373141915,
				"element": "H" 
			},
			{
				"x": -2.0640856186,
				"y": -2.0017708604,
				"z": -2.6068168024,
				"element": "H" 
			},
			{
				"x": -2.3008681914,
				"y": -1.3178489395,
				"z": -1.0061970205,
				"element": "H" 
			},
			{
				"x": -0.9275390338,
				"y": -3.4129201109,
				"z": -1.0216031314,
				"element": "H" 
			},
			{
				"x": 0.2947333115,
				"y": -2.6132431592,
				"z": -2.0013138505,
				"element": "H" 
			},
			{
				"x": -1.4569182643,
				"y": -2.429486618,
				"z": 1.3123907885,
				"element": "H" 
			},
			{
				"x": -0.4167993841,
				"y": -1.577575893,
				"z": 3.3632199028,
				"element": "H" 
			},
			{
				"x": 3.0985760834,
				"y": -0.4895850845,
				"z": 1.1450302615,
				"element": "H" 
			},
			{
				"x": 2.0347715772,
				"y": -1.3357717582,
				"z": -0.9392203416,
				"element": "H" 
			},
			{
				"x": 1.0108887271,
				"y": -1.4907249939,
				"z": 5.1879005162,
				"element": "H" 
			},
			{
				"x": 2.1799081292,
				"y": -0.2459062381,
				"z": 5.7257586341,
				"element": "H" 
			}
		],
		 "valence_orbital": [ 
			{
				"type": "occ",
				"energy": -0.31272,
				"method": "rhf"
			},
			{
				"type": "occ",
				"energy": -0.30435,
				"method": "rhf"
			},
			{
				"type": "occ",
				"energy": -0.26266,
				"method": "rhf"
			},
			{
				"type": "occ",
				"energy": -0.2585,
				"method": "rhf"
			},
			{
				"type": "occ",
				"energy": -0.25328,
				"method": "rhf"
			},
			{
				"type": "unocc",
				"energy": -0.06917,
				"method": "rhf"
			},
			{
				"type": "unocc",
				"energy": -0.01301,
				"method": "rhf"
			},
			{
				"type": "unocc",
				"energy": 0.00337,
				"method": "rhf"
			},
			{
				"type": "unocc",
				"energy": 0.05279,
				"method": "rhf"
			},
			{
				"type": "unocc",
				"energy": 0.08385,
				"method": "rhf"
			}
		],
		"cosmo_sigma_profile": { 
			"-0.025": 0.0,
			"-0.024": 0.0,
			"-0.023": 0.0,
			"-0.022": 0.0,
			"-0.021": 0.0,
			"-0.02": 0.0,
			"-0.019": 0.0,
			"-0.018": 0.0,
			"-0.017": 0.0,
			"-0.016": 0.0,
			"-0.015": 0.0,
			"-0.014": 0.0,
			"-0.013": 0.0,
			"-0.012": 0.0,
			"-0.011": 0.0,
			"-0.01": 0.127196851347,
			"-0.009": 2.96817286867,
			"-0.008": 4.28438995547,
			"-0.007": 4.57112731742,
			"-0.006": 7.88845013662,
			"-0.005": 12.4898443502,
			"-0.004": 14.2829089654,
			"-0.003": 17.791295169,
			"-0.002": 32.4776559391,
			"-0.001": 41.1843269422,
			"0.0": 45.3723758201,
			"0.001": 38.2286528412,
			"0.002": 24.4754772691,
			"0.003": 16.7497640033,
			"0.004": 18.2446010998,
			"0.005": 9.42822826544,
			"0.006": 4.94382231919,
			"0.007": 2.02763863423,
			"0.008": 1.16631136747,
			"0.009": 1.98303268924,
			"0.01": 2.93032893229,
			"0.011": 3.7605397706,
			"0.012": 1.69524734421,
			"0.013": 0.0447403604331,
			"0.014": 0.0,
			"0.015": 0.0,
			"0.016": 0.0,
			"0.017": 0.0,
			"0.018": 0.0,
			"0.019": 0.0,
			"0.02": 0.0,
			"0.021": 0.0,
			"0.022": 0.0,
			"0.023": 0.0,
			"0.024": 0.0,
			"0.025": 0.0
		}
	}
}
