{
	 "smiles": "CCN(CC)S(=O)(=O)C1=CC(C(O)=O)=C(F)C=C1", 
	 "Tm": 435.15, 
	 "num_atms": 32, 
	 "gaussian": { 
		 "optdone": 1, 
		 "sigma_profile": "yes", 
		 "theory": "DFT", 
		 "functional": "B3LYP", 
		 "basiset": "6-31G**", 
		 "properties": { 
			 "R2extent": 6304.7334, 
			 "electric_dipole_moment_norm": 3.96549843147, 
			 "electric_quadrupole_moment_norm": 20.5953186856, 
			 "total_energy": -1281.22031831, 
			 "HOMO_LUMO_gap": 0.17826, 
			 "cosmo_polarized_energy": -17.46, 
			 "cosmo_cavitation_energy": 36.96, 
			 "cosmo_dispersion_energy": -25.47, 
			 "cosmo_repulsion_energy": 1.91, 
			 "cosmo_total_nonelectrostatic_energy": 13.4, 
			 "SMD_solvation_energy": 7.15 
		},
		"coords": [
			{
				"x": 1.8201323981,
				"y": 1.5918790866,
				"z": -0.6569819144,
				"element": "C" 
			},
			{
				"x": 1.1347265493,
				"y": 0.4882993097,
				"z": -1.4679205466,
				"element": "C" 
			},
			{
				"x": -0.2434502489,
				"y": 0.1856140938,
				"z": -1.0490238415,
				"element": "N" 
			},
			{
				"x": -1.3364877062,
				"y": 1.1056458771,
				"z": -1.4101976161,
				"element": "C" 
			},
			{
				"x": -1.7409805097,
				"y": 2.1021913623,
				"z": -0.3190091824,
				"element": "C" 
			},
			{
				"x": -0.602625775,
				"y": -1.2862454557,
				"z": -0.3464104092,
				"element": "S" 
			},
			{
				"x": 0.4776310571,
				"y": -2.2154146031,
				"z": -0.6905716066,
				"element": "O" 
			},
			{
				"x": -2.0077282513,
				"y": -1.5795550766,
				"z": -0.6461601134,
				"element": "O" 
			},
			{
				"x": -0.5131696471,
				"y": -1.0566398864,
				"z": 1.4400016776,
				"element": "C" 
			},
			{
				"x": 0.7228926512,
				"y": -1.1055902156,
				"z": 2.0777292962,
				"element": "C" 
			},
			{
				"x": 0.817198511,
				"y": -0.9176048065,
				"z": 3.4649511639,
				"element": "C" 
			},
			{
				"x": 2.1350454424,
				"y": -0.9676112085,
				"z": 4.1579466691,
				"element": "C" 
			},
			{
				"x": 3.1578416027,
				"y": -1.1469746912,
				"z": 3.281948804,
				"element": "O" 
			},
			{
				"x": 2.3173391528,
				"y": -0.8631313915,
				"z": 5.3510843319,
				"element": "O" 
			},
			{
				"x": -0.3733175769,
				"y": -0.6938149307,
				"z": 4.1778741189,
				"element": "C" 
			},
			{
				"x": -0.3486929311,
				"y": -0.506906886,
				"z": 5.4992167614,
				"element": "F" 
			},
			{
				"x": -1.6138850007,
				"y": -0.6648062571,
				"z": 3.5460234424,
				"element": "C" 
			},
			{
				"x": -1.6877861648,
				"y": -0.8493731625,
				"z": 2.1690424987,
				"element": "C" 
			},
			{
				"x": 2.8464199325,
				"y": 1.7291814761,
				"z": -1.0145486363,
				"element": "H" 
			},
			{
				"x": 1.3043696494,
				"y": 2.5516204542,
				"z": -0.7562996903,
				"element": "H" 
			},
			{
				"x": 1.8614412074,
				"y": 1.3352030364,
				"z": 0.4057525363,
				"element": "H" 
			},
			{
				"x": 1.7061206377,
				"y": -0.439020491,
				"z": -1.4096657579,
				"element": "H" 
			},
			{
				"x": 1.1022014909,
				"y": 0.7684760737,
				"z": -2.5291450689,
				"element": "H" 
			},
			{
				"x": -2.2001697998,
				"y": 0.5078694602,
				"z": -1.7089215583,
				"element": "H" 
			},
			{
				"x": -0.9963533767,
				"y": 1.6433323651,
				"z": -2.3025525883,
				"element": "H" 
			},
			{
				"x": -2.5360983078,
				"y": 2.7566600094,
				"z": -0.69257441,
				"element": "H" 
			},
			{
				"x": -0.9016037246,
				"y": 2.7298135153,
				"z": -0.0078326001,
				"element": "H" 
			},
			{
				"x": -2.1226326602,
				"y": 1.5865641877,
				"z": 0.5666390845,
				"element": "H" 
			},
			{
				"x": 1.6218152805,
				"y": -1.3125133037,
				"z": 1.5106017497,
				"element": "H" 
			},
			{
				"x": 3.9635978206,
				"y": -1.1795763468,
				"z": 3.823211448,
				"element": "H" 
			},
			{
				"x": -2.5015989473,
				"y": -0.5062586054,
				"z": 4.1480884878,
				"element": "H" 
			},
			{
				"x": -2.6442927554,
				"y": -0.8553129892,
				"z": 1.6583034702,
				"element": "H" 
			}
		],
		 "valence_orbital": [ 
			{
				"type": "occ",
				"energy": -0.30453,
				"method": "rhf"
			},
			{
				"type": "occ",
				"energy": -0.28955,
				"method": "rhf"
			},
			{
				"type": "occ",
				"energy": -0.28575,
				"method": "rhf"
			},
			{
				"type": "occ",
				"energy": -0.28103,
				"method": "rhf"
			},
			{
				"type": "occ",
				"energy": -0.24767,
				"method": "rhf"
			},
			{
				"type": "unocc",
				"energy": -0.06941,
				"method": "rhf"
			},
			{
				"type": "unocc",
				"energy": -0.04198,
				"method": "rhf"
			},
			{
				"type": "unocc",
				"energy": 0.02781,
				"method": "rhf"
			},
			{
				"type": "unocc",
				"energy": 0.05126,
				"method": "rhf"
			},
			{
				"type": "unocc",
				"energy": 0.0713,
				"method": "rhf"
			}
		],
		"cosmo_sigma_profile": { 
			"-0.025": 0.0,
			"-0.024": 0.0,
			"-0.023": 0.0,
			"-0.022": 0.0,
			"-0.021": 0.0,
			"-0.02": 0.0,
			"-0.019": 0.281480120836,
			"-0.018": 0.666008039682,
			"-0.017": 1.13764353682,
			"-0.016": 0.850350575734,
			"-0.015": 0.761858237154,
			"-0.014": 0.458557753061,
			"-0.013": 0.523678489092,
			"-0.012": 1.11126164043,
			"-0.011": 0.740419919178,
			"-0.01": 0.794065627171,
			"-0.009": 1.28990465267,
			"-0.008": 4.23930653746,
			"-0.007": 4.97047030986,
			"-0.006": 7.19633924832,
			"-0.005": 12.0532454092,
			"-0.004": 23.6521287427,
			"-0.003": 32.4095173764,
			"-0.002": 33.0805819777,
			"-0.001": 31.6445109031,
			"0.0": 32.0814382499,
			"0.001": 21.4342837173,
			"0.002": 9.21122917935,
			"0.003": 11.0013080692,
			"0.004": 6.99837470632,
			"0.005": 6.54248770107,
			"0.006": 6.62663848579,
			"0.007": 4.93591228008,
			"0.008": 4.64646709108,
			"0.009": 6.12759240447,
			"0.01": 9.35251572871,
			"0.011": 12.2723835756,
			"0.012": 4.17892396156,
			"0.013": 0.0,
			"0.014": 0.0,
			"0.015": 0.0,
			"0.016": 0.0,
			"0.017": 0.0,
			"0.018": 0.0,
			"0.019": 0.0,
			"0.02": 0.0,
			"0.021": 0.0,
			"0.022": 0.0,
			"0.023": 0.0,
			"0.024": 0.0,
			"0.025": 0.0
		}
	}
}
