{
	 "smiles": "CC(=O)OCC(=O)[C@@]1(O)CC[C@H]2[C@@H]3CCC4=CC(=O)CC[C@]4(C)[C@H]3[C@@H](O)C[C@]12C", 
	 "Tm": 493.15, 
	 "num_atms": 61, 
	 "gaussian": { 
		 "optdone": 1, 
		 "sigma_profile": "yes", 
		 "theory": "DFT", 
		 "functional": "B3LYP", 
		 "basiset": "6-31G**", 
		 "properties": { 
			 "R2extent": 16106.6514, 
			 "electric_dipole_moment_norm": 5.06539937616, 
			 "electric_quadrupole_moment_norm": 40.6019125244, 
			 "total_energy": -1347.06708639, 
			 "HOMO_LUMO_gap": 0.18469, 
			 "cosmo_polarized_energy": -24.29, 
			 "cosmo_cavitation_energy": 54.83, 
			 "cosmo_dispersion_energy": -37.67, 
			 "cosmo_repulsion_energy": 2.75, 
			 "cosmo_total_nonelectrostatic_energy": 19.91, 
			 "SMD_solvation_energy": 10.37 
		},
		"coords": [
			{
				"x": 4.5878525367,
				"y": 3.6995606094,
				"z": -6.0097783462,
				"element": "C" 
			},
			{
				"x": 3.2474217409,
				"y": 3.096319117,
				"z": -5.6788612352,
				"element": "C" 
			},
			{
				"x": 2.8365083355,
				"y": 2.0230572384,
				"z": -6.0566423184,
				"element": "O" 
			},
			{
				"x": 2.5296321461,
				"y": 3.9345487087,
				"z": -4.8792922497,
				"element": "O" 
			},
			{
				"x": 1.3064601777,
				"y": 3.406709267,
				"z": -4.3820664038,
				"element": "C" 
			},
			{
				"x": 1.5425626461,
				"y": 2.5349563571,
				"z": -3.1487605723,
				"element": "C" 
			},
			{
				"x": 2.6693574012,
				"y": 2.2504222796,
				"z": -2.7899876455,
				"element": "O" 
			},
			{
				"x": 0.3072536079,
				"y": 2.1821377722,
				"z": -2.3002665256,
				"element": "C" 
			},
			{
				"x": 0.1254221196,
				"y": 3.3713738928,
				"z": -1.5004859478,
				"element": "O" 
			},
			{
				"x": -1.029140826,
				"y": 1.992903248,
				"z": -3.0709171819,
				"element": "C" 
			},
			{
				"x": -1.8724966177,
				"y": 0.971511235,
				"z": -2.2512582059,
				"element": "C" 
			},
			{
				"x": -1.0591735653,
				"y": 0.7665705248,
				"z": -0.9602646196,
				"element": "C" 
			},
			{
				"x": -1.3027125109,
				"y": -0.4640729422,
				"z": -0.0747247708,
				"element": "C" 
			},
			{
				"x": -2.7943416327,
				"y": -0.6736099653,
				"z": 0.3249078253,
				"element": "C" 
			},
			{
				"x": -3.0853535377,
				"y": -0.3256882166,
				"z": 1.7923736937,
				"element": "C" 
			},
			{
				"x": -2.1658966326,
				"y": -1.0134872881,
				"z": 2.7805267086,
				"element": "C" 
			},
			{
				"x": -2.5693313434,
				"y": -1.2538692213,
				"z": 4.0455719649,
				"element": "C" 
			},
			{
				"x": -1.69398272,
				"y": -1.7890734193,
				"z": 5.1008331825,
				"element": "C" 
			},
			{
				"x": -2.10983528,
				"y": -2.0118091072,
				"z": 6.2310303315,
				"element": "O" 
			},
			{
				"x": -0.2401169593,
				"y": -2.0503861289,
				"z": 4.7225948549,
				"element": "C" 
			},
			{
				"x": 0.2217523578,
				"y": -1.254629232,
				"z": 3.4942259545,
				"element": "C" 
			},
			{
				"x": -0.7536940127,
				"y": -1.3639237522,
				"z": 2.2964074457,
				"element": "C" 
			},
			{
				"x": -0.7477729919,
				"y": -2.8233358043,
				"z": 1.761739665,
				"element": "C" 
			},
			{
				"x": -0.3977647825,
				"y": -0.3205658949,
				"z": 1.1837047078,
				"element": "C" 
			},
			{
				"x": 1.0943370413,
				"y": -0.1859002084,
				"z": 0.8183459204,
				"element": "C" 
			},
			{
				"x": 1.5779249545,
				"y": -1.4514418442,
				"z": 0.35643099,
				"element": "O" 
			},
			{
				"x": 1.33502847,
				"y": 0.9527446751,
				"z": -0.2032007724,
				"element": "C" 
			},
			{
				"x": 0.4174113593,
				"y": 0.8824775652,
				"z": -1.4371651102,
				"element": "C" 
			},
			{
				"x": 0.8469064929,
				"y": -0.2812989892,
				"z": -2.3654482743,
				"element": "C" 
			},
			{
				"x": 5.2171321977,
				"y": 3.6783688711,
				"z": -5.1143290594,
				"element": "H" 
			},
			{
				"x": 5.0621667279,
				"y": 3.120094482,
				"z": -6.8011835624,
				"element": "H" 
			},
			{
				"x": 4.4783775164,
				"y": 4.7442067887,
				"z": -6.3116317369,
				"element": "H" 
			},
			{
				"x": 0.6787425333,
				"y": 4.2586203736,
				"z": -4.1088566136,
				"element": "H" 
			},
			{
				"x": 0.8018313515,
				"y": 2.8168289332,
				"z": -5.1537584592,
				"element": "H" 
			},
			{
				"x": 0.9168438164,
				"y": 3.4831424803,
				"z": -0.954040953,
				"element": "H" 
			},
			{
				"x": -1.5240494653,
				"y": 2.9639225149,
				"z": -3.1518109281,
				"element": "H" 
			},
			{
				"x": -0.8539660618,
				"y": 1.628787068,
				"z": -4.0866919133,
				"element": "H" 
			},
			{
				"x": -2.8792556574,
				"y": 1.3503539472,
				"z": -2.0568157738,
				"element": "H" 
			},
			{
				"x": -1.9863270604,
				"y": 0.0311163184,
				"z": -2.8011297621,
				"element": "H" 
			},
			{
				"x": -1.2413088947,
				"y": 1.6561727106,
				"z": -0.3397808287,
				"element": "H" 
			},
			{
				"x": -0.9802184969,
				"y": -1.3516505952,
				"z": -0.6280924987,
				"element": "H" 
			},
			{
				"x": -3.4483432215,
				"y": -0.0743030999,
				"z": -0.3163717624,
				"element": "H" 
			},
			{
				"x": -3.0804000315,
				"y": -1.7158812819,
				"z": 0.1480680141,
				"element": "H" 
			},
			{
				"x": -4.1302927879,
				"y": -0.5395666296,
				"z": 2.0410209232,
				"element": "H" 
			},
			{
				"x": -2.9659987042,
				"y": 0.7598732623,
				"z": 1.9294783195,
				"element": "H" 
			},
			{
				"x": -3.5850669459,
				"y": -1.0230017585,
				"z": 4.3605679749,
				"element": "H" 
			},
			{
				"x": -0.14055292,
				"y": -3.1293700462,
				"z": 4.5463060305,
				"element": "H" 
			},
			{
				"x": 0.3774298172,
				"y": -1.8309694313,
				"z": 5.5990442146,
				"element": "H" 
			},
			{
				"x": 0.3145792471,
				"y": -0.1967244575,
				"z": 3.7749405769,
				"element": "H" 
			},
			{
				"x": 1.2165991273,
				"y": -1.5946977175,
				"z": 3.1880636467,
				"element": "H" 
			},
			{
				"x": -1.0372781121,
				"y": -3.5218287071,
				"z": 2.5509771267,
				"element": "H" 
			},
			{
				"x": 0.2475394571,
				"y": -3.0830750488,
				"z": 1.3976252054,
				"element": "H" 
			},
			{
				"x": -1.4537101872,
				"y": -2.9653141705,
				"z": 0.9407897865,
				"element": "H" 
			},
			{
				"x": -0.6340434477,
				"y": 0.6597922375,
				"z": 1.6258984347,
				"element": "H" 
			},
			{
				"x": 1.6428112518,
				"y": 0.0901355214,
				"z": 1.7312866881,
				"element": "H" 
			},
			{
				"x": 2.4941284054,
				"y": -1.3345683717,
				"z": 0.0728740988,
				"element": "H" 
			},
			{
				"x": 1.1550548207,
				"y": 1.8927421498,
				"z": 0.3362771487,
				"element": "H" 
			},
			{
				"x": 2.3903634022,
				"y": 0.9608701834,
				"z": -0.5008459061,
				"element": "H" 
			},
			{
				"x": 0.2391594475,
				"y": -0.3386746372,
				"z": -3.2729627448,
				"element": "H" 
			},
			{
				"x": 1.8847562234,
				"y": -0.1417757051,
				"z": -2.6774837707,
				"element": "H" 
			},
			{
				"x": 0.7829786768,
				"y": -1.2395266604,
				"z": -1.8511049813,
				"element": "H" 
			}
		],
		 "valence_orbital": [ 
			{
				"type": "occ",
				"energy": -0.2775,
				"method": "rhf"
			},
			{
				"type": "occ",
				"energy": -0.27171,
				"method": "rhf"
			},
			{
				"type": "occ",
				"energy": -0.2504,
				"method": "rhf"
			},
			{
				"type": "occ",
				"energy": -0.2482,
				"method": "rhf"
			},
			{
				"type": "occ",
				"energy": -0.22567,
				"method": "rhf"
			},
			{
				"type": "unocc",
				"energy": -0.04098,
				"method": "rhf"
			},
			{
				"type": "unocc",
				"energy": -0.03596,
				"method": "rhf"
			},
			{
				"type": "unocc",
				"energy": 0.00864,
				"method": "rhf"
			},
			{
				"type": "unocc",
				"energy": 0.0485,
				"method": "rhf"
			},
			{
				"type": "unocc",
				"energy": 0.06336,
				"method": "rhf"
			}
		],
		"cosmo_sigma_profile": { 
			"-0.025": 0.0,
			"-0.024": 0.0,
			"-0.023": 0.0,
			"-0.022": 0.0,
			"-0.021": 0.0,
			"-0.02": 0.0,
			"-0.019": 0.0,
			"-0.018": 0.0,
			"-0.017": 0.0,
			"-0.016": 0.00196124950819,
			"-0.015": 1.25774215761,
			"-0.014": 1.67716929828,
			"-0.013": 1.33891604934,
			"-0.012": 2.2015148203,
			"-0.011": 1.25039965767,
			"-0.01": 1.55840018917,
			"-0.009": 2.65703340083,
			"-0.008": 3.30839615561,
			"-0.007": 7.35950650021,
			"-0.006": 12.4639999847,
			"-0.005": 18.7657481325,
			"-0.004": 37.3678935705,
			"-0.003": 53.2719951334,
			"-0.002": 52.7653483609,
			"-0.001": 45.9073221633,
			"0.0": 34.4491658347,
			"0.001": 28.4414970581,
			"0.002": 17.5830778399,
			"0.003": 12.2231666138,
			"0.004": 9.48030993892,
			"0.005": 8.87331649325,
			"0.006": 9.44302520338,
			"0.007": 9.3661377494,
			"0.008": 10.429304223,
			"0.009": 6.98073492249,
			"0.01": 7.4071019694,
			"0.011": 8.93559302652,
			"0.012": 6.88625408098,
			"0.013": 6.03998521612,
			"0.014": 3.59879861779,
			"0.015": 0.868468551393,
			"0.016": 0.0,
			"0.017": 0.0,
			"0.018": 0.0,
			"0.019": 0.0,
			"0.02": 0.0,
			"0.021": 0.0,
			"0.022": 0.0,
			"0.023": 0.0,
			"0.024": 0.0,
			"0.025": 0.0
		}
	}
}
