{
	 "smiles": "CCCCP(CCCC)CCCC", 
	 "Tm": 210.65, 
	 "num_atms": 40, 
	 "gaussian": { 
		 "optdone": 1, 
		 "sigma_profile": "yes", 
		 "theory": "DFT", 
		 "functional": "B3LYP", 
		 "basiset": "6-31G**", 
		 "properties": { 
			 "R2extent": 5382.5756, 
			 "electric_dipole_moment_norm": 1.3122720945, 
			 "electric_quadrupole_moment_norm": 4.86102922127, 
			 "total_energy": -814.940529795, 
			 "HOMO_LUMO_gap": 0.26971, 
			 "cosmo_polarized_energy": -3.94, 
			 "cosmo_cavitation_energy": 40.94, 
			 "cosmo_dispersion_energy": -28.06, 
			 "cosmo_repulsion_energy": 2.47, 
			 "cosmo_total_nonelectrostatic_energy": 15.35, 
			 "SMD_solvation_energy": 6.17 
		},
		"coords": [
			{
				"x": -1.3188492496,
				"y": -4.0491307089,
				"z": 2.8977392435,
				"element": "C" 
			},
			{
				"x": -0.4617202985,
				"y": -3.1364299625,
				"z": 3.7825537454,
				"element": "C" 
			},
			{
				"x": 0.5295801706,
				"y": -2.2461417486,
				"z": 3.0120721019,
				"element": "C" 
			},
			{
				"x": -0.1354348505,
				"y": -1.1933440278,
				"z": 2.111069394,
				"element": "C" 
			},
			{
				"x": 1.0845339056,
				"y": 0.0225819568,
				"z": 1.3636916763,
				"element": "P" 
			},
			{
				"x": -0.0990616073,
				"y": 0.9802672852,
				"z": 0.266276587,
				"element": "C" 
			},
			{
				"x": 0.588952157,
				"y": 2.0386945509,
				"z": -0.6083793249,
				"element": "C" 
			},
			{
				"x": -0.4014544643,
				"y": 2.8960347264,
				"z": -1.409674637,
				"element": "C" 
			},
			{
				"x": 0.2848873874,
				"y": 3.947333896,
				"z": -2.2877386279,
				"element": "C" 
			},
			{
				"x": 2.0046742977,
				"y": -1.0489990018,
				"z": 0.1204959182,
				"element": "C" 
			},
			{
				"x": 1.2166387053,
				"y": -1.8953626246,
				"z": -0.8887919501,
				"element": "C" 
			},
			{
				"x": 2.1259525442,
				"y": -2.7046370411,
				"z": -1.8267813883,
				"element": "C" 
			},
			{
				"x": 1.3473014518,
				"y": -3.5531851304,
				"z": -2.8372898271,
				"element": "C" 
			},
			{
				"x": -1.9653802041,
				"y": -3.476443858,
				"z": 2.2247929463,
				"element": "H" 
			},
			{
				"x": -0.6908719049,
				"y": -4.7011277288,
				"z": 2.2789183026,
				"element": "H" 
			},
			{
				"x": -1.9655924482,
				"y": -4.6916162241,
				"z": 3.504408722,
				"element": "H" 
			},
			{
				"x": -1.1155910525,
				"y": -2.4995252466,
				"z": 4.3940214332,
				"element": "H" 
			},
			{
				"x": 0.1049270831,
				"y": -3.7562021162,
				"z": 4.4895107367,
				"element": "H" 
			},
			{
				"x": 1.1869758901,
				"y": -2.8876765292,
				"z": 2.4087935569,
				"element": "H" 
			},
			{
				"x": 1.1811240436,
				"y": -1.7361668707,
				"z": 3.733185941,
				"element": "H" 
			},
			{
				"x": -0.8272472222,
				"y": -0.5874756977,
				"z": 2.7119852732,
				"element": "H" 
			},
			{
				"x": -0.7373355636,
				"y": -1.669887996,
				"z": 1.3283063257,
				"element": "H" 
			},
			{
				"x": -0.6970636883,
				"y": 0.3026241798,
				"z": -0.3568807426,
				"element": "H" 
			},
			{
				"x": -0.8024825444,
				"y": 1.4748701963,
				"z": 0.9494658185,
				"element": "H" 
			},
			{
				"x": 1.205464698,
				"y": 2.6916223371,
				"z": 0.0240593815,
				"element": "H" 
			},
			{
				"x": 1.2823771764,
				"y": 1.5508367706,
				"z": -1.3072515281,
				"element": "H" 
			},
			{
				"x": -1.0920174067,
				"y": 3.392191211,
				"z": -0.7142379355,
				"element": "H" 
			},
			{
				"x": -1.021636956,
				"y": 2.2414999927,
				"z": -2.0372281772,
				"element": "H" 
			},
			{
				"x": 0.8852517395,
				"y": 4.637195942,
				"z": -1.683747864,
				"element": "H" 
			},
			{
				"x": 0.9559745611,
				"y": 3.4784763439,
				"z": -3.0166273406,
				"element": "H" 
			},
			{
				"x": -0.4458470914,
				"y": 4.542994385,
				"z": -2.844682161,
				"element": "H" 
			},
			{
				"x": 2.6609294894,
				"y": -1.6962446481,
				"z": 0.7170151086,
				"element": "H" 
			},
			{
				"x": 2.6823817236,
				"y": -0.3689318111,
				"z": -0.412143597,
				"element": "H" 
			},
			{
				"x": 0.5672828905,
				"y": -1.2500342414,
				"z": -1.4948105402,
				"element": "H" 
			},
			{
				"x": 0.5494352549,
				"y": -2.5874264665,
				"z": -0.3586392033,
				"element": "H" 
			},
			{
				"x": 2.777226148,
				"y": -3.3541868574,
				"z": -1.2262479652,
				"element": "H" 
			},
			{
				"x": 2.7950962434,
				"y": -2.017575951,
				"z": -2.3624102944,
				"element": "H" 
			},
			{
				"x": 0.6949866493,
				"y": -4.2739370622,
				"z": -2.3309097615,
				"element": "H" 
			},
			{
				"x": 2.0213624818,
				"y": -4.1173776908,
				"z": -3.490228428,
				"element": "H" 
			},
			{
				"x": 0.7132698603,
				"y": -2.9272565323,
				"z": -3.4757609186,
				"element": "H" 
			}
		],
		 "valence_orbital": [ 
			{
				"type": "occ",
				"energy": -0.3221,
				"method": "rhf"
			},
			{
				"type": "occ",
				"energy": -0.31803,
				"method": "rhf"
			},
			{
				"type": "occ",
				"energy": -0.29171,
				"method": "rhf"
			},
			{
				"type": "occ",
				"energy": -0.28452,
				"method": "rhf"
			},
			{
				"type": "occ",
				"energy": -0.21198,
				"method": "rhf"
			},
			{
				"type": "unocc",
				"energy": 0.05773,
				"method": "rhf"
			},
			{
				"type": "unocc",
				"energy": 0.06377,
				"method": "rhf"
			},
			{
				"type": "unocc",
				"energy": 0.07178,
				"method": "rhf"
			},
			{
				"type": "unocc",
				"energy": 0.09967,
				"method": "rhf"
			},
			{
				"type": "unocc",
				"energy": 0.104,
				"method": "rhf"
			}
		],
		"cosmo_sigma_profile": { 
			"-0.025": 0.0,
			"-0.024": 0.0,
			"-0.023": 0.0,
			"-0.022": 0.0,
			"-0.021": 0.0,
			"-0.02": 0.0,
			"-0.019": 0.0,
			"-0.018": 0.0,
			"-0.017": 0.0,
			"-0.016": 0.0,
			"-0.015": 0.0,
			"-0.014": 0.0,
			"-0.013": 0.0,
			"-0.012": 0.0,
			"-0.011": 0.0,
			"-0.01": 0.0,
			"-0.009": 0.0,
			"-0.008": 0.0,
			"-0.007": 0.0,
			"-0.006": 0.0,
			"-0.005": 0.0,
			"-0.004": 0.837819424888,
			"-0.003": 16.9404253324,
			"-0.002": 59.9108303108,
			"-0.001": 73.1722248624,
			"0.0": 61.8932184313,
			"0.001": 59.2477920071,
			"0.002": 26.5983650716,
			"0.003": 2.93639814083,
			"0.004": 1.48687647618,
			"0.005": 1.24037998644,
			"0.006": 1.11142008512,
			"0.007": 1.57127254378,
			"0.008": 0.603359548118,
			"0.009": 0.808735280711,
			"0.01": 0.765398460152,
			"0.011": 0.732067711447,
			"0.012": 0.518192611639,
			"0.013": 1.00505072265,
			"0.014": 0.878833368079,
			"0.015": 0.505264018824,
			"0.016": 0.596846945553,
			"0.017": 0.775351212133,
			"0.018": 0.146417751892,
			"0.019": 0.0,
			"0.02": 0.0,
			"0.021": 0.0,
			"0.022": 0.0,
			"0.023": 0.0,
			"0.024": 0.0,
			"0.025": 0.0
		}
	}
}
