{
	 "smiles": "COC(=O)CC[C@H](C)C1CCC2C3CC[C@@H]4C[C@@H](CC[C@]4(C)C3C[C@H](OC(C)=O)[C@]12C)OC(C)=O", 
	 "Tm": 389.15, 
	 "num_atms": 81, 
	 "gaussian": { 
		 "optdone": 1, 
		 "sigma_profile": "yes", 
		 "theory": "DFT", 
		 "functional": "B3LYP", 
		 "basiset": "6-31G**", 
		 "properties": { 
			 "R2extent": 19479.8738, 
			 "electric_dipole_moment_norm": 2.21525653819, 
			 "electric_quadrupole_moment_norm": 19.1563218701, 
			 "total_energy": -1584.20872759, 
			 "HOMO_LUMO_gap": 0.26867, 
			 "cosmo_polarized_energy": -15.24, 
			 "cosmo_cavitation_energy": 68.15, 
			 "cosmo_dispersion_energy": -44.1, 
			 "cosmo_repulsion_energy": 3.24, 
			 "cosmo_total_nonelectrostatic_energy": 27.28, 
			 "SMD_solvation_energy": 12.65 
		},
		"coords": [
			{
				"x": 0.5890226728,
				"y": -5.0648927795,
				"z": -0.7333734442,
				"element": "C" 
			},
			{
				"x": 1.6699357819,
				"y": -4.9221777504,
				"z": 0.2120083555,
				"element": "O" 
			},
			{
				"x": 2.83186232,
				"y": -4.4844136349,
				"z": -0.3118913054,
				"element": "C" 
			},
			{
				"x": 2.9910426512,
				"y": -4.2912855666,
				"z": -1.5019240248,
				"element": "O" 
			},
			{
				"x": 3.9080182179,
				"y": -4.2650664337,
				"z": 0.7331901056,
				"element": "C" 
			},
			{
				"x": 4.4885923406,
				"y": -2.8282358801,
				"z": 0.6726505388,
				"element": "C" 
			},
			{
				"x": 3.8836110849,
				"y": -1.7902980402,
				"z": 1.6518256797,
				"element": "C" 
			},
			{
				"x": 4.4440149897,
				"y": -2.0218121354,
				"z": 3.0677665479,
				"element": "C" 
			},
			{
				"x": 2.3262185397,
				"y": -1.6820829827,
				"z": 1.5571455842,
				"element": "C" 
			},
			{
				"x": 1.4907367374,
				"y": -2.4249210303,
				"z": 2.6469681979,
				"element": "C" 
			},
			{
				"x": 0.15626374,
				"y": -1.6386498378,
				"z": 2.7999291869,
				"element": "C" 
			},
			{
				"x": 0.2072756194,
				"y": -0.5485132065,
				"z": 1.7127419188,
				"element": "C" 
			},
			{
				"x": -0.6770764667,
				"y": 0.6969215565,
				"z": 1.9228110479,
				"element": "C" 
			},
			{
				"x": -2.1755177622,
				"y": 0.3279893909,
				"z": 1.7401566543,
				"element": "C" 
			},
			{
				"x": -2.6649797332,
				"y": 0.5844991871,
				"z": 0.3151646538,
				"element": "C" 
			},
			{
				"x": -2.5526294109,
				"y": 2.0641608541,
				"z": -0.133611957,
				"element": "C" 
			},
			{
				"x": -2.5415941327,
				"y": 2.0919836743,
				"z": -1.6791130685,
				"element": "C" 
			},
			{
				"x": -2.277688883,
				"y": 3.4724787489,
				"z": -2.2549832408,
				"element": "C" 
			},
			{
				"x": -0.9084807669,
				"y": 3.9614666452,
				"z": -1.8024747938,
				"element": "C" 
			},
			{
				"x": -0.8734291337,
				"y": 4.0575490735,
				"z": -0.269214245,
				"element": "C" 
			},
			{
				"x": -1.3755722689,
				"y": 2.8368065678,
				"z": 0.576081016,
				"element": "C" 
			},
			{
				"x": -1.9025768051,
				"y": 3.4867193328,
				"z": 1.8867183006,
				"element": "C" 
			},
			{
				"x": -0.203638817,
				"y": 1.8795368756,
				"z": 0.9862135184,
				"element": "C" 
			},
			{
				"x": 0.6446064588,
				"y": 1.3548444914,
				"z": -0.1936980788,
				"element": "C" 
			},
			{
				"x": 1.9235766759,
				"y": 0.6137682178,
				"z": 0.2605606957,
				"element": "C" 
			},
			{
				"x": 2.5431579416,
				"y": -0.0667079874,
				"z": -0.8847229368,
				"element": "O" 
			},
			{
				"x": 1.8830830704,
				"y": -0.9501829832,
				"z": -1.6611982184,
				"element": "C" 
			},
			{
				"x": 2.6926237773,
				"y": -1.3205946233,
				"z": -2.881253814,
				"element": "C" 
			},
			{
				"x": 0.7853528407,
				"y": -1.4171866281,
				"z": -1.4132294328,
				"element": "O" 
			},
			{
				"x": 1.7179014164,
				"y": -0.2414790322,
				"z": 1.5510512266,
				"element": "C" 
			},
			{
				"x": 2.2657838614,
				"y": 0.5783515474,
				"z": 2.7450673829,
				"element": "C" 
			},
			{
				"x": -2.3242959108,
				"y": 3.3427162431,
				"z": -3.7021465077,
				"element": "O" 
			},
			{
				"x": -2.618483651,
				"y": 4.4559459873,
				"z": -4.4115887934,
				"element": "C" 
			},
			{
				"x": -2.6314009619,
				"y": 4.1555833638,
				"z": -5.8931307941,
				"element": "C" 
			},
			{
				"x": -2.8420250329,
				"y": 5.5407325396,
				"z": -3.9174429655,
				"element": "O" 
			},
			{
				"x": 0.3742192612,
				"y": -4.1011040974,
				"z": -1.2011508642,
				"element": "H" 
			},
			{
				"x": -0.2629538846,
				"y": -5.4134562153,
				"z": -0.1500100293,
				"element": "H" 
			},
			{
				"x": 0.8502484289,
				"y": -5.7927755131,
				"z": -1.5050774849,
				"element": "H" 
			},
			{
				"x": 4.7028868079,
				"y": -4.9798670564,
				"z": 0.4912522821,
				"element": "H" 
			},
			{
				"x": 3.5315358517,
				"y": -4.5208610965,
				"z": 1.7259648152,
				"element": "H" 
			},
			{
				"x": 5.5657501454,
				"y": -2.8809241606,
				"z": 0.8683326979,
				"element": "H" 
			},
			{
				"x": 4.3878640922,
				"y": -2.4694310887,
				"z": -0.3563455868,
				"element": "H" 
			},
			{
				"x": 4.2862142708,
				"y": -0.8274194671,
				"z": 1.3103343303,
				"element": "H" 
			},
			{
				"x": 5.5356920227,
				"y": -1.9283950759,
				"z": 3.0556826057,
				"element": "H" 
			},
			{
				"x": 4.2081412887,
				"y": -3.0224742687,
				"z": 3.445938618,
				"element": "H" 
			},
			{
				"x": 4.0610201611,
				"y": -1.30029239,
				"z": 3.7938475588,
				"element": "H" 
			},
			{
				"x": 2.0284619164,
				"y": -2.1187099845,
				"z": 0.6016051218,
				"element": "H" 
			},
			{
				"x": 2.0165322536,
				"y": -2.4578387105,
				"z": 3.6041676312,
				"element": "H" 
			},
			{
				"x": 1.3161445947,
				"y": -3.4617776547,
				"z": 2.3487656221,
				"element": "H" 
			},
			{
				"x": -0.7165442206,
				"y": -2.2894436146,
				"z": 2.6910512135,
				"element": "H" 
			},
			{
				"x": 0.0840472644,
				"y": -1.1871485636,
				"z": 3.7971287711,
				"element": "H" 
			},
			{
				"x": -0.0951148733,
				"y": -1.0178781607,
				"z": 0.7692883532,
				"element": "H" 
			},
			{
				"x": -0.5434244033,
				"y": 1.0282440303,
				"z": 2.9604398959,
				"element": "H" 
			},
			{
				"x": -2.3178048505,
				"y": -0.730074515,
				"z": 1.9862806711,
				"element": "H" 
			},
			{
				"x": -2.8036687365,
				"y": 0.8784048093,
				"z": 2.4486696783,
				"element": "H" 
			},
			{
				"x": -2.0815562419,
				"y": -0.044063675,
				"z": -0.3699246916,
				"element": "H" 
			},
			{
				"x": -3.7050892446,
				"y": 0.2542395668,
				"z": 0.2053729283,
				"element": "H" 
			},
			{
				"x": -3.4738566054,
				"y": 2.5773821498,
				"z": 0.176422078,
				"element": "H" 
			},
			{
				"x": -1.7725221345,
				"y": 1.4124361278,
				"z": -2.0669445911,
				"element": "H" 
			},
			{
				"x": -3.502657355,
				"y": 1.7107430939,
				"z": -2.0449154611,
				"element": "H" 
			},
			{
				"x": -3.0501199729,
				"y": 4.1899768728,
				"z": -1.9579698571,
				"element": "H" 
			},
			{
				"x": -0.7038544158,
				"y": 4.9489746777,
				"z": -2.2283159501,
				"element": "H" 
			},
			{
				"x": -0.1532534249,
				"y": 3.2721306516,
				"z": -2.1953530498,
				"element": "H" 
			},
			{
				"x": 0.1382485856,
				"y": 4.323471423,
				"z": 0.0633713405,
				"element": "H" 
			},
			{
				"x": -1.5000092159,
				"y": 4.9181719834,
				"z": -0.0029714379,
				"element": "H" 
			},
			{
				"x": -2.7613677334,
				"y": 4.1326513309,
				"z": 1.6749082552,
				"element": "H" 
			},
			{
				"x": -2.2142238438,
				"y": 2.7639382287,
				"z": 2.6411477998,
				"element": "H" 
			},
			{
				"x": -1.1229767132,
				"y": 4.1136663459,
				"z": 2.335610847,
				"element": "H" 
			},
			{
				"x": 0.4649754388,
				"y": 2.5142227449,
				"z": 1.5833969236,
				"element": "H" 
			},
			{
				"x": 0.0493006965,
				"y": 0.6820634488,
				"z": -0.8105576249,
				"element": "H" 
			},
			{
				"x": 0.9605671423,
				"y": 2.1834266184,
				"z": -0.8317141577,
				"element": "H" 
			},
			{
				"x": 2.6946444797,
				"y": 1.3598099177,
				"z": 0.4735779284,
				"element": "H" 
			},
			{
				"x": 3.5357839477,
				"y": -0.6461824461,
				"z": -3.0319296005,
				"element": "H" 
			},
			{
				"x": 3.0516837032,
				"y": -2.3461816719,
				"z": -2.7521954852,
				"element": "H" 
			},
			{
				"x": 2.0346733839,
				"y": -1.3076618858,
				"z": -3.753708505,
				"element": "H" 
			},
			{
				"x": 2.0782762307,
				"y": 0.078815056,
				"z": 3.6992653682,
				"element": "H" 
			},
			{
				"x": 3.3466298732,
				"y": 0.7242989657,
				"z": 2.6525161948,
				"element": "H" 
			},
			{
				"x": 1.8151195197,
				"y": 1.5717915604,
				"z": 2.8064934869,
				"element": "H" 
			},
			{
				"x": -3.3544607598,
				"y": 3.3641021764,
				"z": -6.1107198595,
				"element": "H" 
			},
			{
				"x": -2.8891777974,
				"y": 5.0592318813,
				"z": -6.4445868847,
				"element": "H" 
			},
			{
				"x": -1.6486159349,
				"y": 3.7935138859,
				"z": -6.2096948863,
				"element": "H" 
			}
		],
		 "valence_orbital": [ 
			{
				"type": "occ",
				"energy": -0.2738,
				"method": "rhf"
			},
			{
				"type": "occ",
				"energy": -0.27059,
				"method": "rhf"
			},
			{
				"type": "occ",
				"energy": -0.26893,
				"method": "rhf"
			},
			{
				"type": "occ",
				"energy": -0.26163,
				"method": "rhf"
			},
			{
				"type": "occ",
				"energy": -0.26043,
				"method": "rhf"
			},
			{
				"type": "unocc",
				"energy": 0.00824,
				"method": "rhf"
			},
			{
				"type": "unocc",
				"energy": 0.01285,
				"method": "rhf"
			},
			{
				"type": "unocc",
				"energy": 0.01929,
				"method": "rhf"
			},
			{
				"type": "unocc",
				"energy": 0.06419,
				"method": "rhf"
			},
			{
				"type": "unocc",
				"energy": 0.07452,
				"method": "rhf"
			}
		],
		"cosmo_sigma_profile": { 
			"-0.025": 0.0,
			"-0.024": 0.0,
			"-0.023": 0.0,
			"-0.022": 0.0,
			"-0.021": 0.0,
			"-0.02": 0.0,
			"-0.019": 0.0,
			"-0.018": 0.0,
			"-0.017": 0.0,
			"-0.016": 0.0,
			"-0.015": 0.0,
			"-0.014": 0.0,
			"-0.013": 0.0,
			"-0.012": 0.0,
			"-0.011": 0.0,
			"-0.01": 0.0,
			"-0.009": 0.0,
			"-0.008": 0.0,
			"-0.007": 0.858001344133,
			"-0.006": 9.70163745383,
			"-0.005": 16.4599416443,
			"-0.004": 27.6741723483,
			"-0.003": 59.5025817526,
			"-0.002": 90.4491861697,
			"-0.001": 82.8293811365,
			"0.0": 65.9385626148,
			"0.001": 53.7613821882,
			"0.002": 32.4395771033,
			"0.003": 14.624915551,
			"0.004": 10.0636242098,
			"0.005": 11.1403793619,
			"0.006": 10.2566396921,
			"0.007": 6.84988834244,
			"0.008": 6.91169136157,
			"0.009": 6.27194320547,
			"0.01": 4.02638795384,
			"0.011": 5.70254041594,
			"0.012": 7.16185588181,
			"0.013": 2.50746401481,
			"0.014": 0.175870184643,
			"0.015": 0.0,
			"0.016": 0.0,
			"0.017": 0.0,
			"0.018": 0.0,
			"0.019": 0.0,
			"0.02": 0.0,
			"0.021": 0.0,
			"0.022": 0.0,
			"0.023": 0.0,
			"0.024": 0.0,
			"0.025": 0.0
		}
	}
}
