{
	 "smiles": "O=C(C=C1NC(=O)CS1)C1=CC=CO1", 
	 "Tm": 525.15, 
	 "num_atms": 21, 
	 "gaussian": { 
		 "optdone": 1, 
		 "sigma_profile": "yes", 
		 "theory": "DFT", 
		 "functional": "B3LYP", 
		 "basiset": "6-31G**", 
		 "properties": { 
			 "R2extent": 4453.666, 
			 "electric_dipole_moment_norm": 3.38086229681, 
			 "electric_quadrupole_moment_norm": 5.70872174309, 
			 "total_energy": -1025.75046527, 
			 "HOMO_LUMO_gap": 0.16494, 
			 "cosmo_polarized_energy": -18.07, 
			 "cosmo_cavitation_energy": 28.03, 
			 "cosmo_dispersion_energy": -20.9, 
			 "cosmo_repulsion_energy": 1.59, 
			 "cosmo_total_nonelectrostatic_energy": 8.72, 
			 "SMD_solvation_energy": 6.85 
		},
		"coords": [
			{
				"x": 2.1384564598,
				"y": -0.498100309,
				"z": 2.7358907243,
				"element": "O" 
			},
			{
				"x": 1.2845067005,
				"y": 0.0305205082,
				"z": 2.0189540358,
				"element": "C" 
			},
			{
				"x": 0.2254572245,
				"y": 0.825967717,
				"z": 2.6599407712,
				"element": "C" 
			},
			{
				"x": -1.0374076019,
				"y": 1.178288517,
				"z": 2.309479779,
				"element": "C" 
			},
			{
				"x": -1.8654088361,
				"y": 1.8280616925,
				"z": 3.2226971019,
				"element": "N" 
			},
			{
				"x": -3.1911881734,
				"y": 2.0629990363,
				"z": 2.9242904102,
				"element": "C" 
			},
			{
				"x": -3.9809002452,
				"y": 2.6116099739,
				"z": 3.6643818562,
				"element": "O" 
			},
			{
				"x": -3.5119694424,
				"y": 1.5113236445,
				"z": 1.5393007673,
				"element": "C" 
			},
			{
				"x": -1.9454546498,
				"y": 0.9123377354,
				"z": 0.7987357439,
				"element": "S" 
			},
			{
				"x": 1.4064927817,
				"y": -0.1498135996,
				"z": 0.5651530585,
				"element": "C" 
			},
			{
				"x": 2.2387974132,
				"y": -0.9759413789,
				"z": -0.1456144662,
				"element": "C" 
			},
			{
				"x": 1.9865690587,
				"y": -0.72026083,
				"z": -1.524363722,
				"element": "C" 
			},
			{
				"x": 1.0251690693,
				"y": 0.2495813433,
				"z": -1.5603576208,
				"element": "C" 
			},
			{
				"x": 0.6640686717,
				"y": 0.6091280713,
				"z": -0.3024891722,
				"element": "O" 
			},
			{
				"x": 0.5019131471,
				"y": 1.0509362184,
				"z": 3.6880657687,
				"element": "H" 
			},
			{
				"x": -1.5176895513,
				"y": 2.0951661097,
				"z": 4.1348831194,
				"element": "H" 
			},
			{
				"x": -3.9500996584,
				"y": 2.2991068371,
				"z": 0.9232230641,
				"element": "H" 
			},
			{
				"x": -4.2384354751,
				"y": 0.6997730798,
				"z": 1.6359963928,
				"element": "H" 
			},
			{
				"x": 2.9401407984,
				"y": -1.6717393574,
				"z": 0.2892567161,
				"element": "H" 
			},
			{
				"x": 2.4576010867,
				"y": -1.187219546,
				"z": -2.3771977593,
				"element": "H" 
			},
			{
				"x": 0.521781222,
				"y": 0.7688745363,
				"z": -2.3613265686,
				"element": "H" 
			}
		],
		 "valence_orbital": [ 
			{
				"type": "occ",
				"energy": -0.28206,
				"method": "rhf"
			},
			{
				"type": "occ",
				"energy": -0.27564,
				"method": "rhf"
			},
			{
				"type": "occ",
				"energy": -0.25174,
				"method": "rhf"
			},
			{
				"type": "occ",
				"energy": -0.23853,
				"method": "rhf"
			},
			{
				"type": "occ",
				"energy": -0.2318,
				"method": "rhf"
			},
			{
				"type": "unocc",
				"energy": -0.06686,
				"method": "rhf"
			},
			{
				"type": "unocc",
				"energy": -0.0133,
				"method": "rhf"
			},
			{
				"type": "unocc",
				"energy": 0.0011,
				"method": "rhf"
			},
			{
				"type": "unocc",
				"energy": 0.02017,
				"method": "rhf"
			},
			{
				"type": "unocc",
				"energy": 0.04055,
				"method": "rhf"
			}
		],
		"cosmo_sigma_profile": { 
			"-0.025": 0.0,
			"-0.024": 0.0,
			"-0.023": 0.0,
			"-0.022": 0.0,
			"-0.021": 0.0,
			"-0.02": 0.0,
			"-0.019": 0.0,
			"-0.018": 0.0,
			"-0.017": 0.693570838202,
			"-0.016": 1.29221950235,
			"-0.015": 1.22813418097,
			"-0.014": 1.19223940332,
			"-0.013": 1.51269561452,
			"-0.012": 1.1023003214,
			"-0.011": 1.03113411502,
			"-0.01": 1.78525227291,
			"-0.009": 6.82250207682,
			"-0.008": 10.8599847845,
			"-0.007": 10.3428588971,
			"-0.006": 12.5831086955,
			"-0.005": 12.0215961718,
			"-0.004": 9.36754458277,
			"-0.003": 9.74201182259,
			"-0.002": 10.7404970151,
			"-0.001": 12.2171864758,
			"0.0": 13.4778844593,
			"0.001": 19.3823765635,
			"0.002": 17.1936172129,
			"0.003": 15.5645984762,
			"0.004": 9.86618895107,
			"0.005": 6.0205488235,
			"0.006": 5.11960793603,
			"0.007": 5.28970324743,
			"0.008": 2.98893142647,
			"0.009": 1.75831215088,
			"0.01": 4.36510733917,
			"0.011": 5.71320460416,
			"0.012": 8.16585523578,
			"0.013": 5.85448606693,
			"0.014": 1.76182021131,
			"0.015": 0.121699837662,
			"0.016": 0.0,
			"0.017": 0.0,
			"0.018": 0.0,
			"0.019": 0.0,
			"0.02": 0.0,
			"0.021": 0.0,
			"0.022": 0.0,
			"0.023": 0.0,
			"0.024": 0.0,
			"0.025": 0.0
		}
	}
}
