{
	 "smiles": "CC(C)C1=CC(C(C)C)=C(O)C(=C1)C(O)=O", 
	 "Tm": 390.15, 
	 "num_atms": 34, 
	 "gaussian": { 
		 "optdone": 1, 
		 "sigma_profile": "yes", 
		 "theory": "DFT", 
		 "functional": "B3LYP", 
		 "basiset": "6-31G**", 
		 "properties": { 
			 "R2extent": 4356.5106, 
			 "electric_dipole_moment_norm": 2.06395400627, 
			 "electric_quadrupole_moment_norm": 9.72676342727, 
			 "total_energy": -731.959602094, 
			 "HOMO_LUMO_gap": 0.16776, 
			 "cosmo_polarized_energy": -8.11, 
			 "cosmo_cavitation_energy": 35.54, 
			 "cosmo_dispersion_energy": -25.08, 
			 "cosmo_repulsion_energy": 2.0, 
			 "cosmo_total_nonelectrostatic_energy": 12.45, 
			 "SMD_solvation_energy": 7.65 
		},
		"coords": [
			{
				"x": 1.6372255934,
				"y": 0.9573542738,
				"z": -3.9390694662,
				"element": "C" 
			},
			{
				"x": 2.0570366775,
				"y": 1.3050331168,
				"z": -2.4982809696,
				"element": "C" 
			},
			{
				"x": 3.4333736238,
				"y": 0.7001710943,
				"z": -2.1623658977,
				"element": "C" 
			},
			{
				"x": 0.9954113606,
				"y": 0.9030991789,
				"z": -1.4832032687,
				"element": "C" 
			},
			{
				"x": 0.6240962974,
				"y": -0.4454385772,
				"z": -1.3027891807,
				"element": "C" 
			},
			{
				"x": -0.3380910749,
				"y": -0.8722079609,
				"z": -0.3917442429,
				"element": "C" 
			},
			{
				"x": -0.6712987044,
				"y": -2.3546377604,
				"z": -0.2692639129,
				"element": "C" 
			},
			{
				"x": -2.1291890008,
				"y": -2.6670951246,
				"z": -0.6614861501,
				"element": "C" 
			},
			{
				"x": -0.3268813593,
				"y": -2.9248412698,
				"z": 1.1211289181,
				"element": "C" 
			},
			{
				"x": -0.9784224433,
				"y": 0.1134230078,
				"z": 0.3982273819,
				"element": "C" 
			},
			{
				"x": -1.9123580874,
				"y": -0.277204488,
				"z": 1.2860817908,
				"element": "O" 
			},
			{
				"x": -0.6267572173,
				"y": 1.4779834506,
				"z": 0.2399671108,
				"element": "C" 
			},
			{
				"x": 0.3557342138,
				"y": 1.8502142069,
				"z": -0.6995326202,
				"element": "C" 
			},
			{
				"x": -1.3041616564,
				"y": 2.475811304,
				"z": 1.069153893,
				"element": "C" 
			},
			{
				"x": -0.9166357474,
				"y": 3.7503391341,
				"z": 0.861746271,
				"element": "O" 
			},
			{
				"x": -2.171996482,
				"y": 2.2190990668,
				"z": 1.9097825779,
				"element": "O" 
			},
			{
				"x": 2.3878001053,
				"y": 1.3069852555,
				"z": -4.6564062365,
				"element": "H" 
			},
			{
				"x": 0.6789091067,
				"y": 1.4198301805,
				"z": -4.194942056,
				"element": "H" 
			},
			{
				"x": 1.5312463988,
				"y": -0.1250332813,
				"z": -4.073076525,
				"element": "H" 
			},
			{
				"x": 2.1549058594,
				"y": 2.3970865312,
				"z": -2.4391649734,
				"element": "H" 
			},
			{
				"x": 3.7533452329,
				"y": 0.9794728089,
				"z": -1.1537368854,
				"element": "H" 
			},
			{
				"x": 4.1930605794,
				"y": 1.0485880694,
				"z": -2.8706506692,
				"element": "H" 
			},
			{
				"x": 3.4109417218,
				"y": -0.3941695269,
				"z": -2.2138606856,
				"element": "H" 
			},
			{
				"x": 1.1129606526,
				"y": -1.2068071809,
				"z": -1.9071715804,
				"element": "H" 
			},
			{
				"x": -0.0261844991,
				"y": -2.8669212192,
				"z": -0.9956091846,
				"element": "H" 
			},
			{
				"x": -2.3004165321,
				"y": -3.7491757717,
				"z": -0.6446468197,
				"element": "H" 
			},
			{
				"x": -2.3508125441,
				"y": -2.3063795765,
				"z": -1.6713238409,
				"element": "H" 
			},
			{
				"x": -2.8321231154,
				"y": -2.1987033931,
				"z": 0.0310017904,
				"element": "H" 
			},
			{
				"x": -0.4982067562,
				"y": -4.0069093401,
				"z": 1.1377550942,
				"element": "H" 
			},
			{
				"x": 0.7242890227,
				"y": -2.746063946,
				"z": 1.3702915509,
				"element": "H" 
			},
			{
				"x": -0.9448765743,
				"y": -2.4686729325,
				"z": 1.8976892922,
				"element": "H" 
			},
			{
				"x": -2.2425197428,
				"y": 0.5385040941,
				"z": 1.737844092,
				"element": "H" 
			},
			{
				"x": 0.6046381012,
				"y": 2.9016334202,
				"z": -0.799114168,
				"element": "H" 
			},
			{
				"x": -1.4435430103,
				"y": 4.2915331555,
				"z": 1.4728695705,
				"element": "H" 
			}
		],
		 "valence_orbital": [ 
			{
				"type": "occ",
				"energy": -0.31939,
				"method": "rhf"
			},
			{
				"type": "occ",
				"energy": -0.3155,
				"method": "rhf"
			},
			{
				"type": "occ",
				"energy": -0.28578,
				"method": "rhf"
			},
			{
				"type": "occ",
				"energy": -0.25421,
				"method": "rhf"
			},
			{
				"type": "occ",
				"energy": -0.21742,
				"method": "rhf"
			},
			{
				"type": "unocc",
				"energy": -0.04966,
				"method": "rhf"
			},
			{
				"type": "unocc",
				"energy": 0.00764,
				"method": "rhf"
			},
			{
				"type": "unocc",
				"energy": 0.05134,
				"method": "rhf"
			},
			{
				"type": "unocc",
				"energy": 0.07204,
				"method": "rhf"
			},
			{
				"type": "unocc",
				"energy": 0.08638,
				"method": "rhf"
			}
		],
		"cosmo_sigma_profile": { 
			"-0.025": 0.0,
			"-0.024": 0.0,
			"-0.023": 0.0,
			"-0.022": 0.0,
			"-0.021": 0.0,
			"-0.02": 0.0,
			"-0.019": 0.200381522407,
			"-0.018": 0.962610575833,
			"-0.017": 1.02115971401,
			"-0.016": 0.874614538852,
			"-0.015": 0.732437352261,
			"-0.014": 0.288857217495,
			"-0.013": 0.362024254046,
			"-0.012": 1.13097065802,
			"-0.011": 1.0221110263,
			"-0.01": 0.551769132545,
			"-0.009": 0.192639941668,
			"-0.008": 1.19019411116,
			"-0.007": 1.03075821699,
			"-0.006": 1.72288718892,
			"-0.005": 6.83764526409,
			"-0.004": 9.54674048051,
			"-0.003": 21.9378428507,
			"-0.002": 33.0628540372,
			"-0.001": 36.9285276293,
			"0.0": 35.0409794492,
			"0.001": 41.2253248225,
			"0.002": 29.4940395442,
			"0.003": 14.1218813655,
			"0.004": 13.1933994732,
			"0.005": 7.67390832714,
			"0.006": 4.87385364698,
			"0.007": 4.69966272342,
			"0.008": 2.22244705343,
			"0.009": 1.8553084449,
			"0.01": 2.05356036243,
			"0.011": 1.55360387643,
			"0.012": 0.333821616357,
			"0.013": 0.0,
			"0.014": 0.0,
			"0.015": 0.0,
			"0.016": 0.0,
			"0.017": 0.0,
			"0.018": 0.0,
			"0.019": 0.0,
			"0.02": 0.0,
			"0.021": 0.0,
			"0.022": 0.0,
			"0.023": 0.0,
			"0.024": 0.0,
			"0.025": 0.0
		}
	}
}
