{
	 "smiles": "CC1=NC(=CS1)C1=CC(CO)=NO1", 
	 "Tm": 393.15, 
	 "num_atms": 21, 
	 "gaussian": { 
		 "optdone": 1, 
		 "sigma_profile": "yes", 
		 "theory": "DFT", 
		 "functional": "B3LYP", 
		 "basiset": "6-31G**", 
		 "properties": { 
			 "R2extent": 5482.2642, 
			 "electric_dipole_moment_norm": 4.6501989237, 
			 "electric_quadrupole_moment_norm": 19.1346283408, 
			 "total_energy": -967.747463597, 
			 "HOMO_LUMO_gap": 0.17989, 
			 "cosmo_polarized_energy": -11.09, 
			 "cosmo_cavitation_energy": 27.73, 
			 "cosmo_dispersion_energy": -21.23, 
			 "cosmo_repulsion_energy": 1.65, 
			 "cosmo_total_nonelectrostatic_energy": 8.15, 
			 "SMD_solvation_energy": 3.34 
		},
		"coords": [
			{
				"x": -3.9387159139,
				"y": 0.5488047442,
				"z": 0.9160646902,
				"element": "C" 
			},
			{
				"x": -2.9075650644,
				"y": 0.9129566986,
				"z": -0.107259286,
				"element": "C" 
			},
			{
				"x": -2.1209378293,
				"y": 0.0614194696,
				"z": -0.6932387583,
				"element": "N" 
			},
			{
				"x": -1.2736584341,
				"y": 0.6867480768,
				"z": -1.5906474811,
				"element": "C" 
			},
			{
				"x": -1.4157509393,
				"y": 2.0466687685,
				"z": -1.69280357,
				"element": "C" 
			},
			{
				"x": -2.6616869058,
				"y": 2.5863482129,
				"z": -0.624970075,
				"element": "S" 
			},
			{
				"x": -0.3258720051,
				"y": -0.1250416919,
				"z": -2.3335069996,
				"element": "C" 
			},
			{
				"x": -0.0754435261,
				"y": -1.4684654976,
				"z": -2.3460502765,
				"element": "C" 
			},
			{
				"x": 0.9696590012,
				"y": -1.6064554909,
				"z": -3.3021847054,
				"element": "C" 
			},
			{
				"x": 1.7176038334,
				"y": -2.8394068459,
				"z": -3.7362497962,
				"element": "C" 
			},
			{
				"x": 2.5579754458,
				"y": -2.6173131986,
				"z": -4.8461881301,
				"element": "O" 
			},
			{
				"x": 1.3173246728,
				"y": -0.4473926974,
				"z": -3.8146984038,
				"element": "N" 
			},
			{
				"x": 0.4979064745,
				"y": 0.504213318,
				"z": -3.2033564685,
				"element": "O" 
			},
			{
				"x": -4.9453861617,
				"y": 0.8267145242,
				"z": 0.5868995756,
				"element": "H" 
			},
			{
				"x": -3.7500782471,
				"y": 1.0501660284,
				"z": 1.8710564909,
				"element": "H" 
			},
			{
				"x": -3.9053338626,
				"y": -0.5307202389,
				"z": 1.0727302822,
				"element": "H" 
			},
			{
				"x": -0.8647446528,
				"y": 2.7276024201,
				"z": -2.3245893246,
				"element": "H" 
			},
			{
				"x": -0.5698495774,
				"y": -2.2290465057,
				"z": -1.7632396338,
				"element": "H" 
			},
			{
				"x": 0.9996494009,
				"y": -3.6249852399,
				"z": -4.0042700454,
				"element": "H" 
			},
			{
				"x": 2.2859842489,
				"y": -3.2169511222,
				"z": -2.8682287383,
				"element": "H" 
			},
			{
				"x": 2.796120042,
				"y": -1.6789637321,
				"z": -4.8466693464,
				"element": "H" 
			}
		],
		 "valence_orbital": [ 
			{
				"type": "occ",
				"energy": -0.298,
				"method": "rhf"
			},
			{
				"type": "occ",
				"energy": -0.28995,
				"method": "rhf"
			},
			{
				"type": "occ",
				"energy": -0.28726,
				"method": "rhf"
			},
			{
				"type": "occ",
				"energy": -0.2642,
				"method": "rhf"
			},
			{
				"type": "occ",
				"energy": -0.23362,
				"method": "rhf"
			},
			{
				"type": "unocc",
				"energy": -0.05373,
				"method": "rhf"
			},
			{
				"type": "unocc",
				"energy": -0.01668,
				"method": "rhf"
			},
			{
				"type": "unocc",
				"energy": 0.00458,
				"method": "rhf"
			},
			{
				"type": "unocc",
				"energy": 0.03583,
				"method": "rhf"
			},
			{
				"type": "unocc",
				"energy": 0.07536,
				"method": "rhf"
			}
		],
		"cosmo_sigma_profile": { 
			"-0.025": 0.0,
			"-0.024": 0.0,
			"-0.023": 0.0,
			"-0.022": 0.0,
			"-0.021": 0.0,
			"-0.02": 0.0,
			"-0.019": 0.0,
			"-0.018": 0.0,
			"-0.017": 0.0,
			"-0.016": 0.0,
			"-0.015": 0.0,
			"-0.014": 0.0,
			"-0.013": 0.0617877549391,
			"-0.012": 0.452780484152,
			"-0.011": 0.565096538448,
			"-0.01": 1.17578615139,
			"-0.009": 2.4608989678,
			"-0.008": 4.08295771297,
			"-0.007": 5.46608674973,
			"-0.006": 14.5715824953,
			"-0.005": 18.0081044155,
			"-0.004": 15.2385979872,
			"-0.003": 14.8666667948,
			"-0.002": 15.5117279988,
			"-0.001": 14.8414507156,
			"0.0": 21.8446753696,
			"0.001": 23.6923756723,
			"0.002": 17.1922167987,
			"0.003": 8.65742646653,
			"0.004": 5.83656961381,
			"0.005": 5.1184094336,
			"0.006": 5.43070320696,
			"0.007": 6.70170538948,
			"0.008": 4.8983190313,
			"0.009": 4.22239554891,
			"0.01": 3.64606441244,
			"0.011": 3.0520341212,
			"0.012": 3.16295107126,
			"0.013": 2.00065058508,
			"0.014": 1.33390490628,
			"0.015": 0.0,
			"0.016": 0.0,
			"0.017": 0.0,
			"0.018": 0.0,
			"0.019": 0.0,
			"0.02": 0.0,
			"0.021": 0.0,
			"0.022": 0.0,
			"0.023": 0.0,
			"0.024": 0.0,
			"0.025": 0.0
		}
	}
}
