{
	 "smiles": "O=CC1=CC(C=O)=CC=C1", 
	 "Tm": 361.85, 
	 "num_atms": 16, 
	 "gaussian": { 
		 "optdone": 1, 
		 "sigma_profile": "yes", 
		 "theory": "DFT", 
		 "functional": "B3LYP", 
		 "basiset": "6-31G**", 
		 "properties": { 
			 "R2extent": 1793.3692, 
			 "electric_dipole_moment_norm": 3.06861354035, 
			 "electric_quadrupole_moment_norm": 14.9184845437, 
			 "total_energy": -458.896108093, 
			 "HOMO_LUMO_gap": 0.18015, 
			 "cosmo_polarized_energy": -10.75, 
			 "cosmo_cavitation_energy": 21.44, 
			 "cosmo_dispersion_energy": -15.38, 
			 "cosmo_repulsion_energy": 1.23, 
			 "cosmo_total_nonelectrostatic_energy": 7.29, 
			 "SMD_solvation_energy": 5.89 
		},
		"coords": [
			{
				"x": -2.5225577131,
				"y": -1.3920157766,
				"z": 0.1289399795,
				"element": "O" 
			},
			{
				"x": -1.6930613841,
				"y": -0.5758264717,
				"z": 0.4796148935,
				"element": "C" 
			},
			{
				"x": -0.6479964148,
				"y": -0.0122977794,
				"z": -0.410788914,
				"element": "C" 
			},
			{
				"x": 0.2619098407,
				"y": 0.9215102842,
				"z": 0.0838648048,
				"element": "C" 
			},
			{
				"x": 1.2486304041,
				"y": 1.4534634483,
				"z": -0.7574639879,
				"element": "C" 
			},
			{
				"x": 2.217478782,
				"y": 2.4464896612,
				"z": -0.2344899518,
				"element": "C" 
			},
			{
				"x": 2.2285825878,
				"y": 2.855273859,
				"z": 0.9101163736,
				"element": "O" 
			},
			{
				"x": 1.3142790504,
				"y": 1.0418531368,
				"z": -2.0945972148,
				"element": "C" 
			},
			{
				"x": 0.4036997001,
				"y": 0.1058625628,
				"z": -2.5938249008,
				"element": "C" 
			},
			{
				"x": -0.5741130865,
				"y": -0.4196392358,
				"z": -1.7553846514,
				"element": "C" 
			},
			{
				"x": -1.6692021481,
				"y": -0.1918975633,
				"z": 1.5228482005,
				"element": "H" 
			},
			{
				"x": 0.2249591064,
				"y": 1.2517656008,
				"z": 1.1189909054,
				"element": "H" 
			},
			{
				"x": 2.9602518309,
				"y": 2.8081121396,
				"z": -0.9796619011,
				"element": "H" 
			},
			{
				"x": 2.0818911251,
				"y": 1.4576255834,
				"z": -2.7435449642,
				"element": "H" 
			},
			{
				"x": 0.4601905476,
				"y": -0.208863039,
				"z": -3.6313014242,
				"element": "H" 
			},
			{
				"x": -1.2958422284,
				"y": -1.1479164102,
				"z": -2.1122172471,
				"element": "H" 
			}
		],
		 "valence_orbital": [ 
			{
				"type": "occ",
				"energy": -0.36926,
				"method": "rhf"
			},
			{
				"type": "occ",
				"energy": -0.28287,
				"method": "rhf"
			},
			{
				"type": "occ",
				"energy": -0.27965,
				"method": "rhf"
			},
			{
				"type": "occ",
				"energy": -0.27094,
				"method": "rhf"
			},
			{
				"type": "occ",
				"energy": -0.26328,
				"method": "rhf"
			},
			{
				"type": "unocc",
				"energy": -0.08313,
				"method": "rhf"
			},
			{
				"type": "unocc",
				"energy": -0.06751,
				"method": "rhf"
			},
			{
				"type": "unocc",
				"energy": 0.00199,
				"method": "rhf"
			},
			{
				"type": "unocc",
				"energy": 0.04925,
				"method": "rhf"
			},
			{
				"type": "unocc",
				"energy": 0.0868,
				"method": "rhf"
			}
		],
		"cosmo_sigma_profile": { 
			"-0.025": 0.0,
			"-0.024": 0.0,
			"-0.023": 0.0,
			"-0.022": 0.0,
			"-0.021": 0.0,
			"-0.02": 0.0,
			"-0.019": 0.0,
			"-0.018": 0.0,
			"-0.017": 0.0,
			"-0.016": 0.0,
			"-0.015": 0.0,
			"-0.014": 0.0,
			"-0.013": 0.0,
			"-0.012": 0.0,
			"-0.011": 0.0,
			"-0.01": 0.0,
			"-0.009": 0.986594031782,
			"-0.008": 6.58984522806,
			"-0.007": 11.7725336999,
			"-0.006": 14.2316253885,
			"-0.005": 11.3471453437,
			"-0.004": 10.3814666531,
			"-0.003": 10.8128734561,
			"-0.002": 9.41311414297,
			"-0.001": 12.5539248084,
			"0.0": 13.7229096099,
			"0.001": 18.2132343913,
			"0.002": 9.99133335416,
			"0.003": 3.07944389918,
			"0.004": 4.0223372266,
			"0.005": 2.45349395791,
			"0.006": 2.99202111714,
			"0.007": 3.55797532213,
			"0.008": 3.1545839805,
			"0.009": 4.41243855832,
			"0.01": 5.59468332363,
			"0.011": 8.93169449351,
			"0.012": 3.60795282508,
			"0.013": 0.776812824122,
			"0.014": 0.0,
			"0.015": 0.0,
			"0.016": 0.0,
			"0.017": 0.0,
			"0.018": 0.0,
			"0.019": 0.0,
			"0.02": 0.0,
			"0.021": 0.0,
			"0.022": 0.0,
			"0.023": 0.0,
			"0.024": 0.0,
			"0.025": 0.0
		}
	}
}
