{
	 "smiles": "CCCC(C)(C)C(C)(C)C", 
	 "Tm": 219.15, 
	 "num_atms": 32, 
	 "gaussian": { 
		 "optdone": 1, 
		 "sigma_profile": "yes", 
		 "theory": "DFT", 
		 "functional": "B3LYP", 
		 "basiset": "6-31G**", 
		 "properties": { 
			 "R2extent": 2072.5577, 
			 "electric_dipole_moment_norm": 0.0576191808342, 
			 "electric_quadrupole_moment_norm": 0.660890361558, 
			 "total_energy": -394.344462421, 
			 "HOMO_LUMO_gap": 0.3598, 
			 "cosmo_polarized_energy": -0.93, 
			 "cosmo_cavitation_energy": 29.04, 
			 "cosmo_dispersion_energy": -20.62, 
			 "cosmo_repulsion_energy": 1.63, 
			 "cosmo_total_nonelectrostatic_energy": 10.05, 
			 "SMD_solvation_energy": 5.02 
		},
		"coords": [
			{
				"x": -2.4379990433,
				"y": 3.3590116061,
				"z": -1.1679084414,
				"element": "C" 
			},
			{
				"x": -2.2944541408,
				"y": 1.8461338923,
				"z": -0.9599866448,
				"element": "C" 
			},
			{
				"x": -0.8160720784,
				"y": 1.419090975,
				"z": -0.9018887691,
				"element": "C" 
			},
			{
				"x": -0.4545745229,
				"y": -0.0887920777,
				"z": -0.6741028709,
				"element": "C" 
			},
			{
				"x": 0.9039475682,
				"y": -0.3184133708,
				"z": -1.3830516012,
				"element": "C" 
			},
			{
				"x": -1.4898350311,
				"y": -0.9860619171,
				"z": -1.3892973265,
				"element": "C" 
			},
			{
				"x": -0.3348590876,
				"y": -0.4647824809,
				"z": 0.8716389002,
				"element": "C" 
			},
			{
				"x": 0.9205024384,
				"y": 0.1739909007,
				"z": 1.5111651973,
				"element": "C" 
			},
			{
				"x": -0.225130319,
				"y": -1.9952509615,
				"z": 1.0706719488,
				"element": "C" 
			},
			{
				"x": -1.5582918075,
				"y": 0.0113643029,
				"z": 1.6860594813,
				"element": "C" 
			},
			{
				"x": -1.9411135153,
				"y": 3.6826219957,
				"z": -2.0900141057,
				"element": "H" 
			},
			{
				"x": -1.988578604,
				"y": 3.9193491218,
				"z": -0.3397356554,
				"element": "H" 
			},
			{
				"x": -3.4901359364,
				"y": 3.6548676109,
				"z": -1.236306149,
				"element": "H" 
			},
			{
				"x": -2.7979030057,
				"y": 1.3261496612,
				"z": -1.7832574186,
				"element": "H" 
			},
			{
				"x": -2.8277423887,
				"y": 1.5590873278,
				"z": -0.0490754448,
				"element": "H" 
			},
			{
				"x": -0.3031089659,
				"y": 2.0307409478,
				"z": -0.148806958,
				"element": "H" 
			},
			{
				"x": -0.3695847283,
				"y": 1.7178888126,
				"z": -1.8604688847,
				"element": "H" 
			},
			{
				"x": 1.6561355785,
				"y": 0.4140331741,
				"z": -1.0755625439,
				"element": "H" 
			},
			{
				"x": 1.3099529337,
				"y": -1.3171232637,
				"z": -1.1944893216,
				"element": "H" 
			},
			{
				"x": 0.7778148389,
				"y": -0.218360658,
				"z": -2.4666935057,
				"element": "H" 
			},
			{
				"x": -1.1511267597,
				"y": -2.0247050533,
				"z": -1.4387209511,
				"element": "H" 
			},
			{
				"x": -2.4694990943,
				"y": -0.9770284712,
				"z": -0.9025116393,
				"element": "H" 
			},
			{
				"x": -1.6341590819,
				"y": -0.6464734664,
				"z": -2.4208819019,
				"element": "H" 
			},
			{
				"x": 0.9586745335,
				"y": 1.258061062,
				"z": 1.3637538342,
				"element": "H" 
			},
			{
				"x": 1.8467709471,
				"y": -0.2515945693,
				"z": 1.1150544841,
				"element": "H" 
			},
			{
				"x": 0.9170611771,
				"y": -0.0053825871,
				"z": 2.5920440867,
				"element": "H" 
			},
			{
				"x": -1.1505401095,
				"y": -2.5126440159,
				"z": 0.8016480196,
				"element": "H" 
			},
			{
				"x": -0.0250285071,
				"y": -2.2165946796,
				"z": 2.1249762036,
				"element": "H" 
			},
			{
				"x": 0.589368886,
				"y": -2.4360800513,
				"z": 0.4875646413,
				"element": "H" 
			},
			{
				"x": -1.6179439792,
				"y": 1.1021660928,
				"z": 1.7386340676,
				"element": "H" 
			},
			{
				"x": -1.482147393,
				"y": -0.3574433998,
				"z": 2.7153278561,
				"element": "H" 
			},
			{
				"x": -2.5020008017,
				"y": -0.3633264601,
				"z": 1.2776214127,
				"element": "H" 
			}
		],
		 "valence_orbital": [ 
			{
				"type": "occ",
				"energy": -0.32433,
				"method": "rhf"
			},
			{
				"type": "occ",
				"energy": -0.31869,
				"method": "rhf"
			},
			{
				"type": "occ",
				"energy": -0.29623,
				"method": "rhf"
			},
			{
				"type": "occ",
				"energy": -0.29183,
				"method": "rhf"
			},
			{
				"type": "occ",
				"energy": -0.28713,
				"method": "rhf"
			},
			{
				"type": "unocc",
				"energy": 0.07267,
				"method": "rhf"
			},
			{
				"type": "unocc",
				"energy": 0.10405,
				"method": "rhf"
			},
			{
				"type": "unocc",
				"energy": 0.11691,
				"method": "rhf"
			},
			{
				"type": "unocc",
				"energy": 0.1183,
				"method": "rhf"
			},
			{
				"type": "unocc",
				"energy": 0.1299,
				"method": "rhf"
			}
		],
		"cosmo_sigma_profile": { 
			"-0.025": 0.0,
			"-0.024": 0.0,
			"-0.023": 0.0,
			"-0.022": 0.0,
			"-0.021": 0.0,
			"-0.02": 0.0,
			"-0.019": 0.0,
			"-0.018": 0.0,
			"-0.017": 0.0,
			"-0.016": 0.0,
			"-0.015": 0.0,
			"-0.014": 0.0,
			"-0.013": 0.0,
			"-0.012": 0.0,
			"-0.011": 0.0,
			"-0.01": 0.0,
			"-0.009": 0.0,
			"-0.008": 0.0,
			"-0.007": 0.0,
			"-0.006": 0.0,
			"-0.005": 0.0,
			"-0.004": 0.0590784743363,
			"-0.003": 5.34417734314,
			"-0.002": 31.3449038569,
			"-0.001": 53.9244788969,
			"0.0": 46.366907346,
			"0.001": 40.3631993117,
			"0.002": 38.8498942765,
			"0.003": 4.97888856958,
			"0.004": 0.0,
			"0.005": 0.0,
			"0.006": 0.0,
			"0.007": 0.0,
			"0.008": 0.0,
			"0.009": 0.0,
			"0.01": 0.0,
			"0.011": 0.0,
			"0.012": 0.0,
			"0.013": 0.0,
			"0.014": 0.0,
			"0.015": 0.0,
			"0.016": 0.0,
			"0.017": 0.0,
			"0.018": 0.0,
			"0.019": 0.0,
			"0.02": 0.0,
			"0.021": 0.0,
			"0.022": 0.0,
			"0.023": 0.0,
			"0.024": 0.0,
			"0.025": 0.0
		}
	}
}
