{
	 "smiles": "CNCC1=CSC(=N1)C1CCN(CC1)C(=O)OC(C)(C)C", 
	 "Tm": 318.15, 
	 "num_atms": 46, 
	 "gaussian": { 
		 "optdone": 1, 
		 "sigma_profile": "yes", 
		 "theory": "DFT", 
		 "functional": "B3LYP", 
		 "basiset": "6-31G**", 
		 "properties": { 
			 "R2extent": 11432.8272, 
			 "electric_dipole_moment_norm": 2.33603061196, 
			 "electric_quadrupole_moment_norm": 17.681879339, 
			 "total_energy": -1299.58099122, 
			 "HOMO_LUMO_gap": 0.19332, 
			 "cosmo_polarized_energy": -13.21, 
			 "cosmo_cavitation_energy": 47.81, 
			 "cosmo_dispersion_energy": -33.19, 
			 "cosmo_repulsion_energy": 2.55, 
			 "cosmo_total_nonelectrostatic_energy": 17.18, 
			 "SMD_solvation_energy": 4.19 
		},
		"coords": [
			{
				"x": -0.6617730512,
				"y": 0.4324280716,
				"z": -6.485894279,
				"element": "C" 
			},
			{
				"x": -0.3713966065,
				"y": 1.737974614,
				"z": -5.8996142072,
				"element": "N" 
			},
			{
				"x": 1.0161548684,
				"y": 1.9008127765,
				"z": -5.4676229836,
				"element": "C" 
			},
			{
				"x": 1.4477364641,
				"y": 0.9897023078,
				"z": -4.3375693085,
				"element": "C" 
			},
			{
				"x": 2.491509968,
				"y": 0.1096258574,
				"z": -4.3425779207,
				"element": "C" 
			},
			{
				"x": 2.5971942715,
				"y": -0.7159185952,
				"z": -2.8186703665,
				"element": "S" 
			},
			{
				"x": 1.1842713829,
				"y": 0.1967260726,
				"z": -2.2692597991,
				"element": "C" 
			},
			{
				"x": 0.7182194958,
				"y": 1.0213273516,
				"z": -3.1617635654,
				"element": "N" 
			},
			{
				"x": 0.5812314506,
				"y": 0.0044677663,
				"z": -0.9036798046,
				"element": "C" 
			},
			{
				"x": 0.0184639812,
				"y": -1.4172060113,
				"z": -0.6910131397,
				"element": "C" 
			},
			{
				"x": -0.8293701182,
				"y": -1.4658047373,
				"z": 0.5898635869,
				"element": "C" 
			},
			{
				"x": -0.1668454588,
				"y": -0.7240454876,
				"z": 1.6692517408,
				"element": "N" 
			},
			{
				"x": 1.2608619851,
				"y": -0.4566037775,
				"z": 1.5275764029,
				"element": "C" 
			},
			{
				"x": 1.5522980875,
				"y": 0.3682515816,
				"z": 0.2592427474,
				"element": "C" 
			},
			{
				"x": -0.8026691914,
				"y": -0.3802495828,
				"z": 2.8337396713,
				"element": "C" 
			},
			{
				"x": -0.2658308051,
				"y": 0.2065233811,
				"z": 3.7643716946,
				"element": "O" 
			},
			{
				"x": -2.0987539856,
				"y": -0.7808576907,
				"z": 2.796055614,
				"element": "O" 
			},
			{
				"x": -3.0067956592,
				"y": -0.5038799834,
				"z": 3.9191425744,
				"element": "C" 
			},
			{
				"x": -4.3263698061,
				"y": -1.1125905077,
				"z": 3.4365307143,
				"element": "C" 
			},
			{
				"x": -3.1493353544,
				"y": 1.008427887,
				"z": 4.1224885965,
				"element": "C" 
			},
			{
				"x": -2.5113991761,
				"y": -1.2157260076,
				"z": 5.1828090639,
				"element": "C" 
			},
			{
				"x": -0.4254889905,
				"y": -0.4309480202,
				"z": -5.8407315469,
				"element": "H" 
			},
			{
				"x": -1.723748974,
				"y": 0.3838076622,
				"z": -6.7450647196,
				"element": "H" 
			},
			{
				"x": -0.0903997948,
				"y": 0.3177447494,
				"z": -7.4146449854,
				"element": "H" 
			},
			{
				"x": -0.9689175728,
				"y": 1.883951445,
				"z": -5.0891368582,
				"element": "H" 
			},
			{
				"x": 1.1440462723,
				"y": 2.9418036997,
				"z": -5.1456793473,
				"element": "H" 
			},
			{
				"x": 1.6741690437,
				"y": 1.7490220821,
				"z": -6.3310528253,
				"element": "H" 
			},
			{
				"x": 3.1948829735,
				"y": -0.0937993016,
				"z": -5.1378461305,
				"element": "H" 
			},
			{
				"x": -0.2657613058,
				"y": 0.6989881152,
				"z": -0.8811540691,
				"element": "H" 
			},
			{
				"x": -0.6074848897,
				"y": -1.7139294587,
				"z": -1.5383016339,
				"element": "H" 
			},
			{
				"x": 0.8415069649,
				"y": -2.1404960502,
				"z": -0.6416805158,
				"element": "H" 
			},
			{
				"x": -1.8056336999,
				"y": -1.0098354592,
				"z": 0.4028482765,
				"element": "H" 
			},
			{
				"x": -1.0143378247,
				"y": -2.5082556633,
				"z": 0.8846115957,
				"element": "H" 
			},
			{
				"x": 1.5831054744,
				"y": 0.069009702,
				"z": 2.4257505291,
				"element": "H" 
			},
			{
				"x": 1.8072124874,
				"y": -1.4096839629,
				"z": 1.4908474558,
				"element": "H" 
			},
			{
				"x": 1.4649065523,
				"y": 1.4381887195,
				"z": 0.4722350975,
				"element": "H" 
			},
			{
				"x": 2.5908686262,
				"y": 0.1897265202,
				"z": -0.0407922661,
				"element": "H" 
			},
			{
				"x": -5.1027452999,
				"y": -0.9771141196,
				"z": 4.1953798766,
				"element": "H" 
			},
			{
				"x": -4.2109758668,
				"y": -2.1836960824,
				"z": 3.2463791094,
				"element": "H" 
			},
			{
				"x": -4.6588300413,
				"y": -0.6318024232,
				"z": 2.5117533515,
				"element": "H" 
			},
			{
				"x": -3.4646086151,
				"y": 1.4886240813,
				"z": 3.1905045969,
				"element": "H" 
			},
			{
				"x": -3.9134495894,
				"y": 1.20671378,
				"z": 4.8812549924,
				"element": "H" 
			},
			{
				"x": -2.206189964,
				"y": 1.4485687591,
				"z": 4.446418064,
				"element": "H" 
			},
			{
				"x": -1.5595381664,
				"y": -0.8013348301,
				"z": 5.5149651721,
				"element": "H" 
			},
			{
				"x": -3.2491310619,
				"y": -1.0993299834,
				"z": 5.9835106485,
				"element": "H" 
			},
			{
				"x": -2.3856594802,
				"y": -2.2861092473,
				"z": 4.9904190994,
				"element": "H" 
			}
		],
		 "valence_orbital": [ 
			{
				"type": "occ",
				"energy": -0.27398,
				"method": "rhf"
			},
			{
				"type": "occ",
				"energy": -0.25746,
				"method": "rhf"
			},
			{
				"type": "occ",
				"energy": -0.23857,
				"method": "rhf"
			},
			{
				"type": "occ",
				"energy": -0.23273,
				"method": "rhf"
			},
			{
				"type": "occ",
				"energy": -0.21811,
				"method": "rhf"
			},
			{
				"type": "unocc",
				"energy": -0.02479,
				"method": "rhf"
			},
			{
				"type": "unocc",
				"energy": 0.0177,
				"method": "rhf"
			},
			{
				"type": "unocc",
				"energy": 0.04536,
				"method": "rhf"
			},
			{
				"type": "unocc",
				"energy": 0.05445,
				"method": "rhf"
			},
			{
				"type": "unocc",
				"energy": 0.07235,
				"method": "rhf"
			}
		],
		"cosmo_sigma_profile": { 
			"-0.025": 0.0,
			"-0.024": 0.0,
			"-0.023": 0.0,
			"-0.022": 0.0,
			"-0.021": 0.0,
			"-0.02": 0.0,
			"-0.019": 0.0,
			"-0.018": 0.0,
			"-0.017": 0.0,
			"-0.016": 0.0,
			"-0.015": 0.0,
			"-0.014": 0.0,
			"-0.013": 0.0,
			"-0.012": 0.0,
			"-0.011": 0.0,
			"-0.01": 0.0,
			"-0.009": 0.920852984079,
			"-0.008": 2.78059608802,
			"-0.007": 2.60977150216,
			"-0.006": 3.96004652051,
			"-0.005": 11.8103031981,
			"-0.004": 39.8731303163,
			"-0.003": 48.8303265515,
			"-0.002": 42.2794550191,
			"-0.001": 41.9105173049,
			"0.0": 48.4489368982,
			"0.001": 37.3964193761,
			"0.002": 21.6468531079,
			"0.003": 17.7342181284,
			"0.004": 12.4560907244,
			"0.005": 7.20058301239,
			"0.006": 5.50489911565,
			"0.007": 4.67383309325,
			"0.008": 3.91612598072,
			"0.009": 2.84520959984,
			"0.01": 2.57290094289,
			"0.011": 2.89898160359,
			"0.012": 2.93597960465,
			"0.013": 4.38447298823,
			"0.014": 2.82389397359,
			"0.015": 0.255282460685,
			"0.016": 0.774764452344,
			"0.017": 0.470363135874,
			"0.018": 0.520838361615,
			"0.019": 0.0779466459746,
			"0.02": 0.0,
			"0.021": 0.0,
			"0.022": 0.0,
			"0.023": 0.0,
			"0.024": 0.0,
			"0.025": 0.0
		}
	}
}
