{
	 "smiles": "ClC1=C(Cl)C2=C(C=C1)C(=O)CC2", 
	 "Tm": 356.15, 
	 "num_atms": 18, 
	 "gaussian": { 
		 "optdone": 1, 
		 "sigma_profile": "yes", 
		 "theory": "DFT", 
		 "functional": "B3LYP", 
		 "basiset": "6-31G**", 
		 "properties": { 
			 "R2extent": 3571.9346, 
			 "electric_dipole_moment_norm": 1.0090199998, 
			 "electric_quadrupole_moment_norm": 14.3647273577, 
			 "total_energy": -1342.18848612, 
			 "HOMO_LUMO_gap": 0.18351, 
			 "cosmo_polarized_energy": -7.97, 
			 "cosmo_cavitation_energy": 25.46, 
			 "cosmo_dispersion_energy": -19.16, 
			 "cosmo_repulsion_energy": 1.52, 
			 "cosmo_total_nonelectrostatic_energy": 7.82, 
			 "SMD_solvation_energy": 3.99 
		},
		"coords": [
			{
				"x": 0.3539586443,
				"y": -2.0105073184,
				"z": 4.1562863016,
				"element": "Cl" 
			},
			{
				"x": -0.1604276136,
				"y": -1.6994892987,
				"z": 2.5187827867,
				"element": "C" 
			},
			{
				"x": -0.083131742,
				"y": -0.4080911238,
				"z": 1.9729919103,
				"element": "C" 
			},
			{
				"x": 0.5266254267,
				"y": 0.9439875181,
				"z": 2.8959790147,
				"element": "Cl" 
			},
			{
				"x": -0.5063068177,
				"y": -0.2072060707,
				"z": 0.6585111403,
				"element": "C" 
			},
			{
				"x": -0.9940662886,
				"y": -1.2873267625,
				"z": -0.0806230988,
				"element": "C" 
			},
			{
				"x": -1.0745531726,
				"y": -2.5741997335,
				"z": 0.4535180053,
				"element": "C" 
			},
			{
				"x": -0.6536056793,
				"y": -2.7748452194,
				"z": 1.7616916827,
				"element": "C" 
			},
			{
				"x": -1.3811150597,
				"y": -0.8360132021,
				"z": -1.4415336212,
				"element": "C" 
			},
			{
				"x": -1.8403258742,
				"y": -1.5283298121,
				"z": -2.3285075537,
				"element": "O" 
			},
			{
				"x": -1.0934871779,
				"y": 0.671760902,
				"z": -1.519638644,
				"element": "C" 
			},
			{
				"x": -0.5201793604,
				"y": 1.0788875135,
				"z": -0.1410587342,
				"element": "C" 
			},
			{
				"x": -1.4589201422,
				"y": -3.3906354849,
				"z": -0.1495472295,
				"element": "H" 
			},
			{
				"x": -0.6964473129,
				"y": -3.7559024487,
				"z": 2.2212011836,
				"element": "H" 
			},
			{
				"x": -0.3964354175,
				"y": 0.8599239628,
				"z": -2.3422775551,
				"element": "H" 
			},
			{
				"x": -2.0198523619,
				"y": 1.199464103,
				"z": -1.7674329619,
				"element": "H" 
			},
			{
				"x": -1.1316035034,
				"y": 1.8380642658,
				"z": 0.3586706756,
				"element": "H" 
			},
			{
				"x": 0.488773453,
				"y": 1.4989582096,
				"z": -0.2150133025,
				"element": "H" 
			}
		],
		 "valence_orbital": [ 
			{
				"type": "occ",
				"energy": -0.33454,
				"method": "rhf"
			},
			{
				"type": "occ",
				"energy": -0.31861,
				"method": "rhf"
			},
			{
				"type": "occ",
				"energy": -0.26847,
				"method": "rhf"
			},
			{
				"type": "occ",
				"energy": -0.26095,
				"method": "rhf"
			},
			{
				"type": "occ",
				"energy": -0.25379,
				"method": "rhf"
			},
			{
				"type": "unocc",
				"energy": -0.07028,
				"method": "rhf"
			},
			{
				"type": "unocc",
				"energy": -0.03284,
				"method": "rhf"
			},
			{
				"type": "unocc",
				"energy": -0.00468,
				"method": "rhf"
			},
			{
				"type": "unocc",
				"energy": 0.02624,
				"method": "rhf"
			},
			{
				"type": "unocc",
				"energy": 0.05354,
				"method": "rhf"
			}
		],
		"cosmo_sigma_profile": { 
			"-0.025": 0.0,
			"-0.024": 0.0,
			"-0.023": 0.0,
			"-0.022": 0.0,
			"-0.021": 0.0,
			"-0.02": 0.0,
			"-0.019": 0.0,
			"-0.018": 0.0,
			"-0.017": 0.0,
			"-0.016": 0.0,
			"-0.015": 0.0,
			"-0.014": 0.0,
			"-0.013": 0.0,
			"-0.012": 0.0,
			"-0.011": 0.0,
			"-0.01": 0.0,
			"-0.009": 0.138948437893,
			"-0.008": 2.2192185989,
			"-0.007": 4.66420079583,
			"-0.006": 11.1408476553,
			"-0.005": 16.9288615853,
			"-0.004": 14.0760232613,
			"-0.003": 13.9572259326,
			"-0.002": 17.0274523077,
			"-0.001": 18.3072112561,
			"0.0": 23.9609602236,
			"0.001": 18.4480857861,
			"0.002": 15.7915477274,
			"0.003": 16.4931691177,
			"0.004": 12.910803514,
			"0.005": 4.63662076977,
			"0.006": 1.08859300243,
			"0.007": 1.58998111663,
			"0.008": 1.31651763873,
			"0.009": 1.86590221231,
			"0.01": 2.38083387765,
			"0.011": 3.38427103532,
			"0.012": 4.56736772854,
			"0.013": 1.49330855795,
			"0.014": 0.00460757199431,
			"0.015": 0.0,
			"0.016": 0.0,
			"0.017": 0.0,
			"0.018": 0.0,
			"0.019": 0.0,
			"0.02": 0.0,
			"0.021": 0.0,
			"0.022": 0.0,
			"0.023": 0.0,
			"0.024": 0.0,
			"0.025": 0.0
		}
	}
}
