{
	 "smiles": "COC(=O)CC(=O)C1=CC=CN=C1", 
	 "Tm": 311.15, 
	 "num_atms": 22, 
	 "gaussian": { 
		 "optdone": 1, 
		 "sigma_profile": "yes", 
		 "theory": "DFT", 
		 "functional": "B3LYP", 
		 "basiset": "6-31G**", 
		 "properties": { 
			 "R2extent": 3177.6342, 
			 "electric_dipole_moment_norm": 1.32594172572, 
			 "electric_quadrupole_moment_norm": 15.7622026437, 
			 "total_energy": -628.800191579, 
			 "HOMO_LUMO_gap": 0.1818, 
			 "cosmo_polarized_energy": -12.56, 
			 "cosmo_cavitation_energy": 27.15, 
			 "cosmo_dispersion_energy": -19.26, 
			 "cosmo_repulsion_energy": 1.53, 
			 "cosmo_total_nonelectrostatic_energy": 9.43, 
			 "SMD_solvation_energy": 5.34 
		},
		"coords": [
			{
				"x": -2.6291349831,
				"y": -1.971486912,
				"z": 1.2845132672,
				"element": "C" 
			},
			{
				"x": -1.9411174989,
				"y": -1.0832351067,
				"z": 0.3842469761,
				"element": "O" 
			},
			{
				"x": -0.6016574108,
				"y": -1.2102818168,
				"z": 0.3577134551,
				"element": "C" 
			},
			{
				"x": 0.0178373326,
				"y": -2.011003506,
				"z": 1.0244842625,
				"element": "O" 
			},
			{
				"x": 0.0162546219,
				"y": -0.211066436,
				"z": -0.6100079746,
				"element": "C" 
			},
			{
				"x": -0.1171859926,
				"y": 1.2464951517,
				"z": -0.141689746,
				"element": "C" 
			},
			{
				"x": -0.848625797,
				"y": 2.0125348422,
				"z": -0.745154169,
				"element": "O" 
			},
			{
				"x": 0.677493714,
				"y": 1.7120553359,
				"z": 1.0364240061,
				"element": "C" 
			},
			{
				"x": 0.561671434,
				"y": 3.05467777,
				"z": 1.4284899484,
				"element": "C" 
			},
			{
				"x": 1.3056890925,
				"y": 3.5065827537,
				"z": 2.5093875489,
				"element": "C" 
			},
			{
				"x": 2.1443756035,
				"y": 2.5979037668,
				"z": 3.1635079833,
				"element": "C" 
			},
			{
				"x": 2.2691385103,
				"y": 1.3130399698,
				"z": 2.8118181549,
				"element": "N" 
			},
			{
				"x": 1.5463436244,
				"y": 0.8867481462,
				"z": 1.7683886693,
				"element": "C" 
			},
			{
				"x": -3.6847592885,
				"y": -1.7176718362,
				"z": 1.1948484377,
				"element": "H" 
			},
			{
				"x": -2.2811010629,
				"y": -1.8226908095,
				"z": 2.3093630244,
				"element": "H" 
			},
			{
				"x": -2.4576120551,
				"y": -3.0122623326,
				"z": 0.9995216128,
				"element": "H" 
			},
			{
				"x": -0.5040119886,
				"y": -0.2693863689,
				"z": -1.5679475312,
				"element": "H" 
			},
			{
				"x": 1.0657949272,
				"y": -0.484026716,
				"z": -0.7396575736,
				"element": "H" 
			},
			{
				"x": -0.1065878162,
				"y": 3.7045081551,
				"z": 0.8729086757,
				"element": "H" 
			},
			{
				"x": 1.2460693441,
				"y": 4.5372437811,
				"z": 2.8444777964,
				"element": "H" 
			},
			{
				"x": 2.7448503354,
				"y": 2.9199976404,
				"z": 4.0127783553,
				"element": "H" 
			},
			{
				"x": 1.6581753539,
				"y": -0.1658754722,
				"z": 1.5203848202,
				"element": "H" 
			}
		],
		 "valence_orbital": [ 
			{
				"type": "occ",
				"energy": -0.29642,
				"method": "rhf"
			},
			{
				"type": "occ",
				"energy": -0.28961,
				"method": "rhf"
			},
			{
				"type": "occ",
				"energy": -0.27572,
				"method": "rhf"
			},
			{
				"type": "occ",
				"energy": -0.27154,
				"method": "rhf"
			},
			{
				"type": "occ",
				"energy": -0.25542,
				"method": "rhf"
			},
			{
				"type": "unocc",
				"energy": -0.07362,
				"method": "rhf"
			},
			{
				"type": "unocc",
				"energy": -0.03193,
				"method": "rhf"
			},
			{
				"type": "unocc",
				"energy": -0.00394,
				"method": "rhf"
			},
			{
				"type": "unocc",
				"energy": 0.02549,
				"method": "rhf"
			},
			{
				"type": "unocc",
				"energy": 0.09611,
				"method": "rhf"
			}
		],
		"cosmo_sigma_profile": { 
			"-0.025": 0.0,
			"-0.024": 0.0,
			"-0.023": 0.0,
			"-0.022": 0.0,
			"-0.021": 0.0,
			"-0.02": 0.0,
			"-0.019": 0.0,
			"-0.018": 0.0,
			"-0.017": 0.0,
			"-0.016": 0.0,
			"-0.015": 0.0,
			"-0.014": 0.0,
			"-0.013": 0.0,
			"-0.012": 0.0,
			"-0.011": 0.0,
			"-0.01": 0.0,
			"-0.009": 0.204591403485,
			"-0.008": 4.75093904358,
			"-0.007": 12.0404532003,
			"-0.006": 17.2870780529,
			"-0.005": 19.9037805658,
			"-0.004": 19.846437414,
			"-0.003": 15.3758249817,
			"-0.002": 12.6901046192,
			"-0.001": 13.3759556648,
			"0.0": 18.512045971,
			"0.001": 15.4705793023,
			"0.002": 7.86048148448,
			"0.003": 7.17324223273,
			"0.004": 6.77578164908,
			"0.005": 3.97741912459,
			"0.006": 6.13749008947,
			"0.007": 5.49090908894,
			"0.008": 4.62176396871,
			"0.009": 4.46704633739,
			"0.01": 6.71232076913,
			"0.011": 8.58233089818,
			"0.012": 2.91907505069,
			"0.013": 0.412097627709,
			"0.014": 1.23389694949,
			"0.015": 0.684681704522,
			"0.016": 0.558014624885,
			"0.017": 0.0,
			"0.018": 0.0,
			"0.019": 0.0,
			"0.02": 0.0,
			"0.021": 0.0,
			"0.022": 0.0,
			"0.023": 0.0,
			"0.024": 0.0,
			"0.025": 0.0
		}
	}
}
