{
	 "smiles": "CC(C)(C)C1=CC(=CC(=C1O)N(=O)=O)N(=O)=O", 
	 "Tm": 399.15, 
	 "num_atms": 29, 
	 "gaussian": { 
		 "optdone": 1, 
		 "sigma_profile": "yes", 
		 "theory": "DFT", 
		 "functional": "B3LYP", 
		 "basiset": "6-31G**", 
		 "properties": { 
			 "R2extent": 5366.8872, 
			 "electric_dipole_moment_norm": 7.23096432504, 
			 "electric_quadrupole_moment_norm": 19.5983401999, 
			 "total_energy": -873.71199478, 
			 "HOMO_LUMO_gap": 0.17276, 
			 "cosmo_polarized_energy": -16.36, 
			 "cosmo_cavitation_energy": 32.78, 
			 "cosmo_dispersion_energy": -23.18, 
			 "cosmo_repulsion_energy": 1.78, 
			 "cosmo_total_nonelectrostatic_energy": 11.38, 
			 "SMD_solvation_energy": 10.54 
		},
		"coords": [
			{
				"x": -1.3801005135,
				"y": -0.2342916642,
				"z": 1.5473965502,
				"element": "C" 
			},
			{
				"x": -1.4888797427,
				"y": -0.8620014696,
				"z": 0.1418892408,
				"element": "C" 
			},
			{
				"x": -1.5527451762,
				"y": -2.3995134024,
				"z": 0.3492237672,
				"element": "C" 
			},
			{
				"x": -2.8070517828,
				"y": -0.3237000796,
				"z": -0.4783549066,
				"element": "C" 
			},
			{
				"x": -0.27653104,
				"y": -0.4836714506,
				"z": -0.7432615908,
				"element": "C" 
			},
			{
				"x": 0.7285347543,
				"y": 0.3526051276,
				"z": -0.2604841898,
				"element": "C" 
			},
			{
				"x": 1.8215326643,
				"y": 0.7152731241,
				"z": -1.0474005781,
				"element": "C" 
			},
			{
				"x": 1.965314844,
				"y": 0.2581013618,
				"z": -2.345778115,
				"element": "C" 
			},
			{
				"x": 0.9912061627,
				"y": -0.597116974,
				"z": -2.8399136487,
				"element": "C" 
			},
			{
				"x": -0.1377185075,
				"y": -0.9703196559,
				"z": -2.0756946316,
				"element": "C" 
			},
			{
				"x": -1.0538955708,
				"y": -1.752154191,
				"z": -2.6768283516,
				"element": "O" 
			},
			{
				"x": 1.195156737,
				"y": -1.1014647239,
				"z": -4.2094172475,
				"element": "N" 
			},
			{
				"x": 0.8035354218,
				"y": -2.232302352,
				"z": -4.4753971167,
				"element": "O" 
			},
			{
				"x": 1.7846141012,
				"y": -0.3512807478,
				"z": -4.9879741893,
				"element": "O" 
			},
			{
				"x": 2.8417788453,
				"y": 1.6054482249,
				"z": -0.4848311054,
				"element": "N" 
			},
			{
				"x": 3.7972661713,
				"y": 1.8998190671,
				"z": -1.2011160651,
				"element": "O" 
			},
			{
				"x": 2.6777935375,
				"y": 2.00257812,
				"z": 0.6696932985,
				"element": "O" 
			},
			{
				"x": -0.4854303707,
				"y": -0.5719146907,
				"z": 2.0790929646,
				"element": "H" 
			},
			{
				"x": -1.3703325758,
				"y": 0.8591986177,
				"z": 1.5104174732,
				"element": "H" 
			},
			{
				"x": -2.2481425017,
				"y": -0.534552748,
				"z": 2.1416063961,
				"element": "H" 
			},
			{
				"x": -1.6375644501,
				"y": -2.9804923015,
				"z": -0.5742990014,
				"element": "H" 
			},
			{
				"x": -0.6503913899,
				"y": -2.7510533398,
				"z": 0.8582579283,
				"element": "H" 
			},
			{
				"x": -2.4151536611,
				"y": -2.6546929726,
				"z": 0.9730881497,
				"element": "H" 
			},
			{
				"x": -2.7708613303,
				"y": 0.766520299,
				"z": -0.5618449803,
				"element": "H" 
			},
			{
				"x": -3.6539238457,
				"y": -0.5878030651,
				"z": 0.162748219,
				"element": "H" 
			},
			{
				"x": -3.0341510916,
				"y": -0.7055778777,
				"z": -1.4795181731,
				"element": "H" 
			},
			{
				"x": 0.6903896231,
				"y": 0.7529539795,
				"z": 0.7419889845,
				"element": "H" 
			},
			{
				"x": 2.8050083788,
				"y": 0.5514975257,
				"z": -2.9607393552,
				"element": "H" 
			},
			{
				"x": -1.8032576908,
				"y": -1.8940917409,
				"z": -2.0870497256,
				"element": "H" 
			}
		],
		 "valence_orbital": [ 
			{
				"type": "occ",
				"energy": -0.31133,
				"method": "rhf"
			},
			{
				"type": "occ",
				"energy": -0.3041,
				"method": "rhf"
			},
			{
				"type": "occ",
				"energy": -0.29787,
				"method": "rhf"
			},
			{
				"type": "occ",
				"energy": -0.2852,
				"method": "rhf"
			},
			{
				"type": "occ",
				"energy": -0.26921,
				"method": "rhf"
			},
			{
				"type": "unocc",
				"energy": -0.09645,
				"method": "rhf"
			},
			{
				"type": "unocc",
				"energy": -0.08884,
				"method": "rhf"
			},
			{
				"type": "unocc",
				"energy": -0.03152,
				"method": "rhf"
			},
			{
				"type": "unocc",
				"energy": -0.00094,
				"method": "rhf"
			},
			{
				"type": "unocc",
				"energy": 0.03119,
				"method": "rhf"
			}
		],
		"cosmo_sigma_profile": { 
			"-0.025": 0.0,
			"-0.024": 0.0,
			"-0.023": 0.0,
			"-0.022": 0.0,
			"-0.021": 0.0,
			"-0.02": 0.0,
			"-0.019": 0.0,
			"-0.018": 0.116739550823,
			"-0.017": 0.353409837237,
			"-0.016": 0.545522228692,
			"-0.015": 0.56915234038,
			"-0.014": 0.792945032581,
			"-0.013": 0.712428422945,
			"-0.012": 0.623438414205,
			"-0.011": 0.963525000875,
			"-0.01": 0.762832623343,
			"-0.009": 0.908501462602,
			"-0.008": 1.89570711223,
			"-0.007": 4.48617166122,
			"-0.006": 9.00076085416,
			"-0.005": 11.5526923719,
			"-0.004": 29.7413616128,
			"-0.003": 29.9503379556,
			"-0.002": 32.9838374696,
			"-0.001": 27.012400667,
			"0.0": 19.6359009574,
			"0.001": 7.31520911525,
			"0.002": 5.47738505792,
			"0.003": 4.61019328409,
			"0.004": 5.50950052488,
			"0.005": 6.6795514534,
			"0.006": 8.11494100996,
			"0.007": 18.0026086767,
			"0.008": 15.1006091555,
			"0.009": 10.1074424743,
			"0.01": 4.8208107057,
			"0.011": 1.12285937026,
			"0.012": 0.176082299406,
			"0.013": 0.0,
			"0.014": 0.0,
			"0.015": 0.0,
			"0.016": 0.0,
			"0.017": 0.0,
			"0.018": 0.0,
			"0.019": 0.0,
			"0.02": 0.0,
			"0.021": 0.0,
			"0.022": 0.0,
			"0.023": 0.0,
			"0.024": 0.0,
			"0.025": 0.0
		}
	}
}
