{
	 "smiles": "CN(C)C(=O)SC1=CN(N=C1)C1=C(F)C=CC=C1", 
	 "Tm": 339.15, 
	 "num_atms": 30, 
	 "gaussian": { 
		 "optdone": 1, 
		 "sigma_profile": "yes", 
		 "theory": "DFT", 
		 "functional": "B3LYP", 
		 "basiset": "6-31G**", 
		 "properties": { 
			 "R2extent": 7453.756, 
			 "electric_dipole_moment_norm": 3.27683252853, 
			 "electric_quadrupole_moment_norm": 27.6778709642, 
			 "total_energy": -1201.9850718, 
			 "HOMO_LUMO_gap": 0.19706, 
			 "cosmo_polarized_energy": -15.2, 
			 "cosmo_cavitation_energy": 36.81, 
			 "cosmo_dispersion_energy": -26.59, 
			 "cosmo_repulsion_energy": 2.0, 
			 "cosmo_total_nonelectrostatic_energy": 12.22, 
			 "SMD_solvation_energy": 6.97 
		},
		"coords": [
			{
				"x": 2.1574948443,
				"y": -2.7642242404,
				"z": -3.0512099682,
				"element": "C" 
			},
			{
				"x": 1.9765148883,
				"y": -1.3191821212,
				"z": -3.1518900743,
				"element": "N" 
			},
			{
				"x": 2.5243315967,
				"y": -0.683472204,
				"z": -4.3408009911,
				"element": "C" 
			},
			{
				"x": 1.1361154204,
				"y": -0.7124929326,
				"z": -2.260358998,
				"element": "C" 
			},
			{
				"x": 0.6032623756,
				"y": -1.2730534913,
				"z": -1.3228335086,
				"element": "O" 
			},
			{
				"x": 0.9025593561,
				"y": 1.1015256553,
				"z": -2.5587541338,
				"element": "S" 
			},
			{
				"x": -0.3173071421,
				"y": 1.4565660374,
				"z": -1.342977893,
				"element": "C" 
			},
			{
				"x": -0.203158704,
				"y": 1.3978477998,
				"z": 0.0335818848,
				"element": "C" 
			},
			{
				"x": -1.4057789704,
				"y": 1.7891799455,
				"z": 0.539329922,
				"element": "N" 
			},
			{
				"x": -2.2989041196,
				"y": 2.1171273849,
				"z": -0.4384282245,
				"element": "N" 
			},
			{
				"x": -1.644083883,
				"y": 1.906508502,
				"z": -1.5712232975,
				"element": "C" 
			},
			{
				"x": -1.7512791091,
				"y": 1.9126133228,
				"z": 1.9085100193,
				"element": "C" 
			},
			{
				"x": -2.9630158441,
				"y": 1.4042488476,
				"z": 2.3941260791,
				"element": "C" 
			},
			{
				"x": -3.8073232635,
				"y": 0.7792866891,
				"z": 1.5625490561,
				"element": "F" 
			},
			{
				"x": -3.3023321845,
				"y": 1.5169273153,
				"z": 3.7369161908,
				"element": "C" 
			},
			{
				"x": -2.4151564093,
				"y": 2.1294905728,
				"z": 4.6225714724,
				"element": "C" 
			},
			{
				"x": -1.1980171609,
				"y": 2.6308594978,
				"z": 4.1584133538,
				"element": "C" 
			},
			{
				"x": -0.8747393605,
				"y": 2.531140389,
				"z": 2.8058332466,
				"element": "C" 
			},
			{
				"x": 1.725201507,
				"y": -3.1044616915,
				"z": -2.1122259973,
				"element": "H" 
			},
			{
				"x": 1.661500477,
				"y": -3.2802444099,
				"z": -3.8837555186,
				"element": "H" 
			},
			{
				"x": 3.2251998692,
				"y": -3.009351775,
				"z": -3.0767446152,
				"element": "H" 
			},
			{
				"x": 3.5195243586,
				"y": -1.0959071804,
				"z": -4.534463326,
				"element": "H" 
			},
			{
				"x": 2.6352862135,
				"y": 0.3918104951,
				"z": -4.1990571173,
				"element": "H" 
			},
			{
				"x": 1.8984501613,
				"y": -0.8594536504,
				"z": -5.2260052286,
				"element": "H" 
			},
			{
				"x": 0.6054799053,
				"y": 1.0653001493,
				"z": 0.6650066622,
				"element": "H" 
			},
			{
				"x": -2.128444394,
				"y": 2.0884053694,
				"z": -2.5212061923,
				"element": "H" 
			},
			{
				"x": -4.2513376117,
				"y": 1.1084928338,
				"z": 4.0669102069,
				"element": "H" 
			},
			{
				"x": -2.6780795743,
				"y": 2.2137217781,
				"z": 5.6723420321,
				"element": "H" 
			},
			{
				"x": -0.5073163868,
				"y": 3.1139744179,
				"z": 4.8418216077,
				"element": "H" 
			},
			{
				"x": 0.0536531448,
				"y": 2.9457166938,
				"z": 2.4264233508,
				"element": "H" 
			}
		],
		 "valence_orbital": [ 
			{
				"type": "occ",
				"energy": -0.25776,
				"method": "rhf"
			},
			{
				"type": "occ",
				"energy": -0.25491,
				"method": "rhf"
			},
			{
				"type": "occ",
				"energy": -0.24917,
				"method": "rhf"
			},
			{
				"type": "occ",
				"energy": -0.24133,
				"method": "rhf"
			},
			{
				"type": "occ",
				"energy": -0.22496,
				"method": "rhf"
			},
			{
				"type": "unocc",
				"energy": -0.0279,
				"method": "rhf"
			},
			{
				"type": "unocc",
				"energy": -0.00964,
				"method": "rhf"
			},
			{
				"type": "unocc",
				"energy": 0.01683,
				"method": "rhf"
			},
			{
				"type": "unocc",
				"energy": 0.02773,
				"method": "rhf"
			},
			{
				"type": "unocc",
				"energy": 0.03568,
				"method": "rhf"
			}
		],
		"cosmo_sigma_profile": { 
			"-0.025": 0.0,
			"-0.024": 0.0,
			"-0.023": 0.0,
			"-0.022": 0.0,
			"-0.021": 0.0,
			"-0.02": 0.0,
			"-0.019": 0.0,
			"-0.018": 0.0,
			"-0.017": 0.0,
			"-0.016": 0.0,
			"-0.015": 0.0,
			"-0.014": 0.0,
			"-0.013": 0.0,
			"-0.012": 0.0,
			"-0.011": 0.0,
			"-0.01": 0.530395202507,
			"-0.009": 1.70102555087,
			"-0.008": 4.99793192621,
			"-0.007": 10.0538605749,
			"-0.006": 16.3919803185,
			"-0.005": 24.269717413,
			"-0.004": 22.3689309543,
			"-0.003": 27.1158816514,
			"-0.002": 20.9609786543,
			"-0.001": 17.6851365489,
			"0.0": 19.8914801252,
			"0.001": 23.2318700001,
			"0.002": 21.6826416788,
			"0.003": 24.2583033366,
			"0.004": 18.2505449665,
			"0.005": 7.54334262888,
			"0.006": 6.302593233,
			"0.007": 6.55767600104,
			"0.008": 2.72875439085,
			"0.009": 3.74914384445,
			"0.01": 3.65477474695,
			"0.011": 3.62130135896,
			"0.012": 5.44673792594,
			"0.013": 2.67845194652,
			"0.014": 0.93988338986,
			"0.015": 0.0912590644497,
			"0.016": 0.0,
			"0.017": 0.0,
			"0.018": 0.0,
			"0.019": 0.0,
			"0.02": 0.0,
			"0.021": 0.0,
			"0.022": 0.0,
			"0.023": 0.0,
			"0.024": 0.0,
			"0.025": 0.0
		}
	}
}
