{
	 "smiles": "CC1C2CC3OCC45CCCC(C)(CO)C4CC4OC(C)(C)OC2C4(C35)C1=O", 
	 "Tm": 493.15, 
	 "num_atms": 62, 
	 "gaussian": { 
		 "optdone": 1, 
		 "sigma_profile": "yes", 
		 "theory": "DFT", 
		 "functional": "B3LYP", 
		 "basiset": "6-31G**", 
		 "properties": { 
			 "R2extent": 9637.3072, 
			 "electric_dipole_moment_norm": 0.368559438897, 
			 "electric_quadrupole_moment_norm": 15.691256507, 
			 "total_energy": -1273.04110606, 
			 "HOMO_LUMO_gap": 0.2157, 
			 "cosmo_polarized_energy": -15.25, 
			 "cosmo_cavitation_energy": 51.96, 
			 "cosmo_dispersion_energy": -35.38, 
			 "cosmo_repulsion_energy": 2.59, 
			 "cosmo_total_nonelectrostatic_energy": 19.17, 
			 "SMD_solvation_energy": 7.99 
		},
		"coords": [
			{
				"x": 1.4841247584,
				"y": 2.2898885676,
				"z": 4.0701990758,
				"element": "C" 
			},
			{
				"x": 1.9317001581,
				"y": 1.3681303086,
				"z": 2.9371099506,
				"element": "C" 
			},
			{
				"x": 2.4396890471,
				"y": 1.9653029194,
				"z": 1.5984250801,
				"element": "C" 
			},
			{
				"x": 1.5069185198,
				"y": 3.0538928295,
				"z": 1.0046771601,
				"element": "C" 
			},
			{
				"x": 0.4018212277,
				"y": 2.5265383811,
				"z": 0.0703659442,
				"element": "C" 
			},
			{
				"x": 0.9460840277,
				"y": 2.4731305827,
				"z": -1.2516525546,
				"element": "O" 
			},
			{
				"x": 0.0854873497,
				"y": 1.6677310047,
				"z": -2.0513674351,
				"element": "C" 
			},
			{
				"x": -0.6911138849,
				"y": 0.6920350675,
				"z": -1.1040984338,
				"element": "C" 
			},
			{
				"x": -2.2026877817,
				"y": 1.026614568,
				"z": -1.1322465249,
				"element": "C" 
			},
			{
				"x": -2.8510770618,
				"y": 0.7950486923,
				"z": -2.5173367531,
				"element": "C" 
			},
			{
				"x": -2.0756818528,
				"y": -0.228382179,
				"z": -3.3669211109,
				"element": "C" 
			},
			{
				"x": -1.5008085402,
				"y": -1.390056884,
				"z": -2.5277883743,
				"element": "C" 
			},
			{
				"x": -0.766807468,
				"y": -2.3756881854,
				"z": -3.4594391587,
				"element": "C" 
			},
			{
				"x": -2.6644156569,
				"y": -2.1559987317,
				"z": -1.853299927,
				"element": "C" 
			},
			{
				"x": -3.6190950994,
				"y": -2.5010864433,
				"z": -2.8561059737,
				"element": "O" 
			},
			{
				"x": -0.4678583541,
				"y": -0.8143514507,
				"z": -1.4806046633,
				"element": "C" 
			},
			{
				"x": -0.3224129612,
				"y": -1.6864590359,
				"z": -0.2215746995,
				"element": "C" 
			},
			{
				"x": 0.9205567909,
				"y": -1.3181246007,
				"z": 0.5751304107,
				"element": "C" 
			},
			{
				"x": 2.0504472005,
				"y": -1.6539213798,
				"z": -0.2434856901,
				"element": "O" 
			},
			{
				"x": 3.333555619,
				"y": -1.4340997505,
				"z": 0.3347929611,
				"element": "C" 
			},
			{
				"x": 4.3024370962,
				"y": -1.3187034546,
				"z": -0.8416937109,
				"element": "C" 
			},
			{
				"x": 3.7185547415,
				"y": -2.5595835817,
				"z": 1.2956646977,
				"element": "C" 
			},
			{
				"x": 3.3454870349,
				"y": -0.2274116729,
				"z": 1.1094423133,
				"element": "O" 
			},
			{
				"x": 2.3944001918,
				"y": 0.7419810644,
				"z": 0.6667469083,
				"element": "C" 
			},
			{
				"x": 0.9801215209,
				"y": 0.1867150004,
				"z": 0.9425791871,
				"element": "C" 
			},
			{
				"x": -0.1302004967,
				"y": 1.0901121275,
				"z": 0.3112043792,
				"element": "C" 
			},
			{
				"x": 0.8567268734,
				"y": 0.3891832281,
				"z": 2.4680071304,
				"element": "C" 
			},
			{
				"x": 0.0148519995,
				"y": -0.1397275268,
				"z": 3.165990517,
				"element": "O" 
			},
			{
				"x": 2.3072540367,
				"y": 2.9252717654,
				"z": 4.4121380492,
				"element": "H" 
			},
			{
				"x": 1.1393464683,
				"y": 1.6866628028,
				"z": 4.9144560176,
				"element": "H" 
			},
			{
				"x": 0.6527004447,
				"y": 2.938335639,
				"z": 3.7780470309,
				"element": "H" 
			},
			{
				"x": 2.741507401,
				"y": 0.726658721,
				"z": 3.3121124656,
				"element": "H" 
			},
			{
				"x": 3.4562926445,
				"y": 2.3557451613,
				"z": 1.7009222719,
				"element": "H" 
			},
			{
				"x": 1.0540449051,
				"y": 3.6413546783,
				"z": 1.808526489,
				"element": "H" 
			},
			{
				"x": 2.0922431791,
				"y": 3.7578859542,
				"z": 0.4051744498,
				"element": "H" 
			},
			{
				"x": -0.444447945,
				"y": 3.2333603325,
				"z": 0.0831555642,
				"element": "H" 
			},
			{
				"x": -0.6109341112,
				"y": 2.3134568001,
				"z": -2.606248092,
				"element": "H" 
			},
			{
				"x": 0.7129590246,
				"y": 1.1453354598,
				"z": -2.779860495,
				"element": "H" 
			},
			{
				"x": -2.3572563847,
				"y": 2.0641690575,
				"z": -0.8121349954,
				"element": "H" 
			},
			{
				"x": -2.7010993997,
				"y": 0.4081660954,
				"z": -0.3767274404,
				"element": "H" 
			},
			{
				"x": -3.8806104788,
				"y": 0.447459696,
				"z": -2.3786721498,
				"element": "H" 
			},
			{
				"x": -2.9245163344,
				"y": 1.7388676265,
				"z": -3.0690322679,
				"element": "H" 
			},
			{
				"x": -1.2419376932,
				"y": 0.2647015385,
				"z": -3.882419291,
				"element": "H" 
			},
			{
				"x": -2.7260708244,
				"y": -0.6313346945,
				"z": -4.1476359966,
				"element": "H" 
			},
			{
				"x": -0.0229348863,
				"y": -1.8533423071,
				"z": -4.0706507432,
				"element": "H" 
			},
			{
				"x": -0.2405965771,
				"y": -3.1484034176,
				"z": -2.8869264382,
				"element": "H" 
			},
			{
				"x": -1.4759509862,
				"y": -2.8717850428,
				"z": -4.1272946015,
				"element": "H" 
			},
			{
				"x": -3.1375459421,
				"y": -1.5470330157,
				"z": -1.0706285958,
				"element": "H" 
			},
			{
				"x": -2.2753236527,
				"y": -3.0626962522,
				"z": -1.3692454743,
				"element": "H" 
			},
			{
				"x": -4.2899544722,
				"y": -3.0608933003,
				"z": -2.4475666872,
				"element": "H" 
			},
			{
				"x": 0.507064939,
				"y": -0.8680263491,
				"z": -1.9765056619,
				"element": "H" 
			},
			{
				"x": -0.239218976,
				"y": -2.7435135412,
				"z": -0.4935188358,
				"element": "H" 
			},
			{
				"x": -1.1888687998,
				"y": -1.5866753152,
				"z": 0.4435466392,
				"element": "H" 
			},
			{
				"x": 0.9368753427,
				"y": -1.9145537883,
				"z": 1.4961579399,
				"element": "H" 
			},
			{
				"x": 5.3201859737,
				"y": -1.1662259797,
				"z": -0.4738026939,
				"element": "H" 
			},
			{
				"x": 4.0261278471,
				"y": -0.4741627059,
				"z": -1.478120582,
				"element": "H" 
			},
			{
				"x": 4.2739391345,
				"y": -2.2283628235,
				"z": -1.4476817829,
				"element": "H" 
			},
			{
				"x": 2.9889656288,
				"y": -2.6446110918,
				"z": 2.1050192782,
				"element": "H" 
			},
			{
				"x": 4.6951573041,
				"y": -2.3527410074,
				"z": 1.741589038,
				"element": "H" 
			},
			{
				"x": 3.766821671,
				"y": -3.5111682976,
				"z": 0.7600034261,
				"element": "H" 
			},
			{
				"x": 2.561457347,
				"y": 1.012481645,
				"z": -0.3779928725,
				"element": "H" 
			},
			{
				"x": -0.9704808276,
				"y": 1.107806492,
				"z": 1.0128963321,
				"element": "H" 
			}
		],
		 "valence_orbital": [ 
			{
				"type": "occ",
				"energy": -0.27098,
				"method": "rhf"
			},
			{
				"type": "occ",
				"energy": -0.26353,
				"method": "rhf"
			},
			{
				"type": "occ",
				"energy": -0.25451,
				"method": "rhf"
			},
			{
				"type": "occ",
				"energy": -0.23915,
				"method": "rhf"
			},
			{
				"type": "occ",
				"energy": -0.23279,
				"method": "rhf"
			},
			{
				"type": "unocc",
				"energy": -0.01709,
				"method": "rhf"
			},
			{
				"type": "unocc",
				"energy": 0.06436,
				"method": "rhf"
			},
			{
				"type": "unocc",
				"energy": 0.07114,
				"method": "rhf"
			},
			{
				"type": "unocc",
				"energy": 0.08242,
				"method": "rhf"
			},
			{
				"type": "unocc",
				"energy": 0.08922,
				"method": "rhf"
			}
		],
		"cosmo_sigma_profile": { 
			"-0.025": 0.0,
			"-0.024": 0.0,
			"-0.023": 0.0,
			"-0.022": 0.0,
			"-0.021": 0.0,
			"-0.02": 0.0,
			"-0.019": 0.0,
			"-0.018": 0.0,
			"-0.017": 0.0,
			"-0.016": 0.292779868962,
			"-0.015": 0.960157381453,
			"-0.014": 1.0133344337,
			"-0.013": 0.99883432057,
			"-0.012": 0.636728202482,
			"-0.011": 1.04509148773,
			"-0.01": 0.426419919018,
			"-0.009": 0.452534992659,
			"-0.008": 0.921441014904,
			"-0.007": 1.27233390395,
			"-0.006": 2.45643828203,
			"-0.005": 8.13984447898,
			"-0.004": 37.9661486515,
			"-0.003": 59.1181234844,
			"-0.002": 55.0349559678,
			"-0.001": 50.8327921605,
			"0.0": 43.054614999,
			"0.001": 36.8058054353,
			"0.002": 21.4348677559,
			"0.003": 10.303381906,
			"0.004": 7.75725694804,
			"0.005": 7.83397185667,
			"0.006": 7.65373929314,
			"0.007": 6.21700613805,
			"0.008": 6.87441308516,
			"0.009": 6.64185013479,
			"0.01": 5.5445853161,
			"0.011": 6.75996991693,
			"0.012": 6.79991263486,
			"0.013": 3.05810609307,
			"0.014": 0.227939232356,
			"0.015": 0.0,
			"0.016": 0.0,
			"0.017": 0.0,
			"0.018": 0.0,
			"0.019": 0.0,
			"0.02": 0.0,
			"0.021": 0.0,
			"0.022": 0.0,
			"0.023": 0.0,
			"0.024": 0.0,
			"0.025": 0.0
		}
	}
}
