{
	 "smiles": "OC(=O)C1CCCCC1C1=NC2=C(S1)C=CC=C2", 
	 "Tm": 442.15, 
	 "num_atms": 33, 
	 "gaussian": { 
		 "optdone": 1, 
		 "sigma_profile": "yes", 
		 "theory": "DFT", 
		 "functional": "B3LYP", 
		 "basiset": "6-31G**", 
		 "properties": { 
			 "R2extent": 5690.6168, 
			 "electric_dipole_moment_norm": 6.16665836981, 
			 "electric_quadrupole_moment_norm": 18.5896832396, 
			 "total_energy": -1145.95503667, 
			 "HOMO_LUMO_gap": 0.19418, 
			 "cosmo_polarized_energy": -13.31, 
			 "cosmo_cavitation_energy": 35.42, 
			 "cosmo_dispersion_energy": -26.52, 
			 "cosmo_repulsion_energy": 1.96, 
			 "cosmo_total_nonelectrostatic_energy": 10.86, 
			 "SMD_solvation_energy": 5.1 
		},
		"coords": [
			{
				"x": -0.0818357368,
				"y": -0.7642928089,
				"z": -2.3866155572,
				"element": "O" 
			},
			{
				"x": 1.1939620874,
				"y": -0.4116190703,
				"z": -2.1804162304,
				"element": "C" 
			},
			{
				"x": 2.0468751192,
				"y": -0.6401093313,
				"z": -3.0114335968,
				"element": "O" 
			},
			{
				"x": 1.498087902,
				"y": 0.2947301106,
				"z": -0.8408099543,
				"element": "C" 
			},
			{
				"x": 2.9771320625,
				"y": 0.7289771208,
				"z": -0.7809885304,
				"element": "C" 
			},
			{
				"x": 3.8864729584,
				"y": -0.418636841,
				"z": -0.3275126969,
				"element": "C" 
			},
			{
				"x": 3.5363628129,
				"y": -0.8894616208,
				"z": 1.1068514732,
				"element": "C" 
			},
			{
				"x": 2.1202903012,
				"y": -0.4595612464,
				"z": 1.5373267711,
				"element": "C" 
			},
			{
				"x": 1.1027502215,
				"y": -0.6108523375,
				"z": 0.3912721014,
				"element": "C" 
			},
			{
				"x": -0.3237392279,
				"y": -0.3587936364,
				"z": 0.8277330869,
				"element": "C" 
			},
			{
				"x": -1.2987771808,
				"y": -0.1716829881,
				"z": -0.0112526494,
				"element": "N" 
			},
			{
				"x": -2.5215725885,
				"y": 0.0072837194,
				"z": 0.6186914262,
				"element": "C" 
			},
			{
				"x": -2.4650167979,
				"y": -0.045030194,
				"z": 2.0295915266,
				"element": "C" 
			},
			{
				"x": -0.8100223014,
				"y": -0.3287142514,
				"z": 2.5324248357,
				"element": "S" 
			},
			{
				"x": -3.6122235237,
				"y": 0.1209304874,
				"z": 2.8100359172,
				"element": "C" 
			},
			{
				"x": -4.8213779567,
				"y": 0.3375927686,
				"z": 2.1550041433,
				"element": "C" 
			},
			{
				"x": -4.8878889087,
				"y": 0.3893901401,
				"z": 0.7511964176,
				"element": "C" 
			},
			{
				"x": -3.7474492447,
				"y": 0.2265911388,
				"z": -0.0253000864,
				"element": "C" 
			},
			{
				"x": -0.6577043545,
				"y": -0.4900897754,
				"z": -1.6264362988,
				"element": "H" 
			},
			{
				"x": 0.8644323126,
				"y": 1.1900896359,
				"z": -0.810378331,
				"element": "H" 
			},
			{
				"x": 3.2727554813,
				"y": 1.0707616219,
				"z": -1.7752082439,
				"element": "H" 
			},
			{
				"x": 3.0779289718,
				"y": 1.5817007046,
				"z": -0.0986571739,
				"element": "H" 
			},
			{
				"x": 3.7704913176,
				"y": -1.2404036738,
				"z": -1.0411439591,
				"element": "H" 
			},
			{
				"x": 4.9360980257,
				"y": -0.111656618,
				"z": -0.3804774587,
				"element": "H" 
			},
			{
				"x": 3.619842818,
				"y": -1.980815545,
				"z": 1.1709203937,
				"element": "H" 
			},
			{
				"x": 4.2524676932,
				"y": -0.4858007108,
				"z": 1.8311574931,
				"element": "H" 
			},
			{
				"x": 2.1256145585,
				"y": 0.5845981257,
				"z": 1.8719132522,
				"element": "H" 
			},
			{
				"x": 1.8065572399,
				"y": -1.0604816694,
				"z": 2.3990383205,
				"element": "H" 
			},
			{
				"x": 1.1337807709,
				"y": -1.663047275,
				"z": 0.0690655626,
				"element": "H" 
			},
			{
				"x": -3.5656066676,
				"y": 0.0812988198,
				"z": 3.8934166701,
				"element": "H" 
			},
			{
				"x": -5.7269733206,
				"y": 0.4680973429,
				"z": 2.7394535042,
				"element": "H" 
			},
			{
				"x": -5.8452114835,
				"y": 0.5590435157,
				"z": 0.2683280881,
				"element": "H" 
			},
			{
				"x": -3.7861033611,
				"y": 0.2642643416,
				"z": -1.1089902163,
				"element": "H" 
			}
		],
		 "valence_orbital": [ 
			{
				"type": "occ",
				"energy": -0.29975,
				"method": "rhf"
			},
			{
				"type": "occ",
				"energy": -0.28818,
				"method": "rhf"
			},
			{
				"type": "occ",
				"energy": -0.25496,
				"method": "rhf"
			},
			{
				"type": "occ",
				"energy": -0.2519,
				"method": "rhf"
			},
			{
				"type": "occ",
				"energy": -0.24716,
				"method": "rhf"
			},
			{
				"type": "unocc",
				"energy": -0.05298,
				"method": "rhf"
			},
			{
				"type": "unocc",
				"energy": -0.02139,
				"method": "rhf"
			},
			{
				"type": "unocc",
				"energy": -0.00326,
				"method": "rhf"
			},
			{
				"type": "unocc",
				"energy": 0.01167,
				"method": "rhf"
			},
			{
				"type": "unocc",
				"energy": 0.02771,
				"method": "rhf"
			}
		],
		"cosmo_sigma_profile": { 
			"-0.025": 0.0,
			"-0.024": 0.0,
			"-0.023": 0.0,
			"-0.022": 0.0,
			"-0.021": 0.0,
			"-0.02": 0.0,
			"-0.019": 0.0,
			"-0.018": 0.0,
			"-0.017": 0.0,
			"-0.016": 0.0,
			"-0.015": 0.0,
			"-0.014": 0.0,
			"-0.013": 0.0,
			"-0.012": 0.0,
			"-0.011": 0.0,
			"-0.01": 0.0,
			"-0.009": 0.0,
			"-0.008": 0.837414770061,
			"-0.007": 6.29795114308,
			"-0.006": 13.5323025806,
			"-0.005": 19.9078194472,
			"-0.004": 21.9628694128,
			"-0.003": 25.5829769105,
			"-0.002": 32.5703581487,
			"-0.001": 31.0861719078,
			"0.0": 24.0491037193,
			"0.001": 24.6991097983,
			"0.002": 18.4845717192,
			"0.003": 16.5096026721,
			"0.004": 13.1237964358,
			"0.005": 4.35170656986,
			"0.006": 1.71501194796,
			"0.007": 2.78678412264,
			"0.008": 2.33807656316,
			"0.009": 2.95009819634,
			"0.01": 2.79582032754,
			"0.011": 4.26473435047,
			"0.012": 5.91168820639,
			"0.013": 4.53889946637,
			"0.014": 1.73956991663,
			"0.015": 0.0778618142227,
			"0.016": 0.0,
			"0.017": 0.0,
			"0.018": 0.0,
			"0.019": 0.0,
			"0.02": 0.0,
			"0.021": 0.0,
			"0.022": 0.0,
			"0.023": 0.0,
			"0.024": 0.0,
			"0.025": 0.0
		}
	}
}
