{
	 "smiles": "CCCCC1=CC2=CC=CC=C2C=C1", 
	 "Tm": 268.15, 
	 "num_atms": 30, 
	 "gaussian": { 
		 "optdone": 1, 
		 "sigma_profile": "yes", 
		 "theory": "DFT", 
		 "functional": "B3LYP", 
		 "basiset": "6-31G**", 
		 "properties": { 
			 "R2extent": 4257.3049, 
			 "electric_dipole_moment_norm": 0.358199734785, 
			 "electric_quadrupole_moment_norm": 6.14931551882, 
			 "total_energy": -543.162578628, 
			 "HOMO_LUMO_gap": 0.17655, 
			 "cosmo_polarized_energy": -4.51, 
			 "cosmo_cavitation_energy": 32.01, 
			 "cosmo_dispersion_energy": -22.74, 
			 "cosmo_repulsion_energy": 1.79, 
			 "cosmo_total_nonelectrostatic_energy": 11.05, 
			 "SMD_solvation_energy": 4.74 
		},
		"coords": [
			{
				"x": 2.7789584532,
				"y": -0.1905918307,
				"z": -1.0201934842,
				"element": "C" 
			},
			{
				"x": 2.0051049137,
				"y": 0.4404741372,
				"z": 0.1433928886,
				"element": "C" 
			},
			{
				"x": 1.261221109,
				"y": 1.7358697985,
				"z": -0.219176355,
				"element": "C" 
			},
			{
				"x": 0.0884518469,
				"y": 1.5666901501,
				"z": -1.2128316324,
				"element": "C" 
			},
			{
				"x": -1.0559236993,
				"y": 0.7309607449,
				"z": -0.6793082437,
				"element": "C" 
			},
			{
				"x": -1.3180873234,
				"y": -0.5363338863,
				"z": -1.1601874012,
				"element": "C" 
			},
			{
				"x": -2.3844109367,
				"y": -1.3281681732,
				"z": -0.6530731387,
				"element": "C" 
			},
			{
				"x": -2.6602784111,
				"y": -2.6331526413,
				"z": -1.1433010538,
				"element": "C" 
			},
			{
				"x": -3.7017827811,
				"y": -3.374563327,
				"z": -0.6309629575,
				"element": "C" 
			},
			{
				"x": -4.5192380659,
				"y": -2.8446859739,
				"z": 0.3974951576,
				"element": "C" 
			},
			{
				"x": -4.2782707195,
				"y": -1.5825306089,
				"z": 0.8933369829,
				"element": "C" 
			},
			{
				"x": -3.21150781,
				"y": -0.793452683,
				"z": 0.3866790984,
				"element": "C" 
			},
			{
				"x": -2.9311799515,
				"y": 0.5143644146,
				"z": 0.868180264,
				"element": "C" 
			},
			{
				"x": -1.8901549493,
				"y": 1.2492941956,
				"z": 0.3528565547,
				"element": "C" 
			},
			{
				"x": 2.1150492496,
				"y": -0.5040662445,
				"z": -1.8327051548,
				"element": "H" 
			},
			{
				"x": 3.3297160423,
				"y": -1.0776927372,
				"z": -0.6905956429,
				"element": "H" 
			},
			{
				"x": 3.5057187531,
				"y": 0.5142166477,
				"z": -1.4413169465,
				"element": "H" 
			},
			{
				"x": 2.7069924787,
				"y": 0.6626516089,
				"z": 0.9572237481,
				"element": "H" 
			},
			{
				"x": 1.2907924135,
				"y": -0.2875944645,
				"z": 0.5472720827,
				"element": "H" 
			},
			{
				"x": 0.877577908,
				"y": 2.1950244502,
				"z": 0.7009372198,
				"element": "H" 
			},
			{
				"x": 1.9741974865,
				"y": 2.4548592979,
				"z": -0.6453574907,
				"element": "H" 
			},
			{
				"x": -0.2871494769,
				"y": 2.5658255598,
				"z": -1.4701461494,
				"element": "H" 
			},
			{
				"x": 0.4542789588,
				"y": 1.1283830948,
				"z": -2.1479273495,
				"element": "H" 
			},
			{
				"x": -0.7001543662,
				"y": -0.9503855071,
				"z": -1.9543758517,
				"element": "H" 
			},
			{
				"x": -2.0324491906,
				"y": -3.0387291787,
				"z": -1.9328596939,
				"element": "H" 
			},
			{
				"x": -3.9009282638,
				"y": -4.3710077319,
				"z": -1.015046739,
				"element": "H" 
			},
			{
				"x": -5.3377972751,
				"y": -3.4390191399,
				"z": 0.7932512999,
				"element": "H" 
			},
			{
				"x": -4.9037860242,
				"y": -1.1719707629,
				"z": 1.6821964493,
				"element": "H" 
			},
			{
				"x": -3.5600481945,
				"y": 0.9295959607,
				"z": 1.6520162344,
				"element": "H" 
			},
			{
				"x": -1.6989121743,
				"y": 2.2506348299,
				"z": 0.7314273046,
				"element": "H" 
			}
		],
		 "valence_orbital": [ 
			{
				"type": "occ",
				"energy": -0.31429,
				"method": "rhf"
			},
			{
				"type": "occ",
				"energy": -0.30964,
				"method": "rhf"
			},
			{
				"type": "occ",
				"energy": -0.27826,
				"method": "rhf"
			},
			{
				"type": "occ",
				"energy": -0.23426,
				"method": "rhf"
			},
			{
				"type": "occ",
				"energy": -0.20994,
				"method": "rhf"
			},
			{
				"type": "unocc",
				"energy": -0.03339,
				"method": "rhf"
			},
			{
				"type": "unocc",
				"energy": -0.00532,
				"method": "rhf"
			},
			{
				"type": "unocc",
				"energy": 0.0367,
				"method": "rhf"
			},
			{
				"type": "unocc",
				"energy": 0.08271,
				"method": "rhf"
			},
			{
				"type": "unocc",
				"energy": 0.09842,
				"method": "rhf"
			}
		],
		"cosmo_sigma_profile": { 
			"-0.025": 0.0,
			"-0.024": 0.0,
			"-0.023": 0.0,
			"-0.022": 0.0,
			"-0.021": 0.0,
			"-0.02": 0.0,
			"-0.019": 0.0,
			"-0.018": 0.0,
			"-0.017": 0.0,
			"-0.016": 0.0,
			"-0.015": 0.0,
			"-0.014": 0.0,
			"-0.013": 0.0,
			"-0.012": 0.0,
			"-0.011": 0.0,
			"-0.01": 0.0,
			"-0.009": 0.0,
			"-0.008": 0.0,
			"-0.007": 0.0,
			"-0.006": 4.2270741106,
			"-0.005": 15.4894089241,
			"-0.004": 16.7807236846,
			"-0.003": 24.9262939515,
			"-0.002": 25.1917539075,
			"-0.001": 27.0160769974,
			"0.0": 32.3410950738,
			"0.001": 29.0796378064,
			"0.002": 19.0025645531,
			"0.003": 12.4367887797,
			"0.004": 17.7190693005,
			"0.005": 21.4923695441,
			"0.006": 6.4558236545,
			"0.007": 0.0,
			"0.008": 0.0,
			"0.009": 0.0,
			"0.01": 0.0,
			"0.011": 0.0,
			"0.012": 0.0,
			"0.013": 0.0,
			"0.014": 0.0,
			"0.015": 0.0,
			"0.016": 0.0,
			"0.017": 0.0,
			"0.018": 0.0,
			"0.019": 0.0,
			"0.02": 0.0,
			"0.021": 0.0,
			"0.022": 0.0,
			"0.023": 0.0,
			"0.024": 0.0,
			"0.025": 0.0
		}
	}
}
