{
	 "smiles": "CCCCCC(C)(C)O", 
	 "Tm": 222.95, 
	 "num_atms": 27, 
	 "gaussian": { 
		 "optdone": 1, 
		 "sigma_profile": "yes", 
		 "theory": "DFT", 
		 "functional": "B3LYP", 
		 "basiset": "6-31G**", 
		 "properties": { 
			 "R2extent": 2137.3314, 
			 "electric_dipole_moment_norm": 1.33122999891, 
			 "electric_quadrupole_moment_norm": 5.87262564361, 
			 "total_energy": -390.943459726, 
			 "HOMO_LUMO_gap": 0.32013, 
			 "cosmo_polarized_energy": -5.31, 
			 "cosmo_cavitation_energy": 27.21, 
			 "cosmo_dispersion_energy": -19.29, 
			 "cosmo_repulsion_energy": 1.6, 
			 "cosmo_total_nonelectrostatic_energy": 9.52, 
			 "SMD_solvation_energy": 4.48 
		},
		"coords": [
			{
				"x": 2.4364467205,
				"y": 2.4339914638,
				"z": -0.7436428102,
				"element": "C" 
			},
			{
				"x": 0.9197806026,
				"y": 2.5905260429,
				"z": -0.9096868232,
				"element": "C" 
			},
			{
				"x": 0.0769123457,
				"y": 1.5421506635,
				"z": -0.1639767848,
				"element": "C" 
			},
			{
				"x": 0.2409515669,
				"y": 0.1088407917,
				"z": -0.6946748924,
				"element": "C" 
			},
			{
				"x": -0.5617040518,
				"y": -0.9712523439,
				"z": 0.0543577741,
				"element": "C" 
			},
			{
				"x": -2.1020729374,
				"y": -0.9892447629,
				"z": -0.1056028892,
				"element": "C" 
			},
			{
				"x": -2.680516822,
				"y": -2.1799487777,
				"z": 0.6786930441,
				"element": "C" 
			},
			{
				"x": -2.5359422038,
				"y": -1.063692895,
				"z": -1.5722484004,
				"element": "C" 
			},
			{
				"x": -2.6948332968,
				"y": 0.2247365939,
				"z": 0.3916125198,
				"element": "O" 
			},
			{
				"x": 2.9744322605,
				"y": 3.2404130233,
				"z": -1.2532181208,
				"element": "H" 
			},
			{
				"x": 2.7216495885,
				"y": 2.4627927757,
				"z": 0.3148028958,
				"element": "H" 
			},
			{
				"x": 2.8002799232,
				"y": 1.4878457355,
				"z": -1.1575468667,
				"element": "H" 
			},
			{
				"x": 0.6267223384,
				"y": 3.5876186095,
				"z": -0.5565981774,
				"element": "H" 
			},
			{
				"x": 0.6649970222,
				"y": 2.5639753827,
				"z": -1.9784251276,
				"element": "H" 
			},
			{
				"x": -0.9793906066,
				"y": 1.8205290355,
				"z": -0.2175271804,
				"element": "H" 
			},
			{
				"x": 0.3463776167,
				"y": 1.5607781019,
				"z": 0.9035109849,
				"element": "H" 
			},
			{
				"x": -0.0119911131,
				"y": 0.0871812316,
				"z": -1.7629380395,
				"element": "H" 
			},
			{
				"x": 1.2986685704,
				"y": -0.1778337349,
				"z": -0.6377639731,
				"element": "H" 
			},
			{
				"x": -0.1907639572,
				"y": -1.9573705293,
				"z": -0.2552569655,
				"element": "H" 
			},
			{
				"x": -0.3371043377,
				"y": -0.8987376985,
				"z": 1.1300904616,
				"element": "H" 
			},
			{
				"x": -3.7731760183,
				"y": -2.1649131275,
				"z": 0.6288595302,
				"element": "H" 
			},
			{
				"x": -2.3272396582,
				"y": -3.1373612751,
				"z": 0.2813016723,
				"element": "H" 
			},
			{
				"x": -2.3867572918,
				"y": -2.1305769958,
				"z": 1.7345924268,
				"element": "H" 
			},
			{
				"x": -2.113256898,
				"y": -1.9474634814,
				"z": -2.0601962363,
				"element": "H" 
			},
			{
				"x": -3.6265613363,
				"y": -1.1197384996,
				"z": -1.635252763,
				"element": "H" 
			},
			{
				"x": -2.2151353561,
				"y": -0.1747079145,
				"z": -2.1206521568,
				"element": "H" 
			},
			{
				"x": -2.4308726702,
				"y": 0.3206625848,
				"z": 1.3167868977,
				"element": "H" 
			}
		],
		 "valence_orbital": [ 
			{
				"type": "occ",
				"energy": -0.31931,
				"method": "rhf"
			},
			{
				"type": "occ",
				"energy": -0.31618,
				"method": "rhf"
			},
			{
				"type": "occ",
				"energy": -0.31183,
				"method": "rhf"
			},
			{
				"type": "occ",
				"energy": -0.30047,
				"method": "rhf"
			},
			{
				"type": "occ",
				"energy": -0.25448,
				"method": "rhf"
			},
			{
				"type": "unocc",
				"energy": 0.06565,
				"method": "rhf"
			},
			{
				"type": "unocc",
				"energy": 0.09684,
				"method": "rhf"
			},
			{
				"type": "unocc",
				"energy": 0.11157,
				"method": "rhf"
			},
			{
				"type": "unocc",
				"energy": 0.12014,
				"method": "rhf"
			},
			{
				"type": "unocc",
				"energy": 0.12609,
				"method": "rhf"
			}
		],
		"cosmo_sigma_profile": { 
			"-0.025": 0.0,
			"-0.024": 0.0,
			"-0.023": 0.0,
			"-0.022": 0.0,
			"-0.021": 0.0,
			"-0.02": 0.0,
			"-0.019": 0.0,
			"-0.018": 0.0,
			"-0.017": 0.0,
			"-0.016": 0.0,
			"-0.015": 0.0597765824644,
			"-0.014": 0.553318857457,
			"-0.013": 0.626637553824,
			"-0.012": 0.741332709102,
			"-0.011": 1.03144987807,
			"-0.01": 0.705131511823,
			"-0.009": 1.04764230538,
			"-0.008": 1.27658697654,
			"-0.007": 0.983825638555,
			"-0.006": 0.736888318224,
			"-0.005": 1.92672745567,
			"-0.004": 2.93622791091,
			"-0.003": 13.3526758575,
			"-0.002": 28.8585336855,
			"-0.001": 34.7564230842,
			"0.0": 37.3488268184,
			"0.001": 43.7788018403,
			"0.002": 19.0225516231,
			"0.003": 2.55921087092,
			"0.004": 1.94642194935,
			"0.005": 1.57126114717,
			"0.006": 1.60465923658,
			"0.007": 1.59143013869,
			"0.008": 0.927948122101,
			"0.009": 1.32625082421,
			"0.01": 0.850903651244,
			"0.011": 1.2476641347,
			"0.012": 1.24653127079,
			"0.013": 0.987471129421,
			"0.014": 1.34173370054,
			"0.015": 1.04800145736,
			"0.016": 0.0,
			"0.017": 0.0,
			"0.018": 0.0,
			"0.019": 0.0,
			"0.02": 0.0,
			"0.021": 0.0,
			"0.022": 0.0,
			"0.023": 0.0,
			"0.024": 0.0,
			"0.025": 0.0
		}
	}
}
