{
	 "smiles": "COCCOC1=C(Cl)C=CC=C1N", 
	 "Tm": 330.15, 
	 "num_atms": 25, 
	 "gaussian": { 
		 "optdone": 1, 
		 "sigma_profile": "yes", 
		 "theory": "DFT", 
		 "functional": "B3LYP", 
		 "basiset": "6-31G**", 
		 "properties": { 
			 "R2extent": 4153.2935, 
			 "electric_dipole_moment_norm": 4.51215218161, 
			 "electric_quadrupole_moment_norm": 14.4380408626, 
			 "total_energy": -1015.55628181, 
			 "HOMO_LUMO_gap": 0.19765, 
			 "cosmo_polarized_energy": -11.07, 
			 "cosmo_cavitation_energy": 29.25, 
			 "cosmo_dispersion_energy": -21.15, 
			 "cosmo_repulsion_energy": 1.68, 
			 "cosmo_total_nonelectrostatic_energy": 9.78, 
			 "SMD_solvation_energy": 5.18 
		},
		"coords": [
			{
				"x": -0.661370471,
				"y": 2.5188723279,
				"z": -0.829821904,
				"element": "C" 
			},
			{
				"x": 0.598365848,
				"y": 1.8780873417,
				"z": -0.9022033462,
				"element": "O" 
			},
			{
				"x": 0.5140435856,
				"y": 0.5575109727,
				"z": -1.4158896491,
				"element": "C" 
			},
			{
				"x": 1.9083322053,
				"y": -0.0402016826,
				"z": -1.4937100484,
				"element": "C" 
			},
			{
				"x": 2.563653142,
				"y": -0.1424130728,
				"z": -0.222299488,
				"element": "O" 
			},
			{
				"x": 2.068694562,
				"y": -1.0613835644,
				"z": 0.6772581553,
				"element": "C" 
			},
			{
				"x": 2.3227832266,
				"y": -2.4329760591,
				"z": 0.580731046,
				"element": "C" 
			},
			{
				"x": 3.2757602658,
				"y": -3.0417692715,
				"z": -0.7680325943,
				"element": "Cl" 
			},
			{
				"x": 1.8596125145,
				"y": -3.3367552431,
				"z": 1.5379390671,
				"element": "C" 
			},
			{
				"x": 1.1383015623,
				"y": -2.8415919606,
				"z": 2.623852928,
				"element": "C" 
			},
			{
				"x": 0.891865352,
				"y": -1.4784390003,
				"z": 2.7593445383,
				"element": "C" 
			},
			{
				"x": 1.3540968107,
				"y": -0.5657200117,
				"z": 1.7958089955,
				"element": "C" 
			},
			{
				"x": 1.1791610187,
				"y": 0.7993999716,
				"z": 1.9322800036,
				"element": "N" 
			},
			{
				"x": -1.3521232489,
				"y": 1.985620448,
				"z": -0.1583308048,
				"element": "H" 
			},
			{
				"x": -0.4915046803,
				"y": 3.5256323419,
				"z": -0.4412194741,
				"element": "H" 
			},
			{
				"x": -1.1328377313,
				"y": 2.5949893427,
				"z": -1.8210377289,
				"element": "H" 
			},
			{
				"x": -0.1391993132,
				"y": -0.0630982011,
				"z": -0.7816049163,
				"element": "H" 
			},
			{
				"x": 0.0804435881,
				"y": 0.5651253472,
				"z": -2.4299762959,
				"element": "H" 
			},
			{
				"x": 2.5542839746,
				"y": 0.6118050738,
				"z": -2.0873637277,
				"element": "H" 
			},
			{
				"x": 1.8536167863,
				"y": -1.0192622415,
				"z": -1.9831795264,
				"element": "H" 
			},
			{
				"x": 2.071707528,
				"y": -4.3937788491,
				"z": 1.4309368181,
				"element": "H" 
			},
			{
				"x": 0.7710492946,
				"y": -3.5296544609,
				"z": 3.3795776313,
				"element": "H" 
			},
			{
				"x": 0.341427432,
				"y": -1.1044631505,
				"z": 3.6186309569,
				"element": "H" 
			},
			{
				"x": 1.2796965528,
				"y": 1.3468198965,
				"z": 1.0845524604,
				"element": "H" 
			},
			{
				"x": 0.4269401948,
				"y": 1.0915437052,
				"z": 2.5376569035,
				"element": "H" 
			}
		],
		 "valence_orbital": [ 
			{
				"type": "occ",
				"energy": -0.29508,
				"method": "rhf"
			},
			{
				"type": "occ",
				"energy": -0.28195,
				"method": "rhf"
			},
			{
				"type": "occ",
				"energy": -0.27395,
				"method": "rhf"
			},
			{
				"type": "occ",
				"energy": -0.23159,
				"method": "rhf"
			},
			{
				"type": "occ",
				"energy": -0.19746,
				"method": "rhf"
			},
			{
				"type": "unocc",
				"energy": 0.00019,
				"method": "rhf"
			},
			{
				"type": "unocc",
				"energy": 0.01579,
				"method": "rhf"
			},
			{
				"type": "unocc",
				"energy": 0.03634,
				"method": "rhf"
			},
			{
				"type": "unocc",
				"energy": 0.07054,
				"method": "rhf"
			},
			{
				"type": "unocc",
				"energy": 0.10103,
				"method": "rhf"
			}
		],
		"cosmo_sigma_profile": { 
			"-0.025": 0.0,
			"-0.024": 0.0,
			"-0.023": 0.0,
			"-0.022": 0.0,
			"-0.021": 0.0,
			"-0.02": 0.0,
			"-0.019": 0.0,
			"-0.018": 0.0,
			"-0.017": 0.0,
			"-0.016": 0.0,
			"-0.015": 0.0,
			"-0.014": 0.0,
			"-0.013": 0.246232123745,
			"-0.012": 1.46216033768,
			"-0.011": 0.998832532216,
			"-0.01": 1.44592419208,
			"-0.009": 1.33424068326,
			"-0.008": 1.25289808428,
			"-0.007": 2.10348189112,
			"-0.006": 7.88627712476,
			"-0.005": 18.4290559328,
			"-0.004": 27.0317364917,
			"-0.003": 24.6788411635,
			"-0.002": 21.8694903244,
			"-0.001": 14.1327297724,
			"0.0": 10.3305460776,
			"0.001": 10.9044792149,
			"0.002": 12.0574455847,
			"0.003": 16.1534325046,
			"0.004": 15.9574932623,
			"0.005": 17.7411801774,
			"0.006": 8.27772466718,
			"0.007": 3.95829855606,
			"0.008": 4.13022874139,
			"0.009": 2.82796429466,
			"0.01": 2.81389906192,
			"0.011": 2.85650155236,
			"0.012": 1.7192618403,
			"0.013": 0.478100157006,
			"0.014": 0.146158994626,
			"0.015": 0.0,
			"0.016": 0.0,
			"0.017": 0.0,
			"0.018": 0.0,
			"0.019": 0.0,
			"0.02": 0.0,
			"0.021": 0.0,
			"0.022": 0.0,
			"0.023": 0.0,
			"0.024": 0.0,
			"0.025": 0.0
		}
	}
}
