{
	 "smiles": "O=C1ON(C=C1C1=CC=CC=C1)C1=CC=CC=C1", 
	 "Tm": 448.15, 
	 "num_atms": 29, 
	 "gaussian": { 
		 "optdone": 1, 
		 "sigma_profile": "yes", 
		 "theory": "DFT", 
		 "functional": "B3LYP", 
		 "basiset": "6-31G**", 
		 "properties": { 
			 "R2extent": 6780.3448, 
			 "electric_dipole_moment_norm": 4.87739369848, 
			 "electric_quadrupole_moment_norm": 15.4315948949, 
			 "total_energy": -783.377318943, 
			 "HOMO_LUMO_gap": 0.14592, 
			 "cosmo_polarized_energy": -13.98, 
			 "cosmo_cavitation_energy": 33.74, 
			 "cosmo_dispersion_energy": -25.02, 
			 "cosmo_repulsion_energy": 1.87, 
			 "cosmo_total_nonelectrostatic_energy": 10.59, 
			 "SMD_solvation_energy": 7.13 
		},
		"coords": [
			{
				"x": -1.4054863107,
				"y": -2.4749477329,
				"z": -0.7074978586,
				"element": "O" 
			},
			{
				"x": -0.6770357546,
				"y": -1.8472595404,
				"z": 0.0241220357,
				"element": "C" 
			},
			{
				"x": 0.1637961977,
				"y": -2.5610947937,
				"z": 0.9290340528,
				"element": "O" 
			},
			{
				"x": 0.8898744253,
				"y": -1.6227963176,
				"z": 1.6461446135,
				"element": "N" 
			},
			{
				"x": 0.540274306,
				"y": -0.3816282628,
				"z": 1.23428114,
				"element": "C" 
			},
			{
				"x": -0.408631475,
				"y": -0.4344128083,
				"z": 0.2447676028,
				"element": "C" 
			},
			{
				"x": -1.0496711032,
				"y": 0.6764880521,
				"z": -0.4671246651,
				"element": "C" 
			},
			{
				"x": -2.0287066023,
				"y": 0.4316716849,
				"z": -1.4481005192,
				"element": "C" 
			},
			{
				"x": -2.6356514164,
				"y": 1.491456986,
				"z": -2.120945767,
				"element": "C" 
			},
			{
				"x": -2.2849066704,
				"y": 2.8112209467,
				"z": -1.8351789384,
				"element": "C" 
			},
			{
				"x": -1.3135218917,
				"y": 3.0656116611,
				"z": -0.8633913455,
				"element": "C" 
			},
			{
				"x": -0.703517893,
				"y": 2.0126472487,
				"z": -0.1884686471,
				"element": "C" 
			},
			{
				"x": 1.7878233131,
				"y": -2.1027952432,
				"z": 2.6101126467,
				"element": "C" 
			},
			{
				"x": 2.5939773569,
				"y": -1.2043132742,
				"z": 3.3270067838,
				"element": "C" 
			},
			{
				"x": 3.477785767,
				"y": -1.6928938645,
				"z": 4.2854247965,
				"element": "C" 
			},
			{
				"x": 3.5739400256,
				"y": -3.0631318274,
				"z": 4.5374272604,
				"element": "C" 
			},
			{
				"x": 2.7704464036,
				"y": -3.9469752392,
				"z": 3.8155833653,
				"element": "C" 
			},
			{
				"x": 1.8766001839,
				"y": -3.480746812,
				"z": 2.8539607512,
				"element": "C" 
			},
			{
				"x": 1.0042037747,
				"y": 0.4782912919,
				"z": 1.6933170316,
				"element": "H" 
			},
			{
				"x": -2.3043838634,
				"y": -0.5914649386,
				"z": -1.6740958928,
				"element": "H" 
			},
			{
				"x": -3.3890624428,
				"y": 1.2802605996,
				"z": -2.8746116263,
				"element": "H" 
			},
			{
				"x": -2.7605185326,
				"y": 3.6332256427,
				"z": -2.3620147911,
				"element": "H" 
			},
			{
				"x": -1.0291733772,
				"y": 4.0879656578,
				"z": -0.6304914804,
				"element": "H" 
			},
			{
				"x": 0.0503827931,
				"y": 2.2367328369,
				"z": 0.5614130784,
				"element": "H" 
			},
			{
				"x": 2.5407651758,
				"y": -0.1370271764,
				"z": 3.1420551737,
				"element": "H" 
			},
			{
				"x": 4.097767802,
				"y": -0.9917289998,
				"z": 4.8360373373,
				"element": "H" 
			},
			{
				"x": 4.2668297286,
				"y": -3.4352481833,
				"z": 5.2851189972,
				"element": "H" 
			},
			{
				"x": 2.8342262842,
				"y": -5.0153235207,
				"z": 3.9991633,
				"element": "H" 
			},
			{
				"x": 1.2523737959,
				"y": -4.1659840732,
				"z": 2.2952515645,
				"element": "H" 
			}
		],
		 "valence_orbital": [ 
			{
				"type": "occ",
				"energy": -0.27548,
				"method": "rhf"
			},
			{
				"type": "occ",
				"energy": -0.26917,
				"method": "rhf"
			},
			{
				"type": "occ",
				"energy": -0.25316,
				"method": "rhf"
			},
			{
				"type": "occ",
				"energy": -0.24912,
				"method": "rhf"
			},
			{
				"type": "occ",
				"energy": -0.20114,
				"method": "rhf"
			},
			{
				"type": "unocc",
				"energy": -0.05522,
				"method": "rhf"
			},
			{
				"type": "unocc",
				"energy": -0.01869,
				"method": "rhf"
			},
			{
				"type": "unocc",
				"energy": -0.00274,
				"method": "rhf"
			},
			{
				"type": "unocc",
				"energy": 0.00056,
				"method": "rhf"
			},
			{
				"type": "unocc",
				"energy": 0.01561,
				"method": "rhf"
			}
		],
		"cosmo_sigma_profile": { 
			"-0.025": 0.0,
			"-0.024": 0.0,
			"-0.023": 0.0,
			"-0.022": 0.0,
			"-0.021": 0.0,
			"-0.02": 0.0,
			"-0.019": 0.0,
			"-0.018": 0.0,
			"-0.017": 0.0,
			"-0.016": 0.0,
			"-0.015": 0.0,
			"-0.014": 0.0,
			"-0.013": 0.917802320084,
			"-0.012": 2.1729822803,
			"-0.011": 2.87099951097,
			"-0.01": 1.97592892543,
			"-0.009": 2.18901996367,
			"-0.008": 2.52900952136,
			"-0.007": 3.69880167425,
			"-0.006": 14.3799904613,
			"-0.005": 18.0086002633,
			"-0.004": 21.2833265545,
			"-0.003": 20.3412257069,
			"-0.002": 19.5258441068,
			"-0.001": 17.1920307724,
			"0.0": 17.9039146176,
			"0.001": 19.7711892955,
			"0.002": 19.4101660446,
			"0.003": 21.9036278015,
			"0.004": 22.2863769422,
			"0.005": 17.3907988595,
			"0.006": 10.3851316179,
			"0.007": 1.42731770371,
			"0.008": 1.99239218771,
			"0.009": 1.94990250671,
			"0.01": 2.08572201168,
			"0.011": 3.58077963523,
			"0.012": 4.34009137731,
			"0.013": 0.965166806398,
			"0.014": 0.0,
			"0.015": 0.0,
			"0.016": 0.0,
			"0.017": 0.0,
			"0.018": 0.0,
			"0.019": 0.0,
			"0.02": 0.0,
			"0.021": 0.0,
			"0.022": 0.0,
			"0.023": 0.0,
			"0.024": 0.0,
			"0.025": 0.0
		}
	}
}
