{
	 "smiles": "CCC(CC1=C(I)C(N)=C(I)C=C1I)C(O)=O", 
	 "Tm": 428.15, 
	 "num_atms": 29, 
	 "gaussian": { 
		 "optdone": 1, 
		 "sigma_profile": "no", 
		 "theory": "DFT", 
		 "functional": "B3LYP", 
		 "basiset": "6-31G**", 
		 "properties": { 
			 "R2extent": 5113.9483, 
			 "electric_dipole_moment_norm": 1.92060681557, 
			 "electric_quadrupole_moment_norm": 14.7106739251, 
			 "total_energy": -665.780243124, 
			 "HOMO_LUMO_gap": 0.14329, 
			 "cosmo_polarized_energy": -240598.73, 
			 "cosmo_cavitation_energy": 39.65, 
			 "cosmo_dispersion_energy": -31.39, 
			 "cosmo_repulsion_energy": 2.35, 
			 "cosmo_total_nonelectrostatic_energy": 10.6, 
			 "SMD_solvation_energy": 5.06 
		},
		"coords": [
			{
				"x": -2.7566134071,
				"y": -1.9598599679,
				"z": -1.1207575564,
				"element": "C" 
			},
			{
				"x": -2.0795403558,
				"y": -1.3716642448,
				"z": 0.1220609916,
				"element": "C" 
			},
			{
				"x": -0.5283553254,
				"y": -1.3679738411,
				"z": 0.0868788826,
				"element": "C" 
			},
			{
				"x": 0.0955337925,
				"y": -0.3111761347,
				"z": -0.8617397914,
				"element": "C" 
			},
			{
				"x": 0.1617510243,
				"y": 1.0780756013,
				"z": -0.259476043,
				"element": "C" 
			},
			{
				"x": 1.1312310123,
				"y": 1.410482724,
				"z": 0.7099548678,
				"element": "C" 
			},
			{
				"x": 2.6253344033,
				"y": -0.0304069749,
				"z": 1.246763367,
				"element": "I" 
			},
			{
				"x": 1.2239093884,
				"y": 2.6730657363,
				"z": 1.349178046,
				"element": "C" 
			},
			{
				"x": 2.1411382914,
				"y": 2.9428962794,
				"z": 2.3323700063,
				"element": "N" 
			},
			{
				"x": 0.2760584263,
				"y": 3.6404830015,
				"z": 0.9431750114,
				"element": "C" 
			},
			{
				"x": 0.2808066337,
				"y": 5.5836091206,
				"z": 1.8035419415,
				"element": "I" 
			},
			{
				"x": -0.6685698418,
				"y": 3.3716295268,
				"z": -0.0340967904,
				"element": "C" 
			},
			{
				"x": -0.7233643266,
				"y": 2.1101106305,
				"z": -0.6276464588,
				"element": "C" 
			},
			{
				"x": -2.1868486276,
				"y": 1.9065066905,
				"z": -2.165903565,
				"element": "I" 
			},
			{
				"x": 0.0084103551,
				"y": -2.7522030117,
				"z": -0.2467720432,
				"element": "C" 
			},
			{
				"x": -0.4253444696,
				"y": -3.6808013694,
				"z": 0.6423406564,
				"element": "O" 
			},
			{
				"x": 0.7345432672,
				"y": -3.0389205869,
				"z": -1.173777835,
				"element": "O" 
			},
			{
				"x": -2.5177367433,
				"y": -3.0221222536,
				"z": -1.2384416089,
				"element": "H" 
			},
			{
				"x": -2.459356946,
				"y": -1.4430975013,
				"z": -2.0379929287,
				"element": "H" 
			},
			{
				"x": -3.8444270974,
				"y": -1.8749549773,
				"z": -1.0355316353,
				"element": "H" 
			},
			{
				"x": -2.3960182299,
				"y": -1.9386841495,
				"z": 1.0032574836,
				"element": "H" 
			},
			{
				"x": -2.413052143,
				"y": -0.3396950844,
				"z": 0.2773629128,
				"element": "H" 
			},
			{
				"x": -0.1917082382,
				"y": -1.1663066668,
				"z": 1.1106421293,
				"element": "H" 
			},
			{
				"x": -0.468241477,
				"y": -0.2805203279,
				"z": -1.7950142226,
				"element": "H" 
			},
			{
				"x": 1.1016057608,
				"y": -0.6394388369,
				"z": -1.1316946118,
				"element": "H" 
			},
			{
				"x": 2.3104885228,
				"y": 3.9134259758,
				"z": 2.551613457,
				"element": "H" 
			},
			{
				"x": 2.9386287006,
				"y": 2.3300642639,
				"z": 2.4129063697,
				"element": "H" 
			},
			{
				"x": -1.3621789768,
				"y": 4.1449425274,
				"z": -0.3370949856,
				"element": "H" 
			},
			{
				"x": -0.0430833734,
				"y": -4.5266661492,
				"z": 0.3538939529,
				"element": "H" 
			}
		],
		 "valence_orbital": [ 
			{
				"type": "occ",
				"energy": -0.27632,
				"method": "rhf"
			},
			{
				"type": "occ",
				"energy": -0.27118,
				"method": "rhf"
			},
			{
				"type": "occ",
				"energy": -0.26908,
				"method": "rhf"
			},
			{
				"type": "occ",
				"energy": -0.24838,
				"method": "rhf"
			},
			{
				"type": "occ",
				"energy": -0.21922,
				"method": "rhf"
			},
			{
				"type": "unocc",
				"energy": -0.07593,
				"method": "rhf"
			},
			{
				"type": "unocc",
				"energy": -0.03737,
				"method": "rhf"
			},
			{
				"type": "unocc",
				"energy": -0.03327,
				"method": "rhf"
			},
			{
				"type": "unocc",
				"energy": -0.03113,
				"method": "rhf"
			},
			{
				"type": "unocc",
				"energy": -0.01697,
				"method": "rhf"
			}
		],
		"cosmo_sigma_profile": { 
			"0.0": 0.0,
			"0.0": 0.0,
			"0.0": 0.0,
			"0.0": 0.0,
			"0.0": 0.0,
			"0.0": 0.0,
			"0.0": 0.0,
			"0.0": 0.0,
			"0.0": 0.0,
			"0.0": 0.0,
			"0.0": 0.0,
			"0.0": 0.0,
			"0.0": 0.0,
			"0.0": 0.0,
			"0.0": 0.0,
			"0.0": 0.0,
			"0.0": 0.0,
			"0.0": 0.0,
			"0.0": 0.0,
			"0.0": 0.0,
			"0.0": 0.0,
			"0.0": 0.0,
			"0.0": 0.0,
			"0.0": 0.0,
			"0.0": 0.0,
			"0.0": 0.0,
			"0.0": 0.0,
			"0.0": 0.0,
			"0.0": 0.0,
			"0.0": 0.0,
			"0.0": 0.0,
			"0.0": 0.0,
			"0.0": 0.0,
			"0.0": 0.0,
			"0.0": 0.0,
			"0.0": 0.0,
			"0.0": 0.0,
			"0.0": 0.0,
			"0.0": 0.0,
			"0.0": 0.0,
			"0.0": 0.0,
			"0.0": 0.0,
			"0.0": 0.0,
			"0.0": 0.0,
			"0.0": 0.0,
			"0.0": 0.0,
			"0.0": 0.0,
			"0.0": 0.0,
			"0.0": 0.0,
			"0.0": 0.0,
			"0.0": 0.0
		}
	}
}
