{
	 "smiles": "CC(=O)C1=C(C=CC(F)=C1)N1C=CN=C1", 
	 "Tm": 456.15, 
	 "num_atms": 24, 
	 "gaussian": { 
		 "optdone": 1, 
		 "sigma_profile": "yes", 
		 "theory": "DFT", 
		 "functional": "B3LYP", 
		 "basiset": "6-31G**", 
		 "properties": { 
			 "R2extent": 3181.3114, 
			 "electric_dipole_moment_norm": 2.05554936209, 
			 "electric_quadrupole_moment_norm": 19.1358584158, 
			 "total_energy": -709.13764564, 
			 "HOMO_LUMO_gap": 0.16699, 
			 "cosmo_polarized_energy": -13.0, 
			 "cosmo_cavitation_energy": 29.03, 
			 "cosmo_dispersion_energy": -20.2, 
			 "cosmo_repulsion_energy": 1.53, 
			 "cosmo_total_nonelectrostatic_energy": 10.36, 
			 "SMD_solvation_energy": 5.28 
		},
		"coords": [
			{
				"x": 2.2461536646,
				"y": -0.2229360461,
				"z": 1.474937279,
				"element": "C" 
			},
			{
				"x": 1.4568650122,
				"y": -1.2809807239,
				"z": 0.7317056726,
				"element": "C" 
			},
			{
				"x": 1.9534211027,
				"y": -2.3664134351,
				"z": 0.4803004565,
				"element": "O" 
			},
			{
				"x": 0.0022226654,
				"y": -1.0469038165,
				"z": 0.3680466162,
				"element": "C" 
			},
			{
				"x": -0.6087519696,
				"y": 0.1999030383,
				"z": 0.1222065125,
				"element": "C" 
			},
			{
				"x": -1.9844707039,
				"y": 0.27500587,
				"z": -0.1252209545,
				"element": "C" 
			},
			{
				"x": -2.7725419247,
				"y": -0.8722079504,
				"z": -0.1351795382,
				"element": "C" 
			},
			{
				"x": -2.1527416609,
				"y": -2.100132222,
				"z": 0.07318406,
				"element": "C" 
			},
			{
				"x": -2.8987325546,
				"y": -3.2194974665,
				"z": 0.0458253593,
				"element": "F" 
			},
			{
				"x": -0.7912679387,
				"y": -2.2020421008,
				"z": 0.3101555692,
				"element": "C" 
			},
			{
				"x": 0.1398188059,
				"y": 1.415033486,
				"z": 0.0699039659,
				"element": "N" 
			},
			{
				"x": 1.0591773,
				"y": 1.7865700371,
				"z": -0.900135161,
				"element": "C" 
			},
			{
				"x": 1.4699187941,
				"y": 3.0485984696,
				"z": -0.5518693925,
				"element": "C" 
			},
			{
				"x": 0.8338079038,
				"y": 3.471143158,
				"z": 0.5950699686,
				"element": "N" 
			},
			{
				"x": 0.0433658638,
				"y": 2.4796120217,
				"z": 0.936221388,
				"element": "C" 
			},
			{
				"x": 3.108291323,
				"y": -0.7087863301,
				"z": 1.934242946,
				"element": "H" 
			},
			{
				"x": 1.6406799173,
				"y": 0.2747847605,
				"z": 2.237409436,
				"element": "H" 
			},
			{
				"x": 2.6009730354,
				"y": 0.5520113431,
				"z": 0.7882199129,
				"element": "H" 
			},
			{
				"x": -2.4256415327,
				"y": 1.2447169609,
				"z": -0.3310188791,
				"element": "H" 
			},
			{
				"x": -3.8401401914,
				"y": -0.8280778655,
				"z": -0.3195653511,
				"element": "H" 
			},
			{
				"x": -0.329386849,
				"y": -3.1693756832,
				"z": 0.4690894313,
				"element": "H" 
			},
			{
				"x": 1.3037785728,
				"y": 1.1339938605,
				"z": -1.7241171774,
				"element": "H" 
			},
			{
				"x": 2.1814660123,
				"y": 3.6791532182,
				"z": -1.0669655427,
				"element": "H" 
			},
			{
				"x": -0.6113646475,
				"y": 2.4487274163,
				"z": 1.7967534224,
				"element": "H" 
			}
		],
		 "valence_orbital": [ 
			{
				"type": "occ",
				"energy": -0.28614,
				"method": "rhf"
			},
			{
				"type": "occ",
				"energy": -0.2774,
				"method": "rhf"
			},
			{
				"type": "occ",
				"energy": -0.26286,
				"method": "rhf"
			},
			{
				"type": "occ",
				"energy": -0.26018,
				"method": "rhf"
			},
			{
				"type": "occ",
				"energy": -0.23892,
				"method": "rhf"
			},
			{
				"type": "unocc",
				"energy": -0.07193,
				"method": "rhf"
			},
			{
				"type": "unocc",
				"energy": -0.03141,
				"method": "rhf"
			},
			{
				"type": "unocc",
				"energy": 0.00967,
				"method": "rhf"
			},
			{
				"type": "unocc",
				"energy": 0.0178,
				"method": "rhf"
			},
			{
				"type": "unocc",
				"energy": 0.058,
				"method": "rhf"
			}
		],
		"cosmo_sigma_profile": { 
			"-0.025": 0.0,
			"-0.024": 0.0,
			"-0.023": 0.0,
			"-0.022": 0.0,
			"-0.021": 0.0,
			"-0.02": 0.0,
			"-0.019": 0.0,
			"-0.018": 0.0,
			"-0.017": 0.0,
			"-0.016": 0.0,
			"-0.015": 0.0,
			"-0.014": 0.0,
			"-0.013": 0.0,
			"-0.012": 0.0,
			"-0.011": 0.0,
			"-0.01": 0.0126072884108,
			"-0.009": 3.16075723434,
			"-0.008": 7.80808504275,
			"-0.007": 8.98999270639,
			"-0.006": 14.2785463181,
			"-0.005": 15.5451497844,
			"-0.004": 15.4185086673,
			"-0.003": 16.3582694922,
			"-0.002": 18.138792638,
			"-0.001": 22.9514715967,
			"0.0": 20.0198444236,
			"0.001": 18.1171265813,
			"0.002": 10.8504045422,
			"0.003": 11.1584132068,
			"0.004": 13.3338410207,
			"0.005": 5.15015808295,
			"0.006": 3.93454444777,
			"0.007": 2.51754043532,
			"0.008": 3.17849209379,
			"0.009": 3.95039190968,
			"0.01": 3.16075284403,
			"0.011": 5.25182090919,
			"0.012": 4.02730776016,
			"0.013": 1.14690421186,
			"0.014": 1.47720784988,
			"0.015": 0.866798219044,
			"0.016": 1.42519325991,
			"0.017": 0.916339617225,
			"0.018": 0.337009101187,
			"0.019": 0.0,
			"0.02": 0.0,
			"0.021": 0.0,
			"0.022": 0.0,
			"0.023": 0.0,
			"0.024": 0.0,
			"0.025": 0.0
		}
	}
}
