{
	 "smiles": "CC(C)C(C)(C)O", 
	 "Tm": 261.15, 
	 "num_atms": 21, 
	 "gaussian": { 
		 "optdone": 1, 
		 "sigma_profile": "yes", 
		 "theory": "DFT", 
		 "functional": "B3LYP", 
		 "basiset": "6-31G**", 
		 "properties": { 
			 "R2extent": 1026.5205, 
			 "electric_dipole_moment_norm": 1.4085747442, 
			 "electric_quadrupole_moment_norm": 5.53981179734, 
			 "total_energy": -312.312766801, 
			 "HOMO_LUMO_gap": 0.32747, 
			 "cosmo_polarized_energy": -5.42, 
			 "cosmo_cavitation_energy": 21.45, 
			 "cosmo_dispersion_energy": -15.54, 
			 "cosmo_repulsion_energy": 1.29, 
			 "cosmo_total_nonelectrostatic_energy": 7.2, 
			 "SMD_solvation_energy": 4.05 
		},
		"coords": [
			{
				"x": -0.461480972,
				"y": 0.6900624783,
				"z": -0.8930492035,
				"element": "C" 
			},
			{
				"x": -0.1603490853,
				"y": -0.4258355108,
				"z": 0.1192556162,
				"element": "C" 
			},
			{
				"x": 0.765192094,
				"y": -1.482741833,
				"z": -0.5052786224,
				"element": "C" 
			},
			{
				"x": 0.3657471404,
				"y": 0.0935020794,
				"z": 1.4881071337,
				"element": "C" 
			},
			{
				"x": 1.7531267655,
				"y": 0.7493022856,
				"z": 1.3979239322,
				"element": "C" 
			},
			{
				"x": -0.6362137092,
				"y": 1.0585204971,
				"z": 2.1440402867,
				"element": "C" 
			},
			{
				"x": 0.4531788811,
				"y": -1.0919283817,
				"z": 2.3003706952,
				"element": "O" 
			},
			{
				"x": -0.8610648006,
				"y": 0.2580949801,
				"z": -1.8166168189,
				"element": "H" 
			},
			{
				"x": -1.2002087916,
				"y": 1.4065479858,
				"z": -0.5225650924,
				"element": "H" 
			},
			{
				"x": 0.443304526,
				"y": 1.246618534,
				"z": -1.1632104105,
				"element": "H" 
			},
			{
				"x": -1.1081532045,
				"y": -0.926363367,
				"z": 0.3614877997,
				"element": "H" 
			},
			{
				"x": 1.0194322947,
				"y": -2.2572763023,
				"z": 0.2209461655,
				"element": "H" 
			},
			{
				"x": 0.271868454,
				"y": -1.9582014541,
				"z": -1.3598713553,
				"element": "H" 
			},
			{
				"x": 1.6958273346,
				"y": -1.0377587479,
				"z": -0.8759345019,
				"element": "H" 
			},
			{
				"x": 2.0777774357,
				"y": 1.0803622164,
				"z": 2.3922209062,
				"element": "H" 
			},
			{
				"x": 1.7490326019,
				"y": 1.6306821808,
				"z": 0.7490798156,
				"element": "H" 
			},
			{
				"x": 2.4968184888,
				"y": 0.0428259221,
				"z": 1.0215318027,
				"element": "H" 
			},
			{
				"x": -0.7150623544,
				"y": 2.0076501609,
				"z": 1.6060725181,
				"element": "H" 
			},
			{
				"x": -0.316927128,
				"y": 1.2910591474,
				"z": 3.1673849414,
				"element": "H" 
			},
			{
				"x": -1.6295024446,
				"y": 0.6021512058,
				"z": 2.1971468416,
				"element": "H" 
			},
			{
				"x": 0.7943564732,
				"y": -0.8278740769,
				"z": 3.1650575501,
				"element": "H" 
			}
		],
		 "valence_orbital": [ 
			{
				"type": "occ",
				"energy": -0.33994,
				"method": "rhf"
			},
			{
				"type": "occ",
				"energy": -0.32529,
				"method": "rhf"
			},
			{
				"type": "occ",
				"energy": -0.31814,
				"method": "rhf"
			},
			{
				"type": "occ",
				"energy": -0.29812,
				"method": "rhf"
			},
			{
				"type": "occ",
				"energy": -0.2592,
				"method": "rhf"
			},
			{
				"type": "unocc",
				"energy": 0.06827,
				"method": "rhf"
			},
			{
				"type": "unocc",
				"energy": 0.10653,
				"method": "rhf"
			},
			{
				"type": "unocc",
				"energy": 0.12628,
				"method": "rhf"
			},
			{
				"type": "unocc",
				"energy": 0.12935,
				"method": "rhf"
			},
			{
				"type": "unocc",
				"energy": 0.13879,
				"method": "rhf"
			}
		],
		"cosmo_sigma_profile": { 
			"-0.025": 0.0,
			"-0.024": 0.0,
			"-0.023": 0.0,
			"-0.022": 0.0,
			"-0.021": 0.0,
			"-0.02": 0.0,
			"-0.019": 0.0,
			"-0.018": 0.0,
			"-0.017": 0.0,
			"-0.016": 0.0,
			"-0.015": 0.139893395437,
			"-0.014": 0.614140390644,
			"-0.013": 0.785208429963,
			"-0.012": 1.07614392578,
			"-0.011": 0.661438289428,
			"-0.01": 1.48110524407,
			"-0.009": 0.724274464937,
			"-0.008": 0.7636798558,
			"-0.007": 1.33436651607,
			"-0.006": 1.38516497453,
			"-0.005": 1.96648838086,
			"-0.004": 2.26496017502,
			"-0.003": 12.2119770501,
			"-0.002": 24.302353455,
			"-0.001": 25.6013406541,
			"0.0": 25.6067559184,
			"0.001": 27.3653977079,
			"0.002": 16.171505138,
			"0.003": 3.07826918211,
			"0.004": 1.73867325913,
			"0.005": 1.77884854685,
			"0.006": 1.31445014449,
			"0.007": 1.50224655407,
			"0.008": 1.29162334059,
			"0.009": 1.72865124778,
			"0.01": 1.89981939936,
			"0.011": 1.00575397383,
			"0.012": 1.83263849687,
			"0.013": 0.938704160567,
			"0.014": 0.939699736336,
			"0.015": 0.619138179974,
			"0.016": 0.0,
			"0.017": 0.0,
			"0.018": 0.0,
			"0.019": 0.0,
			"0.02": 0.0,
			"0.021": 0.0,
			"0.022": 0.0,
			"0.023": 0.0,
			"0.024": 0.0,
			"0.025": 0.0
		}
	}
}
