{
	 "smiles": "CC1=NSC(=N1)C1=CC=C(Cl)C=C1", 
	 "Tm": 355.15, 
	 "num_atms": 20, 
	 "gaussian": { 
		 "optdone": 1, 
		 "sigma_profile": "yes", 
		 "theory": "DFT", 
		 "functional": "B3LYP", 
		 "basiset": "6-31G**", 
		 "properties": { 
			 "R2extent": 5075.2513, 
			 "electric_dipole_moment_norm": 0.505567661149, 
			 "electric_quadrupole_moment_norm": 9.70185144702, 
			 "total_energy": -1315.06419044, 
			 "HOMO_LUMO_gap": 0.16755, 
			 "cosmo_polarized_energy": -7.09, 
			 "cosmo_cavitation_energy": 28.11, 
			 "cosmo_dispersion_energy": -21.59, 
			 "cosmo_repulsion_energy": 1.65, 
			 "cosmo_total_nonelectrostatic_energy": 8.18, 
			 "SMD_solvation_energy": 1.7 
		},
		"coords": [
			{
				"x": -3.0285342088,
				"y": -1.1979284631,
				"z": -0.7402317079,
				"element": "C" 
			},
			{
				"x": -1.543649114,
				"y": -1.1656557105,
				"z": -0.9679969309,
				"element": "C" 
			},
			{
				"x": -0.9600065591,
				"y": -2.075050661,
				"z": -1.7240457209,
				"element": "N" 
			},
			{
				"x": 0.6809734096,
				"y": -1.7393036877,
				"z": -1.7588316353,
				"element": "S" 
			},
			{
				"x": 0.4838360473,
				"y": -0.3452820876,
				"z": -0.7176922585,
				"element": "C" 
			},
			{
				"x": -0.777871888,
				"y": -0.18458917,
				"z": -0.3882381365,
				"element": "N" 
			},
			{
				"x": 1.5689531969,
				"y": 0.5309451914,
				"z": -0.2676597646,
				"element": "C" 
			},
			{
				"x": 2.9025803334,
				"y": 0.3138860882,
				"z": -0.6496786754,
				"element": "C" 
			},
			{
				"x": 3.9179131202,
				"y": 1.1581051955,
				"z": -0.2109006789,
				"element": "C" 
			},
			{
				"x": 3.5965193982,
				"y": 2.23251166,
				"z": 0.6198794726,
				"element": "C" 
			},
			{
				"x": 4.8702111782,
				"y": 3.3009640594,
				"z": 1.1771270819,
				"element": "Cl" 
			},
			{
				"x": 2.2782917329,
				"y": 2.4701799184,
				"z": 1.014151391,
				"element": "C" 
			},
			{
				"x": 1.271552743,
				"y": 1.6200864774,
				"z": 0.5696932209,
				"element": "C" 
			},
			{
				"x": -3.3214864802,
				"y": -0.3707432722,
				"z": -0.0927041076,
				"element": "H" 
			},
			{
				"x": -3.3253622107,
				"y": -2.1417785545,
				"z": -0.2737734721,
				"element": "H" 
			},
			{
				"x": -3.5648925833,
				"y": -1.1178166752,
				"z": -1.6902038713,
				"element": "H" 
			},
			{
				"x": 3.1589674536,
				"y": -0.5208972024,
				"z": -1.296288456,
				"element": "H" 
			},
			{
				"x": 4.946657359,
				"y": 0.9880529404,
				"z": -0.5074393906,
				"element": "H" 
			},
			{
				"x": 2.0481164874,
				"y": 3.3101228737,
				"z": 1.6600519709,
				"element": "H" 
			},
			{
				"x": 0.2410305845,
				"y": 1.7854910799,
				"z": 0.8631816691,
				"element": "H" 
			}
		],
		 "valence_orbital": [ 
			{
				"type": "occ",
				"energy": -0.30935,
				"method": "rhf"
			},
			{
				"type": "occ",
				"energy": -0.28237,
				"method": "rhf"
			},
			{
				"type": "occ",
				"energy": -0.28167,
				"method": "rhf"
			},
			{
				"type": "occ",
				"energy": -0.2769,
				"method": "rhf"
			},
			{
				"type": "occ",
				"energy": -0.2417,
				"method": "rhf"
			},
			{
				"type": "unocc",
				"energy": -0.07415,
				"method": "rhf"
			},
			{
				"type": "unocc",
				"energy": -0.02729,
				"method": "rhf"
			},
			{
				"type": "unocc",
				"energy": -0.00204,
				"method": "rhf"
			},
			{
				"type": "unocc",
				"energy": 0.00222,
				"method": "rhf"
			},
			{
				"type": "unocc",
				"energy": 0.02258,
				"method": "rhf"
			}
		],
		"cosmo_sigma_profile": { 
			"-0.025": 0.0,
			"-0.024": 0.0,
			"-0.023": 0.0,
			"-0.022": 0.0,
			"-0.021": 0.0,
			"-0.02": 0.0,
			"-0.019": 0.0,
			"-0.018": 0.0,
			"-0.017": 0.0,
			"-0.016": 0.0,
			"-0.015": 0.0,
			"-0.014": 0.0,
			"-0.013": 0.0,
			"-0.012": 0.0,
			"-0.011": 0.0,
			"-0.01": 0.0,
			"-0.009": 0.345995151008,
			"-0.008": 4.82229691949,
			"-0.007": 6.79945977056,
			"-0.006": 8.94984381669,
			"-0.005": 11.964819922,
			"-0.004": 11.4107907717,
			"-0.003": 13.7595797898,
			"-0.002": 21.0238198342,
			"-0.001": 24.8696134787,
			"0.0": 23.5133808551,
			"0.001": 27.4871557678,
			"0.002": 27.82637101,
			"0.003": 12.3824941131,
			"0.004": 14.5082329296,
			"0.005": 4.39166715948,
			"0.006": 2.5435397086,
			"0.007": 2.97642471604,
			"0.008": 2.4857530031,
			"0.009": 2.27511530971,
			"0.01": 2.136274683,
			"0.011": 1.29025711102,
			"0.012": 0.937782530738,
			"0.013": 1.13051880673,
			"0.014": 1.0122531561,
			"0.015": 0.09516057873,
			"0.016": 0.0,
			"0.017": 0.0,
			"0.018": 0.0,
			"0.019": 0.0,
			"0.02": 0.0,
			"0.021": 0.0,
			"0.022": 0.0,
			"0.023": 0.0,
			"0.024": 0.0,
			"0.025": 0.0
		}
	}
}
