{
	 "smiles": "COCC(=O)NC1=CC(SC2=CC=CC=C2)=CC=C1N=C(NC(=O)OC)NC(=O)OC", 
	 "Tm": 402.15, 
	 "num_atms": 53, 
	 "gaussian": { 
		 "optdone": 1, 
		 "sigma_profile": "yes", 
		 "theory": "DFT", 
		 "functional": "B3LYP", 
		 "basiset": "6-31G**", 
		 "properties": { 
			 "R2extent": 15618.5495, 
			 "electric_dipole_moment_norm": 2.49419555969, 
			 "electric_quadrupole_moment_norm": 18.2746248936, 
			 "total_energy": -1843.93609167, 
			 "HOMO_LUMO_gap": 0.16601, 
			 "cosmo_polarized_energy": -27.19, 
			 "cosmo_cavitation_energy": 59.95, 
			 "cosmo_dispersion_energy": -36.85, 
			 "cosmo_repulsion_energy": 2.77, 
			 "cosmo_total_nonelectrostatic_energy": 25.87, 
			 "SMD_solvation_energy": 12.96 
		},
		"coords": [
			{
				"x": -2.0387354827,
				"y": 2.4159033305,
				"z": -1.9380549184,
				"element": "C" 
			},
			{
				"x": -0.9797248679,
				"y": 2.1356356149,
				"z": -1.0355504105,
				"element": "O" 
			},
			{
				"x": -0.9151042145,
				"y": 0.7968439033,
				"z": -0.6292895528,
				"element": "C" 
			},
			{
				"x": -1.9968931595,
				"y": 0.4422296026,
				"z": 0.4051851904,
				"element": "C" 
			},
			{
				"x": -2.850665602,
				"y": 1.2408240038,
				"z": 0.7612515975,
				"element": "O" 
			},
			{
				"x": -1.9703512673,
				"y": -0.8303215261,
				"z": 0.9467274743,
				"element": "N" 
			},
			{
				"x": -0.9876623136,
				"y": -1.8497166269,
				"z": 0.8303629342,
				"element": "C" 
			},
			{
				"x": -0.7480617056,
				"y": -2.4683579368,
				"z": -0.399685416,
				"element": "C" 
			},
			{
				"x": 0.1899319758,
				"y": -3.4986426228,
				"z": -0.5149596341,
				"element": "C" 
			},
			{
				"x": 0.5014003982,
				"y": -4.3438537697,
				"z": -2.0639663354,
				"element": "S" 
			},
			{
				"x": 0.4451357532,
				"y": -3.0238572767,
				"z": -3.2776691404,
				"element": "C" 
			},
			{
				"x": 1.1998125686,
				"y": -1.8503159005,
				"z": -3.1330832244,
				"element": "C" 
			},
			{
				"x": 1.1647574215,
				"y": -0.8731716608,
				"z": -4.1269016861,
				"element": "C" 
			},
			{
				"x": 0.403106956,
				"y": -1.0689340627,
				"z": -5.2829640249,
				"element": "C" 
			},
			{
				"x": -0.3335014751,
				"y": -2.2436723749,
				"z": -5.4352110488,
				"element": "C" 
			},
			{
				"x": -0.3241505924,
				"y": -3.2156573657,
				"z": -4.4319352073,
				"element": "C" 
			},
			{
				"x": 0.8329482052,
				"y": -3.9676393512,
				"z": 0.6382581076,
				"element": "C" 
			},
			{
				"x": 0.546008604,
				"y": -3.4022663773,
				"z": 1.8772356447,
				"element": "C" 
			},
			{
				"x": -0.3297702138,
				"y": -2.3148810125,
				"z": 1.9964079659,
				"element": "C" 
			},
			{
				"x": -0.640616542,
				"y": -1.8008562702,
				"z": 3.2648650822,
				"element": "N" 
			},
			{
				"x": -0.4269778707,
				"y": -0.5836609331,
				"z": 3.5994520904,
				"element": "C" 
			},
			{
				"x": 0.3007874265,
				"y": 0.379102322,
				"z": 2.896673811,
				"element": "N" 
			},
			{
				"x": 1.5767323449,
				"y": 0.2462577556,
				"z": 2.3548198666,
				"element": "C" 
			},
			{
				"x": 2.0818596085,
				"y": 1.1101701063,
				"z": 1.668911697,
				"element": "O" 
			},
			{
				"x": 2.1653039604,
				"y": -0.9052586096,
				"z": 2.7135793817,
				"element": "O" 
			},
			{
				"x": 3.459972559,
				"y": -1.1288184702,
				"z": 2.1273871288,
				"element": "C" 
			},
			{
				"x": -1.0267998973,
				"y": -0.1662052111,
				"z": 4.7941730427,
				"element": "N" 
			},
			{
				"x": -1.0346482368,
				"y": 1.0163481844,
				"z": 5.5205839572,
				"element": "C" 
			},
			{
				"x": -1.5769930877,
				"y": 1.1027090774,
				"z": 6.6005436961,
				"element": "O" 
			},
			{
				"x": -0.4136595752,
				"y": 2.0351007989,
				"z": 4.887877332,
				"element": "O" 
			},
			{
				"x": -0.4293709447,
				"y": 3.2889534645,
				"z": 5.6016853227,
				"element": "C" 
			},
			{
				"x": -1.9693814033,
				"y": 1.7861690871,
				"z": -2.8398593269,
				"element": "H" 
			},
			{
				"x": -1.9291749761,
				"y": 3.4623959739,
				"z": -2.232775542,
				"element": "H" 
			},
			{
				"x": -3.0181613481,
				"y": 2.2736405665,
				"z": -1.4698094952,
				"element": "H" 
			},
			{
				"x": 0.0701811566,
				"y": 0.6520447566,
				"z": -0.1719872402,
				"element": "H" 
			},
			{
				"x": -0.9800367813,
				"y": 0.1121526583,
				"z": -1.4894588942,
				"element": "H" 
			},
			{
				"x": -2.6296954449,
				"y": -0.9264018426,
				"z": 1.7113745938,
				"element": "H" 
			},
			{
				"x": -1.3160098829,
				"y": -2.1494911188,
				"z": -1.2661030125,
				"element": "H" 
			},
			{
				"x": 1.8062130734,
				"y": -1.7044984145,
				"z": -2.2450279981,
				"element": "H" 
			},
			{
				"x": 1.7445112624,
				"y": 0.0370767132,
				"z": -4.0036670269,
				"element": "H" 
			},
			{
				"x": 0.3857212058,
				"y": -0.3090367968,
				"z": -6.0585211532,
				"element": "H" 
			},
			{
				"x": -0.9310241748,
				"y": -2.4015998286,
				"z": -6.3284828636,
				"element": "H" 
			},
			{
				"x": -0.9162139817,
				"y": -4.1193581511,
				"z": -4.538097453,
				"element": "H" 
			},
			{
				"x": 1.5509357962,
				"y": -4.7788633163,
				"z": 0.5658289649,
				"element": "H" 
			},
			{
				"x": 1.0294698472,
				"y": -3.7705493366,
				"z": 2.7759274407,
				"element": "H" 
			},
			{
				"x": 0.0167638578,
				"y": 1.344453208,
				"z": 3.0100866519,
				"element": "H" 
			},
			{
				"x": 4.150121848,
				"y": -0.3316955613,
				"z": 2.411129771,
				"element": "H" 
			},
			{
				"x": 3.3847571619,
				"y": -1.1700053572,
				"z": 1.0385449243,
				"element": "H" 
			},
			{
				"x": 3.7934399293,
				"y": -2.0875620268,
				"z": 2.5222432814,
				"element": "H" 
			},
			{
				"x": -1.568753391,
				"y": -0.8995243758,
				"z": 5.2333832618,
				"element": "H" 
			},
			{
				"x": 0.0606554647,
				"y": 3.1786691653,
				"z": 6.5707589104,
				"element": "H" 
			},
			{
				"x": 0.1174526959,
				"y": 3.9856439512,
				"z": 4.9677554004,
				"element": "H" 
			},
			{
				"x": -1.4568426483,
				"y": 3.6258492404,
				"z": 5.7513460813,
				"element": "H" 
			}
		],
		 "valence_orbital": [ 
			{
				"type": "occ",
				"energy": -0.26105,
				"method": "rhf"
			},
			{
				"type": "occ",
				"energy": -0.25291,
				"method": "rhf"
			},
			{
				"type": "occ",
				"energy": -0.24471,
				"method": "rhf"
			},
			{
				"type": "occ",
				"energy": -0.23049,
				"method": "rhf"
			},
			{
				"type": "occ",
				"energy": -0.20514,
				"method": "rhf"
			},
			{
				"type": "unocc",
				"energy": -0.03913,
				"method": "rhf"
			},
			{
				"type": "unocc",
				"energy": -0.02312,
				"method": "rhf"
			},
			{
				"type": "unocc",
				"energy": -0.01959,
				"method": "rhf"
			},
			{
				"type": "unocc",
				"energy": -0.00942,
				"method": "rhf"
			},
			{
				"type": "unocc",
				"energy": -0.00584,
				"method": "rhf"
			}
		],
		"cosmo_sigma_profile": { 
			"-0.025": 0.0,
			"-0.024": 0.0,
			"-0.023": 0.0,
			"-0.022": 0.0,
			"-0.021": 0.0,
			"-0.02": 0.0,
			"-0.019": 0.0,
			"-0.018": 0.0,
			"-0.017": 0.0,
			"-0.016": 0.0498427575981,
			"-0.015": 0.748142675064,
			"-0.014": 0.462976293953,
			"-0.013": 1.44651998924,
			"-0.012": 1.9455439893,
			"-0.011": 1.60024601011,
			"-0.01": 2.06033513544,
			"-0.009": 3.7430875789,
			"-0.008": 3.94535007784,
			"-0.007": 9.89055197429,
			"-0.006": 31.9125023311,
			"-0.005": 36.9725352189,
			"-0.004": 49.0446262551,
			"-0.003": 43.7081712354,
			"-0.002": 37.6352133159,
			"-0.001": 33.9597533453,
			"0.0": 27.5935436834,
			"0.001": 24.1433606059,
			"0.002": 27.9210847283,
			"0.003": 25.2199651008,
			"0.004": 26.138133534,
			"0.005": 16.2211678552,
			"0.006": 10.7605607517,
			"0.007": 8.00680266702,
			"0.008": 7.35128622035,
			"0.009": 6.43212612968,
			"0.01": 6.23093318869,
			"0.011": 11.333979911,
			"0.012": 11.949901737,
			"0.013": 7.45283556887,
			"0.014": 2.4702951184,
			"0.015": 0.150440385532,
			"0.016": 0.0,
			"0.017": 0.0,
			"0.018": 0.0,
			"0.019": 0.0,
			"0.02": 0.0,
			"0.021": 0.0,
			"0.022": 0.0,
			"0.023": 0.0,
			"0.024": 0.0,
			"0.025": 0.0
		}
	}
}
