{
	 "smiles": "OC1=CC=C(C(=O)CC2=CC=CC=C2)C(O)=C1", 
	 "Tm": 387.15, 
	 "num_atms": 29, 
	 "gaussian": { 
		 "optdone": 1, 
		 "sigma_profile": "yes", 
		 "theory": "DFT", 
		 "functional": "B3LYP", 
		 "basiset": "6-31G**", 
		 "properties": { 
			 "R2extent": 6614.4225, 
			 "electric_dipole_moment_norm": 2.18700901004, 
			 "electric_quadrupole_moment_norm": 12.8827721698, 
			 "total_energy": -766.407324796, 
			 "HOMO_LUMO_gap": 0.1683, 
			 "cosmo_polarized_energy": -13.42, 
			 "cosmo_cavitation_energy": 32.99, 
			 "cosmo_dispersion_energy": -23.86, 
			 "cosmo_repulsion_energy": 1.83, 
			 "cosmo_total_nonelectrostatic_energy": 10.96, 
			 "SMD_solvation_energy": 6.42 
		},
		"coords": [
			{
				"x": 1.2587738675,
				"y": -6.576225657,
				"z": -0.3848182342,
				"element": "O" 
			},
			{
				"x": 1.5179414707,
				"y": -5.2440291893,
				"z": -0.4105895801,
				"element": "C" 
			},
			{
				"x": 0.9295613571,
				"y": -4.5034435002,
				"z": -1.4565005781,
				"element": "C" 
			},
			{
				"x": 1.166464448,
				"y": -3.1466384701,
				"z": -1.5291171199,
				"element": "C" 
			},
			{
				"x": 1.9782752014,
				"y": -2.4726300283,
				"z": -0.5876213179,
				"element": "C" 
			},
			{
				"x": 2.2485386434,
				"y": -1.0399096224,
				"z": -0.6476545646,
				"element": "C" 
			},
			{
				"x": 2.9467359324,
				"y": -0.4779893342,
				"z": 0.2201500525,
				"element": "O" 
			},
			{
				"x": 1.6692566354,
				"y": -0.1674148351,
				"z": -1.758582579,
				"element": "C" 
			},
			{
				"x": 0.248731515,
				"y": 0.2895315365,
				"z": -1.4555916678,
				"element": "C" 
			},
			{
				"x": -0.7869961859,
				"y": 0.0725762465,
				"z": -2.371782036,
				"element": "C" 
			},
			{
				"x": -2.0850991942,
				"y": 0.5089608338,
				"z": -2.0983112485,
				"element": "C" 
			},
			{
				"x": -2.3638570518,
				"y": 1.1664847627,
				"z": -0.8999929709,
				"element": "C" 
			},
			{
				"x": -1.3363828152,
				"y": 1.3877151283,
				"z": 0.0203819922,
				"element": "C" 
			},
			{
				"x": -0.0401316575,
				"y": 0.9535482268,
				"z": -0.2547225651,
				"element": "C" 
			},
			{
				"x": 2.5548575073,
				"y": -3.2432247384,
				"z": 0.4691199503,
				"element": "C" 
			},
			{
				"x": 3.3250101452,
				"y": -2.6884628829,
				"z": 1.4081726748,
				"element": "O" 
			},
			{
				"x": 2.3206826246,
				"y": -4.6229222863,
				"z": 0.5411480685,
				"element": "C" 
			},
			{
				"x": 1.7090913759,
				"y": -6.9765219656,
				"z": 0.3711759155,
				"element": "H" 
			},
			{
				"x": 0.303708689,
				"y": -5.015879686,
				"z": -2.1777015656,
				"element": "H" 
			},
			{
				"x": 0.7005459224,
				"y": -2.5801368136,
				"z": -2.3272685949,
				"element": "H" 
			},
			{
				"x": 2.3339988153,
				"y": 0.6993496994,
				"z": -1.8282481926,
				"element": "H" 
			},
			{
				"x": 1.6976544455,
				"y": -0.6863423614,
				"z": -2.7204690295,
				"element": "H" 
			},
			{
				"x": -0.5763211577,
				"y": -0.4330571148,
				"z": -3.3114053899,
				"element": "H" 
			},
			{
				"x": -2.876018263,
				"y": 0.334375443,
				"z": -2.8223194548,
				"element": "H" 
			},
			{
				"x": -3.3729416477,
				"y": 1.5057353326,
				"z": -0.6847260635,
				"element": "H" 
			},
			{
				"x": -1.5443662653,
				"y": 1.9007409807,
				"z": 0.9551312491,
				"element": "H" 
			},
			{
				"x": 0.7574184733,
				"y": 1.1265058149,
				"z": 0.4623143742,
				"element": "H" 
			},
			{
				"x": 3.3615597211,
				"y": -1.7147449951,
				"z": 1.1894575055,
				"element": "H" 
			},
			{
				"x": 2.7765074479,
				"y": -5.1810505245,
				"z": 1.3540709702,
				"element": "H" 
			}
		],
		 "valence_orbital": [ 
			{
				"type": "occ",
				"energy": -0.2659,
				"method": "rhf"
			},
			{
				"type": "occ",
				"energy": -0.25233,
				"method": "rhf"
			},
			{
				"type": "occ",
				"energy": -0.24612,
				"method": "rhf"
			},
			{
				"type": "occ",
				"energy": -0.24096,
				"method": "rhf"
			},
			{
				"type": "occ",
				"energy": -0.22534,
				"method": "rhf"
			},
			{
				"type": "unocc",
				"energy": -0.05704,
				"method": "rhf"
			},
			{
				"type": "unocc",
				"energy": -0.00732,
				"method": "rhf"
			},
			{
				"type": "unocc",
				"energy": -0.00287,
				"method": "rhf"
			},
			{
				"type": "unocc",
				"energy": 0.00383,
				"method": "rhf"
			},
			{
				"type": "unocc",
				"energy": 0.04412,
				"method": "rhf"
			}
		],
		"cosmo_sigma_profile": { 
			"-0.025": 0.0,
			"-0.024": 0.0,
			"-0.023": 0.0,
			"-0.022": 0.0,
			"-0.021": 0.0,
			"-0.02": 0.0,
			"-0.019": 0.136638123666,
			"-0.018": 1.11448888232,
			"-0.017": 1.22123725476,
			"-0.016": 1.18781955457,
			"-0.015": 0.623300565205,
			"-0.014": 1.12432479652,
			"-0.013": 0.97050410062,
			"-0.012": 1.16818839951,
			"-0.011": 0.7314313367,
			"-0.01": 1.23886294833,
			"-0.009": 1.21478951032,
			"-0.008": 3.14365332582,
			"-0.007": 4.49254309663,
			"-0.006": 12.7401593918,
			"-0.005": 17.7116485119,
			"-0.004": 18.3937509355,
			"-0.003": 18.197927872,
			"-0.002": 17.6772835068,
			"-0.001": 15.5405234102,
			"0.0": 16.6501454087,
			"0.001": 18.2346535909,
			"0.002": 22.0446884898,
			"0.003": 25.5274646804,
			"0.004": 16.8283753583,
			"0.005": 13.3552135766,
			"0.006": 9.93880912285,
			"0.007": 3.9522419388,
			"0.008": 3.88200034466,
			"0.009": 4.59461966218,
			"0.01": 4.25765060098,
			"0.011": 4.13442644757,
			"0.012": 1.36882803085,
			"0.013": 0.325553991228,
			"0.014": 0.0,
			"0.015": 0.0,
			"0.016": 0.0,
			"0.017": 0.0,
			"0.018": 0.0,
			"0.019": 0.0,
			"0.02": 0.0,
			"0.021": 0.0,
			"0.022": 0.0,
			"0.023": 0.0,
			"0.024": 0.0,
			"0.025": 0.0
		}
	}
}
