{
	 "smiles": "CC1=C(Br)C(=N)ON1", 
	 "Tm": 341.15, 
	 "num_atms": 13, 
	 "gaussian": { 
		 "optdone": 1, 
		 "sigma_profile": "yes", 
		 "theory": "DFT", 
		 "functional": "B3LYP", 
		 "basiset": "6-31G**", 
		 "properties": { 
			 "R2extent": 2901.4734, 
			 "electric_dipole_moment_norm": 4.49578443656, 
			 "electric_quadrupole_moment_norm": 10.7951409231, 
			 "total_energy": -2911.49119336, 
			 "HOMO_LUMO_gap": 0.19196, 
			 "cosmo_polarized_energy": -14.03, 
			 "cosmo_cavitation_energy": 19.71, 
			 "cosmo_dispersion_energy": -15.09, 
			 "cosmo_repulsion_energy": 1.27, 
			 "cosmo_total_nonelectrostatic_energy": 5.88, 
			 "SMD_solvation_energy": 2.37 
		},
		"coords": [
			{
				"x": 1.4367343756,
				"y": 0.9794149401,
				"z": -1.2849515264,
				"element": "C" 
			},
			{
				"x": 0.6926674921,
				"y": -0.2899702327,
				"z": -1.0497440089,
				"element": "C" 
			},
			{
				"x": -0.1027839408,
				"y": -1.0196628104,
				"z": -1.8583957249,
				"element": "C" 
			},
			{
				"x": -0.5957821388,
				"y": -0.6390606952,
				"z": -3.6240870319,
				"element": "Br" 
			},
			{
				"x": -0.572619738,
				"y": -2.1938159794,
				"z": -1.1333523701,
				"element": "C" 
			},
			{
				"x": -1.3473297628,
				"y": -3.1217009363,
				"z": -1.5127002796,
				"element": "N" 
			},
			{
				"x": 0.0010627308,
				"y": -2.1090233945,
				"z": 0.1365199959,
				"element": "O" 
			},
			{
				"x": 0.703447846,
				"y": -0.8604654399,
				"z": 0.2339249145,
				"element": "N" 
			},
			{
				"x": 1.3205541914,
				"y": 1.2892391072,
				"z": -2.3244454715,
				"element": "H" 
			},
			{
				"x": 2.5061817938,
				"y": 0.857222985,
				"z": -1.0753502831,
				"element": "H" 
			},
			{
				"x": 1.0595085977,
				"y": 1.7739350511,
				"z": -0.6327157867,
				"element": "H" 
			},
			{
				"x": -1.4899184033,
				"y": -3.8113941615,
				"z": -0.7737580683,
				"element": "H" 
			},
			{
				"x": 1.6331769564,
				"y": -1.0934184336,
				"z": 0.5861556411,
				"element": "H" 
			}
		],
		 "valence_orbital": [ 
			{
				"type": "occ",
				"energy": -0.33415,
				"method": "rhf"
			},
			{
				"type": "occ",
				"energy": -0.29239,
				"method": "rhf"
			},
			{
				"type": "occ",
				"energy": -0.27758,
				"method": "rhf"
			},
			{
				"type": "occ",
				"energy": -0.2751,
				"method": "rhf"
			},
			{
				"type": "occ",
				"energy": -0.22029,
				"method": "rhf"
			},
			{
				"type": "unocc",
				"energy": -0.02833,
				"method": "rhf"
			},
			{
				"type": "unocc",
				"energy": 0.00988,
				"method": "rhf"
			},
			{
				"type": "unocc",
				"energy": 0.04955,
				"method": "rhf"
			},
			{
				"type": "unocc",
				"energy": 0.07982,
				"method": "rhf"
			},
			{
				"type": "unocc",
				"energy": 0.0831,
				"method": "rhf"
			}
		],
		"cosmo_sigma_profile": { 
			"-0.025": 0.0,
			"-0.024": 0.0,
			"-0.023": 0.0,
			"-0.022": 0.0,
			"-0.021": 0.0,
			"-0.02": 0.0,
			"-0.019": 0.0,
			"-0.018": 0.0,
			"-0.017": 0.089767139992,
			"-0.016": 1.58049355283,
			"-0.015": 1.64655487463,
			"-0.014": 1.60196176863,
			"-0.013": 1.56660941845,
			"-0.012": 0.816200889763,
			"-0.011": 2.12366547357,
			"-0.01": 2.01265466168,
			"-0.009": 2.61422921304,
			"-0.008": 1.87183908984,
			"-0.007": 3.70999262849,
			"-0.006": 6.53794646369,
			"-0.005": 8.64737578035,
			"-0.004": 10.393974775,
			"-0.003": 10.5876563369,
			"-0.002": 12.2307042445,
			"-0.001": 8.54382644184,
			"0.0": 9.42418107308,
			"0.001": 10.8102599408,
			"0.002": 10.1324860464,
			"0.003": 9.73221829874,
			"0.004": 10.7227458235,
			"0.005": 5.1378421145,
			"0.006": 3.79638204996,
			"0.007": 4.75463355877,
			"0.008": 4.58696689292,
			"0.009": 3.23215053799,
			"0.01": 1.43568178521,
			"0.011": 2.22174822427,
			"0.012": 1.44589532602,
			"0.013": 1.36929388892,
			"0.014": 1.38834294681,
			"0.015": 1.15770064155,
			"0.016": 1.23061292928,
			"0.017": 0.913768290124,
			"0.018": 0.105003158962,
			"0.019": 0.0,
			"0.02": 0.0,
			"0.021": 0.0,
			"0.022": 0.0,
			"0.023": 0.0,
			"0.024": 0.0,
			"0.025": 0.0
		}
	}
}
