{
	 "smiles": "NC(=O)C1=C(S)N=CC=C1", 
	 "Tm": 571.15, 
	 "num_atms": 16, 
	 "gaussian": { 
		 "optdone": 1, 
		 "sigma_profile": "yes", 
		 "theory": "DFT", 
		 "functional": "B3LYP", 
		 "basiset": "6-31G**", 
		 "properties": { 
			 "R2extent": 1706.1703, 
			 "electric_dipole_moment_norm": 5.54891759355, 
			 "electric_quadrupole_moment_norm": 6.50706383479, 
			 "total_energy": -815.177247054, 
			 "HOMO_LUMO_gap": 0.16981, 
			 "cosmo_polarized_energy": -15.48, 
			 "cosmo_cavitation_energy": 21.75, 
			 "cosmo_dispersion_energy": -17.05, 
			 "cosmo_repulsion_energy": 1.33, 
			 "cosmo_total_nonelectrostatic_energy": 6.03, 
			 "SMD_solvation_energy": 2.52 
		},
		"coords": [
			{
				"x": 2.4753517143,
				"y": 1.1219073702,
				"z": 1.314628034,
				"element": "N" 
			},
			{
				"x": 2.0846936504,
				"y": 0.1232498504,
				"z": 0.4582553549,
				"element": "C" 
			},
			{
				"x": 2.927616254,
				"y": -0.5285095646,
				"z": -0.1590810441,
				"element": "O" 
			},
			{
				"x": 0.6068137604,
				"y": -0.1173358779,
				"z": 0.371612606,
				"element": "C" 
			},
			{
				"x": -0.027189781,
				"y": -0.7147993709,
				"z": -0.7532199173,
				"element": "C" 
			},
			{
				"x": 0.796809857,
				"y": -1.3387548617,
				"z": -2.1933200668,
				"element": "S" 
			},
			{
				"x": -1.3592726007,
				"y": -0.8481353159,
				"z": -0.8337273393,
				"element": "N" 
			},
			{
				"x": -2.1160903521,
				"y": -0.4575849856,
				"z": 0.1905125713,
				"element": "C" 
			},
			{
				"x": -1.5981696443,
				"y": 0.0774958937,
				"z": 1.3702534367,
				"element": "C" 
			},
			{
				"x": -0.2215555582,
				"y": 0.2485527081,
				"z": 1.4437835491,
				"element": "C" 
			},
			{
				"x": 3.4615246354,
				"y": 1.3398820626,
				"z": 1.2953679824,
				"element": "H" 
			},
			{
				"x": 1.8449844937,
				"y": 1.870341347,
				"z": 1.5555165293,
				"element": "H" 
			},
			{
				"x": 2.0416476591,
				"y": -1.225055629,
				"z": -1.6708323686,
				"element": "H" 
			},
			{
				"x": -3.1893400198,
				"y": -0.5915383376,
				"z": 0.0655883348,
				"element": "H" 
			},
			{
				"x": -2.2481198124,
				"y": 0.3475037497,
				"z": 2.1953784183,
				"element": "H" 
			},
			{
				"x": 0.2249957444,
				"y": 0.6444809615,
				"z": 2.3508839192,
				"element": "H" 
			}
		],
		 "valence_orbital": [ 
			{
				"type": "occ",
				"energy": -0.29323,
				"method": "rhf"
			},
			{
				"type": "occ",
				"energy": -0.28858,
				"method": "rhf"
			},
			{
				"type": "occ",
				"energy": -0.27296,
				"method": "rhf"
			},
			{
				"type": "occ",
				"energy": -0.26245,
				"method": "rhf"
			},
			{
				"type": "occ",
				"energy": -0.22764,
				"method": "rhf"
			},
			{
				"type": "unocc",
				"energy": -0.05783,
				"method": "rhf"
			},
			{
				"type": "unocc",
				"energy": -0.03054,
				"method": "rhf"
			},
			{
				"type": "unocc",
				"energy": 0.03326,
				"method": "rhf"
			},
			{
				"type": "unocc",
				"energy": 0.04296,
				"method": "rhf"
			},
			{
				"type": "unocc",
				"energy": 0.07274,
				"method": "rhf"
			}
		],
		"cosmo_sigma_profile": { 
			"-0.025": 0.0,
			"-0.024": 0.0,
			"-0.023": 0.0,
			"-0.022": 0.0,
			"-0.021": 0.0,
			"-0.02": 0.0,
			"-0.019": 0.0,
			"-0.018": 0.0,
			"-0.017": 0.0,
			"-0.016": 0.0,
			"-0.015": 0.863846146225,
			"-0.014": 2.29657954212,
			"-0.013": 2.25814258304,
			"-0.012": 2.98745472347,
			"-0.011": 2.85139126478,
			"-0.01": 2.66369517397,
			"-0.009": 2.46559757924,
			"-0.008": 3.44346177056,
			"-0.007": 8.1653086945,
			"-0.006": 8.21814347253,
			"-0.005": 8.05254866262,
			"-0.004": 6.53780975611,
			"-0.003": 8.42431432489,
			"-0.002": 8.93117458299,
			"-0.001": 9.45556849012,
			"0.0": 14.3215483191,
			"0.001": 15.4111156371,
			"0.002": 11.1583577598,
			"0.003": 7.5202010799,
			"0.004": 8.83652729015,
			"0.005": 6.99041103242,
			"0.006": 6.61617026962,
			"0.007": 8.22164380614,
			"0.008": 4.99185285489,
			"0.009": 2.70401162366,
			"0.01": 2.31202539218,
			"0.011": 3.90042649518,
			"0.012": 2.91803542165,
			"0.013": 2.40758695636,
			"0.014": 0.803832739125,
			"0.015": 0.327978223566,
			"0.016": 0.0,
			"0.017": 0.0,
			"0.018": 0.0,
			"0.019": 0.0,
			"0.02": 0.0,
			"0.021": 0.0,
			"0.022": 0.0,
			"0.023": 0.0,
			"0.024": 0.0,
			"0.025": 0.0
		}
	}
}
