{
	 "smiles": "CC1=NC(=CS1)C1=CC=C(S1)C=O", 
	 "Tm": 401.15, 
	 "num_atms": 20, 
	 "gaussian": { 
		 "optdone": 1, 
		 "sigma_profile": "yes", 
		 "theory": "DFT", 
		 "functional": "B3LYP", 
		 "basiset": "6-31G**", 
		 "properties": { 
			 "R2extent": 4672.2979, 
			 "electric_dipole_moment_norm": 5.23852970021, 
			 "electric_quadrupole_moment_norm": 10.4782129989, 
			 "total_energy": -1273.5066756, 
			 "HOMO_LUMO_gap": 0.14661, 
			 "cosmo_polarized_energy": -11.49, 
			 "cosmo_cavitation_energy": 28.58, 
			 "cosmo_dispersion_energy": -21.75, 
			 "cosmo_repulsion_energy": 1.62, 
			 "cosmo_total_nonelectrostatic_energy": 8.46, 
			 "SMD_solvation_energy": 4.34 
		},
		"coords": [
			{
				"x": -0.1019717531,
				"y": -4.1117442279,
				"z": -2.2715888009,
				"element": "C" 
			},
			{
				"x": 0.239116622,
				"y": -2.6810167966,
				"z": -2.5534221072,
				"element": "C" 
			},
			{
				"x": 0.2084837548,
				"y": -1.7307531396,
				"z": -1.6693338728,
				"element": "N" 
			},
			{
				"x": 0.5711470288,
				"y": -0.5055433461,
				"z": -2.2049458054,
				"element": "C" 
			},
			{
				"x": 0.8870498302,
				"y": -0.5317081965,
				"z": -3.5415665686,
				"element": "C" 
			},
			{
				"x": 0.7288047067,
				"y": -2.1376833248,
				"z": -4.1613295664,
				"element": "S" 
			},
			{
				"x": 0.5845674967,
				"y": 0.6602338628,
				"z": -1.3329618956,
				"element": "C" 
			},
			{
				"x": 0.9070527863,
				"y": 1.9739422132,
				"z": -1.6329202388,
				"element": "C" 
			},
			{
				"x": 0.8056564552,
				"y": 2.8372543693,
				"z": -0.5226621428,
				"element": "C" 
			},
			{
				"x": 0.4056754469,
				"y": 2.1890949646,
				"z": 0.6304004366,
				"element": "C" 
			},
			{
				"x": 0.1494690771,
				"y": 0.4846008621,
				"z": 0.3424169999,
				"element": "S" 
			},
			{
				"x": 0.2039078314,
				"y": 2.787205551,
				"z": 1.9484094406,
				"element": "C" 
			},
			{
				"x": 0.3732478734,
				"y": 3.972058777,
				"z": 2.1851961026,
				"element": "O" 
			},
			{
				"x": -0.371940794,
				"y": -4.2019044052,
				"z": -1.2180708988,
				"element": "H" 
			},
			{
				"x": 0.7458206249,
				"y": -4.7735194242,
				"z": -2.4771402053,
				"element": "H" 
			},
			{
				"x": -0.9450629852,
				"y": -4.4502777239,
				"z": -2.8827707461,
				"element": "H" 
			},
			{
				"x": 1.1958337069,
				"y": 0.2847823181,
				"z": -4.1777105822,
				"element": "H" 
			},
			{
				"x": 1.2061293719,
				"y": 2.2978092075,
				"z": -2.6233956888,
				"element": "H" 
			},
			{
				"x": 1.0124172376,
				"y": 3.9006894846,
				"z": -0.538887479,
				"element": "H" 
			},
			{
				"x": -0.1213043187,
				"y": 2.0845789745,
				"z": 2.7459836189,
				"element": "H" 
			}
		],
		 "valence_orbital": [ 
			{
				"type": "occ",
				"energy": -0.28882,
				"method": "rhf"
			},
			{
				"type": "occ",
				"energy": -0.28179,
				"method": "rhf"
			},
			{
				"type": "occ",
				"energy": -0.26466,
				"method": "rhf"
			},
			{
				"type": "occ",
				"energy": -0.25158,
				"method": "rhf"
			},
			{
				"type": "occ",
				"energy": -0.22122,
				"method": "rhf"
			},
			{
				"type": "unocc",
				"energy": -0.07461,
				"method": "rhf"
			},
			{
				"type": "unocc",
				"energy": -0.03648,
				"method": "rhf"
			},
			{
				"type": "unocc",
				"energy": -0.00143,
				"method": "rhf"
			},
			{
				"type": "unocc",
				"energy": 0.00329,
				"method": "rhf"
			},
			{
				"type": "unocc",
				"energy": 0.02963,
				"method": "rhf"
			}
		],
		"cosmo_sigma_profile": { 
			"-0.025": 0.0,
			"-0.024": 0.0,
			"-0.023": 0.0,
			"-0.022": 0.0,
			"-0.021": 0.0,
			"-0.02": 0.0,
			"-0.019": 0.0,
			"-0.018": 0.0,
			"-0.017": 0.0,
			"-0.016": 0.0,
			"-0.015": 0.0,
			"-0.014": 0.0,
			"-0.013": 0.0,
			"-0.012": 0.0,
			"-0.011": 0.0,
			"-0.01": 1.44913957439,
			"-0.009": 3.54886173959,
			"-0.008": 4.32148276408,
			"-0.007": 9.17937189155,
			"-0.006": 12.6913770818,
			"-0.005": 16.3743556552,
			"-0.004": 13.5458148106,
			"-0.003": 13.417999149,
			"-0.002": 17.4721882306,
			"-0.001": 14.4583624308,
			"0.0": 15.9956439118,
			"0.001": 25.5056995757,
			"0.002": 30.551049225,
			"0.003": 18.6233231927,
			"0.004": 5.88194200115,
			"0.005": 4.43297970105,
			"0.006": 3.45396176907,
			"0.007": 2.72087619642,
			"0.008": 2.57705137728,
			"0.009": 4.11151780567,
			"0.01": 3.28955793364,
			"0.011": 4.62199707056,
			"0.012": 4.40163740781,
			"0.013": 1.57616562276,
			"0.014": 0.111645287727,
			"0.015": 0.0,
			"0.016": 0.0,
			"0.017": 0.0,
			"0.018": 0.0,
			"0.019": 0.0,
			"0.02": 0.0,
			"0.021": 0.0,
			"0.022": 0.0,
			"0.023": 0.0,
			"0.024": 0.0,
			"0.025": 0.0
		}
	}
}
