{
	 "smiles": "COC1(OC)C2O[C@](C)(C=C2)C1C(O)=O", 
	 "Tm": 450.15, 
	 "num_atms": 29, 
	 "gaussian": { 
		 "optdone": 1, 
		 "sigma_profile": "yes", 
		 "theory": "DFT", 
		 "functional": "B3LYP", 
		 "basiset": "6-31G**", 
		 "properties": { 
			 "R2extent": 2822.3745, 
			 "electric_dipole_moment_norm": 1.85959080983, 
			 "electric_quadrupole_moment_norm": 8.45577670176, 
			 "total_energy": -765.55604537, 
			 "HOMO_LUMO_gap": 0.2331, 
			 "cosmo_polarized_energy": -14.12, 
			 "cosmo_cavitation_energy": 30.3, 
			 "cosmo_dispersion_energy": -21.45, 
			 "cosmo_repulsion_energy": 1.68, 
			 "cosmo_total_nonelectrostatic_energy": 10.53, 
			 "SMD_solvation_energy": 6.96 
		},
		"coords": [
			{
				"x": 1.914666515,
				"y": -1.0541377414,
				"z": 1.0161753785,
				"element": "C" 
			},
			{
				"x": 0.640741012,
				"y": -0.406869662,
				"z": 1.0101275523,
				"element": "O" 
			},
			{
				"x": 0.5219405853,
				"y": 0.7606182638,
				"z": 0.2379991203,
				"element": "C" 
			},
			{
				"x": 1.6340835973,
				"y": 1.6104093953,
				"z": 0.3913956957,
				"element": "O" 
			},
			{
				"x": 1.819597375,
				"y": 2.1784121757,
				"z": 1.6848753305,
				"element": "C" 
			},
			{
				"x": -0.8524128486,
				"y": 1.4359049278,
				"z": 0.6090489316,
				"element": "C" 
			},
			{
				"x": -1.0688755297,
				"y": 2.2558202309,
				"z": -0.5410606025,
				"element": "O" 
			},
			{
				"x": -1.1304198249,
				"y": 1.1854455411,
				"z": -1.5067582244,
				"element": "C" 
			},
			{
				"x": -1.469886047,
				"y": 1.7006783356,
				"z": -2.8869813915,
				"element": "C" 
			},
			{
				"x": -2.1086918679,
				"y": 0.2189131737,
				"z": -0.8336781903,
				"element": "C" 
			},
			{
				"x": -1.9342881488,
				"y": 0.3790817829,
				"z": 0.4788068532,
				"element": "C" 
			},
			{
				"x": 0.323713214,
				"y": 0.5987925527,
				"z": -1.3267830693,
				"element": "C" 
			},
			{
				"x": 0.5080046623,
				"y": -0.772593079,
				"z": -1.9284940821,
				"element": "C" 
			},
			{
				"x": 1.7875281558,
				"y": -0.9714720421,
				"z": -2.3465336409,
				"element": "O" 
			},
			{
				"x": -0.3481583983,
				"y": -1.6153514259,
				"z": -2.0921606845,
				"element": "O" 
			},
			{
				"x": 1.751286165,
				"y": -2.0238937743,
				"z": 1.491092757,
				"element": "H" 
			},
			{
				"x": 2.6533684047,
				"y": -0.4905827026,
				"z": 1.5967452894,
				"element": "H" 
			},
			{
				"x": 2.309267774,
				"y": -1.2033217433,
				"z": 0.0076535873,
				"element": "H" 
			},
			{
				"x": 1.1957807271,
				"y": 3.0701060776,
				"z": 1.8242678345,
				"element": "H" 
			},
			{
				"x": 1.6028881534,
				"y": 1.458769401,
				"z": 2.4825496651,
				"element": "H" 
			},
			{
				"x": 2.8694878528,
				"y": 2.4746735651,
				"z": 1.7457129619,
				"element": "H" 
			},
			{
				"x": -0.8307728894,
				"y": 2.0300260466,
				"z": 1.5215715038,
				"element": "H" 
			},
			{
				"x": -0.7335007129,
				"y": 2.4399557034,
				"z": -3.215534407,
				"element": "H" 
			},
			{
				"x": -1.4864733886,
				"y": 0.8763251133,
				"z": -3.6062218203,
				"element": "H" 
			},
			{
				"x": -2.4562695826,
				"y": 2.1726987497,
				"z": -2.8784146074,
				"element": "H" 
			},
			{
				"x": -2.720812976,
				"y": -0.5032372469,
				"z": -1.3551605791,
				"element": "H" 
			},
			{
				"x": -2.3674894064,
				"y": -0.1820603134,
				"z": 1.2959516193,
				"element": "H" 
			},
			{
				"x": 1.0409142876,
				"y": 1.2760565885,
				"z": -1.793735238,
				"element": "H" 
			},
			{
				"x": 1.80328314,
				"y": -1.8645678937,
				"z": -2.731457543,
				"element": "H" 
			}
		],
		 "valence_orbital": [ 
			{
				"type": "occ",
				"energy": -0.28293,
				"method": "rhf"
			},
			{
				"type": "occ",
				"energy": -0.2786,
				"method": "rhf"
			},
			{
				"type": "occ",
				"energy": -0.27201,
				"method": "rhf"
			},
			{
				"type": "occ",
				"energy": -0.25308,
				"method": "rhf"
			},
			{
				"type": "occ",
				"energy": -0.23476,
				"method": "rhf"
			},
			{
				"type": "unocc",
				"energy": -0.00166,
				"method": "rhf"
			},
			{
				"type": "unocc",
				"energy": 0.01613,
				"method": "rhf"
			},
			{
				"type": "unocc",
				"energy": 0.07476,
				"method": "rhf"
			},
			{
				"type": "unocc",
				"energy": 0.09379,
				"method": "rhf"
			},
			{
				"type": "unocc",
				"energy": 0.10083,
				"method": "rhf"
			}
		],
		"cosmo_sigma_profile": { 
			"-0.025": 0.0,
			"-0.024": 0.0,
			"-0.023": 0.0,
			"-0.022": 0.0,
			"-0.021": 0.0,
			"-0.02": 0.0,
			"-0.019": 0.0,
			"-0.018": 0.785093731697,
			"-0.017": 1.03029007785,
			"-0.016": 0.685482561106,
			"-0.015": 0.624852628029,
			"-0.014": 0.76446797853,
			"-0.013": 0.685520417709,
			"-0.012": 0.564383106751,
			"-0.011": 1.10483839767,
			"-0.01": 0.681072214024,
			"-0.009": 0.709830251475,
			"-0.008": 0.524488825226,
			"-0.007": 4.30218465511,
			"-0.006": 8.53705094602,
			"-0.005": 17.5706585719,
			"-0.004": 26.8411704312,
			"-0.003": 27.655857142,
			"-0.002": 26.4765264012,
			"-0.001": 17.1779079387,
			"0.0": 14.16978519,
			"0.001": 8.91702411958,
			"0.002": 9.02157637551,
			"0.003": 6.71258144898,
			"0.004": 6.78485220969,
			"0.005": 6.43982031775,
			"0.006": 7.48827407574,
			"0.007": 7.42822100666,
			"0.008": 5.93039265591,
			"0.009": 6.83117378412,
			"0.01": 9.17375752147,
			"0.011": 7.08459546523,
			"0.012": 3.45009410488,
			"0.013": 1.09419251326,
			"0.014": 0.0,
			"0.015": 0.0,
			"0.016": 0.0,
			"0.017": 0.0,
			"0.018": 0.0,
			"0.019": 0.0,
			"0.02": 0.0,
			"0.021": 0.0,
			"0.022": 0.0,
			"0.023": 0.0,
			"0.024": 0.0,
			"0.025": 0.0
		}
	}
}
