{
	 "smiles": "CCNS(=O)(=O)C1=CNC(=C1)C(O)=O", 
	 "Tm": 457.15, 
	 "num_atms": 24, 
	 "gaussian": { 
		 "optdone": 1, 
		 "sigma_profile": "yes", 
		 "theory": "DFT", 
		 "functional": "B3LYP", 
		 "basiset": "6-31G**", 
		 "properties": { 
			 "R2extent": 4309.8282, 
			 "electric_dipole_moment_norm": 3.95068597841, 
			 "electric_quadrupole_moment_norm": 26.458423917, 
			 "total_energy": -1081.29286389, 
			 "HOMO_LUMO_gap": 0.20566, 
			 "cosmo_polarized_energy": -27.27, 
			 "cosmo_cavitation_energy": 30.34, 
			 "cosmo_dispersion_energy": -22.2, 
			 "cosmo_repulsion_energy": 1.74, 
			 "cosmo_total_nonelectrostatic_energy": 9.88, 
			 "SMD_solvation_energy": 5.26 
		},
		"coords": [
			{
				"x": -3.6238842884,
				"y": 1.3863606834,
				"z": 2.4606709537,
				"element": "C" 
			},
			{
				"x": -2.5452391847,
				"y": 0.4488946822,
				"z": 1.9234912705,
				"element": "C" 
			},
			{
				"x": -2.0616845072,
				"y": 0.9347244004,
				"z": 0.6239337123,
				"element": "N" 
			},
			{
				"x": -1.0522062343,
				"y": -0.035793854,
				"z": -0.298686424,
				"element": "S" 
			},
			{
				"x": -1.6938466075,
				"y": -1.3487981062,
				"z": -0.3692425106,
				"element": "O" 
			},
			{
				"x": -0.7232526331,
				"y": 0.7642812593,
				"z": -1.4782315185,
				"element": "O" 
			},
			{
				"x": 0.4528434694,
				"y": -0.2573658772,
				"z": 0.6072587663,
				"element": "C" 
			},
			{
				"x": 0.7212895752,
				"y": -1.3085538387,
				"z": 1.4764521416,
				"element": "C" 
			},
			{
				"x": 1.966284765,
				"y": -1.1106040308,
				"z": 1.9721467838,
				"element": "N" 
			},
			{
				"x": 2.5183427396,
				"y": 0.0376306318,
				"z": 1.4442036659,
				"element": "C" 
			},
			{
				"x": 1.5853823821,
				"y": 0.5954307771,
				"z": 0.5835985866,
				"element": "C" 
			},
			{
				"x": 3.8798237245,
				"y": 0.3916694852,
				"z": 1.8754181111,
				"element": "C" 
			},
			{
				"x": 4.4448566265,
				"y": 1.484356721,
				"z": 1.3128712885,
				"element": "O" 
			},
			{
				"x": 4.4774128842,
				"y": -0.2626642679,
				"z": 2.7042878927,
				"element": "O" 
			},
			{
				"x": -4.0027443837,
				"y": 1.0138856856,
				"z": 3.4170393225,
				"element": "H" 
			},
			{
				"x": -4.4581351357,
				"y": 1.4593383971,
				"z": 1.7581058361,
				"element": "H" 
			},
			{
				"x": -3.2287629501,
				"y": 2.394349384,
				"z": 2.6311269669,
				"element": "H" 
			},
			{
				"x": -2.9589430642,
				"y": -0.5481039516,
				"z": 1.7536144859,
				"element": "H" 
			},
			{
				"x": -1.7261423446,
				"y": 0.352755522,
				"z": 2.6535781949,
				"element": "H" 
			},
			{
				"x": -1.7284926959,
				"y": 1.8951271722,
				"z": 0.6186840146,
				"element": "H" 
			},
			{
				"x": 0.1176497604,
				"y": -2.166105822,
				"z": 1.7306251843,
				"element": "H" 
			},
			{
				"x": 2.4787720947,
				"y": -1.6921945383,
				"z": 2.6222642182,
				"element": "H" 
			},
			{
				"x": 1.6822213492,
				"y": 1.4880291501,
				"z": -0.0190140902,
				"element": "H" 
			},
			{
				"x": 3.8635546586,
				"y": 1.8640503353,
				"z": 0.6388031468,
				"element": "H" 
			}
		],
		 "valence_orbital": [ 
			{
				"type": "occ",
				"energy": -0.30676,
				"method": "rhf"
			},
			{
				"type": "occ",
				"energy": -0.30095,
				"method": "rhf"
			},
			{
				"type": "occ",
				"energy": -0.29082,
				"method": "rhf"
			},
			{
				"type": "occ",
				"energy": -0.27668,
				"method": "rhf"
			},
			{
				"type": "occ",
				"energy": -0.25869,
				"method": "rhf"
			},
			{
				"type": "unocc",
				"energy": -0.05303,
				"method": "rhf"
			},
			{
				"type": "unocc",
				"energy": -0.00676,
				"method": "rhf"
			},
			{
				"type": "unocc",
				"energy": 0.03851,
				"method": "rhf"
			},
			{
				"type": "unocc",
				"energy": 0.05823,
				"method": "rhf"
			},
			{
				"type": "unocc",
				"energy": 0.07119,
				"method": "rhf"
			}
		],
		"cosmo_sigma_profile": { 
			"-0.025": 0.0,
			"-0.024": 0.0,
			"-0.023": 0.0,
			"-0.022": 0.0,
			"-0.021": 0.0,
			"-0.02": 0.0,
			"-0.019": 0.664779582331,
			"-0.018": 1.44867364597,
			"-0.017": 1.49579419231,
			"-0.016": 2.18132297817,
			"-0.015": 2.72904994534,
			"-0.014": 2.39414534705,
			"-0.013": 3.4982249325,
			"-0.012": 3.40735312075,
			"-0.011": 3.23017565836,
			"-0.01": 4.87981579673,
			"-0.009": 4.6273367401,
			"-0.008": 5.0140243628,
			"-0.007": 5.70713717725,
			"-0.006": 4.8775446916,
			"-0.005": 7.52702332545,
			"-0.004": 14.5439909242,
			"-0.003": 20.8308994618,
			"-0.002": 19.1321261715,
			"-0.001": 14.7592981002,
			"0.0": 15.7066003024,
			"0.001": 12.7614344147,
			"0.002": 9.00129136986,
			"0.003": 5.87824665218,
			"0.004": 5.05120560684,
			"0.005": 5.7617119767,
			"0.006": 5.70275146073,
			"0.007": 5.99313615883,
			"0.008": 7.65261481682,
			"0.009": 8.15548598796,
			"0.01": 11.2582076956,
			"0.011": 14.3573918285,
			"0.012": 8.94780618851,
			"0.013": 1.37126840043,
			"0.014": 0.00457165653983,
			"0.015": 0.0,
			"0.016": 0.0,
			"0.017": 0.0,
			"0.018": 0.0,
			"0.019": 0.0,
			"0.02": 0.0,
			"0.021": 0.0,
			"0.022": 0.0,
			"0.023": 0.0,
			"0.024": 0.0,
			"0.025": 0.0
		}
	}
}
