{
	 "smiles": "OC(=O)C1=CC(Cl)=C(F)C=C1", 
	 "Tm": 408.15, 
	 "num_atms": 15, 
	 "gaussian": { 
		 "optdone": 1, 
		 "sigma_profile": "yes", 
		 "theory": "DFT", 
		 "functional": "B3LYP", 
		 "basiset": "6-31G**", 
		 "properties": { 
			 "R2extent": 2868.792, 
			 "electric_dipole_moment_norm": 0.804538414248, 
			 "electric_quadrupole_moment_norm": 12.1596801742, 
			 "total_energy": -979.644915284, 
			 "HOMO_LUMO_gap": 0.20108, 
			 "cosmo_polarized_energy": -8.42, 
			 "cosmo_cavitation_energy": 22.53, 
			 "cosmo_dispersion_energy": -16.71, 
			 "cosmo_repulsion_energy": 1.32, 
			 "cosmo_total_nonelectrostatic_energy": 7.14, 
			 "SMD_solvation_energy": 5.42 
		},
		"coords": [
			{
				"x": -3.2475871026,
				"y": 0.7543626983,
				"z": 0.3169278257,
				"element": "O" 
			},
			{
				"x": -2.2515634966,
				"y": -0.0908622505,
				"z": 0.678273375,
				"element": "C" 
			},
			{
				"x": -2.4641599948,
				"y": -1.2319665462,
				"z": 1.0360029777,
				"element": "O" 
			},
			{
				"x": -0.9029500992,
				"y": 0.5285027485,
				"z": 0.5875642875,
				"element": "C" 
			},
			{
				"x": -0.7251078653,
				"y": 1.8531917731,
				"z": 0.1667176241,
				"element": "C" 
			},
			{
				"x": 0.557122757,
				"y": 2.389037341,
				"z": 0.09786287,
				"element": "C" 
			},
			{
				"x": 0.8130137421,
				"y": 4.0345719947,
				"z": -0.4220493564,
				"element": "Cl" 
			},
			{
				"x": 1.6546010169,
				"y": 1.5970014496,
				"z": 0.4503339523,
				"element": "C" 
			},
			{
				"x": 2.8883098235,
				"y": 2.1102486654,
				"z": 0.3848308157,
				"element": "F" 
			},
			{
				"x": 1.4870042319,
				"y": 0.2803221259,
				"z": 0.8694359352,
				"element": "C" 
			},
			{
				"x": 0.2055808033,
				"y": -0.2538639817,
				"z": 0.9377996913,
				"element": "C" 
			},
			{
				"x": -4.0728819475,
				"y": 0.2514872385,
				"z": 0.4132991571,
				"element": "H" 
			},
			{
				"x": -1.5784166356,
				"y": 2.461987711,
				"z": -0.1050222969,
				"element": "H" 
			},
			{
				"x": 2.3652960929,
				"y": -0.2984417368,
				"z": 1.1334266145,
				"element": "H" 
			},
			{
				"x": 0.0411386741,
				"y": -1.2757792308,
				"z": 1.2601965272,
				"element": "H" 
			}
		],
		 "valence_orbital": [ 
			{
				"type": "occ",
				"energy": -0.32795,
				"method": "rhf"
			},
			{
				"type": "occ",
				"energy": -0.32718,
				"method": "rhf"
			},
			{
				"type": "occ",
				"energy": -0.28811,
				"method": "rhf"
			},
			{
				"type": "occ",
				"energy": -0.27735,
				"method": "rhf"
			},
			{
				"type": "occ",
				"energy": -0.26086,
				"method": "rhf"
			},
			{
				"type": "unocc",
				"energy": -0.05978,
				"method": "rhf"
			},
			{
				"type": "unocc",
				"energy": -0.03295,
				"method": "rhf"
			},
			{
				"type": "unocc",
				"energy": 0.01434,
				"method": "rhf"
			},
			{
				"type": "unocc",
				"energy": 0.0457,
				"method": "rhf"
			},
			{
				"type": "unocc",
				"energy": 0.07044,
				"method": "rhf"
			}
		],
		"cosmo_sigma_profile": { 
			"-0.025": 0.0,
			"-0.024": 0.0,
			"-0.023": 0.0,
			"-0.022": 0.0,
			"-0.021": 0.0,
			"-0.02": 0.0,
			"-0.019": 0.313410349519,
			"-0.018": 0.727148710436,
			"-0.017": 0.996171616881,
			"-0.016": 0.97146329932,
			"-0.015": 0.68368875553,
			"-0.014": 0.523843176744,
			"-0.013": 0.540958774551,
			"-0.012": 1.05655461094,
			"-0.011": 0.959538532078,
			"-0.01": 0.306116084428,
			"-0.009": 0.90114250594,
			"-0.008": 4.0550243444,
			"-0.007": 4.5554993587,
			"-0.006": 5.97952214525,
			"-0.005": 4.59543973695,
			"-0.004": 6.27132443429,
			"-0.003": 8.59363190415,
			"-0.002": 15.1957772519,
			"-0.001": 19.9443906137,
			"0.0": 22.8365020951,
			"0.001": 16.9660202104,
			"0.002": 12.9422498874,
			"0.003": 18.4053625372,
			"0.004": 14.1747946093,
			"0.005": 4.4441191241,
			"0.006": 2.14654444938,
			"0.007": 2.45290535537,
			"0.008": 1.56280470793,
			"0.009": 1.82940220235,
			"0.01": 1.77956108756,
			"0.011": 4.83655903446,
			"0.012": 2.23794636872,
			"0.013": 0.0,
			"0.014": 0.0,
			"0.015": 0.0,
			"0.016": 0.0,
			"0.017": 0.0,
			"0.018": 0.0,
			"0.019": 0.0,
			"0.02": 0.0,
			"0.021": 0.0,
			"0.022": 0.0,
			"0.023": 0.0,
			"0.024": 0.0,
			"0.025": 0.0
		}
	}
}
