{
	 "smiles": "CC(C)(C)OC(=O)NCCCCCCC(O)=O", 
	 "Tm": 318.15, 
	 "num_atms": 40, 
	 "gaussian": { 
		 "optdone": 1, 
		 "sigma_profile": "yes", 
		 "theory": "DFT", 
		 "functional": "B3LYP", 
		 "basiset": "6-31G**", 
		 "properties": { 
			 "R2extent": 8695.749, 
			 "electric_dipole_moment_norm": 5.90481428074, 
			 "electric_quadrupole_moment_norm": 22.0755022912, 
			 "total_energy": -826.843207191, 
			 "HOMO_LUMO_gap": 0.25457, 
			 "cosmo_polarized_energy": -21.8, 
			 "cosmo_cavitation_energy": 41.99, 
			 "cosmo_dispersion_energy": -28.06, 
			 "cosmo_repulsion_energy": 2.24, 
			 "cosmo_total_nonelectrostatic_energy": 16.17, 
			 "SMD_solvation_energy": 8.15 
		},
		"coords": [
			{
				"x": -0.6170589462,
				"y": -4.6678384046,
				"z": -2.141237443,
				"element": "C" 
			},
			{
				"x": -1.2338337435,
				"y": -3.4618073875,
				"z": -1.4245710531,
				"element": "C" 
			},
			{
				"x": -2.4431139707,
				"y": -2.9306433648,
				"z": -2.1989572266,
				"element": "C" 
			},
			{
				"x": -1.6144272329,
				"y": -3.7805579366,
				"z": 0.0253030304,
				"element": "C" 
			},
			{
				"x": -0.3035978674,
				"y": -2.3227377317,
				"z": -1.4630099827,
				"element": "O" 
			},
			{
				"x": 0.9197522604,
				"y": -2.4071933411,
				"z": -0.8828912765,
				"element": "C" 
			},
			{
				"x": 1.3609782274,
				"y": -3.363332823,
				"z": -0.2647373572,
				"element": "O" 
			},
			{
				"x": 1.6359840564,
				"y": -1.2592014012,
				"z": -1.0951479085,
				"element": "N" 
			},
			{
				"x": 1.1369516982,
				"y": -0.0274629132,
				"z": -1.6923185571,
				"element": "C" 
			},
			{
				"x": 0.332537042,
				"y": 0.8520814481,
				"z": -0.721208727,
				"element": "C" 
			},
			{
				"x": -0.2677656284,
				"y": 2.1100419243,
				"z": -1.3717734706,
				"element": "C" 
			},
			{
				"x": 0.742061141,
				"y": 3.1362457413,
				"z": -1.9212343394,
				"element": "C" 
			},
			{
				"x": 1.720124675,
				"y": 3.7312732737,
				"z": -0.8938159684,
				"element": "C" 
			},
			{
				"x": 1.031241539,
				"y": 4.5327760123,
				"z": 0.2305686619,
				"element": "C" 
			},
			{
				"x": 2.0244634602,
				"y": 5.1313111514,
				"z": 1.2174054838,
				"element": "C" 
			},
			{
				"x": 2.8303981098,
				"y": 6.1135282548,
				"z": 0.7205001366,
				"element": "O" 
			},
			{
				"x": 2.1446906455,
				"y": 4.7800584321,
				"z": 2.3635566902,
				"element": "O" 
			},
			{
				"x": -1.3559329059,
				"y": -5.4730900976,
				"z": -2.2080242465,
				"element": "H" 
			},
			{
				"x": 0.2577911881,
				"y": -5.0340167695,
				"z": -1.6037935382,
				"element": "H" 
			},
			{
				"x": -0.3205298068,
				"y": -4.3939539048,
				"z": -3.1588563459,
				"element": "H" 
			},
			{
				"x": -3.224951789,
				"y": -3.694536327,
				"z": -2.2451464601,
				"element": "H" 
			},
			{
				"x": -2.1605011425,
				"y": -2.6624654397,
				"z": -3.2212785957,
				"element": "H" 
			},
			{
				"x": -2.8557406077,
				"y": -2.0429229359,
				"z": -1.7103967838,
				"element": "H" 
			},
			{
				"x": -0.749078542,
				"y": -4.1346001776,
				"z": 0.5855271709,
				"element": "H" 
			},
			{
				"x": -2.3893146449,
				"y": -4.5539970883,
				"z": 0.0404700093,
				"element": "H" 
			},
			{
				"x": -2.0160232886,
				"y": -2.8888512302,
				"z": 0.5175182736,
				"element": "H" 
			},
			{
				"x": 2.5095405241,
				"y": -1.2425769653,
				"z": -0.5905342083,
				"element": "H" 
			},
			{
				"x": 2.0049816804,
				"y": 0.5154883397,
				"z": -2.081579757,
				"element": "H" 
			},
			{
				"x": 0.5141566076,
				"y": -0.2939257245,
				"z": -2.5508076432,
				"element": "H" 
			},
			{
				"x": 0.967389686,
				"y": 1.1226451806,
				"z": 0.1324437899,
				"element": "H" 
			},
			{
				"x": -0.4824667981,
				"y": 0.2422569088,
				"z": -0.3162471261,
				"element": "H" 
			},
			{
				"x": -0.9261384776,
				"y": 2.5993085382,
				"z": -0.6435259539,
				"element": "H" 
			},
			{
				"x": -0.922145752,
				"y": 1.8020061229,
				"z": -2.198152668,
				"element": "H" 
			},
			{
				"x": 1.3290678347,
				"y": 2.6801406855,
				"z": -2.7280547705,
				"element": "H" 
			},
			{
				"x": 0.1810339734,
				"y": 3.9558632868,
				"z": -2.3904206105,
				"element": "H" 
			},
			{
				"x": 2.4288513296,
				"y": 4.3788637388,
				"z": -1.4270616499,
				"element": "H" 
			},
			{
				"x": 2.3264573113,
				"y": 2.9384021904,
				"z": -0.4399473054,
				"element": "H" 
			},
			{
				"x": 0.4239465038,
				"y": 5.3372400909,
				"z": -0.2082312151,
				"element": "H" 
			},
			{
				"x": 0.3632322039,
				"y": 3.8944897781,
				"z": 0.8111125367,
				"element": "H" 
			},
			{
				"x": 2.6046894463,
				"y": 6.2978908655,
				"z": -0.2019435955,
				"element": "H" 
			}
		],
		 "valence_orbital": [ 
			{
				"type": "occ",
				"energy": -0.31425,
				"method": "rhf"
			},
			{
				"type": "occ",
				"energy": -0.28614,
				"method": "rhf"
			},
			{
				"type": "occ",
				"energy": -0.26822,
				"method": "rhf"
			},
			{
				"type": "occ",
				"energy": -0.25831,
				"method": "rhf"
			},
			{
				"type": "occ",
				"energy": -0.24715,
				"method": "rhf"
			},
			{
				"type": "unocc",
				"energy": 0.00742,
				"method": "rhf"
			},
			{
				"type": "unocc",
				"energy": 0.03985,
				"method": "rhf"
			},
			{
				"type": "unocc",
				"energy": 0.0576,
				"method": "rhf"
			},
			{
				"type": "unocc",
				"energy": 0.07019,
				"method": "rhf"
			},
			{
				"type": "unocc",
				"energy": 0.0819,
				"method": "rhf"
			}
		],
		"cosmo_sigma_profile": { 
			"-0.025": 0.0,
			"-0.024": 0.0,
			"-0.023": 0.0,
			"-0.022": 0.0,
			"-0.021": 0.0,
			"-0.02": 0.0,
			"-0.019": 0.0824029986825,
			"-0.018": 0.788280573492,
			"-0.017": 1.11024334116,
			"-0.016": 0.715762295827,
			"-0.015": 1.50120027192,
			"-0.014": 1.07182901005,
			"-0.013": 1.93101996764,
			"-0.012": 1.82328843533,
			"-0.011": 2.56762800772,
			"-0.01": 2.32112576686,
			"-0.009": 2.33433507233,
			"-0.008": 1.83585241284,
			"-0.007": 2.35544610126,
			"-0.006": 4.93040955856,
			"-0.005": 6.63197824086,
			"-0.004": 24.9974557258,
			"-0.003": 41.9772393019,
			"-0.002": 38.7086154812,
			"-0.001": 36.0495304529,
			"0.0": 38.9293449214,
			"0.001": 31.1528976916,
			"0.002": 10.484393207,
			"0.003": 7.1361816356,
			"0.004": 7.27134620477,
			"0.005": 8.08420828365,
			"0.006": 5.79702502697,
			"0.007": 3.31448380526,
			"0.008": 4.27447165811,
			"0.009": 4.63133524725,
			"0.01": 5.35644108075,
			"0.011": 6.9496038279,
			"0.012": 7.30928533679,
			"0.013": 6.33732281562,
			"0.014": 3.82697012511,
			"0.015": 0.31510114487,
			"0.016": 0.0,
			"0.017": 0.0,
			"0.018": 0.0,
			"0.019": 0.0,
			"0.02": 0.0,
			"0.021": 0.0,
			"0.022": 0.0,
			"0.023": 0.0,
			"0.024": 0.0,
			"0.025": 0.0
		}
	}
}
