{
	 "smiles": "COC1=CC=C(C=C(/OC2=CC=C(Cl)C=C2)C2=NC3=CC=CC=C3S2)C=C1", 
	 "Tm": 411.15, 
	 "num_atms": 43, 
	 "gaussian": { 
		 "optdone": 1, 
		 "sigma_profile": "yes", 
		 "theory": "DFT", 
		 "functional": "B3LYP", 
		 "basiset": "6-31G**", 
		 "properties": { 
			 "R2extent": 15257.9363, 
			 "electric_dipole_moment_norm": 2.45044148063, 
			 "electric_quadrupole_moment_norm": 27.3185699721, 
			 "total_energy": -1911.54179805, 
			 "HOMO_LUMO_gap": 0.13362, 
			 "cosmo_polarized_energy": -13.53, 
			 "cosmo_cavitation_energy": 51.79, 
			 "cosmo_dispersion_energy": -36.34, 
			 "cosmo_repulsion_energy": 2.72, 
			 "cosmo_total_nonelectrostatic_energy": 18.17, 
			 "SMD_solvation_energy": 7.37 
		},
		"coords": [
			{
				"x": -3.3901956702,
				"y": -2.2672261539,
				"z": -5.8096511193,
				"element": "C" 
			},
			{
				"x": -3.2261475994,
				"y": -0.8628098316,
				"z": -5.6718367883,
				"element": "O" 
			},
			{
				"x": -2.6901064179,
				"y": -0.382836201,
				"z": -4.5174439097,
				"element": "C" 
			},
			{
				"x": -2.2827147715,
				"y": -1.1747513215,
				"z": -3.4345113171,
				"element": "C" 
			},
			{
				"x": -1.7429910681,
				"y": -0.5801043078,
				"z": -2.296744711,
				"element": "C" 
			},
			{
				"x": -1.5901413304,
				"y": 0.8171993989,
				"z": -2.2005553292,
				"element": "C" 
			},
			{
				"x": -1.0299598678,
				"y": 1.5215436561,
				"z": -1.0557855082,
				"element": "C" 
			},
			{
				"x": -0.4801672181,
				"y": 1.0537329197,
				"z": 0.0909398708,
				"element": "C" 
			},
			{
				"x": -0.4818368127,
				"y": -0.2969277346,
				"z": 0.3809151907,
				"element": "O" 
			},
			{
				"x": 0.7165144254,
				"y": -0.9634814948,
				"z": 0.5589346697,
				"element": "C" 
			},
			{
				"x": 1.917898987,
				"y": -0.539986325,
				"z": -0.0111605255,
				"element": "C" 
			},
			{
				"x": 3.071173863,
				"y": -1.3051468434,
				"z": 0.1648734153,
				"element": "C" 
			},
			{
				"x": 3.0082087203,
				"y": -2.4885474797,
				"z": 0.8977301291,
				"element": "C" 
			},
			{
				"x": 4.4634057539,
				"y": -3.4550410185,
				"z": 1.1149284141,
				"element": "Cl" 
			},
			{
				"x": 1.8062072229,
				"y": -2.9184144783,
				"z": 1.4614359979,
				"element": "C" 
			},
			{
				"x": 0.6574943621,
				"y": -2.1500625893,
				"z": 1.2921976184,
				"element": "C" 
			},
			{
				"x": 0.0310703427,
				"y": 1.9193899166,
				"z": 1.1560678764,
				"element": "C" 
			},
			{
				"x": 0.3343838918,
				"y": 1.4885952,
				"z": 2.3429135173,
				"element": "N" 
			},
			{
				"x": 0.7896363925,
				"y": 2.5083920136,
				"z": 3.1554088824,
				"element": "C" 
			},
			{
				"x": 1.185751656,
				"y": 2.3557077479,
				"z": 4.4932406473,
				"element": "C" 
			},
			{
				"x": 1.6195538745,
				"y": 3.4711336194,
				"z": 5.1989359307,
				"element": "C" 
			},
			{
				"x": 1.6638199826,
				"y": 4.7378176183,
				"z": 4.5906949323,
				"element": "C" 
			},
			{
				"x": 1.2748072591,
				"y": 4.9125455894,
				"z": 3.2640744431,
				"element": "C" 
			},
			{
				"x": 0.8405580235,
				"y": 3.7914358986,
				"z": 2.5543201405,
				"element": "C" 
			},
			{
				"x": 0.3015589863,
				"y": 3.6727338284,
				"z": 0.8915322076,
				"element": "S" 
			},
			{
				"x": -2.0175960658,
				"y": 1.5923641813,
				"z": -3.3036400155,
				"element": "C" 
			},
			{
				"x": -2.553670383,
				"y": 1.0124237781,
				"z": -4.440191837,
				"element": "C" 
			},
			{
				"x": -4.0681952898,
				"y": -2.6711796861,
				"z": -5.0474075359,
				"element": "H" 
			},
			{
				"x": -3.8264460052,
				"y": -2.422860865,
				"z": -6.7972676185,
				"element": "H" 
			},
			{
				"x": -2.4291645915,
				"y": -2.7934341798,
				"z": -5.7519036279,
				"element": "H" 
			},
			{
				"x": -2.3839183956,
				"y": -2.2531078162,
				"z": -3.4655827177,
				"element": "H" 
			},
			{
				"x": -1.4463225906,
				"y": -1.207297033,
				"z": -1.4670319136,
				"element": "H" 
			},
			{
				"x": -1.0755093276,
				"y": 2.6053178129,
				"z": -1.1343949152,
				"element": "H" 
			},
			{
				"x": 1.9547440444,
				"y": 0.3751916556,
				"z": -0.5918595648,
				"element": "H" 
			},
			{
				"x": 4.0108732281,
				"y": -0.9848694677,
				"z": -0.2713124857,
				"element": "H" 
			},
			{
				"x": 1.7713910744,
				"y": -3.8400722869,
				"z": 2.0316147525,
				"element": "H" 
			},
			{
				"x": -0.2878360025,
				"y": -2.4529529306,
				"z": 1.7292151682,
				"element": "H" 
			},
			{
				"x": 1.1447172187,
				"y": 1.3714504186,
				"z": 4.9476097339,
				"element": "H" 
			},
			{
				"x": 1.9288670084,
				"y": 3.3651096676,
				"z": 6.234304754,
				"element": "H" 
			},
			{
				"x": 2.0065394517,
				"y": 5.5956593965,
				"z": 5.161503304,
				"element": "H" 
			},
			{
				"x": 1.310728796,
				"y": 5.8928208198,
				"z": 2.7998558665,
				"element": "H" 
			},
			{
				"x": -1.9195671722,
				"y": 2.6740934493,
				"z": -3.2594174872,
				"element": "H" 
			},
			{
				"x": -2.8767179856,
				"y": 1.6137514584,
				"z": -5.2834485356,
				"element": "H" 
			}
		],
		 "valence_orbital": [ 
			{
				"type": "occ",
				"energy": -0.25929,
				"method": "rhf"
			},
			{
				"type": "occ",
				"energy": -0.24606,
				"method": "rhf"
			},
			{
				"type": "occ",
				"energy": -0.23626,
				"method": "rhf"
			},
			{
				"type": "occ",
				"energy": -0.22386,
				"method": "rhf"
			},
			{
				"type": "occ",
				"energy": -0.20261,
				"method": "rhf"
			},
			{
				"type": "unocc",
				"energy": -0.06899,
				"method": "rhf"
			},
			{
				"type": "unocc",
				"energy": -0.01253,
				"method": "rhf"
			},
			{
				"type": "unocc",
				"energy": -0.00797,
				"method": "rhf"
			},
			{
				"type": "unocc",
				"energy": -0.00685,
				"method": "rhf"
			},
			{
				"type": "unocc",
				"energy": -0.00341,
				"method": "rhf"
			}
		],
		"cosmo_sigma_profile": { 
			"-0.025": 0.0,
			"-0.024": 0.0,
			"-0.023": 0.0,
			"-0.022": 0.0,
			"-0.021": 0.0,
			"-0.02": 0.0,
			"-0.019": 0.0,
			"-0.018": 0.0,
			"-0.017": 0.0,
			"-0.016": 0.0,
			"-0.015": 0.0,
			"-0.014": 0.0,
			"-0.013": 0.0,
			"-0.012": 0.0,
			"-0.011": 0.0,
			"-0.01": 0.0,
			"-0.009": 0.0460318644388,
			"-0.008": 2.64812276998,
			"-0.007": 14.1417296891,
			"-0.006": 27.1322389052,
			"-0.005": 31.5011154137,
			"-0.004": 31.505791305,
			"-0.003": 27.7076450885,
			"-0.002": 22.938385937,
			"-0.001": 25.8274015849,
			"0.0": 31.1553918687,
			"0.001": 31.6604723514,
			"0.002": 40.8365026096,
			"0.003": 47.438069685,
			"0.004": 41.4393685325,
			"0.005": 23.4491806366,
			"0.006": 5.57831801427,
			"0.007": 3.51189403733,
			"0.008": 4.0932169923,
			"0.009": 3.07601722896,
			"0.01": 2.69617564102,
			"0.011": 1.55090611561,
			"0.012": 0.999417701961,
			"0.013": 0.387999836065,
			"0.014": 0.0,
			"0.015": 0.0,
			"0.016": 0.0,
			"0.017": 0.0,
			"0.018": 0.0,
			"0.019": 0.0,
			"0.02": 0.0,
			"0.021": 0.0,
			"0.022": 0.0,
			"0.023": 0.0,
			"0.024": 0.0,
			"0.025": 0.0
		}
	}
}
