{
	 "smiles": "FC(F)(F)COC1=NC(=CC=C1)C#N", 
	 "Tm": 325.15, 
	 "num_atms": 19, 
	 "gaussian": { 
		 "optdone": 1, 
		 "sigma_profile": "yes", 
		 "theory": "DFT", 
		 "functional": "B3LYP", 
		 "basiset": "6-31G**", 
		 "properties": { 
			 "R2extent": 4132.7628, 
			 "electric_dipole_moment_norm": 4.69227188151, 
			 "electric_quadrupole_moment_norm": 20.8365236261, 
			 "total_energy": -792.088457684, 
			 "HOMO_LUMO_gap": 0.18966, 
			 "cosmo_polarized_energy": -10.81, 
			 "cosmo_cavitation_energy": 26.9, 
			 "cosmo_dispersion_energy": -18.29, 
			 "cosmo_repulsion_energy": 1.41, 
			 "cosmo_total_nonelectrostatic_energy": 10.02, 
			 "SMD_solvation_energy": 6.83 
		},
		"coords": [
			{
				"x": 2.3041142829,
				"y": -2.2344396508,
				"z": 1.0032971951,
				"element": "F" 
			},
			{
				"x": 1.2208266619,
				"y": -2.414135646,
				"z": 1.7811869233,
				"element": "C" 
			},
			{
				"x": 1.1878495627,
				"y": -3.7053119703,
				"z": 2.1717407313,
				"element": "F" 
			},
			{
				"x": 1.3751952233,
				"y": -1.6514923389,
				"z": 2.8800546975,
				"element": "F" 
			},
			{
				"x": -0.0646121591,
				"y": -2.0802338749,
				"z": 1.0405310296,
				"element": "C" 
			},
			{
				"x": -0.0393247888,
				"y": -0.7221937138,
				"z": 0.6138550068,
				"element": "O" 
			},
			{
				"x": 0.3156457945,
				"y": -0.4462043581,
				"z": -0.6683573834,
				"element": "C" 
			},
			{
				"x": 0.5044429455,
				"y": -1.4311253868,
				"z": -1.5287569363,
				"element": "N" 
			},
			{
				"x": 0.8300332387,
				"y": -1.0970020912,
				"z": -2.7935022981,
				"element": "C" 
			},
			{
				"x": 0.9774903547,
				"y": 0.2173991376,
				"z": -3.2339390484,
				"element": "C" 
			},
			{
				"x": 0.7702236805,
				"y": 1.2405901556,
				"z": -2.2995970099,
				"element": "C" 
			},
			{
				"x": 0.4334404686,
				"y": 0.9183450812,
				"z": -0.9959061472,
				"element": "C" 
			},
			{
				"x": 1.0280144665,
				"y": -2.1902438031,
				"z": -3.7144697233,
				"element": "C" 
			},
			{
				"x": 1.1897067501,
				"y": -3.0510868609,
				"z": -4.4781763103,
				"element": "N" 
			},
			{
				"x": -0.1775889013,
				"y": -2.7635627479,
				"z": 0.198384849,
				"element": "H" 
			},
			{
				"x": -0.901262616,
				"y": -2.1832048341,
				"z": 1.7341708782,
				"element": "H" 
			},
			{
				"x": 1.2440555603,
				"y": 0.426387812,
				"z": -4.2629727453,
				"element": "H" 
			},
			{
				"x": 0.8742731472,
				"y": 2.2796043031,
				"z": -2.5958355907,
				"element": "H" 
			},
			{
				"x": 0.2627763277,
				"y": 1.6696107873,
				"z": -0.2339081179,
				"element": "H" 
			}
		],
		 "valence_orbital": [ 
			{
				"type": "occ",
				"energy": -0.34283,
				"method": "rhf"
			},
			{
				"type": "occ",
				"energy": -0.34193,
				"method": "rhf"
			},
			{
				"type": "occ",
				"energy": -0.31176,
				"method": "rhf"
			},
			{
				"type": "occ",
				"energy": -0.30364,
				"method": "rhf"
			},
			{
				"type": "occ",
				"energy": -0.2629,
				"method": "rhf"
			},
			{
				"type": "unocc",
				"energy": -0.07324,
				"method": "rhf"
			},
			{
				"type": "unocc",
				"energy": -0.03524,
				"method": "rhf"
			},
			{
				"type": "unocc",
				"energy": 0.02646,
				"method": "rhf"
			},
			{
				"type": "unocc",
				"energy": 0.06802,
				"method": "rhf"
			},
			{
				"type": "unocc",
				"energy": 0.07541,
				"method": "rhf"
			}
		],
		"cosmo_sigma_profile": { 
			"-0.025": 0.0,
			"-0.024": 0.0,
			"-0.023": 0.0,
			"-0.022": 0.0,
			"-0.021": 0.0,
			"-0.02": 0.0,
			"-0.019": 0.0,
			"-0.018": 0.0,
			"-0.017": 0.0,
			"-0.016": 0.0,
			"-0.015": 0.0,
			"-0.014": 0.0,
			"-0.013": 0.0,
			"-0.012": 0.0,
			"-0.011": 0.0,
			"-0.01": 0.54381547857,
			"-0.009": 5.70218635898,
			"-0.008": 9.3876182499,
			"-0.007": 11.0865915115,
			"-0.006": 9.19319073539,
			"-0.005": 7.29869715193,
			"-0.004": 8.73234731455,
			"-0.003": 9.72974401715,
			"-0.002": 15.2953350166,
			"-0.001": 16.9228973602,
			"0.0": 17.6275809237,
			"0.001": 14.9182653174,
			"0.002": 26.7739446571,
			"0.003": 27.3390306158,
			"0.004": 6.82328543257,
			"0.005": 5.99516125518,
			"0.006": 5.73879937349,
			"0.007": 4.5547758268,
			"0.008": 3.68626503767,
			"0.009": 3.02729876923,
			"0.01": 2.95222277523,
			"0.011": 2.28031423622,
			"0.012": 1.9400615614,
			"0.013": 0.286980201387,
			"0.014": 0.0,
			"0.015": 0.0,
			"0.016": 0.0,
			"0.017": 0.0,
			"0.018": 0.0,
			"0.019": 0.0,
			"0.02": 0.0,
			"0.021": 0.0,
			"0.022": 0.0,
			"0.023": 0.0,
			"0.024": 0.0,
			"0.025": 0.0
		}
	}
}
