{
	 "smiles": "NCC1=NOC(=C1)C1=CC=CO1", 
	 "Tm": 320.65, 
	 "num_atms": 20, 
	 "gaussian": { 
		 "optdone": 1, 
		 "sigma_profile": "yes", 
		 "theory": "DFT", 
		 "functional": "B3LYP", 
		 "basiset": "6-31G**", 
		 "properties": { 
			 "R2extent": 3093.3846, 
			 "electric_dipole_moment_norm": 1.82292423869, 
			 "electric_quadrupole_moment_norm": 15.9325176893, 
			 "total_energy": -569.540005774, 
			 "HOMO_LUMO_gap": 0.17551, 
			 "cosmo_polarized_energy": -11.21, 
			 "cosmo_cavitation_energy": 25.25, 
			 "cosmo_dispersion_energy": -18.68, 
			 "cosmo_repulsion_energy": 1.51, 
			 "cosmo_total_nonelectrostatic_energy": 8.07, 
			 "SMD_solvation_energy": 4.11 
		},
		"coords": [
			{
				"x": -2.0406909801,
				"y": -3.677751733,
				"z": -3.0609735608,
				"element": "N" 
			},
			{
				"x": -2.993623213,
				"y": -3.0751679407,
				"z": -2.1225247967,
				"element": "C" 
			},
			{
				"x": -2.3926108324,
				"y": -1.8597076536,
				"z": -1.4740178177,
				"element": "C" 
			},
			{
				"x": -3.105997463,
				"y": -0.7610580573,
				"z": -1.34565033,
				"element": "N" 
			},
			{
				"x": -2.2707473276,
				"y": 0.1555599752,
				"z": -0.6932929579,
				"element": "O" 
			},
			{
				"x": -1.0717187516,
				"y": -0.4305988573,
				"z": -0.4619718416,
				"element": "C" 
			},
			{
				"x": -1.0828421219,
				"y": -1.7130065982,
				"z": -0.9370052303,
				"element": "C" 
			},
			{
				"x": -0.0743238446,
				"y": 0.3684558495,
				"z": 0.2004701913,
				"element": "C" 
			},
			{
				"x": -0.0679055679,
				"y": 1.6560178796,
				"z": 0.66998161,
				"element": "C" 
			},
			{
				"x": 1.2279907837,
				"y": 1.8691726709,
				"z": 1.2323647495,
				"element": "C" 
			},
			{
				"x": 1.9129424998,
				"y": 0.7022383323,
				"z": 1.0653270792,
				"element": "C" 
			},
			{
				"x": 1.1363339875,
				"y": -0.2242400647,
				"z": 0.438714745,
				"element": "O" 
			},
			{
				"x": -1.9130077484,
				"y": -3.0648065846,
				"z": -3.8628100096,
				"element": "H" 
			},
			{
				"x": -2.4186105951,
				"y": -4.5507308545,
				"z": -3.4192604367,
				"element": "H" 
			},
			{
				"x": -3.2029660314,
				"y": -3.8182694609,
				"z": -1.3424798639,
				"element": "H" 
			},
			{
				"x": -3.9641675927,
				"y": -2.7839625177,
				"z": -2.5534353095,
				"element": "H" 
			},
			{
				"x": -0.2888060868,
				"y": -2.4412788679,
				"z": -0.9241388878,
				"element": "H" 
			},
			{
				"x": -0.8901693121,
				"y": 2.3536847276,
				"z": 0.6153943083,
				"element": "H" 
			},
			{
				"x": 1.5984235416,
				"y": 2.7707773604,
				"z": 1.6981014299,
				"element": "H" 
			},
			{
				"x": 2.9102966561,
				"y": 0.3807723948,
				"z": 1.321706929,
				"element": "H" 
			}
		],
		 "valence_orbital": [ 
			{
				"type": "occ",
				"energy": -0.2954,
				"method": "rhf"
			},
			{
				"type": "occ",
				"energy": -0.28443,
				"method": "rhf"
			},
			{
				"type": "occ",
				"energy": -0.28281,
				"method": "rhf"
			},
			{
				"type": "occ",
				"energy": -0.24436,
				"method": "rhf"
			},
			{
				"type": "occ",
				"energy": -0.21476,
				"method": "rhf"
			},
			{
				"type": "unocc",
				"energy": -0.03925,
				"method": "rhf"
			},
			{
				"type": "unocc",
				"energy": 0.0257,
				"method": "rhf"
			},
			{
				"type": "unocc",
				"energy": 0.05255,
				"method": "rhf"
			},
			{
				"type": "unocc",
				"energy": 0.09043,
				"method": "rhf"
			},
			{
				"type": "unocc",
				"energy": 0.10092,
				"method": "rhf"
			}
		],
		"cosmo_sigma_profile": { 
			"-0.025": 0.0,
			"-0.024": 0.0,
			"-0.023": 0.0,
			"-0.022": 0.0,
			"-0.021": 0.0,
			"-0.02": 0.0,
			"-0.019": 0.0,
			"-0.018": 0.0,
			"-0.017": 0.0,
			"-0.016": 0.0,
			"-0.015": 0.0,
			"-0.014": 0.0,
			"-0.013": 0.0,
			"-0.012": 0.0,
			"-0.011": 0.563077991104,
			"-0.01": 3.37401300166,
			"-0.009": 4.89203815375,
			"-0.008": 7.04168299502,
			"-0.007": 8.15842991702,
			"-0.006": 9.99647155176,
			"-0.005": 11.2163943537,
			"-0.004": 12.8943181903,
			"-0.003": 13.3697778464,
			"-0.002": 10.8556703627,
			"-0.001": 8.8604312937,
			"0.0": 14.9296815194,
			"0.001": 21.8170228949,
			"0.002": 15.8710392813,
			"0.003": 14.0177406806,
			"0.004": 10.3012972024,
			"0.005": 4.57836930343,
			"0.006": 4.15255886278,
			"0.007": 5.44419755821,
			"0.008": 4.89531914882,
			"0.009": 2.51855471485,
			"0.01": 2.27609407357,
			"0.011": 2.33343840615,
			"0.012": 2.03683249828,
			"0.013": 1.6815735446,
			"0.014": 2.13687742003,
			"0.015": 0.563581354789,
			"0.016": 0.476516837013,
			"0.017": 0.559506700604,
			"0.018": 0.0,
			"0.019": 0.0,
			"0.02": 0.0,
			"0.021": 0.0,
			"0.022": 0.0,
			"0.023": 0.0,
			"0.024": 0.0,
			"0.025": 0.0
		}
	}
}
