{
	 "smiles": "CCC(C(=O)NC1=CC(=CC=C1)C(N)=S)C1=CC=CC=C1", 
	 "Tm": 422.15, 
	 "num_atms": 39, 
	 "gaussian": { 
		 "optdone": 1, 
		 "sigma_profile": "yes", 
		 "theory": "DFT", 
		 "functional": "B3LYP", 
		 "basiset": "6-31G**", 
		 "properties": { 
			 "R2extent": 9854.7684, 
			 "electric_dipole_moment_norm": 3.00788568433, 
			 "electric_quadrupole_moment_norm": 31.2360811828, 
			 "total_energy": -1241.59683961, 
			 "HOMO_LUMO_gap": 0.1452, 
			 "cosmo_polarized_energy": -22.6, 
			 "cosmo_cavitation_energy": 43.22, 
			 "cosmo_dispersion_energy": -29.79, 
			 "cosmo_repulsion_energy": 2.27, 
			 "cosmo_total_nonelectrostatic_energy": 15.7, 
			 "SMD_solvation_energy": 6.84 
		},
		"coords": [
			{
				"x": -0.296908955,
				"y": 0.432909802,
				"z": -2.1354438494,
				"element": "C" 
			},
			{
				"x": 0.1460432517,
				"y": -0.2146198516,
				"z": -0.8165146043,
				"element": "C" 
			},
			{
				"x": -0.9991416826,
				"y": -0.9711836365,
				"z": -0.1110608844,
				"element": "C" 
			},
			{
				"x": -0.5493309497,
				"y": -2.1246834464,
				"z": 0.8104622781,
				"element": "C" 
			},
			{
				"x": -1.1375856592,
				"y": -3.1992499132,
				"z": 0.7694961938,
				"element": "O" 
			},
			{
				"x": 0.5464004488,
				"y": -2.0044389616,
				"z": 1.6460460127,
				"element": "N" 
			},
			{
				"x": 1.3168115325,
				"y": -0.8901495255,
				"z": 2.0774088409,
				"element": "C" 
			},
			{
				"x": 2.7123436403,
				"y": -0.9776230655,
				"z": 2.0091553427,
				"element": "C" 
			},
			{
				"x": 3.5251238633,
				"y": 0.0565997501,
				"z": 2.4989582308,
				"element": "C" 
			},
			{
				"x": 2.9178684484,
				"y": 1.1951286299,
				"z": 3.0506394328,
				"element": "C" 
			},
			{
				"x": 1.5302652245,
				"y": 1.2870544624,
				"z": 3.1054189328,
				"element": "C" 
			},
			{
				"x": 0.7244824704,
				"y": 0.245357169,
				"z": 2.6414408088,
				"element": "C" 
			},
			{
				"x": 5.0118658998,
				"y": -0.0450793868,
				"z": 2.433404549,
				"element": "C" 
			},
			{
				"x": 5.4918018415,
				"y": -0.7647393631,
				"z": 1.3925774249,
				"element": "N" 
			},
			{
				"x": 6.0278695074,
				"y": 0.6363446224,
				"z": 3.5664650864,
				"element": "S" 
			},
			{
				"x": -2.0730708644,
				"y": -0.1124552828,
				"z": 0.5736616941,
				"element": "C" 
			},
			{
				"x": -3.2298466314,
				"y": -0.7466417979,
				"z": 1.0565464914,
				"element": "C" 
			},
			{
				"x": -4.2437949065,
				"y": -0.0153341188,
				"z": 1.6727583036,
				"element": "C" 
			},
			{
				"x": -4.1273661639,
				"y": 1.3696150873,
				"z": 1.814036463,
				"element": "C" 
			},
			{
				"x": -2.986230641,
				"y": 2.0113579194,
				"z": 1.3351118925,
				"element": "C" 
			},
			{
				"x": -1.9671509107,
				"y": 1.2763812257,
				"z": 0.7218610938,
				"element": "C" 
			},
			{
				"x": -1.1060248439,
				"y": 1.1533599844,
				"z": -1.9842835756,
				"element": "H" 
			},
			{
				"x": -0.6574349205,
				"y": -0.3242478341,
				"z": -2.8403333862,
				"element": "H" 
			},
			{
				"x": 0.5369093119,
				"y": 0.9599851377,
				"z": -2.6101927637,
				"element": "H" 
			},
			{
				"x": 0.5884863289,
				"y": 0.5380611203,
				"z": -0.1577853325,
				"element": "H" 
			},
			{
				"x": 0.9479066345,
				"y": -0.9318180108,
				"z": -1.0289631966,
				"element": "H" 
			},
			{
				"x": -1.5243201389,
				"y": -1.5364499392,
				"z": -0.8898692556,
				"element": "H" 
			},
			{
				"x": 0.7579624986,
				"y": -2.8939958459,
				"z": 2.0842953546,
				"element": "H" 
			},
			{
				"x": 3.1552394598,
				"y": -1.8835159337,
				"z": 1.6055924032,
				"element": "H" 
			},
			{
				"x": 3.5482251433,
				"y": 1.9890108775,
				"z": 3.4346976137,
				"element": "H" 
			},
			{
				"x": 1.065993954,
				"y": 2.1684436677,
				"z": 3.5374044883,
				"element": "H" 
			},
			{
				"x": -0.3541219791,
				"y": 0.3025540699,
				"z": 2.7254262418,
				"element": "H" 
			},
			{
				"x": 6.4934811464,
				"y": -0.8431290964,
				"z": 1.2923629931,
				"element": "H" 
			},
			{
				"x": 4.9097354613,
				"y": -0.9927867299,
				"z": 0.6001246803,
				"element": "H" 
			},
			{
				"x": -3.3216412002,
				"y": -1.8236229316,
				"z": 0.9503543447,
				"element": "H" 
			},
			{
				"x": -5.1281804032,
				"y": -0.528338651,
				"z": 2.0401533789,
				"element": "H" 
			},
			{
				"x": -4.9189511863,
				"y": 1.9413435276,
				"z": 2.2896581087,
				"element": "H" 
			},
			{
				"x": -2.8834594691,
				"y": 3.0884294271,
				"z": 1.4348270898,
				"element": "H" 
			},
			{
				"x": -1.0882545618,
				"y": 1.8000668419,
				"z": 0.3611010788,
				"element": "H" 
			}
		],
		 "valence_orbital": [ 
			{
				"type": "occ",
				"energy": -0.25354,
				"method": "rhf"
			},
			{
				"type": "occ",
				"energy": -0.24859,
				"method": "rhf"
			},
			{
				"type": "occ",
				"energy": -0.24113,
				"method": "rhf"
			},
			{
				"type": "occ",
				"energy": -0.2347,
				"method": "rhf"
			},
			{
				"type": "occ",
				"energy": -0.21265,
				"method": "rhf"
			},
			{
				"type": "unocc",
				"energy": -0.06745,
				"method": "rhf"
			},
			{
				"type": "unocc",
				"energy": -0.03115,
				"method": "rhf"
			},
			{
				"type": "unocc",
				"energy": -0.00789,
				"method": "rhf"
			},
			{
				"type": "unocc",
				"energy": -0.00741,
				"method": "rhf"
			},
			{
				"type": "unocc",
				"energy": 0.01091,
				"method": "rhf"
			}
		],
		"cosmo_sigma_profile": { 
			"-0.025": 0.0,
			"-0.024": 0.0,
			"-0.023": 0.0,
			"-0.022": 0.0,
			"-0.021": 0.0,
			"-0.02": 0.0,
			"-0.019": 0.0,
			"-0.018": 0.0,
			"-0.017": 0.0,
			"-0.016": 0.175937355368,
			"-0.015": 2.16164272317,
			"-0.014": 2.90676636296,
			"-0.013": 3.60799388632,
			"-0.012": 4.42758846027,
			"-0.011": 2.78588083484,
			"-0.01": 3.07775333084,
			"-0.009": 2.88365208335,
			"-0.008": 4.5316660725,
			"-0.007": 4.19810967602,
			"-0.006": 8.38429107855,
			"-0.005": 16.580728293,
			"-0.004": 24.1506900767,
			"-0.003": 29.5264075012,
			"-0.002": 26.4358191118,
			"-0.001": 31.5951066909,
			"0.0": 29.6948097675,
			"0.001": 26.5848918858,
			"0.002": 21.7840028784,
			"0.003": 20.3933476692,
			"0.004": 14.3958459411,
			"0.005": 12.6845706048,
			"0.006": 10.3720928352,
			"0.007": 6.36639684624,
			"0.008": 7.14681397798,
			"0.009": 7.64696019333,
			"0.01": 6.13540523166,
			"0.011": 4.4683791575,
			"0.012": 3.32866104232,
			"0.013": 4.17758129831,
			"0.014": 2.81536730084,
			"0.015": 0.0503799149405,
			"0.016": 0.0,
			"0.017": 0.0,
			"0.018": 0.0,
			"0.019": 0.0,
			"0.02": 0.0,
			"0.021": 0.0,
			"0.022": 0.0,
			"0.023": 0.0,
			"0.024": 0.0,
			"0.025": 0.0
		}
	}
}
