{
	 "smiles": "O=C=NC1CCCCC1", 
	 "Tm": 193.15, 
	 "num_atms": 20, 
	 "gaussian": { 
		 "optdone": 1, 
		 "sigma_profile": "yes", 
		 "theory": "DFT", 
		 "functional": "B3LYP", 
		 "basiset": "6-31G**", 
		 "properties": { 
			 "R2extent": 1868.1902, 
			 "electric_dipole_moment_norm": 3.36598280002, 
			 "electric_quadrupole_moment_norm": 14.0313408198, 
			 "total_energy": -403.356774251, 
			 "HOMO_LUMO_gap": 0.29234, 
			 "cosmo_polarized_energy": -4.4, 
			 "cosmo_cavitation_energy": 22.37, 
			 "cosmo_dispersion_energy": -16.39, 
			 "cosmo_repulsion_energy": 1.37, 
			 "cosmo_total_nonelectrostatic_energy": 7.35, 
			 "SMD_solvation_energy": 4.27 
		},
		"coords": [
			{
				"x": -4.3251897191,
				"y": -2.2421976774,
				"z": -0.7592004296,
				"element": "O" 
			},
			{
				"x": -3.5303175097,
				"y": -1.3723547501,
				"z": -0.8622279078,
				"element": "C" 
			},
			{
				"x": -2.817804588,
				"y": -0.4176785039,
				"z": -1.056104897,
				"element": "N" 
			},
			{
				"x": -1.5039348938,
				"y": 0.0678942689,
				"z": -0.6767602115,
				"element": "C" 
			},
			{
				"x": -1.3749956223,
				"y": 0.27804719,
				"z": 0.8397474027,
				"element": "C" 
			},
			{
				"x": -0.0656109311,
				"y": 1.0338611345,
				"z": 1.1749869802,
				"element": "C" 
			},
			{
				"x": 1.0598718875,
				"y": 0.7545878427,
				"z": 0.14979542,
				"element": "C" 
			},
			{
				"x": 0.9468870722,
				"y": -0.6642994594,
				"z": -0.4245349023,
				"element": "C" 
			},
			{
				"x": -0.3809810809,
				"y": -0.8648242644,
				"z": -1.1966956643,
				"element": "C" 
			},
			{
				"x": -1.4011638577,
				"y": 1.045418745,
				"z": -1.1613922005,
				"element": "H" 
			},
			{
				"x": -1.3881999362,
				"y": -0.7068495942,
				"z": 1.324578692,
				"element": "H" 
			},
			{
				"x": -2.2457150502,
				"y": 0.8242813845,
				"z": 1.2150407416,
				"element": "H" 
			},
			{
				"x": 0.2640410813,
				"y": 0.7409696519,
				"z": 2.1781241892,
				"element": "H" 
			},
			{
				"x": -0.2591843352,
				"y": 2.1117111324,
				"z": 1.2182978037,
				"element": "H" 
			},
			{
				"x": 2.0388438359,
				"y": 0.9017683853,
				"z": 0.618437436,
				"element": "H" 
			},
			{
				"x": 1.0058291705,
				"y": 1.4795596581,
				"z": -0.6728398178,
				"element": "H" 
			},
			{
				"x": 1.7958116146,
				"y": -0.8848846209,
				"z": -1.0803128761,
				"element": "H" 
			},
			{
				"x": 1.0046576106,
				"y": -1.3840555199,
				"z": 0.4017736126,
				"element": "H" 
			},
			{
				"x": -0.2407509998,
				"y": -0.6861380547,
				"z": -2.2682327865,
				"element": "H" 
			},
			{
				"x": -0.7154937486,
				"y": -1.9032169486,
				"z": -1.0938805845,
				"element": "H" 
			}
		],
		 "valence_orbital": [ 
			{
				"type": "occ",
				"energy": -0.33206,
				"method": "rhf"
			},
			{
				"type": "occ",
				"energy": -0.32022,
				"method": "rhf"
			},
			{
				"type": "occ",
				"energy": -0.31756,
				"method": "rhf"
			},
			{
				"type": "occ",
				"energy": -0.27933,
				"method": "rhf"
			},
			{
				"type": "occ",
				"energy": -0.26629,
				"method": "rhf"
			},
			{
				"type": "unocc",
				"energy": 0.02605,
				"method": "rhf"
			},
			{
				"type": "unocc",
				"energy": 0.06815,
				"method": "rhf"
			},
			{
				"type": "unocc",
				"energy": 0.07486,
				"method": "rhf"
			},
			{
				"type": "unocc",
				"energy": 0.09553,
				"method": "rhf"
			},
			{
				"type": "unocc",
				"energy": 0.11306,
				"method": "rhf"
			}
		],
		"cosmo_sigma_profile": { 
			"-0.025": 0.0,
			"-0.024": 0.0,
			"-0.023": 0.0,
			"-0.022": 0.0,
			"-0.021": 0.0,
			"-0.02": 0.0,
			"-0.019": 0.0,
			"-0.018": 0.0,
			"-0.017": 0.0,
			"-0.016": 0.0,
			"-0.015": 0.0,
			"-0.014": 0.0,
			"-0.013": 0.0,
			"-0.012": 0.0,
			"-0.011": 0.0,
			"-0.01": 0.0,
			"-0.009": 0.0,
			"-0.008": 0.0,
			"-0.007": 0.0,
			"-0.006": 0.0444411901121,
			"-0.005": 3.47256591371,
			"-0.004": 9.6802984538,
			"-0.003": 22.3057118946,
			"-0.002": 31.1888598859,
			"-0.001": 32.0725727691,
			"0.0": 25.2015687577,
			"0.001": 16.5649879372,
			"0.002": 4.76374019046,
			"0.003": 3.121554153,
			"0.004": 3.93160054398,
			"0.005": 2.52617257921,
			"0.006": 3.55201624868,
			"0.007": 3.8909364594,
			"0.008": 6.25940772351,
			"0.009": 6.12179729969,
			"0.01": 0.0,
			"0.011": 0.0,
			"0.012": 0.0,
			"0.013": 0.0,
			"0.014": 0.0,
			"0.015": 0.0,
			"0.016": 0.0,
			"0.017": 0.0,
			"0.018": 0.0,
			"0.019": 0.0,
			"0.02": 0.0,
			"0.021": 0.0,
			"0.022": 0.0,
			"0.023": 0.0,
			"0.024": 0.0,
			"0.025": 0.0
		}
	}
}
