{
	 "smiles": "CN1C=C(Cl)C(C=O)=N1", 
	 "Tm": 355.15, 
	 "num_atms": 14, 
	 "gaussian": { 
		 "optdone": 1, 
		 "sigma_profile": "yes", 
		 "theory": "DFT", 
		 "functional": "B3LYP", 
		 "basiset": "6-31G**", 
		 "properties": { 
			 "R2extent": 2067.5338, 
			 "electric_dipole_moment_norm": 5.43326027814, 
			 "electric_quadrupole_moment_norm": 18.626926444, 
			 "total_energy": -838.419582954, 
			 "HOMO_LUMO_gap": 0.19566, 
			 "cosmo_polarized_energy": -13.43, 
			 "cosmo_cavitation_energy": 20.96, 
			 "cosmo_dispersion_energy": -15.42, 
			 "cosmo_repulsion_energy": 1.28, 
			 "cosmo_total_nonelectrostatic_energy": 6.82, 
			 "SMD_solvation_energy": 4.18 
		},
		"coords": [
			{
				"x": 2.3170893179,
				"y": -1.3733797287,
				"z": -0.6083752364,
				"element": "C" 
			},
			{
				"x": 0.8785515006,
				"y": -1.1848196158,
				"z": -0.4935953241,
				"element": "N" 
			},
			{
				"x": 0.2230154442,
				"y": -0.1332710439,
				"z": 0.0754889359,
				"element": "C" 
			},
			{
				"x": -1.1202970553,
				"y": -0.4148047521,
				"z": -0.0622294245,
				"element": "C" 
			},
			{
				"x": -2.4345346868,
				"y": 0.5750460011,
				"z": 0.4802189837,
				"element": "Cl" 
			},
			{
				"x": -1.1845377107,
				"y": -1.6650761282,
				"z": -0.7307831004,
				"element": "C" 
			},
			{
				"x": -2.3865645564,
				"y": -2.4227194334,
				"z": -1.1248005651,
				"element": "C" 
			},
			{
				"x": -2.3703505023,
				"y": -3.4935386255,
				"z": -1.6979189983,
				"element": "O" 
			},
			{
				"x": 0.0558166225,
				"y": -2.114981911,
				"z": -0.9834388404,
				"element": "N" 
			},
			{
				"x": 2.822895522,
				"y": -0.5194805965,
				"z": -0.156338851,
				"element": "H" 
			},
			{
				"x": 2.5955941783,
				"y": -1.4500094577,
				"z": -1.6616486465,
				"element": "H" 
			},
			{
				"x": 2.6107455238,
				"y": -2.2898944329,
				"z": -0.0920514087,
				"element": "H" 
			},
			{
				"x": 0.7359027465,
				"y": 0.7058271353,
				"z": 0.5196281606,
				"element": "H" 
			},
			{
				"x": -3.3402263443,
				"y": -1.9262974106,
				"z": -0.8500556849,
				"element": "H" 
			}
		],
		 "valence_orbital": [ 
			{
				"type": "occ",
				"energy": -0.3404,
				"method": "rhf"
			},
			{
				"type": "occ",
				"energy": -0.30561,
				"method": "rhf"
			},
			{
				"type": "occ",
				"energy": -0.27327,
				"method": "rhf"
			},
			{
				"type": "occ",
				"energy": -0.25609,
				"method": "rhf"
			},
			{
				"type": "occ",
				"energy": -0.25092,
				"method": "rhf"
			},
			{
				"type": "unocc",
				"energy": -0.05526,
				"method": "rhf"
			},
			{
				"type": "unocc",
				"energy": 0.00501,
				"method": "rhf"
			},
			{
				"type": "unocc",
				"energy": 0.02581,
				"method": "rhf"
			},
			{
				"type": "unocc",
				"energy": 0.08127,
				"method": "rhf"
			},
			{
				"type": "unocc",
				"energy": 0.09531,
				"method": "rhf"
			}
		],
		"cosmo_sigma_profile": { 
			"-0.025": 0.0,
			"-0.024": 0.0,
			"-0.023": 0.0,
			"-0.022": 0.0,
			"-0.021": 0.0,
			"-0.02": 0.0,
			"-0.019": 0.0,
			"-0.018": 0.0,
			"-0.017": 0.0,
			"-0.016": 0.0,
			"-0.015": 0.0,
			"-0.014": 0.0,
			"-0.013": 0.0,
			"-0.012": 0.0128034809075,
			"-0.011": 2.33090022476,
			"-0.01": 2.74318037121,
			"-0.009": 2.61377936274,
			"-0.008": 3.67171271725,
			"-0.007": 7.11135695153,
			"-0.006": 10.0335506312,
			"-0.005": 11.6556288395,
			"-0.004": 17.0499010169,
			"-0.003": 11.1898486551,
			"-0.002": 8.45193598471,
			"-0.001": 8.89134537073,
			"0.0": 12.8700913625,
			"0.001": 13.452881168,
			"0.002": 9.34338601292,
			"0.003": 10.2862325463,
			"0.004": 7.74066977147,
			"0.005": 2.6703751898,
			"0.006": 2.28963528281,
			"0.007": 2.36126631113,
			"0.008": 2.94505282714,
			"0.009": 2.0464546183,
			"0.01": 3.9049062196,
			"0.011": 5.69691516029,
			"0.012": 4.43920541944,
			"0.013": 2.97352577414,
			"0.014": 1.68606326665,
			"0.015": 0.219369589904,
			"0.016": 0.0,
			"0.017": 0.0,
			"0.018": 0.0,
			"0.019": 0.0,
			"0.02": 0.0,
			"0.021": 0.0,
			"0.022": 0.0,
			"0.023": 0.0,
			"0.024": 0.0,
			"0.025": 0.0
		}
	}
}
