{
	 "smiles": "O=C=NC1=CC2=C(OCCOCCOCCOCCO2)C=C1", 
	 "Tm": 310.15, 
	 "num_atms": 41, 
	 "gaussian": { 
		 "optdone": 1, 
		 "sigma_profile": "yes", 
		 "theory": "DFT", 
		 "functional": "B3LYP", 
		 "basiset": "6-31G**", 
		 "properties": { 
			 "R2extent": 9767.5768, 
			 "electric_dipole_moment_norm": 4.32500879074, 
			 "electric_quadrupole_moment_norm": 19.4325607723, 
			 "total_energy": -1089.05657931, 
			 "HOMO_LUMO_gap": 0.20463, 
			 "cosmo_polarized_energy": -15.07, 
			 "cosmo_cavitation_energy": 43.09, 
			 "cosmo_dispersion_energy": -30.06, 
			 "cosmo_repulsion_energy": 2.28, 
			 "cosmo_total_nonelectrostatic_energy": 15.31, 
			 "SMD_solvation_energy": 9.34 
		},
		"coords": [
			{
				"x": -2.2377851102,
				"y": -7.2998285503,
				"z": 2.7833820313,
				"element": "O" 
			},
			{
				"x": -1.7171907438,
				"y": -6.3415026154,
				"z": 2.3348959215,
				"element": "C" 
			},
			{
				"x": -1.0672244893,
				"y": -5.4419955993,
				"z": 1.8550468226,
				"element": "N" 
			},
			{
				"x": -1.1806024789,
				"y": -4.087515396,
				"z": 1.5275473646,
				"element": "C" 
			},
			{
				"x": -0.0710823646,
				"y": -3.4510941444,
				"z": 0.9619275809,
				"element": "C" 
			},
			{
				"x": -0.124412763,
				"y": -2.1011639761,
				"z": 0.6152297957,
				"element": "C" 
			},
			{
				"x": -1.3147217205,
				"y": -1.3734897094,
				"z": 0.819694179,
				"element": "C" 
			},
			{
				"x": -1.4348866432,
				"y": -0.0359544877,
				"z": 0.5179060429,
				"element": "O" 
			},
			{
				"x": -1.3691687817,
				"y": 0.3077014751,
				"z": -0.8720034694,
				"element": "C" 
			},
			{
				"x": -1.7808415839,
				"y": 1.7609974679,
				"z": -1.0387891103,
				"element": "C" 
			},
			{
				"x": -0.9147486609,
				"y": 2.6106925684,
				"z": -0.3062312841,
				"element": "O" 
			},
			{
				"x": -0.6308700753,
				"y": 3.8781405766,
				"z": -0.8906356957,
				"element": "C" 
			},
			{
				"x": 0.6077302137,
				"y": 3.8572380909,
				"z": -1.7919913057,
				"element": "C" 
			},
			{
				"x": 1.8388439166,
				"y": 3.7164994767,
				"z": -1.1044671781,
				"element": "O" 
			},
			{
				"x": 1.9557767017,
				"y": 2.5054836071,
				"z": -0.3701244921,
				"element": "C" 
			},
			{
				"x": 3.4238955902,
				"y": 2.1096964806,
				"z": -0.2463320263,
				"element": "C" 
			},
			{
				"x": 3.5867674594,
				"y": 0.9555124934,
				"z": 0.5729298781,
				"element": "O" 
			},
			{
				"x": 2.9810939248,
				"y": -0.2297837079,
				"z": 0.0764496691,
				"element": "C" 
			},
			{
				"x": 1.6686706865,
				"y": -0.5327759743,
				"z": 0.8096150438,
				"element": "C" 
			},
			{
				"x": 0.9914571839,
				"y": -1.5433775462,
				"z": 0.0363376483,
				"element": "O" 
			},
			{
				"x": -2.411261814,
				"y": -2.0168905489,
				"z": 1.3996242815,
				"element": "C" 
			},
			{
				"x": -2.3561002206,
				"y": -3.3598739233,
				"z": 1.7597592403,
				"element": "C" 
			},
			{
				"x": 0.8470203368,
				"y": -4.0009309163,
				"z": 0.7900096946,
				"element": "H" 
			},
			{
				"x": -0.3565673453,
				"y": 0.1432368501,
				"z": -1.2567409167,
				"element": "H" 
			},
			{
				"x": -2.0618970088,
				"y": -0.3245955416,
				"z": -1.4458185342,
				"element": "H" 
			},
			{
				"x": -2.8165312293,
				"y": 1.8952298959,
				"z": -0.6912371925,
				"element": "H" 
			},
			{
				"x": -1.7556278343,
				"y": 1.9859445294,
				"z": -2.1159427916,
				"element": "H" 
			},
			{
				"x": -1.4929034718,
				"y": 4.2491594054,
				"z": -1.466273651,
				"element": "H" 
			},
			{
				"x": -0.4588683087,
				"y": 4.5726771871,
				"z": -0.0610252555,
				"element": "H" 
			},
			{
				"x": 0.6736079867,
				"y": 4.8116427791,
				"z": -2.3267731165,
				"element": "H" 
			},
			{
				"x": 0.4949711778,
				"y": 3.0576447653,
				"z": -2.5453265082,
				"element": "H" 
			},
			{
				"x": 1.4055505331,
				"y": 1.7085354257,
				"z": -0.8832816991,
				"element": "H" 
			},
			{
				"x": 1.5170298395,
				"y": 2.6064762033,
				"z": 0.6305636812,
				"element": "H" 
			},
			{
				"x": 3.8507803962,
				"y": 1.944591322,
				"z": -1.2478476749,
				"element": "H" 
			},
			{
				"x": 3.9951713659,
				"y": 2.9074799648,
				"z": 0.2370323015,
				"element": "H" 
			},
			{
				"x": 3.687195612,
				"y": -1.0542043638,
				"z": 0.2261323565,
				"element": "H" 
			},
			{
				"x": 2.780548388,
				"y": -0.1629710951,
				"z": -1.0020594623,
				"element": "H" 
			},
			{
				"x": 1.0438308289,
				"y": 0.3599812284,
				"z": 0.8946072428,
				"element": "H" 
			},
			{
				"x": 1.8679654825,
				"y": -0.9084007938,
				"z": 1.8208946106,
				"element": "H" 
			},
			{
				"x": -3.3133531748,
				"y": -1.4357436133,
				"z": 1.5613210683,
				"element": "H" 
			},
			{
				"x": -3.2177618016,
				"y": -3.8458692904,
				"z": 2.2062949092,
				"element": "H" 
			}
		],
		 "valence_orbital": [ 
			{
				"type": "occ",
				"energy": -0.27301,
				"method": "rhf"
			},
			{
				"type": "occ",
				"energy": -0.26206,
				"method": "rhf"
			},
			{
				"type": "occ",
				"energy": -0.25171,
				"method": "rhf"
			},
			{
				"type": "occ",
				"energy": -0.24457,
				"method": "rhf"
			},
			{
				"type": "occ",
				"energy": -0.22579,
				"method": "rhf"
			},
			{
				"type": "unocc",
				"energy": -0.02116,
				"method": "rhf"
			},
			{
				"type": "unocc",
				"energy": -0.01234,
				"method": "rhf"
			},
			{
				"type": "unocc",
				"energy": 0.01288,
				"method": "rhf"
			},
			{
				"type": "unocc",
				"energy": 0.06349,
				"method": "rhf"
			},
			{
				"type": "unocc",
				"energy": 0.07228,
				"method": "rhf"
			}
		],
		"cosmo_sigma_profile": { 
			"-0.025": 0.0,
			"-0.024": 0.0,
			"-0.023": 0.0,
			"-0.022": 0.0,
			"-0.021": 0.0,
			"-0.02": 0.0,
			"-0.019": 0.0,
			"-0.018": 0.0,
			"-0.017": 0.0,
			"-0.016": 0.0,
			"-0.015": 0.0,
			"-0.014": 0.0,
			"-0.013": 0.0,
			"-0.012": 0.0,
			"-0.011": 0.0,
			"-0.01": 0.0,
			"-0.009": 0.219013196991,
			"-0.008": 2.17508025286,
			"-0.007": 4.41096609159,
			"-0.006": 13.4800273548,
			"-0.005": 36.5134513114,
			"-0.004": 40.5261760301,
			"-0.003": 33.8895274432,
			"-0.002": 30.7875978683,
			"-0.001": 24.1344889002,
			"0.0": 20.0059558988,
			"0.001": 17.4748084966,
			"0.002": 21.8621870789,
			"0.003": 21.9114346602,
			"0.004": 13.3419212575,
			"0.005": 9.69881590932,
			"0.006": 8.24645274761,
			"0.007": 11.6322123413,
			"0.008": 8.42205782677,
			"0.009": 4.68660081623,
			"0.01": 4.15019819864,
			"0.011": 3.15029598071,
			"0.012": 5.15577256492,
			"0.013": 3.48462343985,
			"0.014": 0.739773496185,
			"0.015": 0.0,
			"0.016": 0.0,
			"0.017": 0.0,
			"0.018": 0.0,
			"0.019": 0.0,
			"0.02": 0.0,
			"0.021": 0.0,
			"0.022": 0.0,
			"0.023": 0.0,
			"0.024": 0.0,
			"0.025": 0.0
		}
	}
}
