{
	 "smiles": "C#CCC1CCCC1", 
	 "Tm": 406.15, 
	 "num_atms": 20, 
	 "gaussian": { 
		 "optdone": 1, 
		 "sigma_profile": "yes", 
		 "theory": "DFT", 
		 "functional": "B3LYP", 
		 "basiset": "6-31G**", 
		 "properties": { 
			 "R2extent": 1321.8069, 
			 "electric_dipole_moment_norm": 0.742940495598, 
			 "electric_quadrupole_moment_norm": 1.95797819446, 
			 "total_energy": -312.01885104, 
			 "HOMO_LUMO_gap": 0.3104, 
			 "cosmo_polarized_energy": -3.57, 
			 "cosmo_cavitation_energy": 22.02, 
			 "cosmo_dispersion_energy": -15.74, 
			 "cosmo_repulsion_energy": 1.31, 
			 "cosmo_total_nonelectrostatic_energy": 7.6, 
			 "SMD_solvation_energy": 4.44 
		},
		"coords": [
			{
				"x": -2.8225455917,
				"y": -0.3290571814,
				"z": -3.2241845711,
				"element": "C" 
			},
			{
				"x": -1.8615163963,
				"y": 0.1414264429,
				"z": -2.6627819519,
				"element": "C" 
			},
			{
				"x": -0.6923618964,
				"y": 0.692611934,
				"z": -1.9779086332,
				"element": "C" 
			},
			{
				"x": 0.1052694908,
				"y": -0.3593743824,
				"z": -1.164166751,
				"element": "C" 
			},
			{
				"x": -0.7072614753,
				"y": -0.954329666,
				"z": 0.0031949791,
				"element": "C" 
			},
			{
				"x": -0.6014402073,
				"y": 0.091977181,
				"z": 1.1379106834,
				"element": "C" 
			},
			{
				"x": 0.7307762901,
				"y": 0.8591695428,
				"z": 0.8829872918,
				"element": "C" 
			},
			{
				"x": 1.3059730393,
				"y": 0.2836712525,
				"z": -0.4380383669,
				"element": "C" 
			},
			{
				"x": -3.6695716214,
				"y": -0.7386220964,
				"z": -3.7234205655,
				"element": "H" 
			},
			{
				"x": -0.0231284013,
				"y": 1.1491833735,
				"z": -2.7192438377,
				"element": "H" 
			},
			{
				"x": -1.0141596225,
				"y": 1.5097850092,
				"z": -1.3182653116,
				"element": "H" 
			},
			{
				"x": 0.4294385807,
				"y": -1.1404682005,
				"z": -1.8608516647,
				"element": "H" 
			},
			{
				"x": -0.2388920126,
				"y": -1.8952155505,
				"z": 0.316336649,
				"element": "H" 
			},
			{
				"x": -1.739806788,
				"y": -1.1843939485,
				"z": -0.2761311465,
				"element": "H" 
			},
			{
				"x": -0.6266246719,
				"y": -0.3791011929,
				"z": 2.1251520961,
				"element": "H" 
			},
			{
				"x": -1.4517694953,
				"y": 0.7814408934,
				"z": 1.1035535745,
				"element": "H" 
			},
			{
				"x": 0.545427125,
				"y": 1.9346090081,
				"z": 0.7926814264,
				"element": "H" 
			},
			{
				"x": 1.4389786075,
				"y": 0.7377207035,
				"z": 1.7082711355,
				"element": "H" 
			},
			{
				"x": 1.8162539087,
				"y": 1.0401144408,
				"z": -1.0447115073,
				"element": "H" 
			},
			{
				"x": 2.043761138,
				"y": -0.4961475631,
				"z": -0.2165835284,
				"element": "H" 
			}
		],
		 "valence_orbital": [ 
			{
				"type": "occ",
				"energy": -0.32668,
				"method": "rhf"
			},
			{
				"type": "occ",
				"energy": -0.32394,
				"method": "rhf"
			},
			{
				"type": "occ",
				"energy": -0.31089,
				"method": "rhf"
			},
			{
				"type": "occ",
				"energy": -0.25701,
				"method": "rhf"
			},
			{
				"type": "occ",
				"energy": -0.25628,
				"method": "rhf"
			},
			{
				"type": "unocc",
				"energy": 0.05412,
				"method": "rhf"
			},
			{
				"type": "unocc",
				"energy": 0.06169,
				"method": "rhf"
			},
			{
				"type": "unocc",
				"energy": 0.08185,
				"method": "rhf"
			},
			{
				"type": "unocc",
				"energy": 0.09742,
				"method": "rhf"
			},
			{
				"type": "unocc",
				"energy": 0.1316,
				"method": "rhf"
			}
		],
		"cosmo_sigma_profile": { 
			"-0.025": 0.0,
			"-0.024": 0.0,
			"-0.023": 0.0,
			"-0.022": 0.0,
			"-0.021": 0.0,
			"-0.02": 0.0,
			"-0.019": 0.0,
			"-0.018": 0.0,
			"-0.017": 0.0,
			"-0.016": 0.0,
			"-0.015": 0.0,
			"-0.014": 0.0,
			"-0.013": 0.0,
			"-0.012": 0.0,
			"-0.011": 0.624733785531,
			"-0.01": 1.19190118904,
			"-0.009": 1.42019831982,
			"-0.008": 0.755025641325,
			"-0.007": 1.29600308114,
			"-0.006": 0.887421413997,
			"-0.005": 3.63025747978,
			"-0.004": 6.12087357469,
			"-0.003": 14.9354104775,
			"-0.002": 25.4366403152,
			"-0.001": 27.2304518899,
			"0.0": 23.9335986427,
			"0.001": 21.5502520035,
			"0.002": 12.8303810385,
			"0.003": 4.01957415325,
			"0.004": 4.42222265398,
			"0.005": 5.62528841279,
			"0.006": 5.17439170544,
			"0.007": 6.96252747981,
			"0.008": 4.17649653909,
			"0.009": 0.0,
			"0.01": 0.0,
			"0.011": 0.0,
			"0.012": 0.0,
			"0.013": 0.0,
			"0.014": 0.0,
			"0.015": 0.0,
			"0.016": 0.0,
			"0.017": 0.0,
			"0.018": 0.0,
			"0.019": 0.0,
			"0.02": 0.0,
			"0.021": 0.0,
			"0.022": 0.0,
			"0.023": 0.0,
			"0.024": 0.0,
			"0.025": 0.0
		}
	}
}
