{
	 "smiles": "CNC(=O)CC1=C(N)C=CC=C1", 
	 "Tm": 359.15, 
	 "num_atms": 24, 
	 "gaussian": { 
		 "optdone": 1, 
		 "sigma_profile": "yes", 
		 "theory": "DFT", 
		 "functional": "B3LYP", 
		 "basiset": "6-31G**", 
		 "properties": { 
			 "R2extent": 3077.4994, 
			 "electric_dipole_moment_norm": 4.89708792345, 
			 "electric_quadrupole_moment_norm": 17.649680441, 
			 "total_energy": -534.930932867, 
			 "HOMO_LUMO_gap": 0.20704, 
			 "cosmo_polarized_energy": -17.19, 
			 "cosmo_cavitation_energy": 26.9, 
			 "cosmo_dispersion_energy": -19.44, 
			 "cosmo_repulsion_energy": 1.58, 
			 "cosmo_total_nonelectrostatic_energy": 9.04, 
			 "SMD_solvation_energy": 4.86 
		},
		"coords": [
			{
				"x": -2.3823990764,
				"y": -1.3180941842,
				"z": 2.1840280886,
				"element": "C" 
			},
			{
				"x": -2.3113641693,
				"y": -1.978561784,
				"z": 0.8915812315,
				"element": "N" 
			},
			{
				"x": -2.517369608,
				"y": -1.426707307,
				"z": -0.346173041,
				"element": "C" 
			},
			{
				"x": -2.4972630442,
				"y": -2.1154217978,
				"z": -1.3584380711,
				"element": "O" 
			},
			{
				"x": -2.765170928,
				"y": 0.0803030306,
				"z": -0.3979938707,
				"element": "C" 
			},
			{
				"x": -1.5248744627,
				"y": 0.9520854044,
				"z": -0.2674006533,
				"element": "C" 
			},
			{
				"x": -1.6793653648,
				"y": 2.3589848371,
				"z": -0.231032595,
				"element": "C" 
			},
			{
				"x": -2.9436825616,
				"y": 2.9420507247,
				"z": -0.3581286568,
				"element": "N" 
			},
			{
				"x": -0.5398408273,
				"y": 3.1741233089,
				"z": -0.1343275271,
				"element": "C" 
			},
			{
				"x": 0.7349936197,
				"y": 2.6172705758,
				"z": -0.0882575295,
				"element": "C" 
			},
			{
				"x": 0.8964821901,
				"y": 1.2327831217,
				"z": -0.1339226163,
				"element": "C" 
			},
			{
				"x": -0.2331004791,
				"y": 0.4180184993,
				"z": -0.2248935446,
				"element": "C" 
			},
			{
				"x": -3.4144379811,
				"y": -1.1627651901,
				"z": 2.5285239666,
				"element": "H" 
			},
			{
				"x": -1.8707414311,
				"y": -1.9373841078,
				"z": 2.924653952,
				"element": "H" 
			},
			{
				"x": -1.8717283999,
				"y": -0.3524501566,
				"z": 2.1525412189,
				"element": "H" 
			},
			{
				"x": -2.2047631484,
				"y": -2.9836187047,
				"z": 0.8669350323,
				"element": "H" 
			},
			{
				"x": -3.2516047755,
				"y": 0.267775859,
				"z": -1.3612289125,
				"element": "H" 
			},
			{
				"x": -3.4942150829,
				"y": 0.346231756,
				"z": 0.3831723142,
				"element": "H" 
			},
			{
				"x": -2.9989964463,
				"y": 3.9033034749,
				"z": -0.0509460697,
				"element": "H" 
			},
			{
				"x": -3.7239725986,
				"y": 2.3951940558,
				"z": -0.0230384319,
				"element": "H" 
			},
			{
				"x": -0.6647403521,
				"y": 4.254311924,
				"z": -0.1051800147,
				"element": "H" 
			},
			{
				"x": 1.6009926471,
				"y": 3.2693230023,
				"z": -0.0158921729,
				"element": "H" 
			},
			{
				"x": 1.8867023393,
				"y": 0.7892735009,
				"z": -0.1047072558,
				"element": "H" 
			},
			{
				"x": -0.108340059,
				"y": -0.6596298433,
				"z": -0.2704748411,
				"element": "H" 
			}
		],
		 "valence_orbital": [ 
			{
				"type": "occ",
				"energy": -0.30687,
				"method": "rhf"
			},
			{
				"type": "occ",
				"energy": -0.24762,
				"method": "rhf"
			},
			{
				"type": "occ",
				"energy": -0.24099,
				"method": "rhf"
			},
			{
				"type": "occ",
				"energy": -0.239,
				"method": "rhf"
			},
			{
				"type": "occ",
				"energy": -0.20163,
				"method": "rhf"
			},
			{
				"type": "unocc",
				"energy": 0.00541,
				"method": "rhf"
			},
			{
				"type": "unocc",
				"energy": 0.01791,
				"method": "rhf"
			},
			{
				"type": "unocc",
				"energy": 0.02742,
				"method": "rhf"
			},
			{
				"type": "unocc",
				"energy": 0.07209,
				"method": "rhf"
			},
			{
				"type": "unocc",
				"energy": 0.08655,
				"method": "rhf"
			}
		],
		"cosmo_sigma_profile": { 
			"-0.025": 0.0,
			"-0.024": 0.0,
			"-0.023": 0.0,
			"-0.022": 0.0,
			"-0.021": 0.0,
			"-0.02": 0.0,
			"-0.019": 0.0,
			"-0.018": 0.0,
			"-0.017": 0.0,
			"-0.016": 0.0,
			"-0.015": 0.0,
			"-0.014": 0.0903363309791,
			"-0.013": 1.42837664834,
			"-0.012": 3.44154938444,
			"-0.011": 3.1027062383,
			"-0.01": 4.45073910683,
			"-0.009": 4.61437352183,
			"-0.008": 3.54911098197,
			"-0.007": 4.27654908222,
			"-0.006": 7.62372819597,
			"-0.005": 14.1067757142,
			"-0.004": 18.2803676742,
			"-0.003": 19.1120502661,
			"-0.002": 18.4713345781,
			"-0.001": 11.6749458007,
			"0.0": 10.8359150853,
			"0.001": 10.4592649152,
			"0.002": 9.88493886686,
			"0.003": 8.36598888389,
			"0.004": 7.92592299971,
			"0.005": 8.67802980381,
			"0.006": 9.7861641517,
			"0.007": 8.19805274123,
			"0.008": 3.38815028503,
			"0.009": 1.93737044192,
			"0.01": 1.71477741513,
			"0.011": 1.79925493741,
			"0.012": 1.88681347925,
			"0.013": 3.48153514445,
			"0.014": 6.51740754048,
			"0.015": 2.78319069108,
			"0.016": 0.184480656398,
			"0.017": 0.0,
			"0.018": 0.0,
			"0.019": 0.0,
			"0.02": 0.0,
			"0.021": 0.0,
			"0.022": 0.0,
			"0.023": 0.0,
			"0.024": 0.0,
			"0.025": 0.0
		}
	}
}
