{
	 "smiles": "CCC1=CC=C(C)C=C1", 
	 "Tm": 211.05, 
	 "num_atms": 21, 
	 "gaussian": { 
		 "optdone": 1, 
		 "sigma_profile": "yes", 
		 "theory": "DFT", 
		 "functional": "B3LYP", 
		 "basiset": "6-31G**", 
		 "properties": { 
			 "R2extent": 1847.7679, 
			 "electric_dipole_moment_norm": 0.100891278117, 
			 "electric_quadrupole_moment_norm": 4.04457746124, 
			 "total_energy": -350.208269952, 
			 "HOMO_LUMO_gap": 0.23195, 
			 "cosmo_polarized_energy": -3.02, 
			 "cosmo_cavitation_energy": 23.62, 
			 "cosmo_dispersion_energy": -17.15, 
			 "cosmo_repulsion_energy": 1.42, 
			 "cosmo_total_nonelectrostatic_energy": 7.89, 
			 "SMD_solvation_energy": 4.09 
		},
		"coords": [
			{
				"x": 1.2713124208,
				"y": 0.0481218534,
				"z": -3.1569317488,
				"element": "C" 
			},
			{
				"x": 1.6646743494,
				"y": -0.4424522627,
				"z": -1.7521299443,
				"element": "C" 
			},
			{
				"x": 1.0724688944,
				"y": 0.4034838902,
				"z": -0.6443633015,
				"element": "C" 
			},
			{
				"x": 1.7493064361,
				"y": 1.525601212,
				"z": -0.1492711457,
				"element": "C" 
			},
			{
				"x": 1.188679944,
				"y": 2.3250020551,
				"z": 0.8465539776,
				"element": "C" 
			},
			{
				"x": -0.07149362,
				"y": 2.0338348256,
				"z": 1.3845690443,
				"element": "C" 
			},
			{
				"x": -0.6911774303,
				"y": 2.9158011576,
				"z": 2.4436104266,
				"element": "C" 
			},
			{
				"x": -0.7462620491,
				"y": 0.9086504549,
				"z": 0.8937304112,
				"element": "C" 
			},
			{
				"x": -0.1852716975,
				"y": 0.109507901,
				"z": -0.1021082192,
				"element": "C" 
			},
			{
				"x": 1.7151307632,
				"y": -0.5841058864,
				"z": -3.9334897167,
				"element": "H" 
			},
			{
				"x": 1.609379434,
				"y": 1.0764668357,
				"z": -3.3216714148,
				"element": "H" 
			},
			{
				"x": 0.1842007889,
				"y": 0.0332904344,
				"z": -3.2868863397,
				"element": "H" 
			},
			{
				"x": 2.7580031947,
				"y": -0.4457747303,
				"z": -1.6652526485,
				"element": "H" 
			},
			{
				"x": 1.3406930528,
				"y": -1.4832320564,
				"z": -1.6306888856,
				"element": "H" 
			},
			{
				"x": 2.733130723,
				"y": 1.7724185726,
				"z": -0.5427036944,
				"element": "H" 
			},
			{
				"x": 1.7417131215,
				"y": 3.1853729856,
				"z": 1.216793388,
				"element": "H" 
			},
			{
				"x": 0.0728698731,
				"y": 3.3920826494,
				"z": 3.0657677905,
				"element": "H" 
			},
			{
				"x": -1.2897504583,
				"y": 3.7183839322,
				"z": 1.9939708926,
				"element": "H" 
			},
			{
				"x": -1.3556047421,
				"y": 2.3463711288,
				"z": 3.1008600968,
				"element": "H" 
			},
			{
				"x": -1.7212163483,
				"y": 0.6505679652,
				"z": 1.3011903727,
				"element": "H" 
			},
			{
				"x": -0.7297866503,
				"y": -0.7623929177,
				"z": -0.4583493411,
				"element": "H" 
			}
		],
		 "valence_orbital": [ 
			{
				"type": "occ",
				"energy": -0.33401,
				"method": "rhf"
			},
			{
				"type": "occ",
				"energy": -0.3238,
				"method": "rhf"
			},
			{
				"type": "occ",
				"energy": -0.32301,
				"method": "rhf"
			},
			{
				"type": "occ",
				"energy": -0.24159,
				"method": "rhf"
			},
			{
				"type": "occ",
				"energy": -0.22619,
				"method": "rhf"
			},
			{
				"type": "unocc",
				"energy": 0.00576,
				"method": "rhf"
			},
			{
				"type": "unocc",
				"energy": 0.00775,
				"method": "rhf"
			},
			{
				"type": "unocc",
				"energy": 0.09932,
				"method": "rhf"
			},
			{
				"type": "unocc",
				"energy": 0.10986,
				"method": "rhf"
			},
			{
				"type": "unocc",
				"energy": 0.13065,
				"method": "rhf"
			}
		],
		"cosmo_sigma_profile": { 
			"-0.025": 0.0,
			"-0.024": 0.0,
			"-0.023": 0.0,
			"-0.022": 0.0,
			"-0.021": 0.0,
			"-0.02": 0.0,
			"-0.019": 0.0,
			"-0.018": 0.0,
			"-0.017": 0.0,
			"-0.016": 0.0,
			"-0.015": 0.0,
			"-0.014": 0.0,
			"-0.013": 0.0,
			"-0.012": 0.0,
			"-0.011": 0.0,
			"-0.01": 0.0,
			"-0.009": 0.0,
			"-0.008": 0.0,
			"-0.007": 0.0,
			"-0.006": 0.0,
			"-0.005": 4.63521674814,
			"-0.004": 13.155803348,
			"-0.003": 25.5440165069,
			"-0.002": 23.3667938596,
			"-0.001": 24.2572268336,
			"0.0": 26.0924772213,
			"0.001": 21.1384282918,
			"0.002": 10.8595017728,
			"0.003": 7.60872930992,
			"0.004": 7.95024334188,
			"0.005": 6.89751250886,
			"0.006": 7.43508693121,
			"0.007": 6.09095805673,
			"0.008": 0.44770690129,
			"0.009": 0.0,
			"0.01": 0.0,
			"0.011": 0.0,
			"0.012": 0.0,
			"0.013": 0.0,
			"0.014": 0.0,
			"0.015": 0.0,
			"0.016": 0.0,
			"0.017": 0.0,
			"0.018": 0.0,
			"0.019": 0.0,
			"0.02": 0.0,
			"0.021": 0.0,
			"0.022": 0.0,
			"0.023": 0.0,
			"0.024": 0.0,
			"0.025": 0.0
		}
	}
}
