{
	 "smiles": "CCCC(C)(COC(N)=O)COC(N)=O", 
	 "Tm": 377.15, 
	 "num_atms": 33, 
	 "gaussian": { 
		 "optdone": 1, 
		 "sigma_profile": "yes", 
		 "theory": "DFT", 
		 "functional": "B3LYP", 
		 "basiset": "6-31G**", 
		 "properties": { 
			 "R2extent": 5100.025, 
			 "electric_dipole_moment_norm": 2.5313894248, 
			 "electric_quadrupole_moment_norm": 12.9219168822, 
			 "total_energy": -764.266068615, 
			 "HOMO_LUMO_gap": 0.32049, 
			 "cosmo_polarized_energy": -19.31, 
			 "cosmo_cavitation_energy": 35.96, 
			 "cosmo_dispersion_energy": -24.58, 
			 "cosmo_repulsion_energy": 2.03, 
			 "cosmo_total_nonelectrostatic_energy": 13.4, 
			 "SMD_solvation_energy": 8.66 
		},
		"coords": [
			{
				"x": 1.7456511879,
				"y": 3.1544800756,
				"z": -0.2513314176,
				"element": "C" 
			},
			{
				"x": 1.1999452196,
				"y": 1.7956447489,
				"z": 0.203278155,
				"element": "C" 
			},
			{
				"x": 0.2889802943,
				"y": 1.1591248905,
				"z": -0.8580524245,
				"element": "C" 
			},
			{
				"x": -0.3271863634,
				"y": -0.2299927492,
				"z": -0.5340835528,
				"element": "C" 
			},
			{
				"x": 0.7578284246,
				"y": -1.286258738,
				"z": -0.2493133219,
				"element": "C" 
			},
			{
				"x": -1.2601322203,
				"y": -0.0843454255,
				"z": 0.6791118831,
				"element": "C" 
			},
			{
				"x": -1.9166556167,
				"y": -1.3437235264,
				"z": 0.9229339118,
				"element": "O" 
			},
			{
				"x": -2.5325605154,
				"y": -1.4585478209,
				"z": 2.1317213903,
				"element": "C" 
			},
			{
				"x": -3.1012787073,
				"y": -2.696450245,
				"z": 2.2476986246,
				"element": "N" 
			},
			{
				"x": -2.5450506251,
				"y": -0.5952343363,
				"z": 2.9871457484,
				"element": "O" 
			},
			{
				"x": -1.1902681705,
				"y": -0.6807057981,
				"z": -1.7266755672,
				"element": "C" 
			},
			{
				"x": -0.3519331288,
				"y": -0.8045421157,
				"z": -2.8920624731,
				"element": "O" 
			},
			{
				"x": -0.8841026131,
				"y": -1.5123822992,
				"z": -3.9243426034,
				"element": "C" 
			},
			{
				"x": 0.0176736538,
				"y": -1.5864953668,
				"z": -4.9512687149,
				"element": "N" 
			},
			{
				"x": -1.9854366632,
				"y": -2.0265227713,
				"z": -3.9215101018,
				"element": "O" 
			},
			{
				"x": 0.9332770254,
				"y": 3.8636803,
				"z": -0.4468918912,
				"element": "H" 
			},
			{
				"x": 2.3284436062,
				"y": 3.0583305919,
				"z": -1.1746406307,
				"element": "H" 
			},
			{
				"x": 2.3970179782,
				"y": 3.5967826906,
				"z": 0.5092400661,
				"element": "H" 
			},
			{
				"x": 0.6571416582,
				"y": 1.9282292523,
				"z": 1.1471892873,
				"element": "H" 
			},
			{
				"x": 2.0410523464,
				"y": 1.1280176981,
				"z": 0.4245464779,
				"element": "H" 
			},
			{
				"x": 0.8540089234,
				"y": 1.0586657316,
				"z": -1.7918127554,
				"element": "H" 
			},
			{
				"x": -0.5324908085,
				"y": 1.8568400498,
				"z": -1.0784472565,
				"element": "H" 
			},
			{
				"x": 1.356021809,
				"y": -1.0168972141,
				"z": 0.6259699131,
				"element": "H" 
			},
			{
				"x": 0.3024270205,
				"y": -2.2605806669,
				"z": -0.0516529784,
				"element": "H" 
			},
			{
				"x": 1.428888913,
				"y": -1.3899207846,
				"z": -1.1060247297,
				"element": "H" 
			},
			{
				"x": -2.0242024186,
				"y": 0.6819927713,
				"z": 0.497429088,
				"element": "H" 
			},
			{
				"x": -0.7082014108,
				"y": 0.2037831926,
				"z": 1.5760290623,
				"element": "H" 
			},
			{
				"x": -3.7384973319,
				"y": -2.8248754094,
				"z": 3.0164972678,
				"element": "H" 
			},
			{
				"x": -3.2231346553,
				"y": -3.2611322369,
				"z": 1.422106499,
				"element": "H" 
			},
			{
				"x": -1.6705410266,
				"y": -1.6397689686,
				"z": -1.5283914672,
				"element": "H" 
			},
			{
				"x": -1.9774414231,
				"y": 0.0547506372,
				"z": -1.9360243049,
				"element": "H" 
			},
			{
				"x": -0.3382031174,
				"y": -1.916636539,
				"z": -5.8333067227,
				"element": "H" 
			},
			{
				"x": 0.8087587552,
				"y": -0.9627096184,
				"z": -4.9558644609,
				"element": "H" 
			}
		],
		 "valence_orbital": [ 
			{
				"type": "occ",
				"energy": -0.29027,
				"method": "rhf"
			},
			{
				"type": "occ",
				"energy": -0.27561,
				"method": "rhf"
			},
			{
				"type": "occ",
				"energy": -0.27524,
				"method": "rhf"
			},
			{
				"type": "occ",
				"energy": -0.26824,
				"method": "rhf"
			},
			{
				"type": "occ",
				"energy": -0.26731,
				"method": "rhf"
			},
			{
				"type": "unocc",
				"energy": 0.05318,
				"method": "rhf"
			},
			{
				"type": "unocc",
				"energy": 0.05394,
				"method": "rhf"
			},
			{
				"type": "unocc",
				"energy": 0.07702,
				"method": "rhf"
			},
			{
				"type": "unocc",
				"energy": 0.0796,
				"method": "rhf"
			},
			{
				"type": "unocc",
				"energy": 0.08722,
				"method": "rhf"
			}
		],
		"cosmo_sigma_profile": { 
			"-0.025": 0.0,
			"-0.024": 0.0,
			"-0.023": 0.0,
			"-0.022": 0.0,
			"-0.021": 0.0,
			"-0.02": 0.0,
			"-0.019": 0.0,
			"-0.018": 0.0,
			"-0.017": 0.0,
			"-0.016": 0.0,
			"-0.015": 0.33636132099,
			"-0.014": 4.07270479525,
			"-0.013": 5.01218447739,
			"-0.012": 3.21894756097,
			"-0.011": 3.75444964481,
			"-0.01": 4.82565252278,
			"-0.009": 3.88818620531,
			"-0.008": 3.70445933914,
			"-0.007": 2.87365393348,
			"-0.006": 3.15674400388,
			"-0.005": 10.016933305,
			"-0.004": 12.1659658694,
			"-0.003": 19.0692442496,
			"-0.002": 27.9029017683,
			"-0.001": 31.5768715401,
			"0.0": 31.9913492739,
			"0.001": 26.627121973,
			"0.002": 16.8642401941,
			"0.003": 9.43341348397,
			"0.004": 9.77505966183,
			"0.005": 6.29155819334,
			"0.006": 4.98400834909,
			"0.007": 3.83400877786,
			"0.008": 3.43883886148,
			"0.009": 3.208574485,
			"0.01": 2.92671958899,
			"0.011": 3.27834546177,
			"0.012": 4.18782323312,
			"0.013": 11.9370805647,
			"0.014": 4.39256726399,
			"0.015": 0.00260608946135,
			"0.016": 0.0,
			"0.017": 0.0,
			"0.018": 0.0,
			"0.019": 0.0,
			"0.02": 0.0,
			"0.021": 0.0,
			"0.022": 0.0,
			"0.023": 0.0,
			"0.024": 0.0,
			"0.025": 0.0
		}
	}
}
