{
	 "smiles": "NC1=CC2=C(C=C1)C(=CC(=O)O2)C(F)(F)F", 
	 "Tm": 496.15, 
	 "num_atms": 22, 
	 "gaussian": { 
		 "optdone": 1, 
		 "sigma_profile": "yes", 
		 "theory": "DFT", 
		 "functional": "B3LYP", 
		 "basiset": "6-31G**", 
		 "properties": { 
			 "R2extent": 4480.5825, 
			 "electric_dipole_moment_norm": 6.13545831621, 
			 "electric_quadrupole_moment_norm": 23.5800907123, 
			 "total_energy": -889.413191107, 
			 "HOMO_LUMO_gap": 0.14689, 
			 "cosmo_polarized_energy": -14.53, 
			 "cosmo_cavitation_energy": 28.07, 
			 "cosmo_dispersion_energy": -20.51, 
			 "cosmo_repulsion_energy": 1.52, 
			 "cosmo_total_nonelectrostatic_energy": 9.07, 
			 "SMD_solvation_energy": 7.03 
		},
		"coords": [
			{
				"x": 3.2252430691,
				"y": -1.6693223418,
				"z": 0.0131750215,
				"element": "N" 
			},
			{
				"x": 1.9254067293,
				"y": -1.2806026685,
				"z": -0.2348520789,
				"element": "C" 
			},
			{
				"x": 1.3532845169,
				"y": -1.4568904292,
				"z": -1.5023061517,
				"element": "C" 
			},
			{
				"x": 0.0262894453,
				"y": -1.1024581775,
				"z": -1.7157916364,
				"element": "C" 
			},
			{
				"x": -0.7812235987,
				"y": -0.5610810038,
				"z": -0.6906793245,
				"element": "C" 
			},
			{
				"x": -0.1852209104,
				"y": -0.3912428292,
				"z": 0.5784549933,
				"element": "C" 
			},
			{
				"x": 1.1307226638,
				"y": -0.7395762984,
				"z": 0.8054576514,
				"element": "C" 
			},
			{
				"x": -2.1419327748,
				"y": -0.2307998374,
				"z": -1.0395534542,
				"element": "C" 
			},
			{
				"x": -2.6083964121,
				"y": -0.4359593309,
				"z": -2.2960750276,
				"element": "C" 
			},
			{
				"x": -1.7662020521,
				"y": -0.9932440594,
				"z": -3.34504156,
				"element": "C" 
			},
			{
				"x": -2.0980920951,
				"y": -1.2062653176,
				"z": -4.4868175083,
				"element": "O" 
			},
			{
				"x": -0.4563386802,
				"y": -1.3025578346,
				"z": -2.976448896,
				"element": "O" 
			},
			{
				"x": -3.0635206426,
				"y": 0.3532927988,
				"z": 0.0079666965,
				"element": "C" 
			},
			{
				"x": -2.5734409809,
				"y": 1.5166975924,
				"z": 0.4931762996,
				"element": "F" 
			},
			{
				"x": -3.201491695,
				"y": -0.4863845417,
				"z": 1.058783596,
				"element": "F" 
			},
			{
				"x": -4.2942119119,
				"y": 0.6035396983,
				"z": -0.4729161513,
				"element": "F" 
			},
			{
				"x": 3.8330677795,
				"y": -1.7994298665,
				"z": -0.7814044938,
				"element": "H" 
			},
			{
				"x": 3.6805592546,
				"y": -1.2773481163,
				"z": 0.8234349356,
				"element": "H" 
			},
			{
				"x": 1.9223631573,
				"y": -1.870191702,
				"z": -2.3283899571,
				"element": "H" 
			},
			{
				"x": -0.7693513734,
				"y": 0.0215959834,
				"z": 1.3915784317,
				"element": "H" 
			},
			{
				"x": 1.5642715076,
				"y": -0.6039585886,
				"z": 1.7920305743,
				"element": "H" 
			},
			{
				"x": -3.6238849964,
				"y": -0.1965131295,
				"z": -2.5803819603,
				"element": "H" 
			}
		],
		 "valence_orbital": [ 
			{
				"type": "occ",
				"energy": -0.35006,
				"method": "rhf"
			},
			{
				"type": "occ",
				"energy": -0.29394,
				"method": "rhf"
			},
			{
				"type": "occ",
				"energy": -0.27651,
				"method": "rhf"
			},
			{
				"type": "occ",
				"energy": -0.25351,
				"method": "rhf"
			},
			{
				"type": "occ",
				"energy": -0.21992,
				"method": "rhf"
			},
			{
				"type": "unocc",
				"energy": -0.07303,
				"method": "rhf"
			},
			{
				"type": "unocc",
				"energy": -0.01526,
				"method": "rhf"
			},
			{
				"type": "unocc",
				"energy": 0.00063,
				"method": "rhf"
			},
			{
				"type": "unocc",
				"energy": 0.06018,
				"method": "rhf"
			},
			{
				"type": "unocc",
				"energy": 0.08246,
				"method": "rhf"
			}
		],
		"cosmo_sigma_profile": { 
			"-0.025": 0.0,
			"-0.024": 0.0,
			"-0.023": 0.0,
			"-0.022": 0.0,
			"-0.021": 0.0,
			"-0.02": 0.0,
			"-0.019": 0.0,
			"-0.018": 0.0,
			"-0.017": 0.0,
			"-0.016": 0.0,
			"-0.015": 0.0,
			"-0.014": 1.35562054211,
			"-0.013": 3.05544153077,
			"-0.012": 3.23341303407,
			"-0.011": 3.13110065934,
			"-0.01": 3.60114604857,
			"-0.009": 2.68110306433,
			"-0.008": 4.38602763143,
			"-0.007": 5.9967356482,
			"-0.006": 6.50170676391,
			"-0.005": 8.47613279167,
			"-0.004": 9.7488518862,
			"-0.003": 11.8110292751,
			"-0.002": 13.180075255,
			"-0.001": 15.8103790313,
			"0.0": 15.8834811713,
			"0.001": 24.2445365745,
			"0.002": 38.0944349335,
			"0.003": 18.2576304958,
			"0.004": 5.29452308423,
			"0.005": 3.29516753043,
			"0.006": 2.96945024278,
			"0.007": 2.67161730732,
			"0.008": 3.08004861192,
			"0.009": 3.26463521928,
			"0.01": 3.21261227671,
			"0.011": 5.19363787219,
			"0.012": 5.64390559608,
			"0.013": 1.6974250525,
			"0.014": 0.0245325184395,
			"0.015": 0.0,
			"0.016": 0.0,
			"0.017": 0.0,
			"0.018": 0.0,
			"0.019": 0.0,
			"0.02": 0.0,
			"0.021": 0.0,
			"0.022": 0.0,
			"0.023": 0.0,
			"0.024": 0.0,
			"0.025": 0.0
		}
	}
}
