{
	 "smiles": "CC(=O)C1=C(C)N(O)C2=C1C1=NON=C1C=C2", 
	 "Tm": 575.15, 
	 "num_atms": 26, 
	 "gaussian": { 
		 "optdone": 1, 
		 "sigma_profile": "yes", 
		 "theory": "DFT", 
		 "functional": "B3LYP", 
		 "basiset": "6-31G**", 
		 "properties": { 
			 "R2extent": 4296.9064, 
			 "electric_dipole_moment_norm": 5.93361496813, 
			 "electric_quadrupole_moment_norm": 8.42701318618, 
			 "total_energy": -814.380812477, 
			 "HOMO_LUMO_gap": 0.14597, 
			 "cosmo_polarized_energy": -17.28, 
			 "cosmo_cavitation_energy": 30.46, 
			 "cosmo_dispersion_energy": -22.37, 
			 "cosmo_repulsion_energy": 1.68, 
			 "cosmo_total_nonelectrostatic_energy": 9.76, 
			 "SMD_solvation_energy": 6.25 
		},
		"coords": [
			{
				"x": 0.3428817885,
				"y": 2.6205874837,
				"z": 3.0708232454,
				"element": "C" 
			},
			{
				"x": -0.4867815907,
				"y": 1.3713543181,
				"z": 2.8792808201,
				"element": "C" 
			},
			{
				"x": -1.0810661233,
				"y": 0.8674652503,
				"z": 3.8290044776,
				"element": "O" 
			},
			{
				"x": -0.5900078279,
				"y": 0.7545641661,
				"z": 1.5368389329,
				"element": "C" 
			},
			{
				"x": -1.4115693223,
				"y": -0.3604586178,
				"z": 1.3137077592,
				"element": "C" 
			},
			{
				"x": -2.3028517189,
				"y": -1.1324408972,
				"z": 2.2261642068,
				"element": "C" 
			},
			{
				"x": -1.2798602384,
				"y": -0.6960207415,
				"z": -0.0068690299,
				"element": "N" 
			},
			{
				"x": -2.0031671754,
				"y": -1.6872170598,
				"z": -0.6425243941,
				"element": "O" 
			},
			{
				"x": -0.4348306955,
				"y": 0.1580816527,
				"z": -0.6788874197,
				"element": "C" 
			},
			{
				"x": 0.0262491881,
				"y": 1.082472705,
				"z": 0.2747235392,
				"element": "C" 
			},
			{
				"x": 0.9502608018,
				"y": 2.0485724504,
				"z": -0.2517625287,
				"element": "C" 
			},
			{
				"x": 1.6036621471,
				"y": 3.0480865128,
				"z": 0.3103357946,
				"element": "N" 
			},
			{
				"x": 2.3386851244,
				"y": 3.6106562862,
				"z": -0.7030208526,
				"element": "O" 
			},
			{
				"x": 2.1610655195,
				"y": 2.9811535944,
				"z": -1.9017164981,
				"element": "N" 
			},
			{
				"x": 1.3057861416,
				"y": 2.0076829664,
				"z": -1.6540694604,
				"element": "C" 
			},
			{
				"x": 0.7761646041,
				"y": 1.0387946815,
				"z": -2.5658058436,
				"element": "C" 
			},
			{
				"x": -0.0959626367,
				"y": 0.1158575577,
				"z": -2.0634601112,
				"element": "C" 
			},
			{
				"x": 0.0033464243,
				"y": 3.427883209,
				"z": 2.4148162332,
				"element": "H" 
			},
			{
				"x": 0.2636459946,
				"y": 2.9286997384,
				"z": 4.1140628437,
				"element": "H" 
			},
			{
				"x": 1.3910500903,
				"y": 2.4447253968,
				"z": 2.8117938244,
				"element": "H" 
			},
			{
				"x": -2.8847140685,
				"y": -1.8627342892,
				"z": 1.6599458869,
				"element": "H" 
			},
			{
				"x": -2.9757139449,
				"y": -0.4568010905,
				"z": 2.7579530612,
				"element": "H" 
			},
			{
				"x": -1.7207223446,
				"y": -1.6436930663,
				"z": 2.9987095812,
				"element": "H" 
			},
			{
				"x": -1.4728594295,
				"y": -2.496716415,
				"z": -0.5494489402,
				"element": "H" 
			},
			{
				"x": 1.0658962095,
				"y": 1.0566141378,
				"z": -3.6092692487,
				"element": "H" 
			},
			{
				"x": -0.5455869171,
				"y": -0.6432699302,
				"z": -2.6940258794,
				"element": "H" 
			}
		],
		 "valence_orbital": [ 
			{
				"type": "occ",
				"energy": -0.31411,
				"method": "rhf"
			},
			{
				"type": "occ",
				"energy": -0.2903,
				"method": "rhf"
			},
			{
				"type": "occ",
				"energy": -0.25647,
				"method": "rhf"
			},
			{
				"type": "occ",
				"energy": -0.24267,
				"method": "rhf"
			},
			{
				"type": "occ",
				"energy": -0.22502,
				"method": "rhf"
			},
			{
				"type": "unocc",
				"energy": -0.07905,
				"method": "rhf"
			},
			{
				"type": "unocc",
				"energy": -0.03846,
				"method": "rhf"
			},
			{
				"type": "unocc",
				"energy": -0.00136,
				"method": "rhf"
			},
			{
				"type": "unocc",
				"energy": 0.01788,
				"method": "rhf"
			},
			{
				"type": "unocc",
				"energy": 0.0245,
				"method": "rhf"
			}
		],
		"cosmo_sigma_profile": { 
			"-0.025": 0.0,
			"-0.024": 0.0,
			"-0.023": 0.0,
			"-0.022": 0.0,
			"-0.021": 0.0,
			"-0.02": 0.390553412831,
			"-0.019": 1.44901273897,
			"-0.018": 1.38711618507,
			"-0.017": 1.03771985573,
			"-0.016": 0.992132572182,
			"-0.015": 0.90448831599,
			"-0.014": 0.86840267572,
			"-0.013": 0.987516850839,
			"-0.012": 0.80714322831,
			"-0.011": 1.31225369868,
			"-0.01": 0.721440299555,
			"-0.009": 1.25890910636,
			"-0.008": 4.31067527205,
			"-0.007": 4.33989849089,
			"-0.006": 5.55887328253,
			"-0.005": 9.83010290143,
			"-0.004": 15.0877710433,
			"-0.003": 17.3776184939,
			"-0.002": 21.4365883655,
			"-0.001": 27.8730357569,
			"0.0": 25.9792146581,
			"0.001": 18.7714828486,
			"0.002": 14.1788306502,
			"0.003": 8.08638554618,
			"0.004": 7.34930561377,
			"0.005": 10.2752842792,
			"0.006": 11.2438258102,
			"0.007": 6.55169315054,
			"0.008": 6.25803878594,
			"0.009": 4.36157061617,
			"0.01": 2.86002850341,
			"0.011": 2.946791383,
			"0.012": 3.51419608099,
			"0.013": 2.53179180157,
			"0.014": 1.10194541849,
			"0.015": 0.0710630579175,
			"0.016": 0.0,
			"0.017": 0.0,
			"0.018": 0.0,
			"0.019": 0.0,
			"0.02": 0.0,
			"0.021": 0.0,
			"0.022": 0.0,
			"0.023": 0.0,
			"0.024": 0.0,
			"0.025": 0.0
		}
	}
}
