{
	 "smiles": "ClC1=C2C=CC=C(Br)C2=NC=N1", 
	 "Tm": 433.15, 
	 "num_atms": 16, 
	 "gaussian": { 
		 "optdone": 1, 
		 "sigma_profile": "yes", 
		 "theory": "DFT", 
		 "functional": "B3LYP", 
		 "basiset": "6-31G**", 
		 "properties": { 
			 "R2extent": 5947.8282, 
			 "electric_dipole_moment_norm": 2.8079879113, 
			 "electric_quadrupole_moment_norm": 5.44267496457, 
			 "total_energy": -3448.3601891, 
			 "HOMO_LUMO_gap": 0.16394, 
			 "cosmo_polarized_energy": -7.9, 
			 "cosmo_cavitation_energy": 24.63, 
			 "cosmo_dispersion_energy": -19.16, 
			 "cosmo_repulsion_energy": 1.5, 
			 "cosmo_total_nonelectrostatic_energy": 6.97, 
			 "SMD_solvation_energy": 0.26 
		},
		"coords": [
			{
				"x": 3.5404655482,
				"y": 1.8521477239,
				"z": -1.6169478735,
				"element": "Cl" 
			},
			{
				"x": 3.4367413673,
				"y": 0.6958018455,
				"z": -0.2942233812,
				"element": "C" 
			},
			{
				"x": 2.2920737563,
				"y": -0.1513337703,
				"z": -0.1974758177,
				"element": "C" 
			},
			{
				"x": 1.1951208899,
				"y": -0.1528736349,
				"z": -1.0909697862,
				"element": "C" 
			},
			{
				"x": 0.1509376315,
				"y": -1.0251816492,
				"z": -0.8815850011,
				"element": "C" 
			},
			{
				"x": 0.1623502789,
				"y": -1.9178640949,
				"z": 0.2141676868,
				"element": "C" 
			},
			{
				"x": 1.2213953303,
				"y": -1.9317228215,
				"z": 1.095426073,
				"element": "C" 
			},
			{
				"x": 1.2075702391,
				"y": -3.1424096227,
				"z": 2.5571617321,
				"element": "Br" 
			},
			{
				"x": 2.3256186353,
				"y": -1.0474578258,
				"z": 0.9205582285,
				"element": "C" 
			},
			{
				"x": 3.369302249,
				"y": -1.0642483411,
				"z": 1.7929399494,
				"element": "N" 
			},
			{
				"x": 4.3456567971,
				"y": -0.220702151,
				"z": 1.5633469369,
				"element": "C" 
			},
			{
				"x": 4.4329038762,
				"y": 0.6771032703,
				"z": 0.5416685178,
				"element": "N" 
			},
			{
				"x": 1.190880043,
				"y": 0.5331479873,
				"z": -1.9293996601,
				"element": "H" 
			},
			{
				"x": -0.6959317928,
				"y": -1.0354486382,
				"z": -1.5603459631,
				"element": "H" 
			},
			{
				"x": -0.6676443379,
				"y": -2.5987599841,
				"z": 0.3653551081,
				"element": "H" 
			},
			{
				"x": 5.1858594885,
				"y": -0.2242982934,
				"z": 2.2533232503,
				"element": "H" 
			}
		],
		 "valence_orbital": [ 
			{
				"type": "occ",
				"energy": -0.30974,
				"method": "rhf"
			},
			{
				"type": "occ",
				"energy": -0.29324,
				"method": "rhf"
			},
			{
				"type": "occ",
				"energy": -0.28537,
				"method": "rhf"
			},
			{
				"type": "occ",
				"energy": -0.27001,
				"method": "rhf"
			},
			{
				"type": "occ",
				"energy": -0.24959,
				"method": "rhf"
			},
			{
				"type": "unocc",
				"energy": -0.08565,
				"method": "rhf"
			},
			{
				"type": "unocc",
				"energy": -0.05236,
				"method": "rhf"
			},
			{
				"type": "unocc",
				"energy": -0.00567,
				"method": "rhf"
			},
			{
				"type": "unocc",
				"energy": -0.00358,
				"method": "rhf"
			},
			{
				"type": "unocc",
				"energy": 0.02563,
				"method": "rhf"
			}
		],
		"cosmo_sigma_profile": { 
			"-0.025": 0.0,
			"-0.024": 0.0,
			"-0.023": 0.0,
			"-0.022": 0.0,
			"-0.021": 0.0,
			"-0.02": 0.0,
			"-0.019": 0.0,
			"-0.018": 0.0,
			"-0.017": 0.0,
			"-0.016": 0.0,
			"-0.015": 0.0,
			"-0.014": 0.0,
			"-0.013": 0.0,
			"-0.012": 0.0,
			"-0.011": 0.0,
			"-0.01": 0.0,
			"-0.009": 0.679738536809,
			"-0.008": 5.89522727907,
			"-0.007": 9.45848390946,
			"-0.006": 6.76610995616,
			"-0.005": 8.9093121759,
			"-0.004": 10.7259161965,
			"-0.003": 15.0844847187,
			"-0.002": 19.2083772037,
			"-0.001": 19.3014919411,
			"0.0": 20.8694539821,
			"0.001": 20.5649369752,
			"0.002": 14.5723612226,
			"0.003": 15.0224153709,
			"0.004": 13.4953446621,
			"0.005": 5.14533526913,
			"0.006": 3.7314350813,
			"0.007": 3.30571715185,
			"0.008": 2.21671352978,
			"0.009": 2.42542771144,
			"0.01": 2.03374964258,
			"0.011": 2.44762363961,
			"0.012": 1.71695025238,
			"0.013": 1.57247985522,
			"0.014": 0.213327683402,
			"0.015": 0.0,
			"0.016": 0.0,
			"0.017": 0.0,
			"0.018": 0.0,
			"0.019": 0.0,
			"0.02": 0.0,
			"0.021": 0.0,
			"0.022": 0.0,
			"0.023": 0.0,
			"0.024": 0.0,
			"0.025": 0.0
		}
	}
}
