{
	 "smiles": "CC(C)(C)C1=CC=C(C=C1)[C@H]1CC[C@@]2(CC3=CC=C(O)C=C3C2)CC1", 
	 "Tm": 429.15, 
	 "num_atms": 55, 
	 "gaussian": { 
		 "optdone": 1, 
		 "sigma_profile": "yes", 
		 "theory": "DFT", 
		 "functional": "B3LYP", 
		 "basiset": "6-31G**", 
		 "properties": { 
			 "R2extent": 16119.2321, 
			 "electric_dipole_moment_norm": 1.13326685736, 
			 "electric_quadrupole_moment_norm": 15.6658462405, 
			 "total_energy": -1007.88940299, 
			 "HOMO_LUMO_gap": 0.20881, 
			 "cosmo_polarized_energy": -10.63, 
			 "cosmo_cavitation_energy": 52.5, 
			 "cosmo_dispersion_energy": -36.65, 
			 "cosmo_repulsion_energy": 2.74, 
			 "cosmo_total_nonelectrostatic_energy": 18.59, 
			 "SMD_solvation_energy": 7.87 
		},
		"coords": [
			{
				"x": 2.0999845553,
				"y": 4.707376346,
				"z": 3.4747535376,
				"element": "C" 
			},
			{
				"x": 0.8911103688,
				"y": 3.9706061955,
				"z": 4.0993516155,
				"element": "C" 
			},
			{
				"x": 1.2299628645,
				"y": 3.6531354486,
				"z": 5.5681446759,
				"element": "C" 
			},
			{
				"x": -0.3420167131,
				"y": 4.9051938635,
				"z": 4.0808478948,
				"element": "C" 
			},
			{
				"x": 0.5852384506,
				"y": 2.7018279839,
				"z": 3.2829089627,
				"element": "C" 
			},
			{
				"x": 0.2554030883,
				"y": 2.8032752315,
				"z": 1.9197175189,
				"element": "C" 
			},
			{
				"x": -0.0282199051,
				"y": 1.6804475239,
				"z": 1.1477490806,
				"element": "C" 
			},
			{
				"x": 0.0060727952,
				"y": 0.3895219305,
				"z": 1.6988782509,
				"element": "C" 
			},
			{
				"x": 0.3344951409,
				"y": 0.2854807615,
				"z": 3.0532881299,
				"element": "C" 
			},
			{
				"x": 0.617048536,
				"y": 1.4133215753,
				"z": 3.829217959,
				"element": "C" 
			},
			{
				"x": -0.3196232072,
				"y": -0.8489735964,
				"z": 0.8808184253,
				"element": "C" 
			},
			{
				"x": -1.8386424552,
				"y": -0.9570751122,
				"z": 0.5841617335,
				"element": "C" 
			},
			{
				"x": -2.1038272255,
				"y": -2.0366832935,
				"z": -0.4720808238,
				"element": "C" 
			},
			{
				"x": -1.5340495823,
				"y": -1.6629147916,
				"z": -1.8674428683,
				"element": "C" 
			},
			{
				"x": -2.5928239249,
				"y": -1.0271199976,
				"z": -2.8254873605,
				"element": "C" 
			},
			{
				"x": -2.1300482253,
				"y": -1.4418054768,
				"z": -4.205091234,
				"element": "C" 
			},
			{
				"x": -2.4603017852,
				"y": -0.9242037875,
				"z": -5.4536474654,
				"element": "C" 
			},
			{
				"x": -1.9147344233,
				"y": -1.499652026,
				"z": -6.6061160125,
				"element": "C" 
			},
			{
				"x": -1.0437306796,
				"y": -2.5912442161,
				"z": -6.5040777788,
				"element": "C" 
			},
			{
				"x": -0.4798455926,
				"y": -3.1847102869,
				"z": -7.6021188423,
				"element": "O" 
			},
			{
				"x": -0.7084835719,
				"y": -3.1185411279,
				"z": -5.2494075245,
				"element": "C" 
			},
			{
				"x": -1.256647747,
				"y": -2.5365048688,
				"z": -4.1123918511,
				"element": "C" 
			},
			{
				"x": -1.0726762621,
				"y": -2.9244223135,
				"z": -2.6630843757,
				"element": "C" 
			},
			{
				"x": -0.3364459179,
				"y": -0.6826142994,
				"z": -1.6979517686,
				"element": "C" 
			},
			{
				"x": 0.5010601153,
				"y": -0.9743463924,
				"z": -0.4449486836,
				"element": "C" 
			},
			{
				"x": 2.9917385693,
				"y": 4.071974056,
				"z": 3.4823865411,
				"element": "H" 
			},
			{
				"x": 2.3266170524,
				"y": 5.6186082098,
				"z": 4.0401960399,
				"element": "H" 
			},
			{
				"x": 1.9074924773,
				"y": 4.9985858071,
				"z": 2.4378793873,
				"element": "H" 
			},
			{
				"x": 0.3998312588,
				"y": 3.1543836626,
				"z": 6.0791954612,
				"element": "H" 
			},
			{
				"x": 2.116306644,
				"y": 3.0158014858,
				"z": 5.6531479628,
				"element": "H" 
			},
			{
				"x": 1.4390601638,
				"y": 4.5824640512,
				"z": 6.1081272292,
				"element": "H" 
			},
			{
				"x": -0.6112315952,
				"y": 5.2034247897,
				"z": 3.0632144182,
				"element": "H" 
			},
			{
				"x": -1.2129923667,
				"y": 4.4121942133,
				"z": 4.5251287394,
				"element": "H" 
			},
			{
				"x": -0.1390876153,
				"y": 5.8179243286,
				"z": 4.6528467378,
				"element": "H" 
			},
			{
				"x": 0.2180237901,
				"y": 3.7801083665,
				"z": 1.4453194278,
				"element": "H" 
			},
			{
				"x": -0.2774019085,
				"y": 1.814832357,
				"z": 0.0983204804,
				"element": "H" 
			},
			{
				"x": 0.3743858934,
				"y": -0.697988,
				"z": 3.5168142896,
				"element": "H" 
			},
			{
				"x": 0.867432453,
				"y": 1.2685527704,
				"z": 4.8742282586,
				"element": "H" 
			},
			{
				"x": -0.061631193,
				"y": -1.7136908443,
				"z": 1.5053646546,
				"element": "H" 
			},
			{
				"x": -2.221486303,
				"y": 0.0109050395,
				"z": 0.2369596484,
				"element": "H" 
			},
			{
				"x": -2.3750008638,
				"y": -1.1797544582,
				"z": 1.5133080912,
				"element": "H" 
			},
			{
				"x": -1.6397142771,
				"y": -2.9716050866,
				"z": -0.1280694746,
				"element": "H" 
			},
			{
				"x": -3.1771518874,
				"y": -2.2459921316,
				"z": -0.5525751597,
				"element": "H" 
			},
			{
				"x": -2.6765744898,
				"y": 0.0587992391,
				"z": -2.7011194491,
				"element": "H" 
			},
			{
				"x": -3.5895336735,
				"y": -1.4450715602,
				"z": -2.6191582505,
				"element": "H" 
			},
			{
				"x": -3.1325803316,
				"y": -0.0747714294,
				"z": -5.5457437785,
				"element": "H" 
			},
			{
				"x": -2.1606045569,
				"y": -1.0955356784,
				"z": -7.5863563344,
				"element": "H" 
			},
			{
				"x": -0.7866062608,
				"y": -2.7293072192,
				"z": -8.3965817722,
				"element": "H" 
			},
			{
				"x": -0.0267624589,
				"y": -3.9621243172,
				"z": -5.1976763425,
				"element": "H" 
			},
			{
				"x": -1.715942083,
				"y": -3.7828575807,
				"z": -2.4191489644,
				"element": "H" 
			},
			{
				"x": -0.0467810376,
				"y": -3.2218219014,
				"z": -2.4152284056,
				"element": "H" 
			},
			{
				"x": -0.7192510432,
				"y": 0.3437185055,
				"z": -1.6408153182,
				"element": "H" 
			},
			{
				"x": 0.2962080623,
				"y": -0.7150490439,
				"z": -2.5921928529,
				"element": "H" 
			},
			{
				"x": 1.3684380675,
				"y": -0.3071146835,
				"z": -0.4121657176,
				"element": "H" 
			},
			{
				"x": 0.9067408167,
				"y": -1.9911682211,
				"z": -0.5176967428,
				"element": "H" 
			}
		],
		 "valence_orbital": [ 
			{
				"type": "occ",
				"energy": -0.28898,
				"method": "rhf"
			},
			{
				"type": "occ",
				"energy": -0.24044,
				"method": "rhf"
			},
			{
				"type": "occ",
				"energy": -0.23892,
				"method": "rhf"
			},
			{
				"type": "occ",
				"energy": -0.22528,
				"method": "rhf"
			},
			{
				"type": "occ",
				"energy": -0.20701,
				"method": "rhf"
			},
			{
				"type": "unocc",
				"energy": 0.0018,
				"method": "rhf"
			},
			{
				"type": "unocc",
				"energy": 0.00593,
				"method": "rhf"
			},
			{
				"type": "unocc",
				"energy": 0.00823,
				"method": "rhf"
			},
			{
				"type": "unocc",
				"energy": 0.02131,
				"method": "rhf"
			},
			{
				"type": "unocc",
				"energy": 0.07526,
				"method": "rhf"
			}
		],
		"cosmo_sigma_profile": { 
			"-0.025": 0.0,
			"-0.024": 0.0,
			"-0.023": 0.0,
			"-0.022": 0.0,
			"-0.021": 0.0,
			"-0.02": 0.0,
			"-0.019": 0.0,
			"-0.018": 0.0623132818522,
			"-0.017": 0.971174089168,
			"-0.016": 1.04914861212,
			"-0.015": 0.816346147608,
			"-0.014": 1.28596130141,
			"-0.013": 1.05449263769,
			"-0.012": 0.833712311735,
			"-0.011": 0.761782587971,
			"-0.01": 0.605981619607,
			"-0.009": 1.63829591952,
			"-0.008": 0.884328233252,
			"-0.007": 1.22434404963,
			"-0.006": 1.93218549039,
			"-0.005": 8.73269291563,
			"-0.004": 16.8566601396,
			"-0.003": 39.2457399183,
			"-0.002": 64.088136975,
			"-0.001": 57.3477693059,
			"0.0": 50.6879827611,
			"0.001": 47.4246396149,
			"0.002": 28.3778069732,
			"0.003": 14.9996232284,
			"0.004": 14.9420941923,
			"0.005": 16.1985083762,
			"0.006": 16.0384328047,
			"0.007": 11.5714816482,
			"0.008": 2.37146867333,
			"0.009": 1.32762331592,
			"0.01": 1.9367690279,
			"0.011": 1.63043814647,
			"0.012": 1.67387408502,
			"0.013": 0.0374796540535,
			"0.014": 0.0,
			"0.015": 0.0,
			"0.016": 0.0,
			"0.017": 0.0,
			"0.018": 0.0,
			"0.019": 0.0,
			"0.02": 0.0,
			"0.021": 0.0,
			"0.022": 0.0,
			"0.023": 0.0,
			"0.024": 0.0,
			"0.025": 0.0
		}
	}
}
