{
	 "smiles": "OC(CCN1CCCCC1)(C1CCCCC1)C1=CC=CC=C1", 
	 "Tm": 387.15, 
	 "num_atms": 53, 
	 "gaussian": { 
		 "optdone": 1, 
		 "sigma_profile": "yes", 
		 "theory": "DFT", 
		 "functional": "B3LYP", 
		 "basiset": "6-31G**", 
		 "properties": { 
			 "R2extent": 9099.6798, 
			 "electric_dipole_moment_norm": 1.02845682943, 
			 "electric_quadrupole_moment_norm": 5.34872822174, 
			 "total_energy": -910.780441999, 
			 "HOMO_LUMO_gap": 0.19525, 
			 "cosmo_polarized_energy": -8.06, 
			 "cosmo_cavitation_energy": 48.49, 
			 "cosmo_dispersion_energy": -33.4, 
			 "cosmo_repulsion_energy": 2.59, 
			 "cosmo_total_nonelectrostatic_energy": 17.67, 
			 "SMD_solvation_energy": 4.08 
		},
		"coords": [
			{
				"x": -0.9930343032,
				"y": -0.5844582913,
				"z": -2.4532990215,
				"element": "O" 
			},
			{
				"x": -0.7557827457,
				"y": 0.5610766503,
				"z": -1.6145404702,
				"element": "C" 
			},
			{
				"x": -0.4323766371,
				"y": 0.0800184765,
				"z": -0.1739439684,
				"element": "C" 
			},
			{
				"x": 0.6368224394,
				"y": -1.0148611904,
				"z": -0.035774708,
				"element": "C" 
			},
			{
				"x": 0.5449124457,
				"y": -1.6946887644,
				"z": 1.2568725378,
				"element": "N" 
			},
			{
				"x": 0.8998027747,
				"y": -0.8092104903,
				"z": 2.3769277673,
				"element": "C" 
			},
			{
				"x": 1.2388468273,
				"y": -1.6125571387,
				"z": 3.6345573467,
				"element": "C" 
			},
			{
				"x": 2.5102933316,
				"y": -2.4665972029,
				"z": 3.4248324396,
				"element": "C" 
			},
			{
				"x": 2.6366394385,
				"y": -2.9173245394,
				"z": 1.9497147437,
				"element": "C" 
			},
			{
				"x": 1.2475674048,
				"y": -2.9933042927,
				"z": 1.2989199333,
				"element": "C" 
			},
			{
				"x": 0.3875014469,
				"y": 1.3499801913,
				"z": -2.3366040592,
				"element": "C" 
			},
			{
				"x": 1.0196576885,
				"y": 2.4550100058,
				"z": -1.47294945,
				"element": "C" 
			},
			{
				"x": 1.8705869096,
				"y": 3.4150647208,
				"z": -2.3369126901,
				"element": "C" 
			},
			{
				"x": 2.5798263218,
				"y": 2.6873855371,
				"z": -3.5055588383,
				"element": "C" 
			},
			{
				"x": 2.824533586,
				"y": 1.2131452234,
				"z": -3.161432991,
				"element": "C" 
			},
			{
				"x": 1.4934335785,
				"y": 0.4520890606,
				"z": -2.9642674382,
				"element": "C" 
			},
			{
				"x": -2.0269135811,
				"y": 1.4384488353,
				"z": -1.6075801935,
				"element": "C" 
			},
			{
				"x": -2.4103238331,
				"y": 2.2377242663,
				"z": -0.5207558404,
				"element": "C" 
			},
			{
				"x": -3.5580150551,
				"y": 3.032625502,
				"z": -0.5808640923,
				"element": "C" 
			},
			{
				"x": -4.3494109866,
				"y": 3.043674438,
				"z": -1.7286045894,
				"element": "C" 
			},
			{
				"x": -3.9811369029,
				"y": 2.252466236,
				"z": -2.8184777864,
				"element": "C" 
			},
			{
				"x": -2.8340333834,
				"y": 1.4623722788,
				"z": -2.7570583462,
				"element": "C" 
			},
			{
				"x": -1.774706281,
				"y": -1.0369577345,
				"z": -2.106025668,
				"element": "H" 
			},
			{
				"x": -0.1645124676,
				"y": 0.940791238,
				"z": 0.4450148483,
				"element": "H" 
			},
			{
				"x": -1.3581276674,
				"y": -0.3280601613,
				"z": 0.2532129251,
				"element": "H" 
			},
			{
				"x": 1.6438720346,
				"y": -0.5831446253,
				"z": -0.1980356089,
				"element": "H" 
			},
			{
				"x": 0.4691548598,
				"y": -1.754387332,
				"z": -0.8234458507,
				"element": "H" 
			},
			{
				"x": 1.7674666851,
				"y": -0.1657304909,
				"z": 2.1215452532,
				"element": "H" 
			},
			{
				"x": 0.063019011,
				"y": -0.1297888957,
				"z": 2.5790824508,
				"element": "H" 
			},
			{
				"x": 0.3836268632,
				"y": -2.2549637258,
				"z": 3.8759494511,
				"element": "H" 
			},
			{
				"x": 1.3655956179,
				"y": -0.9316485162,
				"z": 4.4829869583,
				"element": "H" 
			},
			{
				"x": 2.477093686,
				"y": -3.3393469505,
				"z": 4.08718206,
				"element": "H" 
			},
			{
				"x": 3.3990229542,
				"y": -1.8933522465,
				"z": 3.7135430416,
				"element": "H" 
			},
			{
				"x": 3.2535450591,
				"y": -2.2052724287,
				"z": 1.3877636017,
				"element": "H" 
			},
			{
				"x": 3.1421460642,
				"y": -3.887318812,
				"z": 1.8797382812,
				"element": "H" 
			},
			{
				"x": 0.6344509103,
				"y": -3.7176628213,
				"z": 1.8550477027,
				"element": "H" 
			},
			{
				"x": 1.320761578,
				"y": -3.3767879066,
				"z": 0.2766784037,
				"element": "H" 
			},
			{
				"x": -0.1132976317,
				"y": 1.8555939187,
				"z": -3.1723404226,
				"element": "H" 
			},
			{
				"x": 1.6499610007,
				"y": 1.9955231548,
				"z": -0.700772875,
				"element": "H" 
			},
			{
				"x": 0.2493144916,
				"y": 3.0265752035,
				"z": -0.944357392,
				"element": "H" 
			},
			{
				"x": 1.2330455092,
				"y": 4.2132090985,
				"z": -2.7355842672,
				"element": "H" 
			},
			{
				"x": 2.6123095507,
				"y": 3.906758193,
				"z": -1.6960991611,
				"element": "H" 
			},
			{
				"x": 3.5207595044,
				"y": 3.1925245264,
				"z": -3.7514848872,
				"element": "H" 
			},
			{
				"x": 1.96023658,
				"y": 2.7404520594,
				"z": -4.4103885917,
				"element": "H" 
			},
			{
				"x": 3.4166877237,
				"y": 0.7244547574,
				"z": -3.9438131417,
				"element": "H" 
			},
			{
				"x": 3.4284759722,
				"y": 1.15791269,
				"z": -2.2455037644,
				"element": "H" 
			},
			{
				"x": 1.6725807619,
				"y": -0.4363231683,
				"z": -2.3562878884,
				"element": "H" 
			},
			{
				"x": 1.1299169606,
				"y": 0.0831125585,
				"z": -3.9281567739,
				"element": "H" 
			},
			{
				"x": -1.8214452258,
				"y": 2.2451957385,
				"z": 0.3898327122,
				"element": "H" 
			},
			{
				"x": -3.8328282679,
				"y": 3.6406268896,
				"z": 0.2767553935,
				"element": "H" 
			},
			{
				"x": -5.2431780931,
				"y": 3.6594419242,
				"z": -1.7732597221,
				"element": "H" 
			},
			{
				"x": -4.5887720564,
				"y": 2.2486122313,
				"z": -3.7194300859,
				"element": "H" 
			},
			{
				"x": -2.5528724525,
				"y": 0.8444821218,
				"z": -3.603447268,
				"element": "H" 
			}
		],
		 "valence_orbital": [ 
			{
				"type": "occ",
				"energy": -0.2841,
				"method": "rhf"
			},
			{
				"type": "occ",
				"energy": -0.26778,
				"method": "rhf"
			},
			{
				"type": "occ",
				"energy": -0.24598,
				"method": "rhf"
			},
			{
				"type": "occ",
				"energy": -0.23815,
				"method": "rhf"
			},
			{
				"type": "occ",
				"energy": -0.1956,
				"method": "rhf"
			},
			{
				"type": "unocc",
				"energy": -0.00035,
				"method": "rhf"
			},
			{
				"type": "unocc",
				"energy": 0.00074,
				"method": "rhf"
			},
			{
				"type": "unocc",
				"energy": 0.07143,
				"method": "rhf"
			},
			{
				"type": "unocc",
				"energy": 0.08498,
				"method": "rhf"
			},
			{
				"type": "unocc",
				"energy": 0.09306,
				"method": "rhf"
			}
		],
		"cosmo_sigma_profile": { 
			"-0.025": 0.0,
			"-0.024": 0.0,
			"-0.023": 0.0,
			"-0.022": 0.0,
			"-0.021": 0.0,
			"-0.02": 0.0,
			"-0.019": 0.0,
			"-0.018": 0.0,
			"-0.017": 0.0,
			"-0.016": 0.0,
			"-0.015": 0.170145545102,
			"-0.014": 0.784726831427,
			"-0.013": 0.922841355492,
			"-0.012": 0.728533447135,
			"-0.011": 0.45931387467,
			"-0.01": 0.752943093476,
			"-0.009": 0.999383234474,
			"-0.008": 0.747704170644,
			"-0.007": 1.13674673721,
			"-0.006": 3.04171024515,
			"-0.005": 9.4824620725,
			"-0.004": 12.5226359228,
			"-0.003": 21.2612214102,
			"-0.002": 47.8319999776,
			"-0.001": 81.5780052895,
			"0.0": 67.1757181106,
			"0.001": 45.0017247983,
			"0.002": 23.3440490321,
			"0.003": 10.7016002893,
			"0.004": 9.20256838833,
			"0.005": 10.2204103272,
			"0.006": 9.86153600681,
			"0.007": 4.29258733554,
			"0.008": 1.51186216594,
			"0.009": 1.94217368689,
			"0.01": 2.05933354965,
			"0.011": 1.56595595342,
			"0.012": 1.96814601109,
			"0.013": 1.50347779257,
			"0.014": 0.330678982686,
			"0.015": 0.371775065319,
			"0.016": 0.358427359387,
			"0.017": 0.0372690413587,
			"0.018": 0.0,
			"0.019": 0.0,
			"0.02": 0.0,
			"0.021": 0.0,
			"0.022": 0.0,
			"0.023": 0.0,
			"0.024": 0.0,
			"0.025": 0.0
		}
	}
}
