{
	 "smiles": "CCOC(=O)N(C1=CC=CC=C1)C1=CC=CC=C1", 
	 "Tm": 345.15, 
	 "num_atms": 33, 
	 "gaussian": { 
		 "optdone": 1, 
		 "sigma_profile": "yes", 
		 "theory": "DFT", 
		 "functional": "B3LYP", 
		 "basiset": "6-31G**", 
		 "properties": { 
			 "R2extent": 5042.8573, 
			 "electric_dipole_moment_norm": 2.4686958865, 
			 "electric_quadrupole_moment_norm": 8.4681673342, 
			 "total_energy": -785.854932892, 
			 "HOMO_LUMO_gap": 0.19922, 
			 "cosmo_polarized_energy": -10.36, 
			 "cosmo_cavitation_energy": 36.96, 
			 "cosmo_dispersion_energy": -25.31, 
			 "cosmo_repulsion_energy": 2.01, 
			 "cosmo_total_nonelectrostatic_energy": 13.66, 
			 "SMD_solvation_energy": 7.48 
		},
		"coords": [
			{
				"x": 1.1543394645,
				"y": 3.7361812121,
				"z": -0.591079624,
				"element": "C" 
			},
			{
				"x": 0.4338117936,
				"y": 2.7069496631,
				"z": -1.4414025763,
				"element": "C" 
			},
			{
				"x": 0.3806869189,
				"y": 1.4826059874,
				"z": -0.6779492719,
				"element": "O" 
			},
			{
				"x": -0.2257626212,
				"y": 0.4452289182,
				"z": -1.3021482846,
				"element": "C" 
			},
			{
				"x": -0.693423733,
				"y": 0.5109590887,
				"z": -2.4234991281,
				"element": "O" 
			},
			{
				"x": -0.2281239475,
				"y": -0.6879542441,
				"z": -0.4987146226,
				"element": "N" 
			},
			{
				"x": -0.7483207079,
				"y": -1.9281424923,
				"z": -0.9990253495,
				"element": "C" 
			},
			{
				"x": -0.5031613827,
				"y": -2.3495620552,
				"z": -2.3129408542,
				"element": "C" 
			},
			{
				"x": -1.0061017428,
				"y": -3.5729907511,
				"z": -2.7532230209,
				"element": "C" 
			},
			{
				"x": -1.7419927715,
				"y": -4.3936491581,
				"z": -1.8965666575,
				"element": "C" 
			},
			{
				"x": -1.9787240404,
				"y": -3.9751400394,
				"z": -0.5866736799,
				"element": "C" 
			},
			{
				"x": -1.4905253166,
				"y": -2.7484811927,
				"z": -0.1388916875,
				"element": "C" 
			},
			{
				"x": 0.2848924206,
				"y": -0.6603220873,
				"z": 0.846092731,
				"element": "C" 
			},
			{
				"x": -0.3266235113,
				"y": 0.1216518297,
				"z": 1.8312535049,
				"element": "C" 
			},
			{
				"x": 0.1730773426,
				"y": 0.1155390465,
				"z": 3.1334052969,
				"element": "C" 
			},
			{
				"x": 1.2724796078,
				"y": -0.6801792537,
				"z": 3.4624713699,
				"element": "C" 
			},
			{
				"x": 1.8748508959,
				"y": -1.4687386468,
				"z": 2.4799508534,
				"element": "C" 
			},
			{
				"x": 1.3859328546,
				"y": -1.4580462081,
				"z": 1.1738981129,
				"element": "C" 
			},
			{
				"x": 2.1683790869,
				"y": 3.4040765004,
				"z": -0.3511379243,
				"element": "H" 
			},
			{
				"x": 1.2204743112,
				"y": 4.6840213025,
				"z": -1.1343427371,
				"element": "H" 
			},
			{
				"x": 0.6201452085,
				"y": 3.9129846634,
				"z": 0.3468513349,
				"element": "H" 
			},
			{
				"x": 0.9551667658,
				"y": 2.5159687983,
				"z": -2.3845522789,
				"element": "H" 
			},
			{
				"x": -0.5859266668,
				"y": 3.0189774467,
				"z": -1.6881614671,
				"element": "H" 
			},
			{
				"x": 0.0579681221,
				"y": -1.7148112257,
				"z": -2.985770817,
				"element": "H" 
			},
			{
				"x": -0.8125978759,
				"y": -3.8872221046,
				"z": -3.7749399025,
				"element": "H" 
			},
			{
				"x": -2.1263335455,
				"y": -5.3472481696,
				"z": -2.246035371,
				"element": "H" 
			},
			{
				"x": -2.5522191834,
				"y": -4.5998284447,
				"z": 0.0922128638,
				"element": "H" 
			},
			{
				"x": -1.6805637032,
				"y": -2.424749003,
				"z": 0.8787435007,
				"element": "H" 
			},
			{
				"x": -1.1833717375,
				"y": 0.733708603,
				"z": 1.5699280574,
				"element": "H" 
			},
			{
				"x": -0.3037461984,
				"y": 0.7276581283,
				"z": 3.8934961541,
				"element": "H" 
			},
			{
				"x": 1.6558239297,
				"y": -0.6872709277,
				"z": 4.478523926,
				"element": "H" 
			},
			{
				"x": 2.7308223308,
				"y": -2.08977423,
				"z": 2.7275558594,
				"element": "H" 
			},
			{
				"x": 1.8486676321,
				"y": -2.0666009544,
				"z": 0.4033716897,
				"element": "H" 
			}
		],
		 "valence_orbital": [ 
			{
				"type": "occ",
				"energy": -0.27472,
				"method": "rhf"
			},
			{
				"type": "occ",
				"energy": -0.25843,
				"method": "rhf"
			},
			{
				"type": "occ",
				"energy": -0.25394,
				"method": "rhf"
			},
			{
				"type": "occ",
				"energy": -0.24443,
				"method": "rhf"
			},
			{
				"type": "occ",
				"energy": -0.21253,
				"method": "rhf"
			},
			{
				"type": "unocc",
				"energy": -0.01331,
				"method": "rhf"
			},
			{
				"type": "unocc",
				"energy": -0.0088,
				"method": "rhf"
			},
			{
				"type": "unocc",
				"energy": 0.00046,
				"method": "rhf"
			},
			{
				"type": "unocc",
				"energy": 0.00731,
				"method": "rhf"
			},
			{
				"type": "unocc",
				"energy": 0.06126,
				"method": "rhf"
			}
		],
		"cosmo_sigma_profile": { 
			"-0.025": 0.0,
			"-0.024": 0.0,
			"-0.023": 0.0,
			"-0.022": 0.0,
			"-0.021": 0.0,
			"-0.02": 0.0,
			"-0.019": 0.0,
			"-0.018": 0.0,
			"-0.017": 0.0,
			"-0.016": 0.0,
			"-0.015": 0.0,
			"-0.014": 0.0,
			"-0.013": 0.0,
			"-0.012": 0.0,
			"-0.011": 0.0,
			"-0.01": 0.0,
			"-0.009": 0.0,
			"-0.008": 0.0,
			"-0.007": 0.633960495846,
			"-0.006": 11.9988660365,
			"-0.005": 25.3698776115,
			"-0.004": 33.7176435553,
			"-0.003": 31.2560855318,
			"-0.002": 28.6283194395,
			"-0.001": 24.7786215788,
			"0.0": 21.5871037565,
			"0.001": 16.9550058345,
			"0.002": 16.3467001022,
			"0.003": 18.3697278727,
			"0.004": 16.7985691361,
			"0.005": 19.4366270831,
			"0.006": 9.08782634431,
			"0.007": 3.32170315629,
			"0.008": 3.73773167007,
			"0.009": 2.0373026566,
			"0.01": 1.86036849211,
			"0.011": 1.96311182411,
			"0.012": 3.35770495992,
			"0.013": 3.17252214423,
			"0.014": 0.0,
			"0.015": 0.0,
			"0.016": 0.0,
			"0.017": 0.0,
			"0.018": 0.0,
			"0.019": 0.0,
			"0.02": 0.0,
			"0.021": 0.0,
			"0.022": 0.0,
			"0.023": 0.0,
			"0.024": 0.0,
			"0.025": 0.0
		}
	}
}
