{
	 "smiles": "NC1CCC1", 
	 "Tm": 269.15, 
	 "num_atms": 14, 
	 "gaussian": { 
		 "optdone": 1, 
		 "sigma_profile": "yes", 
		 "theory": "DFT", 
		 "functional": "B3LYP", 
		 "basiset": "6-31G**", 
		 "properties": { 
			 "R2extent": 421.4002, 
			 "electric_dipole_moment_norm": 1.2519496795, 
			 "electric_quadrupole_moment_norm": 3.20924320362, 
			 "total_energy": -212.569232336, 
			 "HOMO_LUMO_gap": 0.31144, 
			 "cosmo_polarized_energy": -4.35, 
			 "cosmo_cavitation_energy": 15.76, 
			 "cosmo_dispersion_energy": -12.13, 
			 "cosmo_repulsion_energy": 1.09, 
			 "cosmo_total_nonelectrostatic_energy": 4.72, 
			 "SMD_solvation_energy": 1.65 
		},
		"coords": [
			{
				"x": -0.3708070093,
				"y": 1.2963285345,
				"z": 0.7402309895,
				"element": "N" 
			},
			{
				"x": 0.3532552586,
				"y": 0.3668517699,
				"z": -0.1283572228,
				"element": "C" 
			},
			{
				"x": -0.5626103069,
				"y": -0.1285250459,
				"z": -1.2820778585,
				"element": "C" 
			},
			{
				"x": -0.9313349343,
				"y": -1.3658917776,
				"z": -0.4204914591,
				"element": "C" 
			},
			{
				"x": 0.3139916161,
				"y": -1.0717959804,
				"z": 0.4581875285,
				"element": "C" 
			},
			{
				"x": -0.4834236801,
				"y": 2.1915311081,
				"z": 0.2683334462,
				"element": "H" 
			},
			{
				"x": 0.1766298904,
				"y": 1.4812473441,
				"z": 1.5786085015,
				"element": "H" 
			},
			{
				"x": 1.349584538,
				"y": 0.7260910873,
				"z": -0.4355193253,
				"element": "H" 
			},
			{
				"x": 0.0194180474,
				"y": -0.4013817314,
				"z": -2.1681677655,
				"element": "H" 
			},
			{
				"x": -1.3730178185,
				"y": 0.5432021964,
				"z": -1.5816092513,
				"element": "H" 
			},
			{
				"x": -1.860055941,
				"y": -1.2092749326,
				"z": 0.1322096413,
				"element": "H" 
			},
			{
				"x": -0.9746749036,
				"y": -2.3357118378,
				"z": -0.924337875,
				"element": "H" 
			},
			{
				"x": 1.1857306911,
				"y": -1.6564245008,
				"z": 0.1473023565,
				"element": "H" 
			},
			{
				"x": 0.2013145519,
				"y": -1.1508462337,
				"z": 1.5438882939,
				"element": "H" 
			}
		],
		 "valence_orbital": [ 
			{
				"type": "occ",
				"energy": -0.3341,
				"method": "rhf"
			},
			{
				"type": "occ",
				"energy": -0.31909,
				"method": "rhf"
			},
			{
				"type": "occ",
				"energy": -0.30841,
				"method": "rhf"
			},
			{
				"type": "occ",
				"energy": -0.29326,
				"method": "rhf"
			},
			{
				"type": "occ",
				"energy": -0.22719,
				"method": "rhf"
			},
			{
				"type": "unocc",
				"energy": 0.08425,
				"method": "rhf"
			},
			{
				"type": "unocc",
				"energy": 0.11316,
				"method": "rhf"
			},
			{
				"type": "unocc",
				"energy": 0.12213,
				"method": "rhf"
			},
			{
				"type": "unocc",
				"energy": 0.14459,
				"method": "rhf"
			},
			{
				"type": "unocc",
				"energy": 0.15561,
				"method": "rhf"
			}
		],
		"cosmo_sigma_profile": { 
			"-0.025": 0.0,
			"-0.024": 0.0,
			"-0.023": 0.0,
			"-0.022": 0.0,
			"-0.021": 0.0,
			"-0.02": 0.0,
			"-0.019": 0.0,
			"-0.018": 0.0,
			"-0.017": 0.0,
			"-0.016": 0.0,
			"-0.015": 0.0,
			"-0.014": 0.0,
			"-0.013": 0.0,
			"-0.012": 0.0,
			"-0.011": 0.0,
			"-0.01": 0.299907951424,
			"-0.009": 2.23211591524,
			"-0.008": 2.58987661515,
			"-0.007": 2.51640411533,
			"-0.006": 2.64621497423,
			"-0.005": 2.99393753932,
			"-0.004": 2.08436680936,
			"-0.003": 7.1571740513,
			"-0.002": 15.9926468913,
			"-0.001": 19.2723040122,
			"0.0": 18.7027717265,
			"0.001": 16.9934249763,
			"0.002": 12.5666325081,
			"0.003": 3.6937913272,
			"0.004": 1.07265958899,
			"0.005": 1.25050449868,
			"0.006": 0.804565722048,
			"0.007": 0.308964140137,
			"0.008": 1.14861555978,
			"0.009": 1.10963724847,
			"0.01": 0.703918285489,
			"0.011": 0.67843808448,
			"0.012": 0.366689905743,
			"0.013": 0.576683252631,
			"0.014": 0.960451477704,
			"0.015": 0.620422474183,
			"0.016": 0.755018789093,
			"0.017": 0.431319763617,
			"0.018": 0.382376224676,
			"0.019": 0.481252790323,
			"0.02": 0.0,
			"0.021": 0.0,
			"0.022": 0.0,
			"0.023": 0.0,
			"0.024": 0.0,
			"0.025": 0.0
		}
	}
}
