{
	 "smiles": "CC1=NN=C(O1)C1=C(N)C=CC=C1", 
	 "Tm": 419.15, 
	 "num_atms": 22, 
	 "gaussian": { 
		 "optdone": 1, 
		 "sigma_profile": "yes", 
		 "theory": "DFT", 
		 "functional": "B3LYP", 
		 "basiset": "6-31G**", 
		 "properties": { 
			 "R2extent": 3367.1359, 
			 "electric_dipole_moment_norm": 1.60886311724, 
			 "electric_quadrupole_moment_norm": 13.8866871316, 
			 "total_energy": -587.854177862, 
			 "HOMO_LUMO_gap": 0.16035, 
			 "cosmo_polarized_energy": -11.05, 
			 "cosmo_cavitation_energy": 26.11, 
			 "cosmo_dispersion_energy": -19.87, 
			 "cosmo_repulsion_energy": 1.57, 
			 "cosmo_total_nonelectrostatic_energy": 7.81, 
			 "SMD_solvation_energy": 3.28 
		},
		"coords": [
			{
				"x": -3.0075151361,
				"y": -1.3513066495,
				"z": -1.6544525739,
				"element": "C" 
			},
			{
				"x": -1.7796305992,
				"y": -0.7615705361,
				"z": -1.0652203789,
				"element": "C" 
			},
			{
				"x": -1.6316075916,
				"y": -0.1645369678,
				"z": 0.0730140619,
				"element": "N" 
			},
			{
				"x": -0.2897558083,
				"y": 0.20362119,
				"z": 0.1506119738,
				"element": "N" 
			},
			{
				"x": 0.2861751207,
				"y": -0.19994285,
				"z": -0.9524417372,
				"element": "C" 
			},
			{
				"x": -0.6122421682,
				"y": -0.825281485,
				"z": -1.7752260512,
				"element": "O" 
			},
			{
				"x": 1.6702181422,
				"y": -0.0732859956,
				"z": -1.3621947167,
				"element": "C" 
			},
			{
				"x": 2.6135957127,
				"y": 0.5841619005,
				"z": -0.5166008822,
				"element": "C" 
			},
			{
				"x": 2.2432989203,
				"y": 1.1440284594,
				"z": 0.6705698264,
				"element": "N" 
			},
			{
				"x": 3.9542288483,
				"y": 0.6578527687,
				"z": -0.9591244043,
				"element": "C" 
			},
			{
				"x": 4.3417662642,
				"y": 0.118526465,
				"z": -2.1748643096,
				"element": "C" 
			},
			{
				"x": 3.4114912815,
				"y": -0.5205740721,
				"z": -3.008234748,
				"element": "C" 
			},
			{
				"x": 2.0919130813,
				"y": -0.6094334112,
				"z": -2.5940994736,
				"element": "C" 
			},
			{
				"x": -3.8335928372,
				"y": -1.2117118417,
				"z": -0.9564052438,
				"element": "H" 
			},
			{
				"x": -2.8760462426,
				"y": -2.4213299715,
				"z": -1.8455233917,
				"element": "H" 
			},
			{
				"x": -3.2564484732,
				"y": -0.8696051883,
				"z": -2.6056487937,
				"element": "H" 
			},
			{
				"x": 2.9529793164,
				"y": 1.4861458036,
				"z": 1.2961495303,
				"element": "H" 
			},
			{
				"x": 1.2966627387,
				"y": 1.0053445486,
				"z": 1.0090238101,
				"element": "H" 
			},
			{
				"x": 4.6834353446,
				"y": 1.1546444768,
				"z": -0.3241699691,
				"element": "H" 
			},
			{
				"x": 5.3814306901,
				"y": 0.1955265661,
				"z": -2.4812215617,
				"element": "H" 
			},
			{
				"x": 3.7180434561,
				"y": -0.9404707207,
				"z": -3.9602720424,
				"element": "H" 
			},
			{
				"x": 1.3559999393,
				"y": -1.1033024889,
				"z": -3.2199689245,
				"element": "H" 
			}
		],
		 "valence_orbital": [ 
			{
				"type": "occ",
				"energy": -0.31139,
				"method": "rhf"
			},
			{
				"type": "occ",
				"energy": -0.29477,
				"method": "rhf"
			},
			{
				"type": "occ",
				"energy": -0.27649,
				"method": "rhf"
			},
			{
				"type": "occ",
				"energy": -0.23721,
				"method": "rhf"
			},
			{
				"type": "occ",
				"energy": -0.19815,
				"method": "rhf"
			},
			{
				"type": "unocc",
				"energy": -0.0378,
				"method": "rhf"
			},
			{
				"type": "unocc",
				"energy": 0.01501,
				"method": "rhf"
			},
			{
				"type": "unocc",
				"energy": 0.02073,
				"method": "rhf"
			},
			{
				"type": "unocc",
				"energy": 0.06665,
				"method": "rhf"
			},
			{
				"type": "unocc",
				"energy": 0.09266,
				"method": "rhf"
			}
		],
		"cosmo_sigma_profile": { 
			"-0.025": 0.0,
			"-0.024": 0.0,
			"-0.023": 0.0,
			"-0.022": 0.0,
			"-0.021": 0.0,
			"-0.02": 0.0,
			"-0.019": 0.0,
			"-0.018": 0.0,
			"-0.017": 0.0,
			"-0.016": 0.0,
			"-0.015": 0.0,
			"-0.014": 0.1531526861,
			"-0.013": 1.31534001355,
			"-0.012": 1.55030512839,
			"-0.011": 0.787705472283,
			"-0.01": 1.62292326454,
			"-0.009": 1.39056545744,
			"-0.008": 2.48961941205,
			"-0.007": 5.303514472,
			"-0.006": 12.1355610684,
			"-0.005": 14.7527256318,
			"-0.004": 16.9208556852,
			"-0.003": 18.7361441173,
			"-0.002": 15.8095000606,
			"-0.001": 12.0331301415,
			"0.0": 12.3748070819,
			"0.001": 11.4651859542,
			"0.002": 12.1190748079,
			"0.003": 13.3339598421,
			"0.004": 15.3771643869,
			"0.005": 12.7993426806,
			"0.006": 7.37840175876,
			"0.007": 2.65800640207,
			"0.008": 2.97380204943,
			"0.009": 2.96440316462,
			"0.01": 2.88314723038,
			"0.011": 2.16858364461,
			"0.012": 1.9931425515,
			"0.013": 1.22369264511,
			"0.014": 1.14832069108,
			"0.015": 1.14259876174,
			"0.016": 0.206788004953,
			"0.017": 0.0,
			"0.018": 0.0,
			"0.019": 0.0,
			"0.02": 0.0,
			"0.021": 0.0,
			"0.022": 0.0,
			"0.023": 0.0,
			"0.024": 0.0,
			"0.025": 0.0
		}
	}
}
