{
	 "smiles": "COC(=O)C1=C(N)N=CC=N1", 
	 "Tm": 444.15, 
	 "num_atms": 18, 
	 "gaussian": { 
		 "optdone": 1, 
		 "sigma_profile": "yes", 
		 "theory": "DFT", 
		 "functional": "B3LYP", 
		 "basiset": "6-31G**", 
		 "properties": { 
			 "R2extent": 2203.2951, 
			 "electric_dipole_moment_norm": 0.418411448218, 
			 "electric_quadrupole_moment_norm": 5.24734673811, 
			 "total_energy": -547.567284136, 
			 "HOMO_LUMO_gap": 0.16157, 
			 "cosmo_polarized_energy": -10.68, 
			 "cosmo_cavitation_energy": 22.63, 
			 "cosmo_dispersion_energy": -17.27, 
			 "cosmo_repulsion_energy": 1.4, 
			 "cosmo_total_nonelectrostatic_energy": 6.75, 
			 "SMD_solvation_energy": 3.0 
		},
		"coords": [
			{
				"x": -3.2457931167,
				"y": 0.9807656277,
				"z": -1.1269926168,
				"element": "C" 
			},
			{
				"x": -2.3792518791,
				"y": -0.1639717251,
				"z": -1.1320037186,
				"element": "O" 
			},
			{
				"x": -1.3400893647,
				"y": -0.0990880546,
				"z": -0.2892596365,
				"element": "C" 
			},
			{
				"x": -1.1364357875,
				"y": 0.8680987171,
				"z": 0.4391854221,
				"element": "O" 
			},
			{
				"x": -0.4705970463,
				"y": -1.3032075632,
				"z": -0.3270143716,
				"element": "C" 
			},
			{
				"x": 0.6853125211,
				"y": -1.3910225527,
				"z": 0.5154660935,
				"element": "C" 
			},
			{
				"x": 1.0484044913,
				"y": -0.4154791879,
				"z": 1.3733691869,
				"element": "N" 
			},
			{
				"x": 1.4732528848,
				"y": -2.4902168043,
				"z": 0.4759490624,
				"element": "N" 
			},
			{
				"x": 1.1227495296,
				"y": -3.4554150298,
				"z": -0.3647807734,
				"element": "C" 
			},
			{
				"x": -0.0075360021,
				"y": -3.3708828955,
				"z": -1.1889584732,
				"element": "C" 
			},
			{
				"x": -0.7914600692,
				"y": -2.2966224312,
				"z": -1.1613913887,
				"element": "N" 
			},
			{
				"x": -2.6964320509,
				"y": 1.8831396521,
				"z": -1.4074318222,
				"element": "H" 
			},
			{
				"x": -3.6842288228,
				"y": 1.1296919121,
				"z": -0.1368476843,
				"element": "H" 
			},
			{
				"x": -4.0210575816,
				"y": 0.7603053302,
				"z": -1.8602855265,
				"element": "H" 
			},
			{
				"x": 0.4830611659,
				"y": 0.4212100929,
				"z": 1.4294716933,
				"element": "H" 
			},
			{
				"x": 1.8768451539,
				"y": -0.5600368126,
				"z": 1.9278903519,
				"element": "H" 
			},
			{
				"x": 1.7629844481,
				"y": -4.3362969711,
				"z": -0.3900262974,
				"element": "H" 
			},
			{
				"x": -0.2743284738,
				"y": -4.174771304,
				"z": -1.8698395009,
				"element": "H" 
			}
		],
		 "valence_orbital": [ 
			{
				"type": "occ",
				"energy": -0.30532,
				"method": "rhf"
			},
			{
				"type": "occ",
				"energy": -0.30397,
				"method": "rhf"
			},
			{
				"type": "occ",
				"energy": -0.28592,
				"method": "rhf"
			},
			{
				"type": "occ",
				"energy": -0.24878,
				"method": "rhf"
			},
			{
				"type": "occ",
				"energy": -0.22511,
				"method": "rhf"
			},
			{
				"type": "unocc",
				"energy": -0.06354,
				"method": "rhf"
			},
			{
				"type": "unocc",
				"energy": -0.01173,
				"method": "rhf"
			},
			{
				"type": "unocc",
				"energy": 0.04536,
				"method": "rhf"
			},
			{
				"type": "unocc",
				"energy": 0.10326,
				"method": "rhf"
			},
			{
				"type": "unocc",
				"energy": 0.11457,
				"method": "rhf"
			}
		],
		"cosmo_sigma_profile": { 
			"-0.025": 0.0,
			"-0.024": 0.0,
			"-0.023": 0.0,
			"-0.022": 0.0,
			"-0.021": 0.0,
			"-0.02": 0.0,
			"-0.019": 0.0,
			"-0.018": 0.0,
			"-0.017": 0.0,
			"-0.016": 0.0,
			"-0.015": 0.0,
			"-0.014": 0.738940705664,
			"-0.013": 1.12136142146,
			"-0.012": 0.758410388738,
			"-0.011": 1.12722777014,
			"-0.01": 1.24078447805,
			"-0.009": 1.73590694771,
			"-0.008": 3.10050225834,
			"-0.007": 7.17048037659,
			"-0.006": 11.2104258523,
			"-0.005": 10.6156711042,
			"-0.004": 13.0740728438,
			"-0.003": 16.3485421217,
			"-0.002": 14.5784760256,
			"-0.001": 12.3377433832,
			"0.0": 14.2789288212,
			"0.001": 11.7914244421,
			"0.002": 7.80829950766,
			"0.003": 8.54408267571,
			"0.004": 7.33884522736,
			"0.005": 4.04249314028,
			"0.006": 4.59854429793,
			"0.007": 4.65369553427,
			"0.008": 3.78865287654,
			"0.009": 3.33740201407,
			"0.01": 3.90250474928,
			"0.011": 3.96256281687,
			"0.012": 2.6978244366,
			"0.013": 1.48454011955,
			"0.014": 1.66153191808,
			"0.015": 1.15027849511,
			"0.016": 0.748335119944,
			"0.017": 0.172685412964,
			"0.018": 0.0,
			"0.019": 0.0,
			"0.02": 0.0,
			"0.021": 0.0,
			"0.022": 0.0,
			"0.023": 0.0,
			"0.024": 0.0,
			"0.025": 0.0
		}
	}
}
