{
	 "smiles": "COP(=S)(OC)SCN1C(=O)C2=C(C=CC=C2)C1=O", 
	 "Tm": 345.15, 
	 "num_atms": 31, 
	 "gaussian": { 
		 "optdone": 1, 
		 "sigma_profile": "yes", 
		 "theory": "DFT", 
		 "functional": "B3LYP", 
		 "basiset": "6-31G**", 
		 "properties": { 
			 "R2extent": 9191.4324, 
			 "electric_dipole_moment_norm": 7.82398320167, 
			 "electric_quadrupole_moment_norm": 35.2967904794, 
			 "total_energy": -1919.85000871, 
			 "HOMO_LUMO_gap": 0.13444, 
			 "cosmo_polarized_energy": -18.98, 
			 "cosmo_cavitation_energy": 40.27, 
			 "cosmo_dispersion_energy": -28.7, 
			 "cosmo_repulsion_energy": 2.07, 
			 "cosmo_total_nonelectrostatic_energy": 13.65, 
			 "SMD_solvation_energy": 8.01 
		},
		"coords": [
			{
				"x": 4.2925161729,
				"y": -1.0978104806,
				"z": -2.6928375418,
				"element": "C" 
			},
			{
				"x": 4.1272164727,
				"y": -1.3576642665,
				"z": -1.2860543279,
				"element": "O" 
			},
			{
				"x": 3.3908335909,
				"y": -2.728072486,
				"z": -0.7876778789,
				"element": "P" 
			},
			{
				"x": 3.7837548513,
				"y": -4.3778227941,
				"z": -1.7140325522,
				"element": "S" 
			},
			{
				"x": 3.8517812468,
				"y": -2.759031792,
				"z": 0.7506300221,
				"element": "O" 
			},
			{
				"x": 3.901907118,
				"y": -1.6061402673,
				"z": 1.6186789423,
				"element": "C" 
			},
			{
				"x": 1.3140845889,
				"y": -2.2563966124,
				"z": -0.9126911117,
				"element": "S" 
			},
			{
				"x": 1.2302261494,
				"y": -0.3923365711,
				"z": -0.7105026693,
				"element": "C" 
			},
			{
				"x": 0.0595694771,
				"y": -0.0013213357,
				"z": 0.0222487296,
				"element": "N" 
			},
			{
				"x": -0.0031049111,
				"y": 0.1288890223,
				"z": 1.4218680892,
				"element": "C" 
			},
			{
				"x": 0.9311546476,
				"y": -0.0276995914,
				"z": 2.1834368261,
				"element": "O" 
			},
			{
				"x": -1.4118190141,
				"y": 0.5078545919,
				"z": 1.7253545812,
				"element": "C" 
			},
			{
				"x": -2.1188692819,
				"y": 0.587017298,
				"z": 0.5223207099,
				"element": "C" 
			},
			{
				"x": -3.4636880873,
				"y": 0.9267086853,
				"z": 0.4917968188,
				"element": "C" 
			},
			{
				"x": -4.0898863293,
				"y": 1.1863558186,
				"z": 1.718115199,
				"element": "C" 
			},
			{
				"x": -3.3810536869,
				"y": 1.1075062836,
				"z": 2.9240222074,
				"element": "C" 
			},
			{
				"x": -2.0222026688,
				"y": 0.7662802362,
				"z": 2.9442579834,
				"element": "C" 
			},
			{
				"x": -1.1874778042,
				"y": 0.2608589294,
				"z": -0.5938634814,
				"element": "C" 
			},
			{
				"x": -1.3886658822,
				"y": 0.2244392825,
				"z": -1.788645374,
				"element": "O" 
			},
			{
				"x": 4.8511492057,
				"y": -0.1635397668,
				"z": -2.7637806297,
				"element": "H" 
			},
			{
				"x": 4.8504653679,
				"y": -1.9092132103,
				"z": -3.1659821875,
				"element": "H" 
			},
			{
				"x": 3.3214144758,
				"y": -0.9875951124,
				"z": -3.1867125262,
				"element": "H" 
			},
			{
				"x": 4.5295878429,
				"y": -0.8273180695,
				"z": 1.178524101,
				"element": "H" 
			},
			{
				"x": 4.3516480001,
				"y": -1.9603652703,
				"z": 2.5469556984,
				"element": "H" 
			},
			{
				"x": 2.8983175049,
				"y": -1.2246464632,
				"z": 1.8211870534,
				"element": "H" 
			},
			{
				"x": 2.1207376922,
				"y": -0.0365777072,
				"z": -0.196507087,
				"element": "H" 
			},
			{
				"x": 1.1609072512,
				"y": 0.0418290301,
				"z": -1.707370277,
				"element": "H" 
			},
			{
				"x": -4.0028473357,
				"y": 0.9850948425,
				"z": -0.4480190071,
				"element": "H" 
			},
			{
				"x": -5.1422951984,
				"y": 1.4527381028,
				"z": 1.7363008921,
				"element": "H" 
			},
			{
				"x": -3.8953473731,
				"y": 1.3140947305,
				"z": 3.8576606715,
				"element": "H" 
			},
			{
				"x": -1.4638140832,
				"y": 0.7025849429,
				"z": 3.8724181264,
				"element": "H" 
			}
		],
		 "valence_orbital": [ 
			{
				"type": "occ",
				"energy": -0.28547,
				"method": "rhf"
			},
			{
				"type": "occ",
				"energy": -0.28271,
				"method": "rhf"
			},
			{
				"type": "occ",
				"energy": -0.26806,
				"method": "rhf"
			},
			{
				"type": "occ",
				"energy": -0.24211,
				"method": "rhf"
			},
			{
				"type": "occ",
				"energy": -0.23129,
				"method": "rhf"
			},
			{
				"type": "unocc",
				"energy": -0.09685,
				"method": "rhf"
			},
			{
				"type": "unocc",
				"energy": -0.05633,
				"method": "rhf"
			},
			{
				"type": "unocc",
				"energy": -0.00699,
				"method": "rhf"
			},
			{
				"type": "unocc",
				"energy": -0.00157,
				"method": "rhf"
			},
			{
				"type": "unocc",
				"energy": 0.01569,
				"method": "rhf"
			}
		],
		"cosmo_sigma_profile": { 
			"-0.025": 0.0,
			"-0.024": 0.0,
			"-0.023": 0.0,
			"-0.022": 0.0,
			"-0.021": 0.0,
			"-0.02": 0.0,
			"-0.019": 0.0,
			"-0.018": 0.0,
			"-0.017": 0.0,
			"-0.016": 0.0,
			"-0.015": 0.0,
			"-0.014": 0.0,
			"-0.013": 0.0,
			"-0.012": 0.0,
			"-0.011": 0.0,
			"-0.01": 0.0,
			"-0.009": 0.0311344502805,
			"-0.008": 5.67083359692,
			"-0.007": 18.8111883993,
			"-0.006": 24.5720008251,
			"-0.005": 27.8964692773,
			"-0.004": 26.590740962,
			"-0.003": 19.3577352372,
			"-0.002": 19.1057734211,
			"-0.001": 20.0937870798,
			"0.0": 21.6161311105,
			"0.001": 24.7124443816,
			"0.002": 21.7547780567,
			"0.003": 12.8040280486,
			"0.004": 13.6423275527,
			"0.005": 11.9081608085,
			"0.006": 11.470907992,
			"0.007": 10.8599992894,
			"0.008": 12.3404727735,
			"0.009": 11.5756892686,
			"0.01": 6.64339691316,
			"0.011": 4.4150401376,
			"0.012": 0.380716216055,
			"0.013": 0.0,
			"0.014": 0.0,
			"0.015": 0.0,
			"0.016": 0.0,
			"0.017": 0.0,
			"0.018": 0.0,
			"0.019": 0.0,
			"0.02": 0.0,
			"0.021": 0.0,
			"0.022": 0.0,
			"0.023": 0.0,
			"0.024": 0.0,
			"0.025": 0.0
		}
	}
}
