{
	 "smiles": "COC1=CC=C(C=C1)N1C(S)=NN=C1C1=CC=C(OC(F)(F)F)C=C1", 
	 "Tm": 452.15, 
	 "num_atms": 37, 
	 "gaussian": { 
		 "optdone": 1, 
		 "sigma_profile": "yes", 
		 "theory": "DFT", 
		 "functional": "B3LYP", 
		 "basiset": "6-31G**", 
		 "properties": { 
			 "R2extent": 13617.0727, 
			 "electric_dipole_moment_norm": 6.29735459618, 
			 "electric_quadrupole_moment_norm": 10.4772792785, 
			 "total_energy": -1629.3106056, 
			 "HOMO_LUMO_gap": 0.18031, 
			 "cosmo_polarized_energy": -16.78, 
			 "cosmo_cavitation_energy": 45.56, 
			 "cosmo_dispersion_energy": -31.71, 
			 "cosmo_repulsion_energy": 2.31, 
			 "cosmo_total_nonelectrostatic_energy": 16.17, 
			 "SMD_solvation_energy": 7.74 
		},
		"coords": [
			{
				"x": 0.4334208343,
				"y": -4.3305916737,
				"z": 1.7115256027,
				"element": "C" 
			},
			{
				"x": 1.4574603012,
				"y": -3.6377200969,
				"z": 1.0096766555,
				"element": "O" 
			},
			{
				"x": 1.4193068234,
				"y": -2.2799623883,
				"z": 0.9794368426,
				"element": "C" 
			},
			{
				"x": 2.4636032345,
				"y": -1.6586161451,
				"z": 0.2742295811,
				"element": "C" 
			},
			{
				"x": 2.5153403917,
				"y": -0.2752086736,
				"z": 0.176495758,
				"element": "C" 
			},
			{
				"x": 1.5261346108,
				"y": 0.5072783938,
				"z": 0.7881954844,
				"element": "C" 
			},
			{
				"x": 0.49347158,
				"y": -0.1058774915,
				"z": 1.4970040634,
				"element": "C" 
			},
			{
				"x": 0.4304148836,
				"y": -1.4965124835,
				"z": 1.590873078,
				"element": "C" 
			},
			{
				"x": 1.5844065869,
				"y": 1.9362227772,
				"z": 0.6963410407,
				"element": "N" 
			},
			{
				"x": 2.4316034083,
				"y": 2.7566978355,
				"z": 1.4070761751,
				"element": "C" 
			},
			{
				"x": 3.6850815854,
				"y": 2.1253939682,
				"z": 2.4795794979,
				"element": "S" 
			},
			{
				"x": 2.1671230658,
				"y": 4.022098442,
				"z": 1.1856663393,
				"element": "N" 
			},
			{
				"x": 1.1112900241,
				"y": 4.0609126064,
				"z": 0.3043845414,
				"element": "N" 
			},
			{
				"x": 0.7596618177,
				"y": 2.8258574369,
				"z": 0.012635337,
				"element": "C" 
			},
			{
				"x": -0.3419637644,
				"y": 2.4901160201,
				"z": -0.8989049856,
				"element": "C" 
			},
			{
				"x": -1.3460346271,
				"y": 3.4538853508,
				"z": -1.0931420835,
				"element": "C" 
			},
			{
				"x": -2.406259876,
				"y": 3.2333906011,
				"z": -1.9670123576,
				"element": "C" 
			},
			{
				"x": -2.4710192542,
				"y": 2.0195076197,
				"z": -2.6532974049,
				"element": "C" 
			},
			{
				"x": -3.4717897737,
				"y": 1.6739621166,
				"z": -3.5642464475,
				"element": "O" 
			},
			{
				"x": -4.6412040052,
				"y": 2.3574076416,
				"z": -3.6133928914,
				"element": "C" 
			},
			{
				"x": -4.4835230889,
				"y": 3.6251986788,
				"z": -4.0480053743,
				"element": "F" 
			},
			{
				"x": -5.2529822684,
				"y": 2.4197840598,
				"z": -2.4163146257,
				"element": "F" 
			},
			{
				"x": -5.4385424352,
				"y": 1.7200512271,
				"z": -4.4693241818,
				"element": "F" 
			},
			{
				"x": -1.4845331402,
				"y": 1.0502229787,
				"z": -2.4857762038,
				"element": "C" 
			},
			{
				"x": -0.4224500847,
				"y": 1.286480989,
				"z": -1.6185080109,
				"element": "C" 
			},
			{
				"x": 0.426062664,
				"y": -4.0671818735,
				"z": 2.7764453029,
				"element": "H" 
			},
			{
				"x": 0.663081768,
				"y": -5.3913453931,
				"z": 1.6050781873,
				"element": "H" 
			},
			{
				"x": -0.5560121727,
				"y": -4.1299429623,
				"z": 1.2820636039,
				"element": "H" 
			},
			{
				"x": 3.2192289792,
				"y": -2.2832735298,
				"z": -0.1895983188,
				"element": "H" 
			},
			{
				"x": 3.3171946913,
				"y": 0.2068051406,
				"z": -0.3735233127,
				"element": "H" 
			},
			{
				"x": -0.2651569243,
				"y": 0.5060849935,
				"z": 1.9739847383,
				"element": "H" 
			},
			{
				"x": -0.3821106343,
				"y": -1.9526133276,
				"z": 2.1427991196,
				"element": "H" 
			},
			{
				"x": 4.0705496432,
				"y": 3.3632651666,
				"z": 2.8445773945,
				"element": "H" 
			},
			{
				"x": -1.2769472924,
				"y": 4.391228065,
				"z": -0.5528121523,
				"element": "H" 
			},
			{
				"x": -3.1594991875,
				"y": 3.9977974834,
				"z": -2.1039764294,
				"element": "H" 
			},
			{
				"x": -1.5563927438,
				"y": 0.1234563271,
				"z": -3.0444538118,
				"element": "H" 
			},
			{
				"x": 0.3459843796,
				"y": 0.5302401192,
				"z": -1.5160797516,
				"element": "H" 
			}
		],
		 "valence_orbital": [ 
			{
				"type": "occ",
				"energy": -0.26914,
				"method": "rhf"
			},
			{
				"type": "occ",
				"energy": -0.26355,
				"method": "rhf"
			},
			{
				"type": "occ",
				"energy": -0.25904,
				"method": "rhf"
			},
			{
				"type": "occ",
				"energy": -0.23783,
				"method": "rhf"
			},
			{
				"type": "occ",
				"energy": -0.2167,
				"method": "rhf"
			},
			{
				"type": "unocc",
				"energy": -0.03639,
				"method": "rhf"
			},
			{
				"type": "unocc",
				"energy": -0.03183,
				"method": "rhf"
			},
			{
				"type": "unocc",
				"energy": -0.02127,
				"method": "rhf"
			},
			{
				"type": "unocc",
				"energy": -0.01457,
				"method": "rhf"
			},
			{
				"type": "unocc",
				"energy": 0.01282,
				"method": "rhf"
			}
		],
		"cosmo_sigma_profile": { 
			"-0.025": 0.0,
			"-0.024": 0.0,
			"-0.023": 0.0,
			"-0.022": 0.0,
			"-0.021": 0.0,
			"-0.02": 0.0,
			"-0.019": 0.0,
			"-0.018": 0.0,
			"-0.017": 0.0,
			"-0.016": 0.0,
			"-0.015": 0.0,
			"-0.014": 0.0,
			"-0.013": 0.0470872259616,
			"-0.012": 1.14695015511,
			"-0.011": 1.58756617356,
			"-0.01": 1.84215671373,
			"-0.009": 0.604312000938,
			"-0.008": 2.91365039859,
			"-0.007": 13.3996687607,
			"-0.006": 23.6054383167,
			"-0.005": 24.7960202456,
			"-0.004": 24.5870065942,
			"-0.003": 19.7262992377,
			"-0.002": 21.2522922121,
			"-0.001": 23.4720313616,
			"0.0": 29.2581847434,
			"0.001": 44.3219339752,
			"0.002": 58.6014988979,
			"0.003": 26.5298834219,
			"0.004": 10.0841797963,
			"0.005": 7.2318861266,
			"0.006": 5.56653310271,
			"0.007": 4.15191305736,
			"0.008": 3.63390068089,
			"0.009": 3.32618154365,
			"0.01": 2.79993429566,
			"0.011": 2.67067127886,
			"0.012": 2.79324803929,
			"0.013": 2.36239675167,
			"0.014": 3.65841153861,
			"0.015": 1.88187868488,
			"0.016": 1.0474222315,
			"0.017": 0.00100746029381,
			"0.018": 0.0,
			"0.019": 0.0,
			"0.02": 0.0,
			"0.021": 0.0,
			"0.022": 0.0,
			"0.023": 0.0,
			"0.024": 0.0,
			"0.025": 0.0
		}
	}
}
