{
	 "smiles": "CC(=O)NC1=CC=C(C=C1[N+]([O-])=O)C(O)=O", 
	 "Tm": 498.65, 
	 "num_atms": 24, 
	 "gaussian": { 
		 "optdone": 1, 
		 "sigma_profile": "yes", 
		 "theory": "DFT", 
		 "functional": "B3LYP", 
		 "basiset": "6-31G**", 
		 "properties": { 
			 "R2extent": 4358.403, 
			 "electric_dipole_moment_norm": 5.7249770707, 
			 "electric_quadrupole_moment_norm": 27.5170253189, 
			 "total_energy": -833.309649767, 
			 "HOMO_LUMO_gap": 0.15567, 
			 "cosmo_polarized_energy": -26.48, 
			 "cosmo_cavitation_energy": 29.73, 
			 "cosmo_dispersion_energy": -21.21, 
			 "cosmo_repulsion_energy": 1.64, 
			 "cosmo_total_nonelectrostatic_energy": 10.17, 
			 "SMD_solvation_energy": 9.37 
		},
		"coords": [
			{
				"x": 2.1075290881,
				"y": -2.620550658,
				"z": 1.7947857744,
				"element": "C" 
			},
			{
				"x": 1.7022034066,
				"y": -3.2095793611,
				"z": 0.4622147037,
				"element": "C" 
			},
			{
				"x": 2.2673285902,
				"y": -4.1685694436,
				"z": -0.0290440188,
				"element": "O" 
			},
			{
				"x": 0.5849246854,
				"y": -2.6915616064,
				"z": -0.2085315298,
				"element": "N" 
			},
			{
				"x": -0.2817944085,
				"y": -1.6318451281,
				"z": 0.0561608464,
				"element": "C" 
			},
			{
				"x": -1.6572269931,
				"y": -1.85356066,
				"z": -0.1549314677,
				"element": "C" 
			},
			{
				"x": -2.606029756,
				"y": -0.8750581613,
				"z": 0.1007021941,
				"element": "C" 
			},
			{
				"x": -2.2247346078,
				"y": 0.3758707892,
				"z": 0.6100688751,
				"element": "C" 
			},
			{
				"x": -0.8659352812,
				"y": 0.6307048514,
				"z": 0.7917559244,
				"element": "C" 
			},
			{
				"x": 0.0873443782,
				"y": -0.3405123661,
				"z": 0.4998747166,
				"element": "C" 
			},
			{
				"x": 1.4923077969,
				"y": 0.0984986108,
				"z": 0.582502059,
				"element": "N" 
			},
			{
				"x": 1.7631303853,
				"y": 0.9644284354,
				"z": 1.4106421774,
				"element": "O" 
			},
			{
				"x": 2.2941009242,
				"y": -0.4021955974,
				"z": -0.2036627257,
				"element": "O" 
			},
			{
				"x": -3.1858223629,
				"y": 1.4862128337,
				"z": 0.9158422601,
				"element": "C" 
			},
			{
				"x": -4.4874918984,
				"y": 1.1396517676,
				"z": 1.0927480765,
				"element": "O" 
			},
			{
				"x": -2.8467799894,
				"y": 2.6416094484,
				"z": 1.0018018401,
				"element": "O" 
			},
			{
				"x": 2.9928803991,
				"y": -1.9942737488,
				"z": 1.6570982547,
				"element": "H" 
			},
			{
				"x": 2.3826269751,
				"y": -3.4528590404,
				"z": 2.4450012046,
				"element": "H" 
			},
			{
				"x": 1.3271759217,
				"y": -2.0274184724,
				"z": 2.2759841525,
				"element": "H" 
			},
			{
				"x": 0.3146511696,
				"y": -3.3025816076,
				"z": -0.9705376387,
				"element": "H" 
			},
			{
				"x": -1.9698667288,
				"y": -2.830921417,
				"z": -0.5099767562,
				"element": "H" 
			},
			{
				"x": -3.6478477228,
				"y": -1.0980209916,
				"z": -0.1144285742,
				"element": "H" 
			},
			{
				"x": -0.5453269541,
				"y": 1.6062202081,
				"z": 1.1362790937,
				"element": "H" 
			},
			{
				"x": -4.5805470173,
				"y": 0.1809113154,
				"z": 1.1766505579,
				"element": "H" 
			}
		],
		 "valence_orbital": [ 
			{
				"type": "occ",
				"energy": -0.31765,
				"method": "rhf"
			},
			{
				"type": "occ",
				"energy": -0.299,
				"method": "rhf"
			},
			{
				"type": "occ",
				"energy": -0.29223,
				"method": "rhf"
			},
			{
				"type": "occ",
				"energy": -0.2756,
				"method": "rhf"
			},
			{
				"type": "occ",
				"energy": -0.26316,
				"method": "rhf"
			},
			{
				"type": "unocc",
				"energy": -0.10749,
				"method": "rhf"
			},
			{
				"type": "unocc",
				"energy": -0.07583,
				"method": "rhf"
			},
			{
				"type": "unocc",
				"energy": -0.04079,
				"method": "rhf"
			},
			{
				"type": "unocc",
				"energy": -0.00015,
				"method": "rhf"
			},
			{
				"type": "unocc",
				"energy": 0.02634,
				"method": "rhf"
			}
		],
		"cosmo_sigma_profile": { 
			"-0.025": 0.0,
			"-0.024": 0.0,
			"-0.023": 0.0,
			"-0.022": 0.0,
			"-0.021": 0.0,
			"-0.02": 0.156461563264,
			"-0.019": 0.881380960829,
			"-0.018": 1.35600489968,
			"-0.017": 1.18160603759,
			"-0.016": 1.44466342402,
			"-0.015": 2.11841062585,
			"-0.014": 2.31058388097,
			"-0.013": 1.74665479665,
			"-0.012": 2.68921397631,
			"-0.011": 2.83728599697,
			"-0.01": 2.74734224133,
			"-0.009": 4.976954505,
			"-0.008": 5.87497275012,
			"-0.007": 7.10261160608,
			"-0.006": 10.598204765,
			"-0.005": 12.2845148356,
			"-0.004": 15.3240994499,
			"-0.003": 16.4637372603,
			"-0.002": 19.2821870665,
			"-0.001": 16.9981509479,
			"0.0": 10.6088083278,
			"0.001": 6.9311118191,
			"0.002": 6.18997019165,
			"0.003": 6.63817930889,
			"0.004": 6.1777759341,
			"0.005": 6.80143910804,
			"0.006": 9.90361267527,
			"0.007": 11.7538684834,
			"0.008": 9.67835444915,
			"0.009": 7.44447276523,
			"0.01": 7.08104250109,
			"0.011": 8.34514043262,
			"0.012": 7.50324301426,
			"0.013": 3.90915060548,
			"0.014": 0.367037106178,
			"0.015": 0.0,
			"0.016": 0.0,
			"0.017": 0.0,
			"0.018": 0.0,
			"0.019": 0.0,
			"0.02": 0.0,
			"0.021": 0.0,
			"0.022": 0.0,
			"0.023": 0.0,
			"0.024": 0.0,
			"0.025": 0.0
		}
	}
}
