{
	 "smiles": "O=P1(NC2CCCCC2)OC2=C(C=CC=C2)C2=C(O1)C=CC=C2", 
	 "Tm": 433.0, 
	 "num_atms": 43, 
	 "gaussian": { 
		 "optdone": 1, 
		 "sigma_profile": "yes", 
		 "theory": "DFT", 
		 "functional": "B3LYP", 
		 "basiset": "6-31G**", 
		 "properties": { 
			 "R2extent": 8121.2203, 
			 "electric_dipole_moment_norm": 4.81292489137, 
			 "electric_quadrupole_moment_norm": 26.48580308, 
			 "total_energy": -1319.83175389, 
			 "HOMO_LUMO_gap": 0.19612, 
			 "cosmo_polarized_energy": -15.46, 
			 "cosmo_cavitation_energy": 45.33, 
			 "cosmo_dispersion_energy": -30.75, 
			 "cosmo_repulsion_energy": 2.33, 
			 "cosmo_total_nonelectrostatic_energy": 16.92, 
			 "SMD_solvation_energy": 7.57 
		},
		"coords": [
			{
				"x": 0.9645139312,
				"y": 2.7117869479,
				"z": -3.327378752,
				"element": "O" 
			},
			{
				"x": 0.3585185194,
				"y": 1.9906647555,
				"z": -2.1922503036,
				"element": "P" 
			},
			{
				"x": -1.1855738186,
				"y": 2.4520413434,
				"z": -1.8350247868,
				"element": "N" 
			},
			{
				"x": -1.8991916548,
				"y": 2.3517007217,
				"z": -0.5517746062,
				"element": "C" 
			},
			{
				"x": -3.3734573099,
				"y": 1.9508698454,
				"z": -0.7947260628,
				"element": "C" 
			},
			{
				"x": -4.2996967343,
				"y": 2.353681323,
				"z": 0.378220978,
				"element": "C" 
			},
			{
				"x": -3.5366063301,
				"y": 2.3744942066,
				"z": 1.7093187973,
				"element": "C" 
			},
			{
				"x": -2.4144954559,
				"y": 3.4399982125,
				"z": 1.6894756434,
				"element": "C" 
			},
			{
				"x": -1.815769717,
				"y": 3.6438488267,
				"z": 0.275550296,
				"element": "C" 
			},
			{
				"x": 0.4028402804,
				"y": 0.3746239118,
				"z": -2.4558272795,
				"element": "O" 
			},
			{
				"x": 0.0661213104,
				"y": -0.5504332056,
				"z": -1.4789090715,
				"element": "C" 
			},
			{
				"x": 0.9290513578,
				"y": -0.7821599393,
				"z": -0.3915733696,
				"element": "C" 
			},
			{
				"x": 0.5702221452,
				"y": -1.7969125038,
				"z": 0.5123899195,
				"element": "C" 
			},
			{
				"x": -0.5880230886,
				"y": -2.5511396732,
				"z": 0.3387091963,
				"element": "C" 
			},
			{
				"x": -1.4223370855,
				"y": -2.3052079184,
				"z": -0.7542564803,
				"element": "C" 
			},
			{
				"x": -1.0942410432,
				"y": -1.3018255938,
				"z": -1.6645390941,
				"element": "C" 
			},
			{
				"x": 2.1825927529,
				"y": -0.0126198534,
				"z": -0.2188949574,
				"element": "C" 
			},
			{
				"x": 2.2344649442,
				"y": 1.3755208968,
				"z": -0.4302110362,
				"element": "C" 
			},
			{
				"x": 1.0688752637,
				"y": 2.0824242964,
				"z": -0.7219594271,
				"element": "O" 
			},
			{
				"x": 3.4098761146,
				"y": 2.1030482674,
				"z": -0.2621032709,
				"element": "C" 
			},
			{
				"x": 4.5745555393,
				"y": 1.4467914243,
				"z": 0.1309675846,
				"element": "C" 
			},
			{
				"x": 4.5544217763,
				"y": 0.06770516,
				"z": 0.3517054677,
				"element": "C" 
			},
			{
				"x": 3.3728260016,
				"y": -0.6479141103,
				"z": 0.1752548769,
				"element": "C" 
			},
			{
				"x": -1.5446375385,
				"y": 3.138758355,
				"z": -2.4872188427,
				"element": "H" 
			},
			{
				"x": -1.4035554348,
				"y": 1.5574857391,
				"z": 0.0136677879,
				"element": "H" 
			},
			{
				"x": -3.4172837751,
				"y": 0.8707118479,
				"z": -0.9729036166,
				"element": "H" 
			},
			{
				"x": -3.7225654801,
				"y": 2.4286376999,
				"z": -1.7189659506,
				"element": "H" 
			},
			{
				"x": -4.7181527483,
				"y": 3.3518878001,
				"z": 0.195460086,
				"element": "H" 
			},
			{
				"x": -5.154553952,
				"y": 1.670661171,
				"z": 0.4301209168,
				"element": "H" 
			},
			{
				"x": -3.106242218,
				"y": 1.3804168621,
				"z": 1.8885141068,
				"element": "H" 
			},
			{
				"x": -4.2209288214,
				"y": 2.563704378,
				"z": 2.543660911,
				"element": "H" 
			},
			{
				"x": -2.8051205648,
				"y": 4.3973469048,
				"z": 2.0530173257,
				"element": "H" 
			},
			{
				"x": -1.6223071346,
				"y": 3.1471111313,
				"z": 2.3879363944,
				"element": "H" 
			},
			{
				"x": -0.7734089035,
				"y": 3.9688889397,
				"z": 0.3395374069,
				"element": "H" 
			},
			{
				"x": -2.3607269365,
				"y": 4.4343588556,
				"z": -0.2590572326,
				"element": "H" 
			},
			{
				"x": 1.2095472093,
				"y": -1.978763506,
				"z": 1.3710215942,
				"element": "H" 
			},
			{
				"x": -0.8404394717,
				"y": -3.3257189266,
				"z": 1.0563819939,
				"element": "H" 
			},
			{
				"x": -2.3242731259,
				"y": -2.8919909614,
				"z": -0.9000233709,
				"element": "H" 
			},
			{
				"x": -1.7108556237,
				"y": -1.0957921513,
				"z": -2.5327879835,
				"element": "H" 
			},
			{
				"x": 3.3892325218,
				"y": 3.1733654637,
				"z": -0.4356062878,
				"element": "H" 
			},
			{
				"x": 5.4933298278,
				"y": 2.0105714948,
				"z": 0.2601916258,
				"element": "H" 
			},
			{
				"x": 5.4601446778,
				"y": -0.4516085253,
				"z": 0.6494828679,
				"element": "H" 
			},
			{
				"x": 3.365409793,
				"y": -1.723819914,
				"z": 0.3210060058,
				"element": "H" 
			}
		],
		 "valence_orbital": [ 
			{
				"type": "occ",
				"energy": -0.28263,
				"method": "rhf"
			},
			{
				"type": "occ",
				"energy": -0.25674,
				"method": "rhf"
			},
			{
				"type": "occ",
				"energy": -0.25167,
				"method": "rhf"
			},
			{
				"type": "occ",
				"energy": -0.24643,
				"method": "rhf"
			},
			{
				"type": "occ",
				"energy": -0.23346,
				"method": "rhf"
			},
			{
				"type": "unocc",
				"energy": -0.03734,
				"method": "rhf"
			},
			{
				"type": "unocc",
				"energy": -0.01137,
				"method": "rhf"
			},
			{
				"type": "unocc",
				"energy": -0.00656,
				"method": "rhf"
			},
			{
				"type": "unocc",
				"energy": 0.016,
				"method": "rhf"
			},
			{
				"type": "unocc",
				"energy": 0.06341,
				"method": "rhf"
			}
		],
		"cosmo_sigma_profile": { 
			"-0.025": 0.0,
			"-0.024": 0.0,
			"-0.023": 0.0,
			"-0.022": 0.0,
			"-0.021": 0.0,
			"-0.02": 0.0,
			"-0.019": 0.0,
			"-0.018": 0.0,
			"-0.017": 0.0,
			"-0.016": 0.0,
			"-0.015": 0.0,
			"-0.014": 0.210992409411,
			"-0.013": 0.802333605086,
			"-0.012": 1.21503185589,
			"-0.011": 0.74215796112,
			"-0.01": 1.14788841494,
			"-0.009": 0.920154424007,
			"-0.008": 1.44974052905,
			"-0.007": 5.6515410484,
			"-0.006": 17.5528390818,
			"-0.005": 18.8723038244,
			"-0.004": 20.9301892493,
			"-0.003": 21.8084685198,
			"-0.002": 37.8058455343,
			"-0.001": 40.8665487297,
			"0.0": 39.065030011,
			"0.001": 40.5893690093,
			"0.002": 27.9611583889,
			"0.003": 23.6633323676,
			"0.004": 20.9333002991,
			"0.005": 7.06490538209,
			"0.006": 2.31703479788,
			"0.007": 2.11995512452,
			"0.008": 2.88748712071,
			"0.009": 2.31407466071,
			"0.01": 1.68812966472,
			"0.011": 1.1604361484,
			"0.012": 1.3424588878,
			"0.013": 3.28840174518,
			"0.014": 7.66572441512,
			"0.015": 1.23048658885,
			"0.016": 0.0,
			"0.017": 0.0,
			"0.018": 0.0,
			"0.019": 0.0,
			"0.02": 0.0,
			"0.021": 0.0,
			"0.022": 0.0,
			"0.023": 0.0,
			"0.024": 0.0,
			"0.025": 0.0
		}
	}
}
