{
	 "smiles": "[O-][N+](=O)C1=CC=C(CCl)C=C1", 
	 "Tm": 345.15, 
	 "num_atms": 17, 
	 "gaussian": { 
		 "optdone": 1, 
		 "sigma_profile": "yes", 
		 "theory": "DFT", 
		 "functional": "B3LYP", 
		 "basiset": "6-31G**", 
		 "properties": { 
			 "R2extent": 2913.5515, 
			 "electric_dipole_moment_norm": 3.8436814241, 
			 "electric_quadrupole_moment_norm": 13.2911081938, 
			 "total_energy": -935.656500338, 
			 "HOMO_LUMO_gap": 0.18655, 
			 "cosmo_polarized_energy": -10.55, 
			 "cosmo_cavitation_energy": 23.96, 
			 "cosmo_dispersion_energy": -17.55, 
			 "cosmo_repulsion_energy": 1.42, 
			 "cosmo_total_nonelectrostatic_energy": 7.83, 
			 "SMD_solvation_energy": 6.05 
		},
		"coords": [
			{
				"x": -3.1253699152,
				"y": -1.2690116205,
				"z": 1.5208429622,
				"element": "O" 
			},
			{
				"x": -2.4710242038,
				"y": -1.8775122765,
				"z": 0.6754176694,
				"element": "N" 
			},
			{
				"x": -2.6920145634,
				"y": -3.031699964,
				"z": 0.3118315302,
				"element": "O" 
			},
			{
				"x": -1.3379840379,
				"y": -1.1716885835,
				"z": 0.052482619,
				"element": "C" 
			},
			{
				"x": -1.060753484,
				"y": 0.1361067621,
				"z": 0.4450931998,
				"element": "C" 
			},
			{
				"x": 0.0145452646,
				"y": 0.7932144581,
				"z": -0.144708052,
				"element": "C" 
			},
			{
				"x": 0.8028450613,
				"y": 0.1534940963,
				"z": -1.1120829592,
				"element": "C" 
			},
			{
				"x": 1.9625866158,
				"y": 0.8701390059,
				"z": -1.7411667439,
				"element": "C" 
			},
			{
				"x": 1.4637653469,
				"y": 1.7808839326,
				"z": -3.2485160649,
				"element": "Cl" 
			},
			{
				"x": 0.4954492221,
				"y": -1.1625675734,
				"z": -1.4861980018,
				"element": "C" 
			},
			{
				"x": -0.5760458649,
				"y": -1.835147935,
				"z": -0.907006098,
				"element": "C" 
			},
			{
				"x": -1.6801327561,
				"y": 0.6101276028,
				"z": 1.1959693523,
				"element": "H" 
			},
			{
				"x": 0.2438955456,
				"y": 1.8140339526,
				"z": 0.1467508337,
				"element": "H" 
			},
			{
				"x": 2.7437875625,
				"y": 0.1791567433,
				"z": -2.0581700603,
				"element": "H" 
			},
			{
				"x": 2.3899831804,
				"y": 1.6171906623,
				"z": -1.072237167,
				"element": "H" 
			},
			{
				"x": 1.0988361083,
				"y": -1.6628291343,
				"z": -2.2380514802,
				"element": "H" 
			},
			{
				"x": -0.8287690821,
				"y": -2.8521901287,
				"z": -1.1788515394,
				"element": "H" 
			}
		],
		 "valence_orbital": [ 
			{
				"type": "occ",
				"energy": -0.31246,
				"method": "rhf"
			},
			{
				"type": "occ",
				"energy": -0.30927,
				"method": "rhf"
			},
			{
				"type": "occ",
				"energy": -0.29639,
				"method": "rhf"
			},
			{
				"type": "occ",
				"energy": -0.28679,
				"method": "rhf"
			},
			{
				"type": "occ",
				"energy": -0.28485,
				"method": "rhf"
			},
			{
				"type": "unocc",
				"energy": -0.0983,
				"method": "rhf"
			},
			{
				"type": "unocc",
				"energy": -0.03691,
				"method": "rhf"
			},
			{
				"type": "unocc",
				"energy": -0.02685,
				"method": "rhf"
			},
			{
				"type": "unocc",
				"energy": 0.03079,
				"method": "rhf"
			},
			{
				"type": "unocc",
				"energy": 0.06741,
				"method": "rhf"
			}
		],
		"cosmo_sigma_profile": { 
			"-0.025": 0.0,
			"-0.024": 0.0,
			"-0.023": 0.0,
			"-0.022": 0.0,
			"-0.021": 0.0,
			"-0.02": 0.0,
			"-0.019": 0.0,
			"-0.018": 0.0,
			"-0.017": 0.0,
			"-0.016": 0.0,
			"-0.015": 0.0,
			"-0.014": 0.0,
			"-0.013": 0.0,
			"-0.012": 0.0,
			"-0.011": 0.0,
			"-0.01": 0.0,
			"-0.009": 1.62691685558,
			"-0.008": 11.0682923072,
			"-0.007": 12.5081843648,
			"-0.006": 11.4595201704,
			"-0.005": 11.667917102,
			"-0.004": 10.154282718,
			"-0.003": 8.36495191131,
			"-0.002": 10.493256401,
			"-0.001": 12.5861107239,
			"0.0": 13.1579651269,
			"0.001": 17.3859012735,
			"0.002": 11.0057853896,
			"0.003": 8.09743732995,
			"0.004": 7.77115678838,
			"0.005": 8.62177628431,
			"0.006": 14.2613554639,
			"0.007": 10.1174597286,
			"0.008": 7.20794626536,
			"0.009": 4.31743125935,
			"0.01": 2.38202056976,
			"0.011": 0.0523917480608,
			"0.012": 0.0,
			"0.013": 0.0,
			"0.014": 0.0,
			"0.015": 0.0,
			"0.016": 0.0,
			"0.017": 0.0,
			"0.018": 0.0,
			"0.019": 0.0,
			"0.02": 0.0,
			"0.021": 0.0,
			"0.022": 0.0,
			"0.023": 0.0,
			"0.024": 0.0,
			"0.025": 0.0
		}
	}
}
