{
	 "smiles": "OC(=O)C1=CN=C(S1)C1=CC=C(Cl)S1", 
	 "Tm": 509.15, 
	 "num_atms": 18, 
	 "gaussian": { 
		 "optdone": 1, 
		 "sigma_profile": "yes", 
		 "theory": "DFT", 
		 "functional": "B3LYP", 
		 "basiset": "6-31G**", 
		 "properties": { 
			 "R2extent": 6685.3597, 
			 "electric_dipole_moment_norm": 5.06865611479, 
			 "electric_quadrupole_moment_norm": 17.1256052273, 
			 "total_energy": -1769.0057755, 
			 "HOMO_LUMO_gap": 0.1391, 
			 "cosmo_polarized_energy": -15.29, 
			 "cosmo_cavitation_energy": 29.0, 
			 "cosmo_dispersion_energy": -22.56, 
			 "cosmo_repulsion_energy": 1.67, 
			 "cosmo_total_nonelectrostatic_energy": 8.11, 
			 "SMD_solvation_energy": 4.02 
		},
		"coords": [
			{
				"x": -3.3177215321,
				"y": -1.6599149412,
				"z": -2.2625152938,
				"element": "O" 
			},
			{
				"x": -2.4447781215,
				"y": -0.7596823955,
				"z": -2.7846106348,
				"element": "C" 
			},
			{
				"x": -2.7596219823,
				"y": -0.0934119632,
				"z": -3.7429073055,
				"element": "O" 
			},
			{
				"x": -1.115096384,
				"y": -0.6324449624,
				"z": -2.1469335725,
				"element": "C" 
			},
			{
				"x": -0.1347458467,
				"y": 0.2341652205,
				"z": -2.5694979012,
				"element": "C" 
			},
			{
				"x": 1.0320661749,
				"y": 0.2259785539,
				"z": -1.8712844493,
				"element": "N" 
			},
			{
				"x": 1.0010730245,
				"y": -0.6426772413,
				"z": -0.8861671419,
				"element": "C" 
			},
			{
				"x": -0.5229323289,
				"y": -1.5283172565,
				"z": -0.7628765787,
				"element": "S" 
			},
			{
				"x": 2.1008981929,
				"y": -0.8654897505,
				"z": 0.0204086066,
				"element": "C" 
			},
			{
				"x": 2.2065980548,
				"y": -1.7344309247,
				"z": 1.0864576723,
				"element": "C" 
			},
			{
				"x": 3.4594108751,
				"y": -1.6676954867,
				"z": 1.7489069601,
				"element": "C" 
			},
			{
				"x": 4.2902797224,
				"y": -0.7422962703,
				"z": 1.1704359894,
				"element": "C" 
			},
			{
				"x": 5.8968178895,
				"y": -0.3525199771,
				"z": 1.6685475251,
				"element": "Cl" 
			},
			{
				"x": 3.5703233337,
				"y": 0.0676018425,
				"z": -0.1900581277,
				"element": "S" 
			},
			{
				"x": -2.9461407765,
				"y": -2.1284504052,
				"z": -1.5017586395,
				"element": "H" 
			},
			{
				"x": -0.2639751388,
				"y": 0.8995860443,
				"z": -3.414370577,
				"element": "H" 
			},
			{
				"x": 1.4088016996,
				"y": -2.4039355644,
				"z": 1.3888551424,
				"element": "H" 
			},
			{
				"x": 3.7369431435,
				"y": -2.267864522,
				"z": 2.6059683259,
				"element": "H" 
			}
		],
		 "valence_orbital": [ 
			{
				"type": "occ",
				"energy": -0.30286,
				"method": "rhf"
			},
			{
				"type": "occ",
				"energy": -0.29301,
				"method": "rhf"
			},
			{
				"type": "occ",
				"energy": -0.28566,
				"method": "rhf"
			},
			{
				"type": "occ",
				"energy": -0.28295,
				"method": "rhf"
			},
			{
				"type": "occ",
				"energy": -0.23486,
				"method": "rhf"
			},
			{
				"type": "unocc",
				"energy": -0.09576,
				"method": "rhf"
			},
			{
				"type": "unocc",
				"energy": -0.03689,
				"method": "rhf"
			},
			{
				"type": "unocc",
				"energy": -0.02825,
				"method": "rhf"
			},
			{
				"type": "unocc",
				"energy": -0.00124,
				"method": "rhf"
			},
			{
				"type": "unocc",
				"energy": 0.00498,
				"method": "rhf"
			}
		],
		"cosmo_sigma_profile": { 
			"-0.025": 0.0,
			"-0.024": 0.0,
			"-0.023": 0.0,
			"-0.022": 0.0,
			"-0.021": 0.0,
			"-0.02": 0.0,
			"-0.019": 0.298930397521,
			"-0.018": 1.02123093801,
			"-0.017": 0.526098078744,
			"-0.016": 1.23526173196,
			"-0.015": 1.34130185783,
			"-0.014": 0.956303122005,
			"-0.013": 0.544006989484,
			"-0.012": 1.06432704845,
			"-0.011": 1.25842773793,
			"-0.01": 1.05358513376,
			"-0.009": 4.57083952123,
			"-0.008": 6.77995643794,
			"-0.007": 6.93989719242,
			"-0.006": 6.90585397795,
			"-0.005": 5.64832378103,
			"-0.004": 8.51470885617,
			"-0.003": 11.8463119351,
			"-0.002": 18.1955330217,
			"-0.001": 23.2061019165,
			"0.0": 29.5837323967,
			"0.001": 28.4659028584,
			"0.002": 25.2072499623,
			"0.003": 14.4990244558,
			"0.004": 4.10052589978,
			"0.005": 4.52646394988,
			"0.006": 3.87420480335,
			"0.007": 3.56575108794,
			"0.008": 4.00033368988,
			"0.009": 4.97997245374,
			"0.01": 5.94323962618,
			"0.011": 6.28531022714,
			"0.012": 3.62549330536,
			"0.013": 0.677535234896,
			"0.014": 0.0,
			"0.015": 0.0,
			"0.016": 0.0,
			"0.017": 0.0,
			"0.018": 0.0,
			"0.019": 0.0,
			"0.02": 0.0,
			"0.021": 0.0,
			"0.022": 0.0,
			"0.023": 0.0,
			"0.024": 0.0,
			"0.025": 0.0
		}
	}
}
