{
	 "smiles": "CCN1N=NC2=C1C=CC(=C2)C(O)=O", 
	 "Tm": 502.15, 
	 "num_atms": 23, 
	 "gaussian": { 
		 "optdone": 1, 
		 "sigma_profile": "yes", 
		 "theory": "DFT", 
		 "functional": "B3LYP", 
		 "basiset": "6-31G**", 
		 "properties": { 
			 "R2extent": 3861.5582, 
			 "electric_dipole_moment_norm": 5.08855898364, 
			 "electric_quadrupole_moment_norm": 16.2418059455, 
			 "total_energy": -663.065265046, 
			 "HOMO_LUMO_gap": 0.18993, 
			 "cosmo_polarized_energy": -19.41, 
			 "cosmo_cavitation_energy": 27.92, 
			 "cosmo_dispersion_energy": -20.26, 
			 "cosmo_repulsion_energy": 1.58, 
			 "cosmo_total_nonelectrostatic_energy": 9.24, 
			 "SMD_solvation_energy": 4.06 
		},
		"coords": [
			{
				"x": 0.5845543358,
				"y": -3.9025367046,
				"z": -0.3643127493,
				"element": "C" 
			},
			{
				"x": 1.388632529,
				"y": -2.6483857363,
				"z": -0.7131514192,
				"element": "C" 
			},
			{
				"x": 0.5762400492,
				"y": -1.6097923079,
				"z": -1.3364889041,
				"element": "N" 
			},
			{
				"x": 0.5384309826,
				"y": -1.4988075343,
				"z": -2.6999931317,
				"element": "N" 
			},
			{
				"x": -0.2769746608,
				"y": -0.5542116505,
				"z": -3.0337979974,
				"element": "N" 
			},
			{
				"x": -0.8114028749,
				"y": -0.0182647842,
				"z": -1.8813024287,
				"element": "C" 
			},
			{
				"x": -0.2658510624,
				"y": -0.6976917579,
				"z": -0.7723149383,
				"element": "C" 
			},
			{
				"x": -0.6080203483,
				"y": -0.3595737573,
				"z": 0.5488346987,
				"element": "C" 
			},
			{
				"x": -1.5130326902,
				"y": 0.6729265979,
				"z": 0.7083812341,
				"element": "C" 
			},
			{
				"x": -2.0893683544,
				"y": 1.3557536892,
				"z": -0.3992480419,
				"element": "C" 
			},
			{
				"x": -1.7314801386,
				"y": 1.0230910975,
				"z": -1.7029547831,
				"element": "C" 
			},
			{
				"x": -3.0470986983,
				"y": 2.4640455799,
				"z": -0.0792895022,
				"element": "C" 
			},
			{
				"x": -3.8773251499,
				"y": 2.8684984817,
				"z": -1.0767621013,
				"element": "O" 
			},
			{
				"x": -3.1042170448,
				"y": 2.9957338001,
				"z": 1.0051563099,
				"element": "O" 
			},
			{
				"x": 0.1394044127,
				"y": -4.3344951794,
				"z": -1.2645665466,
				"element": "H" 
			},
			{
				"x": 1.241238899,
				"y": -4.6505117689,
				"z": 0.0902241699,
				"element": "H" 
			},
			{
				"x": -0.2181875323,
				"y": -3.6779362549,
				"z": 0.3442259834,
				"element": "H" 
			},
			{
				"x": 1.8571045601,
				"y": -2.2172414765,
				"z": 0.1776046411,
				"element": "H" 
			},
			{
				"x": 2.1805469402,
				"y": -2.8781451489,
				"z": -1.4293254125,
				"element": "H" 
			},
			{
				"x": -0.1844555197,
				"y": -0.8731813228,
				"z": 1.4054443044,
				"element": "H" 
			},
			{
				"x": -1.81160962,
				"y": 0.9970148009,
				"z": 1.6990882857,
				"element": "H" 
			},
			{
				"x": -2.1034424035,
				"y": 1.556256323,
				"z": -2.5731665497,
				"element": "H" 
			},
			{
				"x": -3.8391866106,
				"y": 2.2498550144,
				"z": -1.8189851212,
				"element": "H" 
			}
		],
		 "valence_orbital": [ 
			{
				"type": "occ",
				"energy": -0.31765,
				"method": "rhf"
			},
			{
				"type": "occ",
				"energy": -0.28275,
				"method": "rhf"
			},
			{
				"type": "occ",
				"energy": -0.27744,
				"method": "rhf"
			},
			{
				"type": "occ",
				"energy": -0.26598,
				"method": "rhf"
			},
			{
				"type": "occ",
				"energy": -0.25577,
				"method": "rhf"
			},
			{
				"type": "unocc",
				"energy": -0.06584,
				"method": "rhf"
			},
			{
				"type": "unocc",
				"energy": -0.03878,
				"method": "rhf"
			},
			{
				"type": "unocc",
				"energy": 0.01661,
				"method": "rhf"
			},
			{
				"type": "unocc",
				"energy": 0.05195,
				"method": "rhf"
			},
			{
				"type": "unocc",
				"energy": 0.06263,
				"method": "rhf"
			}
		],
		"cosmo_sigma_profile": { 
			"-0.025": 0.0,
			"-0.024": 0.0,
			"-0.023": 0.0,
			"-0.022": 0.0,
			"-0.021": 0.0,
			"-0.02": 0.0,
			"-0.019": 0.515228200185,
			"-0.018": 0.921375649554,
			"-0.017": 1.21217011343,
			"-0.016": 0.984078427853,
			"-0.015": 0.606319879375,
			"-0.014": 1.20740702316,
			"-0.013": 1.18042741055,
			"-0.012": 1.00512469669,
			"-0.011": 1.3466488313,
			"-0.01": 1.84608936162,
			"-0.009": 1.45436341402,
			"-0.008": 4.67242044626,
			"-0.007": 8.3750882005,
			"-0.006": 10.4327513308,
			"-0.005": 13.3074190978,
			"-0.004": 17.4699717426,
			"-0.003": 16.3267024048,
			"-0.002": 19.1452318602,
			"-0.001": 16.5538087224,
			"0.0": 18.2148888715,
			"0.001": 14.5551251007,
			"0.002": 10.1835982087,
			"0.003": 5.30473642012,
			"0.004": 4.39298196928,
			"0.005": 4.49084747899,
			"0.006": 5.03283681273,
			"0.007": 4.42479989993,
			"0.008": 3.94116734026,
			"0.009": 6.27786498493,
			"0.01": 7.93852776088,
			"0.011": 8.45611002875,
			"0.012": 7.01031866347,
			"0.013": 2.59317770732,
			"0.014": 1.25072795654,
			"0.015": 0.610931574772,
			"0.016": 0.0,
			"0.017": 0.0,
			"0.018": 0.0,
			"0.019": 0.0,
			"0.02": 0.0,
			"0.021": 0.0,
			"0.022": 0.0,
			"0.023": 0.0,
			"0.024": 0.0,
			"0.025": 0.0
		}
	}
}
