{
	 "smiles": "O=CC1=CN2N=CC=C2N=C1", 
	 "Tm": 440.15, 
	 "num_atms": 16, 
	 "gaussian": { 
		 "optdone": 1, 
		 "sigma_profile": "yes", 
		 "theory": "DFT", 
		 "functional": "B3LYP", 
		 "basiset": "6-31G**", 
		 "properties": { 
			 "R2extent": 1844.6955, 
			 "electric_dipole_moment_norm": 2.32915737983, 
			 "electric_quadrupole_moment_norm": 8.64702372033, 
			 "total_energy": -509.189669647, 
			 "HOMO_LUMO_gap": 0.1614, 
			 "cosmo_polarized_energy": -11.72, 
			 "cosmo_cavitation_energy": 21.34, 
			 "cosmo_dispersion_energy": -15.9, 
			 "cosmo_repulsion_energy": 1.24, 
			 "cosmo_total_nonelectrostatic_energy": 6.68, 
			 "SMD_solvation_energy": 2.76 
		},
		"coords": [
			{
				"x": -2.6013151016,
				"y": 1.2722417942,
				"z": -2.56312695,
				"element": "O" 
			},
			{
				"x": -2.1154384018,
				"y": 1.5456798881,
				"z": -1.4824063788,
				"element": "C" 
			},
			{
				"x": -0.8411272469,
				"y": 0.9966866176,
				"z": -0.9873267305,
				"element": "C" 
			},
			{
				"x": -0.3628418428,
				"y": 1.3602658893,
				"z": 0.2512056853,
				"element": "C" 
			},
			{
				"x": 0.8098184763,
				"y": 0.829034022,
				"z": 0.6585822215,
				"element": "N" 
			},
			{
				"x": 1.4243102802,
				"y": 1.0741401643,
				"z": 1.8394652093,
				"element": "N" 
			},
			{
				"x": 2.5342501643,
				"y": 0.327598794,
				"z": 1.7745458866,
				"element": "C" 
			},
			{
				"x": 2.6608226544,
				"y": -0.4012588353,
				"z": 0.5772244879,
				"element": "C" 
			},
			{
				"x": 1.5307765986,
				"y": -0.0751260339,
				"z": -0.1585639624,
				"element": "C" 
			},
			{
				"x": 1.0722028535,
				"y": -0.4418431768,
				"z": -1.3795158638,
				"element": "N" 
			},
			{
				"x": -0.0676806934,
				"y": 0.0765759613,
				"z": -1.7715717946,
				"element": "C" 
			},
			{
				"x": -2.6217877966,
				"y": 2.248284031,
				"z": -0.7838066556,
				"element": "H" 
			},
			{
				"x": -0.8523020164,
				"y": 2.044751317,
				"z": 0.9363762575,
				"element": "H" 
			},
			{
				"x": 3.2178732907,
				"y": 0.3432951498,
				"z": 2.6133974405,
				"element": "H" 
			},
			{
				"x": 3.4512165131,
				"y": -1.0703579155,
				"z": 0.276812271,
				"element": "H" 
			},
			{
				"x": -0.4474777316,
				"y": -0.2090676672,
				"z": -2.7493911238,
				"element": "H" 
			}
		],
		 "valence_orbital": [ 
			{
				"type": "occ",
				"energy": -0.32941,
				"method": "rhf"
			},
			{
				"type": "occ",
				"energy": -0.28747,
				"method": "rhf"
			},
			{
				"type": "occ",
				"energy": -0.27645,
				"method": "rhf"
			},
			{
				"type": "occ",
				"energy": -0.26677,
				"method": "rhf"
			},
			{
				"type": "occ",
				"energy": -0.24249,
				"method": "rhf"
			},
			{
				"type": "unocc",
				"energy": -0.08109,
				"method": "rhf"
			},
			{
				"type": "unocc",
				"energy": -0.05971,
				"method": "rhf"
			},
			{
				"type": "unocc",
				"energy": 0.01266,
				"method": "rhf"
			},
			{
				"type": "unocc",
				"energy": 0.05465,
				"method": "rhf"
			},
			{
				"type": "unocc",
				"energy": 0.08962,
				"method": "rhf"
			}
		],
		"cosmo_sigma_profile": { 
			"-0.025": 0.0,
			"-0.024": 0.0,
			"-0.023": 0.0,
			"-0.022": 0.0,
			"-0.021": 0.0,
			"-0.02": 0.0,
			"-0.019": 0.0,
			"-0.018": 0.0,
			"-0.017": 0.0,
			"-0.016": 0.0,
			"-0.015": 0.0,
			"-0.014": 0.0,
			"-0.013": 0.0,
			"-0.012": 1.29729743552,
			"-0.011": 2.93849975288,
			"-0.01": 2.25394761912,
			"-0.009": 2.99978869362,
			"-0.008": 6.22477349514,
			"-0.007": 8.60308537738,
			"-0.006": 8.61243088399,
			"-0.005": 10.3450107413,
			"-0.004": 13.1736145238,
			"-0.003": 12.9512718901,
			"-0.002": 13.6830780657,
			"-0.001": 8.98708926482,
			"0.0": 7.26362128485,
			"0.001": 8.87567519563,
			"0.002": 12.0967014616,
			"0.003": 8.47595562216,
			"0.004": 4.91253009336,
			"0.005": 3.46721325475,
			"0.006": 5.27697752929,
			"0.007": 3.90735434237,
			"0.008": 4.31103448635,
			"0.009": 3.85934403328,
			"0.01": 5.1459906094,
			"0.011": 5.85254335725,
			"0.012": 3.90467737397,
			"0.013": 2.11134432021,
			"0.014": 1.43190078296,
			"0.015": 0.219798768164,
			"0.016": 0.0,
			"0.017": 0.0,
			"0.018": 0.0,
			"0.019": 0.0,
			"0.02": 0.0,
			"0.021": 0.0,
			"0.022": 0.0,
			"0.023": 0.0,
			"0.024": 0.0,
			"0.025": 0.0
		}
	}
}
