{
	 "smiles": "CCCCCCCC=CC(O)=O", 
	 "Tm": 285.15, 
	 "num_atms": 30, 
	 "gaussian": { 
		 "optdone": 1, 
		 "sigma_profile": "yes", 
		 "theory": "DFT", 
		 "functional": "B3LYP", 
		 "basiset": "6-31G**", 
		 "properties": { 
			 "R2extent": 3619.6095, 
			 "electric_dipole_moment_norm": 5.22355967804, 
			 "electric_quadrupole_moment_norm": 17.6252884169, 
			 "total_energy": -542.366292687, 
			 "HOMO_LUMO_gap": 0.21791, 
			 "cosmo_polarized_energy": -14.05, 
			 "cosmo_cavitation_energy": 32.3, 
			 "cosmo_dispersion_energy": -22.03, 
			 "cosmo_repulsion_energy": 1.83, 
			 "cosmo_total_nonelectrostatic_energy": 12.11, 
			 "SMD_solvation_energy": 6.16 
		},
		"coords": [
			{
				"x": -1.9276694174,
				"y": 4.3113869617,
				"z": -1.3882380572,
				"element": "C" 
			},
			{
				"x": -1.5381193661,
				"y": 2.9103179023,
				"z": -1.8713366577,
				"element": "C" 
			},
			{
				"x": -1.5000310811,
				"y": 1.8762004447,
				"z": -0.7372341583,
				"element": "C" 
			},
			{
				"x": -1.2072097575,
				"y": 0.4330704307,
				"z": -1.1846659916,
				"element": "C" 
			},
			{
				"x": 0.1688338545,
				"y": 0.195057222,
				"z": -1.8362982347,
				"element": "C" 
			},
			{
				"x": 1.4103201785,
				"y": 0.4640907767,
				"z": -0.9651736931,
				"element": "C" 
			},
			{
				"x": 1.7148106781,
				"y": -0.5858272666,
				"z": 0.127233723,
				"element": "C" 
			},
			{
				"x": 0.7996035061,
				"y": -0.5784945394,
				"z": 1.318111374,
				"element": "C" 
			},
			{
				"x": 0.2079933837,
				"y": -1.6575710531,
				"z": 1.8496650618,
				"element": "C" 
			},
			{
				"x": -0.7160036762,
				"y": -1.6544520637,
				"z": 3.0165261864,
				"element": "C" 
			},
			{
				"x": -0.6446615534,
				"y": -0.5955485656,
				"z": 3.8723541883,
				"element": "O" 
			},
			{
				"x": -1.5157368806,
				"y": -2.5392260034,
				"z": 3.2141076958,
				"element": "O" 
			},
			{
				"x": -2.9199771923,
				"y": 4.3082199102,
				"z": -0.923028226,
				"element": "H" 
			},
			{
				"x": -1.9499229733,
				"y": 5.0292126813,
				"z": -2.2147145214,
				"element": "H" 
			},
			{
				"x": -1.2165944148,
				"y": 4.6859529191,
				"z": -0.642685874,
				"element": "H" 
			},
			{
				"x": -0.5605206999,
				"y": 2.9602525411,
				"z": -2.3677670928,
				"element": "H" 
			},
			{
				"x": -2.2504593949,
				"y": 2.5757024209,
				"z": -2.6381190942,
				"element": "H" 
			},
			{
				"x": -0.7661299444,
				"y": 2.1971080268,
				"z": 0.0157853484,
				"element": "H" 
			},
			{
				"x": -2.4700043197,
				"y": 1.8840405308,
				"z": -0.2221049964,
				"element": "H" 
			},
			{
				"x": -1.3264723509,
				"y": -0.2348798511,
				"z": -0.3247839392,
				"element": "H" 
			},
			{
				"x": -1.9778887619,
				"y": 0.1302699536,
				"z": -1.9065437439,
				"element": "H" 
			},
			{
				"x": 0.2116958936,
				"y": -0.8437174726,
				"z": -2.1912904576,
				"element": "H" 
			},
			{
				"x": 0.2483893975,
				"y": 0.8159266972,
				"z": -2.7372854627,
				"element": "H" 
			},
			{
				"x": 1.345766924,
				"y": 1.4584173147,
				"z": -0.5038361921,
				"element": "H" 
			},
			{
				"x": 2.2857606444,
				"y": 0.5014998851,
				"z": -1.6246086229,
				"element": "H" 
			},
			{
				"x": 1.7386703746,
				"y": -1.5899196275,
				"z": -0.3133995366,
				"element": "H" 
			},
			{
				"x": 2.7320229704,
				"y": -0.387844108,
				"z": 0.4986093297,
				"element": "H" 
			},
			{
				"x": 0.6291264242,
				"y": 0.4044820422,
				"z": 1.7646403511,
				"element": "H" 
			},
			{
				"x": 0.3133437033,
				"y": -2.6334577465,
				"z": 1.3834447778,
				"element": "H" 
			},
			{
				"x": 0.1416638516,
				"y": -0.0677703636,
				"z": 3.6765365163,
				"element": "H" 
			}
		],
		 "valence_orbital": [ 
			{
				"type": "occ",
				"energy": -0.31809,
				"method": "rhf"
			},
			{
				"type": "occ",
				"energy": -0.31511,
				"method": "rhf"
			},
			{
				"type": "occ",
				"energy": -0.31074,
				"method": "rhf"
			},
			{
				"type": "occ",
				"energy": -0.27785,
				"method": "rhf"
			},
			{
				"type": "occ",
				"energy": -0.26442,
				"method": "rhf"
			},
			{
				"type": "unocc",
				"energy": -0.04651,
				"method": "rhf"
			},
			{
				"type": "unocc",
				"energy": 0.05622,
				"method": "rhf"
			},
			{
				"type": "unocc",
				"energy": 0.07122,
				"method": "rhf"
			},
			{
				"type": "unocc",
				"energy": 0.07916,
				"method": "rhf"
			},
			{
				"type": "unocc",
				"energy": 0.09199,
				"method": "rhf"
			}
		],
		"cosmo_sigma_profile": { 
			"-0.025": 0.0,
			"-0.024": 0.0,
			"-0.023": 0.0,
			"-0.022": 0.0,
			"-0.021": 0.0,
			"-0.02": 0.0,
			"-0.019": 0.0,
			"-0.018": 0.628129201395,
			"-0.017": 0.901061112446,
			"-0.016": 1.07314847904,
			"-0.015": 0.79825787129,
			"-0.014": 1.20389454212,
			"-0.013": 0.901133318584,
			"-0.012": 0.826900087385,
			"-0.011": 0.96676422794,
			"-0.01": 1.16996273525,
			"-0.009": 0.812085591557,
			"-0.008": 1.69094654442,
			"-0.007": 1.85450048424,
			"-0.006": 3.6793398618,
			"-0.005": 6.4635044746,
			"-0.004": 10.5500099974,
			"-0.003": 16.4283877752,
			"-0.002": 33.0036238242,
			"-0.001": 41.0436036137,
			"0.0": 40.1667160067,
			"0.001": 34.7706803689,
			"0.002": 14.4869563924,
			"0.003": 3.13879954649,
			"0.004": 1.68095384088,
			"0.005": 1.54480781145,
			"0.006": 2.72261437736,
			"0.007": 2.24349945016,
			"0.008": 2.54587325073,
			"0.009": 2.82553242127,
			"0.01": 4.05425515197,
			"0.011": 5.32577044778,
			"0.012": 5.90251944865,
			"0.013": 4.2261691034,
			"0.014": 0.754712099324,
			"0.015": 0.0,
			"0.016": 0.0,
			"0.017": 0.0,
			"0.018": 0.0,
			"0.019": 0.0,
			"0.02": 0.0,
			"0.021": 0.0,
			"0.022": 0.0,
			"0.023": 0.0,
			"0.024": 0.0,
			"0.025": 0.0
		}
	}
}
