{
	 "smiles": "NC1=CC=C(Cl)C(Cl)=C1Cl", 
	 "Tm": 346.15, 
	 "num_atms": 14, 
	 "gaussian": { 
		 "optdone": 1, 
		 "sigma_profile": "yes", 
		 "theory": "DFT", 
		 "functional": "B3LYP", 
		 "basiset": "6-31G**", 
		 "properties": { 
			 "R2extent": 3075.9849, 
			 "electric_dipole_moment_norm": 4.19916381557, 
			 "electric_quadrupole_moment_norm": 3.48827029199, 
			 "total_energy": -1666.37348509, 
			 "HOMO_LUMO_gap": 0.19115, 
			 "cosmo_polarized_energy": -8.56, 
			 "cosmo_cavitation_energy": 23.13, 
			 "cosmo_dispersion_energy": -17.91, 
			 "cosmo_repulsion_energy": 1.45, 
			 "cosmo_total_nonelectrostatic_energy": 6.66, 
			 "SMD_solvation_energy": 3.16 
		},
		"coords": [
			{
				"x": 0.7169477897,
				"y": -1.3203318193,
				"z": -1.458854334,
				"element": "N" 
			},
			{
				"x": -0.0950839404,
				"y": -0.574385489,
				"z": -0.6256727514,
				"element": "C" 
			},
			{
				"x": -0.5286443297,
				"y": 0.7087464054,
				"z": -1.0038168575,
				"element": "C" 
			},
			{
				"x": -1.3877741024,
				"y": 1.4432318269,
				"z": -0.2017833047,
				"element": "C" 
			},
			{
				"x": -1.8474237968,
				"y": 0.9264882187,
				"z": 1.010065802,
				"element": "C" 
			},
			{
				"x": -2.9312618251,
				"y": 1.8939368148,
				"z": 1.9831398624,
				"element": "Cl" 
			},
			{
				"x": -1.4336178598,
				"y": -0.3486525245,
				"z": 1.4204768867,
				"element": "C" 
			},
			{
				"x": -1.987165313,
				"y": -1.0119804294,
				"z": 2.9290828077,
				"element": "Cl" 
			},
			{
				"x": -0.562292653,
				"y": -1.086146562,
				"z": 0.603077304,
				"element": "C" 
			},
			{
				"x": -0.0175506123,
				"y": -2.6786677438,
				"z": 1.0924323933,
				"element": "Cl" 
			},
			{
				"x": 1.2570790568,
				"y": -0.7989095615,
				"z": -2.1330396498,
				"element": "H" 
			},
			{
				"x": 1.2171728611,
				"y": -2.0872651344,
				"z": -1.0335242799,
				"element": "H" 
			},
			{
				"x": -0.1857768611,
				"y": 1.1231746561,
				"z": -1.9473584654,
				"element": "H" 
			},
			{
				"x": -1.711908414,
				"y": 2.4307613422,
				"z": -0.5098254133,
				"element": "H" 
			}
		],
		 "valence_orbital": [ 
			{
				"type": "occ",
				"energy": -0.32431,
				"method": "rhf"
			},
			{
				"type": "occ",
				"energy": -0.30362,
				"method": "rhf"
			},
			{
				"type": "occ",
				"energy": -0.30223,
				"method": "rhf"
			},
			{
				"type": "occ",
				"energy": -0.25513,
				"method": "rhf"
			},
			{
				"type": "occ",
				"energy": -0.2188,
				"method": "rhf"
			},
			{
				"type": "unocc",
				"energy": -0.02765,
				"method": "rhf"
			},
			{
				"type": "unocc",
				"energy": -0.01535,
				"method": "rhf"
			},
			{
				"type": "unocc",
				"energy": -0.01059,
				"method": "rhf"
			},
			{
				"type": "unocc",
				"energy": 0.04892,
				"method": "rhf"
			},
			{
				"type": "unocc",
				"energy": 0.06247,
				"method": "rhf"
			}
		],
		"cosmo_sigma_profile": { 
			"-0.025": 0.0,
			"-0.024": 0.0,
			"-0.023": 0.0,
			"-0.022": 0.0,
			"-0.021": 0.0,
			"-0.02": 0.0,
			"-0.019": 0.0,
			"-0.018": 0.0,
			"-0.017": 0.0,
			"-0.016": 0.0,
			"-0.015": 0.0,
			"-0.014": 0.58619002725,
			"-0.013": 2.05203001784,
			"-0.012": 2.20152141124,
			"-0.011": 2.81140418623,
			"-0.01": 3.01517885013,
			"-0.009": 1.79281502607,
			"-0.008": 4.32070647021,
			"-0.007": 5.40975561686,
			"-0.006": 4.82716802687,
			"-0.005": 5.69554754119,
			"-0.004": 4.08451794358,
			"-0.003": 7.23671036991,
			"-0.002": 8.28346263019,
			"-0.001": 10.8156837832,
			"0.0": 17.6891699878,
			"0.001": 25.3339382188,
			"0.002": 22.6130112107,
			"0.003": 23.63085375,
			"0.004": 23.3532324491,
			"0.005": 11.2703551124,
			"0.006": 1.28278241947,
			"0.007": 0.668618505507,
			"0.008": 0.817969841785,
			"0.009": 0.651356556141,
			"0.01": 0.63085574809,
			"0.011": 0.516744562731,
			"0.012": 0.400873155727,
			"0.013": 0.0,
			"0.014": 0.0,
			"0.015": 0.0,
			"0.016": 0.0,
			"0.017": 0.0,
			"0.018": 0.0,
			"0.019": 0.0,
			"0.02": 0.0,
			"0.021": 0.0,
			"0.022": 0.0,
			"0.023": 0.0,
			"0.024": 0.0,
			"0.025": 0.0
		}
	}
}
