{
	 "smiles": "ClC1=CC2=C(NC3=C(C=CC=C3)C(=N2)N2CCN(CC2)C2=NC3=CC(Cl)=CC=C3NC3=CC=CC=C23)C=C1", 
	 "Tm": 607.15, 
	 "num_atms": 62, 
	 "gaussian": { 
		 "optdone": 1, 
		 "sigma_profile": "yes", 
		 "theory": "DFT", 
		 "functional": "B3LYP", 
		 "basiset": "6-31G**", 
		 "properties": { 
			 "R2extent": 25823.2331, 
			 "electric_dipole_moment_norm": 9.2846156851, 
			 "electric_quadrupole_moment_norm": 23.7941603806, 
			 "total_energy": -2406.54078446, 
			 "HOMO_LUMO_gap": 0.14648, 
			 "cosmo_polarized_energy": -24.57, 
			 "cosmo_cavitation_energy": 66.76, 
			 "cosmo_dispersion_energy": -44.84, 
			 "cosmo_repulsion_energy": 3.32, 
			 "cosmo_total_nonelectrostatic_energy": 25.23, 
			 "SMD_solvation_energy": 5.92 
		},
		"coords": [
			{
				"x": -0.1809219178,
				"y": -7.5344953794,
				"z": -1.8867352892,
				"element": "Cl" 
			},
			{
				"x": 0.4069869138,
				"y": -5.9499663785,
				"z": -2.3843539039,
				"element": "C" 
			},
			{
				"x": -0.3262585844,
				"y": -4.8170826874,
				"z": -2.0521196583,
				"element": "C" 
			},
			{
				"x": 0.1130313183,
				"y": -3.5379615764,
				"z": -2.4359004817,
				"element": "C" 
			},
			{
				"x": 1.3203905245,
				"y": -3.4367029022,
				"z": -3.1669476957,
				"element": "C" 
			},
			{
				"x": 1.8072959883,
				"y": -2.1500808375,
				"z": -3.5486703993,
				"element": "N" 
			},
			{
				"x": 0.9715628152,
				"y": -1.3986912124,
				"z": -4.4090171561,
				"element": "C" 
			},
			{
				"x": -0.3087658356,
				"y": -1.0123637585,
				"z": -3.9638985408,
				"element": "C" 
			},
			{
				"x": -1.1540787117,
				"y": -0.3264505533,
				"z": -4.849225653,
				"element": "C" 
			},
			{
				"x": -0.7305210049,
				"y": 0.0274093743,
				"z": -6.1282677117,
				"element": "C" 
			},
			{
				"x": 0.5637599326,
				"y": -0.300946733,
				"z": -6.5360540469,
				"element": "C" 
			},
			{
				"x": 1.4017939633,
				"y": -1.0220478768,
				"z": -5.6879679354,
				"element": "C" 
			},
			{
				"x": -0.7574743307,
				"y": -1.3242520316,
				"z": -2.5729540701,
				"element": "C" 
			},
			{
				"x": -0.6007381927,
				"y": -2.4469050723,
				"z": -1.9515169769,
				"element": "N" 
			},
			{
				"x": -1.5147809066,
				"y": -0.3391639196,
				"z": -1.9500948948,
				"element": "N" 
			},
			{
				"x": -1.1845496524,
				"y": 1.0877720591,
				"z": -2.0980085171,
				"element": "C" 
			},
			{
				"x": -0.8699861821,
				"y": 1.7165676409,
				"z": -0.7210111869,
				"element": "C" 
			},
			{
				"x": -0.2190106072,
				"y": 0.7340965719,
				"z": 0.1412659865,
				"element": "N" 
			},
			{
				"x": -1.0948445077,
				"y": -0.3892624972,
				"z": 0.5023712222,
				"element": "C" 
			},
			{
				"x": -2.0973562874,
				"y": -0.6384175151,
				"z": -0.6417483968,
				"element": "C" 
			},
			{
				"x": 0.7846095774,
				"y": 1.0796481638,
				"z": 1.0344156793,
				"element": "C" 
			},
			{
				"x": 0.7999937259,
				"y": 0.462827214,
				"z": 2.1703070049,
				"element": "N" 
			},
			{
				"x": 1.7376671416,
				"y": 0.6726683519,
				"z": 3.1769327007,
				"element": "C" 
			},
			{
				"x": 2.064195092,
				"y": -0.4268730828,
				"z": 3.989811947,
				"element": "C" 
			},
			{
				"x": 2.8871933815,
				"y": -0.2713068078,
				"z": 5.0987790265,
				"element": "C" 
			},
			{
				"x": 3.274023612,
				"y": -1.6753196554,
				"z": 6.0907743945,
				"element": "Cl" 
			},
			{
				"x": 3.3959282793,
				"y": 0.9767887411,
				"z": 5.4511629476,
				"element": "C" 
			},
			{
				"x": 3.0841548654,
				"y": 2.0711106143,
				"z": 4.6447123418,
				"element": "C" 
			},
			{
				"x": 2.2685510324,
				"y": 1.9395387298,
				"z": 3.5187571757,
				"element": "C" 
			},
			{
				"x": 1.9358527199,
				"y": 3.081739521,
				"z": 2.7302358986,
				"element": "N" 
			},
			{
				"x": 2.3335931503,
				"y": 3.0420707801,
				"z": 1.3724967014,
				"element": "C" 
			},
			{
				"x": 3.2287914983,
				"y": 3.9859676938,
				"z": 0.8525624726,
				"element": "C" 
			},
			{
				"x": 3.6378239788,
				"y": 3.9196169373,
				"z": -0.4778516687,
				"element": "C" 
			},
			{
				"x": 3.1847991887,
				"y": 2.8849769635,
				"z": -1.2986505023,
				"element": "C" 
			},
			{
				"x": 2.2782398089,
				"y": 1.956385997,
				"z": -0.7910974544,
				"element": "C" 
			},
			{
				"x": 1.8123211629,
				"y": 2.0405544827,
				"z": 0.5299138007,
				"element": "C" 
			},
			{
				"x": 2.0441648268,
				"y": -4.5891789571,
				"z": -3.4792311427,
				"element": "C" 
			},
			{
				"x": 1.6059277033,
				"y": -5.8538606623,
				"z": -3.0870771465,
				"element": "C" 
			},
			{
				"x": -1.2387979464,
				"y": -4.8940874687,
				"z": -1.4731404061,
				"element": "H" 
			},
			{
				"x": 2.7516531516,
				"y": -2.2132571352,
				"z": -3.9114774185,
				"element": "H" 
			},
			{
				"x": -2.1526628505,
				"y": -0.0644119983,
				"z": -4.5147282934,
				"element": "H" 
			},
			{
				"x": -1.3996968279,
				"y": 0.5607171923,
				"z": -6.7959406726,
				"element": "H" 
			},
			{
				"x": 0.9156458088,
				"y": -0.0171268863,
				"z": -7.5236790357,
				"element": "H" 
			},
			{
				"x": 2.3956232227,
				"y": -1.3124236179,
				"z": -6.0197659692,
				"element": "H" 
			},
			{
				"x": -2.0155947753,
				"y": 1.6378819094,
				"z": -2.561066478,
				"element": "H" 
			},
			{
				"x": -0.3192305668,
				"y": 1.1857964974,
				"z": -2.7538438631,
				"element": "H" 
			},
			{
				"x": -1.796439713,
				"y": 2.0726586719,
				"z": -0.2438597017,
				"element": "H" 
			},
			{
				"x": -0.2290800042,
				"y": 2.5873728154,
				"z": -0.853543034,
				"element": "H" 
			},
			{
				"x": -0.4675003197,
				"y": -1.2678381282,
				"z": 0.6600706454,
				"element": "H" 
			},
			{
				"x": -1.6281924707,
				"y": -0.1910090704,
				"z": 1.4427111228,
				"element": "H" 
			},
			{
				"x": -2.4169317529,
				"y": -1.6791809088,
				"z": -0.6273775346,
				"element": "H" 
			},
			{
				"x": -2.9836228109,
				"y": -0.0032346134,
				"z": -0.5284828531,
				"element": "H" 
			},
			{
				"x": 1.6400731541,
				"y": -1.3920504609,
				"z": 3.7399835008,
				"element": "H" 
			},
			{
				"x": 4.0242505642,
				"y": 1.0914852571,
				"z": 6.3266992458,
				"element": "H" 
			},
			{
				"x": 3.4873252028,
				"y": 3.0495426103,
				"z": 4.896313944,
				"element": "H" 
			},
			{
				"x": 2.2427430672,
				"y": 3.9358488188,
				"z": 3.1814794487,
				"element": "H" 
			},
			{
				"x": 3.6153282317,
				"y": 4.7656910928,
				"z": 1.5043323275,
				"element": "H" 
			},
			{
				"x": 4.3313058946,
				"y": 4.6614586696,
				"z": -0.8633395761,
				"element": "H" 
			},
			{
				"x": 3.5294267659,
				"y": 2.8053037154,
				"z": -2.3248520939,
				"element": "H" 
			},
			{
				"x": 1.9155134206,
				"y": 1.147427124,
				"z": -1.4176449504,
				"element": "H" 
			},
			{
				"x": 2.9701883258,
				"y": -4.4978659668,
				"z": -4.0424284016,
				"element": "H" 
			},
			{
				"x": 2.1794077479,
				"y": -6.7413078595,
				"z": -3.327818824,
				"element": "H" 
			}
		],
		 "valence_orbital": [ 
			{
				"type": "occ",
				"energy": -0.23821,
				"method": "rhf"
			},
			{
				"type": "occ",
				"energy": -0.2224,
				"method": "rhf"
			},
			{
				"type": "occ",
				"energy": -0.22017,
				"method": "rhf"
			},
			{
				"type": "occ",
				"energy": -0.19404,
				"method": "rhf"
			},
			{
				"type": "occ",
				"energy": -0.19233,
				"method": "rhf"
			},
			{
				"type": "unocc",
				"energy": -0.04585,
				"method": "rhf"
			},
			{
				"type": "unocc",
				"energy": -0.04268,
				"method": "rhf"
			},
			{
				"type": "unocc",
				"energy": -0.01367,
				"method": "rhf"
			},
			{
				"type": "unocc",
				"energy": -0.01161,
				"method": "rhf"
			},
			{
				"type": "unocc",
				"energy": -0.00217,
				"method": "rhf"
			}
		],
		"cosmo_sigma_profile": { 
			"-0.025": 0.0,
			"-0.024": 0.0,
			"-0.023": 0.0,
			"-0.022": 0.0,
			"-0.021": 0.0,
			"-0.02": 0.0,
			"-0.019": 0.0,
			"-0.018": 0.0,
			"-0.017": 0.0,
			"-0.016": 0.0,
			"-0.015": 0.0,
			"-0.014": 0.484161733169,
			"-0.013": 2.60171958734,
			"-0.012": 3.22587106464,
			"-0.011": 4.12433352419,
			"-0.01": 2.88375380246,
			"-0.009": 3.39871031452,
			"-0.008": 4.51394428265,
			"-0.007": 9.00229338119,
			"-0.006": 24.5924622377,
			"-0.005": 37.5382443344,
			"-0.004": 46.281685725,
			"-0.003": 35.6717484916,
			"-0.002": 32.5290120937,
			"-0.001": 29.5740837565,
			"0.0": 28.6181484928,
			"0.001": 35.6978840503,
			"0.002": 46.3092169561,
			"0.003": 52.7061118352,
			"0.004": 61.3581399311,
			"0.005": 45.4384517836,
			"0.006": 10.9512760198,
			"0.007": 6.85520622645,
			"0.008": 5.08530982826,
			"0.009": 2.74395186902,
			"0.01": 2.96384538393,
			"0.011": 1.83111202104,
			"0.012": 0.956895708658,
			"0.013": 0.0817440708218,
			"0.014": 0.0,
			"0.015": 0.0,
			"0.016": 0.0,
			"0.017": 0.0,
			"0.018": 0.0,
			"0.019": 0.0,
			"0.02": 0.0,
			"0.021": 0.0,
			"0.022": 0.0,
			"0.023": 0.0,
			"0.024": 0.0,
			"0.025": 0.0
		}
	}
}
