{
	 "smiles": "CCNC(=O)COC1=CC(CN)=CC=C1", 
	 "Tm": 336.15, 
	 "num_atms": 31, 
	 "gaussian": { 
		 "optdone": 1, 
		 "sigma_profile": "yes", 
		 "theory": "DFT", 
		 "functional": "B3LYP", 
		 "basiset": "6-31G**", 
		 "properties": { 
			 "R2extent": 4084.3032, 
			 "electric_dipole_moment_norm": 4.15030492494, 
			 "electric_quadrupole_moment_norm": 16.6580388708, 
			 "total_energy": -688.765557546, 
			 "HOMO_LUMO_gap": 0.21335, 
			 "cosmo_polarized_energy": -14.96, 
			 "cosmo_cavitation_energy": 34.01, 
			 "cosmo_dispersion_energy": -23.08, 
			 "cosmo_repulsion_energy": 1.86, 
			 "cosmo_total_nonelectrostatic_energy": 12.79, 
			 "SMD_solvation_energy": 4.67 
		},
		"coords": [
			{
				"x": 2.0431763426,
				"y": -1.679728585,
				"z": 2.2768884488,
				"element": "C" 
			},
			{
				"x": 2.9299691666,
				"y": -0.8552591694,
				"z": 1.3400519771,
				"element": "C" 
			},
			{
				"x": 2.8989730935,
				"y": -1.3394955392,
				"z": -0.0375924797,
				"element": "N" 
			},
			{
				"x": 2.356482699,
				"y": -0.773026873,
				"z": -1.1508316718,
				"element": "C" 
			},
			{
				"x": 2.4114965232,
				"y": -1.3201591292,
				"z": -2.2496363659,
				"element": "O" 
			},
			{
				"x": 1.6903014611,
				"y": 0.6072953637,
				"z": -1.0055112005,
				"element": "C" 
			},
			{
				"x": 0.667298972,
				"y": 0.6772428133,
				"z": -0.0191753154,
				"element": "O" 
			},
			{
				"x": -0.5271673915,
				"y": 0.0387874093,
				"z": -0.2695650431,
				"element": "C" 
			},
			{
				"x": -0.7904938984,
				"y": -0.7183488783,
				"z": -1.4120137396,
				"element": "C" 
			},
			{
				"x": -2.0417377608,
				"y": -1.3353675158,
				"z": -1.575962173,
				"element": "C" 
			},
			{
				"x": -2.2951921543,
				"y": -2.1882952236,
				"z": -2.8118974919,
				"element": "C" 
			},
			{
				"x": -1.4260846201,
				"y": -3.36060942,
				"z": -2.9793742557,
				"element": "N" 
			},
			{
				"x": -3.0168455992,
				"y": -1.1782552603,
				"z": -0.5889667051,
				"element": "C" 
			},
			{
				"x": -2.7475197608,
				"y": -0.4136440981,
				"z": 0.5520890856,
				"element": "C" 
			},
			{
				"x": -1.5095283096,
				"y": 0.1952717043,
				"z": 0.7195719781,
				"element": "C" 
			},
			{
				"x": 0.995382965,
				"y": -1.6155039867,
				"z": 1.972033339,
				"element": "H" 
			},
			{
				"x": 2.1300708565,
				"y": -1.3101131193,
				"z": 3.3039607223,
				"element": "H" 
			},
			{
				"x": 2.3388088748,
				"y": -2.734582581,
				"z": 2.2747531746,
				"element": "H" 
			},
			{
				"x": 2.6065027582,
				"y": 0.1855992606,
				"z": 1.3497156068,
				"element": "H" 
			},
			{
				"x": 3.9698205077,
				"y": -0.8758637098,
				"z": 1.6906421186,
				"element": "H" 
			},
			{
				"x": 3.294049359,
				"y": -2.2545918757,
				"z": -0.2191063868,
				"element": "H" 
			},
			{
				"x": 2.4340667321,
				"y": 1.3501169415,
				"z": -0.699948984,
				"element": "H" 
			},
			{
				"x": 1.3157522309,
				"y": 0.8791841873,
				"z": -1.9965712111,
				"element": "H" 
			},
			{
				"x": -0.0287905622,
				"y": -0.8593024896,
				"z": -2.1709561501,
				"element": "H" 
			},
			{
				"x": -3.3349737262,
				"y": -2.5345838712,
				"z": -2.7996316956,
				"element": "H" 
			},
			{
				"x": -2.1858693786,
				"y": -1.5709868946,
				"z": -3.7122497487,
				"element": "H" 
			},
			{
				"x": -0.4589136659,
				"y": -3.0621231764,
				"z": -3.0888421147,
				"element": "H" 
			},
			{
				"x": -1.4497235657,
				"y": -3.920327646,
				"z": -2.1293360778,
				"element": "H" 
			},
			{
				"x": -3.9867268883,
				"y": -1.6538062013,
				"z": -0.7087419882,
				"element": "H" 
			},
			{
				"x": -3.5099692894,
				"y": -0.2929896425,
				"z": 1.3166840147,
				"element": "H" 
			},
			{
				"x": -1.2824159713,
				"y": 0.7955672059,
				"z": 1.594520333,
				"element": "H" 
			}
		],
		 "valence_orbital": [ 
			{
				"type": "occ",
				"energy": -0.25678,
				"method": "rhf"
			},
			{
				"type": "occ",
				"energy": -0.25622,
				"method": "rhf"
			},
			{
				"type": "occ",
				"energy": -0.2511,
				"method": "rhf"
			},
			{
				"type": "occ",
				"energy": -0.22586,
				"method": "rhf"
			},
			{
				"type": "occ",
				"energy": -0.2192,
				"method": "rhf"
			},
			{
				"type": "unocc",
				"energy": -0.00585,
				"method": "rhf"
			},
			{
				"type": "unocc",
				"energy": 0.00946,
				"method": "rhf"
			},
			{
				"type": "unocc",
				"energy": 0.0127,
				"method": "rhf"
			},
			{
				"type": "unocc",
				"energy": 0.07799,
				"method": "rhf"
			},
			{
				"type": "unocc",
				"energy": 0.09337,
				"method": "rhf"
			}
		],
		"cosmo_sigma_profile": { 
			"-0.025": 0.0,
			"-0.024": 0.0,
			"-0.023": 0.0,
			"-0.022": 0.0,
			"-0.021": 0.0,
			"-0.02": 0.0,
			"-0.019": 0.0,
			"-0.018": 0.0,
			"-0.017": 0.0,
			"-0.016": 0.0,
			"-0.015": 0.0,
			"-0.014": 0.180720290054,
			"-0.013": 0.962416308469,
			"-0.012": 1.23154527748,
			"-0.011": 0.914774497431,
			"-0.01": 1.5423896386,
			"-0.009": 2.01679595262,
			"-0.008": 4.96214494799,
			"-0.007": 7.01040870078,
			"-0.006": 11.0284700868,
			"-0.005": 17.2662157525,
			"-0.004": 25.5620909065,
			"-0.003": 26.6818467555,
			"-0.002": 22.9196702847,
			"-0.001": 19.1504346127,
			"0.0": 22.5409482753,
			"0.001": 17.3101929974,
			"0.002": 14.8618224161,
			"0.003": 12.3157735207,
			"0.004": 12.1928689024,
			"0.005": 10.641832247,
			"0.006": 8.03339900791,
			"0.007": 3.42346827601,
			"0.008": 2.71569325499,
			"0.009": 2.74401469067,
			"0.01": 2.14560309334,
			"0.011": 2.25260613432,
			"0.012": 2.0439671498,
			"0.013": 3.40807491902,
			"0.014": 4.93251648402,
			"0.015": 1.03067150806,
			"0.016": 0.737701227235,
			"0.017": 0.687550545329,
			"0.018": 0.65136867092,
			"0.019": 0.627618737408,
			"0.02": 0.281779134005,
			"0.021": 0.0,
			"0.022": 0.0,
			"0.023": 0.0,
			"0.024": 0.0,
			"0.025": 0.0
		}
	}
}
