{
	 "smiles": "[O-][N+](=O)C1=CC=CN=C1NC1CC1", 
	 "Tm": 335.15, 
	 "num_atms": 22, 
	 "gaussian": { 
		 "optdone": 1, 
		 "sigma_profile": "yes", 
		 "theory": "DFT", 
		 "functional": "B3LYP", 
		 "basiset": "6-31G**", 
		 "properties": { 
			 "R2extent": 2524.2203, 
			 "electric_dipole_moment_norm": 3.11905317204, 
			 "electric_quadrupole_moment_norm": 13.7313371294, 
			 "total_energy": -624.837998559, 
			 "HOMO_LUMO_gap": 0.15003, 
			 "cosmo_polarized_energy": -10.44, 
			 "cosmo_cavitation_energy": 26.15, 
			 "cosmo_dispersion_energy": -18.87, 
			 "cosmo_repulsion_energy": 1.49, 
			 "cosmo_total_nonelectrostatic_energy": 8.77, 
			 "SMD_solvation_energy": 4.4 
		},
		"coords": [
			{
				"x": 0.7449030994,
				"y": -1.605619082,
				"z": -1.6035085855,
				"element": "O" 
			},
			{
				"x": 0.3257783445,
				"y": -1.3558558435,
				"z": -0.4697534121,
				"element": "N" 
			},
			{
				"x": 0.1821778774,
				"y": -2.1983795186,
				"z": 0.4201881974,
				"element": "O" 
			},
			{
				"x": -0.0999531911,
				"y": 0.0076221615,
				"z": -0.1871670397,
				"element": "C" 
			},
			{
				"x": -1.1857030524,
				"y": 0.157100828,
				"z": 0.6789156628,
				"element": "C" 
			},
			{
				"x": -1.7781514607,
				"y": 1.4011586355,
				"z": 0.8272253952,
				"element": "C" 
			},
			{
				"x": -1.2541944714,
				"y": 2.4525481116,
				"z": 0.0646798177,
				"element": "C" 
			},
			{
				"x": -0.1812451489,
				"y": 2.3477574523,
				"z": -0.7092103127,
				"element": "N" 
			},
			{
				"x": 0.4487721788,
				"y": 1.1552488088,
				"z": -0.8232501883,
				"element": "C" 
			},
			{
				"x": 1.6136319353,
				"y": 1.2140999883,
				"z": -1.5281849,
				"element": "N" 
			},
			{
				"x": 2.7245508538,
				"y": 0.30778862,
				"z": -1.4909892025,
				"element": "C" 
			},
			{
				"x": 4.0781954976,
				"y": 0.88227197,
				"z": -1.1661321387,
				"element": "C" 
			},
			{
				"x": 3.380411541,
				"y": -0.0092950191,
				"z": -0.1671914102,
				"element": "C" 
			},
			{
				"x": -1.5586739594,
				"y": -0.7250879817,
				"z": 1.1860050833,
				"element": "H" 
			},
			{
				"x": -2.6352753281,
				"y": 1.5493456391,
				"z": 1.4734863099,
				"element": "H" 
			},
			{
				"x": -1.7230510886,
				"y": 3.4351215093,
				"z": 0.0887151245,
				"element": "H" 
			},
			{
				"x": 1.7731900188,
				"y": 2.138939518,
				"z": -1.9068441154,
				"element": "H" 
			},
			{
				"x": 2.6843208033,
				"y": -0.4999050554,
				"z": -2.2156718893,
				"element": "H" 
			},
			{
				"x": 4.1365414052,
				"y": 1.9416728384,
				"z": -0.9327400445,
				"element": "H" 
			},
			{
				"x": 4.9337405867,
				"y": 0.4933880505,
				"z": -1.7090399263,
				"element": "H" 
			},
			{
				"x": 3.7465914355,
				"y": -1.0197377893,
				"z": -0.0174631896,
				"element": "H" 
			},
			{
				"x": 2.9735421233,
				"y": 0.4620161584,
				"z": 0.7219307641,
				"element": "H" 
			}
		],
		 "valence_orbital": [ 
			{
				"type": "occ",
				"energy": -0.30038,
				"method": "rhf"
			},
			{
				"type": "occ",
				"energy": -0.29553,
				"method": "rhf"
			},
			{
				"type": "occ",
				"energy": -0.28029,
				"method": "rhf"
			},
			{
				"type": "occ",
				"energy": -0.27407,
				"method": "rhf"
			},
			{
				"type": "occ",
				"energy": -0.22825,
				"method": "rhf"
			},
			{
				"type": "unocc",
				"energy": -0.07822,
				"method": "rhf"
			},
			{
				"type": "unocc",
				"energy": -0.02692,
				"method": "rhf"
			},
			{
				"type": "unocc",
				"energy": -0.00254,
				"method": "rhf"
			},
			{
				"type": "unocc",
				"energy": 0.08556,
				"method": "rhf"
			},
			{
				"type": "unocc",
				"energy": 0.09435,
				"method": "rhf"
			}
		],
		"cosmo_sigma_profile": { 
			"-0.025": 0.0,
			"-0.024": 0.0,
			"-0.023": 0.0,
			"-0.022": 0.0,
			"-0.021": 0.0,
			"-0.02": 0.0,
			"-0.019": 0.0,
			"-0.018": 0.0,
			"-0.017": 0.0,
			"-0.016": 0.0,
			"-0.015": 0.0,
			"-0.014": 0.0372972656606,
			"-0.013": 0.619184508498,
			"-0.012": 0.883076484029,
			"-0.011": 0.935075190695,
			"-0.01": 0.609311542114,
			"-0.009": 0.811819399298,
			"-0.008": 2.77321517658,
			"-0.007": 7.5039307487,
			"-0.006": 10.5551505184,
			"-0.005": 16.1551322269,
			"-0.004": 16.2743295366,
			"-0.003": 15.9434259378,
			"-0.002": 15.1957508894,
			"-0.001": 17.2356410903,
			"0.0": 16.9520534367,
			"0.001": 16.9336318083,
			"0.002": 13.123532752,
			"0.003": 8.5183774947,
			"0.004": 6.14628871885,
			"0.005": 5.88598355606,
			"0.006": 3.62970592311,
			"0.007": 6.86445473415,
			"0.008": 9.54015271356,
			"0.009": 6.84373005335,
			"0.01": 4.30236646433,
			"0.011": 2.67835077537,
			"0.012": 0.386337414146,
			"0.013": 0.881950359092,
			"0.014": 0.103358614155,
			"0.015": 0.0,
			"0.016": 0.0,
			"0.017": 0.0,
			"0.018": 0.0,
			"0.019": 0.0,
			"0.02": 0.0,
			"0.021": 0.0,
			"0.022": 0.0,
			"0.023": 0.0,
			"0.024": 0.0,
			"0.025": 0.0
		}
	}
}
