{
	 "smiles": "ClCC1=NC(=NO1)C1=CC=C(Br)S1", 
	 "Tm": 316.15, 
	 "num_atms": 17, 
	 "gaussian": { 
		 "optdone": 1, 
		 "sigma_profile": "yes", 
		 "theory": "DFT", 
		 "functional": "B3LYP", 
		 "basiset": "6-31G**", 
		 "properties": { 
			 "R2extent": 9107.2021, 
			 "electric_dipole_moment_norm": 1.5712627406, 
			 "electric_quadrupole_moment_norm": 12.1653412036, 
			 "total_energy": -3883.60346652, 
			 "HOMO_LUMO_gap": 0.16516, 
			 "cosmo_polarized_energy": -8.78, 
			 "cosmo_cavitation_energy": 28.81, 
			 "cosmo_dispersion_energy": -22.25, 
			 "cosmo_repulsion_energy": 1.74, 
			 "cosmo_total_nonelectrostatic_energy": 8.3, 
			 "SMD_solvation_energy": 1.41 
		},
		"coords": [
			{
				"x": -1.5796788059,
				"y": 0.9913099805,
				"z": 4.9615281215,
				"element": "Cl" 
			},
			{
				"x": -0.2773767067,
				"y": 0.8179692751,
				"z": 3.7089662692,
				"element": "C" 
			},
			{
				"x": -0.8465497985,
				"y": 0.5930246044,
				"z": 2.3543086348,
				"element": "C" 
			},
			{
				"x": -0.9422342382,
				"y": -0.5295818305,
				"z": 1.7078535688,
				"element": "N" 
			},
			{
				"x": -1.5403768396,
				"y": -0.1356998989,
				"z": 0.5253650934,
				"element": "C" 
			},
			{
				"x": -1.7960706566,
				"y": 1.1559147454,
				"z": 0.4495466115,
				"element": "N" 
			},
			{
				"x": -1.3280518159,
				"y": 1.6462846957,
				"z": 1.6765265349,
				"element": "O" 
			},
			{
				"x": -1.8540536178,
				"y": -1.0700090126,
				"z": -0.537866734,
				"element": "C" 
			},
			{
				"x": -2.4429069589,
				"y": -0.8136191547,
				"z": -1.7547029104,
				"element": "C" 
			},
			{
				"x": -2.6002620829,
				"y": -1.9758791119,
				"z": -2.5563891228,
				"element": "C" 
			},
			{
				"x": -2.1245205692,
				"y": -3.0970057686,
				"z": -1.9271351053,
				"element": "C" 
			},
			{
				"x": -2.1246608312,
				"y": -4.8524932346,
				"z": -2.6072270021,
				"element": "Br" 
			},
			{
				"x": -1.4771221603,
				"y": -2.7667232936,
				"z": -0.3504062483,
				"element": "S" 
			},
			{
				"x": 0.3324283521,
				"y": -0.0391842564,
				"z": 3.9877265531,
				"element": "H" 
			},
			{
				"x": 0.3112260001,
				"y": 1.7348268799,
				"z": 3.7374837605,
				"element": "H" 
			},
			{
				"x": -2.7506228116,
				"y": 0.1805346708,
				"z": -2.0563616801,
				"element": "H" 
			},
			{
				"x": -3.0408664587,
				"y": -1.98746929,
				"z": -3.5450163448,
				"element": "H" 
			}
		],
		 "valence_orbital": [ 
			{
				"type": "occ",
				"energy": -0.31375,
				"method": "rhf"
			},
			{
				"type": "occ",
				"energy": -0.3057,
				"method": "rhf"
			},
			{
				"type": "occ",
				"energy": -0.30424,
				"method": "rhf"
			},
			{
				"type": "occ",
				"energy": -0.27435,
				"method": "rhf"
			},
			{
				"type": "occ",
				"energy": -0.23572,
				"method": "rhf"
			},
			{
				"type": "unocc",
				"energy": -0.07056,
				"method": "rhf"
			},
			{
				"type": "unocc",
				"energy": -0.0492,
				"method": "rhf"
			},
			{
				"type": "unocc",
				"energy": -0.01193,
				"method": "rhf"
			},
			{
				"type": "unocc",
				"energy": 0.00967,
				"method": "rhf"
			},
			{
				"type": "unocc",
				"energy": 0.01617,
				"method": "rhf"
			}
		],
		"cosmo_sigma_profile": { 
			"-0.025": 0.0,
			"-0.024": 0.0,
			"-0.023": 0.0,
			"-0.022": 0.0,
			"-0.021": 0.0,
			"-0.02": 0.0,
			"-0.019": 0.0,
			"-0.018": 0.0,
			"-0.017": 0.0,
			"-0.016": 0.0,
			"-0.015": 0.0,
			"-0.014": 0.0,
			"-0.013": 0.0,
			"-0.012": 0.0,
			"-0.011": 0.546730125006,
			"-0.01": 4.78008454316,
			"-0.009": 4.75998142592,
			"-0.008": 7.76057978713,
			"-0.007": 8.24448521795,
			"-0.006": 8.54055445982,
			"-0.005": 7.46934506437,
			"-0.004": 8.26800065288,
			"-0.003": 10.0014879964,
			"-0.002": 13.0468789951,
			"-0.001": 18.8963703995,
			"0.0": 23.0666867879,
			"0.001": 31.0392658058,
			"0.002": 29.6017141375,
			"0.003": 21.2357681669,
			"0.004": 12.8174502516,
			"0.005": 14.4462924116,
			"0.006": 4.77112156611,
			"0.007": 2.56609599131,
			"0.008": 2.51187358447,
			"0.009": 1.53406133139,
			"0.01": 2.52242191001,
			"0.011": 1.53459071065,
			"0.012": 0.660634862013,
			"0.013": 0.00953647860957,
			"0.014": 0.0,
			"0.015": 0.0,
			"0.016": 0.0,
			"0.017": 0.0,
			"0.018": 0.0,
			"0.019": 0.0,
			"0.02": 0.0,
			"0.021": 0.0,
			"0.022": 0.0,
			"0.023": 0.0,
			"0.024": 0.0,
			"0.025": 0.0
		}
	}
}
