{
	 "smiles": "COC1=C(NS(=O)(=O)C2=C(C=CC(N)=C2)N2CCCCC2)C=CC=C1", 
	 "Tm": 443.15, 
	 "num_atms": 48, 
	 "gaussian": { 
		 "optdone": 1, 
		 "sigma_profile": "yes", 
		 "theory": "DFT", 
		 "functional": "B3LYP", 
		 "basiset": "6-31G**", 
		 "properties": { 
			 "R2extent": 8791.7778, 
			 "electric_dipole_moment_norm": 7.09497265041, 
			 "electric_quadrupole_moment_norm": 25.4568539851, 
			 "total_energy": -1487.80499357, 
			 "HOMO_LUMO_gap": 0.17403, 
			 "cosmo_polarized_energy": -20.61, 
			 "cosmo_cavitation_energy": 48.94, 
			 "cosmo_dispersion_energy": -33.11, 
			 "cosmo_repulsion_energy": 2.47, 
			 "cosmo_total_nonelectrostatic_energy": 18.3, 
			 "SMD_solvation_energy": 7.42 
		},
		"coords": [
			{
				"x": 1.74300684,
				"y": 3.886194847,
				"z": -2.1648962582,
				"element": "C" 
			},
			{
				"x": 1.8149020158,
				"y": 2.5575268775,
				"z": -1.6711722553,
				"element": "O" 
			},
			{
				"x": 1.8729406732,
				"y": 1.5282035933,
				"z": -2.5795622394,
				"element": "C" 
			},
			{
				"x": 2.0854169949,
				"y": 0.2458160625,
				"z": -2.0188130425,
				"element": "C" 
			},
			{
				"x": 2.2503546257,
				"y": 0.1882730755,
				"z": -0.6132028963,
				"element": "N" 
			},
			{
				"x": 1.9013668168,
				"y": -1.1346465544,
				"z": 0.3683416739,
				"element": "S" 
			},
			{
				"x": 2.2902310778,
				"y": -0.7120877048,
				"z": 1.7141768851,
				"element": "O" 
			},
			{
				"x": 2.5170493201,
				"y": -2.3177334054,
				"z": -0.2400482962,
				"element": "O" 
			},
			{
				"x": 0.1129343032,
				"y": -1.3805655211,
				"z": 0.3019831758,
				"element": "C" 
			},
			{
				"x": -0.7843084941,
				"y": -0.3500618481,
				"z": 0.6434816433,
				"element": "C" 
			},
			{
				"x": -2.1502788646,
				"y": -0.6570332001,
				"z": 0.5400086815,
				"element": "C" 
			},
			{
				"x": -2.6008333545,
				"y": -1.9047329846,
				"z": 0.1218800688,
				"element": "C" 
			},
			{
				"x": -1.6910845156,
				"y": -2.9245961384,
				"z": -0.203026103,
				"element": "C" 
			},
			{
				"x": -2.1315337351,
				"y": -4.1968314056,
				"z": -0.5606926488,
				"element": "N" 
			},
			{
				"x": -0.3203057376,
				"y": -2.6404359004,
				"z": -0.1066589736,
				"element": "C" 
			},
			{
				"x": -0.3114335807,
				"y": 0.9289076585,
				"z": 1.0736903823,
				"element": "N" 
			},
			{
				"x": -0.9578038709,
				"y": 2.1057708446,
				"z": 0.434359001,
				"element": "C" 
			},
			{
				"x": -1.7887185567,
				"y": 2.9486066073,
				"z": 1.4093130303,
				"element": "C" 
			},
			{
				"x": -0.9135374317,
				"y": 3.4758355707,
				"z": 2.5673165046,
				"element": "C" 
			},
			{
				"x": 0.1935116619,
				"y": 2.4591579327,
				"z": 2.9415281407,
				"element": "C" 
			},
			{
				"x": -0.194825534,
				"y": 1.0337280458,
				"z": 2.5498422795,
				"element": "C" 
			},
			{
				"x": 2.1858719735,
				"y": -0.855703948,
				"z": -2.8718188197,
				"element": "C" 
			},
			{
				"x": 2.0487776985,
				"y": -0.6933739589,
				"z": -4.253293051,
				"element": "C" 
			},
			{
				"x": 1.8303310382,
				"y": 0.5673289292,
				"z": -4.798003736,
				"element": "C" 
			},
			{
				"x": 1.7477206963,
				"y": 1.6833654818,
				"z": -3.9585970322,
				"element": "C" 
			},
			{
				"x": 0.8115110198,
				"y": 4.0627969613,
				"z": -2.717537051,
				"element": "H" 
			},
			{
				"x": 2.5963020462,
				"y": 4.1161707083,
				"z": -2.8146036323,
				"element": "H" 
			},
			{
				"x": 1.7694539108,
				"y": 4.5363334304,
				"z": -1.2891684145,
				"element": "H" 
			},
			{
				"x": 1.9797997421,
				"y": 1.0430613012,
				"z": -0.1336966688,
				"element": "H" 
			},
			{
				"x": -2.8800375515,
				"y": 0.1053989754,
				"z": 0.7961762729,
				"element": "H" 
			},
			{
				"x": -3.6688942057,
				"y": -2.0984887564,
				"z": 0.0592464314,
				"element": "H" 
			},
			{
				"x": -1.4657099154,
				"y": -4.7598586403,
				"z": -1.0711271671,
				"element": "H" 
			},
			{
				"x": -3.0578692401,
				"y": -4.2416802173,
				"z": -0.9613067445,
				"element": "H" 
			},
			{
				"x": 0.420241496,
				"y": -3.3922570837,
				"z": -0.3574549517,
				"element": "H" 
			},
			{
				"x": -0.1731533953,
				"y": 2.7352103862,
				"z": -0.0059032183,
				"element": "H" 
			},
			{
				"x": -1.5731588553,
				"y": 1.7579408663,
				"z": -0.4003583525,
				"element": "H" 
			},
			{
				"x": -2.2559922746,
				"y": 3.7792765412,
				"z": 0.867765649,
				"element": "H" 
			},
			{
				"x": -2.6098101967,
				"y": 2.3406620765,
				"z": 1.8086515237,
				"element": "H" 
			},
			{
				"x": -1.5482776037,
				"y": 3.685757497,
				"z": 3.4357230308,
				"element": "H" 
			},
			{
				"x": -0.4554034895,
				"y": 4.4305454982,
				"z": 2.2836299105,
				"element": "H" 
			},
			{
				"x": 1.130935786,
				"y": 2.707834042,
				"z": 2.4301740776,
				"element": "H" 
			},
			{
				"x": 0.4065261048,
				"y": 2.4947335163,
				"z": 4.0149021615,
				"element": "H" 
			},
			{
				"x": 0.5662652762,
				"y": 0.3224159326,
				"z": 2.874580378,
				"element": "H" 
			},
			{
				"x": -1.143541162,
				"y": 0.7578514263,
				"z": 3.0436653097,
				"element": "H" 
			},
			{
				"x": 2.38418857,
				"y": -1.8315820048,
				"z": -2.4484694906,
				"element": "H" 
			},
			{
				"x": 2.1276127972,
				"y": -1.5627273014,
				"z": -4.8988933774,
				"element": "H" 
			},
			{
				"x": 1.7309018762,
				"y": 0.6971378188,
				"z": -5.8712727596,
				"element": "H" 
			},
			{
				"x": 1.585257204,
				"y": 2.666354069,
				"z": -4.3847590316,
				"element": "H" 
			}
		],
		 "valence_orbital": [ 
			{
				"type": "occ",
				"energy": -0.26079,
				"method": "rhf"
			},
			{
				"type": "occ",
				"energy": -0.23674,
				"method": "rhf"
			},
			{
				"type": "occ",
				"energy": -0.22538,
				"method": "rhf"
			},
			{
				"type": "occ",
				"energy": -0.20534,
				"method": "rhf"
			},
			{
				"type": "occ",
				"energy": -0.20047,
				"method": "rhf"
			},
			{
				"type": "unocc",
				"energy": -0.02644,
				"method": "rhf"
			},
			{
				"type": "unocc",
				"energy": -0.00216,
				"method": "rhf"
			},
			{
				"type": "unocc",
				"energy": 0.00678,
				"method": "rhf"
			},
			{
				"type": "unocc",
				"energy": 0.01323,
				"method": "rhf"
			},
			{
				"type": "unocc",
				"energy": 0.06318,
				"method": "rhf"
			}
		],
		"cosmo_sigma_profile": { 
			"-0.025": 0.0,
			"-0.024": 0.0,
			"-0.023": 0.0,
			"-0.022": 0.0,
			"-0.021": 0.0,
			"-0.02": 0.0,
			"-0.019": 0.0,
			"-0.018": 0.0,
			"-0.017": 0.0,
			"-0.016": 0.0,
			"-0.015": 0.0,
			"-0.014": 0.0,
			"-0.013": 1.23778225401,
			"-0.012": 3.01763195848,
			"-0.011": 3.69216523266,
			"-0.01": 3.08627772408,
			"-0.009": 3.11509673662,
			"-0.008": 2.67226104151,
			"-0.007": 5.21118484583,
			"-0.006": 13.7327323082,
			"-0.005": 21.871109506,
			"-0.004": 25.0752909904,
			"-0.003": 30.305656952,
			"-0.002": 35.2031598981,
			"-0.001": 43.2950020184,
			"0.0": 35.3484619025,
			"0.001": 31.3490344979,
			"0.002": 21.0823492863,
			"0.003": 22.6283479395,
			"0.004": 24.052398756,
			"0.005": 16.8815292034,
			"0.006": 10.0722645291,
			"0.007": 5.20484574128,
			"0.008": 5.42412042355,
			"0.009": 5.21741525585,
			"0.01": 5.12834863672,
			"0.011": 7.56483709014,
			"0.012": 3.94181155145,
			"0.013": 0.552693206392,
			"0.014": 0.341745097664,
			"0.015": 0.0,
			"0.016": 0.0,
			"0.017": 0.0,
			"0.018": 0.0,
			"0.019": 0.0,
			"0.02": 0.0,
			"0.021": 0.0,
			"0.022": 0.0,
			"0.023": 0.0,
			"0.024": 0.0,
			"0.025": 0.0
		}
	}
}
