{
	 "smiles": "O=CC1=CN(CC2=CC=CC=C2)N=C1C1=CC2=C(O1)C=CC=C2", 
	 "Tm": 420.15, 
	 "num_atms": 37, 
	 "gaussian": { 
		 "optdone": 1, 
		 "sigma_profile": "yes", 
		 "theory": "DFT", 
		 "functional": "B3LYP", 
		 "basiset": "6-31G**", 
		 "properties": { 
			 "R2extent": 9888.6428, 
			 "electric_dipole_moment_norm": 2.7256189187, 
			 "electric_quadrupole_moment_norm": 26.3658718257, 
			 "total_energy": -992.377866232, 
			 "HOMO_LUMO_gap": 0.15887, 
			 "cosmo_polarized_energy": -15.74, 
			 "cosmo_cavitation_energy": 42.95, 
			 "cosmo_dispersion_energy": -30.18, 
			 "cosmo_repulsion_energy": 2.27, 
			 "cosmo_total_nonelectrostatic_energy": 15.04, 
			 "SMD_solvation_energy": 7.59 
		},
		"coords": [
			{
				"x": -1.5627065117,
				"y": 3.7601318442,
				"z": -1.8875938489,
				"element": "O" 
			},
			{
				"x": -1.0826859115,
				"y": 3.0622032771,
				"z": -1.0081308899,
				"element": "C" 
			},
			{
				"x": -0.9120919456,
				"y": 1.6160906472,
				"z": -1.1237770375,
				"element": "C" 
			},
			{
				"x": -1.1368885329,
				"y": 0.883435826,
				"z": -2.2846707895,
				"element": "C" 
			},
			{
				"x": -0.804656451,
				"y": -0.3934191879,
				"z": -2.0173410527,
				"element": "N" 
			},
			{
				"x": -0.7850694823,
				"y": -1.5329094774,
				"z": -2.936937274,
				"element": "C" 
			},
			{
				"x": 0.5194299117,
				"y": -1.6693384323,
				"z": -3.7000207038,
				"element": "C" 
			},
			{
				"x": 1.7299076399,
				"y": -1.8338428338,
				"z": -3.0123611284,
				"element": "C" 
			},
			{
				"x": 2.9237063211,
				"y": -1.9712428821,
				"z": -3.7185437351,
				"element": "C" 
			},
			{
				"x": 2.9216996091,
				"y": -1.9525389927,
				"z": -5.1163011503,
				"element": "C" 
			},
			{
				"x": 1.7199595263,
				"y": -1.7920934678,
				"z": -5.8055304565,
				"element": "C" 
			},
			{
				"x": 0.5240672807,
				"y": -1.6479329873,
				"z": -5.0981430692,
				"element": "C" 
			},
			{
				"x": -0.3673394686,
				"y": -0.5673354626,
				"z": -0.7459799138,
				"element": "N" 
			},
			{
				"x": -0.4293100793,
				"y": 0.646005491,
				"z": -0.1868442559,
				"element": "C" 
			},
			{
				"x": -0.0574931013,
				"y": 0.8278399466,
				"z": 1.2062157348,
				"element": "C" 
			},
			{
				"x": -0.4071813781,
				"y": 1.7626785685,
				"z": 2.1404481075,
				"element": "C" 
			},
			{
				"x": 0.2731341558,
				"y": 1.4030540648,
				"z": 3.3552912691,
				"element": "C" 
			},
			{
				"x": 0.9971432226,
				"y": 0.2356640674,
				"z": 3.0438043769,
				"element": "C" 
			},
			{
				"x": 0.7970809699,
				"y": -0.1145172747,
				"z": 1.7381941901,
				"element": "O" 
			},
			{
				"x": 1.7959672824,
				"y": -0.4423288663,
				"z": 3.9568731282,
				"element": "C" 
			},
			{
				"x": 1.8572273062,
				"y": 0.0919984795,
				"z": 5.2432030434,
				"element": "C" 
			},
			{
				"x": 1.1431780764,
				"y": 1.2564143716,
				"z": 5.5879242371,
				"element": "C" 
			},
			{
				"x": 0.3489788564,
				"y": 1.9207930297,
				"z": 4.6586854726,
				"element": "C" 
			},
			{
				"x": -0.7232701601,
				"y": 3.5126554684,
				"z": -0.0607357694,
				"element": "H" 
			},
			{
				"x": -1.4881003726,
				"y": 1.2095822064,
				"z": -3.2521764616,
				"element": "H" 
			},
			{
				"x": -0.9759159442,
				"y": -2.4136852498,
				"z": -2.3185242109,
				"element": "H" 
			},
			{
				"x": -1.6232550713,
				"y": -1.4156685169,
				"z": -3.6287479716,
				"element": "H" 
			},
			{
				"x": 1.7289110098,
				"y": -1.8426790098,
				"z": -1.9261265477,
				"element": "H" 
			},
			{
				"x": 3.857519481,
				"y": -2.0957328772,
				"z": -3.1779094068,
				"element": "H" 
			},
			{
				"x": 3.8533394123,
				"y": -2.0620907536,
				"z": -5.6637944942,
				"element": "H" 
			},
			{
				"x": 1.7106430912,
				"y": -1.7744546254,
				"z": -6.8914832778,
				"element": "H" 
			},
			{
				"x": -0.4109014843,
				"y": -1.5205862096,
				"z": -5.6389349294,
				"element": "H" 
			},
			{
				"x": -1.092098546,
				"y": 2.5847666269,
				"z": 1.9949594031,
				"element": "H" 
			},
			{
				"x": 2.3376181582,
				"y": -1.3387114313,
				"z": 3.6755606646,
				"element": "H" 
			},
			{
				"x": 2.467330277,
				"y": -0.4003675125,
				"z": 5.9943896038,
				"element": "H" 
			},
			{
				"x": 1.2164161427,
				"y": 1.6407153752,
				"z": 6.6009404619,
				"element": "H" 
			},
			{
				"x": -0.1977932899,
				"y": 2.8176467605,
				"z": 4.9340186818,
				"element": "H" 
			}
		],
		 "valence_orbital": [ 
			{
				"type": "occ",
				"energy": -0.25954,
				"method": "rhf"
			},
			{
				"type": "occ",
				"energy": -0.25651,
				"method": "rhf"
			},
			{
				"type": "occ",
				"energy": -0.24935,
				"method": "rhf"
			},
			{
				"type": "occ",
				"energy": -0.2375,
				"method": "rhf"
			},
			{
				"type": "occ",
				"energy": -0.21304,
				"method": "rhf"
			},
			{
				"type": "unocc",
				"energy": -0.05417,
				"method": "rhf"
			},
			{
				"type": "unocc",
				"energy": -0.03287,
				"method": "rhf"
			},
			{
				"type": "unocc",
				"energy": -0.01544,
				"method": "rhf"
			},
			{
				"type": "unocc",
				"energy": -0.00988,
				"method": "rhf"
			},
			{
				"type": "unocc",
				"energy": 0.00812,
				"method": "rhf"
			}
		],
		"cosmo_sigma_profile": { 
			"-0.025": 0.0,
			"-0.024": 0.0,
			"-0.023": 0.0,
			"-0.022": 0.0,
			"-0.021": 0.0,
			"-0.02": 0.0,
			"-0.019": 0.0,
			"-0.018": 0.0,
			"-0.017": 0.0,
			"-0.016": 0.0,
			"-0.015": 0.0,
			"-0.014": 0.0,
			"-0.013": 0.0,
			"-0.012": 0.0,
			"-0.011": 0.505161345845,
			"-0.01": 2.49628631191,
			"-0.009": 3.09164475984,
			"-0.008": 7.39577178487,
			"-0.007": 10.0631425755,
			"-0.006": 19.893923551,
			"-0.005": 25.8553163005,
			"-0.004": 29.8728404991,
			"-0.003": 22.773929295,
			"-0.002": 19.0430894378,
			"-0.001": 20.9709005505,
			"0.0": 25.096143284,
			"0.001": 29.002901863,
			"0.002": 25.1495057079,
			"0.003": 24.6874028238,
			"0.004": 23.0384294009,
			"0.005": 21.5964577203,
			"0.006": 7.795333218,
			"0.007": 3.18233241467,
			"0.008": 3.86865521728,
			"0.009": 3.40089668108,
			"0.01": 3.97894451553,
			"0.011": 4.92692209354,
			"0.012": 5.16729349251,
			"0.013": 2.55672869065,
			"0.014": 0.643281008172,
			"0.015": 0.0265543058286,
			"0.016": 0.0,
			"0.017": 0.0,
			"0.018": 0.0,
			"0.019": 0.0,
			"0.02": 0.0,
			"0.021": 0.0,
			"0.022": 0.0,
			"0.023": 0.0,
			"0.024": 0.0,
			"0.025": 0.0
		}
	}
}
