{
	 "smiles": "COC1=CC=C(C=C1)N1C(SC)=NC2=C(C=CC=C2)C1=O", 
	 "Tm": 428.15, 
	 "num_atms": 35, 
	 "gaussian": { 
		 "optdone": 1, 
		 "sigma_profile": "yes", 
		 "theory": "DFT", 
		 "functional": "B3LYP", 
		 "basiset": "6-31G**", 
		 "properties": { 
			 "R2extent": 7923.8621, 
			 "electric_dipole_moment_norm": 2.62297355305, 
			 "electric_quadrupole_moment_norm": 17.44806543, 
			 "total_energy": -1276.29296342, 
			 "HOMO_LUMO_gap": 0.17879, 
			 "cosmo_polarized_energy": -14.44, 
			 "cosmo_cavitation_energy": 40.78, 
			 "cosmo_dispersion_energy": -29.13, 
			 "cosmo_repulsion_energy": 2.19, 
			 "cosmo_total_nonelectrostatic_energy": 13.84, 
			 "SMD_solvation_energy": 7.6 
		},
		"coords": [
			{
				"x": 3.2003320356,
				"y": -0.239446082,
				"z": -5.720774575,
				"element": "C" 
			},
			{
				"x": 2.0330217564,
				"y": -0.8937359691,
				"z": -5.2458322483,
				"element": "O" 
			},
			{
				"x": 1.659223111,
				"y": -0.693500441,
				"z": -3.9522353506,
				"element": "C" 
			},
			{
				"x": 2.3552569934,
				"y": 0.1085775633,
				"z": -3.0385447134,
				"element": "C" 
			},
			{
				"x": 1.8770941948,
				"y": 0.2404397342,
				"z": -1.7341271558,
				"element": "C" 
			},
			{
				"x": 0.7204343899,
				"y": -0.4247869164,
				"z": -1.3358615733,
				"element": "C" 
			},
			{
				"x": 0.0205005166,
				"y": -1.2184351738,
				"z": -2.2518593616,
				"element": "C" 
			},
			{
				"x": 0.4879137512,
				"y": -1.3558302944,
				"z": -3.5503025681,
				"element": "C" 
			},
			{
				"x": 0.2248746314,
				"y": -0.2698057634,
				"z": 0.0111397586,
				"element": "N" 
			},
			{
				"x": 0.6167994192,
				"y": -1.1308891523,
				"z": 1.0296337385,
				"element": "C" 
			},
			{
				"x": 1.7628994301,
				"y": -2.4071178714,
				"z": 0.543349493,
				"element": "S" 
			},
			{
				"x": 1.9647743941,
				"y": -3.2537765306,
				"z": 2.1464073467,
				"element": "C" 
			},
			{
				"x": 0.2126852347,
				"y": -1.0577774212,
				"z": 2.2548391294,
				"element": "N" 
			},
			{
				"x": -0.6777580511,
				"y": -0.0509473161,
				"z": 2.5910545571,
				"element": "C" 
			},
			{
				"x": -1.1463911142,
				"y": 0.8837480631,
				"z": 1.642216188,
				"element": "C" 
			},
			{
				"x": -2.0485989709,
				"y": 1.8914413185,
				"z": 2.0193376811,
				"element": "C" 
			},
			{
				"x": -2.4856152952,
				"y": 1.9733819673,
				"z": 3.3325687734,
				"element": "C" 
			},
			{
				"x": -2.0221155229,
				"y": 1.0447040048,
				"z": 4.2824008297,
				"element": "C" 
			},
			{
				"x": -1.1311848448,
				"y": 0.0453640901,
				"z": 3.9218581114,
				"element": "C" 
			},
			{
				"x": -0.6859364838,
				"y": 0.798324692,
				"z": 0.2531247083,
				"element": "C" 
			},
			{
				"x": -1.0196267991,
				"y": 1.5462592137,
				"z": -0.6522620227,
				"element": "O" 
			},
			{
				"x": 3.1045399355,
				"y": 0.8520077061,
				"z": -5.6602522863,
				"element": "H" 
			},
			{
				"x": 4.0938755176,
				"y": -0.5536830801,
				"z": -5.1664512449,
				"element": "H" 
			},
			{
				"x": 3.3049916846,
				"y": -0.5332665396,
				"z": -6.7660971632,
				"element": "H" 
			},
			{
				"x": 3.2577826368,
				"y": 0.6327730941,
				"z": -3.327622368,
				"element": "H" 
			},
			{
				"x": 2.4068327896,
				"y": 0.8656873305,
				"z": -1.0227332222,
				"element": "H" 
			},
			{
				"x": -0.887878587,
				"y": -1.7231568209,
				"z": -1.9395389994,
				"element": "H" 
			},
			{
				"x": -0.0370945919,
				"y": -1.9670244695,
				"z": -4.2763721136,
				"element": "H" 
			},
			{
				"x": 2.6637276991,
				"y": -4.0711071344,
				"z": 1.9549890757,
				"element": "H" 
			},
			{
				"x": 1.0098691798,
				"y": -3.6454830182,
				"z": 2.4962114439,
				"element": "H" 
			},
			{
				"x": 2.3732508648,
				"y": -2.5717559266,
				"z": 2.8917793164,
				"element": "H" 
			},
			{
				"x": -2.3842254948,
				"y": 2.5893852292,
				"z": 1.2594636897,
				"element": "H" 
			},
			{
				"x": -3.1831733292,
				"y": 2.7507179706,
				"z": 3.6288728604,
				"element": "H" 
			},
			{
				"x": -2.3661543181,
				"y": 1.1109282755,
				"z": 5.310887725,
				"element": "H" 
			},
			{
				"x": -0.7644267634,
				"y": -0.6783143319,
				"z": 4.6423325403,
				"element": "H" 
			}
		],
		 "valence_orbital": [ 
			{
				"type": "occ",
				"energy": -0.25793,
				"method": "rhf"
			},
			{
				"type": "occ",
				"energy": -0.25593,
				"method": "rhf"
			},
			{
				"type": "occ",
				"energy": -0.2525,
				"method": "rhf"
			},
			{
				"type": "occ",
				"energy": -0.2267,
				"method": "rhf"
			},
			{
				"type": "occ",
				"energy": -0.2158,
				"method": "rhf"
			},
			{
				"type": "unocc",
				"energy": -0.03701,
				"method": "rhf"
			},
			{
				"type": "unocc",
				"energy": -0.02736,
				"method": "rhf"
			},
			{
				"type": "unocc",
				"energy": -0.00971,
				"method": "rhf"
			},
			{
				"type": "unocc",
				"energy": -0.00515,
				"method": "rhf"
			},
			{
				"type": "unocc",
				"energy": 0.03451,
				"method": "rhf"
			}
		],
		"cosmo_sigma_profile": { 
			"-0.025": 0.0,
			"-0.024": 0.0,
			"-0.023": 0.0,
			"-0.022": 0.0,
			"-0.021": 0.0,
			"-0.02": 0.0,
			"-0.019": 0.0,
			"-0.018": 0.0,
			"-0.017": 0.0,
			"-0.016": 0.0,
			"-0.015": 0.0,
			"-0.014": 0.0,
			"-0.013": 0.0,
			"-0.012": 0.0,
			"-0.011": 0.0,
			"-0.01": 0.0,
			"-0.009": 0.0,
			"-0.008": 0.517880839616,
			"-0.007": 9.63767260187,
			"-0.006": 24.5204455979,
			"-0.005": 29.7236539644,
			"-0.004": 32.0931627555,
			"-0.003": 26.2941959845,
			"-0.002": 23.6926493208,
			"-0.001": 17.1968422104,
			"0.0": 17.9335297716,
			"0.001": 20.7918516583,
			"0.002": 23.2284422592,
			"0.003": 28.5472259093,
			"0.004": 24.6247321233,
			"0.005": 11.3950875497,
			"0.006": 9.38265552307,
			"0.007": 6.00485805572,
			"0.008": 4.449315207,
			"0.009": 4.53983018528,
			"0.01": 3.25237954827,
			"0.011": 2.38238309565,
			"0.012": 4.14487196379,
			"0.013": 3.75224079986,
			"0.014": 0.100581380921,
			"0.015": 0.0,
			"0.016": 0.0,
			"0.017": 0.0,
			"0.018": 0.0,
			"0.019": 0.0,
			"0.02": 0.0,
			"0.021": 0.0,
			"0.022": 0.0,
			"0.023": 0.0,
			"0.024": 0.0,
			"0.025": 0.0
		}
	}
}
