{
	 "smiles": "CN(C)C(=O)NC1=CC=CC=C1", 
	 "Tm": 406.15, 
	 "num_atms": 24, 
	 "gaussian": { 
		 "optdone": 1, 
		 "sigma_profile": "yes", 
		 "theory": "DFT", 
		 "functional": "B3LYP", 
		 "basiset": "6-31G**", 
		 "properties": { 
			 "R2extent": 2789.5788, 
			 "electric_dipole_moment_norm": 4.14636046793, 
			 "electric_quadrupole_moment_norm": 16.3383765179, 
			 "total_energy": -534.936598561, 
			 "HOMO_LUMO_gap": 0.21436, 
			 "cosmo_polarized_energy": -13.22, 
			 "cosmo_cavitation_energy": 26.98, 
			 "cosmo_dispersion_energy": -20.08, 
			 "cosmo_repulsion_energy": 1.59, 
			 "cosmo_total_nonelectrostatic_energy": 8.49, 
			 "SMD_solvation_energy": 5.1 
		},
		"coords": [
			{
				"x": -3.3592758514,
				"y": -0.3026599529,
				"z": 2.7981683511,
				"element": "C" 
			},
			{
				"x": -2.8687254064,
				"y": -0.3564355076,
				"z": 1.4278671786,
				"element": "N" 
			},
			{
				"x": -3.855982485,
				"y": -0.3087903903,
				"z": 0.3631531738,
				"element": "C" 
			},
			{
				"x": -1.5021580386,
				"y": -0.2309406264,
				"z": 1.2227173821,
				"element": "C" 
			},
			{
				"x": -0.6965496738,
				"y": -0.2464699948,
				"z": 2.1499027244,
				"element": "O" 
			},
			{
				"x": -1.1291894563,
				"y": -0.101784911,
				"z": -0.108618498,
				"element": "N" 
			},
			{
				"x": 0.1735759057,
				"y": -0.0067082439,
				"z": -0.639635747,
				"element": "C" 
			},
			{
				"x": 1.3442235811,
				"y": -0.1028863876,
				"z": 0.1296879285,
				"element": "C" 
			},
			{
				"x": 2.5861039398,
				"y": -0.0041766368,
				"z": -0.4985887175,
				"element": "C" 
			},
			{
				"x": 2.6932897101,
				"y": 0.1881824543,
				"z": -1.8764682489,
				"element": "C" 
			},
			{
				"x": 1.5273411083,
				"y": 0.283286901,
				"z": -2.638192763,
				"element": "C" 
			},
			{
				"x": 0.280172324,
				"y": 0.1868258971,
				"z": -2.0277307336,
				"element": "C" 
			},
			{
				"x": -2.5044484169,
				"y": -0.3734708708,
				"z": 3.4679672858,
				"element": "H" 
			},
			{
				"x": -4.0418443576,
				"y": -1.1384260968,
				"z": 2.9910750001,
				"element": "H" 
			},
			{
				"x": -3.8935938536,
				"y": 0.636443655,
				"z": 2.9980640106,
				"element": "H" 
			},
			{
				"x": -3.991582021,
				"y": 0.6990598166,
				"z": -0.0594304376,
				"element": "H" 
			},
			{
				"x": -3.6068992782,
				"y": -1.0035845571,
				"z": -0.4474478375,
				"element": "H" 
			},
			{
				"x": -4.8197124202,
				"y": -0.6282777693,
				"z": 0.7654052602,
				"element": "H" 
			},
			{
				"x": -1.8607774745,
				"y": -0.0050671254,
				"z": -0.7938124429,
				"element": "H" 
			},
			{
				"x": 1.2642048889,
				"y": -0.2464829984,
				"z": 1.1972375684,
				"element": "H" 
			},
			{
				"x": 3.4842586092,
				"y": -0.0796345831,
				"z": 0.1083868621,
				"element": "H" 
			},
			{
				"x": 3.6676207086,
				"y": 0.2632675311,
				"z": -2.3495243437,
				"element": "H" 
			},
			{
				"x": 1.5841709476,
				"y": 0.4331636001,
				"z": -3.7127196087,
				"element": "H" 
			},
			{
				"x": -0.6227229899,
				"y": 0.2615667971,
				"z": -2.6311633473,
				"element": "H" 
			}
		],
		 "valence_orbital": [ 
			{
				"type": "occ",
				"energy": -0.29999,
				"method": "rhf"
			},
			{
				"type": "occ",
				"energy": -0.25475,
				"method": "rhf"
			},
			{
				"type": "occ",
				"energy": -0.24283,
				"method": "rhf"
			},
			{
				"type": "occ",
				"energy": -0.23817,
				"method": "rhf"
			},
			{
				"type": "occ",
				"energy": -0.20797,
				"method": "rhf"
			},
			{
				"type": "unocc",
				"energy": 0.00639,
				"method": "rhf"
			},
			{
				"type": "unocc",
				"energy": 0.00779,
				"method": "rhf"
			},
			{
				"type": "unocc",
				"energy": 0.06499,
				"method": "rhf"
			},
			{
				"type": "unocc",
				"energy": 0.07204,
				"method": "rhf"
			},
			{
				"type": "unocc",
				"energy": 0.09799,
				"method": "rhf"
			}
		],
		"cosmo_sigma_profile": { 
			"-0.025": 0.0,
			"-0.024": 0.0,
			"-0.023": 0.0,
			"-0.022": 0.0,
			"-0.021": 0.0,
			"-0.02": 0.0,
			"-0.019": 0.0,
			"-0.018": 0.0,
			"-0.017": 0.0,
			"-0.016": 0.0,
			"-0.015": 0.0,
			"-0.014": 0.477807976907,
			"-0.013": 1.45470769163,
			"-0.012": 1.32024937928,
			"-0.011": 1.08420633035,
			"-0.01": 1.80724377028,
			"-0.009": 1.71107046753,
			"-0.008": 1.54770289335,
			"-0.007": 2.46104523473,
			"-0.006": 7.761859255,
			"-0.005": 16.0217114507,
			"-0.004": 19.5198641551,
			"-0.003": 22.9074919959,
			"-0.002": 21.4073128439,
			"-0.001": 16.0774538506,
			"0.0": 9.30624212216,
			"0.001": 11.5226656422,
			"0.002": 9.29548544556,
			"0.003": 13.120692731,
			"0.004": 12.3127665305,
			"0.005": 12.2401069842,
			"0.006": 11.5496020278,
			"0.007": 4.89606341608,
			"0.008": 2.20820859654,
			"0.009": 1.8444787606,
			"0.01": 1.20736481528,
			"0.011": 1.71865115987,
			"0.012": 1.66711296535,
			"0.013": 2.52085617253,
			"0.014": 3.10597769339,
			"0.015": 0.119746316702,
			"0.016": 0.0,
			"0.017": 0.0,
			"0.018": 0.0,
			"0.019": 0.0,
			"0.02": 0.0,
			"0.021": 0.0,
			"0.022": 0.0,
			"0.023": 0.0,
			"0.024": 0.0,
			"0.025": 0.0
		}
	}
}
