{
	 "smiles": "COC1=C2NC(=CC2=C(OC)C=C1)C(O)=O", 
	 "Tm": 475.15, 
	 "num_atms": 27, 
	 "gaussian": { 
		 "optdone": 1, 
		 "sigma_profile": "yes", 
		 "theory": "DFT", 
		 "functional": "B3LYP", 
		 "basiset": "6-31G**", 
		 "properties": { 
			 "R2extent": 5166.1923, 
			 "electric_dipole_moment_norm": 5.61381915989, 
			 "electric_quadrupole_moment_norm": 22.3660235912, 
			 "total_energy": -781.438332948, 
			 "HOMO_LUMO_gap": 0.15016, 
			 "cosmo_polarized_energy": -17.07, 
			 "cosmo_cavitation_energy": 31.64, 
			 "cosmo_dispersion_energy": -23.31, 
			 "cosmo_repulsion_energy": 1.81, 
			 "cosmo_total_nonelectrostatic_energy": 10.14, 
			 "SMD_solvation_energy": 7.73 
		},
		"coords": [
			{
				"x": -4.2512234929,
				"y": 0.1206987285,
				"z": 0.5097763897,
				"element": "C" 
			},
			{
				"x": -2.9806674102,
				"y": -0.2996486155,
				"z": 0.9803478599,
				"element": "O" 
			},
			{
				"x": -2.1028724504,
				"y": -0.8015787974,
				"z": 0.0580649575,
				"element": "C" 
			},
			{
				"x": -0.8497970818,
				"y": -1.2090368411,
				"z": 0.5624455377,
				"element": "C" 
			},
			{
				"x": -0.3755697612,
				"y": -1.1783053845,
				"z": 1.8438362863,
				"element": "N" 
			},
			{
				"x": 0.9100574079,
				"y": -1.6802242098,
				"z": 1.8668736915,
				"element": "C" 
			},
			{
				"x": 1.2749174646,
				"y": -2.0419078186,
				"z": 0.5809646852,
				"element": "C" 
			},
			{
				"x": 0.1652824715,
				"y": -1.7485481648,
				"z": -0.2638278449,
				"element": "C" 
			},
			{
				"x": -0.0742241158,
				"y": -1.8902083668,
				"z": -1.6551290919,
				"element": "C" 
			},
			{
				"x": 0.95539668,
				"y": -2.4180547302,
				"z": -2.3810162605,
				"element": "O" 
			},
			{
				"x": 0.7631069548,
				"y": -2.5783730676,
				"z": -3.7767680675,
				"element": "C" 
			},
			{
				"x": -1.3031158808,
				"y": -1.4912915651,
				"z": -2.1527088516,
				"element": "C" 
			},
			{
				"x": -2.3079813727,
				"y": -0.9517017148,
				"z": -1.301886517,
				"element": "C" 
			},
			{
				"x": 1.5979208347,
				"y": -1.7306225728,
				"z": 3.1661072924,
				"element": "C" 
			},
			{
				"x": 2.8604750748,
				"y": -2.2266574994,
				"z": 3.1751325603,
				"element": "O" 
			},
			{
				"x": 1.075265351,
				"y": -1.3513253311,
				"z": 4.1934453078,
				"element": "O" 
			},
			{
				"x": -4.8059570112,
				"y": -0.7103793212,
				"z": 0.0550295159,
				"element": "H" 
			},
			{
				"x": -4.7951375197,
				"y": 0.482748852,
				"z": 1.3833960486,
				"element": "H" 
			},
			{
				"x": -4.1592960797,
				"y": 0.9327286134,
				"z": -0.2232904918,
				"element": "H" 
			},
			{
				"x": -0.8563701176,
				"y": -0.8493980147,
				"z": 2.6677700378,
				"element": "H" 
			},
			{
				"x": 2.2150152963,
				"y": -2.4667979372,
				"z": 0.2569345007,
				"element": "H" 
			},
			{
				"x": 0.5751593245,
				"y": -1.6160446932,
				"z": -4.2706558736,
				"element": "H" 
			},
			{
				"x": -0.070743104,
				"y": -3.25899661,
				"z": -3.9930354623,
				"element": "H" 
			},
			{
				"x": 1.6884275778,
				"y": -3.0076252885,
				"z": -4.1641088605,
				"element": "H" 
			},
			{
				"x": -1.5279650456,
				"y": -1.5818754787,
				"z": -3.2083981266,
				"element": "H" 
			},
			{
				"x": -3.2501459362,
				"y": -0.6569793171,
				"z": -1.7488810036,
				"element": "H" 
			},
			{
				"x": 3.1270419419,
				"y": -2.4831948541,
				"z": 2.2810817804,
				"element": "H" 
			}
		],
		 "valence_orbital": [ 
			{
				"type": "occ",
				"energy": -0.28965,
				"method": "rhf"
			},
			{
				"type": "occ",
				"energy": -0.2746,
				"method": "rhf"
			},
			{
				"type": "occ",
				"energy": -0.26444,
				"method": "rhf"
			},
			{
				"type": "occ",
				"energy": -0.23007,
				"method": "rhf"
			},
			{
				"type": "occ",
				"energy": -0.19238,
				"method": "rhf"
			},
			{
				"type": "unocc",
				"energy": -0.04222,
				"method": "rhf"
			},
			{
				"type": "unocc",
				"energy": 0.02158,
				"method": "rhf"
			},
			{
				"type": "unocc",
				"energy": 0.03612,
				"method": "rhf"
			},
			{
				"type": "unocc",
				"energy": 0.05821,
				"method": "rhf"
			},
			{
				"type": "unocc",
				"energy": 0.08781,
				"method": "rhf"
			}
		],
		"cosmo_sigma_profile": { 
			"-0.025": 0.0,
			"-0.024": 0.0,
			"-0.023": 0.0,
			"-0.022": 0.0,
			"-0.021": 0.0,
			"-0.02": 0.0,
			"-0.019": 0.195204733806,
			"-0.018": 1.06603743838,
			"-0.017": 1.10880200473,
			"-0.016": 1.16049793175,
			"-0.015": 0.918737538944,
			"-0.014": 1.45304229855,
			"-0.013": 1.31148130736,
			"-0.012": 1.40717361876,
			"-0.011": 1.90214212728,
			"-0.01": 2.10667208255,
			"-0.009": 1.41848028257,
			"-0.008": 1.78344153581,
			"-0.007": 2.75602678838,
			"-0.006": 10.9962409944,
			"-0.005": 22.986742022,
			"-0.004": 22.6244081295,
			"-0.003": 23.3317781751,
			"-0.002": 14.4926191922,
			"-0.001": 11.9392362469,
			"0.0": 10.6870331001,
			"0.001": 10.8521567615,
			"0.002": 15.8496316554,
			"0.003": 16.7816482287,
			"0.004": 19.3817359174,
			"0.005": 12.0676479328,
			"0.006": 9.3225761697,
			"0.007": 5.79163801794,
			"0.008": 5.44005197188,
			"0.009": 4.98260362373,
			"0.01": 5.1658040078,
			"0.011": 4.37152655457,
			"0.012": 4.26917017722,
			"0.013": 1.91145730676,
			"0.014": 0.134487067572,
			"0.015": 0.0,
			"0.016": 0.0,
			"0.017": 0.0,
			"0.018": 0.0,
			"0.019": 0.0,
			"0.02": 0.0,
			"0.021": 0.0,
			"0.022": 0.0,
			"0.023": 0.0,
			"0.024": 0.0,
			"0.025": 0.0
		}
	}
}
