{
	 "smiles": "NCC(C1=CNC2=C1C=CC=C2)C1=CC=CC=C1", 
	 "Tm": 397.15, 
	 "num_atms": 34, 
	 "gaussian": { 
		 "optdone": 1, 
		 "sigma_profile": "yes", 
		 "theory": "DFT", 
		 "functional": "B3LYP", 
		 "basiset": "6-31G**", 
		 "properties": { 
			 "R2extent": 5702.5254, 
			 "electric_dipole_moment_norm": 1.77494291176, 
			 "electric_quadrupole_moment_norm": 8.65856014762, 
			 "total_energy": -728.851945278, 
			 "HOMO_LUMO_gap": 0.19076, 
			 "cosmo_polarized_energy": -11.88, 
			 "cosmo_cavitation_energy": 36.37, 
			 "cosmo_dispersion_energy": -25.68, 
			 "cosmo_repulsion_energy": 2.0, 
			 "cosmo_total_nonelectrostatic_energy": 12.69, 
			 "SMD_solvation_energy": 5.1 
		},
		"coords": [
			{
				"x": 1.7218171342,
				"y": 2.1490719507,
				"z": 1.1055173089,
				"element": "N" 
			},
			{
				"x": 0.3491483746,
				"y": 1.637226172,
				"z": 1.1420340331,
				"element": "C" 
			},
			{
				"x": 0.1177706539,
				"y": 0.4788447913,
				"z": 0.1333539519,
				"element": "C" 
			},
			{
				"x": 0.5070154392,
				"y": 0.8879736354,
				"z": -1.2730211901,
				"element": "C" 
			},
			{
				"x": 1.6121006633,
				"y": 0.4879297472,
				"z": -1.984094726,
				"element": "C" 
			},
			{
				"x": 1.6273108093,
				"y": 1.1014876007,
				"z": -3.22375243,
				"element": "N" 
			},
			{
				"x": 0.518239113,
				"y": 1.9127658966,
				"z": -3.3446107321,
				"element": "C" 
			},
			{
				"x": -0.2130226698,
				"y": 1.8057317365,
				"z": -2.1281320057,
				"element": "C" 
			},
			{
				"x": -1.4075752488,
				"y": 2.5364684941,
				"z": -1.9937709269,
				"element": "C" 
			},
			{
				"x": -1.8334318226,
				"y": 3.3393719334,
				"z": -3.0450149806,
				"element": "C" 
			},
			{
				"x": -1.0886681847,
				"y": 3.4318160638,
				"z": -4.2386350505,
				"element": "C" 
			},
			{
				"x": 0.0943049229,
				"y": 2.7203883724,
				"z": -4.4052183472,
				"element": "C" 
			},
			{
				"x": 0.7327621605,
				"y": -0.8563886539,
				"z": 0.5457362574,
				"element": "C" 
			},
			{
				"x": 0.0175376493,
				"y": -2.0379208173,
				"z": 0.2979753088,
				"element": "C" 
			},
			{
				"x": 0.5402687837,
				"y": -3.2845746098,
				"z": 0.6409430545,
				"element": "C" 
			},
			{
				"x": 1.7972744549,
				"y": -3.3735005624,
				"z": 1.2427720409,
				"element": "C" 
			},
			{
				"x": 2.5187755511,
				"y": -2.2063590868,
				"z": 1.4956914559,
				"element": "C" 
			},
			{
				"x": 1.9955977992,
				"y": -0.9572737931,
				"z": 1.1497842893,
				"element": "C" 
			},
			{
				"x": 1.9117813307,
				"y": 2.526497371,
				"z": 0.1800023755,
				"element": "H" 
			},
			{
				"x": 1.8212053441,
				"y": 2.9162732633,
				"z": 1.7651386683,
				"element": "H" 
			},
			{
				"x": -0.407034391,
				"y": 2.4130133485,
				"z": 0.9319910942,
				"element": "H" 
			},
			{
				"x": 0.148808266,
				"y": 1.262164117,
				"z": 2.1525830975,
				"element": "H" 
			},
			{
				"x": -0.9705887642,
				"y": 0.3251902307,
				"z": 0.126489631,
				"element": "H" 
			},
			{
				"x": 2.3906288407,
				"y": -0.2049362835,
				"z": -1.7006254433,
				"element": "H" 
			},
			{
				"x": 2.3184826805,
				"y": 0.9456002615,
				"z": -3.9387314174,
				"element": "H" 
			},
			{
				"x": -1.9942076404,
				"y": 2.4727616307,
				"z": -1.0813417306,
				"element": "H" 
			},
			{
				"x": -2.755266671,
				"y": 3.905774627,
				"z": -2.9494611254,
				"element": "H" 
			},
			{
				"x": -1.4461194211,
				"y": 4.0679282746,
				"z": -5.043136909,
				"element": "H" 
			},
			{
				"x": 0.6664004948,
				"y": 2.7887596519,
				"z": -5.3265290043,
				"element": "H" 
			},
			{
				"x": -0.9625634999,
				"y": -1.977770123,
				"z": -0.1700762005,
				"element": "H" 
			},
			{
				"x": -0.0353842602,
				"y": -4.1847170868,
				"z": 0.4425092475,
				"element": "H" 
			},
			{
				"x": 2.207301888,
				"y": -4.3424272921,
				"z": 1.5141548294,
				"element": "H" 
			},
			{
				"x": 3.4961971117,
				"y": -2.2643770812,
				"z": 1.9678405113,
				"element": "H" 
			},
			{
				"x": 2.550333108,
				"y": -0.0466937803,
				"z": 1.3524350642,
				"element": "H" 
			}
		],
		 "valence_orbital": [ 
			{
				"type": "occ",
				"energy": -0.23739,
				"method": "rhf"
			},
			{
				"type": "occ",
				"energy": -0.23625,
				"method": "rhf"
			},
			{
				"type": "occ",
				"energy": -0.22524,
				"method": "rhf"
			},
			{
				"type": "occ",
				"energy": -0.21755,
				"method": "rhf"
			},
			{
				"type": "occ",
				"energy": -0.19684,
				"method": "rhf"
			},
			{
				"type": "unocc",
				"energy": -0.00608,
				"method": "rhf"
			},
			{
				"type": "unocc",
				"energy": 0.00988,
				"method": "rhf"
			},
			{
				"type": "unocc",
				"energy": 0.01102,
				"method": "rhf"
			},
			{
				"type": "unocc",
				"energy": 0.03023,
				"method": "rhf"
			},
			{
				"type": "unocc",
				"energy": 0.06889,
				"method": "rhf"
			}
		],
		"cosmo_sigma_profile": { 
			"-0.025": 0.0,
			"-0.024": 0.0,
			"-0.023": 0.0,
			"-0.022": 0.0,
			"-0.021": 0.0,
			"-0.02": 0.0,
			"-0.019": 0.0,
			"-0.018": 0.0,
			"-0.017": 0.0,
			"-0.016": 0.0867154733,
			"-0.015": 1.54241900315,
			"-0.014": 1.41913769456,
			"-0.013": 1.01218539815,
			"-0.012": 1.35020925384,
			"-0.011": 1.11453063245,
			"-0.01": 1.9590734569,
			"-0.009": 2.89901229418,
			"-0.008": 2.85424039532,
			"-0.007": 5.16395583297,
			"-0.006": 6.93634188952,
			"-0.005": 16.6369556881,
			"-0.004": 23.9815965138,
			"-0.003": 25.2218358947,
			"-0.002": 25.1632368944,
			"-0.001": 23.2755559695,
			"0.0": 19.4355967886,
			"0.001": 14.9986693901,
			"0.002": 16.626391082,
			"0.003": 16.0931671356,
			"0.004": 19.1216137509,
			"0.005": 21.1952998847,
			"0.006": 19.4211637324,
			"0.007": 14.2364760373,
			"0.008": 2.88149215863,
			"0.009": 0.590763136756,
			"0.01": 1.00459849252,
			"0.011": 0.855481249289,
			"0.012": 0.764242230975,
			"0.013": 0.494091254441,
			"0.014": 0.0562310151123,
			"0.015": 0.0,
			"0.016": 0.0,
			"0.017": 0.0,
			"0.018": 0.0,
			"0.019": 0.0,
			"0.02": 0.0,
			"0.021": 0.0,
			"0.022": 0.0,
			"0.023": 0.0,
			"0.024": 0.0,
			"0.025": 0.0
		}
	}
}
