{
	 "smiles": "CCCCCCCCCCCCCCCCCCN=C=S", 
	 "Tm": 304.15, 
	 "num_atms": 58, 
	 "gaussian": { 
		 "optdone": 1, 
		 "sigma_profile": "yes", 
		 "theory": "DFT", 
		 "functional": "B3LYP", 
		 "basiset": "6-31G**", 
		 "properties": { 
			 "R2extent": 19045.2914, 
			 "electric_dipole_moment_norm": 4.48911651107, 
			 "electric_quadrupole_moment_norm": 39.5359421156, 
			 "total_energy": -1199.3026226, 
			 "HOMO_LUMO_gap": 0.23436, 
			 "cosmo_polarized_energy": -6.28, 
			 "cosmo_cavitation_energy": 59.33, 
			 "cosmo_dispersion_energy": -39.12, 
			 "cosmo_repulsion_energy": 3.13, 
			 "cosmo_total_nonelectrostatic_energy": 23.34, 
			 "SMD_solvation_energy": 6.94 
		},
		"coords": [
			{
				"x": -5.9983460554,
				"y": -2.1986964202,
				"z": 4.5994466607,
				"element": "C" 
			},
			{
				"x": -5.6331586558,
				"y": -1.0363529036,
				"z": 3.668131084,
				"element": "C" 
			},
			{
				"x": -5.7688159151,
				"y": -1.3504249739,
				"z": 2.1680575941,
				"element": "C" 
			},
			{
				"x": -4.7765299394,
				"y": -2.3997888776,
				"z": 1.6456794241,
				"element": "C" 
			},
			{
				"x": -4.9349840294,
				"y": -2.7388341798,
				"z": 0.1520027069,
				"element": "C" 
			},
			{
				"x": -4.6790543933,
				"y": -1.5885353322,
				"z": -0.8381464846,
				"element": "C" 
			},
			{
				"x": -3.245948481,
				"y": -1.0369074267,
				"z": -0.8243312003,
				"element": "C" 
			},
			{
				"x": -3.0180398654,
				"y": 0.0462073214,
				"z": -1.888038254,
				"element": "C" 
			},
			{
				"x": -1.5788064256,
				"y": 0.5759254139,
				"z": -2.0239353899,
				"element": "C" 
			},
			{
				"x": -1.008561676,
				"y": 1.3161031923,
				"z": -0.7918194762,
				"element": "C" 
			},
			{
				"x": -0.2107967596,
				"y": 0.4319683926,
				"z": 0.1803943544,
				"element": "C" 
			},
			{
				"x": 0.2861013773,
				"y": 1.1566405439,
				"z": 1.4437854899,
				"element": "C" 
			},
			{
				"x": 1.2821498835,
				"y": 2.3191744872,
				"z": 1.2607256645,
				"element": "C" 
			},
			{
				"x": 2.6711271222,
				"y": 1.9433369292,
				"z": 0.6994073532,
				"element": "C" 
			},
			{
				"x": 2.8043237046,
				"y": 1.9960517286,
				"z": -0.8310036917,
				"element": "C" 
			},
			{
				"x": 4.2197433276,
				"y": 1.6445373844,
				"z": -1.3135565269,
				"element": "C" 
			},
			{
				"x": 4.4462208343,
				"y": 1.7968125702,
				"z": -2.8259946848,
				"element": "C" 
			},
			{
				"x": 3.6429031658,
				"y": 0.7890676723,
				"z": -3.6642772404,
				"element": "C" 
			},
			{
				"x": 3.9096709544,
				"y": 0.903712781,
				"z": -5.0661168779,
				"element": "N" 
			},
			{
				"x": 4.351643244,
				"y": 1.4492868414,
				"z": -6.0275395319,
				"element": "C" 
			},
			{
				"x": 4.9044768221,
				"y": 2.0940883957,
				"z": -7.3794572347,
				"element": "S" 
			},
			{
				"x": -7.023591838,
				"y": -2.5418542465,
				"z": 4.4172173584,
				"element": "H" 
			},
			{
				"x": -5.9320333223,
				"y": -1.8968422334,
				"z": 5.650015898,
				"element": "H" 
			},
			{
				"x": -5.3335704357,
				"y": -3.0579080715,
				"z": 4.4641687433,
				"element": "H" 
			},
			{
				"x": -6.2748309993,
				"y": -0.1780721308,
				"z": 3.9054606671,
				"element": "H" 
			},
			{
				"x": -4.6045144443,
				"y": -0.7105433462,
				"z": 3.8765142645,
				"element": "H" 
			},
			{
				"x": -5.6406146197,
				"y": -0.4164394088,
				"z": 1.6063673437,
				"element": "H" 
			},
			{
				"x": -6.7948198929,
				"y": -1.6892166545,
				"z": 1.9614930013,
				"element": "H" 
			},
			{
				"x": -3.7519445996,
				"y": -2.0571752925,
				"z": 1.8458521909,
				"element": "H" 
			},
			{
				"x": -4.8956923773,
				"y": -3.3293678051,
				"z": 2.2158936718,
				"element": "H" 
			},
			{
				"x": -4.2564223225,
				"y": -3.5676988717,
				"z": -0.0924346872,
				"element": "H" 
			},
			{
				"x": -5.9509105842,
				"y": -3.1230741264,
				"z": -0.0134739574,
				"element": "H" 
			},
			{
				"x": -4.9070520111,
				"y": -1.9496613636,
				"z": -1.8503371161,
				"element": "H" 
			},
			{
				"x": -5.3845163866,
				"y": -0.7678076503,
				"z": -0.6513624106,
				"element": "H" 
			},
			{
				"x": -2.5388110617,
				"y": -1.8637307735,
				"z": -0.9865518705,
				"element": "H" 
			},
			{
				"x": -3.0192807697,
				"y": -0.6305909135,
				"z": 0.168699725,
				"element": "H" 
			},
			{
				"x": -3.6883429159,
				"y": 0.8936822565,
				"z": -1.683838068,
				"element": "H" 
			},
			{
				"x": -3.3293829238,
				"y": -0.3520427659,
				"z": -2.8638062815,
				"element": "H" 
			},
			{
				"x": -1.5635140895,
				"y": 1.2577400824,
				"z": -2.8834083702,
				"element": "H" 
			},
			{
				"x": -0.9093788865,
				"y": -0.2543575008,
				"z": -2.2917931907,
				"element": "H" 
			},
			{
				"x": -0.3593127812,
				"y": 2.1287807676,
				"z": -1.1393755906,
				"element": "H" 
			},
			{
				"x": -1.8287361069,
				"y": 1.8070615098,
				"z": -0.2480681545,
				"element": "H" 
			},
			{
				"x": 0.6373456201,
				"y": -0.0167135165,
				"z": -0.3543758119,
				"element": "H" 
			},
			{
				"x": -0.8317361808,
				"y": -0.4133183082,
				"z": 0.4990241481,
				"element": "H" 
			},
			{
				"x": 0.7470970873,
				"y": 0.4152346842,
				"z": 2.1109427374,
				"element": "H" 
			},
			{
				"x": -0.5890775038,
				"y": 1.5417271466,
				"z": 1.9856036679,
				"element": "H" 
			},
			{
				"x": 0.8379926792,
				"y": 3.1079373024,
				"z": 0.6391568386,
				"element": "H" 
			},
			{
				"x": 1.4234631362,
				"y": 2.7732349874,
				"z": 2.2493768291,
				"element": "H" 
			},
			{
				"x": 3.419422091,
				"y": 2.627478013,
				"z": 1.1214565218,
				"element": "H" 
			},
			{
				"x": 2.9503761548,
				"y": 0.9418904508,
				"z": 1.0574391903,
				"element": "H" 
			},
			{
				"x": 2.5481642142,
				"y": 3.0077231238,
				"z": -1.1769813222,
				"element": "H" 
			},
			{
				"x": 2.0722980595,
				"y": 1.3232495199,
				"z": -1.2919269653,
				"element": "H" 
			},
			{
				"x": 4.4671986579,
				"y": 0.6176211722,
				"z": -1.0087048189,
				"element": "H" 
			},
			{
				"x": 4.9402281137,
				"y": 2.2913063465,
				"z": -0.7964691016,
				"element": "H" 
			},
			{
				"x": 4.1821043077,
				"y": 2.8120352186,
				"z": -3.1467548925,
				"element": "H" 
			},
			{
				"x": 5.5090914692,
				"y": 1.6595774524,
				"z": -3.0552046728,
				"element": "H" 
			},
			{
				"x": 2.5653298345,
				"y": 0.9217562831,
				"z": -3.5145084089,
				"element": "H" 
			},
			{
				"x": 3.8806573878,
				"y": -0.2360948775,
				"z": -3.3543208444,
				"element": "H" 
			}
		],
		 "valence_orbital": [ 
			{
				"type": "occ",
				"energy": -0.30324,
				"method": "rhf"
			},
			{
				"type": "occ",
				"energy": -0.30073,
				"method": "rhf"
			},
			{
				"type": "occ",
				"energy": -0.29688,
				"method": "rhf"
			},
			{
				"type": "occ",
				"energy": -0.2441,
				"method": "rhf"
			},
			{
				"type": "occ",
				"energy": -0.23916,
				"method": "rhf"
			},
			{
				"type": "unocc",
				"energy": -0.0048,
				"method": "rhf"
			},
			{
				"type": "unocc",
				"energy": 0.01601,
				"method": "rhf"
			},
			{
				"type": "unocc",
				"energy": 0.06279,
				"method": "rhf"
			},
			{
				"type": "unocc",
				"energy": 0.07415,
				"method": "rhf"
			},
			{
				"type": "unocc",
				"energy": 0.08539,
				"method": "rhf"
			}
		],
		"cosmo_sigma_profile": { 
			"-0.025": 0.0,
			"-0.024": 0.0,
			"-0.023": 0.0,
			"-0.022": 0.0,
			"-0.021": 0.0,
			"-0.02": 0.0,
			"-0.019": 0.0,
			"-0.018": 0.0,
			"-0.017": 0.0,
			"-0.016": 0.0,
			"-0.015": 0.0,
			"-0.014": 0.0,
			"-0.013": 0.0,
			"-0.012": 0.0,
			"-0.011": 0.0,
			"-0.01": 0.0,
			"-0.009": 0.0,
			"-0.008": 0.0,
			"-0.007": 0.614938087683,
			"-0.006": 4.28778185672,
			"-0.005": 7.21114777765,
			"-0.004": 12.6249494677,
			"-0.003": 17.880461618,
			"-0.002": 52.194430225,
			"-0.001": 99.0689508543,
			"0.0": 101.647660003,
			"0.001": 83.4084736797,
			"0.002": 40.9530934679,
			"0.003": 7.56603052768,
			"0.004": 5.8185498393,
			"0.005": 6.06900176566,
			"0.006": 10.516208389,
			"0.007": 9.49010492622,
			"0.008": 0.380517426159,
			"0.009": 0.0,
			"0.01": 0.0,
			"0.011": 0.0,
			"0.012": 0.0,
			"0.013": 0.0,
			"0.014": 0.0,
			"0.015": 0.0,
			"0.016": 0.0,
			"0.017": 0.0,
			"0.018": 0.0,
			"0.019": 0.0,
			"0.02": 0.0,
			"0.021": 0.0,
			"0.022": 0.0,
			"0.023": 0.0,
			"0.024": 0.0,
			"0.025": 0.0
		}
	}
}
