{
	 "smiles": "NC1=CC=C(NC(=O)C2=CC=CC=C2)C=C1", 
	 "Tm": 402.15, 
	 "num_atms": 28, 
	 "gaussian": { 
		 "optdone": 1, 
		 "sigma_profile": "yes", 
		 "theory": "DFT", 
		 "functional": "B3LYP", 
		 "basiset": "6-31G**", 
		 "properties": { 
			 "R2extent": 4611.989, 
			 "electric_dipole_moment_norm": 5.28768975073, 
			 "electric_quadrupole_moment_norm": 10.4515131464, 
			 "total_energy": -687.358409605, 
			 "HOMO_LUMO_gap": 0.16777, 
			 "cosmo_polarized_energy": -16.11, 
			 "cosmo_cavitation_energy": 32.31, 
			 "cosmo_dispersion_energy": -22.9, 
			 "cosmo_repulsion_energy": 1.81, 
			 "cosmo_total_nonelectrostatic_energy": 11.22, 
			 "SMD_solvation_energy": 5.99 
		},
		"coords": [
			{
				"x": -0.8290536239,
				"y": -1.8166730376,
				"z": -3.4209641467,
				"element": "N" 
			},
			{
				"x": -0.3920587308,
				"y": -1.055432704,
				"z": -2.3353715685,
				"element": "C" 
			},
			{
				"x": -1.0039173969,
				"y": -1.1787960196,
				"z": -1.0755996436,
				"element": "C" 
			},
			{
				"x": -0.6189883449,
				"y": -0.3705887727,
				"z": -0.0111756007,
				"element": "C" 
			},
			{
				"x": 0.4135660059,
				"y": 0.5642238484,
				"z": -0.1607170911,
				"element": "C" 
			},
			{
				"x": 0.8180168657,
				"y": 1.4237680529,
				"z": 0.9014164151,
				"element": "N" 
			},
			{
				"x": 0.9455095393,
				"y": 1.163971879,
				"z": 2.2531681046,
				"element": "C" 
			},
			{
				"x": 0.8795491415,
				"y": 2.0867713508,
				"z": 3.0603685104,
				"element": "O" 
			},
			{
				"x": 1.2261129713,
				"y": -0.2390098392,
				"z": 2.7108161052,
				"element": "C" 
			},
			{
				"x": 1.9645326788,
				"y": -1.1647667907,
				"z": 1.9597625411,
				"element": "C" 
			},
			{
				"x": 2.2622026666,
				"y": -2.4195304224,
				"z": 2.4913808966,
				"element": "C" 
			},
			{
				"x": 1.8170562922,
				"y": -2.7653002414,
				"z": 3.7690444537,
				"element": "C" 
			},
			{
				"x": 1.0880307882,
				"y": -1.8438021923,
				"z": 4.5249969453,
				"element": "C" 
			},
			{
				"x": 0.8066001149,
				"y": -0.5829886518,
				"z": 4.0036550829,
				"element": "C" 
			},
			{
				"x": 1.0281997764,
				"y": 0.6880961568,
				"z": -1.4126079785,
				"element": "C" 
			},
			{
				"x": 0.6270614293,
				"y": -0.0996691348,
				"z": -2.4873698872,
				"element": "C" 
			},
			{
				"x": -0.1538655035,
				"y": -1.9350566232,
				"z": -4.1636285858,
				"element": "H" 
			},
			{
				"x": -1.2809531878,
				"y": -2.6882858527,
				"z": -3.181273147,
				"element": "H" 
			},
			{
				"x": -1.8053780759,
				"y": -1.9003198527,
				"z": -0.938015021,
				"element": "H" 
			},
			{
				"x": -1.1205194296,
				"y": -0.4677171027,
				"z": 0.9460163104,
				"element": "H" 
			},
			{
				"x": 0.7320582318,
				"y": 2.420067336,
				"z": 0.7344805123,
				"element": "H" 
			},
			{
				"x": 2.3169082306,
				"y": -0.9022985868,
				"z": 0.9685647032,
				"element": "H" 
			},
			{
				"x": 2.8444878346,
				"y": -3.1268499084,
				"z": 1.9077589358,
				"element": "H" 
			},
			{
				"x": 2.0444419802,
				"y": -3.746166914,
				"z": 4.1771885338,
				"element": "H" 
			},
			{
				"x": 0.7486533797,
				"y": -2.1047851251,
				"z": 5.5232992314,
				"element": "H" 
			},
			{
				"x": 0.2700848736,
				"y": 0.1581836758,
				"z": 4.5864813983,
				"element": "H" 
			},
			{
				"x": 1.8320728329,
				"y": 1.4077674758,
				"z": -1.5404247098,
				"element": "H" 
			},
			{
				"x": 1.1109886597,
				"y": 0.0203879964,
				"z": -3.4534513002,
				"element": "H" 
			}
		],
		 "valence_orbital": [ 
			{
				"type": "occ",
				"energy": -0.25938,
				"method": "rhf"
			},
			{
				"type": "occ",
				"energy": -0.2549,
				"method": "rhf"
			},
			{
				"type": "occ",
				"energy": -0.24876,
				"method": "rhf"
			},
			{
				"type": "occ",
				"energy": -0.2385,
				"method": "rhf"
			},
			{
				"type": "occ",
				"energy": -0.19916,
				"method": "rhf"
			},
			{
				"type": "unocc",
				"energy": -0.03139,
				"method": "rhf"
			},
			{
				"type": "unocc",
				"energy": -0.00972,
				"method": "rhf"
			},
			{
				"type": "unocc",
				"energy": 0.00195,
				"method": "rhf"
			},
			{
				"type": "unocc",
				"energy": 0.01058,
				"method": "rhf"
			},
			{
				"type": "unocc",
				"energy": 0.06201,
				"method": "rhf"
			}
		],
		"cosmo_sigma_profile": { 
			"-0.025": 0.0,
			"-0.024": 0.0,
			"-0.023": 0.0,
			"-0.022": 0.0,
			"-0.021": 0.0,
			"-0.02": 0.0,
			"-0.019": 0.0,
			"-0.018": 0.0,
			"-0.017": 0.0,
			"-0.016": 0.0,
			"-0.015": 0.0,
			"-0.014": 0.33629880087,
			"-0.013": 1.07790555457,
			"-0.012": 3.82565020013,
			"-0.011": 3.53203964697,
			"-0.01": 3.37349536008,
			"-0.009": 4.26426921902,
			"-0.008": 4.33256188362,
			"-0.007": 4.57425913771,
			"-0.006": 13.7111574927,
			"-0.005": 19.289003306,
			"-0.004": 20.184065414,
			"-0.003": 15.6070549253,
			"-0.002": 14.9446665426,
			"-0.001": 15.7249548291,
			"0.0": 15.3876183537,
			"0.001": 14.0524684626,
			"0.002": 15.7576358092,
			"0.003": 15.5044738545,
			"0.004": 19.4406501725,
			"0.005": 19.9284361532,
			"0.006": 8.36765532012,
			"0.007": 2.29458747273,
			"0.008": 2.54386438941,
			"0.009": 2.06500590067,
			"0.01": 2.19823981179,
			"0.011": 2.50290080228,
			"0.012": 2.86286660943,
			"0.013": 5.00768285364,
			"0.014": 4.44338128682,
			"0.015": 0.366857779664,
			"0.016": 0.0,
			"0.017": 0.0,
			"0.018": 0.0,
			"0.019": 0.0,
			"0.02": 0.0,
			"0.021": 0.0,
			"0.022": 0.0,
			"0.023": 0.0,
			"0.024": 0.0,
			"0.025": 0.0
		}
	}
}
