{
	 "smiles": "CC(=O)OC1=CC=C(C=C1)C(=C1CCCCC1)C1=CC=C(OC(C)=O)C=C1", 
	 "Tm": 409.15, 
	 "num_atms": 51, 
	 "gaussian": { 
		 "optdone": 1, 
		 "sigma_profile": "yes", 
		 "theory": "DFT", 
		 "functional": "B3LYP", 
		 "basiset": "6-31G**", 
		 "properties": { 
			 "R2extent": 15824.8418, 
			 "electric_dipole_moment_norm": 3.99147748835, 
			 "electric_quadrupole_moment_norm": 46.8483180638, 
			 "total_energy": -1191.82751204, 
			 "HOMO_LUMO_gap": 0.18577, 
			 "cosmo_polarized_energy": -16.16, 
			 "cosmo_cavitation_energy": 53.96, 
			 "cosmo_dispersion_energy": -36.06, 
			 "cosmo_repulsion_energy": 2.81, 
			 "cosmo_total_nonelectrostatic_energy": 20.71, 
			 "SMD_solvation_energy": 10.73 
		},
		"coords": [
			{
				"x": -0.730667432,
				"y": 2.0435670685,
				"z": 6.4136878629,
				"element": "C" 
			},
			{
				"x": -0.8942671733,
				"y": 3.5165577745,
				"z": 6.1079805783,
				"element": "C" 
			},
			{
				"x": -1.0192966476,
				"y": 4.3769302011,
				"z": 6.93935138,
				"element": "O" 
			},
			{
				"x": -0.9013065335,
				"y": 3.8893154805,
				"z": 4.7801523999,
				"element": "O" 
			},
			{
				"x": -0.7563414133,
				"y": 2.9653106462,
				"z": 3.7498830281,
				"element": "C" 
			},
			{
				"x": 0.5167988621,
				"y": 2.6670924327,
				"z": 3.2622522211,
				"element": "C" 
			},
			{
				"x": 0.6510153648,
				"y": 1.7897886862,
				"z": 2.1888401976,
				"element": "C" 
			},
			{
				"x": -0.4725387976,
				"y": 1.2146448756,
				"z": 1.5690298263,
				"element": "C" 
			},
			{
				"x": -1.7406824649,
				"y": 1.5320839441,
				"z": 2.08385312,
				"element": "C" 
			},
			{
				"x": -1.8889217358,
				"y": 2.4049800747,
				"z": 3.162223757,
				"element": "C" 
			},
			{
				"x": -0.302207963,
				"y": 0.2609037449,
				"z": 0.4269160125,
				"element": "C" 
			},
			{
				"x": -0.9037492902,
				"y": 0.4379500953,
				"z": -0.7758829024,
				"element": "C" 
			},
			{
				"x": -1.6902092253,
				"y": 1.677544652,
				"z": -1.155921435,
				"element": "C" 
			},
			{
				"x": -3.1237029877,
				"y": 1.3440639144,
				"z": -1.618114749,
				"element": "C" 
			},
			{
				"x": -3.1155939407,
				"y": 0.3039485867,
				"z": -2.7464870183,
				"element": "C" 
			},
			{
				"x": -2.3176211619,
				"y": -0.9424183961,
				"z": -2.3431018603,
				"element": "C" 
			},
			{
				"x": -0.8817571906,
				"y": -0.5898155838,
				"z": -1.8909219206,
				"element": "C" 
			},
			{
				"x": 0.602391791,
				"y": -0.8945561703,
				"z": 0.7228331471,
				"element": "C" 
			},
			{
				"x": 0.384254296,
				"y": -1.7032851987,
				"z": 1.8515610824,
				"element": "C" 
			},
			{
				"x": 1.2272780884,
				"y": -2.7701872051,
				"z": 2.146971085,
				"element": "C" 
			},
			{
				"x": 2.3209045003,
				"y": -3.0357677832,
				"z": 1.3224588851,
				"element": "C" 
			},
			{
				"x": 3.1529846891,
				"y": -4.074276844,
				"z": 1.7423931645,
				"element": "O" 
			},
			{
				"x": 3.7209469629,
				"y": -4.9489845914,
				"z": 0.8526935539,
				"element": "C" 
			},
			{
				"x": 4.5475287244,
				"y": -5.9628445768,
				"z": 1.6047616633,
				"element": "C" 
			},
			{
				"x": 3.5717190056,
				"y": -4.9043205469,
				"z": -0.3433735938,
				"element": "O" 
			},
			{
				"x": 2.5827990713,
				"y": -2.2375950064,
				"z": 0.2093496332,
				"element": "C" 
			},
			{
				"x": 1.7216599479,
				"y": -1.1776949264,
				"z": -0.0767873844,
				"element": "C" 
			},
			{
				"x": 0.2138629718,
				"y": 1.6626010847,
				"z": 6.0150875472,
				"element": "H" 
			},
			{
				"x": -1.5318224223,
				"y": 1.4569276137,
				"z": 5.9551467831,
				"element": "H" 
			},
			{
				"x": -0.7528315509,
				"y": 1.9189997624,
				"z": 7.4954436077,
				"element": "H" 
			},
			{
				"x": 1.3852237399,
				"y": 3.130707892,
				"z": 3.7198721699,
				"element": "H" 
			},
			{
				"x": 1.6424577758,
				"y": 1.5504361154,
				"z": 1.8162550893,
				"element": "H" 
			},
			{
				"x": -2.6218893866,
				"y": 1.0825389081,
				"z": 1.6364741721,
				"element": "H" 
			},
			{
				"x": -2.8715134576,
				"y": 2.6573145558,
				"z": 3.548610404,
				"element": "H" 
			},
			{
				"x": -1.1659902875,
				"y": 2.1510686327,
				"z": -2.0016418975,
				"element": "H" 
			},
			{
				"x": -1.7060341262,
				"y": 2.4123494951,
				"z": -0.3495256702,
				"element": "H" 
			},
			{
				"x": -3.6295700742,
				"y": 2.260953193,
				"z": -1.9430982145,
				"element": "H" 
			},
			{
				"x": -3.6968832714,
				"y": 0.9528012116,
				"z": -0.7661955654,
				"element": "H" 
			},
			{
				"x": -4.1412425358,
				"y": 0.028121781,
				"z": -3.0194537068,
				"element": "H" 
			},
			{
				"x": -2.6625491778,
				"y": 0.7493305135,
				"z": -3.6438406276,
				"element": "H" 
			},
			{
				"x": -2.8321013179,
				"y": -1.4539270837,
				"z": -1.51839258,
				"element": "H" 
			},
			{
				"x": -2.2715764301,
				"y": -1.6550674034,
				"z": -3.1749854221,
				"element": "H" 
			},
			{
				"x": -0.3401156732,
				"y": -0.1760164067,
				"z": -2.7555784538,
				"element": "H" 
			},
			{
				"x": -0.3563081901,
				"y": -1.497989626,
				"z": -1.5916199322,
				"element": "H" 
			},
			{
				"x": -0.4605669903,
				"y": -1.4954957774,
				"z": 2.5014292575,
				"element": "H" 
			},
			{
				"x": 1.0549004057,
				"y": -3.4007922432,
				"z": 3.0131115205,
				"element": "H" 
			},
			{
				"x": 5.3197062246,
				"y": -5.4562819567,
				"z": 2.1911971762,
				"element": "H" 
			},
			{
				"x": 5.0072388157,
				"y": -6.6505133278,
				"z": 0.8959298905,
				"element": "H" 
			},
			{
				"x": 3.9160282653,
				"y": -6.5155120042,
				"z": 2.3065761972,
				"element": "H" 
			},
			{
				"x": 3.4359512411,
				"y": -2.439880847,
				"z": -0.4239548207,
				"element": "H" 
			},
			{
				"x": 1.9303081058,
				"y": -0.5479094307,
				"z": -0.9362486587,
				"element": "H" 
			}
		],
		 "valence_orbital": [ 
			{
				"type": "occ",
				"energy": -0.26541,
				"method": "rhf"
			},
			{
				"type": "occ",
				"energy": -0.2642,
				"method": "rhf"
			},
			{
				"type": "occ",
				"energy": -0.25706,
				"method": "rhf"
			},
			{
				"type": "occ",
				"energy": -0.24905,
				"method": "rhf"
			},
			{
				"type": "occ",
				"energy": -0.21517,
				"method": "rhf"
			},
			{
				"type": "unocc",
				"energy": -0.0294,
				"method": "rhf"
			},
			{
				"type": "unocc",
				"energy": -0.02156,
				"method": "rhf"
			},
			{
				"type": "unocc",
				"energy": -0.01668,
				"method": "rhf"
			},
			{
				"type": "unocc",
				"energy": -0.00625,
				"method": "rhf"
			},
			{
				"type": "unocc",
				"energy": 0.00728,
				"method": "rhf"
			}
		],
		"cosmo_sigma_profile": { 
			"-0.025": 0.0,
			"-0.024": 0.0,
			"-0.023": 0.0,
			"-0.022": 0.0,
			"-0.021": 0.0,
			"-0.02": 0.0,
			"-0.019": 0.0,
			"-0.018": 0.0,
			"-0.017": 0.0,
			"-0.016": 0.0,
			"-0.015": 0.0,
			"-0.014": 0.0,
			"-0.013": 0.0,
			"-0.012": 0.0,
			"-0.011": 0.0,
			"-0.01": 0.0,
			"-0.009": 0.0,
			"-0.008": 0.0114755827508,
			"-0.007": 7.93608190522,
			"-0.006": 22.3682391368,
			"-0.005": 26.7195209407,
			"-0.004": 29.2059698266,
			"-0.003": 37.4090109595,
			"-0.002": 51.0021322259,
			"-0.001": 48.8146375134,
			"0.0": 45.3872543578,
			"0.001": 34.6366722841,
			"0.002": 23.4565801674,
			"0.003": 25.8294053932,
			"0.004": 21.5676313173,
			"0.005": 8.35707193861,
			"0.006": 4.83753475097,
			"0.007": 4.7091406258,
			"0.008": 4.6262455066,
			"0.009": 5.56475869596,
			"0.01": 6.72937464063,
			"0.011": 9.30930701858,
			"0.012": 6.82795868639,
			"0.013": 1.18529882876,
			"0.014": 0.0,
			"0.015": 0.0,
			"0.016": 0.0,
			"0.017": 0.0,
			"0.018": 0.0,
			"0.019": 0.0,
			"0.02": 0.0,
			"0.021": 0.0,
			"0.022": 0.0,
			"0.023": 0.0,
			"0.024": 0.0,
			"0.025": 0.0
		}
	}
}
