{
	 "smiles": "CCCCCOC(=O)CCC", 
	 "Tm": 200.05, 
	 "num_atms": 29, 
	 "gaussian": { 
		 "optdone": 1, 
		 "sigma_profile": "yes", 
		 "theory": "DFT", 
		 "functional": "B3LYP", 
		 "basiset": "6-31G**", 
		 "properties": { 
			 "R2extent": 5044.4281, 
			 "electric_dipole_moment_norm": 1.87497198112, 
			 "electric_quadrupole_moment_norm": 10.912416183, 
			 "total_energy": -504.291559933, 
			 "HOMO_LUMO_gap": 0.28269, 
			 "cosmo_polarized_energy": -6.17, 
			 "cosmo_cavitation_energy": 31.05, 
			 "cosmo_dispersion_energy": -22.01, 
			 "cosmo_repulsion_energy": 1.86, 
			 "cosmo_total_nonelectrostatic_energy": 10.9, 
			 "SMD_solvation_energy": 5.84 
		},
		"coords": [
			{
				"x": -0.6934955908,
				"y": 2.2198625604,
				"z": 2.6422129566,
				"element": "C" 
			},
			{
				"x": 0.0891278253,
				"y": 2.1282522125,
				"z": 1.3265112638,
				"element": "C" 
			},
			{
				"x": -0.3524398594,
				"y": 0.9828986161,
				"z": 0.4009733568,
				"element": "C" 
			},
			{
				"x": -0.0725252368,
				"y": -0.4215227047,
				"z": 0.9543327529,
				"element": "C" 
			},
			{
				"x": -0.4614845724,
				"y": -1.5423818533,
				"z": 0.002221248,
				"element": "C" 
			},
			{
				"x": -1.897693777,
				"y": -1.5027300125,
				"z": -0.1703825582,
				"element": "O" 
			},
			{
				"x": -2.4194852124,
				"y": -2.4199732288,
				"z": -1.015037556,
				"element": "C" 
			},
			{
				"x": -1.7513590068,
				"y": -3.2500441626,
				"z": -1.595430237,
				"element": "O" 
			},
			{
				"x": -3.921204239,
				"y": -2.2425117035,
				"z": -1.1508541125,
				"element": "C" 
			},
			{
				"x": -4.6200511004,
				"y": -3.4481952376,
				"z": -1.7882608316,
				"element": "C" 
			},
			{
				"x": -4.6357047837,
				"y": -4.6890591268,
				"z": -0.8895696992,
				"element": "C" 
			},
			{
				"x": -0.5547611962,
				"y": 1.3306023271,
				"z": 3.2657512324,
				"element": "H" 
			},
			{
				"x": -1.7681143747,
				"y": 2.3271553433,
				"z": 2.4541876305,
				"element": "H" 
			},
			{
				"x": -0.3715861824,
				"y": 3.084692735,
				"z": 3.2315742497,
				"element": "H" 
			},
			{
				"x": 1.1613598227,
				"y": 2.0256804877,
				"z": 1.5443590427,
				"element": "H" 
			},
			{
				"x": -0.0186648076,
				"y": 3.0754622652,
				"z": 0.7830512345,
				"element": "H" 
			},
			{
				"x": 0.1625120133,
				"y": 1.0871649998,
				"z": -0.5640414461,
				"element": "H" 
			},
			{
				"x": -1.4246600776,
				"y": 1.075890232,
				"z": 0.1882112339,
				"element": "H" 
			},
			{
				"x": -0.5967736264,
				"y": -0.5736608571,
				"z": 1.9049578711,
				"element": "H" 
			},
			{
				"x": 0.9999740114,
				"y": -0.5277661881,
				"z": 1.1677905502,
				"element": "H" 
			},
			{
				"x": 0.0155426929,
				"y": -1.4306866359,
				"z": -0.977786768,
				"element": "H" 
			},
			{
				"x": -0.181966979,
				"y": -2.5254903365,
				"z": 0.3944039376,
				"element": "H" 
			},
			{
				"x": -4.0766072913,
				"y": -1.3403927452,
				"z": -1.7579376913,
				"element": "H" 
			},
			{
				"x": -4.3342645734,
				"y": -2.0107921031,
				"z": -0.1623523397,
				"element": "H" 
			},
			{
				"x": -5.6479204053,
				"y": -3.1589425346,
				"z": -2.0375803524,
				"element": "H" 
			},
			{
				"x": -4.1173105181,
				"y": -3.685441952,
				"z": -2.7317658173,
				"element": "H" 
			},
			{
				"x": -5.1575700699,
				"y": -5.519283647,
				"z": -1.3761045122,
				"element": "H" 
			},
			{
				"x": -5.1461220155,
				"y": -4.4862600183,
				"z": 0.0594537913,
				"element": "H" 
			},
			{
				"x": -3.6176508695,
				"y": -5.0204267316,
				"z": -0.6657884304,
				"element": "H" 
			}
		],
		 "valence_orbital": [ 
			{
				"type": "occ",
				"energy": -0.32584,
				"method": "rhf"
			},
			{
				"type": "occ",
				"energy": -0.32388,
				"method": "rhf"
			},
			{
				"type": "occ",
				"energy": -0.31924,
				"method": "rhf"
			},
			{
				"type": "occ",
				"energy": -0.29368,
				"method": "rhf"
			},
			{
				"type": "occ",
				"energy": -0.26566,
				"method": "rhf"
			},
			{
				"type": "unocc",
				"energy": 0.01703,
				"method": "rhf"
			},
			{
				"type": "unocc",
				"energy": 0.08856,
				"method": "rhf"
			},
			{
				"type": "unocc",
				"energy": 0.09665,
				"method": "rhf"
			},
			{
				"type": "unocc",
				"energy": 0.11076,
				"method": "rhf"
			},
			{
				"type": "unocc",
				"energy": 0.11827,
				"method": "rhf"
			}
		],
		"cosmo_sigma_profile": { 
			"-0.025": 0.0,
			"-0.024": 0.0,
			"-0.023": 0.0,
			"-0.022": 0.0,
			"-0.021": 0.0,
			"-0.02": 0.0,
			"-0.019": 0.0,
			"-0.018": 0.0,
			"-0.017": 0.0,
			"-0.016": 0.0,
			"-0.015": 0.0,
			"-0.014": 0.0,
			"-0.013": 0.0,
			"-0.012": 0.0,
			"-0.011": 0.0,
			"-0.01": 0.0,
			"-0.009": 0.0,
			"-0.008": 0.0,
			"-0.007": 0.0,
			"-0.006": 1.75376492172,
			"-0.005": 5.97427495853,
			"-0.004": 12.3084056817,
			"-0.003": 27.2366288351,
			"-0.002": 40.027392487,
			"-0.001": 38.0730636957,
			"0.0": 37.7627528075,
			"0.001": 31.2846052987,
			"0.002": 13.5432118435,
			"0.003": 4.52514937958,
			"0.004": 3.73604569829,
			"0.005": 3.48106089061,
			"0.006": 3.58429194871,
			"0.007": 2.51191649466,
			"0.008": 2.48660650996,
			"0.009": 1.67825311114,
			"0.01": 1.86420408086,
			"0.011": 2.24688099093,
			"0.012": 4.19599287977,
			"0.013": 1.52526011402,
			"0.014": 0.0,
			"0.015": 0.0,
			"0.016": 0.0,
			"0.017": 0.0,
			"0.018": 0.0,
			"0.019": 0.0,
			"0.02": 0.0,
			"0.021": 0.0,
			"0.022": 0.0,
			"0.023": 0.0,
			"0.024": 0.0,
			"0.025": 0.0
		}
	}
}
