{
	 "smiles": "CC(Cl)C(=O)N1CCN(CC1)C(=O)OC(C)(C)C", 
	 "Tm": 389.15, 
	 "num_atms": 39, 
	 "gaussian": { 
		 "optdone": 1, 
		 "sigma_profile": "yes", 
		 "theory": "DFT", 
		 "functional": "B3LYP", 
		 "basiset": "6-31G**", 
		 "properties": { 
			 "R2extent": 7475.4163, 
			 "electric_dipole_moment_norm": 3.59093793458, 
			 "electric_quadrupole_moment_norm": 16.8052431988, 
			 "total_energy": -1265.34835593, 
			 "HOMO_LUMO_gap": 0.22429, 
			 "cosmo_polarized_energy": -14.92, 
			 "cosmo_cavitation_energy": 40.97, 
			 "cosmo_dispersion_energy": -28.38, 
			 "cosmo_repulsion_energy": 2.22, 
			 "cosmo_total_nonelectrostatic_energy": 14.81, 
			 "SMD_solvation_energy": 6.77 
		},
		"coords": [
			{
				"x": 2.2620089469,
				"y": -3.9118034412,
				"z": -2.2768509514,
				"element": "C" 
			},
			{
				"x": 1.7761889893,
				"y": -2.6079835702,
				"z": -2.9018114047,
				"element": "C" 
			},
			{
				"x": -0.0620120585,
				"y": -2.5794836286,
				"z": -3.0144571944,
				"element": "Cl" 
			},
			{
				"x": 2.3596267486,
				"y": -1.3297468308,
				"z": -2.2707495273,
				"element": "C" 
			},
			{
				"x": 3.1527855523,
				"y": -0.6829900197,
				"z": -2.951218353,
				"element": "O" 
			},
			{
				"x": 2.0661770848,
				"y": -0.9603338719,
				"z": -0.9897633993,
				"element": "N" 
			},
			{
				"x": 2.7282080754,
				"y": 0.2694375209,
				"z": -0.5107871557,
				"element": "C" 
			},
			{
				"x": 2.44030924,
				"y": 0.4944969359,
				"z": 0.970969152,
				"element": "C" 
			},
			{
				"x": 1.0056612786,
				"y": 0.452290956,
				"z": 1.2356016696,
				"element": "N" 
			},
			{
				"x": 0.221435767,
				"y": -0.6159127274,
				"z": 0.6091514085,
				"element": "C" 
			},
			{
				"x": 1.1594736814,
				"y": -1.6266004833,
				"z": -0.0543876409,
				"element": "C" 
			},
			{
				"x": 0.4318568931,
				"y": 1.4551344341,
				"z": 1.9744342951,
				"element": "C" 
			},
			{
				"x": 1.0579644402,
				"y": 2.3769870065,
				"z": 2.4794021067,
				"element": "O" 
			},
			{
				"x": -0.9067723062,
				"y": 1.2623107666,
				"z": 2.0557785873,
				"element": "O" 
			},
			{
				"x": -1.7620645428,
				"y": 2.2008278146,
				"z": 2.8011888525,
				"element": "C" 
			},
			{
				"x": -1.3602347928,
				"y": 2.2162043248,
				"z": 4.2797838913,
				"element": "C" 
			},
			{
				"x": -1.6912366046,
				"y": 3.5927798983,
				"z": 2.1645087611,
				"element": "C" 
			},
			{
				"x": -3.1554675422,
				"y": 1.5922056219,
				"z": 2.6228164572,
				"element": "C" 
			},
			{
				"x": 1.9207884239,
				"y": -4.0390598945,
				"z": -1.2474633876,
				"element": "H" 
			},
			{
				"x": 1.9136843165,
				"y": -4.7652403561,
				"z": -2.8634194203,
				"element": "H" 
			},
			{
				"x": 3.3576518215,
				"y": -3.9143403698,
				"z": -2.2805464095,
				"element": "H" 
			},
			{
				"x": 2.0971314203,
				"y": -2.5477483757,
				"z": -3.9398244059,
				"element": "H" 
			},
			{
				"x": 2.3735835012,
				"y": 1.1211124195,
				"z": -1.102563158,
				"element": "H" 
			},
			{
				"x": 3.8060120843,
				"y": 0.1890160888,
				"z": -0.6832057023,
				"element": "H" 
			},
			{
				"x": 2.8021125802,
				"y": 1.4765310889,
				"z": 1.2763297259,
				"element": "H" 
			},
			{
				"x": 2.9685659708,
				"y": -0.2520062904,
				"z": 1.5807981598,
				"element": "H" 
			},
			{
				"x": -0.3896126573,
				"y": -1.1293822525,
				"z": 1.3590701469,
				"element": "H" 
			},
			{
				"x": -0.4616294208,
				"y": -0.2031580122,
				"z": -0.1429791308,
				"element": "H" 
			},
			{
				"x": 0.5507055412,
				"y": -2.354685401,
				"z": -0.5845254204,
				"element": "H" 
			},
			{
				"x": 1.7338567965,
				"y": -2.1629928006,
				"z": 0.7136463362,
				"element": "H" 
			},
			{
				"x": -0.3589552439,
				"y": 2.6276990622,
				"z": 4.4077559656,
				"element": "H" 
			},
			{
				"x": -2.0702856531,
				"y": 2.8272748546,
				"z": 4.8464844789,
				"element": "H" 
			},
			{
				"x": -1.3832939504,
				"y": 1.2015763932,
				"z": 4.6903131578,
				"element": "H" 
			},
			{
				"x": -1.9448312506,
				"y": 3.5372360874,
				"z": 1.1010538122,
				"element": "H" 
			},
			{
				"x": -0.6935406312,
				"y": 4.0193525831,
				"z": 2.2692007867,
				"element": "H" 
			},
			{
				"x": -2.4136838899,
				"y": 4.2560907946,
				"z": 2.6511670404,
				"element": "H" 
			},
			{
				"x": -3.4215504771,
				"y": 1.5391138891,
				"z": 1.5631063972,
				"element": "H" 
			},
			{
				"x": -3.1924586488,
				"y": 0.5811639571,
				"z": 3.0390920537,
				"element": "H" 
			},
			{
				"x": -3.9014594836,
				"y": 2.2054258277,
				"z": 3.1368994186,
				"element": "H" 
			}
		],
		 "valence_orbital": [ 
			{
				"type": "occ",
				"energy": -0.28936,
				"method": "rhf"
			},
			{
				"type": "occ",
				"energy": -0.26415,
				"method": "rhf"
			},
			{
				"type": "occ",
				"energy": -0.25598,
				"method": "rhf"
			},
			{
				"type": "occ",
				"energy": -0.24974,
				"method": "rhf"
			},
			{
				"type": "occ",
				"energy": -0.24083,
				"method": "rhf"
			},
			{
				"type": "unocc",
				"energy": -0.01654,
				"method": "rhf"
			},
			{
				"type": "unocc",
				"energy": 0.04469,
				"method": "rhf"
			},
			{
				"type": "unocc",
				"energy": 0.05162,
				"method": "rhf"
			},
			{
				"type": "unocc",
				"energy": 0.07271,
				"method": "rhf"
			},
			{
				"type": "unocc",
				"energy": 0.08536,
				"method": "rhf"
			}
		],
		"cosmo_sigma_profile": { 
			"-0.025": 0.0,
			"-0.024": 0.0,
			"-0.023": 0.0,
			"-0.022": 0.0,
			"-0.021": 0.0,
			"-0.02": 0.0,
			"-0.019": 0.0,
			"-0.018": 0.0,
			"-0.017": 0.0,
			"-0.016": 0.0,
			"-0.015": 0.0,
			"-0.014": 0.0,
			"-0.013": 0.0,
			"-0.012": 0.0,
			"-0.011": 0.0,
			"-0.01": 0.0,
			"-0.009": 0.0,
			"-0.008": 0.289688194212,
			"-0.007": 2.43416881797,
			"-0.006": 11.7099848057,
			"-0.005": 27.3361879312,
			"-0.004": 33.9845044508,
			"-0.003": 35.8918868159,
			"-0.002": 31.8133807866,
			"-0.001": 30.4399949099,
			"0.0": 35.3317014666,
			"0.001": 27.5427953917,
			"0.002": 13.5662534293,
			"0.003": 10.7452619239,
			"0.004": 9.66254400789,
			"0.005": 10.7312658201,
			"0.006": 9.78803988553,
			"0.007": 3.66277492003,
			"0.008": 2.69358155529,
			"0.009": 1.83277320911,
			"0.01": 3.31283900576,
			"0.011": 3.22249712052,
			"0.012": 3.91280329949,
			"0.013": 7.74064752718,
			"0.014": 3.4706390197,
			"0.015": 0.0434966815677,
			"0.016": 0.0,
			"0.017": 0.0,
			"0.018": 0.0,
			"0.019": 0.0,
			"0.02": 0.0,
			"0.021": 0.0,
			"0.022": 0.0,
			"0.023": 0.0,
			"0.024": 0.0,
			"0.025": 0.0
		}
	}
}
