{
	 "smiles": "NNC1=C2NC=NC2=NC=N1", 
	 "Tm": 509.15, 
	 "num_atms": 17, 
	 "gaussian": { 
		 "optdone": 1, 
		 "sigma_profile": "yes", 
		 "theory": "DFT", 
		 "functional": "B3LYP", 
		 "basiset": "6-31G**", 
		 "properties": { 
			 "R2extent": 1925.9613, 
			 "electric_dipole_moment_norm": 8.09146307289, 
			 "electric_quadrupole_moment_norm": 8.7545314215, 
			 "total_energy": -522.629475104, 
			 "HOMO_LUMO_gap": 0.19993, 
			 "cosmo_polarized_energy": -23.87, 
			 "cosmo_cavitation_energy": 21.34, 
			 "cosmo_dispersion_energy": -16.64, 
			 "cosmo_repulsion_energy": 1.34, 
			 "cosmo_total_nonelectrostatic_energy": 6.05, 
			 "SMD_solvation_energy": -0.54 
		},
		"coords": [
			{
				"x": -0.3150379902,
				"y": -2.3460015213,
				"z": 0.0945766052,
				"element": "N" 
			},
			{
				"x": 1.0852071467,
				"y": -2.1881069523,
				"z": 0.1318386897,
				"element": "N" 
			},
			{
				"x": 1.5998377135,
				"y": -0.9096624328,
				"z": 0.0283918176,
				"element": "C" 
			},
			{
				"x": 0.9055864046,
				"y": 0.1796573023,
				"z": -0.5115223899,
				"element": "C" 
			},
			{
				"x": -0.3564556674,
				"y": 0.3997857806,
				"z": -1.0228341044,
				"element": "N" 
			},
			{
				"x": -0.3866559373,
				"y": 1.718820874,
				"z": -1.3928259113,
				"element": "C" 
			},
			{
				"x": 0.7376415949,
				"y": 2.3633014953,
				"z": -1.1738938003,
				"element": "N" 
			},
			{
				"x": 1.5750612762,
				"y": 1.4158780649,
				"z": -0.6154537112,
				"element": "C" 
			},
			{
				"x": 2.8481243705,
				"y": 1.5981250199,
				"z": -0.2162717492,
				"element": "N" 
			},
			{
				"x": 3.4021113811,
				"y": 0.5001343815,
				"z": 0.285506211,
				"element": "C" 
			},
			{
				"x": 2.8580060135,
				"y": -0.72692659,
				"z": 0.436823339,
				"element": "N" 
			},
			{
				"x": -0.5316303061,
				"y": -3.1981360567,
				"z": -0.4146449652,
				"element": "H" 
			},
			{
				"x": -0.7002337397,
				"y": -2.4293382614,
				"z": 1.0357095038,
				"element": "H" 
			},
			{
				"x": 1.6322398069,
				"y": -2.7906182778,
				"z": 0.7395529478,
				"element": "H" 
			},
			{
				"x": -1.0874692323,
				"y": -0.2952589324,
				"z": -1.0508561816,
				"element": "H" 
			},
			{
				"x": -1.2752858952,
				"y": 2.1599696825,
				"z": -1.8262426557,
				"element": "H" 
			},
			{
				"x": 4.4306530604,
				"y": 0.5905764236,
				"z": 0.6294463547,
				"element": "H" 
			}
		],
		 "valence_orbital": [ 
			{
				"type": "occ",
				"energy": -0.28632,
				"method": "rhf"
			},
			{
				"type": "occ",
				"energy": -0.27212,
				"method": "rhf"
			},
			{
				"type": "occ",
				"energy": -0.25392,
				"method": "rhf"
			},
			{
				"type": "occ",
				"energy": -0.24082,
				"method": "rhf"
			},
			{
				"type": "occ",
				"energy": -0.22167,
				"method": "rhf"
			},
			{
				"type": "unocc",
				"energy": -0.02174,
				"method": "rhf"
			},
			{
				"type": "unocc",
				"energy": 0.01019,
				"method": "rhf"
			},
			{
				"type": "unocc",
				"energy": 0.04502,
				"method": "rhf"
			},
			{
				"type": "unocc",
				"energy": 0.05655,
				"method": "rhf"
			},
			{
				"type": "unocc",
				"energy": 0.09127,
				"method": "rhf"
			}
		],
		"cosmo_sigma_profile": { 
			"-0.025": 0.0,
			"-0.024": 0.0,
			"-0.023": 0.0,
			"-0.022": 0.0,
			"-0.021": 0.0,
			"-0.02": 0.0,
			"-0.019": 0.0,
			"-0.018": 0.0,
			"-0.017": 0.0,
			"-0.016": 0.12839547757,
			"-0.015": 0.536107871098,
			"-0.014": 1.05729974466,
			"-0.013": 2.47678931244,
			"-0.012": 6.17407646192,
			"-0.011": 6.69854528466,
			"-0.01": 7.73170913793,
			"-0.009": 7.31584288972,
			"-0.008": 4.8180193665,
			"-0.007": 3.56416785021,
			"-0.006": 5.54320901412,
			"-0.005": 5.35990401176,
			"-0.004": 5.24890606189,
			"-0.003": 4.99908164032,
			"-0.002": 6.15546081465,
			"-0.001": 9.2827443815,
			"0.0": 16.9578952792,
			"0.001": 12.7977383564,
			"0.002": 7.72208309424,
			"0.003": 5.87060617077,
			"0.004": 5.54088624486,
			"0.005": 5.72109303896,
			"0.006": 3.48643258559,
			"0.007": 4.1930433838,
			"0.008": 4.10626620747,
			"0.009": 2.91094962288,
			"0.01": 3.22730274386,
			"0.011": 3.10768955535,
			"0.012": 3.65371762984,
			"0.013": 2.23237734631,
			"0.014": 4.6959132687,
			"0.015": 3.3375302484,
			"0.016": 2.82711108001,
			"0.017": 1.2691379942,
			"0.018": 0.0246612042235,
			"0.019": 0.0,
			"0.02": 0.0,
			"0.021": 0.0,
			"0.022": 0.0,
			"0.023": 0.0,
			"0.024": 0.0,
			"0.025": 0.0
		}
	}
}
