{
	 "smiles": "CC(C)(C)C(O)=O", 
	 "Tm": 307.65, 
	 "num_atms": 17, 
	 "gaussian": { 
		 "optdone": 1, 
		 "sigma_profile": "yes", 
		 "theory": "DFT", 
		 "functional": "B3LYP", 
		 "basiset": "6-31G**", 
		 "properties": { 
			 "R2extent": 779.8326, 
			 "electric_dipole_moment_norm": 4.20972605047, 
			 "electric_quadrupole_moment_norm": 7.55883126548, 
			 "total_energy": -347.025904684, 
			 "HOMO_LUMO_gap": 0.27646, 
			 "cosmo_polarized_energy": -12.11, 
			 "cosmo_cavitation_energy": 19.3, 
			 "cosmo_dispersion_energy": -13.95, 
			 "cosmo_repulsion_energy": 1.17, 
			 "cosmo_total_nonelectrostatic_energy": 6.53, 
			 "SMD_solvation_energy": 4.68 
		},
		"coords": [
			{
				"x": 0.2775873324,
				"y": 1.0126384388,
				"z": -1.1207747755,
				"element": "C" 
			},
			{
				"x": 0.4355802586,
				"y": 0.0866956756,
				"z": 0.0946228691,
				"element": "C" 
			},
			{
				"x": 0.8895899553,
				"y": 0.9090223432,
				"z": 1.3230463945,
				"element": "C" 
			},
			{
				"x": 1.4753396024,
				"y": -1.0143337776,
				"z": -0.2182909256,
				"element": "C" 
			},
			{
				"x": -0.9288970691,
				"y": -0.5674736889,
				"z": 0.3927708091,
				"element": "C" 
			},
			{
				"x": -0.9653096158,
				"y": -1.4271463763,
				"z": 1.4496614846,
				"element": "O" 
			},
			{
				"x": -1.9364483583,
				"y": -0.3664669276,
				"z": -0.2386446504,
				"element": "O" 
			},
			{
				"x": -0.057045787,
				"y": 0.4539196826,
				"z": -1.9981584391,
				"element": "H" 
			},
			{
				"x": -0.4640140935,
				"y": 1.7912032031,
				"z": -0.9263618986,
				"element": "H" 
			},
			{
				"x": 1.234453289,
				"y": 1.4908982545,
				"z": -1.3542026614,
				"element": "H" 
			},
			{
				"x": 1.8390324157,
				"y": 1.408405833,
				"z": 1.1047763198,
				"element": "H" 
			},
			{
				"x": 0.1536775442,
				"y": 1.6775891637,
				"z": 1.5786747153,
				"element": "H" 
			},
			{
				"x": 1.0480468858,
				"y": 0.2888197489,
				"z": 2.2130694902,
				"element": "H" 
			},
			{
				"x": 1.6496928971,
				"y": -1.6861505509,
				"z": 0.6303581688,
				"element": "H" 
			},
			{
				"x": 2.4371627069,
				"y": -0.5556896844,
				"z": -0.4692827293,
				"element": "H" 
			},
			{
				"x": 1.1597891061,
				"y": -1.626263337,
				"z": -1.0689273971,
				"element": "H" 
			},
			{
				"x": -0.0925370698,
				"y": -1.4925680007,
				"z": 1.8609632256,
				"element": "H" 
			}
		],
		 "valence_orbital": [ 
			{
				"type": "occ",
				"energy": -0.35441,
				"method": "rhf"
			},
			{
				"type": "occ",
				"energy": -0.34664,
				"method": "rhf"
			},
			{
				"type": "occ",
				"energy": -0.34602,
				"method": "rhf"
			},
			{
				"type": "occ",
				"energy": -0.31173,
				"method": "rhf"
			},
			{
				"type": "occ",
				"energy": -0.26342,
				"method": "rhf"
			},
			{
				"type": "unocc",
				"energy": 0.01304,
				"method": "rhf"
			},
			{
				"type": "unocc",
				"energy": 0.03941,
				"method": "rhf"
			},
			{
				"type": "unocc",
				"energy": 0.09961,
				"method": "rhf"
			},
			{
				"type": "unocc",
				"energy": 0.11911,
				"method": "rhf"
			},
			{
				"type": "unocc",
				"energy": 0.1358,
				"method": "rhf"
			}
		],
		"cosmo_sigma_profile": { 
			"-0.025": 0.0,
			"-0.024": 0.0,
			"-0.023": 0.0,
			"-0.022": 0.0,
			"-0.021": 0.0,
			"-0.02": 0.0,
			"-0.019": 0.0,
			"-0.018": 0.0909826197597,
			"-0.017": 0.571769507812,
			"-0.016": 1.20012009125,
			"-0.015": 1.14236856663,
			"-0.014": 0.723477205241,
			"-0.013": 0.786001140445,
			"-0.012": 1.2835482304,
			"-0.011": 1.17536306729,
			"-0.01": 0.981970310146,
			"-0.009": 1.00556762413,
			"-0.008": 0.813263606652,
			"-0.007": 1.38846999053,
			"-0.006": 2.43876763211,
			"-0.005": 3.07785780696,
			"-0.004": 15.8089525327,
			"-0.003": 18.2545261859,
			"-0.002": 16.9892870394,
			"-0.001": 17.2833485438,
			"0.0": 17.3721211218,
			"0.001": 9.41091126067,
			"0.002": 3.25053475582,
			"0.003": 2.05078594326,
			"0.004": 1.9468348863,
			"0.005": 1.69181476718,
			"0.006": 2.37792593704,
			"0.007": 2.29644787998,
			"0.008": 2.82190658313,
			"0.009": 3.25741776429,
			"0.01": 4.01793343159,
			"0.011": 5.53708279182,
			"0.012": 5.74509929488,
			"0.013": 2.64700655231,
			"0.014": 0.248031265755,
			"0.015": 0.0,
			"0.016": 0.0,
			"0.017": 0.0,
			"0.018": 0.0,
			"0.019": 0.0,
			"0.02": 0.0,
			"0.021": 0.0,
			"0.022": 0.0,
			"0.023": 0.0,
			"0.024": 0.0,
			"0.025": 0.0
		}
	}
}
