{
	 "smiles": "OC(=O)C1=CC(=CC=C1)N1C(=O)CCC1=O", 
	 "Tm": 511.15, 
	 "num_atms": 25, 
	 "gaussian": { 
		 "optdone": 1, 
		 "sigma_profile": "yes", 
		 "theory": "DFT", 
		 "functional": "B3LYP", 
		 "basiset": "6-31G**", 
		 "properties": { 
			 "R2extent": 4121.6679, 
			 "electric_dipole_moment_norm": 6.45790595549, 
			 "electric_quadrupole_moment_norm": 18.0253762374, 
			 "total_energy": -780.280968739, 
			 "HOMO_LUMO_gap": 0.20481, 
			 "cosmo_polarized_energy": -20.33, 
			 "cosmo_cavitation_energy": 29.89, 
			 "cosmo_dispersion_energy": -21.81, 
			 "cosmo_repulsion_energy": 1.69, 
			 "cosmo_total_nonelectrostatic_energy": 9.77, 
			 "SMD_solvation_energy": 7.46 
		},
		"coords": [
			{
				"x": 0.1325020113,
				"y": 3.6675021492,
				"z": -1.042812828,
				"element": "O" 
			},
			{
				"x": -0.415417945,
				"y": 3.0289793477,
				"z": -2.1102828637,
				"element": "C" 
			},
			{
				"x": -0.8222657385,
				"y": 3.6629326539,
				"z": -3.055169923,
				"element": "O" 
			},
			{
				"x": -0.4745276306,
				"y": 1.5314189167,
				"z": -2.0383806306,
				"element": "C" 
			},
			{
				"x": -0.4580146851,
				"y": 0.8477069318,
				"z": -0.8183743364,
				"element": "C" 
			},
			{
				"x": -0.4949771473,
				"y": -0.5498364918,
				"z": -0.7997003196,
				"element": "C" 
			},
			{
				"x": -0.5646579242,
				"y": -1.2654041242,
				"z": -2.0004358011,
				"element": "C" 
			},
			{
				"x": -0.6150074538,
				"y": -0.5738386548,
				"z": -3.21186313,
				"element": "C" 
			},
			{
				"x": -0.5751758435,
				"y": 0.8170169941,
				"z": -3.2383783614,
				"element": "C" 
			},
			{
				"x": -0.4553314677,
				"y": -1.2396266997,
				"z": 0.4522400233,
				"element": "N" 
			},
			{
				"x": 0.3255888353,
				"y": -0.8194646444,
				"z": 1.5488305193,
				"element": "C" 
			},
			{
				"x": 1.0252940123,
				"y": 0.1699461336,
				"z": 1.5710120091,
				"element": "O" 
			},
			{
				"x": 0.1314973463,
				"y": -1.8180086756,
				"z": 2.6815002161,
				"element": "C" 
			},
			{
				"x": -0.8897716405,
				"y": -2.8340192632,
				"z": 2.1616880552,
				"element": "C" 
			},
			{
				"x": -1.1877659589,
				"y": -2.4162295503,
				"z": 0.7277377988,
				"element": "C" 
			},
			{
				"x": -1.9210087334,
				"y": -2.9799229305,
				"z": -0.0522721757,
				"element": "O" 
			},
			{
				"x": 0.5693596283,
				"y": 3.0326349187,
				"z": -0.4568246139,
				"element": "H" 
			},
			{
				"x": -0.4336323893,
				"y": 1.3838238079,
				"z": 0.1213596685,
				"element": "H" 
			},
			{
				"x": -0.6018403536,
				"y": -2.3464255039,
				"z": -1.9842629711,
				"element": "H" 
			},
			{
				"x": -0.6817134329,
				"y": -1.1329625727,
				"z": -4.1398937926,
				"element": "H" 
			},
			{
				"x": -0.6144999882,
				"y": 1.3691479525,
				"z": -4.170844099,
				"element": "H" 
			},
			{
				"x": -0.1972758928,
				"y": -1.2756039804,
				"z": 3.5721033632,
				"element": "H" 
			},
			{
				"x": 1.1037266044,
				"y": -2.2597768319,
				"z": 2.9191361827,
				"element": "H" 
			},
			{
				"x": -0.5250189347,
				"y": -3.8647069639,
				"z": 2.1560148557,
				"element": "H" 
			},
			{
				"x": -1.8296652781,
				"y": -2.8320829187,
				"z": 2.721373154,
				"element": "H" 
			}
		],
		 "valence_orbital": [ 
			{
				"type": "occ",
				"energy": -0.30371,
				"method": "rhf"
			},
			{
				"type": "occ",
				"energy": -0.27853,
				"method": "rhf"
			},
			{
				"type": "occ",
				"energy": -0.27593,
				"method": "rhf"
			},
			{
				"type": "occ",
				"energy": -0.26882,
				"method": "rhf"
			},
			{
				"type": "occ",
				"energy": -0.25766,
				"method": "rhf"
			},
			{
				"type": "unocc",
				"energy": -0.05285,
				"method": "rhf"
			},
			{
				"type": "unocc",
				"energy": -0.03857,
				"method": "rhf"
			},
			{
				"type": "unocc",
				"energy": -0.03591,
				"method": "rhf"
			},
			{
				"type": "unocc",
				"energy": 0.01374,
				"method": "rhf"
			},
			{
				"type": "unocc",
				"energy": 0.05077,
				"method": "rhf"
			}
		],
		"cosmo_sigma_profile": { 
			"-0.025": 0.0,
			"-0.024": 0.0,
			"-0.023": 0.0,
			"-0.022": 0.0,
			"-0.021": 0.0,
			"-0.02": 0.0,
			"-0.019": 0.0,
			"-0.018": 0.0,
			"-0.017": 0.237927535631,
			"-0.016": 1.30078071997,
			"-0.015": 0.694295169459,
			"-0.014": 0.456018953356,
			"-0.013": 1.80805455397,
			"-0.012": 1.20880984256,
			"-0.011": 0.934863799594,
			"-0.01": 1.00790248988,
			"-0.009": 1.8023318398,
			"-0.008": 5.79022210519,
			"-0.007": 21.3635364367,
			"-0.006": 20.9231203486,
			"-0.005": 16.3979275729,
			"-0.004": 14.7742206701,
			"-0.003": 15.4097336489,
			"-0.002": 11.8570858157,
			"-0.001": 9.16212502557,
			"0.0": 9.10135421652,
			"0.001": 12.2316725578,
			"0.002": 16.243210036,
			"0.003": 10.1762742312,
			"0.004": 5.65943415915,
			"0.005": 5.6550891282,
			"0.006": 5.02751542808,
			"0.007": 5.00400486296,
			"0.008": 6.18402686429,
			"0.009": 7.23674379149,
			"0.01": 9.54196432812,
			"0.011": 12.5766770432,
			"0.012": 8.04532251436,
			"0.013": 1.5211343266,
			"0.014": 0.0199249781454,
			"0.015": 0.0,
			"0.016": 0.0,
			"0.017": 0.0,
			"0.018": 0.0,
			"0.019": 0.0,
			"0.02": 0.0,
			"0.021": 0.0,
			"0.022": 0.0,
			"0.023": 0.0,
			"0.024": 0.0,
			"0.0": 0.0
		}
	}
}
