{
	 "smiles": "[O-][N+](=O)C1=CC(Br)=C(Br)N=C1", 
	 "Tm": 350.15, 
	 "num_atms": 13, 
	 "gaussian": { 
		 "optdone": 1, 
		 "sigma_profile": "yes", 
		 "theory": "DFT", 
		 "functional": "B3LYP", 
		 "basiset": "6-31G**", 
		 "properties": { 
			 "R2extent": 4411.3559, 
			 "electric_dipole_moment_norm": 1.90669507263, 
			 "electric_quadrupole_moment_norm": 7.54712901506, 
			 "total_energy": -5594.37396401, 
			 "HOMO_LUMO_gap": 0.16411, 
			 "cosmo_polarized_energy": -7.96, 
			 "cosmo_cavitation_energy": 23.52, 
			 "cosmo_dispersion_energy": -18.23, 
			 "cosmo_repulsion_energy": 1.46, 
			 "cosmo_total_nonelectrostatic_energy": 6.75, 
			 "SMD_solvation_energy": 2.89 
		},
		"coords": [
			{
				"x": 1.2803470628,
				"y": -0.9440426752,
				"z": 2.631813883,
				"element": "O" 
			},
			{
				"x": 1.3157002611,
				"y": -1.3155098356,
				"z": 1.4606456092,
				"element": "N" 
			},
			{
				"x": 1.9432584083,
				"y": -2.2838848096,
				"z": 1.0379953462,
				"element": "O" 
			},
			{
				"x": 0.5427830766,
				"y": -0.5393216018,
				"z": 0.4828910846,
				"element": "C" 
			},
			{
				"x": -0.1868716282,
				"y": 0.5665315337,
				"z": 0.9072067647,
				"element": "C" 
			},
			{
				"x": -0.907583286,
				"y": 1.2789614866,
				"z": -0.0446284049,
				"element": "C" 
			},
			{
				"x": -1.9091466502,
				"y": 2.7870359685,
				"z": 0.5040036707,
				"element": "Br" 
			},
			{
				"x": -0.8535998777,
				"y": 0.8354165562,
				"z": -1.381752057,
				"element": "C" 
			},
			{
				"x": -1.8043136434,
				"y": 1.742477307,
				"z": -2.7542424951,
				"element": "Br" 
			},
			{
				"x": -0.1526117272,
				"y": -0.220211054,
				"z": -1.7653558172,
				"element": "N" 
			},
			{
				"x": 0.542119895,
				"y": -0.9102131874,
				"z": -0.8593489622,
				"element": "C" 
			},
			{
				"x": -0.1844083004,
				"y": 0.852416978,
				"z": 1.9512916784,
				"element": "H" 
			},
			{
				"x": 1.1077264092,
				"y": -1.7705566666,
				"z": -1.1995203004,
				"element": "H" 
			}
		],
		 "valence_orbital": [ 
			{
				"type": "occ",
				"energy": -0.31452,
				"method": "rhf"
			},
			{
				"type": "occ",
				"energy": -0.31122,
				"method": "rhf"
			},
			{
				"type": "occ",
				"energy": -0.30781,
				"method": "rhf"
			},
			{
				"type": "occ",
				"energy": -0.29156,
				"method": "rhf"
			},
			{
				"type": "occ",
				"energy": -0.27965,
				"method": "rhf"
			},
			{
				"type": "unocc",
				"energy": -0.11554,
				"method": "rhf"
			},
			{
				"type": "unocc",
				"energy": -0.0727,
				"method": "rhf"
			},
			{
				"type": "unocc",
				"energy": -0.03904,
				"method": "rhf"
			},
			{
				"type": "unocc",
				"energy": -0.03424,
				"method": "rhf"
			},
			{
				"type": "unocc",
				"energy": 0.00588,
				"method": "rhf"
			}
		],
		"cosmo_sigma_profile": { 
			"-0.025": 0.0,
			"-0.024": 0.0,
			"-0.023": 0.0,
			"-0.022": 0.0,
			"-0.021": 0.0,
			"-0.02": 0.0,
			"-0.019": 0.0,
			"-0.018": 0.0,
			"-0.017": 0.0,
			"-0.016": 0.0,
			"-0.015": 0.0,
			"-0.014": 0.0,
			"-0.013": 0.0,
			"-0.012": 0.0,
			"-0.011": 0.0,
			"-0.01": 0.906015163683,
			"-0.009": 2.64978123494,
			"-0.008": 4.8333243302,
			"-0.007": 5.45731984531,
			"-0.006": 8.59703587615,
			"-0.005": 13.603785553,
			"-0.004": 18.6588421453,
			"-0.003": 15.4817666515,
			"-0.002": 12.2141897518,
			"-0.001": 10.548093297,
			"0.0": 10.6868792827,
			"0.001": 13.1487459092,
			"0.002": 17.6526793315,
			"0.003": 19.5517291603,
			"0.004": 8.95376747733,
			"0.005": 4.91063485151,
			"0.006": 8.40933272743,
			"0.007": 9.3471346795,
			"0.008": 5.48277969376,
			"0.009": 3.75913310271,
			"0.01": 0.833276923991,
			"0.011": 0.903182541147,
			"0.012": 0.464793268046,
			"0.013": 0.0,
			"0.014": 0.0,
			"0.015": 0.0,
			"0.016": 0.0,
			"0.017": 0.0,
			"0.018": 0.0,
			"0.019": 0.0,
			"0.02": 0.0,
			"0.021": 0.0,
			"0.022": 0.0,
			"0.023": 0.0,
			"0.024": 0.0,
			"0.025": 0.0
		}
	}
}
