{
	 "smiles": "COC1=CC=C(NS(=O)(=O)C2=C(OC)C=CC(N)=C2)C=C1", 
	 "Tm": 407.15, 
	 "num_atms": 37, 
	 "gaussian": { 
		 "optdone": 1, 
		 "sigma_profile": "yes", 
		 "theory": "DFT", 
		 "functional": "B3LYP", 
		 "basiset": "6-31G**", 
		 "properties": { 
			 "R2extent": 7469.1632, 
			 "electric_dipole_moment_norm": 6.74482903935, 
			 "electric_quadrupole_moment_norm": 23.782509224, 
			 "total_energy": -1351.62401221, 
			 "HOMO_LUMO_gap": 0.17452, 
			 "cosmo_polarized_energy": -24.14, 
			 "cosmo_cavitation_energy": 42.06, 
			 "cosmo_dispersion_energy": -29.4, 
			 "cosmo_repulsion_energy": 2.23, 
			 "cosmo_total_nonelectrostatic_energy": 14.89, 
			 "SMD_solvation_energy": 7.57 
		},
		"coords": [
			{
				"x": -4.550774635,
				"y": 1.6003990983,
				"z": -2.8712703334,
				"element": "C" 
			},
			{
				"x": -3.6774440161,
				"y": 2.3638723125,
				"z": -2.0556250336,
				"element": "O" 
			},
			{
				"x": -2.8679905416,
				"y": 1.6984244851,
				"z": -1.1787415045,
				"element": "C" 
			},
			{
				"x": -2.8278404882,
				"y": 0.3068543896,
				"z": -1.0275357352,
				"element": "C" 
			},
			{
				"x": -1.9737618535,
				"y": -0.2702384704,
				"z": -0.0860965136,
				"element": "C" 
			},
			{
				"x": -1.1317229166,
				"y": 0.5286156847,
				"z": 0.6912475981,
				"element": "C" 
			},
			{
				"x": -0.2861960328,
				"y": -0.0604085526,
				"z": 1.6809185994,
				"element": "N" 
			},
			{
				"x": 1.0089746293,
				"y": -1.0628648508,
				"z": 1.2345832199,
				"element": "S" 
			},
			{
				"x": 0.4812270315,
				"y": -2.0826143955,
				"z": 0.3255518123,
				"element": "O" 
			},
			{
				"x": 1.6598211281,
				"y": -1.4274465224,
				"z": 2.4912076979,
				"element": "O" 
			},
			{
				"x": 2.1323526779,
				"y": -0.0352101196,
				"z": 0.2712182328,
				"element": "C" 
			},
			{
				"x": 2.6500273376,
				"y": 1.1622911059,
				"z": 0.7971411612,
				"element": "C" 
			},
			{
				"x": 2.1840479614,
				"y": 1.5658277135,
				"z": 2.0217116251,
				"element": "O" 
			},
			{
				"x": 2.87088763,
				"y": 2.6182257332,
				"z": 2.6870090825,
				"element": "C" 
			},
			{
				"x": 3.5709567381,
				"y": 1.8757038067,
				"z": 0.0266837791,
				"element": "C" 
			},
			{
				"x": 3.9601070368,
				"y": 1.408919915,
				"z": -1.2292721839,
				"element": "C" 
			},
			{
				"x": 3.4360124609,
				"y": 0.2227664148,
				"z": -1.7621270019,
				"element": "C" 
			},
			{
				"x": 3.8658525446,
				"y": -0.2702691917,
				"z": -2.9972772576,
				"element": "N" 
			},
			{
				"x": 2.5108864233,
				"y": -0.4937417327,
				"z": -0.9860813952,
				"element": "C" 
			},
			{
				"x": -1.1645533453,
				"y": 1.9212658265,
				"z": 0.5245324056,
				"element": "C" 
			},
			{
				"x": -2.0336384638,
				"y": 2.5027546233,
				"z": -0.3893995852,
				"element": "C" 
			},
			{
				"x": -5.2657976569,
				"y": 1.0226979086,
				"z": -2.2711589443,
				"element": "H" 
			},
			{
				"x": -3.9986889361,
				"y": 0.9139614234,
				"z": -3.5265773707,
				"element": "H" 
			},
			{
				"x": -5.0967723026,
				"y": 2.3190578157,
				"z": -3.4846001704,
				"element": "H" 
			},
			{
				"x": -3.4662219313,
				"y": -0.3371716357,
				"z": -1.6204802357,
				"element": "H" 
			},
			{
				"x": -1.9514778912,
				"y": -1.3453249806,
				"z": 0.0455782931,
				"element": "H" 
			},
			{
				"x": 0.0703977839,
				"y": 0.6035707961,
				"z": 2.3633922595,
				"element": "H" 
			},
			{
				"x": 2.7469591228,
				"y": 3.576062018,
				"z": 2.1660026742,
				"element": "H" 
			},
			{
				"x": 2.423450728,
				"y": 2.6893461559,
				"z": 3.6791966191,
				"element": "H" 
			},
			{
				"x": 3.9393047079,
				"y": 2.393616089,
				"z": 2.7854374006,
				"element": "H" 
			},
			{
				"x": 3.9916345931,
				"y": 2.8042444141,
				"z": 0.3941881109,
				"element": "H" 
			},
			{
				"x": 4.6844384379,
				"y": 1.9806846735,
				"z": -1.8036529506,
				"element": "H" 
			},
			{
				"x": 3.2255208973,
				"y": -0.9119735929,
				"z": -3.4445206994,
				"element": "H" 
			},
			{
				"x": 4.202231238,
				"y": 0.4305290264,
				"z": -3.6434424691,
				"element": "H" 
			},
			{
				"x": 2.0792394909,
				"y": -1.4213109064,
				"z": -1.3476617195,
				"element": "H" 
			},
			{
				"x": -0.5038307153,
				"y": 2.5474331794,
				"z": 1.1178548592,
				"element": "H" 
			},
			{
				"x": -2.0756188733,
				"y": 3.5792503423,
				"z": -0.5185343265,
				"element": "H" 
			}
		],
		 "valence_orbital": [ 
			{
				"type": "occ",
				"energy": -0.28421,
				"method": "rhf"
			},
			{
				"type": "occ",
				"energy": -0.26191,
				"method": "rhf"
			},
			{
				"type": "occ",
				"energy": -0.25192,
				"method": "rhf"
			},
			{
				"type": "occ",
				"energy": -0.2075,
				"method": "rhf"
			},
			{
				"type": "occ",
				"energy": -0.20316,
				"method": "rhf"
			},
			{
				"type": "unocc",
				"energy": -0.02864,
				"method": "rhf"
			},
			{
				"type": "unocc",
				"energy": -0.00349,
				"method": "rhf"
			},
			{
				"type": "unocc",
				"energy": 0.00634,
				"method": "rhf"
			},
			{
				"type": "unocc",
				"energy": 0.00798,
				"method": "rhf"
			},
			{
				"type": "unocc",
				"energy": 0.06412,
				"method": "rhf"
			}
		],
		"cosmo_sigma_profile": { 
			"-0.025": 0.0,
			"-0.024": 0.0,
			"-0.023": 0.0,
			"-0.022": 0.0,
			"-0.021": 0.0,
			"-0.02": 0.0,
			"-0.019": 0.0,
			"-0.018": 0.0,
			"-0.017": 0.0,
			"-0.016": 0.0,
			"-0.015": 0.0,
			"-0.014": 0.0,
			"-0.013": 0.815835859746,
			"-0.012": 3.95159442788,
			"-0.011": 3.47844723357,
			"-0.01": 4.23409078556,
			"-0.009": 4.00842972638,
			"-0.008": 4.54439407631,
			"-0.007": 8.92772791359,
			"-0.006": 23.1067220831,
			"-0.005": 29.77044153,
			"-0.004": 28.290398794,
			"-0.003": 24.3603442407,
			"-0.002": 16.0992071388,
			"-0.001": 16.1387403874,
			"0.0": 15.1415567002,
			"0.001": 14.4893783701,
			"0.002": 16.7872633543,
			"0.003": 24.9076234296,
			"0.004": 25.8526399765,
			"0.005": 15.9237046379,
			"0.006": 7.43619045973,
			"0.007": 6.4159035097,
			"0.008": 6.62833141602,
			"0.009": 7.08186695507,
			"0.01": 9.58121747346,
			"0.011": 11.4974042257,
			"0.012": 3.62299597648,
			"0.013": 0.73967669531,
			"0.014": 0.419051280717,
			"0.015": 0.211517923283,
			"0.016": 0.0,
			"0.017": 0.0,
			"0.018": 0.0,
			"0.019": 0.0,
			"0.02": 0.0,
			"0.021": 0.0,
			"0.022": 0.0,
			"0.023": 0.0,
			"0.024": 0.0,
			"0.025": 0.0
		}
	}
}
