{
	 "smiles": "CC1=C(C)C(=C(C)C(C)=C1N(=O)=O)N(=O)=O", 
	 "Tm": 485.15, 
	 "num_atms": 28, 
	 "gaussian": { 
		 "optdone": 1, 
		 "sigma_profile": "yes", 
		 "theory": "DFT", 
		 "functional": "B3LYP", 
		 "basiset": "6-31G**", 
		 "properties": { 
			 "R2extent": 3851.184, 
			 "electric_dipole_moment_norm": 0.00080622577483, 
			 "electric_quadrupole_moment_norm": 26.2025996567, 
			 "total_energy": -798.500013312, 
			 "HOMO_LUMO_gap": 0.16911, 
			 "cosmo_polarized_energy": -11.02, 
			 "cosmo_cavitation_energy": 31.35, 
			 "cosmo_dispersion_energy": -22.03, 
			 "cosmo_repulsion_energy": 1.68, 
			 "cosmo_total_nonelectrostatic_energy": 11.01, 
			 "SMD_solvation_energy": 10.06 
		},
		"coords": [
			{
				"x": 1.7877179663,
				"y": 0.9437344248,
				"z": 2.0914603445,
				"element": "C" 
			},
			{
				"x": 0.7746032684,
				"y": 0.8415946187,
				"z": 0.9738428311,
				"element": "C" 
			},
			{
				"x": 1.2015795737,
				"y": 0.8657272745,
				"z": -0.3679495537,
				"element": "C" 
			},
			{
				"x": 2.6766624998,
				"y": 0.9439194725,
				"z": -0.6902896974,
				"element": "C" 
			},
			{
				"x": 0.2170380452,
				"y": 0.7924739025,
				"z": -1.3618437191,
				"element": "C" 
			},
			{
				"x": -1.1598004886,
				"y": 0.6955570703,
				"z": -1.1223511117,
				"element": "C" 
			},
			{
				"x": -2.1767455757,
				"y": 0.6445797902,
				"z": -2.2399814442,
				"element": "C" 
			},
			{
				"x": -1.5865499873,
				"y": 0.6684132134,
				"z": 0.2194780128,
				"element": "C" 
			},
			{
				"x": -3.0579066698,
				"y": 0.5385196299,
				"z": 0.5422312228,
				"element": "C" 
			},
			{
				"x": -0.6021235556,
				"y": 0.7432189443,
				"z": 1.2133139935,
				"element": "C" 
			},
			{
				"x": -1.0497151138,
				"y": 0.7161385729,
				"z": 2.6207479316,
				"element": "N" 
			},
			{
				"x": -0.6308210618,
				"y": -0.1966287098,
				"z": 3.3294920486,
				"element": "O" 
			},
			{
				"x": -1.8114319003,
				"y": 1.6079224063,
				"z": 2.988788212,
				"element": "O" 
			},
			{
				"x": 0.6646934002,
				"y": 0.8194901228,
				"z": -2.769261722,
				"element": "N" 
			},
			{
				"x": 1.2920856445,
				"y": 1.8079396411,
				"z": -3.1438441923,
				"element": "O" 
			},
			{
				"x": 0.3799702314,
				"y": -0.1483029906,
				"z": -3.4715734552,
				"element": "O" 
			},
			{
				"x": 2.300454641,
				"y": -0.0132545015,
				"z": 2.2427445452,
				"element": "H" 
			},
			{
				"x": 1.3357928745,
				"y": 1.2155176719,
				"z": 3.044280331,
				"element": "H" 
			},
			{
				"x": 2.5484615772,
				"y": 1.6909602546,
				"z": 1.8523099734,
				"element": "H" 
			},
			{
				"x": 3.0521389578,
				"y": 1.9651304098,
				"z": -0.5570314595,
				"element": "H" 
			},
			{
				"x": 2.8980137809,
				"y": 0.6560675743,
				"z": -1.7169668544,
				"element": "H" 
			},
			{
				"x": 3.2494225591,
				"y": 0.2928601501,
				"z": -0.0251897139,
				"element": "H" 
			},
			{
				"x": -1.7674521632,
				"y": 0.9696387025,
				"z": -3.1953523965,
				"element": "H" 
			},
			{
				"x": -3.0354987457,
				"y": 1.278746578,
				"z": -2.0061441172,
				"element": "H" 
			},
			{
				"x": -2.5491838677,
				"y": -0.3764201091,
				"z": -2.3830482716,
				"element": "H" 
			},
			{
				"x": -3.2364153132,
				"y": 0.2286212612,
				"z": 1.5708513316,
				"element": "H" 
			},
			{
				"x": -3.5324623736,
				"y": -0.1913486442,
				"z": -0.1183504656,
				"element": "H" 
			},
			{
				"x": -3.5744282036,
				"y": 1.4952832685,
				"z": 0.4028373962,
				"element": "H" 
			}
		],
		 "valence_orbital": [ 
			{
				"type": "occ",
				"energy": -0.31704,
				"method": "rhf"
			},
			{
				"type": "occ",
				"energy": -0.30924,
				"method": "rhf"
			},
			{
				"type": "occ",
				"energy": -0.30382,
				"method": "rhf"
			},
			{
				"type": "occ",
				"energy": -0.26786,
				"method": "rhf"
			},
			{
				"type": "occ",
				"energy": -0.26276,
				"method": "rhf"
			},
			{
				"type": "unocc",
				"energy": -0.09365,
				"method": "rhf"
			},
			{
				"type": "unocc",
				"energy": -0.07799,
				"method": "rhf"
			},
			{
				"type": "unocc",
				"energy": -0.03584,
				"method": "rhf"
			},
			{
				"type": "unocc",
				"energy": -0.02392,
				"method": "rhf"
			},
			{
				"type": "unocc",
				"energy": 0.07614,
				"method": "rhf"
			}
		],
		"cosmo_sigma_profile": { 
			"-0.025": 0.0,
			"-0.024": 0.0,
			"-0.023": 0.0,
			"-0.022": 0.0,
			"-0.021": 0.0,
			"-0.02": 0.0,
			"-0.019": 0.0,
			"-0.018": 0.0,
			"-0.017": 0.0,
			"-0.016": 0.0,
			"-0.015": 0.0,
			"-0.014": 0.0,
			"-0.013": 0.0,
			"-0.012": 0.0,
			"-0.011": 0.0,
			"-0.01": 0.0,
			"-0.009": 0.0,
			"-0.008": 1.13701691895,
			"-0.007": 4.03481288959,
			"-0.006": 14.3442421556,
			"-0.005": 26.2512760407,
			"-0.004": 21.7149730488,
			"-0.003": 23.5364415299,
			"-0.002": 25.5121878128,
			"-0.001": 25.2980056027,
			"0.0": 18.3622847757,
			"0.001": 9.61304456543,
			"0.002": 6.84068862084,
			"0.003": 6.73953556702,
			"0.004": 6.33312469505,
			"0.005": 7.47520079911,
			"0.006": 9.51085305669,
			"0.007": 20.4368023412,
			"0.008": 13.2204727555,
			"0.009": 6.82525195324,
			"0.01": 1.06265334031,
			"0.011": 0.0,
			"0.012": 0.0,
			"0.013": 0.0,
			"0.014": 0.0,
			"0.015": 0.0,
			"0.016": 0.0,
			"0.017": 0.0,
			"0.018": 0.0,
			"0.019": 0.0,
			"0.02": 0.0,
			"0.021": 0.0,
			"0.022": 0.0,
			"0.023": 0.0,
			"0.024": 0.0,
			"0.025": 0.0
		}
	}
}
