{
	 "smiles": "FC(F)C(=O)CC(=O)C1=CC=CO1", 
	 "Tm": 313.15, 
	 "num_atms": 19, 
	 "gaussian": { 
		 "optdone": 1, 
		 "sigma_profile": "yes", 
		 "theory": "DFT", 
		 "functional": "B3LYP", 
		 "basiset": "6-31G**", 
		 "properties": { 
			 "R2extent": 3212.8885, 
			 "electric_dipole_moment_norm": 5.59895125358, 
			 "electric_quadrupole_moment_norm": 11.984054024, 
			 "total_energy": -733.764129008, 
			 "HOMO_LUMO_gap": 0.18624, 
			 "cosmo_polarized_energy": -13.63, 
			 "cosmo_cavitation_energy": 25.71, 
			 "cosmo_dispersion_energy": -18.11, 
			 "cosmo_repulsion_energy": 1.4, 
			 "cosmo_total_nonelectrostatic_energy": 9.0, 
			 "SMD_solvation_energy": 7.5 
		},
		"coords": [
			{
				"x": 0.7999478253,
				"y": -3.8932215956,
				"z": 1.2885966172,
				"element": "F" 
			},
			{
				"x": 0.643949615,
				"y": -2.6320660921,
				"z": 0.8175552854,
				"element": "C" 
			},
			{
				"x": 0.7859221795,
				"y": -1.7536515957,
				"z": 1.86188018,
				"element": "F" 
			},
			{
				"x": -0.7679361075,
				"y": -2.4778014072,
				"z": 0.2168745717,
				"element": "C" 
			},
			{
				"x": -1.3179051954,
				"y": -3.4258851362,
				"z": -0.2929165259,
				"element": "O" 
			},
			{
				"x": -1.400174241,
				"y": -1.097131136,
				"z": 0.2976704356,
				"element": "C" 
			},
			{
				"x": -0.6199004871,
				"y": -0.066170428,
				"z": -0.5254981099,
				"element": "C" 
			},
			{
				"x": 0.4847680355,
				"y": -0.3140123306,
				"z": -0.9877965633,
				"element": "O" 
			},
			{
				"x": -1.2759203372,
				"y": 1.2268966253,
				"z": -0.717837299,
				"element": "C" 
			},
			{
				"x": -2.4898310472,
				"y": 1.7402327609,
				"z": -0.3211500091,
				"element": "C" 
			},
			{
				"x": -2.5502389642,
				"y": 3.0726345793,
				"z": -0.8155054292,
				"element": "C" 
			},
			{
				"x": -1.3704223346,
				"y": 3.2756183424,
				"z": -1.4780412923,
				"element": "C" 
			},
			{
				"x": -0.5906232423,
				"y": 2.1756331728,
				"z": -1.4296344533,
				"element": "O" 
			},
			{
				"x": 1.4139321527,
				"y": -2.4142637677,
				"z": 0.0711291804,
				"element": "H" 
			},
			{
				"x": -2.4332354098,
				"y": -1.1755397321,
				"z": -0.0512981889,
				"element": "H" 
			},
			{
				"x": -1.4085356404,
				"y": -0.765492783,
				"z": 1.3433206542,
				"element": "H" 
			},
			{
				"x": -3.2463362798,
				"y": 1.2262420095,
				"z": 0.2542337002,
				"element": "H" 
			},
			{
				"x": -3.3555008154,
				"y": 3.7828648234,
				"z": -0.6985587975,
				"element": "H" 
			},
			{
				"x": -0.9619597062,
				"y": 4.1198136906,
				"z": -2.0129239565,
				"element": "H" 
			}
		],
		 "valence_orbital": [ 
			{
				"type": "occ",
				"energy": -0.35962,
				"method": "rhf"
			},
			{
				"type": "occ",
				"energy": -0.30866,
				"method": "rhf"
			},
			{
				"type": "occ",
				"energy": -0.27602,
				"method": "rhf"
			},
			{
				"type": "occ",
				"energy": -0.26569,
				"method": "rhf"
			},
			{
				"type": "occ",
				"energy": -0.25896,
				"method": "rhf"
			},
			{
				"type": "unocc",
				"energy": -0.07272,
				"method": "rhf"
			},
			{
				"type": "unocc",
				"energy": -0.04596,
				"method": "rhf"
			},
			{
				"type": "unocc",
				"energy": 0.01871,
				"method": "rhf"
			},
			{
				"type": "unocc",
				"energy": 0.07288,
				"method": "rhf"
			},
			{
				"type": "unocc",
				"energy": 0.08274,
				"method": "rhf"
			}
		],
		"cosmo_sigma_profile": { 
			"-0.025": 0.0,
			"-0.024": 0.0,
			"-0.023": 0.0,
			"-0.022": 0.0,
			"-0.021": 0.0,
			"-0.02": 0.0,
			"-0.019": 0.0,
			"-0.018": 0.0,
			"-0.017": 0.0,
			"-0.016": 0.0,
			"-0.015": 0.0,
			"-0.014": 0.0,
			"-0.013": 0.0,
			"-0.012": 0.0,
			"-0.011": 0.0297886804077,
			"-0.01": 2.10498446041,
			"-0.009": 7.06345610321,
			"-0.008": 13.1508852953,
			"-0.007": 12.1961773933,
			"-0.006": 10.4005998561,
			"-0.005": 10.5069084901,
			"-0.004": 9.833405147,
			"-0.003": 9.11876653808,
			"-0.002": 8.34571680872,
			"-0.001": 10.3282446102,
			"0.0": 13.9270803209,
			"0.001": 12.2434430744,
			"0.002": 13.3325813546,
			"0.003": 17.565121277,
			"0.004": 18.2745482688,
			"0.005": 5.12282237375,
			"0.006": 3.70650676471,
			"0.007": 4.97939974404,
			"0.008": 4.57919624262,
			"0.009": 6.64058410985,
			"0.01": 6.09745643765,
			"0.011": 4.48276381332,
			"0.012": 2.01344185611,
			"0.013": 0.433954041478,
			"0.014": 0.0,
			"0.015": 0.0,
			"0.016": 0.0,
			"0.017": 0.0,
			"0.018": 0.0,
			"0.019": 0.0,
			"0.02": 0.0,
			"0.021": 0.0,
			"0.022": 0.0,
			"0.023": 0.0,
			"0.024": 0.0,
			"0.025": 0.0
		}
	}
}
