{
	 "smiles": "O=C(NC(CC1=CC=CC=C1)C1=CC=CC=C1)C1=CC=CN=C1", 
	 "Tm": 432.15, 
	 "num_atms": 41, 
	 "gaussian": { 
		 "optdone": 1, 
		 "sigma_profile": "yes", 
		 "theory": "DFT", 
		 "functional": "B3LYP", 
		 "basiset": "6-31G**", 
		 "properties": { 
			 "R2extent": 8149.4807, 
			 "electric_dipole_moment_norm": 2.76638250609, 
			 "electric_quadrupole_moment_norm": 15.328532664, 
			 "total_energy": -957.716507139, 
			 "HOMO_LUMO_gap": 0.19948, 
			 "cosmo_polarized_energy": -15.34, 
			 "cosmo_cavitation_energy": 44.52, 
			 "cosmo_dispersion_energy": -29.47, 
			 "cosmo_repulsion_energy": 2.25, 
			 "cosmo_total_nonelectrostatic_energy": 17.3, 
			 "SMD_solvation_energy": 6.33 
		},
		"coords": [
			{
				"x": 0.5027690774,
				"y": 0.8558062497,
				"z": -3.8152738432,
				"element": "O" 
			},
			{
				"x": 0.4101221321,
				"y": 0.1130058278,
				"z": -2.8413099013,
				"element": "C" 
			},
			{
				"x": 0.0560542038,
				"y": 0.612842918,
				"z": -1.609558609,
				"element": "N" 
			},
			{
				"x": 0.3478932163,
				"y": 0.0731357369,
				"z": -0.2834317099,
				"element": "C" 
			},
			{
				"x": 1.2858736898,
				"y": 1.0562806897,
				"z": 0.4923294663,
				"element": "C" 
			},
			{
				"x": 0.7467664675,
				"y": 2.4617792411,
				"z": 0.6506828961,
				"element": "C" 
			},
			{
				"x": -0.1169419324,
				"y": 2.7933634525,
				"z": 1.7062050017,
				"element": "C" 
			},
			{
				"x": -0.6243811053,
				"y": 4.0861164163,
				"z": 1.8340692245,
				"element": "C" 
			},
			{
				"x": -0.2807469874,
				"y": 5.0725663737,
				"z": 0.9065003359,
				"element": "C" 
			},
			{
				"x": 0.5782916537,
				"y": 4.7584013794,
				"z": -0.1466441884,
				"element": "C" 
			},
			{
				"x": 1.0889782292,
				"y": 3.4639988926,
				"z": -0.2703659871,
				"element": "C" 
			},
			{
				"x": -0.9044226255,
				"y": -0.2853245583,
				"z": 0.5154086714,
				"element": "C" 
			},
			{
				"x": -2.1740313512,
				"y": 0.1885855028,
				"z": 0.1689965268,
				"element": "C" 
			},
			{
				"x": -3.2916434483,
				"y": -0.1412096114,
				"z": 0.9400465875,
				"element": "C" 
			},
			{
				"x": -3.1559081773,
				"y": -0.9521909151,
				"z": 2.0663664748,
				"element": "C" 
			},
			{
				"x": -1.8937014095,
				"y": -1.4389909674,
				"z": 2.4158474635,
				"element": "C" 
			},
			{
				"x": -0.7801755702,
				"y": -1.1083897013,
				"z": 1.6450077599,
				"element": "C" 
			},
			{
				"x": 0.6486048004,
				"y": -1.3627636178,
				"z": -2.995039893,
				"element": "C" 
			},
			{
				"x": 1.5610848305,
				"y": -1.7765596354,
				"z": -3.9738740958,
				"element": "C" 
			},
			{
				"x": 1.7561758079,
				"y": -3.1368406659,
				"z": -4.1823202666,
				"element": "C" 
			},
			{
				"x": 1.0103297168,
				"y": -4.0398679534,
				"z": -3.4198159751,
				"element": "C" 
			},
			{
				"x": 0.106669106,
				"y": -3.6683478564,
				"z": -2.5056655253,
				"element": "N" 
			},
			{
				"x": -0.0621671992,
				"y": -2.3551627598,
				"z": -2.3049122871,
				"element": "C" 
			},
			{
				"x": -0.0871835807,
				"y": 1.6167097793,
				"z": -1.6513832234,
				"element": "H" 
			},
			{
				"x": 0.926092644,
				"y": -0.8443306007,
				"z": -0.4247402909,
				"element": "H" 
			},
			{
				"x": 1.4845819513,
				"y": 0.6185225707,
				"z": 1.475933804,
				"element": "H" 
			},
			{
				"x": 2.2400034756,
				"y": 1.0881516055,
				"z": -0.045187085,
				"element": "H" 
			},
			{
				"x": -0.3895760717,
				"y": 2.0328381874,
				"z": 2.4322020309,
				"element": "H" 
			},
			{
				"x": -1.2877526295,
				"y": 4.3242677288,
				"z": 2.6607760893,
				"element": "H" 
			},
			{
				"x": -0.6754668908,
				"y": 6.079342621,
				"z": 1.0081957975,
				"element": "H" 
			},
			{
				"x": 0.8582351898,
				"y": 5.5192887385,
				"z": -0.869542074,
				"element": "H" 
			},
			{
				"x": 1.7716738956,
				"y": 3.2320817336,
				"z": -1.0846091832,
				"element": "H" 
			},
			{
				"x": -2.2903566947,
				"y": 0.8069182915,
				"z": -0.7148069697,
				"element": "H" 
			},
			{
				"x": -4.2697456038,
				"y": 0.2358562174,
				"z": 0.6550041786,
				"element": "H" 
			},
			{
				"x": -4.0257269415,
				"y": -1.211172878,
				"z": 2.6629874251,
				"element": "H" 
			},
			{
				"x": -1.7779960692,
				"y": -2.0834405387,
				"z": 3.2826700543,
				"element": "H" 
			},
			{
				"x": 0.1962562926,
				"y": -1.5023453129,
				"z": 1.9191983194,
				"element": "H" 
			},
			{
				"x": 2.0873012694,
				"y": -1.0249699022,
				"z": -4.5532686127,
				"element": "H" 
			},
			{
				"x": 2.462526882,
				"y": -3.4968704486,
				"z": -4.9237519406,
				"element": "H" 
			},
			{
				"x": 1.1389788655,
				"y": -5.1123770195,
				"z": -3.5566343348,
				"element": "H" 
			},
			{
				"x": -0.8208391092,
				"y": -2.0820052115,
				"z": -1.5749921113,
				"element": "H" 
			}
		],
		 "valence_orbital": [ 
			{
				"type": "occ",
				"energy": -0.25694,
				"method": "rhf"
			},
			{
				"type": "occ",
				"energy": -0.2546,
				"method": "rhf"
			},
			{
				"type": "occ",
				"energy": -0.24864,
				"method": "rhf"
			},
			{
				"type": "occ",
				"energy": -0.24482,
				"method": "rhf"
			},
			{
				"type": "occ",
				"energy": -0.24156,
				"method": "rhf"
			},
			{
				"type": "unocc",
				"energy": -0.04208,
				"method": "rhf"
			},
			{
				"type": "unocc",
				"energy": -0.02474,
				"method": "rhf"
			},
			{
				"type": "unocc",
				"energy": -0.01505,
				"method": "rhf"
			},
			{
				"type": "unocc",
				"energy": -0.00865,
				"method": "rhf"
			},
			{
				"type": "unocc",
				"energy": -0.00425,
				"method": "rhf"
			}
		],
		"cosmo_sigma_profile": { 
			"-0.025": 0.0,
			"-0.024": 0.0,
			"-0.023": 0.0,
			"-0.022": 0.0,
			"-0.021": 0.0,
			"-0.02": 0.0,
			"-0.019": 0.0,
			"-0.018": 0.0,
			"-0.017": 0.0,
			"-0.016": 0.0,
			"-0.015": 0.0,
			"-0.014": 0.0,
			"-0.013": 0.0,
			"-0.012": 0.0,
			"-0.011": 0.0,
			"-0.01": 0.00485217595967,
			"-0.009": 0.339453911109,
			"-0.008": 0.787067829417,
			"-0.007": 7.15339221778,
			"-0.006": 19.1346773275,
			"-0.005": 34.1417959843,
			"-0.004": 37.246836749,
			"-0.003": 35.1261210117,
			"-0.002": 26.4245824133,
			"-0.001": 25.8080014574,
			"0.0": 23.6229447049,
			"0.001": 26.1498738892,
			"0.002": 26.1809328348,
			"0.003": 16.4275954208,
			"0.004": 19.5545872408,
			"0.005": 19.470996076,
			"0.006": 10.8277750678,
			"0.007": 3.07709803361,
			"0.008": 2.49399194146,
			"0.009": 2.88824073699,
			"0.01": 2.05917374749,
			"0.011": 2.6618106175,
			"0.012": 2.88990500327,
			"0.013": 5.78255257193,
			"0.014": 3.33359090217,
			"0.015": 1.54307895052,
			"0.016": 0.540493514747,
			"0.017": 0.0946702395073,
			"0.018": 0.0,
			"0.019": 0.0,
			"0.02": 0.0,
			"0.021": 0.0,
			"0.022": 0.0,
			"0.023": 0.0,
			"0.024": 0.0,
			"0.025": 0.0
		}
	}
}
