{
	 "smiles": "CN1C=CC2=C1C=CC(=C2)S(Cl)(=O)=O", 
	 "Tm": 352.65, 
	 "num_atms": 22, 
	 "gaussian": { 
		 "optdone": 1, 
		 "sigma_profile": "yes", 
		 "theory": "DFT", 
		 "functional": "B3LYP", 
		 "basiset": "6-31G**", 
		 "properties": { 
			 "R2extent": 5093.3676, 
			 "electric_dipole_moment_norm": 8.94251236342, 
			 "electric_quadrupole_moment_norm": 19.5114049389, 
			 "total_energy": -1411.29574226, 
			 "HOMO_LUMO_gap": 0.15387, 
			 "cosmo_polarized_energy": -13.16, 
			 "cosmo_cavitation_energy": 29.56, 
			 "cosmo_dispersion_energy": -22.09, 
			 "cosmo_repulsion_energy": 1.67, 
			 "cosmo_total_nonelectrostatic_energy": 9.14, 
			 "SMD_solvation_energy": 3.88 
		},
		"coords": [
			{
				"x": 0.5908529094,
				"y": -3.4193067932,
				"z": -1.8991031334,
				"element": "C" 
			},
			{
				"x": 0.6230458172,
				"y": -2.3245409716,
				"z": -0.946457464,
				"element": "N" 
			},
			{
				"x": 1.7284716793,
				"y": -1.9100901298,
				"z": -0.2176611513,
				"element": "C" 
			},
			{
				"x": 1.4008852377,
				"y": -0.8519366333,
				"z": 0.5857018265,
				"element": "C" 
			},
			{
				"x": 0.0122585744,
				"y": -0.5760240376,
				"z": 0.3546789613,
				"element": "C" 
			},
			{
				"x": -0.4428424771,
				"y": -1.5230973937,
				"z": -0.6136473807,
				"element": "C" 
			},
			{
				"x": -1.7663623935,
				"y": -1.5521213198,
				"z": -1.0761790089,
				"element": "C" 
			},
			{
				"x": -2.6518634971,
				"y": -0.6164417201,
				"z": -0.5649436318,
				"element": "C" 
			},
			{
				"x": -2.1997036339,
				"y": 0.3173350426,
				"z": 0.391176258,
				"element": "C" 
			},
			{
				"x": -0.8912396506,
				"y": 0.3651149066,
				"z": 0.8617594773,
				"element": "C" 
			},
			{
				"x": -3.3639375131,
				"y": 1.4975514318,
				"z": 1.0286775181,
				"element": "S" 
			},
			{
				"x": -3.2352700901,
				"y": 3.0758698522,
				"z": -0.4232751375,
				"element": "Cl" 
			},
			{
				"x": -2.8614001916,
				"y": 2.0674502248,
				"z": 2.2737035425,
				"element": "O" 
			},
			{
				"x": -4.7183745877,
				"y": 0.9692009636,
				"z": 0.909642401,
				"element": "O" 
			},
			{
				"x": 1.583056482,
				"y": -3.8691562745,
				"z": -1.9559937823,
				"element": "H" 
			},
			{
				"x": -0.1230065308,
				"y": -4.188972176,
				"z": -1.5871487198,
				"element": "H" 
			},
			{
				"x": 0.312752388,
				"y": -3.0623618942,
				"z": -2.8963035772,
				"element": "H" 
			},
			{
				"x": 2.67371075,
				"y": -2.4199724753,
				"z": -0.341390526,
				"element": "H" 
			},
			{
				"x": 2.0661436856,
				"y": -0.3303831423,
				"z": 1.2579539119,
				"element": "H" 
			},
			{
				"x": -2.0985312074,
				"y": -2.282780067,
				"z": -1.8063471846,
				"element": "H" 
			},
			{
				"x": -3.6884190592,
				"y": -0.6013955135,
				"z": -0.8801056205,
				"element": "H" 
			},
			{
				"x": -0.5971266914,
				"y": 1.1020581202,
				"z": 1.6006624214,
				"element": "H" 
			}
		],
		 "valence_orbital": [ 
			{
				"type": "occ",
				"energy": -0.3152,
				"method": "rhf"
			},
			{
				"type": "occ",
				"energy": -0.30214,
				"method": "rhf"
			},
			{
				"type": "occ",
				"energy": -0.29945,
				"method": "rhf"
			},
			{
				"type": "occ",
				"energy": -0.25257,
				"method": "rhf"
			},
			{
				"type": "occ",
				"energy": -0.23014,
				"method": "rhf"
			},
			{
				"type": "unocc",
				"energy": -0.07627,
				"method": "rhf"
			},
			{
				"type": "unocc",
				"energy": -0.03826,
				"method": "rhf"
			},
			{
				"type": "unocc",
				"energy": -0.01563,
				"method": "rhf"
			},
			{
				"type": "unocc",
				"energy": 0.04473,
				"method": "rhf"
			},
			{
				"type": "unocc",
				"energy": 0.06392,
				"method": "rhf"
			}
		],
		"cosmo_sigma_profile": { 
			"-0.025": 0.0,
			"-0.024": 0.0,
			"-0.023": 0.0,
			"-0.022": 0.0,
			"-0.021": 0.0,
			"-0.02": 0.0,
			"-0.019": 0.0,
			"-0.018": 0.0,
			"-0.017": 0.0,
			"-0.016": 0.0,
			"-0.015": 0.0,
			"-0.014": 0.0,
			"-0.013": 0.0,
			"-0.012": 0.0,
			"-0.011": 0.0,
			"-0.01": 0.119133043974,
			"-0.009": 2.70926996748,
			"-0.008": 4.44501830838,
			"-0.007": 10.4122661637,
			"-0.006": 17.8346391847,
			"-0.005": 16.9028016707,
			"-0.004": 14.9820769524,
			"-0.003": 16.9455959406,
			"-0.002": 11.454322878,
			"-0.001": 11.6319381628,
			"0.0": 13.4782667716,
			"0.001": 16.6626526124,
			"0.002": 24.5450949528,
			"0.003": 21.2776931587,
			"0.004": 20.9434616057,
			"0.005": 9.3174757305,
			"0.006": 3.65493039355,
			"0.007": 4.44067839225,
			"0.008": 9.78524056395,
			"0.009": 7.43777873121,
			"0.01": 0.95263732958,
			"0.011": 0.0,
			"0.012": 0.0,
			"0.013": 0.0,
			"0.014": 0.0,
			"0.015": 0.0,
			"0.016": 0.0,
			"0.017": 0.0,
			"0.018": 0.0,
			"0.019": 0.0,
			"0.02": 0.0,
			"0.021": 0.0,
			"0.022": 0.0,
			"0.023": 0.0,
			"0.024": 0.0,
			"0.025": 0.0
		}
	}
}
