{
	 "smiles": "CCN(CC)S(=O)(=O)C1=CN=C(CC#N)C=C1", 
	 "Tm": 346.15, 
	 "num_atms": 32, 
	 "gaussian": { 
		 "optdone": 1, 
		 "sigma_profile": "yes", 
		 "theory": "DFT", 
		 "functional": "B3LYP", 
		 "basiset": "6-31G**", 
		 "properties": { 
			 "R2extent": 5743.8962, 
			 "electric_dipole_moment_norm": 3.81185183736, 
			 "electric_quadrupole_moment_norm": 27.5476918625, 
			 "total_energy": -1141.01088899, 
			 "HOMO_LUMO_gap": 0.19587, 
			 "cosmo_polarized_energy": -18.95, 
			 "cosmo_cavitation_energy": 37.19, 
			 "cosmo_dispersion_energy": -25.71, 
			 "cosmo_repulsion_energy": 1.96, 
			 "cosmo_total_nonelectrostatic_energy": 13.43, 
			 "SMD_solvation_energy": 5.17 
		},
		"coords": [
			{
				"x": 3.4344429749,
				"y": 0.6157757925,
				"z": -1.8974951491,
				"element": "C" 
			},
			{
				"x": 2.2260304102,
				"y": 0.3766377274,
				"z": -0.991460462,
				"element": "C" 
			},
			{
				"x": 0.9645262928,
				"y": 0.3413639901,
				"z": -1.7525211989,
				"element": "N" 
			},
			{
				"x": 0.4813379053,
				"y": 1.60236128,
				"z": -2.3574765842,
				"element": "C" 
			},
			{
				"x": 0.5004735292,
				"y": 1.5790134889,
				"z": -3.8852091495,
				"element": "C" 
			},
			{
				"x": -0.1854095295,
				"y": -0.8024971816,
				"z": -1.3438039525,
				"element": "S" 
			},
			{
				"x": -1.1960776306,
				"y": -0.7736337906,
				"z": -2.402503674,
				"element": "O" 
			},
			{
				"x": 0.5328432901,
				"y": -2.0236663783,
				"z": -0.9740525591,
				"element": "O" 
			},
			{
				"x": -1.0014353077,
				"y": -0.2149381732,
				"z": 0.1498075004,
				"element": "C" 
			},
			{
				"x": -2.1769029306,
				"y": 0.5394447277,
				"z": 0.0658973147,
				"element": "C" 
			},
			{
				"x": -2.7989124239,
				"y": 1.028160844,
				"z": 1.1417244965,
				"element": "N" 
			},
			{
				"x": -2.2735545074,
				"y": 0.771357306,
				"z": 2.3480631495,
				"element": "C" 
			},
			{
				"x": -3.068382186,
				"y": 1.3686449869,
				"z": 3.5034396183,
				"element": "C" 
			},
			{
				"x": -2.4430596942,
				"y": 1.2231051953,
				"z": 4.8181040388,
				"element": "C" 
			},
			{
				"x": -1.9374388263,
				"y": 1.1009189466,
				"z": 5.8553450657,
				"element": "N" 
			},
			{
				"x": -1.1171839937,
				"y": 0.0065927176,
				"z": 2.5314682019,
				"element": "C" 
			},
			{
				"x": -0.4681694445,
				"y": -0.4982864939,
				"z": 1.4073019284,
				"element": "C" 
			},
			{
				"x": 3.3754041629,
				"y": 1.5790483322,
				"z": -2.4135830958,
				"element": "H" 
			},
			{
				"x": 4.3502275338,
				"y": 0.6175312695,
				"z": -1.297425195,
				"element": "H" 
			},
			{
				"x": 3.5111977726,
				"y": -0.1742929053,
				"z": -2.6491610701,
				"element": "H" 
			},
			{
				"x": 2.1749272377,
				"y": 1.1531430825,
				"z": -0.2124963499,
				"element": "H" 
			},
			{
				"x": 2.33568498,
				"y": -0.5901331407,
				"z": -0.4980188978,
				"element": "H" 
			},
			{
				"x": 1.1225700931,
				"y": 2.4034766883,
				"z": -1.974032173,
				"element": "H" 
			},
			{
				"x": -0.530857651,
				"y": 1.8247680797,
				"z": -2.0012185571,
				"element": "H" 
			},
			{
				"x": -0.1593039397,
				"y": 0.7924852516,
				"z": -4.2567158743,
				"element": "H" 
			},
			{
				"x": 0.1573111906,
				"y": 2.5415256823,
				"z": -4.2804756437,
				"element": "H" 
			},
			{
				"x": 1.509938509,
				"y": 1.3916759321,
				"z": -4.2621822946,
				"element": "H" 
			},
			{
				"x": -2.6357130373,
				"y": 0.7301262864,
				"z": -0.9003105115,
				"element": "H" 
			},
			{
				"x": -4.06149306,
				"y": 0.9034296147,
				"z": 3.5294581987,
				"element": "H" 
			},
			{
				"x": -3.2375287936,
				"y": 2.4321991718,
				"z": 3.3007894065,
				"element": "H" 
			},
			{
				"x": -0.7393872313,
				"y": -0.1925056918,
				"z": 3.5284312156,
				"element": "H" 
			},
			{
				"x": 0.4168943051,
				"y": -1.1186326387,
				"z": 1.5006122572,
				"element": "H" 
			}
		],
		 "valence_orbital": [ 
			{
				"type": "occ",
				"energy": -0.31298,
				"method": "rhf"
			},
			{
				"type": "occ",
				"energy": -0.30959,
				"method": "rhf"
			},
			{
				"type": "occ",
				"energy": -0.29438,
				"method": "rhf"
			},
			{
				"type": "occ",
				"energy": -0.28217,
				"method": "rhf"
			},
			{
				"type": "occ",
				"energy": -0.25912,
				"method": "rhf"
			},
			{
				"type": "unocc",
				"energy": -0.06325,
				"method": "rhf"
			},
			{
				"type": "unocc",
				"energy": -0.04884,
				"method": "rhf"
			},
			{
				"type": "unocc",
				"energy": 0.01865,
				"method": "rhf"
			},
			{
				"type": "unocc",
				"energy": 0.02763,
				"method": "rhf"
			},
			{
				"type": "unocc",
				"energy": 0.0506,
				"method": "rhf"
			}
		],
		"cosmo_sigma_profile": { 
			"-0.025": 0.0,
			"-0.024": 0.0,
			"-0.023": 0.0,
			"-0.022": 0.0,
			"-0.021": 0.0,
			"-0.02": 0.0,
			"-0.019": 0.0,
			"-0.018": 0.0,
			"-0.017": 0.0,
			"-0.016": 0.0,
			"-0.015": 0.0,
			"-0.014": 0.0,
			"-0.013": 0.0,
			"-0.012": 0.0,
			"-0.011": 0.0,
			"-0.01": 2.75095754459,
			"-0.009": 5.40578094412,
			"-0.008": 7.38563754072,
			"-0.007": 9.52584715261,
			"-0.006": 13.4816395339,
			"-0.005": 17.5610774327,
			"-0.004": 24.597481194,
			"-0.003": 33.9736319469,
			"-0.002": 25.3425936198,
			"-0.001": 26.3990017552,
			"0.0": 26.0865437602,
			"0.001": 15.5559050641,
			"0.002": 7.6253030229,
			"0.003": 7.50831249966,
			"0.004": 6.74824489773,
			"0.005": 8.70892731103,
			"0.006": 7.87403864177,
			"0.007": 5.7104459671,
			"0.008": 7.27496180921,
			"0.009": 8.60469070504,
			"0.01": 9.75271321093,
			"0.011": 10.7633341948,
			"0.012": 4.69333164924,
			"0.013": 1.63425583502,
			"0.014": 0.520659302538,
			"0.015": 0.0,
			"0.016": 0.0,
			"0.017": 0.0,
			"0.018": 0.0,
			"0.019": 0.0,
			"0.02": 0.0,
			"0.021": 0.0,
			"0.022": 0.0,
			"0.023": 0.0,
			"0.024": 0.0,
			"0.025": 0.0
		}
	}
}
