{
	 "smiles": "OC1=CC2=C(C=C1)C(O)=CC=N2", 
	 "Tm": 481.15, 
	 "num_atms": 19, 
	 "gaussian": { 
		 "optdone": 1, 
		 "sigma_profile": "yes", 
		 "theory": "DFT", 
		 "functional": "B3LYP", 
		 "basiset": "6-31G**", 
		 "properties": { 
			 "R2extent": 2186.6625, 
			 "electric_dipole_moment_norm": 1.70951294526, 
			 "electric_quadrupole_moment_norm": 7.48229259251, 
			 "total_energy": -552.374128518, 
			 "HOMO_LUMO_gap": 0.174, 
			 "cosmo_polarized_energy": -15.12, 
			 "cosmo_cavitation_energy": 23.11, 
			 "cosmo_dispersion_energy": -17.75, 
			 "cosmo_repulsion_energy": 1.38, 
			 "cosmo_total_nonelectrostatic_energy": 6.74, 
			 "SMD_solvation_energy": 3.02 
		},
		"coords": [
			{
				"x": 2.6249168161,
				"y": -0.4295884292,
				"z": -2.5565717263,
				"element": "O" 
			},
			{
				"x": 1.9375401189,
				"y": -0.2674183085,
				"z": -1.3905565999,
				"element": "C" 
			},
			{
				"x": 0.931409086,
				"y": 0.6609119597,
				"z": -1.2224331381,
				"element": "C" 
			},
			{
				"x": 0.2530883118,
				"y": 0.7810152626,
				"z": 0.0172627878,
				"element": "C" 
			},
			{
				"x": 0.6300749342,
				"y": -0.0812778406,
				"z": 1.0999385223,
				"element": "C" 
			},
			{
				"x": 1.6707504979,
				"y": -1.0247254182,
				"z": 0.8888208532,
				"element": "C" 
			},
			{
				"x": 2.3127894477,
				"y": -1.1217371848,
				"z": -0.3216609065,
				"element": "C" 
			},
			{
				"x": -0.0783440812,
				"y": 0.0740142594,
				"z": 2.3280679668,
				"element": "C" 
			},
			{
				"x": 0.1803975907,
				"y": -0.6781338728,
				"z": 3.4277703407,
				"element": "O" 
			},
			{
				"x": -1.0736837481,
				"y": 1.0285675433,
				"z": 2.4142718286,
				"element": "C" 
			},
			{
				"x": -1.351625332,
				"y": 1.8154230765,
				"z": 1.2798581619,
				"element": "C" 
			},
			{
				"x": -0.7318046251,
				"y": 1.7192508807,
				"z": 0.1165628899,
				"element": "N" 
			},
			{
				"x": 2.2898619137,
				"y": 0.198292466,
				"z": -3.2105096818,
				"element": "H" 
			},
			{
				"x": 0.6257212377,
				"y": 1.3264129486,
				"z": -2.0250987927,
				"element": "H" 
			},
			{
				"x": 1.9853072788,
				"y": -1.6961546941,
				"z": 1.685597486,
				"element": "H" 
			},
			{
				"x": 3.1078499474,
				"y": -1.8406718968,
				"z": -0.4870109324,
				"element": "H" 
			},
			{
				"x": 0.8907358548,
				"y": -1.3050851421,
				"z": 3.2433681097,
				"element": "H" 
			},
			{
				"x": -1.6216604607,
				"y": 1.1594635394,
				"z": 3.3402236758,
				"element": "H" 
			},
			{
				"x": -2.1359247885,
				"y": 2.5692408508,
				"z": 1.3439991549,
				"element": "H" 
			}
		],
		 "valence_orbital": [ 
			{
				"type": "occ",
				"energy": -0.32455,
				"method": "rhf"
			},
			{
				"type": "occ",
				"energy": -0.27326,
				"method": "rhf"
			},
			{
				"type": "occ",
				"energy": -0.25081,
				"method": "rhf"
			},
			{
				"type": "occ",
				"energy": -0.23897,
				"method": "rhf"
			},
			{
				"type": "occ",
				"energy": -0.21741,
				"method": "rhf"
			},
			{
				"type": "unocc",
				"energy": -0.04341,
				"method": "rhf"
			},
			{
				"type": "unocc",
				"energy": -0.00937,
				"method": "rhf"
			},
			{
				"type": "unocc",
				"energy": 0.02777,
				"method": "rhf"
			},
			{
				"type": "unocc",
				"energy": 0.04839,
				"method": "rhf"
			},
			{
				"type": "unocc",
				"energy": 0.06875,
				"method": "rhf"
			}
		],
		"cosmo_sigma_profile": { 
			"-0.025": 0.0,
			"-0.024": 0.0,
			"-0.023": 0.0,
			"-0.022": 0.0,
			"-0.021": 0.0,
			"-0.02": 0.0,
			"-0.019": 0.196012187576,
			"-0.018": 1.58684832743,
			"-0.017": 2.18443583487,
			"-0.016": 2.05897441845,
			"-0.015": 2.15486030906,
			"-0.014": 1.74170777886,
			"-0.013": 1.85818812626,
			"-0.012": 2.00985602331,
			"-0.011": 2.21331795535,
			"-0.01": 2.17282099675,
			"-0.009": 1.53058859643,
			"-0.008": 2.338936047,
			"-0.007": 4.32056806384,
			"-0.006": 9.22847603811,
			"-0.005": 9.53837236775,
			"-0.004": 7.94968492673,
			"-0.003": 6.64096571451,
			"-0.002": 5.76714556589,
			"-0.001": 7.416069863,
			"0.0": 8.11299937172,
			"0.001": 13.1083282881,
			"0.002": 17.8480340663,
			"0.003": 24.4002588922,
			"0.004": 13.1459270473,
			"0.005": 5.56801047613,
			"0.006": 4.74573526739,
			"0.007": 4.60388283179,
			"0.008": 3.43299487732,
			"0.009": 5.37911220276,
			"0.01": 4.39815011471,
			"0.011": 2.69971198599,
			"0.012": 1.1111036669,
			"0.013": 0.898153084742,
			"0.014": 0.734339715399,
			"0.015": 1.03983119124,
			"0.016": 0.556590858836,
			"0.017": 0.706728065944,
			"0.018": 0.0,
			"0.019": 0.0,
			"0.02": 0.0,
			"0.021": 0.0,
			"0.022": 0.0,
			"0.023": 0.0,
			"0.024": 0.0,
			"0.025": 0.0
		}
	}
}
