{
	 "smiles": "COC1=CC(C)=C2C(=O)CC2=C1", 
	 "Tm": 356.15, 
	 "num_atms": 22, 
	 "gaussian": { 
		 "optdone": 1, 
		 "sigma_profile": "yes", 
		 "theory": "DFT", 
		 "functional": "B3LYP", 
		 "basiset": "6-31G**", 
		 "properties": { 
			 "R2extent": 2539.675, 
			 "electric_dipole_moment_norm": 4.47040956737, 
			 "electric_quadrupole_moment_norm": 17.5495014855, 
			 "total_energy": -537.4962671, 
			 "HOMO_LUMO_gap": 0.18554, 
			 "cosmo_polarized_energy": -9.68, 
			 "cosmo_cavitation_energy": 26.12, 
			 "cosmo_dispersion_energy": -18.98, 
			 "cosmo_repulsion_energy": 1.53, 
			 "cosmo_total_nonelectrostatic_energy": 8.66, 
			 "SMD_solvation_energy": 5.76 
		},
		"coords": [
			{
				"x": -2.1790706081,
				"y": 0.7485545965,
				"z": -2.2906183984,
				"element": "C" 
			},
			{
				"x": -0.9971423292,
				"y": 0.0497756253,
				"z": -1.9242523879,
				"element": "O" 
			},
			{
				"x": -0.5993675622,
				"y": 0.0774387153,
				"z": -0.624852436,
				"element": "C" 
			},
			{
				"x": 0.589361225,
				"y": -0.6503099669,
				"z": -0.3680404985,
				"element": "C" 
			},
			{
				"x": 1.1546980806,
				"y": -0.7397308374,
				"z": 0.9017174731,
				"element": "C" 
			},
			{
				"x": 2.4169652392,
				"y": -1.5115445187,
				"z": 1.177892175,
				"element": "C" 
			},
			{
				"x": 0.4511497336,
				"y": -0.050815112,
				"z": 1.904662011,
				"element": "C" 
			},
			{
				"x": 0.4125663889,
				"y": 0.2966430911,
				"z": 3.3493141641,
				"element": "C" 
			},
			{
				"x": 1.0826868045,
				"y": 0.0720827526,
				"z": 4.328752188,
				"element": "O" 
			},
			{
				"x": -0.913853649,
				"y": 1.1172912081,
				"z": 3.1003348381,
				"element": "C" 
			},
			{
				"x": -0.7218755432,
				"y": 0.6679045463,
				"z": 1.6545939577,
				"element": "C" 
			},
			{
				"x": -1.290745567,
				"y": 0.7616489039,
				"z": 0.3933917092,
				"element": "C" 
			},
			{
				"x": -2.3007303073,
				"y": 0.5893924511,
				"z": -3.3627968776,
				"element": "H" 
			},
			{
				"x": -3.0581582022,
				"y": 0.3566015067,
				"z": -1.764276891,
				"element": "H" 
			},
			{
				"x": -2.089175961,
				"y": 1.8236959844,
				"z": -2.0920019676,
				"element": "H" 
			},
			{
				"x": 1.0523869906,
				"y": -1.1459220431,
				"z": -1.2162090943,
				"element": "H" 
			},
			{
				"x": 3.1904097636,
				"y": -0.8567265446,
				"z": 1.5935977655,
				"element": "H" 
			},
			{
				"x": 2.8094755637,
				"y": -1.9769387727,
				"z": 0.2701560424,
				"element": "H" 
			},
			{
				"x": 2.2385229506,
				"y": -2.2966262818,
				"z": 1.9205641438,
				"element": "H" 
			},
			{
				"x": -0.8294799916,
				"y": 2.1923389939,
				"z": 3.2951287002,
				"element": "H" 
			},
			{
				"x": -1.7961525523,
				"y": 0.7292838619,
				"z": 3.6216512747,
				"element": "H" 
			},
			{
				"x": -2.1992704673,
				"y": 1.3179618402,
				"z": 0.1984921086,
				"element": "H" 
			}
		],
		 "valence_orbital": [ 
			{
				"type": "occ",
				"energy": -0.32585,
				"method": "rhf"
			},
			{
				"type": "occ",
				"energy": -0.31774,
				"method": "rhf"
			},
			{
				"type": "occ",
				"energy": -0.25406,
				"method": "rhf"
			},
			{
				"type": "occ",
				"energy": -0.23749,
				"method": "rhf"
			},
			{
				"type": "occ",
				"energy": -0.22883,
				"method": "rhf"
			},
			{
				"type": "unocc",
				"energy": -0.04329,
				"method": "rhf"
			},
			{
				"type": "unocc",
				"energy": -0.00816,
				"method": "rhf"
			},
			{
				"type": "unocc",
				"energy": 0.05784,
				"method": "rhf"
			},
			{
				"type": "unocc",
				"energy": 0.08989,
				"method": "rhf"
			},
			{
				"type": "unocc",
				"energy": 0.101,
				"method": "rhf"
			}
		],
		"cosmo_sigma_profile": { 
			"-0.025": 0.0,
			"-0.024": 0.0,
			"-0.023": 0.0,
			"-0.022": 0.0,
			"-0.021": 0.0,
			"-0.02": 0.0,
			"-0.019": 0.0,
			"-0.018": 0.0,
			"-0.017": 0.0,
			"-0.016": 0.0,
			"-0.015": 0.0,
			"-0.014": 0.0,
			"-0.013": 0.0,
			"-0.012": 0.0,
			"-0.011": 0.0,
			"-0.01": 0.0,
			"-0.009": 0.0,
			"-0.008": 0.0756655266629,
			"-0.007": 2.33383435918,
			"-0.006": 11.4986316529,
			"-0.005": 20.952080175,
			"-0.004": 21.5585330456,
			"-0.003": 19.5700080283,
			"-0.002": 17.8844974348,
			"-0.001": 19.4549094492,
			"0.0": 16.5412837892,
			"0.001": 12.0344813262,
			"0.002": 11.3975482968,
			"0.003": 16.2365015493,
			"0.004": 9.03333725619,
			"0.005": 2.79831243569,
			"0.006": 3.3082770917,
			"0.007": 2.40650571598,
			"0.008": 3.11281888627,
			"0.009": 3.52103370085,
			"0.01": 2.79495246426,
			"0.011": 3.58947428894,
			"0.012": 5.38378375673,
			"0.013": 2.22284679742,
			"0.014": 0.12849476581,
			"0.015": 0.0,
			"0.016": 0.0,
			"0.017": 0.0,
			"0.018": 0.0,
			"0.019": 0.0,
			"0.02": 0.0,
			"0.021": 0.0,
			"0.022": 0.0,
			"0.023": 0.0,
			"0.024": 0.0,
			"0.025": 0.0
		}
	}
}
