{
	 "smiles": "CC1=C(NC=N1)C=O", 
	 "Tm": 439.15, 
	 "num_atms": 14, 
	 "gaussian": { 
		 "optdone": 1, 
		 "sigma_profile": "yes", 
		 "theory": "DFT", 
		 "functional": "B3LYP", 
		 "basiset": "6-31G**", 
		 "properties": { 
			 "R2extent": 1071.7539, 
			 "electric_dipole_moment_norm": 4.14224032861, 
			 "electric_quadrupole_moment_norm": 18.4465814901, 
			 "total_energy": -378.866131484, 
			 "HOMO_LUMO_gap": 0.18673, 
			 "cosmo_polarized_energy": -15.88, 
			 "cosmo_cavitation_energy": 18.53, 
			 "cosmo_dispersion_energy": -13.62, 
			 "cosmo_repulsion_energy": 1.14, 
			 "cosmo_total_nonelectrostatic_energy": 6.04, 
			 "SMD_solvation_energy": 3.06 
		},
		"coords": [
			{
				"x": -0.2498786732,
				"y": 0.959317529,
				"z": -1.0107344985,
				"element": "C" 
			},
			{
				"x": -0.4552105958,
				"y": -0.4829293728,
				"z": -0.6798955713,
				"element": "C" 
			},
			{
				"x": 0.291819544,
				"y": -1.2716551341,
				"z": 0.1953439168,
				"element": "C" 
			},
			{
				"x": -0.3071036323,
				"y": -2.5268770469,
				"z": 0.1438010134,
				"element": "N" 
			},
			{
				"x": -1.3427938187,
				"y": -2.4393165189,
				"z": -0.7230847599,
				"element": "C" 
			},
			{
				"x": -1.4611365856,
				"y": -1.2241592549,
				"z": -1.2372215584,
				"element": "N" 
			},
			{
				"x": 1.4416832542,
				"y": -0.970453964,
				"z": 1.0206919717,
				"element": "C" 
			},
			{
				"x": 1.9814707967,
				"y": 0.1240552023,
				"z": 1.0787230226,
				"element": "O" 
			},
			{
				"x": 0.7467406305,
				"y": 1.1297786912,
				"z": -1.4302676514,
				"element": "H" 
			},
			{
				"x": -0.3165408168,
				"y": 1.5831368234,
				"z": -0.1136739827,
				"element": "H" 
			},
			{
				"x": -1.0054667538,
				"y": 1.2784259078,
				"z": -1.730857329,
				"element": "H" 
			},
			{
				"x": -0.0185131881,
				"y": -3.3457323924,
				"z": 0.6590151277,
				"element": "H" 
			},
			{
				"x": -1.9837656792,
				"y": -3.2803022278,
				"z": -0.9512578276,
				"element": "H" 
			},
			{
				"x": 1.8227955182,
				"y": -1.8285882418,
				"z": 1.6232181265,
				"element": "H" 
			}
		],
		 "valence_orbital": [ 
			{
				"type": "occ",
				"energy": -0.38,
				"method": "rhf"
			},
			{
				"type": "occ",
				"energy": -0.29407,
				"method": "rhf"
			},
			{
				"type": "occ",
				"energy": -0.28473,
				"method": "rhf"
			},
			{
				"type": "occ",
				"energy": -0.25308,
				"method": "rhf"
			},
			{
				"type": "occ",
				"energy": -0.23923,
				"method": "rhf"
			},
			{
				"type": "unocc",
				"energy": -0.0525,
				"method": "rhf"
			},
			{
				"type": "unocc",
				"energy": 0.03214,
				"method": "rhf"
			},
			{
				"type": "unocc",
				"energy": 0.05939,
				"method": "rhf"
			},
			{
				"type": "unocc",
				"energy": 0.09191,
				"method": "rhf"
			},
			{
				"type": "unocc",
				"energy": 0.12189,
				"method": "rhf"
			}
		],
		"cosmo_sigma_profile": { 
			"-0.025": 0.0,
			"-0.024": 0.0,
			"-0.023": 0.0,
			"-0.022": 0.0,
			"-0.021": 0.0,
			"-0.02": 0.0,
			"-0.019": 0.0,
			"-0.018": 0.133884420849,
			"-0.017": 1.67633278385,
			"-0.016": 1.79420134042,
			"-0.015": 1.54638642041,
			"-0.014": 1.86886039944,
			"-0.013": 1.05683394774,
			"-0.012": 1.97578942887,
			"-0.011": 1.13744094088,
			"-0.01": 2.93484527683,
			"-0.009": 4.09309565185,
			"-0.008": 2.72549303895,
			"-0.007": 3.66141966654,
			"-0.006": 3.66792559169,
			"-0.005": 5.46680884069,
			"-0.004": 8.0464534539,
			"-0.003": 7.92778151738,
			"-0.002": 9.14817852699,
			"-0.001": 12.3332711414,
			"0.0": 12.0365050732,
			"0.001": 12.5418082401,
			"0.002": 8.10335959382,
			"0.003": 4.66063130452,
			"0.004": 3.35574373875,
			"0.005": 3.84674159759,
			"0.006": 3.26781648478,
			"0.007": 3.32005462804,
			"0.008": 2.91386699848,
			"0.009": 3.19791363947,
			"0.01": 3.23243470634,
			"0.011": 3.60789242549,
			"0.012": 5.51830480869,
			"0.013": 3.18835896266,
			"0.014": 1.03618028197,
			"0.015": 1.32333087529,
			"0.016": 0.621973283709,
			"0.017": 0.774253497677,
			"0.018": 0.0409088217113,
			"0.019": 0.0,
			"0.02": 0.0,
			"0.021": 0.0,
			"0.022": 0.0,
			"0.023": 0.0,
			"0.024": 0.0,
			"0.025": 0.0
		}
	}
}
