{
	 "smiles": "O=C1N2CCC3=CC=CC=C3C2CC2=CC=CC=C12", 
	 "Tm": 446.15, 
	 "num_atms": 34, 
	 "gaussian": { 
		 "optdone": 1, 
		 "sigma_profile": "yes", 
		 "theory": "DFT", 
		 "functional": "B3LYP", 
		 "basiset": "6-31G**", 
		 "properties": { 
			 "R2extent": 5363.0993, 
			 "electric_dipole_moment_norm": 3.31039671792, 
			 "electric_quadrupole_moment_norm": 12.4247627044, 
			 "total_energy": -786.856440629, 
			 "HOMO_LUMO_gap": 0.19523, 
			 "cosmo_polarized_energy": -12.04, 
			 "cosmo_cavitation_energy": 34.97, 
			 "cosmo_dispersion_energy": -25.44, 
			 "cosmo_repulsion_energy": 1.91, 
			 "cosmo_total_nonelectrostatic_energy": 11.43, 
			 "SMD_solvation_energy": 4.28 
		},
		"coords": [
			{
				"x": 2.8133721793,
				"y": 1.5135791575,
				"z": 1.2685203683,
				"element": "O" 
			},
			{
				"x": 1.8718488528,
				"y": 0.729857872,
				"z": 1.3844337834,
				"element": "C" 
			},
			{
				"x": 0.6773319698,
				"y": 0.9325268383,
				"z": 0.7137653392,
				"element": "N" 
			},
			{
				"x": 0.7178626422,
				"y": 1.8430158527,
				"z": -0.4310380776,
				"element": "C" 
			},
			{
				"x": 1.2740759139,
				"y": 1.0915683167,
				"z": -1.6481999171,
				"element": "C" 
			},
			{
				"x": 0.7075865084,
				"y": -0.3143092768,
				"z": -1.7852767552,
				"element": "C" 
			},
			{
				"x": 0.9242175446,
				"y": -1.0210618869,
				"z": -2.9752812697,
				"element": "C" 
			},
			{
				"x": 0.4441757477,
				"y": -2.3168025804,
				"z": -3.1498108677,
				"element": "C" 
			},
			{
				"x": -0.2732407715,
				"y": -2.927374992,
				"z": -2.1212041214,
				"element": "C" 
			},
			{
				"x": -0.4982601421,
				"y": -2.2356057202,
				"z": -0.9321602051,
				"element": "C" 
			},
			{
				"x": -0.0081293453,
				"y": -0.9373609679,
				"z": -0.741072462,
				"element": "C" 
			},
			{
				"x": -0.3109152147,
				"y": -0.141535088,
				"z": 0.5367107225,
				"element": "C" 
			},
			{
				"x": -0.4560690749,
				"y": -0.9326374432,
				"z": 1.8443400717,
				"element": "C" 
			},
			{
				"x": 0.8701273257,
				"y": -1.3421464015,
				"z": 2.4299138318,
				"element": "C" 
			},
			{
				"x": 1.0268773931,
				"y": -2.4962402133,
				"z": 3.2021352914,
				"element": "C" 
			},
			{
				"x": 2.2588931171,
				"y": -2.7950597133,
				"z": 3.7853451533,
				"element": "C" 
			},
			{
				"x": 3.3493201246,
				"y": -1.9392051029,
				"z": 3.6031667693,
				"element": "C" 
			},
			{
				"x": 3.2038746483,
				"y": -0.7901608632,
				"z": 2.8310308503,
				"element": "C" 
			},
			{
				"x": 1.9691734947,
				"y": -0.4900016537,
				"z": 2.2434860256,
				"element": "C" 
			},
			{
				"x": -0.3026963452,
				"y": 2.1969057435,
				"z": -0.6150207712,
				"element": "H" 
			},
			{
				"x": 1.3457755236,
				"y": 2.6960065203,
				"z": -0.175864801,
				"element": "H" 
			},
			{
				"x": 2.3644004287,
				"y": 1.0290225653,
				"z": -1.5399531495,
				"element": "H" 
			},
			{
				"x": 1.0847689932,
				"y": 1.6617647769,
				"z": -2.565704619,
				"element": "H" 
			},
			{
				"x": 1.4799147167,
				"y": -0.5398635828,
				"z": -3.7770608408,
				"element": "H" 
			},
			{
				"x": 0.6249634617,
				"y": -2.8437890278,
				"z": -4.0822749464,
				"element": "H" 
			},
			{
				"x": -0.6555765043,
				"y": -3.9369639361,
				"z": -2.2409675868,
				"element": "H" 
			},
			{
				"x": -1.0645878204,
				"y": -2.7228336727,
				"z": -0.1445865402,
				"element": "H" 
			},
			{
				"x": -1.2736112525,
				"y": 0.3642309521,
				"z": 0.374263917,
				"element": "H" 
			},
			{
				"x": -0.9681455335,
				"y": -0.2759892714,
				"z": 2.5610299752,
				"element": "H" 
			},
			{
				"x": -1.1099267747,
				"y": -1.7968069754,
				"z": 1.7039854031,
				"element": "H" 
			},
			{
				"x": 0.1803969155,
				"y": -3.1628074925,
				"z": 3.3481983827,
				"element": "H" 
			},
			{
				"x": 2.3687985156,
				"y": -3.6973853561,
				"z": 4.3804122286,
				"element": "H" 
			},
			{
				"x": 4.3074343529,
				"y": -2.1722932937,
				"z": 4.0581743037,
				"element": "H" 
			},
			{
				"x": 4.0293684087,
				"y": -0.1073440838,
				"z": 2.6613645137,
				"element": "H" 
			}
		],
		 "valence_orbital": [ 
			{
				"type": "occ",
				"energy": -0.25136,
				"method": "rhf"
			},
			{
				"type": "occ",
				"energy": -0.24756,
				"method": "rhf"
			},
			{
				"type": "occ",
				"energy": -0.24524,
				"method": "rhf"
			},
			{
				"type": "occ",
				"energy": -0.24062,
				"method": "rhf"
			},
			{
				"type": "occ",
				"energy": -0.23099,
				"method": "rhf"
			},
			{
				"type": "unocc",
				"energy": -0.03576,
				"method": "rhf"
			},
			{
				"type": "unocc",
				"energy": -0.00872,
				"method": "rhf"
			},
			{
				"type": "unocc",
				"energy": -0.00473,
				"method": "rhf"
			},
			{
				"type": "unocc",
				"energy": 0.00133,
				"method": "rhf"
			},
			{
				"type": "unocc",
				"energy": 0.06477,
				"method": "rhf"
			}
		],
		"cosmo_sigma_profile": { 
			"-0.025": 0.0,
			"-0.024": 0.0,
			"-0.023": 0.0,
			"-0.022": 0.0,
			"-0.021": 0.0,
			"-0.02": 0.0,
			"-0.019": 0.0,
			"-0.018": 0.0,
			"-0.017": 0.0,
			"-0.016": 0.0,
			"-0.015": 0.0,
			"-0.014": 0.0,
			"-0.013": 0.0,
			"-0.012": 0.0,
			"-0.011": 0.0,
			"-0.01": 0.0,
			"-0.009": 0.0,
			"-0.008": 0.318852902369,
			"-0.007": 2.51698137738,
			"-0.006": 14.6276278665,
			"-0.005": 25.8415913055,
			"-0.004": 31.7986796263,
			"-0.003": 27.7473256113,
			"-0.002": 23.8589143445,
			"-0.001": 20.2386172689,
			"0.0": 15.774753706,
			"0.001": 16.108473036,
			"0.002": 16.7994106201,
			"0.003": 18.6848233016,
			"0.004": 20.9435143889,
			"0.005": 15.4501278418,
			"0.006": 10.0827583972,
			"0.007": 2.72495488658,
			"0.008": 1.39393857956,
			"0.009": 1.67564830337,
			"0.01": 1.60604852812,
			"0.011": 1.17056138449,
			"0.012": 2.11394373968,
			"0.013": 3.32336214596,
			"0.014": 3.23416705802,
			"0.015": 0.0,
			"0.016": 0.0,
			"0.017": 0.0,
			"0.018": 0.0,
			"0.019": 0.0,
			"0.02": 0.0,
			"0.021": 0.0,
			"0.022": 0.0,
			"0.023": 0.0,
			"0.024": 0.0,
			"0.025": 0.0
		}
	}
}
