{
	 "smiles": "OC(=O)C1=C(C=CC=C1)C(C1=CC=C(O)C=C1)C1=CC=C(O)C=C1", 
	 "Tm": 511.15, 
	 "num_atms": 40, 
	 "gaussian": { 
		 "optdone": 1, 
		 "sigma_profile": "yes", 
		 "theory": "DFT", 
		 "functional": "B3LYP", 
		 "basiset": "6-31G**", 
		 "properties": { 
			 "R2extent": 8568.5252, 
			 "electric_dipole_moment_norm": 1.51736404992, 
			 "electric_quadrupole_moment_norm": 12.6544438313, 
			 "total_energy": -1072.67088556, 
			 "HOMO_LUMO_gap": 0.17053, 
			 "cosmo_polarized_energy": -21.4, 
			 "cosmo_cavitation_energy": 43.6, 
			 "cosmo_dispersion_energy": -29.64, 
			 "cosmo_repulsion_energy": 2.27, 
			 "cosmo_total_nonelectrostatic_energy": 16.22, 
			 "SMD_solvation_energy": 8.68 
		},
		"coords": [
			{
				"x": 2.24609301,
				"y": -0.7895240242,
				"z": 1.7119891736,
				"element": "O" 
			},
			{
				"x": 1.6121269886,
				"y": -0.5339912649,
				"z": 0.5418836126,
				"element": "C" 
			},
			{
				"x": 0.6266467047,
				"y": -1.1581053979,
				"z": 0.2020473926,
				"element": "O" 
			},
			{
				"x": 2.3141333957,
				"y": 0.5105242578,
				"z": -0.2636399095,
				"element": "C" 
			},
			{
				"x": 1.6461199354,
				"y": 1.5407943884,
				"z": -0.9615186766,
				"element": "C" 
			},
			{
				"x": 2.4315033961,
				"y": 2.3886072124,
				"z": -1.7589209368,
				"element": "C" 
			},
			{
				"x": 3.8101659701,
				"y": 2.2380729601,
				"z": -1.8781049714,
				"element": "C" 
			},
			{
				"x": 4.4608770883,
				"y": 1.2314370497,
				"z": -1.1646738769,
				"element": "C" 
			},
			{
				"x": 3.7118986158,
				"y": 0.3851935026,
				"z": -0.3552303229,
				"element": "C" 
			},
			{
				"x": 0.1438570146,
				"y": 1.8787682281,
				"z": -0.8949526899,
				"element": "C" 
			},
			{
				"x": -0.6253076828,
				"y": 1.3445060107,
				"z": -2.1047661916,
				"element": "C" 
			},
			{
				"x": -0.5763362894,
				"y": 0.0029963102,
				"z": -2.5075163516,
				"element": "C" 
			},
			{
				"x": -1.2862048097,
				"y": -0.4367723179,
				"z": -3.6243505438,
				"element": "C" 
			},
			{
				"x": -2.0624509362,
				"y": 0.4596582256,
				"z": -4.3661155297,
				"element": "C" 
			},
			{
				"x": -2.774933787,
				"y": 0.0841258067,
				"z": -5.4714113766,
				"element": "O" 
			},
			{
				"x": -2.1255279056,
				"y": 1.8010798787,
				"z": -3.9782548309,
				"element": "C" 
			},
			{
				"x": -1.4110699135,
				"y": 2.2268109742,
				"z": -2.8614601958,
				"element": "C" 
			},
			{
				"x": -0.5232452348,
				"y": 1.6458173288,
				"z": 0.4662007648,
				"element": "C" 
			},
			{
				"x": 0.047394067,
				"y": 2.2175725343,
				"z": 1.6155173167,
				"element": "C" 
			},
			{
				"x": -0.5483137874,
				"y": 2.0949142314,
				"z": 2.8669090196,
				"element": "C" 
			},
			{
				"x": -1.7518474322,
				"y": 1.3931320309,
				"z": 2.9946610417,
				"element": "C" 
			},
			{
				"x": -2.3014855273,
				"y": 1.2983289569,
				"z": 4.2444029782,
				"element": "O" 
			},
			{
				"x": -2.3397911249,
				"y": 0.825309014,
				"z": 1.8620244931,
				"element": "C" 
			},
			{
				"x": -1.7278449257,
				"y": 0.9539514259,
				"z": 0.6142854847,
				"element": "C" 
			},
			{
				"x": 1.7449546688,
				"y": -1.5099906953,
				"z": 2.1302721583,
				"element": "H" 
			},
			{
				"x": 1.9375371579,
				"y": 3.1932352466,
				"z": -2.2973960019,
				"element": "H" 
			},
			{
				"x": 4.3744501794,
				"y": 2.9157178786,
				"z": -2.5124315381,
				"element": "H" 
			},
			{
				"x": 5.537635672,
				"y": 1.1101262492,
				"z": -1.2325105912,
				"element": "H" 
			},
			{
				"x": 4.2016403307,
				"y": -0.3988906525,
				"z": 0.2120276888,
				"element": "H" 
			},
			{
				"x": 0.1272100334,
				"y": 2.9694843474,
				"z": -1.0199367469,
				"element": "H" 
			},
			{
				"x": 0.0058816237,
				"y": -0.7060273942,
				"z": -1.9302035439,
				"element": "H" 
			},
			{
				"x": -1.2347478311,
				"y": -1.4833221384,
				"z": -3.9198285235,
				"element": "H" 
			},
			{
				"x": -2.6400317711,
				"y": -0.8599618908,
				"z": -5.6248245851,
				"element": "H" 
			},
			{
				"x": -2.7292180215,
				"y": 2.4906344404,
				"z": -4.5592040712,
				"element": "H" 
			},
			{
				"x": -1.467892183,
				"y": 3.2735108801,
				"z": -2.5710892195,
				"element": "H" 
			},
			{
				"x": 0.9799532738,
				"y": 2.7701377764,
				"z": 1.5319197299,
				"element": "H" 
			},
			{
				"x": -0.1005496295,
				"y": 2.5386556027,
				"z": 3.7501897287,
				"element": "H" 
			},
			{
				"x": -3.1273265935,
				"y": 0.8008447532,
				"z": 4.1853179574,
				"element": "H" 
			},
			{
				"x": -3.2761663462,
				"y": 0.2774979962,
				"z": 1.9515083834,
				"element": "H" 
			},
			{
				"x": -2.1963873936,
				"y": 0.5008402778,
				"z": -0.2519156986,
				"element": "H" 
			}
		],
		 "valence_orbital": [ 
			{
				"type": "occ",
				"energy": -0.25352,
				"method": "rhf"
			},
			{
				"type": "occ",
				"energy": -0.24587,
				"method": "rhf"
			},
			{
				"type": "occ",
				"energy": -0.24121,
				"method": "rhf"
			},
			{
				"type": "occ",
				"energy": -0.21265,
				"method": "rhf"
			},
			{
				"type": "occ",
				"energy": -0.20745,
				"method": "rhf"
			},
			{
				"type": "unocc",
				"energy": -0.03692,
				"method": "rhf"
			},
			{
				"type": "unocc",
				"energy": -0.01149,
				"method": "rhf"
			},
			{
				"type": "unocc",
				"energy": -0.00116,
				"method": "rhf"
			},
			{
				"type": "unocc",
				"energy": 0.01093,
				"method": "rhf"
			},
			{
				"type": "unocc",
				"energy": 0.01732,
				"method": "rhf"
			}
		],
		"cosmo_sigma_profile": { 
			"-0.025": 0.0,
			"-0.024": 0.0,
			"-0.023": 0.0,
			"-0.022": 0.0,
			"-0.021": 0.0,
			"-0.02": 0.0,
			"-0.019": 0.0131385674291,
			"-0.018": 1.17405897433,
			"-0.017": 2.64466574841,
			"-0.016": 3.94187833481,
			"-0.015": 2.3619284954,
			"-0.014": 2.31666628929,
			"-0.013": 2.82745283892,
			"-0.012": 2.274815228,
			"-0.011": 2.80665805984,
			"-0.01": 2.63764003217,
			"-0.009": 3.03163291353,
			"-0.008": 2.65018365505,
			"-0.007": 3.83855849783,
			"-0.006": 16.8507983543,
			"-0.005": 23.2484635479,
			"-0.004": 24.0605005619,
			"-0.003": 20.9001611538,
			"-0.002": 17.4155456136,
			"-0.001": 17.2073996783,
			"0.0": 17.1546102295,
			"0.001": 21.0618883331,
			"0.002": 20.8410069745,
			"0.003": 26.2896352886,
			"0.004": 35.2142184855,
			"0.005": 24.8789373407,
			"0.006": 15.5225230917,
			"0.007": 5.92384723085,
			"0.008": 6.82557185419,
			"0.009": 5.91016088586,
			"0.01": 5.22463886295,
			"0.011": 6.84189410901,
			"0.012": 3.46316592585,
			"0.013": 0.0480722129228,
			"0.014": 0.0,
			"0.015": 0.0,
			"0.016": 0.0,
			"0.017": 0.0,
			"0.018": 0.0,
			"0.019": 0.0,
			"0.02": 0.0,
			"0.021": 0.0,
			"0.022": 0.0,
			"0.023": 0.0,
			"0.024": 0.0,
			"0.025": 0.0
		}
	}
}
