{
	 "smiles": "OC(=O)CCC1NC(=O)N(C1=O)C1=CC=C(Cl)C=C1", 
	 "Tm": 486.15, 
	 "num_atms": 30, 
	 "gaussian": { 
		 "optdone": 1, 
		 "sigma_profile": "yes", 
		 "theory": "DFT", 
		 "functional": "B3LYP", 
		 "basiset": "6-31G**", 
		 "properties": { 
			 "R2extent": 8352.4533, 
			 "electric_dipole_moment_norm": 4.08542614179, 
			 "electric_quadrupole_moment_norm": 30.1310829873, 
			 "total_energy": -1334.544456, 
			 "HOMO_LUMO_gap": 0.2024, 
			 "cosmo_polarized_energy": -26.61, 
			 "cosmo_cavitation_energy": 36.56, 
			 "cosmo_dispersion_energy": -26.23, 
			 "cosmo_repulsion_energy": 2.01, 
			 "cosmo_total_nonelectrostatic_energy": 12.35, 
			 "SMD_solvation_energy": 8.39 
		},
		"coords": [
			{
				"x": 1.5483363759,
				"y": -3.7877640492,
				"z": -0.6829671491,
				"element": "O" 
			},
			{
				"x": 2.5098359619,
				"y": -3.6140904155,
				"z": -1.6162875104,
				"element": "C" 
			},
			{
				"x": 3.1884966058,
				"y": -4.5437474271,
				"z": -1.9788848509,
				"element": "O" 
			},
			{
				"x": 2.6907441012,
				"y": -2.2084083001,
				"z": -2.2050460906,
				"element": "C" 
			},
			{
				"x": 2.4227927388,
				"y": -1.0080627811,
				"z": -1.2744217692,
				"element": "C" 
			},
			{
				"x": 0.9948235563,
				"y": -0.4429417609,
				"z": -1.3356756942,
				"element": "C" 
			},
			{
				"x": -0.056966155,
				"y": -1.384113539,
				"z": -0.9308500914,
				"element": "N" 
			},
			{
				"x": -0.9128861453,
				"y": -0.8063899518,
				"z": 0.0172508504,
				"element": "C" 
			},
			{
				"x": -1.9616365872,
				"y": -1.2659818056,
				"z": 0.4017974169,
				"element": "O" 
			},
			{
				"x": -0.3069575365,
				"y": 0.4006780574,
				"z": 0.4392245207,
				"element": "N" 
			},
			{
				"x": 0.8177706499,
				"y": 0.7014550838,
				"z": -0.3336560484,
				"element": "C" 
			},
			{
				"x": 1.5371883338,
				"y": 1.6703756943,
				"z": -0.2329384592,
				"element": "O" 
			},
			{
				"x": -0.8157334033,
				"y": 1.2091672096,
				"z": 1.5044110979,
				"element": "C" 
			},
			{
				"x": -1.3839014143,
				"y": 0.6013231664,
				"z": 2.6294642736,
				"element": "C" 
			},
			{
				"x": -1.8777360931,
				"y": 1.3871924897,
				"z": 3.6677691989,
				"element": "C" 
			},
			{
				"x": -1.7895544275,
				"y": 2.7760517977,
				"z": 3.580853017,
				"element": "C" 
			},
			{
				"x": -2.4049239189,
				"y": 3.7659235168,
				"z": 4.8924824287,
				"element": "Cl" 
			},
			{
				"x": -1.2188315836,
				"y": 3.3887245425,
				"z": 2.4664361853,
				"element": "C" 
			},
			{
				"x": -0.7350860817,
				"y": 2.6034377203,
				"z": 1.4221384795,
				"element": "C" 
			},
			{
				"x": 1.0327523864,
				"y": -2.9721238511,
				"z": -0.5296630999,
				"element": "H" 
			},
			{
				"x": 3.7226666952,
				"y": -2.1856069997,
				"z": -2.5607876874,
				"element": "H" 
			},
			{
				"x": 2.0653107286,
				"y": -2.1459579933,
				"z": -3.1070562985,
				"element": "H" 
			},
			{
				"x": 3.0883859078,
				"y": -0.1816128688,
				"z": -1.5394627432,
				"element": "H" 
			},
			{
				"x": 2.6616200514,
				"y": -1.2700495787,
				"z": -0.2369291404,
				"element": "H" 
			},
			{
				"x": 0.7996987693,
				"y": -0.0511100465,
				"z": -2.3433043626,
				"element": "H" 
			},
			{
				"x": -0.5526199927,
				"y": -1.9118787097,
				"z": -1.6410054043,
				"element": "H" 
			},
			{
				"x": -1.4581456173,
				"y": -0.4767793525,
				"z": 2.688925333,
				"element": "H" 
			},
			{
				"x": -2.3238752602,
				"y": 0.9225815584,
				"z": 4.5396147984,
				"element": "H" 
			},
			{
				"x": -1.155187585,
				"y": 4.4694615563,
				"z": 2.4114185385,
				"element": "H" 
			},
			{
				"x": -0.2821810607,
				"y": 3.0740470375,
				"z": 0.5596502609,
				"element": "H" 
			}
		],
		 "valence_orbital": [ 
			{
				"type": "occ",
				"energy": -0.31109,
				"method": "rhf"
			},
			{
				"type": "occ",
				"energy": -0.29256,
				"method": "rhf"
			},
			{
				"type": "occ",
				"energy": -0.27754,
				"method": "rhf"
			},
			{
				"type": "occ",
				"energy": -0.26765,
				"method": "rhf"
			},
			{
				"type": "occ",
				"energy": -0.25108,
				"method": "rhf"
			},
			{
				"type": "unocc",
				"energy": -0.04868,
				"method": "rhf"
			},
			{
				"type": "unocc",
				"energy": -0.03422,
				"method": "rhf"
			},
			{
				"type": "unocc",
				"energy": -0.02715,
				"method": "rhf"
			},
			{
				"type": "unocc",
				"energy": 0.00788,
				"method": "rhf"
			},
			{
				"type": "unocc",
				"energy": 0.02097,
				"method": "rhf"
			}
		],
		"cosmo_sigma_profile": { 
			"-0.025": 0.0,
			"-0.024": 0.0,
			"-0.023": 0.0,
			"-0.022": 0.0,
			"-0.021": 0.0,
			"-0.02": 0.0,
			"-0.019": 0.0,
			"-0.018": 0.0,
			"-0.017": 0.0242767606756,
			"-0.016": 1.47796876543,
			"-0.015": 1.98403449868,
			"-0.014": 2.19127025611,
			"-0.013": 1.65751546961,
			"-0.012": 1.59403653017,
			"-0.011": 2.03774615808,
			"-0.01": 5.31921232213,
			"-0.009": 8.68699018629,
			"-0.008": 8.63295444321,
			"-0.007": 13.5981847883,
			"-0.006": 20.3086734773,
			"-0.005": 19.0830084159,
			"-0.004": 16.112253245,
			"-0.003": 12.7650639144,
			"-0.002": 13.6085481266,
			"-0.001": 11.2946356134,
			"0.0": 13.3123641678,
			"0.001": 17.4430838349,
			"0.002": 22.0070692177,
			"0.003": 17.5417725166,
			"0.004": 16.0489395389,
			"0.005": 8.41504066186,
			"0.006": 5.70482778588,
			"0.007": 5.82077253316,
			"0.008": 4.93760395004,
			"0.009": 5.9401376598,
			"0.01": 9.81859448844,
			"0.011": 13.2358303691,
			"0.012": 8.35233186256,
			"0.013": 4.28907465856,
			"0.014": 0.727285523489,
			"0.015": 0.0,
			"0.016": 0.0,
			"0.017": 0.0,
			"0.018": 0.0,
			"0.019": 0.0,
			"0.02": 0.0,
			"0.021": 0.0,
			"0.022": 0.0,
			"0.023": 0.0,
			"0.024": 0.0,
			"0.025": 0.0
		}
	}
}
