{
	 "smiles": "BrC1=CC=C(C=C1)C1=CC=C(O1)C=C1N=C(OC1=O)C1=CC=CC=C1", 
	 "Tm": 453.15, 
	 "num_atms": 37, 
	 "gaussian": { 
		 "optdone": 1, 
		 "sigma_profile": "yes", 
		 "theory": "DFT", 
		 "functional": "B3LYP", 
		 "basiset": "6-31G**", 
		 "properties": { 
			 "R2extent": 21389.7558, 
			 "electric_dipole_moment_norm": 3.47805430377, 
			 "electric_quadrupole_moment_norm": 26.3850921041, 
			 "total_energy": -3621.18185385, 
			 "HOMO_LUMO_gap": 0.10515, 
			 "cosmo_polarized_energy": -13.7, 
			 "cosmo_cavitation_energy": 46.08, 
			 "cosmo_dispersion_energy": -33.74, 
			 "cosmo_repulsion_energy": 2.48, 
			 "cosmo_total_nonelectrostatic_energy": 14.83, 
			 "SMD_solvation_energy": 6.25 
		},
		"coords": [
			{
				"x": 1.5073735533,
				"y": 3.8397576696,
				"z": 7.4370333692,
				"element": "Br" 
			},
			{
				"x": 0.7119865441,
				"y": 2.5559731321,
				"z": 6.2693668323,
				"element": "C" 
			},
			{
				"x": 0.8937172916,
				"y": 2.6725805848,
				"z": 4.8912987814,
				"element": "C" 
			},
			{
				"x": 0.3132478123,
				"y": 1.7361103264,
				"z": 4.0410414713,
				"element": "C" 
			},
			{
				"x": -0.4530573916,
				"y": 0.6764780936,
				"z": 4.5643358946,
				"element": "C" 
			},
			{
				"x": -0.62160407,
				"y": 0.5807177415,
				"z": 5.9576841962,
				"element": "C" 
			},
			{
				"x": -0.0433707364,
				"y": 1.514290379,
				"z": 6.8104614709,
				"element": "C" 
			},
			{
				"x": -1.0567582857,
				"y": -0.2982356139,
				"z": 3.6724191998,
				"element": "C" 
			},
			{
				"x": -1.8418759348,
				"y": -1.4216491929,
				"z": 3.8643228546,
				"element": "C" 
			},
			{
				"x": -2.1100976283,
				"y": -1.9489023177,
				"z": 2.5834776415,
				"element": "C" 
			},
			{
				"x": -1.4764983305,
				"y": -1.1236625701,
				"z": 1.6648881417,
				"element": "C" 
			},
			{
				"x": -0.8389217145,
				"y": -0.1225508038,
				"z": 2.343027884,
				"element": "O" 
			},
			{
				"x": -1.4276634129,
				"y": -1.2032665831,
				"z": 0.2505972209,
				"element": "C" 
			},
			{
				"x": -0.8164446796,
				"y": -0.4123069401,
				"z": -0.684739496,
				"element": "C" 
			},
			{
				"x": -0.9159517701,
				"y": -0.7023478976,
				"z": -2.0465621747,
				"element": "N" 
			},
			{
				"x": -0.240756239,
				"y": 0.216511281,
				"z": -2.6587604822,
				"element": "C" 
			},
			{
				"x": 0.3466443339,
				"y": 1.1592958231,
				"z": -1.8470758032,
				"element": "O" 
			},
			{
				"x": 0.0107510707,
				"y": 0.8103363292,
				"z": -0.5261476095,
				"element": "C" 
			},
			{
				"x": 0.3944572757,
				"y": 1.4687844058,
				"z": 0.405722583,
				"element": "O" 
			},
			{
				"x": -0.0432567783,
				"y": 0.3508877328,
				"z": -4.096429553,
				"element": "C" 
			},
			{
				"x": -0.6262891427,
				"y": -0.5911084248,
				"z": -4.9623748682,
				"element": "C" 
			},
			{
				"x": -0.4461029726,
				"y": -0.4753143761,
				"z": -6.3361935931,
				"element": "C" 
			},
			{
				"x": 0.3139561063,
				"y": 0.5761714544,
				"z": -6.8599590043,
				"element": "C" 
			},
			{
				"x": 0.8943261164,
				"y": 1.5133831678,
				"z": -6.0024593429,
				"element": "C" 
			},
			{
				"x": 0.7193277083,
				"y": 1.40559844,
				"z": -4.6243927771,
				"element": "C" 
			},
			{
				"x": 1.4830242738,
				"y": 3.4872098844,
				"z": 4.4862835058,
				"element": "H" 
			},
			{
				"x": 0.4488478004,
				"y": 1.8185187659,
				"z": 2.9673869954,
				"element": "H" 
			},
			{
				"x": -1.2085686167,
				"y": -0.2281905268,
				"z": 6.3817299304,
				"element": "H" 
			},
			{
				"x": -0.1758565613,
				"y": 1.4367962841,
				"z": 7.8834253822,
				"element": "H" 
			},
			{
				"x": -2.1801913739,
				"y": -1.8136754065,
				"z": 4.8120271427,
				"element": "H" 
			},
			{
				"x": -2.6947635878,
				"y": -2.8258818398,
				"z": 2.3438702469,
				"element": "H" 
			},
			{
				"x": -1.9754792163,
				"y": -2.0456124739,
				"z": -0.1639784688,
				"element": "H" 
			},
			{
				"x": -1.2120979032,
				"y": -1.3993900915,
				"z": -4.5380688848,
				"element": "H" 
			},
			{
				"x": -0.8975672969,
				"y": -1.2043065221,
				"z": -7.0025973282,
				"element": "H" 
			},
			{
				"x": 0.4525741538,
				"y": 0.663453071,
				"z": -7.9337023266,
				"element": "H" 
			},
			{
				"x": 1.4844615452,
				"y": 2.3299598288,
				"z": -6.407556063,
				"element": "H" 
			},
			{
				"x": 1.1667780571,
				"y": 2.1292871854,
				"z": -3.9522029693,
				"element": "H" 
			}
		],
		 "valence_orbital": [ 
			{
				"type": "occ",
				"energy": -0.26869,
				"method": "rhf"
			},
			{
				"type": "occ",
				"energy": -0.26771,
				"method": "rhf"
			},
			{
				"type": "occ",
				"energy": -0.26155,
				"method": "rhf"
			},
			{
				"type": "occ",
				"energy": -0.24479,
				"method": "rhf"
			},
			{
				"type": "occ",
				"energy": -0.20001,
				"method": "rhf"
			},
			{
				"type": "unocc",
				"energy": -0.09486,
				"method": "rhf"
			},
			{
				"type": "unocc",
				"energy": -0.04074,
				"method": "rhf"
			},
			{
				"type": "unocc",
				"energy": -0.02686,
				"method": "rhf"
			},
			{
				"type": "unocc",
				"energy": -0.01649,
				"method": "rhf"
			},
			{
				"type": "unocc",
				"energy": -0.01011,
				"method": "rhf"
			}
		],
		"cosmo_sigma_profile": { 
			"-0.025": 0.0,
			"-0.024": 0.0,
			"-0.023": 0.0,
			"-0.022": 0.0,
			"-0.021": 0.0,
			"-0.02": 0.0,
			"-0.019": 0.0,
			"-0.018": 0.0,
			"-0.017": 0.0,
			"-0.016": 0.0,
			"-0.015": 0.0,
			"-0.014": 0.0,
			"-0.013": 0.0,
			"-0.012": 0.0,
			"-0.011": 0.0,
			"-0.01": 0.0,
			"-0.009": 4.27980832255,
			"-0.008": 8.59132542453,
			"-0.007": 12.0181352301,
			"-0.006": 18.7578270356,
			"-0.005": 21.4759884294,
			"-0.004": 22.567261234,
			"-0.003": 19.7392673792,
			"-0.002": 19.1992088229,
			"-0.001": 27.0459479173,
			"0.0": 37.729864919,
			"0.001": 41.7364234651,
			"0.002": 42.9451897042,
			"0.003": 34.6316245638,
			"0.004": 29.2111879984,
			"0.005": 9.80266616733,
			"0.006": 5.38133538236,
			"0.007": 4.9830474723,
			"0.008": 5.25455062253,
			"0.009": 3.91451934043,
			"0.01": 2.53022721659,
			"0.011": 3.44019839204,
			"0.012": 1.36194054103,
			"0.013": 0.15776210314,
			"0.014": 0.0,
			"0.015": 0.0,
			"0.016": 0.0,
			"0.017": 0.0,
			"0.018": 0.0,
			"0.019": 0.0,
			"0.02": 0.0,
			"0.021": 0.0,
			"0.022": 0.0,
			"0.023": 0.0,
			"0.024": 0.0,
			"0.025": 0.0
		}
	}
}
