{
	 "smiles": "ON=C(C#N)C1=CC=CC=C1", 
	 "Tm": 402.15, 
	 "num_atms": 17, 
	 "gaussian": { 
		 "optdone": 1, 
		 "sigma_profile": "yes", 
		 "theory": "DFT", 
		 "functional": "B3LYP", 
		 "basiset": "6-31G**", 
		 "properties": { 
			 "R2extent": 2293.9098, 
			 "electric_dipole_moment_norm": 4.37190647658, 
			 "electric_quadrupole_moment_norm": 22.5187915042, 
			 "total_energy": -493.105966015, 
			 "HOMO_LUMO_gap": 0.17755, 
			 "cosmo_polarized_energy": -10.63, 
			 "cosmo_cavitation_energy": 22.67, 
			 "cosmo_dispersion_energy": -16.37, 
			 "cosmo_repulsion_energy": 1.32, 
			 "cosmo_total_nonelectrostatic_energy": 7.62, 
			 "SMD_solvation_energy": 5.3 
		},
		"coords": [
			{
				"x": 0.5825433075,
				"y": 2.079812268,
				"z": -1.3435475614,
				"element": "O" 
			},
			{
				"x": 1.7707801871,
				"y": 2.1094024799,
				"z": -0.6410918812,
				"element": "N" 
			},
			{
				"x": 2.0390696561,
				"y": 1.016019146,
				"z": 0.0042371688,
				"element": "C" 
			},
			{
				"x": 3.306544133,
				"y": 1.1365120651,
				"z": 0.6954145017,
				"element": "C" 
			},
			{
				"x": 4.3203391576,
				"y": 1.2051945,
				"z": 1.2593030051,
				"element": "N" 
			},
			{
				"x": 1.3097576865,
				"y": -0.2673386642,
				"z": 0.1395809494,
				"element": "C" 
			},
			{
				"x": 1.9844589039,
				"y": -1.3585665957,
				"z": 0.7231547377,
				"element": "C" 
			},
			{
				"x": 1.3522208808,
				"y": -2.5882112409,
				"z": 0.8795276386,
				"element": "C" 
			},
			{
				"x": 0.0295415777,
				"y": -2.7540451722,
				"z": 0.4654801395,
				"element": "C" 
			},
			{
				"x": -0.6526782003,
				"y": -1.6789189649,
				"z": -0.1058665271,
				"element": "C" 
			},
			{
				"x": -0.0260522007,
				"y": -0.4458668635,
				"z": -0.2738103378,
				"element": "C" 
			},
			{
				"x": 0.5670457314,
				"y": 2.9529750232,
				"z": -1.7599353401,
				"element": "H" 
			},
			{
				"x": 3.0105418666,
				"y": -1.2408236862,
				"z": 1.0552349428,
				"element": "H" 
			},
			{
				"x": 1.8939156227,
				"y": -3.4155410478,
				"z": 1.3277791708,
				"element": "H" 
			},
			{
				"x": -0.4659936229,
				"y": -3.7125356739,
				"z": 0.589093656,
				"element": "H" 
			},
			{
				"x": -1.683690459,
				"y": -1.7973208856,
				"z": -0.4258560349,
				"element": "H" 
			},
			{
				"x": -0.5696442279,
				"y": 0.3747533127,
				"z": -0.716398228,
				"element": "H" 
			}
		],
		 "valence_orbital": [ 
			{
				"type": "occ",
				"energy": -0.33952,
				"method": "rhf"
			},
			{
				"type": "occ",
				"energy": -0.30071,
				"method": "rhf"
			},
			{
				"type": "occ",
				"energy": -0.29835,
				"method": "rhf"
			},
			{
				"type": "occ",
				"energy": -0.26624,
				"method": "rhf"
			},
			{
				"type": "occ",
				"energy": -0.25161,
				"method": "rhf"
			},
			{
				"type": "unocc",
				"energy": -0.07406,
				"method": "rhf"
			},
			{
				"type": "unocc",
				"energy": -0.01641,
				"method": "rhf"
			},
			{
				"type": "unocc",
				"energy": 7e-05,
				"method": "rhf"
			},
			{
				"type": "unocc",
				"energy": 0.01993,
				"method": "rhf"
			},
			{
				"type": "unocc",
				"energy": 0.05913,
				"method": "rhf"
			}
		],
		"cosmo_sigma_profile": { 
			"-0.025": 0.0,
			"-0.024": 0.0,
			"-0.023": 0.0,
			"-0.022": 0.0,
			"-0.021": 0.0,
			"-0.02": 0.0799038153544,
			"-0.019": 0.8851841837,
			"-0.018": 1.27706298328,
			"-0.017": 0.815672436669,
			"-0.016": 0.723451472034,
			"-0.015": 1.22755086993,
			"-0.014": 0.587828717579,
			"-0.013": 0.46616897163,
			"-0.012": 0.60067655323,
			"-0.011": 0.789259521034,
			"-0.01": 0.983281255315,
			"-0.009": 0.440671912079,
			"-0.008": 0.527922939293,
			"-0.007": 2.89697879222,
			"-0.006": 9.49114304831,
			"-0.005": 11.3651973186,
			"-0.004": 12.1732312134,
			"-0.003": 11.3384020933,
			"-0.002": 11.9188364621,
			"-0.001": 12.4628885257,
			"0.0": 12.562282149,
			"0.001": 13.6364150352,
			"0.002": 15.0044797025,
			"0.003": 17.1167774132,
			"0.004": 15.5128721844,
			"0.005": 5.04971369914,
			"0.006": 4.19381846653,
			"0.007": 4.28546972517,
			"0.008": 3.50396065337,
			"0.009": 3.95744006336,
			"0.01": 3.28660507905,
			"0.011": 2.51832174403,
			"0.012": 1.71612399044,
			"0.013": 0.131506637721,
			"0.014": 0.0,
			"0.015": 0.0,
			"0.016": 0.0,
			"0.017": 0.0,
			"0.018": 0.0,
			"0.019": 0.0,
			"0.02": 0.0,
			"0.021": 0.0,
			"0.022": 0.0,
			"0.023": 0.0,
			"0.024": 0.0,
			"0.025": 0.0
		}
	}
}
