{
	 "smiles": "NC1=NN=C(C(N)=N1)C1=C(Cl)C(Cl)=CC=C1", 
	 "Tm": 490.15, 
	 "num_atms": 23, 
	 "gaussian": { 
		 "optdone": 1, 
		 "sigma_profile": "yes", 
		 "theory": "DFT", 
		 "functional": "B3LYP", 
		 "basiset": "6-31G**", 
		 "properties": { 
			 "R2extent": 4710.5127, 
			 "electric_dipole_moment_norm": 2.96683565773, 
			 "electric_quadrupole_moment_norm": 18.6856463174, 
			 "total_energy": -1541.30187757, 
			 "HOMO_LUMO_gap": 0.17664, 
			 "cosmo_polarized_energy": -17.47, 
			 "cosmo_cavitation_energy": 31.28, 
			 "cosmo_dispersion_energy": -23.17, 
			 "cosmo_repulsion_energy": 1.83, 
			 "cosmo_total_nonelectrostatic_energy": 9.94, 
			 "SMD_solvation_energy": 1.41 
		},
		"coords": [
			{
				"x": 0.0628240248,
				"y": -3.1619666259,
				"z": 3.681394646,
				"element": "N" 
			},
			{
				"x": 0.0056189795,
				"y": -2.1435545188,
				"z": 2.7815674639,
				"element": "C" 
			},
			{
				"x": -1.2341513542,
				"y": -1.7240112291,
				"z": 2.4404121877,
				"element": "N" 
			},
			{
				"x": -1.3102636533,
				"y": -0.7380690155,
				"z": 1.5578553416,
				"element": "N" 
			},
			{
				"x": -0.2150411132,
				"y": -0.1918061359,
				"z": 1.0334910847,
				"element": "C" 
			},
			{
				"x": 1.0720717493,
				"y": -0.6302343518,
				"z": 1.4783595211,
				"element": "C" 
			},
			{
				"x": 2.2293725963,
				"y": -0.0195840332,
				"z": 1.1075168964,
				"element": "N" 
			},
			{
				"x": 1.1697306761,
				"y": -1.6349308411,
				"z": 2.3480120795,
				"element": "N" 
			},
			{
				"x": -0.4384317767,
				"y": 0.9400617539,
				"z": 0.0918587104,
				"element": "C" 
			},
			{
				"x": 0.0096372124,
				"y": 0.9445827559,
				"z": -1.2439424605,
				"element": "C" 
			},
			{
				"x": 0.8389914341,
				"y": -0.4582970286,
				"z": -1.8923451747,
				"element": "Cl" 
			},
			{
				"x": -0.2440731274,
				"y": 2.0476133385,
				"z": -2.0744092529,
				"element": "C" 
			},
			{
				"x": 0.3093753881,
				"y": 2.0842083462,
				"z": -3.7331605246,
				"element": "Cl" 
			},
			{
				"x": -0.9627211791,
				"y": 3.1411626056,
				"z": -1.591802498,
				"element": "C" 
			},
			{
				"x": -1.4365536913,
				"y": 3.1309424202,
				"z": -0.2820821631,
				"element": "C" 
			},
			{
				"x": -1.1752173432,
				"y": 2.0445271403,
				"z": 0.5464048971,
				"element": "C" 
			},
			{
				"x": 0.9446197291,
				"y": -3.6281833538,
				"z": 3.8163975511,
				"element": "H" 
			},
			{
				"x": -0.7932884229,
				"y": -3.6574243494,
				"z": 3.8717431483,
				"element": "H" 
			},
			{
				"x": 2.2498921774,
				"y": 0.5524153329,
				"z": 0.2792555506,
				"element": "H" 
			},
			{
				"x": 3.0818147593,
				"y": -0.4969407927,
				"z": 1.3616839008,
				"element": "H" 
			},
			{
				"x": -1.1488001928,
				"y": 3.9823800016,
				"z": -2.2498773962,
				"element": "H" 
			},
			{
				"x": -2.0061145642,
				"y": 3.976446004,
				"z": 0.0904111748,
				"element": "H" 
			},
			{
				"x": -1.5423923082,
				"y": 2.0263625766,
				"z": 1.566455316,
				"element": "H" 
			}
		],
		 "valence_orbital": [ 
			{
				"type": "occ",
				"energy": -0.26888,
				"method": "rhf"
			},
			{
				"type": "occ",
				"energy": -0.26317,
				"method": "rhf"
			},
			{
				"type": "occ",
				"energy": -0.25416,
				"method": "rhf"
			},
			{
				"type": "occ",
				"energy": -0.2238,
				"method": "rhf"
			},
			{
				"type": "occ",
				"energy": -0.22257,
				"method": "rhf"
			},
			{
				"type": "unocc",
				"energy": -0.04593,
				"method": "rhf"
			},
			{
				"type": "unocc",
				"energy": -0.02912,
				"method": "rhf"
			},
			{
				"type": "unocc",
				"energy": -0.02563,
				"method": "rhf"
			},
			{
				"type": "unocc",
				"energy": -0.00175,
				"method": "rhf"
			},
			{
				"type": "unocc",
				"energy": 0.00915,
				"method": "rhf"
			}
		],
		"cosmo_sigma_profile": { 
			"-0.025": 0.0,
			"-0.024": 0.0,
			"-0.023": 0.0,
			"-0.022": 0.0,
			"-0.021": 0.0,
			"-0.02": 0.0,
			"-0.019": 0.0,
			"-0.018": 0.0,
			"-0.017": 0.0,
			"-0.016": 0.0,
			"-0.015": 0.122493052027,
			"-0.014": 2.37331835495,
			"-0.013": 4.59271577992,
			"-0.012": 4.11551833814,
			"-0.011": 3.82766685872,
			"-0.01": 3.47808028495,
			"-0.009": 4.02196955515,
			"-0.008": 6.27920768876,
			"-0.007": 7.81322696156,
			"-0.006": 9.59451806328,
			"-0.005": 9.05129823377,
			"-0.004": 7.72112869525,
			"-0.003": 11.1159764943,
			"-0.002": 14.0369980862,
			"-0.001": 15.9826614638,
			"0.0": 22.7038150016,
			"0.001": 26.1828287289,
			"0.002": 23.0342949267,
			"0.003": 20.1174079244,
			"0.004": 17.4472980792,
			"0.005": 9.08017522917,
			"0.006": 5.15031299144,
			"0.007": 4.28965881776,
			"0.008": 3.62050637002,
			"0.009": 3.49528555422,
			"0.01": 2.07707884097,
			"0.011": 2.77977978938,
			"0.012": 3.03847788338,
			"0.013": 2.20485990736,
			"0.014": 3.21077946619,
			"0.015": 1.85211475668,
			"0.016": 0.729614213736,
			"0.017": 0.0284802801239,
			"0.018": 0.0,
			"0.019": 0.0,
			"0.02": 0.0,
			"0.021": 0.0,
			"0.022": 0.0,
			"0.023": 0.0,
			"0.024": 0.0,
			"0.025": 0.0
		}
	}
}
