{
	 "smiles": "CCCNC1=C(N)C=C(C=C1)S(N)(=O)=O", 
	 "Tm": 378.15, 
	 "num_atms": 30, 
	 "gaussian": { 
		 "optdone": 1, 
		 "sigma_profile": "yes", 
		 "theory": "DFT", 
		 "functional": "B3LYP", 
		 "basiset": "6-31G**", 
		 "properties": { 
			 "R2extent": 5603.3826, 
			 "electric_dipole_moment_norm": 4.84589703254, 
			 "electric_quadrupole_moment_norm": 27.9550153409, 
			 "total_energy": -1064.83019436, 
			 "HOMO_LUMO_gap": 0.1834, 
			 "cosmo_polarized_energy": -19.95, 
			 "cosmo_cavitation_energy": 34.06, 
			 "cosmo_dispersion_energy": -24.87, 
			 "cosmo_repulsion_energy": 1.94, 
			 "cosmo_total_nonelectrostatic_energy": 11.13, 
			 "SMD_solvation_energy": 4.37 
		},
		"coords": [
			{
				"x": 3.2466701965,
				"y": 0.6344072068,
				"z": -2.1728260088,
				"element": "C" 
			},
			{
				"x": 1.8860137981,
				"y": -0.0701670509,
				"z": -2.1941668695,
				"element": "C" 
			},
			{
				"x": 0.6835186267,
				"y": 0.882671304,
				"z": -2.093406087,
				"element": "C" 
			},
			{
				"x": 0.5579264731,
				"y": 1.6221323407,
				"z": -0.817881797,
				"element": "N" 
			},
			{
				"x": 0.2414478072,
				"y": 0.8758994361,
				"z": 0.3444031021,
				"element": "C" 
			},
			{
				"x": -1.0837917358,
				"y": 0.3809309287,
				"z": 0.4882759691,
				"element": "C" 
			},
			{
				"x": -2.011432119,
				"y": 0.6181018415,
				"z": -0.5280582532,
				"element": "N" 
			},
			{
				"x": -1.4213056556,
				"y": -0.3367047221,
				"z": 1.6384935983,
				"element": "C" 
			},
			{
				"x": -0.4729368783,
				"y": -0.5285661473,
				"z": 2.6445932424,
				"element": "C" 
			},
			{
				"x": 0.8132673373,
				"y": -0.0037798425,
				"z": 2.5475756697,
				"element": "C" 
			},
			{
				"x": 1.1563279577,
				"y": 0.6875959898,
				"z": 1.3852695467,
				"element": "C" 
			},
			{
				"x": -0.9394095275,
				"y": -1.446707668,
				"z": 4.1033829754,
				"element": "S" 
			},
			{
				"x": -0.6824359221,
				"y": -3.0673023112,
				"z": 3.655567914,
				"element": "N" 
			},
			{
				"x": 0.0150008286,
				"y": -1.1131718285,
				"z": 5.1670586445,
				"element": "O" 
			},
			{
				"x": -2.3888914618,
				"y": -1.3154638068,
				"z": 4.2910628842,
				"element": "O" 
			},
			{
				"x": 4.0661746699,
				"y": -0.0843126428,
				"z": -2.2697867446,
				"element": "H" 
			},
			{
				"x": 3.4098075471,
				"y": 1.1810702091,
				"z": -1.2367558956,
				"element": "H" 
			},
			{
				"x": 3.3354760009,
				"y": 1.3530076695,
				"z": -2.9962162271,
				"element": "H" 
			},
			{
				"x": 1.7866060034,
				"y": -0.6382098867,
				"z": -3.1283116564,
				"element": "H" 
			},
			{
				"x": 1.8306664302,
				"y": -0.8033715908,
				"z": -1.3801681887,
				"element": "H" 
			},
			{
				"x": -0.2420988376,
				"y": 0.319749112,
				"z": -2.2405700753,
				"element": "H" 
			},
			{
				"x": 0.7371115654,
				"y": 1.6320727726,
				"z": -2.8933824085,
				"element": "H" 
			},
			{
				"x": 1.3799766946,
				"y": 2.1956259097,
				"z": -0.659933249,
				"element": "H" 
			},
			{
				"x": -2.976274624,
				"y": 0.5373526048,
				"z": -0.2343669866,
				"element": "H" 
			},
			{
				"x": -1.8318532212,
				"y": 1.4922050905,
				"z": -1.0115820967,
				"element": "H" 
			},
			{
				"x": -2.4325877809,
				"y": -0.7067012938,
				"z": 1.7746582629,
				"element": "H" 
			},
			{
				"x": 1.5210129119,
				"y": -0.1324762436,
				"z": 3.3576769752,
				"element": "H" 
			},
			{
				"x": 2.159444855,
				"y": 1.0933423238,
				"z": 1.2794192473,
				"element": "H" 
			},
			{
				"x": 0.1323727929,
				"y": -3.4282920286,
				"z": 4.1454440834,
				"element": "H" 
			},
			{
				"x": -1.5159047327,
				"y": -3.5973376761,
				"z": 3.8982304285,
				"element": "H" 
			}
		],
		 "valence_orbital": [ 
			{
				"type": "occ",
				"energy": -0.29491,
				"method": "rhf"
			},
			{
				"type": "occ",
				"energy": -0.29261,
				"method": "rhf"
			},
			{
				"type": "occ",
				"energy": -0.27356,
				"method": "rhf"
			},
			{
				"type": "occ",
				"energy": -0.23517,
				"method": "rhf"
			},
			{
				"type": "occ",
				"energy": -0.20535,
				"method": "rhf"
			},
			{
				"type": "unocc",
				"energy": -0.02195,
				"method": "rhf"
			},
			{
				"type": "unocc",
				"energy": 0.00157,
				"method": "rhf"
			},
			{
				"type": "unocc",
				"energy": 0.05984,
				"method": "rhf"
			},
			{
				"type": "unocc",
				"energy": 0.06763,
				"method": "rhf"
			},
			{
				"type": "unocc",
				"energy": 0.08438,
				"method": "rhf"
			}
		],
		"cosmo_sigma_profile": { 
			"-0.025": 0.0,
			"-0.024": 0.0,
			"-0.023": 0.0,
			"-0.022": 0.0,
			"-0.021": 0.0,
			"-0.02": 0.0,
			"-0.019": 0.0,
			"-0.018": 0.0,
			"-0.017": 0.0,
			"-0.016": 0.0,
			"-0.015": 0.331799822678,
			"-0.014": 2.47485061943,
			"-0.013": 2.85428080499,
			"-0.012": 4.19675311706,
			"-0.011": 4.64236775419,
			"-0.01": 5.87309257283,
			"-0.009": 5.99856168769,
			"-0.008": 6.36404349741,
			"-0.007": 6.04834483211,
			"-0.006": 8.50215039876,
			"-0.005": 8.81450655134,
			"-0.004": 9.71767194305,
			"-0.003": 16.149621478,
			"-0.002": 23.3650428986,
			"-0.001": 23.6312379904,
			"0.0": 21.7346263441,
			"0.001": 22.175525733,
			"0.002": 12.3668522376,
			"0.003": 11.5305446802,
			"0.004": 14.0091457037,
			"0.005": 8.61278899993,
			"0.006": 5.80980890284,
			"0.007": 4.74030199682,
			"0.008": 6.51839735418,
			"0.009": 4.98073983092,
			"0.01": 6.20032054608,
			"0.011": 11.5615729561,
			"0.012": 7.5389055471,
			"0.013": 0.667265835862,
			"0.014": 0.0452922450559,
			"0.015": 0.0,
			"0.016": 0.0,
			"0.017": 0.0,
			"0.018": 0.0,
			"0.019": 0.0,
			"0.02": 0.0,
			"0.021": 0.0,
			"0.022": 0.0,
			"0.023": 0.0,
			"0.024": 0.0,
			"0.025": 0.0
		}
	}
}
