{
	 "smiles": "CCOC1=C(OCC)C=C(C=C1)C(C)=O", 
	 "Tm": 323.15, 
	 "num_atms": 31, 
	 "gaussian": { 
		 "optdone": 1, 
		 "sigma_profile": "yes", 
		 "theory": "DFT", 
		 "functional": "B3LYP", 
		 "basiset": "6-31G**", 
		 "properties": { 
			 "R2extent": 4665.8319, 
			 "electric_dipole_moment_norm": 3.22203012711, 
			 "electric_quadrupole_moment_norm": 19.3385548527, 
			 "total_energy": -692.581768766, 
			 "HOMO_LUMO_gap": 0.18668, 
			 "cosmo_polarized_energy": -10.24, 
			 "cosmo_cavitation_energy": 34.47, 
			 "cosmo_dispersion_energy": -23.84, 
			 "cosmo_repulsion_energy": 1.91, 
			 "cosmo_total_nonelectrostatic_energy": 12.54, 
			 "SMD_solvation_energy": 7.21 
		},
		"coords": [
			{
				"x": -1.2636765719,
				"y": -3.3298140003,
				"z": 0.8944411784,
				"element": "C" 
			},
			{
				"x": -0.5042686364,
				"y": -2.028835925,
				"z": 1.0760277444,
				"element": "C" 
			},
			{
				"x": 0.3477089969,
				"y": -1.8565929758,
				"z": -0.0780214964,
				"element": "O" 
			},
			{
				"x": 1.1122503587,
				"y": -0.7190148743,
				"z": -0.0933820083,
				"element": "C" 
			},
			{
				"x": 0.5362712065,
				"y": 0.5648577134,
				"z": -0.2184003107,
				"element": "C" 
			},
			{
				"x": -0.8295736161,
				"y": 0.7269860289,
				"z": -0.2772440155,
				"element": "O" 
			},
			{
				"x": -1.430074526,
				"y": 0.3521959836,
				"z": -1.5337218998,
				"element": "C" 
			},
			{
				"x": -2.9206331981,
				"y": 0.6184138566,
				"z": -1.4322478032,
				"element": "C" 
			},
			{
				"x": 1.3580021729,
				"y": 1.6846341837,
				"z": -0.2496383602,
				"element": "C" 
			},
			{
				"x": 2.7547282559,
				"y": 1.562333474,
				"z": -0.1748021879,
				"element": "C" 
			},
			{
				"x": 3.3197663375,
				"y": 0.2822478135,
				"z": -0.0786767773,
				"element": "C" 
			},
			{
				"x": 2.5023592501,
				"y": -0.8450324673,
				"z": -0.0336309755,
				"element": "C" 
			},
			{
				"x": 3.5732699674,
				"y": 2.8147680436,
				"z": -0.2165172944,
				"element": "C" 
			},
			{
				"x": 5.0880727981,
				"y": 2.7028785314,
				"z": -0.1455843118,
				"element": "C" 
			},
			{
				"x": 3.0373187052,
				"y": 3.9099211621,
				"z": -0.3064139534,
				"element": "O" 
			},
			{
				"x": -1.905832626,
				"y": -3.5126859651,
				"z": 1.7617411165,
				"element": "H" 
			},
			{
				"x": -1.8937730912,
				"y": -3.2910780921,
				"z": 0.000987567,
				"element": "H" 
			},
			{
				"x": -0.5725779765,
				"y": -4.1712396833,
				"z": 0.7906815285,
				"element": "H" 
			},
			{
				"x": 0.1249469335,
				"y": -2.0634520414,
				"z": 1.9759238795,
				"element": "H" 
			},
			{
				"x": -1.1832473387,
				"y": -1.1748277052,
				"z": 1.1636107175,
				"element": "H" 
			},
			{
				"x": -1.2254692409,
				"y": -0.7053279245,
				"z": -1.7387233433,
				"element": "H" 
			},
			{
				"x": -0.9783288684,
				"y": 0.950482743,
				"z": -2.3368352913,
				"element": "H" 
			},
			{
				"x": -3.4123654592,
				"y": 0.3660571444,
				"z": -2.3770059994,
				"element": "H" 
			},
			{
				"x": -3.3711827087,
				"y": 0.0162970788,
				"z": -0.6376245746,
				"element": "H" 
			},
			{
				"x": -3.1099405972,
				"y": 1.6730050648,
				"z": -1.2128809885,
				"element": "H" 
			},
			{
				"x": 0.9170546408,
				"y": 2.6717222518,
				"z": -0.3360262844,
				"element": "H" 
			},
			{
				"x": 4.3960222794,
				"y": 0.1562449951,
				"z": -0.0268137354,
				"element": "H" 
			},
			{
				"x": 2.9212415473,
				"y": -1.842704059,
				"z": 0.0505852104,
				"element": "H" 
			},
			{
				"x": 5.4038291897,
				"y": 2.2107895925,
				"z": 0.7809524291,
				"element": "H" 
			},
			{
				"x": 5.5130874568,
				"y": 3.7061457184,
				"z": -0.1852821293,
				"element": "H" 
			},
			{
				"x": 5.4787143587,
				"y": 2.1097243337,
				"z": -0.9797776307,
				"element": "H" 
			}
		],
		 "valence_orbital": [ 
			{
				"type": "occ",
				"energy": -0.29862,
				"method": "rhf"
			},
			{
				"type": "occ",
				"energy": -0.26574,
				"method": "rhf"
			},
			{
				"type": "occ",
				"energy": -0.24965,
				"method": "rhf"
			},
			{
				"type": "occ",
				"energy": -0.24361,
				"method": "rhf"
			},
			{
				"type": "occ",
				"energy": -0.23627,
				"method": "rhf"
			},
			{
				"type": "unocc",
				"energy": -0.04959,
				"method": "rhf"
			},
			{
				"type": "unocc",
				"energy": -0.00543,
				"method": "rhf"
			},
			{
				"type": "unocc",
				"energy": 0.04447,
				"method": "rhf"
			},
			{
				"type": "unocc",
				"energy": 0.07915,
				"method": "rhf"
			},
			{
				"type": "unocc",
				"energy": 0.09159,
				"method": "rhf"
			}
		],
		"cosmo_sigma_profile": { 
			"-0.025": 0.0,
			"-0.024": 0.0,
			"-0.023": 0.0,
			"-0.022": 0.0,
			"-0.021": 0.0,
			"-0.02": 0.0,
			"-0.019": 0.0,
			"-0.018": 0.0,
			"-0.017": 0.0,
			"-0.016": 0.0,
			"-0.015": 0.0,
			"-0.014": 0.0,
			"-0.013": 0.0,
			"-0.012": 0.0,
			"-0.011": 0.0,
			"-0.01": 0.0,
			"-0.009": 0.0,
			"-0.008": 0.0,
			"-0.007": 1.98274783753,
			"-0.006": 9.50812907128,
			"-0.005": 12.5389026398,
			"-0.004": 24.1518557134,
			"-0.003": 34.3315665674,
			"-0.002": 35.0846949131,
			"-0.001": 31.65971508,
			"0.0": 29.4281224571,
			"0.001": 17.9428265546,
			"0.002": 15.4218668426,
			"0.003": 16.6561107117,
			"0.004": 8.52417744067,
			"0.005": 3.6118962449,
			"0.006": 5.11512894305,
			"0.007": 4.22579346753,
			"0.008": 2.91153511059,
			"0.009": 2.88859907888,
			"0.01": 4.57324951427,
			"0.011": 4.15593971738,
			"0.012": 4.61792409448,
			"0.013": 1.90861315553,
			"0.014": 0.224258766026,
			"0.015": 0.0,
			"0.016": 0.0,
			"0.017": 0.0,
			"0.018": 0.0,
			"0.019": 0.0,
			"0.02": 0.0,
			"0.021": 0.0,
			"0.022": 0.0,
			"0.023": 0.0,
			"0.024": 0.0,
			"0.025": 0.0
		}
	}
}
