{
	 "smiles": "COC1=CC=C(NC(=O)C=CC(O)=O)C=C1", 
	 "Tm": 465.15, 
	 "num_atms": 27, 
	 "gaussian": { 
		 "optdone": 1, 
		 "sigma_profile": "yes", 
		 "theory": "DFT", 
		 "functional": "B3LYP", 
		 "basiset": "6-31G**", 
		 "properties": { 
			 "R2extent": 5757.5507, 
			 "electric_dipole_moment_norm": 4.33981133922, 
			 "electric_quadrupole_moment_norm": 21.0329924716, 
			 "total_energy": -781.432376806, 
			 "HOMO_LUMO_gap": 0.14206, 
			 "cosmo_polarized_energy": -21.89, 
			 "cosmo_cavitation_energy": 33.08, 
			 "cosmo_dispersion_energy": -23.4, 
			 "cosmo_repulsion_energy": 1.85, 
			 "cosmo_total_nonelectrostatic_energy": 11.53, 
			 "SMD_solvation_energy": 8.61 
		},
		"coords": [
			{
				"x": 1.2445248722,
				"y": -3.9560660296,
				"z": -2.0248842508,
				"element": "C" 
			},
			{
				"x": 0.2828411791,
				"y": -2.9135935655,
				"z": -1.9632456859,
				"element": "O" 
			},
			{
				"x": 0.327783073,
				"y": -2.0531698805,
				"z": -0.9083672635,
				"element": "C" 
			},
			{
				"x": -0.6429905344,
				"y": -1.039940117,
				"z": -0.9060622924,
				"element": "C" 
			},
			{
				"x": -0.6954472886,
				"y": -0.1194432636,
				"z": 0.1314469656,
				"element": "C" 
			},
			{
				"x": 0.2453004705,
				"y": -0.1664719676,
				"z": 1.1731850689,
				"element": "C" 
			},
			{
				"x": 0.2046588591,
				"y": 0.7548621936,
				"z": 2.2557791097,
				"element": "N" 
			},
			{
				"x": 0.0931515277,
				"y": 2.1268331796,
				"z": 2.2436296763,
				"element": "C" 
			},
			{
				"x": -0.081330182,
				"y": 2.7520638946,
				"z": 3.2861910393,
				"element": "O" 
			},
			{
				"x": 0.2404770493,
				"y": 2.8117290597,
				"z": 0.9241212276,
				"element": "C" 
			},
			{
				"x": 0.0112295025,
				"y": 4.1260879478,
				"z": 0.8298240097,
				"element": "C" 
			},
			{
				"x": 0.1832182256,
				"y": 4.8401812395,
				"z": -0.4675075394,
				"element": "C" 
			},
			{
				"x": -0.0399132299,
				"y": 6.1808152213,
				"z": -0.4312233468,
				"element": "O" 
			},
			{
				"x": 0.4963487345,
				"y": 4.3037667018,
				"z": -1.5047909693,
				"element": "O" 
			},
			{
				"x": 1.2099465164,
				"y": -1.1770892851,
				"z": 1.166430996,
				"element": "C" 
			},
			{
				"x": 1.25134805,
				"y": -2.1247251314,
				"z": 0.1424258816,
				"element": "C" 
			},
			{
				"x": 1.028624406,
				"y": -4.5105379628,
				"z": -2.9391030008,
				"element": "H" 
			},
			{
				"x": 1.1632038332,
				"y": -4.633224155,
				"z": -1.1648450391,
				"element": "H" 
			},
			{
				"x": 2.2669243635,
				"y": -3.560428079,
				"z": -2.075960589,
				"element": "H" 
			},
			{
				"x": -1.3593040238,
				"y": -1.0063705465,
				"z": -1.7199363991,
				"element": "H" 
			},
			{
				"x": -1.4744736132,
				"y": 0.6360819875,
				"z": 0.1435905831,
				"element": "H" 
			},
			{
				"x": 0.1990282145,
				"y": 0.3777789316,
				"z": 3.196107319,
				"element": "H" 
			},
			{
				"x": 0.5538275206,
				"y": 2.2592824001,
				"z": 0.0444406182,
				"element": "H" 
			},
			{
				"x": -0.296925777,
				"y": 4.6665155285,
				"z": 1.7230671179,
				"element": "H" 
			},
			{
				"x": -0.2724192665,
				"y": 6.4603686682,
				"z": 0.4653430441,
				"element": "H" 
			},
			{
				"x": 1.9427198693,
				"y": -1.2198349194,
				"z": 1.9672035962,
				"element": "H" 
			},
			{
				"x": 2.0100476482,
				"y": -2.8974720507,
				"z": 0.168340123,
				"element": "H" 
			}
		],
		 "valence_orbital": [ 
			{
				"type": "occ",
				"energy": -0.28018,
				"method": "rhf"
			},
			{
				"type": "occ",
				"energy": -0.27661,
				"method": "rhf"
			},
			{
				"type": "occ",
				"energy": -0.26703,
				"method": "rhf"
			},
			{
				"type": "occ",
				"energy": -0.26277,
				"method": "rhf"
			},
			{
				"type": "occ",
				"energy": -0.22122,
				"method": "rhf"
			},
			{
				"type": "unocc",
				"energy": -0.07916,
				"method": "rhf"
			},
			{
				"type": "unocc",
				"energy": -0.0178,
				"method": "rhf"
			},
			{
				"type": "unocc",
				"energy": -0.0063,
				"method": "rhf"
			},
			{
				"type": "unocc",
				"energy": 0.04633,
				"method": "rhf"
			},
			{
				"type": "unocc",
				"energy": 0.05996,
				"method": "rhf"
			}
		],
		"cosmo_sigma_profile": { 
			"-0.025": 0.0,
			"-0.024": 0.0,
			"-0.023": 0.0,
			"-0.022": 0.0,
			"-0.021": 0.0,
			"-0.02": 0.104947158738,
			"-0.019": 1.07743956531,
			"-0.018": 1.29608440776,
			"-0.017": 1.3626942339,
			"-0.016": 1.70876282135,
			"-0.015": 0.839374819968,
			"-0.014": 1.46545616576,
			"-0.013": 2.83800690164,
			"-0.012": 2.09977431428,
			"-0.011": 2.20634327525,
			"-0.01": 1.20688610779,
			"-0.009": 2.30466515557,
			"-0.008": 2.5643826684,
			"-0.007": 6.88386054171,
			"-0.006": 15.825248213,
			"-0.005": 21.0580731533,
			"-0.004": 18.2969549916,
			"-0.003": 19.7797386964,
			"-0.002": 15.3667559042,
			"-0.001": 12.9087578131,
			"0.0": 15.9908346449,
			"0.001": 14.4740224504,
			"0.002": 13.1001268384,
			"0.003": 14.7816643222,
			"0.004": 15.0414220699,
			"0.005": 7.83546286141,
			"0.006": 5.46964959484,
			"0.007": 5.57973137103,
			"0.008": 4.42355847075,
			"0.009": 5.91660716034,
			"0.01": 8.46194919973,
			"0.011": 6.44163307325,
			"0.012": 7.2506022661,
			"0.013": 6.53542105257,
			"0.014": 1.19915216923,
			"0.015": 0.0,
			"0.016": 0.0,
			"0.017": 0.0,
			"0.018": 0.0,
			"0.019": 0.0,
			"0.02": 0.0,
			"0.021": 0.0,
			"0.022": 0.0,
			"0.023": 0.0,
			"0.024": 0.0,
			"0.025": 0.0
		}
	}
}
