{
	 "smiles": "[O-][N+](=O)C1=CC(=C(C=C(Cl)C2=CC=CC=C2)C=C1C=C(Cl)C1=CC=CC=C1)[N+]([O-])=O", 
	 "Tm": 418.15, 
	 "num_atms": 44, 
	 "gaussian": { 
		 "optdone": 1, 
		 "sigma_profile": "yes", 
		 "theory": "DFT", 
		 "functional": "B3LYP", 
		 "basiset": "6-31G**", 
		 "properties": { 
			 "R2extent": 15948.5163, 
			 "electric_dipole_moment_norm": 6.17450830674, 
			 "electric_quadrupole_moment_norm": 19.6759742346, 
			 "total_energy": -2177.32346463, 
			 "HOMO_LUMO_gap": 0.12562, 
			 "cosmo_polarized_energy": -15.21, 
			 "cosmo_cavitation_energy": 53.14, 
			 "cosmo_dispersion_energy": -35.64, 
			 "cosmo_repulsion_energy": 2.66, 
			 "cosmo_total_nonelectrostatic_energy": 20.16, 
			 "SMD_solvation_energy": 12.11 
		},
		"coords": [
			{
				"x": -0.1789086954,
				"y": 5.9126559692,
				"z": 2.0855007189,
				"element": "O" 
			},
			{
				"x": 0.4160255213,
				"y": 4.8366942586,
				"z": 2.1087071764,
				"element": "N" 
			},
			{
				"x": 1.6196451768,
				"y": 4.7104554925,
				"z": 2.3376444927,
				"element": "O" 
			},
			{
				"x": -0.3646027967,
				"y": 3.6204568243,
				"z": 1.8266248468,
				"element": "C" 
			},
			{
				"x": -1.6529616243,
				"y": 3.8142634279,
				"z": 1.3486263676,
				"element": "C" 
			},
			{
				"x": -2.4383977948,
				"y": 2.7211220979,
				"z": 1.0126147877,
				"element": "C" 
			},
			{
				"x": -1.9639984994,
				"y": 1.3911608048,
				"z": 1.1519461233,
				"element": "C" 
			},
			{
				"x": -2.8167381707,
				"y": 0.2175649711,
				"z": 0.9317244861,
				"element": "C" 
			},
			{
				"x": -2.5223594744,
				"y": -0.9827643584,
				"z": 0.3928720136,
				"element": "C" 
			},
			{
				"x": -0.9131266759,
				"y": -1.3563686219,
				"z": -0.2234446864,
				"element": "Cl" 
			},
			{
				"x": -3.5284880704,
				"y": -2.0538264032,
				"z": 0.2213308537,
				"element": "C" 
			},
			{
				"x": -3.1874364953,
				"y": -3.4100684169,
				"z": 0.3578447184,
				"element": "C" 
			},
			{
				"x": -4.1603839009,
				"y": -4.3992100031,
				"z": 0.2345145523,
				"element": "C" 
			},
			{
				"x": -5.4851925584,
				"y": -4.0545225409,
				"z": -0.0417670607,
				"element": "C" 
			},
			{
				"x": -5.8308757701,
				"y": -2.7109722905,
				"z": -0.1988610748,
				"element": "C" 
			},
			{
				"x": -4.8628759781,
				"y": -1.7169165668,
				"z": -0.072532426,
				"element": "C" 
			},
			{
				"x": -0.6597227156,
				"y": 1.2499028297,
				"z": 1.6533651702,
				"element": "C" 
			},
			{
				"x": 0.1767394804,
				"y": 2.3253355101,
				"z": 1.9942454855,
				"element": "C" 
			},
			{
				"x": 1.4758854423,
				"y": 2.0592534656,
				"z": 2.6378871609,
				"element": "C" 
			},
			{
				"x": 2.3898724671,
				"y": 1.1577202201,
				"z": 2.2325319507,
				"element": "C" 
			},
			{
				"x": 3.7510114674,
				"y": 0.8540637651,
				"z": 3.3239888397,
				"element": "Cl" 
			},
			{
				"x": 2.4570648974,
				"y": 0.4397746934,
				"z": 0.9428626595,
				"element": "C" 
			},
			{
				"x": 2.2212797434,
				"y": 1.1401166314,
				"z": -0.2529293379,
				"element": "C" 
			},
			{
				"x": 2.2937016406,
				"y": 0.4854415352,
				"z": -1.4807978092,
				"element": "C" 
			},
			{
				"x": 2.6070728571,
				"y": -0.8741854381,
				"z": -1.5334677653,
				"element": "C" 
			},
			{
				"x": 2.8557327588,
				"y": -1.5755341077,
				"z": -0.3504872996,
				"element": "C" 
			},
			{
				"x": 2.7898023132,
				"y": -0.9238131394,
				"z": 0.8789142501,
				"element": "C" 
			},
			{
				"x": -3.7739579357,
				"y": 3.0369540793,
				"z": 0.4733140772,
				"element": "N" 
			},
			{
				"x": -4.4135579884,
				"y": 2.13667209,
				"z": -0.074331758,
				"element": "O" 
			},
			{
				"x": -4.172046023,
				"y": 4.1944520649,
				"z": 0.5872621368,
				"element": "O" 
			},
			{
				"x": -2.039389116,
				"y": 4.8164842346,
				"z": 1.228689538,
				"element": "H" 
			},
			{
				"x": -3.8502062561,
				"y": 0.3324555189,
				"z": 1.2346233007,
				"element": "H" 
			},
			{
				"x": -2.1602917924,
				"y": -3.685814983,
				"z": 0.5707124743,
				"element": "H" 
			},
			{
				"x": -3.8822361039,
				"y": -5.4421509024,
				"z": 0.3540763514,
				"element": "H" 
			},
			{
				"x": -6.2404030116,
				"y": -4.8281315251,
				"z": -0.1443702055,
				"element": "H" 
			},
			{
				"x": -6.8540135677,
				"y": -2.4343936534,
				"z": -0.4354218165,
				"element": "H" 
			},
			{
				"x": -5.1311976971,
				"y": -0.6777718351,
				"z": -0.2333389302,
				"element": "H" 
			},
			{
				"x": -0.289570311,
				"y": 0.2516424648,
				"z": 1.840262344,
				"element": "H" 
			},
			{
				"x": 1.6874043814,
				"y": 2.6234568305,
				"z": 3.5386581111,
				"element": "H" 
			},
			{
				"x": 2.0085204363,
				"y": 2.2032707894,
				"z": -0.2131664085,
				"element": "H" 
			},
			{
				"x": 2.117596094,
				"y": 1.0407917069,
				"z": -2.3970812484,
				"element": "H" 
			},
			{
				"x": 2.6684214455,
				"y": -1.3824023815,
				"z": -2.4911893869,
				"element": "H" 
			},
			{
				"x": 3.1073522909,
				"y": -2.631326014,
				"z": -0.3859057755,
				"element": "H" 
			},
			{
				"x": 2.9960106092,
				"y": -1.4678890949,
				"z": 1.7948480021,
				"element": "H" 
			}
		],
		 "valence_orbital": [ 
			{
				"type": "occ",
				"energy": -0.28123,
				"method": "rhf"
			},
			{
				"type": "occ",
				"energy": -0.26741,
				"method": "rhf"
			},
			{
				"type": "occ",
				"energy": -0.26644,
				"method": "rhf"
			},
			{
				"type": "occ",
				"energy": -0.24422,
				"method": "rhf"
			},
			{
				"type": "occ",
				"energy": -0.24178,
				"method": "rhf"
			},
			{
				"type": "unocc",
				"energy": -0.11616,
				"method": "rhf"
			},
			{
				"type": "unocc",
				"energy": -0.10038,
				"method": "rhf"
			},
			{
				"type": "unocc",
				"energy": -0.0591,
				"method": "rhf"
			},
			{
				"type": "unocc",
				"energy": -0.04993,
				"method": "rhf"
			},
			{
				"type": "unocc",
				"energy": -0.02779,
				"method": "rhf"
			}
		],
		"cosmo_sigma_profile": { 
			"-0.025": 0.0,
			"-0.024": 0.0,
			"-0.023": 0.0,
			"-0.022": 0.0,
			"-0.021": 0.0,
			"-0.02": 0.0,
			"-0.019": 0.0,
			"-0.018": 0.0,
			"-0.017": 0.0,
			"-0.016": 0.0,
			"-0.015": 0.0,
			"-0.014": 0.0,
			"-0.013": 0.0,
			"-0.012": 0.0,
			"-0.011": 0.0143091122334,
			"-0.01": 0.717048368828,
			"-0.009": 2.38200054768,
			"-0.008": 3.92348322625,
			"-0.007": 8.61034955237,
			"-0.006": 25.4960725569,
			"-0.005": 32.5988406862,
			"-0.004": 34.6636375198,
			"-0.003": 32.5859019581,
			"-0.002": 32.4985989984,
			"-0.001": 29.2038158381,
			"0.0": 28.6529302855,
			"0.001": 32.5437105062,
			"0.002": 34.0914755312,
			"0.003": 35.7989270285,
			"0.004": 39.9380166258,
			"0.005": 16.1872155736,
			"0.006": 8.91653295986,
			"0.007": 15.0044080503,
			"0.008": 9.25690144944,
			"0.009": 7.18205181674,
			"0.01": 1.88842309007,
			"0.011": 0.0,
			"0.012": 0.0,
			"0.013": 0.0,
			"0.014": 0.0,
			"0.015": 0.0,
			"0.016": 0.0,
			"0.017": 0.0,
			"0.018": 0.0,
			"0.019": 0.0,
			"0.02": 0.0,
			"0.021": 0.0,
			"0.022": 0.0,
			"0.023": 0.0,
			"0.024": 0.0,
			"0.025": 0.0
		}
	}
}
