{
	 "smiles": "COC1=C(OC)C=C(C(=C1)C(=O)C1=CC(Br)=CC=C1)[N+]([O-])=O", 
	 "Tm": 392.15, 
	 "num_atms": 34, 
	 "gaussian": { 
		 "optdone": 1, 
		 "sigma_profile": "yes", 
		 "theory": "DFT", 
		 "functional": "B3LYP", 
		 "basiset": "6-31G**", 
		 "properties": { 
			 "R2extent": 10201.4846, 
			 "electric_dipole_moment_norm": 5.80556046304, 
			 "electric_quadrupole_moment_norm": 29.3865948691, 
			 "total_energy": -3580.96549467, 
			 "HOMO_LUMO_gap": 0.15801, 
			 "cosmo_polarized_energy": -16.79, 
			 "cosmo_cavitation_energy": 42.17, 
			 "cosmo_dispersion_energy": -29.1, 
			 "cosmo_repulsion_energy": 2.27, 
			 "cosmo_total_nonelectrostatic_energy": 15.33, 
			 "SMD_solvation_energy": 10.15 
		},
		"coords": [
			{
				"x": -1.0490468057,
				"y": -3.6361485996,
				"z": -0.6281139233,
				"element": "C" 
			},
			{
				"x": 0.0045002057,
				"y": -3.6022100923,
				"z": 0.3320772724,
				"element": "O" 
			},
			{
				"x": 0.7668754613,
				"y": -2.4881789151,
				"z": 0.4234714407,
				"element": "C" 
			},
			{
				"x": 1.7851898053,
				"y": -2.5089590602,
				"z": 1.4126161259,
				"element": "C" 
			},
			{
				"x": 1.9498637834,
				"y": -3.5712596365,
				"z": 2.2540483161,
				"element": "O" 
			},
			{
				"x": 2.4147710998,
				"y": -4.7922594963,
				"z": 1.6630705086,
				"element": "C" 
			},
			{
				"x": 2.5944592229,
				"y": -1.3954695559,
				"z": 1.572092198,
				"element": "C" 
			},
			{
				"x": 2.4033668364,
				"y": -0.2633571259,
				"z": 0.7743461136,
				"element": "C" 
			},
			{
				"x": 1.4061821184,
				"y": -0.2163558763,
				"z": -0.204380147,
				"element": "C" 
			},
			{
				"x": 0.6032352534,
				"y": -1.3500431278,
				"z": -0.3731764456,
				"element": "C" 
			},
			{
				"x": 1.1310419887,
				"y": 0.9485016647,
				"z": -1.1410647107,
				"element": "C" 
			},
			{
				"x": 1.3482499908,
				"y": 0.8027414895,
				"z": -2.3322190678,
				"element": "O" 
			},
			{
				"x": 0.452166175,
				"y": 2.1731473466,
				"z": -0.6124300154,
				"element": "C" 
			},
			{
				"x": -0.0393236139,
				"y": 2.2434363451,
				"z": 0.6977750915,
				"element": "C" 
			},
			{
				"x": -0.696810966,
				"y": 3.3966531957,
				"z": 1.1170426576,
				"element": "C" 
			},
			{
				"x": -1.3787351285,
				"y": 3.4891676326,
				"z": 2.9007450148,
				"element": "Br" 
			},
			{
				"x": -0.8709134407,
				"y": 4.4831601162,
				"z": 0.2613174917,
				"element": "C" 
			},
			{
				"x": -0.3785082459,
				"y": 4.4041574122,
				"z": -1.0445053068,
				"element": "C" 
			},
			{
				"x": 0.2736581062,
				"y": 3.2567240551,
				"z": -1.4840274496,
				"element": "C" 
			},
			{
				"x": 3.321210092,
				"y": 0.8611143678,
				"z": 0.9525702941,
				"element": "N" 
			},
			{
				"x": 4.1094003891,
				"y": 0.8222030391,
				"z": 1.8962327157,
				"element": "O" 
			},
			{
				"x": 3.256131916,
				"y": 1.783662181,
				"z": 0.1349457851,
				"element": "O" 
			},
			{
				"x": -0.6627827224,
				"y": -3.538617838,
				"z": -1.6492953279,
				"element": "H" 
			},
			{
				"x": -1.5243003335,
				"y": -4.6101170633,
				"z": -0.5105142413,
				"element": "H" 
			},
			{
				"x": -1.7849332204,
				"y": -2.8465660853,
				"z": -0.4375929607,
				"element": "H" 
			},
			{
				"x": 1.6958314279,
				"y": -5.188300812,
				"z": 0.9411256116,
				"element": "H" 
			},
			{
				"x": 2.5318292126,
				"y": -5.4965122884,
				"z": 2.4881779372,
				"element": "H" 
			},
			{
				"x": 3.3854040249,
				"y": -4.6410052542,
				"z": 1.1750844139,
				"element": "H" 
			},
			{
				"x": 3.3786259806,
				"y": -1.4039076629,
				"z": 2.3180294133,
				"element": "H" 
			},
			{
				"x": -0.1610728143,
				"y": -1.3248891229,
				"z": -1.1397978059,
				"element": "H" 
			},
			{
				"x": 0.0804140516,
				"y": 1.4118565578,
				"z": 1.3820735869,
				"element": "H" 
			},
			{
				"x": -1.3825490517,
				"y": 5.373273052,
				"z": 0.6094281462,
				"element": "H" 
			},
			{
				"x": -0.5098229316,
				"y": 5.2477651833,
				"z": -1.7154240834,
				"element": "H" 
			},
			{
				"x": 0.6572921331,
				"y": 3.1750939741,
				"z": -2.4948286493,
				"element": "H" 
			}
		],
		 "valence_orbital": [ 
			{
				"type": "occ",
				"energy": -0.27798,
				"method": "rhf"
			},
			{
				"type": "occ",
				"energy": -0.26931,
				"method": "rhf"
			},
			{
				"type": "occ",
				"energy": -0.2621,
				"method": "rhf"
			},
			{
				"type": "occ",
				"energy": -0.24891,
				"method": "rhf"
			},
			{
				"type": "occ",
				"energy": -0.24731,
				"method": "rhf"
			},
			{
				"type": "unocc",
				"energy": -0.0893,
				"method": "rhf"
			},
			{
				"type": "unocc",
				"energy": -0.06608,
				"method": "rhf"
			},
			{
				"type": "unocc",
				"energy": -0.03087,
				"method": "rhf"
			},
			{
				"type": "unocc",
				"energy": -0.02116,
				"method": "rhf"
			},
			{
				"type": "unocc",
				"energy": 0.00218,
				"method": "rhf"
			}
		],
		"cosmo_sigma_profile": { 
			"-0.025": 0.0,
			"-0.024": 0.0,
			"-0.023": 0.0,
			"-0.022": 0.0,
			"-0.021": 0.0,
			"-0.02": 0.0,
			"-0.019": 0.0,
			"-0.018": 0.0,
			"-0.017": 0.0,
			"-0.016": 0.0,
			"-0.015": 0.0,
			"-0.014": 0.0,
			"-0.013": 0.0,
			"-0.012": 0.0,
			"-0.011": 0.0,
			"-0.01": 0.0,
			"-0.009": 0.891668944825,
			"-0.008": 4.90098235579,
			"-0.007": 14.9911060406,
			"-0.006": 22.3955460625,
			"-0.005": 23.902611849,
			"-0.004": 28.4400672704,
			"-0.003": 27.8806136785,
			"-0.002": 22.7289841872,
			"-0.001": 24.6063528471,
			"0.0": 23.5186365827,
			"0.001": 24.6603455763,
			"0.002": 25.2392950932,
			"0.003": 16.1199402881,
			"0.004": 19.845818921,
			"0.005": 10.5772014254,
			"0.006": 9.06208917382,
			"0.007": 10.0428295423,
			"0.008": 10.2047211963,
			"0.009": 8.74635220556,
			"0.01": 6.73814063528,
			"0.011": 4.77135939325,
			"0.012": 0.958945087603,
			"0.013": 0.00384634923939,
			"0.014": 0.0,
			"0.015": 0.0,
			"0.016": 0.0,
			"0.017": 0.0,
			"0.018": 0.0,
			"0.019": 0.0,
			"0.02": 0.0,
			"0.021": 0.0,
			"0.022": 0.0,
			"0.023": 0.0,
			"0.024": 0.0,
			"0.025": 0.0
		}
	}
}
