{
	 "smiles": "CC1(C)C2CC3C(C2)C13C(O)=O", 
	 "Tm": 424.15, 
	 "num_atms": 26, 
	 "gaussian": { 
		 "optdone": 1, 
		 "sigma_profile": "yes", 
		 "theory": "DFT", 
		 "functional": "B3LYP", 
		 "basiset": "6-31G**", 
		 "properties": { 
			 "R2extent": 1844.6853, 
			 "electric_dipole_moment_norm": 1.89370357237, 
			 "electric_quadrupole_moment_norm": 6.01468518461, 
			 "total_energy": -539.946549596, 
			 "HOMO_LUMO_gap": 0.27019, 
			 "cosmo_polarized_energy": -7.75, 
			 "cosmo_cavitation_energy": 25.88, 
			 "cosmo_dispersion_energy": -19.25, 
			 "cosmo_repulsion_energy": 1.51, 
			 "cosmo_total_nonelectrostatic_energy": 8.14, 
			 "SMD_solvation_energy": 4.88 
		},
		"coords": [
			{
				"x": -0.9743141441,
				"y": 2.0566041417,
				"z": -1.1109708501,
				"element": "C" 
			},
			{
				"x": -0.6069554229,
				"y": 1.2921524113,
				"z": 0.1740904791,
				"element": "C" 
			},
			{
				"x": -1.9104892348,
				"y": 0.7784553962,
				"z": 0.8125744523,
				"element": "C" 
			},
			{
				"x": 0.2996946526,
				"y": 2.1106648108,
				"z": 1.159095697,
				"element": "C" 
			},
			{
				"x": 0.7304147276,
				"y": 1.052517142,
				"z": 2.2067340978,
				"element": "C" 
			},
			{
				"x": 1.2643885833,
				"y": 0.0220858652,
				"z": 1.2147618485,
				"element": "C" 
			},
			{
				"x": 1.8291815305,
				"y": 0.7918701395,
				"z": 0.0556398451,
				"element": "C" 
			},
			{
				"x": 1.624675355,
				"y": 2.2716186156,
				"z": 0.3709178798,
				"element": "C" 
			},
			{
				"x": 0.4258108451,
				"y": 0.1741528442,
				"z": -0.0655493397,
				"element": "C" 
			},
			{
				"x": 0.1618663795,
				"y": -0.9706399967,
				"z": -0.9547887433,
				"element": "C" 
			},
			{
				"x": 1.2080737096,
				"y": -1.8411943937,
				"z": -1.0236184151,
				"element": "O" 
			},
			{
				"x": -0.8641725263,
				"y": -1.1611783813,
				"z": -1.581277199,
				"element": "O" 
			},
			{
				"x": -0.0995473596,
				"y": 2.4004477426,
				"z": -1.6678374595,
				"element": "H" 
			},
			{
				"x": -1.5894265993,
				"y": 2.932107122,
				"z": -0.8727786246,
				"element": "H" 
			},
			{
				"x": -1.5497625114,
				"y": 1.4068192577,
				"z": -1.7751361814,
				"element": "H" 
			},
			{
				"x": -1.7377788956,
				"y": 0.1614919641,
				"z": 1.6974742536,
				"element": "H" 
			},
			{
				"x": -2.55047269,
				"y": 1.6188204716,
				"z": 1.105512698,
				"element": "H" 
			},
			{
				"x": -2.4593291078,
				"y": 0.1681692473,
				"z": 0.0908965082,
				"element": "H" 
			},
			{
				"x": -0.1450675489,
				"y": 3.0275488498,
				"z": 1.5513291072,
				"element": "H" 
			},
			{
				"x": 1.5201585737,
				"y": 1.4293083641,
				"z": 2.8671935612,
				"element": "H" 
			},
			{
				"x": -0.0852165426,
				"y": 0.6823291187,
				"z": 2.8314113278,
				"element": "H" 
			},
			{
				"x": 1.6510957619,
				"y": -0.9483663784,
				"z": 1.5010364593,
				"element": "H" 
			},
			{
				"x": 2.6468310041,
				"y": 0.4089746468,
				"z": -0.5427405816,
				"element": "H" 
			},
			{
				"x": 1.5451099163,
				"y": 2.9046057662,
				"z": -0.5153625682,
				"element": "H" 
			},
			{
				"x": 2.4291201559,
				"y": 2.6688087904,
				"z": 1.0010064494,
				"element": "H" 
			},
			{
				"x": 0.9209113883,
				"y": -2.5435735578,
				"z": -1.6302147018,
				"element": "H" 
			}
		],
		 "valence_orbital": [ 
			{
				"type": "occ",
				"energy": -0.30862,
				"method": "rhf"
			},
			{
				"type": "occ",
				"energy": -0.30792,
				"method": "rhf"
			},
			{
				"type": "occ",
				"energy": -0.28437,
				"method": "rhf"
			},
			{
				"type": "occ",
				"energy": -0.27116,
				"method": "rhf"
			},
			{
				"type": "occ",
				"energy": -0.25984,
				"method": "rhf"
			},
			{
				"type": "unocc",
				"energy": 0.01035,
				"method": "rhf"
			},
			{
				"type": "unocc",
				"energy": 0.08087,
				"method": "rhf"
			},
			{
				"type": "unocc",
				"energy": 0.08993,
				"method": "rhf"
			},
			{
				"type": "unocc",
				"energy": 0.11977,
				"method": "rhf"
			},
			{
				"type": "unocc",
				"energy": 0.12736,
				"method": "rhf"
			}
		],
		"cosmo_sigma_profile": { 
			"-0.025": 0.0,
			"-0.024": 0.0,
			"-0.023": 0.0,
			"-0.022": 0.0,
			"-0.021": 0.0,
			"-0.02": 0.0,
			"-0.019": 0.0,
			"-0.018": 0.22123003191,
			"-0.017": 1.04923153647,
			"-0.016": 0.649342920503,
			"-0.015": 1.00214901678,
			"-0.014": 0.489279479282,
			"-0.013": 0.745786439191,
			"-0.012": 0.819960569042,
			"-0.011": 0.455205243376,
			"-0.01": 0.737422895732,
			"-0.009": 0.895340102318,
			"-0.008": 0.339903792004,
			"-0.007": 0.736944792676,
			"-0.006": 1.48506287924,
			"-0.005": 3.47845678272,
			"-0.004": 9.01073024726,
			"-0.003": 18.2300361725,
			"-0.002": 21.5340018986,
			"-0.001": 28.9967420653,
			"0.0": 36.5761520362,
			"0.001": 27.7108805054,
			"0.002": 12.2600872491,
			"0.003": 5.35291668174,
			"0.004": 4.13836043332,
			"0.005": 3.37968112926,
			"0.006": 3.87337380967,
			"0.007": 3.20474367566,
			"0.008": 2.80877039435,
			"0.009": 2.07495477578,
			"0.01": 1.64529899328,
			"0.011": 2.04798518017,
			"0.012": 3.91310470597,
			"0.013": 1.32027817511,
			"0.014": 0.0,
			"0.015": 0.0,
			"0.016": 0.0,
			"0.017": 0.0,
			"0.018": 0.0,
			"0.019": 0.0,
			"0.02": 0.0,
			"0.021": 0.0,
			"0.022": 0.0,
			"0.023": 0.0,
			"0.024": 0.0,
			"0.025": 0.0
		}
	}
}
