{
	 "smiles": "ClCC(=O)NC1(CCCCC1)C#N", 
	 "Tm": 404.15, 
	 "num_atms": 26, 
	 "gaussian": { 
		 "optdone": 1, 
		 "sigma_profile": "yes", 
		 "theory": "DFT", 
		 "functional": "B3LYP", 
		 "basiset": "6-31G**", 
		 "properties": { 
			 "R2extent": 5007.2435, 
			 "electric_dipole_moment_norm": 4.52990481247, 
			 "electric_quadrupole_moment_norm": 12.8915932382, 
			 "total_energy": -995.711715499, 
			 "HOMO_LUMO_gap": 0.26742, 
			 "cosmo_polarized_energy": -15.26, 
			 "cosmo_cavitation_energy": 30.11, 
			 "cosmo_dispersion_energy": -21.1, 
			 "cosmo_repulsion_energy": 1.71, 
			 "cosmo_total_nonelectrostatic_energy": 10.73, 
			 "SMD_solvation_energy": 5.63 
		},
		"coords": [
			{
				"x": -4.8752664644,
				"y": 2.0915451968,
				"z": -2.2490768582,
				"element": "Cl" 
			},
			{
				"x": -4.9370029462,
				"y": 0.4145734867,
				"z": -1.554634417,
				"element": "C" 
			},
			{
				"x": -3.5997490082,
				"y": -0.2310664036,
				"z": -1.1774596829,
				"element": "C" 
			},
			{
				"x": -3.6363434178,
				"y": -1.3533251097,
				"z": -0.6948860161,
				"element": "O" 
			},
			{
				"x": -2.4663860609,
				"y": 0.4871125195,
				"z": -1.3948323466,
				"element": "N" 
			},
			{
				"x": -1.1150072931,
				"y": -0.058537233,
				"z": -1.1931133812,
				"element": "C" 
			},
			{
				"x": -0.929295566,
				"y": -0.579587877,
				"z": 0.2704264755,
				"element": "C" 
			},
			{
				"x": 0.5284351079,
				"y": -0.4519218797,
				"z": 0.7255351474,
				"element": "C" 
			},
			{
				"x": 0.9662927117,
				"y": 1.0297107746,
				"z": 0.802462704,
				"element": "C" 
			},
			{
				"x": 0.2338193005,
				"y": 1.896929474,
				"z": -0.2488992397,
				"element": "C" 
			},
			{
				"x": -0.0839435784,
				"y": 1.074137951,
				"z": -1.5017858158,
				"element": "C" 
			},
			{
				"x": -0.884393542,
				"y": -1.1663238498,
				"z": -2.1550187417,
				"element": "C" 
			},
			{
				"x": -0.6601230739,
				"y": -2.0123505601,
				"z": -2.9175297248,
				"element": "N" 
			},
			{
				"x": -5.5594300699,
				"y": 0.4578421331,
				"z": -0.6608266493,
				"element": "H" 
			},
			{
				"x": -5.4239479066,
				"y": -0.2219559715,
				"z": -2.2938076185,
				"element": "H" 
			},
			{
				"x": -2.5507050033,
				"y": 1.3484058578,
				"z": -1.9182048832,
				"element": "H" 
			},
			{
				"x": -1.2960906332,
				"y": -1.6036072662,
				"z": 0.3399819299,
				"element": "H" 
			},
			{
				"x": -1.5735640436,
				"y": 0.0298766614,
				"z": 0.9129306918,
				"element": "H" 
			},
			{
				"x": 0.6515626386,
				"y": -0.936736266,
				"z": 1.6991325516,
				"element": "H" 
			},
			{
				"x": 1.172418393,
				"y": -1.0055906422,
				"z": 0.0309354612,
				"element": "H" 
			},
			{
				"x": 2.0497858883,
				"y": 1.0990952311,
				"z": 0.653763754,
				"element": "H" 
			},
			{
				"x": 0.7653229005,
				"y": 1.4289218405,
				"z": 1.8029667453,
				"element": "H" 
			},
			{
				"x": -0.700142175,
				"y": 2.2933237081,
				"z": 0.167355707,
				"element": "H" 
			},
			{
				"x": 0.8406140522,
				"y": 2.7663779488,
				"z": -0.5215228728,
				"element": "H" 
			},
			{
				"x": -0.4687647983,
				"y": 1.6976834776,
				"z": -2.3172019099,
				"element": "H" 
			},
			{
				"x": 0.8338045881,
				"y": 0.6156667979,
				"z": -1.88219101,
				"element": "H" 
			}
		],
		 "valence_orbital": [ 
			{
				"type": "occ",
				"energy": -0.32496,
				"method": "rhf"
			},
			{
				"type": "occ",
				"energy": -0.31991,
				"method": "rhf"
			},
			{
				"type": "occ",
				"energy": -0.31589,
				"method": "rhf"
			},
			{
				"type": "occ",
				"energy": -0.28121,
				"method": "rhf"
			},
			{
				"type": "occ",
				"energy": -0.26898,
				"method": "rhf"
			},
			{
				"type": "unocc",
				"energy": -0.00156,
				"method": "rhf"
			},
			{
				"type": "unocc",
				"energy": 0.0051,
				"method": "rhf"
			},
			{
				"type": "unocc",
				"energy": 0.03094,
				"method": "rhf"
			},
			{
				"type": "unocc",
				"energy": 0.0377,
				"method": "rhf"
			},
			{
				"type": "unocc",
				"energy": 0.0616,
				"method": "rhf"
			}
		],
		"cosmo_sigma_profile": { 
			"-0.025": 0.0,
			"-0.024": 0.0,
			"-0.023": 0.0,
			"-0.022": 0.0,
			"-0.021": 0.0,
			"-0.02": 0.0,
			"-0.019": 0.0,
			"-0.018": 0.0,
			"-0.017": 0.0,
			"-0.016": 0.0,
			"-0.015": 0.0,
			"-0.014": 0.0,
			"-0.013": 0.441369587971,
			"-0.012": 1.39577306646,
			"-0.011": 0.825351105423,
			"-0.01": 1.43963345249,
			"-0.009": 5.397246434,
			"-0.008": 5.83389665388,
			"-0.007": 5.77583034564,
			"-0.006": 7.54599565183,
			"-0.005": 10.0166458147,
			"-0.004": 15.7598308636,
			"-0.003": 27.3132046801,
			"-0.002": 33.6387580435,
			"-0.001": 22.6037113127,
			"0.0": 17.9887407922,
			"0.001": 10.0654506095,
			"0.002": 7.03871889604,
			"0.003": 7.04606118293,
			"0.004": 7.09408249084,
			"0.005": 10.9333276082,
			"0.006": 5.48922587711,
			"0.007": 5.26352639941,
			"0.008": 4.83208589246,
			"0.009": 5.27487879584,
			"0.01": 4.62461297671,
			"0.011": 4.99129424839,
			"0.012": 5.75781008133,
			"0.013": 3.9139296481,
			"0.014": 0.264091849776,
			"0.015": 0.0,
			"0.016": 0.0,
			"0.017": 0.0,
			"0.018": 0.0,
			"0.019": 0.0,
			"0.02": 0.0,
			"0.021": 0.0,
			"0.022": 0.0,
			"0.023": 0.0,
			"0.024": 0.0,
			"0.025": 0.0
		}
	}
}
