{
	 "smiles": "COC1=CC(C=CN1)=C(N)N=O", 
	 "Tm": 448.15, 
	 "num_atms": 21, 
	 "gaussian": { 
		 "optdone": 1, 
		 "sigma_profile": "yes", 
		 "theory": "DFT", 
		 "functional": "B3LYP", 
		 "basiset": "6-31G**", 
		 "properties": { 
			 "R2extent": 2681.0001, 
			 "electric_dipole_moment_norm": 8.30396191044, 
			 "electric_quadrupole_moment_norm": 21.4230090646, 
			 "total_energy": -586.768594859, 
			 "HOMO_LUMO_gap": 0.10804, 
			 "cosmo_polarized_energy": -27.85, 
			 "cosmo_cavitation_energy": 25.38, 
			 "cosmo_dispersion_energy": -18.92, 
			 "cosmo_repulsion_energy": 1.52, 
			 "cosmo_total_nonelectrostatic_energy": 7.97, 
			 "SMD_solvation_energy": 5.84 
		},
		"coords": [
			{
				"x": 0.9999820432,
				"y": -1.5330668326,
				"z": -2.7831600371,
				"element": "C" 
			},
			{
				"x": 0.0795824375,
				"y": -1.8261905783,
				"z": -1.7304122688,
				"element": "O" 
			},
			{
				"x": 0.1007018069,
				"y": -1.0195699246,
				"z": -0.648751625,
				"element": "C" 
			},
			{
				"x": 0.893867915,
				"y": 0.0645666636,
				"z": -0.4207753598,
				"element": "C" 
			},
			{
				"x": 0.7678275748,
				"y": 0.813903363,
				"z": 0.8023487618,
				"element": "C" 
			},
			{
				"x": -0.2097054449,
				"y": 0.3370795934,
				"z": 1.7515960945,
				"element": "C" 
			},
			{
				"x": -0.9692480725,
				"y": -0.7524626935,
				"z": 1.4737591437,
				"element": "C" 
			},
			{
				"x": -0.8329316821,
				"y": -1.4234970177,
				"z": 0.2820084071,
				"element": "N" 
			},
			{
				"x": 1.5391044411,
				"y": 1.9500284824,
				"z": 1.066238887,
				"element": "C" 
			},
			{
				"x": 1.3916966166,
				"y": 2.7201732508,
				"z": 2.2357984867,
				"element": "N" 
			},
			{
				"x": 2.5301997784,
				"y": 2.2532503911,
				"z": 0.1635091389,
				"element": "N" 
			},
			{
				"x": 3.2109274369,
				"y": 3.2714889471,
				"z": 0.4520385353,
				"element": "O" 
			},
			{
				"x": 0.8150864944,
				"y": -0.5364193207,
				"z": -3.1977188699,
				"element": "H" 
			},
			{
				"x": 0.8254352748,
				"y": -2.2903770947,
				"z": -3.5472552433,
				"element": "H" 
			},
			{
				"x": 2.0336213476,
				"y": -1.5946361318,
				"z": -2.4268737359,
				"element": "H" 
			},
			{
				"x": 1.6297264713,
				"y": 0.3879329813,
				"z": -1.1425073483,
				"element": "H" 
			},
			{
				"x": -0.3118110869,
				"y": 0.834813362,
				"z": 2.7074367376,
				"element": "H" 
			},
			{
				"x": -1.7055202077,
				"y": -1.1561339644,
				"z": 2.158356127,
				"element": "H" 
			},
			{
				"x": -1.3955443906,
				"y": -2.2319504205,
				"z": 0.0621674138,
				"element": "H" 
			},
			{
				"x": 0.4796904838,
				"y": 3.1638951468,
				"z": 2.3003374009,
				"element": "H" 
			},
			{
				"x": 2.1086107625,
				"y": 3.4468717971,
				"z": 2.1668593537,
				"element": "H" 
			}
		],
		 "valence_orbital": [ 
			{
				"type": "occ",
				"energy": -0.31699,
				"method": "rhf"
			},
			{
				"type": "occ",
				"energy": -0.26711,
				"method": "rhf"
			},
			{
				"type": "occ",
				"energy": -0.26243,
				"method": "rhf"
			},
			{
				"type": "occ",
				"energy": -0.17226,
				"method": "rhf"
			},
			{
				"type": "occ",
				"energy": -0.16503,
				"method": "rhf"
			},
			{
				"type": "unocc",
				"energy": -0.05699,
				"method": "rhf"
			},
			{
				"type": "unocc",
				"energy": -0.00671,
				"method": "rhf"
			},
			{
				"type": "unocc",
				"energy": 0.05332,
				"method": "rhf"
			},
			{
				"type": "unocc",
				"energy": 0.05375,
				"method": "rhf"
			},
			{
				"type": "unocc",
				"energy": 0.09027,
				"method": "rhf"
			}
		],
		"cosmo_sigma_profile": { 
			"-0.025": 0.0,
			"-0.024": 0.0,
			"-0.023": 0.0,
			"-0.022": 0.0,
			"-0.021": 0.0,
			"-0.02": 0.0,
			"-0.019": 0.0,
			"-0.018": 0.623860412451,
			"-0.017": 1.46098046249,
			"-0.016": 1.48559471437,
			"-0.015": 0.996180067576,
			"-0.014": 1.44428756125,
			"-0.013": 0.774835712615,
			"-0.012": 1.4208503063,
			"-0.011": 2.33740079394,
			"-0.01": 4.51106551997,
			"-0.009": 4.16474648002,
			"-0.008": 3.52638521822,
			"-0.007": 9.89739050824,
			"-0.006": 16.1483902931,
			"-0.005": 15.2077786474,
			"-0.004": 12.7812891489,
			"-0.003": 10.2717914318,
			"-0.002": 8.49587681944,
			"-0.001": 13.0181562155,
			"0.0": 8.91259316663,
			"0.001": 8.9374140041,
			"0.002": 8.52478611155,
			"0.003": 9.57171101801,
			"0.004": 5.82972862882,
			"0.005": 6.02793392873,
			"0.006": 6.19143154299,
			"0.007": 4.49174140161,
			"0.008": 3.00241178812,
			"0.009": 2.73913909053,
			"0.01": 2.56061148806,
			"0.011": 4.12280582851,
			"0.012": 2.63061173991,
			"0.013": 6.15129306126,
			"0.014": 4.93025036267,
			"0.015": 3.9712395023,
			"0.016": 2.8140629899,
			"0.017": 1.62936400313,
			"0.018": 0.04853961668,
			"0.019": 0.0,
			"0.02": 0.0,
			"0.021": 0.0,
			"0.022": 0.0,
			"0.023": 0.0,
			"0.024": 0.0,
			"0.025": 0.0
		}
	}
}
