{
	 "smiles": "[O-][N+](=O)C1=CC2=C(SC(=C2)C(Cl)=O)C=C1", 
	 "Tm": 431.15, 
	 "num_atms": 19, 
	 "gaussian": { 
		 "optdone": 1, 
		 "sigma_profile": "yes", 
		 "theory": "DFT", 
		 "functional": "B3LYP", 
		 "basiset": "6-31G**", 
		 "properties": { 
			 "R2extent": 5577.2419, 
			 "electric_dipole_moment_norm": 1.54246267378, 
			 "electric_quadrupole_moment_norm": 34.2298525368, 
			 "total_energy": -1484.07655111, 
			 "HOMO_LUMO_gap": 0.15635, 
			 "cosmo_polarized_energy": -11.17, 
			 "cosmo_cavitation_energy": 28.79, 
			 "cosmo_dispersion_energy": -21.72, 
			 "cosmo_repulsion_energy": 1.63, 
			 "cosmo_total_nonelectrostatic_energy": 8.69, 
			 "SMD_solvation_energy": 7.26 
		},
		"coords": [
			{
				"x": 4.2609414749,
				"y": -0.7305642614,
				"z": -1.4804920821,
				"element": "O" 
			},
			{
				"x": 3.4074464837,
				"y": -0.0998897834,
				"z": -0.8585364589,
				"element": "N" 
			},
			{
				"x": 3.6448787949,
				"y": 0.7532327216,
				"z": -0.0048241214,
				"element": "O" 
			},
			{
				"x": 1.995392964,
				"y": -0.3891626655,
				"z": -1.1594912228,
				"element": "C" 
			},
			{
				"x": 1.0166351318,
				"y": 0.3069694975,
				"z": -0.4732582109,
				"element": "C" 
			},
			{
				"x": -0.3269502637,
				"y": 0.0207940105,
				"z": -0.7705304121,
				"element": "C" 
			},
			{
				"x": -0.6318390065,
				"y": -0.9618003059,
				"z": -1.7537894281,
				"element": "C" 
			},
			{
				"x": -2.3523824434,
				"y": -1.1556681055,
				"z": -1.9622300537,
				"element": "S" 
			},
			{
				"x": -2.6552407193,
				"y": 0.0773200526,
				"z": -0.7343566234,
				"element": "C" 
			},
			{
				"x": -1.5073555675,
				"y": 0.5986791988,
				"z": -0.2040705283,
				"element": "C" 
			},
			{
				"x": -4.0531847514,
				"y": 0.38578033,
				"z": -0.4386622057,
				"element": "C" 
			},
			{
				"x": -4.2727959599,
				"y": 1.6634332931,
				"z": 0.8344453572,
				"element": "Cl" 
			},
			{
				"x": -5.0046886484,
				"y": -0.123369197,
				"z": -0.9551350042,
				"element": "O" 
			},
			{
				"x": 0.3814353982,
				"y": -1.6529520725,
				"z": -2.4347459746,
				"element": "C" 
			},
			{
				"x": 1.7015521223,
				"y": -1.3619286804,
				"z": -2.1328517654,
				"element": "C" 
			},
			{
				"x": 1.2965597185,
				"y": 1.0463828649,
				"z": 0.2671031659,
				"element": "H" 
			},
			{
				"x": -1.5027849693,
				"y": 1.3649534115,
				"z": 0.5607009399,
				"element": "H" 
			},
			{
				"x": 0.1419814039,
				"y": -2.4007983657,
				"z": -3.183160658,
				"element": "H" 
			},
			{
				"x": 2.5200988371,
				"y": -1.8669119432,
				"z": -2.6297147136,
				"element": "H" 
			}
		],
		 "valence_orbital": [ 
			{
				"type": "occ",
				"energy": -0.32014,
				"method": "rhf"
			},
			{
				"type": "occ",
				"energy": -0.31247,
				"method": "rhf"
			},
			{
				"type": "occ",
				"energy": -0.3034,
				"method": "rhf"
			},
			{
				"type": "occ",
				"energy": -0.28412,
				"method": "rhf"
			},
			{
				"type": "occ",
				"energy": -0.26506,
				"method": "rhf"
			},
			{
				"type": "unocc",
				"energy": -0.10871,
				"method": "rhf"
			},
			{
				"type": "unocc",
				"energy": -0.10142,
				"method": "rhf"
			},
			{
				"type": "unocc",
				"energy": -0.03305,
				"method": "rhf"
			},
			{
				"type": "unocc",
				"energy": -0.02093,
				"method": "rhf"
			},
			{
				"type": "unocc",
				"energy": -0.0114,
				"method": "rhf"
			}
		],
		"cosmo_sigma_profile": { 
			"-0.025": 0.0,
			"-0.024": 0.0,
			"-0.023": 0.0,
			"-0.022": 0.0,
			"-0.021": 0.0,
			"-0.02": 0.0,
			"-0.019": 0.0,
			"-0.018": 0.0,
			"-0.017": 0.0,
			"-0.016": 0.0,
			"-0.015": 0.0,
			"-0.014": 0.0,
			"-0.013": 0.0,
			"-0.012": 0.0,
			"-0.011": 0.0,
			"-0.01": 1.93251848388,
			"-0.009": 6.37156374244,
			"-0.008": 6.33497081666,
			"-0.007": 7.81577981559,
			"-0.006": 6.62970265865,
			"-0.005": 9.11788371655,
			"-0.004": 11.4011345424,
			"-0.003": 14.8209790444,
			"-0.002": 23.3230127619,
			"-0.001": 31.9241180553,
			"0.0": 22.054510562,
			"0.001": 17.8943176158,
			"0.002": 11.7769293062,
			"0.003": 12.6489480989,
			"0.004": 10.567622331,
			"0.005": 6.50581558698,
			"0.006": 5.97895558582,
			"0.007": 11.8797120159,
			"0.008": 10.6259745913,
			"0.009": 6.1563166005,
			"0.01": 2.02776676976,
			"0.011": 0.0,
			"0.012": 0.0,
			"0.013": 0.0,
			"0.014": 0.0,
			"0.015": 0.0,
			"0.016": 0.0,
			"0.017": 0.0,
			"0.018": 0.0,
			"0.019": 0.0,
			"0.02": 0.0,
			"0.021": 0.0,
			"0.022": 0.0,
			"0.023": 0.0,
			"0.024": 0.0,
			"0.025": 0.0
		}
	}
}
