{
	 "smiles": "CC(C)C(Br)C(=O)NC(N)=O", 
	 "Tm": 427.15, 
	 "num_atms": 22, 
	 "gaussian": { 
		 "optdone": 1, 
		 "sigma_profile": "yes", 
		 "theory": "DFT", 
		 "functional": "B3LYP", 
		 "basiset": "6-31G**", 
		 "properties": { 
			 "R2extent": 2927.3448, 
			 "electric_dipole_moment_norm": 4.4748820599, 
			 "electric_quadrupole_moment_norm": 21.5595600913, 
			 "total_energy": -3066.66660994, 
			 "HOMO_LUMO_gap": 0.23437, 
			 "cosmo_polarized_energy": -20.47, 
			 "cosmo_cavitation_energy": 27.55, 
			 "cosmo_dispersion_energy": -19.74, 
			 "cosmo_repulsion_energy": 1.62, 
			 "cosmo_total_nonelectrostatic_energy": 9.43, 
			 "SMD_solvation_energy": 5.38 
		},
		"coords": [
			{
				"x": -1.8459615165,
				"y": 0.7559168924,
				"z": 2.5070046052,
				"element": "C" 
			},
			{
				"x": -1.2097328337,
				"y": -0.0813134533,
				"z": 1.3917345513,
				"element": "C" 
			},
			{
				"x": -0.3689134864,
				"y": -1.2372630267,
				"z": 1.9486243744,
				"element": "C" 
			},
			{
				"x": -0.4477358857,
				"y": 0.7875928809,
				"z": 0.3730558481,
				"element": "C" 
			},
			{
				"x": 1.1147572986,
				"y": 1.7338883806,
				"z": 1.2234244499,
				"element": "Br" 
			},
			{
				"x": -0.0978264996,
				"y": -0.0118522325,
				"z": -0.9014569912,
				"element": "C" 
			},
			{
				"x": -1.0288606066,
				"y": -0.4948437957,
				"z": -1.5129280009,
				"element": "O" 
			},
			{
				"x": 1.2351456217,
				"y": -0.1381481188,
				"z": -1.2279976885,
				"element": "N" 
			},
			{
				"x": 1.7490093147,
				"y": -0.7434532726,
				"z": -2.4025335074,
				"element": "C" 
			},
			{
				"x": 3.127412125,
				"y": -0.8512540757,
				"z": -2.3475727708,
				"element": "N" 
			},
			{
				"x": 1.0820908927,
				"y": -1.0757785774,
				"z": -3.3560722119,
				"element": "O" 
			},
			{
				"x": -2.4799472833,
				"y": 0.1235559154,
				"z": 3.1362336807,
				"element": "H" 
			},
			{
				"x": -1.0841888171,
				"y": 1.2118819844,
				"z": 3.1468097206,
				"element": "H" 
			},
			{
				"x": -2.471276719,
				"y": 1.5578718554,
				"z": 2.1000870329,
				"element": "H" 
			},
			{
				"x": -2.0154400902,
				"y": -0.5097232224,
				"z": 0.7809870912,
				"element": "H" 
			},
			{
				"x": 0.4671965498,
				"y": -0.8638902966,
				"z": 2.5482777834,
				"element": "H" 
			},
			{
				"x": 0.0347020701,
				"y": -1.8666504259,
				"z": 1.1490364007,
				"element": "H" 
			},
			{
				"x": -0.9855958835,
				"y": -1.8738643432,
				"z": 2.5901082972,
				"element": "H" 
			},
			{
				"x": -1.0767463819,
				"y": 1.618066222,
				"z": 0.0498245084,
				"element": "H" 
			},
			{
				"x": 1.8845654594,
				"y": 0.3508800918,
				"z": -0.6229278806,
				"element": "H" 
			},
			{
				"x": 3.5824203049,
				"y": -0.97458622,
				"z": -1.4541982361,
				"element": "H" 
			},
			{
				"x": 3.5189263664,
				"y": -1.385033162,
				"z": -3.1102210567,
				"element": "H" 
			}
		],
		 "valence_orbital": [ 
			{
				"type": "occ",
				"energy": -0.29714,
				"method": "rhf"
			},
			{
				"type": "occ",
				"energy": -0.29,
				"method": "rhf"
			},
			{
				"type": "occ",
				"energy": -0.28523,
				"method": "rhf"
			},
			{
				"type": "occ",
				"energy": -0.27639,
				"method": "rhf"
			},
			{
				"type": "occ",
				"energy": -0.25533,
				"method": "rhf"
			},
			{
				"type": "unocc",
				"energy": -0.02096,
				"method": "rhf"
			},
			{
				"type": "unocc",
				"energy": -0.01675,
				"method": "rhf"
			},
			{
				"type": "unocc",
				"energy": 0.05166,
				"method": "rhf"
			},
			{
				"type": "unocc",
				"energy": 0.06431,
				"method": "rhf"
			},
			{
				"type": "unocc",
				"energy": 0.08632,
				"method": "rhf"
			}
		],
		"cosmo_sigma_profile": { 
			"-0.025": 0.0,
			"-0.024": 0.0,
			"-0.023": 0.0,
			"-0.022": 0.0,
			"-0.021": 0.0,
			"-0.02": 0.0,
			"-0.019": 0.0,
			"-0.018": 0.0,
			"-0.017": 0.271684884612,
			"-0.016": 0.981722816856,
			"-0.015": 1.49655770845,
			"-0.014": 3.08128862204,
			"-0.013": 2.82326007591,
			"-0.012": 3.08520559058,
			"-0.011": 2.71431875044,
			"-0.01": 2.08517386271,
			"-0.009": 2.77300404902,
			"-0.008": 4.85336285615,
			"-0.007": 4.40856624625,
			"-0.006": 4.40353372825,
			"-0.005": 5.18213630975,
			"-0.004": 12.2080009916,
			"-0.003": 20.6852377521,
			"-0.002": 20.3374081489,
			"-0.001": 19.2583431963,
			"0.0": 22.337285921,
			"0.001": 18.3460857703,
			"0.002": 7.82689720794,
			"0.003": 8.80724719126,
			"0.004": 8.60402866401,
			"0.005": 5.97508019015,
			"0.006": 2.37252191916,
			"0.007": 2.50939049723,
			"0.008": 2.94880410391,
			"0.009": 2.38436036531,
			"0.01": 2.95830369215,
			"0.011": 4.76697533876,
			"0.012": 7.4884922108,
			"0.013": 5.36508089521,
			"0.014": 1.80178226904,
			"0.015": 2.0094451462,
			"0.016": 1.06662278365,
			"0.017": 0.665601728054,
			"0.018": 0.0,
			"0.019": 0.0,
			"0.02": 0.0,
			"0.021": 0.0,
			"0.022": 0.0,
			"0.023": 0.0,
			"0.024": 0.0,
			"0.025": 0.0
		}
	}
}
