{
	 "smiles": "OC(=O)C1=CC(=CC=C1O)C1=CC=C(F)C=C1F", 
	 "Tm": 486.15, 
	 "num_atms": 26, 
	 "gaussian": { 
		 "optdone": 1, 
		 "sigma_profile": "yes", 
		 "theory": "DFT", 
		 "functional": "B3LYP", 
		 "basiset": "6-31G**", 
		 "properties": { 
			 "R2extent": 5857.0765, 
			 "electric_dipole_moment_norm": 5.72506466077, 
			 "electric_quadrupole_moment_norm": 27.3267191509, 
			 "total_energy": -925.561282639, 
			 "HOMO_LUMO_gap": 0.17934, 
			 "cosmo_polarized_energy": -18.04, 
			 "cosmo_cavitation_energy": 31.95, 
			 "cosmo_dispersion_energy": -23.35, 
			 "cosmo_repulsion_energy": 1.73, 
			 "cosmo_total_nonelectrostatic_energy": 10.33, 
			 "SMD_solvation_energy": 7.64 
		},
		"coords": [
			{
				"x": -1.3987666654,
				"y": -1.3606416341,
				"z": -3.9465686604,
				"element": "O" 
			},
			{
				"x": -0.440476167,
				"y": -0.837190051,
				"z": -3.1584158431,
				"element": "C" 
			},
			{
				"x": 0.6024503811,
				"y": -0.4478278709,
				"z": -3.6373898905,
				"element": "O" 
			},
			{
				"x": -0.7087864737,
				"y": -0.7528596378,
				"z": -1.6759541368,
				"element": "C" 
			},
			{
				"x": 0.3186335854,
				"y": -0.2223004667,
				"z": -0.8868947701,
				"element": "C" 
			},
			{
				"x": 0.2135101631,
				"y": -0.0831332722,
				"z": 0.5013741682,
				"element": "C" 
			},
			{
				"x": -0.9794800216,
				"y": -0.5127841052,
				"z": 1.110710205,
				"element": "C" 
			},
			{
				"x": -2.0151791597,
				"y": -1.0470092312,
				"z": 0.3533071007,
				"element": "C" 
			},
			{
				"x": -1.8879212126,
				"y": -1.1676484449,
				"z": -1.0316128848,
				"element": "C" 
			},
			{
				"x": -2.9049301002,
				"y": -1.691956718,
				"z": -1.7943612403,
				"element": "O" 
			},
			{
				"x": 1.3239096308,
				"y": 0.521869306,
				"z": 1.2788912612,
				"element": "C" 
			},
			{
				"x": 2.089042643,
				"y": 1.5797414127,
				"z": 0.7546250369,
				"element": "C" 
			},
			{
				"x": 3.1485524298,
				"y": 2.1524546579,
				"z": 1.4538435545,
				"element": "C" 
			},
			{
				"x": 3.4541677939,
				"y": 1.65844071,
				"z": 2.7169598745,
				"element": "C" 
			},
			{
				"x": 4.4710240298,
				"y": 2.2013773164,
				"z": 3.4115691859,
				"element": "F" 
			},
			{
				"x": 2.7335965404,
				"y": 0.6182764164,
				"z": 3.2905634128,
				"element": "C" 
			},
			{
				"x": 1.6866832973,
				"y": 0.0746524907,
				"z": 2.5580293483,
				"element": "C" 
			},
			{
				"x": 1.0033854163,
				"y": -0.9461502793,
				"z": 3.1244464316,
				"element": "F" 
			},
			{
				"x": -2.1719980087,
				"y": -1.624238427,
				"z": -3.4171320926,
				"element": "H" 
			},
			{
				"x": 1.2237205458,
				"y": 0.0661707353,
				"z": -1.4099293396,
				"element": "H" 
			},
			{
				"x": -1.1016881394,
				"y": -0.4253622692,
				"z": 2.1834003824,
				"element": "H" 
			},
			{
				"x": -2.9338185083,
				"y": -1.3681600727,
				"z": 0.8397031629,
				"element": "H" 
			},
			{
				"x": -3.6466586334,
				"y": -1.9589363871,
				"z": -1.2368122047,
				"element": "H" 
			},
			{
				"x": 1.8308052166,
				"y": 1.9728362831,
				"z": -0.2231836501,
				"element": "H" 
			},
			{
				"x": 3.7256954468,
				"y": 2.9713473434,
				"z": 1.0402064028,
				"element": "H" 
			},
			{
				"x": 2.9808259698,
				"y": 0.2329321952,
				"z": 4.2721251853,
				"element": "H" 
			}
		],
		 "valence_orbital": [ 
			{
				"type": "occ",
				"energy": -0.27909,
				"method": "rhf"
			},
			{
				"type": "occ",
				"energy": -0.27153,
				"method": "rhf"
			},
			{
				"type": "occ",
				"energy": -0.26679,
				"method": "rhf"
			},
			{
				"type": "occ",
				"energy": -0.26486,
				"method": "rhf"
			},
			{
				"type": "occ",
				"energy": -0.2305,
				"method": "rhf"
			},
			{
				"type": "unocc",
				"energy": -0.05116,
				"method": "rhf"
			},
			{
				"type": "unocc",
				"energy": -0.03735,
				"method": "rhf"
			},
			{
				"type": "unocc",
				"energy": -0.01754,
				"method": "rhf"
			},
			{
				"type": "unocc",
				"energy": 0.01093,
				"method": "rhf"
			},
			{
				"type": "unocc",
				"energy": 0.03534,
				"method": "rhf"
			}
		],
		"cosmo_sigma_profile": { 
			"-0.025": 0.0,
			"-0.024": 0.0,
			"-0.023": 0.0,
			"-0.022": 0.0,
			"-0.021": 0.0,
			"-0.02": 0.330673820329,
			"-0.019": 1.33113984068,
			"-0.018": 0.726920020421,
			"-0.017": 1.13807330751,
			"-0.016": 1.39383394707,
			"-0.015": 1.27730374436,
			"-0.014": 1.12464752896,
			"-0.013": 0.753905162543,
			"-0.012": 0.798351447201,
			"-0.011": 1.0276639303,
			"-0.01": 1.13571594948,
			"-0.009": 2.50209155068,
			"-0.008": 4.95953675659,
			"-0.007": 8.50420089025,
			"-0.006": 11.8078146918,
			"-0.005": 12.4098334674,
			"-0.004": 10.3303662807,
			"-0.003": 12.9908703674,
			"-0.002": 11.6366078996,
			"-0.001": 14.8469328276,
			"0.0": 24.7814198613,
			"0.001": 28.8331685541,
			"0.002": 27.9448214584,
			"0.003": 25.0629452985,
			"0.004": 19.5895673239,
			"0.005": 3.07921911624,
			"0.006": 1.16277058129,
			"0.007": 2.68351911008,
			"0.008": 2.74375185266,
			"0.009": 3.45122659739,
			"0.01": 3.1733638634,
			"0.011": 5.23617281216,
			"0.012": 5.70058957236,
			"0.013": 2.44878133441,
			"0.014": 0.705737555727,
			"0.015": 0.0,
			"0.016": 0.0,
			"0.017": 0.0,
			"0.018": 0.0,
			"0.019": 0.0,
			"0.02": 0.0,
			"0.021": 0.0,
			"0.022": 0.0,
			"0.023": 0.0,
			"0.024": 0.0,
			"0.025": 0.0
		}
	}
}
