{
	 "smiles": "CCN(CC)C(=O)NC1=CC=C(OCC(O)CNC(C)(C)C)C(=C1)C(C)=O", 
	 "Tm": 383.15, 
	 "num_atms": 60, 
	 "gaussian": { 
		 "optdone": 1, 
		 "sigma_profile": "yes", 
		 "theory": "DFT", 
		 "functional": "B3LYP", 
		 "basiset": "6-31G**", 
		 "properties": { 
			 "R2extent": 15581.9314, 
			 "electric_dipole_moment_norm": 6.45504339722, 
			 "electric_quadrupole_moment_norm": 34.6599126088, 
			 "total_energy": -1247.18442815, 
			 "HOMO_LUMO_gap": 0.15646, 
			 "cosmo_polarized_energy": -20.97, 
			 "cosmo_cavitation_energy": 59.62, 
			 "cosmo_dispersion_energy": -37.84, 
			 "cosmo_repulsion_energy": 2.88, 
			 "cosmo_total_nonelectrostatic_energy": 24.66, 
			 "SMD_solvation_energy": 11.87 
		},
		"coords": [
			{
				"x": 4.7805990045,
				"y": 0.0796829593,
				"z": 2.1902642495,
				"element": "C" 
			},
			{
				"x": 3.5694573369,
				"y": -0.7062594518,
				"z": 2.7045110106,
				"element": "C" 
			},
			{
				"x": 2.9679490502,
				"y": -0.1217866346,
				"z": 3.911385125,
				"element": "N" 
			},
			{
				"x": 3.5729972481,
				"y": -0.5052685586,
				"z": 5.1950062826,
				"element": "C" 
			},
			{
				"x": 2.9797921018,
				"y": -1.7989184997,
				"z": 5.757901577,
				"element": "C" 
			},
			{
				"x": 2.2173579327,
				"y": 1.031797837,
				"z": 3.8835588263,
				"element": "C" 
			},
			{
				"x": 2.1204282214,
				"y": 1.8113206366,
				"z": 4.8270055841,
				"element": "O" 
			},
			{
				"x": 1.5694922978,
				"y": 1.3412562876,
				"z": 2.6653261296,
				"element": "N" 
			},
			{
				"x": 0.6743821087,
				"y": 0.5234707517,
				"z": 1.9292794166,
				"element": "C" 
			},
			{
				"x": 0.088159846,
				"y": 1.0666334292,
				"z": 0.7729864777,
				"element": "C" 
			},
			{
				"x": -0.8194216197,
				"y": 0.335736716,
				"z": 0.0181830033,
				"element": "C" 
			},
			{
				"x": -1.1480414191,
				"y": -0.9798938338,
				"z": 0.3780804867,
				"element": "C" 
			},
			{
				"x": -2.0607940311,
				"y": -1.714984392,
				"z": -0.3357788854,
				"element": "O" 
			},
			{
				"x": -2.149672723,
				"y": -1.5798095332,
				"z": -1.7576501332,
				"element": "C" 
			},
			{
				"x": -3.588853703,
				"y": -1.2413006409,
				"z": -2.151053568,
				"element": "C" 
			},
			{
				"x": -3.6132186785,
				"y": -1.3535310685,
				"z": -3.5772306383,
				"element": "O" 
			},
			{
				"x": -4.0634222022,
				"y": 0.1451055209,
				"z": -1.6983773072,
				"element": "C" 
			},
			{
				"x": -3.2478724849,
				"y": 1.1855681369,
				"z": -2.3158024701,
				"element": "N" 
			},
			{
				"x": -3.7178877811,
				"y": 2.5889680136,
				"z": -2.2259331598,
				"element": "C" 
			},
			{
				"x": -3.8505062212,
				"y": 2.9931941002,
				"z": -0.7481201996,
				"element": "C" 
			},
			{
				"x": -2.6325077775,
				"y": 3.4472392754,
				"z": -2.8977089918,
				"element": "C" 
			},
			{
				"x": -5.0632950303,
				"y": 2.8129448187,
				"z": -2.9536328336,
				"element": "C" 
			},
			{
				"x": -0.5706401037,
				"y": -1.5495863206,
				"z": 1.5329066554,
				"element": "C" 
			},
			{
				"x": 0.319773292,
				"y": -0.7727313665,
				"z": 2.2961309399,
				"element": "C" 
			},
			{
				"x": -0.8175277043,
				"y": -2.9426660092,
				"z": 2.0552833846,
				"element": "C" 
			},
			{
				"x": -1.7904802903,
				"y": -3.8832689839,
				"z": 1.3723152381,
				"element": "C" 
			},
			{
				"x": -0.2172260983,
				"y": -3.3230186115,
				"z": 3.0524947784,
				"element": "O" 
			},
			{
				"x": 4.4832152283,
				"y": 1.0883415137,
				"z": 1.8891766274,
				"element": "H" 
			},
			{
				"x": 5.5599208592,
				"y": 0.1653906204,
				"z": 2.9543489386,
				"element": "H" 
			},
			{
				"x": 5.2161064286,
				"y": -0.4223219211,
				"z": 1.3194868852,
				"element": "H" 
			},
			{
				"x": 3.8608147138,
				"y": -1.7301526924,
				"z": 2.9595816526,
				"element": "H" 
			},
			{
				"x": 2.8194687828,
				"y": -0.7936930139,
				"z": 1.9180210703,
				"element": "H" 
			},
			{
				"x": 3.4166138419,
				"y": 0.3237324838,
				"z": 5.8855693047,
				"element": "H" 
			},
			{
				"x": 4.6557412693,
				"y": -0.6140610614,
				"z": 5.0527333727,
				"element": "H" 
			},
			{
				"x": 1.9129108888,
				"y": -1.6764119957,
				"z": 5.9658000834,
				"element": "H" 
			},
			{
				"x": 3.0905473293,
				"y": -2.636502733,
				"z": 5.061307352,
				"element": "H" 
			},
			{
				"x": 3.4827165015,
				"y": -2.0704413223,
				"z": 6.6924932597,
				"element": "H" 
			},
			{
				"x": 1.2593974189,
				"y": 2.3038135742,
				"z": 2.7260417645,
				"element": "H" 
			},
			{
				"x": 0.3412521148,
				"y": 2.0800697004,
				"z": 0.470863587,
				"element": "H" 
			},
			{
				"x": -1.2986752915,
				"y": 0.7942783376,
				"z": -0.8426465744,
				"element": "H" 
			},
			{
				"x": -1.4595114307,
				"y": -0.8249626782,
				"z": -2.1377577473,
				"element": "H" 
			},
			{
				"x": -1.8885456613,
				"y": -2.5458725091,
				"z": -2.2041603849,
				"element": "H" 
			},
			{
				"x": -4.24554023,
				"y": -1.9941591516,
				"z": -1.689547669,
				"element": "H" 
			},
			{
				"x": -4.5355723963,
				"y": -1.3323956261,
				"z": -3.8630474725,
				"element": "H" 
			},
			{
				"x": -3.9842890917,
				"y": 0.1989145111,
				"z": -0.6069224858,
				"element": "H" 
			},
			{
				"x": -5.1407448052,
				"y": 0.2193899538,
				"z": -1.9398465244,
				"element": "H" 
			},
			{
				"x": -3.1397360152,
				"y": 0.9405964942,
				"z": -3.2990458272,
				"element": "H" 
			},
			{
				"x": -4.0765976312,
				"y": 4.0610008784,
				"z": -0.6672727269,
				"element": "H" 
			},
			{
				"x": -2.9203865693,
				"y": 2.7957664869,
				"z": -0.2068322656,
				"element": "H" 
			},
			{
				"x": -4.6574610602,
				"y": 2.4492851632,
				"z": -0.2469276294,
				"element": "H" 
			},
			{
				"x": -2.9041991236,
				"y": 4.5074487483,
				"z": -2.8800108072,
				"element": "H" 
			},
			{
				"x": -1.673097617,
				"y": 3.3239866347,
				"z": -2.3868875378,
				"element": "H" 
			},
			{
				"x": -2.4964649557,
				"y": 3.1558912601,
				"z": -3.9460891782,
				"element": "H" 
			},
			{
				"x": -5.3639749633,
				"y": 3.8649343151,
				"z": -2.9048071362,
				"element": "H" 
			},
			{
				"x": -4.9835983145,
				"y": 2.5386638671,
				"z": -4.0122591323,
				"element": "H" 
			},
			{
				"x": -5.8711949473,
				"y": 2.2229998274,
				"z": -2.5090463654,
				"element": "H" 
			},
			{
				"x": 0.726619739,
				"y": -1.2325537614,
				"z": 3.1882412497,
				"element": "H" 
			},
			{
				"x": -1.8137760814,
				"y": -4.8131838437,
				"z": 1.9424860197,
				"element": "H" 
			},
			{
				"x": -1.4822260215,
				"y": -4.0821037262,
				"z": 0.3416928875,
				"element": "H" 
			},
			{
				"x": -2.790553481,
				"y": -3.4453829126,
				"z": 1.3146324312,
				"element": "H" 
			}
		],
		 "valence_orbital": [ 
			{
				"type": "occ",
				"energy": -0.25099,
				"method": "rhf"
			},
			{
				"type": "occ",
				"energy": -0.23985,
				"method": "rhf"
			},
			{
				"type": "occ",
				"energy": -0.23008,
				"method": "rhf"
			},
			{
				"type": "occ",
				"energy": -0.22906,
				"method": "rhf"
			},
			{
				"type": "occ",
				"energy": -0.2033,
				"method": "rhf"
			},
			{
				"type": "unocc",
				"energy": -0.04684,
				"method": "rhf"
			},
			{
				"type": "unocc",
				"energy": 0.00217,
				"method": "rhf"
			},
			{
				"type": "unocc",
				"energy": 0.0368,
				"method": "rhf"
			},
			{
				"type": "unocc",
				"energy": 0.04962,
				"method": "rhf"
			},
			{
				"type": "unocc",
				"energy": 0.05833,
				"method": "rhf"
			}
		],
		"cosmo_sigma_profile": { 
			"-0.025": 0.0,
			"-0.024": 0.0,
			"-0.023": 0.0,
			"-0.022": 0.0,
			"-0.021": 0.0,
			"-0.02": 0.0,
			"-0.019": 0.0,
			"-0.018": 0.0,
			"-0.017": 0.0,
			"-0.016": 0.633003515413,
			"-0.015": 1.00597822081,
			"-0.014": 0.955507616556,
			"-0.013": 2.25855432518,
			"-0.012": 1.8438917367,
			"-0.011": 1.31568590719,
			"-0.01": 2.3774265744,
			"-0.009": 1.82270685136,
			"-0.008": 2.81883074751,
			"-0.007": 3.53864524549,
			"-0.006": 4.84615846037,
			"-0.005": 14.367537181,
			"-0.004": 30.1374261012,
			"-0.003": 47.7396271142,
			"-0.002": 64.7045303213,
			"-0.001": 58.0754737038,
			"0.0": 56.8020463132,
			"0.001": 51.5539201481,
			"0.002": 31.3155565022,
			"0.003": 18.8402074649,
			"0.004": 12.8537279841,
			"0.005": 7.09846064568,
			"0.006": 6.38198691956,
			"0.007": 4.08911722534,
			"0.008": 4.21069068012,
			"0.009": 4.87077977522,
			"0.01": 4.10032095077,
			"0.011": 5.49142492848,
			"0.012": 5.63446741427,
			"0.013": 6.69318764887,
			"0.014": 5.5022430731,
			"0.015": 0.416954211562,
			"0.016": 0.0,
			"0.017": 0.0,
			"0.018": 0.0,
			"0.019": 0.0,
			"0.02": 0.0,
			"0.021": 0.0,
			"0.022": 0.0,
			"0.023": 0.0,
			"0.024": 0.0,
			"0.025": 0.0
		}
	}
}
