{
	 "smiles": "[O-][N+](=O)CC(NC1=CC=CC=C1)C1=CC(=CC=C1)C(C[N+]([O-])=O)NC1=CC=CC=C1", 
	 "Tm": 400.15, 
	 "num_atms": 52, 
	 "gaussian": { 
		 "optdone": 1, 
		 "sigma_profile": "yes", 
		 "theory": "DFT", 
		 "functional": "B3LYP", 
		 "basiset": "6-31G**", 
		 "properties": { 
			 "R2extent": 12501.2457, 
			 "electric_dipole_moment_norm": 3.66219119927, 
			 "electric_quadrupole_moment_norm": 27.9905453486, 
			 "total_energy": -1371.29463683, 
			 "HOMO_LUMO_gap": 0.13236, 
			 "cosmo_polarized_energy": -22.87, 
			 "cosmo_cavitation_energy": 55.63, 
			 "cosmo_dispersion_energy": -34.14, 
			 "cosmo_repulsion_energy": 2.55, 
			 "cosmo_total_nonelectrostatic_energy": 24.04, 
			 "SMD_solvation_energy": 11.2 
		},
		"coords": [
			{
				"x": 3.0127362218,
				"y": -3.2774335071,
				"z": -2.4025029043,
				"element": "O" 
			},
			{
				"x": 2.2180717873,
				"y": -3.3058019697,
				"z": -1.463080471,
				"element": "N" 
			},
			{
				"x": 1.9947928285,
				"y": -4.2785266632,
				"z": -0.7556975088,
				"element": "O" 
			},
			{
				"x": 1.4061113346,
				"y": -2.0619782997,
				"z": -1.167669097,
				"element": "C" 
			},
			{
				"x": 2.0701671255,
				"y": -0.798826908,
				"z": -1.7398378973,
				"element": "C" 
			},
			{
				"x": 3.4224824422,
				"y": -0.583910826,
				"z": -1.2286904386,
				"element": "N" 
			},
			{
				"x": 3.742075002,
				"y": -0.4936595806,
				"z": 0.1371217658,
				"element": "C" 
			},
			{
				"x": 2.831492183,
				"y": -0.0624044263,
				"z": 1.1184145964,
				"element": "C" 
			},
			{
				"x": 3.2357679342,
				"y": 0.0474820113,
				"z": 2.4505418694,
				"element": "C" 
			},
			{
				"x": 4.5386650993,
				"y": -0.2608074461,
				"z": 2.8382794446,
				"element": "C" 
			},
			{
				"x": 5.4464578287,
				"y": -0.6878529772,
				"z": 1.8652489608,
				"element": "C" 
			},
			{
				"x": 5.0565506797,
				"y": -0.8055415215,
				"z": 0.5354891042,
				"element": "C" 
			},
			{
				"x": 1.1923605545,
				"y": 0.4559586716,
				"z": -1.6323298334,
				"element": "C" 
			},
			{
				"x": -0.1885203872,
				"y": 0.3992921534,
				"z": -1.4148908741,
				"element": "C" 
			},
			{
				"x": -0.9705161729,
				"y": 1.5653297737,
				"z": -1.3581395585,
				"element": "C" 
			},
			{
				"x": -0.3473775852,
				"y": 2.8032894057,
				"z": -1.5421119876,
				"element": "C" 
			},
			{
				"x": 1.0274789862,
				"y": 2.8723209805,
				"z": -1.7747557598,
				"element": "C" 
			},
			{
				"x": 1.7927021079,
				"y": 1.7102578402,
				"z": -1.8157533643,
				"element": "C" 
			},
			{
				"x": -2.4682430523,
				"y": 1.5103836719,
				"z": -1.0674944832,
				"element": "C" 
			},
			{
				"x": -3.1966147924,
				"y": 0.6865322126,
				"z": -2.1350168737,
				"element": "C" 
			},
			{
				"x": -4.692036216,
				"y": 0.7981199349,
				"z": -1.966193702,
				"element": "N" 
			},
			{
				"x": -5.3287720636,
				"y": -0.2440456086,
				"z": -1.8412588152,
				"element": "O" 
			},
			{
				"x": -5.168127485,
				"y": 1.9274453729,
				"z": -1.9875401845,
				"element": "O" 
			},
			{
				"x": -2.8412878908,
				"y": 1.0869170684,
				"z": 0.3040468143,
				"element": "N" 
			},
			{
				"x": -2.3642301263,
				"y": -0.1430379061,
				"z": 0.8422196658,
				"element": "C" 
			},
			{
				"x": -2.9293300486,
				"y": -1.365543202,
				"z": 0.4395825035,
				"element": "C" 
			},
			{
				"x": -2.458967908,
				"y": -2.5661532034,
				"z": 0.9730967734,
				"element": "C" 
			},
			{
				"x": -1.450330288,
				"y": -2.5714023291,
				"z": 1.9400914117,
				"element": "C" 
			},
			{
				"x": -0.9165794175,
				"y": -1.3571482988,
				"z": 2.3765577865,
				"element": "C" 
			},
			{
				"x": -1.3609869136,
				"y": -0.1546984799,
				"z": 1.8244738157,
				"element": "C" 
			},
			{
				"x": 1.2802160699,
				"y": -2.0457651866,
				"z": -0.0856825927,
				"element": "H" 
			},
			{
				"x": 0.4361669154,
				"y": -2.2666286725,
				"z": -1.6265515565,
				"element": "H" 
			},
			{
				"x": 2.2120900948,
				"y": -0.9933596799,
				"z": -2.8085983653,
				"element": "H" 
			},
			{
				"x": 4.0934318199,
				"y": -1.1388251934,
				"z": -1.7433071813,
				"element": "H" 
			},
			{
				"x": 1.8156194591,
				"y": 0.1992301182,
				"z": 0.8485692668,
				"element": "H" 
			},
			{
				"x": 2.5151858649,
				"y": 0.3845953716,
				"z": 3.191140896,
				"element": "H" 
			},
			{
				"x": 4.8427807895,
				"y": -0.1720239246,
				"z": 3.8763639803,
				"element": "H" 
			},
			{
				"x": 6.466823763,
				"y": -0.9373180619,
				"z": 2.1428132569,
				"element": "H" 
			},
			{
				"x": 5.7723123629,
				"y": -1.1415414036,
				"z": -0.211486536,
				"element": "H" 
			},
			{
				"x": -0.6768610569,
				"y": -0.5548930064,
				"z": -1.258721701,
				"element": "H" 
			},
			{
				"x": -0.9376059917,
				"y": 3.7156086818,
				"z": -1.5019086218,
				"element": "H" 
			},
			{
				"x": 1.5045055743,
				"y": 3.8375373599,
				"z": -1.9180107109,
				"element": "H" 
			},
			{
				"x": 2.8645438683,
				"y": 1.7600042326,
				"z": -1.9742119242,
				"element": "H" 
			},
			{
				"x": -2.8645806164,
				"y": 2.5254949932,
				"z": -1.1609241544,
				"element": "H" 
			},
			{
				"x": -2.9792852238,
				"y": 1.0915603153,
				"z": -3.1257997278,
				"element": "H" 
			},
			{
				"x": -2.9603214466,
				"y": -0.3746638467,
				"z": -2.108016173,
				"element": "H" 
			},
			{
				"x": -2.6115039945,
				"y": 1.8473156257,
				"z": 0.9352277268,
				"element": "H" 
			},
			{
				"x": -3.7613750432,
				"y": -1.3675025321,
				"z": -0.2566039458,
				"element": "H" 
			},
			{
				"x": -2.9051665287,
				"y": -3.5024106705,
				"z": 0.6497347126,
				"element": "H" 
			},
			{
				"x": -1.0967302487,
				"y": -3.5082676689,
				"z": 2.3592208614,
				"element": "H" 
			},
			{
				"x": -0.1413242496,
				"y": -1.3441024684,
				"z": 3.137372404,
				"element": "H" 
			},
			{
				"x": -0.9247139498,
				"y": 0.7865996734,
				"z": 2.1505793271,
				"element": "H" 
			}
		],
		 "valence_orbital": [ 
			{
				"type": "occ",
				"energy": -0.26346,
				"method": "rhf"
			},
			{
				"type": "occ",
				"energy": -0.25951,
				"method": "rhf"
			},
			{
				"type": "occ",
				"energy": -0.2508,
				"method": "rhf"
			},
			{
				"type": "occ",
				"energy": -0.226,
				"method": "rhf"
			},
			{
				"type": "occ",
				"energy": -0.20866,
				"method": "rhf"
			},
			{
				"type": "unocc",
				"energy": -0.0763,
				"method": "rhf"
			},
			{
				"type": "unocc",
				"energy": -0.07145,
				"method": "rhf"
			},
			{
				"type": "unocc",
				"energy": -0.02905,
				"method": "rhf"
			},
			{
				"type": "unocc",
				"energy": -0.02567,
				"method": "rhf"
			},
			{
				"type": "unocc",
				"energy": -0.01315,
				"method": "rhf"
			}
		],
		"cosmo_sigma_profile": { 
			"-0.025": 0.0,
			"-0.024": 0.0,
			"-0.023": 0.0,
			"-0.022": 0.0,
			"-0.021": 0.0,
			"-0.02": 0.0,
			"-0.019": 0.0,
			"-0.018": 0.0,
			"-0.017": 0.0,
			"-0.016": 0.0,
			"-0.015": 0.0,
			"-0.014": 0.0,
			"-0.013": 0.0407774890553,
			"-0.012": 1.0191568486,
			"-0.011": 3.21685596176,
			"-0.01": 6.73631073022,
			"-0.009": 7.48969900407,
			"-0.008": 8.49738098822,
			"-0.007": 13.9467827675,
			"-0.006": 20.3823507416,
			"-0.005": 29.4133611966,
			"-0.004": 32.7601097897,
			"-0.003": 30.8718913919,
			"-0.002": 27.5271027373,
			"-0.001": 29.8295742202,
			"0.0": 29.1902181158,
			"0.001": 27.0428702541,
			"0.002": 25.1682131562,
			"0.003": 22.0045746399,
			"0.004": 26.5911835267,
			"0.005": 26.4364167604,
			"0.006": 21.9261455067,
			"0.007": 23.7490902438,
			"0.008": 16.2517544873,
			"0.009": 8.32650065445,
			"0.01": 3.56434957839,
			"0.011": 0.53195884588,
			"0.012": 0.0,
			"0.013": 0.0,
			"0.014": 0.0,
			"0.015": 0.0,
			"0.016": 0.0,
			"0.017": 0.0,
			"0.018": 0.0,
			"0.019": 0.0,
			"0.02": 0.0,
			"0.021": 0.0,
			"0.022": 0.0,
			"0.023": 0.0,
			"0.024": 0.0,
			"0.025": 0.0
		}
	}
}
