{
	 "smiles": "OC1=CC(=NC2=C(Br)C=CC=C12)C(F)(F)F", 
	 "Tm": 409.15, 
	 "num_atms": 21, 
	 "gaussian": { 
		 "optdone": 1, 
		 "sigma_profile": "yes", 
		 "theory": "DFT", 
		 "functional": "B3LYP", 
		 "basiset": "6-31G**", 
		 "properties": { 
			 "R2extent": 5474.4376, 
			 "electric_dipole_moment_norm": 5.90075695229, 
			 "electric_quadrupole_moment_norm": 4.07774820949, 
			 "total_energy": -3384.98164361, 
			 "HOMO_LUMO_gap": 0.16465, 
			 "cosmo_polarized_energy": -14.13, 
			 "cosmo_cavitation_energy": 29.46, 
			 "cosmo_dispersion_energy": -21.59, 
			 "cosmo_repulsion_energy": 1.6, 
			 "cosmo_total_nonelectrostatic_energy": 9.47, 
			 "SMD_solvation_energy": 4.25 
		},
		"coords": [
			{
				"x": 2.2843395152,
				"y": -0.794259711,
				"z": 1.2927668011,
				"element": "O" 
			},
			{
				"x": 1.3848519807,
				"y": -0.2778913592,
				"z": 0.4249180504,
				"element": "C" 
			},
			{
				"x": 1.7731374678,
				"y": -0.1461249705,
				"z": -0.8947134865,
				"element": "C" 
			},
			{
				"x": 0.8455654869,
				"y": 0.3894633124,
				"z": -1.8041511852,
				"element": "C" 
			},
			{
				"x": -0.3756655343,
				"y": 0.7806420109,
				"z": -1.5019690137,
				"element": "N" 
			},
			{
				"x": -0.7736469067,
				"y": 0.6590508422,
				"z": -0.2137877077,
				"element": "C" 
			},
			{
				"x": -2.0911250577,
				"y": 1.0712176499,
				"z": 0.1593605253,
				"element": "C" 
			},
			{
				"x": -3.2566065582,
				"y": 1.7809798403,
				"z": -1.1601258814,
				"element": "Br" 
			},
			{
				"x": -2.5341922197,
				"y": 0.9643807041,
				"z": 1.4577867806,
				"element": "C" 
			},
			{
				"x": -1.6865421112,
				"y": 0.4393741111,
				"z": 2.4589323444,
				"element": "C" 
			},
			{
				"x": -0.4106084349,
				"y": 0.0293924495,
				"z": 2.148809416,
				"element": "C" 
			},
			{
				"x": 0.0722334291,
				"y": 0.1281287019,
				"z": 0.8188037647,
				"element": "C" 
			},
			{
				"x": 1.2228900825,
				"y": 0.5557244701,
				"z": -3.2678038295,
				"element": "C" 
			},
			{
				"x": 0.404822854,
				"y": -0.1534737229,
				"z": -4.0655085464,
				"element": "F" 
			},
			{
				"x": 2.4873675401,
				"y": 0.133182297,
				"z": -3.5013899904,
				"element": "F" 
			},
			{
				"x": 1.1497153477,
				"y": 1.8440590342,
				"z": -3.6464928812,
				"element": "F" 
			},
			{
				"x": 1.9120381242,
				"y": -0.8414403045,
				"z": 2.1822083366,
				"element": "H" 
			},
			{
				"x": 2.7638406909,
				"y": -0.4497071676,
				"z": -1.205416175,
				"element": "H" 
			},
			{
				"x": -3.5381733097,
				"y": 1.2851099053,
				"z": 1.7105811076,
				"element": "H" 
			},
			{
				"x": -2.0535750709,
				"y": 0.3627674379,
				"z": 3.4774408291,
				"element": "H" 
			},
			{
				"x": 0.2150326841,
				"y": -0.3699755312,
				"z": 2.9437507413,
				"element": "H" 
			}
		],
		 "valence_orbital": [ 
			{
				"type": "occ",
				"energy": -0.29325,
				"method": "rhf"
			},
			{
				"type": "occ",
				"energy": -0.27824,
				"method": "rhf"
			},
			{
				"type": "occ",
				"energy": -0.27666,
				"method": "rhf"
			},
			{
				"type": "occ",
				"energy": -0.26967,
				"method": "rhf"
			},
			{
				"type": "occ",
				"energy": -0.23727,
				"method": "rhf"
			},
			{
				"type": "unocc",
				"energy": -0.07262,
				"method": "rhf"
			},
			{
				"type": "unocc",
				"energy": -0.0428,
				"method": "rhf"
			},
			{
				"type": "unocc",
				"energy": 0.00301,
				"method": "rhf"
			},
			{
				"type": "unocc",
				"energy": 0.00664,
				"method": "rhf"
			},
			{
				"type": "unocc",
				"energy": 0.03479,
				"method": "rhf"
			}
		],
		"cosmo_sigma_profile": { 
			"-0.025": 0.0,
			"-0.024": 0.0,
			"-0.023": 0.0,
			"-0.022": 0.0,
			"-0.021": 0.0,
			"-0.02": 0.36171951074,
			"-0.019": 0.943190126543,
			"-0.018": 1.16879887128,
			"-0.017": 0.629901421879,
			"-0.016": 0.85088024601,
			"-0.015": 0.852702604978,
			"-0.014": 0.804260554804,
			"-0.013": 1.39948715568,
			"-0.012": 1.27519477887,
			"-0.011": 1.14937936939,
			"-0.01": 1.03438177021,
			"-0.009": 1.10656724892,
			"-0.008": 3.78857315542,
			"-0.007": 7.9258440134,
			"-0.006": 8.13444234824,
			"-0.005": 6.47718204787,
			"-0.004": 7.65204426931,
			"-0.003": 10.6963293563,
			"-0.002": 13.9296184599,
			"-0.001": 19.1220719031,
			"0.0": 21.9607689429,
			"0.001": 23.7590896588,
			"0.002": 35.2677610421,
			"0.003": 30.2765731775,
			"0.004": 13.8081260014,
			"0.005": 7.43428133722,
			"0.006": 4.98368720768,
			"0.007": 2.91171938216,
			"0.008": 3.72880905334,
			"0.009": 3.55207015072,
			"0.01": 1.72617618375,
			"0.011": 0.844310339184,
			"0.012": 1.08087156028,
			"0.013": 0.541421935349,
			"0.014": 0.00167095968137,
			"0.015": 0.0,
			"0.016": 0.0,
			"0.017": 0.0,
			"0.018": 0.0,
			"0.019": 0.0,
			"0.02": 0.0,
			"0.021": 0.0,
			"0.022": 0.0,
			"0.023": 0.0,
			"0.024": 0.0,
			"0.025": 0.0
		}
	}
}
