{
	 "smiles": "OC(=O)C1CN(C(=O)C1)C1=CC2=C(CCC2)C=C1", 
	 "Tm": 453.15, 
	 "num_atms": 33, 
	 "gaussian": { 
		 "optdone": 1, 
		 "sigma_profile": "yes", 
		 "theory": "DFT", 
		 "functional": "B3LYP", 
		 "basiset": "6-31G**", 
		 "properties": { 
			 "R2extent": 6738.187, 
			 "electric_dipole_moment_norm": 2.23106785195, 
			 "electric_quadrupole_moment_norm": 19.6285930522, 
			 "total_energy": -822.988330364, 
			 "HOMO_LUMO_gap": 0.19766, 
			 "cosmo_polarized_energy": -20.49, 
			 "cosmo_cavitation_energy": 35.35, 
			 "cosmo_dispersion_energy": -26.06, 
			 "cosmo_repulsion_energy": 2.01, 
			 "cosmo_total_nonelectrostatic_energy": 11.3, 
			 "SMD_solvation_energy": 6.33 
		},
		"coords": [
			{
				"x": 4.7335156888,
				"y": 1.7663412564,
				"z": -1.4803194324,
				"element": "O" 
			},
			{
				"x": 3.6272426194,
				"y": 1.3978153665,
				"z": -0.7835785564,
				"element": "C" 
			},
			{
				"x": 3.5726408343,
				"y": 1.5770567499,
				"z": 0.40733888,
				"element": "O" 
			},
			{
				"x": 2.5176906067,
				"y": 0.7710172448,
				"z": -1.6176521532,
				"element": "C" 
			},
			{
				"x": 1.2957523564,
				"y": 0.3660327415,
				"z": -0.7780405234,
				"element": "C" 
			},
			{
				"x": 0.1705949842,
				"y": 0.4595401583,
				"z": -1.7153828262,
				"element": "N" 
			},
			{
				"x": 0.4727550903,
				"y": 1.2201710849,
				"z": -2.8322151529,
				"element": "C" 
			},
			{
				"x": -0.2628937364,
				"y": 1.4967962784,
				"z": -3.7637964697,
				"element": "O" 
			},
			{
				"x": 1.9206596396,
				"y": 1.6977285547,
				"z": -2.6945405541,
				"element": "C" 
			},
			{
				"x": -1.1029627189,
				"y": -0.0782100426,
				"z": -1.3857024864,
				"element": "C" 
			},
			{
				"x": -1.3451526514,
				"y": -0.5042775939,
				"z": -0.0666465401,
				"element": "C" 
			},
			{
				"x": -2.5796999367,
				"y": -1.058548468,
				"z": 0.2585653118,
				"element": "C" 
			},
			{
				"x": -3.585574873,
				"y": -1.1926887488,
				"z": -0.7050351165,
				"element": "C" 
			},
			{
				"x": -4.8315258662,
				"y": -1.7988111549,
				"z": -0.0944028547,
				"element": "C" 
			},
			{
				"x": -4.3089278168,
				"y": -2.4060102794,
				"z": 1.2332613649,
				"element": "C" 
			},
			{
				"x": -3.0643469936,
				"y": -1.559052445,
				"z": 1.6039687247,
				"element": "C" 
			},
			{
				"x": -3.3484260388,
				"y": -0.7631098054,
				"z": -2.0090310664,
				"element": "C" 
			},
			{
				"x": -2.1145765881,
				"y": -0.2120937884,
				"z": -2.3558006949,
				"element": "C" 
			},
			{
				"x": 4.6260526271,
				"y": 1.5641346513,
				"z": -2.4208725977,
				"element": "H" 
			},
			{
				"x": 2.9289960594,
				"y": -0.1206784977,
				"z": -2.1094423726,
				"element": "H" 
			},
			{
				"x": 1.1768682413,
				"y": 1.0457651299,
				"z": 0.0733399109,
				"element": "H" 
			},
			{
				"x": 1.3852921023,
				"y": -0.6509041169,
				"z": -0.3872593381,
				"element": "H" 
			},
			{
				"x": 2.4160408556,
				"y": 1.6603186645,
				"z": -3.6676937448,
				"element": "H" 
			},
			{
				"x": 1.9030760842,
				"y": 2.7449636734,
				"z": -2.3680289608,
				"element": "H" 
			},
			{
				"x": -0.5855044996,
				"y": -0.4000414688,
				"z": 0.7002822194,
				"element": "H" 
			},
			{
				"x": -5.3131815628,
				"y": -2.5420136801,
				"z": -0.7390201837,
				"element": "H" 
			},
			{
				"x": -5.5806948816,
				"y": -1.0177397001,
				"z": 0.0999731516,
				"element": "H" 
			},
			{
				"x": -3.9991705246,
				"y": -3.4423510299,
				"z": 1.0576378506,
				"element": "H" 
			},
			{
				"x": -5.0650895016,
				"y": -2.4196842679,
				"z": 2.023234694,
				"element": "H" 
			},
			{
				"x": -3.3442410673,
				"y": -0.7108567945,
				"z": 2.2450508812,
				"element": "H" 
			},
			{
				"x": -2.3086425244,
				"y": -2.1318140554,
				"z": 2.1523590462,
				"element": "H" 
			},
			{
				"x": -4.1159574857,
				"y": -0.8596631276,
				"z": -2.7728943291,
				"element": "H" 
			},
			{
				"x": -1.9272085219,
				"y": 0.1236675108,
				"z": -3.3651560812,
				"element": "H" 
			}
		],
		 "valence_orbital": [ 
			{
				"type": "occ",
				"energy": -0.29169,
				"method": "rhf"
			},
			{
				"type": "occ",
				"energy": -0.28424,
				"method": "rhf"
			},
			{
				"type": "occ",
				"energy": -0.25714,
				"method": "rhf"
			},
			{
				"type": "occ",
				"energy": -0.24284,
				"method": "rhf"
			},
			{
				"type": "occ",
				"energy": -0.21262,
				"method": "rhf"
			},
			{
				"type": "unocc",
				"energy": -0.01496,
				"method": "rhf"
			},
			{
				"type": "unocc",
				"energy": -0.0065,
				"method": "rhf"
			},
			{
				"type": "unocc",
				"energy": -0.00083,
				"method": "rhf"
			},
			{
				"type": "unocc",
				"energy": 0.03433,
				"method": "rhf"
			},
			{
				"type": "unocc",
				"energy": 0.04108,
				"method": "rhf"
			}
		],
		"cosmo_sigma_profile": { 
			"-0.025": 0.0,
			"-0.024": 0.0,
			"-0.023": 0.0,
			"-0.022": 0.0,
			"-0.021": 0.0,
			"-0.02": 0.00413147696029,
			"-0.019": 0.630503280693,
			"-0.018": 0.987089000242,
			"-0.017": 1.51483108848,
			"-0.016": 1.09025604489,
			"-0.015": 0.83125642552,
			"-0.014": 1.22187720109,
			"-0.013": 1.13322222832,
			"-0.012": 1.26496908706,
			"-0.011": 1.15394604909,
			"-0.01": 1.36457999627,
			"-0.009": 2.12105361358,
			"-0.008": 6.26596518745,
			"-0.007": 11.3013885429,
			"-0.006": 14.1457458129,
			"-0.005": 12.4610319156,
			"-0.004": 13.1619650024,
			"-0.003": 22.6461486509,
			"-0.002": 25.3987500643,
			"-0.001": 26.919579366,
			"0.0": 21.1511736007,
			"0.001": 17.0078371123,
			"0.002": 10.8838666831,
			"0.003": 11.0746830711,
			"0.004": 9.46006061982,
			"0.005": 11.9169257727,
			"0.006": 11.1702308857,
			"0.007": 5.05751422076,
			"0.008": 4.5479635841,
			"0.009": 5.17495990905,
			"0.01": 7.16444398034,
			"0.011": 7.58431085271,
			"0.012": 6.56567991169,
			"0.013": 3.68432802631,
			"0.014": 1.00739405285,
			"0.015": 0.0,
			"0.016": 0.0,
			"0.017": 0.0,
			"0.018": 0.0,
			"0.019": 0.0,
			"0.02": 0.0,
			"0.021": 0.0,
			"0.022": 0.0,
			"0.023": 0.0,
			"0.024": 0.0,
			"0.025": 0.0
		}
	}
}
