{
	 "smiles": "CC=CCC(C)C", 
	 "Tm": 149.15, 
	 "num_atms": 21, 
	 "gaussian": { 
		 "optdone": 1, 
		 "sigma_profile": "yes", 
		 "theory": "DFT", 
		 "functional": "B3LYP", 
		 "basiset": "6-31G**", 
		 "properties": { 
			 "R2extent": 1284.0839, 
			 "electric_dipole_moment_norm": 0.242390387598, 
			 "electric_quadrupole_moment_norm": 1.51216627393, 
			 "total_energy": -275.179846446, 
			 "HOMO_LUMO_gap": 0.2647, 
			 "cosmo_polarized_energy": -1.54, 
			 "cosmo_cavitation_energy": 22.62, 
			 "cosmo_dispersion_energy": -16.11, 
			 "cosmo_repulsion_energy": 1.38, 
			 "cosmo_total_nonelectrostatic_energy": 7.9, 
			 "SMD_solvation_energy": 4.22 
		},
		"coords": [
			{
				"x": -1.7220622589,
				"y": 2.1857796662,
				"z": -1.956282455,
				"element": "C" 
			},
			{
				"x": -0.2304778915,
				"y": 2.2662427093,
				"z": -1.7874267874,
				"element": "C" 
			},
			{
				"x": 0.5711349122,
				"y": 1.4168242005,
				"z": -1.1319639862,
				"element": "C" 
			},
			{
				"x": 0.1738068562,
				"y": 0.1673346898,
				"z": -0.3898460676,
				"element": "C" 
			},
			{
				"x": 0.2372282137,
				"y": 0.2856282744,
				"z": 1.154870735,
				"element": "C" 
			},
			{
				"x": -0.2779721942,
				"y": -1.0042134722,
				"z": 1.8089704626,
				"element": "C" 
			},
			{
				"x": 1.6478336975,
				"y": 0.6253419643,
				"z": 1.6572450428,
				"element": "C" 
			},
			{
				"x": -2.1596050546,
				"y": 1.3092900116,
				"z": -1.4726907487,
				"element": "H" 
			},
			{
				"x": -2.2089355442,
				"y": 3.0757059287,
				"z": -1.5370268843,
				"element": "H" 
			},
			{
				"x": -1.9940995967,
				"y": 2.1550793329,
				"z": -3.0192109184,
				"element": "H" 
			},
			{
				"x": 0.2371814005,
				"y": 3.1272658799,
				"z": -2.2660229386,
				"element": "H" 
			},
			{
				"x": 1.6356474314,
				"y": 1.6492590927,
				"z": -1.1221656143,
				"element": "H" 
			},
			{
				"x": -0.8395042837,
				"y": -0.1389397498,
				"z": -0.6718715704,
				"element": "H" 
			},
			{
				"x": 0.8378241225,
				"y": -0.6555376405,
				"z": -0.6957234699,
				"element": "H" 
			},
			{
				"x": -0.4321146706,
				"y": 1.1079805055,
				"z": 1.4452627488,
				"element": "H" 
			},
			{
				"x": 0.3566738058,
				"y": -1.858732239,
				"z": 1.5430664736,
				"element": "H" 
			},
			{
				"x": -1.2994526773,
				"y": -1.2370002864,
				"z": 1.4880529599,
				"element": "H" 
			},
			{
				"x": -0.2806369307,
				"y": -0.9215819207,
				"z": 2.9013380204,
				"element": "H" 
			},
			{
				"x": 2.002980242,
				"y": 1.5802685811,
				"z": 1.2583883828,
				"element": "H" 
			},
			{
				"x": 1.6675416706,
				"y": 0.6947294641,
				"z": 2.7503427525,
				"element": "H" 
			},
			{
				"x": 2.36580875,
				"y": -0.1505249923,
				"z": 1.3622938625,
				"element": "H" 
			}
		],
		 "valence_orbital": [ 
			{
				"type": "occ",
				"energy": -0.3422,
				"method": "rhf"
			},
			{
				"type": "occ",
				"energy": -0.32628,
				"method": "rhf"
			},
			{
				"type": "occ",
				"energy": -0.31799,
				"method": "rhf"
			},
			{
				"type": "occ",
				"energy": -0.30926,
				"method": "rhf"
			},
			{
				"type": "occ",
				"energy": -0.23455,
				"method": "rhf"
			},
			{
				"type": "unocc",
				"energy": 0.03015,
				"method": "rhf"
			},
			{
				"type": "unocc",
				"energy": 0.08922,
				"method": "rhf"
			},
			{
				"type": "unocc",
				"energy": 0.11326,
				"method": "rhf"
			},
			{
				"type": "unocc",
				"energy": 0.12195,
				"method": "rhf"
			},
			{
				"type": "unocc",
				"energy": 0.13675,
				"method": "rhf"
			}
		],
		"cosmo_sigma_profile": { 
			"-0.025": 0.0,
			"-0.024": 0.0,
			"-0.023": 0.0,
			"-0.022": 0.0,
			"-0.021": 0.0,
			"-0.02": 0.0,
			"-0.019": 0.0,
			"-0.018": 0.0,
			"-0.017": 0.0,
			"-0.016": 0.0,
			"-0.015": 0.0,
			"-0.014": 0.0,
			"-0.013": 0.0,
			"-0.012": 0.0,
			"-0.011": 0.0,
			"-0.01": 0.0,
			"-0.009": 0.0,
			"-0.008": 0.0,
			"-0.007": 0.0,
			"-0.006": 0.0,
			"-0.005": 0.0557104997734,
			"-0.004": 4.14623864992,
			"-0.003": 13.4806463204,
			"-0.002": 28.6699359842,
			"-0.001": 32.6762040925,
			"0.0": 31.8217077061,
			"0.001": 29.1842855618,
			"0.002": 17.6094654924,
			"0.003": 5.25144258484,
			"0.004": 3.20794780139,
			"0.005": 2.96624989379,
			"0.006": 2.62271166846,
			"0.007": 2.38102442745,
			"0.008": 0.86530314301,
			"0.009": 0.0,
			"0.01": 0.0,
			"0.011": 0.0,
			"0.012": 0.0,
			"0.013": 0.0,
			"0.014": 0.0,
			"0.015": 0.0,
			"0.016": 0.0,
			"0.017": 0.0,
			"0.018": 0.0,
			"0.019": 0.0,
			"0.02": 0.0,
			"0.021": 0.0,
			"0.022": 0.0,
			"0.023": 0.0,
			"0.024": 0.0,
			"0.025": 0.0
		}
	}
}
