{
	 "smiles": "COC1=CC=C(C=C1)C(=CCC(O)=O)C(C)(C)C(O)=O", 
	 "Tm": 410.15, 
	 "num_atms": 38, 
	 "gaussian": { 
		 "optdone": 1, 
		 "sigma_profile": "yes", 
		 "theory": "DFT", 
		 "functional": "B3LYP", 
		 "basiset": "6-31G**", 
		 "properties": { 
			 "R2extent": 6953.2361, 
			 "electric_dipole_moment_norm": 2.17376261353, 
			 "electric_quadrupole_moment_norm": 10.5625067489, 
			 "total_energy": -958.569616781, 
			 "HOMO_LUMO_gap": 0.21152, 
			 "cosmo_polarized_energy": -17.88, 
			 "cosmo_cavitation_energy": 41.52, 
			 "cosmo_dispersion_energy": -27.74, 
			 "cosmo_repulsion_energy": 2.19, 
			 "cosmo_total_nonelectrostatic_energy": 15.97, 
			 "SMD_solvation_energy": 10.15 
		},
		"coords": [
			{
				"x": 4.4916145112,
				"y": -3.1339803374,
				"z": -0.4263369287,
				"element": "C" 
			},
			{
				"x": 3.5750658459,
				"y": -2.6792615093,
				"z": 0.5560028613,
				"element": "O" 
			},
			{
				"x": 2.6177862803,
				"y": -1.7819278228,
				"z": 0.1790178514,
				"element": "C" 
			},
			{
				"x": 1.7425757379,
				"y": -1.362722301,
				"z": 1.1917988891,
				"element": "C" 
			},
			{
				"x": 0.7329021276,
				"y": -0.4517289637,
				"z": 0.907858408,
				"element": "C" 
			},
			{
				"x": 0.5594222192,
				"y": 0.0711190932,
				"z": -0.3879804515,
				"element": "C" 
			},
			{
				"x": 1.4467717015,
				"y": -0.3536845074,
				"z": -1.3850304272,
				"element": "C" 
			},
			{
				"x": 2.4669453093,
				"y": -1.2709093066,
				"z": -1.114595682,
				"element": "C" 
			},
			{
				"x": -0.5228538884,
				"y": 1.0724645849,
				"z": -0.6767944259,
				"element": "C" 
			},
			{
				"x": -0.3344604047,
				"y": 2.3786379694,
				"z": -0.4451509197,
				"element": "C" 
			},
			{
				"x": 0.930219763,
				"y": 3.0010273494,
				"z": 0.0768892251,
				"element": "C" 
			},
			{
				"x": 0.6643866409,
				"y": 4.1370908247,
				"z": 1.0446745993,
				"element": "C" 
			},
			{
				"x": 1.813295323,
				"y": 4.5690220925,
				"z": 1.6203239389,
				"element": "O" 
			},
			{
				"x": -0.411816357,
				"y": 4.6381247676,
				"z": 1.2869161819,
				"element": "O" 
			},
			{
				"x": -1.8609578532,
				"y": 0.5167686897,
				"z": -1.2053488056,
				"element": "C" 
			},
			{
				"x": -2.481628622,
				"y": -0.4435961012,
				"z": -0.1666446496,
				"element": "C" 
			},
			{
				"x": -2.8904516253,
				"y": 1.6229622909,
				"z": -1.5386455453,
				"element": "C" 
			},
			{
				"x": -1.5906380538,
				"y": -0.1822942521,
				"z": -2.5481145877,
				"element": "C" 
			},
			{
				"x": -2.2445376353,
				"y": -1.3594741223,
				"z": -2.6882938956,
				"element": "O" 
			},
			{
				"x": -0.9122279988,
				"y": 0.2789899958,
				"z": -3.4425075633,
				"element": "O" 
			},
			{
				"x": 3.9816638047,
				"y": -3.6543124857,
				"z": -1.2475047217,
				"element": "H" 
			},
			{
				"x": 5.0852793405,
				"y": -2.308819841,
				"z": -0.8407621198,
				"element": "H" 
			},
			{
				"x": 5.1569388054,
				"y": -3.833419694,
				"z": 0.0823445066,
				"element": "H" 
			},
			{
				"x": 1.8759942226,
				"y": -1.7631727116,
				"z": 2.1915838033,
				"element": "H" 
			},
			{
				"x": 0.0674199799,
				"y": -0.1312513329,
				"z": 1.7044860217,
				"element": "H" 
			},
			{
				"x": 1.3375076611,
				"y": 0.037755982,
				"z": -2.3907608371,
				"element": "H" 
			},
			{
				"x": 3.1332691967,
				"y": -1.5706268188,
				"z": -1.9150208486,
				"element": "H" 
			},
			{
				"x": -1.129511122,
				"y": 3.0889882001,
				"z": -0.6433358901,
				"element": "H" 
			},
			{
				"x": 1.5183771479,
				"y": 3.432542811,
				"z": -0.7480079352,
				"element": "H" 
			},
			{
				"x": 1.5914618119,
				"y": 2.2741592052,
				"z": 0.5560003145,
				"element": "H" 
			},
			{
				"x": 1.5606149679,
				"y": 5.3035567193,
				"z": 2.2046116349,
				"element": "H" 
			},
			{
				"x": -1.8222660155,
				"y": -1.285053904,
				"z": 0.0546092483,
				"element": "H" 
			},
			{
				"x": -2.667817019,
				"y": 0.1028932144,
				"z": 0.7631468405,
				"element": "H" 
			},
			{
				"x": -3.4313378559,
				"y": -0.8446902629,
				"z": -0.5280194322,
				"element": "H" 
			},
			{
				"x": -3.8035874114,
				"y": 1.1708446368,
				"z": -1.9381399769,
				"element": "H" 
			},
			{
				"x": -3.1598618731,
				"y": 2.1785365412,
				"z": -0.6360335377,
				"element": "H" 
			},
			{
				"x": -2.4986364805,
				"y": 2.3202113693,
				"z": -2.2827075115,
				"element": "H" 
			},
			{
				"x": -2.0325221825,
				"y": -1.6714700625,
				"z": -3.584627632,
				"element": "H" 
			}
		],
		 "valence_orbital": [ 
			{
				"type": "occ",
				"energy": -0.27506,
				"method": "rhf"
			},
			{
				"type": "occ",
				"energy": -0.26945,
				"method": "rhf"
			},
			{
				"type": "occ",
				"energy": -0.25129,
				"method": "rhf"
			},
			{
				"type": "occ",
				"energy": -0.24646,
				"method": "rhf"
			},
			{
				"type": "occ",
				"energy": -0.21689,
				"method": "rhf"
			},
			{
				"type": "unocc",
				"energy": -0.00537,
				"method": "rhf"
			},
			{
				"type": "unocc",
				"energy": 0.00654,
				"method": "rhf"
			},
			{
				"type": "unocc",
				"energy": 0.00935,
				"method": "rhf"
			},
			{
				"type": "unocc",
				"energy": 0.01374,
				"method": "rhf"
			},
			{
				"type": "unocc",
				"energy": 0.0233,
				"method": "rhf"
			}
		],
		"cosmo_sigma_profile": { 
			"-0.025": 0.0,
			"-0.024": 0.0,
			"-0.023": 0.0,
			"-0.022": 0.0,
			"-0.021": 0.0,
			"-0.02": 0.0,
			"-0.019": 0.0396674759825,
			"-0.018": 1.30793875566,
			"-0.017": 1.81992601903,
			"-0.016": 1.61731955133,
			"-0.015": 1.74530126437,
			"-0.014": 1.78771457382,
			"-0.013": 0.977134283304,
			"-0.012": 1.11112607652,
			"-0.011": 1.46412447375,
			"-0.01": 1.41074074657,
			"-0.009": 1.19124539626,
			"-0.008": 1.22289413508,
			"-0.007": 4.42656558484,
			"-0.006": 10.6859790862,
			"-0.005": 16.9898646138,
			"-0.004": 29.0100063672,
			"-0.003": 36.1489104622,
			"-0.002": 27.6101555957,
			"-0.001": 26.9611952251,
			"0.0": 25.8681262148,
			"0.001": 21.1158591363,
			"0.002": 14.6439199125,
			"0.003": 15.9956102427,
			"0.004": 15.7464150824,
			"0.005": 14.2387305084,
			"0.006": 8.61761937798,
			"0.007": 7.0944493108,
			"0.008": 7.30364316629,
			"0.009": 6.77021150481,
			"0.01": 6.31324037255,
			"0.011": 6.67595875522,
			"0.012": 7.8393698235,
			"0.013": 0.748335264179,
			"0.014": 0.0,
			"0.015": 0.0,
			"0.016": 0.0,
			"0.017": 0.0,
			"0.018": 0.0,
			"0.019": 0.0,
			"0.02": 0.0,
			"0.021": 0.0,
			"0.022": 0.0,
			"0.023": 0.0,
			"0.024": 0.0,
			"0.025": 0.0
		}
	}
}
