{
	 "smiles": "CC1=C(N)C=C(C=C1)C1=NN=CO1", 
	 "Tm": 410.15, 
	 "num_atms": 22, 
	 "gaussian": { 
		 "optdone": 1, 
		 "sigma_profile": "yes", 
		 "theory": "DFT", 
		 "functional": "B3LYP", 
		 "basiset": "6-31G**", 
		 "properties": { 
			 "R2extent": 3747.727, 
			 "electric_dipole_moment_norm": 3.85383311912, 
			 "electric_quadrupole_moment_norm": 21.4278912588, 
			 "total_energy": -587.838560461, 
			 "HOMO_LUMO_gap": 0.16747, 
			 "cosmo_polarized_energy": -14.66, 
			 "cosmo_cavitation_energy": 26.44, 
			 "cosmo_dispersion_energy": -19.69, 
			 "cosmo_repulsion_energy": 1.53, 
			 "cosmo_total_nonelectrostatic_energy": 8.27, 
			 "SMD_solvation_energy": 3.71 
		},
		"coords": [
			{
				"x": 2.8251210911,
				"y": 1.3614094692,
				"z": 1.5962783206,
				"element": "C" 
			},
			{
				"x": 2.0890828077,
				"y": 0.710044761,
				"z": 0.4537453292,
				"element": "C" 
			},
			{
				"x": 1.0881496988,
				"y": 1.4268951108,
				"z": -0.2483777202,
				"element": "C" 
			},
			{
				"x": 0.7485373803,
				"y": 2.7222641089,
				"z": 0.144519477,
				"element": "N" 
			},
			{
				"x": 0.4012619724,
				"y": 0.8058880506,
				"z": -1.2970762816,
				"element": "C" 
			},
			{
				"x": 0.6906489475,
				"y": -0.5158349417,
				"z": -1.6587531165,
				"element": "C" 
			},
			{
				"x": 1.6815785123,
				"y": -1.2301820882,
				"z": -0.9728704621,
				"element": "C" 
			},
			{
				"x": 2.3622225565,
				"y": -0.6045224126,
				"z": 0.0693845018,
				"element": "C" 
			},
			{
				"x": -0.051987447,
				"y": -1.1180141803,
				"z": -2.7596193872,
				"element": "C" 
			},
			{
				"x": -0.9830336788,
				"y": -0.5880491424,
				"z": -3.5004998739,
				"element": "N" 
			},
			{
				"x": -1.3758095804,
				"y": -1.5680226872,
				"z": -4.4140420177,
				"element": "N" 
			},
			{
				"x": -0.6531605491,
				"y": -2.6053048153,
				"z": -4.1520115583,
				"element": "C" 
			},
			{
				"x": 0.2114656928,
				"y": -2.4122905347,
				"z": -3.1223568571,
				"element": "O" 
			},
			{
				"x": 2.129890569,
				"y": 1.724131851,
				"z": 2.3635718837,
				"element": "H" 
			},
			{
				"x": 3.5166939203,
				"y": 0.6606409137,
				"z": 2.0700401908,
				"element": "H" 
			},
			{
				"x": 3.4168214046,
				"y": 2.2269550501,
				"z": 1.264832906,
				"element": "H" 
			},
			{
				"x": 0.2202986025,
				"y": 3.2491478497,
				"z": -0.5372501642,
				"element": "H" 
			},
			{
				"x": 1.4937528175,
				"y": 3.2697107515,
				"z": 0.5511065889,
				"element": "H" 
			},
			{
				"x": -0.3687772919,
				"y": 1.3434972356,
				"z": -1.8420751276,
				"element": "H" 
			},
			{
				"x": 1.9123208191,
				"y": -2.2523894235,
				"z": -1.2495306756,
				"element": "H" 
			},
			{
				"x": 3.1305425339,
				"y": -1.1539485651,
				"z": 0.607356273,
				"element": "H" 
			},
			{
				"x": -0.6567207791,
				"y": -3.5692263611,
				"z": -4.6369722289,
				"element": "H" 
			}
		],
		 "valence_orbital": [ 
			{
				"type": "occ",
				"energy": -0.3181,
				"method": "rhf"
			},
			{
				"type": "occ",
				"energy": -0.28895,
				"method": "rhf"
			},
			{
				"type": "occ",
				"energy": -0.2736,
				"method": "rhf"
			},
			{
				"type": "occ",
				"energy": -0.23618,
				"method": "rhf"
			},
			{
				"type": "occ",
				"energy": -0.20988,
				"method": "rhf"
			},
			{
				"type": "unocc",
				"energy": -0.04241,
				"method": "rhf"
			},
			{
				"type": "unocc",
				"energy": 0.00376,
				"method": "rhf"
			},
			{
				"type": "unocc",
				"energy": 0.01892,
				"method": "rhf"
			},
			{
				"type": "unocc",
				"energy": 0.06555,
				"method": "rhf"
			},
			{
				"type": "unocc",
				"energy": 0.07197,
				"method": "rhf"
			}
		],
		"cosmo_sigma_profile": { 
			"-0.025": 0.0,
			"-0.024": 0.0,
			"-0.023": 0.0,
			"-0.022": 0.0,
			"-0.021": 0.0,
			"-0.02": 0.0,
			"-0.019": 0.0,
			"-0.018": 0.0,
			"-0.017": 0.0,
			"-0.016": 0.0,
			"-0.015": 0.0,
			"-0.014": 0.0,
			"-0.013": 0.557357642561,
			"-0.012": 4.32570538544,
			"-0.011": 5.11593232301,
			"-0.01": 4.13182886845,
			"-0.009": 4.46836540348,
			"-0.008": 4.00336038023,
			"-0.007": 4.71111590119,
			"-0.006": 5.31235378368,
			"-0.005": 10.9344958306,
			"-0.004": 15.1644018252,
			"-0.003": 14.7002550285,
			"-0.002": 14.1385250186,
			"-0.001": 14.742015131,
			"0.0": 16.9563239634,
			"0.001": 12.2641253864,
			"0.002": 12.5931263298,
			"0.003": 11.6759011554,
			"0.004": 13.1582076512,
			"0.005": 11.8489548101,
			"0.006": 4.00215475025,
			"0.007": 3.0107298153,
			"0.008": 3.19483682602,
			"0.009": 2.96770025099,
			"0.01": 3.17119951248,
			"0.011": 3.25123597138,
			"0.012": 4.48282739049,
			"0.013": 3.14520086148,
			"0.014": 2.51545966453,
			"0.015": 0.880874777741,
			"0.016": 0.00794461305184,
			"0.017": 0.0,
			"0.018": 0.0,
			"0.019": 0.0,
			"0.02": 0.0,
			"0.021": 0.0,
			"0.022": 0.0,
			"0.023": 0.0,
			"0.024": 0.0,
			"0.025": 0.0
		}
	}
}
