{
	 "smiles": "CC1=CC(C)=C(NS(=O)(=O)C2=CC(=C(NN)C=C2)[N+]([O-])=O)C=C1", 
	 "Tm": 489.15, 
	 "num_atms": 39, 
	 "gaussian": { 
		 "optdone": 1, 
		 "sigma_profile": "yes", 
		 "theory": "DFT", 
		 "functional": "B3LYP", 
		 "basiset": "6-31G**", 
		 "properties": { 
			 "R2extent": 10454.2728, 
			 "electric_dipole_moment_norm": 8.23643210438, 
			 "electric_quadrupole_moment_norm": 39.4886366095, 
			 "total_energy": -1461.03690567, 
			 "HOMO_LUMO_gap": 0.12814, 
			 "cosmo_polarized_energy": -23.71, 
			 "cosmo_cavitation_energy": 44.7, 
			 "cosmo_dispersion_energy": -30.94, 
			 "cosmo_repulsion_energy": 2.36, 
			 "cosmo_total_nonelectrostatic_energy": 16.13, 
			 "SMD_solvation_energy": 9.15 
		},
		"coords": [
			{
				"x": -0.8206557789,
				"y": -4.3448649109,
				"z": -1.7303678825,
				"element": "C" 
			},
			{
				"x": 0.0223486231,
				"y": -3.1122446544,
				"z": -1.958217974,
				"element": "C" 
			},
			{
				"x": -0.565845261,
				"y": -1.8543151195,
				"z": -2.1258035174,
				"element": "C" 
			},
			{
				"x": 0.1853277701,
				"y": -0.6869228738,
				"z": -2.3035453022,
				"element": "C" 
			},
			{
				"x": -0.5011646892,
				"y": 0.6489439103,
				"z": -2.4689141542,
				"element": "C" 
			},
			{
				"x": 1.5893171497,
				"y": -0.8007425854,
				"z": -2.3400048935,
				"element": "C" 
			},
			{
				"x": 2.3957903851,
				"y": 0.3514820559,
				"z": -2.5760375905,
				"element": "N" 
			},
			{
				"x": 3.5910187724,
				"y": 0.8822101621,
				"z": -1.4939007311,
				"element": "S" 
			},
			{
				"x": 4.0144626265,
				"y": 2.1699459616,
				"z": -2.0450295867,
				"element": "O" 
			},
			{
				"x": 4.5153133551,
				"y": -0.2318864987,
				"z": -1.2857113831,
				"element": "O" 
			},
			{
				"x": 2.7876895823,
				"y": 1.1878327583,
				"z": 0.0753465383,
				"element": "C" 
			},
			{
				"x": 2.3275866695,
				"y": 2.4575466966,
				"z": 0.369631046,
				"element": "C" 
			},
			{
				"x": 1.6869694742,
				"y": 2.7043889783,
				"z": 1.5904063053,
				"element": "C" 
			},
			{
				"x": 1.4987899131,
				"y": 1.6634936888,
				"z": 2.5529581443,
				"element": "C" 
			},
			{
				"x": 0.8827716268,
				"y": 1.8720887114,
				"z": 3.7453089015,
				"element": "N" 
			},
			{
				"x": 0.7443295762,
				"y": 0.8261008722,
				"z": 4.6683500842,
				"element": "N" 
			},
			{
				"x": 1.9925118432,
				"y": 0.3762364711,
				"z": 2.2091727629,
				"element": "C" 
			},
			{
				"x": 2.621619288,
				"y": 0.142614063,
				"z": 1.0059648383,
				"element": "C" 
			},
			{
				"x": 1.2375758403,
				"y": 4.0643910326,
				"z": 1.8198599782,
				"element": "N" 
			},
			{
				"x": 0.6745262386,
				"y": 4.3360715449,
				"z": 2.9000257491,
				"element": "O" 
			},
			{
				"x": 1.4214938268,
				"y": 4.9031883368,
				"z": 0.9405477072,
				"element": "O" 
			},
			{
				"x": 2.1981305521,
				"y": -2.0547319861,
				"z": -2.1999143147,
				"element": "C" 
			},
			{
				"x": 1.4204760104,
				"y": -3.190359185,
				"z": -1.9954731375,
				"element": "C" 
			},
			{
				"x": -1.8594425982,
				"y": -4.181535961,
				"z": -2.0312691219,
				"element": "H" 
			},
			{
				"x": -0.8270193557,
				"y": -4.6338415991,
				"z": -0.6718138172,
				"element": "H" 
			},
			{
				"x": -0.4368887115,
				"y": -5.2012391065,
				"z": -2.2944135306,
				"element": "H" 
			},
			{
				"x": -1.6505928121,
				"y": -1.7724133666,
				"z": -2.1087265315,
				"element": "H" 
			},
			{
				"x": -0.1404853517,
				"y": 1.3865697863,
				"z": -1.7422835857,
				"element": "H" 
			},
			{
				"x": -0.346777609,
				"y": 1.0740080494,
				"z": -3.469914846,
				"element": "H" 
			},
			{
				"x": -1.580120018,
				"y": 0.549141498,
				"z": -2.3289888122,
				"element": "H" 
			},
			{
				"x": 1.9122885328,
				"y": 1.1597749201,
				"z": -2.9517493259,
				"element": "H" 
			},
			{
				"x": 2.4700735821,
				"y": 3.2807182781,
				"z": -0.3192383499,
				"element": "H" 
			},
			{
				"x": 0.576898214,
				"y": 2.8195263098,
				"z": 3.9425913397,
				"element": "H" 
			},
			{
				"x": 1.2359994007,
				"y": 1.0639333311,
				"z": 5.5269375196,
				"element": "H" 
			},
			{
				"x": -0.2409990337,
				"y": 0.6974492338,
				"z": 4.8855556381,
				"element": "H" 
			},
			{
				"x": 1.8624981513,
				"y": -0.4148194483,
				"z": 2.9357347352,
				"element": "H" 
			},
			{
				"x": 3.0080689356,
				"y": -0.8439334027,
				"z": 0.7760790772,
				"element": "H" 
			},
			{
				"x": 3.2779854517,
				"y": -2.1225788848,
				"z": -2.2573119888,
				"element": "H" 
			},
			{
				"x": 1.9093298275,
				"y": -4.1552270677,
				"z": -1.8860399876,
				"element": "H" 
			}
		],
		 "valence_orbital": [ 
			{
				"type": "occ",
				"energy": -0.28869,
				"method": "rhf"
			},
			{
				"type": "occ",
				"energy": -0.28708,
				"method": "rhf"
			},
			{
				"type": "occ",
				"energy": -0.25007,
				"method": "rhf"
			},
			{
				"type": "occ",
				"energy": -0.23969,
				"method": "rhf"
			},
			{
				"type": "occ",
				"energy": -0.22277,
				"method": "rhf"
			},
			{
				"type": "unocc",
				"energy": -0.09463,
				"method": "rhf"
			},
			{
				"type": "unocc",
				"energy": -0.03577,
				"method": "rhf"
			},
			{
				"type": "unocc",
				"energy": -0.01264,
				"method": "rhf"
			},
			{
				"type": "unocc",
				"energy": -0.00548,
				"method": "rhf"
			},
			{
				"type": "unocc",
				"energy": -0.00378,
				"method": "rhf"
			}
		],
		"cosmo_sigma_profile": { 
			"-0.025": 0.0,
			"-0.024": 0.0,
			"-0.023": 0.0,
			"-0.022": 0.0,
			"-0.021": 0.0,
			"-0.02": 0.0,
			"-0.019": 0.0,
			"-0.018": 0.0,
			"-0.017": 0.0,
			"-0.016": 0.0,
			"-0.015": 0.0,
			"-0.014": 0.185798784594,
			"-0.013": 2.3492226338,
			"-0.012": 5.40987063514,
			"-0.011": 6.64770134625,
			"-0.01": 6.93500860331,
			"-0.009": 4.11422280922,
			"-0.008": 3.97369609051,
			"-0.007": 5.22451292543,
			"-0.006": 8.9969314367,
			"-0.005": 17.0014025185,
			"-0.004": 24.024233097,
			"-0.003": 27.711366873,
			"-0.002": 29.6017231977,
			"-0.001": 32.4185647766,
			"0.0": 34.7409226545,
			"0.001": 22.289651368,
			"0.002": 18.8783520156,
			"0.003": 14.7767411655,
			"0.004": 13.8715725137,
			"0.005": 16.3406599259,
			"0.006": 9.46118999917,
			"0.007": 9.5656886897,
			"0.008": 11.362507189,
			"0.009": 9.1223499853,
			"0.01": 10.7629688997,
			"0.011": 8.65282205958,
			"0.012": 1.08343527253,
			"0.013": 0.0,
			"0.014": 0.0,
			"0.015": 0.0,
			"0.016": 0.0,
			"0.017": 0.0,
			"0.018": 0.0,
			"0.019": 0.0,
			"0.02": 0.0,
			"0.021": 0.0,
			"0.022": 0.0,
			"0.023": 0.0,
			"0.024": 0.0,
			"0.025": 0.0
		}
	}
}
