{
	 "smiles": "O=C1C=CC(=O)N1C1CCOCC1", 
	 "Tm": 443.15, 
	 "num_atms": 24, 
	 "gaussian": { 
		 "optdone": 1, 
		 "sigma_profile": "yes", 
		 "theory": "DFT", 
		 "functional": "B3LYP", 
		 "basiset": "6-31G**", 
		 "properties": { 
			 "R2extent": 2646.8799, 
			 "electric_dipole_moment_norm": 2.50650794732, 
			 "electric_quadrupole_moment_norm": 15.204441506, 
			 "total_energy": -629.999561588, 
			 "HOMO_LUMO_gap": 0.14098, 
			 "cosmo_polarized_energy": -11.06, 
			 "cosmo_cavitation_energy": 26.11, 
			 "cosmo_dispersion_energy": -19.35, 
			 "cosmo_repulsion_energy": 1.52, 
			 "cosmo_total_nonelectrostatic_energy": 8.27, 
			 "SMD_solvation_energy": 5.67 
		},
		"coords": [
			{
				"x": -0.2185469738,
				"y": -1.6271097433,
				"z": 1.6668745877,
				"element": "O" 
			},
			{
				"x": 0.0652493948,
				"y": -0.445962432,
				"z": 1.6052052047,
				"element": "C" 
			},
			{
				"x": -0.3328719733,
				"y": 0.6115113144,
				"z": 2.5969779124,
				"element": "C" 
			},
			{
				"x": 0.1594009564,
				"y": 1.7860476381,
				"z": 2.1983602186,
				"element": "C" 
			},
			{
				"x": 0.911114148,
				"y": 1.571188684,
				"z": 0.9197631465,
				"element": "C" 
			},
			{
				"x": 1.4963457612,
				"y": 2.4032905533,
				"z": 0.2569773359,
				"element": "O" 
			},
			{
				"x": 0.8158766078,
				"y": 0.1986427201,
				"z": 0.6158820548,
				"element": "N" 
			},
			{
				"x": 1.4587855416,
				"y": -0.3435935814,
				"z": -0.6013251838,
				"element": "C" 
			},
			{
				"x": 0.4647151114,
				"y": -0.9087924449,
				"z": -1.6419080659,
				"element": "C" 
			},
			{
				"x": 0.1497135214,
				"y": -2.3969536542,
				"z": -1.4499106439,
				"element": "C" 
			},
			{
				"x": 1.3466452311,
				"y": -3.1648577312,
				"z": -1.3703697362,
				"element": "O" 
			},
			{
				"x": 2.1188135527,
				"y": -2.8085424028,
				"z": -0.2277024226,
				"element": "C" 
			},
			{
				"x": 2.5945887685,
				"y": -1.353850369,
				"z": -0.3192926385,
				"element": "C" 
			},
			{
				"x": -0.9261991188,
				"y": 0.369407325,
				"z": 3.4687903841,
				"element": "H" 
			},
			{
				"x": 0.0775930855,
				"y": 2.763273175,
				"z": 2.6554954414,
				"element": "H" 
			},
			{
				"x": 1.9108257387,
				"y": 0.5559861271,
				"z": -1.0264121234,
				"element": "H" 
			},
			{
				"x": -0.4551879146,
				"y": -0.3133467632,
				"z": -1.6484832209,
				"element": "H" 
			},
			{
				"x": 0.9333774681,
				"y": -0.7882455495,
				"z": -2.625907992,
				"element": "H" 
			},
			{
				"x": -0.4620918369,
				"y": -2.5545989959,
				"z": -0.5528284604,
				"element": "H" 
			},
			{
				"x": -0.399329209,
				"y": -2.7784171532,
				"z": -2.3165072457,
				"element": "H" 
			},
			{
				"x": 2.9797156296,
				"y": -3.484350706,
				"z": -0.2196237933,
				"element": "H" 
			},
			{
				"x": 1.5380397537,
				"y": -2.9732391114,
				"z": 0.6885434052,
				"element": "H" 
			},
			{
				"x": 3.1416470378,
				"y": -1.0650344171,
				"z": 0.5852162196,
				"element": "H" 
			},
			{
				"x": 3.297779718,
				"y": -1.2820524819,
				"z": -1.1576143843,
				"element": "H" 
			}
		],
		 "valence_orbital": [ 
			{
				"type": "occ",
				"energy": -0.30725,
				"method": "rhf"
			},
			{
				"type": "occ",
				"energy": -0.29173,
				"method": "rhf"
			},
			{
				"type": "occ",
				"energy": -0.27467,
				"method": "rhf"
			},
			{
				"type": "occ",
				"energy": -0.27462,
				"method": "rhf"
			},
			{
				"type": "occ",
				"energy": -0.24161,
				"method": "rhf"
			},
			{
				"type": "unocc",
				"energy": -0.10063,
				"method": "rhf"
			},
			{
				"type": "unocc",
				"energy": 0.04842,
				"method": "rhf"
			},
			{
				"type": "unocc",
				"energy": 0.06042,
				"method": "rhf"
			},
			{
				"type": "unocc",
				"energy": 0.08294,
				"method": "rhf"
			},
			{
				"type": "unocc",
				"energy": 0.0972,
				"method": "rhf"
			}
		],
		"cosmo_sigma_profile": { 
			"-0.025": 0.0,
			"-0.024": 0.0,
			"-0.023": 0.0,
			"-0.022": 0.0,
			"-0.021": 0.0,
			"-0.02": 0.0,
			"-0.019": 0.0,
			"-0.018": 0.0,
			"-0.017": 0.0,
			"-0.016": 0.0,
			"-0.015": 0.0,
			"-0.014": 0.0,
			"-0.013": 0.0,
			"-0.012": 0.0,
			"-0.011": 0.0,
			"-0.01": 1.03338684501,
			"-0.009": 3.99450931825,
			"-0.008": 2.8084203487,
			"-0.007": 3.60268667854,
			"-0.006": 2.82646186645,
			"-0.005": 11.8049541747,
			"-0.004": 28.4032052741,
			"-0.003": 27.358162595,
			"-0.002": 26.9358403038,
			"-0.001": 20.4838984867,
			"0.0": 11.4374787071,
			"0.001": 7.63653752589,
			"0.002": 5.41960681135,
			"0.003": 4.66036566597,
			"0.004": 5.69018566192,
			"0.005": 4.5506766316,
			"0.006": 3.59546782781,
			"0.007": 4.04634796666,
			"0.008": 5.27788838379,
			"0.009": 4.67050834115,
			"0.01": 5.91725136827,
			"0.011": 7.65775315888,
			"0.012": 3.57486913468,
			"0.013": 1.4760162459,
			"0.014": 1.5832600989,
			"0.015": 0.00589730791528,
			"0.016": 0.0,
			"0.017": 0.0,
			"0.018": 0.0,
			"0.019": 0.0,
			"0.02": 0.0,
			"0.021": 0.0,
			"0.022": 0.0,
			"0.023": 0.0,
			"0.024": 0.0,
			"0.025": 0.0
		}
	}
}
