{
	 "smiles": "OC(=O)CSC1=NN=NN1CC(F)(F)F", 
	 "Tm": 409.15, 
	 "num_atms": 20, 
	 "gaussian": { 
		 "optdone": 1, 
		 "sigma_profile": "yes", 
		 "theory": "DFT", 
		 "functional": "B3LYP", 
		 "basiset": "6-31G**", 
		 "properties": { 
			 "R2extent": 4304.0649, 
			 "electric_dipole_moment_norm": 3.72515178483, 
			 "electric_quadrupole_moment_norm": 25.5556564328, 
			 "total_energy": -1260.65793714, 
			 "HOMO_LUMO_gap": 0.22919, 
			 "cosmo_polarized_energy": -18.91, 
			 "cosmo_cavitation_energy": 28.99, 
			 "cosmo_dispersion_energy": -20.81, 
			 "cosmo_repulsion_energy": 1.55, 
			 "cosmo_total_nonelectrostatic_energy": 9.73, 
			 "SMD_solvation_energy": 5.42 
		},
		"coords": [
			{
				"x": 0.2701845817,
				"y": 1.2117330387,
				"z": -4.8464495122,
				"element": "O" 
			},
			{
				"x": -0.1012912474,
				"y": 1.3706440567,
				"z": -3.5609454572,
				"element": "C" 
			},
			{
				"x": -0.7530577307,
				"y": 2.306695338,
				"z": -3.1571790926,
				"element": "O" 
			},
			{
				"x": 0.4105485087,
				"y": 0.2277107297,
				"z": -2.7120804184,
				"element": "C" 
			},
			{
				"x": -0.1591663431,
				"y": 0.4988433643,
				"z": -0.9904975265,
				"element": "S" 
			},
			{
				"x": 0.5493683008,
				"y": -0.9501240077,
				"z": -0.3000941384,
				"element": "C" 
			},
			{
				"x": 0.994021104,
				"y": -2.0166133174,
				"z": -0.9436661929,
				"element": "N" 
			},
			{
				"x": 1.4533695744,
				"y": -2.8688178472,
				"z": 0.0169511487,
				"element": "N" 
			},
			{
				"x": 1.3046826201,
				"y": -2.3779519218,
				"z": 1.1948387988,
				"element": "N" 
			},
			{
				"x": 0.7367028223,
				"y": -1.146028999,
				"z": 1.0310939013,
				"element": "N" 
			},
			{
				"x": 0.4687042168,
				"y": -0.2968492819,
				"z": 2.1695191963,
				"element": "C" 
			},
			{
				"x": -0.9662692555,
				"y": -0.4225846329,
				"z": 2.6714623309,
				"element": "C" 
			},
			{
				"x": -1.8474122504,
				"y": -0.0728473599,
				"z": 1.7126695498,
				"element": "F" 
			},
			{
				"x": -1.1395221954,
				"y": 0.4004111712,
				"z": 3.7231638075,
				"element": "F" 
			},
			{
				"x": -1.2489084774,
				"y": -1.674156869,
				"z": 3.0585760909,
				"element": "F" 
			},
			{
				"x": -0.0866978211,
				"y": 1.9722481472,
				"z": -5.3362566737,
				"element": "H" 
			},
			{
				"x": 0.0330387381,
				"y": -0.7269608877,
				"z": -3.0850418182,
				"element": "H" 
			},
			{
				"x": 1.5018008856,
				"y": 0.1847236895,
				"z": -2.7542476166,
				"element": "H" 
			},
			{
				"x": 1.1468809031,
				"y": -0.5904586717,
				"z": 2.9717372289,
				"element": "H" 
			},
			{
				"x": 0.6515230653,
				"y": 0.7468842611,
				"z": 1.9012463936,
				"element": "H" 
			}
		],
		 "valence_orbital": [ 
			{
				"type": "occ",
				"energy": -0.32467,
				"method": "rhf"
			},
			{
				"type": "occ",
				"energy": -0.31229,
				"method": "rhf"
			},
			{
				"type": "occ",
				"energy": -0.30179,
				"method": "rhf"
			},
			{
				"type": "occ",
				"energy": -0.29583,
				"method": "rhf"
			},
			{
				"type": "occ",
				"energy": -0.2598,
				"method": "rhf"
			},
			{
				"type": "unocc",
				"energy": -0.03061,
				"method": "rhf"
			},
			{
				"type": "unocc",
				"energy": -0.01574,
				"method": "rhf"
			},
			{
				"type": "unocc",
				"energy": -0.00872,
				"method": "rhf"
			},
			{
				"type": "unocc",
				"energy": 0.0139,
				"method": "rhf"
			},
			{
				"type": "unocc",
				"energy": 0.04771,
				"method": "rhf"
			}
		],
		"cosmo_sigma_profile": { 
			"-0.025": 0.0,
			"-0.024": 0.0,
			"-0.023": 0.0,
			"-0.022": 0.0,
			"-0.021": 0.0,
			"-0.02": 0.0451760302683,
			"-0.019": 0.787207541831,
			"-0.018": 0.995369904861,
			"-0.017": 0.990933303757,
			"-0.016": 0.613979156641,
			"-0.015": 0.602371081654,
			"-0.014": 1.33139227889,
			"-0.013": 0.644573330759,
			"-0.012": 1.14361123907,
			"-0.011": 4.07959657282,
			"-0.01": 5.81535713092,
			"-0.009": 8.49142247794,
			"-0.008": 9.6896089078,
			"-0.007": 8.78723959503,
			"-0.006": 7.56314045303,
			"-0.005": 9.24926320049,
			"-0.004": 8.57707898608,
			"-0.003": 9.23375240592,
			"-0.002": 7.29791249402,
			"-0.001": 10.2598256998,
			"0.0": 11.2650252405,
			"0.001": 17.4134002778,
			"0.002": 32.7366225951,
			"0.003": 13.4873703927,
			"0.004": 8.38134293202,
			"0.005": 7.00150749062,
			"0.006": 7.16776847031,
			"0.007": 7.81968242252,
			"0.008": 7.58018768693,
			"0.009": 7.62399411009,
			"0.01": 8.14747975298,
			"0.011": 5.52323582843,
			"0.012": 2.46309534253,
			"0.013": 0.991909528297,
			"0.014": 0.00900901560622,
			"0.015": 0.0,
			"0.016": 0.0,
			"0.017": 0.0,
			"0.018": 0.0,
			"0.019": 0.0,
			"0.02": 0.0,
			"0.021": 0.0,
			"0.022": 0.0,
			"0.023": 0.0,
			"0.024": 0.0,
			"0.025": 0.0
		}
	}
}
