{
	 "smiles": "NNC1=CC=C(C=C1)S(=O)(=O)C(F)F", 
	 "Tm": 346.15, 
	 "num_atms": 22, 
	 "gaussian": { 
		 "optdone": 1, 
		 "sigma_profile": "yes", 
		 "theory": "DFT", 
		 "functional": "B3LYP", 
		 "basiset": "6-31G**", 
		 "properties": { 
			 "R2extent": 3929.8129, 
			 "electric_dipole_moment_norm": 6.84429381383, 
			 "electric_quadrupole_moment_norm": 13.9793757804, 
			 "total_energy": -1129.26068993, 
			 "HOMO_LUMO_gap": 0.19404, 
			 "cosmo_polarized_energy": -19.99, 
			 "cosmo_cavitation_energy": 28.85, 
			 "cosmo_dispersion_energy": -21.02, 
			 "cosmo_repulsion_energy": 1.58, 
			 "cosmo_total_nonelectrostatic_energy": 9.41, 
			 "SMD_solvation_energy": 5.55 
		},
		"coords": [
			{
				"x": -0.9633036199,
				"y": 0.172965086,
				"z": -4.2491852623,
				"element": "N" 
			},
			{
				"x": 0.0900224018,
				"y": 0.5748243389,
				"z": -3.4176035858,
				"element": "N" 
			},
			{
				"x": 0.2214719669,
				"y": 0.1935509415,
				"z": -2.0993844369,
				"element": "C" 
			},
			{
				"x": 1.1552244103,
				"y": 0.8639115624,
				"z": -1.2761964081,
				"element": "C" 
			},
			{
				"x": 1.3310360633,
				"y": 0.4841886368,
				"z": 0.0435098885,
				"element": "C" 
			},
			{
				"x": 0.5751625703,
				"y": -0.5738761162,
				"z": 0.5680711407,
				"element": "C" 
			},
			{
				"x": -0.3483466893,
				"y": -1.2522004881,
				"z": -0.2334002137,
				"element": "C" 
			},
			{
				"x": -0.5266176626,
				"y": -0.872801846,
				"z": -1.5571840395,
				"element": "C" 
			},
			{
				"x": 0.795956232,
				"y": -1.0559010434,
				"z": 2.2621423833,
				"element": "S" 
			},
			{
				"x": 2.0514357073,
				"y": -0.4746205186,
				"z": 2.7609551775,
				"element": "O" 
			},
			{
				"x": 0.4783204134,
				"y": -2.4813297533,
				"z": 2.4065245201,
				"element": "O" 
			},
			{
				"x": -0.5539668652,
				"y": -0.1112991486,
				"z": 3.1403444549,
				"element": "C" 
			},
			{
				"x": -1.7425225879,
				"y": -0.4337350714,
				"z": 2.5816394574,
				"element": "F" 
			},
			{
				"x": -0.5457719916,
				"y": -0.4986698021,
				"z": 4.4287086618,
				"element": "F" 
			},
			{
				"x": -1.8565574536,
				"y": 0.2410342073,
				"z": -3.7611140359,
				"element": "H" 
			},
			{
				"x": -0.8249594125,
				"y": -0.7942688186,
				"z": -4.5321815873,
				"element": "H" 
			},
			{
				"x": 0.4939614657,
				"y": 1.4590168721,
				"z": -3.6895883325,
				"element": "H" 
			},
			{
				"x": 1.7450100788,
				"y": 1.677417871,
				"z": -1.6902994096,
				"element": "H" 
			},
			{
				"x": 2.0606174758,
				"y": 0.9847490575,
				"z": 0.6712879395,
				"element": "H" 
			},
			{
				"x": -0.9105281394,
				"y": -2.0831015765,
				"z": 0.1788440571,
				"element": "H" 
			},
			{
				"x": -1.2340003413,
				"y": -1.4087367381,
				"z": -2.1794713769,
				"element": "H" 
			},
			{
				"x": -0.3695440221,
				"y": 0.9656823473,
				"z": 3.0585810078,
				"element": "H" 
			}
		],
		 "valence_orbital": [ 
			{
				"type": "occ",
				"energy": -0.30452,
				"method": "rhf"
			},
			{
				"type": "occ",
				"energy": -0.29171,
				"method": "rhf"
			},
			{
				"type": "occ",
				"energy": -0.28567,
				"method": "rhf"
			},
			{
				"type": "occ",
				"energy": -0.27851,
				"method": "rhf"
			},
			{
				"type": "occ",
				"energy": -0.23128,
				"method": "rhf"
			},
			{
				"type": "unocc",
				"energy": -0.03724,
				"method": "rhf"
			},
			{
				"type": "unocc",
				"energy": -0.02662,
				"method": "rhf"
			},
			{
				"type": "unocc",
				"energy": 0.05266,
				"method": "rhf"
			},
			{
				"type": "unocc",
				"energy": 0.05626,
				"method": "rhf"
			},
			{
				"type": "unocc",
				"energy": 0.06454,
				"method": "rhf"
			}
		],
		"cosmo_sigma_profile": { 
			"-0.025": 0.0,
			"-0.024": 0.0,
			"-0.023": 0.0,
			"-0.022": 0.0,
			"-0.021": 0.0,
			"-0.02": 0.0,
			"-0.019": 0.0,
			"-0.018": 0.0,
			"-0.017": 0.0,
			"-0.016": 0.0,
			"-0.015": 0.0,
			"-0.014": 0.546213875678,
			"-0.013": 1.68544128177,
			"-0.012": 3.76364659032,
			"-0.011": 7.11604626806,
			"-0.01": 7.81690634514,
			"-0.009": 6.42021432265,
			"-0.008": 6.13834962126,
			"-0.007": 8.98380099821,
			"-0.006": 9.83045713631,
			"-0.005": 9.66658192706,
			"-0.004": 8.64225340036,
			"-0.003": 7.61011250193,
			"-0.002": 9.01952963651,
			"-0.001": 9.53678118701,
			"0.0": 8.94658508468,
			"0.001": 14.2647807819,
			"0.002": 29.5105893345,
			"0.003": 27.0584671167,
			"0.004": 9.63141459167,
			"0.005": 3.62752099432,
			"0.006": 4.0964085354,
			"0.007": 5.63473535228,
			"0.008": 3.23982478486,
			"0.009": 3.92285556818,
			"0.01": 9.85623145238,
			"0.011": 9.14805505801,
			"0.012": 1.61790306098,
			"0.013": 0.626294568539,
			"0.014": 0.930582273301,
			"0.015": 0.25506347195,
			"0.016": 0.56789187805,
			"0.017": 0.0,
			"0.018": 0.0,
			"0.019": 0.0,
			"0.02": 0.0,
			"0.021": 0.0,
			"0.022": 0.0,
			"0.023": 0.0,
			"0.024": 0.0,
			"0.025": 0.0
		}
	}
}
