{
	 "smiles": "OC(=O)C=CCl", 
	 "Tm": 355.15, 
	 "num_atms": 9, 
	 "gaussian": { 
		 "optdone": 1, 
		 "sigma_profile": "yes", 
		 "theory": "DFT", 
		 "functional": "B3LYP", 
		 "basiset": "6-31G**", 
		 "properties": { 
			 "R2extent": 1199.8783, 
			 "electric_dipole_moment_norm": 3.34126678671, 
			 "electric_quadrupole_moment_norm": 5.6437367249, 
			 "total_energy": -726.747243624, 
			 "HOMO_LUMO_gap": 0.21785, 
			 "cosmo_polarized_energy": -13.16, 
			 "cosmo_cavitation_energy": 15.94, 
			 "cosmo_dispersion_energy": -11.91, 
			 "cosmo_repulsion_energy": 1.05, 
			 "cosmo_total_nonelectrostatic_energy": 5.09, 
			 "SMD_solvation_energy": 4.41 
		},
		"coords": [
			{
				"x": -0.3611048152,
				"y": -1.5612829547,
				"z": -0.2078958244,
				"element": "O" 
			},
			{
				"x": -0.3670375867,
				"y": -0.2605413888,
				"z": -0.6011205907,
				"element": "C" 
			},
			{
				"x": -0.5120718469,
				"y": 0.0226777533,
				"z": -1.7669474822,
				"element": "O" 
			},
			{
				"x": -0.187267184,
				"y": 0.7411575428,
				"z": 0.4890072225,
				"element": "C" 
			},
			{
				"x": -0.1839050433,
				"y": 2.0370762668,
				"z": 0.1683920194,
				"element": "C" 
			},
			{
				"x": 0.0143176775,
				"y": 3.3096061691,
				"z": 1.3250186579,
				"element": "Cl" 
			},
			{
				"x": -0.2365799703,
				"y": -1.6321167344,
				"z": 0.748762717,
				"element": "H" 
			},
			{
				"x": -0.0619871046,
				"y": 0.4215076374,
				"z": 1.5201493492,
				"element": "H" 
			},
			{
				"x": -0.3076641265,
				"y": 2.3718157085,
				"z": -0.8555660687,
				"element": "H" 
			}
		],
		 "valence_orbital": [ 
			{
				"type": "occ",
				"energy": -0.38847,
				"method": "rhf"
			},
			{
				"type": "occ",
				"energy": -0.33667,
				"method": "rhf"
			},
			{
				"type": "occ",
				"energy": -0.32635,
				"method": "rhf"
			},
			{
				"type": "occ",
				"energy": -0.28422,
				"method": "rhf"
			},
			{
				"type": "occ",
				"energy": -0.28419,
				"method": "rhf"
			},
			{
				"type": "unocc",
				"energy": -0.06634,
				"method": "rhf"
			},
			{
				"type": "unocc",
				"energy": 0.01752,
				"method": "rhf"
			},
			{
				"type": "unocc",
				"energy": 0.05031,
				"method": "rhf"
			},
			{
				"type": "unocc",
				"energy": 0.06833,
				"method": "rhf"
			},
			{
				"type": "unocc",
				"energy": 0.1155,
				"method": "rhf"
			}
		],
		"cosmo_sigma_profile": { 
			"-0.025": 0.0,
			"-0.024": 0.0,
			"-0.023": 0.0,
			"-0.022": 0.0,
			"-0.021": 0.0,
			"-0.02": 0.512230667572,
			"-0.019": 1.41214702526,
			"-0.018": 1.10226495859,
			"-0.017": 1.65777303649,
			"-0.016": 1.13430359117,
			"-0.015": 0.769179978651,
			"-0.014": 0.513858933453,
			"-0.013": 1.41518630423,
			"-0.012": 0.924868559135,
			"-0.011": 1.58569583345,
			"-0.01": 2.18781456456,
			"-0.009": 2.7374321699,
			"-0.008": 2.28864514284,
			"-0.007": 3.16089449591,
			"-0.006": 3.53544025227,
			"-0.005": 3.11327375003,
			"-0.004": 3.84973830199,
			"-0.003": 6.96043595735,
			"-0.002": 7.01747433925,
			"-0.001": 8.58295067912,
			"0.0": 12.9125902,
			"0.001": 7.94441933446,
			"0.002": 8.6302307821,
			"0.003": 13.0294254714,
			"0.004": 4.39567382697,
			"0.005": 2.06262000348,
			"0.006": 2.55545727429,
			"0.007": 2.05741444056,
			"0.008": 3.1569183746,
			"0.009": 3.12284483295,
			"0.01": 5.05161228665,
			"0.011": 5.17589818684,
			"0.012": 3.96965965194,
			"0.013": 1.38035656815,
			"0.014": 0.0213447783695,
			"0.015": 0.0,
			"0.016": 0.0,
			"0.017": 0.0,
			"0.018": 0.0,
			"0.019": 0.0,
			"0.02": 0.0,
			"0.021": 0.0,
			"0.022": 0.0,
			"0.023": 0.0,
			"0.024": 0.0,
			"0.025": 0.0
		}
	}
}
