{
	 "smiles": "CN(C)S(=O)(=O)C1=CC(N)=NC=C1", 
	 "Tm": 422.15, 
	 "num_atms": 24, 
	 "gaussian": { 
		 "optdone": 1, 
		 "sigma_profile": "yes", 
		 "theory": "DFT", 
		 "functional": "B3LYP", 
		 "basiset": "6-31G**", 
		 "properties": { 
			 "R2extent": 3072.1374, 
			 "electric_dipole_moment_norm": 4.32455745944, 
			 "electric_quadrupole_moment_norm": 22.6062713409, 
			 "total_energy": -986.192500222, 
			 "HOMO_LUMO_gap": 0.1828, 
			 "cosmo_polarized_energy": -17.26, 
			 "cosmo_cavitation_energy": 28.52, 
			 "cosmo_dispersion_energy": -20.98, 
			 "cosmo_repulsion_energy": 1.62, 
			 "cosmo_total_nonelectrostatic_energy": 9.16, 
			 "SMD_solvation_energy": 2.12 
		},
		"coords": [
			{
				"x": 0.7466038302,
				"y": -0.8805668002,
				"z": 1.621858067,
				"element": "C" 
			},
			{
				"x": 1.5714302551,
				"y": -0.6304076481,
				"z": 0.437383973,
				"element": "N" 
			},
			{
				"x": 1.7340593463,
				"y": -1.7740770102,
				"z": -0.4630886691,
				"element": "C" 
			},
			{
				"x": 1.411019159,
				"y": 0.8828544611,
				"z": -0.290071116,
				"element": "S" 
			},
			{
				"x": 1.3720080384,
				"y": 1.8639492571,
				"z": 0.7945874708,
				"element": "O" 
			},
			{
				"x": 2.4112415677,
				"y": 0.9370277335,
				"z": -1.3577597142,
				"element": "O" 
			},
			{
				"x": -0.2132448431,
				"y": 0.8896003732,
				"z": -1.0774150277,
				"element": "C" 
			},
			{
				"x": -0.3240563881,
				"y": 0.491211218,
				"z": -2.4003642814,
				"element": "C" 
			},
			{
				"x": -1.6173905322,
				"y": 0.4651036077,
				"z": -2.9686982993,
				"element": "C" 
			},
			{
				"x": -1.815570853,
				"y": 0.0461668721,
				"z": -4.2652849236,
				"element": "N" 
			},
			{
				"x": -2.7177826615,
				"y": 0.8031247099,
				"z": -2.2766691138,
				"element": "N" 
			},
			{
				"x": -2.5688029408,
				"y": 1.1824615406,
				"z": -1.0031783595,
				"element": "C" 
			},
			{
				"x": -1.3458379712,
				"y": 1.2495255841,
				"z": -0.3389182011,
				"element": "C" 
			},
			{
				"x": 0.7505514901,
				"y": 0.0039613707,
				"z": 2.2580295754,
				"element": "H" 
			},
			{
				"x": 1.1958980598,
				"y": -1.7094279332,
				"z": 2.1766196005,
				"element": "H" 
			},
			{
				"x": -0.2900616708,
				"y": -1.1500178679,
				"z": 1.3688353677,
				"element": "H" 
			},
			{
				"x": 2.1627553703,
				"y": -2.5989172909,
				"z": 0.1134221071,
				"element": "H" 
			},
			{
				"x": 2.4293864455,
				"y": -1.5107468298,
				"z": -1.2595093624,
				"element": "H" 
			},
			{
				"x": 0.7813531552,
				"y": -2.1106806898,
				"z": -0.8997377427,
				"element": "H" 
			},
			{
				"x": 0.5572210202,
				"y": 0.237792718,
				"z": -2.9789050057,
				"element": "H" 
			},
			{
				"x": -1.0433844191,
				"y": 0.1191608163,
				"z": -4.90987007,
				"element": "H" 
			},
			{
				"x": -2.7241753555,
				"y": 0.2706409241,
				"z": -4.644967058,
				"element": "H" 
			},
			{
				"x": -3.4846053071,
				"y": 1.4594315302,
				"z": -0.4839058652,
				"element": "H" 
			},
			{
				"x": -1.2680147955,
				"y": 1.5991293532,
				"z": 0.6827066482,
				"element": "H" 
			}
		],
		 "valence_orbital": [ 
			{
				"type": "occ",
				"energy": -0.30225,
				"method": "rhf"
			},
			{
				"type": "occ",
				"energy": -0.29606,
				"method": "rhf"
			},
			{
				"type": "occ",
				"energy": -0.27241,
				"method": "rhf"
			},
			{
				"type": "occ",
				"energy": -0.2579,
				"method": "rhf"
			},
			{
				"type": "occ",
				"energy": -0.23014,
				"method": "rhf"
			},
			{
				"type": "unocc",
				"energy": -0.04734,
				"method": "rhf"
			},
			{
				"type": "unocc",
				"energy": -0.01043,
				"method": "rhf"
			},
			{
				"type": "unocc",
				"energy": 0.05995,
				"method": "rhf"
			},
			{
				"type": "unocc",
				"energy": 0.07666,
				"method": "rhf"
			},
			{
				"type": "unocc",
				"energy": 0.08202,
				"method": "rhf"
			}
		],
		"cosmo_sigma_profile": { 
			"-0.025": 0.0,
			"-0.024": 0.0,
			"-0.023": 0.0,
			"-0.022": 0.0,
			"-0.021": 0.0,
			"-0.02": 0.0,
			"-0.019": 0.0,
			"-0.018": 0.0,
			"-0.017": 0.0,
			"-0.016": 0.0,
			"-0.015": 0.0,
			"-0.014": 0.863546700507,
			"-0.013": 2.27485805461,
			"-0.012": 3.04029796117,
			"-0.011": 2.70902198028,
			"-0.01": 2.55989597041,
			"-0.009": 2.68540144767,
			"-0.008": 2.74861614458,
			"-0.007": 5.59205576204,
			"-0.006": 11.1351801451,
			"-0.005": 14.0680933959,
			"-0.004": 20.4799392577,
			"-0.003": 23.9988407214,
			"-0.002": 19.5933272587,
			"-0.001": 9.22376477053,
			"0.0": 11.1840493581,
			"0.001": 14.1793205674,
			"0.002": 10.5736723995,
			"0.003": 7.40957548485,
			"0.004": 6.70140041705,
			"0.005": 6.59077749057,
			"0.006": 7.17252893338,
			"0.007": 6.49357974453,
			"0.008": 5.86582458183,
			"0.009": 5.05304939964,
			"0.01": 8.9584922555,
			"0.011": 9.28328800158,
			"0.012": 3.20390867259,
			"0.013": 0.873562521425,
			"0.014": 0.906329252171,
			"0.015": 0.384416634368,
			"0.016": 0.0,
			"0.017": 0.0,
			"0.018": 0.0,
			"0.019": 0.0,
			"0.02": 0.0,
			"0.021": 0.0,
			"0.022": 0.0,
			"0.023": 0.0,
			"0.024": 0.0,
			"0.025": 0.0
		}
	}
}
