{
	 "smiles": "N#CC1=CC(CN2C=CN=C2)=CC=C1", 
	 "Tm": 339.15, 
	 "num_atms": 23, 
	 "gaussian": { 
		 "optdone": 1, 
		 "sigma_profile": "yes", 
		 "theory": "DFT", 
		 "functional": "B3LYP", 
		 "basiset": "6-31G**", 
		 "properties": { 
			 "R2extent": 3706.1553, 
			 "electric_dipole_moment_norm": 1.33195299467, 
			 "electric_quadrupole_moment_norm": 39.8116869291, 
			 "total_energy": -588.820838846, 
			 "HOMO_LUMO_gap": 0.17118, 
			 "cosmo_polarized_energy": -17.32, 
			 "cosmo_cavitation_energy": 28.85, 
			 "cosmo_dispersion_energy": -19.93, 
			 "cosmo_repulsion_energy": 1.56, 
			 "cosmo_total_nonelectrostatic_energy": 10.47, 
			 "SMD_solvation_energy": 5.31 
		},
		"coords": [
			{
				"x": 0.5895760229,
				"y": -1.0893041106,
				"z": -5.652924902,
				"element": "N" 
			},
			{
				"x": 0.4666980138,
				"y": -0.4941713664,
				"z": -4.6611005807,
				"element": "C" 
			},
			{
				"x": 0.3169573486,
				"y": 0.2380410884,
				"z": -3.4364333735,
				"element": "C" 
			},
			{
				"x": 0.6563992417,
				"y": -0.3686187762,
				"z": -2.2153900748,
				"element": "C" 
			},
			{
				"x": 0.5152841555,
				"y": 0.3308636857,
				"z": -1.0167647553,
				"element": "C" 
			},
			{
				"x": 0.9369640061,
				"y": -0.3225146917,
				"z": 0.2903233783,
				"element": "C" 
			},
			{
				"x": 0.0816646473,
				"y": 0.00737279,
				"z": 1.4197181207,
				"element": "N" 
			},
			{
				"x": -1.238567219,
				"y": -0.3640167272,
				"z": 1.5990236924,
				"element": "C" 
			},
			{
				"x": -1.6196600538,
				"y": 0.1990951795,
				"z": 2.7913995422,
				"element": "C" 
			},
			{
				"x": -0.5794292457,
				"y": 0.9065412505,
				"z": 3.3523283829,
				"element": "N" 
			},
			{
				"x": 0.418510219,
				"y": 0.7715678956,
				"z": 2.507357218,
				"element": "C" 
			},
			{
				"x": 0.0215630945,
				"y": 1.6418718093,
				"z": -1.0461676794,
				"element": "C" 
			},
			{
				"x": -0.3208800032,
				"y": 2.2448787561,
				"z": -2.2565441764,
				"element": "C" 
			},
			{
				"x": -0.1748331931,
				"y": 1.5525576991,
				"z": -3.4565780883,
				"element": "C" 
			},
			{
				"x": 1.0283763292,
				"y": -1.3889898961,
				"z": -2.2156226785,
				"element": "H" 
			},
			{
				"x": 0.9716772214,
				"y": -1.4102825547,
				"z": 0.1665571111,
				"element": "H" 
			},
			{
				"x": 1.951357985,
				"y": -0.0041412671,
				"z": 0.5565145937,
				"element": "H" 
			},
			{
				"x": -1.7620401307,
				"y": -0.9718424889,
				"z": 0.8768551872,
				"element": "H" 
			},
			{
				"x": -2.5827482593,
				"y": 0.131992814,
				"z": 3.278499154,
				"element": "H" 
			},
			{
				"x": 1.4109675563,
				"y": 1.1885391255,
				"z": 2.6218880818,
				"element": "H" 
			},
			{
				"x": -0.1040748765,
				"y": 2.1866440723,
				"z": -0.1152359175,
				"element": "H" 
			},
			{
				"x": -0.7052261366,
				"y": 3.2600195353,
				"z": -2.2641672183,
				"element": "H" 
			},
			{
				"x": -0.4401367234,
				"y": 2.0134961779,
				"z": -4.4018350178,
				"element": "H" 
			}
		],
		 "valence_orbital": [ 
			{
				"type": "occ",
				"energy": -0.28565,
				"method": "rhf"
			},
			{
				"type": "occ",
				"energy": -0.27921,
				"method": "rhf"
			},
			{
				"type": "occ",
				"energy": -0.27005,
				"method": "rhf"
			},
			{
				"type": "occ",
				"energy": -0.26837,
				"method": "rhf"
			},
			{
				"type": "occ",
				"energy": -0.23335,
				"method": "rhf"
			},
			{
				"type": "unocc",
				"energy": -0.06217,
				"method": "rhf"
			},
			{
				"type": "unocc",
				"energy": -0.03657,
				"method": "rhf"
			},
			{
				"type": "unocc",
				"energy": 0.01741,
				"method": "rhf"
			},
			{
				"type": "unocc",
				"energy": 0.0301,
				"method": "rhf"
			},
			{
				"type": "unocc",
				"energy": 0.05909,
				"method": "rhf"
			}
		],
		"cosmo_sigma_profile": { 
			"-0.025": 0.0,
			"-0.024": 0.0,
			"-0.023": 0.0,
			"-0.022": 0.0,
			"-0.021": 0.0,
			"-0.02": 0.0,
			"-0.019": 0.0,
			"-0.018": 0.0,
			"-0.017": 0.0,
			"-0.016": 0.0,
			"-0.015": 0.0,
			"-0.014": 0.0,
			"-0.013": 0.0,
			"-0.012": 0.0,
			"-0.011": 0.0,
			"-0.01": 0.334095803336,
			"-0.009": 3.45508473422,
			"-0.008": 12.3165368413,
			"-0.007": 15.7009939963,
			"-0.006": 18.1116604,
			"-0.005": 17.5152324036,
			"-0.004": 12.8990567456,
			"-0.003": 13.1920029625,
			"-0.002": 12.845157144,
			"-0.001": 13.7369360376,
			"0.0": 13.5094987284,
			"0.001": 15.8418191395,
			"0.002": 17.0527503459,
			"0.003": 10.4450284806,
			"0.004": 6.04610996636,
			"0.005": 7.24383518693,
			"0.006": 7.08444279295,
			"0.007": 4.37498642411,
			"0.008": 4.98291383399,
			"0.009": 5.29405078723,
			"0.01": 4.84573905538,
			"0.011": 3.57708650919,
			"0.012": 3.91866530085,
			"0.013": 2.88624138541,
			"0.014": 1.29188682322,
			"0.015": 1.40191594982,
			"0.016": 0.89141266194,
			"0.017": 1.18745913392,
			"0.018": 0.94007901068,
			"0.019": 0.0422685121925,
			"0.02": 0.0,
			"0.021": 0.0,
			"0.022": 0.0,
			"0.023": 0.0,
			"0.024": 0.0,
			"0.025": 0.0
		}
	}
}
