{
	 "smiles": "NC1=NC(=CC(=N1)C(F)(F)F)C1=CC=C(Br)C=C1", 
	 "Tm": 490.15, 
	 "num_atms": 25, 
	 "gaussian": { 
		 "optdone": 1, 
		 "sigma_profile": "yes", 
		 "theory": "DFT", 
		 "functional": "B3LYP", 
		 "basiset": "6-31G**", 
		 "properties": { 
			 "R2extent": 10217.1511, 
			 "electric_dipole_moment_norm": 2.2539758406, 
			 "electric_quadrupole_moment_norm": 21.0334646939, 
			 "total_energy": -3458.59503713, 
			 "HOMO_LUMO_gap": 0.16529, 
			 "cosmo_polarized_energy": -10.45, 
			 "cosmo_cavitation_energy": 34.19, 
			 "cosmo_dispersion_energy": -25.04, 
			 "cosmo_repulsion_energy": 1.88, 
			 "cosmo_total_nonelectrostatic_energy": 11.03, 
			 "SMD_solvation_energy": 3.44 
		},
		"coords": [
			{
				"x": 0.3554806024,
				"y": -2.3794567603,
				"z": -2.5831913919,
				"element": "N" 
			},
			{
				"x": 0.6913465091,
				"y": -2.0363749464,
				"z": -1.3110335479,
				"element": "C" 
			},
			{
				"x": 0.6473383486,
				"y": -0.7271556885,
				"z": -1.0011943697,
				"element": "N" 
			},
			{
				"x": 0.9427105648,
				"y": -0.3805321463,
				"z": 0.2580102111,
				"element": "C" 
			},
			{
				"x": 1.2782147189,
				"y": -1.3569774143,
				"z": 1.2148227257,
				"element": "C" 
			},
			{
				"x": 1.3011454748,
				"y": -2.6710465486,
				"z": 0.7683415808,
				"element": "C" 
			},
			{
				"x": 1.0202008994,
				"y": -3.0426413962,
				"z": -0.4782198928,
				"element": "N" 
			},
			{
				"x": 1.661943157,
				"y": -3.8111698376,
				"z": 1.7052445898,
				"element": "C" 
			},
			{
				"x": 1.9247096833,
				"y": -3.3613238518,
				"z": 2.9528520356,
				"element": "F" 
			},
			{
				"x": 2.7539059298,
				"y": -4.4665303779,
				"z": 1.2706433835,
				"element": "F" 
			},
			{
				"x": 0.6579257608,
				"y": -4.7013418891,
				"z": 1.7963591337,
				"element": "F" 
			},
			{
				"x": 0.8874250178,
				"y": 1.0674753305,
				"z": 0.5831486344,
				"element": "C" 
			},
			{
				"x": 0.2894747887,
				"y": 1.9595140837,
				"z": -0.3222203663,
				"element": "C" 
			},
			{
				"x": 0.2144978345,
				"y": 3.321152916,
				"z": -0.0466434768,
				"element": "C" 
			},
			{
				"x": 0.7501237513,
				"y": 3.8048621368,
				"z": 1.1471371492,
				"element": "C" 
			},
			{
				"x": 0.6541772776,
				"y": 5.6710355356,
				"z": 1.5341066484,
				"element": "Br" 
			},
			{
				"x": 1.3578160165,
				"y": 2.9452101387,
				"z": 2.0610280501,
				"element": "C" 
			},
			{
				"x": 1.4218011775,
				"y": 1.5836885879,
				"z": 1.7745118854,
				"element": "C" 
			},
			{
				"x": 0.5360786996,
				"y": -3.3237246975,
				"z": -2.8822539276,
				"element": "H" 
			},
			{
				"x": 0.2740344366,
				"y": -1.6466500599,
				"z": -3.2682832032,
				"element": "H" 
			},
			{
				"x": 1.4961699971,
				"y": -1.1204305722,
				"z": 2.2454041735,
				"element": "H" 
			},
			{
				"x": -0.1172974766,
				"y": 1.5646548736,
				"z": -1.2458165626,
				"element": "H" 
			},
			{
				"x": -0.2546017183,
				"y": 4.0012718845,
				"z": -0.7484192928,
				"element": "H" 
			},
			{
				"x": 1.7784567049,
				"y": 3.334823426,
				"z": 2.9807928379,
				"element": "H" 
			},
			{
				"x": 1.912821844,
				"y": 0.9300672734,
				"z": 2.4873729926,
				"element": "H" 
			}
		],
		 "valence_orbital": [ 
			{
				"type": "occ",
				"energy": -0.29393,
				"method": "rhf"
			},
			{
				"type": "occ",
				"energy": -0.27337,
				"method": "rhf"
			},
			{
				"type": "occ",
				"energy": -0.26492,
				"method": "rhf"
			},
			{
				"type": "occ",
				"energy": -0.25201,
				"method": "rhf"
			},
			{
				"type": "occ",
				"energy": -0.23754,
				"method": "rhf"
			},
			{
				"type": "unocc",
				"energy": -0.07225,
				"method": "rhf"
			},
			{
				"type": "unocc",
				"energy": -0.03179,
				"method": "rhf"
			},
			{
				"type": "unocc",
				"energy": -0.01731,
				"method": "rhf"
			},
			{
				"type": "unocc",
				"energy": 0.00129,
				"method": "rhf"
			},
			{
				"type": "unocc",
				"energy": 0.01389,
				"method": "rhf"
			}
		],
		"cosmo_sigma_profile": { 
			"-0.025": 0.0,
			"-0.024": 0.0,
			"-0.023": 0.0,
			"-0.022": 0.0,
			"-0.021": 0.0,
			"-0.02": 0.0,
			"-0.019": 0.0,
			"-0.018": 0.0,
			"-0.017": 0.0,
			"-0.016": 0.0,
			"-0.015": 0.09043814093,
			"-0.014": 1.49496407831,
			"-0.013": 2.50825370689,
			"-0.012": 1.83396782329,
			"-0.011": 2.1177620913,
			"-0.01": 2.53841396911,
			"-0.009": 3.44023314128,
			"-0.008": 4.19925221505,
			"-0.007": 7.4654731961,
			"-0.006": 8.56647527986,
			"-0.005": 8.70422911174,
			"-0.004": 10.1072060419,
			"-0.003": 13.8855329537,
			"-0.002": 15.1420850472,
			"-0.001": 19.9931541179,
			"0.0": 23.340851303,
			"0.001": 26.4539076814,
			"0.002": 46.5621206998,
			"0.003": 39.2221199268,
			"0.004": 18.1476230249,
			"0.005": 7.17769334106,
			"0.006": 4.81396537497,
			"0.007": 4.21190119422,
			"0.008": 2.51589837058,
			"0.009": 1.79514675807,
			"0.01": 0.951150390637,
			"0.011": 0.937635760503,
			"0.012": 0.556753821186,
			"0.013": 0.0157801343597,
			"0.014": 0.0,
			"0.015": 0.0,
			"0.016": 0.0,
			"0.017": 0.0,
			"0.018": 0.0,
			"0.019": 0.0,
			"0.02": 0.0,
			"0.021": 0.0,
			"0.022": 0.0,
			"0.023": 0.0,
			"0.024": 0.0,
			"0.025": 0.0
		}
	}
}
