{
	 "smiles": "CC1=C2CCCCC2=CC=C1", 
	 "Tm": 250.15, 
	 "num_atms": 25, 
	 "gaussian": { 
		 "optdone": 1, 
		 "sigma_profile": "yes", 
		 "theory": "DFT", 
		 "functional": "B3LYP", 
		 "basiset": "6-31G**", 
		 "properties": { 
			 "R2extent": 2190.8641, 
			 "electric_dipole_moment_norm": 0.675992196701, 
			 "electric_quadrupole_moment_norm": 3.85373117381, 
			 "total_energy": -427.634426283, 
			 "HOMO_LUMO_gap": 0.23434, 
			 "cosmo_polarized_energy": -3.08, 
			 "cosmo_cavitation_energy": 25.59, 
			 "cosmo_dispersion_energy": -19.29, 
			 "cosmo_repulsion_energy": 1.54, 
			 "cosmo_total_nonelectrostatic_energy": 7.83, 
			 "SMD_solvation_energy": 3.47 
		},
		"coords": [
			{
				"x": 0.2197737007,
				"y": -3.2478119512,
				"z": 0.8850381699,
				"element": "C" 
			},
			{
				"x": -0.3197705019,
				"y": -2.4040068095,
				"z": -0.2473208966,
				"element": "C" 
			},
			{
				"x": -0.6414128883,
				"y": -1.0408216838,
				"z": -0.0485362273,
				"element": "C" 
			},
			{
				"x": -0.4507091116,
				"y": -0.4209029452,
				"z": 1.3272307321,
				"element": "C" 
			},
			{
				"x": -0.5379197132,
				"y": 1.1109867325,
				"z": 1.3443914692,
				"element": "C" 
			},
			{
				"x": -1.7231699616,
				"y": 1.5969929434,
				"z": 0.5066040647,
				"element": "C" 
			},
			{
				"x": -1.5265723434,
				"y": 1.179976641,
				"z": -0.9541660301,
				"element": "C" 
			},
			{
				"x": -1.163667939,
				"y": -0.2875594576,
				"z": -1.1163259377,
				"element": "C" 
			},
			{
				"x": -1.3449157411,
				"y": -0.8946195366,
				"z": -2.3671772226,
				"element": "C" 
			},
			{
				"x": -1.0167174141,
				"y": -2.2300152831,
				"z": -2.5683082516,
				"element": "C" 
			},
			{
				"x": -0.5084969777,
				"y": -2.9792093568,
				"z": -1.5066610047,
				"element": "C" 
			},
			{
				"x": -0.4583069281,
				"y": -3.2573500218,
				"z": 1.7469098182,
				"element": "H" 
			},
			{
				"x": 0.3648219847,
				"y": -4.2829961576,
				"z": 0.5649122982,
				"element": "H" 
			},
			{
				"x": 1.1855026338,
				"y": -2.8760685824,
				"z": 1.2498826696,
				"element": "H" 
			},
			{
				"x": -1.2128368583,
				"y": -0.8314885985,
				"z": 2.0077480488,
				"element": "H" 
			},
			{
				"x": 0.5114486496,
				"y": -0.7375590703,
				"z": 1.7475739597,
				"element": "H" 
			},
			{
				"x": -0.6144777508,
				"y": 1.4644521085,
				"z": 2.3789791741,
				"element": "H" 
			},
			{
				"x": 0.3877310693,
				"y": 1.5375817929,
				"z": 0.9344164379,
				"element": "H" 
			},
			{
				"x": -2.651834343,
				"y": 1.1591487257,
				"z": 0.8974124531,
				"element": "H" 
			},
			{
				"x": -1.8319292375,
				"y": 2.6853563788,
				"z": 0.5759156217,
				"element": "H" 
			},
			{
				"x": -0.7269945401,
				"y": 1.7954576599,
				"z": -1.3933009918,
				"element": "H" 
			},
			{
				"x": -2.4266957096,
				"y": 1.3975894753,
				"z": -1.5416042318,
				"element": "H" 
			},
			{
				"x": -1.7521399122,
				"y": -0.305410405,
				"z": -3.1859639407,
				"element": "H" 
			},
			{
				"x": -1.1623293413,
				"y": -2.6903376898,
				"z": -3.5416485077,
				"element": "H" 
			},
			{
				"x": -0.2572808253,
				"y": -4.0266849087,
				"z": -1.6545016745,
				"element": "H" 
			}
		],
		 "valence_orbital": [ 
			{
				"type": "occ",
				"energy": -0.32539,
				"method": "rhf"
			},
			{
				"type": "occ",
				"energy": -0.30563,
				"method": "rhf"
			},
			{
				"type": "occ",
				"energy": -0.30081,
				"method": "rhf"
			},
			{
				"type": "occ",
				"energy": -0.22627,
				"method": "rhf"
			},
			{
				"type": "occ",
				"energy": -0.2261,
				"method": "rhf"
			},
			{
				"type": "unocc",
				"energy": 0.00824,
				"method": "rhf"
			},
			{
				"type": "unocc",
				"energy": 0.01266,
				"method": "rhf"
			},
			{
				"type": "unocc",
				"energy": 0.09066,
				"method": "rhf"
			},
			{
				"type": "unocc",
				"energy": 0.10917,
				"method": "rhf"
			},
			{
				"type": "unocc",
				"energy": 0.11272,
				"method": "rhf"
			}
		],
		"cosmo_sigma_profile": { 
			"-0.025": 0.0,
			"-0.024": 0.0,
			"-0.023": 0.0,
			"-0.022": 0.0,
			"-0.021": 0.0,
			"-0.02": 0.0,
			"-0.019": 0.0,
			"-0.018": 0.0,
			"-0.017": 0.0,
			"-0.016": 0.0,
			"-0.015": 0.0,
			"-0.014": 0.0,
			"-0.013": 0.0,
			"-0.012": 0.0,
			"-0.011": 0.0,
			"-0.01": 0.0,
			"-0.009": 0.0,
			"-0.008": 0.0,
			"-0.007": 0.0,
			"-0.006": 0.0419023582093,
			"-0.005": 2.75431364981,
			"-0.004": 10.6904909579,
			"-0.003": 23.3084295984,
			"-0.002": 31.9049075145,
			"-0.001": 32.4748259146,
			"0.0": 33.2311485548,
			"0.001": 21.4428417629,
			"0.002": 8.66172860554,
			"0.003": 6.9803820157,
			"0.004": 6.17019134633,
			"0.005": 6.89859456184,
			"0.006": 6.31364472031,
			"0.007": 6.69835773083,
			"0.008": 2.30299465945,
			"0.009": 0.0,
			"0.01": 0.0,
			"0.011": 0.0,
			"0.012": 0.0,
			"0.013": 0.0,
			"0.014": 0.0,
			"0.015": 0.0,
			"0.016": 0.0,
			"0.017": 0.0,
			"0.018": 0.0,
			"0.019": 0.0,
			"0.02": 0.0,
			"0.021": 0.0,
			"0.022": 0.0,
			"0.023": 0.0,
			"0.024": 0.0,
			"0.025": 0.0
		}
	}
}
