{
	 "smiles": "CC(CS(C)(=O)=O)C(O)=O", 
	 "Tm": 399.15, 
	 "num_atms": 20, 
	 "gaussian": { 
		 "optdone": 1, 
		 "sigma_profile": "yes", 
		 "theory": "DFT", 
		 "functional": "B3LYP", 
		 "basiset": "6-31G**", 
		 "properties": { 
			 "R2extent": 2143.767, 
			 "electric_dipole_moment_norm": 4.6712017929, 
			 "electric_quadrupole_moment_norm": 11.0354120675, 
			 "total_energy": -895.600181365, 
			 "HOMO_LUMO_gap": 0.27302, 
			 "cosmo_polarized_energy": -20.37, 
			 "cosmo_cavitation_energy": 24.8, 
			 "cosmo_dispersion_energy": -18.22, 
			 "cosmo_repulsion_energy": 1.44, 
			 "cosmo_total_nonelectrostatic_energy": 8.02, 
			 "SMD_solvation_energy": 5.33 
		},
		"coords": [
			{
				"x": -0.3427002615,
				"y": 1.8457305285,
				"z": 1.0140761514,
				"element": "C" 
			},
			{
				"x": 0.4050191811,
				"y": 1.2697979449,
				"z": -0.1922074963,
				"element": "C" 
			},
			{
				"x": 1.3209610212,
				"y": 0.0799253648,
				"z": 0.155598774,
				"element": "C" 
			},
			{
				"x": 0.3479403951,
				"y": -1.4229263831,
				"z": 0.5234165668,
				"element": "S" 
			},
			{
				"x": 1.5986862619,
				"y": -2.7286520682,
				"z": 0.4810424407,
				"element": "C" 
			},
			{
				"x": -0.1677033627,
				"y": -1.3478710434,
				"z": 1.9003196152,
				"element": "O" 
			},
			{
				"x": -0.5730596623,
				"y": -1.6374467511,
				"z": -0.60574213,
				"element": "O" 
			},
			{
				"x": 1.2079988535,
				"y": 2.3562908575,
				"z": -0.9017900384,
				"element": "C" 
			},
			{
				"x": 1.9300336046,
				"y": 1.8625728619,
				"z": -1.9403795758,
				"element": "O" 
			},
			{
				"x": 1.2050701994,
				"y": 3.5319179559,
				"z": -0.6177885765,
				"element": "O" 
			},
			{
				"x": 0.3615712397,
				"y": 2.2356527089,
				"z": 1.7550608623,
				"element": "H" 
			},
			{
				"x": -0.9534872521,
				"y": 1.0773526819,
				"z": 1.4908845814,
				"element": "H" 
			},
			{
				"x": -0.984005919,
				"y": 2.6724607981,
				"z": 0.7020655665,
				"element": "H" 
			},
			{
				"x": -0.3139922881,
				"y": 0.9008659371,
				"z": -0.937351304,
				"element": "H" 
			},
			{
				"x": 1.958370754,
				"y": -0.1761150642,
				"z": -0.6935119753,
				"element": "H" 
			},
			{
				"x": 1.9408960983,
				"y": 0.2834686568,
				"z": 1.0338278409,
				"element": "H" 
			},
			{
				"x": 1.0730797646,
				"y": -3.6525296431,
				"z": 0.7295899679,
				"element": "H" 
			},
			{
				"x": 2.3643434668,
				"y": -2.5216323432,
				"z": 1.2306387383,
				"element": "H" 
			},
			{
				"x": 2.0259810018,
				"y": -2.7945471919,
				"z": -0.5204462769,
				"element": "H" 
			},
			{
				"x": 2.3780969038,
				"y": 2.6247841919,
				"z": -2.3440037321,
				"element": "H" 
			}
		],
		 "valence_orbital": [ 
			{
				"type": "occ",
				"energy": -0.32827,
				"method": "rhf"
			},
			{
				"type": "occ",
				"energy": -0.3145,
				"method": "rhf"
			},
			{
				"type": "occ",
				"energy": -0.29865,
				"method": "rhf"
			},
			{
				"type": "occ",
				"energy": -0.2969,
				"method": "rhf"
			},
			{
				"type": "occ",
				"energy": -0.28056,
				"method": "rhf"
			},
			{
				"type": "unocc",
				"energy": -0.00754,
				"method": "rhf"
			},
			{
				"type": "unocc",
				"energy": 0.04732,
				"method": "rhf"
			},
			{
				"type": "unocc",
				"energy": 0.06945,
				"method": "rhf"
			},
			{
				"type": "unocc",
				"energy": 0.07225,
				"method": "rhf"
			},
			{
				"type": "unocc",
				"energy": 0.07742,
				"method": "rhf"
			}
		],
		"cosmo_sigma_profile": { 
			"-0.025": 0.0,
			"-0.024": 0.0,
			"-0.023": 0.0,
			"-0.022": 0.0,
			"-0.021": 0.0,
			"-0.02": 0.0,
			"-0.019": 0.0536026435129,
			"-0.018": 0.860976773106,
			"-0.017": 0.968726926355,
			"-0.016": 0.915344497462,
			"-0.015": 0.657251208621,
			"-0.014": 0.885687239275,
			"-0.013": 0.688801517393,
			"-0.012": 0.37950021167,
			"-0.011": 1.60630198248,
			"-0.01": 3.10835979257,
			"-0.009": 7.57079151034,
			"-0.008": 10.2121554486,
			"-0.007": 9.98506177502,
			"-0.006": 11.8228315267,
			"-0.005": 9.86742541026,
			"-0.004": 13.3508152525,
			"-0.003": 11.8393235459,
			"-0.002": 10.6931306374,
			"-0.001": 9.26547922435,
			"0.0": 10.1432283906,
			"0.001": 7.92015077071,
			"0.002": 5.34013052481,
			"0.003": 5.82624870662,
			"0.004": 4.17701253179,
			"0.005": 4.01605345824,
			"0.006": 4.79345853664,
			"0.007": 4.98536182274,
			"0.008": 4.29277571486,
			"0.009": 5.12609622454,
			"0.01": 7.051119697,
			"0.011": 13.0397861252,
			"0.012": 11.56884997,
			"0.013": 1.44737320065,
			"0.014": 0.0,
			"0.015": 0.0,
			"0.016": 0.0,
			"0.017": 0.0,
			"0.018": 0.0,
			"0.019": 0.0,
			"0.02": 0.0,
			"0.021": 0.0,
			"0.022": 0.0,
			"0.023": 0.0,
			"0.024": 0.0,
			"0.025": 0.0
		}
	}
}
