{
	 "smiles": "CCOC1=CC=C2C=CC=CC2=C1C(Cl)=O", 
	 "Tm": 351.15, 
	 "num_atms": 27, 
	 "gaussian": { 
		 "optdone": 1, 
		 "sigma_profile": "yes", 
		 "theory": "DFT", 
		 "functional": "B3LYP", 
		 "basiset": "6-31G**", 
		 "properties": { 
			 "R2extent": 4516.6745, 
			 "electric_dipole_moment_norm": 4.75513206336, 
			 "electric_quadrupole_moment_norm": 14.5609092244, 
			 "total_energy": -1112.65902148, 
			 "HOMO_LUMO_gap": 0.1545, 
			 "cosmo_polarized_energy": -9.83, 
			 "cosmo_cavitation_energy": 32.71, 
			 "cosmo_dispersion_energy": -23.39, 
			 "cosmo_repulsion_energy": 1.82, 
			 "cosmo_total_nonelectrostatic_energy": 11.14, 
			 "SMD_solvation_energy": 6.07 
		},
		"coords": [
			{
				"x": -3.1530008941,
				"y": -2.1788204737,
				"z": -0.6645275004,
				"element": "C" 
			},
			{
				"x": -1.6825469318,
				"y": -2.2912523207,
				"z": -0.3045952561,
				"element": "C" 
			},
			{
				"x": -1.1408094077,
				"y": -0.9651182071,
				"z": -0.3143223756,
				"element": "O" 
			},
			{
				"x": 0.1832583818,
				"y": -0.7699731284,
				"z": -0.1098754418,
				"element": "C" 
			},
			{
				"x": 1.0641114224,
				"y": -1.8056975245,
				"z": 0.2929492519,
				"element": "C" 
			},
			{
				"x": 2.3865212428,
				"y": -1.5257541145,
				"z": 0.5406655649,
				"element": "C" 
			},
			{
				"x": 2.9064110865,
				"y": -0.2129673392,
				"z": 0.4220889655,
				"element": "C" 
			},
			{
				"x": 4.2730250456,
				"y": 0.0670930855,
				"z": 0.6903785747,
				"element": "C" 
			},
			{
				"x": 4.7672730935,
				"y": 1.3448421358,
				"z": 0.5763443785,
				"element": "C" 
			},
			{
				"x": 3.9031663055,
				"y": 2.395515227,
				"z": 0.1866916997,
				"element": "C" 
			},
			{
				"x": 2.5728697929,
				"y": 2.1603804683,
				"z": -0.0814231979,
				"element": "C" 
			},
			{
				"x": 2.0276893452,
				"y": 0.8499571942,
				"z": 0.027656096,
				"element": "C" 
			},
			{
				"x": 0.6600478729,
				"y": 0.5326813587,
				"z": -0.2669581323,
				"element": "C" 
			},
			{
				"x": -0.2464934159,
				"y": 1.621810495,
				"z": -0.7103512071,
				"element": "C" 
			},
			{
				"x": -1.0390360447,
				"y": 1.3199552667,
				"z": -2.3397592875,
				"element": "Cl" 
			},
			{
				"x": -0.429513346,
				"y": 2.6722998412,
				"z": -0.175237305,
				"element": "O" 
			},
			{
				"x": -3.2731668655,
				"y": -1.7354119347,
				"z": -1.6561493293,
				"element": "H" 
			},
			{
				"x": -3.6796956897,
				"y": -1.5519013638,
				"z": 0.0599303167,
				"element": "H" 
			},
			{
				"x": -3.6131342187,
				"y": -3.1716558366,
				"z": -0.6652196241,
				"element": "H" 
			},
			{
				"x": -1.1447616579,
				"y": -2.9159376123,
				"z": -1.0298878437,
				"element": "H" 
			},
			{
				"x": -1.5561378917,
				"y": -2.735741697,
				"z": 0.6918175782,
				"element": "H" 
			},
			{
				"x": 0.6945321975,
				"y": -2.8159650187,
				"z": 0.4144109206,
				"element": "H" 
			},
			{
				"x": 3.0557150046,
				"y": -2.325697267,
				"z": 0.8465612056,
				"element": "H" 
			},
			{
				"x": 4.9207651292,
				"y": -0.7534739095,
				"z": 0.9880829889,
				"element": "H" 
			},
			{
				"x": 5.8128441874,
				"y": 1.5511555551,
				"z": 0.7835811733,
				"element": "H" 
			},
			{
				"x": 4.2935084693,
				"y": 3.4053403051,
				"z": 0.0995479014,
				"element": "H" 
			},
			{
				"x": 1.9304577867,
				"y": 2.9846368151,
				"z": -0.3653001152,
				"element": "H" 
			}
		],
		 "valence_orbital": [ 
			{
				"type": "occ",
				"energy": -0.29816,
				"method": "rhf"
			},
			{
				"type": "occ",
				"energy": -0.29279,
				"method": "rhf"
			},
			{
				"type": "occ",
				"energy": -0.27849,
				"method": "rhf"
			},
			{
				"type": "occ",
				"energy": -0.24516,
				"method": "rhf"
			},
			{
				"type": "occ",
				"energy": -0.21868,
				"method": "rhf"
			},
			{
				"type": "unocc",
				"energy": -0.06418,
				"method": "rhf"
			},
			{
				"type": "unocc",
				"energy": -0.02868,
				"method": "rhf"
			},
			{
				"type": "unocc",
				"energy": -0.01378,
				"method": "rhf"
			},
			{
				"type": "unocc",
				"energy": 0.01486,
				"method": "rhf"
			},
			{
				"type": "unocc",
				"energy": 0.04427,
				"method": "rhf"
			}
		],
		"cosmo_sigma_profile": { 
			"-0.025": 0.0,
			"-0.024": 0.0,
			"-0.023": 0.0,
			"-0.022": 0.0,
			"-0.021": 0.0,
			"-0.02": 0.0,
			"-0.019": 0.0,
			"-0.018": 0.0,
			"-0.017": 0.0,
			"-0.016": 0.0,
			"-0.015": 0.0,
			"-0.014": 0.0,
			"-0.013": 0.0,
			"-0.012": 0.0,
			"-0.011": 0.0,
			"-0.01": 0.0,
			"-0.009": 0.0,
			"-0.008": 1.13780016659,
			"-0.007": 7.60214980388,
			"-0.006": 13.8358439765,
			"-0.005": 20.5362185428,
			"-0.004": 23.8721257347,
			"-0.003": 17.0831235501,
			"-0.002": 16.3815963741,
			"-0.001": 17.8192918355,
			"0.0": 20.051550378,
			"0.001": 20.0786903068,
			"0.002": 24.0811352747,
			"0.003": 24.2117498863,
			"0.004": 21.2232854687,
			"0.005": 16.8884387017,
			"0.006": 7.92858344343,
			"0.007": 4.26767521512,
			"0.008": 4.28248647333,
			"0.009": 2.35226337989,
			"0.01": 0.13171857062,
			"0.011": 0.0,
			"0.012": 0.0,
			"0.013": 0.0,
			"0.014": 0.0,
			"0.015": 0.0,
			"0.016": 0.0,
			"0.017": 0.0,
			"0.018": 0.0,
			"0.019": 0.0,
			"0.02": 0.0,
			"0.021": 0.0,
			"0.022": 0.0,
			"0.023": 0.0,
			"0.024": 0.0,
			"0.025": 0.0
		}
	}
}
