{
	 "smiles": "CC(=O)CN1C(=O)OC(=O)C2=C1C=CC=C2", 
	 "Tm": 425.15, 
	 "num_atms": 25, 
	 "gaussian": { 
		 "optdone": 1, 
		 "sigma_profile": "yes", 
		 "theory": "DFT", 
		 "functional": "B3LYP", 
		 "basiset": "6-31G**", 
		 "properties": { 
			 "R2extent": 4135.4577, 
			 "electric_dipole_moment_norm": 4.23903253113, 
			 "electric_quadrupole_moment_norm": 21.8348321942, 
			 "total_energy": -780.270067605, 
			 "HOMO_LUMO_gap": 0.17509, 
			 "cosmo_polarized_energy": -16.16, 
			 "cosmo_cavitation_energy": 29.62, 
			 "cosmo_dispersion_energy": -21.11, 
			 "cosmo_repulsion_energy": 1.61, 
			 "cosmo_total_nonelectrostatic_energy": 10.12, 
			 "SMD_solvation_energy": 7.79 
		},
		"coords": [
			{
				"x": 1.2198097182,
				"y": -1.3386894306,
				"z": 1.68999861,
				"element": "C" 
			},
			{
				"x": 2.2882996712,
				"y": -0.4971326388,
				"z": 1.028413687,
				"element": "C" 
			},
			{
				"x": 3.4783693613,
				"y": -0.6866181621,
				"z": 1.1831391809,
				"element": "O" 
			},
			{
				"x": 1.8190146207,
				"y": 0.6780707148,
				"z": 0.1553872495,
				"element": "C" 
			},
			{
				"x": 0.6951422212,
				"y": 0.3712607606,
				"z": -0.7323372547,
				"element": "N" 
			},
			{
				"x": -0.5510080774,
				"y": 0.8581791108,
				"z": -0.357461516,
				"element": "C" 
			},
			{
				"x": -0.754531928,
				"y": 1.4498058094,
				"z": 0.6770260812,
				"element": "O" 
			},
			{
				"x": -1.5867328075,
				"y": 0.6406772561,
				"z": -1.2238690694,
				"element": "O" 
			},
			{
				"x": -1.5061348417,
				"y": -0.0274403655,
				"z": -2.4488078936,
				"element": "C" 
			},
			{
				"x": -2.5088117275,
				"y": -0.1128453905,
				"z": -3.1078534267,
				"element": "O" 
			},
			{
				"x": -0.1866614731,
				"y": -0.5659791298,
				"z": -2.7830455574,
				"element": "C" 
			},
			{
				"x": 0.8977281038,
				"y": -0.3650473951,
				"z": -1.9085183128,
				"element": "C" 
			},
			{
				"x": 2.1504681818,
				"y": -0.9086118015,
				"z": -2.2388025206,
				"element": "C" 
			},
			{
				"x": 2.2985359015,
				"y": -1.6212377043,
				"z": -3.4262072276,
				"element": "C" 
			},
			{
				"x": 1.2234101124,
				"y": -1.8124701837,
				"z": -4.3021214352,
				"element": "C" 
			},
			{
				"x": -0.0175610872,
				"y": -1.2851372454,
				"z": -3.973563787,
				"element": "C" 
			},
			{
				"x": 0.4363778868,
				"y": -0.7073401064,
				"z": 2.1214663317,
				"element": "H" 
			},
			{
				"x": 1.6747623149,
				"y": -1.9682603263,
				"z": 2.4554683487,
				"element": "H" 
			},
			{
				"x": 0.7394422025,
				"y": -1.9814398179,
				"z": 0.9424457578,
				"element": "H" 
			},
			{
				"x": 2.6678063835,
				"y": 1.047060332,
				"z": -0.4238424923,
				"element": "H" 
			},
			{
				"x": 1.4764174136,
				"y": 1.4727825338,
				"z": 0.8233017309,
				"element": "H" 
			},
			{
				"x": 3.0001175435,
				"y": -0.7944175645,
				"z": -1.5773778618,
				"element": "H" 
			},
			{
				"x": 3.2726311998,
				"y": -2.0364021225,
				"z": -3.6671167165,
				"element": "H" 
			},
			{
				"x": 1.3578593494,
				"y": -2.370234903,
				"z": -5.2226928431,
				"element": "H" 
			},
			{
				"x": -0.8821502436,
				"y": -1.4116322294,
				"z": -4.616229063,
				"element": "H" 
			}
		],
		 "valence_orbital": [ 
			{
				"type": "occ",
				"energy": -0.31973,
				"method": "rhf"
			},
			{
				"type": "occ",
				"energy": -0.2921,
				"method": "rhf"
			},
			{
				"type": "occ",
				"energy": -0.28763,
				"method": "rhf"
			},
			{
				"type": "occ",
				"energy": -0.27454,
				"method": "rhf"
			},
			{
				"type": "occ",
				"energy": -0.24893,
				"method": "rhf"
			},
			{
				"type": "unocc",
				"energy": -0.07384,
				"method": "rhf"
			},
			{
				"type": "unocc",
				"energy": -0.03884,
				"method": "rhf"
			},
			{
				"type": "unocc",
				"energy": -0.03619,
				"method": "rhf"
			},
			{
				"type": "unocc",
				"energy": 0.00756,
				"method": "rhf"
			},
			{
				"type": "unocc",
				"energy": 0.04631,
				"method": "rhf"
			}
		],
		"cosmo_sigma_profile": { 
			"-0.025": 0.0,
			"-0.024": 0.0,
			"-0.023": 0.0,
			"-0.022": 0.0,
			"-0.021": 0.0,
			"-0.02": 0.0,
			"-0.019": 0.0,
			"-0.018": 0.0,
			"-0.017": 0.0,
			"-0.016": 0.0,
			"-0.015": 0.0,
			"-0.014": 0.0,
			"-0.013": 0.0,
			"-0.012": 0.0,
			"-0.011": 0.0,
			"-0.01": 0.519845594715,
			"-0.009": 2.0270555841,
			"-0.008": 6.60067776183,
			"-0.007": 15.8797223548,
			"-0.006": 18.6895970817,
			"-0.005": 21.0523986496,
			"-0.004": 17.7806734958,
			"-0.003": 15.1169864873,
			"-0.002": 17.8597454519,
			"-0.001": 15.1721871544,
			"0.0": 13.3955838446,
			"0.001": 13.2046124024,
			"0.002": 13.1588217477,
			"0.003": 7.80083249961,
			"0.004": 4.60279953486,
			"0.005": 3.88063301716,
			"0.006": 4.47240570672,
			"0.007": 5.82646037929,
			"0.008": 7.61420046522,
			"0.009": 6.94762268931,
			"0.01": 10.5081405684,
			"0.011": 11.0952616713,
			"0.012": 4.19964529076,
			"0.013": 0.156270147342,
			"0.014": 0.0,
			"0.015": 0.0,
			"0.016": 0.0,
			"0.017": 0.0,
			"0.018": 0.0,
			"0.019": 0.0,
			"0.02": 0.0,
			"0.021": 0.0,
			"0.022": 0.0,
			"0.023": 0.0,
			"0.024": 0.0,
			"0.025": 0.0
		}
	}
}
