{
	 "smiles": "NC1=NC(=CN=N1)C1=CC=C(F)C=C1", 
	 "Tm": 522.15, 
	 "num_atms": 21, 
	 "gaussian": { 
		 "optdone": 1, 
		 "sigma_profile": "yes", 
		 "theory": "DFT", 
		 "functional": "B3LYP", 
		 "basiset": "6-31G**", 
		 "properties": { 
			 "R2extent": 3835.7094, 
			 "electric_dipole_moment_norm": 2.49952933169, 
			 "electric_quadrupole_moment_norm": 24.1264264436, 
			 "total_energy": -665.990942722, 
			 "HOMO_LUMO_gap": 0.15481, 
			 "cosmo_polarized_energy": -13.37, 
			 "cosmo_cavitation_energy": 26.57, 
			 "cosmo_dispersion_energy": -19.79, 
			 "cosmo_repulsion_energy": 1.52, 
			 "cosmo_total_nonelectrostatic_energy": 8.3, 
			 "SMD_solvation_energy": 2.28 
		},
		"coords": [
			{
				"x": 2.7295007336,
				"y": 1.748048655,
				"z": 2.8429278578,
				"element": "N" 
			},
			{
				"x": 2.7882711588,
				"y": 1.3598809888,
				"z": 1.541252051,
				"element": "C" 
			},
			{
				"x": 1.7257976426,
				"y": 0.7061129028,
				"z": 1.0387011579,
				"element": "N" 
			},
			{
				"x": 1.8351093957,
				"y": 0.3065481852,
				"z": -0.2308025609,
				"element": "C" 
			},
			{
				"x": 3.0156967746,
				"y": 0.6056900201,
				"z": -0.9418820739,
				"element": "C" 
			},
			{
				"x": 4.0264739361,
				"y": 1.2660809173,
				"z": -0.3787421308,
				"element": "N" 
			},
			{
				"x": 3.9349307397,
				"y": 1.6547973197,
				"z": 0.8837960047,
				"element": "N" 
			},
			{
				"x": 0.6903118502,
				"y": -0.4188618125,
				"z": -0.8274240317,
				"element": "C" 
			},
			{
				"x": -0.5447478042,
				"y": -0.4349097673,
				"z": -0.1555037372,
				"element": "C" 
			},
			{
				"x": -1.6430121601,
				"y": -1.1003111534,
				"z": -0.6886515792,
				"element": "C" 
			},
			{
				"x": -1.4980738325,
				"y": -1.7613391329,
				"z": -1.904820516,
				"element": "C" 
			},
			{
				"x": -2.5564321023,
				"y": -2.4087260499,
				"z": -2.427405225,
				"element": "F" 
			},
			{
				"x": -0.2906415401,
				"y": -1.7763132299,
				"z": -2.5949482089,
				"element": "C" 
			},
			{
				"x": 0.7994197173,
				"y": -1.1026121187,
				"z": -2.0506881517,
				"element": "C" 
			},
			{
				"x": 1.837945256,
				"y": 1.7193262947,
				"z": 3.3092578521,
				"element": "H" 
			},
			{
				"x": 3.443017196,
				"y": 2.3773271239,
				"z": 3.1738818543,
				"element": "H" 
			},
			{
				"x": 3.1570586945,
				"y": 0.3411113894,
				"z": -1.9833042972,
				"element": "H" 
			},
			{
				"x": -0.6243522051,
				"y": 0.0852200306,
				"z": 0.7919503996,
				"element": "H" 
			},
			{
				"x": -2.6019941339,
				"y": -1.1148364335,
				"z": -0.1822157462,
				"element": "H" 
			},
			{
				"x": -0.2165520615,
				"y": -2.3123396898,
				"z": -3.5346334875,
				"element": "H" 
			},
			{
				"x": 1.7441727447,
				"y": -1.1321944395,
				"z": -2.5822454311,
				"element": "H" 
			}
		],
		 "valence_orbital": [ 
			{
				"type": "occ",
				"energy": -0.31406,
				"method": "rhf"
			},
			{
				"type": "occ",
				"energy": -0.27328,
				"method": "rhf"
			},
			{
				"type": "occ",
				"energy": -0.25554,
				"method": "rhf"
			},
			{
				"type": "occ",
				"energy": -0.23528,
				"method": "rhf"
			},
			{
				"type": "occ",
				"energy": -0.22651,
				"method": "rhf"
			},
			{
				"type": "unocc",
				"energy": -0.0717,
				"method": "rhf"
			},
			{
				"type": "unocc",
				"energy": -0.0299,
				"method": "rhf"
			},
			{
				"type": "unocc",
				"energy": -0.01594,
				"method": "rhf"
			},
			{
				"type": "unocc",
				"energy": 0.023,
				"method": "rhf"
			},
			{
				"type": "unocc",
				"energy": 0.07805,
				"method": "rhf"
			}
		],
		"cosmo_sigma_profile": { 
			"-0.025": 0.0,
			"-0.024": 0.0,
			"-0.023": 0.0,
			"-0.022": 0.0,
			"-0.021": 0.0,
			"-0.02": 0.0,
			"-0.019": 0.0,
			"-0.018": 0.0,
			"-0.017": 0.0,
			"-0.016": 0.0,
			"-0.015": 0.129598150764,
			"-0.014": 1.88033715195,
			"-0.013": 1.94732599378,
			"-0.012": 2.38543058791,
			"-0.011": 1.84140891548,
			"-0.01": 2.86465560203,
			"-0.009": 4.17571510958,
			"-0.008": 4.6417239943,
			"-0.007": 8.81698083169,
			"-0.006": 7.8269000747,
			"-0.005": 9.69791284981,
			"-0.004": 8.36123964163,
			"-0.003": 9.29427307109,
			"-0.002": 12.4929636334,
			"-0.001": 16.6465905544,
			"0.0": 19.4284905986,
			"0.001": 17.3471743787,
			"0.002": 19.4867396533,
			"0.003": 18.8516809406,
			"0.004": 14.1442354592,
			"0.005": 5.44051529325,
			"0.006": 4.34872890228,
			"0.007": 3.41035004174,
			"0.008": 2.17808248186,
			"0.009": 2.54399224981,
			"0.01": 2.86851735812,
			"0.011": 1.25458255993,
			"0.012": 2.17166539674,
			"0.013": 3.27650813518,
			"0.014": 2.45274709412,
			"0.015": 1.73426119219,
			"0.016": 0.33128712191,
			"0.017": 0.0,
			"0.018": 0.0,
			"0.019": 0.0,
			"0.02": 0.0,
			"0.021": 0.0,
			"0.022": 0.0,
			"0.023": 0.0,
			"0.024": 0.0,
			"0.025": 0.0
		}
	}
}
