{
	 "smiles": "CCC1=NNC(C(O)=O)=C1Cl", 
	 "Tm": 473.15, 
	 "num_atms": 18, 
	 "gaussian": { 
		 "optdone": 1, 
		 "sigma_profile": "yes", 
		 "theory": "DFT", 
		 "functional": "B3LYP", 
		 "basiset": "6-31G**", 
		 "properties": { 
			 "R2extent": 2532.0238, 
			 "electric_dipole_moment_norm": 3.80499940342, 
			 "electric_quadrupole_moment_norm": 20.4199323868, 
			 "total_energy": -952.983059919, 
			 "HOMO_LUMO_gap": 0.20213, 
			 "cosmo_polarized_energy": -18.49, 
			 "cosmo_cavitation_energy": 24.69, 
			 "cosmo_dispersion_energy": -17.9, 
			 "cosmo_repulsion_energy": 1.47, 
			 "cosmo_total_nonelectrostatic_energy": 8.25, 
			 "SMD_solvation_energy": 4.24 
		},
		"coords": [
			{
				"x": -1.5312821291,
				"y": 1.2498796406,
				"z": -2.2704515015,
				"element": "C" 
			},
			{
				"x": -1.2114567157,
				"y": 1.2473385975,
				"z": -0.7646844051,
				"element": "C" 
			},
			{
				"x": 0.0755722207,
				"y": 0.5503696603,
				"z": -0.4384087132,
				"element": "C" 
			},
			{
				"x": 1.1987541666,
				"y": 1.2333234437,
				"z": -0.2030904027,
				"element": "N" 
			},
			{
				"x": 2.1364832243,
				"y": 0.3073340223,
				"z": 0.0705462497,
				"element": "N" 
			},
			{
				"x": 1.6718242642,
				"y": -0.9791254319,
				"z": -0.0312236656,
				"element": "C" 
			},
			{
				"x": 2.5162346688,
				"y": -2.1705465519,
				"z": 0.2002252491,
				"element": "C" 
			},
			{
				"x": 3.593169903,
				"y": -1.95940226,
				"z": 1.0174592511,
				"element": "O" 
			},
			{
				"x": 2.3197916738,
				"y": -3.2479236432,
				"z": -0.2996387561,
				"element": "O" 
			},
			{
				"x": 0.3295016848,
				"y": -0.8437001442,
				"z": -0.3543673377,
				"element": "C" 
			},
			{
				"x": -0.8287683712,
				"y": -2.10610099,
				"z": -0.5494126488,
				"element": "Cl" 
			},
			{
				"x": -1.6226956429,
				"y": 0.2310189658,
				"z": -2.6582254287,
				"element": "H" 
			},
			{
				"x": -2.4756975964,
				"y": 1.7694719846,
				"z": -2.4594975078,
				"element": "H" 
			},
			{
				"x": -0.7432499041,
				"y": 1.7583611353,
				"z": -2.8339636967,
				"element": "H" 
			},
			{
				"x": -1.1383535069,
				"y": 2.2749884713,
				"z": -0.396471958,
				"element": "H" 
			},
			{
				"x": -2.0278546383,
				"y": 0.7624555088,
				"z": -0.2172602955,
				"element": "H" 
			},
			{
				"x": 3.1035414716,
				"y": 0.5971516359,
				"z": 0.0990316514,
				"element": "H" 
			},
			{
				"x": 3.4486852268,
				"y": -1.1746940449,
				"z": 1.5663339161,
				"element": "H" 
			}
		],
		 "valence_orbital": [ 
			{
				"type": "occ",
				"energy": -0.33275,
				"method": "rhf"
			},
			{
				"type": "occ",
				"energy": -0.30568,
				"method": "rhf"
			},
			{
				"type": "occ",
				"energy": -0.29009,
				"method": "rhf"
			},
			{
				"type": "occ",
				"energy": -0.27589,
				"method": "rhf"
			},
			{
				"type": "occ",
				"energy": -0.25904,
				"method": "rhf"
			},
			{
				"type": "unocc",
				"energy": -0.05691,
				"method": "rhf"
			},
			{
				"type": "unocc",
				"energy": 0.01817,
				"method": "rhf"
			},
			{
				"type": "unocc",
				"energy": 0.02438,
				"method": "rhf"
			},
			{
				"type": "unocc",
				"energy": 0.04099,
				"method": "rhf"
			},
			{
				"type": "unocc",
				"energy": 0.07675,
				"method": "rhf"
			}
		],
		"cosmo_sigma_profile": { 
			"-0.025": 0.0,
			"-0.024": 0.0,
			"-0.023": 0.0,
			"-0.022": 0.0,
			"-0.021": 0.0197525018905,
			"-0.02": 0.855765501754,
			"-0.019": 2.10235616253,
			"-0.018": 2.61104594232,
			"-0.017": 2.08317340383,
			"-0.016": 2.29298072573,
			"-0.015": 1.82908172598,
			"-0.014": 1.16392726282,
			"-0.013": 1.72749907127,
			"-0.012": 1.75218893853,
			"-0.011": 1.17411111192,
			"-0.01": 1.5770861089,
			"-0.009": 1.19089693543,
			"-0.008": 1.56612745298,
			"-0.007": 1.51142603745,
			"-0.006": 2.06935017121,
			"-0.005": 2.85512640906,
			"-0.004": 7.68129993422,
			"-0.003": 13.2083312632,
			"-0.002": 15.5729460294,
			"-0.001": 22.7507285092,
			"0.0": 21.6198700486,
			"0.001": 18.2889010651,
			"0.002": 10.6602991391,
			"0.003": 9.11512996376,
			"0.004": 8.04340318831,
			"0.005": 5.54563329399,
			"0.006": 4.62170495227,
			"0.007": 3.58309557189,
			"0.008": 4.68106517733,
			"0.009": 6.03818913062,
			"0.01": 7.11485658306,
			"0.011": 6.92761534883,
			"0.012": 2.59270247825,
			"0.013": 0.971889940318,
			"0.014": 0.767197676103,
			"0.015": 0.0420654828347,
			"0.016": 0.0,
			"0.017": 0.0,
			"0.018": 0.0,
			"0.019": 0.0,
			"0.02": 0.0,
			"0.021": 0.0,
			"0.022": 0.0,
			"0.023": 0.0,
			"0.024": 0.0,
			"0.025": 0.0
		}
	}
}
