{
	 "smiles": "COC1=C(C=CC=C1)N=NC1=C2NC(=O)C=C(N2N=C1N)C1=CC=CC=C1", 
	 "Tm": 577.15, 
	 "num_atms": 43, 
	 "gaussian": { 
		 "optdone": 1, 
		 "sigma_profile": "yes", 
		 "theory": "DFT", 
		 "functional": "B3LYP", 
		 "basiset": "6-31G**", 
		 "properties": { 
			 "R2extent": 10349.1276, 
			 "electric_dipole_moment_norm": 3.20039536776, 
			 "electric_quadrupole_moment_norm": 12.1185778118, 
			 "total_energy": -1212.54165895, 
			 "HOMO_LUMO_gap": 0.13826, 
			 "cosmo_polarized_energy": -21.55, 
			 "cosmo_cavitation_energy": 47.21, 
			 "cosmo_dispersion_energy": -32.44, 
			 "cosmo_repulsion_energy": 2.43, 
			 "cosmo_total_nonelectrostatic_energy": 17.19, 
			 "SMD_solvation_energy": 6.46 
		},
		"coords": [
			{
				"x": -4.5547523401,
				"y": -1.0209786404,
				"z": 2.5680519429,
				"element": "C" 
			},
			{
				"x": -4.0833980601,
				"y": -0.369945138,
				"z": 1.3838055432,
				"element": "O" 
			},
			{
				"x": -3.6907733731,
				"y": 0.9447460225,
				"z": 1.4762232244,
				"element": "C" 
			},
			{
				"x": -3.1665355735,
				"y": 1.4918427357,
				"z": 0.2878058759,
				"element": "C" 
			},
			{
				"x": -2.6385286845,
				"y": 2.7873814942,
				"z": 0.3125604284,
				"element": "C" 
			},
			{
				"x": -2.6411614087,
				"y": 3.5367569659,
				"z": 1.4893754146,
				"element": "C" 
			},
			{
				"x": -3.176349123,
				"y": 2.9916879094,
				"z": 2.6546876076,
				"element": "C" 
			},
			{
				"x": -3.6926441843,
				"y": 1.6928394331,
				"z": 2.6546014333,
				"element": "C" 
			},
			{
				"x": -3.3760171629,
				"y": 0.8597197175,
				"z": -0.9854592319,
				"element": "N" 
			},
			{
				"x": -2.4227869931,
				"y": 0.4406924621,
				"z": -1.6958749134,
				"element": "N" 
			},
			{
				"x": -1.1239055558,
				"y": 0.2568519672,
				"z": -1.2199779828,
				"element": "C" 
			},
			{
				"x": -0.6081548786,
				"y": -0.278369566,
				"z": -0.035988481,
				"element": "C" 
			},
			{
				"x": -1.176924355,
				"y": -0.7646574136,
				"z": 1.0971829197,
				"element": "N" 
			},
			{
				"x": -0.4464268657,
				"y": -1.3021088759,
				"z": 2.1717319324,
				"element": "C" 
			},
			{
				"x": -1.0336365921,
				"y": -1.7114361102,
				"z": 3.1688257213,
				"element": "O" 
			},
			{
				"x": 0.9895639638,
				"y": -1.3216730603,
				"z": 1.9508779946,
				"element": "C" 
			},
			{
				"x": 1.5771789187,
				"y": -0.8913538406,
				"z": 0.7912898311,
				"element": "C" 
			},
			{
				"x": 0.7515031367,
				"y": -0.3865499933,
				"z": -0.2002342869,
				"element": "N" 
			},
			{
				"x": 1.1639012725,
				"y": 0.0543023672,
				"z": -1.4512101282,
				"element": "N" 
			},
			{
				"x": 0.0345024198,
				"y": 0.3776190218,
				"z": -2.0650444194,
				"element": "C" 
			},
			{
				"x": 0.0034308955,
				"y": 0.7834769529,
				"z": -3.3687142751,
				"element": "N" 
			},
			{
				"x": 3.0422836605,
				"y": -0.9552451142,
				"z": 0.5770068116,
				"element": "C" 
			},
			{
				"x": 3.8944858598,
				"y": -0.6254441084,
				"z": 1.6442682461,
				"element": "C" 
			},
			{
				"x": 5.276906154,
				"y": -0.7349409824,
				"z": 1.5077227723,
				"element": "C" 
			},
			{
				"x": 5.8273568942,
				"y": -1.1810304036,
				"z": 0.3051687371,
				"element": "C" 
			},
			{
				"x": 4.9873528125,
				"y": -1.5100258712,
				"z": -0.7607401516,
				"element": "C" 
			},
			{
				"x": 3.604607269,
				"y": -1.3941621085,
				"z": -0.6334108591,
				"element": "C" 
			},
			{
				"x": -3.7524199603,
				"y": -1.1056707187,
				"z": 3.3094598921,
				"element": "H" 
			},
			{
				"x": -5.4165385996,
				"y": -0.4930048252,
				"z": 2.9903367717,
				"element": "H" 
			},
			{
				"x": -4.8623926991,
				"y": -2.0176271402,
				"z": 2.2500808868,
				"element": "H" 
			},
			{
				"x": -2.255594444,
				"y": 3.209129671,
				"z": -0.6115271584,
				"element": "H" 
			},
			{
				"x": -2.2355582697,
				"y": 4.5436405645,
				"z": 1.4885807938,
				"element": "H" 
			},
			{
				"x": -3.1868435393,
				"y": 3.5672582604,
				"z": 3.5751526355,
				"element": "H" 
			},
			{
				"x": -4.0758004293,
				"y": 1.2667905542,
				"z": 3.573910613,
				"element": "H" 
			},
			{
				"x": -2.1927223067,
				"y": -0.7981650144,
				"z": 1.1737484332,
				"element": "H" 
			},
			{
				"x": 1.5946124911,
				"y": -1.7552059481,
				"z": 2.73451579,
				"element": "H" 
			},
			{
				"x": -0.8452286717,
				"y": 1.2241038073,
				"z": -3.6860468898,
				"element": "H" 
			},
			{
				"x": 0.867923248,
				"y": 1.1111215901,
				"z": -3.7707565363,
				"element": "H" 
			},
			{
				"x": 3.4691797714,
				"y": -0.2627628622,
				"z": 2.5746758349,
				"element": "H" 
			},
			{
				"x": 5.9222707884,
				"y": -0.4663912095,
				"z": 2.3387875437,
				"element": "H" 
			},
			{
				"x": 6.9047110611,
				"y": -1.2673905342,
				"z": 0.1973934072,
				"element": "H" 
			},
			{
				"x": 5.4097670872,
				"y": -1.8584400446,
				"z": -1.6986363326,
				"element": "H" 
			},
			{
				"x": 2.9577563663,
				"y": -1.6356819734,
				"z": -1.466807392,
				"element": "H" 
			}
		],
		 "valence_orbital": [ 
			{
				"type": "occ",
				"energy": -0.25005,
				"method": "rhf"
			},
			{
				"type": "occ",
				"energy": -0.24541,
				"method": "rhf"
			},
			{
				"type": "occ",
				"energy": -0.22707,
				"method": "rhf"
			},
			{
				"type": "occ",
				"energy": -0.21279,
				"method": "rhf"
			},
			{
				"type": "occ",
				"energy": -0.20238,
				"method": "rhf"
			},
			{
				"type": "unocc",
				"energy": -0.06412,
				"method": "rhf"
			},
			{
				"type": "unocc",
				"energy": -0.05324,
				"method": "rhf"
			},
			{
				"type": "unocc",
				"energy": -0.00976,
				"method": "rhf"
			},
			{
				"type": "unocc",
				"energy": -0.0077,
				"method": "rhf"
			},
			{
				"type": "unocc",
				"energy": 0.00089,
				"method": "rhf"
			}
		],
		"cosmo_sigma_profile": { 
			"-0.025": 0.0,
			"-0.024": 0.0,
			"-0.023": 0.0,
			"-0.022": 0.0,
			"-0.021": 0.0,
			"-0.02": 0.0,
			"-0.019": 0.0,
			"-0.018": 0.0,
			"-0.017": 0.0,
			"-0.016": 0.0,
			"-0.015": 0.0,
			"-0.014": 1.00775083559,
			"-0.013": 1.94596465034,
			"-0.012": 2.12427068739,
			"-0.011": 2.28061710225,
			"-0.01": 2.48146986379,
			"-0.009": 1.81613531776,
			"-0.008": 2.76090166234,
			"-0.007": 10.4612357414,
			"-0.006": 25.9553926634,
			"-0.005": 30.7813945102,
			"-0.004": 34.5737709398,
			"-0.003": 28.1129230467,
			"-0.002": 24.2986795734,
			"-0.001": 23.649219588,
			"0.0": 22.3156367986,
			"0.001": 23.6419603104,
			"0.002": 22.5538783108,
			"0.003": 21.6772920678,
			"0.004": 25.9765988558,
			"0.005": 18.3436699938,
			"0.006": 7.49139287987,
			"0.007": 6.31416988121,
			"0.008": 6.07328186339,
			"0.009": 4.90325331339,
			"0.01": 7.01404265203,
			"0.011": 5.91936298296,
			"0.012": 5.64000844296,
			"0.013": 5.77897440496,
			"0.014": 2.8678670672,
			"0.015": 0.408309276365,
			"0.016": 0.0,
			"0.017": 0.0,
			"0.018": 0.0,
			"0.019": 0.0,
			"0.02": 0.0,
			"0.021": 0.0,
			"0.022": 0.0,
			"0.023": 0.0,
			"0.024": 0.0,
			"0.025": 0.0
		}
	}
}
