{
	 "smiles": "CC1=C(C=CC(=C1)C#N)N1CC2CCC1C2", 
	 "Tm": 343.15, 
	 "num_atms": 32, 
	 "gaussian": { 
		 "optdone": 1, 
		 "sigma_profile": "yes", 
		 "theory": "DFT", 
		 "functional": "B3LYP", 
		 "basiset": "6-31G**", 
		 "properties": { 
			 "R2extent": 4688.0, 
			 "electric_dipole_moment_norm": 7.70987513842, 
			 "electric_quadrupole_moment_norm": 40.9023713846, 
			 "total_energy": -652.61829145, 
			 "HOMO_LUMO_gap": 0.1741, 
			 "cosmo_polarized_energy": -11.24, 
			 "cosmo_cavitation_energy": 33.04, 
			 "cosmo_dispersion_energy": -23.78, 
			 "cosmo_repulsion_energy": 1.82, 
			 "cosmo_total_nonelectrostatic_energy": 11.08, 
			 "SMD_solvation_energy": 5.27 
		},
		"coords": [
			{
				"x": -0.6048122442,
				"y": -1.3482933191,
				"z": -2.423323198,
				"element": "C" 
			},
			{
				"x": 0.1241216823,
				"y": -1.9476355821,
				"z": -1.2409839104,
				"element": "C" 
			},
			{
				"x": 0.2730940862,
				"y": -1.2626050094,
				"z": 0.0035417124,
				"element": "C" 
			},
			{
				"x": 0.8008289969,
				"y": -1.9860014159,
				"z": 1.1003390095,
				"element": "C" 
			},
			{
				"x": 1.2266665206,
				"y": -3.2993628319,
				"z": 0.9777666007,
				"element": "C" 
			},
			{
				"x": 1.1417814996,
				"y": -3.9530674121,
				"z": -0.2594677787,
				"element": "C" 
			},
			{
				"x": 0.5771304798,
				"y": -3.2598665332,
				"z": -1.3436838013,
				"element": "C" 
			},
			{
				"x": 1.5913557345,
				"y": -5.3014176772,
				"z": -0.4121890663,
				"element": "C" 
			},
			{
				"x": 1.9593611641,
				"y": -6.3993385675,
				"z": -0.5373288666,
				"element": "N" 
			},
			{
				"x": -0.1480701693,
				"y": 0.0519717993,
				"z": 0.1677216783,
				"element": "N" 
			},
			{
				"x": 0.0772929832,
				"y": 1.1223020109,
				"z": -0.8425982224,
				"element": "C" 
			},
			{
				"x": 0.1345605699,
				"y": 2.3917421282,
				"z": 0.0308402078,
				"element": "C" 
			},
			{
				"x": 1.4676055541,
				"y": 2.3977406314,
				"z": 0.8162324305,
				"element": "C" 
			},
			{
				"x": 1.2785272655,
				"y": 1.2261290138,
				"z": 1.8342873837,
				"element": "C" 
			},
			{
				"x": -0.1479197668,
				"y": 0.7181797625,
				"z": 1.4883862207,
				"element": "C" 
			},
			{
				"x": -0.874903165,
				"y": 2.0261124642,
				"z": 1.1379896657,
				"element": "C" 
			},
			{
				"x": -0.0352978891,
				"y": -0.5673080525,
				"z": -2.9374588845,
				"element": "H" 
			},
			{
				"x": -0.8245494152,
				"y": -2.1259035633,
				"z": -3.1591291659,
				"element": "H" 
			},
			{
				"x": -1.5573042972,
				"y": -0.9071512555,
				"z": -2.1109040918,
				"element": "H" 
			},
			{
				"x": 0.8926451703,
				"y": -1.506510202,
				"z": 2.066123712,
				"element": "H" 
			},
			{
				"x": 1.6377517441,
				"y": -3.81824014,
				"z": 1.8375141631,
				"element": "H" 
			},
			{
				"x": 0.4612993101,
				"y": -3.7789765471,
				"z": -2.2904729446,
				"element": "H" 
			},
			{
				"x": 1.011607182,
				"y": 0.9614284728,
				"z": -1.394499135,
				"element": "H" 
			},
			{
				"x": -0.7418555609,
				"y": 1.1775253331,
				"z": -1.5669020604,
				"element": "H" 
			},
			{
				"x": -0.0636076696,
				"y": 3.305443259,
				"z": -0.5344151166,
				"element": "H" 
			},
			{
				"x": 1.6073916596,
				"y": 3.3540339051,
				"z": 1.3301840315,
				"element": "H" 
			},
			{
				"x": 2.3313736673,
				"y": 2.2503453323,
				"z": 0.1603242686,
				"element": "H" 
			},
			{
				"x": 1.3248037588,
				"y": 1.5757617602,
				"z": 2.8713621442,
				"element": "H" 
			},
			{
				"x": 2.0322982765,
				"y": 0.4445867796,
				"z": 1.7168218129,
				"element": "H" 
			},
			{
				"x": -0.6208063396,
				"y": 0.0892089557,
				"z": 2.244358418,
				"element": "H" 
			},
			{
				"x": -1.8940874566,
				"y": 1.8612360654,
				"z": 0.7778849833,
				"element": "H" 
			},
			{
				"x": -0.8869833322,
				"y": 2.7418304353,
				"z": 1.9652777994,
				"element": "H" 
			}
		],
		 "valence_orbital": [ 
			{
				"type": "occ",
				"energy": -0.32441,
				"method": "rhf"
			},
			{
				"type": "occ",
				"energy": -0.31124,
				"method": "rhf"
			},
			{
				"type": "occ",
				"energy": -0.27746,
				"method": "rhf"
			},
			{
				"type": "occ",
				"energy": -0.25524,
				"method": "rhf"
			},
			{
				"type": "occ",
				"energy": -0.20156,
				"method": "rhf"
			},
			{
				"type": "unocc",
				"energy": -0.02746,
				"method": "rhf"
			},
			{
				"type": "unocc",
				"energy": -0.00879,
				"method": "rhf"
			},
			{
				"type": "unocc",
				"energy": 0.05337,
				"method": "rhf"
			},
			{
				"type": "unocc",
				"energy": 0.06517,
				"method": "rhf"
			},
			{
				"type": "unocc",
				"energy": 0.08408,
				"method": "rhf"
			}
		],
		"cosmo_sigma_profile": { 
			"-0.025": 0.0,
			"-0.024": 0.0,
			"-0.023": 0.0,
			"-0.022": 0.0,
			"-0.021": 0.0,
			"-0.02": 0.0,
			"-0.019": 0.0,
			"-0.018": 0.0,
			"-0.017": 0.0,
			"-0.016": 0.0,
			"-0.015": 0.0,
			"-0.014": 0.0,
			"-0.013": 0.0,
			"-0.012": 0.0,
			"-0.011": 0.0,
			"-0.01": 0.0,
			"-0.009": 0.0,
			"-0.008": 0.0,
			"-0.007": 2.21427439626,
			"-0.006": 7.25138509446,
			"-0.005": 10.6933026064,
			"-0.004": 23.522690816,
			"-0.003": 34.3791057206,
			"-0.002": 37.0940524037,
			"-0.001": 29.4516492122,
			"0.0": 28.9957136075,
			"0.001": 21.0762986724,
			"0.002": 9.690685217,
			"0.003": 11.3785388636,
			"0.004": 13.0585317765,
			"0.005": 5.74916128859,
			"0.006": 2.39466882747,
			"0.007": 3.90364197039,
			"0.008": 2.59327721488,
			"0.009": 3.53263951866,
			"0.01": 3.58433339549,
			"0.011": 3.23355076645,
			"0.012": 3.05249675422,
			"0.013": 2.49318411383,
			"0.014": 1.4384836433,
			"0.015": 0.0131730681673,
			"0.016": 0.0,
			"0.017": 0.0,
			"0.018": 0.0,
			"0.019": 0.0,
			"0.02": 0.0,
			"0.021": 0.0,
			"0.022": 0.0,
			"0.023": 0.0,
			"0.024": 0.0,
			"0.025": 0.0
		}
	}
}
