{
	 "smiles": "OC(=O)C1=CC=CC=N1", 
	 "Tm": 410.15, 
	 "num_atms": 14, 
	 "gaussian": { 
		 "optdone": 1, 
		 "sigma_profile": "yes", 
		 "theory": "DFT", 
		 "functional": "B3LYP", 
		 "basiset": "6-31G**", 
		 "properties": { 
			 "R2extent": 1285.161, 
			 "electric_dipole_moment_norm": 5.57672015525, 
			 "electric_quadrupole_moment_norm": 4.2127132492, 
			 "total_energy": -436.862543274, 
			 "HOMO_LUMO_gap": 0.20033, 
			 "cosmo_polarized_energy": -11.0, 
			 "cosmo_cavitation_energy": 18.71, 
			 "cosmo_dispersion_energy": -14.21, 
			 "cosmo_repulsion_energy": 1.16, 
			 "cosmo_total_nonelectrostatic_energy": 5.67, 
			 "SMD_solvation_energy": 3.92 
		},
		"coords": [
			{
				"x": 2.0086850957,
				"y": -0.9558401098,
				"z": 0.986473372,
				"element": "O" 
			},
			{
				"x": 1.2520044849,
				"y": -0.4840778046,
				"z": -0.0149893106,
				"element": "C" 
			},
			{
				"x": 1.395490676,
				"y": -0.8127191367,
				"z": -1.1710305352,
				"element": "O" 
			},
			{
				"x": 0.1996952096,
				"y": 0.5011854013,
				"z": 0.4351052761,
				"element": "C" 
			},
			{
				"x": -0.6702164364,
				"y": 1.085330147,
				"z": -0.4853873587,
				"element": "C" 
			},
			{
				"x": -1.6188254284,
				"y": 1.9864862216,
				"z": -0.0063014043,
				"element": "C" 
			},
			{
				"x": -1.6566890733,
				"y": 2.2627224299,
				"z": 1.3613104582,
				"element": "C" 
			},
			{
				"x": -0.7413428524,
				"y": 1.6253162003,
				"z": 2.201962488,
				"element": "C" 
			},
			{
				"x": 0.1720299476,
				"y": 0.7595693094,
				"z": 1.7516111562,
				"element": "N" 
			},
			{
				"x": 1.6769891927,
				"y": -0.5253215318,
				"z": 1.8033238974,
				"element": "H" 
			},
			{
				"x": -0.5833580354,
				"y": 0.8238483518,
				"z": -1.5336045007,
				"element": "H" 
			},
			{
				"x": -2.3173199635,
				"y": 2.4661567809,
				"z": -0.6854896609,
				"element": "H" 
			},
			{
				"x": -2.3800290934,
				"y": 2.9583338118,
				"z": 1.7740124531,
				"element": "H" 
			},
			{
				"x": -0.7416137237,
				"y": 1.8163099291,
				"z": 3.2725036693,
				"element": "H" 
			}
		],
		 "valence_orbital": [ 
			{
				"type": "occ",
				"energy": -0.31462,
				"method": "rhf"
			},
			{
				"type": "occ",
				"energy": -0.30976,
				"method": "rhf"
			},
			{
				"type": "occ",
				"energy": -0.3031,
				"method": "rhf"
			},
			{
				"type": "occ",
				"energy": -0.28426,
				"method": "rhf"
			},
			{
				"type": "occ",
				"energy": -0.26727,
				"method": "rhf"
			},
			{
				"type": "unocc",
				"energy": -0.06694,
				"method": "rhf"
			},
			{
				"type": "unocc",
				"energy": -0.04444,
				"method": "rhf"
			},
			{
				"type": "unocc",
				"energy": 0.04792,
				"method": "rhf"
			},
			{
				"type": "unocc",
				"energy": 0.07908,
				"method": "rhf"
			},
			{
				"type": "unocc",
				"energy": 0.12312,
				"method": "rhf"
			}
		],
		"cosmo_sigma_profile": { 
			"-0.025": 0.0,
			"-0.024": 0.0,
			"-0.023": 0.0,
			"-0.022": 0.0,
			"-0.021": 0.0,
			"-0.02": 0.0,
			"-0.019": 0.0,
			"-0.018": 0.0,
			"-0.017": 0.0,
			"-0.016": 0.0,
			"-0.015": 0.0,
			"-0.014": 0.0,
			"-0.013": 0.307148675519,
			"-0.012": 0.487452703142,
			"-0.011": 0.450406205673,
			"-0.01": 0.667761168676,
			"-0.009": 0.700305980634,
			"-0.008": 5.49516432033,
			"-0.007": 10.1348313772,
			"-0.006": 10.1216220411,
			"-0.005": 9.5039401474,
			"-0.004": 9.21334879808,
			"-0.003": 8.21639192974,
			"-0.002": 8.08601226568,
			"-0.001": 12.1847997186,
			"0.0": 15.9944243114,
			"0.001": 14.4903070101,
			"0.002": 5.2950067266,
			"0.003": 3.79478792828,
			"0.004": 3.4442457815,
			"0.005": 3.94038500719,
			"0.006": 3.33577864579,
			"0.007": 2.59402512282,
			"0.008": 2.43329826166,
			"0.009": 4.27676277726,
			"0.01": 5.2160651957,
			"0.011": 4.86833658618,
			"0.012": 4.25689539047,
			"0.013": 1.27886220745,
			"0.014": 0.0323110929308,
			"0.015": 0.0,
			"0.016": 0.0,
			"0.017": 0.0,
			"0.018": 0.0,
			"0.019": 0.0,
			"0.02": 0.0,
			"0.021": 0.0,
			"0.022": 0.0,
			"0.023": 0.0,
			"0.024": 0.0,
			"0.025": 0.0
		}
	}
}
