{
	 "smiles": "CCC1CC(NC(=O)CNC(=O)CBr)C(C)(C)N1O", 
	 "Tm": 419.15, 
	 "num_atms": 41, 
	 "gaussian": { 
		 "optdone": 1, 
		 "sigma_profile": "yes", 
		 "theory": "DFT", 
		 "functional": "B3LYP", 
		 "basiset": "6-31G**", 
		 "properties": { 
			 "R2extent": 11714.3889, 
			 "electric_dipole_moment_norm": 2.31927696276, 
			 "electric_quadrupole_moment_norm": 12.2165058748, 
			 "total_energy": -3431.86165505, 
			 "HOMO_LUMO_gap": 0.20274, 
			 "cosmo_polarized_energy": -17.88, 
			 "cosmo_cavitation_energy": 43.97, 
			 "cosmo_dispersion_energy": -29.26, 
			 "cosmo_repulsion_energy": 2.31, 
			 "cosmo_total_nonelectrostatic_energy": 17.02, 
			 "SMD_solvation_energy": 6.35 
		},
		"coords": [
			{
				"x": -3.6022351555,
				"y": -1.8526888525,
				"z": -1.5591116788,
				"element": "C" 
			},
			{
				"x": -2.1528868977,
				"y": -1.3602415906,
				"z": -1.5007086063,
				"element": "C" 
			},
			{
				"x": -1.9490010347,
				"y": -0.1822155243,
				"z": -0.5459014901,
				"element": "C" 
			},
			{
				"x": -2.1084511534,
				"y": -0.5045978112,
				"z": 0.9590546836,
				"element": "C" 
			},
			{
				"x": -0.8710338042,
				"y": 0.1267355607,
				"z": 1.671586611,
				"element": "C" 
			},
			{
				"x": 0.0929758346,
				"y": -0.886401802,
				"z": 2.079304406,
				"element": "N" 
			},
			{
				"x": 0.3788501665,
				"y": -1.1349984043,
				"z": 3.3858446094,
				"element": "C" 
			},
			{
				"x": -0.1438173958,
				"y": -0.5647744766,
				"z": 4.3376026175,
				"element": "O" 
			},
			{
				"x": 1.4370352356,
				"y": -2.2362722174,
				"z": 3.6033317284,
				"element": "C" 
			},
			{
				"x": 2.7952068304,
				"y": -1.8149758208,
				"z": 3.2731902473,
				"element": "N" 
			},
			{
				"x": 3.2549947409,
				"y": -1.8372733488,
				"z": 2.0082119468,
				"element": "C" 
			},
			{
				"x": 2.5789741607,
				"y": -2.1746669226,
				"z": 1.0333179789,
				"element": "O" 
			},
			{
				"x": 4.6954489961,
				"y": -1.4164243327,
				"z": 1.7333726042,
				"element": "C" 
			},
			{
				"x": 5.8211988233,
				"y": -0.9851036475,
				"z": 3.2997133884,
				"element": "Br" 
			},
			{
				"x": -0.3099302092,
				"y": 1.1181537283,
				"z": 0.6133629677,
				"element": "C" 
			},
			{
				"x": 1.187042219,
				"y": 1.4136841435,
				"z": 0.7245089547,
				"element": "C" 
			},
			{
				"x": -1.1036870994,
				"y": 2.4408296883,
				"z": 0.6582780405,
				"element": "C" 
			},
			{
				"x": -0.5618931295,
				"y": 0.3149028169,
				"z": -0.6130672569,
				"element": "N" 
			},
			{
				"x": -0.4156430595,
				"y": 1.1307125766,
				"z": -1.7888641248,
				"element": "O" 
			},
			{
				"x": -3.9484926178,
				"y": -2.2097186263,
				"z": -0.5827597671,
				"element": "H" 
			},
			{
				"x": -4.2803550517,
				"y": -1.0528783981,
				"z": -1.8781468923,
				"element": "H" 
			},
			{
				"x": -3.7088432053,
				"y": -2.6795736235,
				"z": -2.2682412044,
				"element": "H" 
			},
			{
				"x": -1.4832909448,
				"y": -2.1763912407,
				"z": -1.1999082537,
				"element": "H" 
			},
			{
				"x": -1.8327095434,
				"y": -1.0402062237,
				"z": -2.4996297143,
				"element": "H" 
			},
			{
				"x": -2.6420200313,
				"y": 0.6228128054,
				"z": -0.8382960448,
				"element": "H" 
			},
			{
				"x": -3.0409344851,
				"y": -0.0940186177,
				"z": 1.3547807607,
				"element": "H" 
			},
			{
				"x": -2.126167117,
				"y": -1.5823796221,
				"z": 1.1426726634,
				"element": "H" 
			},
			{
				"x": -1.1526262008,
				"y": 0.6466429525,
				"z": 2.5881666773,
				"element": "H" 
			},
			{
				"x": 0.6184325246,
				"y": -1.3881840827,
				"z": 1.3695031554,
				"element": "H" 
			},
			{
				"x": 1.4049371877,
				"y": -2.5062752912,
				"z": 4.6587913052,
				"element": "H" 
			},
			{
				"x": 1.19830156,
				"y": -3.1142813706,
				"z": 2.9950042269,
				"element": "H" 
			},
			{
				"x": 3.4016968249,
				"y": -1.4703879765,
				"z": 4.0047497924,
				"element": "H" 
			},
			{
				"x": 4.6903923855,
				"y": -0.5245701575,
				"z": 1.1077464965,
				"element": "H" 
			},
			{
				"x": 5.1973524244,
				"y": -2.2237778436,
				"z": 1.2024259125,
				"element": "H" 
			},
			{
				"x": 1.7779151626,
				"y": 0.5036755344,
				"z": 0.5977667412,
				"element": "H" 
			},
			{
				"x": 1.4268043947,
				"y": 1.859496577,
				"z": 1.6950004973,
				"element": "H" 
			},
			{
				"x": 1.4776685765,
				"y": 2.1226529229,
				"z": -0.0569938755,
				"element": "H" 
			},
			{
				"x": -0.8197325203,
				"y": 3.017856513,
				"z": 1.5438365632,
				"element": "H" 
			},
			{
				"x": -2.1848393641,
				"y": 2.27915732,
				"z": 0.7012575294,
				"element": "H" 
			},
			{
				"x": -0.8855457723,
				"y": 3.0372187802,
				"z": -0.2306908083,
				"element": "H" 
			},
			{
				"x": 0.3147077449,
				"y": 0.7014459056,
				"z": -2.2535633883,
				"element": "H" 
			}
		],
		 "valence_orbital": [ 
			{
				"type": "occ",
				"energy": -0.27913,
				"method": "rhf"
			},
			{
				"type": "occ",
				"energy": -0.27493,
				"method": "rhf"
			},
			{
				"type": "occ",
				"energy": -0.24478,
				"method": "rhf"
			},
			{
				"type": "occ",
				"energy": -0.24178,
				"method": "rhf"
			},
			{
				"type": "occ",
				"energy": -0.2229,
				"method": "rhf"
			},
			{
				"type": "unocc",
				"energy": -0.02016,
				"method": "rhf"
			},
			{
				"type": "unocc",
				"energy": -0.00302,
				"method": "rhf"
			},
			{
				"type": "unocc",
				"energy": 0.02369,
				"method": "rhf"
			},
			{
				"type": "unocc",
				"energy": 0.07265,
				"method": "rhf"
			},
			{
				"type": "unocc",
				"energy": 0.0784,
				"method": "rhf"
			}
		],
		"cosmo_sigma_profile": { 
			"-0.025": 0.0,
			"-0.024": 0.0,
			"-0.023": 0.0,
			"-0.022": 0.0,
			"-0.021": 0.0,
			"-0.02": 0.0,
			"-0.019": 0.0,
			"-0.018": 0.0,
			"-0.017": 0.0,
			"-0.016": 0.267275298089,
			"-0.015": 0.798286482088,
			"-0.014": 1.71746884116,
			"-0.013": 1.55633317513,
			"-0.012": 1.02572252817,
			"-0.011": 1.46529250729,
			"-0.01": 1.59685949818,
			"-0.009": 4.38639089066,
			"-0.008": 6.78055734163,
			"-0.007": 7.80707956136,
			"-0.006": 8.6511566469,
			"-0.005": 11.4421291015,
			"-0.004": 18.7766836273,
			"-0.003": 32.3223921183,
			"-0.002": 39.8798220214,
			"-0.001": 36.8579533014,
			"0.0": 38.6824835891,
			"0.001": 36.071501742,
			"0.002": 18.0674722585,
			"0.003": 10.3651286356,
			"0.004": 11.5953600779,
			"0.005": 12.2754260017,
			"0.006": 4.40971329104,
			"0.007": 5.13081310129,
			"0.008": 4.40572577043,
			"0.009": 3.02739723876,
			"0.01": 4.10262573596,
			"0.011": 4.64145909257,
			"0.012": 5.42516287547,
			"0.013": 5.31275580034,
			"0.014": 5.66025141917,
			"0.015": 0.712205057461,
			"0.016": 0.0,
			"0.017": 0.0,
			"0.018": 0.0,
			"0.019": 0.0,
			"0.02": 0.0,
			"0.021": 0.0,
			"0.022": 0.0,
			"0.023": 0.0,
			"0.024": 0.0,
			"0.025": 0.0
		}
	}
}
