{
	 "smiles": "S=C(NCC1=CN=CC=C1)NCC1=CN=CC=C1", 
	 "Tm": 431.15, 
	 "num_atms": 32, 
	 "gaussian": { 
		 "optdone": 1, 
		 "sigma_profile": "yes", 
		 "theory": "DFT", 
		 "functional": "B3LYP", 
		 "basiset": "6-31G**", 
		 "properties": { 
			 "R2extent": 6167.3526, 
			 "electric_dipole_moment_norm": 5.29031284708, 
			 "electric_quadrupole_moment_norm": 21.9023521483, 
			 "total_energy": -1121.0157553, 
			 "HOMO_LUMO_gap": 0.16575, 
			 "cosmo_polarized_energy": -23.16, 
			 "cosmo_cavitation_energy": 37.95, 
			 "cosmo_dispersion_energy": -25.79, 
			 "cosmo_repulsion_energy": 1.99, 
			 "cosmo_total_nonelectrostatic_energy": 14.15, 
			 "SMD_solvation_energy": 1.86 
		},
		"coords": [
			{
				"x": -3.122498064,
				"y": -0.0128574352,
				"z": -3.4615319106,
				"element": "S" 
			},
			{
				"x": -2.2312902663,
				"y": -0.7191965116,
				"z": -2.2128709147,
				"element": "C" 
			},
			{
				"x": -0.9125145701,
				"y": -0.494332696,
				"z": -1.9741349381,
				"element": "N" 
			},
			{
				"x": -0.0744172269,
				"y": 0.431644468,
				"z": -2.7358418949,
				"element": "C" 
			},
			{
				"x": 0.1947109351,
				"y": 1.7313794452,
				"z": -2.0074414863,
				"element": "C" 
			},
			{
				"x": 1.4875891469,
				"y": 2.0658193767,
				"z": -1.5915321494,
				"element": "C" 
			},
			{
				"x": 1.8075940385,
				"y": 3.1923004007,
				"z": -0.9428272493,
				"element": "N" 
			},
			{
				"x": 0.8123442738,
				"y": 4.0465632228,
				"z": -0.6805648449,
				"element": "C" 
			},
			{
				"x": -0.5165415537,
				"y": 3.8185651078,
				"z": -1.0484105543,
				"element": "C" 
			},
			{
				"x": -0.8313119204,
				"y": 2.6426442091,
				"z": -1.7229230711,
				"element": "C" 
			},
			{
				"x": -2.838515353,
				"y": -1.5974912002,
				"z": -1.3545252728,
				"element": "N" 
			},
			{
				"x": -2.1558368705,
				"y": -2.5394802349,
				"z": -0.4747940951,
				"element": "C" 
			},
			{
				"x": -1.6030449445,
				"y": -1.9351591536,
				"z": 0.8086579757,
				"element": "C" 
			},
			{
				"x": -2.2672665033,
				"y": -0.8991336239,
				"z": 1.4806830119,
				"element": "C" 
			},
			{
				"x": -1.851130158,
				"y": -0.3670938673,
				"z": 2.6343980184,
				"element": "N" 
			},
			{
				"x": -0.7271431791,
				"y": -0.8578903768,
				"z": 3.1721524496,
				"element": "C" 
			},
			{
				"x": 0.0206087767,
				"y": -1.8810231094,
				"z": 2.5880597531,
				"element": "C" 
			},
			{
				"x": -0.4273730971,
				"y": -2.4258804988,
				"z": 1.3859385273,
				"element": "C" 
			},
			{
				"x": -0.5449728467,
				"y": -0.77908764,
				"z": -1.0749204407,
				"element": "H" 
			},
			{
				"x": 0.8741277272,
				"y": -0.0699528901,
				"z": -2.9591363021,
				"element": "H" 
			},
			{
				"x": -0.5953964235,
				"y": 0.6122130982,
				"z": -3.6791998357,
				"element": "H" 
			},
			{
				"x": 2.3137342687,
				"y": 1.3839933612,
				"z": -1.7978069153,
				"element": "H" 
			},
			{
				"x": 1.0882759167,
				"y": 4.957210484,
				"z": -0.151366858,
				"element": "H" 
			},
			{
				"x": -1.2830749037,
				"y": 4.5501524317,
				"z": -0.8121988497,
				"element": "H" 
			},
			{
				"x": -1.8496125859,
				"y": 2.4254522815,
				"z": -2.0339820864,
				"element": "H" 
			},
			{
				"x": -3.7948361488,
				"y": -1.7929914009,
				"z": -1.6102725229,
				"element": "H" 
			},
			{
				"x": -1.344335015,
				"y": -3.0468168614,
				"z": -1.0156307289,
				"element": "H" 
			},
			{
				"x": -2.8890644536,
				"y": -3.3129368358,
				"z": -0.2218129083,
				"element": "H" 
			},
			{
				"x": -3.1746426239,
				"y": -0.476462116,
				"z": 1.0535306406,
				"element": "H" 
			},
			{
				"x": -0.4084757384,
				"y": -0.409196999,
				"z": 4.1110610671,
				"element": "H" 
			},
			{
				"x": 0.9306777739,
				"y": -2.2366088605,
				"z": 3.0606653023,
				"element": "H" 
			},
			{
				"x": 0.1291315887,
				"y": -3.2251455755,
				"z": 0.9007790837,
				"element": "H" 
			}
		],
		 "valence_orbital": [ 
			{
				"type": "occ",
				"energy": -0.26467,
				"method": "rhf"
			},
			{
				"type": "occ",
				"energy": -0.25779,
				"method": "rhf"
			},
			{
				"type": "occ",
				"energy": -0.25148,
				"method": "rhf"
			},
			{
				"type": "occ",
				"energy": -0.21586,
				"method": "rhf"
			},
			{
				"type": "occ",
				"energy": -0.20763,
				"method": "rhf"
			},
			{
				"type": "unocc",
				"energy": -0.04188,
				"method": "rhf"
			},
			{
				"type": "unocc",
				"energy": -0.03252,
				"method": "rhf"
			},
			{
				"type": "unocc",
				"energy": -0.02579,
				"method": "rhf"
			},
			{
				"type": "unocc",
				"energy": -0.0145,
				"method": "rhf"
			},
			{
				"type": "unocc",
				"energy": -0.0001,
				"method": "rhf"
			}
		],
		"cosmo_sigma_profile": { 
			"-0.025": 0.0,
			"-0.024": 0.0,
			"-0.023": 0.0,
			"-0.022": 0.0,
			"-0.021": 0.0,
			"-0.02": 0.0,
			"-0.019": 0.0,
			"-0.018": 0.0,
			"-0.017": 0.0,
			"-0.016": 0.0,
			"-0.015": 0.16622251751,
			"-0.014": 0.783235323139,
			"-0.013": 1.36482501516,
			"-0.012": 1.14670456373,
			"-0.011": 1.81999014606,
			"-0.01": 2.51887075668,
			"-0.009": 3.79909085384,
			"-0.008": 6.33756872508,
			"-0.007": 15.1497001347,
			"-0.006": 23.2640258797,
			"-0.005": 22.8321055428,
			"-0.004": 22.9524894397,
			"-0.003": 19.0453886784,
			"-0.002": 16.2622625764,
			"-0.001": 17.4922282559,
			"0.0": 17.1926682836,
			"0.001": 19.2418630676,
			"0.002": 27.1526271623,
			"0.003": 17.3581456713,
			"0.004": 8.19441807442,
			"0.005": 7.8967837886,
			"0.006": 5.41589352824,
			"0.007": 6.23997112715,
			"0.008": 6.93301294146,
			"0.009": 8.06294649238,
			"0.01": 6.60466537214,
			"0.011": 6.69862584967,
			"0.012": 5.95889388454,
			"0.013": 1.63998569147,
			"0.014": 2.00428632506,
			"0.015": 2.03249689546,
			"0.016": 1.4889020544,
			"0.017": 0.819399253375,
			"0.018": 0.0,
			"0.019": 0.0,
			"0.02": 0.0,
			"0.021": 0.0,
			"0.022": 0.0,
			"0.023": 0.0,
			"0.024": 0.0,
			"0.025": 0.0
		}
	}
}
