{
	 "smiles": "OC[C@@H](O)[C@@H](O)[C@@H](O)C=O", 
	 "Tm": 356.15, 
	 "num_atms": 20, 
	 "gaussian": { 
		 "optdone": 1, 
		 "sigma_profile": "yes", 
		 "theory": "DFT", 
		 "functional": "B3LYP", 
		 "basiset": "6-31G**", 
		 "properties": { 
			 "R2extent": 2015.1147, 
			 "electric_dipole_moment_norm": 1.76529222793, 
			 "electric_quadrupole_moment_norm": 9.23652780973, 
			 "total_energy": -572.636197702, 
			 "HOMO_LUMO_gap": 0.21826, 
			 "cosmo_polarized_energy": -15.13, 
			 "cosmo_cavitation_energy": 22.59, 
			 "cosmo_dispersion_energy": -16.76, 
			 "cosmo_repulsion_energy": 1.37, 
			 "cosmo_total_nonelectrostatic_energy": 7.21, 
			 "SMD_solvation_energy": 4.6 
		},
		"coords": [
			{
				"x": 0.4972473111,
				"y": 1.4393009845,
				"z": 1.2541543574,
				"element": "O" 
			},
			{
				"x": 1.0998846575,
				"y": 0.172374915,
				"z": 1.4079350399,
				"element": "C" 
			},
			{
				"x": 0.6705943062,
				"y": -0.8284069859,
				"z": 0.3226965867,
				"element": "C" 
			},
			{
				"x": 1.4317755782,
				"y": -2.0365039736,
				"z": 0.4271389911,
				"element": "O" 
			},
			{
				"x": -0.7905519594,
				"y": -1.2775002266,
				"z": 0.4690845976,
				"element": "C" 
			},
			{
				"x": -1.6780712644,
				"y": -0.1657113486,
				"z": 0.5540904128,
				"element": "O" 
			},
			{
				"x": -1.2517638328,
				"y": -2.1704205186,
				"z": -0.7068374527,
				"element": "C" 
			},
			{
				"x": -1.4141907262,
				"y": -1.3557901504,
				"z": -1.8474290369,
				"element": "O" 
			},
			{
				"x": -0.3132430904,
				"y": -3.3217915298,
				"z": -1.0292109025,
				"element": "C" 
			},
			{
				"x": 0.159075921,
				"y": -3.4268069251,
				"z": -2.146092563,
				"element": "O" 
			},
			{
				"x": -0.4585311027,
				"y": 1.2702816618,
				"z": 1.2321065822,
				"element": "H" 
			},
			{
				"x": 0.9015728477,
				"y": -0.2746712617,
				"z": 2.3970104519,
				"element": "H" 
			},
			{
				"x": 2.1840695146,
				"y": 0.3199047067,
				"z": 1.3355501555,
				"element": "H" 
			},
			{
				"x": 0.7971577358,
				"y": -0.3587301092,
				"z": -0.6631146761,
				"element": "H" 
			},
			{
				"x": 2.2718245431,
				"y": -1.9177842616,
				"z": -0.0331344387,
				"element": "H" 
			},
			{
				"x": -0.8830853743,
				"y": -1.8326883352,
				"z": 1.4103829764,
				"element": "H" 
			},
			{
				"x": -1.8124395211,
				"y": 0.1247651742,
				"z": -0.3640101036,
				"element": "H" 
			},
			{
				"x": -2.2228765131,
				"y": -2.6089159905,
				"z": -0.4203004421,
				"element": "H" 
			},
			{
				"x": -0.8444275011,
				"y": -1.7561736675,
				"z": -2.5315365032,
				"element": "H" 
			},
			{
				"x": -0.1391215295,
				"y": -4.073532158,
				"z": -0.2416840326,
				"element": "H" 
			}
		],
		 "valence_orbital": [ 
			{
				"type": "occ",
				"energy": -0.31384,
				"method": "rhf"
			},
			{
				"type": "occ",
				"energy": -0.2988,
				"method": "rhf"
			},
			{
				"type": "occ",
				"energy": -0.2818,
				"method": "rhf"
			},
			{
				"type": "occ",
				"energy": -0.27608,
				"method": "rhf"
			},
			{
				"type": "occ",
				"energy": -0.25506,
				"method": "rhf"
			},
			{
				"type": "unocc",
				"energy": -0.0368,
				"method": "rhf"
			},
			{
				"type": "unocc",
				"energy": 0.05181,
				"method": "rhf"
			},
			{
				"type": "unocc",
				"energy": 0.06939,
				"method": "rhf"
			},
			{
				"type": "unocc",
				"energy": 0.09482,
				"method": "rhf"
			},
			{
				"type": "unocc",
				"energy": 0.10573,
				"method": "rhf"
			}
		],
		"cosmo_sigma_profile": { 
			"-0.025": 0.0,
			"-0.024": 0.0,
			"-0.023": 0.0,
			"-0.022": 0.0,
			"-0.021": 0.0,
			"-0.02": 0.0,
			"-0.019": 0.0,
			"-0.018": 0.0,
			"-0.017": 0.403092667859,
			"-0.016": 1.07658346127,
			"-0.015": 1.21007170233,
			"-0.014": 0.911679165837,
			"-0.013": 1.0338419085,
			"-0.012": 1.90203053464,
			"-0.011": 1.42885246332,
			"-0.01": 1.50481975813,
			"-0.009": 3.88779478614,
			"-0.008": 8.30947862392,
			"-0.007": 9.58124286365,
			"-0.006": 9.56924897682,
			"-0.005": 9.99698439083,
			"-0.004": 12.6915202547,
			"-0.003": 11.4136767784,
			"-0.002": 9.89819253302,
			"-0.001": 9.72964294641,
			"0.0": 8.12804750108,
			"0.001": 5.83614207969,
			"0.002": 5.79583888267,
			"0.003": 6.31137838305,
			"0.004": 6.19522186749,
			"0.005": 4.9476637995,
			"0.006": 4.34461524027,
			"0.007": 5.39960238199,
			"0.008": 5.64586875291,
			"0.009": 4.44704788822,
			"0.01": 6.716327867,
			"0.011": 5.93439468753,
			"0.012": 4.25610022743,
			"0.013": 2.96754952743,
			"0.014": 2.02899664098,
			"0.015": 1.67976351995,
			"0.016": 0.0,
			"0.017": 0.0,
			"0.018": 0.0,
			"0.019": 0.0,
			"0.02": 0.0,
			"0.021": 0.0,
			"0.022": 0.0,
			"0.023": 0.0,
			"0.024": 0.0,
			"0.025": 0.0
		}
	}
}
