{
	 "smiles": "COC1=CC=C(C=C1)C(C)=O", 
	 "Tm": 311.35, 
	 "num_atms": 21, 
	 "gaussian": { 
		 "optdone": 1, 
		 "sigma_profile": "yes", 
		 "theory": "DFT", 
		 "functional": "B3LYP", 
		 "basiset": "6-31G**", 
		 "properties": { 
			 "R2extent": 2658.4321, 
			 "electric_dipole_moment_norm": 3.20467634715, 
			 "electric_quadrupole_moment_norm": 13.3294122068, 
			 "total_energy": -499.425984228, 
			 "HOMO_LUMO_gap": 0.18467, 
			 "cosmo_polarized_energy": -9.9, 
			 "cosmo_cavitation_energy": 24.85, 
			 "cosmo_dispersion_energy": -18.29, 
			 "cosmo_repulsion_energy": 1.46, 
			 "cosmo_total_nonelectrostatic_energy": 8.02, 
			 "SMD_solvation_energy": 5.82 
		},
		"coords": [
			{
				"x": -3.1486977835,
				"y": -0.4280334789,
				"z": -0.4987665608,
				"element": "C" 
			},
			{
				"x": -2.1335405736,
				"y": -0.0768650053,
				"z": -1.4292983574,
				"element": "O" 
			},
			{
				"x": -0.8367761067,
				"y": -0.3023970395,
				"z": -1.0922101668,
				"element": "C" 
			},
			{
				"x": -0.414822419,
				"y": -0.8642856582,
				"z": 0.1231353178,
				"element": "C" 
			},
			{
				"x": 0.9440697113,
				"y": -1.047559017,
				"z": 0.3563039458,
				"element": "C" 
			},
			{
				"x": 1.9065676734,
				"y": -0.6835962118,
				"z": -0.5961110783,
				"element": "C" 
			},
			{
				"x": 1.4662111091,
				"y": -0.1218445067,
				"z": -1.8086596076,
				"element": "C" 
			},
			{
				"x": 0.1149894878,
				"y": 0.0676311391,
				"z": -2.0569286778,
				"element": "C" 
			},
			{
				"x": 3.3455082092,
				"y": -0.9110558453,
				"z": -0.2735766918,
				"element": "C" 
			},
			{
				"x": 4.3981138512,
				"y": -0.5188318009,
				"z": -1.2995546835,
				"element": "C" 
			},
			{
				"x": 3.6803154629,
				"y": -1.4028403094,
				"z": 0.7961763096,
				"element": "O" 
			},
			{
				"x": -3.0456870531,
				"y": 0.1300347634,
				"z": 0.440083009,
				"element": "H" 
			},
			{
				"x": -4.0946402502,
				"y": -0.1625877345,
				"z": -0.9726501516,
				"element": "H" 
			},
			{
				"x": -3.142399929,
				"y": -1.5033934146,
				"z": -0.2818429176,
				"element": "H" 
			},
			{
				"x": -1.1325406787,
				"y": -1.1565110299,
				"z": 0.8805040804,
				"element": "H" 
			},
			{
				"x": 1.2910259342,
				"y": -1.4801743983,
				"z": 1.2890107448,
				"element": "H" 
			},
			{
				"x": 2.1831828737,
				"y": 0.1716478789,
				"z": -2.5687436057,
				"element": "H" 
			},
			{
				"x": -0.2355626434,
				"y": 0.4998664097,
				"z": -2.9883159726,
				"element": "H" 
			},
			{
				"x": 5.3825612304,
				"y": -0.7554750359,
				"z": -0.8950372091,
				"element": "H" 
			},
			{
				"x": 4.347203972,
				"y": 0.5516969362,
				"z": -1.5273789821,
				"element": "H" 
			},
			{
				"x": 4.2527179219,
				"y": -1.0606266411,
				"z": -2.2407387449,
				"element": "H" 
			}
		],
		 "valence_orbital": [ 
			{
				"type": "occ",
				"energy": -0.33203,
				"method": "rhf"
			},
			{
				"type": "occ",
				"energy": -0.32014,
				"method": "rhf"
			},
			{
				"type": "occ",
				"energy": -0.26054,
				"method": "rhf"
			},
			{
				"type": "occ",
				"energy": -0.24003,
				"method": "rhf"
			},
			{
				"type": "occ",
				"energy": -0.22831,
				"method": "rhf"
			},
			{
				"type": "unocc",
				"energy": -0.04364,
				"method": "rhf"
			},
			{
				"type": "unocc",
				"energy": -0.00829,
				"method": "rhf"
			},
			{
				"type": "unocc",
				"energy": 0.0519,
				"method": "rhf"
			},
			{
				"type": "unocc",
				"energy": 0.08755,
				"method": "rhf"
			},
			{
				"type": "unocc",
				"energy": 0.09755,
				"method": "rhf"
			}
		],
		"cosmo_sigma_profile": { 
			"-0.025": 0.0,
			"-0.024": 0.0,
			"-0.023": 0.0,
			"-0.022": 0.0,
			"-0.021": 0.0,
			"-0.02": 0.0,
			"-0.019": 0.0,
			"-0.018": 0.0,
			"-0.017": 0.0,
			"-0.016": 0.0,
			"-0.015": 0.0,
			"-0.014": 0.0,
			"-0.013": 0.0,
			"-0.012": 0.0,
			"-0.011": 0.0,
			"-0.01": 0.0,
			"-0.009": 0.0,
			"-0.008": 0.0,
			"-0.007": 2.67601580338,
			"-0.006": 16.4596133703,
			"-0.005": 21.2766976429,
			"-0.004": 20.5941889487,
			"-0.003": 18.4121654031,
			"-0.002": 12.7981875405,
			"-0.001": 14.086222117,
			"0.0": 11.2709963792,
			"0.001": 8.66312609981,
			"0.002": 11.9547076775,
			"0.003": 14.4966402036,
			"0.004": 15.6494193456,
			"0.005": 4.6260862931,
			"0.006": 3.24761506595,
			"0.007": 2.19819010926,
			"0.008": 3.09284832252,
			"0.009": 3.69745619661,
			"0.01": 2.22357528635,
			"0.011": 2.64290813428,
			"0.012": 4.02824249093,
			"0.013": 2.74802285652,
			"0.014": 0.697252785006,
			"0.015": 0.0,
			"0.016": 0.0,
			"0.017": 0.0,
			"0.018": 0.0,
			"0.019": 0.0,
			"0.02": 0.0,
			"0.021": 0.0,
			"0.022": 0.0,
			"0.023": 0.0,
			"0.024": 0.0,
			"0.025": 0.0
		}
	}
}
