{
	 "smiles": "CC1=CC=C(C=CCC(O)=O)C=C1", 
	 "Tm": 379.15, 
	 "num_atms": 25, 
	 "gaussian": { 
		 "optdone": 1, 
		 "sigma_profile": "yes", 
		 "theory": "DFT", 
		 "functional": "B3LYP", 
		 "basiset": "6-31G**", 
		 "properties": { 
			 "R2extent": 5059.0941, 
			 "electric_dipole_moment_norm": 5.73733813366, 
			 "electric_quadrupole_moment_norm": 28.476821436, 
			 "total_energy": -576.855176674, 
			 "HOMO_LUMO_gap": 0.17996, 
			 "cosmo_polarized_energy": -13.64, 
			 "cosmo_cavitation_energy": 29.42, 
			 "cosmo_dispersion_energy": -21.18, 
			 "cosmo_repulsion_energy": 1.7, 
			 "cosmo_total_nonelectrostatic_energy": 9.94, 
			 "SMD_solvation_energy": 6.21 
		},
		"coords": [
			{
				"x": -0.494360669,
				"y": 0.1018848902,
				"z": -4.1133573674,
				"element": "C" 
			},
			{
				"x": -0.7772098593,
				"y": 0.1393331272,
				"z": -2.6311087836,
				"element": "C" 
			},
			{
				"x": -0.5136400528,
				"y": -0.9618098245,
				"z": -1.8095276609,
				"element": "C" 
			},
			{
				"x": -0.7955414405,
				"y": -0.9240852112,
				"z": -0.445046058,
				"element": "C" 
			},
			{
				"x": -1.352081726,
				"y": 0.217658251,
				"z": 0.1536365739,
				"element": "C" 
			},
			{
				"x": -1.6271720738,
				"y": 0.1996612723,
				"z": 1.5966674144,
				"element": "C" 
			},
			{
				"x": -2.1676959755,
				"y": 1.175417937,
				"z": 2.3495984492,
				"element": "C" 
			},
			{
				"x": -2.3916870376,
				"y": 1.065131685,
				"z": 3.8322370008,
				"element": "C" 
			},
			{
				"x": -1.4325178168,
				"y": 1.9139942399,
				"z": 4.6857501171,
				"element": "C" 
			},
			{
				"x": -0.1972192989,
				"y": 2.0930749201,
				"z": 4.161945231,
				"element": "O" 
			},
			{
				"x": -1.7249459364,
				"y": 2.3639830374,
				"z": 5.7647125331,
				"element": "O" 
			},
			{
				"x": -1.6139511206,
				"y": 1.3262057567,
				"z": -0.674456045,
				"element": "C" 
			},
			{
				"x": -1.3313253863,
				"y": 1.2840467617,
				"z": -2.033687649,
				"element": "C" 
			},
			{
				"x": 0.0189272029,
				"y": 1.0105261497,
				"z": -4.4456258217,
				"element": "H" 
			},
			{
				"x": -1.4232913811,
				"y": 0.0280302105,
				"z": -4.692229857,
				"element": "H" 
			},
			{
				"x": 0.1293902097,
				"y": -0.7555301388,
				"z": -4.380405389,
				"element": "H" 
			},
			{
				"x": -0.0812393074,
				"y": -1.8607123237,
				"z": -2.2415315215,
				"element": "H" 
			},
			{
				"x": -0.5795797303,
				"y": -1.7943057153,
				"z": 0.1701062934,
				"element": "H" 
			},
			{
				"x": -1.3664608073,
				"y": -0.7354379675,
				"z": 2.0954366646,
				"element": "H" 
			},
			{
				"x": -2.4560539783,
				"y": 2.1214292156,
				"z": 1.893515673,
				"element": "H" 
			},
			{
				"x": -3.4035002563,
				"y": 1.3665231606,
				"z": 4.1180043417,
				"element": "H" 
			},
			{
				"x": -2.2624792008,
				"y": 0.0251571549,
				"z": 4.1596215002,
				"element": "H" 
			},
			{
				"x": -0.171710611,
				"y": 1.6869041842,
				"z": 3.2785020954,
				"element": "H" 
			},
			{
				"x": -2.0404246114,
				"y": 2.2317085851,
				"z": -0.2533320675,
				"element": "H" 
			},
			{
				"x": -1.5420291352,
				"y": 2.1562106418,
				"z": -2.6480256673,
				"element": "H" 
			}
		],
		 "valence_orbital": [ 
			{
				"type": "occ",
				"energy": -0.30997,
				"method": "rhf"
			},
			{
				"type": "occ",
				"energy": -0.30736,
				"method": "rhf"
			},
			{
				"type": "occ",
				"energy": -0.26617,
				"method": "rhf"
			},
			{
				"type": "occ",
				"energy": -0.2616,
				"method": "rhf"
			},
			{
				"type": "occ",
				"energy": -0.229,
				"method": "rhf"
			},
			{
				"type": "unocc",
				"energy": -0.04904,
				"method": "rhf"
			},
			{
				"type": "unocc",
				"energy": -0.01192,
				"method": "rhf"
			},
			{
				"type": "unocc",
				"energy": 0.01544,
				"method": "rhf"
			},
			{
				"type": "unocc",
				"energy": 0.04312,
				"method": "rhf"
			},
			{
				"type": "unocc",
				"energy": 0.08797,
				"method": "rhf"
			}
		],
		"cosmo_sigma_profile": { 
			"-0.025": 0.0,
			"-0.024": 0.0,
			"-0.023": 0.0,
			"-0.022": 0.0,
			"-0.021": 0.0,
			"-0.02": 0.0,
			"-0.019": 0.0,
			"-0.018": 0.0,
			"-0.017": 0.0,
			"-0.016": 0.0,
			"-0.015": 0.0,
			"-0.014": 0.0366600518497,
			"-0.013": 0.448432411407,
			"-0.012": 1.10084304795,
			"-0.011": 0.86435951068,
			"-0.01": 1.30961758771,
			"-0.009": 1.32450110118,
			"-0.008": 2.59673053409,
			"-0.007": 8.46454379446,
			"-0.006": 15.2861750096,
			"-0.005": 17.7630136197,
			"-0.004": 21.6932685544,
			"-0.003": 20.1203037395,
			"-0.002": 16.5919348049,
			"-0.001": 16.0369039286,
			"0.0": 16.4874167361,
			"0.001": 11.6540241938,
			"0.002": 10.8926924844,
			"0.003": 11.3184190717,
			"0.004": 12.040158739,
			"0.005": 12.8201042805,
			"0.006": 7.9300875591,
			"0.007": 2.06999512593,
			"0.008": 2.66650187173,
			"0.009": 2.5485394507,
			"0.01": 5.28243095491,
			"0.011": 4.82162060976,
			"0.012": 6.01516941934,
			"0.013": 3.11868173614,
			"0.014": 0.14949850688,
			"0.015": 0.0,
			"0.016": 0.0,
			"0.017": 0.0,
			"0.018": 0.0,
			"0.019": 0.0,
			"0.02": 0.0,
			"0.021": 0.0,
			"0.022": 0.0,
			"0.023": 0.0,
			"0.024": 0.0,
			"0.025": 0.0
		}
	}
}
