{
	 "smiles": "COC(=O)C1=C(O)C=CC(=C1)S(Cl)(=O)=O", 
	 "Tm": 355.15, 
	 "num_atms": 22, 
	 "gaussian": { 
		 "optdone": 1, 
		 "sigma_profile": "yes", 
		 "theory": "DFT", 
		 "functional": "B3LYP", 
		 "basiset": "6-31G**", 
		 "properties": { 
			 "R2extent": 6367.6212, 
			 "electric_dipole_moment_norm": 7.34159382287, 
			 "electric_quadrupole_moment_norm": 11.6399226247, 
			 "total_energy": -1543.51351713, 
			 "HOMO_LUMO_gap": 0.17885, 
			 "cosmo_polarized_energy": -13.88, 
			 "cosmo_cavitation_energy": 30.59, 
			 "cosmo_dispersion_energy": -22.83, 
			 "cosmo_repulsion_energy": 1.74, 
			 "cosmo_total_nonelectrostatic_energy": 9.5, 
			 "SMD_solvation_energy": 5.86 
		},
		"coords": [
			{
				"x": 2.7813420997,
				"y": 0.5509646002,
				"z": -1.3163649518,
				"element": "C" 
			},
			{
				"x": 1.3555454204,
				"y": 0.3430902272,
				"z": -1.4158184727,
				"element": "O" 
			},
			{
				"x": 0.7191593997,
				"y": 0.0270068156,
				"z": -0.2456904605,
				"element": "C" 
			},
			{
				"x": 1.3148818368,
				"y": -0.0716364601,
				"z": 0.8030646096,
				"element": "O" 
			},
			{
				"x": -0.7434693717,
				"y": -0.1710643315,
				"z": -0.4205467225,
				"element": "C" 
			},
			{
				"x": -1.4351909851,
				"y": -0.0588841155,
				"z": -1.655661313,
				"element": "C" 
			},
			{
				"x": -0.8474765087,
				"y": 0.245752599,
				"z": -2.8207653023,
				"element": "O" 
			},
			{
				"x": -2.8268961204,
				"y": -0.277879729,
				"z": -1.6968443072,
				"element": "C" 
			},
			{
				"x": -3.5271708798,
				"y": -0.5971839995,
				"z": -0.5494934741,
				"element": "C" 
			},
			{
				"x": -2.8316235185,
				"y": -0.7047299391,
				"z": 0.665419682,
				"element": "C" 
			},
			{
				"x": -1.4632524428,
				"y": -0.4947844165,
				"z": 0.7379194454,
				"element": "C" 
			},
			{
				"x": -3.7243576095,
				"y": -1.1295400264,
				"z": 2.1418116515,
				"element": "S" 
			},
			{
				"x": -4.3383348337,
				"y": 0.7951984925,
				"z": 2.8466109165,
				"element": "Cl" 
			},
			{
				"x": -2.7991290746,
				"y": -1.646534333,
				"z": 3.1416521456,
				"element": "O" 
			},
			{
				"x": -4.9509502079,
				"y": -1.8271259441,
				"z": 1.7747896416,
				"element": "O" 
			},
			{
				"x": 3.2674335658,
				"y": -0.3551690148,
				"z": -0.9505079763,
				"element": "H" 
			},
			{
				"x": 2.9929426904,
				"y": 1.3753796611,
				"z": -0.6331402851,
				"element": "H" 
			},
			{
				"x": 3.1128507399,
				"y": 0.7887863354,
				"z": -2.326240097,
				"element": "H" 
			},
			{
				"x": 0.1083725383,
				"y": 0.3713125496,
				"z": -2.6638665876,
				"element": "H" 
			},
			{
				"x": -3.3256579972,
				"y": -0.1921593763,
				"z": -2.6556956351,
				"element": "H" 
			},
			{
				"x": -4.5963659031,
				"y": -0.7749539221,
				"z": -0.5813967872,
				"element": "H" 
			},
			{
				"x": -0.9274528379,
				"y": -0.5840456726,
				"z": 1.6762642803,
				"element": "H" 
			}
		],
		 "valence_orbital": [ 
			{
				"type": "occ",
				"energy": -0.32609,
				"method": "rhf"
			},
			{
				"type": "occ",
				"energy": -0.30994,
				"method": "rhf"
			},
			{
				"type": "occ",
				"energy": -0.30966,
				"method": "rhf"
			},
			{
				"type": "occ",
				"energy": -0.29625,
				"method": "rhf"
			},
			{
				"type": "occ",
				"energy": -0.26558,
				"method": "rhf"
			},
			{
				"type": "unocc",
				"energy": -0.08673,
				"method": "rhf"
			},
			{
				"type": "unocc",
				"energy": -0.07593,
				"method": "rhf"
			},
			{
				"type": "unocc",
				"energy": -0.03716,
				"method": "rhf"
			},
			{
				"type": "unocc",
				"energy": 0.01615,
				"method": "rhf"
			},
			{
				"type": "unocc",
				"energy": 0.06112,
				"method": "rhf"
			}
		],
		"cosmo_sigma_profile": { 
			"-0.025": 0.0,
			"-0.024": 0.0,
			"-0.023": 0.0,
			"-0.022": 0.0,
			"-0.021": 0.0,
			"-0.02": 0.0,
			"-0.019": 0.0,
			"-0.018": 0.0,
			"-0.017": 0.0,
			"-0.016": 0.0,
			"-0.015": 0.0,
			"-0.014": 0.0,
			"-0.013": 0.0,
			"-0.012": 0.236889242264,
			"-0.011": 0.600334536551,
			"-0.01": 0.866963534195,
			"-0.009": 2.31747860022,
			"-0.008": 4.83680707943,
			"-0.007": 10.3596157793,
			"-0.006": 15.6292380825,
			"-0.005": 16.4963219662,
			"-0.004": 19.3206458091,
			"-0.003": 16.4623251275,
			"-0.002": 18.1839560012,
			"-0.001": 21.7912466536,
			"0.0": 19.2091396152,
			"0.001": 14.0813218035,
			"0.002": 10.6740410882,
			"0.003": 14.8719430908,
			"0.004": 14.5494383776,
			"0.005": 4.90193281941,
			"0.006": 6.98535039263,
			"0.007": 8.10336302687,
			"0.008": 12.6503671504,
			"0.009": 8.33220270372,
			"0.01": 3.55191538808,
			"0.011": 3.22758925101,
			"0.012": 0.0468523685619,
			"0.013": 0.0,
			"0.014": 0.0,
			"0.015": 0.0,
			"0.016": 0.0,
			"0.017": 0.0,
			"0.018": 0.0,
			"0.019": 0.0,
			"0.02": 0.0,
			"0.021": 0.0,
			"0.022": 0.0,
			"0.023": 0.0,
			"0.024": 0.0,
			"0.025": 0.0
		}
	}
}
