{
	 "smiles": "CCCC(N)C(O)=O", 
	 "Tm": 578.15, 
	 "num_atms": 19, 
	 "gaussian": { 
		 "optdone": 1, 
		 "sigma_profile": "yes", 
		 "theory": "DFT", 
		 "functional": "B3LYP", 
		 "basiset": "6-31G**", 
		 "properties": { 
			 "R2extent": 1558.7205, 
			 "electric_dipole_moment_norm": 5.14306195763, 
			 "electric_quadrupole_moment_norm": 14.2082446178, 
			 "total_energy": -402.381149365, 
			 "HOMO_LUMO_gap": 0.26533, 
			 "cosmo_polarized_energy": -13.62, 
			 "cosmo_cavitation_energy": 21.27, 
			 "cosmo_dispersion_energy": -15.72, 
			 "cosmo_repulsion_energy": 1.34, 
			 "cosmo_total_nonelectrostatic_energy": 6.89, 
			 "SMD_solvation_energy": 4.47 
		},
		"coords": [
			{
				"x": -0.2463430827,
				"y": -0.8533029116,
				"z": -2.9182710059,
				"element": "C" 
			},
			{
				"x": 0.6895598425,
				"y": 0.1305612797,
				"z": -2.206568354,
				"element": "C" 
			},
			{
				"x": 0.3789297949,
				"y": 0.3285267497,
				"z": -0.7123713523,
				"element": "C" 
			},
			{
				"x": 0.536461909,
				"y": -0.9075693905,
				"z": 0.1958600731,
				"element": "C" 
			},
			{
				"x": -0.050675559,
				"y": -0.7408411654,
				"z": 1.5434069232,
				"element": "N" 
			},
			{
				"x": 2.0071079965,
				"y": -1.3586507198,
				"z": 0.3672090002,
				"element": "C" 
			},
			{
				"x": 2.2819604121,
				"y": -1.8173265098,
				"z": 1.596277446,
				"element": "O" 
			},
			{
				"x": 2.827559584,
				"y": -1.3361044258,
				"z": -0.5225644253,
				"element": "O" 
			},
			{
				"x": -0.0296670296,
				"y": -0.8863422515,
				"z": -3.9906528599,
				"element": "H" 
			},
			{
				"x": -0.1339106623,
				"y": -1.8750730867,
				"z": -2.5394526792,
				"element": "H" 
			},
			{
				"x": -1.2988062688,
				"y": -0.5663948944,
				"z": -2.8023368973,
				"element": "H" 
			},
			{
				"x": 0.6111764921,
				"y": 1.1111178491,
				"z": -2.6928678512,
				"element": "H" 
			},
			{
				"x": 1.7259624713,
				"y": -0.1981553319,
				"z": -2.3113156147,
				"element": "H" 
			},
			{
				"x": 1.0145418391,
				"y": 1.131094313,
				"z": -0.314360596,
				"element": "H" 
			},
			{
				"x": -0.6602021311,
				"y": 0.671579283,
				"z": -0.607350325,
				"element": "H" 
			},
			{
				"x": 0.0264709495,
				"y": -1.7624367986,
				"z": -0.2654672491,
				"element": "H" 
			},
			{
				"x": -1.0459900349,
				"y": -0.9415507627,
				"z": 1.5384527724,
				"element": "H" 
			},
			{
				"x": 0.0562316019,
				"y": 0.2219007801,
				"z": 1.8574298059,
				"element": "H" 
			},
			{
				"x": 1.4442318754,
				"y": -1.680832006,
				"z": 2.102743189,
				"element": "H" 
			}
		],
		 "valence_orbital": [ 
			{
				"type": "occ",
				"energy": -0.3402,
				"method": "rhf"
			},
			{
				"type": "occ",
				"energy": -0.33031,
				"method": "rhf"
			},
			{
				"type": "occ",
				"energy": -0.29883,
				"method": "rhf"
			},
			{
				"type": "occ",
				"energy": -0.28871,
				"method": "rhf"
			},
			{
				"type": "occ",
				"energy": -0.24975,
				"method": "rhf"
			},
			{
				"type": "unocc",
				"energy": 0.01558,
				"method": "rhf"
			},
			{
				"type": "unocc",
				"energy": 0.06413,
				"method": "rhf"
			},
			{
				"type": "unocc",
				"energy": 0.08914,
				"method": "rhf"
			},
			{
				"type": "unocc",
				"energy": 0.10258,
				"method": "rhf"
			},
			{
				"type": "unocc",
				"energy": 0.12886,
				"method": "rhf"
			}
		],
		"cosmo_sigma_profile": { 
			"-0.025": 0.0,
			"-0.024": 0.0,
			"-0.023": 0.0,
			"-0.022": 0.0,
			"-0.021": 0.0,
			"-0.02": 0.0,
			"-0.019": 0.0,
			"-0.018": 0.0,
			"-0.017": 0.0,
			"-0.016": 0.0,
			"-0.015": 0.0,
			"-0.014": 0.0,
			"-0.013": 0.0,
			"-0.012": 1.09075642799,
			"-0.011": 2.94514617095,
			"-0.01": 3.44970284448,
			"-0.009": 4.0966823172,
			"-0.008": 4.68186537095,
			"-0.007": 5.21497445044,
			"-0.006": 5.95132486255,
			"-0.005": 6.37459602461,
			"-0.004": 8.45122583222,
			"-0.003": 12.283643793,
			"-0.002": 15.1109433303,
			"-0.001": 14.9361307803,
			"0.0": 16.292751552,
			"0.001": 15.9100837432,
			"0.002": 8.23688568957,
			"0.003": 3.24287883031,
			"0.004": 2.67797973924,
			"0.005": 2.93094835523,
			"0.006": 3.3036477338,
			"0.007": 3.32336669254,
			"0.008": 2.84731609564,
			"0.009": 2.98432005952,
			"0.01": 3.91363825314,
			"0.011": 5.76324305491,
			"0.012": 4.55597414399,
			"0.013": 3.09528982621,
			"0.014": 1.20231645063,
			"0.015": 0.0,
			"0.016": 0.0,
			"0.017": 0.0,
			"0.018": 0.0,
			"0.019": 0.0,
			"0.02": 0.0,
			"0.021": 0.0,
			"0.022": 0.0,
			"0.023": 0.0,
			"0.024": 0.0,
			"0.025": 0.0
		}
	}
}
