{
	 "smiles": "COC(=O)C(C)OC1=CC=C(OC2=NC=C(C=C2Cl)C(F)(F)F)C=C1", 
	 "Tm": 329.15, 
	 "num_atms": 38, 
	 "gaussian": { 
		 "optdone": 1, 
		 "sigma_profile": "yes", 
		 "theory": "DFT", 
		 "functional": "B3LYP", 
		 "basiset": "6-31G**", 
		 "properties": { 
			 "R2extent": 18285.8235, 
			 "electric_dipole_moment_norm": 4.40317100054, 
			 "electric_quadrupole_moment_norm": 11.6450183649, 
			 "total_energy": -1732.88463438, 
			 "HOMO_LUMO_gap": 0.18561, 
			 "cosmo_polarized_energy": -13.45, 
			 "cosmo_cavitation_energy": 47.36, 
			 "cosmo_dispersion_energy": -32.61, 
			 "cosmo_repulsion_energy": 2.45, 
			 "cosmo_total_nonelectrostatic_energy": 17.21, 
			 "SMD_solvation_energy": 9.79 
		},
		"coords": [
			{
				"x": 5.8716751428,
				"y": -2.1475019704,
				"z": 0.439680068,
				"element": "C" 
			},
			{
				"x": 5.1913401948,
				"y": -1.8832574682,
				"z": -0.8006135688,
				"element": "O" 
			},
			{
				"x": 4.0956199168,
				"y": -1.1000315234,
				"z": -0.7069494478,
				"element": "C" 
			},
			{
				"x": 3.6971187497,
				"y": -0.6241867036,
				"z": 0.3322065557,
				"element": "O" 
			},
			{
				"x": 3.464304404,
				"y": -0.937699295,
				"z": -2.0964659919,
				"element": "C" 
			},
			{
				"x": 2.7578440109,
				"y": -2.226128967,
				"z": -2.534197021,
				"element": "C" 
			},
			{
				"x": 2.6655215696,
				"y": 0.2397566077,
				"z": -2.179100299,
				"element": "O" 
			},
			{
				"x": 1.3065515208,
				"y": 0.2042599398,
				"z": -1.9283063284,
				"element": "C" 
			},
			{
				"x": 0.4610731098,
				"y": 0.5816084356,
				"z": -2.9761426196,
				"element": "C" 
			},
			{
				"x": -0.9175943655,
				"y": 0.6419749956,
				"z": -2.778263088,
				"element": "C" 
			},
			{
				"x": -1.4373806603,
				"y": 0.3119690881,
				"z": -1.5312514441,
				"element": "C" 
			},
			{
				"x": -2.8299578441,
				"y": 0.2709968276,
				"z": -1.3711512473,
				"element": "O" 
			},
			{
				"x": -3.4647999185,
				"y": 1.3114270901,
				"z": -0.7914241475,
				"element": "C" 
			},
			{
				"x": -2.7848967602,
				"y": 2.3822685831,
				"z": -0.4103033314,
				"element": "N" 
			},
			{
				"x": -3.4452519475,
				"y": 3.3968105763,
				"z": 0.1597979113,
				"element": "C" 
			},
			{
				"x": -4.8200803731,
				"y": 3.3826769868,
				"z": 0.3711799636,
				"element": "C" 
			},
			{
				"x": -5.5434390189,
				"y": 2.2529964743,
				"z": -0.0355390462,
				"element": "C" 
			},
			{
				"x": -4.8652637942,
				"y": 1.2015725165,
				"z": -0.6246501987,
				"element": "C" 
			},
			{
				"x": -5.716891689,
				"y": -0.2245107765,
				"z": -1.1549384955,
				"element": "Cl" 
			},
			{
				"x": -5.5203329454,
				"y": 4.5185769848,
				"z": 1.0583524548,
				"element": "C" 
			},
			{
				"x": -4.800354262,
				"y": 5.6584831056,
				"z": 1.0020037991,
				"element": "F" 
			},
			{
				"x": -5.7441247884,
				"y": 4.2523881348,
				"z": 2.3658631802,
				"element": "F" 
			},
			{
				"x": -6.7275848559,
				"y": 4.7644482127,
				"z": 0.5005858121,
				"element": "F" 
			},
			{
				"x": -0.607366947,
				"y": -0.0662401734,
				"z": -0.4801372232,
				"element": "C" 
			},
			{
				"x": 0.7729694042,
				"y": -0.1119578841,
				"z": -0.6733395381,
				"element": "C" 
			},
			{
				"x": 5.2048191415,
				"y": -2.650952265,
				"z": 1.1438889514,
				"element": "H" 
			},
			{
				"x": 6.2219838488,
				"y": -1.2153171763,
				"z": 0.8890569289,
				"element": "H" 
			},
			{
				"x": 6.7135946893,
				"y": -2.7895198358,
				"z": 0.1822239177,
				"element": "H" 
			},
			{
				"x": 4.2955833758,
				"y": -0.7488198741,
				"z": -2.7842248437,
				"element": "H" 
			},
			{
				"x": 2.3413159311,
				"y": -2.0977995041,
				"z": -3.5366517719,
				"element": "H" 
			},
			{
				"x": 1.9449051048,
				"y": -2.4917149475,
				"z": -1.8542187862,
				"element": "H" 
			},
			{
				"x": 3.4798117231,
				"y": -3.0458959322,
				"z": -2.5550263665,
				"element": "H" 
			},
			{
				"x": 0.897827217,
				"y": 0.8313754793,
				"z": -3.9373517322,
				"element": "H" 
			},
			{
				"x": -1.5876808132,
				"y": 0.9291834469,
				"z": -3.5816073343,
				"element": "H" 
			},
			{
				"x": -2.8489543466,
				"y": 4.2565702056,
				"z": 0.4508787424,
				"element": "H" 
			},
			{
				"x": -6.6180009513,
				"y": 2.2005115121,
				"z": 0.0986182725,
				"element": "H" 
			},
			{
				"x": -1.0393491231,
				"y": -0.3138415596,
				"z": 0.4838193667,
				"element": "H" 
			},
			{
				"x": 1.4435463493,
				"y": -0.367479347,
				"z": 0.1378979468,
				"element": "H" 
			}
		],
		 "valence_orbital": [ 
			{
				"type": "occ",
				"energy": -0.28522,
				"method": "rhf"
			},
			{
				"type": "occ",
				"energy": -0.2749,
				"method": "rhf"
			},
			{
				"type": "occ",
				"energy": -0.25845,
				"method": "rhf"
			},
			{
				"type": "occ",
				"energy": -0.25135,
				"method": "rhf"
			},
			{
				"type": "occ",
				"energy": -0.23177,
				"method": "rhf"
			},
			{
				"type": "unocc",
				"energy": -0.04616,
				"method": "rhf"
			},
			{
				"type": "unocc",
				"energy": -0.03297,
				"method": "rhf"
			},
			{
				"type": "unocc",
				"energy": -0.00816,
				"method": "rhf"
			},
			{
				"type": "unocc",
				"energy": -0.00221,
				"method": "rhf"
			},
			{
				"type": "unocc",
				"energy": -0.00019,
				"method": "rhf"
			}
		],
		"cosmo_sigma_profile": { 
			"-0.025": 0.0,
			"-0.024": 0.0,
			"-0.023": 0.0,
			"-0.022": 0.0,
			"-0.021": 0.0,
			"-0.02": 0.0,
			"-0.019": 0.0,
			"-0.018": 0.0,
			"-0.017": 0.0,
			"-0.016": 0.0,
			"-0.015": 0.0,
			"-0.014": 0.0,
			"-0.013": 0.0,
			"-0.012": 0.0,
			"-0.011": 0.0,
			"-0.01": 0.377065095096,
			"-0.009": 1.63421377416,
			"-0.008": 3.30688221275,
			"-0.007": 10.5553415205,
			"-0.006": 16.2683372176,
			"-0.005": 23.5931310537,
			"-0.004": 28.4282946136,
			"-0.003": 34.7400423801,
			"-0.002": 33.2481949663,
			"-0.001": 35.4228197167,
			"0.0": 25.400844961,
			"0.001": 22.0425915641,
			"0.002": 39.9644498158,
			"0.003": 42.77996577,
			"0.004": 18.0535273892,
			"0.005": 9.20079124993,
			"0.006": 6.61493160437,
			"0.007": 7.07228572075,
			"0.008": 6.26787295407,
			"0.009": 4.76809099875,
			"0.01": 5.86382219375,
			"0.011": 4.29397580517,
			"0.012": 1.26613305172,
			"0.013": 0.299259905849,
			"0.014": 0.0,
			"0.015": 0.0,
			"0.016": 0.0,
			"0.017": 0.0,
			"0.018": 0.0,
			"0.019": 0.0,
			"0.02": 0.0,
			"0.021": 0.0,
			"0.022": 0.0,
			"0.023": 0.0,
			"0.024": 0.0,
			"0.025": 0.0
		}
	}
}
