{
	 "smiles": "OC(=O)CN1C=CC(=O)NC1=O", 
	 "Tm": 553.15, 
	 "num_atms": 18, 
	 "gaussian": { 
		 "optdone": 1, 
		 "sigma_profile": "yes", 
		 "theory": "DFT", 
		 "functional": "B3LYP", 
		 "basiset": "6-31G**", 
		 "properties": { 
			 "R2extent": 2885.9227, 
			 "electric_dipole_moment_norm": 5.04266757778, 
			 "electric_quadrupole_moment_norm": 10.0115512529, 
			 "total_energy": -642.69355725, 
			 "HOMO_LUMO_gap": 0.20542, 
			 "cosmo_polarized_energy": -20.8, 
			 "cosmo_cavitation_energy": 23.63, 
			 "cosmo_dispersion_energy": -17.24, 
			 "cosmo_repulsion_energy": 1.39, 
			 "cosmo_total_nonelectrostatic_energy": 7.78, 
			 "SMD_solvation_energy": 7.19 
		},
		"coords": [
			{
				"x": 2.0352043096,
				"y": 1.7640170594,
				"z": 0.6181212262,
				"element": "O" 
			},
			{
				"x": 0.9788886641,
				"y": 0.987708841,
				"z": 0.3006293579,
				"element": "C" 
			},
			{
				"x": 1.02484911,
				"y": 0.0654876569,
				"z": -0.4779500224,
				"element": "O" 
			},
			{
				"x": -0.2628387034,
				"y": 1.4671235158,
				"z": 1.0420861001,
				"element": "C" 
			},
			{
				"x": -1.4066452693,
				"y": 0.6006648706,
				"z": 0.8281576319,
				"element": "N" 
			},
			{
				"x": -2.0134955403,
				"y": 0.5178227253,
				"z": -0.4092060083,
				"element": "C" 
			},
			{
				"x": -3.059008189,
				"y": -0.2962536618,
				"z": -0.6652253712,
				"element": "C" 
			},
			{
				"x": -3.5835438092,
				"y": -1.1605387995,
				"z": 0.3828203561,
				"element": "C" 
			},
			{
				"x": -4.5175152437,
				"y": -1.9389915981,
				"z": 0.2884789923,
				"element": "O" 
			},
			{
				"x": -2.886869619,
				"y": -1.0257091918,
				"z": 1.6046097622,
				"element": "N" 
			},
			{
				"x": -1.813312276,
				"y": -0.2106087711,
				"z": 1.9005521234,
				"element": "C" 
			},
			{
				"x": -1.2712682241,
				"y": -0.182368117,
				"z": 2.9934563434,
				"element": "O" 
			},
			{
				"x": 2.795028593,
				"y": 1.4250887791,
				"z": 0.1151212418,
				"element": "H" 
			},
			{
				"x": -0.4872560772,
				"y": 2.491360629,
				"z": 0.7234864084,
				"element": "H" 
			},
			{
				"x": -0.0588411294,
				"y": 1.4860822345,
				"z": 2.1142324583,
				"element": "H" 
			},
			{
				"x": -1.5877517447,
				"y": 1.1628732714,
				"z": -1.1691318476,
				"element": "H" 
			},
			{
				"x": -3.5209147451,
				"y": -0.3351947828,
				"z": -1.6418035875,
				"element": "H" 
			},
			{
				"x": -3.2022101063,
				"y": -1.6148646611,
				"z": 2.365964835,
				"element": "H" 
			}
		],
		 "valence_orbital": [ 
			{
				"type": "occ",
				"energy": -0.30534,
				"method": "rhf"
			},
			{
				"type": "occ",
				"energy": -0.29813,
				"method": "rhf"
			},
			{
				"type": "occ",
				"energy": -0.2863,
				"method": "rhf"
			},
			{
				"type": "occ",
				"energy": -0.26353,
				"method": "rhf"
			},
			{
				"type": "occ",
				"energy": -0.24768,
				"method": "rhf"
			},
			{
				"type": "unocc",
				"energy": -0.04226,
				"method": "rhf"
			},
			{
				"type": "unocc",
				"energy": -0.01388,
				"method": "rhf"
			},
			{
				"type": "unocc",
				"energy": 0.00798,
				"method": "rhf"
			},
			{
				"type": "unocc",
				"energy": 0.05579,
				"method": "rhf"
			},
			{
				"type": "unocc",
				"energy": 0.07519,
				"method": "rhf"
			}
		],
		"cosmo_sigma_profile": { 
			"-0.025": 0.0,
			"-0.024": 0.0,
			"-0.023": 0.0,
			"-0.022": 0.0,
			"-0.021": 0.0,
			"-0.02": 0.0,
			"-0.019": 0.538852596285,
			"-0.018": 0.827936480782,
			"-0.017": 1.19499769955,
			"-0.016": 1.10029596283,
			"-0.015": 1.91254346829,
			"-0.014": 1.96304056353,
			"-0.013": 0.761813725264,
			"-0.012": 1.96323199259,
			"-0.011": 4.17965820823,
			"-0.01": 5.34615357628,
			"-0.009": 5.00882623999,
			"-0.008": 6.59533609922,
			"-0.007": 7.87509961268,
			"-0.006": 8.4809993744,
			"-0.005": 8.21564818048,
			"-0.004": 10.2553177848,
			"-0.003": 10.8113564,
			"-0.002": 11.6972058226,
			"-0.001": 9.3140749113,
			"0.0": 8.28478002577,
			"0.001": 8.77487190201,
			"0.002": 6.23397657462,
			"0.003": 5.34585471906,
			"0.004": 5.26103177437,
			"0.005": 4.28487396008,
			"0.006": 5.5047081929,
			"0.007": 5.04202021914,
			"0.008": 5.248329994,
			"0.009": 5.13341243968,
			"0.01": 6.03873365144,
			"0.011": 8.92793017588,
			"0.012": 8.77304866966,
			"0.013": 6.35398721246,
			"0.014": 1.21786856784,
			"0.015": 0.0,
			"0.016": 0.0,
			"0.017": 0.0,
			"0.018": 0.0,
			"0.019": 0.0,
			"0.02": 0.0,
			"0.021": 0.0,
			"0.022": 0.0,
			"0.023": 0.0,
			"0.024": 0.0,
			"0.025": 0.0
		}
	}
}
