{
	 "smiles": "OC(=O)C1CCCCN1CC1=CC=C(F)C=C1", 
	 "Tm": 492.15, 
	 "num_atms": 33, 
	 "gaussian": { 
		 "optdone": 1, 
		 "sigma_profile": "yes", 
		 "theory": "DFT", 
		 "functional": "B3LYP", 
		 "basiset": "6-31G**", 
		 "properties": { 
			 "R2extent": 5116.5682, 
			 "electric_dipole_moment_norm": 1.58014358208, 
			 "electric_quadrupole_moment_norm": 15.661037714, 
			 "total_energy": -810.065288529, 
			 "HOMO_LUMO_gap": 0.20332, 
			 "cosmo_polarized_energy": -11.4, 
			 "cosmo_cavitation_energy": 35.35, 
			 "cosmo_dispersion_energy": -24.63, 
			 "cosmo_repulsion_energy": 1.9, 
			 "cosmo_total_nonelectrostatic_energy": 12.63, 
			 "SMD_solvation_energy": 6.36 
		},
		"coords": [
			{
				"x": -0.9203653234,
				"y": -0.0824566742,
				"z": 2.7168147014,
				"element": "O" 
			},
			{
				"x": 0.4100008441,
				"y": 0.00464352,
				"z": 2.9426310142,
				"element": "C" 
			},
			{
				"x": 0.9172575256,
				"y": -0.3557579088,
				"z": 3.9837505599,
				"element": "O" 
			},
			{
				"x": 1.2081858419,
				"y": 0.6377195763,
				"z": 1.801485719,
				"element": "C" 
			},
			{
				"x": 1.5681354263,
				"y": 2.0858301134,
				"z": 2.1932043619,
				"element": "C" 
			},
			{
				"x": 2.5644262492,
				"y": 2.6965854078,
				"z": 1.1852038466,
				"element": "C" 
			},
			{
				"x": 2.2897453899,
				"y": 2.1949614968,
				"z": -0.2533358205,
				"element": "C" 
			},
			{
				"x": 0.8334892504,
				"y": 1.7289913668,
				"z": -0.3821128409,
				"element": "C" 
			},
			{
				"x": 0.5115045032,
				"y": 0.6039915648,
				"z": 0.5176017351,
				"element": "N" 
			},
			{
				"x": 0.5789620864,
				"y": -0.7088245529,
				"z": -0.1243088606,
				"element": "C" 
			},
			{
				"x": -0.5331556475,
				"y": -0.9344158228,
				"z": -1.1317027313,
				"element": "C" 
			},
			{
				"x": -1.8578286705,
				"y": -0.6096177659,
				"z": -0.802857585,
				"element": "C" 
			},
			{
				"x": -2.8966454129,
				"y": -0.8508394699,
				"z": -1.6991910769,
				"element": "C" 
			},
			{
				"x": -2.5985024178,
				"y": -1.4228759141,
				"z": -2.9327132422,
				"element": "C" 
			},
			{
				"x": -3.6025856355,
				"y": -1.6567782831,
				"z": -3.8060652642,
				"element": "F" 
			},
			{
				"x": -1.2993124225,
				"y": -1.7546346245,
				"z": -3.293128751,
				"element": "C" 
			},
			{
				"x": -0.2701116837,
				"y": -1.5023568721,
				"z": -2.3826876836,
				"element": "C" 
			},
			{
				"x": -1.2925450132,
				"y": -0.4732203055,
				"z": 3.5261268416,
				"element": "H" 
			},
			{
				"x": 2.1532307253,
				"y": 0.0634301819,
				"z": 1.7845467106,
				"element": "H" 
			},
			{
				"x": 0.6424692948,
				"y": 2.6720148054,
				"z": 2.2252472209,
				"element": "H" 
			},
			{
				"x": 1.9842427217,
				"y": 2.0847133374,
				"z": 3.2038954642,
				"element": "H" 
			},
			{
				"x": 2.4888030079,
				"y": 3.7886248601,
				"z": 1.230803214,
				"element": "H" 
			},
			{
				"x": 3.5891254674,
				"y": 2.4438428035,
				"z": 1.479920798,
				"element": "H" 
			},
			{
				"x": 2.5045643424,
				"y": 2.9780055454,
				"z": -0.9889570514,
				"element": "H" 
			},
			{
				"x": 2.9530949275,
				"y": 1.3547929097,
				"z": -0.4939480268,
				"element": "H" 
			},
			{
				"x": 0.611209319,
				"y": 1.4119085194,
				"z": -1.4042808539,
				"element": "H" 
			},
			{
				"x": 0.1594711258,
				"y": 2.5698160786,
				"z": -0.1706218306,
				"element": "H" 
			},
			{
				"x": 1.5568365397,
				"y": -0.8959017,
				"z": -0.6082419242,
				"element": "H" 
			},
			{
				"x": 0.4883687355,
				"y": -1.4617904485,
				"z": 0.6690501612,
				"element": "H" 
			},
			{
				"x": -2.058323117,
				"y": -0.1590194137,
				"z": 0.1639754339,
				"element": "H" 
			},
			{
				"x": -3.9258697371,
				"y": -0.6048530339,
				"z": -1.4596791971,
				"element": "H" 
			},
			{
				"x": -1.1066384086,
				"y": -2.1924937972,
				"z": -4.2666401193,
				"element": "H" 
			},
			{
				"x": 0.7523601657,
				"y": -1.7534355001,
				"z": -2.6542849229,
				"element": "H" 
			}
		],
		 "valence_orbital": [ 
			{
				"type": "occ",
				"energy": -0.31176,
				"method": "rhf"
			},
			{
				"type": "occ",
				"energy": -0.27639,
				"method": "rhf"
			},
			{
				"type": "occ",
				"energy": -0.25608,
				"method": "rhf"
			},
			{
				"type": "occ",
				"energy": -0.23696,
				"method": "rhf"
			},
			{
				"type": "occ",
				"energy": -0.21114,
				"method": "rhf"
			},
			{
				"type": "unocc",
				"energy": -0.00782,
				"method": "rhf"
			},
			{
				"type": "unocc",
				"energy": -0.00119,
				"method": "rhf"
			},
			{
				"type": "unocc",
				"energy": 0.01001,
				"method": "rhf"
			},
			{
				"type": "unocc",
				"energy": 0.06426,
				"method": "rhf"
			},
			{
				"type": "unocc",
				"energy": 0.0861,
				"method": "rhf"
			}
		],
		"cosmo_sigma_profile": { 
			"-0.025": 0.0,
			"-0.024": 0.0,
			"-0.023": 0.0,
			"-0.022": 0.0,
			"-0.021": 0.0,
			"-0.02": 0.0,
			"-0.019": 0.0,
			"-0.018": 0.526794917602,
			"-0.017": 0.885989383357,
			"-0.016": 0.738301726274,
			"-0.015": 1.38950004901,
			"-0.014": 0.599021227704,
			"-0.013": 0.157938820397,
			"-0.012": 0.776454773519,
			"-0.011": 0.996743377548,
			"-0.01": 0.845077403766,
			"-0.009": 0.495748293787,
			"-0.008": 0.488827951494,
			"-0.007": 3.01104816641,
			"-0.006": 6.49575417123,
			"-0.005": 8.78193620537,
			"-0.004": 16.9966170759,
			"-0.003": 35.4453643412,
			"-0.002": 38.3298279712,
			"-0.001": 28.3258184288,
			"0.0": 20.6456663255,
			"0.001": 19.9943888649,
			"0.002": 16.5790212865,
			"0.003": 15.3030885121,
			"0.004": 22.3138887494,
			"0.005": 14.0951313257,
			"0.006": 2.30907662894,
			"0.007": 2.4406510187,
			"0.008": 2.44802132359,
			"0.009": 1.94801737486,
			"0.01": 2.72447924085,
			"0.011": 3.65920913196,
			"0.012": 5.81701005949,
			"0.013": 1.74404666582,
			"0.014": 0.0658129061614,
			"0.015": 0.0,
			"0.016": 0.0,
			"0.017": 0.0,
			"0.018": 0.0,
			"0.019": 0.0,
			"0.02": 0.0,
			"0.021": 0.0,
			"0.022": 0.0,
			"0.023": 0.0,
			"0.024": 0.0,
			"0.025": 0.0
		}
	}
}
