{
	 "smiles": "CCCCCCCCCCCCCCCCC=C", 
	 "Tm": 290.15, 
	 "num_atms": 54, 
	 "gaussian": { 
		 "optdone": 1, 
		 "sigma_profile": "yes", 
		 "theory": "DFT", 
		 "functional": "B3LYP", 
		 "basiset": "6-31G**", 
		 "properties": { 
			 "R2extent": 7840.6293, 
			 "electric_dipole_moment_norm": 0.39495317444, 
			 "electric_quadrupole_moment_norm": 3.13403389261, 
			 "total_energy": -707.626093013, 
			 "HOMO_LUMO_gap": 0.27385, 
			 "cosmo_polarized_energy": -2.27, 
			 "cosmo_cavitation_energy": 51.52, 
			 "cosmo_dispersion_energy": -31.95, 
			 "cosmo_repulsion_energy": 2.55, 
			 "cosmo_total_nonelectrostatic_energy": 22.13, 
			 "SMD_solvation_energy": 7.28 
		},
		"coords": [
			{
				"x": -0.0063166173,
				"y": -4.4652623533,
				"z": 0.6400167794,
				"element": "C" 
			},
			{
				"x": -0.3624916953,
				"y": -3.5542360288,
				"z": -0.5404316657,
				"element": "C" 
			},
			{
				"x": 0.1168729661,
				"y": -2.0953635076,
				"z": -0.4277914306,
				"element": "C" 
			},
			{
				"x": 1.6511311277,
				"y": -1.8997944296,
				"z": -0.3879011499,
				"element": "C" 
			},
			{
				"x": 2.2688269501,
				"y": -1.8057041796,
				"z": 1.0235055456,
				"element": "C" 
			},
			{
				"x": 1.9749818389,
				"y": -0.4960825519,
				"z": 1.7949937096,
				"element": "C" 
			},
			{
				"x": 3.0710135593,
				"y": 0.584119125,
				"z": 1.701295755,
				"element": "C" 
			},
			{
				"x": 3.3312991791,
				"y": 1.1930832826,
				"z": 0.3113006391,
				"element": "C" 
			},
			{
				"x": 2.190827775,
				"y": 2.0439612299,
				"z": -0.2775857161,
				"element": "C" 
			},
			{
				"x": 1.9290608495,
				"y": 3.3562322733,
				"z": 0.4792025425,
				"element": "C" 
			},
			{
				"x": 0.9671208935,
				"y": 4.3214244414,
				"z": -0.2362529624,
				"element": "C" 
			},
			{
				"x": -0.5048234565,
				"y": 3.8834529132,
				"z": -0.3700732866,
				"element": "C" 
			},
			{
				"x": -1.2935553902,
				"y": 3.8066330555,
				"z": 0.9592385467,
				"element": "C" 
			},
			{
				"x": -1.3823470913,
				"y": 2.4137267843,
				"z": 1.6136627964,
				"element": "C" 
			},
			{
				"x": -2.255313586,
				"y": 1.3863957546,
				"z": 0.8703476785,
				"element": "C" 
			},
			{
				"x": -3.7640617816,
				"y": 1.7053175193,
				"z": 0.8842600232,
				"element": "C" 
			},
			{
				"x": -4.5819570091,
				"y": 0.6760015024,
				"z": 0.153157962,
				"element": "C" 
			},
			{
				"x": -5.5356193414,
				"y": -0.0808280948,
				"z": 0.6969129093,
				"element": "C" 
			},
			{
				"x": 1.0757050314,
				"y": -4.5945332343,
				"z": 0.7446562342,
				"element": "H" 
			},
			{
				"x": -0.4420113659,
				"y": -5.4616764425,
				"z": 0.5089193746,
				"element": "H" 
			},
			{
				"x": -0.3862712465,
				"y": -4.0596343907,
				"z": 1.5849710667,
				"element": "H" 
			},
			{
				"x": -1.4532465055,
				"y": -3.5486882436,
				"z": -0.6653350298,
				"element": "H" 
			},
			{
				"x": 0.0440602474,
				"y": -3.9882678847,
				"z": -1.4645851522,
				"element": "H" 
			},
			{
				"x": -0.2896963522,
				"y": -1.5495045393,
				"z": -1.2883930798,
				"element": "H" 
			},
			{
				"x": -0.3414015851,
				"y": -1.6324984983,
				"z": 0.4571669578,
				"element": "H" 
			},
			{
				"x": 2.1276161281,
				"y": -2.7269538744,
				"z": -0.9320893375,
				"element": "H" 
			},
			{
				"x": 1.9098902116,
				"y": -0.9937694275,
				"z": -0.9471729743,
				"element": "H" 
			},
			{
				"x": 1.9148939325,
				"y": -2.6551087584,
				"z": 1.6177051853,
				"element": "H" 
			},
			{
				"x": 3.3573255854,
				"y": -1.9334043176,
				"z": 0.9460937268,
				"element": "H" 
			},
			{
				"x": 1.0098848044,
				"y": -0.0830591199,
				"z": 1.4738099397,
				"element": "H" 
			},
			{
				"x": 1.8475514245,
				"y": -0.7328213373,
				"z": 2.8586092318,
				"element": "H" 
			},
			{
				"x": 2.8297524375,
				"y": 1.3889118985,
				"z": 2.4079635372,
				"element": "H" 
			},
			{
				"x": 4.0109281232,
				"y": 0.1455936212,
				"z": 2.063902711,
				"element": "H" 
			},
			{
				"x": 3.5816503988,
				"y": 0.3907652894,
				"z": -0.3938306209,
				"element": "H" 
			},
			{
				"x": 4.2311257911,
				"y": 1.820783499,
				"z": 0.3744766572,
				"element": "H" 
			},
			{
				"x": 1.2699754094,
				"y": 1.4495929543,
				"z": -0.3325235736,
				"element": "H" 
			},
			{
				"x": 2.4479783818,
				"y": 2.2906789265,
				"z": -1.3172177514,
				"element": "H" 
			},
			{
				"x": 2.889578677,
				"y": 3.8734569819,
				"z": 0.6133090663,
				"element": "H" 
			},
			{
				"x": 1.5624046148,
				"y": 3.1472910665,
				"z": 1.4918062788,
				"element": "H" 
			},
			{
				"x": 1.3630830759,
				"y": 4.5171398235,
				"z": -1.2427089287,
				"element": "H" 
			},
			{
				"x": 0.9878690549,
				"y": 5.2875479752,
				"z": 0.2867376758,
				"element": "H" 
			},
			{
				"x": -0.9972032634,
				"y": 4.6095259881,
				"z": -1.0287300391,
				"element": "H" 
			},
			{
				"x": -0.5637110727,
				"y": 2.9251263835,
				"z": -0.901555271,
				"element": "H" 
			},
			{
				"x": -0.8434263304,
				"y": 4.5040878381,
				"z": 1.6784060741,
				"element": "H" 
			},
			{
				"x": -2.3115941681,
				"y": 4.1805788815,
				"z": 0.7951115292,
				"element": "H" 
			},
			{
				"x": -0.3739885844,
				"y": 1.997972406,
				"z": 1.7251509041,
				"element": "H" 
			},
			{
				"x": -1.7736158906,
				"y": 2.5283469835,
				"z": 2.6340433178,
				"element": "H" 
			},
			{
				"x": -1.9172983143,
				"y": 1.2866505352,
				"z": -0.1700528642,
				"element": "H" 
			},
			{
				"x": -2.1085400035,
				"y": 0.3997852448,
				"z": 1.3273552156,
				"element": "H" 
			},
			{
				"x": -3.9315348421,
				"y": 2.6880260049,
				"z": 0.4210928424,
				"element": "H" 
			},
			{
				"x": -4.1129982921,
				"y": 1.785579534,
				"z": 1.9219100352,
				"element": "H" 
			},
			{
				"x": -4.3479877416,
				"y": 0.549885081,
				"z": -0.9055513585,
				"element": "H" 
			},
			{
				"x": -5.8025857958,
				"y": 0.0070254495,
				"z": 1.7478693626,
				"element": "H" 
			},
			{
				"x": -6.0877111462,
				"y": -0.8128090336,
				"z": 0.1145203808,
				"element": "H" 
			}
		],
		 "valence_orbital": [ 
			{
				"type": "occ",
				"energy": -0.30324,
				"method": "rhf"
			},
			{
				"type": "occ",
				"energy": -0.29803,
				"method": "rhf"
			},
			{
				"type": "occ",
				"energy": -0.29702,
				"method": "rhf"
			},
			{
				"type": "occ",
				"energy": -0.29136,
				"method": "rhf"
			},
			{
				"type": "occ",
				"energy": -0.24803,
				"method": "rhf"
			},
			{
				"type": "unocc",
				"energy": 0.02582,
				"method": "rhf"
			},
			{
				"type": "unocc",
				"energy": 0.0631,
				"method": "rhf"
			},
			{
				"type": "unocc",
				"energy": 0.08547,
				"method": "rhf"
			},
			{
				"type": "unocc",
				"energy": 0.0894,
				"method": "rhf"
			},
			{
				"type": "unocc",
				"energy": 0.09233,
				"method": "rhf"
			}
		],
		"cosmo_sigma_profile": { 
			"-0.025": 0.0,
			"-0.024": 0.0,
			"-0.023": 0.0,
			"-0.022": 0.0,
			"-0.021": 0.0,
			"-0.02": 0.0,
			"-0.019": 0.0,
			"-0.018": 0.0,
			"-0.017": 0.0,
			"-0.016": 0.0,
			"-0.015": 0.0,
			"-0.014": 0.0,
			"-0.013": 0.0,
			"-0.012": 0.0,
			"-0.011": 0.0,
			"-0.01": 0.0,
			"-0.009": 0.0,
			"-0.008": 0.0,
			"-0.007": 0.0,
			"-0.006": 0.0,
			"-0.005": 0.899355999504,
			"-0.004": 5.02360337378,
			"-0.003": 11.4985460035,
			"-0.002": 46.7180494944,
			"-0.001": 97.2539178025,
			"0.0": 97.5424751905,
			"0.001": 79.2306336024,
			"0.002": 37.8801403067,
			"0.003": 4.79554946474,
			"0.004": 4.13150785959,
			"0.005": 3.13582535284,
			"0.006": 3.08113086761,
			"0.007": 2.7615598174,
			"0.008": 1.02787023153,
			"0.009": 0.0,
			"0.01": 0.0,
			"0.011": 0.0,
			"0.012": 0.0,
			"0.013": 0.0,
			"0.014": 0.0,
			"0.015": 0.0,
			"0.016": 0.0,
			"0.017": 0.0,
			"0.018": 0.0,
			"0.019": 0.0,
			"0.02": 0.0,
			"0.021": 0.0,
			"0.022": 0.0,
			"0.023": 0.0,
			"0.024": 0.0,
			"0.025": 0.0
		}
	}
}
