{
	 "smiles": "OC1=C2N=C(C=CC2=CC=C1)N1CCCCC1", 
	 "Tm": 343.15, 
	 "num_atms": 33, 
	 "gaussian": { 
		 "optdone": 1, 
		 "sigma_profile": "yes", 
		 "theory": "DFT", 
		 "functional": "B3LYP", 
		 "basiset": "6-31G**", 
		 "properties": { 
			 "R2extent": 5452.2498, 
			 "electric_dipole_moment_norm": 1.15879078785, 
			 "electric_quadrupole_moment_norm": 13.8683966283, 
			 "total_energy": -727.869982802, 
			 "HOMO_LUMO_gap": 0.1506, 
			 "cosmo_polarized_energy": -13.8, 
			 "cosmo_cavitation_energy": 34.17, 
			 "cosmo_dispersion_energy": -25.5, 
			 "cosmo_repulsion_energy": 1.96, 
			 "cosmo_total_nonelectrostatic_energy": 10.63, 
			 "SMD_solvation_energy": 3.82 
		},
		"coords": [
			{
				"x": -2.8044441574,
				"y": -0.7883136612,
				"z": 1.9242072485,
				"element": "O" 
			},
			{
				"x": -2.0354492133,
				"y": -0.2232089859,
				"z": 2.8979182982,
				"element": "C" 
			},
			{
				"x": -0.7204372996,
				"y": 0.2021765461,
				"z": 2.5173957065,
				"element": "C" 
			},
			{
				"x": -0.3220194882,
				"y": 0.0216807386,
				"z": 1.2360192144,
				"element": "N" 
			},
			{
				"x": 0.8918404577,
				"y": 0.4155864394,
				"z": 0.8679432067,
				"element": "C" 
			},
			{
				"x": 1.8045216373,
				"y": 1.0168357279,
				"z": 1.802467061,
				"element": "C" 
			},
			{
				"x": 1.4005427217,
				"y": 1.1973638603,
				"z": 3.0977963351,
				"element": "C" 
			},
			{
				"x": 0.104274234,
				"y": 0.7970238676,
				"z": 3.5203747049,
				"element": "C" 
			},
			{
				"x": -0.3690394602,
				"y": 0.9583497482,
				"z": 4.8474163248,
				"element": "C" 
			},
			{
				"x": -1.6379994798,
				"y": 0.5389953051,
				"z": 5.1766696132,
				"element": "C" 
			},
			{
				"x": -2.4711418879,
				"y": -0.0525517478,
				"z": 4.1987352436,
				"element": "C" 
			},
			{
				"x": 1.257041246,
				"y": 0.237723335,
				"z": -0.4494033604,
				"element": "N" 
			},
			{
				"x": 2.6001897244,
				"y": 0.5821341731,
				"z": -0.9165044505,
				"element": "C" 
			},
			{
				"x": 2.722624994,
				"y": 0.3827738959,
				"z": -2.4335755661,
				"element": "C" 
			},
			{
				"x": 1.514756716,
				"y": 0.991943494,
				"z": -3.1557152913,
				"element": "C" 
			},
			{
				"x": 0.1927139713,
				"y": 0.3287459547,
				"z": -2.6848954773,
				"element": "C" 
			},
			{
				"x": 0.3818284403,
				"y": -0.4708211048,
				"z": -1.3840490308,
				"element": "C" 
			},
			{
				"x": -3.6567641894,
				"y": -1.0270622824,
				"z": 2.3118176215,
				"element": "H" 
			},
			{
				"x": 2.7978949088,
				"y": 1.3199262177,
				"z": 1.497029775,
				"element": "H" 
			},
			{
				"x": 2.0757050138,
				"y": 1.6495146269,
				"z": 3.8205221173,
				"element": "H" 
			},
			{
				"x": 0.2798355121,
				"y": 1.4137726054,
				"z": 5.5906927046,
				"element": "H" 
			},
			{
				"x": -2.0126581373,
				"y": 0.6572084994,
				"z": 6.1889501316,
				"element": "H" 
			},
			{
				"x": -3.4726433213,
				"y": -0.3795695759,
				"z": 4.4729807192,
				"element": "H" 
			},
			{
				"x": 3.3673995084,
				"y": -0.0120652924,
				"z": -0.3943432063,
				"element": "H" 
			},
			{
				"x": 2.8045546348,
				"y": 1.638009993,
				"z": -0.6876666664,
				"element": "H" 
			},
			{
				"x": 3.6565491921,
				"y": 0.846621841,
				"z": -2.7689992905,
				"element": "H" 
			},
			{
				"x": 2.8044217335,
				"y": -0.6848834812,
				"z": -2.6699517292,
				"element": "H" 
			},
			{
				"x": 1.4886986615,
				"y": 2.067323418,
				"z": -2.9403041459,
				"element": "H" 
			},
			{
				"x": 1.633260887,
				"y": 0.8982701119,
				"z": -4.2403924759,
				"element": "H" 
			},
			{
				"x": -0.1933318798,
				"y": -0.3530388541,
				"z": -3.4518621218,
				"element": "H" 
			},
			{
				"x": -0.5735452242,
				"y": 1.0957122613,
				"z": -2.5317490649,
				"element": "H" 
			},
			{
				"x": -0.5669333541,
				"y": -0.6354534883,
				"z": -0.8761358538,
				"element": "H" 
			},
			{
				"x": 0.8073528977,
				"y": -1.4607241865,
				"z": -1.6077882949,
				"element": "H" 
			}
		],
		 "valence_orbital": [ 
			{
				"type": "occ",
				"energy": -0.277,
				"method": "rhf"
			},
			{
				"type": "occ",
				"energy": -0.26011,
				"method": "rhf"
			},
			{
				"type": "occ",
				"energy": -0.23779,
				"method": "rhf"
			},
			{
				"type": "occ",
				"energy": -0.21008,
				"method": "rhf"
			},
			{
				"type": "occ",
				"energy": -0.17982,
				"method": "rhf"
			},
			{
				"type": "unocc",
				"energy": -0.02922,
				"method": "rhf"
			},
			{
				"type": "unocc",
				"energy": 0.00831,
				"method": "rhf"
			},
			{
				"type": "unocc",
				"energy": 0.04724,
				"method": "rhf"
			},
			{
				"type": "unocc",
				"energy": 0.07858,
				"method": "rhf"
			},
			{
				"type": "unocc",
				"energy": 0.08229,
				"method": "rhf"
			}
		],
		"cosmo_sigma_profile": { 
			"-0.025": 0.0,
			"-0.024": 0.0,
			"-0.023": 0.0,
			"-0.022": 0.0,
			"-0.021": 0.0,
			"-0.02": 0.0,
			"-0.019": 0.0,
			"-0.018": 0.193398543065,
			"-0.017": 1.00386936802,
			"-0.016": 0.958909104184,
			"-0.015": 0.761224139557,
			"-0.014": 1.43390238647,
			"-0.013": 1.13311580313,
			"-0.012": 0.679442618238,
			"-0.011": 0.53930831905,
			"-0.01": 1.02789626659,
			"-0.009": 1.89625302184,
			"-0.008": 0.766507129248,
			"-0.007": 1.54129383495,
			"-0.006": 7.65271091067,
			"-0.005": 11.9341791699,
			"-0.004": 16.428909827,
			"-0.003": 29.8001360198,
			"-0.002": 34.3021724258,
			"-0.001": 28.5231222582,
			"0.0": 22.6078386087,
			"0.001": 16.2116690899,
			"0.002": 11.5106474326,
			"0.003": 18.0541649834,
			"0.004": 19.1055023722,
			"0.005": 11.9534436286,
			"0.006": 8.51576611377,
			"0.007": 3.84579031521,
			"0.008": 2.77220404025,
			"0.009": 2.33324077478,
			"0.01": 2.32632923588,
			"0.011": 1.58153637056,
			"0.012": 1.96539753506,
			"0.013": 1.77925162263,
			"0.014": 1.7484610886,
			"0.015": 1.69476400417,
			"0.016": 0.693635400001,
			"0.017": 0.0,
			"0.018": 0.0,
			"0.019": 0.0,
			"0.02": 0.0,
			"0.021": 0.0,
			"0.022": 0.0,
			"0.023": 0.0,
			"0.024": 0.0,
			"0.025": 0.0
		}
	}
}
