{
	 "smiles": "ClC1=NN2C(C=C1)=NN=C2C1CCCO1", 
	 "Tm": 413.15, 
	 "num_atms": 24, 
	 "gaussian": { 
		 "optdone": 1, 
		 "sigma_profile": "yes", 
		 "theory": "DFT", 
		 "functional": "B3LYP", 
		 "basiset": "6-31G**", 
		 "properties": { 
			 "R2extent": 4857.9969, 
			 "electric_dipole_moment_norm": 1.78021009153, 
			 "electric_quadrupole_moment_norm": 19.2347445452, 
			 "total_energy": -1102.73154487, 
			 "HOMO_LUMO_gap": 0.16259, 
			 "cosmo_polarized_energy": -14.38, 
			 "cosmo_cavitation_energy": 29.7, 
			 "cosmo_dispersion_energy": -22.27, 
			 "cosmo_repulsion_energy": 1.76, 
			 "cosmo_total_nonelectrostatic_energy": 9.19, 
			 "SMD_solvation_energy": 1.69 
		},
		"coords": [
			{
				"x": -5.3135346715,
				"y": -0.4914433486,
				"z": 0.7502450016,
				"element": "Cl" 
			},
			{
				"x": -3.6944282376,
				"y": -0.9773827461,
				"z": 1.185923134,
				"element": "C" 
			},
			{
				"x": -2.7399504788,
				"y": -0.1747287356,
				"z": 0.8147569893,
				"element": "N" 
			},
			{
				"x": -1.5046060576,
				"y": -0.5900997769,
				"z": 1.1771168861,
				"element": "N" 
			},
			{
				"x": -1.189629523,
				"y": -1.7486222162,
				"z": 1.8883870164,
				"element": "C" 
			},
			{
				"x": -2.2661242887,
				"y": -2.5876085852,
				"z": 2.2659313112,
				"element": "C" 
			},
			{
				"x": -3.5294784744,
				"y": -2.2040696926,
				"z": 1.9117307185,
				"element": "C" 
			},
			{
				"x": 0.1200715901,
				"y": -1.814935392,
				"z": 2.0704918435,
				"element": "N" 
			},
			{
				"x": 0.6570087665,
				"y": -0.7059966488,
				"z": 1.4813926167,
				"element": "N" 
			},
			{
				"x": -0.3047284502,
				"y": 0.030312494,
				"z": 0.9451275407,
				"element": "C" 
			},
			{
				"x": -0.1536786882,
				"y": 1.280361172,
				"z": 0.1258454063,
				"element": "C" 
			},
			{
				"x": 1.177227323,
				"y": 2.0265926295,
				"z": 0.4121232558,
				"element": "C" 
			},
			{
				"x": 1.8004563593,
				"y": 2.1948163918,
				"z": -0.9872697588,
				"element": "C" 
			},
			{
				"x": 1.1981370671,
				"y": 1.0079161762,
				"z": -1.7389967818,
				"element": "C" 
			},
			{
				"x": -0.1524700111,
				"y": 0.9421130658,
				"z": -1.2730028756,
				"element": "O" 
			},
			{
				"x": -2.0633319685,
				"y": -3.4987347239,
				"z": 2.8169245647,
				"element": "H" 
			},
			{
				"x": -4.4031590172,
				"y": -2.7922474194,
				"z": 2.1614516667,
				"element": "H" 
			},
			{
				"x": -1.0350976357,
				"y": 1.908540666,
				"z": 0.2893281622,
				"element": "H" 
			},
			{
				"x": 1.8172839879,
				"y": 1.4145114065,
				"z": 1.0509039596,
				"element": "H" 
			},
			{
				"x": 1.0005884334,
				"y": 2.9791425412,
				"z": 0.9173290507,
				"element": "H" 
			},
			{
				"x": 2.8937630684,
				"y": 2.1817070141,
				"z": -0.9667072361,
				"element": "H" 
			},
			{
				"x": 1.4748697184,
				"y": 3.1318822001,
				"z": -1.4507695833,
				"element": "H" 
			},
			{
				"x": 1.1623088435,
				"y": 1.1306394319,
				"z": -2.8248789392,
				"element": "H" 
			},
			{
				"x": 1.7385023449,
				"y": 0.0776340962,
				"z": -1.5057839491,
				"element": "H" 
			}
		],
		 "valence_orbital": [ 
			{
				"type": "occ",
				"energy": -0.31724,
				"method": "rhf"
			},
			{
				"type": "occ",
				"energy": -0.28478,
				"method": "rhf"
			},
			{
				"type": "occ",
				"energy": -0.26276,
				"method": "rhf"
			},
			{
				"type": "occ",
				"energy": -0.2614,
				"method": "rhf"
			},
			{
				"type": "occ",
				"energy": -0.24669,
				"method": "rhf"
			},
			{
				"type": "unocc",
				"energy": -0.0841,
				"method": "rhf"
			},
			{
				"type": "unocc",
				"energy": -0.02789,
				"method": "rhf"
			},
			{
				"type": "unocc",
				"energy": 0.00858,
				"method": "rhf"
			},
			{
				"type": "unocc",
				"energy": 0.02355,
				"method": "rhf"
			},
			{
				"type": "unocc",
				"energy": 0.08909,
				"method": "rhf"
			}
		],
		"cosmo_sigma_profile": { 
			"-0.025": 0.0,
			"-0.024": 0.0,
			"-0.023": 0.0,
			"-0.022": 0.0,
			"-0.021": 0.0,
			"-0.02": 0.0,
			"-0.019": 0.0,
			"-0.018": 0.0,
			"-0.017": 0.0,
			"-0.016": 0.0,
			"-0.015": 0.0,
			"-0.014": 0.0,
			"-0.013": 0.0,
			"-0.012": 0.0,
			"-0.011": 0.387652408487,
			"-0.01": 3.42729882597,
			"-0.009": 4.2547261205,
			"-0.008": 3.79293101036,
			"-0.007": 4.64468369582,
			"-0.006": 7.78884366602,
			"-0.005": 13.0875620581,
			"-0.004": 21.6770299293,
			"-0.003": 28.2682476361,
			"-0.002": 29.4364256378,
			"-0.001": 21.2499280884,
			"0.0": 15.203716687,
			"0.001": 10.6494665483,
			"0.002": 14.0155136922,
			"0.003": 12.5564738296,
			"0.004": 7.47117515104,
			"0.005": 5.09980954795,
			"0.006": 4.3483165235,
			"0.007": 5.23038655557,
			"0.008": 3.59143083185,
			"0.009": 3.41303821227,
			"0.01": 2.83007474928,
			"0.011": 3.81446978707,
			"0.012": 4.67934452519,
			"0.013": 4.20700759598,
			"0.014": 2.5065319632,
			"0.015": 1.26526077457,
			"0.016": 0.85003890563,
			"0.017": 0.0,
			"0.018": 0.0,
			"0.019": 0.0,
			"0.02": 0.0,
			"0.021": 0.0,
			"0.022": 0.0,
			"0.023": 0.0,
			"0.024": 0.0,
			"0.025": 0.0
		}
	}
}
