{
	 "smiles": "CC1CSC(=S)N1", 
	 "Tm": 368.15, 
	 "num_atms": 14, 
	 "gaussian": { 
		 "optdone": 1, 
		 "sigma_profile": "yes", 
		 "theory": "DFT", 
		 "functional": "B3LYP", 
		 "basiset": "6-31G**", 
		 "properties": { 
			 "R2extent": 1773.3942, 
			 "electric_dipole_moment_norm": 6.17346414341, 
			 "electric_quadrupole_moment_norm": 14.0132616756, 
			 "total_energy": -1007.78303758, 
			 "HOMO_LUMO_gap": 0.18016, 
			 "cosmo_polarized_energy": -14.63, 
			 "cosmo_cavitation_energy": 20.23, 
			 "cosmo_dispersion_energy": -16.16, 
			 "cosmo_repulsion_energy": 1.27, 
			 "cosmo_total_nonelectrostatic_energy": 5.34, 
			 "SMD_solvation_energy": 1.41 
		},
		"coords": [
			{
				"x": -0.1408811674,
				"y": 1.4544316994,
				"z": -0.9649265546,
				"element": "C" 
			},
			{
				"x": -0.7293897433,
				"y": 0.1173947174,
				"z": -0.5205772554,
				"element": "C" 
			},
			{
				"x": 0.333732849,
				"y": -0.9578231252,
				"z": -0.2454144157,
				"element": "C" 
			},
			{
				"x": -0.4520303202,
				"y": -2.1224166017,
				"z": 0.944957188,
				"element": "S" 
			},
			{
				"x": -1.5836543017,
				"y": -0.8705286564,
				"z": 1.5222731278,
				"element": "C" 
			},
			{
				"x": -2.6148131202,
				"y": -1.0585804407,
				"z": 2.8017735727,
				"element": "S" 
			},
			{
				"x": -1.457408091,
				"y": 0.235143601,
				"z": 0.7457902526,
				"element": "N" 
			},
			{
				"x": 0.5415397544,
				"y": 1.8496517524,
				"z": -0.2065864261,
				"element": "H" 
			},
			{
				"x": -0.9297410514,
				"y": 2.1936685423,
				"z": -1.1391174202,
				"element": "H" 
			},
			{
				"x": 0.4092415261,
				"y": 1.3318626142,
				"z": -1.9027308988,
				"element": "H" 
			},
			{
				"x": -1.4162504865,
				"y": -0.25535472,
				"z": -1.2969983069,
				"element": "H" 
			},
			{
				"x": 0.6216251645,
				"y": -1.4883338026,
				"z": -1.1545311817,
				"element": "H" 
			},
			{
				"x": 1.2242110862,
				"y": -0.52122019,
				"z": 0.2165742293,
				"element": "H" 
			},
			{
				"x": -2.1470820984,
				"y": 0.9642046099,
				"z": 0.8786140889,
				"element": "H" 
			}
		],
		 "valence_orbital": [ 
			{
				"type": "occ",
				"energy": -0.36417,
				"method": "rhf"
			},
			{
				"type": "occ",
				"energy": -0.34288,
				"method": "rhf"
			},
			{
				"type": "occ",
				"energy": -0.2571,
				"method": "rhf"
			},
			{
				"type": "occ",
				"energy": -0.22679,
				"method": "rhf"
			},
			{
				"type": "occ",
				"energy": -0.21199,
				"method": "rhf"
			},
			{
				"type": "unocc",
				"energy": -0.03183,
				"method": "rhf"
			},
			{
				"type": "unocc",
				"energy": 0.00577,
				"method": "rhf"
			},
			{
				"type": "unocc",
				"energy": 0.05719,
				"method": "rhf"
			},
			{
				"type": "unocc",
				"energy": 0.06858,
				"method": "rhf"
			},
			{
				"type": "unocc",
				"energy": 0.10044,
				"method": "rhf"
			}
		],
		"cosmo_sigma_profile": { 
			"-0.025": 0.0,
			"-0.024": 0.0,
			"-0.023": 0.0,
			"-0.022": 0.0,
			"-0.021": 0.0,
			"-0.02": 0.0,
			"-0.019": 0.0,
			"-0.018": 0.0,
			"-0.017": 0.0,
			"-0.016": 0.0,
			"-0.015": 0.74578528194,
			"-0.014": 1.08932261547,
			"-0.013": 1.31192371386,
			"-0.012": 1.35026650605,
			"-0.011": 0.746104552607,
			"-0.01": 0.764377695186,
			"-0.009": 1.33300043633,
			"-0.008": 2.3691056364,
			"-0.007": 6.08602321294,
			"-0.006": 11.1893469076,
			"-0.005": 16.6482373972,
			"-0.004": 13.9267054206,
			"-0.003": 11.3637881952,
			"-0.002": 8.76649408491,
			"-0.001": 10.1500754831,
			"0.0": 6.38598287437,
			"0.001": 3.4137642915,
			"0.002": 6.52169429483,
			"0.003": 8.83116741962,
			"0.004": 8.06815723585,
			"0.005": 7.18177833634,
			"0.006": 7.04400417509,
			"0.007": 6.03853823887,
			"0.008": 5.87792630967,
			"0.009": 7.54860823818,
			"0.01": 4.97052553593,
			"0.011": 4.04632536099,
			"0.012": 0.755875996499,
			"0.013": 0.0,
			"0.014": 0.0,
			"0.015": 0.0,
			"0.016": 0.0,
			"0.017": 0.0,
			"0.018": 0.0,
			"0.019": 0.0,
			"0.02": 0.0,
			"0.021": 0.0,
			"0.022": 0.0,
			"0.023": 0.0,
			"0.024": 0.0,
			"0.025": 0.0
		}
	}
}
