{
	 "smiles": "COC(=O)[C@H](O)[C@H]1C(C)(C)C(=O)[C@@H]2CC3=C4CC(=O)O[C@@H](C5=COC=C5)[C@]4(C)CC[C@@H]3[C@@]1(C)C2=O", 
	 "Tm": 537.5, 
	 "num_atms": 67, 
	 "gaussian": { 
		 "optdone": 1, 
		 "sigma_profile": "yes", 
		 "theory": "DFT", 
		 "functional": "B3LYP", 
		 "basiset": "6-31G**", 
		 "properties": { 
			 "R2extent": 14225.7612, 
			 "electric_dipole_moment_norm": 6.74889895983, 
			 "electric_quadrupole_moment_norm": 44.2494962899, 
			 "total_energy": -1649.90259275, 
			 "HOMO_LUMO_gap": 0.19979, 
			 "cosmo_polarized_energy": -26.93, 
			 "cosmo_cavitation_energy": 60.29, 
			 "cosmo_dispersion_energy": -38.48, 
			 "cosmo_repulsion_energy": 2.77, 
			 "cosmo_total_nonelectrostatic_energy": 24.59, 
			 "SMD_solvation_energy": 13.83 
		},
		"coords": [
			{
				"x": -4.3903091117,
				"y": 0.8903369595,
				"z": -2.2463893076,
				"element": "C" 
			},
			{
				"x": -3.832286957,
				"y": -0.3870303025,
				"z": -1.872188421,
				"element": "O" 
			},
			{
				"x": -2.6055105521,
				"y": -0.350826194,
				"z": -1.3158067588,
				"element": "C" 
			},
			{
				"x": -1.9745270645,
				"y": 0.6721131167,
				"z": -1.1474518796,
				"element": "O" 
			},
			{
				"x": -2.0632933662,
				"y": -1.7596423179,
				"z": -1.0421596811,
				"element": "C" 
			},
			{
				"x": -3.0372290326,
				"y": -2.7722806641,
				"z": -1.1818982454,
				"element": "O" 
			},
			{
				"x": -1.3255646157,
				"y": -1.8363050619,
				"z": 0.3226195466,
				"element": "C" 
			},
			{
				"x": -2.2792607294,
				"y": -2.0409409109,
				"z": 1.5608728934,
				"element": "C" 
			},
			{
				"x": -3.4033712896,
				"y": -0.993867,
				"z": 1.5778592147,
				"element": "C" 
			},
			{
				"x": -2.9098735071,
				"y": -3.455643693,
				"z": 1.6966613836,
				"element": "C" 
			},
			{
				"x": -1.3863539425,
				"y": -1.833193428,
				"z": 2.7933751691,
				"element": "C" 
			},
			{
				"x": -1.6727445714,
				"y": -1.0964852709,
				"z": 3.7161035368,
				"element": "O" 
			},
			{
				"x": -0.0696763288,
				"y": -2.6207184249,
				"z": 2.8234639986,
				"element": "C" 
			},
			{
				"x": 1.1374390778,
				"y": -1.6426776227,
				"z": 2.8114256574,
				"element": "C" 
			},
			{
				"x": 1.3813487305,
				"y": -0.9634740488,
				"z": 1.4742355705,
				"element": "C" 
			},
			{
				"x": 1.7520739092,
				"y": 0.3339385058,
				"z": 1.4001683672,
				"element": "C" 
			},
			{
				"x": 1.6429920359,
				"y": 1.302525087,
				"z": 2.5549343878,
				"element": "C" 
			},
			{
				"x": 1.2389179719,
				"y": 2.7262436302,
				"z": 2.1667409439,
				"element": "C" 
			},
			{
				"x": 1.049696927,
				"y": 3.5763667525,
				"z": 3.0030707212,
				"element": "O" 
			},
			{
				"x": 1.1155952357,
				"y": 3.0568665309,
				"z": 0.8571240593,
				"element": "O" 
			},
			{
				"x": 1.2588493046,
				"y": 2.1033159776,
				"z": -0.2329615932,
				"element": "C" 
			},
			{
				"x": 1.5734999076,
				"y": 2.9224660641,
				"z": -1.4513800016,
				"element": "C" 
			},
			{
				"x": 2.2148699351,
				"y": 4.1261134216,
				"z": -1.4991228909,
				"element": "C" 
			},
			{
				"x": 2.3029175087,
				"y": 4.5739661763,
				"z": -2.7828737047,
				"element": "O" 
			},
			{
				"x": 1.7027247213,
				"y": 3.639647334,
				"z": -3.5720197264,
				"element": "C" 
			},
			{
				"x": 1.2326299432,
				"y": 2.6114522246,
				"z": -2.8157021942,
				"element": "C" 
			},
			{
				"x": 2.2998721962,
				"y": 0.99759994,
				"z": 0.1408040781,
				"element": "C" 
			},
			{
				"x": 3.68158005,
				"y": 1.6385312581,
				"z": 0.4267068239,
				"element": "C" 
			},
			{
				"x": 2.5018592346,
				"y": -0.0372774041,
				"z": -0.9825934571,
				"element": "C" 
			},
			{
				"x": 1.3801128074,
				"y": -1.0682089405,
				"z": -1.0616547925,
				"element": "C" 
			},
			{
				"x": 1.2770867166,
				"y": -1.8727278176,
				"z": 0.245605357,
				"element": "C" 
			},
			{
				"x": -0.0428275982,
				"y": -2.7770838339,
				"z": 0.2947343234,
				"element": "C" 
			},
			{
				"x": -0.0273833308,
				"y": -3.8186899538,
				"z": -0.8357720642,
				"element": "C" 
			},
			{
				"x": 0.0979180289,
				"y": -3.5216762624,
				"z": 1.6278705474,
				"element": "C" 
			},
			{
				"x": 0.4374648848,
				"y": -4.6875078415,
				"z": 1.7210789679,
				"element": "O" 
			},
			{
				"x": -3.7447567749,
				"y": 1.3867472096,
				"z": -2.973926286,
				"element": "H" 
			},
			{
				"x": -5.3649718863,
				"y": 0.668789491,
				"z": -2.6789889608,
				"element": "H" 
			},
			{
				"x": -4.4928665681,
				"y": 1.5266143072,
				"z": -1.3652332811,
				"element": "H" 
			},
			{
				"x": -1.3008551459,
				"y": -1.8672068058,
				"z": -1.8290529548,
				"element": "H" 
			},
			{
				"x": -3.6698499776,
				"y": -2.4830090008,
				"z": -1.85366484,
				"element": "H" 
			},
			{
				"x": -0.9418940169,
				"y": -0.8199055656,
				"z": 0.4565252998,
				"element": "H" 
			},
			{
				"x": -4.1101119898,
				"y": -1.1782285749,
				"z": 0.7649510736,
				"element": "H" 
			},
			{
				"x": -3.9465617714,
				"y": -1.0488031719,
				"z": 2.5239112699,
				"element": "H" 
			},
			{
				"x": -3.0102652097,
				"y": 0.0230734538,
				"z": 1.4909253252,
				"element": "H" 
			},
			{
				"x": -2.1783220615,
				"y": -4.2660499146,
				"z": 1.6708969655,
				"element": "H" 
			},
			{
				"x": -3.6154930786,
				"y": -3.6221114176,
				"z": 0.8842631215,
				"element": "H" 
			},
			{
				"x": -3.4449154724,
				"y": -3.5219975755,
				"z": 2.6501187559,
				"element": "H" 
			},
			{
				"x": -0.0408637687,
				"y": -3.2136211014,
				"z": 3.7427798235,
				"element": "H" 
			},
			{
				"x": 1.0039555602,
				"y": -0.9317809701,
				"z": 3.6276284391,
				"element": "H" 
			},
			{
				"x": 2.0315465269,
				"y": -2.2353709575,
				"z": 3.052864599,
				"element": "H" 
			},
			{
				"x": 0.9072014441,
				"y": 0.9893391045,
				"z": 3.2986691496,
				"element": "H" 
			},
			{
				"x": 2.5904518746,
				"y": 1.4136388113,
				"z": 3.0990342601,
				"element": "H" 
			},
			{
				"x": 0.2830461837,
				"y": 1.62634863,
				"z": -0.377831289,
				"element": "H" 
			},
			{
				"x": 2.6112197252,
				"y": 4.7774512662,
				"z": -0.7373564564,
				"element": "H" 
			},
			{
				"x": 1.6863655033,
				"y": 3.8544092636,
				"z": -4.6291829659,
				"element": "H" 
			},
			{
				"x": 0.6892227434,
				"y": 1.7466019473,
				"z": -3.1686973924,
				"element": "H" 
			},
			{
				"x": 3.6370027293,
				"y": 2.4767390166,
				"z": 1.1252878612,
				"element": "H" 
			},
			{
				"x": 4.1133156606,
				"y": 2.0146967413,
				"z": -0.5050699708,
				"element": "H" 
			},
			{
				"x": 4.3630863336,
				"y": 0.8884848281,
				"z": 0.8396466761,
				"element": "H" 
			},
			{
				"x": 3.4473673725,
				"y": -0.5594434293,
				"z": -0.7878272653,
				"element": "H" 
			},
			{
				"x": 2.6283711505,
				"y": 0.4753557794,
				"z": -1.9413299772,
				"element": "H" 
			},
			{
				"x": 0.4351460419,
				"y": -0.5536612168,
				"z": -1.2629862691,
				"element": "H" 
			},
			{
				"x": 1.563713073,
				"y": -1.7430765881,
				"z": -1.9031512642,
				"element": "H" 
			},
			{
				"x": 2.1144277681,
				"y": -2.5888171288,
				"z": 0.2721996445,
				"element": "H" 
			},
			{
				"x": -0.9591628361,
				"y": -4.3890142624,
				"z": -0.845968093,
				"element": "H" 
			},
			{
				"x": 0.7915185593,
				"y": -4.5214768326,
				"z": -0.6716266271,
				"element": "H" 
			},
			{
				"x": 0.0992951782,
				"y": -3.3706413216,
				"z": -1.8230892006,
				"element": "H" 
			}
		],
		 "valence_orbital": [ 
			{
				"type": "occ",
				"energy": -0.26298,
				"method": "rhf"
			},
			{
				"type": "occ",
				"energy": -0.25336,
				"method": "rhf"
			},
			{
				"type": "occ",
				"energy": -0.24071,
				"method": "rhf"
			},
			{
				"type": "occ",
				"energy": -0.24001,
				"method": "rhf"
			},
			{
				"type": "occ",
				"energy": -0.22819,
				"method": "rhf"
			},
			{
				"type": "unocc",
				"energy": -0.0284,
				"method": "rhf"
			},
			{
				"type": "unocc",
				"energy": -0.02691,
				"method": "rhf"
			},
			{
				"type": "unocc",
				"energy": -0.01501,
				"method": "rhf"
			},
			{
				"type": "unocc",
				"energy": -0.00025,
				"method": "rhf"
			},
			{
				"type": "unocc",
				"energy": 0.00894,
				"method": "rhf"
			}
		],
		"cosmo_sigma_profile": { 
			"-0.025": 0.0,
			"-0.024": 0.0,
			"-0.023": 0.0,
			"-0.022": 0.0,
			"-0.021": 0.0,
			"-0.02": 0.0,
			"-0.019": 0.0,
			"-0.018": 0.0,
			"-0.017": 0.0,
			"-0.016": 0.0,
			"-0.015": 0.0,
			"-0.014": 0.211618675288,
			"-0.013": 0.438074074626,
			"-0.012": 0.756565390109,
			"-0.011": 0.816614863233,
			"-0.01": 0.861679369524,
			"-0.009": 2.77924256932,
			"-0.008": 5.29685057501,
			"-0.007": 11.7538668286,
			"-0.006": 23.6897529142,
			"-0.005": 30.4691059327,
			"-0.004": 39.7416144909,
			"-0.003": 51.0734227676,
			"-0.002": 48.0683619748,
			"-0.001": 42.6287976055,
			"0.0": 42.0150713959,
			"0.001": 31.0248409557,
			"0.002": 20.9397513459,
			"0.003": 18.6064404352,
			"0.004": 15.9154332541,
			"0.005": 12.1972318171,
			"0.006": 8.49988800623,
			"0.007": 9.46636226633,
			"0.008": 9.29152287308,
			"0.009": 7.81073525739,
			"0.01": 9.00738029196,
			"0.011": 11.0807630006,
			"0.012": 12.4025705891,
			"0.013": 4.22548507475,
			"0.014": 0.498727086265,
			"0.015": 0.0,
			"0.016": 0.0,
			"0.017": 0.0,
			"0.018": 0.0,
			"0.019": 0.0,
			"0.02": 0.0,
			"0.021": 0.0,
			"0.022": 0.0,
			"0.023": 0.0,
			"0.024": 0.0,
			"0.025": 0.0
		}
	}
}
