{
	 "smiles": "CCC(=C/C1=CC=CC(=C1)[N+]([O-])=O)C(O)=O", 
	 "Tm": 413.15, 
	 "num_atms": 27, 
	 "gaussian": { 
		 "optdone": 1, 
		 "sigma_profile": "yes", 
		 "theory": "DFT", 
		 "functional": "B3LYP", 
		 "basiset": "6-31G**", 
		 "properties": { 
			 "R2extent": 6391.756, 
			 "electric_dipole_moment_norm": 3.22041994311, 
			 "electric_quadrupole_moment_norm": 26.202218803, 
			 "total_energy": -781.356389396, 
			 "HOMO_LUMO_gap": 0.15968, 
			 "cosmo_polarized_energy": -13.68, 
			 "cosmo_cavitation_energy": 32.06, 
			 "cosmo_dispersion_energy": -22.93, 
			 "cosmo_repulsion_energy": 1.79, 
			 "cosmo_total_nonelectrostatic_energy": 10.92, 
			 "SMD_solvation_energy": 8.96 
		},
		"coords": [
			{
				"x": 1.2837535974,
				"y": 1.4041007788,
				"z": 2.2468949548,
				"element": "C" 
			},
			{
				"x": 1.1300405625,
				"y": -0.1108705857,
				"z": 2.4792572276,
				"element": "C" 
			},
			{
				"x": 1.8585243532,
				"y": -0.9575039437,
				"z": 1.4619873763,
				"element": "C" 
			},
			{
				"x": 1.319096556,
				"y": -1.6416954151,
				"z": 0.4273483427,
				"element": "C" 
			},
			{
				"x": -0.0813267014,
				"y": -1.7234242015,
				"z": -0.0141449155,
				"element": "C" 
			},
			{
				"x": -1.0236192364,
				"y": -0.6844081007,
				"z": 0.1232198853,
				"element": "C" 
			},
			{
				"x": -2.3352284433,
				"y": -0.834410326,
				"z": -0.3281532895,
				"element": "C" 
			},
			{
				"x": -2.7474650639,
				"y": -2.0194197829,
				"z": -0.9336261381,
				"element": "C" 
			},
			{
				"x": -1.8066582403,
				"y": -3.0358964384,
				"z": -1.0871050146,
				"element": "C" 
			},
			{
				"x": -0.4930272279,
				"y": -2.9057485113,
				"z": -0.6538829985,
				"element": "C" 
			},
			{
				"x": -2.2157822167,
				"y": -4.2916185846,
				"z": -1.7429184757,
				"element": "N" 
			},
			{
				"x": -3.3846324087,
				"y": -4.3833683156,
				"z": -2.1148638213,
				"element": "O" 
			},
			{
				"x": -1.3645424663,
				"y": -5.1691223745,
				"z": -1.8777246347,
				"element": "O" 
			},
			{
				"x": 3.3301659535,
				"y": -1.0538041084,
				"z": 1.6946164463,
				"element": "C" 
			},
			{
				"x": 4.0025303045,
				"y": -1.7858283429,
				"z": 0.7699587103,
				"element": "O" 
			},
			{
				"x": 3.9049789536,
				"y": -0.525705719,
				"z": 2.6285293205,
				"element": "O" 
			},
			{
				"x": 0.7474307233,
				"y": 1.9657387223,
				"z": 3.0182368538,
				"element": "H" 
			},
			{
				"x": 2.3376495759,
				"y": 1.6898208163,
				"z": 2.2916888355,
				"element": "H" 
			},
			{
				"x": 0.8926308197,
				"y": 1.71002549,
				"z": 1.270251336,
				"element": "H" 
			},
			{
				"x": 1.5463290618,
				"y": -0.3469388313,
				"z": 3.4636729323,
				"element": "H" 
			},
			{
				"x": 0.0724732654,
				"y": -0.3876522258,
				"z": 2.5007366153,
				"element": "H" 
			},
			{
				"x": 1.9999489341,
				"y": -2.2605381051,
				"z": -0.1507103028,
				"element": "H" 
			},
			{
				"x": -0.7211654125,
				"y": 0.2611018287,
				"z": 0.5560010531,
				"element": "H" 
			},
			{
				"x": -3.0393553256,
				"y": -0.0162010599,
				"z": -0.2150849948,
				"element": "H" 
			},
			{
				"x": -3.7578936077,
				"y": -2.164765593,
				"z": -1.2937697191,
				"element": "H" 
			},
			{
				"x": 0.1958790987,
				"y": -3.7276589637,
				"z": -0.808069105,
				"element": "H" 
			},
			{
				"x": 4.9319645913,
				"y": -1.769108107,
				"z": 1.0504535196,
				"element": "H" 
			}
		],
		 "valence_orbital": [ 
			{
				"type": "occ",
				"energy": -0.31111,
				"method": "rhf"
			},
			{
				"type": "occ",
				"energy": -0.2959,
				"method": "rhf"
			},
			{
				"type": "occ",
				"energy": -0.28846,
				"method": "rhf"
			},
			{
				"type": "occ",
				"energy": -0.28265,
				"method": "rhf"
			},
			{
				"type": "occ",
				"energy": -0.25495,
				"method": "rhf"
			},
			{
				"type": "unocc",
				"energy": -0.09527,
				"method": "rhf"
			},
			{
				"type": "unocc",
				"energy": -0.07493,
				"method": "rhf"
			},
			{
				"type": "unocc",
				"energy": -0.01932,
				"method": "rhf"
			},
			{
				"type": "unocc",
				"energy": 0.00616,
				"method": "rhf"
			},
			{
				"type": "unocc",
				"energy": 0.06515,
				"method": "rhf"
			}
		],
		"cosmo_sigma_profile": { 
			"-0.025": 0.0,
			"-0.024": 0.0,
			"-0.023": 0.0,
			"-0.022": 0.0,
			"-0.021": 0.0,
			"-0.02": 0.0,
			"-0.019": 0.00795149143501,
			"-0.018": 0.674876453733,
			"-0.017": 0.951340083152,
			"-0.016": 0.911102170713,
			"-0.015": 0.55273609349,
			"-0.014": 0.329597918117,
			"-0.013": 0.787082061404,
			"-0.012": 0.969346130059,
			"-0.011": 0.812540486985,
			"-0.01": 0.589022595467,
			"-0.009": 1.08237748317,
			"-0.008": 3.97977219515,
			"-0.007": 8.62539095739,
			"-0.006": 11.9737507449,
			"-0.005": 10.4115205363,
			"-0.004": 13.3728653757,
			"-0.003": 16.1270980183,
			"-0.002": 24.1960066158,
			"-0.001": 28.1112548787,
			"0.0": 29.1906818929,
			"0.001": 27.4558612263,
			"0.002": 12.6390944169,
			"0.003": 6.01764744615,
			"0.004": 4.97329787278,
			"0.005": 6.25167587902,
			"0.006": 6.22567957207,
			"0.007": 12.1381550651,
			"0.008": 9.08594648514,
			"0.009": 6.36278731593,
			"0.01": 3.19310849662,
			"0.011": 3.20862241318,
			"0.012": 4.16104949705,
			"0.013": 0.254909046806,
			"0.014": 0.0,
			"0.015": 0.0,
			"0.016": 0.0,
			"0.017": 0.0,
			"0.018": 0.0,
			"0.019": 0.0,
			"0.02": 0.0,
			"0.021": 0.0,
			"0.022": 0.0,
			"0.023": 0.0,
			"0.024": 0.0,
			"0.025": 0.0
		}
	}
}
