{
	 "smiles": "COC1=C(C=CC=C1)C1C(CCC(=O)N1C1=CC=C(C)C=C1)C(O)=O", 
	 "Tm": 479.15, 
	 "num_atms": 46, 
	 "gaussian": { 
		 "optdone": 1, 
		 "sigma_profile": "yes", 
		 "theory": "DFT", 
		 "functional": "B3LYP", 
		 "basiset": "6-31G**", 
		 "properties": { 
			 "R2extent": 8511.6034, 
			 "electric_dipole_moment_norm": 5.13913431912, 
			 "electric_quadrupole_moment_norm": 12.3058948342, 
			 "total_energy": -1130.45687558, 
			 "HOMO_LUMO_gap": 0.19367, 
			 "cosmo_polarized_energy": -19.77, 
			 "cosmo_cavitation_energy": 47.16, 
			 "cosmo_dispersion_energy": -31.65, 
			 "cosmo_repulsion_energy": 2.43, 
			 "cosmo_total_nonelectrostatic_energy": 17.94, 
			 "SMD_solvation_energy": 10.14 
		},
		"coords": [
			{
				"x": 2.3507219331,
				"y": 1.6882949574,
				"z": -4.2730479307,
				"element": "C" 
			},
			{
				"x": 1.9253281577,
				"y": 0.9600596284,
				"z": -3.1304452801,
				"element": "O" 
			},
			{
				"x": 2.6178098921,
				"y": 1.111491921,
				"z": -1.9576749151,
				"element": "C" 
			},
			{
				"x": 2.0813345163,
				"y": 0.4264149661,
				"z": -0.8438163928,
				"element": "C" 
			},
			{
				"x": 2.7410990773,
				"y": 0.5441965436,
				"z": 0.3802762458,
				"element": "C" 
			},
			{
				"x": 3.9060271543,
				"y": 1.3062118969,
				"z": 0.513094287,
				"element": "C" 
			},
			{
				"x": 4.4210288416,
				"y": 1.9706620956,
				"z": -0.5952602643,
				"element": "C" 
			},
			{
				"x": 3.7792672456,
				"y": 1.8791509653,
				"z": -1.8336634241,
				"element": "C" 
			},
			{
				"x": 0.8073064207,
				"y": -0.4028101779,
				"z": -1.0268661515,
				"element": "C" 
			},
			{
				"x": 1.1065106116,
				"y": -1.7124944155,
				"z": -1.7898734027,
				"element": "C" 
			},
			{
				"x": 1.9221564307,
				"y": -2.6630477293,
				"z": -0.9087581423,
				"element": "C" 
			},
			{
				"x": 1.1699300984,
				"y": -2.9523471444,
				"z": 0.3907549345,
				"element": "C" 
			},
			{
				"x": 0.4037146047,
				"y": -1.7949572366,
				"z": 1.0324934758,
				"element": "C" 
			},
			{
				"x": 0.0027118028,
				"y": -1.9123137415,
				"z": 2.1826733448,
				"element": "O" 
			},
			{
				"x": 0.1042325622,
				"y": -0.6885834305,
				"z": 0.2424010837,
				"element": "N" 
			},
			{
				"x": -0.850317513,
				"y": 0.2824682472,
				"z": 0.7007251188,
				"element": "C" 
			},
			{
				"x": -2.0324867925,
				"y": -0.1260642838,
				"z": 1.3394277682,
				"element": "C" 
			},
			{
				"x": -2.9811806488,
				"y": 0.8125430033,
				"z": 1.7261327851,
				"element": "C" 
			},
			{
				"x": -2.802358611,
				"y": 2.1841729758,
				"z": 1.4896542854,
				"element": "C" 
			},
			{
				"x": -3.8400820627,
				"y": 3.189993562,
				"z": 1.9281304375,
				"element": "C" 
			},
			{
				"x": -1.6279851923,
				"y": 2.5771629555,
				"z": 0.8453580994,
				"element": "C" 
			},
			{
				"x": -0.6599816448,
				"y": 1.6469458519,
				"z": 0.4590255896,
				"element": "C" 
			},
			{
				"x": -0.1853876031,
				"y": -2.3023017423,
				"z": -2.3477394432,
				"element": "C" 
			},
			{
				"x": -0.0941001525,
				"y": -3.6383282333,
				"z": -2.5649576347,
				"element": "O" 
			},
			{
				"x": -1.1810234792,
				"y": -1.6724842833,
				"z": -2.6272869072,
				"element": "O" 
			},
			{
				"x": 2.3393902867,
				"y": 2.7693117437,
				"z": -4.0871946363,
				"element": "H" 
			},
			{
				"x": 3.3569213993,
				"y": 1.3885695318,
				"z": -4.5922415925,
				"element": "H" 
			},
			{
				"x": 1.636846314,
				"y": 1.4506308175,
				"z": -5.062862738,
				"element": "H" 
			},
			{
				"x": 2.3230247187,
				"y": 0.0517367668,
				"z": 1.2523048428,
				"element": "H" 
			},
			{
				"x": 4.3958103603,
				"y": 1.3823408927,
				"z": 1.4786462488,
				"element": "H" 
			},
			{
				"x": 5.3228142938,
				"y": 2.569618672,
				"z": -0.5072183871,
				"element": "H" 
			},
			{
				"x": 4.1870680734,
				"y": 2.4052786207,
				"z": -2.6885143044,
				"element": "H" 
			},
			{
				"x": 0.108308819,
				"y": 0.1672054356,
				"z": -1.6414925945,
				"element": "H" 
			},
			{
				"x": 1.6916334934,
				"y": -1.4388953833,
				"z": -2.6763306188,
				"element": "H" 
			},
			{
				"x": 2.1415239506,
				"y": -3.5936728244,
				"z": -1.4376657672,
				"element": "H" 
			},
			{
				"x": 2.8799247175,
				"y": -2.1799131169,
				"z": -0.6914006991,
				"element": "H" 
			},
			{
				"x": 0.4071252972,
				"y": -3.7213859684,
				"z": 0.2116564802,
				"element": "H" 
			},
			{
				"x": 1.8273585849,
				"y": -3.3568284234,
				"z": 1.1646029649,
				"element": "H" 
			},
			{
				"x": -2.2010756475,
				"y": -1.1757506093,
				"z": 1.5385395037,
				"element": "H" 
			},
			{
				"x": -3.8888541196,
				"y": 0.4686456599,
				"z": 2.2167897395,
				"element": "H" 
			},
			{
				"x": -4.8419030251,
				"y": 2.9082450236,
				"z": 1.5848050288,
				"element": "H" 
			},
			{
				"x": -3.8860620565,
				"y": 3.2665314471,
				"z": 3.0214458764,
				"element": "H" 
			},
			{
				"x": -3.6200947149,
				"y": 4.1873834571,
				"z": 1.536733902,
				"element": "H" 
			},
			{
				"x": -1.4539514243,
				"y": 3.6310634827,
				"z": 0.6422324243,
				"element": "H" 
			},
			{
				"x": 0.2446911073,
				"y": 1.9973852323,
				"z": -0.0228461321,
				"element": "H" 
			},
			{
				"x": -0.9440760774,
				"y": -3.9023376093,
				"z": -2.9566471085,
				"element": "H" 
			}
		],
		 "valence_orbital": [ 
			{
				"type": "occ",
				"energy": -0.25334,
				"method": "rhf"
			},
			{
				"type": "occ",
				"energy": -0.24208,
				"method": "rhf"
			},
			{
				"type": "occ",
				"energy": -0.23202,
				"method": "rhf"
			},
			{
				"type": "occ",
				"energy": -0.22702,
				"method": "rhf"
			},
			{
				"type": "occ",
				"energy": -0.20562,
				"method": "rhf"
			},
			{
				"type": "unocc",
				"energy": -0.01195,
				"method": "rhf"
			},
			{
				"type": "unocc",
				"energy": -0.00401,
				"method": "rhf"
			},
			{
				"type": "unocc",
				"energy": 0.004,
				"method": "rhf"
			},
			{
				"type": "unocc",
				"energy": 0.00601,
				"method": "rhf"
			},
			{
				"type": "unocc",
				"energy": 0.01404,
				"method": "rhf"
			}
		],
		"cosmo_sigma_profile": { 
			"-0.025": 0.0,
			"-0.024": 0.0,
			"-0.023": 0.0,
			"-0.022": 0.0,
			"-0.021": 0.0,
			"-0.02": 0.0,
			"-0.019": 0.0618041114705,
			"-0.018": 1.06567545442,
			"-0.017": 0.644042664455,
			"-0.016": 1.00148233448,
			"-0.015": 0.751510213173,
			"-0.014": 0.33943927304,
			"-0.013": 0.546767085451,
			"-0.012": 1.03217097578,
			"-0.011": 0.889507421391,
			"-0.01": 0.551803920198,
			"-0.009": 0.340643761169,
			"-0.008": 0.659173216768,
			"-0.007": 2.97876451949,
			"-0.006": 13.7005028797,
			"-0.005": 27.8049547707,
			"-0.004": 39.056991141,
			"-0.003": 44.1246686871,
			"-0.002": 35.6524129904,
			"-0.001": 28.859988882,
			"0.0": 25.1939290073,
			"0.001": 24.0458396335,
			"0.002": 17.7846347716,
			"0.003": 18.297755007,
			"0.004": 17.9140907866,
			"0.005": 21.7105311008,
			"0.006": 13.9313488598,
			"0.007": 4.64123252143,
			"0.008": 3.75786200247,
			"0.009": 3.87163922545,
			"0.01": 3.31671142111,
			"0.011": 5.6733185602,
			"0.012": 4.55985848081,
			"0.013": 4.1803498048,
			"0.014": 3.66852236668,
			"0.015": 0.38191619629,
			"0.016": 0.0,
			"0.017": 0.0,
			"0.018": 0.0,
			"0.019": 0.0,
			"0.02": 0.0,
			"0.021": 0.0,
			"0.022": 0.0,
			"0.023": 0.0,
			"0.024": 0.0,
			"0.025": 0.0
		}
	}
}
