{
	 "smiles": "CCCCCCOCCCCCC", 
	 "Tm": 230.15, 
	 "num_atms": 39, 
	 "gaussian": { 
		 "optdone": 1, 
		 "sigma_profile": "yes", 
		 "theory": "DFT", 
		 "functional": "B3LYP", 
		 "basiset": "6-31G**", 
		 "properties": { 
			 "R2extent": 4229.1968, 
			 "electric_dipole_moment_norm": 1.01753989602, 
			 "electric_quadrupole_moment_norm": 2.02601854384, 
			 "total_energy": -548.19625782, 
			 "HOMO_LUMO_gap": 0.31793, 
			 "cosmo_polarized_energy": -3.17, 
			 "cosmo_cavitation_energy": 39.12, 
			 "cosmo_dispersion_energy": -25.6, 
			 "cosmo_repulsion_energy": 2.13, 
			 "cosmo_total_nonelectrostatic_energy": 15.65, 
			 "SMD_solvation_energy": 5.69 
		},
		"coords": [
			{
				"x": -2.7972849647,
				"y": -3.6951194943,
				"z": 1.4867823298,
				"element": "C" 
			},
			{
				"x": -2.2177466201,
				"y": -2.9272509874,
				"z": 0.2946048803,
				"element": "C" 
			},
			{
				"x": -0.6969615018,
				"y": -2.7394489817,
				"z": 0.3743665814,
				"element": "C" 
			},
			{
				"x": -0.1205598908,
				"y": -1.9669099677,
				"z": -0.8198153005,
				"element": "C" 
			},
			{
				"x": 1.4107443232,
				"y": -1.8335250512,
				"z": -0.822236063,
				"element": "C" 
			},
			{
				"x": 1.9937644997,
				"y": -1.0149609029,
				"z": 0.3260964393,
				"element": "C" 
			},
			{
				"x": 1.4887565308,
				"y": 0.3084697818,
				"z": 0.2619852982,
				"element": "O" 
			},
			{
				"x": 2.0583274787,
				"y": 1.165502268,
				"z": 1.2380526167,
				"element": "C" 
			},
			{
				"x": 1.513770314,
				"y": 2.5839190982,
				"z": 1.0878474279,
				"element": "C" 
			},
			{
				"x": 0.0653989084,
				"y": 2.806641108,
				"z": 1.5547895074,
				"element": "C" 
			},
			{
				"x": -1.020540602,
				"y": 2.163057259,
				"z": 0.6818224491,
				"element": "C" 
			},
			{
				"x": -2.4420265588,
				"y": 2.4829250201,
				"z": 1.1614602807,
				"element": "C" 
			},
			{
				"x": -3.5305549752,
				"y": 1.8488111148,
				"z": 0.2895648736,
				"element": "C" 
			},
			{
				"x": -3.8825276802,
				"y": -3.8123292587,
				"z": 1.3995870482,
				"element": "H" 
			},
			{
				"x": -2.59413387,
				"y": -3.1749538404,
				"z": 2.4299951155,
				"element": "H" 
			},
			{
				"x": -2.3599826845,
				"y": -4.6973951159,
				"z": 1.5630862064,
				"element": "H" 
			},
			{
				"x": -2.699172281,
				"y": -1.9420959793,
				"z": 0.2245153231,
				"element": "H" 
			},
			{
				"x": -2.468753104,
				"y": -3.452632361,
				"z": -0.6370358315,
				"element": "H" 
			},
			{
				"x": -0.4531198931,
				"y": -2.2192946673,
				"z": 1.3105567314,
				"element": "H" 
			},
			{
				"x": -0.2144279795,
				"y": -3.7260374749,
				"z": 0.4396239941,
				"element": "H" 
			},
			{
				"x": -0.422934738,
				"y": -2.4720982617,
				"z": -1.7470785328,
				"element": "H" 
			},
			{
				"x": -0.5639557627,
				"y": -0.9648934912,
				"z": -0.8572867938,
				"element": "H" 
			},
			{
				"x": 1.8709771431,
				"y": -2.8306396838,
				"z": -0.7896096073,
				"element": "H" 
			},
			{
				"x": 1.7306651153,
				"y": -1.3705550591,
				"z": -1.7635685039,
				"element": "H" 
			},
			{
				"x": 3.0947582619,
				"y": -1.002327756,
				"z": 0.2490805206,
				"element": "H" 
			},
			{
				"x": 1.7489296848,
				"y": -1.469236316,
				"z": 1.3012190355,
				"element": "H" 
			},
			{
				"x": 1.8498896473,
				"y": 0.7823507117,
				"z": 2.2532281694,
				"element": "H" 
			},
			{
				"x": 3.1560095872,
				"y": 1.177501044,
				"z": 1.1209360426,
				"element": "H" 
			},
			{
				"x": 2.1730789556,
				"y": 3.2413878895,
				"z": 1.669687697,
				"element": "H" 
			},
			{
				"x": 1.624057648,
				"y": 2.8845369567,
				"z": 0.0379379923,
				"element": "H" 
			},
			{
				"x": -0.1162564217,
				"y": 3.8895315596,
				"z": 1.6005279554,
				"element": "H" 
			},
			{
				"x": -0.0352745295,
				"y": 2.4435353724,
				"z": 2.5882994347,
				"element": "H" 
			},
			{
				"x": -0.9004335795,
				"y": 2.5087364916,
				"z": -0.3549775202,
				"element": "H" 
			},
			{
				"x": -0.8720618625,
				"y": 1.0782535074,
				"z": 0.6538209805,
				"element": "H" 
			},
			{
				"x": -2.5821373104,
				"y": 3.5727434638,
				"z": 1.1855238369,
				"element": "H" 
			},
			{
				"x": -2.5606285465,
				"y": 2.1412521827,
				"z": 2.1992432027,
				"element": "H" 
			},
			{
				"x": -3.4607408088,
				"y": 2.1976478088,
				"z": -0.7471769008,
				"element": "H" 
			},
			{
				"x": -4.5333700706,
				"y": 2.0929776182,
				"z": 0.655802658,
				"element": "H" 
			},
			{
				"x": -3.4389418624,
				"y": 0.7564243942,
				"z": 0.2747404249,
				"element": "H" 
			}
		],
		 "valence_orbital": [ 
			{
				"type": "occ",
				"energy": -0.31205,
				"method": "rhf"
			},
			{
				"type": "occ",
				"energy": -0.30752,
				"method": "rhf"
			},
			{
				"type": "occ",
				"energy": -0.30523,
				"method": "rhf"
			},
			{
				"type": "occ",
				"energy": -0.29723,
				"method": "rhf"
			},
			{
				"type": "occ",
				"energy": -0.24794,
				"method": "rhf"
			},
			{
				"type": "unocc",
				"energy": 0.06999,
				"method": "rhf"
			},
			{
				"type": "unocc",
				"energy": 0.08729,
				"method": "rhf"
			},
			{
				"type": "unocc",
				"energy": 0.1018,
				"method": "rhf"
			},
			{
				"type": "unocc",
				"energy": 0.11281,
				"method": "rhf"
			},
			{
				"type": "unocc",
				"energy": 0.11488,
				"method": "rhf"
			}
		],
		"cosmo_sigma_profile": { 
			"-0.025": 0.0,
			"-0.024": 0.0,
			"-0.023": 0.0,
			"-0.022": 0.0,
			"-0.021": 0.0,
			"-0.02": 0.0,
			"-0.019": 0.0,
			"-0.018": 0.0,
			"-0.017": 0.0,
			"-0.016": 0.0,
			"-0.015": 0.0,
			"-0.014": 0.0,
			"-0.013": 0.0,
			"-0.012": 0.0,
			"-0.011": 0.0,
			"-0.01": 0.0,
			"-0.009": 0.0,
			"-0.008": 0.0,
			"-0.007": 0.0,
			"-0.006": 0.0,
			"-0.005": 0.0,
			"-0.004": 0.167761959022,
			"-0.003": 15.2620449072,
			"-0.002": 54.7464141006,
			"-0.001": 66.3216513304,
			"0.0": 63.6576167633,
			"0.001": 53.3366001778,
			"0.002": 27.352846056,
			"0.003": 4.22213178618,
			"0.004": 2.94924992347,
			"0.005": 2.64305959434,
			"0.006": 2.20909335692,
			"0.007": 1.09328147055,
			"0.008": 1.19240880638,
			"0.009": 1.27202059791,
			"0.01": 0.859526361453,
			"0.011": 0.691527314295,
			"0.012": 0.666899601618,
			"0.013": 0.513408825081,
			"0.014": 0.0315517054202,
			"0.015": 0.0,
			"0.016": 0.0,
			"0.017": 0.0,
			"0.018": 0.0,
			"0.019": 0.0,
			"0.02": 0.0,
			"0.021": 0.0,
			"0.022": 0.0,
			"0.023": 0.0,
			"0.024": 0.0,
			"0.025": 0.0
		}
	}
}
