{
	 "smiles": "CC1=CC(OCCCCC(O)=O)=CC=C1", 
	 "Tm": 329.15, 
	 "num_atms": 31, 
	 "gaussian": { 
		 "optdone": 1, 
		 "sigma_profile": "yes", 
		 "theory": "DFT", 
		 "functional": "B3LYP", 
		 "basiset": "6-31G**", 
		 "properties": { 
			 "R2extent": 6500.1721, 
			 "electric_dipole_moment_norm": 2.16553998809, 
			 "electric_quadrupole_moment_norm": 15.352767418, 
			 "total_energy": -692.613920025, 
			 "HOMO_LUMO_gap": 0.21871, 
			 "cosmo_polarized_energy": -12.68, 
			 "cosmo_cavitation_energy": 34.84, 
			 "cosmo_dispersion_energy": -24.99, 
			 "cosmo_repulsion_energy": 2.01, 
			 "cosmo_total_nonelectrostatic_energy": 11.86, 
			 "SMD_solvation_energy": 6.92 
		},
		"coords": [
			{
				"x": -3.4927368594,
				"y": -2.7464632855,
				"z": -1.9534281828,
				"element": "C" 
			},
			{
				"x": -2.3285403796,
				"y": -1.798305656,
				"z": -2.1257360802,
				"element": "C" 
			},
			{
				"x": -1.8544917838,
				"y": -1.0483279518,
				"z": -1.0516404259,
				"element": "C" 
			},
			{
				"x": -0.7750855573,
				"y": -0.1639843722,
				"z": -1.2049025688,
				"element": "C" 
			},
			{
				"x": -0.406740445,
				"y": 0.5120364524,
				"z": -0.0752203448,
				"element": "O" 
			},
			{
				"x": 0.6806670462,
				"y": 1.4274204202,
				"z": -0.1499072825,
				"element": "C" 
			},
			{
				"x": 0.8730594674,
				"y": 2.029764425,
				"z": 1.2358235855,
				"element": "C" 
			},
			{
				"x": 2.0290604541,
				"y": 3.0368571977,
				"z": 1.2744711994,
				"element": "C" 
			},
			{
				"x": 2.2247247275,
				"y": 3.6867392786,
				"z": 2.6542772693,
				"element": "C" 
			},
			{
				"x": 2.5926120656,
				"y": 2.7252992546,
				"z": 3.7661778391,
				"element": "C" 
			},
			{
				"x": 3.5584645856,
				"y": 1.849034786,
				"z": 3.3863415425,
				"element": "O" 
			},
			{
				"x": 2.1229145257,
				"y": 2.7249283355,
				"z": 4.8819490621,
				"element": "O" 
			},
			{
				"x": -0.1577338406,
				"y": -0.0254740084,
				"z": -2.4515586982,
				"element": "C" 
			},
			{
				"x": -0.635249328,
				"y": -0.7799571284,
				"z": -3.5295157455,
				"element": "C" 
			},
			{
				"x": -1.7040923452,
				"y": -1.6556947205,
				"z": -3.3775950568,
				"element": "C" 
			},
			{
				"x": -3.2146716085,
				"y": -3.7707836105,
				"z": -2.2270417219,
				"element": "H" 
			},
			{
				"x": -4.3351382051,
				"y": -2.46128554,
				"z": -2.5944209739,
				"element": "H" 
			},
			{
				"x": -3.8491127769,
				"y": -2.7607336451,
				"z": -0.9199751647,
				"element": "H" 
			},
			{
				"x": -2.3100967631,
				"y": -1.1311044408,
				"z": -0.0693063272,
				"element": "H" 
			},
			{
				"x": 1.593520162,
				"y": 0.9067814096,
				"z": -0.4756821338,
				"element": "H" 
			},
			{
				"x": 0.4640023038,
				"y": 2.2139722277,
				"z": -0.8884256441,
				"element": "H" 
			},
			{
				"x": -0.0622993601,
				"y": 2.5133007529,
				"z": 1.5426809146,
				"element": "H" 
			},
			{
				"x": 1.0565413879,
				"y": 1.2147199394,
				"z": 1.9457143248,
				"element": "H" 
			},
			{
				"x": 2.9616308551,
				"y": 2.5453701131,
				"z": 0.9758039161,
				"element": "H" 
			},
			{
				"x": 1.8461775971,
				"y": 3.8365151871,
				"z": 0.5455961682,
				"element": "H" 
			},
			{
				"x": 3.0328175206,
				"y": 4.4274247153,
				"z": 2.5949979907,
				"element": "H" 
			},
			{
				"x": 1.3245528244,
				"y": 4.2142298271,
				"z": 2.980137874,
				"element": "H" 
			},
			{
				"x": 3.7351728753,
				"y": 1.2937049888,
				"z": 4.1643297563,
				"element": "H" 
			},
			{
				"x": 0.677000991,
				"y": 0.6499037116,
				"z": -2.5949953737,
				"element": "H" 
			},
			{
				"x": -0.1568316341,
				"y": -0.6744470785,
				"z": -4.4995317778,
				"element": "H" 
			},
			{
				"x": -2.0598985025,
				"y": -2.2329415847,
				"z": -4.22691794,
				"element": "H" 
			}
		],
		 "valence_orbital": [ 
			{
				"type": "occ",
				"energy": -0.318,
				"method": "rhf"
			},
			{
				"type": "occ",
				"energy": -0.30707,
				"method": "rhf"
			},
			{
				"type": "occ",
				"energy": -0.27365,
				"method": "rhf"
			},
			{
				"type": "occ",
				"energy": -0.2377,
				"method": "rhf"
			},
			{
				"type": "occ",
				"energy": -0.2127,
				"method": "rhf"
			},
			{
				"type": "unocc",
				"energy": 0.00601,
				"method": "rhf"
			},
			{
				"type": "unocc",
				"energy": 0.00755,
				"method": "rhf"
			},
			{
				"type": "unocc",
				"energy": 0.01633,
				"method": "rhf"
			},
			{
				"type": "unocc",
				"energy": 0.06854,
				"method": "rhf"
			},
			{
				"type": "unocc",
				"energy": 0.09403,
				"method": "rhf"
			}
		],
		"cosmo_sigma_profile": { 
			"-0.025": 0.0,
			"-0.024": 0.0,
			"-0.023": 0.0,
			"-0.022": 0.0,
			"-0.021": 0.0,
			"-0.02": 0.0,
			"-0.019": 0.0,
			"-0.018": 0.356186247009,
			"-0.017": 1.14916169161,
			"-0.016": 0.666092695538,
			"-0.015": 0.974539754953,
			"-0.014": 0.728491317559,
			"-0.013": 0.63214259633,
			"-0.012": 0.618641677722,
			"-0.011": 0.863616292014,
			"-0.01": 0.787727806042,
			"-0.009": 0.383706093049,
			"-0.008": 0.437542093106,
			"-0.007": 1.49909035843,
			"-0.006": 5.56052477197,
			"-0.005": 15.7136023842,
			"-0.004": 32.5499286113,
			"-0.003": 34.208065739,
			"-0.002": 31.5950841508,
			"-0.001": 21.4671886962,
			"0.0": 18.1033581913,
			"0.001": 14.6440343804,
			"0.002": 11.9617885538,
			"0.003": 10.2142193123,
			"0.004": 12.5714910699,
			"0.005": 13.8243728743,
			"0.006": 12.489475203,
			"0.007": 7.50818378067,
			"0.008": 4.38548949793,
			"0.009": 4.09390885657,
			"0.01": 3.09271939626,
			"0.011": 3.62383925469,
			"0.012": 5.02627972801,
			"0.013": 1.56329174118,
			"0.014": 0.0240067417985,
			"0.015": 0.0,
			"0.016": 0.0,
			"0.017": 0.0,
			"0.018": 0.0,
			"0.019": 0.0,
			"0.02": 0.0,
			"0.021": 0.0,
			"0.022": 0.0,
			"0.023": 0.0,
			"0.024": 0.0,
			"0.025": 0.0
		}
	}
}
