{
	 "smiles": "NC1=C(CCCC(O)=O)C=C(C=C1)C(O)=O", 
	 "Tm": 477.15, 
	 "num_atms": 29, 
	 "gaussian": { 
		 "optdone": 1, 
		 "sigma_profile": "yes", 
		 "theory": "DFT", 
		 "functional": "B3LYP", 
		 "basiset": "6-31G**", 
		 "properties": { 
			 "R2extent": 5522.0027, 
			 "electric_dipole_moment_norm": 6.64025339501, 
			 "electric_quadrupole_moment_norm": 22.8422477351, 
			 "total_energy": -782.690981548, 
			 "HOMO_LUMO_gap": 0.18634, 
			 "cosmo_polarized_energy": -26.71, 
			 "cosmo_cavitation_energy": 33.62, 
			 "cosmo_dispersion_energy": -24.13, 
			 "cosmo_repulsion_energy": 1.92, 
			 "cosmo_total_nonelectrostatic_energy": 11.4, 
			 "SMD_solvation_energy": 7.58 
		},
		"coords": [
			{
				"x": 0.3569103635,
				"y": -2.8549130085,
				"z": 1.09895433,
				"element": "N" 
			},
			{
				"x": -0.47408485,
				"y": -1.7446500101,
				"z": 1.1228207576,
				"element": "C" 
			},
			{
				"x": -0.0601653831,
				"y": -0.5219187178,
				"z": 0.5282316096,
				"element": "C" 
			},
			{
				"x": 1.3195110673,
				"y": -0.4434678726,
				"z": -0.0972573283,
				"element": "C" 
			},
			{
				"x": 1.6830600197,
				"y": 0.8839382461,
				"z": -0.7711482018,
				"element": "C" 
			},
			{
				"x": 3.095506387,
				"y": 0.8394549422,
				"z": -1.3820643644,
				"element": "C" 
			},
			{
				"x": 3.5044496381,
				"y": 2.1389874592,
				"z": -2.0416898638,
				"element": "C" 
			},
			{
				"x": 2.6314917007,
				"y": 2.5057825534,
				"z": -3.0130191661,
				"element": "O" 
			},
			{
				"x": 4.4842200794,
				"y": 2.7949396172,
				"z": -1.7660909278,
				"element": "O" 
			},
			{
				"x": -0.9488096569,
				"y": 0.5465932113,
				"z": 0.5325413718,
				"element": "C" 
			},
			{
				"x": -2.2263296185,
				"y": 0.4623379332,
				"z": 1.1095050443,
				"element": "C" 
			},
			{
				"x": -2.6248044181,
				"y": -0.757310381,
				"z": 1.672057877,
				"element": "C" 
			},
			{
				"x": -1.7603760592,
				"y": -1.843586787,
				"z": 1.6810523988,
				"element": "C" 
			},
			{
				"x": -3.0916312238,
				"y": 1.6745007472,
				"z": 1.0498922953,
				"element": "C" 
			},
			{
				"x": -4.1765623869,
				"y": 1.7001745721,
				"z": 1.8768802514,
				"element": "O" 
			},
			{
				"x": -2.8787741385,
				"y": 2.6168558374,
				"z": 0.3198956839,
				"element": "O" 
			},
			{
				"x": 1.3500634571,
				"y": -2.6873486965,
				"z": 1.0420798081,
				"element": "H" 
			},
			{
				"x": 0.116713699,
				"y": -3.6042608049,
				"z": 1.7315082523,
				"element": "H" 
			},
			{
				"x": 2.0787060892,
				"y": -0.6582740142,
				"z": 0.6734931839,
				"element": "H" 
			},
			{
				"x": 1.4154789582,
				"y": -1.2548812523,
				"z": -0.8347344889,
				"element": "H" 
			},
			{
				"x": 0.9597289702,
				"y": 1.1185216024,
				"z": -1.5579988326,
				"element": "H" 
			},
			{
				"x": 1.6321537427,
				"y": 1.6989910981,
				"z": -0.0396219201,
				"element": "H" 
			},
			{
				"x": 3.139579601,
				"y": 0.0488231693,
				"z": -2.1423346455,
				"element": "H" 
			},
			{
				"x": 3.8496099272,
				"y": 0.6179118325,
				"z": -0.6225711048,
				"element": "H" 
			},
			{
				"x": 2.9624954098,
				"y": 3.3464480876,
				"z": -3.3715286037,
				"element": "H" 
			},
			{
				"x": -0.6771335902,
				"y": 1.4933161592,
				"z": 0.0804667398,
				"element": "H" 
			},
			{
				"x": -3.6244561052,
				"y": -0.8912518508,
				"z": 2.0794042877,
				"element": "H" 
			},
			{
				"x": -2.0808115947,
				"y": -2.7890916069,
				"z": 2.1112506368,
				"element": "H" 
			},
			{
				"x": -4.1234400848,
				"y": 0.9749779343,
				"z": 2.5138249194,
				"element": "H" 
			}
		],
		 "valence_orbital": [ 
			{
				"type": "occ",
				"energy": -0.30159,
				"method": "rhf"
			},
			{
				"type": "occ",
				"energy": -0.27365,
				"method": "rhf"
			},
			{
				"type": "occ",
				"energy": -0.2627,
				"method": "rhf"
			},
			{
				"type": "occ",
				"energy": -0.25833,
				"method": "rhf"
			},
			{
				"type": "occ",
				"energy": -0.2198,
				"method": "rhf"
			},
			{
				"type": "unocc",
				"energy": -0.03346,
				"method": "rhf"
			},
			{
				"type": "unocc",
				"energy": -0.01223,
				"method": "rhf"
			},
			{
				"type": "unocc",
				"energy": 0.00619,
				"method": "rhf"
			},
			{
				"type": "unocc",
				"energy": 0.05605,
				"method": "rhf"
			},
			{
				"type": "unocc",
				"energy": 0.06463,
				"method": "rhf"
			}
		],
		"cosmo_sigma_profile": { 
			"-0.025": 0.0,
			"-0.024": 0.0,
			"-0.023": 0.0,
			"-0.022": 0.0,
			"-0.021": 0.0,
			"-0.02": 0.0,
			"-0.019": 0.000284960615436,
			"-0.018": 1.10620728281,
			"-0.017": 1.57435354675,
			"-0.016": 2.235827467,
			"-0.015": 1.70418100494,
			"-0.014": 1.50169905599,
			"-0.013": 3.27167230837,
			"-0.012": 3.71488202093,
			"-0.011": 4.97329195011,
			"-0.01": 5.62443293133,
			"-0.009": 4.11138426214,
			"-0.008": 4.6028930033,
			"-0.007": 6.05802426108,
			"-0.006": 8.9850711139,
			"-0.005": 15.1041738262,
			"-0.004": 21.0819403401,
			"-0.003": 19.5409623367,
			"-0.002": 19.6121071364,
			"-0.001": 10.4028628565,
			"0.0": 10.5632474594,
			"0.001": 11.3227915468,
			"0.002": 11.8035804503,
			"0.003": 11.2365770571,
			"0.004": 13.8879008895,
			"0.005": 14.0363648978,
			"0.006": 6.47946733044,
			"0.007": 5.11192596427,
			"0.008": 6.00148800889,
			"0.009": 5.84504625685,
			"0.01": 5.98538253141,
			"0.011": 9.79498578979,
			"0.012": 10.6084371432,
			"0.013": 5.75047634425,
			"0.014": 1.28536873082,
			"0.015": 0.0121934639063,
			"0.016": 0.0,
			"0.017": 0.0,
			"0.018": 0.0,
			"0.019": 0.0,
			"0.02": 0.0,
			"0.021": 0.0,
			"0.022": 0.0,
			"0.023": 0.0,
			"0.024": 0.0,
			"0.025": 0.0
		}
	}
}
