{
	 "smiles": "CN(C1=CC=C(C)C=C1)S(=O)(=O)C1=CC(=CC=C1)C(O)=O", 
	 "Tm": 436.15, 
	 "num_atms": 36, 
	 "gaussian": { 
		 "optdone": 1, 
		 "sigma_profile": "yes", 
		 "theory": "DFT", 
		 "functional": "B3LYP", 
		 "basiset": "6-31G**", 
		 "properties": { 
			 "R2extent": 7937.4993, 
			 "electric_dipole_moment_norm": 6.51790657804, 
			 "electric_quadrupole_moment_norm": 28.6555939598, 
			 "total_energy": -1334.40920403, 
			 "HOMO_LUMO_gap": 0.16274, 
			 "cosmo_polarized_energy": -23.23, 
			 "cosmo_cavitation_energy": 41.29, 
			 "cosmo_dispersion_energy": -28.51, 
			 "cosmo_repulsion_energy": 2.15, 
			 "cosmo_total_nonelectrostatic_energy": 14.93, 
			 "SMD_solvation_energy": 7.09 
		},
		"coords": [
			{
				"x": -0.0550543772,
				"y": 0.0582368003,
				"z": -1.6396986615,
				"element": "C" 
			},
			{
				"x": 0.7809226528,
				"y": -0.6984059015,
				"z": -0.6945787262,
				"element": "N" 
			},
			{
				"x": 0.2898222529,
				"y": -1.9602739958,
				"z": -0.2139023017,
				"element": "C" 
			},
			{
				"x": 1.1883463159,
				"y": -3.0135761327,
				"z": 0.0089768361,
				"element": "C" 
			},
			{
				"x": 0.7193254918,
				"y": -4.2475594511,
				"z": 0.4488870058,
				"element": "C" 
			},
			{
				"x": -0.6487515191,
				"y": -4.4821134974,
				"z": 0.6539307362,
				"element": "C" 
			},
			{
				"x": -1.1458849397,
				"y": -5.8403215693,
				"z": 1.0887039978,
				"element": "C" 
			},
			{
				"x": -1.5348011539,
				"y": -3.4255788834,
				"z": 0.4166678366,
				"element": "C" 
			},
			{
				"x": -1.0776913778,
				"y": -2.175763322,
				"z": -0.0031169714,
				"element": "C" 
			},
			{
				"x": 1.7243750782,
				"y": 0.2454247828,
				"z": 0.3620790852,
				"element": "S" 
			},
			{
				"x": 2.6668466031,
				"y": -0.6526499426,
				"z": 1.0276045204,
				"element": "O" 
			},
			{
				"x": 2.170232662,
				"y": 1.4015368096,
				"z": -0.4156128996,
				"element": "O" 
			},
			{
				"x": 0.5886799852,
				"y": 0.8448481785,
				"z": 1.6259067491,
				"element": "C" 
			},
			{
				"x": -0.0721473961,
				"y": 2.055250365,
				"z": 1.4323143231,
				"element": "C" 
			},
			{
				"x": -0.9698020876,
				"y": 2.5105075498,
				"z": 2.4066790358,
				"element": "C" 
			},
			{
				"x": -1.2086120844,
				"y": 1.7289747094,
				"z": 3.5457497671,
				"element": "C" 
			},
			{
				"x": -0.5445675968,
				"y": 0.5142117397,
				"z": 3.7236991417,
				"element": "C" 
			},
			{
				"x": 0.3643608391,
				"y": 0.066080872,
				"z": 2.766514316,
				"element": "C" 
			},
			{
				"x": -1.6706044108,
				"y": 3.8132755147,
				"z": 2.1470917116,
				"element": "C" 
			},
			{
				"x": -2.1528163094,
				"y": 4.4740457208,
				"z": 3.2321736746,
				"element": "O" 
			},
			{
				"x": -1.8202303301,
				"y": 4.2702069525,
				"z": 1.0395729085,
				"element": "O" 
			},
			{
				"x": 0.5586174779,
				"y": 0.8211613775,
				"z": -2.1163787684,
				"element": "H" 
			},
			{
				"x": -0.922773693,
				"y": 0.5401624087,
				"z": -1.1686049089,
				"element": "H" 
			},
			{
				"x": -0.4100807301,
				"y": -0.6416801842,
				"z": -2.3985355331,
				"element": "H" 
			},
			{
				"x": 2.2455337227,
				"y": -2.8491135325,
				"z": -0.1584261498,
				"element": "H" 
			},
			{
				"x": 1.430900447,
				"y": -5.0513948734,
				"z": 0.6209182724,
				"element": "H" 
			},
			{
				"x": -0.5096856753,
				"y": -6.2680851908,
				"z": 1.8703871899,
				"element": "H" 
			},
			{
				"x": -1.147162518,
				"y": -6.5491009543,
				"z": 0.2513462664,
				"element": "H" 
			},
			{
				"x": -2.1677476497,
				"y": -5.7880790432,
				"z": 1.4750485246,
				"element": "H" 
			},
			{
				"x": -2.6007230221,
				"y": -3.5758895102,
				"z": 0.5686430492,
				"element": "H" 
			},
			{
				"x": -1.7899176227,
				"y": -1.3737691315,
				"z": -0.1671483386,
				"element": "H" 
			},
			{
				"x": 0.1147258416,
				"y": 2.6609163296,
				"z": 0.5529956345,
				"element": "H" 
			},
			{
				"x": -1.9382120746,
				"y": 2.0438922928,
				"z": 4.2876768106,
				"element": "H" 
			},
			{
				"x": -0.7369403535,
				"y": -0.084223819,
				"z": 4.6085372823,
				"element": "H" 
			},
			{
				"x": 0.9065916545,
				"y": -0.8633283075,
				"z": 2.8980320612,
				"element": "H" 
			},
			{
				"x": -1.8036741029,
				"y": 4.0857748388,
				"z": 4.0463665227,
				"element": "H" 
			}
		],
		 "valence_orbital": [ 
			{
				"type": "occ",
				"energy": -0.29231,
				"method": "rhf"
			},
			{
				"type": "occ",
				"energy": -0.28048,
				"method": "rhf"
			},
			{
				"type": "occ",
				"energy": -0.2783,
				"method": "rhf"
			},
			{
				"type": "occ",
				"energy": -0.25884,
				"method": "rhf"
			},
			{
				"type": "occ",
				"energy": -0.23201,
				"method": "rhf"
			},
			{
				"type": "unocc",
				"energy": -0.06927,
				"method": "rhf"
			},
			{
				"type": "unocc",
				"energy": -0.05091,
				"method": "rhf"
			},
			{
				"type": "unocc",
				"energy": -0.01593,
				"method": "rhf"
			},
			{
				"type": "unocc",
				"energy": -0.01012,
				"method": "rhf"
			},
			{
				"type": "unocc",
				"energy": 0.02517,
				"method": "rhf"
			}
		],
		"cosmo_sigma_profile": { 
			"-0.025": 0.0,
			"-0.024": 0.0,
			"-0.023": 0.0,
			"-0.022": 0.0,
			"-0.021": 0.0,
			"-0.02": 0.0,
			"-0.019": 1.00077827995,
			"-0.018": 0.67439623874,
			"-0.017": 1.29658921281,
			"-0.016": 0.802415394593,
			"-0.015": 1.04661945211,
			"-0.014": 0.788734678349,
			"-0.013": 1.33614511318,
			"-0.012": 1.36045684183,
			"-0.011": 1.10174619406,
			"-0.01": 1.27782250302,
			"-0.009": 1.78086296848,
			"-0.008": 4.90185890695,
			"-0.007": 8.42084462089,
			"-0.006": 13.7241793553,
			"-0.005": 21.6055523803,
			"-0.004": 30.1860362732,
			"-0.003": 28.3801200996,
			"-0.002": 21.1868644223,
			"-0.001": 23.2116167087,
			"0.0": 28.6947747776,
			"0.001": 23.8039649556,
			"0.002": 15.9292821548,
			"0.003": 13.9656980764,
			"0.004": 15.1023737994,
			"0.005": 12.6384908141,
			"0.006": 6.20085742967,
			"0.007": 6.19730465844,
			"0.008": 7.16166097596,
			"0.009": 8.20456999318,
			"0.01": 11.486972169,
			"0.011": 11.7221033949,
			"0.012": 3.45291816089,
			"0.013": 0.683645220628,
			"0.014": 0.0,
			"0.015": 0.0,
			"0.016": 0.0,
			"0.017": 0.0,
			"0.018": 0.0,
			"0.019": 0.0,
			"0.02": 0.0,
			"0.021": 0.0,
			"0.022": 0.0,
			"0.023": 0.0,
			"0.024": 0.0,
			"0.0": 0.0
		}
	}
}
