{
	 "smiles": "CCCCCOC(=O)CCC(=O)OCCCCC", 
	 "Tm": 262.35, 
	 "num_atms": 44, 
	 "gaussian": { 
		 "optdone": 1, 
		 "sigma_profile": "yes", 
		 "theory": "DFT", 
		 "functional": "B3LYP", 
		 "basiset": "6-31G**", 
		 "properties": { 
			 "R2extent": 7569.8655, 
			 "electric_dipole_moment_norm": 1.68188769542, 
			 "electric_quadrupole_moment_norm": 10.0640222829, 
			 "total_energy": -850.10704063, 
			 "HOMO_LUMO_gap": 0.26938, 
			 "cosmo_polarized_energy": -11.2, 
			 "cosmo_cavitation_energy": 46.07, 
			 "cosmo_dispersion_energy": -29.96, 
			 "cosmo_repulsion_energy": 2.45, 
			 "cosmo_total_nonelectrostatic_energy": 18.57, 
			 "SMD_solvation_energy": 8.52 
		},
		"coords": [
			{
				"x": 3.6515055555,
				"y": 1.2150094232,
				"z": 1.2284236609,
				"element": "C" 
			},
			{
				"x": 4.6935059332,
				"y": 0.3983389416,
				"z": 0.4547193452,
				"element": "C" 
			},
			{
				"x": 4.247113078,
				"y": -0.0263442405,
				"z": -0.9544464822,
				"element": "C" 
			},
			{
				"x": 3.0463763224,
				"y": -0.9823835269,
				"z": -0.9659705066,
				"element": "C" 
			},
			{
				"x": 2.6886008557,
				"y": -1.4363969435,
				"z": -2.3773073059,
				"element": "C" 
			},
			{
				"x": 1.5411302812,
				"y": -2.3216404143,
				"z": -2.3461599285,
				"element": "O" 
			},
			{
				"x": 0.3257648468,
				"y": -1.7428070124,
				"z": -2.4632196282,
				"element": "C" 
			},
			{
				"x": 0.1407868933,
				"y": -0.5709994788,
				"z": -2.7119694502,
				"element": "O" 
			},
			{
				"x": -0.7771433165,
				"y": -2.7504749095,
				"z": -2.1961515852,
				"element": "C" 
			},
			{
				"x": -0.8612351666,
				"y": -3.1052640351,
				"z": -0.6911508977,
				"element": "C" 
			},
			{
				"x": -1.1208168856,
				"y": -1.8737627794,
				"z": 0.1569304941,
				"element": "C" 
			},
			{
				"x": -0.2637966594,
				"y": -1.2524207839,
				"z": 0.7515428976,
				"element": "O" 
			},
			{
				"x": -2.426291187,
				"y": -1.5341762956,
				"z": 0.1297413043,
				"element": "O" 
			},
			{
				"x": -2.7984990557,
				"y": -0.3189361414,
				"z": 0.8296193258,
				"element": "C" 
			},
			{
				"x": -3.1130147111,
				"y": -0.6158343001,
				"z": 2.2937882271,
				"element": "C" 
			},
			{
				"x": -3.7965326044,
				"y": 0.5279736774,
				"z": 3.066680096,
				"element": "C" 
			},
			{
				"x": -2.9491743545,
				"y": 1.7882131084,
				"z": 3.3382424272,
				"element": "C" 
			},
			{
				"x": -2.9003407154,
				"y": 2.8138309609,
				"z": 2.197929205,
				"element": "C" 
			},
			{
				"x": 2.7383398411,
				"y": 0.6415591106,
				"z": 1.4157027363,
				"element": "H" 
			},
			{
				"x": 4.0458980254,
				"y": 1.5327605719,
				"z": 2.1993696226,
				"element": "H" 
			},
			{
				"x": 3.3681537867,
				"y": 2.1174563746,
				"z": 0.6740123388,
				"element": "H" 
			},
			{
				"x": 4.9589308543,
				"y": -0.4976245314,
				"z": 1.0324746293,
				"element": "H" 
			},
			{
				"x": 5.6161897033,
				"y": 0.9859006145,
				"z": 0.3653594354,
				"element": "H" 
			},
			{
				"x": 4.0033270562,
				"y": 0.8706530151,
				"z": -1.5412885054,
				"element": "H" 
			},
			{
				"x": 5.0953453658,
				"y": -0.5040602344,
				"z": -1.4646209376,
				"element": "H" 
			},
			{
				"x": 3.2661903219,
				"y": -1.866103738,
				"z": -0.3530460543,
				"element": "H" 
			},
			{
				"x": 2.1663510236,
				"y": -0.5053742977,
				"z": -0.523539364,
				"element": "H" 
			},
			{
				"x": 2.4596836394,
				"y": -0.585318789,
				"z": -3.0232202855,
				"element": "H" 
			},
			{
				"x": 3.4902243842,
				"y": -2.0288952107,
				"z": -2.8270535687,
				"element": "H" 
			},
			{
				"x": -1.7183635822,
				"y": -2.3145961698,
				"z": -2.5359641248,
				"element": "H" 
			},
			{
				"x": -0.5802429571,
				"y": -3.666430071,
				"z": -2.7615072181,
				"element": "H" 
			},
			{
				"x": 0.0819561289,
				"y": -3.5446403648,
				"z": -0.3616685074,
				"element": "H" 
			},
			{
				"x": -1.6687438622,
				"y": -3.8274803091,
				"z": -0.5415557854,
				"element": "H" 
			},
			{
				"x": -1.9853285941,
				"y": 0.4000049559,
				"z": 0.721576101,
				"element": "H" 
			},
			{
				"x": -3.6823571703,
				"y": 0.0439899619,
				"z": 0.2979433674,
				"element": "H" 
			},
			{
				"x": -2.1832090439,
				"y": -0.9005056581,
				"z": 2.8000319276,
				"element": "H" 
			},
			{
				"x": -3.7700610179,
				"y": -1.4942477382,
				"z": 2.3164447023,
				"element": "H" 
			},
			{
				"x": -4.1096372556,
				"y": 0.1112112567,
				"z": 4.0316921823,
				"element": "H" 
			},
			{
				"x": -4.7250620294,
				"y": 0.8163690118,
				"z": 2.5528149623,
				"element": "H" 
			},
			{
				"x": -1.9289196317,
				"y": 1.4862971907,
				"z": 3.6104873236,
				"element": "H" 
			},
			{
				"x": -3.3593058559,
				"y": 2.2883840652,
				"z": 4.2246780848,
				"element": "H" 
			},
			{
				"x": -2.3370128908,
				"y": 3.7032794012,
				"z": 2.4991343753,
				"element": "H" 
			},
			{
				"x": -2.4228971677,
				"y": 2.4194587503,
				"z": 1.2963522421,
				"element": "H" 
			},
			{
				"x": -3.9096881823,
				"y": 3.1404275814,
				"z": 1.9216491216,
				"element": "H" 
			}
		],
		 "valence_orbital": [ 
			{
				"type": "occ",
				"energy": -0.31564,
				"method": "rhf"
			},
			{
				"type": "occ",
				"energy": -0.29299,
				"method": "rhf"
			},
			{
				"type": "occ",
				"energy": -0.28772,
				"method": "rhf"
			},
			{
				"type": "occ",
				"energy": -0.27233,
				"method": "rhf"
			},
			{
				"type": "occ",
				"energy": -0.2638,
				"method": "rhf"
			},
			{
				"type": "unocc",
				"energy": 0.00558,
				"method": "rhf"
			},
			{
				"type": "unocc",
				"energy": 0.01413,
				"method": "rhf"
			},
			{
				"type": "unocc",
				"energy": 0.07993,
				"method": "rhf"
			},
			{
				"type": "unocc",
				"energy": 0.09404,
				"method": "rhf"
			},
			{
				"type": "unocc",
				"energy": 0.10515,
				"method": "rhf"
			}
		],
		"cosmo_sigma_profile": { 
			"-0.025": 0.0,
			"-0.024": 0.0,
			"-0.023": 0.0,
			"-0.022": 0.0,
			"-0.021": 0.0,
			"-0.02": 0.0,
			"-0.019": 0.0,
			"-0.018": 0.0,
			"-0.017": 0.0,
			"-0.016": 0.0,
			"-0.015": 0.0,
			"-0.014": 0.0,
			"-0.013": 0.0,
			"-0.012": 0.0,
			"-0.011": 0.0,
			"-0.01": 0.0,
			"-0.009": 0.0,
			"-0.008": 0.0,
			"-0.007": 1.57628757488,
			"-0.006": 7.16834374076,
			"-0.005": 15.598926524,
			"-0.004": 19.9029168688,
			"-0.003": 36.2746774901,
			"-0.002": 53.081330218,
			"-0.001": 53.6280930881,
			"0.0": 52.596691142,
			"0.001": 39.8633631588,
			"0.002": 17.7035567654,
			"0.003": 9.75201901448,
			"0.004": 8.07127851432,
			"0.005": 6.20911463105,
			"0.006": 5.84189626009,
			"0.007": 5.93490834567,
			"0.008": 4.40506996375,
			"0.009": 4.70310207348,
			"0.01": 3.24126663604,
			"0.011": 5.42582077539,
			"0.012": 4.80189915351,
			"0.013": 0.776709515388,
			"0.014": 0.0,
			"0.015": 0.0,
			"0.016": 0.0,
			"0.017": 0.0,
			"0.018": 0.0,
			"0.019": 0.0,
			"0.02": 0.0,
			"0.021": 0.0,
			"0.022": 0.0,
			"0.023": 0.0,
			"0.024": 0.0,
			"0.025": 0.0
		}
	}
}
