{
	 "smiles": "CCCCCCCCCCCCCl", 
	 "Tm": 264.0, 
	 "num_atms": 38, 
	 "gaussian": { 
		 "optdone": 1, 
		 "sigma_profile": "yes", 
		 "theory": "DFT", 
		 "functional": "B3LYP", 
		 "basiset": "6-31G**", 
		 "properties": { 
			 "R2extent": 5280.7617, 
			 "electric_dipole_moment_norm": 2.08698891228, 
			 "electric_quadrupole_moment_norm": 10.5202941746, 
			 "total_energy": -932.577089451, 
			 "HOMO_LUMO_gap": 0.31086, 
			 "cosmo_polarized_energy": -4.01, 
			 "cosmo_cavitation_energy": 39.27, 
			 "cosmo_dispersion_energy": -26.53, 
			 "cosmo_repulsion_energy": 2.21, 
			 "cosmo_total_nonelectrostatic_energy": 14.95, 
			 "SMD_solvation_energy": 5.01 
		},
		"coords": [
			{
				"x": -2.4109089748,
				"y": 4.6884679569,
				"z": 0.4983573941,
				"element": "C" 
			},
			{
				"x": -2.6187099547,
				"y": 3.1724182929,
				"z": 0.4230372751,
				"element": "C" 
			},
			{
				"x": -1.6264074862,
				"y": 2.3810485166,
				"z": 1.2845546108,
				"element": "C" 
			},
			{
				"x": -1.8283220348,
				"y": 0.8616566182,
				"z": 1.2185150768,
				"element": "C" 
			},
			{
				"x": -0.8280702367,
				"y": 0.079236814,
				"z": 2.0808095967,
				"element": "C" 
			},
			{
				"x": -1.0603776571,
				"y": -1.4418695017,
				"z": 2.1161522623,
				"element": "C" 
			},
			{
				"x": -0.907415357,
				"y": -2.1801462587,
				"z": 0.7738307312,
				"element": "C" 
			},
			{
				"x": 0.5060230973,
				"y": -2.1147846973,
				"z": 0.1752671932,
				"element": "C" 
			},
			{
				"x": 0.7222199849,
				"y": -3.0145005033,
				"z": -1.0540118813,
				"element": "C" 
			},
			{
				"x": -0.1607383548,
				"y": -2.7035518021,
				"z": -2.2777485205,
				"element": "C" 
			},
			{
				"x": -0.0427413378,
				"y": -1.3016865409,
				"z": -2.9040737828,
				"element": "C" 
			},
			{
				"x": 1.233869377,
				"y": -1.0019877949,
				"z": -3.6857163401,
				"element": "C" 
			},
			{
				"x": 2.679840683,
				"y": -0.6077045733,
				"z": -2.6412560675,
				"element": "Cl" 
			},
			{
				"x": -2.5251687833,
				"y": 5.0533228101,
				"z": 1.5255963196,
				"element": "H" 
			},
			{
				"x": -1.406514133,
				"y": 4.967992988,
				"z": 0.1600944343,
				"element": "H" 
			},
			{
				"x": -3.13303137,
				"y": 5.2244291334,
				"z": -0.1264871248,
				"element": "H" 
			},
			{
				"x": -2.5334561268,
				"y": 2.8429171606,
				"z": -0.6216870348,
				"element": "H" 
			},
			{
				"x": -3.6434614605,
				"y": 2.9273283859,
				"z": 0.7343542846,
				"element": "H" 
			},
			{
				"x": -0.6009491852,
				"y": 2.6252450725,
				"z": 0.9718097493,
				"element": "H" 
			},
			{
				"x": -1.709718108,
				"y": 2.7130997203,
				"z": 2.3294967795,
				"element": "H" 
			},
			{
				"x": -1.754568251,
				"y": 0.5382556264,
				"z": 0.1711671135,
				"element": "H" 
			},
			{
				"x": -2.8517565722,
				"y": 0.6168933194,
				"z": 1.5386423528,
				"element": "H" 
			},
			{
				"x": -0.8806214389,
				"y": 0.4585822042,
				"z": 3.1104880005,
				"element": "H" 
			},
			{
				"x": 0.1924556893,
				"y": 0.294203495,
				"z": 1.7371577153,
				"element": "H" 
			},
			{
				"x": -2.0679488115,
				"y": -1.6338482742,
				"z": 2.5102732728,
				"element": "H" 
			},
			{
				"x": -0.3631057841,
				"y": -1.8854301856,
				"z": 2.8401271691,
				"element": "H" 
			},
			{
				"x": -1.1763334457,
				"y": -3.2345332111,
				"z": 0.9290319396,
				"element": "H" 
			},
			{
				"x": -1.6399077917,
				"y": -1.7902263593,
				"z": 0.0555747464,
				"element": "H" 
			},
			{
				"x": 1.2282081485,
				"y": -2.4154590147,
				"z": 0.94682259,
				"element": "H" 
			},
			{
				"x": 0.7629272751,
				"y": -1.0797274192,
				"z": -0.0797550878,
				"element": "H" 
			},
			{
				"x": 1.7774511277,
				"y": -2.967653568,
				"z": -1.3419906012,
				"element": "H" 
			},
			{
				"x": 0.5293226834,
				"y": -4.0570409352,
				"z": -0.7647865158,
				"element": "H" 
			},
			{
				"x": 0.0497651387,
				"y": -3.4481315465,
				"z": -3.0580271176,
				"element": "H" 
			},
			{
				"x": -1.2128584558,
				"y": -2.8540013258,
				"z": -2.0057418317,
				"element": "H" 
			},
			{
				"x": -0.8595062348,
				"y": -1.1921256607,
				"z": -3.6319814418,
				"element": "H" 
			},
			{
				"x": -0.2018158333,
				"y": -0.5170551151,
				"z": -2.1560265837,
				"element": "H" 
			},
			{
				"x": 1.5363672308,
				"y": -1.8480715544,
				"z": -4.3067553525,
				"element": "H" 
			},
			{
				"x": 1.1050627437,
				"y": -0.1259622725,
				"z": -4.3229153233,
				"element": "H" 
			}
		],
		 "valence_orbital": [ 
			{
				"type": "occ",
				"energy": -0.30403,
				"method": "rhf"
			},
			{
				"type": "occ",
				"energy": -0.30381,
				"method": "rhf"
			},
			{
				"type": "occ",
				"energy": -0.29852,
				"method": "rhf"
			},
			{
				"type": "occ",
				"energy": -0.28932,
				"method": "rhf"
			},
			{
				"type": "occ",
				"energy": -0.28374,
				"method": "rhf"
			},
			{
				"type": "unocc",
				"energy": 0.02712,
				"method": "rhf"
			},
			{
				"type": "unocc",
				"energy": 0.06925,
				"method": "rhf"
			},
			{
				"type": "unocc",
				"energy": 0.08715,
				"method": "rhf"
			},
			{
				"type": "unocc",
				"energy": 0.10076,
				"method": "rhf"
			},
			{
				"type": "unocc",
				"energy": 0.10417,
				"method": "rhf"
			}
		],
		"cosmo_sigma_profile": { 
			"-0.025": 0.0,
			"-0.024": 0.0,
			"-0.023": 0.0,
			"-0.022": 0.0,
			"-0.021": 0.0,
			"-0.02": 0.0,
			"-0.019": 0.0,
			"-0.018": 0.0,
			"-0.017": 0.0,
			"-0.016": 0.0,
			"-0.015": 0.0,
			"-0.014": 0.0,
			"-0.013": 0.0,
			"-0.012": 0.0,
			"-0.011": 0.0,
			"-0.01": 0.0,
			"-0.009": 0.0,
			"-0.008": 0.0,
			"-0.007": 0.640618067298,
			"-0.006": 4.59598678362,
			"-0.005": 5.57208566988,
			"-0.004": 9.41798970881,
			"-0.003": 11.6369758455,
			"-0.002": 35.7291257125,
			"-0.001": 61.7802671714,
			"0.0": 62.0882116362,
			"0.001": 53.8376867968,
			"0.002": 27.1642524358,
			"0.003": 5.44053015588,
			"0.004": 5.94610010364,
			"0.005": 6.57604188057,
			"0.006": 5.12420076671,
			"0.007": 6.90887380423,
			"0.008": 0.656424714152,
			"0.009": 0.0,
			"0.01": 0.0,
			"0.011": 0.0,
			"0.012": 0.0,
			"0.013": 0.0,
			"0.014": 0.0,
			"0.015": 0.0,
			"0.016": 0.0,
			"0.017": 0.0,
			"0.018": 0.0,
			"0.019": 0.0,
			"0.02": 0.0,
			"0.021": 0.0,
			"0.022": 0.0,
			"0.023": 0.0,
			"0.024": 0.0,
			"0.025": 0.0
		}
	}
}
