{
	 "smiles": "O=C(NCC1=CNN=C1)OCC1=CC=CC=C1", 
	 "Tm": 400.15, 
	 "num_atms": 30, 
	 "gaussian": { 
		 "optdone": 1, 
		 "sigma_profile": "yes", 
		 "theory": "DFT", 
		 "functional": "B3LYP", 
		 "basiset": "6-31G**", 
		 "properties": { 
			 "R2extent": 4723.2682, 
			 "electric_dipole_moment_norm": 3.41673437803, 
			 "electric_quadrupole_moment_norm": 20.4264209895, 
			 "total_energy": -779.80915276, 
			 "HOMO_LUMO_gap": 0.23276, 
			 "cosmo_polarized_energy": -18.28, 
			 "cosmo_cavitation_energy": 34.97, 
			 "cosmo_dispersion_energy": -23.94, 
			 "cosmo_repulsion_energy": 1.88, 
			 "cosmo_total_nonelectrostatic_energy": 12.92, 
			 "SMD_solvation_energy": 5.61 
		},
		"coords": [
			{
				"x": 2.9392901266,
				"y": 1.5700945606,
				"z": 0.8335028248,
				"element": "O" 
			},
			{
				"x": 2.2158145693,
				"y": 0.7924975311,
				"z": 1.4348097883,
				"element": "C" 
			},
			{
				"x": 1.5166481032,
				"y": 1.1193046992,
				"z": 2.562503411,
				"element": "N" 
			},
			{
				"x": 0.4723817933,
				"y": 0.302900786,
				"z": 3.1861031156,
				"element": "C" 
			},
			{
				"x": -0.9085284147,
				"y": 0.5187716602,
				"z": 2.6286643908,
				"element": "C" 
			},
			{
				"x": -1.9878573059,
				"y": 1.1174781698,
				"z": 3.2546648561,
				"element": "C" 
			},
			{
				"x": -3.0133471924,
				"y": 1.0919108805,
				"z": 2.364113656,
				"element": "N" 
			},
			{
				"x": -2.6810700004,
				"y": 0.5164374558,
				"z": 1.1880076637,
				"element": "N" 
			},
			{
				"x": -1.4065273322,
				"y": 0.1683642483,
				"z": 1.3453924464,
				"element": "C" 
			},
			{
				"x": 2.0278694882,
				"y": -0.511919702,
				"z": 1.0950658893,
				"element": "O" 
			},
			{
				"x": 2.7494937021,
				"y": -0.9735944334,
				"z": -0.0769199622,
				"element": "C" 
			},
			{
				"x": 1.9155179121,
				"y": -0.8630533413,
				"z": -1.3298924905,
				"element": "C" 
			},
			{
				"x": 1.8398639578,
				"y": 0.3503186688,
				"z": -2.0299804236,
				"element": "C" 
			},
			{
				"x": 1.0597848518,
				"y": 0.4506716411,
				"z": -3.181675744,
				"element": "C" 
			},
			{
				"x": 0.3479262996,
				"y": -0.6574180399,
				"z": -3.648112414,
				"element": "C" 
			},
			{
				"x": 0.4175442459,
				"y": -1.8683426435,
				"z": -2.9575607285,
				"element": "C" 
			},
			{
				"x": 1.1976711445,
				"y": -1.968169042,
				"z": -1.8041742977,
				"element": "C" 
			},
			{
				"x": 1.5056939499,
				"y": 2.1141229519,
				"z": 2.7361726207,
				"element": "H" 
			},
			{
				"x": 0.7742122435,
				"y": -0.7397813769,
				"z": 3.0740730156,
				"element": "H" 
			},
			{
				"x": 0.4763208167,
				"y": 0.5235797444,
				"z": 4.258815497,
				"element": "H" 
			},
			{
				"x": -2.097210358,
				"y": 1.5414499343,
				"z": 4.2430620785,
				"element": "H" 
			},
			{
				"x": -3.9512556204,
				"y": 1.4383619584,
				"z": 2.4904581924,
				"element": "H" 
			},
			{
				"x": -0.8767106293,
				"y": -0.3208543895,
				"z": 0.5388852613,
				"element": "H" 
			},
			{
				"x": 3.6716334262,
				"y": -0.3960375538,
				"z": -0.1611486128,
				"element": "H" 
			},
			{
				"x": 2.9862779726,
				"y": -2.0172294599,
				"z": 0.1423812563,
				"element": "H" 
			},
			{
				"x": 2.3880010848,
				"y": 1.2091230016,
				"z": -1.6550270833,
				"element": "H" 
			},
			{
				"x": 1.0083806009,
				"y": 1.3942923411,
				"z": -3.7175110009,
				"element": "H" 
			},
			{
				"x": -0.2576823903,
				"y": -0.57726247,
				"z": -4.5464254905,
				"element": "H" 
			},
			{
				"x": -0.1327851349,
				"y": -2.7335996101,
				"z": -3.3160479427,
				"element": "H" 
			},
			{
				"x": 1.2537480895,
				"y": -2.9132181707,
				"z": -1.2688997732,
				"element": "H" 
			}
		],
		 "valence_orbital": [ 
			{
				"type": "occ",
				"energy": -0.25953,
				"method": "rhf"
			},
			{
				"type": "occ",
				"energy": -0.25276,
				"method": "rhf"
			},
			{
				"type": "occ",
				"energy": -0.24718,
				"method": "rhf"
			},
			{
				"type": "occ",
				"energy": -0.24518,
				"method": "rhf"
			},
			{
				"type": "occ",
				"energy": -0.23952,
				"method": "rhf"
			},
			{
				"type": "unocc",
				"energy": -0.00676,
				"method": "rhf"
			},
			{
				"type": "unocc",
				"energy": 0.00176,
				"method": "rhf"
			},
			{
				"type": "unocc",
				"energy": 0.01939,
				"method": "rhf"
			},
			{
				"type": "unocc",
				"energy": 0.04679,
				"method": "rhf"
			},
			{
				"type": "unocc",
				"energy": 0.07057,
				"method": "rhf"
			}
		],
		"cosmo_sigma_profile": { 
			"-0.025": 0.0,
			"-0.024": 0.0,
			"-0.023": 0.0,
			"-0.022": 0.0,
			"-0.021": 0.0,
			"-0.02": 0.0,
			"-0.019": 0.0,
			"-0.018": 0.0,
			"-0.017": 0.224011147814,
			"-0.016": 1.60392092641,
			"-0.015": 1.23601330703,
			"-0.014": 2.62176365106,
			"-0.013": 1.60433222282,
			"-0.012": 1.47324102202,
			"-0.011": 2.14845126431,
			"-0.01": 2.40103168225,
			"-0.009": 3.20930953542,
			"-0.008": 3.61836167967,
			"-0.007": 4.60745902933,
			"-0.006": 16.2367497351,
			"-0.005": 17.4763813757,
			"-0.004": 19.1120040664,
			"-0.003": 20.5295948176,
			"-0.002": 15.7903403944,
			"-0.001": 17.8186322728,
			"0.0": 18.4158492821,
			"0.001": 19.6307805901,
			"0.002": 18.2787792043,
			"0.003": 17.9542687053,
			"0.004": 18.9289665385,
			"0.005": 18.4348749215,
			"0.006": 8.3235375299,
			"0.007": 2.91734451322,
			"0.008": 1.99432408766,
			"0.009": 3.25972486607,
			"0.01": 2.75746027117,
			"0.011": 2.99181969083,
			"0.012": 3.05359317784,
			"0.013": 5.32193636034,
			"0.014": 2.37406157326,
			"0.015": 1.09467493771,
			"0.016": 1.04272709927,
			"0.017": 0.135942457868,
			"0.018": 0.0,
			"0.019": 0.0,
			"0.02": 0.0,
			"0.021": 0.0,
			"0.022": 0.0,
			"0.023": 0.0,
			"0.024": 0.0,
			"0.025": 0.0
		}
	}
}
