{
	 "smiles": "CCOC(=O)CC(=O)C(F)(F)F", 
	 "Tm": 234.15, 
	 "num_atms": 19, 
	 "gaussian": { 
		 "optdone": 1, 
		 "sigma_profile": "yes", 
		 "theory": "DFT", 
		 "functional": "B3LYP", 
		 "basiset": "6-31G**", 
		 "properties": { 
			 "R2extent": 2776.7852, 
			 "electric_dipole_moment_norm": 1.82019154487, 
			 "electric_quadrupole_moment_norm": 10.4237717147, 
			 "total_energy": -758.048986401, 
			 "HOMO_LUMO_gap": 0.21502, 
			 "cosmo_polarized_energy": -8.68, 
			 "cosmo_cavitation_energy": 25.45, 
			 "cosmo_dispersion_energy": -17.25, 
			 "cosmo_repulsion_energy": 1.38, 
			 "cosmo_total_nonelectrostatic_energy": 9.58, 
			 "SMD_solvation_energy": 7.4 
		},
		"coords": [
			{
				"x": -2.6393363002,
				"y": 0.1599415694,
				"z": 0.7515655736,
				"element": "C" 
			},
			{
				"x": -1.540395935,
				"y": -0.6101323499,
				"z": 0.0374019521,
				"element": "C" 
			},
			{
				"x": -0.2555563641,
				"y": 0.0548558602,
				"z": 0.179264404,
				"element": "O" 
			},
			{
				"x": 0.0272821295,
				"y": 1.0225151941,
				"z": -0.7114497621,
				"element": "C" 
			},
			{
				"x": -0.7015716614,
				"y": 1.3875918099,
				"z": -1.6032948375,
				"element": "O" 
			},
			{
				"x": 1.3962826893,
				"y": 1.6367674011,
				"z": -0.4176398628,
				"element": "C" 
			},
			{
				"x": 2.4058675914,
				"y": 0.641874881,
				"z": 0.1226795394,
				"element": "C" 
			},
			{
				"x": 2.8176681497,
				"y": 0.6217531344,
				"z": 1.2557409302,
				"element": "O" 
			},
			{
				"x": 2.9634979589,
				"y": -0.3631632577,
				"z": -0.9169088975,
				"element": "C" 
			},
			{
				"x": 3.7822787614,
				"y": 0.3008526545,
				"z": -1.7630708511,
				"element": "F" 
			},
			{
				"x": 1.9656733896,
				"y": -0.8995284974,
				"z": -1.6528816761,
				"element": "F" 
			},
			{
				"x": 3.6487554454,
				"y": -1.3477325433,
				"z": -0.3402366499,
				"element": "F" 
			},
			{
				"x": -2.3903553482,
				"y": 0.3074867326,
				"z": 1.8063431455,
				"element": "H" 
			},
			{
				"x": -3.5778668291,
				"y": -0.4011642552,
				"z": 0.6953869809,
				"element": "H" 
			},
			{
				"x": -2.7956179125,
				"y": 1.1343671318,
				"z": 0.2823346493,
				"element": "H" 
			},
			{
				"x": -1.7573267384,
				"y": -0.7218370704,
				"z": -1.0272419524,
				"element": "H" 
			},
			{
				"x": -1.3805696449,
				"y": -1.5940348602,
				"z": 0.4830770734,
				"element": "H" 
			},
			{
				"x": 1.7554368383,
				"y": 2.0917562572,
				"z": -1.3442453206,
				"element": "H" 
			},
			{
				"x": 1.2689537804,
				"y": 2.417830208,
				"z": 0.3377755617,
				"element": "H" 
			}
		],
		 "valence_orbital": [ 
			{
				"type": "occ",
				"energy": -0.38011,
				"method": "rhf"
			},
			{
				"type": "occ",
				"energy": -0.35507,
				"method": "rhf"
			},
			{
				"type": "occ",
				"energy": -0.31627,
				"method": "rhf"
			},
			{
				"type": "occ",
				"energy": -0.30143,
				"method": "rhf"
			},
			{
				"type": "occ",
				"energy": -0.27863,
				"method": "rhf"
			},
			{
				"type": "unocc",
				"energy": -0.06361,
				"method": "rhf"
			},
			{
				"type": "unocc",
				"energy": -0.00485,
				"method": "rhf"
			},
			{
				"type": "unocc",
				"energy": 0.09619,
				"method": "rhf"
			},
			{
				"type": "unocc",
				"energy": 0.09999,
				"method": "rhf"
			},
			{
				"type": "unocc",
				"energy": 0.10977,
				"method": "rhf"
			}
		],
		"cosmo_sigma_profile": { 
			"-0.025": 0.0,
			"-0.024": 0.0,
			"-0.023": 0.0,
			"-0.022": 0.0,
			"-0.021": 0.0,
			"-0.02": 0.0,
			"-0.019": 0.0,
			"-0.018": 0.0,
			"-0.017": 0.0,
			"-0.016": 0.0,
			"-0.015": 0.0,
			"-0.014": 0.0,
			"-0.013": 0.0,
			"-0.012": 0.0,
			"-0.011": 0.0,
			"-0.01": 0.55009814831,
			"-0.009": 3.19908973923,
			"-0.008": 5.43434906722,
			"-0.007": 5.09290926518,
			"-0.006": 8.36472825377,
			"-0.005": 10.8300249363,
			"-0.004": 15.6897304961,
			"-0.003": 15.7272641954,
			"-0.002": 14.7591327682,
			"-0.001": 15.9677695117,
			"0.0": 15.7812772471,
			"0.001": 22.9821157424,
			"0.002": 24.2410916949,
			"0.003": 5.89074424548,
			"0.004": 5.49245303988,
			"0.005": 3.919409876,
			"0.006": 4.14351779535,
			"0.007": 3.88636136983,
			"0.008": 5.11896754508,
			"0.009": 5.73953036068,
			"0.01": 3.55748940882,
			"0.011": 4.31431883984,
			"0.012": 1.12189875125,
			"0.013": 0.0,
			"0.014": 0.0,
			"0.015": 0.0,
			"0.016": 0.0,
			"0.017": 0.0,
			"0.018": 0.0,
			"0.019": 0.0,
			"0.02": 0.0,
			"0.021": 0.0,
			"0.022": 0.0,
			"0.023": 0.0,
			"0.024": 0.0,
			"0.025": 0.0
		}
	}
}
