{
	 "smiles": "CCCC1=C(O)C=C(O)C=C1", 
	 "Tm": 355.65, 
	 "num_atms": 23, 
	 "gaussian": { 
		 "optdone": 1, 
		 "sigma_profile": "yes", 
		 "theory": "DFT", 
		 "functional": "B3LYP", 
		 "basiset": "6-31G**", 
		 "properties": { 
			 "R2extent": 2388.9737, 
			 "electric_dipole_moment_norm": 2.42474886535, 
			 "electric_quadrupole_moment_norm": 9.48682524294, 
			 "total_energy": -500.641703473, 
			 "HOMO_LUMO_gap": 0.21597, 
			 "cosmo_polarized_energy": -11.51, 
			 "cosmo_cavitation_energy": 25.62, 
			 "cosmo_dispersion_energy": -18.69, 
			 "cosmo_repulsion_energy": 1.51, 
			 "cosmo_total_nonelectrostatic_energy": 8.45, 
			 "SMD_solvation_energy": 4.71 
		},
		"coords": [
			{
				"x": 2.5673370834,
				"y": 1.2262026998,
				"z": -2.6108413986,
				"element": "C" 
			},
			{
				"x": 2.3109414348,
				"y": 1.5917095051,
				"z": -1.1464670447,
				"element": "C" 
			},
			{
				"x": 0.8231076743,
				"y": 1.4836193257,
				"z": -0.733258635,
				"element": "C" 
			},
			{
				"x": 0.2565986416,
				"y": 0.0787418536,
				"z": -0.7591345238,
				"element": "C" 
			},
			{
				"x": 0.5695298166,
				"y": -0.8562630212,
				"z": 0.2505936442,
				"element": "C" 
			},
			{
				"x": 1.3755275147,
				"y": -0.5437961486,
				"z": 1.3122848008,
				"element": "O" 
			},
			{
				"x": 0.0676642538,
				"y": -2.1568703211,
				"z": 0.221509987,
				"element": "C" 
			},
			{
				"x": -0.7629782789,
				"y": -2.5544003116,
				"z": -0.8266932858,
				"element": "C" 
			},
			{
				"x": -1.2241119964,
				"y": -3.8411900442,
				"z": -0.8042372023,
				"element": "O" 
			},
			{
				"x": -1.0966864584,
				"y": -1.6503797543,
				"z": -1.8409472411,
				"element": "C" 
			},
			{
				"x": -0.5841176786,
				"y": -0.3546722299,
				"z": -1.7891745766,
				"element": "C" 
			},
			{
				"x": 3.6307147609,
				"y": 1.3097274247,
				"z": -2.8569941206,
				"element": "H" 
			},
			{
				"x": 2.2517111967,
				"y": 0.2006453013,
				"z": -2.8247611915,
				"element": "H" 
			},
			{
				"x": 2.016347538,
				"y": 1.8926932372,
				"z": -3.2848431389,
				"element": "H" 
			},
			{
				"x": 2.9186255337,
				"y": 0.9430247555,
				"z": -0.5016938902,
				"element": "H" 
			},
			{
				"x": 2.65062568,
				"y": 2.6184978997,
				"z": -0.9592153333,
				"element": "H" 
			},
			{
				"x": 0.2252390948,
				"y": 2.1175750337,
				"z": -1.398620146,
				"element": "H" 
			},
			{
				"x": 0.6978483727,
				"y": 1.9262971815,
				"z": 0.2680496061,
				"element": "H" 
			},
			{
				"x": 1.6111555934,
				"y": 0.3909785381,
				"z": 1.2705054975,
				"element": "H" 
			},
			{
				"x": 0.321465968,
				"y": -2.8525162197,
				"z": 1.0128664285,
				"element": "H" 
			},
			{
				"x": -1.7841405356,
				"y": -3.9854221697,
				"z": -1.5776791809,
				"element": "H" 
			},
			{
				"x": -1.7487494942,
				"y": -1.952703552,
				"z": -2.6569656985,
				"element": "H" 
			},
			{
				"x": -0.8479557152,
				"y": 0.3478010164,
				"z": -2.5758833562,
				"element": "H" 
			}
		],
		 "valence_orbital": [ 
			{
				"type": "occ",
				"energy": -0.33572,
				"method": "rhf"
			},
			{
				"type": "occ",
				"energy": -0.32606,
				"method": "rhf"
			},
			{
				"type": "occ",
				"energy": -0.30367,
				"method": "rhf"
			},
			{
				"type": "occ",
				"energy": -0.22632,
				"method": "rhf"
			},
			{
				"type": "occ",
				"energy": -0.20744,
				"method": "rhf"
			},
			{
				"type": "unocc",
				"energy": 0.00853,
				"method": "rhf"
			},
			{
				"type": "unocc",
				"energy": 0.02232,
				"method": "rhf"
			},
			{
				"type": "unocc",
				"energy": 0.06403,
				"method": "rhf"
			},
			{
				"type": "unocc",
				"energy": 0.07558,
				"method": "rhf"
			},
			{
				"type": "unocc",
				"energy": 0.09846,
				"method": "rhf"
			}
		],
		"cosmo_sigma_profile": { 
			"-0.025": 0.0,
			"-0.024": 0.0,
			"-0.023": 0.0,
			"-0.022": 0.0,
			"-0.021": 0.0,
			"-0.02": 0.0,
			"-0.019": 0.0,
			"-0.018": 0.0933389442873,
			"-0.017": 0.903683518979,
			"-0.016": 1.38571260176,
			"-0.015": 1.87260301113,
			"-0.014": 1.60913920175,
			"-0.013": 1.41639732674,
			"-0.012": 2.21980490888,
			"-0.011": 1.70528109016,
			"-0.01": 1.5240031979,
			"-0.009": 2.97578672189,
			"-0.008": 1.87379702271,
			"-0.007": 2.13971890962,
			"-0.006": 3.46764695156,
			"-0.005": 8.03112888087,
			"-0.004": 8.30936250706,
			"-0.003": 13.676933265,
			"-0.002": 18.8393531576,
			"-0.001": 19.0996167162,
			"0.0": 19.2108171065,
			"0.001": 17.6212274472,
			"0.002": 12.1240096432,
			"0.003": 7.41327172883,
			"0.004": 11.1791310826,
			"0.005": 13.6527773559,
			"0.006": 10.1098070836,
			"0.007": 3.66654538963,
			"0.008": 2.20862745517,
			"0.009": 3.23116277869,
			"0.01": 3.12711009018,
			"0.011": 4.24559624416,
			"0.012": 2.04811951516,
			"0.013": 0.0,
			"0.014": 0.0,
			"0.015": 0.0,
			"0.016": 0.0,
			"0.017": 0.0,
			"0.018": 0.0,
			"0.019": 0.0,
			"0.02": 0.0,
			"0.021": 0.0,
			"0.022": 0.0,
			"0.023": 0.0,
			"0.024": 0.0,
			"0.025": 0.0
		}
	}
}
