{
	 "smiles": "OC(CNCC1=CC=CC=C1)C1=CSC=C1", 
	 "Tm": 352.15, 
	 "num_atms": 31, 
	 "gaussian": { 
		 "optdone": 1, 
		 "sigma_profile": "yes", 
		 "theory": "DFT", 
		 "functional": "B3LYP", 
		 "basiset": "6-31G**", 
		 "properties": { 
			 "R2extent": 5504.4926, 
			 "electric_dipole_moment_norm": 1.9403538131, 
			 "electric_quadrupole_moment_norm": 13.439173748, 
			 "total_energy": -1032.55459711, 
			 "HOMO_LUMO_gap": 0.21369, 
			 "cosmo_polarized_energy": -12.1, 
			 "cosmo_cavitation_energy": 35.85, 
			 "cosmo_dispersion_energy": -25.31, 
			 "cosmo_repulsion_energy": 1.97, 
			 "cosmo_total_nonelectrostatic_energy": 12.51, 
			 "SMD_solvation_energy": 3.92 
		},
		"coords": [
			{
				"x": -3.3864081352,
				"y": 0.4711555228,
				"z": 0.5813628046,
				"element": "O" 
			},
			{
				"x": -2.3350091305,
				"y": -0.1562758712,
				"z": -0.1487489989,
				"element": "C" 
			},
			{
				"x": -1.0506057376,
				"y": -0.1810519809,
				"z": 0.7083776111,
				"element": "C" 
			},
			{
				"x": 0.0499989023,
				"y": -0.840118068,
				"z": 0.0141316072,
				"element": "N" 
			},
			{
				"x": 1.2226755984,
				"y": -1.1332288028,
				"z": 0.8494821415,
				"element": "C" 
			},
			{
				"x": 1.9251429102,
				"y": 0.068764327,
				"z": 1.4652373419,
				"element": "C" 
			},
			{
				"x": 1.7382068055,
				"y": 0.4117604654,
				"z": 2.8099283584,
				"element": "C" 
			},
			{
				"x": 2.358845591,
				"y": 1.5371069991,
				"z": 3.3571918666,
				"element": "C" 
			},
			{
				"x": 3.1789577589,
				"y": 2.3385734552,
				"z": 2.5624028376,
				"element": "C" 
			},
			{
				"x": 3.37678976,
				"y": 2.0068268822,
				"z": 1.2195490582,
				"element": "C" 
			},
			{
				"x": 2.7552571884,
				"y": 0.8814906577,
				"z": 0.6794439205,
				"element": "C" 
			},
			{
				"x": -2.1570093176,
				"y": 0.6076534036,
				"z": -1.4383016922,
				"element": "C" 
			},
			{
				"x": -2.543913839,
				"y": 1.9097363469,
				"z": -1.615641023,
				"element": "C" 
			},
			{
				"x": -2.1660926627,
				"y": 2.4865825599,
				"z": -3.2057324663,
				"element": "S" 
			},
			{
				"x": -1.4732230122,
				"y": 0.9590480095,
				"z": -3.6468293237,
				"element": "C" 
			},
			{
				"x": -1.5431708527,
				"y": 0.0632310666,
				"z": -2.616367974,
				"element": "C" 
			},
			{
				"x": -3.4781161248,
				"y": 0.0063743938,
				"z": 1.4228870715,
				"element": "H" 
			},
			{
				"x": -2.5930831987,
				"y": -1.1986289995,
				"z": -0.3941443987,
				"element": "H" 
			},
			{
				"x": -1.2637775521,
				"y": -0.7636278648,
				"z": 1.6172691674,
				"element": "H" 
			},
			{
				"x": -0.8365599143,
				"y": 0.8507872068,
				"z": 1.0314721947,
				"element": "H" 
			},
			{
				"x": 0.3366264267,
				"y": -0.2615429203,
				"z": -0.7724321688,
				"element": "H" 
			},
			{
				"x": 0.9025109977,
				"y": -1.8166058612,
				"z": 1.6455149511,
				"element": "H" 
			},
			{
				"x": 1.9315566294,
				"y": -1.6878016913,
				"z": 0.2230533,
				"element": "H" 
			},
			{
				"x": 1.1055780886,
				"y": -0.2130035076,
				"z": 3.4365666291,
				"element": "H" 
			},
			{
				"x": 2.2030912443,
				"y": 1.7856124224,
				"z": 4.4034128744,
				"element": "H" 
			},
			{
				"x": 3.6645844459,
				"y": 3.2131034781,
				"z": 2.9857979253,
				"element": "H" 
			},
			{
				"x": 4.0199736766,
				"y": 2.6217581855,
				"z": 0.5961270705,
				"element": "H" 
			},
			{
				"x": 2.9212490041,
				"y": 0.6254219452,
				"z": -0.3652939649,
				"element": "H" 
			},
			{
				"x": -3.0463697053,
				"y": 2.5449460027,
				"z": -0.9016144551,
				"element": "H" 
			},
			{
				"x": -1.0700020487,
				"y": 0.8093468898,
				"z": -4.6386825667,
				"element": "H" 
			},
			{
				"x": -1.1815037965,
				"y": -0.9568946527,
				"z": -2.6821196993,
				"element": "H" 
			}
		],
		 "valence_orbital": [ 
			{
				"type": "occ",
				"energy": -0.2506,
				"method": "rhf"
			},
			{
				"type": "occ",
				"energy": -0.24844,
				"method": "rhf"
			},
			{
				"type": "occ",
				"energy": -0.24083,
				"method": "rhf"
			},
			{
				"type": "occ",
				"energy": -0.22795,
				"method": "rhf"
			},
			{
				"type": "occ",
				"energy": -0.22126,
				"method": "rhf"
			},
			{
				"type": "unocc",
				"energy": -0.00757,
				"method": "rhf"
			},
			{
				"type": "unocc",
				"energy": -0.00291,
				"method": "rhf"
			},
			{
				"type": "unocc",
				"energy": -0.00122,
				"method": "rhf"
			},
			{
				"type": "unocc",
				"energy": 0.03805,
				"method": "rhf"
			},
			{
				"type": "unocc",
				"energy": 0.06195,
				"method": "rhf"
			}
		],
		"cosmo_sigma_profile": { 
			"-0.025": 0.0,
			"-0.024": 0.0,
			"-0.023": 0.0,
			"-0.022": 0.0,
			"-0.021": 0.0,
			"-0.02": 0.0,
			"-0.019": 0.0,
			"-0.018": 0.0,
			"-0.017": 0.0,
			"-0.016": 0.26514084305,
			"-0.015": 0.976738586909,
			"-0.014": 1.23405207416,
			"-0.013": 0.669493373791,
			"-0.012": 1.07568949167,
			"-0.011": 1.55452008527,
			"-0.01": 0.75424503223,
			"-0.009": 0.84170896298,
			"-0.008": 3.07017003451,
			"-0.007": 6.00174044928,
			"-0.006": 10.0629229504,
			"-0.005": 18.3886743026,
			"-0.004": 29.0066666848,
			"-0.003": 25.7655990799,
			"-0.002": 19.0386452731,
			"-0.001": 20.2764167871,
			"0.0": 17.602133289,
			"0.001": 17.8325409912,
			"0.002": 18.4704781835,
			"0.003": 19.397404359,
			"0.004": 21.9472738841,
			"0.005": 20.4031162291,
			"0.006": 12.374188865,
			"0.007": 5.091031545,
			"0.008": 1.93893682586,
			"0.009": 2.22371501019,
			"0.01": 2.11790025968,
			"0.011": 2.54491658535,
			"0.012": 1.39932417585,
			"0.013": 1.48112651393,
			"0.014": 0.876157630866,
			"0.015": 0.457893984646,
			"0.016": 0.29632377442,
			"0.017": 0.11713124958,
			"0.018": 0.0,
			"0.019": 0.0,
			"0.02": 0.0,
			"0.021": 0.0,
			"0.022": 0.0,
			"0.023": 0.0,
			"0.024": 0.0,
			"0.025": 0.0
		}
	}
}
