{
	 "smiles": "CC1(C)O[C@@H]2C[C@H]3[C@@H]4C[C@H](F)C5=CC(=O)CC[C@]5(C)[C@H]4[C@@H](O)C[C@]3(C)[C@@]2(O1)C(=O)CO", 
	 "Tm": 524.15, 
	 "num_atms": 64, 
	 "gaussian": { 
		 "optdone": 1, 
		 "sigma_profile": "yes", 
		 "theory": "DFT", 
		 "functional": "B3LYP", 
		 "basiset": "6-31G**", 
		 "properties": { 
			 "R2extent": 14137.4328, 
			 "electric_dipole_moment_norm": 6.88498720769, 
			 "electric_quadrupole_moment_norm": 15.7451157198, 
			 "total_energy": -1485.58189954, 
			 "HOMO_LUMO_gap": 0.1786, 
			 "cosmo_polarized_energy": -25.89, 
			 "cosmo_cavitation_energy": 55.71, 
			 "cosmo_dispersion_energy": -37.49, 
			 "cosmo_repulsion_energy": 2.71, 
			 "cosmo_total_nonelectrostatic_energy": 20.92, 
			 "SMD_solvation_energy": 10.21 
		},
		"coords": [
			{
				"x": 1.9972238103,
				"y": 5.0208260725,
				"z": 2.1170937973,
				"element": "C" 
			},
			{
				"x": 1.5037337746,
				"y": 3.5739337554,
				"z": 2.1989372946,
				"element": "C" 
			},
			{
				"x": 2.1655367441,
				"y": 2.7937591525,
				"z": 3.3278209161,
				"element": "C" 
			},
			{
				"x": 0.0894260039,
				"y": 3.5372263793,
				"z": 2.3756559812,
				"element": "O" 
			},
			{
				"x": -0.558843772,
				"y": 3.2774325611,
				"z": 1.1293878304,
				"element": "C" 
			},
			{
				"x": -1.3764311626,
				"y": 1.9679787595,
				"z": 1.2312721601,
				"element": "C" 
			},
			{
				"x": -0.3929234243,
				"y": 0.9035879474,
				"z": 0.7246604452,
				"element": "C" 
			},
			{
				"x": -0.8431600695,
				"y": -0.5322134054,
				"z": 0.4194526953,
				"element": "C" 
			},
			{
				"x": -1.6130894687,
				"y": -1.204456929,
				"z": 1.5939798876,
				"element": "C" 
			},
			{
				"x": -0.8009475765,
				"y": -2.2567551011,
				"z": 2.3293937579,
				"element": "C" 
			},
			{
				"x": 0.2584288122,
				"y": -1.5947652418,
				"z": 2.9991811123,
				"element": "F" 
			},
			{
				"x": -0.1791753501,
				"y": -3.2994802517,
				"z": 1.4203256862,
				"element": "C" 
			},
			{
				"x": 0.1051851616,
				"y": -4.5196265864,
				"z": 1.9130172697,
				"element": "C" 
			},
			{
				"x": 0.8328487585,
				"y": -5.5566373828,
				"z": 1.1522765076,
				"element": "C" 
			},
			{
				"x": 1.0378794702,
				"y": -6.6661473712,
				"z": 1.6241682334,
				"element": "O" 
			},
			{
				"x": 1.3119245356,
				"y": -5.1742389065,
				"z": -0.2427494756,
				"element": "C" 
			},
			{
				"x": 1.4273283218,
				"y": -3.6576622162,
				"z": -0.4549755791,
				"element": "C" 
			},
			{
				"x": 0.1621729442,
				"y": -2.8819375839,
				"z": -0.0119756151,
				"element": "C" 
			},
			{
				"x": -1.02125739,
				"y": -3.2473313068,
				"z": -0.9499861862,
				"element": "C" 
			},
			{
				"x": 0.4337963401,
				"y": -1.341001905,
				"z": 0.0416189699,
				"element": "C" 
			},
			{
				"x": 1.1842704278,
				"y": -0.7301604093,
				"z": -1.1570062956,
				"element": "C" 
			},
			{
				"x": 0.4278674103,
				"y": -0.9677476178,
				"z": -2.3537018841,
				"element": "O" 
			},
			{
				"x": 1.4993886967,
				"y": 0.7679016123,
				"z": -0.936355177,
				"element": "C" 
			},
			{
				"x": 0.2762619523,
				"y": 1.5904501712,
				"z": -0.4986843973,
				"element": "C" 
			},
			{
				"x": -0.7007471488,
				"y": 1.7835768551,
				"z": -1.6847468235,
				"element": "C" 
			},
			{
				"x": 0.6157996465,
				"y": 2.9963322886,
				"z": 0.123012064,
				"element": "C" 
			},
			{
				"x": 1.7530019584,
				"y": 2.8764507244,
				"z": 0.9734892332,
				"element": "O" 
			},
			{
				"x": 0.9517704614,
				"y": 4.0268733772,
				"z": -0.983014479,
				"element": "C" 
			},
			{
				"x": 1.9725836544,
				"y": 3.8807462232,
				"z": -1.6271758223,
				"element": "O" 
			},
			{
				"x": 0.0028318359,
				"y": 5.1717040733,
				"z": -1.3622044471,
				"element": "C" 
			},
			{
				"x": -0.2821497147,
				"y": 5.9767223968,
				"z": -0.2258029908,
				"element": "O" 
			},
			{
				"x": 1.4678011248,
				"y": 5.5693740651,
				"z": 1.3346899924,
				"element": "H" 
			},
			{
				"x": 1.8122944167,
				"y": 5.5285333594,
				"z": 3.0684704948,
				"element": "H" 
			},
			{
				"x": 3.070920193,
				"y": 5.0431763163,
				"z": 1.9095161159,
				"element": "H" 
			},
			{
				"x": 3.2497231179,
				"y": 2.7717273393,
				"z": 3.1885249974,
				"element": "H" 
			},
			{
				"x": 1.9455708231,
				"y": 3.2691704561,
				"z": 4.2872616286,
				"element": "H" 
			},
			{
				"x": 1.7869922286,
				"y": 1.7694140547,
				"z": 3.3469709399,
				"element": "H" 
			},
			{
				"x": -1.1662188549,
				"y": 4.1423893419,
				"z": 0.8571318365,
				"element": "H" 
			},
			{
				"x": -1.6931621593,
				"y": 1.8236147809,
				"z": 2.2669145415,
				"element": "H" 
			},
			{
				"x": -2.2789190768,
				"y": 2.020593778,
				"z": 0.6115756898,
				"element": "H" 
			},
			{
				"x": 0.3857420988,
				"y": 0.8246351271,
				"z": 1.4943117374,
				"element": "H" 
			},
			{
				"x": -1.5132357237,
				"y": -0.514706496,
				"z": -0.4460216142,
				"element": "H" 
			},
			{
				"x": -1.9368945873,
				"y": -0.4584592929,
				"z": 2.325768097,
				"element": "H" 
			},
			{
				"x": -2.5258701303,
				"y": -1.6877753429,
				"z": 1.2270913573,
				"element": "H" 
			},
			{
				"x": -1.3986580208,
				"y": -2.7431706689,
				"z": 3.1084730049,
				"element": "H" 
			},
			{
				"x": -0.165154668,
				"y": -4.7926444133,
				"z": 2.9309686281,
				"element": "H" 
			},
			{
				"x": 2.2672219162,
				"y": -5.6788012804,
				"z": -0.4170860693,
				"element": "H" 
			},
			{
				"x": 0.6040584661,
				"y": -5.6146269633,
				"z": -0.9573012607,
				"element": "H" 
			},
			{
				"x": 2.2843166744,
				"y": -3.2849637744,
				"z": 0.1211945675,
				"element": "H" 
			},
			{
				"x": 1.6331087532,
				"y": -3.4491929184,
				"z": -1.5098656715,
				"element": "H" 
			},
			{
				"x": -0.7945717634,
				"y": -2.9360656675,
				"z": -1.9708535601,
				"element": "H" 
			},
			{
				"x": -1.2093332201,
				"y": -4.3242284416,
				"z": -0.9342017414,
				"element": "H" 
			},
			{
				"x": -1.951979681,
				"y": -2.7598885991,
				"z": -0.6506916592,
				"element": "H" 
			},
			{
				"x": 1.1316707322,
				"y": -1.2076816197,
				"z": 0.8782460068,
				"element": "H" 
			},
			{
				"x": 2.1519210649,
				"y": -1.2455396685,
				"z": -1.2462595708,
				"element": "H" 
			},
			{
				"x": 0.8972375553,
				"y": -0.5447460043,
				"z": -3.0846595763,
				"element": "H" 
			},
			{
				"x": 1.9475933434,
				"y": 1.183517571,
				"z": -1.8478927087,
				"element": "H" 
			},
			{
				"x": 2.2657285626,
				"y": 0.843878355,
				"z": -0.1587174757,
				"element": "H" 
			},
			{
				"x": -1.5671447565,
				"y": 2.400021499,
				"z": -1.4261637379,
				"element": "H" 
			},
			{
				"x": -0.1858356795,
				"y": 2.2681141187,
				"z": -2.52134919,
				"element": "H" 
			},
			{
				"x": -1.0621372323,
				"y": 0.8241470043,
				"z": -2.0532232146,
				"element": "H" 
			},
			{
				"x": -0.915554887,
				"y": 4.7297145815,
				"z": -1.7834605375,
				"element": "H" 
			},
			{
				"x": 0.5096238941,
				"y": 5.7359526175,
				"z": -2.1546847719,
				"element": "H" 
			},
			{
				"x": -0.8425901684,
				"y": 6.7110766505,
				"z": -0.5057419456,
				"element": "H" 
			}
		],
		 "valence_orbital": [ 
			{
				"type": "occ",
				"energy": -0.26722,
				"method": "rhf"
			},
			{
				"type": "occ",
				"energy": -0.26513,
				"method": "rhf"
			},
			{
				"type": "occ",
				"energy": -0.24973,
				"method": "rhf"
			},
			{
				"type": "occ",
				"energy": -0.23955,
				"method": "rhf"
			},
			{
				"type": "occ",
				"energy": -0.23408,
				"method": "rhf"
			},
			{
				"type": "unocc",
				"energy": -0.05548,
				"method": "rhf"
			},
			{
				"type": "unocc",
				"energy": -0.04119,
				"method": "rhf"
			},
			{
				"type": "unocc",
				"energy": 0.05312,
				"method": "rhf"
			},
			{
				"type": "unocc",
				"energy": 0.05861,
				"method": "rhf"
			},
			{
				"type": "unocc",
				"energy": 0.0631,
				"method": "rhf"
			}
		],
		"cosmo_sigma_profile": { 
			"-0.025": 0.0,
			"-0.024": 0.0,
			"-0.023": 0.0,
			"-0.022": 0.0,
			"-0.021": 0.0,
			"-0.02": 0.0,
			"-0.019": 0.0,
			"-0.018": 0.0,
			"-0.017": 0.788062321819,
			"-0.016": 1.34523454465,
			"-0.015": 1.2646430883,
			"-0.014": 2.07447016577,
			"-0.013": 2.12630183395,
			"-0.012": 1.41846845805,
			"-0.011": 1.66616027217,
			"-0.01": 2.02375918147,
			"-0.009": 2.15009025591,
			"-0.008": 2.22097691107,
			"-0.007": 4.36515331037,
			"-0.006": 14.8850465332,
			"-0.005": 25.516898033,
			"-0.004": 37.6492659644,
			"-0.003": 46.7553683693,
			"-0.002": 44.6881828048,
			"-0.001": 43.0175477431,
			"0.0": 40.7653736355,
			"0.001": 27.6455402665,
			"0.002": 18.5418600835,
			"0.003": 12.9032463153,
			"0.004": 11.0731695905,
			"0.005": 12.6338841137,
			"0.006": 13.8783083446,
			"0.007": 12.4785069894,
			"0.008": 8.09409712336,
			"0.009": 7.07587094626,
			"0.01": 8.29124378852,
			"0.011": 7.42377210181,
			"0.012": 8.61822287442,
			"0.013": 5.90750307716,
			"0.014": 1.58463392997,
			"0.015": 0.00575436613697,
			"0.016": 0.0,
			"0.017": 0.0,
			"0.018": 0.0,
			"0.019": 0.0,
			"0.02": 0.0,
			"0.021": 0.0,
			"0.022": 0.0,
			"0.023": 0.0,
			"0.024": 0.0,
			"0.025": 0.0
		}
	}
}
