{
	 "smiles": "SC1=NN=C(O1)C1=CC(=CC=C1)S(=O)(=O)N1CCCCC1", 
	 "Tm": 479.15, 
	 "num_atms": 36, 
	 "gaussian": { 
		 "optdone": 1, 
		 "sigma_profile": "yes", 
		 "theory": "DFT", 
		 "functional": "B3LYP", 
		 "basiset": "6-31G**", 
		 "properties": { 
			 "R2extent": 8930.6389, 
			 "electric_dipole_moment_norm": 4.29356491275, 
			 "electric_quadrupole_moment_norm": 38.411163346, 
			 "total_energy": -1690.61608731, 
			 "HOMO_LUMO_gap": 0.17409, 
			 "cosmo_polarized_energy": -20.55, 
			 "cosmo_cavitation_energy": 42.2, 
			 "cosmo_dispersion_energy": -30.57, 
			 "cosmo_repulsion_energy": 2.27, 
			 "cosmo_total_nonelectrostatic_energy": 13.9, 
			 "SMD_solvation_energy": 2.74 
		},
		"coords": [
			{
				"x": 1.6054036052,
				"y": 2.8051596184,
				"z": -4.9110018332,
				"element": "S" 
			},
			{
				"x": 2.1956368679,
				"y": 2.6010661678,
				"z": -3.2715790276,
				"element": "C" 
			},
			{
				"x": 2.972484836,
				"y": 3.4110387975,
				"z": -2.6229592624,
				"element": "N" 
			},
			{
				"x": 3.1221394605,
				"y": 2.8577268473,
				"z": -1.3523245378,
				"element": "N" 
			},
			{
				"x": 2.4353532682,
				"y": 1.7556045861,
				"z": -1.3341630801,
				"element": "C" 
			},
			{
				"x": 1.8033415849,
				"y": 1.5255692637,
				"z": -2.5329632953,
				"element": "O" 
			},
			{
				"x": 2.2794746023,
				"y": 0.7963244159,
				"z": -0.2476358476,
				"element": "C" 
			},
			{
				"x": 1.464027713,
				"y": -0.3345110621,
				"z": -0.3955085731,
				"element": "C" 
			},
			{
				"x": 1.3448562585,
				"y": -1.2309904313,
				"z": 0.6661894715,
				"element": "C" 
			},
			{
				"x": 2.0370495843,
				"y": -1.0325769131,
				"z": 1.8639995189,
				"element": "C" 
			},
			{
				"x": 2.8463311966,
				"y": 0.0975580898,
				"z": 2.001903572,
				"element": "C" 
			},
			{
				"x": 2.9660681327,
				"y": 1.0119672346,
				"z": 0.9592342189,
				"element": "C" 
			},
			{
				"x": 0.2512782364,
				"y": -2.6563702487,
				"z": 0.4933716307,
				"element": "S" 
			},
			{
				"x": 0.1286151892,
				"y": -2.9144157723,
				"z": -0.943241752,
				"element": "O" 
			},
			{
				"x": 0.7259057313,
				"y": -3.6691758136,
				"z": 1.4388472431,
				"element": "O" 
			},
			{
				"x": -1.2600270626,
				"y": -2.1766768443,
				"z": 1.0164770898,
				"element": "N" 
			},
			{
				"x": -2.0206962879,
				"y": -1.2565256154,
				"z": 0.1440808483,
				"element": "C" 
			},
			{
				"x": -3.3994473726,
				"y": -1.0116165926,
				"z": 0.7610583213,
				"element": "C" 
			},
			{
				"x": -3.3001228129,
				"y": -0.3235225775,
				"z": 2.1414339684,
				"element": "C" 
			},
			{
				"x": -2.0154638143,
				"y": -0.7425983477,
				"z": 2.8962969493,
				"element": "C" 
			},
			{
				"x": -1.5466024898,
				"y": -2.1362199391,
				"z": 2.4689114106,
				"element": "C" 
			},
			{
				"x": 1.168028846,
				"y": 1.5363290891,
				"z": -5.028512495,
				"element": "H" 
			},
			{
				"x": 0.952324189,
				"y": -0.5338501667,
				"z": -1.3294840882,
				"element": "H" 
			},
			{
				"x": 1.9628745147,
				"y": -1.7688974948,
				"z": 2.6564612841,
				"element": "H" 
			},
			{
				"x": 3.3950882768,
				"y": 0.2584676045,
				"z": 2.9245741063,
				"element": "H" 
			},
			{
				"x": 3.5954291607,
				"y": 1.8900184969,
				"z": 1.0557089056,
				"element": "H" 
			},
			{
				"x": -2.1061197453,
				"y": -1.7161500194,
				"z": -0.842083579,
				"element": "H" 
			},
			{
				"x": -1.4945668244,
				"y": -0.295244677,
				"z": 0.0236748752,
				"element": "H" 
			},
			{
				"x": -3.9112445097,
				"y": -1.9763849464,
				"z": 0.8520274707,
				"element": "H" 
			},
			{
				"x": -3.9943683171,
				"y": -0.406868939,
				"z": 0.0690292996,
				"element": "H" 
			},
			{
				"x": -3.3104719521,
				"y": 0.7653120971,
				"z": 2.0202590827,
				"element": "H" 
			},
			{
				"x": -4.1865831809,
				"y": -0.5765999873,
				"z": 2.7331475276,
				"element": "H" 
			},
			{
				"x": -1.208295424,
				"y": -0.0279879038,
				"z": 2.6970575647,
				"element": "H" 
			},
			{
				"x": -2.1810185173,
				"y": -0.7318584836,
				"z": 3.97896891,
				"element": "H" 
			},
			{
				"x": -0.6518765647,
				"y": -2.4458207351,
				"z": 3.0109553034,
				"element": "H" 
			},
			{
				"x": -2.3179063786,
				"y": -2.8843787978,
				"z": 2.6925887986,
				"element": "H" 
			}
		],
		 "valence_orbital": [ 
			{
				"type": "occ",
				"energy": -0.29369,
				"method": "rhf"
			},
			{
				"type": "occ",
				"energy": -0.29103,
				"method": "rhf"
			},
			{
				"type": "occ",
				"energy": -0.28499,
				"method": "rhf"
			},
			{
				"type": "occ",
				"energy": -0.25253,
				"method": "rhf"
			},
			{
				"type": "occ",
				"energy": -0.24372,
				"method": "rhf"
			},
			{
				"type": "unocc",
				"energy": -0.06963,
				"method": "rhf"
			},
			{
				"type": "unocc",
				"energy": -0.04424,
				"method": "rhf"
			},
			{
				"type": "unocc",
				"energy": -0.01255,
				"method": "rhf"
			},
			{
				"type": "unocc",
				"energy": 0.00261,
				"method": "rhf"
			},
			{
				"type": "unocc",
				"energy": 0.03359,
				"method": "rhf"
			}
		],
		"cosmo_sigma_profile": { 
			"-0.025": 0.0,
			"-0.024": 0.0,
			"-0.023": 0.0,
			"-0.022": 0.0,
			"-0.021": 0.0,
			"-0.02": 0.0,
			"-0.019": 0.0,
			"-0.018": 0.0,
			"-0.017": 0.0,
			"-0.016": 0.0,
			"-0.015": 0.0,
			"-0.014": 0.29021537693,
			"-0.013": 2.0203759985,
			"-0.012": 1.91341688456,
			"-0.011": 1.32220884446,
			"-0.01": 1.6337613745,
			"-0.009": 1.74338257254,
			"-0.008": 2.89542206977,
			"-0.007": 7.72969909578,
			"-0.006": 9.64327990181,
			"-0.005": 14.3535968425,
			"-0.004": 29.9632803355,
			"-0.003": 43.3345584028,
			"-0.002": 41.3113207496,
			"-0.001": 30.3313568811,
			"0.0": 32.1573147284,
			"0.001": 23.1952547691,
			"0.002": 14.4450140257,
			"0.003": 8.94544162573,
			"0.004": 8.76477677857,
			"0.005": 8.5126231084,
			"0.006": 5.66743706935,
			"0.007": 6.22675665736,
			"0.008": 6.05149953586,
			"0.009": 5.72253933699,
			"0.01": 8.88569858467,
			"0.011": 11.1285544016,
			"0.012": 6.79090851851,
			"0.013": 2.02907007757,
			"0.014": 1.04018200455,
			"0.015": 0.14523548324,
			"0.016": 0.0,
			"0.017": 0.0,
			"0.018": 0.0,
			"0.019": 0.0,
			"0.02": 0.0,
			"0.021": 0.0,
			"0.022": 0.0,
			"0.023": 0.0,
			"0.024": 0.0,
			"0.025": 0.0
		}
	}
}
