{
	 "smiles": "N1N=C(N=C1C1=CC=NC=C1)C1=CC=NC=C1", 
	 "Tm": 515.15, 
	 "num_atms": 26, 
	 "gaussian": { 
		 "optdone": 1, 
		 "sigma_profile": "yes", 
		 "theory": "DFT", 
		 "functional": "B3LYP", 
		 "basiset": "6-31G**", 
		 "properties": { 
			 "R2extent": 6472.5206, 
			 "electric_dipole_moment_norm": 3.69966338739, 
			 "electric_quadrupole_moment_norm": 18.3464795102, 
			 "total_energy": -736.447297405, 
			 "HOMO_LUMO_gap": 0.17887, 
			 "cosmo_polarized_energy": -17.41, 
			 "cosmo_cavitation_energy": 31.61, 
			 "cosmo_dispersion_energy": -23.51, 
			 "cosmo_repulsion_energy": 1.77, 
			 "cosmo_total_nonelectrostatic_energy": 9.87, 
			 "SMD_solvation_energy": 0.3 
		},
		"coords": [
			{
				"x": -0.5096593058,
				"y": -0.239179452,
				"z": -0.7563273676,
				"element": "N" 
			},
			{
				"x": -0.2762394528,
				"y": -0.6503684583,
				"z": 0.5071512292,
				"element": "N" 
			},
			{
				"x": 1.0566536316,
				"y": -0.6948863942,
				"z": 0.54992756,
				"element": "C" 
			},
			{
				"x": 1.6661731034,
				"y": -0.3339633056,
				"z": -0.6171515158,
				"element": "N" 
			},
			{
				"x": 0.6573271694,
				"y": -0.0497922665,
				"z": -1.4295569177,
				"element": "C" 
			},
			{
				"x": 0.7716088682,
				"y": 0.3945992367,
				"z": -2.8207264514,
				"element": "C" 
			},
			{
				"x": 2.0426685615,
				"y": 0.5484561745,
				"z": -3.3907477368,
				"element": "C" 
			},
			{
				"x": 2.1359745674,
				"y": 0.9716664691,
				"z": -4.7141074481,
				"element": "C" 
			},
			{
				"x": 1.0777149039,
				"y": 1.2454310616,
				"z": -5.4897733486,
				"element": "N" 
			},
			{
				"x": -0.1319370478,
				"y": 1.0959289329,
				"z": -4.9378035625,
				"element": "C" 
			},
			{
				"x": -0.3411222085,
				"y": 0.6785476205,
				"z": -3.6242622451,
				"element": "C" 
			},
			{
				"x": 1.7963034884,
				"y": -1.098285747,
				"z": 1.7531171974,
				"element": "C" 
			},
			{
				"x": 3.1956907047,
				"y": -1.1306014842,
				"z": 1.7528045848,
				"element": "C" 
			},
			{
				"x": 3.8551640149,
				"y": -1.5196658099,
				"z": 2.9175478743,
				"element": "C" 
			},
			{
				"x": 3.2319447635,
				"y": -1.8687852292,
				"z": 4.050461013,
				"element": "N" 
			},
			{
				"x": 1.8920729945,
				"y": -1.8337990178,
				"z": 4.0381217252,
				"element": "C" 
			},
			{
				"x": 1.1320618321,
				"y": -1.4612540492,
				"z": 2.9320533216,
				"element": "C" 
			},
			{
				"x": -1.4610669993,
				"y": -0.1167661355,
				"z": -1.0691268684,
				"element": "H" 
			},
			{
				"x": 2.9270364381,
				"y": 0.338323163,
				"z": -2.8004378738,
				"element": "H" 
			},
			{
				"x": 3.1131541518,
				"y": 1.0976248951,
				"z": -5.1761360405,
				"element": "H" 
			},
			{
				"x": -0.9836488131,
				"y": 1.3210406906,
				"z": -5.5769474073,
				"element": "H" 
			},
			{
				"x": -1.3578456427,
				"y": 0.5831157948,
				"z": -3.2542591755,
				"element": "H" 
			},
			{
				"x": 3.7469727533,
				"y": -0.8569319254,
				"z": 0.8602884729,
				"element": "H" 
			},
			{
				"x": 4.9431608009,
				"y": -1.5521455974,
				"z": 2.9402684908,
				"element": "H" 
			},
			{
				"x": 1.3976570909,
				"y": -2.1197721971,
				"z": 4.9649367392,
				"element": "H" 
			},
			{
				"x": 0.0486796313,
				"y": -1.4509369694,
				"z": 2.9780857506,
				"element": "H" 
			}
		],
		 "valence_orbital": [ 
			{
				"type": "occ",
				"energy": -0.27864,
				"method": "rhf"
			},
			{
				"type": "occ",
				"energy": -0.2693,
				"method": "rhf"
			},
			{
				"type": "occ",
				"energy": -0.26034,
				"method": "rhf"
			},
			{
				"type": "occ",
				"energy": -0.25186,
				"method": "rhf"
			},
			{
				"type": "occ",
				"energy": -0.24908,
				"method": "rhf"
			},
			{
				"type": "unocc",
				"energy": -0.07021,
				"method": "rhf"
			},
			{
				"type": "unocc",
				"energy": -0.04787,
				"method": "rhf"
			},
			{
				"type": "unocc",
				"energy": -0.02722,
				"method": "rhf"
			},
			{
				"type": "unocc",
				"energy": -0.00793,
				"method": "rhf"
			},
			{
				"type": "unocc",
				"energy": 0.03427,
				"method": "rhf"
			}
		],
		"cosmo_sigma_profile": { 
			"-0.025": 0.0,
			"-0.024": 0.0,
			"-0.023": 0.0,
			"-0.022": 0.0,
			"-0.021": 0.0,
			"-0.02": 0.0,
			"-0.019": 0.306391509618,
			"-0.018": 1.19393004105,
			"-0.017": 1.56615040063,
			"-0.016": 1.33166964732,
			"-0.015": 1.43111867111,
			"-0.014": 1.26320265426,
			"-0.013": 1.37899368657,
			"-0.012": 1.28786218656,
			"-0.011": 1.19281094713,
			"-0.01": 0.972476134447,
			"-0.009": 1.08821368401,
			"-0.008": 2.22702067288,
			"-0.007": 7.72463717636,
			"-0.006": 15.8837507198,
			"-0.005": 14.6398240402,
			"-0.004": 12.854643582,
			"-0.003": 12.30729805,
			"-0.002": 14.8432411118,
			"-0.001": 14.9270088304,
			"0.0": 21.3351945789,
			"0.001": 33.9458222859,
			"0.002": 28.3454249167,
			"0.003": 11.5984979092,
			"0.004": 7.93312424451,
			"0.005": 7.38686585992,
			"0.006": 5.12987693878,
			"0.007": 5.01053857009,
			"0.008": 5.19752624332,
			"0.009": 5.31314395331,
			"0.01": 3.51363870756,
			"0.011": 2.9883741969,
			"0.012": 2.01834501057,
			"0.013": 1.98143609715,
			"0.014": 2.18751369129,
			"0.015": 1.81265671019,
			"0.016": 1.28010869195,
			"0.017": 0.427231814738,
			"0.018": 0.0,
			"0.019": 0.0,
			"0.02": 0.0,
			"0.021": 0.0,
			"0.022": 0.0,
			"0.023": 0.0,
			"0.024": 0.0,
			"0.025": 0.0
		}
	}
}
