{
	 "smiles": "CCC(=O)C1=C(OC(F)F)C=CC=C1", 
	 "Tm": 304.15, 
	 "num_atms": 24, 
	 "gaussian": { 
		 "optdone": 1, 
		 "sigma_profile": "yes", 
		 "theory": "DFT", 
		 "functional": "B3LYP", 
		 "basiset": "6-31G**", 
		 "properties": { 
			 "R2extent": 3015.3499, 
			 "electric_dipole_moment_norm": 4.49590937297, 
			 "electric_quadrupole_moment_norm": 3.70317196873, 
			 "total_energy": -737.213063892, 
			 "HOMO_LUMO_gap": 0.19641, 
			 "cosmo_polarized_energy": -9.07, 
			 "cosmo_cavitation_energy": 28.75, 
			 "cosmo_dispersion_energy": -20.43, 
			 "cosmo_repulsion_energy": 1.59, 
			 "cosmo_total_nonelectrostatic_energy": 9.9, 
			 "SMD_solvation_energy": 6.51 
		},
		"coords": [
			{
				"x": 2.0480195376,
				"y": 3.4444222101,
				"z": 1.5803569601,
				"element": "C" 
			},
			{
				"x": 1.8083426091,
				"y": 2.6596863245,
				"z": 0.2921134317,
				"element": "C" 
			},
			{
				"x": 0.6651475961,
				"y": 1.6578359003,
				"z": 0.4086513641,
				"element": "C" 
			},
			{
				"x": -0.005531595,
				"y": 1.5873617081,
				"z": 1.427074137,
				"element": "O" 
			},
			{
				"x": 0.39477101,
				"y": 0.7545621662,
				"z": -0.7619573678,
				"element": "C" 
			},
			{
				"x": -0.04301489,
				"y": -0.572828044,
				"z": -0.5769310348,
				"element": "C" 
			},
			{
				"x": -0.0899175714,
				"y": -1.1380246804,
				"z": 0.6887723806,
				"element": "O" 
			},
			{
				"x": -1.3008709222,
				"y": -1.0870801746,
				"z": 1.3535555285,
				"element": "C" 
			},
			{
				"x": -2.2207519995,
				"y": -1.8664643496,
				"z": 0.7092673299,
				"element": "F" 
			},
			{
				"x": -1.0845485349,
				"y": -1.6248394933,
				"z": 2.5652346521,
				"element": "F" 
			},
			{
				"x": -0.3259384297,
				"y": -1.3941182815,
				"z": -1.6673915251,
				"element": "C" 
			},
			{
				"x": -0.1868011267,
				"y": -0.9048852568,
				"z": -2.965160159,
				"element": "C" 
			},
			{
				"x": 0.2521028832,
				"y": 0.4035227481,
				"z": -3.1731032721,
				"element": "C" 
			},
			{
				"x": 0.5497178406,
				"y": 1.2147020326,
				"z": -2.0804147434,
				"element": "C" 
			},
			{
				"x": 2.8725484891,
				"y": 4.151172486,
				"z": 1.4495948456,
				"element": "H" 
			},
			{
				"x": 2.2946673958,
				"y": 2.7729086154,
				"z": 2.4068007286,
				"element": "H" 
			},
			{
				"x": 1.1543427956,
				"y": 4.002090434,
				"z": 1.8709983714,
				"element": "H" 
			},
			{
				"x": 2.7082333951,
				"y": 2.1117361425,
				"z": -0.0177922892,
				"element": "H" 
			},
			{
				"x": 1.5902162949,
				"y": 3.3451641338,
				"z": -0.5381788607,
				"element": "H" 
			},
			{
				"x": -1.690158978,
				"y": -0.0715237969,
				"z": 1.4448706816,
				"element": "H" 
			},
			{
				"x": -0.6456097266,
				"y": -2.4118140349,
				"z": -1.4751665178,
				"element": "H" 
			},
			{
				"x": -0.4154929855,
				"y": -1.5472630199,
				"z": -3.8102108706,
				"element": "H" 
			},
			{
				"x": 0.3654367523,
				"y": 0.7903457285,
				"z": -4.1810243195,
				"element": "H" 
			},
			{
				"x": 0.8877901605,
				"y": 2.2309305019,
				"z": -2.2536594512,
				"element": "H" 
			}
		],
		 "valence_orbital": [ 
			{
				"type": "occ",
				"energy": -0.34885,
				"method": "rhf"
			},
			{
				"type": "occ",
				"energy": -0.31271,
				"method": "rhf"
			},
			{
				"type": "occ",
				"energy": -0.27191,
				"method": "rhf"
			},
			{
				"type": "occ",
				"energy": -0.26363,
				"method": "rhf"
			},
			{
				"type": "occ",
				"energy": -0.25515,
				"method": "rhf"
			},
			{
				"type": "unocc",
				"energy": -0.05874,
				"method": "rhf"
			},
			{
				"type": "unocc",
				"energy": -0.0197,
				"method": "rhf"
			},
			{
				"type": "unocc",
				"energy": 0.01646,
				"method": "rhf"
			},
			{
				"type": "unocc",
				"energy": 0.07486,
				"method": "rhf"
			},
			{
				"type": "unocc",
				"energy": 0.09591,
				"method": "rhf"
			}
		],
		"cosmo_sigma_profile": { 
			"-0.025": 0.0,
			"-0.024": 0.0,
			"-0.023": 0.0,
			"-0.022": 0.0,
			"-0.021": 0.0,
			"-0.02": 0.0,
			"-0.019": 0.0,
			"-0.018": 0.0,
			"-0.017": 0.0,
			"-0.016": 0.0,
			"-0.015": 0.0,
			"-0.014": 0.0,
			"-0.013": 0.0,
			"-0.012": 0.0,
			"-0.011": 0.0,
			"-0.01": 0.0,
			"-0.009": 0.801994940053,
			"-0.008": 3.4495347501,
			"-0.007": 8.29508870212,
			"-0.006": 12.4112689696,
			"-0.005": 13.5015579009,
			"-0.004": 14.2793343424,
			"-0.003": 17.663862662,
			"-0.002": 18.2544346817,
			"-0.001": 17.2641791463,
			"0.0": 15.7907452367,
			"0.001": 17.5243644779,
			"0.002": 17.9824535546,
			"0.003": 24.4931336826,
			"0.004": 22.8513639102,
			"0.005": 5.95355103441,
			"0.006": 3.29509498559,
			"0.007": 4.30009806979,
			"0.008": 3.7585947432,
			"0.009": 2.49907209799,
			"0.01": 1.56698927742,
			"0.011": 1.56148483691,
			"0.012": 1.17106699126,
			"0.013": 0.0981302713812,
			"0.014": 0.0,
			"0.015": 0.0,
			"0.016": 0.0,
			"0.017": 0.0,
			"0.018": 0.0,
			"0.019": 0.0,
			"0.02": 0.0,
			"0.021": 0.0,
			"0.022": 0.0,
			"0.023": 0.0,
			"0.024": 0.0,
			"0.025": 0.0
		}
	}
}
