{
	 "smiles": "[O-][P+](C1C2=C(CCCC2)OC2=C1CCCC2)(C1=CC=CC=C1)C1=CC=CC=C1", 
	 "Tm": 430.15, 
	 "num_atms": 55, 
	 "gaussian": { 
		 "optdone": 1, 
		 "sigma_profile": "yes", 
		 "theory": "DFT", 
		 "functional": "B3LYP", 
		 "basiset": "6-31G**", 
		 "properties": { 
			 "R2extent": 10747.7667, 
			 "electric_dipole_moment_norm": 3.69142162588, 
			 "electric_quadrupole_moment_norm": 12.2504868467, 
			 "total_energy": -1460.7556393, 
			 "HOMO_LUMO_gap": 0.16444, 
			 "cosmo_polarized_energy": -16.37, 
			 "cosmo_cavitation_energy": 54.26, 
			 "cosmo_dispersion_energy": -35.69, 
			 "cosmo_repulsion_energy": 2.7, 
			 "cosmo_total_nonelectrostatic_energy": 21.27, 
			 "SMD_solvation_energy": 8.31 
		},
		"coords": [
			{
				"x": -2.1217097314,
				"y": 1.3337819471,
				"z": 0.5485092531,
				"element": "O" 
			},
			{
				"x": -1.3781812206,
				"y": 0.9186768148,
				"z": -0.6949441903,
				"element": "P" 
			},
			{
				"x": -1.1580792809,
				"y": -0.9921417801,
				"z": -0.8185233411,
				"element": "C" 
			},
			{
				"x": 0.2608535656,
				"y": -1.4567295052,
				"z": -1.0419008129,
				"element": "C" 
			},
			{
				"x": 0.9988320504,
				"y": -1.8700913732,
				"z": 0.0020980398,
				"element": "C" 
			},
			{
				"x": 2.445364051,
				"y": -2.2711748081,
				"z": -0.0538337351,
				"element": "C" 
			},
			{
				"x": 3.0897823491,
				"y": -1.8637346535,
				"z": -1.3853451543,
				"element": "C" 
			},
			{
				"x": 2.1612199498,
				"y": -2.2167671108,
				"z": -2.5531469215,
				"element": "C" 
			},
			{
				"x": 0.8318536131,
				"y": -1.4537838284,
				"z": -2.4420465079,
				"element": "C" 
			},
			{
				"x": 0.4885476804,
				"y": -1.9929407486,
				"z": 1.274782804,
				"element": "O" 
			},
			{
				"x": -0.8887635468,
				"y": -2.0136059731,
				"z": 1.412209068,
				"element": "C" 
			},
			{
				"x": -1.7206973875,
				"y": -1.6058058051,
				"z": 0.4429823991,
				"element": "C" 
			},
			{
				"x": -3.2202216311,
				"y": -1.7094997339,
				"z": 0.6033823935,
				"element": "C" 
			},
			{
				"x": -3.6317939393,
				"y": -2.5988728602,
				"z": 1.7861821517,
				"element": "C" 
			},
			{
				"x": -2.7880735456,
				"y": -2.2777773194,
				"z": 3.0260387104,
				"element": "C" 
			},
			{
				"x": -1.3033439052,
				"y": -2.5541694742,
				"z": 2.7502154273,
				"element": "C" 
			},
			{
				"x": -2.2647126027,
				"y": 1.4333075569,
				"z": -2.2153678591,
				"element": "C" 
			},
			{
				"x": -1.9856142538,
				"y": 0.9357587064,
				"z": -3.497744531,
				"element": "C" 
			},
			{
				"x": -2.7251590804,
				"y": 1.3709288608,
				"z": -4.5989326192,
				"element": "C" 
			},
			{
				"x": -3.7539774059,
				"y": 2.2997121906,
				"z": -4.4273823595,
				"element": "C" 
			},
			{
				"x": -4.0448653377,
				"y": 2.7904855748,
				"z": -3.1528037355,
				"element": "C" 
			},
			{
				"x": -3.3059289049,
				"y": 2.3586585736,
				"z": -2.0508419022,
				"element": "C" 
			},
			{
				"x": 0.2881960168,
				"y": 1.68402172,
				"z": -0.75968848,
				"element": "C" 
			},
			{
				"x": 1.0028841073,
				"y": 1.7367999567,
				"z": 0.448070895,
				"element": "C" 
			},
			{
				"x": 2.2726941863,
				"y": 2.3107657418,
				"z": 0.4917002372,
				"element": "C" 
			},
			{
				"x": 2.8394326021,
				"y": 2.8475369894,
				"z": -0.6674352882,
				"element": "C" 
			},
			{
				"x": 2.1285362022,
				"y": 2.8150406885,
				"z": -1.8680202845,
				"element": "C" 
			},
			{
				"x": 0.8579491174,
				"y": 2.2364200457,
				"z": -1.9149407754,
				"element": "C" 
			},
			{
				"x": -1.7847721119,
				"y": -1.2735246153,
				"z": -1.6778731378,
				"element": "H" 
			},
			{
				"x": 2.5247092271,
				"y": -3.3573652083,
				"z": 0.0988112826,
				"element": "H" 
			},
			{
				"x": 2.9658292916,
				"y": -1.8094371228,
				"z": 0.7943382443,
				"element": "H" 
			},
			{
				"x": 3.2770167689,
				"y": -0.7824538208,
				"z": -1.3839259593,
				"element": "H" 
			},
			{
				"x": 4.0616835052,
				"y": -2.3568346155,
				"z": -1.4969597865,
				"element": "H" 
			},
			{
				"x": 1.9640709221,
				"y": -3.2969585945,
				"z": -2.5420607072,
				"element": "H" 
			},
			{
				"x": 2.6403573207,
				"y": -1.9924484525,
				"z": -3.5128247947,
				"element": "H" 
			},
			{
				"x": 0.9777466245,
				"y": -0.4174421976,
				"z": -2.7824519346,
				"element": "H" 
			},
			{
				"x": 0.0934642582,
				"y": -1.8943567676,
				"z": -3.1284196257,
				"element": "H" 
			},
			{
				"x": -3.6242304574,
				"y": -0.6969309296,
				"z": 0.7314844968,
				"element": "H" 
			},
			{
				"x": -3.6551019333,
				"y": -2.0999740968,
				"z": -0.3284482014,
				"element": "H" 
			},
			{
				"x": -3.4937914872,
				"y": -3.6558671756,
				"z": 1.5202484312,
				"element": "H" 
			},
			{
				"x": -4.6980811137,
				"y": -2.4632604247,
				"z": 1.9995177107,
				"element": "H" 
			},
			{
				"x": -2.916855266,
				"y": -1.21944007,
				"z": 3.2842659196,
				"element": "H" 
			},
			{
				"x": -3.1220814023,
				"y": -2.8635425748,
				"z": 3.8896853402,
				"element": "H" 
			},
			{
				"x": -0.6683550751,
				"y": -2.1002112453,
				"z": 3.5212171846,
				"element": "H" 
			},
			{
				"x": -1.0963069607,
				"y": -3.6339787675,
				"z": 2.7862527183,
				"element": "H" 
			},
			{
				"x": -1.1935822376,
				"y": 0.207216025,
				"z": -3.6456426903,
				"element": "H" 
			},
			{
				"x": -2.5017335181,
				"y": 0.981448207,
				"z": -5.5881682097,
				"element": "H" 
			},
			{
				"x": -4.330825952,
				"y": 2.6348842579,
				"z": -5.2847718532,
				"element": "H" 
			},
			{
				"x": -4.849752994,
				"y": 3.5071763036,
				"z": -3.0163392589,
				"element": "H" 
			},
			{
				"x": -3.5295700141,
				"y": 2.7181790028,
				"z": -1.0510806455,
				"element": "H" 
			},
			{
				"x": 0.5514476773,
				"y": 1.3411370137,
				"z": 1.3526039819,
				"element": "H" 
			},
			{
				"x": 2.817104699,
				"y": 2.3459956788,
				"z": 1.4310806706,
				"element": "H" 
			},
			{
				"x": 3.8267318548,
				"y": 3.2995284598,
				"z": -0.631820073,
				"element": "H" 
			},
			{
				"x": 2.5575515088,
				"y": 3.2472670287,
				"z": -2.7676831432,
				"element": "H" 
			},
			{
				"x": 0.3075031478,
				"y": 2.2322943085,
				"z": -2.8504088409,
				"element": "H" 
			}
		],
		 "valence_orbital": [ 
			{
				"type": "occ",
				"energy": -0.25666,
				"method": "rhf"
			},
			{
				"type": "occ",
				"energy": -0.2533,
				"method": "rhf"
			},
			{
				"type": "occ",
				"energy": -0.2449,
				"method": "rhf"
			},
			{
				"type": "occ",
				"energy": -0.22815,
				"method": "rhf"
			},
			{
				"type": "occ",
				"energy": -0.19046,
				"method": "rhf"
			},
			{
				"type": "unocc",
				"energy": -0.02602,
				"method": "rhf"
			},
			{
				"type": "unocc",
				"energy": -0.02084,
				"method": "rhf"
			},
			{
				"type": "unocc",
				"energy": -0.01016,
				"method": "rhf"
			},
			{
				"type": "unocc",
				"energy": -0.00471,
				"method": "rhf"
			},
			{
				"type": "unocc",
				"energy": 0.02699,
				"method": "rhf"
			}
		],
		"cosmo_sigma_profile": { 
			"-0.025": 0.0,
			"-0.024": 0.0,
			"-0.023": 0.0,
			"-0.022": 0.0,
			"-0.021": 0.0,
			"-0.02": 0.0,
			"-0.019": 0.0,
			"-0.018": 0.0,
			"-0.017": 0.020786701177,
			"-0.016": 0.0622504346482,
			"-0.015": 0.10662256682,
			"-0.014": 0.254083003801,
			"-0.013": 0.164048806339,
			"-0.012": 0.0967583677503,
			"-0.011": 0.0735401184162,
			"-0.01": 0.20335860937,
			"-0.009": 0.131715241758,
			"-0.008": 0.197708505465,
			"-0.007": 1.62498895249,
			"-0.006": 13.7783813686,
			"-0.005": 22.8741493469,
			"-0.004": 34.0076491842,
			"-0.003": 38.1985209146,
			"-0.002": 47.3551845647,
			"-0.001": 56.1219106599,
			"0.0": 54.1746105287,
			"0.001": 37.790244827,
			"0.002": 24.8745379059,
			"0.003": 27.8383732927,
			"0.004": 23.8459981847,
			"0.005": 13.9288902759,
			"0.006": 3.46207984321,
			"0.007": 3.90939381746,
			"0.008": 2.51831542693,
			"0.009": 3.24888349889,
			"0.01": 1.76145485621,
			"0.011": 1.01425022681,
			"0.012": 2.12092041146,
			"0.013": 1.72531486064,
			"0.014": 1.60493895013,
			"0.015": 1.81002963881,
			"0.016": 3.48263492223,
			"0.017": 0.961055762551,
			"0.018": 0.0,
			"0.019": 0.0,
			"0.02": 0.0,
			"0.021": 0.0,
			"0.022": 0.0,
			"0.023": 0.0,
			"0.024": 0.0,
			"0.025": 0.0
		}
	}
}
