{
	 "smiles": "OC(=O)CC1CCCCCC1", 
	 "Tm": 287.65, 
	 "num_atms": 27, 
	 "gaussian": { 
		 "optdone": 1, 
		 "sigma_profile": "yes", 
		 "theory": "DFT", 
		 "functional": "B3LYP", 
		 "basiset": "6-31G**", 
		 "properties": { 
			 "R2extent": 2362.5616, 
			 "electric_dipole_moment_norm": 4.05556719708, 
			 "electric_quadrupole_moment_norm": 20.6617002047, 
			 "total_energy": -503.059067958, 
			 "HOMO_LUMO_gap": 0.28157, 
			 "cosmo_polarized_energy": -12.99, 
			 "cosmo_cavitation_energy": 26.47, 
			 "cosmo_dispersion_energy": -19.72, 
			 "cosmo_repulsion_energy": 1.6, 
			 "cosmo_total_nonelectrostatic_energy": 8.35, 
			 "SMD_solvation_energy": 4.63 
		},
		"coords": [
			{
				"x": -3.8127630257,
				"y": 0.8189363848,
				"z": 1.6819458063,
				"element": "O" 
			},
			{
				"x": -3.1537342928,
				"y": 0.9273768021,
				"z": 0.4941289865,
				"element": "C" 
			},
			{
				"x": -3.7688445524,
				"y": 1.1975581856,
				"z": -0.5069216672,
				"element": "O" 
			},
			{
				"x": -1.6448971108,
				"y": 0.7060164681,
				"z": 0.5724960056,
				"element": "C" 
			},
			{
				"x": -0.9678130373,
				"y": 0.6828963527,
				"z": -0.8151670881,
				"element": "C" 
			},
			{
				"x": -1.2536427739,
				"y": -0.6353813915,
				"z": -1.5783139303,
				"element": "C" 
			},
			{
				"x": -0.2558553048,
				"y": -1.7962366343,
				"z": -1.3957766593,
				"element": "C" 
			},
			{
				"x": 0.2241906062,
				"y": -2.0953192049,
				"z": 0.0350994507,
				"element": "C" 
			},
			{
				"x": 1.1108441927,
				"y": -0.9968993884,
				"z": 0.6978977277,
				"element": "C" 
			},
			{
				"x": 1.5935082551,
				"y": 0.1116616673,
				"z": -0.2514691653,
				"element": "C" 
			},
			{
				"x": 0.5202038092,
				"y": 1.1093345434,
				"z": -0.7733490332,
				"element": "C" 
			},
			{
				"x": -3.1889723029,
				"y": 0.5967717061,
				"z": 2.3878316634,
				"element": "H" 
			},
			{
				"x": -1.4699446317,
				"y": -0.2164840611,
				"z": 1.1373501423,
				"element": "H" 
			},
			{
				"x": -1.23526123,
				"y": 1.5218101993,
				"z": 1.185702676,
				"element": "H" 
			},
			{
				"x": -1.4848859773,
				"y": 1.4717662584,
				"z": -1.3734849407,
				"element": "H" 
			},
			{
				"x": -2.262467054,
				"y": -0.9696338041,
				"z": -1.3089665565,
				"element": "H" 
			},
			{
				"x": -1.3051876436,
				"y": -0.4108052299,
				"z": -2.6505214799,
				"element": "H" 
			},
			{
				"x": 0.6217126124,
				"y": -1.6201186407,
				"z": -2.0287217468,
				"element": "H" 
			},
			{
				"x": -0.7215569312,
				"y": -2.7045256982,
				"z": -1.7986144455,
				"element": "H" 
			},
			{
				"x": -0.6422839966,
				"y": -2.3139063631,
				"z": 0.6732088506,
				"element": "H" 
			},
			{
				"x": 0.7957860712,
				"y": -3.0302799837,
				"z": -0.0032184122,
				"element": "H" 
			},
			{
				"x": 0.5883221074,
				"y": -0.5412598293,
				"z": 1.546404801,
				"element": "H" 
			},
			{
				"x": 1.9953346567,
				"y": -1.4761929626,
				"z": 1.1338784031,
				"element": "H" 
			},
			{
				"x": 2.3721660604,
				"y": 0.6889177382,
				"z": 0.261553318,
				"element": "H" 
			},
			{
				"x": 2.1010950611,
				"y": -0.3571243398,
				"z": -1.102061011,
				"element": "H" 
			},
			{
				"x": 0.8067504268,
				"y": 1.4125779056,
				"z": -1.7879287348,
				"element": "H" 
			},
			{
				"x": 0.5713960057,
				"y": 2.02804332,
				"z": -0.1742829603,
				"element": "H" 
			}
		],
		 "valence_orbital": [ 
			{
				"type": "occ",
				"energy": -0.31448,
				"method": "rhf"
			},
			{
				"type": "occ",
				"energy": -0.30924,
				"method": "rhf"
			},
			{
				"type": "occ",
				"energy": -0.30234,
				"method": "rhf"
			},
			{
				"type": "occ",
				"energy": -0.30156,
				"method": "rhf"
			},
			{
				"type": "occ",
				"energy": -0.26931,
				"method": "rhf"
			},
			{
				"type": "unocc",
				"energy": 0.01226,
				"method": "rhf"
			},
			{
				"type": "unocc",
				"energy": 0.05361,
				"method": "rhf"
			},
			{
				"type": "unocc",
				"energy": 0.06756,
				"method": "rhf"
			},
			{
				"type": "unocc",
				"energy": 0.09239,
				"method": "rhf"
			},
			{
				"type": "unocc",
				"energy": 0.1129,
				"method": "rhf"
			}
		],
		"cosmo_sigma_profile": { 
			"-0.025": 0.0,
			"-0.024": 0.0,
			"-0.023": 0.0,
			"-0.022": 0.0,
			"-0.021": 0.0,
			"-0.02": 0.0,
			"-0.019": 0.157504301041,
			"-0.018": 1.01465869746,
			"-0.017": 0.911277812353,
			"-0.016": 1.38184051876,
			"-0.015": 0.715190740193,
			"-0.014": 1.38103303589,
			"-0.013": 0.880914108415,
			"-0.012": 1.0751727661,
			"-0.011": 1.13941702591,
			"-0.01": 1.39572114277,
			"-0.009": 0.741554179299,
			"-0.008": 1.82969283369,
			"-0.007": 2.13645892676,
			"-0.006": 3.2903666998,
			"-0.005": 6.05815561749,
			"-0.004": 5.36275259637,
			"-0.003": 9.60274002569,
			"-0.002": 25.8986299902,
			"-0.001": 34.5116156932,
			"0.0": 32.6569392459,
			"0.001": 25.7450535415,
			"0.002": 9.99254660534,
			"0.003": 2.39926511069,
			"0.004": 2.34304419951,
			"0.005": 2.07909173531,
			"0.006": 2.3356562831,
			"0.007": 2.79383939068,
			"0.008": 2.53398907441,
			"0.009": 3.36244031521,
			"0.01": 3.95919104986,
			"0.011": 5.50131633868,
			"0.012": 5.67369413859,
			"0.013": 2.59366324193,
			"0.014": 0.214022179966,
			"0.015": 0.0,
			"0.016": 0.0,
			"0.017": 0.0,
			"0.018": 0.0,
			"0.019": 0.0,
			"0.02": 0.0,
			"0.021": 0.0,
			"0.022": 0.0,
			"0.023": 0.0,
			"0.024": 0.0,
			"0.025": 0.0
		}
	}
}
