{
	 "smiles": "NS(=O)(=O)C1=CC=CC(=C1)[N+]([O-])=O", 
	 "Tm": 440.15, 
	 "num_atms": 19, 
	 "gaussian": { 
		 "optdone": 1, 
		 "sigma_profile": "yes", 
		 "theory": "DFT", 
		 "functional": "B3LYP", 
		 "basiset": "6-31G**", 
		 "properties": { 
			 "R2extent": 5836.089, 
			 "electric_dipole_moment_norm": 5.42717183808, 
			 "electric_quadrupole_moment_norm": 28.7926721999, 
			 "total_energy": -1040.66395005, 
			 "HOMO_LUMO_gap": 0.18695, 
			 "cosmo_polarized_energy": -21.63, 
			 "cosmo_cavitation_energy": 26.04, 
			 "cosmo_dispersion_energy": -19.52, 
			 "cosmo_repulsion_energy": 1.5, 
			 "cosmo_total_nonelectrostatic_energy": 8.02, 
			 "SMD_solvation_energy": 6.5 
		},
		"coords": [
			{
				"x": 0.5507228822,
				"y": 3.8180247852,
				"z": 1.6317857458,
				"element": "N" 
			},
			{
				"x": 0.6050967372,
				"y": 3.9030120877,
				"z": -0.0385039483,
				"element": "S" 
			},
			{
				"x": 1.6916454438,
				"y": 4.8246405148,
				"z": -0.3555268153,
				"element": "O" 
			},
			{
				"x": -0.7749991423,
				"y": 4.0989628927,
				"z": -0.4747585915,
				"element": "O" 
			},
			{
				"x": 1.1079584802,
				"y": 2.2716688682,
				"z": -0.6295234288,
				"element": "C" 
			},
			{
				"x": 0.1306801387,
				"y": 1.3435691409,
				"z": -0.9999582754,
				"element": "C" 
			},
			{
				"x": 0.5190366283,
				"y": 0.0787076835,
				"z": -1.4469178247,
				"element": "C" 
			},
			{
				"x": 1.870035712,
				"y": -0.2554800441,
				"z": -1.525241163,
				"element": "C" 
			},
			{
				"x": 2.8178109084,
				"y": 0.6979111502,
				"z": -1.1565675646,
				"element": "C" 
			},
			{
				"x": 2.4658407793,
				"y": 1.9688004328,
				"z": -0.7126558076,
				"element": "C" 
			},
			{
				"x": 4.2500933452,
				"y": 0.3514645259,
				"z": -1.2450260284,
				"element": "N" 
			},
			{
				"x": 4.5361207122,
				"y": -0.7690526047,
				"z": -1.6615907198,
				"element": "O" 
			},
			{
				"x": 5.0615629515,
				"y": 1.2036063376,
				"z": -0.8913379815,
				"element": "O" 
			},
			{
				"x": -0.1717945632,
				"y": 3.2046993072,
				"z": 1.9927884618,
				"element": "H" 
			},
			{
				"x": 1.4579987041,
				"y": 3.6997634978,
				"z": 2.0695250089,
				"element": "H" 
			},
			{
				"x": -0.9157404778,
				"y": 1.6259868045,
				"z": -0.956354159,
				"element": "H" 
			},
			{
				"x": -0.2331646129,
				"y": -0.6453771246,
				"z": -1.7423899129,
				"element": "H" 
			},
			{
				"x": 2.2021558562,
				"y": -1.2268106061,
				"z": -1.869667002,
				"element": "H" 
			},
			{
				"x": 3.2303395168,
				"y": 2.6949023507,
				"z": -0.4648799938,
				"element": "H" 
			}
		],
		 "valence_orbital": [ 
			{
				"type": "occ",
				"energy": -0.32047,
				"method": "rhf"
			},
			{
				"type": "occ",
				"energy": -0.31658,
				"method": "rhf"
			},
			{
				"type": "occ",
				"energy": -0.30747,
				"method": "rhf"
			},
			{
				"type": "occ",
				"energy": -0.30467,
				"method": "rhf"
			},
			{
				"type": "occ",
				"energy": -0.29402,
				"method": "rhf"
			},
			{
				"type": "unocc",
				"energy": -0.10707,
				"method": "rhf"
			},
			{
				"type": "unocc",
				"energy": -0.06393,
				"method": "rhf"
			},
			{
				"type": "unocc",
				"energy": -0.02433,
				"method": "rhf"
			},
			{
				"type": "unocc",
				"energy": 0.03396,
				"method": "rhf"
			},
			{
				"type": "unocc",
				"energy": 0.05816,
				"method": "rhf"
			}
		],
		"cosmo_sigma_profile": { 
			"-0.025": 0.0,
			"-0.024": 0.0,
			"-0.023": 0.0,
			"-0.022": 0.0,
			"-0.021": 0.0,
			"-0.02": 0.0,
			"-0.019": 0.0,
			"-0.018": 0.0,
			"-0.017": 0.0,
			"-0.016": 1.01094864117,
			"-0.015": 2.95797504923,
			"-0.014": 2.98426449512,
			"-0.013": 2.57515810308,
			"-0.012": 3.36397150743,
			"-0.011": 2.79152674675,
			"-0.01": 1.75240170421,
			"-0.009": 2.90290303591,
			"-0.008": 8.79547947798,
			"-0.007": 10.1978229078,
			"-0.006": 9.09771054365,
			"-0.005": 8.2821538152,
			"-0.004": 8.64972836174,
			"-0.003": 11.2319231495,
			"-0.002": 14.881216894,
			"-0.001": 16.5334878299,
			"0.0": 12.4189557,
			"0.001": 6.36598239493,
			"0.002": 4.65099267626,
			"0.003": 5.21443080845,
			"0.004": 5.4858613163,
			"0.005": 5.79636272323,
			"0.006": 9.13050694091,
			"0.007": 13.4919104992,
			"0.008": 9.44255279131,
			"0.009": 7.86444514836,
			"0.01": 9.80169512544,
			"0.011": 9.75354084851,
			"0.012": 1.3970276975,
			"0.013": 0.0,
			"0.014": 0.0,
			"0.015": 0.0,
			"0.016": 0.0,
			"0.017": 0.0,
			"0.018": 0.0,
			"0.019": 0.0,
			"0.02": 0.0,
			"0.021": 0.0,
			"0.022": 0.0,
			"0.023": 0.0,
			"0.024": 0.0,
			"0.025": 0.0
		}
	}
}
