{
	 "smiles": "OC(=O)CCS(=O)(=O)CC1=CC(Br)=CC=C1", 
	 "Tm": 430.15, 
	 "num_atms": 27, 
	 "gaussian": { 
		 "optdone": 1, 
		 "sigma_profile": "yes", 
		 "theory": "DFT", 
		 "functional": "B3LYP", 
		 "basiset": "6-31G**", 
		 "properties": { 
			 "R2extent": 6542.7758, 
			 "electric_dipole_moment_norm": 4.30154156553, 
			 "electric_quadrupole_moment_norm": 23.922451434, 
			 "total_energy": -3658.13791625, 
			 "HOMO_LUMO_gap": 0.21529, 
			 "cosmo_polarized_energy": -23.0, 
			 "cosmo_cavitation_energy": 34.98, 
			 "cosmo_dispersion_energy": -24.54, 
			 "cosmo_repulsion_energy": 1.9, 
			 "cosmo_total_nonelectrostatic_energy": 12.34, 
			 "SMD_solvation_energy": 4.93 
		},
		"coords": [
			{
				"x": -3.1440207689,
				"y": -1.8443431606,
				"z": -0.2338355806,
				"element": "O" 
			},
			{
				"x": -3.2867762919,
				"y": -0.5310285562,
				"z": -0.5079873426,
				"element": "C" 
			},
			{
				"x": -4.2702352032,
				"y": -0.0644039918,
				"z": -1.0369724891,
				"element": "O" 
			},
			{
				"x": -2.1003387008,
				"y": 0.2736953442,
				"z": -0.0084587427,
				"element": "C" 
			},
			{
				"x": -1.9867725452,
				"y": 1.6122582298,
				"z": -0.7308499153,
				"element": "C" 
			},
			{
				"x": -1.2720507645,
				"y": 1.4708022121,
				"z": -2.4121741444,
				"element": "S" 
			},
			{
				"x": -1.4200794065,
				"y": 0.0758018734,
				"z": -2.8659986494,
				"element": "O" 
			},
			{
				"x": -1.7894913774,
				"y": 2.588465412,
				"z": -3.2157893519,
				"element": "O" 
			},
			{
				"x": 0.5294870615,
				"y": 1.7973515144,
				"z": -2.1991339044,
				"element": "C" 
			},
			{
				"x": 1.242788797,
				"y": 0.8790125838,
				"z": -1.2458724693,
				"element": "C" 
			},
			{
				"x": 1.7061749112,
				"y": 1.3731015785,
				"z": -0.0189507884,
				"element": "C" 
			},
			{
				"x": 2.3634376256,
				"y": 0.5209546061,
				"z": 0.8668700584,
				"element": "C" 
			},
			{
				"x": 2.9914651609,
				"y": 1.2145268256,
				"z": 2.5332737267,
				"element": "Br" 
			},
			{
				"x": 2.5705323788,
				"y": -0.8216937249,
				"z": 0.5597643383,
				"element": "C" 
			},
			{
				"x": 2.1069472896,
				"y": -1.3097989371,
				"z": -0.6644230209,
				"element": "C" 
			},
			{
				"x": 1.4502731541,
				"y": -0.4719693612,
				"z": -1.5639663537,
				"element": "C" 
			},
			{
				"x": -3.9489110385,
				"y": -2.2801051617,
				"z": -0.5617039358,
				"element": "H" 
			},
			{
				"x": -2.2704341801,
				"y": 0.462222198,
				"z": 1.0596415759,
				"element": "H" 
			},
			{
				"x": -1.1920600397,
				"y": -0.3262235708,
				"z": -0.0816001232,
				"element": "H" 
			},
			{
				"x": -2.9766889822,
				"y": 2.0396191852,
				"z": -0.9087742027,
				"element": "H" 
			},
			{
				"x": -1.3748164216,
				"y": 2.3345750663,
				"z": -0.1850508626,
				"element": "H" 
			},
			{
				"x": 0.6070850338,
				"y": 2.8474479058,
				"z": -1.9079499583,
				"element": "H" 
			},
			{
				"x": 0.8953496217,
				"y": 1.6991576985,
				"z": -3.2259959706,
				"element": "H" 
			},
			{
				"x": 1.5677152317,
				"y": 2.4175231705,
				"z": 0.2410256589,
				"element": "H" 
			},
			{
				"x": 3.0846961771,
				"y": -1.470133863,
				"z": 1.2597168431,
				"element": "H" 
			},
			{
				"x": 2.2634623824,
				"y": -2.3545972192,
				"z": -0.9149937595,
				"element": "H" 
			},
			{
				"x": 1.0780608952,
				"y": -0.8620178577,
				"z": -2.5052106359,
				"element": "H" 
			}
		],
		 "valence_orbital": [ 
			{
				"type": "occ",
				"energy": -0.2996,
				"method": "rhf"
			},
			{
				"type": "occ",
				"energy": -0.29649,
				"method": "rhf"
			},
			{
				"type": "occ",
				"energy": -0.28368,
				"method": "rhf"
			},
			{
				"type": "occ",
				"energy": -0.27004,
				"method": "rhf"
			},
			{
				"type": "occ",
				"energy": -0.25588,
				"method": "rhf"
			},
			{
				"type": "unocc",
				"energy": -0.04059,
				"method": "rhf"
			},
			{
				"type": "unocc",
				"energy": -0.03185,
				"method": "rhf"
			},
			{
				"type": "unocc",
				"energy": -0.00714,
				"method": "rhf"
			},
			{
				"type": "unocc",
				"energy": 0.00366,
				"method": "rhf"
			},
			{
				"type": "unocc",
				"energy": 0.05105,
				"method": "rhf"
			}
		],
		"cosmo_sigma_profile": { 
			"-0.025": 0.0,
			"-0.024": 0.0,
			"-0.023": 0.0,
			"-0.022": 0.0,
			"-0.021": 0.0,
			"-0.02": 0.0,
			"-0.019": 0.061679988935,
			"-0.018": 0.888317738155,
			"-0.017": 1.0641487832,
			"-0.016": 0.721689938561,
			"-0.015": 0.849158529969,
			"-0.014": 0.702502608897,
			"-0.013": 0.558551148395,
			"-0.012": 1.48493767331,
			"-0.011": 1.96683143924,
			"-0.01": 3.29075192683,
			"-0.009": 7.68522329249,
			"-0.008": 11.3350250082,
			"-0.007": 13.6883867492,
			"-0.006": 14.9245735047,
			"-0.005": 16.8243545412,
			"-0.004": 14.6175290219,
			"-0.003": 14.2118992208,
			"-0.002": 15.6489034291,
			"-0.001": 13.6676017962,
			"0.0": 13.4590914034,
			"0.001": 17.9319462037,
			"0.002": 19.7191382692,
			"0.003": 17.291726302,
			"0.004": 16.1276344731,
			"0.005": 10.0082589361,
			"0.006": 4.57808494504,
			"0.007": 5.59563771774,
			"0.008": 7.12979462834,
			"0.009": 7.05193031141,
			"0.01": 5.92694958692,
			"0.011": 12.7920779392,
			"0.012": 8.93073075338,
			"0.013": 0.319117450127,
			"0.014": 0.0,
			"0.015": 0.0,
			"0.016": 0.0,
			"0.017": 0.0,
			"0.018": 0.0,
			"0.019": 0.0,
			"0.02": 0.0,
			"0.021": 0.0,
			"0.022": 0.0,
			"0.023": 0.0,
			"0.024": 0.0,
			"0.025": 0.0
		}
	}
}
