{
	 "smiles": "O=C=NC1=CC(=CC=C1)C1=NC=CC=N1", 
	 "Tm": 319.15, 
	 "num_atms": 22, 
	 "gaussian": { 
		 "optdone": 1, 
		 "sigma_profile": "yes", 
		 "theory": "DFT", 
		 "functional": "B3LYP", 
		 "basiset": "6-31G**", 
		 "properties": { 
			 "R2extent": 3872.5402, 
			 "electric_dipole_moment_norm": 3.65046630857, 
			 "electric_quadrupole_moment_norm": 17.7206788075, 
			 "total_energy": -662.868753373, 
			 "HOMO_LUMO_gap": 0.1736, 
			 "cosmo_polarized_energy": -8.34, 
			 "cosmo_cavitation_energy": 28.55, 
			 "cosmo_dispersion_energy": -20.73, 
			 "cosmo_repulsion_energy": 1.61, 
			 "cosmo_total_nonelectrostatic_energy": 9.42, 
			 "SMD_solvation_energy": 5.25 
		},
		"coords": [
			{
				"x": 2.767321371,
				"y": 1.427812171,
				"z": -3.3071498165,
				"element": "O" 
			},
			{
				"x": 1.9948266944,
				"y": 1.8154860818,
				"z": -2.5056151485,
				"element": "C" 
			},
			{
				"x": 1.2446468176,
				"y": 2.3493903895,
				"z": -1.7212559168,
				"element": "N" 
			},
			{
				"x": 0.2859996596,
				"y": 2.0169779606,
				"z": -0.7575062619,
				"element": "C" 
			},
			{
				"x": -0.042312521,
				"y": 0.6869064483,
				"z": -0.4751355771,
				"element": "C" 
			},
			{
				"x": -1.0071625644,
				"y": 0.3939685281,
				"z": 0.4965121424,
				"element": "C" 
			},
			{
				"x": -1.640824721,
				"y": 1.4413886214,
				"z": 1.1833481043,
				"element": "C" 
			},
			{
				"x": -1.3078187668,
				"y": 2.7631378008,
				"z": 0.8958444721,
				"element": "C" 
			},
			{
				"x": -0.3480668668,
				"y": 3.0601825001,
				"z": -0.0705211749,
				"element": "C" 
			},
			{
				"x": -1.3528431182,
				"y": -1.0205915494,
				"z": 0.7930590044,
				"element": "C" 
			},
			{
				"x": -0.7080850079,
				"y": -1.975412384,
				"z": 0.0974396757,
				"element": "N" 
			},
			{
				"x": -1.0263507909,
				"y": -3.2415977589,
				"z": 0.3718779338,
				"element": "C" 
			},
			{
				"x": -1.9787954739,
				"y": -3.584178533,
				"z": 1.3299541779,
				"element": "C" 
			},
			{
				"x": -2.5875360404,
				"y": -2.5203000539,
				"z": 1.9932151709,
				"element": "C" 
			},
			{
				"x": -2.2858637126,
				"y": -1.2462825786,
				"z": 1.736012366,
				"element": "N" 
			},
			{
				"x": 0.4426922944,
				"y": -0.1273297024,
				"z": -1.0013644453,
				"element": "H" 
			},
			{
				"x": -2.3853875606,
				"y": 1.2009572956,
				"z": 1.9326666177,
				"element": "H" 
			},
			{
				"x": -1.7991010439,
				"y": 3.572029924,
				"z": 1.4281706694,
				"element": "H" 
			},
			{
				"x": -0.0802181218,
				"y": 4.0852260954,
				"z": -0.3032853567,
				"element": "H" 
			},
			{
				"x": -0.499423606,
				"y": -4.0069187408,
				"z": -0.1960659378,
				"element": "H" 
			},
			{
				"x": -2.2308994119,
				"y": -4.6161796883,
				"z": 1.546202528,
				"element": "H" 
			},
			{
				"x": -3.3435975089,
				"y": -2.6933728271,
				"z": 2.7576967728,
				"element": "H" 
			}
		],
		 "valence_orbital": [ 
			{
				"type": "occ",
				"energy": -0.30417,
				"method": "rhf"
			},
			{
				"type": "occ",
				"energy": -0.29963,
				"method": "rhf"
			},
			{
				"type": "occ",
				"energy": -0.25572,
				"method": "rhf"
			},
			{
				"type": "occ",
				"energy": -0.25037,
				"method": "rhf"
			},
			{
				"type": "occ",
				"energy": -0.23349,
				"method": "rhf"
			},
			{
				"type": "unocc",
				"energy": -0.05989,
				"method": "rhf"
			},
			{
				"type": "unocc",
				"energy": -0.04764,
				"method": "rhf"
			},
			{
				"type": "unocc",
				"energy": -0.01779,
				"method": "rhf"
			},
			{
				"type": "unocc",
				"energy": 0.01569,
				"method": "rhf"
			},
			{
				"type": "unocc",
				"energy": 0.01835,
				"method": "rhf"
			}
		],
		"cosmo_sigma_profile": { 
			"-0.025": 0.0,
			"-0.024": 0.0,
			"-0.023": 0.0,
			"-0.022": 0.0,
			"-0.021": 0.0,
			"-0.02": 0.0,
			"-0.019": 0.0,
			"-0.018": 0.0,
			"-0.017": 0.0,
			"-0.016": 0.0,
			"-0.015": 0.0,
			"-0.014": 0.0,
			"-0.013": 0.0,
			"-0.012": 0.0,
			"-0.011": 0.0,
			"-0.01": 0.0,
			"-0.009": 0.0754349415826,
			"-0.008": 5.36199342894,
			"-0.007": 11.165615965,
			"-0.006": 13.4440053376,
			"-0.005": 12.9743430978,
			"-0.004": 13.0817484764,
			"-0.003": 12.3104748094,
			"-0.002": 17.4204552764,
			"-0.001": 17.3309764441,
			"0.0": 21.8393282084,
			"0.001": 19.1347712649,
			"0.002": 21.6350105621,
			"0.003": 20.522350778,
			"0.004": 13.1171451411,
			"0.005": 6.07141537543,
			"0.006": 6.43603162393,
			"0.007": 9.51450814587,
			"0.008": 5.69322683762,
			"0.009": 1.99600016622,
			"0.01": 1.92966054656,
			"0.011": 1.2321182146,
			"0.012": 0.0,
			"0.013": 0.0,
			"0.014": 0.0,
			"0.015": 0.0,
			"0.016": 0.0,
			"0.017": 0.0,
			"0.018": 0.0,
			"0.019": 0.0,
			"0.02": 0.0,
			"0.021": 0.0,
			"0.022": 0.0,
			"0.023": 0.0,
			"0.024": 0.0,
			"0.025": 0.0
		}
	}
}
