{
	 "smiles": "CCC1=C(NC2=C(CC)C=CC=C2)C=CC=C1", 
	 "Tm": 302.15, 
	 "num_atms": 36, 
	 "gaussian": { 
		 "optdone": 1, 
		 "sigma_profile": "yes", 
		 "theory": "DFT", 
		 "functional": "B3LYP", 
		 "basiset": "6-31G**", 
		 "properties": { 
			 "R2extent": 4439.2947, 
			 "electric_dipole_moment_norm": 1.04681674136, 
			 "electric_quadrupole_moment_norm": 5.51700917799, 
			 "total_energy": -675.92535149, 
			 "HOMO_LUMO_gap": 0.1897, 
			 "cosmo_polarized_energy": -7.05, 
			 "cosmo_cavitation_energy": 37.51, 
			 "cosmo_dispersion_energy": -25.48, 
			 "cosmo_repulsion_energy": 2.0, 
			 "cosmo_total_nonelectrostatic_energy": 14.02, 
			 "SMD_solvation_energy": 6.42 
		},
		"coords": [
			{
				"x": -2.619620879,
				"y": -2.0277136078,
				"z": 1.0301126078,
				"element": "C" 
			},
			{
				"x": -1.4368212449,
				"y": -1.8961281462,
				"z": 2.0075512244,
				"element": "C" 
			},
			{
				"x": -0.9670693535,
				"y": -0.4693325667,
				"z": 2.2104556373,
				"element": "C" 
			},
			{
				"x": -0.1929733152,
				"y": 0.2086272717,
				"z": 1.2347163356,
				"element": "C" 
			},
			{
				"x": 0.1523436367,
				"y": -0.4648921291,
				"z": 0.0441989566,
				"element": "N" 
			},
			{
				"x": 1.0633405152,
				"y": 0.0620539628,
				"z": -0.9197510265,
				"element": "C" 
			},
			{
				"x": 0.6482284174,
				"y": 1.0500980227,
				"z": -1.8384541624,
				"element": "C" 
			},
			{
				"x": -0.77668286,
				"y": 1.5634860311,
				"z": -1.8799867069,
				"element": "C" 
			},
			{
				"x": -1.7064811513,
				"y": 0.647805963,
				"z": -2.6969768528,
				"element": "C" 
			},
			{
				"x": 1.5811582422,
				"y": 1.5038689966,
				"z": -2.780186922,
				"element": "C" 
			},
			{
				"x": 2.8739383866,
				"y": 0.9839484809,
				"z": -2.8501125823,
				"element": "C" 
			},
			{
				"x": 3.2640556244,
				"y": -0.0113549808,
				"z": -1.9548338026,
				"element": "C" 
			},
			{
				"x": 2.3636097328,
				"y": -0.4562009988,
				"z": -0.9880984484,
				"element": "C" 
			},
			{
				"x": 0.2013639802,
				"y": 1.5358269487,
				"z": 1.4677718928,
				"element": "C" 
			},
			{
				"x": -0.1773812267,
				"y": 2.197498171,
				"z": 2.6350510621,
				"element": "C" 
			},
			{
				"x": -0.9389116732,
				"y": 1.5428435232,
				"z": 3.6006684185,
				"element": "C" 
			},
			{
				"x": -1.3161319199,
				"y": 0.2176941955,
				"z": 3.376348544,
				"element": "C" 
			},
			{
				"x": -2.3624354162,
				"y": -1.6319302562,
				"z": 0.0436977217,
				"element": "H" 
			},
			{
				"x": -3.4848456563,
				"y": -1.4680984684,
				"z": 1.3987113575,
				"element": "H" 
			},
			{
				"x": -2.9166613108,
				"y": -3.0754441268,
				"z": 0.9128833848,
				"element": "H" 
			},
			{
				"x": -0.6092789275,
				"y": -2.5350268107,
				"z": 1.6627126522,
				"element": "H" 
			},
			{
				"x": -1.7270896501,
				"y": -2.3078840707,
				"z": 2.9805044294,
				"element": "H" 
			},
			{
				"x": 0.2609364073,
				"y": -1.4618897453,
				"z": 0.1753852299,
				"element": "H" 
			},
			{
				"x": -0.7764757627,
				"y": 2.5654464332,
				"z": -2.3254072673,
				"element": "H" 
			},
			{
				"x": -1.1760242223,
				"y": 1.6724369301,
				"z": -0.8682806912,
				"element": "H" 
			},
			{
				"x": -2.7273547998,
				"y": 1.0439230459,
				"z": -2.7112309104,
				"element": "H" 
			},
			{
				"x": -1.361619691,
				"y": 0.5588631157,
				"z": -3.7324669207,
				"element": "H" 
			},
			{
				"x": -1.73747444,
				"y": -0.3566977297,
				"z": -2.2650710136,
				"element": "H" 
			},
			{
				"x": 1.2734424639,
				"y": 2.2709522665,
				"z": -3.4871437735,
				"element": "H" 
			},
			{
				"x": 3.5682705111,
				"y": 1.3518034152,
				"z": -3.5999270644,
				"element": "H" 
			},
			{
				"x": 4.26616565,
				"y": -0.4283289769,
				"z": -1.9950651594,
				"element": "H" 
			},
			{
				"x": 2.6659851513,
				"y": -1.2100466815,
				"z": -0.2652776926,
				"element": "H" 
			},
			{
				"x": 0.8188919383,
				"y": 2.0428541435,
				"z": 0.7345999393,
				"element": "H" 
			},
			{
				"x": 0.1399288081,
				"y": 3.225161877,
				"z": 2.7894477535,
				"element": "H" 
			},
			{
				"x": -1.2315706901,
				"y": 2.0493872704,
				"z": 4.5151803468,
				"element": "H" 
			},
			{
				"x": -1.9035552748,
				"y": -0.306810769,
				"z": 4.1268735026,
				"element": "H" 
			}
		],
		 "valence_orbital": [ 
			{
				"type": "occ",
				"energy": -0.29891,
				"method": "rhf"
			},
			{
				"type": "occ",
				"energy": -0.24567,
				"method": "rhf"
			},
			{
				"type": "occ",
				"energy": -0.23948,
				"method": "rhf"
			},
			{
				"type": "occ",
				"energy": -0.23538,
				"method": "rhf"
			},
			{
				"type": "occ",
				"energy": -0.19318,
				"method": "rhf"
			},
			{
				"type": "unocc",
				"energy": -0.00348,
				"method": "rhf"
			},
			{
				"type": "unocc",
				"energy": -0.00108,
				"method": "rhf"
			},
			{
				"type": "unocc",
				"energy": 0.00931,
				"method": "rhf"
			},
			{
				"type": "unocc",
				"energy": 0.02375,
				"method": "rhf"
			},
			{
				"type": "unocc",
				"energy": 0.07451,
				"method": "rhf"
			}
		],
		"cosmo_sigma_profile": { 
			"-0.025": 0.0,
			"-0.024": 0.0,
			"-0.023": 0.0,
			"-0.022": 0.0,
			"-0.021": 0.0,
			"-0.02": 0.0,
			"-0.019": 0.0,
			"-0.018": 0.0,
			"-0.017": 0.0,
			"-0.016": 0.0,
			"-0.015": 0.0,
			"-0.014": 0.0,
			"-0.013": 0.0428107050113,
			"-0.012": 0.765435501544,
			"-0.011": 0.851609793293,
			"-0.01": 1.38647552414,
			"-0.009": 1.33094383172,
			"-0.008": 1.37846815705,
			"-0.007": 1.80688559538,
			"-0.006": 4.59688797644,
			"-0.005": 13.2782259851,
			"-0.004": 19.2249307291,
			"-0.003": 28.2285094226,
			"-0.002": 29.9095827188,
			"-0.001": 32.5840927775,
			"0.0": 34.2053419797,
			"0.001": 33.6314505812,
			"0.002": 23.2510669514,
			"0.003": 16.0340992964,
			"0.004": 16.5006008405,
			"0.005": 14.4263469805,
			"0.006": 13.7301217366,
			"0.007": 7.16671302845,
			"0.008": 1.70143522563,
			"0.009": 0.0,
			"0.01": 0.0,
			"0.011": 0.0,
			"0.012": 0.0,
			"0.013": 0.0,
			"0.014": 0.0,
			"0.015": 0.0,
			"0.016": 0.0,
			"0.017": 0.0,
			"0.018": 0.0,
			"0.019": 0.0,
			"0.02": 0.0,
			"0.021": 0.0,
			"0.022": 0.0,
			"0.023": 0.0,
			"0.024": 0.0,
			"0.025": 0.0
		}
	}
}
