{
	 "smiles": "BrC1=NC2=C(N1)C=CC=C2", 
	 "Tm": 473.15, 
	 "num_atms": 15, 
	 "gaussian": { 
		 "optdone": 1, 
		 "sigma_profile": "yes", 
		 "theory": "DFT", 
		 "functional": "B3LYP", 
		 "basiset": "6-31G**", 
		 "properties": { 
			 "R2extent": 4826.4402, 
			 "electric_dipole_moment_norm": 3.26274016281, 
			 "electric_quadrupole_moment_norm": 14.6095853004, 
			 "total_energy": -2950.6678968, 
			 "HOMO_LUMO_gap": 0.20657, 
			 "cosmo_polarized_energy": -11.03, 
			 "cosmo_cavitation_energy": 21.69, 
			 "cosmo_dispersion_energy": -17.05, 
			 "cosmo_repulsion_energy": 1.38, 
			 "cosmo_total_nonelectrostatic_energy": 6.02, 
			 "SMD_solvation_energy": 0.28 
		},
		"coords": [
			{
				"x": 1.0679847206,
				"y": -3.0098305644,
				"z": 4.1259983617,
				"element": "Br" 
			},
			{
				"x": 1.080003726,
				"y": -2.0392832083,
				"z": 2.5126198349,
				"element": "C" 
			},
			{
				"x": 0.8947411959,
				"y": -2.5376089781,
				"z": 1.3289500487,
				"element": "N" 
			},
			{
				"x": 0.9958703154,
				"y": -1.4368385372,
				"z": 0.480358675,
				"element": "C" 
			},
			{
				"x": 1.2510486376,
				"y": -0.25737828,
				"z": 1.221844194,
				"element": "C" 
			},
			{
				"x": 1.30020826,
				"y": -0.6829030296,
				"z": 2.5421799189,
				"element": "N" 
			},
			{
				"x": 1.3980486334,
				"y": 0.9928017093,
				"z": 0.6199972107,
				"element": "C" 
			},
			{
				"x": 1.2810688956,
				"y": 1.0331928338,
				"z": -0.7676465261,
				"element": "C" 
			},
			{
				"x": 1.0273716996,
				"y": -0.1300415331,
				"z": -1.5218069752,
				"element": "C" 
			},
			{
				"x": 0.8821609104,
				"y": -1.3727661756,
				"z": -0.9132818018,
				"element": "C" 
			},
			{
				"x": 1.4624682494,
				"y": -0.1298345921,
				"z": 3.3688957246,
				"element": "H" 
			},
			{
				"x": 1.5935075727,
				"y": 1.8907645268,
				"z": 1.1979694298,
				"element": "H" 
			},
			{
				"x": 1.3881173368,
				"y": 1.9845594511,
				"z": -1.2799803624,
				"element": "H" 
			},
			{
				"x": 0.9441317028,
				"y": -0.0501916656,
				"z": -2.6014717562,
				"element": "H" 
			},
			{
				"x": 0.6867681438,
				"y": -2.272441957,
				"z": -1.4872259767,
				"element": "H" 
			}
		],
		 "valence_orbital": [ 
			{
				"type": "occ",
				"energy": -0.30832,
				"method": "rhf"
			},
			{
				"type": "occ",
				"energy": -0.30486,
				"method": "rhf"
			},
			{
				"type": "occ",
				"energy": -0.28588,
				"method": "rhf"
			},
			{
				"type": "occ",
				"energy": -0.23567,
				"method": "rhf"
			},
			{
				"type": "occ",
				"energy": -0.22929,
				"method": "rhf"
			},
			{
				"type": "unocc",
				"energy": -0.02272,
				"method": "rhf"
			},
			{
				"type": "unocc",
				"energy": 0.00064,
				"method": "rhf"
			},
			{
				"type": "unocc",
				"energy": 0.01397,
				"method": "rhf"
			},
			{
				"type": "unocc",
				"energy": 0.04359,
				"method": "rhf"
			},
			{
				"type": "unocc",
				"energy": 0.07445,
				"method": "rhf"
			}
		],
		"cosmo_sigma_profile": { 
			"-0.025": 0.0,
			"-0.024": 0.0,
			"-0.023": 0.0,
			"-0.022": 0.0,
			"-0.021": 0.0,
			"-0.02": 0.0,
			"-0.019": 0.0,
			"-0.018": 0.112146277542,
			"-0.017": 1.26944155295,
			"-0.016": 1.5708836504,
			"-0.015": 0.77623163151,
			"-0.014": 1.09979647829,
			"-0.013": 1.18050839932,
			"-0.012": 1.06405483832,
			"-0.011": 1.69618467257,
			"-0.01": 0.689710238662,
			"-0.009": 1.60941954779,
			"-0.008": 1.0733326343,
			"-0.007": 3.34593182387,
			"-0.006": 7.8425419106,
			"-0.005": 9.33658635463,
			"-0.004": 11.5002876555,
			"-0.003": 9.74329624998,
			"-0.002": 9.43878563891,
			"-0.001": 12.467809814,
			"0.0": 12.3998879858,
			"0.001": 12.8444566845,
			"0.002": 15.5401707393,
			"0.003": 19.7050633191,
			"0.004": 13.6689150535,
			"0.005": 10.979849869,
			"0.006": 5.59350174345,
			"0.007": 1.86283620229,
			"0.008": 1.73873538772,
			"0.009": 0.844213627532,
			"0.01": 1.06259764537,
			"0.011": 1.52842984542,
			"0.012": 0.870916695017,
			"0.013": 1.22008658885,
			"0.014": 0.92506603755,
			"0.015": 1.02492199113,
			"0.016": 0.640351381747,
			"0.017": 0.0252532555966,
			"0.018": 0.0,
			"0.019": 0.0,
			"0.02": 0.0,
			"0.021": 0.0,
			"0.022": 0.0,
			"0.023": 0.0,
			"0.024": 0.0,
			"0.025": 0.0
		}
	}
}
