{
	 "smiles": "CC1=C(O)C=NC(Cl)=C1", 
	 "Tm": 442.15, 
	 "num_atms": 15, 
	 "gaussian": { 
		 "optdone": 1, 
		 "sigma_profile": "yes", 
		 "theory": "DFT", 
		 "functional": "B3LYP", 
		 "basiset": "6-31G**", 
		 "properties": { 
			 "R2extent": 1971.533, 
			 "electric_dipole_moment_norm": 3.7128614558, 
			 "electric_quadrupole_moment_norm": 8.72790660582, 
			 "total_energy": -822.420833786, 
			 "HOMO_LUMO_gap": 0.20375, 
			 "cosmo_polarized_energy": -11.01, 
			 "cosmo_cavitation_energy": 20.96, 
			 "cosmo_dispersion_energy": -15.86, 
			 "cosmo_repulsion_energy": 1.31, 
			 "cosmo_total_nonelectrostatic_energy": 6.41, 
			 "SMD_solvation_energy": 2.43 
		},
		"coords": [
			{
				"x": -3.1322427498,
				"y": -0.0287725073,
				"z": -0.5601121019,
				"element": "C" 
			},
			{
				"x": -1.8428310417,
				"y": 0.2396894106,
				"z": 0.1658738855,
				"element": "C" 
			},
			{
				"x": -1.1441718961,
				"y": -0.8104260005,
				"z": 0.792352455,
				"element": "C" 
			},
			{
				"x": -1.6804010978,
				"y": -2.0625300958,
				"z": 0.7127552677,
				"element": "O" 
			},
			{
				"x": 0.0490888706,
				"y": -0.5341535093,
				"z": 1.4588178326,
				"element": "C" 
			},
			{
				"x": 0.5793569944,
				"y": 0.6927823467,
				"z": 1.539694757,
				"element": "N" 
			},
			{
				"x": -0.0777371334,
				"y": 1.671197005,
				"z": 0.9522529309,
				"element": "C" 
			},
			{
				"x": 0.6246112908,
				"y": 3.2879763848,
				"z": 1.0609328662,
				"element": "Cl" 
			},
			{
				"x": -1.2809934215,
				"y": 1.5109521133,
				"z": 0.2571497577,
				"element": "C" 
			},
			{
				"x": -3.5431644162,
				"y": 0.8888008363,
				"z": -0.9870328749,
				"element": "H" 
			},
			{
				"x": -3.8760032242,
				"y": -0.4645489308,
				"z": 0.1155841056,
				"element": "H" 
			},
			{
				"x": -2.9809774947,
				"y": -0.7536232321,
				"z": -1.3671776836,
				"element": "H" 
			},
			{
				"x": -1.1088645502,
				"y": -2.6870999985,
				"z": 1.1793629374,
				"element": "H" 
			},
			{
				"x": 0.6026770227,
				"y": -1.3358320409,
				"z": 1.949287842,
				"element": "H" 
			},
			{
				"x": -1.7673471529,
				"y": 2.3638882185,
				"z": -0.2027419771,
				"element": "H" 
			}
		],
		 "valence_orbital": [ 
			{
				"type": "occ",
				"energy": -0.31963,
				"method": "rhf"
			},
			{
				"type": "occ",
				"energy": -0.30756,
				"method": "rhf"
			},
			{
				"type": "occ",
				"energy": -0.28259,
				"method": "rhf"
			},
			{
				"type": "occ",
				"energy": -0.27332,
				"method": "rhf"
			},
			{
				"type": "occ",
				"energy": -0.23511,
				"method": "rhf"
			},
			{
				"type": "unocc",
				"energy": -0.03136,
				"method": "rhf"
			},
			{
				"type": "unocc",
				"energy": -0.00926,
				"method": "rhf"
			},
			{
				"type": "unocc",
				"energy": 0.0388,
				"method": "rhf"
			},
			{
				"type": "unocc",
				"energy": 0.05505,
				"method": "rhf"
			},
			{
				"type": "unocc",
				"energy": 0.1086,
				"method": "rhf"
			}
		],
		"cosmo_sigma_profile": { 
			"-0.025": 0.0,
			"-0.024": 0.0,
			"-0.023": 0.0,
			"-0.022": 0.0,
			"-0.021": 0.0,
			"-0.02": 0.0,
			"-0.019": 0.284395254379,
			"-0.018": 1.19900284559,
			"-0.017": 1.38791389813,
			"-0.016": 1.0490988378,
			"-0.015": 1.14493965207,
			"-0.014": 0.461872350172,
			"-0.013": 0.539128275168,
			"-0.012": 1.33126934328,
			"-0.011": 1.58510621723,
			"-0.01": 1.06476849479,
			"-0.009": 1.02019849609,
			"-0.008": 1.77854731537,
			"-0.007": 4.5779355104,
			"-0.006": 5.19188969771,
			"-0.005": 7.19256025615,
			"-0.004": 8.28808621142,
			"-0.003": 7.74094846638,
			"-0.002": 10.3350876889,
			"-0.001": 14.3555565129,
			"0.0": 15.4429421663,
			"0.001": 20.2747151831,
			"0.002": 10.8612274367,
			"0.003": 9.2742444492,
			"0.004": 10.5676856607,
			"0.005": 11.2568012402,
			"0.006": 4.40991821158,
			"0.007": 3.7243266363,
			"0.008": 3.38936464608,
			"0.009": 3.38526115616,
			"0.01": 1.9055859651,
			"0.011": 0.954606088175,
			"0.012": 1.40527438034,
			"0.013": 0.887382607161,
			"0.014": 0.761015746963,
			"0.015": 0.408643241949,
			"0.016": 0.0,
			"0.017": 0.0,
			"0.018": 0.0,
			"0.019": 0.0,
			"0.02": 0.0,
			"0.021": 0.0,
			"0.022": 0.0,
			"0.023": 0.0,
			"0.024": 0.0,
			"0.025": 0.0
		}
	}
}
