{
	 "smiles": "OC1=NC=CN=C1O", 
	 "Tm": 573.15, 
	 "num_atms": 12, 
	 "gaussian": { 
		 "optdone": 1, 
		 "sigma_profile": "yes", 
		 "theory": "DFT", 
		 "functional": "B3LYP", 
		 "basiset": "6-31G**", 
		 "properties": { 
			 "R2extent": 975.719, 
			 "electric_dipole_moment_norm": 0.988345895929, 
			 "electric_quadrupole_moment_norm": 3.7285814568, 
			 "total_energy": -414.778717717, 
			 "HOMO_LUMO_gap": 0.1918, 
			 "cosmo_polarized_energy": -10.3, 
			 "cosmo_cavitation_energy": 16.74, 
			 "cosmo_dispersion_energy": -12.97, 
			 "cosmo_repulsion_energy": 1.09, 
			 "cosmo_total_nonelectrostatic_energy": 4.86, 
			 "SMD_solvation_energy": 1.39 
		},
		"coords": [
			{
				"x": 1.2237271326,
				"y": -0.8045810762,
				"z": 0.6629182968,
				"element": "O" 
			},
			{
				"x": 0.0248279623,
				"y": -0.2042273615,
				"z": 0.7964789416,
				"element": "C" 
			},
			{
				"x": -0.200006235,
				"y": 0.5946442746,
				"z": 1.817594461,
				"element": "N" 
			},
			{
				"x": -1.4186971798,
				"y": 1.1711010697,
				"z": 1.9042800214,
				"element": "C" 
			},
			{
				"x": -2.395210421,
				"y": 0.9313031735,
				"z": 0.9552725334,
				"element": "C" 
			},
			{
				"x": -2.1670720334,
				"y": 0.1115979201,
				"z": -0.0940408354,
				"element": "N" 
			},
			{
				"x": -0.9808395465,
				"y": -0.4511979062,
				"z": -0.1808445796,
				"element": "C" 
			},
			{
				"x": -0.7014454227,
				"y": -1.2774015825,
				"z": -1.207951258,
				"element": "O" 
			},
			{
				"x": 1.7577447737,
				"y": -0.5103208563,
				"z": 1.4185941194,
				"element": "H" 
			},
			{
				"x": -1.5941218159,
				"y": 1.8286425677,
				"z": 2.750652539,
				"element": "H" 
			},
			{
				"x": -3.377289693,
				"y": 1.3907632541,
				"z": 1.0177221197,
				"element": "H" 
			},
			{
				"x": -1.5049175212,
				"y": -1.3116234769,
				"z": -1.7520763591,
				"element": "H" 
			}
		],
		 "valence_orbital": [ 
			{
				"type": "occ",
				"energy": -0.36433,
				"method": "rhf"
			},
			{
				"type": "occ",
				"energy": -0.31203,
				"method": "rhf"
			},
			{
				"type": "occ",
				"energy": -0.30602,
				"method": "rhf"
			},
			{
				"type": "occ",
				"energy": -0.26955,
				"method": "rhf"
			},
			{
				"type": "occ",
				"energy": -0.23015,
				"method": "rhf"
			},
			{
				"type": "unocc",
				"energy": -0.03835,
				"method": "rhf"
			},
			{
				"type": "unocc",
				"energy": -0.00302,
				"method": "rhf"
			},
			{
				"type": "unocc",
				"energy": 0.07609,
				"method": "rhf"
			},
			{
				"type": "unocc",
				"energy": 0.08873,
				"method": "rhf"
			},
			{
				"type": "unocc",
				"energy": 0.12468,
				"method": "rhf"
			}
		],
		"cosmo_sigma_profile": { 
			"-0.025": 0.0,
			"-0.024": 0.0,
			"-0.023": 0.0,
			"-0.022": 0.0,
			"-0.021": 0.0,
			"-0.02": 0.0,
			"-0.019": 0.0,
			"-0.018": 0.616110223554,
			"-0.017": 1.59881009857,
			"-0.016": 2.36748705017,
			"-0.015": 0.759163857125,
			"-0.014": 1.14675703567,
			"-0.013": 1.93792031087,
			"-0.012": 1.22446962668,
			"-0.011": 1.53263507969,
			"-0.01": 1.26267815102,
			"-0.009": 1.026847835,
			"-0.008": 1.06397380516,
			"-0.007": 5.50515126281,
			"-0.006": 6.64813282547,
			"-0.005": 5.79389157333,
			"-0.004": 4.41961446349,
			"-0.003": 6.35461371451,
			"-0.002": 7.64917385761,
			"-0.001": 9.46661917504,
			"0.0": 9.58774711054,
			"0.001": 9.4809931161,
			"0.002": 9.05284757176,
			"0.003": 6.2088580924,
			"0.004": 4.86046420343,
			"0.005": 3.91217513115,
			"0.006": 5.01049328874,
			"0.007": 4.50161061393,
			"0.008": 4.16076873442,
			"0.009": 4.18851647855,
			"0.01": 5.12472422227,
			"0.011": 4.79063820254,
			"0.012": 2.0598920388,
			"0.013": 0.761667403173,
			"0.014": 0.0285904904107,
			"0.015": 0.0,
			"0.016": 0.0,
			"0.017": 0.0,
			"0.018": 0.0,
			"0.019": 0.0,
			"0.02": 0.0,
			"0.021": 0.0,
			"0.022": 0.0,
			"0.023": 0.0,
			"0.024": 0.0,
			"0.025": 0.0
		}
	}
}
