{
	 "smiles": "CC1=CC(=CC=C1NS(=O)(=O)C(F)(F)F)S(=O)(=O)C1=CC=CC=C1", 
	 "Tm": 416.15, 
	 "num_atms": 36, 
	 "gaussian": { 
		 "optdone": 1, 
		 "sigma_profile": "yes", 
		 "theory": "DFT", 
		 "functional": "B3LYP", 
		 "basiset": "6-31G**", 
		 "properties": { 
			 "R2extent": 10813.5338, 
			 "electric_dipole_moment_norm": 4.83700797705, 
			 "electric_quadrupole_moment_norm": 37.9781533215, 
			 "total_energy": -1992.11555135, 
			 "HOMO_LUMO_gap": 0.19784, 
			 "cosmo_polarized_energy": -21.44, 
			 "cosmo_cavitation_energy": 44.89, 
			 "cosmo_dispersion_energy": -30.91, 
			 "cosmo_repulsion_energy": 2.21, 
			 "cosmo_total_nonelectrostatic_energy": 16.19, 
			 "SMD_solvation_energy": 7.11 
		},
		"coords": [
			{
				"x": 3.5216473852,
				"y": 0.0889170164,
				"z": -0.864181069,
				"element": "C" 
			},
			{
				"x": 2.0837872478,
				"y": 0.487061277,
				"z": -0.6298512855,
				"element": "C" 
			},
			{
				"x": 1.1605277051,
				"y": 0.4773775787,
				"z": -1.6786589079,
				"element": "C" 
			},
			{
				"x": -0.1695974259,
				"y": 0.8320554188,
				"z": -1.4590034622,
				"element": "C" 
			},
			{
				"x": -0.6102096981,
				"y": 1.2322014729,
				"z": -0.197898452,
				"element": "C" 
			},
			{
				"x": 0.2981289565,
				"y": 1.27099707,
				"z": 0.8549780001,
				"element": "C" 
			},
			{
				"x": 1.6275906489,
				"y": 0.8859740058,
				"z": 0.6440760679,
				"element": "C" 
			},
			{
				"x": 2.5625552871,
				"y": 0.954991653,
				"z": 1.7207014702,
				"element": "N" 
			},
			{
				"x": 2.3923202756,
				"y": 0.2189644737,
				"z": 3.2097893156,
				"element": "S" 
			},
			{
				"x": 3.5736396383,
				"y": 0.5886308805,
				"z": 3.9762069097,
				"element": "O" 
			},
			{
				"x": 1.0285781897,
				"y": 0.3897509859,
				"z": 3.6871695781,
				"element": "O" 
			},
			{
				"x": 2.5704331256,
				"y": -1.6063069717,
				"z": 2.8273724109,
				"element": "C" 
			},
			{
				"x": 2.5285012216,
				"y": -2.3054819167,
				"z": 3.9564805147,
				"element": "F" 
			},
			{
				"x": 3.7467229911,
				"y": -1.8147752755,
				"z": 2.21702293,
				"element": "F" 
			},
			{
				"x": 1.5855571768,
				"y": -1.9957539965,
				"z": 2.0155205523,
				"element": "F" 
			},
			{
				"x": -1.3273015561,
				"y": 0.801033211,
				"z": -2.8397014042,
				"element": "S" 
			},
			{
				"x": -0.5282604145,
				"y": 0.8712651583,
				"z": -4.0742987388,
				"element": "O" 
			},
			{
				"x": -2.3858996472,
				"y": 1.77801847,
				"z": -2.539464276,
				"element": "O" 
			},
			{
				"x": -2.0717945742,
				"y": -0.8380401417,
				"z": -2.772250008,
				"element": "C" 
			},
			{
				"x": -1.4775116712,
				"y": -1.8860498412,
				"z": -3.478075368,
				"element": "C" 
			},
			{
				"x": -2.0605865217,
				"y": -3.1521272772,
				"z": -3.4243634122,
				"element": "C" 
			},
			{
				"x": -3.2220507972,
				"y": -3.3574370857,
				"z": -2.675399519,
				"element": "C" 
			},
			{
				"x": -3.812606172,
				"y": -2.2968480992,
				"z": -1.9838438383,
				"element": "C" 
			},
			{
				"x": -3.2393502142,
				"y": -1.0259019596,
				"z": -2.0298742146,
				"element": "C" 
			},
			{
				"x": 4.2084517291,
				"y": 0.938751764,
				"z": -0.7520338573,
				"element": "H" 
			},
			{
				"x": 3.6547840507,
				"y": -0.2949323619,
				"z": -1.8776755798,
				"element": "H" 
			},
			{
				"x": 3.8427269727,
				"y": -0.6903339294,
				"z": -0.1645861977,
				"element": "H" 
			},
			{
				"x": 1.4788038236,
				"y": 0.201842191,
				"z": -2.6787580031,
				"element": "H" 
			},
			{
				"x": -1.6375366228,
				"y": 1.5471615164,
				"z": -0.0536153928,
				"element": "H" 
			},
			{
				"x": -0.0101414775,
				"y": 1.6010619381,
				"z": 1.8390102122,
				"element": "H" 
			},
			{
				"x": 3.5423342762,
				"y": 1.0551060354,
				"z": 1.4798480434,
				"element": "H" 
			},
			{
				"x": -0.5906775165,
				"y": -1.6999594354,
				"z": -4.0740314522,
				"element": "H" 
			},
			{
				"x": -1.6130588655,
				"y": -3.9753869673,
				"z": -3.9729592756,
				"element": "H" 
			},
			{
				"x": -3.6730822968,
				"y": -4.3446791613,
				"z": -2.6377126965,
				"element": "H" 
			},
			{
				"x": -4.7233080334,
				"y": -2.4567692816,
				"z": -1.4147059711,
				"element": "H" 
			},
			{
				"x": -3.6963171966,
				"y": -0.184178415,
				"z": -1.5210336234,
				"element": "H" 
			}
		],
		 "valence_orbital": [ 
			{
				"type": "occ",
				"energy": -0.2925,
				"method": "rhf"
			},
			{
				"type": "occ",
				"energy": -0.28299,
				"method": "rhf"
			},
			{
				"type": "occ",
				"energy": -0.2776,
				"method": "rhf"
			},
			{
				"type": "occ",
				"energy": -0.27315,
				"method": "rhf"
			},
			{
				"type": "occ",
				"energy": -0.25903,
				"method": "rhf"
			},
			{
				"type": "unocc",
				"energy": -0.06119,
				"method": "rhf"
			},
			{
				"type": "unocc",
				"energy": -0.03396,
				"method": "rhf"
			},
			{
				"type": "unocc",
				"energy": -0.0297,
				"method": "rhf"
			},
			{
				"type": "unocc",
				"energy": -0.02184,
				"method": "rhf"
			},
			{
				"type": "unocc",
				"energy": 0.02581,
				"method": "rhf"
			}
		],
		"cosmo_sigma_profile": { 
			"-0.025": 0.0,
			"-0.024": 0.0,
			"-0.023": 0.0,
			"-0.022": 0.0,
			"-0.021": 0.0,
			"-0.02": 0.0,
			"-0.019": 0.0,
			"-0.018": 0.0,
			"-0.017": 0.062228639827,
			"-0.016": 0.755721368834,
			"-0.015": 0.490817257578,
			"-0.014": 1.60843399462,
			"-0.013": 1.81629686373,
			"-0.012": 1.86368442333,
			"-0.011": 1.12005677203,
			"-0.01": 1.08996930677,
			"-0.009": 1.55921143758,
			"-0.008": 2.42745093194,
			"-0.007": 12.9026245785,
			"-0.006": 20.7720812216,
			"-0.005": 22.0739148287,
			"-0.004": 18.2542124976,
			"-0.003": 22.3480214755,
			"-0.002": 25.1746197178,
			"-0.001": 31.4659408406,
			"0.0": 37.6155632032,
			"0.001": 44.317847154,
			"0.002": 26.4678066813,
			"0.003": 18.4846949859,
			"0.004": 7.97495211397,
			"0.005": 6.00272813159,
			"0.006": 5.96908611064,
			"0.007": 7.02481999426,
			"0.008": 10.2450637682,
			"0.009": 11.3107737467,
			"0.01": 6.78425579403,
			"0.011": 7.38596089614,
			"0.012": 5.22242033361,
			"0.013": 0.0,
			"0.014": 0.0,
			"0.015": 0.0,
			"0.016": 0.0,
			"0.017": 0.0,
			"0.018": 0.0,
			"0.019": 0.0,
			"0.02": 0.0,
			"0.021": 0.0,
			"0.022": 0.0,
			"0.023": 0.0,
			"0.024": 0.0,
			"0.025": 0.0
		}
	}
}
