{
	 "smiles": "CN1C(S)=NC2=C(C(C)=C(C)S2)C1=O", 
	 "Tm": 562.15, 
	 "num_atms": 24, 
	 "gaussian": { 
		 "optdone": 1, 
		 "sigma_profile": "yes", 
		 "theory": "DFT", 
		 "functional": "B3LYP", 
		 "basiset": "6-31G**", 
		 "properties": { 
			 "R2extent": 4306.5329, 
			 "electric_dipole_moment_norm": 0.714852439319, 
			 "electric_quadrupole_moment_norm": 12.4738742558, 
			 "total_energy": -1330.1091275, 
			 "HOMO_LUMO_gap": 0.16681, 
			 "cosmo_polarized_energy": -9.37, 
			 "cosmo_cavitation_energy": 30.21, 
			 "cosmo_dispersion_energy": -23.37, 
			 "cosmo_repulsion_energy": 1.72, 
			 "cosmo_total_nonelectrostatic_energy": 8.57, 
			 "SMD_solvation_energy": 3.49 
		},
		"coords": [
			{
				"x": 0.568545885,
				"y": -1.7667601652,
				"z": -1.840321223,
				"element": "C" 
			},
			{
				"x": 0.3122728554,
				"y": -0.4156951916,
				"z": -1.3307115669,
				"element": "N" 
			},
			{
				"x": 0.3041726294,
				"y": 0.6716873139,
				"z": -2.1693722039,
				"element": "C" 
			},
			{
				"x": 0.6208281131,
				"y": 0.345732507,
				"z": -3.8970762732,
				"element": "S" 
			},
			{
				"x": 0.0856421365,
				"y": 1.9015831392,
				"z": -1.7990919178,
				"element": "N" 
			},
			{
				"x": -0.1471361097,
				"y": 2.0713184852,
				"z": -0.47184235,
				"element": "C" 
			},
			{
				"x": -0.1711790215,
				"y": 1.0739622666,
				"z": 0.4958507919,
				"element": "C" 
			},
			{
				"x": -0.4454520769,
				"y": 1.5613993839,
				"z": 1.8242383849,
				"element": "C" 
			},
			{
				"x": -0.5237503832,
				"y": 0.6787829831,
				"z": 3.0401376277,
				"element": "C" 
			},
			{
				"x": -0.6240059244,
				"y": 2.9203157675,
				"z": 1.8366209269,
				"element": "C" 
			},
			{
				"x": -0.9261076944,
				"y": 3.813121129,
				"z": 3.0087624781,
				"element": "C" 
			},
			{
				"x": -0.4618123352,
				"y": 3.6333555546,
				"z": 0.2318094659,
				"element": "S" 
			},
			{
				"x": 0.0714098662,
				"y": -0.2889798077,
				"z": 0.0835252031,
				"element": "C" 
			},
			{
				"x": 0.0867328884,
				"y": -1.2839296981,
				"z": 0.7998988235,
				"element": "O" 
			},
			{
				"x": 1.5603435878,
				"y": -1.8218393567,
				"z": -2.297865909,
				"element": "H" 
			},
			{
				"x": 0.5201427232,
				"y": -2.4385486056,
				"z": -0.9853720411,
				"element": "H" 
			},
			{
				"x": -0.1902068887,
				"y": -2.0491313403,
				"z": -2.5755815432,
				"element": "H" 
			},
			{
				"x": 0.5040566578,
				"y": 1.6458278054,
				"z": -4.2229151284,
				"element": "H" 
			},
			{
				"x": -1.2991077231,
				"y": -0.0842859578,
				"z": 2.9222095585,
				"element": "H" 
			},
			{
				"x": 0.4150899723,
				"y": 0.138188862,
				"z": 3.1940496756,
				"element": "H" 
			},
			{
				"x": -0.7417707004,
				"y": 1.2603894757,
				"z": 3.9389627127,
				"element": "H" 
			},
			{
				"x": -1.0136328527,
				"y": 4.8589452369,
				"z": 2.7030449706,
				"element": "H" 
			},
			{
				"x": -0.1365354309,
				"y": 3.7584580046,
				"z": 3.7666702143,
				"element": "H" 
			},
			{
				"x": -1.8690401738,
				"y": 3.5331022084,
				"z": 3.4917693231,
				"element": "H" 
			}
		],
		 "valence_orbital": [ 
			{
				"type": "occ",
				"energy": -0.28408,
				"method": "rhf"
			},
			{
				"type": "occ",
				"energy": -0.2797,
				"method": "rhf"
			},
			{
				"type": "occ",
				"energy": -0.2647,
				"method": "rhf"
			},
			{
				"type": "occ",
				"energy": -0.25101,
				"method": "rhf"
			},
			{
				"type": "occ",
				"energy": -0.20633,
				"method": "rhf"
			},
			{
				"type": "unocc",
				"energy": -0.03952,
				"method": "rhf"
			},
			{
				"type": "unocc",
				"energy": -0.00762,
				"method": "rhf"
			},
			{
				"type": "unocc",
				"energy": -0.00149,
				"method": "rhf"
			},
			{
				"type": "unocc",
				"energy": 0.01992,
				"method": "rhf"
			},
			{
				"type": "unocc",
				"energy": 0.02856,
				"method": "rhf"
			}
		],
		"cosmo_sigma_profile": { 
			"-0.025": 0.0,
			"-0.024": 0.0,
			"-0.023": 0.0,
			"-0.022": 0.0,
			"-0.021": 0.0,
			"-0.02": 0.0,
			"-0.019": 0.0,
			"-0.018": 0.0,
			"-0.017": 0.0,
			"-0.016": 0.0,
			"-0.015": 0.0,
			"-0.014": 0.0,
			"-0.013": 0.0,
			"-0.012": 0.994338133989,
			"-0.011": 1.3303280799,
			"-0.01": 1.45840901154,
			"-0.009": 0.827718062469,
			"-0.008": 1.32402481252,
			"-0.007": 2.72101795287,
			"-0.006": 6.81316102192,
			"-0.005": 13.2399031999,
			"-0.004": 20.8138682128,
			"-0.003": 27.3782321813,
			"-0.002": 22.2949953854,
			"-0.001": 20.9614081709,
			"0.0": 22.6589365805,
			"0.001": 21.2103000863,
			"0.002": 20.6166417601,
			"0.003": 18.1901554669,
			"0.004": 12.0749674157,
			"0.005": 6.61682516555,
			"0.006": 5.01123546958,
			"0.007": 2.67366991931,
			"0.008": 2.58684760302,
			"0.009": 2.70868151485,
			"0.01": 2.91357650447,
			"0.011": 2.36943174391,
			"0.012": 3.10112853169,
			"0.013": 2.2712039044,
			"0.014": 0.0,
			"0.015": 0.0,
			"0.016": 0.0,
			"0.017": 0.0,
			"0.018": 0.0,
			"0.019": 0.0,
			"0.02": 0.0,
			"0.021": 0.0,
			"0.022": 0.0,
			"0.023": 0.0,
			"0.024": 0.0,
			"0.025": 0.0
		}
	}
}
