{
	 "smiles": "BrC1=C(C=CC=C1)N1N=C(CC1=O)C1=CC=CC=C1", 
	 "Tm": 457.15, 
	 "num_atms": 30, 
	 "gaussian": { 
		 "optdone": 1, 
		 "sigma_profile": "yes", 
		 "theory": "DFT", 
		 "functional": "B3LYP", 
		 "basiset": "6-31G**", 
		 "properties": { 
			 "R2extent": 7097.4547, 
			 "electric_dipole_moment_norm": 2.15034592798, 
			 "electric_quadrupole_moment_norm": 17.6696007103, 
			 "total_energy": -3334.33816273, 
			 "HOMO_LUMO_gap": 0.16147, 
			 "cosmo_polarized_energy": -13.48, 
			 "cosmo_cavitation_energy": 37.09, 
			 "cosmo_dispersion_energy": -26.55, 
			 "cosmo_repulsion_energy": 2.03, 
			 "cosmo_total_nonelectrostatic_energy": 12.57, 
			 "SMD_solvation_energy": 5.25 
		},
		"coords": [
			{
				"x": 1.6277617588,
				"y": -2.345370858,
				"z": -1.3455863776,
				"element": "Br" 
			},
			{
				"x": 0.2050289961,
				"y": -1.7664926746,
				"z": -2.474827398,
				"element": "C" 
			},
			{
				"x": -0.4685610601,
				"y": -0.555466547,
				"z": -2.2483765965,
				"element": "C" 
			},
			{
				"x": -1.4498014042,
				"y": -0.148275199,
				"z": -3.1615888247,
				"element": "C" 
			},
			{
				"x": -1.7647848357,
				"y": -0.9333437499,
				"z": -4.2668845276,
				"element": "C" 
			},
			{
				"x": -1.1124801009,
				"y": -2.1508353872,
				"z": -4.4635457653,
				"element": "C" 
			},
			{
				"x": -0.128836444,
				"y": -2.5665079058,
				"z": -3.5673672664,
				"element": "C" 
			},
			{
				"x": -0.1763759008,
				"y": 0.2811544618,
				"z": -1.1438205418,
				"element": "N" 
			},
			{
				"x": -0.2305656147,
				"y": -0.2196451336,
				"z": 0.1543797353,
				"element": "N" 
			},
			{
				"x": 0.0512404853,
				"y": 0.7420653586,
				"z": 0.9756679379,
				"element": "C" 
			},
			{
				"x": 0.3254937198,
				"y": 2.0390975924,
				"z": 0.259962574,
				"element": "C" 
			},
			{
				"x": 0.1149449124,
				"y": 1.6457428647,
				"z": -1.2008664982,
				"element": "C" 
			},
			{
				"x": 0.1750509763,
				"y": 2.3324797648,
				"z": -2.2003153177,
				"element": "O" 
			},
			{
				"x": 0.0781890428,
				"y": 0.535578704,
				"z": 2.4267145604,
				"element": "C" 
			},
			{
				"x": 0.346694891,
				"y": 1.6058327982,
				"z": 3.2951567385,
				"element": "C" 
			},
			{
				"x": 0.371954941,
				"y": 1.4095402584,
				"z": 4.6759091626,
				"element": "C" 
			},
			{
				"x": 0.1297142976,
				"y": 0.1428185317,
				"z": 5.207578384,
				"element": "C" 
			},
			{
				"x": -0.137392779,
				"y": -0.9298882458,
				"z": 4.3495288974,
				"element": "C" 
			},
			{
				"x": -0.1630859984,
				"y": -0.7392931075,
				"z": 2.9727273301,
				"element": "C" 
			},
			{
				"x": -1.9537680661,
				"y": 0.7961016561,
				"z": -2.9925879122,
				"element": "H" 
			},
			{
				"x": -2.5262210214,
				"y": -0.5989056021,
				"z": -4.9643015885,
				"element": "H" 
			},
			{
				"x": -1.3585054935,
				"y": -2.7765274434,
				"z": -5.3159854456,
				"element": "H" 
			},
			{
				"x": 0.3972000175,
				"y": -3.5021788664,
				"z": -3.7179590138,
				"element": "H" 
			},
			{
				"x": 1.3473407046,
				"y": 2.4066788629,
				"z": 0.4054980553,
				"element": "H" 
			},
			{
				"x": -0.3556085628,
				"y": 2.8491955594,
				"z": 0.5407451062,
				"element": "H" 
			},
			{
				"x": 0.5371403453,
				"y": 2.5967422524,
				"z": 2.8933297728,
				"element": "H" 
			},
			{
				"x": 0.5811231688,
				"y": 2.2472499764,
				"z": 5.3347322137,
				"element": "H" 
			},
			{
				"x": 0.1495859051,
				"y": -0.0103808497,
				"z": 6.2826043537,
				"element": "H" 
			},
			{
				"x": -0.3245066467,
				"y": -1.9185875611,
				"z": 4.7585234979,
				"element": "H" 
			},
			{
				"x": -0.3653702341,
				"y": -1.5663795108,
				"z": 2.300754754,
				"element": "H" 
			}
		],
		 "valence_orbital": [ 
			{
				"type": "occ",
				"energy": -0.263,
				"method": "rhf"
			},
			{
				"type": "occ",
				"energy": -0.25942,
				"method": "rhf"
			},
			{
				"type": "occ",
				"energy": -0.25901,
				"method": "rhf"
			},
			{
				"type": "occ",
				"energy": -0.24347,
				"method": "rhf"
			},
			{
				"type": "occ",
				"energy": -0.21682,
				"method": "rhf"
			},
			{
				"type": "unocc",
				"energy": -0.05535,
				"method": "rhf"
			},
			{
				"type": "unocc",
				"energy": -0.02532,
				"method": "rhf"
			},
			{
				"type": "unocc",
				"energy": -0.01537,
				"method": "rhf"
			},
			{
				"type": "unocc",
				"energy": -0.00878,
				"method": "rhf"
			},
			{
				"type": "unocc",
				"energy": 0.00685,
				"method": "rhf"
			}
		],
		"cosmo_sigma_profile": { 
			"-0.025": 0.0,
			"-0.024": 0.0,
			"-0.023": 0.0,
			"-0.022": 0.0,
			"-0.021": 0.0,
			"-0.02": 0.0,
			"-0.019": 0.0,
			"-0.018": 0.0,
			"-0.017": 0.0,
			"-0.016": 0.0,
			"-0.015": 0.0,
			"-0.014": 0.0,
			"-0.013": 0.0,
			"-0.012": 0.0,
			"-0.011": 0.0,
			"-0.01": 0.0,
			"-0.009": 2.44286690333,
			"-0.008": 5.94979314303,
			"-0.007": 14.5805332202,
			"-0.006": 20.7999183975,
			"-0.005": 23.064832292,
			"-0.004": 21.8026447025,
			"-0.003": 16.6092780652,
			"-0.002": 16.4445737609,
			"-0.001": 15.2570416717,
			"0.0": 18.0183743861,
			"0.001": 21.6634268739,
			"0.002": 26.2592474592,
			"0.003": 30.5155573096,
			"0.004": 26.5838298281,
			"0.005": 14.8028168894,
			"0.006": 4.34757052608,
			"0.007": 2.98145863238,
			"0.008": 2.50546204711,
			"0.009": 3.62982671534,
			"0.01": 3.07894371422,
			"0.011": 2.52313281971,
			"0.012": 5.40298446397,
			"0.013": 2.21771449133,
			"0.014": 0.0628652892233,
			"0.015": 0.0,
			"0.016": 0.0,
			"0.017": 0.0,
			"0.018": 0.0,
			"0.019": 0.0,
			"0.02": 0.0,
			"0.021": 0.0,
			"0.022": 0.0,
			"0.023": 0.0,
			"0.024": 0.0,
			"0.025": 0.0
		}
	}
}
