{
	 "smiles": "CC1=C(CC(O)=O)C(C)=NS(=O)(=O)N1", 
	 "Tm": 459.15, 
	 "num_atms": 24, 
	 "gaussian": { 
		 "optdone": 1, 
		 "sigma_profile": "yes", 
		 "theory": "DFT", 
		 "functional": "B3LYP", 
		 "basiset": "6-31G**", 
		 "properties": { 
			 "R2extent": 3740.8165, 
			 "electric_dipole_moment_norm": 6.27479471138, 
			 "electric_quadrupole_moment_norm": 27.3365079026, 
			 "total_energy": -1081.28931186, 
			 "HOMO_LUMO_gap": 0.17305, 
			 "cosmo_polarized_energy": -25.23, 
			 "cosmo_cavitation_energy": 28.86, 
			 "cosmo_dispersion_energy": -21.55, 
			 "cosmo_repulsion_energy": 1.66, 
			 "cosmo_total_nonelectrostatic_energy": 8.97, 
			 "SMD_solvation_energy": 4.6 
		},
		"coords": [
			{
				"x": 2.6145788617,
				"y": -0.2983006061,
				"z": -0.9622284686,
				"element": "C" 
			},
			{
				"x": 1.2563912805,
				"y": -0.9476722588,
				"z": -1.0474138456,
				"element": "C" 
			},
			{
				"x": 0.2364838892,
				"y": -0.7043075794,
				"z": -0.145013605,
				"element": "C" 
			},
			{
				"x": 0.4391652063,
				"y": 0.3333087494,
				"z": 0.9505713403,
				"element": "C" 
			},
			{
				"x": 0.1149193454,
				"y": 1.727718754,
				"z": 0.4373887638,
				"element": "C" 
			},
			{
				"x": -1.1931054257,
				"y": 2.0325674363,
				"z": 0.5949259888,
				"element": "O" 
			},
			{
				"x": 0.9053114251,
				"y": 2.4806921376,
				"z": -0.0902929022,
				"element": "O" 
			},
			{
				"x": -0.9834812518,
				"y": -1.4719040543,
				"z": -0.2145388898,
				"element": "C" 
			},
			{
				"x": -2.0024878705,
				"y": -1.3738452843,
				"z": 0.8969901906,
				"element": "C" 
			},
			{
				"x": -1.3097743603,
				"y": -2.3238660104,
				"z": -1.1614327003,
				"element": "N" 
			},
			{
				"x": -0.4570600115,
				"y": -2.4334635044,
				"z": -2.5538313747,
				"element": "S" 
			},
			{
				"x": -0.2382119633,
				"y": -3.8209863397,
				"z": -2.933821961,
				"element": "O" 
			},
			{
				"x": -0.9824874873,
				"y": -1.4930735453,
				"z": -3.5373936822,
				"element": "O" 
			},
			{
				"x": 1.0918851851,
				"y": -1.8491670541,
				"z": -2.0514339357,
				"element": "N" 
			},
			{
				"x": 3.2324309702,
				"y": -0.5572876869,
				"z": -1.8252495506,
				"element": "H" 
			},
			{
				"x": 3.1415958311,
				"y": -0.619509477,
				"z": -0.0569186785,
				"element": "H" 
			},
			{
				"x": 2.5104825153,
				"y": 0.7890519194,
				"z": -0.920260968,
				"element": "H" 
			},
			{
				"x": 1.4761703325,
				"y": 0.3499338628,
				"z": 1.2916097071,
				"element": "H" 
			},
			{
				"x": -0.1897255081,
				"y": 0.1141512718,
				"z": 1.8135842872,
				"element": "H" 
			},
			{
				"x": -1.3290684795,
				"y": 2.9040115585,
				"z": 0.1846164979,
				"element": "H" 
			},
			{
				"x": -1.566399457,
				"y": -1.650945743,
				"z": 1.8633015899,
				"element": "H" 
			},
			{
				"x": -2.8334759455,
				"y": -2.0434937474,
				"z": 0.6776826405,
				"element": "H" 
			},
			{
				"x": -2.3760301612,
				"y": -0.348190565,
				"z": 0.9815014545,
				"element": "H" 
			},
			{
				"x": 1.8614930794,
				"y": -2.0723222336,
				"z": -2.6712418986,
				"element": "H" 
			}
		],
		 "valence_orbital": [ 
			{
				"type": "occ",
				"energy": -0.30777,
				"method": "rhf"
			},
			{
				"type": "occ",
				"energy": -0.30131,
				"method": "rhf"
			},
			{
				"type": "occ",
				"energy": -0.29609,
				"method": "rhf"
			},
			{
				"type": "occ",
				"energy": -0.28673,
				"method": "rhf"
			},
			{
				"type": "occ",
				"energy": -0.23879,
				"method": "rhf"
			},
			{
				"type": "unocc",
				"energy": -0.06574,
				"method": "rhf"
			},
			{
				"type": "unocc",
				"energy": -0.01461,
				"method": "rhf"
			},
			{
				"type": "unocc",
				"energy": 0.03185,
				"method": "rhf"
			},
			{
				"type": "unocc",
				"energy": 0.04437,
				"method": "rhf"
			},
			{
				"type": "unocc",
				"energy": 0.06043,
				"method": "rhf"
			}
		],
		"cosmo_sigma_profile": { 
			"-0.025": 0.0,
			"-0.024": 0.0,
			"-0.023": 0.0,
			"-0.022": 0.0,
			"-0.021": 0.0,
			"-0.02": 0.0,
			"-0.019": 0.0667424895088,
			"-0.018": 1.90054387118,
			"-0.017": 2.06055170767,
			"-0.016": 1.96993608167,
			"-0.015": 2.34816136998,
			"-0.014": 1.43340148271,
			"-0.013": 1.90890849449,
			"-0.012": 2.16407668023,
			"-0.011": 1.38270486209,
			"-0.01": 2.53214879306,
			"-0.009": 1.29749108891,
			"-0.008": 4.44973880987,
			"-0.007": 10.1312726055,
			"-0.006": 11.3649563468,
			"-0.005": 12.0108653654,
			"-0.004": 14.0706918933,
			"-0.003": 18.6077890782,
			"-0.002": 21.3538206059,
			"-0.001": 16.5090140406,
			"0.0": 9.12390670363,
			"0.001": 6.81401205266,
			"0.002": 6.74646320734,
			"0.003": 5.38649563969,
			"0.004": 6.29527468888,
			"0.005": 5.49151310675,
			"0.006": 5.44442261107,
			"0.007": 5.83198399407,
			"0.008": 7.02648667942,
			"0.009": 8.21852780167,
			"0.01": 16.0013156119,
			"0.011": 16.0570917555,
			"0.012": 2.78103845289,
			"0.013": 0.0754977634755,
			"0.014": 0.0,
			"0.015": 0.0,
			"0.016": 0.0,
			"0.017": 0.0,
			"0.018": 0.0,
			"0.019": 0.0,
			"0.02": 0.0,
			"0.021": 0.0,
			"0.022": 0.0,
			"0.023": 0.0,
			"0.024": 0.0,
			"0.025": 0.0
		}
	}
}
