{
	 "smiles": "NC1=CC=C(C=C1)C(=O)NC1CCOCC1", 
	 "Tm": 491.15, 
	 "num_atms": 32, 
	 "gaussian": { 
		 "optdone": 1, 
		 "sigma_profile": "yes", 
		 "theory": "DFT", 
		 "functional": "B3LYP", 
		 "basiset": "6-31G**", 
		 "properties": { 
			 "R2extent": 5404.5254, 
			 "electric_dipole_moment_norm": 4.3554303048, 
			 "electric_quadrupole_moment_norm": 27.3118172189, 
			 "total_energy": -726.872237355, 
			 "HOMO_LUMO_gap": 0.18986, 
			 "cosmo_polarized_energy": -19.29, 
			 "cosmo_cavitation_energy": 34.29, 
			 "cosmo_dispersion_energy": -24.57, 
			 "cosmo_repulsion_energy": 1.94, 
			 "cosmo_total_nonelectrostatic_energy": 11.65, 
			 "SMD_solvation_energy": 5.43 
		},
		"coords": [
			{
				"x": -1.511173587,
				"y": 0.5721868323,
				"z": 5.9422575703,
				"element": "N" 
			},
			{
				"x": -1.4178179521,
				"y": 0.185464867,
				"z": 4.6109735113,
				"element": "C" 
			},
			{
				"x": -2.4197983362,
				"y": 0.5402432779,
				"z": 3.6866432293,
				"element": "C" 
			},
			{
				"x": -2.2998872186,
				"y": 0.1923840336,
				"z": 2.3492258247,
				"element": "C" 
			},
			{
				"x": -1.1705948085,
				"y": -0.4921403486,
				"z": 1.8743564499,
				"element": "C" 
			},
			{
				"x": -0.1812785258,
				"y": -0.8587481976,
				"z": 2.7996177999,
				"element": "C" 
			},
			{
				"x": -0.2999353599,
				"y": -0.5313221825,
				"z": 4.1455481488,
				"element": "C" 
			},
			{
				"x": -1.1441953031,
				"y": -0.8865740388,
				"z": 0.4335161254,
				"element": "C" 
			},
			{
				"x": -2.1791661422,
				"y": -1.1541598701,
				"z": -0.172657025,
				"element": "O" 
			},
			{
				"x": 0.0862825749,
				"y": -1.0108595195,
				"z": -0.1962881191,
				"element": "N" 
			},
			{
				"x": 1.2453909119,
				"y": -0.1267196855,
				"z": -0.0268426082,
				"element": "C" 
			},
			{
				"x": 2.5501603178,
				"y": -0.9292379636,
				"z": -0.2348050238,
				"element": "C" 
			},
			{
				"x": 3.6884999773,
				"y": -0.01556782,
				"z": -0.684834332,
				"element": "C" 
			},
			{
				"x": 3.4321296369,
				"y": 0.6010047648,
				"z": -1.9467722489,
				"element": "O" 
			},
			{
				"x": 2.0548595352,
				"y": 0.8266719287,
				"z": -2.2455161717,
				"element": "C" 
			},
			{
				"x": 1.2231708717,
				"y": 1.0937127781,
				"z": -0.9926733227,
				"element": "C" 
			},
			{
				"x": -0.966773145,
				"y": 0.0322684852,
				"z": 6.5998083241,
				"element": "H" 
			},
			{
				"x": -2.4417620525,
				"y": 0.7734967824,
				"z": 6.2796582332,
				"element": "H" 
			},
			{
				"x": -3.2952761419,
				"y": 1.085388672,
				"z": 4.030936569,
				"element": "H" 
			},
			{
				"x": -3.0873727235,
				"y": 0.4396584783,
				"z": 1.6447907427,
				"element": "H" 
			},
			{
				"x": 0.673866035,
				"y": -1.4419726453,
				"z": 2.4713701923,
				"element": "H" 
			},
			{
				"x": 0.4713132159,
				"y": -0.8362926985,
				"z": 4.8486183875,
				"element": "H" 
			},
			{
				"x": -0.0567589003,
				"y": -1.3280385585,
				"z": -1.1507360262,
				"element": "H" 
			},
			{
				"x": 1.2102871757,
				"y": 0.2519386196,
				"z": 0.9952961617,
				"element": "H" 
			},
			{
				"x": 2.3880576514,
				"y": -1.6938364543,
				"z": -1.0045887162,
				"element": "H" 
			},
			{
				"x": 2.8260286336,
				"y": -1.4632327649,
				"z": 0.6810017479,
				"element": "H" 
			},
			{
				"x": 3.8730750812,
				"y": 0.7555563047,
				"z": 0.0820233375,
				"element": "H" 
			},
			{
				"x": 4.618449764,
				"y": -0.581731469,
				"z": -0.8026452859,
				"element": "H" 
			},
			{
				"x": 2.0247378316,
				"y": 1.683252968,
				"z": -2.9268335495,
				"element": "H" 
			},
			{
				"x": 1.6412829457,
				"y": -0.0354655117,
				"z": -2.7965196389,
				"element": "H" 
			},
			{
				"x": 0.1909969832,
				"y": 1.338745203,
				"z": -1.2640262706,
				"element": "H" 
			},
			{
				"x": 1.6361010538,
				"y": 1.9717257324,
				"z": -0.4821040168,
				"element": "H" 
			}
		],
		 "valence_orbital": [ 
			{
				"type": "occ",
				"energy": -0.25491,
				"method": "rhf"
			},
			{
				"type": "occ",
				"energy": -0.25279,
				"method": "rhf"
			},
			{
				"type": "occ",
				"energy": -0.24428,
				"method": "rhf"
			},
			{
				"type": "occ",
				"energy": -0.2328,
				"method": "rhf"
			},
			{
				"type": "occ",
				"energy": -0.20899,
				"method": "rhf"
			},
			{
				"type": "unocc",
				"energy": -0.01913,
				"method": "rhf"
			},
			{
				"type": "unocc",
				"energy": -0.00391,
				"method": "rhf"
			},
			{
				"type": "unocc",
				"energy": 0.05906,
				"method": "rhf"
			},
			{
				"type": "unocc",
				"energy": 0.07019,
				"method": "rhf"
			},
			{
				"type": "unocc",
				"energy": 0.07596,
				"method": "rhf"
			}
		],
		"cosmo_sigma_profile": { 
			"-0.025": 0.0,
			"-0.024": 0.0,
			"-0.023": 0.0,
			"-0.022": 0.0,
			"-0.021": 0.0,
			"-0.02": 0.0,
			"-0.019": 0.0,
			"-0.018": 0.0,
			"-0.017": 0.0,
			"-0.016": 0.0,
			"-0.015": 0.0,
			"-0.014": 0.0,
			"-0.013": 1.18868556609,
			"-0.012": 3.27877822703,
			"-0.011": 3.11864078672,
			"-0.01": 4.98415770675,
			"-0.009": 5.90515043033,
			"-0.008": 3.94335340639,
			"-0.007": 4.5813520558,
			"-0.006": 6.31036360597,
			"-0.005": 13.5158252483,
			"-0.004": 30.2558005852,
			"-0.003": 30.4258409279,
			"-0.002": 25.4718965562,
			"-0.001": 19.6862353479,
			"0.0": 12.8826152977,
			"0.001": 11.8549936695,
			"0.002": 9.88828038616,
			"0.003": 9.97661393028,
			"0.004": 10.8986232634,
			"0.005": 16.2275691768,
			"0.006": 7.95357758659,
			"0.007": 3.97803494898,
			"0.008": 4.00798718579,
			"0.009": 4.08352264062,
			"0.01": 2.63534289565,
			"0.011": 2.8253633505,
			"0.012": 4.71002544235,
			"0.013": 4.5899003097,
			"0.014": 7.13915201488,
			"0.015": 2.31564073666,
			"0.016": 0.0,
			"0.017": 0.0,
			"0.018": 0.0,
			"0.019": 0.0,
			"0.02": 0.0,
			"0.021": 0.0,
			"0.022": 0.0,
			"0.023": 0.0,
			"0.024": 0.0,
			"0.025": 0.0
		}
	}
}
