{
	 "smiles": "FC(F)(F)CC1=NN=C2C=CC(Cl)=NN12", 
	 "Tm": 411.15, 
	 "num_atms": 19, 
	 "gaussian": { 
		 "optdone": 1, 
		 "sigma_profile": "yes", 
		 "theory": "DFT", 
		 "functional": "B3LYP", 
		 "basiset": "6-31G**", 
		 "properties": { 
			 "R2extent": 4311.7712, 
			 "electric_dipole_moment_norm": 4.00011234217, 
			 "electric_quadrupole_moment_norm": 16.2499443168, 
			 "total_energy": -1247.82269881, 
			 "HOMO_LUMO_gap": 0.1681, 
			 "cosmo_polarized_energy": -14.21, 
			 "cosmo_cavitation_energy": 27.72, 
			 "cosmo_dispersion_energy": -19.71, 
			 "cosmo_repulsion_energy": 1.49, 
			 "cosmo_total_nonelectrostatic_energy": 9.49, 
			 "SMD_solvation_energy": 2.79 
		},
		"coords": [
			{
				"x": 1.8842604893,
				"y": -1.5499905439,
				"z": 0.4800460807,
				"element": "F" 
			},
			{
				"x": 0.7216698148,
				"y": -1.6135707603,
				"z": 1.1614621303,
				"element": "C" 
			},
			{
				"x": 0.8632046747,
				"y": -0.8774716426,
				"z": 2.278443322,
				"element": "F" 
			},
			{
				"x": 0.5315032641,
				"y": -2.8967097324,
				"z": 1.5327833975,
				"element": "F" 
			},
			{
				"x": -0.4503629881,
				"y": -1.1334861363,
				"z": 0.3152256411,
				"element": "C" 
			},
			{
				"x": -0.2928803317,
				"y": 0.2642031882,
				"z": -0.1733524074,
				"element": "C" 
			},
			{
				"x": -0.785137769,
				"y": 1.3572795847,
				"z": 0.3879815539,
				"element": "N" 
			},
			{
				"x": -0.432301659,
				"y": 2.4482570787,
				"z": -0.3511897021,
				"element": "N" 
			},
			{
				"x": 0.2811376706,
				"y": 2.0065670811,
				"z": -1.3761692098,
				"element": "C" 
			},
			{
				"x": 0.9103200405,
				"y": 2.646365597,
				"z": -2.4715926294,
				"element": "C" 
			},
			{
				"x": 1.5690755687,
				"y": 1.861606896,
				"z": -3.3767870617,
				"element": "C" 
			},
			{
				"x": 1.5830152161,
				"y": 0.4413939931,
				"z": -3.1733377507,
				"element": "C" 
			},
			{
				"x": 2.4103363181,
				"y": -0.5498899733,
				"z": -4.3450683891,
				"element": "Cl" 
			},
			{
				"x": 1.0266612646,
				"y": -0.1935839196,
				"z": -2.1819475764,
				"element": "N" 
			},
			{
				"x": 0.393597302,
				"y": 0.6179142989,
				"z": -1.3038229346,
				"element": "N" 
			},
			{
				"x": -0.5519732944,
				"y": -1.8250820046,
				"z": -0.5255937769,
				"element": "H" 
			},
			{
				"x": -1.3496041373,
				"y": -1.1877624734,
				"z": 0.9319921861,
				"element": "H" 
			},
			{
				"x": 0.8535731596,
				"y": 3.7248959852,
				"z": -2.5627116033,
				"element": "H" 
			},
			{
				"x": 2.0756053965,
				"y": 2.2761634837,
				"z": -4.2388612701,
				"element": "H" 
			}
		],
		 "valence_orbital": [ 
			{
				"type": "occ",
				"energy": -0.34701,
				"method": "rhf"
			},
			{
				"type": "occ",
				"energy": -0.32748,
				"method": "rhf"
			},
			{
				"type": "occ",
				"energy": -0.29301,
				"method": "rhf"
			},
			{
				"type": "occ",
				"energy": -0.27045,
				"method": "rhf"
			},
			{
				"type": "occ",
				"energy": -0.2602,
				"method": "rhf"
			},
			{
				"type": "unocc",
				"energy": -0.0921,
				"method": "rhf"
			},
			{
				"type": "unocc",
				"energy": -0.03643,
				"method": "rhf"
			},
			{
				"type": "unocc",
				"energy": 0.00211,
				"method": "rhf"
			},
			{
				"type": "unocc",
				"energy": 0.0171,
				"method": "rhf"
			},
			{
				"type": "unocc",
				"energy": 0.08554,
				"method": "rhf"
			}
		],
		"cosmo_sigma_profile": { 
			"-0.025": 0.0,
			"-0.024": 0.0,
			"-0.023": 0.0,
			"-0.022": 0.0,
			"-0.021": 0.0,
			"-0.02": 0.0,
			"-0.019": 0.0,
			"-0.018": 0.0,
			"-0.017": 0.0,
			"-0.016": 0.0,
			"-0.015": 0.0,
			"-0.014": 0.0,
			"-0.013": 0.0,
			"-0.012": 0.0,
			"-0.011": 0.705002435833,
			"-0.01": 3.59135382252,
			"-0.009": 7.84161550825,
			"-0.008": 8.10524732369,
			"-0.007": 7.98934034704,
			"-0.006": 11.3069343443,
			"-0.005": 11.4132126293,
			"-0.004": 12.4085651894,
			"-0.003": 13.9526310586,
			"-0.002": 14.3070658831,
			"-0.001": 12.2930530353,
			"0.0": 10.4126251012,
			"0.001": 13.9498981719,
			"0.002": 29.2500693712,
			"0.003": 30.7780679031,
			"0.004": 6.4913979784,
			"0.005": 4.97734507928,
			"0.006": 3.52183258998,
			"0.007": 2.52429964656,
			"0.008": 2.60130575285,
			"0.009": 1.94747391091,
			"0.01": 2.15830674429,
			"0.011": 2.77926418483,
			"0.012": 3.42717844463,
			"0.013": 3.04837283362,
			"0.014": 2.17553710522,
			"0.015": 1.84865504337,
			"0.016": 0.458404674245,
			"0.017": 0.0,
			"0.018": 0.0,
			"0.019": 0.0,
			"0.02": 0.0,
			"0.021": 0.0,
			"0.022": 0.0,
			"0.023": 0.0,
			"0.024": 0.0,
			"0.025": 0.0
		}
	}
}
