{
	 "smiles": "ClC1=CC=C(C=C1)S(=O)(=O)CC#N", 
	 "Tm": 444.15, 
	 "num_atms": 19, 
	 "gaussian": { 
		 "optdone": 1, 
		 "sigma_profile": "yes", 
		 "theory": "DFT", 
		 "functional": "B3LYP", 
		 "basiset": "6-31G**", 
		 "properties": { 
			 "R2extent": 4113.8974, 
			 "electric_dipole_moment_norm": 6.40019055419, 
			 "electric_quadrupole_moment_norm": 15.8462761982, 
			 "total_energy": -1371.94766483, 
			 "HOMO_LUMO_gap": 0.21378, 
			 "cosmo_polarized_energy": -19.78, 
			 "cosmo_cavitation_energy": 28.37, 
			 "cosmo_dispersion_energy": -20.31, 
			 "cosmo_repulsion_energy": 1.57, 
			 "cosmo_total_nonelectrostatic_energy": 9.63, 
			 "SMD_solvation_energy": 5.41 
		},
		"coords": [
			{
				"x": -2.2397699558,
				"y": -2.8960843173,
				"z": 3.5946468517,
				"element": "Cl" 
			},
			{
				"x": -1.7363218001,
				"y": -1.8330899443,
				"z": 2.2995843925,
				"element": "C" 
			},
			{
				"x": -1.0264900364,
				"y": -0.6701959624,
				"z": 2.6091993473,
				"element": "C" 
			},
			{
				"x": -0.6241918087,
				"y": 0.1750041668,
				"z": 1.5771392422,
				"element": "C" 
			},
			{
				"x": -0.9363178493,
				"y": -0.1618874081,
				"z": 0.2580753081,
				"element": "C" 
			},
			{
				"x": -1.6581529394,
				"y": -1.3173529274,
				"z": -0.0496877782,
				"element": "C" 
			},
			{
				"x": -2.0610291407,
				"y": -2.1634024665,
				"z": 0.9814436075,
				"element": "C" 
			},
			{
				"x": -0.4177006492,
				"y": 0.9280337047,
				"z": -1.0714226646,
				"element": "S" 
			},
			{
				"x": -0.1970181805,
				"y": 2.2657915292,
				"z": -0.5137379855,
				"element": "O" 
			},
			{
				"x": -1.2868906171,
				"y": 0.6928283889,
				"z": -2.228356726,
				"element": "O" 
			},
			{
				"x": 1.251005305,
				"y": 0.2266451498,
				"z": -1.4886643656,
				"element": "C" 
			},
			{
				"x": 1.8822263428,
				"y": 0.9670925713,
				"z": -2.5688664626,
				"element": "C" 
			},
			{
				"x": 2.3907461579,
				"y": 1.5542632293,
				"z": -3.4305595339,
				"element": "N" 
			},
			{
				"x": -0.8016510717,
				"y": -0.429614018,
				"z": 3.6419952893,
				"element": "H" 
			},
			{
				"x": -0.0936239234,
				"y": 1.0968320136,
				"z": 1.7909872601,
				"element": "H" 
			},
			{
				"x": -1.9182522706,
				"y": -1.5366772621,
				"z": -1.0798555513,
				"element": "H" 
			},
			{
				"x": -2.6266738294,
				"y": -3.0637594258,
				"z": 0.7704866226,
				"element": "H" 
			},
			{
				"x": 1.8566999361,
				"y": 0.2758434692,
				"z": -0.5795563053,
				"element": "H" 
			},
			{
				"x": 1.0985063306,
				"y": -0.8182704909,
				"z": -1.7726505486,
				"element": "H" 
			}
		],
		 "valence_orbital": [ 
			{
				"type": "occ",
				"energy": -0.33791,
				"method": "rhf"
			},
			{
				"type": "occ",
				"energy": -0.32281,
				"method": "rhf"
			},
			{
				"type": "occ",
				"energy": -0.31054,
				"method": "rhf"
			},
			{
				"type": "occ",
				"energy": -0.3015,
				"method": "rhf"
			},
			{
				"type": "occ",
				"energy": -0.28586,
				"method": "rhf"
			},
			{
				"type": "unocc",
				"energy": -0.07208,
				"method": "rhf"
			},
			{
				"type": "unocc",
				"energy": -0.05187,
				"method": "rhf"
			},
			{
				"type": "unocc",
				"energy": -0.01479,
				"method": "rhf"
			},
			{
				"type": "unocc",
				"energy": 0.00304,
				"method": "rhf"
			},
			{
				"type": "unocc",
				"energy": 0.01673,
				"method": "rhf"
			}
		],
		"cosmo_sigma_profile": { 
			"-0.025": 0.0,
			"-0.024": 0.0,
			"-0.023": 0.0,
			"-0.022": 0.0,
			"-0.021": 0.0,
			"-0.02": 0.0,
			"-0.019": 0.0,
			"-0.018": 0.0,
			"-0.017": 0.0,
			"-0.016": 0.0,
			"-0.015": 0.0,
			"-0.014": 0.0,
			"-0.013": 0.224493513988,
			"-0.012": 4.80354312989,
			"-0.011": 5.38982887206,
			"-0.01": 4.61207666201,
			"-0.009": 5.42367577974,
			"-0.008": 12.525541123,
			"-0.007": 10.623797669,
			"-0.006": 7.84757757983,
			"-0.005": 7.82416201946,
			"-0.004": 7.15097642756,
			"-0.003": 9.55405185448,
			"-0.002": 10.4139867512,
			"-0.001": 15.6333481451,
			"0.0": 22.6532007981,
			"0.001": 18.0135856929,
			"0.002": 12.1180690828,
			"0.003": 13.1604844763,
			"0.004": 12.1449978533,
			"0.005": 4.37377885767,
			"0.006": 6.47605191426,
			"0.007": 5.88273214939,
			"0.008": 6.53475371395,
			"0.009": 8.98019177843,
			"0.01": 11.8771380154,
			"0.011": 5.90173518702,
			"0.012": 1.39860012286,
			"0.013": 0.0311698223043,
			"0.014": 0.0,
			"0.015": 0.0,
			"0.016": 0.0,
			"0.017": 0.0,
			"0.018": 0.0,
			"0.019": 0.0,
			"0.02": 0.0,
			"0.021": 0.0,
			"0.022": 0.0,
			"0.023": 0.0,
			"0.024": 0.0,
			"0.025": 0.0
		}
	}
}
