{
	 "smiles": "CN(C)C1=CC=C(C=C1)N=NC1=CC=C(C=C1)[N+]([O-])=O", 
	 "Tm": 509.15, 
	 "num_atms": 34, 
	 "gaussian": { 
		 "optdone": 1, 
		 "sigma_profile": "yes", 
		 "theory": "DFT", 
		 "functional": "B3LYP", 
		 "basiset": "6-31G**", 
		 "properties": { 
			 "R2extent": 11749.8244, 
			 "electric_dipole_moment_norm": 11.0740898105, 
			 "electric_quadrupole_moment_norm": 14.5279275676, 
			 "total_energy": -911.23756247, 
			 "HOMO_LUMO_gap": 0.10669, 
			 "cosmo_polarized_energy": -14.18, 
			 "cosmo_cavitation_energy": 39.35, 
			 "cosmo_dispersion_energy": -28.68, 
			 "cosmo_repulsion_energy": 2.16, 
			 "cosmo_total_nonelectrostatic_energy": 12.83, 
			 "SMD_solvation_energy": 7.57 
		},
		"coords": [
			{
				"x": -1.0773936285,
				"y": 3.6048206199,
				"z": -5.2551014645,
				"element": "C" 
			},
			{
				"x": -1.1805338718,
				"y": 4.0036235535,
				"z": -3.8592440718,
				"element": "N" 
			},
			{
				"x": -1.3035942306,
				"y": 5.4143914306,
				"z": -3.5252954314,
				"element": "C" 
			},
			{
				"x": -1.1608772055,
				"y": 3.0573855691,
				"z": -2.862159835,
				"element": "C" 
			},
			{
				"x": -1.0401108559,
				"y": 1.671402108,
				"z": -3.1673901308,
				"element": "C" 
			},
			{
				"x": -1.0201911523,
				"y": 0.7190370766,
				"z": -2.1687125708,
				"element": "C" 
			},
			{
				"x": -1.1192834396,
				"y": 1.0932765227,
				"z": -0.8122016787,
				"element": "C" 
			},
			{
				"x": -1.2386201578,
				"y": 2.4591628942,
				"z": -0.5036630235,
				"element": "C" 
			},
			{
				"x": -1.2598391596,
				"y": 3.4246426849,
				"z": -1.4952851628,
				"element": "C" 
			},
			{
				"x": -1.1092987354,
				"y": 0.2134444311,
				"z": 0.2716038724,
				"element": "N" 
			},
			{
				"x": -1.0006860798,
				"y": -1.0167531314,
				"z": -0.021282298,
				"element": "N" 
			},
			{
				"x": -0.9941151416,
				"y": -1.8783920185,
				"z": 1.0989088823,
				"element": "C" 
			},
			{
				"x": -1.0974143177,
				"y": -1.4572031794,
				"z": 2.4396977769,
				"element": "C" 
			},
			{
				"x": -1.0804139304,
				"y": -2.3903261393,
				"z": 3.464566111,
				"element": "C" 
			},
			{
				"x": -0.9598503892,
				"y": -3.7473259908,
				"z": 3.1471104371,
				"element": "C" 
			},
			{
				"x": -0.8560820475,
				"y": -4.1902828276,
				"z": 1.8286318335,
				"element": "C" 
			},
			{
				"x": -0.8740566366,
				"y": -3.2476213422,
				"z": 0.8082295119,
				"element": "C" 
			},
			{
				"x": -0.942014718,
				"y": -4.7332477316,
				"z": 4.2323197997,
				"element": "N" 
			},
			{
				"x": -0.8351198958,
				"y": -5.9221498801,
				"z": 3.9261679347,
				"element": "O" 
			},
			{
				"x": -1.0349511918,
				"y": -4.3161478675,
				"z": 5.3881866083,
				"element": "O" 
			},
			{
				"x": -1.9038542541,
				"y": 2.9467266085,
				"z": -5.5533406779,
				"element": "H" 
			},
			{
				"x": -0.1343258563,
				"y": 3.0821955235,
				"z": -5.4615538497,
				"element": "H" 
			},
			{
				"x": -1.1128530067,
				"y": 4.4939257733,
				"z": -5.8847983774,
				"element": "H" 
			},
			{
				"x": -0.4694042699,
				"y": 5.7589638597,
				"z": -2.9001575094,
				"element": "H" 
			},
			{
				"x": -2.2389573987,
				"y": 5.6259496639,
				"z": -2.9907934172,
				"element": "H" 
			},
			{
				"x": -1.3007965419,
				"y": 6.0021816837,
				"z": -4.4432922817,
				"element": "H" 
			},
			{
				"x": -0.9617836086,
				"y": 1.3483098072,
				"z": -4.1980745966,
				"element": "H" 
			},
			{
				"x": -0.9278572576,
				"y": -0.3336666096,
				"z": -2.410992279,
				"element": "H" 
			},
			{
				"x": -1.3144682989,
				"y": 2.7409814521,
				"z": 0.5420382315,
				"element": "H" 
			},
			{
				"x": -1.3532087573,
				"y": 4.4654352147,
				"z": -1.2128143452,
				"element": "H" 
			},
			{
				"x": -1.1894211405,
				"y": -0.3979839655,
				"z": 2.6470808392,
				"element": "H" 
			},
			{
				"x": -1.1579639883,
				"y": -2.0967244613,
				"z": 4.5040718362,
				"element": "H" 
			},
			{
				"x": -0.764418556,
				"y": -5.2502782836,
				"z": 1.6285914671,
				"element": "H" 
			},
			{
				"x": -0.7961402799,
				"y": -3.5455530489,
				"z": -0.2319521402,
				"element": "H" 
			}
		],
		 "valence_orbital": [ 
			{
				"type": "occ",
				"energy": -0.26797,
				"method": "rhf"
			},
			{
				"type": "occ",
				"energy": -0.26423,
				"method": "rhf"
			},
			{
				"type": "occ",
				"energy": -0.26118,
				"method": "rhf"
			},
			{
				"type": "occ",
				"energy": -0.22732,
				"method": "rhf"
			},
			{
				"type": "occ",
				"energy": -0.20279,
				"method": "rhf"
			},
			{
				"type": "unocc",
				"energy": -0.0961,
				"method": "rhf"
			},
			{
				"type": "unocc",
				"energy": -0.05461,
				"method": "rhf"
			},
			{
				"type": "unocc",
				"energy": -0.01455,
				"method": "rhf"
			},
			{
				"type": "unocc",
				"energy": -0.0097,
				"method": "rhf"
			},
			{
				"type": "unocc",
				"energy": 0.02031,
				"method": "rhf"
			}
		],
		"cosmo_sigma_profile": { 
			"-0.025": 0.0,
			"-0.024": 0.0,
			"-0.023": 0.0,
			"-0.022": 0.0,
			"-0.021": 0.0,
			"-0.02": 0.0,
			"-0.019": 0.0,
			"-0.018": 0.0,
			"-0.017": 0.0,
			"-0.016": 0.0,
			"-0.015": 0.0,
			"-0.014": 0.0,
			"-0.013": 0.0,
			"-0.012": 0.0,
			"-0.011": 0.0,
			"-0.01": 0.0,
			"-0.009": 0.0,
			"-0.008": 1.4862951962,
			"-0.007": 7.11929875678,
			"-0.006": 17.0759986687,
			"-0.005": 29.055718899,
			"-0.004": 24.2993197905,
			"-0.003": 27.2175738101,
			"-0.002": 26.4496565651,
			"-0.001": 20.1965033663,
			"0.0": 17.5372455716,
			"0.001": 27.7899605735,
			"0.002": 31.7368114014,
			"0.003": 20.5416379268,
			"0.004": 17.8079756729,
			"0.005": 9.05009176119,
			"0.006": 6.21387778396,
			"0.007": 9.47380554248,
			"0.008": 11.5167727139,
			"0.009": 6.21501679157,
			"0.01": 3.37171237018,
			"0.011": 0.727064150753,
			"0.012": 0.0,
			"0.013": 0.0,
			"0.014": 0.0,
			"0.015": 0.0,
			"0.016": 0.0,
			"0.017": 0.0,
			"0.018": 0.0,
			"0.019": 0.0,
			"0.02": 0.0,
			"0.021": 0.0,
			"0.022": 0.0,
			"0.023": 0.0,
			"0.024": 0.0,
			"0.025": 0.0
		}
	}
}
