{
	 "smiles": "CCCCC(=O)C1=CC=C(O)C=C1", 
	 "Tm": 336.65, 
	 "num_atms": 27, 
	 "gaussian": { 
		 "optdone": 1, 
		 "sigma_profile": "yes", 
		 "theory": "DFT", 
		 "functional": "B3LYP", 
		 "basiset": "6-31G**", 
		 "properties": { 
			 "R2extent": 4371.4431, 
			 "electric_dipole_moment_norm": 4.13954077888, 
			 "electric_quadrupole_moment_norm": 8.10765344597, 
			 "total_energy": -578.069162604, 
			 "HOMO_LUMO_gap": 0.18773, 
			 "cosmo_polarized_energy": -12.69, 
			 "cosmo_cavitation_energy": 30.21, 
			 "cosmo_dispersion_energy": -21.92, 
			 "cosmo_repulsion_energy": 1.75, 
			 "cosmo_total_nonelectrostatic_energy": 10.04, 
			 "SMD_solvation_energy": 5.7 
		},
		"coords": [
			{
				"x": -4.1728025509,
				"y": -1.1577218858,
				"z": 2.9193484117,
				"element": "C" 
			},
			{
				"x": -2.7609033321,
				"y": -1.1703958541,
				"z": 2.3257131192,
				"element": "C" 
			},
			{
				"x": -2.6164304088,
				"y": -0.2352013414,
				"z": 1.1173623323,
				"element": "C" 
			},
			{
				"x": -1.2170633365,
				"y": -0.2397288142,
				"z": 0.4922415169,
				"element": "C" 
			},
			{
				"x": -0.1629575092,
				"y": 0.4893743156,
				"z": 1.3257976048,
				"element": "C" 
			},
			{
				"x": -0.4778940357,
				"y": 1.1002628419,
				"z": 2.3393563027,
				"element": "O" 
			},
			{
				"x": 1.2598224372,
				"y": 0.4627690642,
				"z": 0.8700129725,
				"element": "C" 
			},
			{
				"x": 2.2209939632,
				"y": 1.1354120073,
				"z": 1.6476761674,
				"element": "C" 
			},
			{
				"x": 3.5575090365,
				"y": 1.1547482956,
				"z": 1.2828734519,
				"element": "C" 
			},
			{
				"x": 3.9662745286,
				"y": 0.4940867012,
				"z": 0.1147080932,
				"element": "C" 
			},
			{
				"x": 5.2890634133,
				"y": 0.542398657,
				"z": -0.200301364,
				"element": "O" 
			},
			{
				"x": 3.0254573734,
				"y": -0.1793284581,
				"z": -0.6743367476,
				"element": "C" 
			},
			{
				"x": 1.6858876126,
				"y": -0.1923969932,
				"z": -0.2951653594,
				"element": "C" 
			},
			{
				"x": -4.2527137769,
				"y": -1.8357966006,
				"z": 3.7754106944,
				"element": "H" 
			},
			{
				"x": -4.9202109001,
				"y": -1.4673628943,
				"z": 2.1791648784,
				"element": "H" 
			},
			{
				"x": -4.4457000531,
				"y": -0.1541159271,
				"z": 3.2644324899,
				"element": "H" 
			},
			{
				"x": -2.5003096036,
				"y": -2.1948238908,
				"z": 2.0233751331,
				"element": "H" 
			},
			{
				"x": -2.0374173207,
				"y": -0.8747123893,
				"z": 3.0927691244,
				"element": "H" 
			},
			{
				"x": -3.3434725758,
				"y": -0.5250986631,
				"z": 0.3474803382,
				"element": "H" 
			},
			{
				"x": -2.8637672805,
				"y": 0.7881214016,
				"z": 1.4210772416,
				"element": "H" 
			},
			{
				"x": -0.880232617,
				"y": -1.2695954181,
				"z": 0.3113300489,
				"element": "H" 
			},
			{
				"x": -1.2387835153,
				"y": 0.2394997204,
				"z": -0.49693504,
				"element": "H" 
			},
			{
				"x": 1.8832016509,
				"y": 1.6413206143,
				"z": 2.5459269307,
				"element": "H" 
			},
			{
				"x": 4.3024269921,
				"y": 1.6707400085,
				"z": 1.8795165491,
				"element": "H" 
			},
			{
				"x": 5.442452948,
				"y": 0.0543801847,
				"z": -1.0201417265,
				"element": "H" 
			},
			{
				"x": 3.3424955977,
				"y": -0.6907995779,
				"z": -1.5807676869,
				"element": "H" 
			},
			{
				"x": 0.9740732624,
				"y": -0.7192351043,
				"z": -0.921925477,
				"element": "H" 
			}
		],
		 "valence_orbital": [ 
			{
				"type": "occ",
				"energy": -0.31897,
				"method": "rhf"
			},
			{
				"type": "occ",
				"energy": -0.31474,
				"method": "rhf"
			},
			{
				"type": "occ",
				"energy": -0.26286,
				"method": "rhf"
			},
			{
				"type": "occ",
				"energy": -0.24209,
				"method": "rhf"
			},
			{
				"type": "occ",
				"energy": -0.2331,
				"method": "rhf"
			},
			{
				"type": "unocc",
				"energy": -0.04537,
				"method": "rhf"
			},
			{
				"type": "unocc",
				"energy": -0.01126,
				"method": "rhf"
			},
			{
				"type": "unocc",
				"energy": 0.05011,
				"method": "rhf"
			},
			{
				"type": "unocc",
				"energy": 0.06004,
				"method": "rhf"
			},
			{
				"type": "unocc",
				"energy": 0.08896,
				"method": "rhf"
			}
		],
		"cosmo_sigma_profile": { 
			"-0.025": 0.0,
			"-0.024": 0.0,
			"-0.023": 0.0,
			"-0.022": 0.0,
			"-0.021": 0.0,
			"-0.02": 0.0,
			"-0.019": 0.0591350681958,
			"-0.018": 1.00355461368,
			"-0.017": 1.13212516159,
			"-0.016": 0.83482062288,
			"-0.015": 1.08525761282,
			"-0.014": 1.47332690465,
			"-0.013": 0.519678753083,
			"-0.012": 0.880385323092,
			"-0.011": 1.31901383969,
			"-0.01": 1.0052817956,
			"-0.009": 1.13725265705,
			"-0.008": 1.4700362724,
			"-0.007": 2.37675122192,
			"-0.006": 7.49918527065,
			"-0.005": 13.2986958684,
			"-0.004": 12.1081544063,
			"-0.003": 12.9813752047,
			"-0.002": 21.7316803985,
			"-0.001": 25.02514762,
			"0.0": 24.4198161552,
			"0.001": 25.3407294316,
			"0.002": 20.1341233609,
			"0.003": 14.8099727651,
			"0.004": 15.8224275494,
			"0.005": 4.5964298897,
			"0.006": 3.60196609914,
			"0.007": 2.74966203708,
			"0.008": 2.97134636337,
			"0.009": 3.77459273789,
			"0.01": 3.28372828121,
			"0.011": 3.58396845323,
			"0.012": 2.98866088027,
			"0.013": 2.321522477,
			"0.014": 0.104643916774,
			"0.015": 0.0,
			"0.016": 0.0,
			"0.017": 0.0,
			"0.018": 0.0,
			"0.019": 0.0,
			"0.02": 0.0,
			"0.021": 0.0,
			"0.022": 0.0,
			"0.023": 0.0,
			"0.024": 0.0,
			"0.025": 0.0
		}
	}
}
