{
	 "smiles": "CC1=CC=C(CC2=C3N=C(C)C=C(C)N3N=C2N)C=C1", 
	 "Tm": 451.15, 
	 "num_atms": 38, 
	 "gaussian": { 
		 "optdone": 1, 
		 "sigma_profile": "yes", 
		 "theory": "DFT", 
		 "functional": "B3LYP", 
		 "basiset": "6-31G**", 
		 "properties": { 
			 "R2extent": 7380.9876, 
			 "electric_dipole_moment_norm": 1.47016314061, 
			 "electric_quadrupole_moment_norm": 15.6284854497, 
			 "total_energy": -839.57255535, 
			 "HOMO_LUMO_gap": 0.16419, 
			 "cosmo_polarized_energy": -13.71, 
			 "cosmo_cavitation_energy": 41.26, 
			 "cosmo_dispersion_energy": -29.04, 
			 "cosmo_repulsion_energy": 2.27, 
			 "cosmo_total_nonelectrostatic_energy": 14.49, 
			 "SMD_solvation_energy": 4.65 
		},
		"coords": [
			{
				"x": -4.9974645577,
				"y": 1.7007386785,
				"z": 2.8633385031,
				"element": "C" 
			},
			{
				"x": -3.9147320077,
				"y": 0.8056146923,
				"z": 2.3071313258,
				"element": "C" 
			},
			{
				"x": -3.4094220383,
				"y": -0.270583594,
				"z": 3.0420817441,
				"element": "C" 
			},
			{
				"x": -2.395156001,
				"y": -1.0827734378,
				"z": 2.5262874928,
				"element": "C" 
			},
			{
				"x": -1.8541674929,
				"y": -0.846383828,
				"z": 1.2586679737,
				"element": "C" 
			},
			{
				"x": -0.7715639123,
				"y": -1.7524073587,
				"z": 0.6897868534,
				"element": "C" 
			},
			{
				"x": 0.4281469883,
				"y": -1.0463677127,
				"z": 0.124390351,
				"element": "C" 
			},
			{
				"x": 1.0119196224,
				"y": -1.2732823348,
				"z": -1.1201054579,
				"element": "C" 
			},
			{
				"x": 0.6800778273,
				"y": -2.0920699884,
				"z": -2.139920975,
				"element": "N" 
			},
			{
				"x": 1.4579778917,
				"y": -2.0779094269,
				"z": -3.2121467533,
				"element": "C" 
			},
			{
				"x": 1.0867535005,
				"y": -2.9900656803,
				"z": -4.3534205079,
				"element": "C" 
			},
			{
				"x": 2.6077859993,
				"y": -1.2431867448,
				"z": -3.3117629604,
				"element": "C" 
			},
			{
				"x": 2.9503460011,
				"y": -0.4061586799,
				"z": -2.2709104744,
				"element": "C" 
			},
			{
				"x": 4.1225617686,
				"y": 0.5203305304,
				"z": -2.237443005,
				"element": "C" 
			},
			{
				"x": 2.1390663866,
				"y": -0.4357109744,
				"z": -1.1805631855,
				"element": "N" 
			},
			{
				"x": 2.2990306193,
				"y": 0.3052157739,
				"z": -0.0533032676,
				"element": "N" 
			},
			{
				"x": 1.2628490913,
				"y": -0.0672862521,
				"z": 0.7222540589,
				"element": "C" 
			},
			{
				"x": 1.080268701,
				"y": 0.5431627122,
				"z": 1.942584852,
				"element": "N" 
			},
			{
				"x": -2.3590702733,
				"y": 0.2347603484,
				"z": 0.5211601212,
				"element": "C" 
			},
			{
				"x": -3.3704164412,
				"y": 1.0408603173,
				"z": 1.0345655567,
				"element": "C" 
			},
			{
				"x": -4.6046682159,
				"y": 2.6931325554,
				"z": 3.1170406647,
				"element": "H" 
			},
			{
				"x": -5.43779398,
				"y": 1.278911493,
				"z": 3.7713901291,
				"element": "H" 
			},
			{
				"x": -5.8042587603,
				"y": 1.8520104303,
				"z": 2.1377313156,
				"element": "H" 
			},
			{
				"x": -3.811957421,
				"y": -0.4798668649,
				"z": 4.030553732,
				"element": "H" 
			},
			{
				"x": -2.0279028594,
				"y": -1.9196447804,
				"z": 3.1171163118,
				"element": "H" 
			},
			{
				"x": -0.4653615146,
				"y": -2.4587136415,
				"z": 1.4751147994,
				"element": "H" 
			},
			{
				"x": -1.1916682967,
				"y": -2.3696866284,
				"z": -0.1142923744,
				"element": "H" 
			},
			{
				"x": 0.1855181608,
				"y": -3.5496905777,
				"z": -4.0992132728,
				"element": "H" 
			},
			{
				"x": 0.9027948254,
				"y": -2.41911415,
				"z": -5.2711438921,
				"element": "H" 
			},
			{
				"x": 1.8946985886,
				"y": -3.6983372685,
				"z": -4.5716301843,
				"element": "H" 
			},
			{
				"x": 3.2223636749,
				"y": -1.2572040769,
				"z": -4.2044708601,
				"element": "H" 
			},
			{
				"x": 4.690015411,
				"y": 0.4530674272,
				"z": -3.1672651166,
				"element": "H" 
			},
			{
				"x": 3.7891841352,
				"y": 1.5521992914,
				"z": -2.0861575781,
				"element": "H" 
			},
			{
				"x": 4.7762469367,
				"y": 0.2792772758,
				"z": -1.3927590795,
				"element": "H" 
			},
			{
				"x": 1.9046661467,
				"y": 0.9672151619,
				"z": 2.341784693,
				"element": "H" 
			},
			{
				"x": 0.4764234082,
				"y": 0.0737389234,
				"z": 2.5991671439,
				"element": "H" 
			},
			{
				"x": -1.9468033945,
				"y": 0.4443345583,
				"z": -0.4621769237,
				"element": "H" 
			},
			{
				"x": -3.7454885184,
				"y": 1.8707738313,
				"z": 0.4395382468,
				"element": "H" 
			}
		],
		 "valence_orbital": [ 
			{
				"type": "occ",
				"energy": -0.25177,
				"method": "rhf"
			},
			{
				"type": "occ",
				"energy": -0.24052,
				"method": "rhf"
			},
			{
				"type": "occ",
				"energy": -0.22667,
				"method": "rhf"
			},
			{
				"type": "occ",
				"energy": -0.20849,
				"method": "rhf"
			},
			{
				"type": "occ",
				"energy": -0.19143,
				"method": "rhf"
			},
			{
				"type": "unocc",
				"energy": -0.02724,
				"method": "rhf"
			},
			{
				"type": "unocc",
				"energy": 0.00314,
				"method": "rhf"
			},
			{
				"type": "unocc",
				"energy": 0.00849,
				"method": "rhf"
			},
			{
				"type": "unocc",
				"energy": 0.01247,
				"method": "rhf"
			},
			{
				"type": "unocc",
				"energy": 0.08233,
				"method": "rhf"
			}
		],
		"cosmo_sigma_profile": { 
			"-0.025": 0.0,
			"-0.024": 0.0,
			"-0.023": 0.0,
			"-0.022": 0.0,
			"-0.021": 0.0,
			"-0.02": 0.0,
			"-0.019": 0.0,
			"-0.018": 0.0,
			"-0.017": 0.0,
			"-0.016": 0.0,
			"-0.015": 0.0,
			"-0.014": 0.0,
			"-0.013": 0.472159672709,
			"-0.012": 1.10478622462,
			"-0.011": 1.88975189955,
			"-0.01": 1.30663073078,
			"-0.009": 2.93594451558,
			"-0.008": 1.95910639632,
			"-0.007": 3.45360830315,
			"-0.006": 7.75906976003,
			"-0.005": 18.4604724541,
			"-0.004": 29.6992448694,
			"-0.003": 32.7250929479,
			"-0.002": 31.5866660241,
			"-0.001": 36.2420156833,
			"0.0": 32.5048352033,
			"0.001": 22.4006020641,
			"0.002": 18.0182637064,
			"0.003": 17.3204606827,
			"0.004": 14.7509164189,
			"0.005": 11.2131300046,
			"0.006": 10.7793547579,
			"0.007": 7.72735905391,
			"0.008": 5.52511697995,
			"0.009": 3.83708146804,
			"0.01": 3.1549604111,
			"0.011": 3.02810799625,
			"0.012": 2.87508082263,
			"0.013": 2.48544563276,
			"0.014": 1.00137137419,
			"0.015": 0.339677008781,
			"0.016": 0.0,
			"0.017": 0.0,
			"0.018": 0.0,
			"0.019": 0.0,
			"0.02": 0.0,
			"0.021": 0.0,
			"0.022": 0.0,
			"0.023": 0.0,
			"0.024": 0.0,
			"0.025": 0.0
		}
	}
}
