{
	 "smiles": "OC(=O)C1=CNC2=C1C=CC(F)=C2", 
	 "Tm": 502.15, 
	 "num_atms": 19, 
	 "gaussian": { 
		 "optdone": 1, 
		 "sigma_profile": "yes", 
		 "theory": "DFT", 
		 "functional": "B3LYP", 
		 "basiset": "6-31G**", 
		 "properties": { 
			 "R2extent": 2570.9831, 
			 "electric_dipole_moment_norm": 4.12580393863, 
			 "electric_quadrupole_moment_norm": 9.12820893987, 
			 "total_energy": -651.632115685, 
			 "HOMO_LUMO_gap": 0.18246, 
			 "cosmo_polarized_energy": -15.27, 
			 "cosmo_cavitation_energy": 24.5, 
			 "cosmo_dispersion_energy": -18.18, 
			 "cosmo_repulsion_energy": 1.4, 
			 "cosmo_total_nonelectrostatic_energy": 7.72, 
			 "SMD_solvation_energy": 5.77 
		},
		"coords": [
			{
				"x": -3.7186005079,
				"y": 0.4672398175,
				"z": 1.2287953577,
				"element": "O" 
			},
			{
				"x": -2.8198256663,
				"y": 0.3135859642,
				"z": 0.2152911293,
				"element": "C" 
			},
			{
				"x": -3.1756150337,
				"y": 0.116230775,
				"z": -0.9334483627,
				"element": "O" 
			},
			{
				"x": -1.4366899067,
				"y": 0.4121101931,
				"z": 0.6653851753,
				"element": "C" 
			},
			{
				"x": -1.0021030666,
				"y": 0.6342454235,
				"z": 1.955347622,
				"element": "C" 
			},
			{
				"x": 0.3681922833,
				"y": 0.6608456987,
				"z": 1.974464411,
				"element": "N" 
			},
			{
				"x": 0.8583870762,
				"y": 0.4560483259,
				"z": 0.6938939135,
				"element": "C" 
			},
			{
				"x": -0.2588919974,
				"y": 0.2941387854,
				"z": -0.1641103723,
				"element": "C" 
			},
			{
				"x": -0.0446717565,
				"y": 0.0698895004,
				"z": -1.5335789575,
				"element": "C" 
			},
			{
				"x": 1.2594907251,
				"y": 0.0132405395,
				"z": -2.0080941886,
				"element": "C" 
			},
			{
				"x": 2.3353182365,
				"y": 0.1791353091,
				"z": -1.1220663055,
				"element": "C" 
			},
			{
				"x": 3.5895444577,
				"y": 0.1173670389,
				"z": -1.6225930636,
				"element": "F" 
			},
			{
				"x": 2.1786937868,
				"y": 0.4024236321,
				"z": 0.2357879609,
				"element": "C" 
			},
			{
				"x": -4.5923822822,
				"y": 0.3832519223,
				"z": 0.8136003701,
				"element": "H" 
			},
			{
				"x": -1.5803504944,
				"y": 0.7743566477,
				"z": 2.8562895976,
				"element": "H" 
			},
			{
				"x": 0.9319351354,
				"y": 0.8072830046,
				"z": 2.79671327,
				"element": "H" 
			},
			{
				"x": -0.8929487776,
				"y": -0.0548890293,
				"z": -2.1963312362,
				"element": "H" 
			},
			{
				"x": 1.4737143367,
				"y": -0.1577119699,
				"z": -3.0573136933,
				"element": "H" 
			},
			{
				"x": 3.0419034515,
				"y": 0.5245084214,
				"z": 0.8804673724,
				"element": "H" 
			}
		],
		 "valence_orbital": [ 
			{
				"type": "occ",
				"energy": -0.3126,
				"method": "rhf"
			},
			{
				"type": "occ",
				"energy": -0.28468,
				"method": "rhf"
			},
			{
				"type": "occ",
				"energy": -0.26998,
				"method": "rhf"
			},
			{
				"type": "occ",
				"energy": -0.23599,
				"method": "rhf"
			},
			{
				"type": "occ",
				"energy": -0.21715,
				"method": "rhf"
			},
			{
				"type": "unocc",
				"energy": -0.03469,
				"method": "rhf"
			},
			{
				"type": "unocc",
				"energy": 0.00195,
				"method": "rhf"
			},
			{
				"type": "unocc",
				"energy": 0.0181,
				"method": "rhf"
			},
			{
				"type": "unocc",
				"energy": 0.06472,
				"method": "rhf"
			},
			{
				"type": "unocc",
				"energy": 0.08544,
				"method": "rhf"
			}
		],
		"cosmo_sigma_profile": { 
			"-0.025": 0.0,
			"-0.024": 0.0,
			"-0.023": 0.0,
			"-0.022": 0.0,
			"-0.021": 0.0,
			"-0.02": 0.0,
			"-0.019": 0.0,
			"-0.018": 0.381007484372,
			"-0.017": 1.90991776781,
			"-0.016": 2.31420120605,
			"-0.015": 2.40960631444,
			"-0.014": 2.18880387706,
			"-0.013": 1.72411208083,
			"-0.012": 1.7450438771,
			"-0.011": 2.56018088596,
			"-0.01": 2.97831019463,
			"-0.009": 3.47601205617,
			"-0.008": 4.44517586249,
			"-0.007": 4.87995700902,
			"-0.006": 5.41911809486,
			"-0.005": 6.48780546529,
			"-0.004": 5.88644354106,
			"-0.003": 7.35033736755,
			"-0.002": 6.71279253552,
			"-0.001": 8.00085384006,
			"0.0": 10.6324468589,
			"0.001": 15.0367606967,
			"0.002": 22.1193127953,
			"0.003": 22.4508860523,
			"0.004": 21.4797588586,
			"0.005": 12.7884667147,
			"0.006": 3.67074857433,
			"0.007": 2.61143058392,
			"0.008": 3.40742237905,
			"0.009": 2.04015468152,
			"0.01": 1.66348319878,
			"0.011": 2.52420367113,
			"0.012": 4.197592308,
			"0.013": 1.45027004345,
			"0.014": 0.0,
			"0.015": 0.0,
			"0.016": 0.0,
			"0.017": 0.0,
			"0.018": 0.0,
			"0.019": 0.0,
			"0.02": 0.0,
			"0.021": 0.0,
			"0.022": 0.0,
			"0.023": 0.0,
			"0.024": 0.0,
			"0.025": 0.0
		}
	}
}
