{
	 "smiles": "ClC1=CC=CC(=C1)C(=O)CBr", 
	 "Tm": 313.15, 
	 "num_atms": 17, 
	 "gaussian": { 
		 "optdone": 1, 
		 "sigma_profile": "yes", 
		 "theory": "DFT", 
		 "functional": "B3LYP", 
		 "basiset": "6-31G**", 
		 "properties": { 
			 "R2extent": 4808.1931, 
			 "electric_dipole_moment_norm": 4.57416460788, 
			 "electric_quadrupole_moment_norm": 5.75522210345, 
			 "total_energy": -3415.28289704, 
			 "HOMO_LUMO_gap": 0.18792, 
			 "cosmo_polarized_energy": -11.92, 
			 "cosmo_cavitation_energy": 25.8, 
			 "cosmo_dispersion_energy": -19.51, 
			 "cosmo_repulsion_energy": 1.57, 
			 "cosmo_total_nonelectrostatic_energy": 7.86, 
			 "SMD_solvation_energy": 3.45 
		},
		"coords": [
			{
				"x": 2.2057510024,
				"y": 3.0984542613,
				"z": -1.2130048035,
				"element": "Cl" 
			},
			{
				"x": 1.6060814343,
				"y": 1.6893106333,
				"z": -0.3548771297,
				"element": "C" 
			},
			{
				"x": 1.9578168965,
				"y": 1.5054122912,
				"z": 0.9849155472,
				"element": "C" 
			},
			{
				"x": 1.4793474217,
				"y": 0.3846627797,
				"z": 1.6630788612,
				"element": "C" 
			},
			{
				"x": 0.6613856918,
				"y": -0.5398856185,
				"z": 1.0139364321,
				"element": "C" 
			},
			{
				"x": 0.3132436962,
				"y": -0.347420471,
				"z": -0.3312890258,
				"element": "C" 
			},
			{
				"x": 0.7925331824,
				"y": 0.7791734698,
				"z": -1.0176735747,
				"element": "C" 
			},
			{
				"x": -0.5621867446,
				"y": -1.2932318316,
				"z": -1.1058359505,
				"element": "C" 
			},
			{
				"x": -0.8372354874,
				"y": -1.0846394319,
				"z": -2.2700855958,
				"element": "O" 
			},
			{
				"x": -1.0785279966,
				"y": -2.5181911751,
				"z": -0.3481658665,
				"element": "C" 
			},
			{
				"x": -2.2026973043,
				"y": -3.6825515225,
				"z": -1.4350432591,
				"element": "Br" 
			},
			{
				"x": 2.5942026018,
				"y": 2.228685308,
				"z": 1.4827111935,
				"element": "H" 
			},
			{
				"x": 1.7480068845,
				"y": 0.234510765,
				"z": 2.704105777,
				"element": "H" 
			},
			{
				"x": 0.3023866574,
				"y": -1.4031771989,
				"z": 1.5637003818,
				"element": "H" 
			},
			{
				"x": 0.5170342173,
				"y": 0.9174385032,
				"z": -2.0565185513,
				"element": "H" 
			},
			{
				"x": -0.244699203,
				"y": -3.1248801513,
				"z": 0.0104406452,
				"element": "H" 
			},
			{
				"x": -1.6763429503,
				"y": -2.2110706107,
				"z": 0.5122049188,
				"element": "H" 
			}
		],
		 "valence_orbital": [ 
			{
				"type": "occ",
				"energy": -0.28355,
				"method": "rhf"
			},
			{
				"type": "occ",
				"energy": -0.27908,
				"method": "rhf"
			},
			{
				"type": "occ",
				"energy": -0.2776,
				"method": "rhf"
			},
			{
				"type": "occ",
				"energy": -0.27356,
				"method": "rhf"
			},
			{
				"type": "occ",
				"energy": -0.2654,
				"method": "rhf"
			},
			{
				"type": "unocc",
				"energy": -0.07748,
				"method": "rhf"
			},
			{
				"type": "unocc",
				"energy": -0.03174,
				"method": "rhf"
			},
			{
				"type": "unocc",
				"energy": -0.0061,
				"method": "rhf"
			},
			{
				"type": "unocc",
				"energy": 0.0166,
				"method": "rhf"
			},
			{
				"type": "unocc",
				"energy": 0.02147,
				"method": "rhf"
			}
		],
		"cosmo_sigma_profile": { 
			"-0.025": 0.0,
			"-0.024": 0.0,
			"-0.023": 0.0,
			"-0.022": 0.0,
			"-0.021": 0.0,
			"-0.02": 0.0,
			"-0.019": 0.0,
			"-0.018": 0.0,
			"-0.017": 0.0,
			"-0.016": 0.0,
			"-0.015": 0.0,
			"-0.014": 0.0,
			"-0.013": 0.0,
			"-0.012": 0.0,
			"-0.011": 0.0,
			"-0.01": 3.24736950273,
			"-0.009": 8.60508105769,
			"-0.008": 7.38378568747,
			"-0.007": 9.45070638041,
			"-0.006": 9.81502937121,
			"-0.005": 8.16677498272,
			"-0.004": 8.42299242023,
			"-0.003": 9.01070423901,
			"-0.002": 10.7763691483,
			"-0.001": 12.9414176595,
			"0.0": 17.8702014915,
			"0.001": 21.4997442322,
			"0.002": 19.8494024883,
			"0.003": 13.2991827576,
			"0.004": 16.3292431348,
			"0.005": 12.5829188658,
			"0.006": 6.69592072687,
			"0.007": 3.05443592432,
			"0.008": 2.45954605662,
			"0.009": 2.05873744929,
			"0.01": 3.7396579939,
			"0.011": 3.34032093575,
			"0.012": 1.75738346959,
			"0.013": 0.310121158129,
			"0.014": 0.0,
			"0.015": 0.0,
			"0.016": 0.0,
			"0.017": 0.0,
			"0.018": 0.0,
			"0.019": 0.0,
			"0.02": 0.0,
			"0.021": 0.0,
			"0.022": 0.0,
			"0.023": 0.0,
			"0.024": 0.0,
			"0.025": 0.0
		}
	}
}
