{
	 "smiles": "CC1=CC2=C(C)C=C(C)C=C2C=C1", 
	 "Tm": 285.15, 
	 "num_atms": 27, 
	 "gaussian": { 
		 "optdone": 1, 
		 "sigma_profile": "yes", 
		 "theory": "DFT", 
		 "functional": "B3LYP", 
		 "basiset": "6-31G**", 
		 "properties": { 
			 "R2extent": 2772.0557, 
			 "electric_dipole_moment_norm": 0.290807530852, 
			 "electric_quadrupole_moment_norm": 7.05720260089, 
			 "total_energy": -503.856387527, 
			 "HOMO_LUMO_gap": 0.17463, 
			 "cosmo_polarized_energy": -4.57, 
			 "cosmo_cavitation_energy": 29.25, 
			 "cosmo_dispersion_energy": -21.38, 
			 "cosmo_repulsion_energy": 1.67, 
			 "cosmo_total_nonelectrostatic_energy": 9.54, 
			 "SMD_solvation_energy": 4.79 
		},
		"coords": [
			{
				"x": -1.8701715889,
				"y": -3.8149925165,
				"z": 0.2187995045,
				"element": "C" 
			},
			{
				"x": -1.4028920584,
				"y": -2.4707877965,
				"z": -0.285260656,
				"element": "C" 
			},
			{
				"x": -0.5842109941,
				"y": -1.6576094393,
				"z": 0.4747831637,
				"element": "C" 
			},
			{
				"x": -0.1364855993,
				"y": -0.3897058124,
				"z": 0.0129665476,
				"element": "C" 
			},
			{
				"x": 0.7132276777,
				"y": 0.4638493335,
				"z": 0.7918531766,
				"element": "C" 
			},
			{
				"x": 1.1791947294,
				"y": 0.0445067449,
				"z": 2.1655855675,
				"element": "C" 
			},
			{
				"x": 1.1012067102,
				"y": 1.6790767193,
				"z": 0.267123816,
				"element": "C" 
			},
			{
				"x": 0.6950271779,
				"y": 2.1288600301,
				"z": -1.019578874,
				"element": "C" 
			},
			{
				"x": 1.161827378,
				"y": 3.4726679035,
				"z": -1.5241669604,
				"element": "C" 
			},
			{
				"x": -0.1209902019,
				"y": 1.3126813208,
				"z": -1.7710568272,
				"element": "C" 
			},
			{
				"x": -0.5530001182,
				"y": 0.0501890385,
				"z": -1.283767823,
				"element": "C" 
			},
			{
				"x": -1.3946514279,
				"y": -0.7979140777,
				"z": -2.0522443061,
				"element": "C" 
			},
			{
				"x": -1.8066003258,
				"y": -2.0178468299,
				"z": -1.5703124646,
				"element": "C" 
			},
			{
				"x": -1.4806151135,
				"y": -4.0257426582,
				"z": 1.2185561154,
				"element": "H" 
			},
			{
				"x": -2.9646542591,
				"y": -3.8640101948,
				"z": 0.2681020143,
				"element": "H" 
			},
			{
				"x": -1.5451747242,
				"y": -4.6249459402,
				"z": -0.4453477386,
				"element": "H" 
			},
			{
				"x": -0.2736000153,
				"y": -2.0001308847,
				"z": 1.4572930923,
				"element": "H" 
			},
			{
				"x": 1.7553839672,
				"y": -0.8879071887,
				"z": 2.1318025617,
				"element": "H" 
			},
			{
				"x": 0.3360335868,
				"y": -0.1256597607,
				"z": 2.8457874205,
				"element": "H" 
			},
			{
				"x": 1.8160672447,
				"y": 0.8129534147,
				"z": 2.6112729725,
				"element": "H" 
			},
			{
				"x": 1.7461507297,
				"y": 2.3245463408,
				"z": 0.8605785223,
				"element": "H" 
			},
			{
				"x": 2.2563072735,
				"y": 3.522031826,
				"z": -1.5732575895,
				"element": "H" 
			},
			{
				"x": 0.7719964686,
				"y": 3.6817166082,
				"z": -2.5241378153,
				"element": "H" 
			},
			{
				"x": 0.8361866987,
				"y": 4.2828551419,
				"z": -0.8606192293,
				"element": "H" 
			},
			{
				"x": -0.4485701133,
				"y": 1.6289228004,
				"z": -2.7591299817,
				"element": "H" 
			},
			{
				"x": -1.7110330686,
				"y": -0.4635628875,
				"z": -3.0373777955,
				"element": "H" 
			},
			{
				"x": -2.450960034,
				"y": -2.6502412354,
				"z": -2.1766464139,
				"element": "H" 
			}
		],
		 "valence_orbital": [ 
			{
				"type": "occ",
				"energy": -0.31646,
				"method": "rhf"
			},
			{
				"type": "occ",
				"energy": -0.30134,
				"method": "rhf"
			},
			{
				"type": "occ",
				"energy": -0.26699,
				"method": "rhf"
			},
			{
				"type": "occ",
				"energy": -0.22704,
				"method": "rhf"
			},
			{
				"type": "occ",
				"energy": -0.20221,
				"method": "rhf"
			},
			{
				"type": "unocc",
				"energy": -0.02758,
				"method": "rhf"
			},
			{
				"type": "unocc",
				"energy": -0.00233,
				"method": "rhf"
			},
			{
				"type": "unocc",
				"energy": 0.04401,
				"method": "rhf"
			},
			{
				"type": "unocc",
				"energy": 0.09349,
				"method": "rhf"
			},
			{
				"type": "unocc",
				"energy": 0.10051,
				"method": "rhf"
			}
		],
		"cosmo_sigma_profile": { 
			"-0.025": 0.0,
			"-0.024": 0.0,
			"-0.023": 0.0,
			"-0.022": 0.0,
			"-0.021": 0.0,
			"-0.02": 0.0,
			"-0.019": 0.0,
			"-0.018": 0.0,
			"-0.017": 0.0,
			"-0.016": 0.0,
			"-0.015": 0.0,
			"-0.014": 0.0,
			"-0.013": 0.0,
			"-0.012": 0.0,
			"-0.011": 0.0,
			"-0.01": 0.0,
			"-0.009": 0.0,
			"-0.008": 0.0,
			"-0.007": 0.0,
			"-0.006": 0.457448813495,
			"-0.005": 8.15436333447,
			"-0.004": 26.8040826307,
			"-0.003": 27.6304945266,
			"-0.002": 27.7533290262,
			"-0.001": 23.2266722573,
			"0.0": 28.3338739577,
			"0.001": 19.847098533,
			"0.002": 11.4323634919,
			"0.003": 10.2718086187,
			"0.004": 12.7027770943,
			"0.005": 21.158236487,
			"0.006": 13.2743572576,
			"0.007": 0.0805594330563,
			"0.008": 0.0,
			"0.009": 0.0,
			"0.01": 0.0,
			"0.011": 0.0,
			"0.012": 0.0,
			"0.013": 0.0,
			"0.014": 0.0,
			"0.015": 0.0,
			"0.016": 0.0,
			"0.017": 0.0,
			"0.018": 0.0,
			"0.019": 0.0,
			"0.02": 0.0,
			"0.021": 0.0,
			"0.022": 0.0,
			"0.023": 0.0,
			"0.024": 0.0,
			"0.025": 0.0
		}
	}
}
