{
	 "smiles": "CC1CCC2=C(C1)SC1=C2C(Cl)=NC(C)=N1", 
	 "Tm": 363.15, 
	 "num_atms": 29, 
	 "gaussian": { 
		 "optdone": 1, 
		 "sigma_profile": "yes", 
		 "theory": "DFT", 
		 "functional": "B3LYP", 
		 "basiset": "6-31G**", 
		 "properties": { 
			 "R2extent": 5008.4262, 
			 "electric_dipole_moment_norm": 2.93951884158, 
			 "electric_quadrupole_moment_norm": 7.84729522574, 
			 "total_energy": -1433.02707282, 
			 "HOMO_LUMO_gap": 0.1813, 
			 "cosmo_polarized_energy": -6.43, 
			 "cosmo_cavitation_energy": 33.99, 
			 "cosmo_dispersion_energy": -25.75, 
			 "cosmo_repulsion_energy": 1.96, 
			 "cosmo_total_nonelectrostatic_energy": 10.2, 
			 "SMD_solvation_energy": 1.37 
		},
		"coords": [
			{
				"x": 3.0387340673,
				"y": 0.9782501208,
				"z": -3.7818996671,
				"element": "C" 
			},
			{
				"x": 2.1209020825,
				"y": 0.8671831788,
				"z": -2.5604371534,
				"element": "C" 
			},
			{
				"x": 0.6353958002,
				"y": 0.9819727581,
				"z": -2.9369935343,
				"element": "C" 
			},
			{
				"x": -0.2839310476,
				"y": 1.0152110716,
				"z": -1.7044995829,
				"element": "C" 
			},
			{
				"x": 0.105535479,
				"y": -0.0299462239,
				"z": -0.6833252168,
				"element": "C" 
			},
			{
				"x": 1.3043986082,
				"y": -0.6814602412,
				"z": -0.7570777833,
				"element": "C" 
			},
			{
				"x": 2.3588503312,
				"y": -0.4553812936,
				"z": -1.8044589581,
				"element": "C" 
			},
			{
				"x": 1.5478504469,
				"y": -1.8701742588,
				"z": 0.5206252668,
				"element": "S" 
			},
			{
				"x": -0.0168688925,
				"y": -1.48551072,
				"z": 1.2045915827,
				"element": "C" 
			},
			{
				"x": -0.6720353953,
				"y": -0.4725166089,
				"z": 0.4555620763,
				"element": "C" 
			},
			{
				"x": -1.92084754,
				"y": -0.1332393153,
				"z": 1.0082803788,
				"element": "C" 
			},
			{
				"x": -2.9193308971,
				"y": 1.1294665661,
				"z": 0.2841052546,
				"element": "Cl" 
			},
			{
				"x": -2.4218096001,
				"y": -0.7041196051,
				"z": 2.0797479288,
				"element": "N" 
			},
			{
				"x": -1.6972207672,
				"y": -1.6681650599,
				"z": 2.6913728392,
				"element": "C" 
			},
			{
				"x": -2.3063868912,
				"y": -2.3030033942,
				"z": 3.9092457068,
				"element": "C" 
			},
			{
				"x": -0.4930203279,
				"y": -2.0849394965,
				"z": 2.2932753426,
				"element": "N" 
			},
			{
				"x": 2.8160175706,
				"y": 0.1922264349,
				"z": -4.5134765336,
				"element": "H" 
			},
			{
				"x": 4.0931031358,
				"y": 0.8820999113,
				"z": -3.5003123313,
				"element": "H" 
			},
			{
				"x": 2.9132456199,
				"y": 1.944068975,
				"z": -4.2823414388,
				"element": "H" 
			},
			{
				"x": 2.3588210476,
				"y": 1.6907480985,
				"z": -1.8712800347,
				"element": "H" 
			},
			{
				"x": 0.3657567456,
				"y": 0.1265541411,
				"z": -3.5721439628,
				"element": "H" 
			},
			{
				"x": 0.4674086088,
				"y": 1.8826605795,
				"z": -3.5385637595,
				"element": "H" 
			},
			{
				"x": -1.3229349797,
				"y": 0.8689853104,
				"z": -2.0133569907,
				"element": "H" 
			},
			{
				"x": -0.2516523218,
				"y": 2.0094752058,
				"z": -1.2384893665,
				"element": "H" 
			},
			{
				"x": 3.356368498,
				"y": -0.454214734,
				"z": -1.3473849758,
				"element": "H" 
			},
			{
				"x": 2.3539681158,
				"y": -1.2922341113,
				"z": -2.5193592279,
				"element": "H" 
			},
			{
				"x": -2.5126736484,
				"y": -1.5432914363,
				"z": 4.6700878828,
				"element": "H" 
			},
			{
				"x": -3.2643560275,
				"y": -2.7683268712,
				"z": 3.6550131589,
				"element": "H" 
			},
			{
				"x": -1.6326878209,
				"y": -3.0562789818,
				"z": 4.3184930992,
				"element": "H" 
			}
		],
		 "valence_orbital": [ 
			{
				"type": "occ",
				"energy": -0.30866,
				"method": "rhf"
			},
			{
				"type": "occ",
				"energy": -0.30042,
				"method": "rhf"
			},
			{
				"type": "occ",
				"energy": -0.26391,
				"method": "rhf"
			},
			{
				"type": "occ",
				"energy": -0.26108,
				"method": "rhf"
			},
			{
				"type": "occ",
				"energy": -0.22767,
				"method": "rhf"
			},
			{
				"type": "unocc",
				"energy": -0.04637,
				"method": "rhf"
			},
			{
				"type": "unocc",
				"energy": -0.03492,
				"method": "rhf"
			},
			{
				"type": "unocc",
				"energy": 0.00564,
				"method": "rhf"
			},
			{
				"type": "unocc",
				"energy": 0.02754,
				"method": "rhf"
			},
			{
				"type": "unocc",
				"energy": 0.04012,
				"method": "rhf"
			}
		],
		"cosmo_sigma_profile": { 
			"-0.025": 0.0,
			"-0.024": 0.0,
			"-0.023": 0.0,
			"-0.022": 0.0,
			"-0.021": 0.0,
			"-0.02": 0.0,
			"-0.019": 0.0,
			"-0.018": 0.0,
			"-0.017": 0.0,
			"-0.016": 0.0,
			"-0.015": 0.0,
			"-0.014": 0.0,
			"-0.013": 0.0,
			"-0.012": 0.0,
			"-0.011": 0.0,
			"-0.01": 0.0,
			"-0.009": 0.0,
			"-0.008": 0.0,
			"-0.007": 0.0,
			"-0.006": 1.04398712496,
			"-0.005": 7.36585780646,
			"-0.004": 13.8715309335,
			"-0.003": 33.9751227259,
			"-0.002": 45.0588880352,
			"-0.001": 42.298451993,
			"0.0": 33.3666702774,
			"0.001": 29.7308264794,
			"0.002": 19.2954898322,
			"0.003": 13.9004439234,
			"0.004": 10.7489617886,
			"0.005": 4.97333908672,
			"0.006": 3.18201157845,
			"0.007": 2.4960832354,
			"0.008": 2.71076773649,
			"0.009": 2.06468533967,
			"0.01": 1.76404872421,
			"0.011": 1.77500012863,
			"0.012": 1.69373092186,
			"0.013": 1.27117761178,
			"0.014": 0.295824116832,
			"0.015": 0.0,
			"0.016": 0.0,
			"0.017": 0.0,
			"0.018": 0.0,
			"0.019": 0.0,
			"0.02": 0.0,
			"0.021": 0.0,
			"0.022": 0.0,
			"0.023": 0.0,
			"0.024": 0.0,
			"0.025": 0.0
		}
	}
}
