{
	 "smiles": "CC(=O)NCCC1=CC=C(C=C1)S(Cl)(=O)=O", 
	 "Tm": 405.15, 
	 "num_atms": 28, 
	 "gaussian": { 
		 "optdone": 1, 
		 "sigma_profile": "yes", 
		 "theory": "DFT", 
		 "functional": "B3LYP", 
		 "basiset": "6-31G**", 
		 "properties": { 
			 "R2extent": 8174.2768, 
			 "electric_dipole_moment_norm": 4.03442343588, 
			 "electric_quadrupole_moment_norm": 43.0747301653, 
			 "total_energy": -1527.05826707, 
			 "HOMO_LUMO_gap": 0.16619, 
			 "cosmo_polarized_energy": -18.76, 
			 "cosmo_cavitation_energy": 36.06, 
			 "cosmo_dispersion_energy": -25.35, 
			 "cosmo_repulsion_energy": 1.97, 
			 "cosmo_total_nonelectrostatic_energy": 12.68, 
			 "SMD_solvation_energy": 5.14 
		},
		"coords": [
			{
				"x": -2.9959463628,
				"y": -1.8689598235,
				"z": -0.19446138,
				"element": "C" 
			},
			{
				"x": -1.5381196748,
				"y": -2.3007501488,
				"z": -0.2193781799,
				"element": "C" 
			},
			{
				"x": -1.139715976,
				"y": -3.295788634,
				"z": 0.3744573151,
				"element": "O" 
			},
			{
				"x": -0.6975734649,
				"y": -1.5162294904,
				"z": -0.9648762382,
				"element": "N" 
			},
			{
				"x": 0.7174526687,
				"y": -1.8282391143,
				"z": -1.0833125754,
				"element": "C" 
			},
			{
				"x": 1.5694307996,
				"y": -1.3418669099,
				"z": 0.1142422022,
				"element": "C" 
			},
			{
				"x": 1.5706314342,
				"y": 0.1590708319,
				"z": 0.2752001332,
				"element": "C" 
			},
			{
				"x": 2.4776339499,
				"y": 0.9545112453,
				"z": -0.443981275,
				"element": "C" 
			},
			{
				"x": 2.462271835,
				"y": 2.342602019,
				"z": -0.3398160365,
				"element": "C" 
			},
			{
				"x": 1.5163975137,
				"y": 2.9346551004,
				"z": 0.4988064754,
				"element": "C" 
			},
			{
				"x": 0.6011588155,
				"y": 2.1793346736,
				"z": 1.2324453575,
				"element": "C" 
			},
			{
				"x": 0.6370106722,
				"y": 0.7919613606,
				"z": 1.1111228929,
				"element": "C" 
			},
			{
				"x": 1.4672193194,
				"y": 4.7128337,
				"z": 0.6254043074,
				"element": "S" 
			},
			{
				"x": 2.8068753801,
				"y": 5.0651787196,
				"z": 2.2521852565,
				"element": "Cl" 
			},
			{
				"x": 2.0986668345,
				"y": 5.3001742478,
				"z": -0.5501211115,
				"element": "O" 
			},
			{
				"x": 0.1500268235,
				"y": 5.1292974252,
				"z": 1.0914312738,
				"element": "O" 
			},
			{
				"x": -3.5995428419,
				"y": -2.6480298287,
				"z": -0.6690089383,
				"element": "H" 
			},
			{
				"x": -3.186028976,
				"y": -0.918615187,
				"z": -0.7010015231,
				"element": "H" 
			},
			{
				"x": -3.323886872,
				"y": -1.7937410267,
				"z": 0.8453349906,
				"element": "H" 
			},
			{
				"x": -1.0499339828,
				"y": -0.6694498821,
				"z": -1.3829665718,
				"element": "H" 
			},
			{
				"x": 1.0876002686,
				"y": -1.3899484514,
				"z": -2.0155143371,
				"element": "H" 
			},
			{
				"x": 0.8108164355,
				"y": -2.9151258774,
				"z": -1.1519846443,
				"element": "H" 
			},
			{
				"x": 2.594194791,
				"y": -1.7016553826,
				"z": -0.0347951789,
				"element": "H" 
			},
			{
				"x": 1.181346337,
				"y": -1.8256542882,
				"z": 1.0151236099,
				"element": "H" 
			},
			{
				"x": 3.2089910529,
				"y": 0.4795111378,
				"z": -1.0925256278,
				"element": "H" 
			},
			{
				"x": 3.1592679721,
				"y": 2.9576163753,
				"z": -0.8979464006,
				"element": "H" 
			},
			{
				"x": -0.1217521901,
				"y": 2.6698064186,
				"z": 1.8747214549,
				"element": "H" 
			},
			{
				"x": -0.0648925619,
				"y": 0.1887007901,
				"z": 1.6789147489,
				"element": "H" 
			}
		],
		 "valence_orbital": [ 
			{
				"type": "occ",
				"energy": -0.31239,
				"method": "rhf"
			},
			{
				"type": "occ",
				"energy": -0.28949,
				"method": "rhf"
			},
			{
				"type": "occ",
				"energy": -0.28464,
				"method": "rhf"
			},
			{
				"type": "occ",
				"energy": -0.26432,
				"method": "rhf"
			},
			{
				"type": "occ",
				"energy": -0.25589,
				"method": "rhf"
			},
			{
				"type": "unocc",
				"energy": -0.0897,
				"method": "rhf"
			},
			{
				"type": "unocc",
				"energy": -0.04443,
				"method": "rhf"
			},
			{
				"type": "unocc",
				"energy": -0.03911,
				"method": "rhf"
			},
			{
				"type": "unocc",
				"energy": 0.018,
				"method": "rhf"
			},
			{
				"type": "unocc",
				"energy": 0.05168,
				"method": "rhf"
			}
		],
		"cosmo_sigma_profile": { 
			"-0.025": 0.0,
			"-0.024": 0.0,
			"-0.023": 0.0,
			"-0.022": 0.0,
			"-0.021": 0.0,
			"-0.02": 0.0,
			"-0.019": 0.0,
			"-0.018": 0.0,
			"-0.017": 0.0,
			"-0.016": 0.0,
			"-0.015": 0.0,
			"-0.014": 0.763620227261,
			"-0.013": 1.44593740247,
			"-0.012": 0.843476410582,
			"-0.011": 1.38782003014,
			"-0.01": 1.56343547978,
			"-0.009": 1.30880686363,
			"-0.008": 4.48053751467,
			"-0.007": 8.87759140154,
			"-0.006": 15.3423360349,
			"-0.005": 22.5855264034,
			"-0.004": 21.0838075742,
			"-0.003": 20.8558689623,
			"-0.002": 23.7552017718,
			"-0.001": 26.7919593137,
			"0.0": 19.0077023446,
			"0.001": 19.9861405132,
			"0.002": 20.812509331,
			"0.003": 15.3899850747,
			"0.004": 13.073263469,
			"0.005": 5.20603110739,
			"0.006": 5.2114663738,
			"0.007": 5.98288843747,
			"0.008": 11.8502126719,
			"0.009": 6.83097064673,
			"0.01": 1.54679192127,
			"0.011": 1.38890750962,
			"0.012": 1.66546526951,
			"0.013": 2.19572249415,
			"0.014": 4.65860965578,
			"0.015": 2.67959706263,
			"0.016": 0.211798468961,
			"0.017": 0.0,
			"0.018": 0.0,
			"0.019": 0.0,
			"0.02": 0.0,
			"0.021": 0.0,
			"0.022": 0.0,
			"0.023": 0.0,
			"0.024": 0.0,
			"0.025": 0.0
		}
	}
}
