{
	 "smiles": "CCC(=O)C1=CC2=C(C=C1)N(C)C(=O)C2", 
	 "Tm": 479.15, 
	 "num_atms": 28, 
	 "gaussian": { 
		 "optdone": 1, 
		 "sigma_profile": "yes", 
		 "theory": "DFT", 
		 "functional": "B3LYP", 
		 "basiset": "6-31G**", 
		 "properties": { 
			 "R2extent": 4550.1919, 
			 "electric_dipole_moment_norm": 0.69886801329, 
			 "electric_quadrupole_moment_norm": 29.7994471283, 
			 "total_energy": -670.346227074, 
			 "HOMO_LUMO_gap": 0.17161, 
			 "cosmo_polarized_energy": -13.98, 
			 "cosmo_cavitation_energy": 31.44, 
			 "cosmo_dispersion_energy": -22.89, 
			 "cosmo_repulsion_energy": 1.78, 
			 "cosmo_total_nonelectrostatic_energy": 10.33, 
			 "SMD_solvation_energy": 6.29 
		},
		"coords": [
			{
				"x": 5.5111764285,
				"y": 0.8202363126,
				"z": -1.6966160759,
				"element": "C" 
			},
			{
				"x": 4.0210686659,
				"y": 0.5648142151,
				"z": -1.4795114785,
				"element": "C" 
			},
			{
				"x": 3.6507809614,
				"y": 0.4084140074,
				"z": -0.0061243054,
				"element": "C" 
			},
			{
				"x": 4.5095182959,
				"y": 0.4911262065,
				"z": 0.8620160429,
				"element": "O" 
			},
			{
				"x": 2.2221498211,
				"y": 0.1527002263,
				"z": 0.3556875353,
				"element": "C" 
			},
			{
				"x": 1.1932608387,
				"y": 0.0481701124,
				"z": -0.6057494092,
				"element": "C" 
			},
			{
				"x": -0.105001022,
				"y": -0.1896704092,
				"z": -0.1942930175,
				"element": "C" 
			},
			{
				"x": -0.3933459475,
				"y": -0.3259428984,
				"z": 1.1777748703,
				"element": "C" 
			},
			{
				"x": 0.6025809124,
				"y": -0.2273914559,
				"z": 2.1490069028,
				"element": "C" 
			},
			{
				"x": 1.9059391451,
				"y": 0.0125678082,
				"z": 1.7169662512,
				"element": "C" 
			},
			{
				"x": -1.7577121388,
				"y": -0.5592581309,
				"z": 1.3568606648,
				"element": "N" 
			},
			{
				"x": -2.4218127443,
				"y": -0.7497318431,
				"z": 2.6305733262,
				"element": "C" 
			},
			{
				"x": -2.4362257034,
				"y": -0.5901485467,
				"z": 0.1378380859,
				"element": "C" 
			},
			{
				"x": -3.63058369,
				"y": -0.7754145895,
				"z": 0.0084696323,
				"element": "O" 
			},
			{
				"x": -1.39184611,
				"y": -0.3488027288,
				"z": -0.9608859447,
				"element": "C" 
			},
			{
				"x": 6.1104937951,
				"y": -0.001748932,
				"z": -1.2971331173,
				"element": "H" 
			},
			{
				"x": 5.7316395244,
				"y": 0.9257786871,
				"z": -2.7630201911,
				"element": "H" 
			},
			{
				"x": 5.8300090976,
				"y": 1.7310521472,
				"z": -1.1836067791,
				"element": "H" 
			},
			{
				"x": 3.6998168236,
				"y": -0.3392688889,
				"z": -2.0149819467,
				"element": "H" 
			},
			{
				"x": 3.4211231215,
				"y": 1.3826172083,
				"z": -1.9020830067,
				"element": "H" 
			},
			{
				"x": 1.4129504823,
				"y": 0.1528306497,
				"z": -1.6635739392,
				"element": "H" 
			},
			{
				"x": 0.3762955015,
				"y": -0.3329658443,
				"z": 3.2048456524,
				"element": "H" 
			},
			{
				"x": 2.7180517851,
				"y": 0.0979802638,
				"z": 2.431243745,
				"element": "H" 
			},
			{
				"x": -2.3048392873,
				"y": 0.1328193652,
				"z": 3.2688731232,
				"element": "H" 
			},
			{
				"x": -2.0194265362,
				"y": -1.6231914887,
				"z": 3.155113099,
				"element": "H" 
			},
			{
				"x": -3.4804513708,
				"y": -0.9082372737,
				"z": 2.4209612676,
				"element": "H" 
			},
			{
				"x": -1.3936903754,
				"y": -1.198081112,
				"z": -1.6533607343,
				"element": "H" 
			},
			{
				"x": -1.6756202745,
				"y": 0.5369469322,
				"z": -1.5402902534,
				"element": "H" 
			}
		],
		 "valence_orbital": [ 
			{
				"type": "occ",
				"energy": -0.3061,
				"method": "rhf"
			},
			{
				"type": "occ",
				"energy": -0.26738,
				"method": "rhf"
			},
			{
				"type": "occ",
				"energy": -0.26498,
				"method": "rhf"
			},
			{
				"type": "occ",
				"energy": -0.24512,
				"method": "rhf"
			},
			{
				"type": "occ",
				"energy": -0.22339,
				"method": "rhf"
			},
			{
				"type": "unocc",
				"energy": -0.05178,
				"method": "rhf"
			},
			{
				"type": "unocc",
				"energy": -0.02004,
				"method": "rhf"
			},
			{
				"type": "unocc",
				"energy": 0.00831,
				"method": "rhf"
			},
			{
				"type": "unocc",
				"energy": 0.05234,
				"method": "rhf"
			},
			{
				"type": "unocc",
				"energy": 0.0905,
				"method": "rhf"
			}
		],
		"cosmo_sigma_profile": { 
			"-0.025": 0.0,
			"-0.024": 0.0,
			"-0.023": 0.0,
			"-0.022": 0.0,
			"-0.021": 0.0,
			"-0.02": 0.0,
			"-0.019": 0.0,
			"-0.018": 0.0,
			"-0.017": 0.0,
			"-0.016": 0.0,
			"-0.015": 0.0,
			"-0.014": 0.0,
			"-0.013": 0.0,
			"-0.012": 0.0,
			"-0.011": 0.0,
			"-0.01": 0.0,
			"-0.009": 0.0,
			"-0.008": 0.838288369134,
			"-0.007": 6.43196135458,
			"-0.006": 16.647831704,
			"-0.005": 24.9145426122,
			"-0.004": 23.2480238405,
			"-0.003": 25.402373019,
			"-0.002": 23.101145563,
			"-0.001": 21.8850996395,
			"0.0": 14.5560285591,
			"0.001": 15.3610307682,
			"0.002": 12.6378823968,
			"0.003": 13.8279825378,
			"0.004": 11.0251464032,
			"0.005": 3.24727535441,
			"0.006": 3.99852623538,
			"0.007": 2.86494701238,
			"0.008": 2.53431638755,
			"0.009": 3.13385606115,
			"0.01": 3.84889491826,
			"0.011": 4.34592954369,
			"0.012": 7.99943879559,
			"0.013": 6.43551992818,
			"0.014": 0.925544680433,
			"0.015": 0.0,
			"0.016": 0.0,
			"0.017": 0.0,
			"0.018": 0.0,
			"0.019": 0.0,
			"0.02": 0.0,
			"0.021": 0.0,
			"0.022": 0.0,
			"0.023": 0.0,
			"0.024": 0.0,
			"0.025": 0.0
		}
	}
}
