{
	 "smiles": "CC1=C(COC2CCCCC2)C=CC=C1N", 
	 "Tm": 328.15, 
	 "num_atms": 37, 
	 "gaussian": { 
		 "optdone": 1, 
		 "sigma_profile": "yes", 
		 "theory": "DFT", 
		 "functional": "B3LYP", 
		 "basiset": "6-31G**", 
		 "properties": { 
			 "R2extent": 5903.8818, 
			 "electric_dipole_moment_norm": 2.63471210571, 
			 "electric_quadrupole_moment_norm": 12.0505393294, 
			 "total_energy": -676.128933604, 
			 "HOMO_LUMO_gap": 0.20529, 
			 "cosmo_polarized_energy": -9.93, 
			 "cosmo_cavitation_energy": 36.45, 
			 "cosmo_dispersion_energy": -26.37, 
			 "cosmo_repulsion_energy": 2.07, 
			 "cosmo_total_nonelectrostatic_energy": 12.16, 
			 "SMD_solvation_energy": 4.99 
		},
		"coords": [
			{
				"x": 2.7912871356,
				"y": -0.1628248443,
				"z": -1.5783576817,
				"element": "C" 
			},
			{
				"x": 1.7594462183,
				"y": 0.844751111,
				"z": -2.0372770598,
				"element": "C" 
			},
			{
				"x": 0.9887968477,
				"y": 1.609864454,
				"z": -1.1422070216,
				"element": "C" 
			},
			{
				"x": 1.1455138062,
				"y": 1.4371849917,
				"z": 0.3666811259,
				"element": "C" 
			},
			{
				"x": 0.1018098997,
				"y": 2.0243934412,
				"z": 1.1240756347,
				"element": "O" 
			},
			{
				"x": -1.0894222652,
				"y": 1.2272702723,
				"z": 1.2328160726,
				"element": "C" 
			},
			{
				"x": -0.9576359929,
				"y": 0.1701208539,
				"z": 2.3541837566,
				"element": "C" 
			},
			{
				"x": -1.3515682514,
				"y": 0.7528790375,
				"z": 3.7165576975,
				"element": "C" 
			},
			{
				"x": -2.8493306468,
				"y": 1.143509747,
				"z": 3.739453294,
				"element": "C" 
			},
			{
				"x": -3.3585068065,
				"y": 1.561806386,
				"z": 2.3388442411,
				"element": "C" 
			},
			{
				"x": -2.2395301174,
				"y": 2.2125603318,
				"z": 1.5151423557,
				"element": "C" 
			},
			{
				"x": 0.0949620272,
				"y": 2.5725060416,
				"z": -1.624796833,
				"element": "C" 
			},
			{
				"x": -0.0558924535,
				"y": 2.763393966,
				"z": -2.9970621214,
				"element": "C" 
			},
			{
				"x": 0.6748611582,
				"y": 1.9951413931,
				"z": -3.8963261106,
				"element": "C" 
			},
			{
				"x": 1.5841493043,
				"y": 1.0351576645,
				"z": -3.4273640145,
				"element": "C" 
			},
			{
				"x": 2.3652744642,
				"y": 0.3071909813,
				"z": -4.3379213576,
				"element": "N" 
			},
			{
				"x": 3.7288128042,
				"y": -0.0290894108,
				"z": -2.130732704,
				"element": "H" 
			},
			{
				"x": 3.0261483304,
				"y": -0.0749066554,
				"z": -0.5170285648,
				"element": "H" 
			},
			{
				"x": 2.4643558602,
				"y": -1.1997877886,
				"z": -1.7484340895,
				"element": "H" 
			},
			{
				"x": 1.2488159774,
				"y": 0.372046053,
				"z": 0.6175184886,
				"element": "H" 
			},
			{
				"x": 2.0679744954,
				"y": 1.9281940044,
				"z": 0.703742255,
				"element": "H" 
			},
			{
				"x": -1.2642393897,
				"y": 0.7183455351,
				"z": 0.2742136081,
				"element": "H" 
			},
			{
				"x": 0.0683110462,
				"y": -0.2139708974,
				"z": 2.3732537137,
				"element": "H" 
			},
			{
				"x": -1.6018923685,
				"y": -0.6875208606,
				"z": 2.1185368056,
				"element": "H" 
			},
			{
				"x": -0.7292745263,
				"y": 1.6363047597,
				"z": 3.902990656,
				"element": "H" 
			},
			{
				"x": -1.1296988186,
				"y": 0.0444030084,
				"z": 4.5222224437,
				"element": "H" 
			},
			{
				"x": -2.9989549458,
				"y": 1.9651349895,
				"z": 4.4499827967,
				"element": "H" 
			},
			{
				"x": -3.4511229256,
				"y": 0.3047331656,
				"z": 4.10936922,
				"element": "H" 
			},
			{
				"x": -4.2088337538,
				"y": 2.2460097029,
				"z": 2.4325435875,
				"element": "H" 
			},
			{
				"x": -3.7369939354,
				"y": 0.6832642503,
				"z": 1.7998890423,
				"element": "H" 
			},
			{
				"x": -2.6216273549,
				"y": 2.6186347791,
				"z": 0.5726446107,
				"element": "H" 
			},
			{
				"x": -1.8167892513,
				"y": 3.0578166932,
				"z": 2.0719677795,
				"element": "H" 
			},
			{
				"x": -0.4678639374,
				"y": 3.1661297443,
				"z": -0.9141953018,
				"element": "H" 
			},
			{
				"x": -0.7519967377,
				"y": 3.5102232007,
				"z": -3.3693226271,
				"element": "H" 
			},
			{
				"x": 0.552673748,
				"y": 2.1356946614,
				"z": -4.9680425004,
				"element": "H" 
			},
			{
				"x": 2.0140518783,
				"y": 0.3279669304,
				"z": -5.286114708,
				"element": "H" 
			},
			{
				"x": 2.5868294772,
				"y": -0.6378316936,
				"z": -4.0550464897,
				"element": "H" 
			}
		],
		 "valence_orbital": [ 
			{
				"type": "occ",
				"energy": -0.29521,
				"method": "rhf"
			},
			{
				"type": "occ",
				"energy": -0.28642,
				"method": "rhf"
			},
			{
				"type": "occ",
				"energy": -0.24418,
				"method": "rhf"
			},
			{
				"type": "occ",
				"energy": -0.2268,
				"method": "rhf"
			},
			{
				"type": "occ",
				"energy": -0.19521,
				"method": "rhf"
			},
			{
				"type": "unocc",
				"energy": 0.01008,
				"method": "rhf"
			},
			{
				"type": "unocc",
				"energy": 0.02579,
				"method": "rhf"
			},
			{
				"type": "unocc",
				"energy": 0.07746,
				"method": "rhf"
			},
			{
				"type": "unocc",
				"energy": 0.0837,
				"method": "rhf"
			},
			{
				"type": "unocc",
				"energy": 0.10304,
				"method": "rhf"
			}
		],
		"cosmo_sigma_profile": { 
			"-0.025": 0.0,
			"-0.024": 0.0,
			"-0.023": 0.0,
			"-0.022": 0.0,
			"-0.021": 0.0,
			"-0.02": 0.0,
			"-0.019": 0.0,
			"-0.018": 0.0,
			"-0.017": 0.0,
			"-0.016": 0.0,
			"-0.015": 0.0,
			"-0.014": 0.0,
			"-0.013": 0.0,
			"-0.012": 0.804313308132,
			"-0.011": 2.3150753574,
			"-0.01": 2.66377873971,
			"-0.009": 3.09799879263,
			"-0.008": 3.05627118212,
			"-0.007": 3.53443783304,
			"-0.006": 2.2358360644,
			"-0.005": 7.90097203711,
			"-0.004": 15.0503950459,
			"-0.003": 20.7609426225,
			"-0.002": 38.0128460846,
			"-0.001": 42.3687171196,
			"0.0": 39.5603824423,
			"0.001": 28.9486928108,
			"0.002": 12.8847271592,
			"0.003": 9.42446054157,
			"0.004": 8.43243136137,
			"0.005": 9.12623235606,
			"0.006": 8.7862136157,
			"0.007": 8.89309794896,
			"0.008": 6.20819539853,
			"0.009": 1.79447296999,
			"0.01": 1.26520532453,
			"0.011": 1.9492425057,
			"0.012": 1.4437950534,
			"0.013": 1.50692672639,
			"0.014": 0.731550551944,
			"0.015": 0.332574520369,
			"0.016": 0.0484229201452,
			"0.017": 0.0,
			"0.018": 0.0,
			"0.019": 0.0,
			"0.02": 0.0,
			"0.021": 0.0,
			"0.022": 0.0,
			"0.023": 0.0,
			"0.024": 0.0,
			"0.025": 0.0
		}
	}
}
