{
	 "smiles": "CCCCCOC1=CC=C(C=C1Cl)N=NC1=CC=C(CCCC)C=C1", 
	 "Tm": 314.65, 
	 "num_atms": 52, 
	 "gaussian": { 
		 "optdone": 1, 
		 "sigma_profile": "yes", 
		 "theory": "DFT", 
		 "functional": "B3LYP", 
		 "basiset": "6-31G**", 
		 "properties": { 
			 "R2extent": 14884.9224, 
			 "electric_dipole_moment_norm": 4.40791634902, 
			 "electric_quadrupole_moment_norm": 20.0670867676, 
			 "total_energy": -1461.37626733, 
			 "HOMO_LUMO_gap": 0.1341, 
			 "cosmo_polarized_energy": -11.1, 
			 "cosmo_cavitation_energy": 56.1, 
			 "cosmo_dispersion_energy": -36.69, 
			 "cosmo_repulsion_energy": 2.92, 
			 "cosmo_total_nonelectrostatic_energy": 22.32, 
			 "SMD_solvation_energy": 6.48 
		},
		"coords": [
			{
				"x": -4.7409931386,
				"y": 0.5631107364,
				"z": 0.5806032967,
				"element": "C" 
			},
			{
				"x": -4.1262507805,
				"y": 1.6543177535,
				"z": 1.4673686613,
				"element": "C" 
			},
			{
				"x": -4.2780318202,
				"y": 3.0998819788,
				"z": 0.9485510796,
				"element": "C" 
			},
			{
				"x": -3.2134705544,
				"y": 3.5968514365,
				"z": -0.0484391334,
				"element": "C" 
			},
			{
				"x": -3.238000049,
				"y": 2.9327970066,
				"z": -1.4239194942,
				"element": "C" 
			},
			{
				"x": -2.3739562798,
				"y": 3.6244808534,
				"z": -2.3547971863,
				"element": "O" 
			},
			{
				"x": -1.0539792496,
				"y": 3.2754866421,
				"z": -2.3553234707,
				"element": "C" 
			},
			{
				"x": -0.1091983179,
				"y": 4.1472230254,
				"z": -1.7988584424,
				"element": "C" 
			},
			{
				"x": 1.2513699944,
				"y": 3.869142843,
				"z": -1.8655050589,
				"element": "C" 
			},
			{
				"x": 1.6957914391,
				"y": 2.6699515732,
				"z": -2.4370455349,
				"element": "C" 
			},
			{
				"x": 0.7680168186,
				"y": 1.7942203396,
				"z": -3.0192683547,
				"element": "C" 
			},
			{
				"x": -0.5869242544,
				"y": 2.1073314511,
				"z": -2.9882793541,
				"element": "C" 
			},
			{
				"x": -1.7218405199,
				"y": 1.0348262526,
				"z": -3.7906272825,
				"element": "Cl" 
			},
			{
				"x": 3.11478649,
				"y": 2.5131029953,
				"z": -2.5767959167,
				"element": "N" 
			},
			{
				"x": 3.725899378,
				"y": 1.4378043813,
				"z": -2.39519509,
				"element": "N" 
			},
			{
				"x": 3.1388595863,
				"y": 0.263195879,
				"z": -1.8217766755,
				"element": "C" 
			},
			{
				"x": 2.392464756,
				"y": 0.2747406419,
				"z": -0.6337434271,
				"element": "C" 
			},
			{
				"x": 1.9910887869,
				"y": -0.9277483055,
				"z": -0.0590747061,
				"element": "C" 
			},
			{
				"x": 2.2979489138,
				"y": -2.1621324656,
				"z": -0.6516149796,
				"element": "C" 
			},
			{
				"x": 1.874458583,
				"y": -3.4621401964,
				"z": -0.005025216,
				"element": "C" 
			},
			{
				"x": 2.9125712556,
				"y": -3.993789704,
				"z": 1.0068488336,
				"element": "C" 
			},
			{
				"x": 2.4912461615,
				"y": -5.287207953,
				"z": 1.7226108569,
				"element": "C" 
			},
			{
				"x": 2.3742099559,
				"y": -6.5127114721,
				"z": 0.808377687,
				"element": "C" 
			},
			{
				"x": 3.0556001208,
				"y": -2.1554888309,
				"z": -1.8320291492,
				"element": "C" 
			},
			{
				"x": 3.4998330252,
				"y": -0.9629215415,
				"z": -2.3957853,
				"element": "C" 
			},
			{
				"x": -4.2672412533,
				"y": 0.5012017676,
				"z": -0.4035182894,
				"element": "H" 
			},
			{
				"x": -4.6433255359,
				"y": -0.4213491098,
				"z": 1.0503893139,
				"element": "H" 
			},
			{
				"x": -5.8094786864,
				"y": 0.7471798803,
				"z": 0.4200795057,
				"element": "H" 
			},
			{
				"x": -4.6027188363,
				"y": 1.594310463,
				"z": 2.4538945342,
				"element": "H" 
			},
			{
				"x": -3.0621561113,
				"y": 1.4402619659,
				"z": 1.6382834969,
				"element": "H" 
			},
			{
				"x": -4.244379381,
				"y": 3.7789646459,
				"z": 1.8090860625,
				"element": "H" 
			},
			{
				"x": -5.2784790813,
				"y": 3.2262861324,
				"z": 0.5104864766,
				"element": "H" 
			},
			{
				"x": -2.2157903487,
				"y": 3.4745618237,
				"z": 0.3935908701,
				"element": "H" 
			},
			{
				"x": -3.3553001291,
				"y": 4.6731760601,
				"z": -0.2058844733,
				"element": "H" 
			},
			{
				"x": -2.9527645829,
				"y": 1.8782477502,
				"z": -1.3764374416,
				"element": "H" 
			},
			{
				"x": -4.2367179961,
				"y": 2.9932426425,
				"z": -1.8670974623,
				"element": "H" 
			},
			{
				"x": -0.4715343645,
				"y": 5.0635849798,
				"z": -1.3450640905,
				"element": "H" 
			},
			{
				"x": 1.9841719209,
				"y": 4.5660295877,
				"z": -1.4720738925,
				"element": "H" 
			},
			{
				"x": 1.0968135136,
				"y": 0.8879386103,
				"z": -3.5127534884,
				"element": "H" 
			},
			{
				"x": 2.1423601603,
				"y": 1.2176077792,
				"z": -0.1594989037,
				"element": "H" 
			},
			{
				"x": 1.4205447477,
				"y": -0.9090770511,
				"z": 0.8665556011,
				"element": "H" 
			},
			{
				"x": 0.9164819481,
				"y": -3.3205491964,
				"z": 0.5119615312,
				"element": "H" 
			},
			{
				"x": 1.7009817156,
				"y": -4.2129069173,
				"z": -0.7841722605,
				"element": "H" 
			},
			{
				"x": 3.1008185697,
				"y": -3.2127313124,
				"z": 1.7542975502,
				"element": "H" 
			},
			{
				"x": 3.8676127384,
				"y": -4.1539515126,
				"z": 0.4883668307,
				"element": "H" 
			},
			{
				"x": 1.5345489431,
				"y": -5.1205709291,
				"z": 2.2367669032,
				"element": "H" 
			},
			{
				"x": 3.2244680785,
				"y": -5.5002130144,
				"z": 2.5107663768,
				"element": "H" 
			},
			{
				"x": 3.3172658723,
				"y": -6.7039323749,
				"z": 0.2830665823,
				"element": "H" 
			},
			{
				"x": 2.1284556944,
				"y": -7.4105237075,
				"z": 1.3847869926,
				"element": "H" 
			},
			{
				"x": 1.5928463609,
				"y": -6.3882653872,
				"z": 0.0514454694,
				"element": "H" 
			},
			{
				"x": 3.3152773623,
				"y": -3.099264554,
				"z": -2.3053085712,
				"element": "H" 
			},
			{
				"x": 4.1169383803,
				"y": -0.9608843422,
				"z": -3.2890718667,
				"element": "H" 
			}
		],
		 "valence_orbital": [ 
			{
				"type": "occ",
				"energy": -0.26471,
				"method": "rhf"
			},
			{
				"type": "occ",
				"energy": -0.25762,
				"method": "rhf"
			},
			{
				"type": "occ",
				"energy": -0.25148,
				"method": "rhf"
			},
			{
				"type": "occ",
				"energy": -0.24506,
				"method": "rhf"
			},
			{
				"type": "occ",
				"energy": -0.2085,
				"method": "rhf"
			},
			{
				"type": "unocc",
				"energy": -0.0744,
				"method": "rhf"
			},
			{
				"type": "unocc",
				"energy": -0.0219,
				"method": "rhf"
			},
			{
				"type": "unocc",
				"energy": -0.00989,
				"method": "rhf"
			},
			{
				"type": "unocc",
				"energy": -0.00234,
				"method": "rhf"
			},
			{
				"type": "unocc",
				"energy": 0.01811,
				"method": "rhf"
			}
		],
		"cosmo_sigma_profile": { 
			"-0.025": 0.0,
			"-0.024": 0.0,
			"-0.023": 0.0,
			"-0.022": 0.0,
			"-0.021": 0.0,
			"-0.02": 0.0,
			"-0.019": 0.0,
			"-0.018": 0.0,
			"-0.017": 0.0,
			"-0.016": 0.0,
			"-0.015": 0.0,
			"-0.014": 0.0,
			"-0.013": 0.0,
			"-0.012": 0.0,
			"-0.011": 0.0,
			"-0.01": 0.0,
			"-0.009": 0.0,
			"-0.008": 0.140402777501,
			"-0.007": 4.01653236293,
			"-0.006": 11.1476934906,
			"-0.005": 16.4540693706,
			"-0.004": 22.7532503797,
			"-0.003": 36.6853926326,
			"-0.002": 63.1631675518,
			"-0.001": 60.7314334625,
			"0.0": 59.403471365,
			"0.001": 55.5891274228,
			"0.002": 35.0194657461,
			"0.003": 21.2924265946,
			"0.004": 20.8878564844,
			"0.005": 9.72104126023,
			"0.006": 3.66363002017,
			"0.007": 3.5224226589,
			"0.008": 3.10189247471,
			"0.009": 2.24254170666,
			"0.01": 4.1078291981,
			"0.011": 3.45780639822,
			"0.012": 2.6982773122,
			"0.013": 2.04955121569,
			"0.014": 0.958856017926,
			"0.015": 0.0,
			"0.016": 0.0,
			"0.017": 0.0,
			"0.018": 0.0,
			"0.019": 0.0,
			"0.02": 0.0,
			"0.021": 0.0,
			"0.022": 0.0,
			"0.023": 0.0,
			"0.024": 0.0,
			"0.025": 0.0
		}
	}
}
