{
	 "smiles": "BrCCCCBr", 
	 "Tm": 254.95, 
	 "num_atms": 14, 
	 "gaussian": { 
		 "optdone": 1, 
		 "sigma_profile": "yes", 
		 "theory": "DFT", 
		 "functional": "B3LYP", 
		 "basiset": "6-31G**", 
		 "properties": { 
			 "R2extent": 2762.5375, 
			 "electric_dipole_moment_norm": 3.11802933116, 
			 "electric_quadrupole_moment_norm": 8.02382983494, 
			 "total_energy": -5300.07160452, 
			 "HOMO_LUMO_gap": 0.26976, 
			 "cosmo_polarized_energy": -7.22, 
			 "cosmo_cavitation_energy": 21.13, 
			 "cosmo_dispersion_energy": -16.3, 
			 "cosmo_repulsion_energy": 1.42, 
			 "cosmo_total_nonelectrostatic_energy": 6.24, 
			 "SMD_solvation_energy": 1.12 
		},
		"coords": [
			{
				"x": 1.655593677,
				"y": -2.5334730288,
				"z": -0.5554595139,
				"element": "Br" 
			},
			{
				"x": 1.5324748884,
				"y": -0.7098887341,
				"z": -1.3350648265,
				"element": "C" 
			},
			{
				"x": 0.3078203526,
				"y": 0.0544542077,
				"z": -0.8547521544,
				"element": "C" 
			},
			{
				"x": -1.0277506569,
				"y": -0.5544728277,
				"z": -1.2915523975,
				"element": "C" 
			},
			{
				"x": -2.2462944429,
				"y": 0.2817823914,
				"z": -0.930231221,
				"element": "C" 
			},
			{
				"x": -2.510461258,
				"y": 0.4481646192,
				"z": 1.0321116738,
				"element": "Br" 
			},
			{
				"x": 1.5328596286,
				"y": -0.8653500442,
				"z": -2.4147356579,
				"element": "H" 
			},
			{
				"x": 2.4587863214,
				"y": -0.2191785554,
				"z": -1.0390089817,
				"element": "H" 
			},
			{
				"x": 0.3956423368,
				"y": 1.073241085,
				"z": -1.2623255149,
				"element": "H" 
			},
			{
				"x": 0.333179311,
				"y": 0.1495518515,
				"z": 0.234987759,
				"element": "H" 
			},
			{
				"x": -1.0382075787,
				"y": -0.6649927526,
				"z": -2.3867379939,
				"element": "H" 
			},
			{
				"x": -1.1306753812,
				"y": -1.5605812636,
				"z": -0.8739907125,
				"element": "H" 
			},
			{
				"x": -3.1689798216,
				"y": -0.1663337672,
				"z": -1.2967613793,
				"element": "H" 
			},
			{
				"x": -2.1724873764,
				"y": 1.3082768187,
				"z": -1.2917790794,
				"element": "H" 
			}
		],
		 "valence_orbital": [ 
			{
				"type": "occ",
				"energy": -0.34198,
				"method": "rhf"
			},
			{
				"type": "occ",
				"energy": -0.2748,
				"method": "rhf"
			},
			{
				"type": "occ",
				"energy": -0.27389,
				"method": "rhf"
			},
			{
				"type": "occ",
				"energy": -0.27305,
				"method": "rhf"
			},
			{
				"type": "occ",
				"energy": -0.27101,
				"method": "rhf"
			},
			{
				"type": "unocc",
				"energy": -0.00125,
				"method": "rhf"
			},
			{
				"type": "unocc",
				"energy": 0.00217,
				"method": "rhf"
			},
			{
				"type": "unocc",
				"energy": 0.08094,
				"method": "rhf"
			},
			{
				"type": "unocc",
				"energy": 0.10415,
				"method": "rhf"
			},
			{
				"type": "unocc",
				"energy": 0.12516,
				"method": "rhf"
			}
		],
		"cosmo_sigma_profile": { 
			"-0.025": 0.0,
			"-0.024": 0.0,
			"-0.023": 0.0,
			"-0.022": 0.0,
			"-0.021": 0.0,
			"-0.02": 0.0,
			"-0.019": 0.0,
			"-0.018": 0.0,
			"-0.017": 0.0,
			"-0.016": 0.0,
			"-0.015": 0.0,
			"-0.014": 0.0,
			"-0.013": 0.0,
			"-0.012": 0.0,
			"-0.011": 0.0,
			"-0.01": 0.0,
			"-0.009": 0.0,
			"-0.008": 0.0156094953824,
			"-0.007": 5.74382060868,
			"-0.006": 11.4379105432,
			"-0.005": 17.5568440672,
			"-0.004": 18.2656624436,
			"-0.003": 11.2433872366,
			"-0.002": 10.9699650656,
			"-0.001": 9.18943273847,
			"0.0": 9.47322697169,
			"0.001": 10.0707102235,
			"0.002": 8.60399018798,
			"0.003": 9.09498585839,
			"0.004": 10.0185087605,
			"0.005": 13.1058518472,
			"0.006": 18.2019058484,
			"0.007": 9.0272547556,
			"0.008": 0.0,
			"0.009": 0.0,
			"0.01": 0.0,
			"0.011": 0.0,
			"0.012": 0.0,
			"0.013": 0.0,
			"0.014": 0.0,
			"0.015": 0.0,
			"0.016": 0.0,
			"0.017": 0.0,
			"0.018": 0.0,
			"0.019": 0.0,
			"0.02": 0.0,
			"0.021": 0.0,
			"0.022": 0.0,
			"0.023": 0.0,
			"0.024": 0.0,
			"0.025": 0.0
		}
	}
}
