{
	 "smiles": "NC1=CC2=C(NN=N2)C=C1", 
	 "Tm": 432.65, 
	 "num_atms": 16, 
	 "gaussian": { 
		 "optdone": 1, 
		 "sigma_profile": "yes", 
		 "theory": "DFT", 
		 "functional": "B3LYP", 
		 "basiset": "6-31G**", 
		 "properties": { 
			 "R2extent": 1922.7631, 
			 "electric_dipole_moment_norm": 4.67223039993, 
			 "electric_quadrupole_moment_norm": 18.2821819784, 
			 "total_energy": -451.223123136, 
			 "HOMO_LUMO_gap": 0.16585, 
			 "cosmo_polarized_energy": -17.91, 
			 "cosmo_cavitation_energy": 20.29, 
			 "cosmo_dispersion_energy": -15.64, 
			 "cosmo_repulsion_energy": 1.26, 
			 "cosmo_total_nonelectrostatic_energy": 5.92, 
			 "SMD_solvation_energy": 1.78 
		},
		"coords": [
			{
				"x": -1.0707088279,
				"y": -0.4215129237,
				"z": 2.4176754892,
				"element": "N" 
			},
			{
				"x": -1.0965113856,
				"y": 0.2110997734,
				"z": 1.1682831468,
				"element": "C" 
			},
			{
				"x": -1.6896741463,
				"y": -0.3954615941,
				"z": 0.0628894885,
				"element": "C" 
			},
			{
				"x": -1.6172445342,
				"y": 0.2695380587,
				"z": -1.1704374272,
				"element": "C" 
			},
			{
				"x": -0.9715382588,
				"y": 1.515422006,
				"z": -1.2897350143,
				"element": "C" 
			},
			{
				"x": -1.1255289017,
				"y": 1.8180188261,
				"z": -2.6151024816,
				"element": "N" 
			},
			{
				"x": -1.8116292724,
				"y": 0.8363565105,
				"z": -3.2609117087,
				"element": "N" 
			},
			{
				"x": -2.110774307,
				"y": -0.0918601058,
				"z": -2.4092572825,
				"element": "N" 
			},
			{
				"x": -0.3730280787,
				"y": 2.1396016101,
				"z": -0.1865963814,
				"element": "C" 
			},
			{
				"x": -0.445094634,
				"y": 1.4718537993,
				"z": 1.0239312573,
				"element": "C" 
			},
			{
				"x": -1.7777266279,
				"y": -1.1333704871,
				"z": 2.5429260966,
				"element": "H" 
			},
			{
				"x": -1.0368653866,
				"y": 0.205376509,
				"z": 3.2102069083,
				"element": "H" 
			},
			{
				"x": -2.1920234349,
				"y": -1.354485416,
				"z": 0.1415274791,
				"element": "H" 
			},
			{
				"x": -0.8126025473,
				"y": 2.6207738686,
				"z": -3.138738219,
				"element": "H" 
			},
			{
				"x": 0.1272495092,
				"y": 3.0995461058,
				"z": -0.263603297,
				"element": "H" 
			},
			{
				"x": 0.0171008342,
				"y": 1.9162034592,
				"z": 1.9017419458,
				"element": "H" 
			}
		],
		 "valence_orbital": [ 
			{
				"type": "occ",
				"energy": -0.31949,
				"method": "rhf"
			},
			{
				"type": "occ",
				"energy": -0.29917,
				"method": "rhf"
			},
			{
				"type": "occ",
				"energy": -0.26033,
				"method": "rhf"
			},
			{
				"type": "occ",
				"energy": -0.24341,
				"method": "rhf"
			},
			{
				"type": "occ",
				"energy": -0.20302,
				"method": "rhf"
			},
			{
				"type": "unocc",
				"energy": -0.03717,
				"method": "rhf"
			},
			{
				"type": "unocc",
				"energy": 0.02577,
				"method": "rhf"
			},
			{
				"type": "unocc",
				"energy": 0.0412,
				"method": "rhf"
			},
			{
				"type": "unocc",
				"energy": 0.07576,
				"method": "rhf"
			},
			{
				"type": "unocc",
				"energy": 0.08272,
				"method": "rhf"
			}
		],
		"cosmo_sigma_profile": { 
			"-0.025": 0.0,
			"-0.024": 0.0,
			"-0.023": 0.0,
			"-0.022": 0.0,
			"-0.021": 0.0,
			"-0.02": 0.0,
			"-0.019": 0.0,
			"-0.018": 0.302731292305,
			"-0.017": 1.8815867321,
			"-0.016": 1.28252924236,
			"-0.015": 1.08732139589,
			"-0.014": 0.885882767478,
			"-0.013": 1.55188589717,
			"-0.012": 3.99032968639,
			"-0.011": 4.1729967725,
			"-0.01": 3.85321228604,
			"-0.009": 3.98212347824,
			"-0.008": 5.48221884101,
			"-0.007": 7.85903160227,
			"-0.006": 6.70650989696,
			"-0.005": 6.85962107479,
			"-0.004": 5.81870451312,
			"-0.003": 4.7308067257,
			"-0.002": 5.11983108407,
			"-0.001": 5.23728661766,
			"0.0": 6.66549015291,
			"0.001": 9.99062251309,
			"0.002": 9.4711476292,
			"0.003": 10.0496752786,
			"0.004": 14.4166470652,
			"0.005": 8.58067222317,
			"0.006": 3.10626475174,
			"0.007": 2.97376693278,
			"0.008": 2.62587501595,
			"0.009": 3.42077873977,
			"0.01": 4.19390800501,
			"0.011": 4.33353833513,
			"0.012": 3.59486606094,
			"0.013": 3.43401903894,
			"0.014": 2.14298417741,
			"0.015": 1.31191618284,
			"0.016": 1.05731300477,
			"0.017": 0.146689055491,
			"0.018": 0.0,
			"0.019": 0.0,
			"0.02": 0.0,
			"0.021": 0.0,
			"0.022": 0.0,
			"0.023": 0.0,
			"0.024": 0.0,
			"0.025": 0.0
		}
	}
}
