{
	 "smiles": "CC1=CC(O)=C(C=C1)C(=O)NN", 
	 "Tm": 447.15, 
	 "num_atms": 22, 
	 "gaussian": { 
		 "optdone": 1, 
		 "sigma_profile": "yes", 
		 "theory": "DFT", 
		 "functional": "B3LYP", 
		 "basiset": "6-31G**", 
		 "properties": { 
			 "R2extent": 3617.2252, 
			 "electric_dipole_moment_norm": 4.07193236437, 
			 "electric_quadrupole_moment_norm": 26.7374171711, 
			 "total_energy": -570.814191392, 
			 "HOMO_LUMO_gap": 0.18082, 
			 "cosmo_polarized_energy": -18.15, 
			 "cosmo_cavitation_energy": 25.47, 
			 "cosmo_dispersion_energy": -19.19, 
			 "cosmo_repulsion_energy": 1.54, 
			 "cosmo_total_nonelectrostatic_energy": 7.82, 
			 "SMD_solvation_energy": 6.02 
		},
		"coords": [
			{
				"x": -0.0693707977,
				"y": -4.2689157616,
				"z": -1.9876251298,
				"element": "C" 
			},
			{
				"x": -0.3566804637,
				"y": -2.7900157928,
				"z": -2.0758753356,
				"element": "C" 
			},
			{
				"x": -0.5279617269,
				"y": -2.0227497709,
				"z": -0.9314650081,
				"element": "C" 
			},
			{
				"x": -0.7939831507,
				"y": -0.640869343,
				"z": -0.9811600166,
				"element": "C" 
			},
			{
				"x": -0.936854819,
				"y": -0.0372774178,
				"z": 0.2141554315,
				"element": "O" 
			},
			{
				"x": -0.916078169,
				"y": -0.0007277164,
				"z": -2.2424701702,
				"element": "C" 
			},
			{
				"x": -0.7351188518,
				"y": -0.8011477144,
				"z": -3.3951234745,
				"element": "C" 
			},
			{
				"x": -0.4530494891,
				"y": -2.1515866962,
				"z": -3.3276136232,
				"element": "C" 
			},
			{
				"x": -1.3316338458,
				"y": 1.4020176065,
				"z": -2.5575513776,
				"element": "C" 
			},
			{
				"x": -1.7183364776,
				"y": 1.7134507606,
				"z": -3.6811208643,
				"element": "O" 
			},
			{
				"x": -1.3531086538,
				"y": 2.4371302257,
				"z": -1.6128599417,
				"element": "N" 
			},
			{
				"x": -0.5068965631,
				"y": 2.4815261032,
				"z": -0.4847192282,
				"element": "N" 
			},
			{
				"x": 0.8679818027,
				"y": -4.5201812957,
				"z": -2.4972732431,
				"element": "H" 
			},
			{
				"x": 0.0092551557,
				"y": -4.6033600239,
				"z": -0.9499895388,
				"element": "H" 
			},
			{
				"x": -0.8615605855,
				"y": -4.8523933916,
				"z": -2.4713365825,
				"element": "H" 
			},
			{
				"x": -0.4536523143,
				"y": -2.4694457701,
				"z": 0.0554104799,
				"element": "H" 
			},
			{
				"x": -0.7467124269,
				"y": 0.9294616443,
				"z": 0.0999207688,
				"element": "H" 
			},
			{
				"x": -0.8454413231,
				"y": -0.3097720866,
				"z": -4.3549202216,
				"element": "H" 
			},
			{
				"x": -0.3172249024,
				"y": -2.7234081808,
				"z": -4.2414887732,
				"element": "H" 
			},
			{
				"x": -1.5251053579,
				"y": 3.318042745,
				"z": -2.0894116087,
				"element": "H" 
			},
			{
				"x": 0.4160768182,
				"y": 2.8553575745,
				"z": -0.7101366991,
				"element": "H" 
			},
			{
				"x": -0.9364438581,
				"y": 3.0749643019,
				"z": 0.2203541567,
				"element": "H" 
			}
		],
		 "valence_orbital": [ 
			{
				"type": "occ",
				"energy": -0.30146,
				"method": "rhf"
			},
			{
				"type": "occ",
				"energy": -0.27149,
				"method": "rhf"
			},
			{
				"type": "occ",
				"energy": -0.25422,
				"method": "rhf"
			},
			{
				"type": "occ",
				"energy": -0.23678,
				"method": "rhf"
			},
			{
				"type": "occ",
				"energy": -0.21126,
				"method": "rhf"
			},
			{
				"type": "unocc",
				"energy": -0.03044,
				"method": "rhf"
			},
			{
				"type": "unocc",
				"energy": 0.01868,
				"method": "rhf"
			},
			{
				"type": "unocc",
				"energy": 0.04141,
				"method": "rhf"
			},
			{
				"type": "unocc",
				"energy": 0.06127,
				"method": "rhf"
			},
			{
				"type": "unocc",
				"energy": 0.10086,
				"method": "rhf"
			}
		],
		"cosmo_sigma_profile": { 
			"-0.025": 0.0,
			"-0.024": 0.0,
			"-0.023": 0.0,
			"-0.022": 0.0,
			"-0.021": 0.0,
			"-0.02": 0.0,
			"-0.019": 0.0,
			"-0.018": 0.0,
			"-0.017": 0.0,
			"-0.016": 0.0,
			"-0.015": 0.0,
			"-0.014": 2.26067675368,
			"-0.013": 6.2644522849,
			"-0.012": 6.37526313691,
			"-0.011": 5.58587943536,
			"-0.01": 3.18344574661,
			"-0.009": 1.97480346342,
			"-0.008": 1.9963284739,
			"-0.007": 2.4244654306,
			"-0.006": 2.4570321091,
			"-0.005": 6.95596996359,
			"-0.004": 14.0586221776,
			"-0.003": 12.8412827346,
			"-0.002": 13.4215628359,
			"-0.001": 12.9157056385,
			"0.0": 15.4122480311,
			"0.001": 11.4763670377,
			"0.002": 10.231831198,
			"0.003": 10.951058111,
			"0.004": 13.2282974524,
			"0.005": 13.5740643176,
			"0.006": 6.61455196699,
			"0.007": 3.46942626147,
			"0.008": 2.99475918039,
			"0.009": 2.29665869503,
			"0.01": 3.26775844705,
			"0.011": 3.54466895228,
			"0.012": 3.98926497154,
			"0.013": 5.7165585801,
			"0.014": 2.02762640873,
			"0.015": 0.0,
			"0.016": 0.0,
			"0.017": 0.0,
			"0.018": 0.0,
			"0.019": 0.0,
			"0.02": 0.0,
			"0.021": 0.0,
			"0.022": 0.0,
			"0.023": 0.0,
			"0.024": 0.0,
			"0.025": 0.0
		}
	}
}
