{
	 "smiles": "NC(=O)CCNCC1=CC=CC=C1", 
	 "Tm": 438.15, 
	 "num_atms": 27, 
	 "gaussian": { 
		 "optdone": 1, 
		 "sigma_profile": "yes", 
		 "theory": "DFT", 
		 "functional": "B3LYP", 
		 "basiset": "6-31G**", 
		 "properties": { 
			 "R2extent": 3280.3972, 
			 "electric_dipole_moment_norm": 4.28870288199, 
			 "electric_quadrupole_moment_norm": 15.3055877826, 
			 "total_energy": -574.240126273, 
			 "HOMO_LUMO_gap": 0.2124, 
			 "cosmo_polarized_energy": -15.38, 
			 "cosmo_cavitation_energy": 30.03, 
			 "cosmo_dispersion_energy": -20.92, 
			 "cosmo_repulsion_energy": 1.69, 
			 "cosmo_total_nonelectrostatic_energy": 10.8, 
			 "SMD_solvation_energy": 3.18 
		},
		"coords": [
			{
				"x": -0.7778892187,
				"y": -0.7645073012,
				"z": 2.08310367,
				"element": "N" 
			},
			{
				"x": -2.0486093121,
				"y": -0.2587190317,
				"z": 2.2119573725,
				"element": "C" 
			},
			{
				"x": -2.7523087259,
				"y": -0.5267094673,
				"z": 3.1736145037,
				"element": "O" 
			},
			{
				"x": -2.5425878968,
				"y": 0.6654827735,
				"z": 1.094586547,
				"element": "C" 
			},
			{
				"x": -1.4963823414,
				"y": 1.2800829537,
				"z": 0.1626493616,
				"element": "C" 
			},
			{
				"x": -0.6262651926,
				"y": 2.212001445,
				"z": 0.8756909173,
				"element": "N" 
			},
			{
				"x": 0.4884011092,
				"y": 2.7354800684,
				"z": 0.0786458167,
				"element": "C" 
			},
			{
				"x": 1.4775084449,
				"y": 1.696215192,
				"z": -0.4370727389,
				"element": "C" 
			},
			{
				"x": 2.3147838803,
				"y": 1.0126328138,
				"z": 0.4588393842,
				"element": "C" 
			},
			{
				"x": 3.1994843543,
				"y": 0.0324041078,
				"z": 0.0088066848,
				"element": "C" 
			},
			{
				"x": 3.2636446536,
				"y": -0.2819190354,
				"z": -1.3517044744,
				"element": "C" 
			},
			{
				"x": 2.4394849776,
				"y": 0.3912318951,
				"z": -2.2536630566,
				"element": "C" 
			},
			{
				"x": 1.5535939373,
				"y": 1.370676791,
				"z": -1.7966260321,
				"element": "C" 
			},
			{
				"x": -0.5055188953,
				"y": -1.4675500312,
				"z": 2.7545932043,
				"element": "H" 
			},
			{
				"x": -0.2539025103,
				"y": -0.7037918446,
				"z": 1.2235697302,
				"element": "H" 
			},
			{
				"x": -3.2569485063,
				"y": 0.0790651972,
				"z": 0.5031606752,
				"element": "H" 
			},
			{
				"x": -3.1186327418,
				"y": 1.4535239679,
				"z": 1.5875563861,
				"element": "H" 
			},
			{
				"x": -2.0164215907,
				"y": 1.8406139598,
				"z": -0.6252090642,
				"element": "H" 
			},
			{
				"x": -0.9465071541,
				"y": 0.4770599916,
				"z": -0.3654697217,
				"element": "H" 
			},
			{
				"x": -0.2594191246,
				"y": 1.759829646,
				"z": 1.710171937,
				"element": "H" 
			},
			{
				"x": 0.0674123487,
				"y": 3.2888590711,
				"z": -0.7696520119,
				"element": "H" 
			},
			{
				"x": 1.0168972205,
				"y": 3.4671800465,
				"z": 0.7012775494,
				"element": "H" 
			},
			{
				"x": 2.2809057045,
				"y": 1.2590177268,
				"z": 1.5184356964,
				"element": "H" 
			},
			{
				"x": 3.8460836433,
				"y": -0.47942159,
				"z": 0.7164022808,
				"element": "H" 
			},
			{
				"x": 3.9543978704,
				"y": -1.0424053223,
				"z": -1.7042356568,
				"element": "H" 
			},
			{
				"x": 2.4840937901,
				"y": 0.1549518009,
				"z": -3.3132076452,
				"element": "H" 
			},
			{
				"x": 0.9154012758,
				"y": 1.8933141756,
				"z": -2.5055213155,
				"element": "H" 
			}
		],
		 "valence_orbital": [ 
			{
				"type": "occ",
				"energy": -0.26802,
				"method": "rhf"
			},
			{
				"type": "occ",
				"energy": -0.25907,
				"method": "rhf"
			},
			{
				"type": "occ",
				"energy": -0.25388,
				"method": "rhf"
			},
			{
				"type": "occ",
				"energy": -0.242,
				"method": "rhf"
			},
			{
				"type": "occ",
				"energy": -0.22572,
				"method": "rhf"
			},
			{
				"type": "unocc",
				"energy": -0.01332,
				"method": "rhf"
			},
			{
				"type": "unocc",
				"energy": -0.00895,
				"method": "rhf"
			},
			{
				"type": "unocc",
				"energy": 0.03129,
				"method": "rhf"
			},
			{
				"type": "unocc",
				"energy": 0.06983,
				"method": "rhf"
			},
			{
				"type": "unocc",
				"energy": 0.08549,
				"method": "rhf"
			}
		],
		"cosmo_sigma_profile": { 
			"-0.025": 0.0,
			"-0.024": 0.0,
			"-0.023": 0.0,
			"-0.022": 0.0,
			"-0.021": 0.0,
			"-0.02": 0.0,
			"-0.019": 0.0,
			"-0.018": 0.0,
			"-0.017": 0.0,
			"-0.016": 0.0,
			"-0.015": 0.0,
			"-0.014": 0.398011416465,
			"-0.013": 1.13734252583,
			"-0.012": 0.982407372561,
			"-0.011": 1.75805505476,
			"-0.01": 1.62107651345,
			"-0.009": 2.03551918343,
			"-0.008": 3.55840391478,
			"-0.007": 4.18283428836,
			"-0.006": 7.88568391043,
			"-0.005": 18.7490209798,
			"-0.004": 26.1161713948,
			"-0.003": 25.8606920392,
			"-0.002": 21.1583747512,
			"-0.001": 18.6420613801,
			"0.0": 14.4919568226,
			"0.001": 11.2152860236,
			"0.002": 11.2971123957,
			"0.003": 9.37611002755,
			"0.004": 10.283776268,
			"0.005": 9.83044872978,
			"0.006": 8.31198825162,
			"0.007": 2.50697939624,
			"0.008": 2.51776308879,
			"0.009": 1.64519041705,
			"0.01": 1.95367677923,
			"0.011": 1.63266081414,
			"0.012": 2.41202314291,
			"0.013": 3.78990668266,
			"0.014": 6.55420023757,
			"0.015": 2.88941180034,
			"0.016": 0.704991075531,
			"0.017": 0.28694616795,
			"0.018": 0.273775511529,
			"0.019": 0.0,
			"0.02": 0.0,
			"0.021": 0.0,
			"0.022": 0.0,
			"0.023": 0.0,
			"0.024": 0.0,
			"0.025": 0.0
		}
	}
}
