{
	 "smiles": "OCCN(CCO)C(=O)COC(=O)C1=CC=CC=C1", 
	 "Tm": 354.15, 
	 "num_atms": 36, 
	 "gaussian": { 
		 "optdone": 1, 
		 "sigma_profile": "yes", 
		 "theory": "DFT", 
		 "functional": "B3LYP", 
		 "basiset": "6-31G**", 
		 "properties": { 
			 "R2extent": 6302.9759, 
			 "electric_dipole_moment_norm": 4.27959136133, 
			 "electric_quadrupole_moment_norm": 12.9423620738, 
			 "total_energy": -936.494732156, 
			 "HOMO_LUMO_gap": 0.18995, 
			 "cosmo_polarized_energy": -19.47, 
			 "cosmo_cavitation_energy": 39.12, 
			 "cosmo_dispersion_energy": -26.43, 
			 "cosmo_repulsion_energy": 2.08, 
			 "cosmo_total_nonelectrostatic_energy": 14.77, 
			 "SMD_solvation_energy": 7.86 
		},
		"coords": [
			{
				"x": 0.5055151952,
				"y": 0.9697335799,
				"z": 3.5066701744,
				"element": "O" 
			},
			{
				"x": 0.6689369608,
				"y": 2.3433608642,
				"z": 3.1665996229,
				"element": "C" 
			},
			{
				"x": 1.4702196874,
				"y": 2.4447392419,
				"z": 1.8731806323,
				"element": "C" 
			},
			{
				"x": 0.7617065996,
				"y": 1.9772354782,
				"z": 0.6744277825,
				"element": "N" 
			},
			{
				"x": 1.2031098287,
				"y": 0.7384672396,
				"z": 0.0345638347,
				"element": "C" 
			},
			{
				"x": 0.6700921496,
				"y": -0.5303789024,
				"z": 0.7035016432,
				"element": "C" 
			},
			{
				"x": 1.1197250777,
				"y": -1.6105380232,
				"z": -0.1075291308,
				"element": "O" 
			},
			{
				"x": -0.1885362568,
				"y": 2.8217336264,
				"z": 0.1687905197,
				"element": "C" 
			},
			{
				"x": -0.4443279599,
				"y": 3.9033778495,
				"z": 0.6967684184,
				"element": "O" 
			},
			{
				"x": -0.9262094429,
				"y": 2.4391694944,
				"z": -1.1179022264,
				"element": "C" 
			},
			{
				"x": -1.6393022965,
				"y": 1.1966039865,
				"z": -0.968379761,
				"element": "O" 
			},
			{
				"x": -1.5932664855,
				"y": 0.3237138328,
				"z": -2.0115475534,
				"element": "C" 
			},
			{
				"x": -0.9289325529,
				"y": 0.511368834,
				"z": -3.0114718802,
				"element": "O" 
			},
			{
				"x": -2.4389041053,
				"y": -0.8785021333,
				"z": -1.7755723574,
				"element": "C" 
			},
			{
				"x": -3.2753475106,
				"y": -1.001110775,
				"z": -0.6566039233,
				"element": "C" 
			},
			{
				"x": -4.052316118,
				"y": -2.1471491695,
				"z": -0.4939743432,
				"element": "C" 
			},
			{
				"x": -3.9982488764,
				"y": -3.1713224848,
				"z": -1.4427165502,
				"element": "C" 
			},
			{
				"x": -3.1667380923,
				"y": -3.0496328258,
				"z": -2.559673574,
				"element": "C" 
			},
			{
				"x": -2.3904112012,
				"y": -1.9060578666,
				"z": -2.7280438635,
				"element": "C" 
			},
			{
				"x": -0.1646669197,
				"y": 0.9077452107,
				"z": 4.1973718842,
				"element": "H" 
			},
			{
				"x": -0.2935823874,
				"y": 2.8494165811,
				"z": 3.0288289384,
				"element": "H" 
			},
			{
				"x": 1.2252814488,
				"y": 2.8808381029,
				"z": 3.951624944,
				"element": "H" 
			},
			{
				"x": 2.3860241326,
				"y": 1.8550705036,
				"z": 1.9716498563,
				"element": "H" 
			},
			{
				"x": 1.7418806418,
				"y": 3.4949025152,
				"z": 1.7273190214,
				"element": "H" 
			},
			{
				"x": 2.29892487,
				"y": 0.7115082989,
				"z": 0.0431481028,
				"element": "H" 
			},
			{
				"x": 0.9049916009,
				"y": 0.7290763902,
				"z": -1.0147161353,
				"element": "H" 
			},
			{
				"x": -0.4266830536,
				"y": -0.4777782214,
				"z": 0.7476955314,
				"element": "H" 
			},
			{
				"x": 1.0400909565,
				"y": -0.5981224972,
				"z": 1.7337304826,
				"element": "H" 
			},
			{
				"x": 0.8282533078,
				"y": -2.4336285016,
				"z": 0.3018069753,
				"element": "H" 
			},
			{
				"x": -1.6552336221,
				"y": 3.2318833281,
				"z": -1.2928457204,
				"element": "H" 
			},
			{
				"x": -0.2528275772,
				"y": 2.369392493,
				"z": -1.976401614,
				"element": "H" 
			},
			{
				"x": -3.3156781527,
				"y": -0.1989214391,
				"z": 0.071138306,
				"element": "H" 
			},
			{
				"x": -4.7025403919,
				"y": -2.2403376199,
				"z": 0.3708874099,
				"element": "H" 
			},
			{
				"x": -4.6055442687,
				"y": -4.0627466032,
				"z": -1.3130942781,
				"element": "H" 
			},
			{
				"x": -3.1257861069,
				"y": -3.8453898986,
				"z": -3.2974670379,
				"element": "H" 
			},
			{
				"x": -1.738669079,
				"y": -1.7872204896,
				"z": -3.5867641316,
				"element": "H" 
			}
		],
		 "valence_orbital": [ 
			{
				"type": "occ",
				"energy": -0.26485,
				"method": "rhf"
			},
			{
				"type": "occ",
				"energy": -0.2632,
				"method": "rhf"
			},
			{
				"type": "occ",
				"energy": -0.2612,
				"method": "rhf"
			},
			{
				"type": "occ",
				"energy": -0.24818,
				"method": "rhf"
			},
			{
				"type": "occ",
				"energy": -0.24064,
				"method": "rhf"
			},
			{
				"type": "unocc",
				"energy": -0.05069,
				"method": "rhf"
			},
			{
				"type": "unocc",
				"energy": -0.01243,
				"method": "rhf"
			},
			{
				"type": "unocc",
				"energy": 0.01278,
				"method": "rhf"
			},
			{
				"type": "unocc",
				"energy": 0.05297,
				"method": "rhf"
			},
			{
				"type": "unocc",
				"energy": 0.07069,
				"method": "rhf"
			}
		],
		"cosmo_sigma_profile": { 
			"-0.025": 0.0,
			"-0.024": 0.0,
			"-0.023": 0.0,
			"-0.022": 0.0,
			"-0.021": 0.0,
			"-0.02": 0.0,
			"-0.019": 0.0,
			"-0.018": 0.0,
			"-0.017": 0.0,
			"-0.016": 1.0407961007,
			"-0.015": 2.24614860152,
			"-0.014": 1.62011283967,
			"-0.013": 2.12439144524,
			"-0.012": 2.09722131289,
			"-0.011": 1.39174929932,
			"-0.01": 1.18886360115,
			"-0.009": 1.59193332896,
			"-0.008": 2.56766488544,
			"-0.007": 7.81257740808,
			"-0.006": 18.7158334684,
			"-0.005": 20.5697619795,
			"-0.004": 26.0912245414,
			"-0.003": 23.69821522,
			"-0.002": 23.3972075677,
			"-0.001": 20.7460074584,
			"0.0": 20.1416135275,
			"0.001": 16.9455851233,
			"0.002": 19.9358865926,
			"0.003": 21.2079898502,
			"0.004": 17.3635368078,
			"0.005": 6.19238700173,
			"0.006": 6.88338782914,
			"0.007": 5.98045327533,
			"0.008": 5.6909608193,
			"0.009": 4.25294301052,
			"0.01": 5.39620702433,
			"0.011": 6.74314627041,
			"0.012": 4.55580786279,
			"0.013": 6.16369932244,
			"0.014": 3.81747401367,
			"0.015": 0.207563567675,
			"0.016": 0.0,
			"0.017": 0.0,
			"0.018": 0.0,
			"0.019": 0.0,
			"0.02": 0.0,
			"0.021": 0.0,
			"0.022": 0.0,
			"0.023": 0.0,
			"0.024": 0.0,
			"0.025": 0.0
		}
	}
}
