{
	 "smiles": "CC1=C(C)C(=C(C(=C1C)N(=O)=O)C(C)(C)C)N(=O)=O", 
	 "Tm": 409.15, 
	 "num_atms": 37, 
	 "gaussian": { 
		 "optdone": 1, 
		 "sigma_profile": "yes", 
		 "theory": "DFT", 
		 "functional": "B3LYP", 
		 "basiset": "6-31G**", 
		 "properties": { 
			 "R2extent": 4965.1391, 
			 "electric_dipole_moment_norm": 3.60013352808, 
			 "electric_quadrupole_moment_norm": 20.4766536668, 
			 "total_energy": -916.425393485, 
			 "HOMO_LUMO_gap": 0.17365, 
			 "cosmo_polarized_energy": -10.01, 
			 "cosmo_cavitation_energy": 37.07, 
			 "cosmo_dispersion_energy": -25.68, 
			 "cosmo_repulsion_energy": 1.9, 
			 "cosmo_total_nonelectrostatic_energy": 13.28, 
			 "SMD_solvation_energy": 10.59 
		},
		"coords": [
			{
				"x": 2.7039357977,
				"y": -0.7459566516,
				"z": -2.8291642813,
				"element": "C" 
			},
			{
				"x": 1.4582069005,
				"y": -0.5468734125,
				"z": -1.9923827026,
				"element": "C" 
			},
			{
				"x": 0.7581247027,
				"y": 0.6701593507,
				"z": -2.0377766425,
				"element": "C" 
			},
			{
				"x": 1.178838651,
				"y": 1.764303659,
				"z": -2.997590789,
				"element": "C" 
			},
			{
				"x": -0.3424921484,
				"y": 0.8406692566,
				"z": -1.1849159258,
				"element": "C" 
			},
			{
				"x": -0.8359138975,
				"y": -0.1101268587,
				"z": -0.2697777835,
				"element": "C" 
			},
			{
				"x": -0.1282721969,
				"y": -1.325698208,
				"z": -0.3503525932,
				"element": "C" 
			},
			{
				"x": 0.9806737159,
				"y": -1.5812438419,
				"z": -1.1705929374,
				"element": "C" 
			},
			{
				"x": 1.6439604417,
				"y": -2.9433569885,
				"z": -1.1845597395,
				"element": "C" 
			},
			{
				"x": -0.5472768191,
				"y": -2.5033692481,
				"z": 0.4439454135,
				"element": "N" 
			},
			{
				"x": 0.1566181083,
				"y": -2.822040761,
				"z": 1.3962215227,
				"element": "O" 
			},
			{
				"x": -1.5366457697,
				"y": -3.1214438542,
				"z": 0.0552119645,
				"element": "O" 
			},
			{
				"x": -2.0501494331,
				"y": 0.1383556027,
				"z": 0.6867849794,
				"element": "C" 
			},
			{
				"x": -3.3439655803,
				"y": -0.2752968316,
				"z": -0.0575279703,
				"element": "C" 
			},
			{
				"x": -1.9467958774,
				"y": -0.6647954693,
				"z": 2.012928385,
				"element": "C" 
			},
			{
				"x": -2.1714475306,
				"y": 1.6217559357,
				"z": 1.1331917784,
				"element": "C" 
			},
			{
				"x": -1.0077330696,
				"y": 2.1535321066,
				"z": -1.3500710248,
				"element": "N" 
			},
			{
				"x": -2.0608197842,
				"y": 2.1751967813,
				"z": -1.984510528,
				"element": "O" 
			},
			{
				"x": -0.4323724293,
				"y": 3.138916535,
				"z": -0.9008031828,
				"element": "O" 
			},
			{
				"x": 3.2388182624,
				"y": 0.1935473253,
				"z": -2.9777941719,
				"element": "H" 
			},
			{
				"x": 2.4685756721,
				"y": -1.1494055925,
				"z": -3.8229165887,
				"element": "H" 
			},
			{
				"x": 3.3980385496,
				"y": -1.4399236259,
				"z": -2.3522922406,
				"element": "H" 
			},
			{
				"x": 1.956088533,
				"y": 2.4005388031,
				"z": -2.5591400795,
				"element": "H" 
			},
			{
				"x": 0.3481865962,
				"y": 2.4132648484,
				"z": -3.2774078791,
				"element": "H" 
			},
			{
				"x": 1.5763902372,
				"y": 1.3362795859,
				"z": -3.9193254593,
				"element": "H" 
			},
			{
				"x": 2.0196296336,
				"y": -3.1786901353,
				"z": -2.1817515158,
				"element": "H" 
			},
			{
				"x": 2.4898296927,
				"y": -2.98082768,
				"z": -0.4886647274,
				"element": "H" 
			},
			{
				"x": 0.9571764114,
				"y": -3.7425829638,
				"z": -0.9036019728,
				"element": "H" 
			},
			{
				"x": -4.2099833146,
				"y": -0.1101301841,
				"z": 0.5929844855,
				"element": "H" 
			},
			{
				"x": -3.477755942,
				"y": 0.3173898624,
				"z": -0.9658105311,
				"element": "H" 
			},
			{
				"x": -3.3153800222,
				"y": -1.3330485616,
				"z": -0.3305168773,
				"element": "H" 
			},
			{
				"x": -0.9731119268,
				"y": -0.5391783188,
				"z": 2.49467326,
				"element": "H" 
			},
			{
				"x": -2.7066406759,
				"y": -0.2819807485,
				"z": 2.6989813842,
				"element": "H" 
			},
			{
				"x": -2.1524675529,
				"y": -1.7273014302,
				"z": 1.8986883047,
				"element": "H" 
			},
			{
				"x": -2.8985882198,
				"y": 1.6703628314,
				"z": 1.9477506619,
				"element": "H" 
			},
			{
				"x": -2.5463371727,
				"y": 2.2840870357,
				"z": 0.355365408,
				"element": "H" 
			},
			{
				"x": -1.2241425429,
				"y": 2.0157118463,
				"z": 1.5118205965,
				"element": "H" 
			}
		],
		 "valence_orbital": [ 
			{
				"type": "occ",
				"energy": -0.31457,
				"method": "rhf"
			},
			{
				"type": "occ",
				"energy": -0.30583,
				"method": "rhf"
			},
			{
				"type": "occ",
				"energy": -0.30551,
				"method": "rhf"
			},
			{
				"type": "occ",
				"energy": -0.26103,
				"method": "rhf"
			},
			{
				"type": "occ",
				"energy": -0.26075,
				"method": "rhf"
			},
			{
				"type": "unocc",
				"energy": -0.0871,
				"method": "rhf"
			},
			{
				"type": "unocc",
				"energy": -0.0814,
				"method": "rhf"
			},
			{
				"type": "unocc",
				"energy": -0.03402,
				"method": "rhf"
			},
			{
				"type": "unocc",
				"energy": -0.03162,
				"method": "rhf"
			},
			{
				"type": "unocc",
				"energy": 0.07183,
				"method": "rhf"
			}
		],
		"cosmo_sigma_profile": { 
			"-0.025": 0.0,
			"-0.024": 0.0,
			"-0.023": 0.0,
			"-0.022": 0.0,
			"-0.021": 0.0,
			"-0.02": 0.0,
			"-0.019": 0.0,
			"-0.018": 0.0,
			"-0.017": 0.0,
			"-0.016": 0.0,
			"-0.015": 0.0,
			"-0.014": 0.0,
			"-0.013": 0.0,
			"-0.012": 0.0,
			"-0.011": 0.0,
			"-0.01": 0.0,
			"-0.009": 0.0,
			"-0.008": 0.0,
			"-0.007": 0.0,
			"-0.006": 3.12007951244,
			"-0.005": 23.074565813,
			"-0.004": 30.5281077988,
			"-0.003": 29.0012896217,
			"-0.002": 32.1933302724,
			"-0.001": 35.6262467074,
			"0.0": 37.9503287953,
			"0.001": 24.1356362581,
			"0.002": 10.3251398692,
			"0.003": 8.87881263906,
			"0.004": 5.99859829974,
			"0.005": 6.95747247525,
			"0.006": 11.2485905518,
			"0.007": 17.6433152245,
			"0.008": 8.71290140236,
			"0.009": 5.29272205932,
			"0.01": 0.260805004625,
			"0.011": 0.0,
			"0.012": 0.0,
			"0.013": 0.0,
			"0.014": 0.0,
			"0.015": 0.0,
			"0.016": 0.0,
			"0.017": 0.0,
			"0.018": 0.0,
			"0.019": 0.0,
			"0.02": 0.0,
			"0.021": 0.0,
			"0.022": 0.0,
			"0.023": 0.0,
			"0.024": 0.0,
			"0.025": 0.0
		}
	}
}
