{
	 "smiles": "CSC(SC)=CC(=C(C#N)C#N)C1=CC=C(Br)C=C1", 
	 "Tm": 413.15, 
	 "num_atms": 30, 
	 "gaussian": { 
		 "optdone": 1, 
		 "sigma_profile": "yes", 
		 "theory": "DFT", 
		 "functional": "B3LYP", 
		 "basiset": "6-31G**", 
		 "properties": { 
			 "R2extent": 10552.6982, 
			 "electric_dipole_moment_norm": 5.99766760166, 
			 "electric_quadrupole_moment_norm": 26.4044209675, 
			 "total_energy": -4017.31840691, 
			 "HOMO_LUMO_gap": 0.13637, 
			 "cosmo_polarized_energy": -16.55, 
			 "cosmo_cavitation_energy": 41.93, 
			 "cosmo_dispersion_energy": -28.44, 
			 "cosmo_repulsion_energy": 2.17, 
			 "cosmo_total_nonelectrostatic_energy": 15.66, 
			 "SMD_solvation_energy": 8.65 
		},
		"coords": [
			{
				"x": -4.208160475,
				"y": 2.6795752292,
				"z": -0.3450132886,
				"element": "C" 
			},
			{
				"x": -2.383011964,
				"y": 2.6804731008,
				"z": -0.1886643324,
				"element": "S" 
			},
			{
				"x": -1.9910373464,
				"y": 0.9337377274,
				"z": -0.2696376485,
				"element": "C" 
			},
			{
				"x": -2.6129123359,
				"y": -0.0464413,
				"z": -1.6183463055,
				"element": "S" 
			},
			{
				"x": -2.2190258815,
				"y": 1.0119122044,
				"z": -3.0623143251,
				"element": "C" 
			},
			{
				"x": -1.1594347611,
				"y": 0.4597871832,
				"z": 0.6940011909,
				"element": "C" 
			},
			{
				"x": -0.4954285483,
				"y": -0.8421178057,
				"z": 0.7889781159,
				"element": "C" 
			},
			{
				"x": -1.177342694,
				"y": -2.0337193991,
				"z": 0.7253677433,
				"element": "C" 
			},
			{
				"x": -2.6082188795,
				"y": -2.0978732139,
				"z": 0.6827494102,
				"element": "C" 
			},
			{
				"x": -3.7690047391,
				"y": -2.1831742228,
				"z": 0.6975627319,
				"element": "N" 
			},
			{
				"x": -0.5307184421,
				"y": -3.3099421658,
				"z": 0.8294266977,
				"element": "C" 
			},
			{
				"x": -0.0454724586,
				"y": -4.3645017468,
				"z": 0.9094136338,
				"element": "N" 
			},
			{
				"x": 0.9763731453,
				"y": -0.8001238966,
				"z": 1.0056843066,
				"element": "C" 
			},
			{
				"x": 1.5294768396,
				"y": 0.0112815952,
				"z": 2.0117568786,
				"element": "C" 
			},
			{
				"x": 2.9060898235,
				"y": 0.0682628111,
				"z": 2.2096713246,
				"element": "C" 
			},
			{
				"x": 3.7464012773,
				"y": -0.6753315119,
				"z": 1.3811938311,
				"element": "C" 
			},
			{
				"x": 5.6331286415,
				"y": -0.588183066,
				"z": 1.6370875377,
				"element": "Br" 
			},
			{
				"x": 3.2252726304,
				"y": -1.4778374821,
				"z": 0.3680068842,
				"element": "C" 
			},
			{
				"x": 1.8454418977,
				"y": -1.5399387847,
				"z": 0.187086646,
				"element": "C" 
			},
			{
				"x": -4.6650924633,
				"y": 2.1408773023,
				"z": 0.4862558498,
				"element": "H" 
			},
			{
				"x": -4.5059944822,
				"y": 3.7298744189,
				"z": -0.3087424552,
				"element": "H" 
			},
			{
				"x": -4.5284717865,
				"y": 2.2429586446,
				"z": -1.2917017444,
				"element": "H" 
			},
			{
				"x": -2.580415538,
				"y": 0.4551011807,
				"z": -3.9298616982,
				"element": "H" 
			},
			{
				"x": -2.7273980924,
				"y": 1.9747707536,
				"z": -3.0100563212,
				"element": "H" 
			},
			{
				"x": -1.1422320572,
				"y": 1.1633719592,
				"z": -3.1514175757,
				"element": "H" 
			},
			{
				"x": -0.8527808055,
				"y": 1.1841787515,
				"z": 1.4459067553,
				"element": "H" 
			},
			{
				"x": 0.884358642,
				"y": 0.582891332,
				"z": 2.6714175725,
				"element": "H" 
			},
			{
				"x": 3.3220352442,
				"y": 0.6826109561,
				"z": 2.9997411976,
				"element": "H" 
			},
			{
				"x": 3.8871207148,
				"y": -2.0474223138,
				"z": -0.273877606,
				"element": "H" 
			},
			{
				"x": 1.4458548945,
				"y": -2.1582582412,
				"z": -0.6089750071,
				"element": "H" 
			}
		],
		 "valence_orbital": [ 
			{
				"type": "occ",
				"energy": -0.2856,
				"method": "rhf"
			},
			{
				"type": "occ",
				"energy": -0.28264,
				"method": "rhf"
			},
			{
				"type": "occ",
				"energy": -0.25717,
				"method": "rhf"
			},
			{
				"type": "occ",
				"energy": -0.25249,
				"method": "rhf"
			},
			{
				"type": "occ",
				"energy": -0.23865,
				"method": "rhf"
			},
			{
				"type": "unocc",
				"energy": -0.10228,
				"method": "rhf"
			},
			{
				"type": "unocc",
				"energy": -0.03761,
				"method": "rhf"
			},
			{
				"type": "unocc",
				"energy": -0.02847,
				"method": "rhf"
			},
			{
				"type": "unocc",
				"energy": -0.02067,
				"method": "rhf"
			},
			{
				"type": "unocc",
				"energy": -0.00723,
				"method": "rhf"
			}
		],
		"cosmo_sigma_profile": { 
			"-0.025": 0.0,
			"-0.024": 0.0,
			"-0.023": 0.0,
			"-0.022": 0.0,
			"-0.021": 0.0,
			"-0.02": 0.0,
			"-0.019": 0.0,
			"-0.018": 0.0,
			"-0.017": 0.0,
			"-0.016": 0.0,
			"-0.015": 0.0,
			"-0.014": 0.0,
			"-0.013": 0.0,
			"-0.012": 0.0,
			"-0.011": 0.296712896467,
			"-0.01": 1.54285961744,
			"-0.009": 2.64657788251,
			"-0.008": 6.15579310073,
			"-0.007": 14.7728274901,
			"-0.006": 18.8679936353,
			"-0.005": 19.5409189251,
			"-0.004": 24.6607021277,
			"-0.003": 26.7563941266,
			"-0.002": 29.874549147,
			"-0.001": 23.6550145505,
			"0.0": 22.1806397627,
			"0.001": 30.1927070368,
			"0.002": 26.5830663836,
			"0.003": 18.4738489212,
			"0.004": 23.0752311826,
			"0.005": 9.57372578234,
			"0.006": 9.67322176075,
			"0.007": 8.61766695706,
			"0.008": 7.37076148454,
			"0.009": 5.8635339749,
			"0.01": 5.64289935168,
			"0.011": 4.81032984331,
			"0.012": 3.52906917045,
			"0.013": 0.168842478714,
			"0.014": 0.0,
			"0.015": 0.0,
			"0.016": 0.0,
			"0.017": 0.0,
			"0.018": 0.0,
			"0.019": 0.0,
			"0.02": 0.0,
			"0.021": 0.0,
			"0.022": 0.0,
			"0.023": 0.0,
			"0.024": 0.0,
			"0.025": 0.0
		}
	}
}
