{
	 "smiles": "CC(Cl)C1=NN=C(O1)C1=CC=CS1", 
	 "Tm": 485.15, 
	 "num_atms": 20, 
	 "gaussian": { 
		 "optdone": 1, 
		 "sigma_profile": "yes", 
		 "theory": "DFT", 
		 "functional": "B3LYP", 
		 "basiset": "6-31G**", 
		 "properties": { 
			 "R2extent": 4079.8278, 
			 "electric_dipole_moment_norm": 3.65842518169, 
			 "electric_quadrupole_moment_norm": 17.0745241981, 
			 "total_energy": -1352.13901502, 
			 "HOMO_LUMO_gap": 0.17017, 
			 "cosmo_polarized_energy": -11.26, 
			 "cosmo_cavitation_energy": 28.65, 
			 "cosmo_dispersion_energy": -21.17, 
			 "cosmo_repulsion_energy": 1.65, 
			 "cosmo_total_nonelectrostatic_energy": 9.13, 
			 "SMD_solvation_energy": 2.86 
		},
		"coords": [
			{
				"x": 1.122842541,
				"y": -0.4085102883,
				"z": 3.0623728158,
				"element": "C" 
			},
			{
				"x": -0.3649593502,
				"y": -0.2555577316,
				"z": 2.7631010995,
				"element": "C" 
			},
			{
				"x": -1.0181790235,
				"y": 1.2305954951,
				"z": 3.6320656904,
				"element": "Cl" 
			},
			{
				"x": -0.6797377716,
				"y": -0.1611516995,
				"z": 1.3155739661,
				"element": "C" 
			},
			{
				"x": -1.5299861559,
				"y": -0.8715356801,
				"z": 0.6431033433,
				"element": "N" 
			},
			{
				"x": -1.4596492863,
				"y": -0.4366703179,
				"z": -0.6755921888,
				"element": "N" 
			},
			{
				"x": -0.5659115527,
				"y": 0.5138016042,
				"z": -0.6997963629,
				"element": "C" 
			},
			{
				"x": -0.0214082195,
				"y": 0.7419465106,
				"z": 0.5324875959,
				"element": "O" 
			},
			{
				"x": -0.1216892763,
				"y": 1.2962949943,
				"z": -1.8258046552,
				"element": "C" 
			},
			{
				"x": -0.5643053936,
				"y": 1.1838520901,
				"z": -3.1259006291,
				"element": "C" 
			},
			{
				"x": 0.07260964,
				"y": 2.1022328313,
				"z": -4.0026005193,
				"element": "C" 
			},
			{
				"x": 0.9873939784,
				"y": 2.8981896973,
				"z": -3.362578009,
				"element": "C" 
			},
			{
				"x": 1.0901390078,
				"y": 2.5439557453,
				"z": -1.6723581158,
				"element": "S" 
			},
			{
				"x": 1.6874916833,
				"y": 0.4430843725,
				"z": 2.6767050672,
				"element": "H" 
			},
			{
				"x": 1.4970962171,
				"y": -1.32250166,
				"z": 2.5886814296,
				"element": "H" 
			},
			{
				"x": 1.2849911455,
				"y": -0.480838092,
				"z": 4.1395886872,
				"element": "H" 
			},
			{
				"x": -0.9442795589,
				"y": -1.090740357,
				"z": 3.1566399392,
				"element": "H" 
			},
			{
				"x": -1.3182809974,
				"y": 0.4640679694,
				"z": -3.4202023072,
				"element": "H" 
			},
			{
				"x": -0.1388399264,
				"y": 2.170288532,
				"z": -5.0631665623,
				"element": "H" 
			},
			{
				"x": 1.6088622992,
				"y": 3.6760959843,
				"z": -3.7842202845,
				"element": "H" 
			}
		],
		 "valence_orbital": [ 
			{
				"type": "occ",
				"energy": -0.30538,
				"method": "rhf"
			},
			{
				"type": "occ",
				"energy": -0.30326,
				"method": "rhf"
			},
			{
				"type": "occ",
				"energy": -0.28483,
				"method": "rhf"
			},
			{
				"type": "occ",
				"energy": -0.27085,
				"method": "rhf"
			},
			{
				"type": "occ",
				"energy": -0.23664,
				"method": "rhf"
			},
			{
				"type": "unocc",
				"energy": -0.06647,
				"method": "rhf"
			},
			{
				"type": "unocc",
				"energy": -0.02426,
				"method": "rhf"
			},
			{
				"type": "unocc",
				"energy": 0.01272,
				"method": "rhf"
			},
			{
				"type": "unocc",
				"energy": 0.02406,
				"method": "rhf"
			},
			{
				"type": "unocc",
				"energy": 0.04486,
				"method": "rhf"
			}
		],
		"cosmo_sigma_profile": { 
			"-0.025": 0.0,
			"-0.024": 0.0,
			"-0.023": 0.0,
			"-0.022": 0.0,
			"-0.021": 0.0,
			"-0.02": 0.0,
			"-0.019": 0.0,
			"-0.018": 0.0,
			"-0.017": 0.0,
			"-0.016": 0.0,
			"-0.015": 0.0,
			"-0.014": 0.0,
			"-0.013": 0.0,
			"-0.012": 0.0,
			"-0.011": 0.0,
			"-0.01": 0.937173954457,
			"-0.009": 4.00513851409,
			"-0.008": 5.62635782655,
			"-0.007": 8.08668288981,
			"-0.006": 12.9220608344,
			"-0.005": 15.0153271488,
			"-0.004": 14.0909889363,
			"-0.003": 15.6676252587,
			"-0.002": 17.170856429,
			"-0.001": 16.4419232914,
			"0.0": 15.4986112894,
			"0.001": 22.8759550944,
			"0.002": 22.6615672592,
			"0.003": 17.9779398737,
			"0.004": 9.20161504587,
			"0.005": 11.2084825704,
			"0.006": 5.90125970476,
			"0.007": 2.14320502837,
			"0.008": 2.22137665982,
			"0.009": 1.84272742618,
			"0.01": 3.02703544263,
			"0.011": 3.05390277862,
			"0.012": 2.93489292052,
			"0.013": 2.2625955947,
			"0.014": 1.51767960176,
			"0.015": 0.20011072713,
			"0.016": 0.0,
			"0.017": 0.0,
			"0.018": 0.0,
			"0.019": 0.0,
			"0.02": 0.0,
			"0.021": 0.0,
			"0.022": 0.0,
			"0.023": 0.0,
			"0.024": 0.0,
			"0.025": 0.0
		}
	}
}
