{
	 "smiles": "CN(C)C(=O)C1=NN=C(Cl)C=C1", 
	 "Tm": 411.15, 
	 "num_atms": 20, 
	 "gaussian": { 
		 "optdone": 1, 
		 "sigma_profile": "yes", 
		 "theory": "DFT", 
		 "functional": "B3LYP", 
		 "basiset": "6-31G**", 
		 "properties": { 
			 "R2extent": 3174.9815, 
			 "electric_dipole_moment_norm": 2.28331336001, 
			 "electric_quadrupole_moment_norm": 18.8616382271, 
			 "total_energy": -971.198795421, 
			 "HOMO_LUMO_gap": 0.17648, 
			 "cosmo_polarized_energy": -11.73, 
			 "cosmo_cavitation_energy": 26.1, 
			 "cosmo_dispersion_energy": -19.49, 
			 "cosmo_repulsion_energy": 1.56, 
			 "cosmo_total_nonelectrostatic_energy": 8.17, 
			 "SMD_solvation_energy": 3.57 
		},
		"coords": [
			{
				"x": -2.6457016249,
				"y": -0.0556093672,
				"z": -3.0039539832,
				"element": "C" 
			},
			{
				"x": -1.4523857687,
				"y": 0.0560547472,
				"z": -2.1705533214,
				"element": "N" 
			},
			{
				"x": -0.2152770899,
				"y": -0.349143989,
				"z": -2.8307556855,
				"element": "C" 
			},
			{
				"x": -1.6297643795,
				"y": 0.3657409493,
				"z": -0.8538756576,
				"element": "C" 
			},
			{
				"x": -2.7477397103,
				"y": 0.4996124587,
				"z": -0.3489480823,
				"element": "O" 
			},
			{
				"x": -0.4469731659,
				"y": 0.5902794077,
				"z": 0.0720096051,
				"element": "C" 
			},
			{
				"x": 0.7229268275,
				"y": 1.0238917589,
				"z": -0.401724742,
				"element": "N" 
			},
			{
				"x": 1.726458473,
				"y": 1.3087036953,
				"z": 0.434767012,
				"element": "N" 
			},
			{
				"x": 1.5396600661,
				"y": 1.1490738503,
				"z": 1.7349041875,
				"element": "C" 
			},
			{
				"x": 2.9034670563,
				"y": 1.5320525445,
				"z": 2.7597067066,
				"element": "Cl" 
			},
			{
				"x": 0.3443208092,
				"y": 0.7053513192,
				"z": 2.3189522265,
				"element": "C" 
			},
			{
				"x": -0.6880404564,
				"y": 0.4273831643,
				"z": 1.4498579549,
				"element": "C" 
			},
			{
				"x": -2.8507089793,
				"y": -1.1055438488,
				"z": -3.2504406674,
				"element": "H" 
			},
			{
				"x": -3.4967526777,
				"y": 0.3561829142,
				"z": -2.4659661989,
				"element": "H" 
			},
			{
				"x": -2.4897991957,
				"y": 0.4939591842,
				"z": -3.938798545,
				"element": "H" 
			},
			{
				"x": -0.0070042417,
				"y": 0.3169468086,
				"z": -3.6763499167,
				"element": "H" 
			},
			{
				"x": 0.6282717538,
				"y": -0.3003412017,
				"z": -2.1510512112,
				"element": "H" 
			},
			{
				"x": -0.3259423913,
				"y": -1.3699278156,
				"z": -3.2190851747,
				"element": "H" 
			},
			{
				"x": 0.2514985475,
				"y": 0.6010826718,
				"z": 3.3937605346,
				"element": "H" 
			},
			{
				"x": -1.668213852,
				"y": 0.1077507482,
				"z": 1.7823449585,
				"element": "H" 
			}
		],
		 "valence_orbital": [ 
			{
				"type": "occ",
				"energy": -0.32292,
				"method": "rhf"
			},
			{
				"type": "occ",
				"energy": -0.28785,
				"method": "rhf"
			},
			{
				"type": "occ",
				"energy": -0.26225,
				"method": "rhf"
			},
			{
				"type": "occ",
				"energy": -0.25614,
				"method": "rhf"
			},
			{
				"type": "occ",
				"energy": -0.24738,
				"method": "rhf"
			},
			{
				"type": "unocc",
				"energy": -0.0709,
				"method": "rhf"
			},
			{
				"type": "unocc",
				"energy": -0.06159,
				"method": "rhf"
			},
			{
				"type": "unocc",
				"energy": 0.01872,
				"method": "rhf"
			},
			{
				"type": "unocc",
				"energy": 0.03476,
				"method": "rhf"
			},
			{
				"type": "unocc",
				"energy": 0.09214,
				"method": "rhf"
			}
		],
		"cosmo_sigma_profile": { 
			"-0.025": 0.0,
			"-0.024": 0.0,
			"-0.023": 0.0,
			"-0.022": 0.0,
			"-0.021": 0.0,
			"-0.02": 0.0,
			"-0.019": 0.0,
			"-0.018": 0.0,
			"-0.017": 0.0,
			"-0.016": 0.0,
			"-0.015": 0.0,
			"-0.014": 0.0,
			"-0.013": 0.0,
			"-0.012": 0.0,
			"-0.011": 0.0413313304726,
			"-0.01": 1.54458566875,
			"-0.009": 2.92371009568,
			"-0.008": 3.83203596941,
			"-0.007": 3.48421285434,
			"-0.006": 3.22660884617,
			"-0.005": 16.0842827836,
			"-0.004": 22.0282875867,
			"-0.003": 27.2583158312,
			"-0.002": 28.4732119371,
			"-0.001": 15.9405344789,
			"0.0": 9.36513944222,
			"0.001": 9.55861094474,
			"0.002": 10.8846999571,
			"0.003": 12.2147729986,
			"0.004": 7.96906556923,
			"0.005": 4.38428468495,
			"0.006": 3.44465048745,
			"0.007": 3.49164295083,
			"0.008": 3.32107794892,
			"0.009": 3.61044231612,
			"0.01": 3.66143754647,
			"0.011": 4.14016617041,
			"0.012": 4.07199855342,
			"0.013": 5.2700711826,
			"0.014": 1.03020392865,
			"0.015": 0.0,
			"0.016": 0.0,
			"0.017": 0.0,
			"0.018": 0.0,
			"0.019": 0.0,
			"0.02": 0.0,
			"0.021": 0.0,
			"0.022": 0.0,
			"0.023": 0.0,
			"0.024": 0.0,
			"0.025": 0.0
		}
	}
}
