{
	 "smiles": "CN(C)CCC1=CNC2=CC=CC(OP(O)(O)=O)=C12", 
	 "Tm": 497.15, 
	 "num_atms": 36, 
	 "gaussian": { 
		 "optdone": 1, 
		 "sigma_profile": "yes", 
		 "theory": "DFT", 
		 "functional": "B3LYP", 
		 "basiset": "6-31G**", 
		 "properties": { 
			 "R2extent": 6776.6692, 
			 "electric_dipole_moment_norm": 5.72360112255, 
			 "electric_quadrupole_moment_norm": 22.8493802752, 
			 "total_energy": -1219.34724626, 
			 "HOMO_LUMO_gap": 0.16351, 
			 "cosmo_polarized_energy": -22.57, 
			 "cosmo_cavitation_energy": 39.86, 
			 "cosmo_dispersion_energy": -27.47, 
			 "cosmo_repulsion_energy": 2.12, 
			 "cosmo_total_nonelectrostatic_energy": 14.51, 
			 "SMD_solvation_energy": 6.67 
		},
		"coords": [
			{
				"x": -1.5917043337,
				"y": -0.0816133006,
				"z": -3.9882345203,
				"element": "C" 
			},
			{
				"x": -2.4650776211,
				"y": -0.9241992919,
				"z": -3.188519537,
				"element": "N" 
			},
			{
				"x": -3.0648419099,
				"y": -2.005418782,
				"z": -3.9439342098,
				"element": "C" 
			},
			{
				"x": -1.9901535803,
				"y": -1.2866363341,
				"z": -1.8583462835,
				"element": "C" 
			},
			{
				"x": -0.9078849119,
				"y": -2.3951576406,
				"z": -1.7140062152,
				"element": "C" 
			},
			{
				"x": 0.4727882196,
				"y": -2.0641937841,
				"z": -2.2124935938,
				"element": "C" 
			},
			{
				"x": 1.0850044357,
				"y": -2.6084630739,
				"z": -3.3143123335,
				"element": "C" 
			},
			{
				"x": 2.3506916522,
				"y": -2.0727894479,
				"z": -3.4828098503,
				"element": "N" 
			},
			{
				"x": 2.5963570491,
				"y": -1.1663369686,
				"z": -2.4791424817,
				"element": "C" 
			},
			{
				"x": 3.7366553236,
				"y": -0.394914731,
				"z": -2.2187762515,
				"element": "C" 
			},
			{
				"x": 3.7088388896,
				"y": 0.4332115422,
				"z": -1.1062623461,
				"element": "C" 
			},
			{
				"x": 2.5777748153,
				"y": 0.4931985062,
				"z": -0.2634793104,
				"element": "C" 
			},
			{
				"x": 1.4628174483,
				"y": -0.2937764175,
				"z": -0.5331529598,
				"element": "C" 
			},
			{
				"x": 0.3309690855,
				"y": -0.2470663331,
				"z": 0.2790192255,
				"element": "O" 
			},
			{
				"x": 0.35184112,
				"y": -0.5103498446,
				"z": 1.8810520912,
				"element": "P" 
			},
			{
				"x": 1.6422016059,
				"y": -1.4329682074,
				"z": 2.133665994,
				"element": "O" 
			},
			{
				"x": 0.7534184755,
				"y": 0.9523546561,
				"z": 2.4560024369,
				"element": "O" 
			},
			{
				"x": -0.9033661359,
				"y": -1.0588246069,
				"z": 2.4158622598,
				"element": "O" 
			},
			{
				"x": 1.4326701649,
				"y": -1.1371430312,
				"z": -1.6570169963,
				"element": "C" 
			},
			{
				"x": -1.1942200748,
				"y": 0.7281258241,
				"z": -3.3683665333,
				"element": "H" 
			},
			{
				"x": -0.7347128549,
				"y": -0.6069960004,
				"z": -4.4437977966,
				"element": "H" 
			},
			{
				"x": -2.1725091289,
				"y": 0.3722028474,
				"z": -4.8016503008,
				"element": "H" 
			},
			{
				"x": -3.7818733676,
				"y": -2.5450707598,
				"z": -3.3151817777,
				"element": "H" 
			},
			{
				"x": -3.6125099679,
				"y": -1.5954754302,
				"z": -4.8010368964,
				"element": "H" 
			},
			{
				"x": -2.3439688451,
				"y": -2.7461267069,
				"z": -4.3429162351,
				"element": "H" 
			},
			{
				"x": -1.6314942648,
				"y": -0.3769629382,
				"z": -1.3673804918,
				"element": "H" 
			},
			{
				"x": -2.8622554759,
				"y": -1.6270032356,
				"z": -1.2836349022,
				"element": "H" 
			},
			{
				"x": -0.8612353782,
				"y": -2.6424958928,
				"z": -0.6465638963,
				"element": "H" 
			},
			{
				"x": -1.2531490362,
				"y": -3.3042789286,
				"z": -2.220793503,
				"element": "H" 
			},
			{
				"x": 0.7067075547,
				"y": -3.3474082238,
				"z": -4.0067578464,
				"element": "H" 
			},
			{
				"x": 2.9960635043,
				"y": -2.3203023286,
				"z": -4.2147370352,
				"element": "H" 
			},
			{
				"x": 4.6090307417,
				"y": -0.4422362895,
				"z": -2.8634781296,
				"element": "H" 
			},
			{
				"x": 4.5673140825,
				"y": 1.0569003367,
				"z": -0.8775148032,
				"element": "H" 
			},
			{
				"x": 2.553958157,
				"y": 1.184119448,
				"z": 0.5735237979,
				"element": "H" 
			},
			{
				"x": 2.4155800198,
				"y": -1.1524404913,
				"z": 1.6165526892,
				"element": "H" 
			},
			{
				"x": 0.2064745417,
				"y": 1.1617358602,
				"z": 3.2265185422,
				"element": "H" 
			}
		],
		 "valence_orbital": [ 
			{
				"type": "occ",
				"energy": -0.2961,
				"method": "rhf"
			},
			{
				"type": "occ",
				"energy": -0.27533,
				"method": "rhf"
			},
			{
				"type": "occ",
				"energy": -0.23707,
				"method": "rhf"
			},
			{
				"type": "occ",
				"energy": -0.21433,
				"method": "rhf"
			},
			{
				"type": "occ",
				"energy": -0.18411,
				"method": "rhf"
			},
			{
				"type": "unocc",
				"energy": -0.0206,
				"method": "rhf"
			},
			{
				"type": "unocc",
				"energy": 0.0038,
				"method": "rhf"
			},
			{
				"type": "unocc",
				"energy": 0.0431,
				"method": "rhf"
			},
			{
				"type": "unocc",
				"energy": 0.05711,
				"method": "rhf"
			},
			{
				"type": "unocc",
				"energy": 0.07115,
				"method": "rhf"
			}
		],
		"cosmo_sigma_profile": { 
			"-0.025": 0.0,
			"-0.024": 0.0,
			"-0.023": 0.0,
			"-0.022": 0.0,
			"-0.021": 0.0,
			"-0.02": 0.183805447856,
			"-0.019": 1.11019476171,
			"-0.018": 0.850037274206,
			"-0.017": 0.857408660326,
			"-0.016": 1.73764091161,
			"-0.015": 3.2645161101,
			"-0.014": 2.27003367143,
			"-0.013": 2.40781614816,
			"-0.012": 2.67737012164,
			"-0.011": 3.88555880784,
			"-0.01": 3.23450570419,
			"-0.009": 2.28102396541,
			"-0.008": 4.47189668829,
			"-0.007": 5.98457999884,
			"-0.006": 7.35004812042,
			"-0.005": 10.4631321132,
			"-0.004": 10.0471893813,
			"-0.003": 21.9671812307,
			"-0.002": 28.6657542406,
			"-0.001": 27.4868747794,
			"0.0": 32.7710903322,
			"0.001": 24.2181515482,
			"0.002": 16.0643724191,
			"0.003": 19.6819650783,
			"0.004": 21.2324252223,
			"0.005": 14.2047961173,
			"0.006": 8.11984644247,
			"0.007": 5.0880570689,
			"0.008": 5.16430027008,
			"0.009": 4.16552174631,
			"0.01": 2.93966357279,
			"0.011": 2.12039075204,
			"0.012": 2.31155237749,
			"0.013": 6.21384083806,
			"0.014": 5.20760697142,
			"0.015": 0.356688196702,
			"0.016": 0.370427649582,
			"0.017": 0.0654484375269,
			"0.018": 0.0,
			"0.019": 0.0,
			"0.02": 0.0,
			"0.021": 0.0,
			"0.022": 0.0,
			"0.023": 0.0,
			"0.024": 0.0,
			"0.025": 0.0
		}
	}
}
