{
	 "smiles": "COC1=C(OCC2=NC=CC=C2)C=CC(=C1)C(O)=O", 
	 "Tm": 423.15, 
	 "num_atms": 32, 
	 "gaussian": { 
		 "optdone": 1, 
		 "sigma_profile": "yes", 
		 "theory": "DFT", 
		 "functional": "B3LYP", 
		 "basiset": "6-31G**", 
		 "properties": { 
			 "R2extent": 7425.9155, 
			 "electric_dipole_moment_norm": 5.67147564396, 
			 "electric_quadrupole_moment_norm": 29.7338374047, 
			 "total_energy": -896.946301415, 
			 "HOMO_LUMO_gap": 0.19799, 
			 "cosmo_polarized_energy": -17.85, 
			 "cosmo_cavitation_energy": 37.11, 
			 "cosmo_dispersion_energy": -26.24, 
			 "cosmo_repulsion_energy": 2.03, 
			 "cosmo_total_nonelectrostatic_energy": 12.91, 
			 "SMD_solvation_energy": 6.95 
		},
		"coords": [
			{
				"x": -0.1851747498,
				"y": 0.5924954304,
				"z": 2.6282683313,
				"element": "C" 
			},
			{
				"x": 0.5316221175,
				"y": -0.5466171789,
				"z": 2.1281055765,
				"element": "O" 
			},
			{
				"x": 1.4618378615,
				"y": -0.2726053522,
				"z": 1.1547229883,
				"element": "C" 
			},
			{
				"x": 1.0884680846,
				"y": 0.1603242911,
				"z": -0.1339784421,
				"element": "C" 
			},
			{
				"x": -0.2243095078,
				"y": 0.3709058384,
				"z": -0.4729988021,
				"element": "O" 
			},
			{
				"x": -1.0615939208,
				"y": -0.7967911221,
				"z": -0.4996332846,
				"element": "C" 
			},
			{
				"x": -2.4679093297,
				"y": -0.3994798638,
				"z": -0.8845693735,
				"element": "C" 
			},
			{
				"x": -3.3558084127,
				"y": -1.4033714673,
				"z": -0.8251904674,
				"element": "N" 
			},
			{
				"x": -4.6213698364,
				"y": -1.1362015314,
				"z": -1.162250793,
				"element": "C" 
			},
			{
				"x": -5.0639536264,
				"y": 0.1251028164,
				"z": -1.5657201511,
				"element": "C" 
			},
			{
				"x": -4.1325528598,
				"y": 1.1600571005,
				"z": -1.6229758634,
				"element": "C" 
			},
			{
				"x": -2.8064741376,
				"y": 0.8978454343,
				"z": -1.2784969275,
				"element": "C" 
			},
			{
				"x": 2.0775955397,
				"y": 0.4411937625,
				"z": -1.0808635273,
				"element": "C" 
			},
			{
				"x": 3.4229301896,
				"y": 0.2695212623,
				"z": -0.7729968913,
				"element": "C" 
			},
			{
				"x": 3.8002269554,
				"y": -0.2141394948,
				"z": 0.4862775097,
				"element": "C" 
			},
			{
				"x": 2.8109914147,
				"y": -0.4662656605,
				"z": 1.4473090564,
				"element": "C" 
			},
			{
				"x": 5.2619759722,
				"y": -0.3930842246,
				"z": 0.7588642531,
				"element": "C" 
			},
			{
				"x": 5.5960016465,
				"y": -1.2169822414,
				"z": 1.7892857869,
				"element": "O" 
			},
			{
				"x": 6.129281844,
				"y": 0.1498882873,
				"z": 0.1152565605,
				"element": "O" 
			},
			{
				"x": 0.5054516898,
				"y": 1.3112290502,
				"z": 3.0855109116,
				"element": "H" 
			},
			{
				"x": -0.7542591907,
				"y": 1.0862888377,
				"z": 1.8351610461,
				"element": "H" 
			},
			{
				"x": -0.8672989371,
				"y": 0.2098207632,
				"z": 3.3892060331,
				"element": "H" 
			},
			{
				"x": -0.6671094766,
				"y": -1.5128894838,
				"z": -1.2336894757,
				"element": "H" 
			},
			{
				"x": -1.070940409,
				"y": -1.2904660974,
				"z": 0.4773543789,
				"element": "H" 
			},
			{
				"x": -5.3171914127,
				"y": -1.9716845415,
				"z": -1.1048796626,
				"element": "H" 
			},
			{
				"x": -6.1055717083,
				"y": 0.285014424,
				"z": -1.8252416873,
				"element": "H" 
			},
			{
				"x": -4.431248538,
				"y": 2.1577145679,
				"z": -1.9325048455,
				"element": "H" 
			},
			{
				"x": -2.0465707796,
				"y": 1.6690841735,
				"z": -1.3109947352,
				"element": "H" 
			},
			{
				"x": 1.7636099398,
				"y": 0.7902938464,
				"z": -2.059277312,
				"element": "H" 
			},
			{
				"x": 4.1976383906,
				"y": 0.4888521441,
				"z": -1.4990520727,
				"element": "H" 
			},
			{
				"x": 3.0526681646,
				"y": -0.7749210676,
				"z": 2.4608621065,
				"element": "H" 
			},
			{
				"x": 4.8168370225,
				"y": -1.702532703,
				"z": 2.0935297753,
				"element": "H" 
			}
		],
		 "valence_orbital": [ 
			{
				"type": "occ",
				"energy": -0.27217,
				"method": "rhf"
			},
			{
				"type": "occ",
				"energy": -0.26532,
				"method": "rhf"
			},
			{
				"type": "occ",
				"energy": -0.26216,
				"method": "rhf"
			},
			{
				"type": "occ",
				"energy": -0.25871,
				"method": "rhf"
			},
			{
				"type": "occ",
				"energy": -0.24688,
				"method": "rhf"
			},
			{
				"type": "unocc",
				"energy": -0.04889,
				"method": "rhf"
			},
			{
				"type": "unocc",
				"energy": -0.03088,
				"method": "rhf"
			},
			{
				"type": "unocc",
				"energy": -0.0205,
				"method": "rhf"
			},
			{
				"type": "unocc",
				"energy": -0.01444,
				"method": "rhf"
			},
			{
				"type": "unocc",
				"energy": 0.04815,
				"method": "rhf"
			}
		],
		"cosmo_sigma_profile": { 
			"-0.025": 0.0,
			"-0.024": 0.0,
			"-0.023": 0.0,
			"-0.022": 0.0,
			"-0.021": 0.0,
			"-0.02": 0.0,
			"-0.019": 0.170475629251,
			"-0.018": 1.01300906183,
			"-0.017": 0.900206248576,
			"-0.016": 0.976981773103,
			"-0.015": 1.02083213509,
			"-0.014": 0.853568417111,
			"-0.013": 1.17136306477,
			"-0.012": 1.00739226373,
			"-0.011": 1.26626225529,
			"-0.01": 1.11486055177,
			"-0.009": 1.26543716639,
			"-0.008": 1.35190354412,
			"-0.007": 6.56537085236,
			"-0.006": 15.5641559888,
			"-0.005": 21.2253143426,
			"-0.004": 21.9651674009,
			"-0.003": 26.6057176645,
			"-0.002": 24.0333119694,
			"-0.001": 19.8995954804,
			"0.0": 17.8973562377,
			"0.001": 22.4755492116,
			"0.002": 26.7033110816,
			"0.003": 22.6492075702,
			"0.004": 8.88490426975,
			"0.005": 6.66652874043,
			"0.006": 5.60249454165,
			"0.007": 4.63303332602,
			"0.008": 4.98271898629,
			"0.009": 5.07512932082,
			"0.01": 5.7929761666,
			"0.011": 7.31404265954,
			"0.012": 6.20344602937,
			"0.013": 2.03905478717,
			"0.014": 1.09631231875,
			"0.015": 0.482542969562,
			"0.016": 0.435346509059,
			"0.017": 0.0,
			"0.018": 0.0,
			"0.019": 0.0,
			"0.02": 0.0,
			"0.021": 0.0,
			"0.022": 0.0,
			"0.023": 0.0,
			"0.024": 0.0,
			"0.025": 0.0
		}
	}
}
