{
	 "smiles": "CCC1=NN=C2C=C(Cl)N=CN12", 
	 "Tm": 382.15, 
	 "num_atms": 19, 
	 "gaussian": { 
		 "optdone": 1, 
		 "sigma_profile": "yes", 
		 "theory": "DFT", 
		 "functional": "B3LYP", 
		 "basiset": "6-31G**", 
		 "properties": { 
			 "R2extent": 3804.1166, 
			 "electric_dipole_moment_norm": 3.50877267431, 
			 "electric_quadrupole_moment_norm": 10.9361965966, 
			 "total_energy": -950.133164045, 
			 "HOMO_LUMO_gap": 0.16589, 
			 "cosmo_polarized_energy": -15.56, 
			 "cosmo_cavitation_energy": 25.3, 
			 "cosmo_dispersion_energy": -19.0, 
			 "cosmo_repulsion_energy": 1.51, 
			 "cosmo_total_nonelectrostatic_energy": 7.8, 
			 "SMD_solvation_energy": 1.08 
		},
		"coords": [
			{
				"x": 0.7585599078,
				"y": -0.9178045691,
				"z": 2.6665848061,
				"element": "C" 
			},
			{
				"x": -0.047211607,
				"y": -1.0576451045,
				"z": 1.37080293,
				"element": "C" 
			},
			{
				"x": 0.6683779071,
				"y": -0.4936328087,
				"z": 0.1841801176,
				"element": "C" 
			},
			{
				"x": 1.85394772,
				"y": 0.0737243488,
				"z": 0.1659426802,
				"element": "N" 
			},
			{
				"x": 2.1689586334,
				"y": 0.4650577751,
				"z": -1.1145790747,
				"element": "N" 
			},
			{
				"x": 1.1500294349,
				"y": 0.1243403299,
				"z": -1.8793114497,
				"element": "C" 
			},
			{
				"x": 0.8927979098,
				"y": 0.2635175563,
				"z": -3.2670258026,
				"element": "C" 
			},
			{
				"x": -0.3040365737,
				"y": -0.2198427957,
				"z": -3.723332202,
				"element": "C" 
			},
			{
				"x": -0.7103203027,
				"y": -0.0935353182,
				"z": -5.4187979137,
				"element": "Cl" 
			},
			{
				"x": -1.252261332,
				"y": -0.8180110602,
				"z": -2.9431327294,
				"element": "N" 
			},
			{
				"x": -1.0096463964,
				"y": -0.9415619797,
				"z": -1.6754520665,
				"element": "C" 
			},
			{
				"x": 0.1556347384,
				"y": -0.4948710275,
				"z": -1.1040611562,
				"element": "N" 
			},
			{
				"x": 0.1974407015,
				"y": -1.3424564627,
				"z": 3.5033478773,
				"element": "H" 
			},
			{
				"x": 1.7168042612,
				"y": -1.4364190624,
				"z": 2.5883545933,
				"element": "H" 
			},
			{
				"x": 0.9700754833,
				"y": 0.1317406968,
				"z": 2.8834483403,
				"element": "H" 
			},
			{
				"x": -0.2754105141,
				"y": -2.1167477459,
				"z": 1.1837636696,
				"element": "H" 
			},
			{
				"x": -1.0190908832,
				"y": -0.5548657897,
				"z": 1.4776670487,
				"element": "H" 
			},
			{
				"x": 1.6236868315,
				"y": 0.7327829732,
				"z": -3.9118767656,
				"element": "H" 
			},
			{
				"x": -1.7372359197,
				"y": -1.4111699558,
				"z": -1.0203229026,
				"element": "H" 
			}
		],
		 "valence_orbital": [ 
			{
				"type": "occ",
				"energy": -0.31943,
				"method": "rhf"
			},
			{
				"type": "occ",
				"energy": -0.3092,
				"method": "rhf"
			},
			{
				"type": "occ",
				"energy": -0.30791,
				"method": "rhf"
			},
			{
				"type": "occ",
				"energy": -0.26681,
				"method": "rhf"
			},
			{
				"type": "occ",
				"energy": -0.23964,
				"method": "rhf"
			},
			{
				"type": "unocc",
				"energy": -0.07375,
				"method": "rhf"
			},
			{
				"type": "unocc",
				"energy": -0.03306,
				"method": "rhf"
			},
			{
				"type": "unocc",
				"energy": 0.02059,
				"method": "rhf"
			},
			{
				"type": "unocc",
				"energy": 0.03549,
				"method": "rhf"
			},
			{
				"type": "unocc",
				"energy": 0.07718,
				"method": "rhf"
			}
		],
		"cosmo_sigma_profile": { 
			"-0.025": 0.0,
			"-0.024": 0.0,
			"-0.023": 0.0,
			"-0.022": 0.0,
			"-0.021": 0.0,
			"-0.02": 0.0,
			"-0.019": 0.0,
			"-0.018": 0.0,
			"-0.017": 0.0,
			"-0.016": 0.0,
			"-0.015": 0.0,
			"-0.014": 0.0,
			"-0.013": 0.0,
			"-0.012": 0.323220530652,
			"-0.011": 2.27339656291,
			"-0.01": 4.66123919608,
			"-0.009": 4.8203950925,
			"-0.008": 4.70529951565,
			"-0.007": 6.88453606114,
			"-0.006": 10.7732947929,
			"-0.005": 10.1832069913,
			"-0.004": 12.4696649615,
			"-0.003": 16.9149805602,
			"-0.002": 18.6089624494,
			"-0.001": 19.1449072287,
			"0.0": 14.5029167007,
			"0.001": 11.5162396704,
			"0.002": 8.22406126129,
			"0.003": 11.9009359114,
			"0.004": 9.64412539832,
			"0.005": 4.45557646057,
			"0.006": 3.29727438252,
			"0.007": 3.70727922905,
			"0.008": 3.2888277104,
			"0.009": 3.01315027427,
			"0.01": 2.77963551304,
			"0.011": 3.55675597328,
			"0.012": 3.88642810731,
			"0.013": 3.04221818371,
			"0.014": 2.91399681306,
			"0.015": 2.42417362178,
			"0.016": 1.13027273452,
			"0.017": 0.188803981468,
			"0.018": 0.0,
			"0.019": 0.0,
			"0.02": 0.0,
			"0.021": 0.0,
			"0.022": 0.0,
			"0.023": 0.0,
			"0.024": 0.0,
			"0.025": 0.0
		}
	}
}
