{
	 "smiles": "CCCCCCCCCCCC1=NC(N)=NC(N)=N1", 
	 "Tm": 393.15, 
	 "num_atms": 46, 
	 "gaussian": { 
		 "optdone": 1, 
		 "sigma_profile": "yes", 
		 "theory": "DFT", 
		 "functional": "B3LYP", 
		 "basiset": "6-31G**", 
		 "properties": { 
			 "R2extent": 11036.1197, 
			 "electric_dipole_moment_norm": 1.97253277286, 
			 "electric_quadrupole_moment_norm": 16.4314682323, 
			 "total_energy": -823.598711593, 
			 "HOMO_LUMO_gap": 0.22718, 
			 "cosmo_polarized_energy": -13.76, 
			 "cosmo_cavitation_energy": 47.2, 
			 "cosmo_dispersion_energy": -32.76, 
			 "cosmo_repulsion_energy": 2.67, 
			 "cosmo_total_nonelectrostatic_energy": 17.12, 
			 "SMD_solvation_energy": 2.24 
		},
		"coords": [
			{
				"x": 1.4134620921,
				"y": -0.9723128357,
				"z": -5.8773752315,
				"element": "C" 
			},
			{
				"x": 1.4953366856,
				"y": 0.5532167584,
				"z": -6.0036735738,
				"element": "C" 
			},
			{
				"x": 0.1317283195,
				"y": 1.2656679563,
				"z": -6.0008464419,
				"element": "C" 
			},
			{
				"x": -0.7378422782,
				"y": 1.1365268907,
				"z": -4.7346690951,
				"element": "C" 
			},
			{
				"x": -0.1804309204,
				"y": 1.7954959198,
				"z": -3.4537492532,
				"element": "C" 
			},
			{
				"x": 0.7061650707,
				"y": 0.9000102068,
				"z": -2.573477437,
				"element": "C" 
			},
			{
				"x": 1.1807878203,
				"y": 1.6065941292,
				"z": -1.2957385802,
				"element": "C" 
			},
			{
				"x": 2.1329677474,
				"y": 0.7759368365,
				"z": -0.4169036758,
				"element": "C" 
			},
			{
				"x": 1.5501321424,
				"y": -0.5209922182,
				"z": 0.1724015893,
				"element": "C" 
			},
			{
				"x": 0.375368513,
				"y": -0.3076697348,
				"z": 1.1358561532,
				"element": "C" 
			},
			{
				"x": -0.1163034622,
				"y": -1.6243529491,
				"z": 1.7706411196,
				"element": "C" 
			},
			{
				"x": -1.283254679,
				"y": -1.3949717409,
				"z": 2.6966855123,
				"element": "C" 
			},
			{
				"x": -1.0186969538,
				"y": -1.2943885437,
				"z": 4.0039914231,
				"element": "N" 
			},
			{
				"x": -2.1030045933,
				"y": -1.0456928558,
				"z": 4.7703608551,
				"element": "C" 
			},
			{
				"x": -1.8946268859,
				"y": -0.9577582657,
				"z": 6.1083156825,
				"element": "N" 
			},
			{
				"x": -3.362088636,
				"y": -0.8935991571,
				"z": 4.3341062539,
				"element": "N" 
			},
			{
				"x": -3.4883781459,
				"y": -1.0229031318,
				"z": 3.0042769585,
				"element": "C" 
			},
			{
				"x": -4.7383200302,
				"y": -0.9110683784,
				"z": 2.4873124177,
				"element": "N" 
			},
			{
				"x": -2.490216803,
				"y": -1.2706090181,
				"z": 2.130818314,
				"element": "N" 
			},
			{
				"x": 0.9824264687,
				"y": -1.2811995387,
				"z": -4.9196634095,
				"element": "H" 
			},
			{
				"x": 0.7910453639,
				"y": -1.3999133936,
				"z": -6.672331566,
				"element": "H" 
			},
			{
				"x": 2.4062371706,
				"y": -1.428521162,
				"z": -5.952327921,
				"element": "H" 
			},
			{
				"x": 2.1309590295,
				"y": 0.9567980519,
				"z": -5.2057819716,
				"element": "H" 
			},
			{
				"x": 2.0061866544,
				"y": 0.8035861588,
				"z": -6.9427594106,
				"element": "H" 
			},
			{
				"x": 0.296079859,
				"y": 2.3345218709,
				"z": -6.1961006754,
				"element": "H" 
			},
			{
				"x": -0.4518749972,
				"y": 0.8916164311,
				"z": -6.854039407,
				"element": "H" 
			},
			{
				"x": -1.7053820642,
				"y": 1.599195193,
				"z": -4.9673294733,
				"element": "H" 
			},
			{
				"x": -0.9610758506,
				"y": 0.080001214,
				"z": -4.5342364277,
				"element": "H" 
			},
			{
				"x": -1.0247725013,
				"y": 2.1342354287,
				"z": -2.8382037898,
				"element": "H" 
			},
			{
				"x": 0.3721483628,
				"y": 2.7071463663,
				"z": -3.723939338,
				"element": "H" 
			},
			{
				"x": 0.1390313361,
				"y": -0.003348946,
				"z": -2.311761936,
				"element": "H" 
			},
			{
				"x": 1.5822380027,
				"y": 0.5550358053,
				"z": -3.1368946075,
				"element": "H" 
			},
			{
				"x": 1.6961971541,
				"y": 2.5350929531,
				"z": -1.5775794999,
				"element": "H" 
			},
			{
				"x": 0.3065938019,
				"y": 1.9194514958,
				"z": -0.7090374656,
				"element": "H" 
			},
			{
				"x": 2.4883968354,
				"y": 1.4071554318,
				"z": 0.4090726493,
				"element": "H" 
			},
			{
				"x": 3.0240815418,
				"y": 0.5217626599,
				"z": -1.0072689224,
				"element": "H" 
			},
			{
				"x": 2.3528996266,
				"y": -1.0488522152,
				"z": 0.7048807749,
				"element": "H" 
			},
			{
				"x": 1.2369953728,
				"y": -1.1939078322,
				"z": -0.6370146566,
				"element": "H" 
			},
			{
				"x": -0.4680282627,
				"y": 0.1607818861,
				"z": 0.6155078099,
				"element": "H" 
			},
			{
				"x": 0.6755526796,
				"y": 0.3834049062,
				"z": 1.9350181248,
				"element": "H" 
			},
			{
				"x": 0.6947565245,
				"y": -2.0898786981,
				"z": 2.3386514468,
				"element": "H" 
			},
			{
				"x": -0.4302975684,
				"y": -2.3122089413,
				"z": 0.977947423,
				"element": "H" 
			},
			{
				"x": -2.6483693534,
				"y": -0.6424499712,
				"z": 6.6957063476,
				"element": "H" 
			},
			{
				"x": -0.9452696156,
				"y": -0.933545009,
				"z": 6.4411670138,
				"element": "H" 
			},
			{
				"x": -4.8367453767,
				"y": -0.8669975216,
				"z": 1.4868048256,
				"element": "H" 
			},
			{
				"x": -5.4820951975,
				"y": -0.5932924926,
				"z": 3.0859810714,
				"element": "H" 
			}
		],
		 "valence_orbital": [ 
			{
				"type": "occ",
				"energy": -0.29286,
				"method": "rhf"
			},
			{
				"type": "occ",
				"energy": -0.24895,
				"method": "rhf"
			},
			{
				"type": "occ",
				"energy": -0.24811,
				"method": "rhf"
			},
			{
				"type": "occ",
				"energy": -0.2463,
				"method": "rhf"
			},
			{
				"type": "occ",
				"energy": -0.23206,
				"method": "rhf"
			},
			{
				"type": "unocc",
				"energy": -0.00488,
				"method": "rhf"
			},
			{
				"type": "unocc",
				"energy": 0.0174,
				"method": "rhf"
			},
			{
				"type": "unocc",
				"energy": 0.08105,
				"method": "rhf"
			},
			{
				"type": "unocc",
				"energy": 0.09301,
				"method": "rhf"
			},
			{
				"type": "unocc",
				"energy": 0.09469,
				"method": "rhf"
			}
		],
		"cosmo_sigma_profile": { 
			"-0.025": 0.0,
			"-0.024": 0.0,
			"-0.023": 0.0,
			"-0.022": 0.0,
			"-0.021": 0.0,
			"-0.02": 0.0,
			"-0.019": 0.0,
			"-0.018": 0.0,
			"-0.017": 0.0,
			"-0.016": 0.0,
			"-0.015": 0.020848227465,
			"-0.014": 2.4954342701,
			"-0.013": 4.29489138533,
			"-0.012": 3.97998136686,
			"-0.011": 3.08578179498,
			"-0.01": 4.15229132218,
			"-0.009": 3.51509872671,
			"-0.008": 3.46250209489,
			"-0.007": 2.92997624623,
			"-0.006": 3.05060776915,
			"-0.005": 2.83265305514,
			"-0.004": 2.71766206926,
			"-0.003": 8.35442072908,
			"-0.002": 41.4564328622,
			"-0.001": 64.4045920681,
			"0.0": 73.2454426661,
			"0.001": 56.2907226691,
			"0.002": 29.071678769,
			"0.003": 6.86251849151,
			"0.004": 8.02628696917,
			"0.005": 7.26281553959,
			"0.006": 7.09511917097,
			"0.007": 5.35482428792,
			"0.008": 3.74110350657,
			"0.009": 3.2672176335,
			"0.01": 3.18985833606,
			"0.011": 2.25494122279,
			"0.012": 2.17083886695,
			"0.013": 2.69521510101,
			"0.014": 1.98201158158,
			"0.015": 1.2821492267,
			"0.016": 0.078760732848,
			"0.017": 0.0,
			"0.018": 0.0,
			"0.019": 0.0,
			"0.02": 0.0,
			"0.021": 0.0,
			"0.022": 0.0,
			"0.023": 0.0,
			"0.024": 0.0,
			"0.025": 0.0
		}
	}
}
