{
	 "smiles": "OCC1=CC2=C(SC=C2)C=C1", 
	 "Tm": 364.65, 
	 "num_atms": 19, 
	 "gaussian": { 
		 "optdone": 1, 
		 "sigma_profile": "yes", 
		 "theory": "DFT", 
		 "functional": "B3LYP", 
		 "basiset": "6-31G**", 
		 "properties": { 
			 "R2extent": 2532.2317, 
			 "electric_dipole_moment_norm": 0.943649034334, 
			 "electric_quadrupole_moment_norm": 9.80972223817, 
			 "total_energy": -821.180414285, 
			 "HOMO_LUMO_gap": 0.19077, 
			 "cosmo_polarized_energy": -8.46, 
			 "cosmo_cavitation_energy": 24.19, 
			 "cosmo_dispersion_energy": -18.69, 
			 "cosmo_repulsion_energy": 1.44, 
			 "cosmo_total_nonelectrostatic_energy": 6.95, 
			 "SMD_solvation_energy": 3.84 
		},
		"coords": [
			{
				"x": -1.7190703545,
				"y": 1.7276656902,
				"z": -2.2852069581,
				"element": "O" 
			},
			{
				"x": -2.543565134,
				"y": 0.8770765488,
				"z": -1.5025920987,
				"element": "C" 
			},
			{
				"x": -1.7759907275,
				"y": 0.0118382147,
				"z": -0.5188713581,
				"element": "C" 
			},
			{
				"x": -0.5431864524,
				"y": 0.4295238567,
				"z": -0.0283665617,
				"element": "C" 
			},
			{
				"x": 0.1525043575,
				"y": -0.362757978,
				"z": 0.9027073606,
				"element": "C" 
			},
			{
				"x": -0.4250698119,
				"y": -1.5836501359,
				"z": 1.3319460009,
				"element": "C" 
			},
			{
				"x": 0.6124873704,
				"y": -2.4033342703,
				"z": 2.4884558541,
				"element": "S" 
			},
			{
				"x": 1.7923437739,
				"y": -1.1131777932,
				"z": 2.3845639875,
				"element": "C" 
			},
			{
				"x": 1.4286497027,
				"y": -0.1235380195,
				"z": 1.5289554732,
				"element": "C" 
			},
			{
				"x": -1.664047683,
				"y": -2.0122973028,
				"z": 0.8444889189,
				"element": "C" 
			},
			{
				"x": -2.3242392039,
				"y": -1.2118447665,
				"z": -0.0795611736,
				"element": "C" 
			},
			{
				"x": -1.0938548809,
				"y": 1.1644806024,
				"z": -2.7612333776,
				"element": "H" 
			},
			{
				"x": -3.1796558887,
				"y": 0.2372905442,
				"z": -2.135249401,
				"element": "H" 
			},
			{
				"x": -3.2183394326,
				"y": 1.5523297623,
				"z": -0.9622596214,
				"element": "H" 
			},
			{
				"x": -0.1245023763,
				"y": 1.3707419099,
				"z": -0.3719110124,
				"element": "H" 
			},
			{
				"x": 2.6945490048,
				"y": -1.1768654364,
				"z": 2.9779470528,
				"element": "H" 
			},
			{
				"x": 2.0338290962,
				"y": 0.7556991363,
				"z": 1.3382610075,
				"element": "H" 
			},
			{
				"x": -2.0983616117,
				"y": -2.9523556309,
				"z": 1.1708803407,
				"element": "H" 
			},
			{
				"x": -3.2831797482,
				"y": -1.5375249319,
				"z": -0.4756544337,
				"element": "H" 
			}
		],
		 "valence_orbital": [ 
			{
				"type": "occ",
				"energy": -0.32079,
				"method": "rhf"
			},
			{
				"type": "occ",
				"energy": -0.28433,
				"method": "rhf"
			},
			{
				"type": "occ",
				"energy": -0.27529,
				"method": "rhf"
			},
			{
				"type": "occ",
				"energy": -0.23214,
				"method": "rhf"
			},
			{
				"type": "occ",
				"energy": -0.21767,
				"method": "rhf"
			},
			{
				"type": "unocc",
				"energy": -0.0269,
				"method": "rhf"
			},
			{
				"type": "unocc",
				"energy": -0.0039,
				"method": "rhf"
			},
			{
				"type": "unocc",
				"energy": 0.02236,
				"method": "rhf"
			},
			{
				"type": "unocc",
				"energy": 0.0456,
				"method": "rhf"
			},
			{
				"type": "unocc",
				"energy": 0.08569,
				"method": "rhf"
			}
		],
		"cosmo_sigma_profile": { 
			"-0.025": 0.0,
			"-0.024": 0.0,
			"-0.023": 0.0,
			"-0.022": 0.0,
			"-0.021": 0.0,
			"-0.02": 0.0,
			"-0.019": 0.0,
			"-0.018": 0.0,
			"-0.017": 0.0,
			"-0.016": 0.108673132107,
			"-0.015": 0.722677542121,
			"-0.014": 0.837245148499,
			"-0.013": 1.04157045744,
			"-0.012": 1.18641727944,
			"-0.011": 0.565503662222,
			"-0.01": 0.472003058595,
			"-0.009": 1.29077983114,
			"-0.008": 2.75197013412,
			"-0.007": 6.00806232034,
			"-0.006": 8.58585918802,
			"-0.005": 15.1564209973,
			"-0.004": 16.4373438335,
			"-0.003": 13.8885559015,
			"-0.002": 12.0425415794,
			"-0.001": 8.07812550234,
			"0.0": 11.7026369666,
			"0.001": 10.1030455741,
			"0.002": 13.2181333919,
			"0.003": 17.3508128879,
			"0.004": 22.1674361369,
			"0.005": 17.0572436036,
			"0.006": 3.90755182841,
			"0.007": 1.30397780563,
			"0.008": 0.707467551522,
			"0.009": 0.838720149823,
			"0.01": 1.78142601514,
			"0.011": 0.920238292058,
			"0.012": 1.44044036143,
			"0.013": 1.58149143686,
			"0.014": 1.95667442758,
			"0.015": 0.133721714595,
			"0.016": 0.0,
			"0.017": 0.0,
			"0.018": 0.0,
			"0.019": 0.0,
			"0.02": 0.0,
			"0.021": 0.0,
			"0.022": 0.0,
			"0.023": 0.0,
			"0.024": 0.0,
			"0.025": 0.0
		}
	}
}
