{
	 "smiles": "ClCC(=O)N(C1CCCCC1)C1=CC=CC=C1", 
	 "Tm": 377.15, 
	 "num_atms": 35, 
	 "gaussian": { 
		 "optdone": 1, 
		 "sigma_profile": "yes", 
		 "theory": "DFT", 
		 "functional": "B3LYP", 
		 "basiset": "6-31G**", 
		 "properties": { 
			 "R2extent": 5534.6048, 
			 "electric_dipole_moment_norm": 4.16022780626, 
			 "electric_quadrupole_moment_norm": 15.2031250528, 
			 "total_energy": -1134.52142379, 
			 "HOMO_LUMO_gap": 0.21404, 
			 "cosmo_polarized_energy": -9.9, 
			 "cosmo_cavitation_energy": 37.15, 
			 "cosmo_dispersion_energy": -25.82, 
			 "cosmo_repulsion_energy": 2.03, 
			 "cosmo_total_nonelectrostatic_energy": 13.36, 
			 "SMD_solvation_energy": 5.65 
		},
		"coords": [
			{
				"x": -0.4149209908,
				"y": -1.7565840895,
				"z": -3.9562560749,
				"element": "Cl" 
			},
			{
				"x": 0.9951309208,
				"y": -0.7436945854,
				"z": -3.4230919605,
				"element": "C" 
			},
			{
				"x": 0.5332819865,
				"y": 0.4031578395,
				"z": -2.5193570659,
				"element": "C" 
			},
			{
				"x": 0.0777507328,
				"y": 1.422005833,
				"z": -3.0271059887,
				"element": "O" 
			},
			{
				"x": 0.6968791286,
				"y": 0.2520764828,
				"z": -1.1651529338,
				"element": "N" 
			},
			{
				"x": 0.2915043834,
				"y": 1.3571947018,
				"z": -0.2456701277,
				"element": "C" 
			},
			{
				"x": 1.0308328176,
				"y": 2.7042383086,
				"z": -0.518369318,
				"element": "C" 
			},
			{
				"x": 0.078539529,
				"y": 3.8363440189,
				"z": -0.9265757645,
				"element": "C" 
			},
			{
				"x": -1.0334764227,
				"y": 4.0666165514,
				"z": 0.116364824,
				"element": "C" 
			},
			{
				"x": -1.5947779787,
				"y": 2.7353738472,
				"z": 0.6875973675,
				"element": "C" 
			},
			{
				"x": -1.2390753314,
				"y": 1.5294774819,
				"z": -0.1955544013,
				"element": "C" 
			},
			{
				"x": 1.1445538205,
				"y": -0.9696363013,
				"z": -0.5537308412,
				"element": "C" 
			},
			{
				"x": 0.3021081832,
				"y": -2.0849723601,
				"z": -0.4825511497,
				"element": "C" 
			},
			{
				"x": 0.7427487357,
				"y": -3.2520278268,
				"z": 0.1449177448,
				"element": "C" 
			},
			{
				"x": 2.014480646,
				"y": -3.3066847234,
				"z": 0.7168846692,
				"element": "C" 
			},
			{
				"x": 2.8520084759,
				"y": -2.1899613623,
				"z": 0.6563433083,
				"element": "C" 
			},
			{
				"x": 2.4213491683,
				"y": -1.025559345,
				"z": 0.0213421886,
				"element": "C" 
			},
			{
				"x": 1.4074423972,
				"y": -0.2972824009,
				"z": -4.3265202188,
				"element": "H" 
			},
			{
				"x": 1.7125912652,
				"y": -1.4180105112,
				"z": -2.9599255169,
				"element": "H" 
			},
			{
				"x": 0.605234168,
				"y": 0.9989606006,
				"z": 0.7386242447,
				"element": "H" 
			},
			{
				"x": 1.7893267672,
				"y": 2.559696158,
				"z": -1.2920014119,
				"element": "H" 
			},
			{
				"x": 1.5666061301,
				"y": 2.9922483973,
				"z": 0.3956436157,
				"element": "H" 
			},
			{
				"x": 0.6478094395,
				"y": 4.7612766601,
				"z": -1.0758136286,
				"element": "H" 
			},
			{
				"x": -0.3593919562,
				"y": 3.5758931392,
				"z": -1.8935024773,
				"element": "H" 
			},
			{
				"x": -1.8393961704,
				"y": 4.6471014857,
				"z": -0.3470054881,
				"element": "H" 
			},
			{
				"x": -0.6506613668,
				"y": 4.6815834261,
				"z": 0.9400830897,
				"element": "H" 
			},
			{
				"x": -2.6813381071,
				"y": 2.7978737812,
				"z": 0.8097130432,
				"element": "H" 
			},
			{
				"x": -1.18920185,
				"y": 2.5611701188,
				"z": 1.6935893821,
				"element": "H" 
			},
			{
				"x": -1.6912698086,
				"y": 0.613992741,
				"z": 0.2032114307,
				"element": "H" 
			},
			{
				"x": -1.6246849822,
				"y": 1.6699227457,
				"z": -1.2088866584,
				"element": "H" 
			},
			{
				"x": -0.6866267505,
				"y": -2.033852544,
				"z": -0.9253727213,
				"element": "H" 
			},
			{
				"x": 0.0865208513,
				"y": -4.1160665368,
				"z": 0.1904136322,
				"element": "H" 
			},
			{
				"x": 2.3525091936,
				"y": -4.2143935883,
				"z": 1.2078571973,
				"element": "H" 
			},
			{
				"x": 3.8436589636,
				"y": -2.2270493547,
				"z": 1.0977091679,
				"element": "H" 
			},
			{
				"x": 3.0683540113,
				"y": -0.1553287891,
				"z": -0.0383511585,
				"element": "H" 
			}
		],
		 "valence_orbital": [ 
			{
				"type": "occ",
				"energy": -0.29654,
				"method": "rhf"
			},
			{
				"type": "occ",
				"energy": -0.27214,
				"method": "rhf"
			},
			{
				"type": "occ",
				"energy": -0.26562,
				"method": "rhf"
			},
			{
				"type": "occ",
				"energy": -0.25055,
				"method": "rhf"
			},
			{
				"type": "occ",
				"energy": -0.24173,
				"method": "rhf"
			},
			{
				"type": "unocc",
				"energy": -0.02769,
				"method": "rhf"
			},
			{
				"type": "unocc",
				"energy": -0.01774,
				"method": "rhf"
			},
			{
				"type": "unocc",
				"energy": -0.01037,
				"method": "rhf"
			},
			{
				"type": "unocc",
				"energy": 0.06109,
				"method": "rhf"
			},
			{
				"type": "unocc",
				"energy": 0.07915,
				"method": "rhf"
			}
		],
		"cosmo_sigma_profile": { 
			"-0.025": 0.0,
			"-0.024": 0.0,
			"-0.023": 0.0,
			"-0.022": 0.0,
			"-0.021": 0.0,
			"-0.02": 0.0,
			"-0.019": 0.0,
			"-0.018": 0.0,
			"-0.017": 0.0,
			"-0.016": 0.0,
			"-0.015": 0.0,
			"-0.014": 0.0,
			"-0.013": 0.0,
			"-0.012": 0.0,
			"-0.011": 0.0,
			"-0.01": 0.0,
			"-0.009": 0.0699540048587,
			"-0.008": 1.90579958749,
			"-0.007": 3.31913140193,
			"-0.006": 11.5534551241,
			"-0.005": 16.6007477533,
			"-0.004": 18.4749630339,
			"-0.003": 23.5458120256,
			"-0.002": 34.09119226,
			"-0.001": 35.0265082059,
			"0.0": 35.1418744205,
			"0.001": 30.9279341329,
			"0.002": 16.6931033907,
			"0.003": 14.1546469306,
			"0.004": 16.2868224475,
			"0.005": 12.5609397694,
			"0.006": 8.33224523182,
			"0.007": 2.71175900362,
			"0.008": 1.70391405843,
			"0.009": 1.94950097813,
			"0.01": 1.33092791571,
			"0.011": 1.75843382466,
			"0.012": 1.58166559908,
			"0.013": 2.13617997979,
			"0.014": 1.70441025894,
			"0.015": 0.114676810041,
			"0.016": 0.0,
			"0.017": 0.0,
			"0.018": 0.0,
			"0.019": 0.0,
			"0.02": 0.0,
			"0.021": 0.0,
			"0.022": 0.0,
			"0.023": 0.0,
			"0.024": 0.0,
			"0.025": 0.0
		}
	}
}
