{
	 "smiles": "OC(=O)C=CC1=CN(N=C1C1=CC2=C(O1)C=CC=C2)C1=CC=CC=C1", 
	 "Tm": 499.15, 
	 "num_atms": 39, 
	 "gaussian": { 
		 "optdone": 1, 
		 "sigma_profile": "yes", 
		 "theory": "DFT", 
		 "functional": "B3LYP", 
		 "basiset": "6-31G**", 
		 "properties": { 
			 "R2extent": 11472.8139, 
			 "electric_dipole_moment_norm": 4.91839635349, 
			 "electric_quadrupole_moment_norm": 26.9352854815, 
			 "total_energy": -1105.71008185, 
			 "HOMO_LUMO_gap": 0.14683, 
			 "cosmo_polarized_energy": -17.32, 
			 "cosmo_cavitation_energy": 44.92, 
			 "cosmo_dispersion_energy": -31.89, 
			 "cosmo_repulsion_energy": 2.38, 
			 "cosmo_total_nonelectrostatic_energy": 15.41, 
			 "SMD_solvation_energy": 8.09 
		},
		"coords": [
			{
				"x": -1.4221791777,
				"y": -3.119940064,
				"z": -0.2835956255,
				"element": "O" 
			},
			{
				"x": -1.6542477239,
				"y": -3.2869849646,
				"z": 1.0496970561,
				"element": "C" 
			},
			{
				"x": -2.0308734639,
				"y": -4.3597879815,
				"z": 1.4624573126,
				"element": "O" 
			},
			{
				"x": -1.463764859,
				"y": -2.1160525102,
				"z": 1.9475552545,
				"element": "C" 
			},
			{
				"x": -0.6694475343,
				"y": -1.0327373749,
				"z": 1.8114930546,
				"element": "C" 
			},
			{
				"x": 0.3094778942,
				"y": -0.7080595947,
				"z": 0.7768438513,
				"element": "C" 
			},
			{
				"x": 1.0851063603,
				"y": -1.570366781,
				"z": 0.0082574271,
				"element": "C" 
			},
			{
				"x": 1.916279061,
				"y": -0.810358205,
				"z": -0.7516474838,
				"element": "N" 
			},
			{
				"x": 1.7463690831,
				"y": 0.5129650453,
				"z": -0.5262995413,
				"element": "N" 
			},
			{
				"x": 0.7879350085,
				"y": 0.594684613,
				"z": 0.3996271503,
				"element": "C" 
			},
			{
				"x": 0.3676280923,
				"y": 1.9058509651,
				"z": 0.8543553233,
				"element": "C" 
			},
			{
				"x": 0.8118576182,
				"y": 3.1562257633,
				"z": 0.5327064094,
				"element": "C" 
			},
			{
				"x": 0.0181910074,
				"y": 4.0804745733,
				"z": 1.2945889189,
				"element": "C" 
			},
			{
				"x": -0.8733739395,
				"y": 3.2858669874,
				"z": 2.0419866068,
				"element": "C" 
			},
			{
				"x": -0.6618941883,
				"y": 1.9589598205,
				"z": 1.7742651856,
				"element": "O" 
			},
			{
				"x": -1.8219945871,
				"y": 3.7999547759,
				"z": 2.9165425529,
				"element": "C" 
			},
			{
				"x": -1.86465961,
				"y": 5.1888160897,
				"z": 3.0357129005,
				"element": "C" 
			},
			{
				"x": -0.9881696111,
				"y": 6.0136099162,
				"z": 2.3038566433,
				"element": "C" 
			},
			{
				"x": -0.045259339,
				"y": 5.4772565297,
				"z": 1.4328569726,
				"element": "C" 
			},
			{
				"x": 2.8922329841,
				"y": -1.2606132938,
				"z": -1.6845237451,
				"element": "C" 
			},
			{
				"x": 2.7505073132,
				"y": -2.5108083633,
				"z": -2.2958738522,
				"element": "C" 
			},
			{
				"x": 3.7268148459,
				"y": -2.949046196,
				"z": -3.1896629061,
				"element": "C" 
			},
			{
				"x": 4.8265163499,
				"y": -2.1426113934,
				"z": -3.4873254193,
				"element": "C" 
			},
			{
				"x": 4.9472234439,
				"y": -0.888534596,
				"z": -2.8840181977,
				"element": "C" 
			},
			{
				"x": 3.9870061421,
				"y": -0.4419425474,
				"z": -1.9788173334,
				"element": "C" 
			},
			{
				"x": -1.2175779561,
				"y": -2.1902653491,
				"z": -0.4680535787,
				"element": "H" 
			},
			{
				"x": -2.048898562,
				"y": -2.2075721599,
				"z": 2.8570914136,
				"element": "H" 
			},
			{
				"x": -0.7465155005,
				"y": -0.2840915855,
				"z": 2.5939526017,
				"element": "H" 
			},
			{
				"x": 1.132853477,
				"y": -2.6471092792,
				"z": -0.0006364911,
				"element": "H" 
			},
			{
				"x": 1.6072258214,
				"y": 3.3749848838,
				"z": -0.1638528167,
				"element": "H" 
			},
			{
				"x": -2.4903309743,
				"y": 3.1512882042,
				"z": 3.4722225703,
				"element": "H" 
			},
			{
				"x": -2.588434865,
				"y": 5.6422972378,
				"z": 3.7059144964,
				"element": "H" 
			},
			{
				"x": -1.0528360339,
				"y": 7.0908431781,
				"z": 2.4244969147,
				"element": "H" 
			},
			{
				"x": 0.6258128323,
				"y": 6.1218179766,
				"z": 0.8733404858,
				"element": "H" 
			},
			{
				"x": 1.8788028452,
				"y": -3.1259129135,
				"z": -2.0986167849,
				"element": "H" 
			},
			{
				"x": 3.6157491005,
				"y": -3.9192876727,
				"z": -3.6639392608,
				"element": "H" 
			},
			{
				"x": 5.5805788912,
				"y": -2.4862890308,
				"z": -4.1885489043,
				"element": "H" 
			},
			{
				"x": 5.7980415986,
				"y": -0.253813831,
				"z": -3.1126428061,
				"element": "H" 
			},
			{
				"x": 4.0675481553,
				"y": 0.5253891271,
				"z": -1.4984663554,
				"element": "H" 
			}
		],
		 "valence_orbital": [ 
			{
				"type": "occ",
				"energy": -0.26905,
				"method": "rhf"
			},
			{
				"type": "occ",
				"energy": -0.26399,
				"method": "rhf"
			},
			{
				"type": "occ",
				"energy": -0.24691,
				"method": "rhf"
			},
			{
				"type": "occ",
				"energy": -0.24154,
				"method": "rhf"
			},
			{
				"type": "occ",
				"energy": -0.21226,
				"method": "rhf"
			},
			{
				"type": "unocc",
				"energy": -0.06543,
				"method": "rhf"
			},
			{
				"type": "unocc",
				"energy": -0.05572,
				"method": "rhf"
			},
			{
				"type": "unocc",
				"energy": -0.02111,
				"method": "rhf"
			},
			{
				"type": "unocc",
				"energy": -0.01424,
				"method": "rhf"
			},
			{
				"type": "unocc",
				"energy": 0.00559,
				"method": "rhf"
			}
		],
		"cosmo_sigma_profile": { 
			"-0.025": 0.0,
			"-0.024": 0.0,
			"-0.023": 0.0,
			"-0.022": 0.0,
			"-0.021": 0.0,
			"-0.02": 0.0,
			"-0.019": 0.0,
			"-0.018": 0.0,
			"-0.017": 0.0,
			"-0.016": 0.127581283841,
			"-0.015": 0.358468882137,
			"-0.014": 1.16364275796,
			"-0.013": 0.540562091143,
			"-0.012": 0.703624874994,
			"-0.011": 1.33575349453,
			"-0.01": 2.20032685314,
			"-0.009": 3.30465135926,
			"-0.008": 3.68472960443,
			"-0.007": 10.866148136,
			"-0.006": 24.3894978894,
			"-0.005": 24.5409776306,
			"-0.004": 27.1902409948,
			"-0.003": 21.3546968547,
			"-0.002": 20.4240416151,
			"-0.001": 23.1642638122,
			"0.0": 26.4166358477,
			"0.001": 29.8555394405,
			"0.002": 29.6166078404,
			"0.003": 31.6829693479,
			"0.004": 28.3702032737,
			"0.005": 15.5449489931,
			"0.006": 5.5838655644,
			"0.007": 4.11637471233,
			"0.008": 2.89655131629,
			"0.009": 3.38107356064,
			"0.01": 4.95272652427,
			"0.011": 5.93449217914,
			"0.012": 5.9227831834,
			"0.013": 2.85944276081,
			"0.014": 0.192085402195,
			"0.015": 0.0,
			"0.016": 0.0,
			"0.017": 0.0,
			"0.018": 0.0,
			"0.019": 0.0,
			"0.02": 0.0,
			"0.021": 0.0,
			"0.022": 0.0,
			"0.023": 0.0,
			"0.024": 0.0,
			"0.025": 0.0
		}
	}
}
