{
	 "smiles": "COC1=C(C)C=C(C=C1)C(O)=O", 
	 "Tm": 469.15, 
	 "num_atms": 22, 
	 "gaussian": { 
		 "optdone": 1, 
		 "sigma_profile": "yes", 
		 "theory": "DFT", 
		 "functional": "B3LYP", 
		 "basiset": "6-31G**", 
		 "properties": { 
			 "R2extent": 2802.6781, 
			 "electric_dipole_moment_norm": 3.58948923107, 
			 "electric_quadrupole_moment_norm": 5.72202581347, 
			 "total_energy": -574.67356019, 
			 "HOMO_LUMO_gap": 0.19175, 
			 "cosmo_polarized_energy": -10.79, 
			 "cosmo_cavitation_energy": 26.11, 
			 "cosmo_dispersion_energy": -19.17, 
			 "cosmo_repulsion_energy": 1.53, 
			 "cosmo_total_nonelectrostatic_energy": 8.47, 
			 "SMD_solvation_energy": 6.57 
		},
		"coords": [
			{
				"x": 0.0013029939,
				"y": -2.9551067516,
				"z": -0.0739759281,
				"element": "C" 
			},
			{
				"x": 0.5825582469,
				"y": -1.8277214665,
				"z": -0.7133109265,
				"element": "O" 
			},
			{
				"x": 0.0536225436,
				"y": -0.5954363712,
				"z": -0.4777204282,
				"element": "C" 
			},
			{
				"x": 0.6930366245,
				"y": 0.4704088488,
				"z": -1.1544780231,
				"element": "C" 
			},
			{
				"x": 1.8683244875,
				"y": 0.1913713666,
				"z": -2.0552486613,
				"element": "C" 
			},
			{
				"x": 0.2014046892,
				"y": 1.753645152,
				"z": -0.9565309181,
				"element": "C" 
			},
			{
				"x": -0.8955048502,
				"y": 2.0067382441,
				"z": -0.1147836293,
				"element": "C" 
			},
			{
				"x": -1.5115567175,
				"y": 0.9387423922,
				"z": 0.5434719364,
				"element": "C" 
			},
			{
				"x": -1.0404044027,
				"y": -0.3606271938,
				"z": 0.3644862759,
				"element": "C" 
			},
			{
				"x": -1.3517905448,
				"y": 3.4057569303,
				"z": 0.0370184704,
				"element": "C" 
			},
			{
				"x": -2.4178917888,
				"y": 3.5347673078,
				"z": 0.8725319786,
				"element": "O" 
			},
			{
				"x": -0.8529605282,
				"y": 4.3708709192,
				"z": -0.5115821273,
				"element": "O" 
			},
			{
				"x": 0.5796429127,
				"y": -3.818476307,
				"z": -0.4053966446,
				"element": "H" 
			},
			{
				"x": -1.0477869468,
				"y": -3.0879196031,
				"z": -0.3662751959,
				"element": "H" 
			},
			{
				"x": 0.0630493228,
				"y": -2.8753730987,
				"z": 1.0184981406,
				"element": "H" 
			},
			{
				"x": 1.594706037,
				"y": -0.495360319,
				"z": -2.8637872417,
				"element": "H" 
			},
			{
				"x": 2.2443820852,
				"y": 1.1163061974,
				"z": -2.4990014863,
				"element": "H" 
			},
			{
				"x": 2.685826256,
				"y": -0.2869736713,
				"z": -1.5047254317,
				"element": "H" 
			},
			{
				"x": 0.6657607911,
				"y": 2.5969009604,
				"z": -1.4585373573,
				"element": "H" 
			},
			{
				"x": -2.3582708655,
				"y": 1.1227682949,
				"z": 1.1949248493,
				"element": "H" 
			},
			{
				"x": -1.5269678378,
				"y": -1.1793596859,
				"z": 0.8805968515,
				"element": "H" 
			},
			{
				"x": -2.6188825084,
				"y": 4.4845778542,
				"z": 0.8880254968,
				"element": "H" 
			}
		],
		 "valence_orbital": [ 
			{
				"type": "occ",
				"energy": -0.32754,
				"method": "rhf"
			},
			{
				"type": "occ",
				"energy": -0.30746,
				"method": "rhf"
			},
			{
				"type": "occ",
				"energy": -0.26734,
				"method": "rhf"
			},
			{
				"type": "occ",
				"energy": -0.25147,
				"method": "rhf"
			},
			{
				"type": "occ",
				"energy": -0.22606,
				"method": "rhf"
			},
			{
				"type": "unocc",
				"energy": -0.03431,
				"method": "rhf"
			},
			{
				"type": "unocc",
				"energy": -0.00257,
				"method": "rhf"
			},
			{
				"type": "unocc",
				"energy": 0.06829,
				"method": "rhf"
			},
			{
				"type": "unocc",
				"energy": 0.084,
				"method": "rhf"
			},
			{
				"type": "unocc",
				"energy": 0.0933,
				"method": "rhf"
			}
		],
		"cosmo_sigma_profile": { 
			"-0.025": 0.0,
			"-0.024": 0.0,
			"-0.023": 0.0,
			"-0.022": 0.0,
			"-0.021": 0.0,
			"-0.02": 0.0,
			"-0.019": 0.0,
			"-0.018": 0.315285106865,
			"-0.017": 0.823594861767,
			"-0.016": 0.936735522229,
			"-0.015": 0.894181696494,
			"-0.014": 0.439100966177,
			"-0.013": 0.647164205104,
			"-0.012": 0.983170562382,
			"-0.011": 0.743179231401,
			"-0.01": 0.616359873258,
			"-0.009": 0.889024094318,
			"-0.008": 0.318662977099,
			"-0.007": 2.29499909167,
			"-0.006": 10.5384842732,
			"-0.005": 16.1896708786,
			"-0.004": 17.0319434634,
			"-0.003": 15.7776608495,
			"-0.002": 12.853696151,
			"-0.001": 14.8937590302,
			"0.0": 17.8030830423,
			"0.001": 15.1923997761,
			"0.002": 15.6436637665,
			"0.003": 14.8430520566,
			"0.004": 14.75703561,
			"0.005": 5.38971787491,
			"0.006": 4.17053190044,
			"0.007": 4.6838964687,
			"0.008": 4.52394042655,
			"0.009": 1.82079818047,
			"0.01": 2.19198786801,
			"0.011": 2.13443352768,
			"0.012": 5.34283548253,
			"0.013": 1.33189651942,
			"0.014": 0.0,
			"0.015": 0.0,
			"0.016": 0.0,
			"0.017": 0.0,
			"0.018": 0.0,
			"0.019": 0.0,
			"0.02": 0.0,
			"0.021": 0.0,
			"0.022": 0.0,
			"0.023": 0.0,
			"0.024": 0.0,
			"0.025": 0.0
		}
	}
}
