{
	 "smiles": "COC1=CC=C(C=C1)C1=CC=C(S1)C=O", 
	 "Tm": 391.15, 
	 "num_atms": 25, 
	 "gaussian": { 
		 "optdone": 1, 
		 "sigma_profile": "yes", 
		 "theory": "DFT", 
		 "functional": "B3LYP", 
		 "basiset": "6-31G**", 
		 "properties": { 
			 "R2extent": 5500.1906, 
			 "electric_dipole_moment_norm": 4.68531501289, 
			 "electric_quadrupole_moment_norm": 20.8062454011, 
			 "total_energy": -1011.91344832, 
			 "HOMO_LUMO_gap": 0.14114, 
			 "cosmo_polarized_energy": -12.17, 
			 "cosmo_cavitation_energy": 31.35, 
			 "cosmo_dispersion_energy": -23.35, 
			 "cosmo_repulsion_energy": 1.75, 
			 "cosmo_total_nonelectrostatic_energy": 9.76, 
			 "SMD_solvation_energy": 6.81 
		},
		"coords": [
			{
				"x": 4.6139893635,
				"y": 1.9235813747,
				"z": 0.128969382,
				"element": "C" 
			},
			{
				"x": 4.0026427835,
				"y": 1.390790795,
				"z": 1.2954157855,
				"element": "O" 
			},
			{
				"x": 2.7322781107,
				"y": 0.9136367176,
				"z": 1.199960594,
				"element": "C" 
			},
			{
				"x": 1.9627668296,
				"y": 0.9153733302,
				"z": 0.0296246567,
				"element": "C" 
			},
			{
				"x": 0.6675044588,
				"y": 0.4007384343,
				"z": 0.0535410485,
				"element": "C" 
			},
			{
				"x": 0.1055936999,
				"y": -0.1293460923,
				"z": 1.2253422173,
				"element": "C" 
			},
			{
				"x": 0.901036299,
				"y": -0.1268719159,
				"z": 2.3910474814,
				"element": "C" 
			},
			{
				"x": 2.1870758379,
				"y": 0.3869634143,
				"z": 2.3825732006,
				"element": "C" 
			},
			{
				"x": -1.2569489885,
				"y": -0.6668302696,
				"z": 1.2556604207,
				"element": "C" 
			},
			{
				"x": -2.103320198,
				"y": -0.7732981371,
				"z": 2.3483641092,
				"element": "C" 
			},
			{
				"x": -3.3575268336,
				"y": -1.3395056259,
				"z": 2.0307135235,
				"element": "C" 
			},
			{
				"x": -3.4829516521,
				"y": -1.6705596379,
				"z": 0.6956811892,
				"element": "C" 
			},
			{
				"x": -2.0246390948,
				"y": -1.2901624803,
				"z": -0.185469422,
				"element": "S" 
			},
			{
				"x": -4.6322148642,
				"y": -2.2615139017,
				"z": 0.0307837669,
				"element": "C" 
			},
			{
				"x": -4.6919314963,
				"y": -2.5307968997,
				"z": -1.1584370804,
				"element": "O" 
			},
			{
				"x": 4.0651947575,
				"y": 2.7936973836,
				"z": -0.2528360962,
				"element": "H" 
			},
			{
				"x": 5.6151693884,
				"y": 2.2345746874,
				"z": 0.4301600885,
				"element": "H" 
			},
			{
				"x": 4.6928931665,
				"y": 1.1705132104,
				"z": -0.6651303331,
				"element": "H" 
			},
			{
				"x": 2.3537783799,
				"y": 1.31998785,
				"z": -0.8960712665,
				"element": "H" 
			},
			{
				"x": 0.0777090149,
				"y": 0.4332357508,
				"z": -0.8579608023,
				"element": "H" 
			},
			{
				"x": 0.5099192668,
				"y": -0.5560238274,
				"z": 3.3080566183,
				"element": "H" 
			},
			{
				"x": 2.8002262486,
				"y": 0.3823045102,
				"z": 3.2776420683,
				"element": "H" 
			},
			{
				"x": -1.8348263856,
				"y": -0.4226675982,
				"z": 3.3378853354,
				"element": "H" 
			},
			{
				"x": -4.1559250607,
				"y": -1.4928351324,
				"z": 2.7495019456,
				"element": "H" 
			},
			{
				"x": -5.4884930317,
				"y": -2.4599859401,
				"z": 0.7124815689,
				"element": "H" 
			}
		],
		 "valence_orbital": [ 
			{
				"type": "occ",
				"energy": -0.26651,
				"method": "rhf"
			},
			{
				"type": "occ",
				"energy": -0.26496,
				"method": "rhf"
			},
			{
				"type": "occ",
				"energy": -0.25914,
				"method": "rhf"
			},
			{
				"type": "occ",
				"energy": -0.25072,
				"method": "rhf"
			},
			{
				"type": "occ",
				"energy": -0.21204,
				"method": "rhf"
			},
			{
				"type": "unocc",
				"energy": -0.0709,
				"method": "rhf"
			},
			{
				"type": "unocc",
				"energy": -0.01506,
				"method": "rhf"
			},
			{
				"type": "unocc",
				"energy": -0.0084,
				"method": "rhf"
			},
			{
				"type": "unocc",
				"energy": 0.03087,
				"method": "rhf"
			},
			{
				"type": "unocc",
				"energy": 0.04721,
				"method": "rhf"
			}
		],
		"cosmo_sigma_profile": { 
			"-0.025": 0.0,
			"-0.024": 0.0,
			"-0.023": 0.0,
			"-0.022": 0.0,
			"-0.021": 0.0,
			"-0.02": 0.0,
			"-0.019": 0.0,
			"-0.018": 0.0,
			"-0.017": 0.0,
			"-0.016": 0.0,
			"-0.015": 0.0,
			"-0.014": 0.0,
			"-0.013": 0.0,
			"-0.012": 0.0,
			"-0.011": 0.0,
			"-0.01": 0.0,
			"-0.009": 0.11645424148,
			"-0.008": 4.41202486451,
			"-0.007": 10.5550101471,
			"-0.006": 18.9447619546,
			"-0.005": 21.6751785844,
			"-0.004": 19.6735112144,
			"-0.003": 17.0064119063,
			"-0.002": 13.3198315537,
			"-0.001": 12.7504441062,
			"0.0": 14.209614063,
			"0.001": 16.9910343905,
			"0.002": 28.538745041,
			"0.003": 26.1037921283,
			"0.004": 17.9306580255,
			"0.005": 5.4422556751,
			"0.006": 2.74926547081,
			"0.007": 3.65525635684,
			"0.008": 2.96973327874,
			"0.009": 3.17720306255,
			"0.01": 3.61137929778,
			"0.011": 3.58013642927,
			"0.012": 4.22054272066,
			"0.013": 1.80175199443,
			"0.014": 0.163446400663,
			"0.015": 0.0,
			"0.016": 0.0,
			"0.017": 0.0,
			"0.018": 0.0,
			"0.019": 0.0,
			"0.02": 0.0,
			"0.021": 0.0,
			"0.022": 0.0,
			"0.023": 0.0,
			"0.024": 0.0,
			"0.025": 0.0
		}
	}
}
