{
	 "smiles": "OC1=C(F)C=CC(F)=C1", 
	 "Tm": 311.15, 
	 "num_atms": 13, 
	 "gaussian": { 
		 "optdone": 1, 
		 "sigma_profile": "yes", 
		 "theory": "DFT", 
		 "functional": "B3LYP", 
		 "basiset": "6-31G**", 
		 "properties": { 
			 "R2extent": 2608.8101, 
			 "electric_dipole_moment_norm": 1.3319173135, 
			 "electric_quadrupole_moment_norm": 10.8181383921, 
			 "total_energy": -505.927579715, 
			 "HOMO_LUMO_gap": 0.2158, 
			 "cosmo_polarized_energy": -8.66, 
			 "cosmo_cavitation_energy": 18.46, 
			 "cosmo_dispersion_energy": -13.6, 
			 "cosmo_repulsion_energy": 1.07, 
			 "cosmo_total_nonelectrostatic_energy": 5.93, 
			 "SMD_solvation_energy": 4.69 
		},
		"coords": [
			{
				"x": -0.5390792234,
				"y": 2.5455786594,
				"z": 1.1646516094,
				"element": "O" 
			},
			{
				"x": -0.2500853772,
				"y": 2.3733310414,
				"z": -0.1529703862,
				"element": "C" 
			},
			{
				"x": -1.1957593583,
				"y": 1.6984978107,
				"z": -0.9401975648,
				"element": "C" 
			},
			{
				"x": -2.3269929368,
				"y": 1.2627786846,
				"z": -0.3523870454,
				"element": "F" 
			},
			{
				"x": -0.9840989907,
				"y": 1.4785020886,
				"z": -2.291348183,
				"element": "C" 
			},
			{
				"x": 0.1895828569,
				"y": 1.9301381195,
				"z": -2.9029288325,
				"element": "C" 
			},
			{
				"x": 1.1199120451,
				"y": 2.5965154649,
				"z": -2.1182741445,
				"element": "C" 
			},
			{
				"x": 2.2618788493,
				"y": 3.0434930465,
				"z": -2.682149581,
				"element": "F" 
			},
			{
				"x": 0.9241492585,
				"y": 2.8266070218,
				"z": -0.759018514,
				"element": "C" 
			},
			{
				"x": 0.1875928558,
				"y": 3.0199208643,
				"z": 1.588633456,
				"element": "H" 
			},
			{
				"x": -1.7456272287,
				"y": 0.951835376,
				"z": -2.8562048443,
				"element": "H" 
			},
			{
				"x": 0.3808043705,
				"y": 1.7717767903,
				"z": -3.9574208412,
				"element": "H" 
			},
			{
				"x": 1.6835228789,
				"y": 3.3534250319,
				"z": -0.1889851284,
				"element": "H" 
			}
		],
		 "valence_orbital": [ 
			{
				"type": "occ",
				"energy": -0.36956,
				"method": "rhf"
			},
			{
				"type": "occ",
				"energy": -0.35944,
				"method": "rhf"
			},
			{
				"type": "occ",
				"energy": -0.33552,
				"method": "rhf"
			},
			{
				"type": "occ",
				"energy": -0.25623,
				"method": "rhf"
			},
			{
				"type": "occ",
				"energy": -0.22772,
				"method": "rhf"
			},
			{
				"type": "unocc",
				"energy": -0.01192,
				"method": "rhf"
			},
			{
				"type": "unocc",
				"energy": 0.00812,
				"method": "rhf"
			},
			{
				"type": "unocc",
				"energy": 0.05646,
				"method": "rhf"
			},
			{
				"type": "unocc",
				"energy": 0.07543,
				"method": "rhf"
			},
			{
				"type": "unocc",
				"energy": 0.13487,
				"method": "rhf"
			}
		],
		"cosmo_sigma_profile": { 
			"-0.025": 0.0,
			"-0.024": 0.0,
			"-0.023": 0.0,
			"-0.022": 0.0,
			"-0.021": 0.0,
			"-0.02": 0.0,
			"-0.019": 0.339226112543,
			"-0.018": 1.236592997,
			"-0.017": 1.05271421357,
			"-0.016": 1.50845653266,
			"-0.015": 0.926542547679,
			"-0.014": 0.6370776761,
			"-0.013": 1.16857041673,
			"-0.012": 0.621180536574,
			"-0.011": 1.57199030621,
			"-0.01": 1.38536259091,
			"-0.009": 1.12146429072,
			"-0.008": 2.47272686427,
			"-0.007": 5.12589600913,
			"-0.006": 5.34666489477,
			"-0.005": 5.28601087744,
			"-0.004": 5.03999747127,
			"-0.003": 3.82489544889,
			"-0.002": 5.10049463791,
			"-0.001": 5.10432324529,
			"0.0": 7.6427800723,
			"0.001": 19.0976848712,
			"0.002": 17.6342057861,
			"0.003": 14.2242339792,
			"0.004": 21.3485480836,
			"0.005": 8.18792859744,
			"0.006": 2.91100498805,
			"0.007": 1.54447260386,
			"0.008": 1.51370926004,
			"0.009": 2.39343449534,
			"0.01": 2.07624966353,
			"0.011": 0.941942502575,
			"0.012": 0.0,
			"0.013": 0.0,
			"0.014": 0.0,
			"0.015": 0.0,
			"0.016": 0.0,
			"0.017": 0.0,
			"0.018": 0.0,
			"0.019": 0.0,
			"0.02": 0.0,
			"0.021": 0.0,
			"0.022": 0.0,
			"0.023": 0.0,
			"0.024": 0.0,
			"0.025": 0.0
		}
	}
}
