{
	 "smiles": "CC1=C(C)C=C(C=C1)N1CC(CCC1=O)C(O)=O", 
	 "Tm": 458.15, 
	 "num_atms": 35, 
	 "gaussian": { 
		 "optdone": 1, 
		 "sigma_profile": "yes", 
		 "theory": "DFT", 
		 "functional": "B3LYP", 
		 "basiset": "6-31G**", 
		 "properties": { 
			 "R2extent": 5786.239, 
			 "electric_dipole_moment_norm": 3.19312664014, 
			 "electric_quadrupole_moment_norm": 21.4676874824, 
			 "total_energy": -824.200866981, 
			 "HOMO_LUMO_gap": 0.20667, 
			 "cosmo_polarized_energy": -18.29, 
			 "cosmo_cavitation_energy": 37.18, 
			 "cosmo_dispersion_energy": -26.11, 
			 "cosmo_repulsion_energy": 2.03, 
			 "cosmo_total_nonelectrostatic_energy": 13.1, 
			 "SMD_solvation_energy": 7.37 
		},
		"coords": [
			{
				"x": 2.4330108676,
				"y": -3.0917046561,
				"z": -1.7864783505,
				"element": "C" 
			},
			{
				"x": 1.6723097102,
				"y": -1.8246900274,
				"z": -1.4780564166,
				"element": "C" 
			},
			{
				"x": 0.3255796612,
				"y": -1.6673324089,
				"z": -1.8742611601,
				"element": "C" 
			},
			{
				"x": -0.3923721754,
				"y": -2.7684658786,
				"z": -2.618640921,
				"element": "C" 
			},
			{
				"x": -0.3514190735,
				"y": -0.4860198118,
				"z": -1.5674858494,
				"element": "C" 
			},
			{
				"x": 0.2791449711,
				"y": 0.5595884835,
				"z": -0.8800781258,
				"element": "C" 
			},
			{
				"x": 1.6147198563,
				"y": 0.4084537628,
				"z": -0.4983934518,
				"element": "C" 
			},
			{
				"x": 2.2896629285,
				"y": -0.7763898765,
				"z": -0.792533138,
				"element": "C" 
			},
			{
				"x": -0.4407312418,
				"y": 1.7527997957,
				"z": -0.5550129158,
				"element": "N" 
			},
			{
				"x": -0.1209622452,
				"y": 2.4617398451,
				"z": 0.6926055165,
				"element": "C" 
			},
			{
				"x": -1.3753007997,
				"y": 3.0081285287,
				"z": 1.4085049272,
				"element": "C" 
			},
			{
				"x": -2.484776773,
				"y": 3.4271226476,
				"z": 0.4094702832,
				"element": "C" 
			},
			{
				"x": -1.8791436405,
				"y": 3.6750399676,
				"z": -0.9780444891,
				"element": "C" 
			},
			{
				"x": -1.2212174515,
				"y": 2.4034746409,
				"z": -1.5026958145,
				"element": "C" 
			},
			{
				"x": -1.4095329104,
				"y": 1.9878590447,
				"z": -2.6361817098,
				"element": "O" 
			},
			{
				"x": -1.8759242095,
				"y": 2.0336766745,
				"z": 2.467575081,
				"element": "C" 
			},
			{
				"x": -3.0864951403,
				"y": 2.4033417333,
				"z": 2.9493562666,
				"element": "O" 
			},
			{
				"x": -1.2818496021,
				"y": 1.0629826002,
				"z": 2.8817533693,
				"element": "O" 
			},
			{
				"x": 2.4812293052,
				"y": -3.2846995693,
				"z": -2.8653000362,
				"element": "H" 
			},
			{
				"x": 1.9606110583,
				"y": -3.9712074524,
				"z": -1.3315755918,
				"element": "H" 
			},
			{
				"x": 3.4589730851,
				"y": -3.0356161269,
				"z": -1.4127198565,
				"element": "H" 
			},
			{
				"x": -0.4179565809,
				"y": -3.6996938935,
				"z": -2.0394032686,
				"element": "H" 
			},
			{
				"x": -1.4234537248,
				"y": -2.4849100344,
				"z": -2.8436601248,
				"element": "H" 
			},
			{
				"x": 0.103693986,
				"y": -3.0022553748,
				"z": -3.5685883494,
				"element": "H" 
			},
			{
				"x": -1.3823169259,
				"y": -0.3674661895,
				"z": -1.8763828605,
				"element": "H" 
			},
			{
				"x": 2.1383922924,
				"y": 1.2085807781,
				"z": 0.0142363342,
				"element": "H" 
			},
			{
				"x": 3.3276110037,
				"y": -0.8813638203,
				"z": -0.4864541754,
				"element": "H" 
			},
			{
				"x": 0.3807216465,
				"y": 1.7605636807,
				"z": 1.358229048,
				"element": "H" 
			},
			{
				"x": 0.5684873648,
				"y": 3.2928844933,
				"z": 0.4941616554,
				"element": "H" 
			},
			{
				"x": -1.0621381957,
				"y": 3.898355383,
				"z": 1.9715188745,
				"element": "H" 
			},
			{
				"x": -3.2332797005,
				"y": 2.6330627531,
				"z": 0.3273333662,
				"element": "H" 
			},
			{
				"x": -3.0130067567,
				"y": 4.3116613564,
				"z": 0.7743994252,
				"element": "H" 
			},
			{
				"x": -1.1397978072,
				"y": 4.4867416252,
				"z": -0.9356239647,
				"element": "H" 
			},
			{
				"x": -2.638976437,
				"y": 3.9625729583,
				"z": -1.7069623772,
				"element": "H" 
			},
			{
				"x": -3.3189963452,
				"y": 1.7491843676,
				"z": 3.6298888004,
				"element": "H" 
			}
		],
		 "valence_orbital": [ 
			{
				"type": "occ",
				"energy": -0.28435,
				"method": "rhf"
			},
			{
				"type": "occ",
				"energy": -0.26842,
				"method": "rhf"
			},
			{
				"type": "occ",
				"energy": -0.24445,
				"method": "rhf"
			},
			{
				"type": "occ",
				"energy": -0.23117,
				"method": "rhf"
			},
			{
				"type": "occ",
				"energy": -0.20941,
				"method": "rhf"
			},
			{
				"type": "unocc",
				"energy": -0.00274,
				"method": "rhf"
			},
			{
				"type": "unocc",
				"energy": -0.00034,
				"method": "rhf"
			},
			{
				"type": "unocc",
				"energy": 0.01082,
				"method": "rhf"
			},
			{
				"type": "unocc",
				"energy": 0.03908,
				"method": "rhf"
			},
			{
				"type": "unocc",
				"energy": 0.06694,
				"method": "rhf"
			}
		],
		"cosmo_sigma_profile": { 
			"-0.025": 0.0,
			"-0.024": 0.0,
			"-0.023": 0.0,
			"-0.022": 0.0,
			"-0.021": 0.0,
			"-0.02": 0.0,
			"-0.019": 0.00401448968658,
			"-0.018": 0.919292620713,
			"-0.017": 0.942938606224,
			"-0.016": 0.601000415708,
			"-0.015": 0.932965814849,
			"-0.014": 0.658887868261,
			"-0.013": 1.15957045097,
			"-0.012": 0.540772750096,
			"-0.011": 0.406250891735,
			"-0.01": 0.732663640517,
			"-0.009": 0.465570702461,
			"-0.008": 1.4496041763,
			"-0.007": 6.69733549709,
			"-0.006": 13.0708564936,
			"-0.005": 21.0121833068,
			"-0.004": 30.5032353739,
			"-0.003": 29.2458270399,
			"-0.002": 26.5623656285,
			"-0.001": 22.8159000481,
			"0.0": 23.7979390773,
			"0.001": 16.5966058501,
			"0.002": 11.6921183356,
			"0.003": 10.9977307388,
			"0.004": 10.3754753347,
			"0.005": 11.0447935676,
			"0.006": 11.5792486091,
			"0.007": 5.59998625592,
			"0.008": 3.84848208065,
			"0.009": 4.52998890541,
			"0.01": 3.78922191047,
			"0.011": 6.03076216652,
			"0.012": 4.23662623801,
			"0.013": 4.42292395593,
			"0.014": 3.91662474062,
			"0.015": 0.75391289177,
			"0.016": 0.0,
			"0.017": 0.0,
			"0.018": 0.0,
			"0.019": 0.0,
			"0.02": 0.0,
			"0.021": 0.0,
			"0.022": 0.0,
			"0.023": 0.0,
			"0.024": 0.0,
			"0.025": 0.0
		}
	}
}
