{
	 "smiles": "NNC(=O)NN", 
	 "Tm": 429.15, 
	 "num_atms": 12, 
	 "gaussian": { 
		 "optdone": 1, 
		 "sigma_profile": "yes", 
		 "theory": "DFT", 
		 "functional": "B3LYP", 
		 "basiset": "6-31G**", 
		 "properties": { 
			 "R2extent": 1096.9017, 
			 "electric_dipole_moment_norm": 2.59062521411, 
			 "electric_quadrupole_moment_norm": 6.72438606789, 
			 "total_energy": -335.901805506, 
			 "HOMO_LUMO_gap": 0.29042, 
			 "cosmo_polarized_energy": -15.79, 
			 "cosmo_cavitation_energy": 16.01, 
			 "cosmo_dispersion_energy": -12.12, 
			 "cosmo_repulsion_energy": 1.08, 
			 "cosmo_total_nonelectrostatic_energy": 4.97, 
			 "SMD_solvation_energy": 4.68 
		},
		"coords": [
			{
				"x": -0.4794632405,
				"y": -1.1384953856,
				"z": 1.7697893996,
				"element": "N" 
			},
			{
				"x": 0.8357914847,
				"y": -1.5020089159,
				"z": 1.4217183973,
				"element": "N" 
			},
			{
				"x": 1.3284526159,
				"y": -1.4790065938,
				"z": 0.1271472124,
				"element": "C" 
			},
			{
				"x": 2.5283297098,
				"y": -1.4519707745,
				"z": -0.1164698532,
				"element": "O" 
			},
			{
				"x": 0.3569425427,
				"y": -1.49248756,
				"z": -0.8689732989,
				"element": "N" 
			},
			{
				"x": 0.7893532642,
				"y": -1.7290456,
				"z": -2.1989551782,
				"element": "N" 
			},
			{
				"x": -0.8143763769,
				"y": -0.3855600598,
				"z": 1.1713878969,
				"element": "H" 
			},
			{
				"x": -1.0985356345,
				"y": -1.9393238693,
				"z": 1.6737587758,
				"element": "H" 
			},
			{
				"x": 1.5314832409,
				"y": -1.2551257416,
				"z": 2.1132223807,
				"element": "H" 
			},
			{
				"x": -0.5037980039,
				"y": -1.9794999555,
				"z": -0.6556102586,
				"element": "H" 
			},
			{
				"x": 0.9965179435,
				"y": -0.8191264472,
				"z": -2.6073157737,
				"element": "H" 
			},
			{
				"x": 1.6910024543,
				"y": -2.2057490969,
				"z": -2.1355997001,
				"element": "H" 
			}
		],
		 "valence_orbital": [ 
			{
				"type": "occ",
				"energy": -0.30445,
				"method": "rhf"
			},
			{
				"type": "occ",
				"energy": -0.28822,
				"method": "rhf"
			},
			{
				"type": "occ",
				"energy": -0.2607,
				"method": "rhf"
			},
			{
				"type": "occ",
				"energy": -0.25891,
				"method": "rhf"
			},
			{
				"type": "occ",
				"energy": -0.25145,
				"method": "rhf"
			},
			{
				"type": "unocc",
				"energy": 0.03897,
				"method": "rhf"
			},
			{
				"type": "unocc",
				"energy": 0.06311,
				"method": "rhf"
			},
			{
				"type": "unocc",
				"energy": 0.09448,
				"method": "rhf"
			},
			{
				"type": "unocc",
				"energy": 0.10622,
				"method": "rhf"
			},
			{
				"type": "unocc",
				"energy": 0.11957,
				"method": "rhf"
			}
		],
		"cosmo_sigma_profile": { 
			"-0.025": 0.0,
			"-0.024": 0.0,
			"-0.023": 0.0,
			"-0.022": 0.0,
			"-0.021": 0.0,
			"-0.02": 0.0,
			"-0.019": 0.0,
			"-0.018": 0.0,
			"-0.017": 0.0,
			"-0.016": 0.0,
			"-0.015": 0.080232532951,
			"-0.014": 1.68928389623,
			"-0.013": 2.81159031209,
			"-0.012": 4.2387559951,
			"-0.011": 5.9992545212,
			"-0.01": 5.40413267334,
			"-0.009": 4.82467118059,
			"-0.008": 5.50109651847,
			"-0.007": 5.51292907338,
			"-0.006": 3.8295857835,
			"-0.005": 3.78025789093,
			"-0.004": 5.34140736029,
			"-0.003": 5.87929766378,
			"-0.002": 4.63859693135,
			"-0.001": 3.80781419833,
			"0.0": 3.60003047909,
			"0.001": 4.9424820168,
			"0.002": 4.14751098977,
			"0.003": 3.83622383597,
			"0.004": 5.58276810673,
			"0.005": 4.51265435729,
			"0.006": 3.30642955101,
			"0.007": 3.89630647374,
			"0.008": 2.63290353024,
			"0.009": 2.37931738511,
			"0.01": 2.049662588,
			"0.011": 2.93974683496,
			"0.012": 2.80095475393,
			"0.013": 4.71833475867,
			"0.014": 6.5203037987,
			"0.015": 1.6502519469,
			"0.016": 1.17547529826,
			"0.017": 0.412851464891,
			"0.018": 0.0426340104198,
			"0.019": 0.0,
			"0.02": 0.0,
			"0.021": 0.0,
			"0.022": 0.0,
			"0.023": 0.0,
			"0.024": 0.0,
			"0.025": 0.0
		}
	}
}
