{
	 "smiles": "BrC1CCCCC1", 
	 "Tm": 216.35, 
	 "num_atms": 18, 
	 "gaussian": { 
		 "optdone": 1, 
		 "sigma_profile": "yes", 
		 "theory": "DFT", 
		 "functional": "B3LYP", 
		 "basiset": "6-31G**", 
		 "properties": { 
			 "R2extent": 3168.0065, 
			 "electric_dipole_moment_norm": 2.58344573777, 
			 "electric_quadrupole_moment_norm": 10.9350251806, 
			 "total_energy": -2806.68809193, 
			 "HOMO_LUMO_gap": 0.266, 
			 "cosmo_polarized_energy": -3.6, 
			 "cosmo_cavitation_energy": 20.9, 
			 "cosmo_dispersion_energy": -16.31, 
			 "cosmo_repulsion_energy": 1.37, 
			 "cosmo_total_nonelectrostatic_energy": 5.96, 
			 "SMD_solvation_energy": 1.54 
		},
		"coords": [
			{
				"x": 4.0066340537,
				"y": 0.3245767497,
				"z": -0.8697893225,
				"element": "Br" 
			},
			{
				"x": 2.2842327223,
				"y": 0.8471347844,
				"z": 0.0020619751,
				"element": "C" 
			},
			{
				"x": 2.0591100029,
				"y": 2.3607252118,
				"z": -0.1440850333,
				"element": "C" 
			},
			{
				"x": 0.5576271283,
				"y": 2.7245592346,
				"z": 0.0086138274,
				"element": "C" 
			},
			{
				"x": -0.181636622,
				"y": 1.7165957823,
				"z": 0.898405847,
				"element": "C" 
			},
			{
				"x": -0.1554664675,
				"y": 0.2996843641,
				"z": 0.2756218175,
				"element": "C" 
			},
			{
				"x": 1.1243702469,
				"y": 0.037276196,
				"z": -0.5648967708,
				"element": "C" 
			},
			{
				"x": 2.4579494214,
				"y": 0.5746234329,
				"z": 1.0446164036,
				"element": "H" 
			},
			{
				"x": 2.417480757,
				"y": 2.688169209,
				"z": -1.1242369622,
				"element": "H" 
			},
			{
				"x": 2.6645298378,
				"y": 2.8851071782,
				"z": 0.602632993,
				"element": "H" 
			},
			{
				"x": 0.081512177,
				"y": 2.7400924915,
				"z": -0.9798346602,
				"element": "H" 
			},
			{
				"x": 0.4643264123,
				"y": 3.7395233667,
				"z": 0.4093727035,
				"element": "H" 
			},
			{
				"x": -1.2165995219,
				"y": 2.0348945346,
				"z": 1.0634627257,
				"element": "H" 
			},
			{
				"x": 0.2922673239,
				"y": 1.6988667559,
				"z": 1.8886049735,
				"element": "H" 
			},
			{
				"x": -0.2360890761,
				"y": -0.4501010323,
				"z": 1.0707320436,
				"element": "H" 
			},
			{
				"x": -1.0296220157,
				"y": 0.1592710868,
				"z": -0.3702279191,
				"element": "H" 
			},
			{
				"x": 0.9672799701,
				"y": 0.3333661977,
				"z": -1.6084742437,
				"element": "H" 
			},
			{
				"x": 1.3652936496,
				"y": -1.0288655439,
				"z": -0.573680398,
				"element": "H" 
			}
		],
		 "valence_orbital": [ 
			{
				"type": "occ",
				"energy": -0.31598,
				"method": "rhf"
			},
			{
				"type": "occ",
				"energy": -0.31413,
				"method": "rhf"
			},
			{
				"type": "occ",
				"energy": -0.30936,
				"method": "rhf"
			},
			{
				"type": "occ",
				"energy": -0.26327,
				"method": "rhf"
			},
			{
				"type": "occ",
				"energy": -0.26315,
				"method": "rhf"
			},
			{
				"type": "unocc",
				"energy": 0.00285,
				"method": "rhf"
			},
			{
				"type": "unocc",
				"energy": 0.07978,
				"method": "rhf"
			},
			{
				"type": "unocc",
				"energy": 0.09942,
				"method": "rhf"
			},
			{
				"type": "unocc",
				"energy": 0.12285,
				"method": "rhf"
			},
			{
				"type": "unocc",
				"energy": 0.13632,
				"method": "rhf"
			}
		],
		"cosmo_sigma_profile": { 
			"-0.025": 0.0,
			"-0.024": 0.0,
			"-0.023": 0.0,
			"-0.022": 0.0,
			"-0.021": 0.0,
			"-0.02": 0.0,
			"-0.019": 0.0,
			"-0.018": 0.0,
			"-0.017": 0.0,
			"-0.016": 0.0,
			"-0.015": 0.0,
			"-0.014": 0.0,
			"-0.013": 0.0,
			"-0.012": 0.0,
			"-0.011": 0.0,
			"-0.01": 0.0,
			"-0.009": 0.0,
			"-0.008": 0.0,
			"-0.007": 0.0,
			"-0.006": 1.42867702387,
			"-0.005": 3.17748336491,
			"-0.004": 5.63709066053,
			"-0.003": 22.4930490798,
			"-0.002": 31.7446506942,
			"-0.001": 24.7846073812,
			"0.0": 22.82808278,
			"0.001": 14.6591651047,
			"0.002": 4.94803466206,
			"0.003": 4.54407499549,
			"0.004": 5.29052633526,
			"0.005": 5.14282226342,
			"0.006": 8.41722043452,
			"0.007": 9.40863380781,
			"0.008": 0.201288622104,
			"0.009": 0.0,
			"0.01": 0.0,
			"0.011": 0.0,
			"0.012": 0.0,
			"0.013": 0.0,
			"0.014": 0.0,
			"0.015": 0.0,
			"0.016": 0.0,
			"0.017": 0.0,
			"0.018": 0.0,
			"0.019": 0.0,
			"0.02": 0.0,
			"0.021": 0.0,
			"0.022": 0.0,
			"0.023": 0.0,
			"0.024": 0.0,
			"0.025": 0.0
		}
	}
}
