{
	 "smiles": "C#CC1=NC2=C(C=CC=C2)N=C1", 
	 "Tm": 373.15, 
	 "num_atms": 18, 
	 "gaussian": { 
		 "optdone": 1, 
		 "sigma_profile": "yes", 
		 "theory": "DFT", 
		 "functional": "B3LYP", 
		 "basiset": "6-31G**", 
		 "properties": { 
			 "R2extent": 2190.7823, 
			 "electric_dipole_moment_norm": 0.621757999546, 
			 "electric_quadrupole_moment_norm": 16.6412343181, 
			 "total_energy": -494.106179081, 
			 "HOMO_LUMO_gap": 0.16351, 
			 "cosmo_polarized_energy": -8.09, 
			 "cosmo_cavitation_energy": 23.88, 
			 "cosmo_dispersion_energy": -17.25, 
			 "cosmo_repulsion_energy": 1.33, 
			 "cosmo_total_nonelectrostatic_energy": 7.96, 
			 "SMD_solvation_energy": 2.26 
		},
		"coords": [
			{
				"x": 2.1011983595,
				"y": -0.3171990608,
				"z": -3.5069225704,
				"element": "C" 
			},
			{
				"x": 1.5719038009,
				"y": -0.2727190753,
				"z": -2.4205634895,
				"element": "C" 
			},
			{
				"x": 0.8919338219,
				"y": -0.2089877255,
				"z": -1.1620094019,
				"element": "C" 
			},
			{
				"x": 1.5815042561,
				"y": -0.3933461771,
				"z": -0.0448598181,
				"element": "N" 
			},
			{
				"x": 0.8828322389,
				"y": -0.3214031655,
				"z": 1.1207557112,
				"element": "C" 
			},
			{
				"x": -0.5238636612,
				"y": -0.0598583187,
				"z": 1.1325976302,
				"element": "C" 
			},
			{
				"x": -1.2114228507,
				"y": 0.0064890202,
				"z": 2.3696733746,
				"element": "C" 
			},
			{
				"x": -0.5235092811,
				"y": -0.1805301799,
				"z": 3.548606905,
				"element": "C" 
			},
			{
				"x": 0.8715602804,
				"y": -0.4400022309,
				"z": 3.5388032844,
				"element": "C" 
			},
			{
				"x": 1.5650395744,
				"y": -0.509984654,
				"z": 2.3515298273,
				"element": "C" 
			},
			{
				"x": -1.2121845664,
				"y": 0.1266500538,
				"z": -0.0329389627,
				"element": "N" 
			},
			{
				"x": -0.5187163506,
				"y": 0.0529488313,
				"z": -1.1435183952,
				"element": "C" 
			},
			{
				"x": 2.5849462181,
				"y": -0.360241573,
				"z": -4.4554843177,
				"element": "H" 
			},
			{
				"x": -2.2778690373,
				"y": 0.2062250464,
				"z": 2.3490180307,
				"element": "H" 
			},
			{
				"x": -1.0491243725,
				"y": -0.1299629941,
				"z": 4.4975438877,
				"element": "H" 
			},
			{
				"x": 1.3928432033,
				"y": -0.5841471718,
				"z": 4.480524835,
				"element": "H" 
			},
			{
				"x": 2.6315212608,
				"y": -0.7069265563,
				"z": 2.3157378373,
				"element": "H" 
			},
			{
				"x": -1.0462928944,
				"y": 0.1982959313,
				"z": -2.0842943679,
				"element": "H" 
			}
		],
		 "valence_orbital": [ 
			{
				"type": "occ",
				"energy": -0.30267,
				"method": "rhf"
			},
			{
				"type": "occ",
				"energy": -0.28776,
				"method": "rhf"
			},
			{
				"type": "occ",
				"energy": -0.25475,
				"method": "rhf"
			},
			{
				"type": "occ",
				"energy": -0.25208,
				"method": "rhf"
			},
			{
				"type": "occ",
				"energy": -0.24347,
				"method": "rhf"
			},
			{
				"type": "unocc",
				"energy": -0.07996,
				"method": "rhf"
			},
			{
				"type": "unocc",
				"energy": -0.03922,
				"method": "rhf"
			},
			{
				"type": "unocc",
				"energy": 0.00443,
				"method": "rhf"
			},
			{
				"type": "unocc",
				"energy": 0.03929,
				"method": "rhf"
			},
			{
				"type": "unocc",
				"energy": 0.04304,
				"method": "rhf"
			}
		],
		"cosmo_sigma_profile": { 
			"-0.025": 0.0,
			"-0.024": 0.0,
			"-0.023": 0.0,
			"-0.022": 0.0,
			"-0.021": 0.0,
			"-0.02": 0.0,
			"-0.019": 0.0,
			"-0.018": 0.0,
			"-0.017": 0.0,
			"-0.016": 0.0,
			"-0.015": 0.0,
			"-0.014": 0.0,
			"-0.013": 0.640666844617,
			"-0.012": 1.50923173236,
			"-0.011": 1.41738266382,
			"-0.01": 0.535000801113,
			"-0.009": 1.75696964988,
			"-0.008": 2.08064159601,
			"-0.007": 7.2437993835,
			"-0.006": 10.7014988717,
			"-0.005": 10.8139916355,
			"-0.004": 10.8094869075,
			"-0.003": 12.9611185674,
			"-0.002": 14.7340653628,
			"-0.001": 12.9132751777,
			"0.0": 13.6325793363,
			"0.001": 16.8631499023,
			"0.002": 19.67597101,
			"0.003": 17.307253303,
			"0.004": 10.1084088449,
			"0.005": 9.7959002233,
			"0.006": 5.02226997972,
			"0.007": 2.18829328292,
			"0.008": 2.58264031469,
			"0.009": 1.8720096061,
			"0.01": 1.23210457665,
			"0.011": 2.20145672753,
			"0.012": 1.54628937986,
			"0.013": 1.40244639348,
			"0.014": 1.19264969397,
			"0.015": 0.0823271493899,
			"0.016": 0.0,
			"0.017": 0.0,
			"0.018": 0.0,
			"0.019": 0.0,
			"0.02": 0.0,
			"0.021": 0.0,
			"0.022": 0.0,
			"0.023": 0.0,
			"0.024": 0.0,
			"0.025": 0.0
		}
	}
}
