{
	 "smiles": "CC(=O)O[C@H]1CC[C@@]2(C)[C@@H](CCC3C2CC[C@@]2(C)C3CCC(=O)[C@@]2(C)OC(C)=O)C1", 
	 "Tm": 474.15, 
	 "num_atms": 68, 
	 "gaussian": { 
		 "optdone": 1, 
		 "sigma_profile": "yes", 
		 "theory": "DFT", 
		 "functional": "B3LYP", 
		 "basiset": "6-31G**", 
		 "properties": { 
			 "R2extent": 16841.6086, 
			 "electric_dipole_moment_norm": 2.3815518764, 
			 "electric_quadrupole_moment_norm": 26.8434452196, 
			 "total_energy": -1351.71490933, 
			 "HOMO_LUMO_gap": 0.21706, 
			 "cosmo_polarized_energy": -16.05, 
			 "cosmo_cavitation_energy": 59.07, 
			 "cosmo_dispersion_energy": -39.62, 
			 "cosmo_repulsion_energy": 2.92, 
			 "cosmo_total_nonelectrostatic_energy": 22.37, 
			 "SMD_solvation_energy": 10.89 
		},
		"coords": [
			{
				"x": 4.8390857174,
				"y": -6.0086695012,
				"z": 0.9327668447,
				"element": "C" 
			},
			{
				"x": 4.0308270404,
				"y": -5.1937965745,
				"z": -0.0509281884,
				"element": "C" 
			},
			{
				"x": 4.2294323369,
				"y": -5.1431575706,
				"z": -1.246182181,
				"element": "O" 
			},
			{
				"x": 3.0418972486,
				"y": -4.5221516505,
				"z": 0.5815369441,
				"element": "O" 
			},
			{
				"x": 2.1695089835,
				"y": -3.704302725,
				"z": -0.2522599,
				"element": "C" 
			},
			{
				"x": 0.8503787052,
				"y": -3.5430047321,
				"z": 0.5184263364,
				"element": "C" 
			},
			{
				"x": 0.9124616994,
				"y": -2.390882948,
				"z": 1.5285861833,
				"element": "C" 
			},
			{
				"x": 1.1983366521,
				"y": -0.9995981091,
				"z": 0.867666793,
				"element": "C" 
			},
			{
				"x": 2.2053805919,
				"y": -0.269080031,
				"z": 1.7900007953,
				"element": "C" 
			},
			{
				"x": 1.8088428746,
				"y": -1.2191870375,
				"z": -0.5477466929,
				"element": "C" 
			},
			{
				"x": 2.2934922662,
				"y": 0.1112667762,
				"z": -1.152920943,
				"element": "C" 
			},
			{
				"x": 1.2667204067,
				"y": 1.2553205123,
				"z": -0.9168805818,
				"element": "C" 
			},
			{
				"x": -0.1387920043,
				"y": 0.6816891178,
				"z": -0.6274533758,
				"element": "C" 
			},
			{
				"x": -0.143783024,
				"y": -0.1876552459,
				"z": 0.672716331,
				"element": "C" 
			},
			{
				"x": -0.5503996453,
				"y": 0.6204547168,
				"z": 1.9139056646,
				"element": "C" 
			},
			{
				"x": -1.878830529,
				"y": 1.3458343412,
				"z": 1.7002121123,
				"element": "C" 
			},
			{
				"x": -1.8143654304,
				"y": 2.3955831645,
				"z": 0.5679952479,
				"element": "C" 
			},
			{
				"x": -0.8282559216,
				"y": 3.5268602025,
				"z": 0.9397853898,
				"element": "C" 
			},
			{
				"x": -1.3023140829,
				"y": 1.7265348776,
				"z": -0.768001553,
				"element": "C" 
			},
			{
				"x": -2.4691902509,
				"y": 1.1584178331,
				"z": -1.608429183,
				"element": "C" 
			},
			{
				"x": -3.3634829047,
				"y": 2.3111417678,
				"z": -2.1119663166,
				"element": "C" 
			},
			{
				"x": -3.3586406967,
				"y": 3.4686116167,
				"z": -1.1284135832,
				"element": "C" 
			},
			{
				"x": -3.3667883404,
				"y": 4.6327323165,
				"z": -1.4743328083,
				"element": "O" 
			},
			{
				"x": -3.2573241459,
				"y": 3.0530058128,
				"z": 0.3594502356,
				"element": "C" 
			},
			{
				"x": -3.5762089461,
				"y": 4.246920882,
				"z": 1.2578952347,
				"element": "C" 
			},
			{
				"x": -4.3184502495,
				"y": 2.0303822146,
				"z": 0.4188880888,
				"element": "O" 
			},
			{
				"x": -5.0117560113,
				"y": 1.7004442516,
				"z": 1.5383685151,
				"element": "C" 
			},
			{
				"x": -6.1352753287,
				"y": 0.7531694626,
				"z": 1.1725663533,
				"element": "C" 
			},
			{
				"x": -4.7803253553,
				"y": 2.0882516953,
				"z": 2.660277268,
				"element": "O" 
			},
			{
				"x": 2.846665328,
				"y": -2.3486797088,
				"z": -0.5602495478,
				"element": "C" 
			},
			{
				"x": 4.1888721383,
				"y": -6.7060791848,
				"z": 1.4689161393,
				"element": "H" 
			},
			{
				"x": 5.6148527887,
				"y": -6.5565501548,
				"z": 0.3988500289,
				"element": "H" 
			},
			{
				"x": 5.2948047084,
				"y": -5.3504702986,
				"z": 1.6786326229,
				"element": "H" 
			},
			{
				"x": 2.0030094126,
				"y": -4.2593831234,
				"z": -1.1792299964,
				"element": "H" 
			},
			{
				"x": 0.6222700006,
				"y": -4.4887280757,
				"z": 1.0207610131,
				"element": "H" 
			},
			{
				"x": 0.0426165079,
				"y": -3.3744385572,
				"z": -0.2038895082,
				"element": "H" 
			},
			{
				"x": 1.7079534876,
				"y": -2.6227198535,
				"z": 2.2465572814,
				"element": "H" 
			},
			{
				"x": -0.0153642335,
				"y": -2.3478175823,
				"z": 2.1113576089,
				"element": "H" 
			},
			{
				"x": 1.8402515698,
				"y": -0.2483769981,
				"z": 2.8208964416,
				"element": "H" 
			},
			{
				"x": 2.4077417394,
				"y": 0.7620919718,
				"z": 1.4928542138,
				"element": "H" 
			},
			{
				"x": 3.1625769072,
				"y": -0.7998690141,
				"z": 1.8051709132,
				"element": "H" 
			},
			{
				"x": 0.9893750624,
				"y": -1.5669386074,
				"z": -1.1907853151,
				"element": "H" 
			},
			{
				"x": 3.2695115849,
				"y": 0.386327038,
				"z": -0.7364365905,
				"element": "H" 
			},
			{
				"x": 2.4533129764,
				"y": -0.0335593946,
				"z": -2.2283447568,
				"element": "H" 
			},
			{
				"x": 1.2226832793,
				"y": 1.9025139641,
				"z": -1.8004222333,
				"element": "H" 
			},
			{
				"x": 1.5974030062,
				"y": 1.8985256556,
				"z": -0.0945282688,
				"element": "H" 
			},
			{
				"x": -0.3207396227,
				"y": -0.0154891602,
				"z": -1.4536846376,
				"element": "H" 
			},
			{
				"x": -0.9355364932,
				"y": -0.9388952146,
				"z": 0.5271120125,
				"element": "H" 
			},
			{
				"x": -0.6482966031,
				"y": -0.0535234835,
				"z": 2.7742152182,
				"element": "H" 
			},
			{
				"x": 0.2276233752,
				"y": 1.3405066411,
				"z": 2.1846890531,
				"element": "H" 
			},
			{
				"x": -2.6384107611,
				"y": 0.5952409662,
				"z": 1.456405541,
				"element": "H" 
			},
			{
				"x": -2.2079987375,
				"y": 1.8261061192,
				"z": 2.6260642705,
				"element": "H" 
			},
			{
				"x": -0.8701745629,
				"y": 4.3422751323,
				"z": 0.2107850737,
				"element": "H" 
			},
			{
				"x": 0.1986276804,
				"y": 3.1577800269,
				"z": 0.9481834799,
				"element": "H" 
			},
			{
				"x": -1.0368430465,
				"y": 3.9420597234,
				"z": 1.9292039591,
				"element": "H" 
			},
			{
				"x": -0.8864726445,
				"y": 2.5440344596,
				"z": -1.3759624201,
				"element": "H" 
			},
			{
				"x": -2.0705479852,
				"y": 0.6139885807,
				"z": -2.47112198,
				"element": "H" 
			},
			{
				"x": -3.0537315914,
				"y": 0.442203192,
				"z": -1.0240562213,
				"element": "H" 
			},
			{
				"x": -3.0123306888,
				"y": 2.7094147204,
				"z": -3.0687637055,
				"element": "H" 
			},
			{
				"x": -4.3979980555,
				"y": 1.9793598323,
				"z": -2.2553779724,
				"element": "H" 
			},
			{
				"x": -3.0002545459,
				"y": 5.1094840007,
				"z": 0.9234025745,
				"element": "H" 
			},
			{
				"x": -3.3807765211,
				"y": 4.0432866313,
				"z": 2.308172786,
				"element": "H" 
			},
			{
				"x": -4.6321966761,
				"y": 4.5072111249,
				"z": 1.1504651839,
				"element": "H" 
			},
			{
				"x": -6.8315250355,
				"y": 1.2452103624,
				"z": 0.486800345,
				"element": "H" 
			},
			{
				"x": -6.6598011086,
				"y": 0.4510391458,
				"z": 2.0785272207,
				"element": "H" 
			},
			{
				"x": -5.7389693776,
				"y": -0.1274756927,
				"z": 0.6586717083,
				"element": "H" 
			},
			{
				"x": 3.3620103201,
				"y": -2.4031677343,
				"z": -1.5240046352,
				"element": "H" 
			},
			{
				"x": 3.6190247614,
				"y": -2.1666328869,
				"z": 0.1959340682,
				"element": "H" 
			}
		],
		 "valence_orbital": [ 
			{
				"type": "occ",
				"energy": -0.27916,
				"method": "rhf"
			},
			{
				"type": "occ",
				"energy": -0.27366,
				"method": "rhf"
			},
			{
				"type": "occ",
				"energy": -0.27108,
				"method": "rhf"
			},
			{
				"type": "occ",
				"energy": -0.26582,
				"method": "rhf"
			},
			{
				"type": "occ",
				"energy": -0.24096,
				"method": "rhf"
			},
			{
				"type": "unocc",
				"energy": -0.0239,
				"method": "rhf"
			},
			{
				"type": "unocc",
				"energy": 0.00773,
				"method": "rhf"
			},
			{
				"type": "unocc",
				"energy": 0.01592,
				"method": "rhf"
			},
			{
				"type": "unocc",
				"energy": 0.05998,
				"method": "rhf"
			},
			{
				"type": "unocc",
				"energy": 0.07011,
				"method": "rhf"
			}
		],
		"cosmo_sigma_profile": { 
			"-0.025": 0.0,
			"-0.024": 0.0,
			"-0.023": 0.0,
			"-0.022": 0.0,
			"-0.021": 0.0,
			"-0.02": 0.0,
			"-0.019": 0.0,
			"-0.018": 0.0,
			"-0.017": 0.0,
			"-0.016": 0.0,
			"-0.015": 0.0,
			"-0.014": 0.0,
			"-0.013": 0.0,
			"-0.012": 0.0,
			"-0.011": 0.0,
			"-0.01": 0.0,
			"-0.009": 0.0,
			"-0.008": 0.0,
			"-0.007": 0.588569161687,
			"-0.006": 8.32417461501,
			"-0.005": 16.6555219997,
			"-0.004": 29.0837194738,
			"-0.003": 53.9651692542,
			"-0.002": 79.5850017757,
			"-0.001": 79.5648656741,
			"0.0": 58.1516413503,
			"0.001": 36.4098835416,
			"0.002": 17.8198892295,
			"0.003": 9.84576903938,
			"0.004": 6.35096907321,
			"0.005": 7.12684349736,
			"0.006": 6.67976535086,
			"0.007": 5.54531744158,
			"0.008": 5.28427678336,
			"0.009": 6.0991494183,
			"0.01": 4.77804365801,
			"0.011": 8.52152864136,
			"0.012": 10.2147888036,
			"0.013": 4.0424693091,
			"0.014": 0.23617148745,
			"0.015": 0.0,
			"0.016": 0.0,
			"0.017": 0.0,
			"0.018": 0.0,
			"0.019": 0.0,
			"0.02": 0.0,
			"0.021": 0.0,
			"0.022": 0.0,
			"0.023": 0.0,
			"0.024": 0.0,
			"0.025": 0.0
		}
	}
}
