{
	 "smiles": "ClC1=NOC(=N1)C1=CSC=C1", 
	 "Tm": 382.15, 
	 "num_atms": 14, 
	 "gaussian": { 
		 "optdone": 1, 
		 "sigma_profile": "yes", 
		 "theory": "DFT", 
		 "functional": "B3LYP", 
		 "basiset": "6-31G**", 
		 "properties": { 
			 "R2extent": 3359.7363, 
			 "electric_dipole_moment_norm": 3.48513495435, 
			 "electric_quadrupole_moment_norm": 7.93261686394, 
			 "total_energy": -1273.48810939, 
			 "HOMO_LUMO_gap": 0.18669, 
			 "cosmo_polarized_energy": -6.85, 
			 "cosmo_cavitation_energy": 23.22, 
			 "cosmo_dispersion_energy": -18.2, 
			 "cosmo_repulsion_energy": 1.4, 
			 "cosmo_total_nonelectrostatic_energy": 6.43, 
			 "SMD_solvation_energy": 1.98 
		},
		"coords": [
			{
				"x": -0.4080302513,
				"y": -2.9816200425,
				"z": -0.1428322179,
				"element": "Cl" 
			},
			{
				"x": 0.3082844467,
				"y": -1.4485236911,
				"z": -0.433274932,
				"element": "C" 
			},
			{
				"x": 1.0901930555,
				"y": -1.2554445676,
				"z": -1.4672495561,
				"element": "N" 
			},
			{
				"x": 1.4393209801,
				"y": 0.0998669604,
				"z": -1.3144702182,
				"element": "O" 
			},
			{
				"x": 0.817839386,
				"y": 0.5448105012,
				"z": -0.2032486986,
				"element": "C" 
			},
			{
				"x": 0.0991143534,
				"y": -0.3786110634,
				"z": 0.3859819852,
				"element": "N" 
			},
			{
				"x": 0.9977258532,
				"y": 1.9234274446,
				"z": 0.2045720421,
				"element": "C" 
			},
			{
				"x": 1.7741721235,
				"y": 2.8382735205,
				"z": -0.472051725,
				"element": "C" 
			},
			{
				"x": 1.7523055819,
				"y": 4.374705766,
				"z": 0.3027806942,
				"element": "S" 
			},
			{
				"x": 0.6909790022,
				"y": 3.7920475863,
				"z": 1.5509950539,
				"element": "C" 
			},
			{
				"x": 0.3741848497,
				"y": 2.478752538,
				"z": 1.3721785854,
				"element": "C" 
			},
			{
				"x": 2.3466898918,
				"y": 2.6788035142,
				"z": -1.374592516,
				"element": "H" 
			},
			{
				"x": 0.3679575353,
				"y": 4.4577779,
				"z": 2.3388509051,
				"element": "H" 
			},
			{
				"x": -0.2714368078,
				"y": 1.9059336334,
				"z": 2.0257605978,
				"element": "H" 
			}
		],
		 "valence_orbital": [ 
			{
				"type": "occ",
				"energy": -0.3356,
				"method": "rhf"
			},
			{
				"type": "occ",
				"energy": -0.31621,
				"method": "rhf"
			},
			{
				"type": "occ",
				"energy": -0.30322,
				"method": "rhf"
			},
			{
				"type": "occ",
				"energy": -0.27022,
				"method": "rhf"
			},
			{
				"type": "occ",
				"energy": -0.25545,
				"method": "rhf"
			},
			{
				"type": "unocc",
				"energy": -0.06876,
				"method": "rhf"
			},
			{
				"type": "unocc",
				"energy": -0.01728,
				"method": "rhf"
			},
			{
				"type": "unocc",
				"energy": 0.00642,
				"method": "rhf"
			},
			{
				"type": "unocc",
				"energy": 0.01465,
				"method": "rhf"
			},
			{
				"type": "unocc",
				"energy": 0.02145,
				"method": "rhf"
			}
		],
		"cosmo_sigma_profile": { 
			"-0.025": 0.0,
			"-0.024": 0.0,
			"-0.023": 0.0,
			"-0.022": 0.0,
			"-0.021": 0.0,
			"-0.02": 0.0,
			"-0.019": 0.0,
			"-0.018": 0.0,
			"-0.017": 0.0,
			"-0.016": 0.0,
			"-0.015": 0.0,
			"-0.014": 0.0,
			"-0.013": 0.0,
			"-0.012": 0.0,
			"-0.011": 0.0224076798983,
			"-0.01": 1.73423615108,
			"-0.009": 3.78569979651,
			"-0.008": 4.38404889554,
			"-0.007": 5.02223805456,
			"-0.006": 5.90026575404,
			"-0.005": 7.96228844939,
			"-0.004": 10.4970760828,
			"-0.003": 12.3258071502,
			"-0.002": 13.9163361271,
			"-0.001": 14.0081917318,
			"0.0": 18.7797562114,
			"0.001": 25.9235048363,
			"0.002": 27.9634803472,
			"0.003": 12.1455763451,
			"0.004": 6.44785124872,
			"0.005": 6.50977419142,
			"0.006": 2.77718746027,
			"0.007": 3.03389031558,
			"0.008": 2.30196892795,
			"0.009": 2.25357643637,
			"0.01": 2.59568691211,
			"0.011": 2.03508615087,
			"0.012": 1.06251614382,
			"0.013": 0.0,
			"0.014": 0.0,
			"0.015": 0.0,
			"0.016": 0.0,
			"0.017": 0.0,
			"0.018": 0.0,
			"0.019": 0.0,
			"0.02": 0.0,
			"0.021": 0.0,
			"0.022": 0.0,
			"0.023": 0.0,
			"0.024": 0.0,
			"0.025": 0.0
		}
	}
}
