{
	 "smiles": "COC1=C2OCC(CC2=CC=C1)C(O)=O", 
	 "Tm": 448.15, 
	 "num_atms": 27, 
	 "gaussian": { 
		 "optdone": 1, 
		 "sigma_profile": "yes", 
		 "theory": "DFT", 
		 "functional": "B3LYP", 
		 "basiset": "6-31G**", 
		 "properties": { 
			 "R2extent": 4134.9742, 
			 "electric_dipole_moment_norm": 2.8439140968, 
			 "electric_quadrupole_moment_norm": 7.71654468399, 
			 "total_energy": -727.289663179, 
			 "HOMO_LUMO_gap": 0.20372, 
			 "cosmo_polarized_energy": -14.02, 
			 "cosmo_cavitation_energy": 30.02, 
			 "cosmo_dispersion_energy": -21.5, 
			 "cosmo_repulsion_energy": 1.7, 
			 "cosmo_total_nonelectrostatic_energy": 10.21, 
			 "SMD_solvation_energy": 6.92 
		},
		"coords": [
			{
				"x": -2.7467435563,
				"y": -0.5758409855,
				"z": -2.6759510749,
				"element": "C" 
			},
			{
				"x": -2.4288210622,
				"y": -1.8487157086,
				"z": -2.1052263675,
				"element": "O" 
			},
			{
				"x": -2.479150387,
				"y": -1.9188336808,
				"z": -0.7349170775,
				"element": "C" 
			},
			{
				"x": -1.5430710398,
				"y": -1.2354695244,
				"z": 0.0717654083,
				"element": "C" 
			},
			{
				"x": -0.6252644522,
				"y": -0.4577819448,
				"z": -0.5864808211,
				"element": "O" 
			},
			{
				"x": 0.4836272823,
				"y": 0.0291925142,
				"z": 0.1680504839,
				"element": "C" 
			},
			{
				"x": 0.0608487722,
				"y": 0.5489387864,
				"z": 1.5423887785,
				"element": "C" 
			},
			{
				"x": -0.6011706803,
				"y": -0.5956581556,
				"z": 2.329084658,
				"element": "C" 
			},
			{
				"x": -1.5943610695,
				"y": -1.3504974012,
				"z": 1.4684565152,
				"element": "C" 
			},
			{
				"x": -2.5695350786,
				"y": -2.1766404556,
				"z": 2.0438822756,
				"element": "C" 
			},
			{
				"x": -3.476606446,
				"y": -2.8754405732,
				"z": 1.2538898535,
				"element": "C" 
			},
			{
				"x": -3.4336188961,
				"y": -2.7363850523,
				"z": -0.13602608,
				"element": "C" 
			},
			{
				"x": -0.7963365701,
				"y": 1.803072608,
				"z": 1.3927555755,
				"element": "C" 
			},
			{
				"x": -1.5499134905,
				"y": 2.0513662392,
				"z": 2.489345391,
				"element": "O" 
			},
			{
				"x": -0.781529711,
				"y": 2.5432816427,
				"z": 0.4344216208,
				"element": "O" 
			},
			{
				"x": -3.7709935617,
				"y": -0.2773181838,
				"z": -2.4159280975,
				"element": "H" 
			},
			{
				"x": -2.6749316674,
				"y": -0.7031692004,
				"z": -3.7582077624,
				"element": "H" 
			},
			{
				"x": -2.0468577341,
				"y": 0.1988928873,
				"z": -2.3505605305,
				"element": "H" 
			},
			{
				"x": 0.9181373179,
				"y": 0.8241794504,
				"z": -0.4384311926,
				"element": "H" 
			},
			{
				"x": 1.2207584558,
				"y": -0.7755674869,
				"z": 0.2954268539,
				"element": "H" 
			},
			{
				"x": 0.9624820226,
				"y": 0.878209877,
				"z": 2.077503936,
				"element": "H" 
			},
			{
				"x": 0.1890791533,
				"y": -1.2760668239,
				"z": 2.6727848936,
				"element": "H" 
			},
			{
				"x": -1.0938307091,
				"y": -0.2103117196,
				"z": 3.2250615564,
				"element": "H" 
			},
			{
				"x": -2.6081604261,
				"y": -2.2641561431,
				"z": 3.1269543472,
				"element": "H" 
			},
			{
				"x": -4.2235925893,
				"y": -3.5154459398,
				"z": 1.7132399465,
				"element": "H" 
			},
			{
				"x": -4.1297639468,
				"y": -3.2617533105,
				"z": -0.7819890111,
				"element": "H" 
			},
			{
				"x": -2.0254799301,
				"y": 2.8793182848,
				"z": 2.3063059212,
				"element": "H" 
			}
		],
		 "valence_orbital": [ 
			{
				"type": "occ",
				"energy": -0.31023,
				"method": "rhf"
			},
			{
				"type": "occ",
				"energy": -0.28153,
				"method": "rhf"
			},
			{
				"type": "occ",
				"energy": -0.26705,
				"method": "rhf"
			},
			{
				"type": "occ",
				"energy": -0.23046,
				"method": "rhf"
			},
			{
				"type": "occ",
				"energy": -0.21009,
				"method": "rhf"
			},
			{
				"type": "unocc",
				"energy": -0.00637,
				"method": "rhf"
			},
			{
				"type": "unocc",
				"energy": 0.00981,
				"method": "rhf"
			},
			{
				"type": "unocc",
				"energy": 0.01453,
				"method": "rhf"
			},
			{
				"type": "unocc",
				"energy": 0.07007,
				"method": "rhf"
			},
			{
				"type": "unocc",
				"energy": 0.08938,
				"method": "rhf"
			}
		],
		"cosmo_sigma_profile": { 
			"-0.025": 0.0,
			"-0.024": 0.0,
			"-0.023": 0.0,
			"-0.022": 0.0,
			"-0.021": 0.0,
			"-0.02": 0.0,
			"-0.019": 0.00230108373744,
			"-0.018": 0.840818311777,
			"-0.017": 0.900682003623,
			"-0.016": 0.702086437101,
			"-0.015": 1.08831613179,
			"-0.014": 0.723122259993,
			"-0.013": 0.464267334511,
			"-0.012": 0.59913625706,
			"-0.011": 1.28115870807,
			"-0.01": 0.590215956913,
			"-0.009": 0.307096094598,
			"-0.008": 2.86916760196,
			"-0.007": 5.0306622489,
			"-0.006": 12.5224202361,
			"-0.005": 19.6814522163,
			"-0.004": 19.4004732615,
			"-0.003": 22.6048979692,
			"-0.002": 21.1472397992,
			"-0.001": 13.3940563151,
			"0.0": 11.725925609,
			"0.001": 11.6138835763,
			"0.002": 11.4144139499,
			"0.003": 11.4484275265,
			"0.004": 12.9618537709,
			"0.005": 13.0374738453,
			"0.006": 10.6147644925,
			"0.007": 5.04755051273,
			"0.008": 5.18163032728,
			"0.009": 4.20417988963,
			"0.01": 4.32209079201,
			"0.011": 6.59707574848,
			"0.012": 4.66817404104,
			"0.013": 0.127687261054,
			"0.014": 0.0,
			"0.015": 0.0,
			"0.016": 0.0,
			"0.017": 0.0,
			"0.018": 0.0,
			"0.019": 0.0,
			"0.02": 0.0,
			"0.021": 0.0,
			"0.022": 0.0,
			"0.023": 0.0,
			"0.024": 0.0,
			"0.025": 0.0
		}
	}
}
