{
	 "smiles": "CCOC(=O)C(C)(C)C1(O)CC[C@@]2(C)[C@@H](CCC3C4CC[C@H](OCC5=CC=CC=C5)[C@@]4(C)CCC23)C1", 
	 "Tm": 420.15, 
	 "num_atms": 84, 
	 "gaussian": { 
		 "optdone": 1, 
		 "sigma_profile": "yes", 
		 "theory": "DFT", 
		 "functional": "B3LYP", 
		 "basiset": "6-31G**", 
		 "properties": { 
			 "R2extent": 26779.3774, 
			 "electric_dipole_moment_norm": 1.98940779379, 
			 "electric_quadrupole_moment_norm": 17.4991435313, 
			 "total_energy": -1549.24257805, 
			 "HOMO_LUMO_gap": 0.23665, 
			 "cosmo_polarized_energy": -14.77, 
			 "cosmo_cavitation_energy": 71.73, 
			 "cosmo_dispersion_energy": -47.24, 
			 "cosmo_repulsion_energy": 3.44, 
			 "cosmo_total_nonelectrostatic_energy": 27.93, 
			 "SMD_solvation_energy": 11.15 
		},
		"coords": [
			{
				"x": 5.4810420766,
				"y": -4.4710844709,
				"z": -3.8101592031,
				"element": "C" 
			},
			{
				"x": 4.1687499857,
				"y": -4.8744202767,
				"z": -3.1554428778,
				"element": "C" 
			},
			{
				"x": 3.2374185467,
				"y": -3.7638656236,
				"z": -3.1138450773,
				"element": "O" 
			},
			{
				"x": 2.4761873375,
				"y": -3.5717368581,
				"z": -4.2129046918,
				"element": "C" 
			},
			{
				"x": 2.5725330798,
				"y": -4.2524529573,
				"z": -5.2148258529,
				"element": "O" 
			},
			{
				"x": 1.4753483646,
				"y": -2.4132073867,
				"z": -4.0568063372,
				"element": "C" 
			},
			{
				"x": 2.0935035265,
				"y": -1.2527611024,
				"z": -3.250577933,
				"element": "C" 
			},
			{
				"x": 1.1693729468,
				"y": -1.9004009021,
				"z": -5.4832738188,
				"element": "C" 
			},
			{
				"x": 0.1708810655,
				"y": -3.0121236539,
				"z": -3.3661441088,
				"element": "C" 
			},
			{
				"x": -0.1169591584,
				"y": -4.2938687489,
				"z": -3.9495578772,
				"element": "O" 
			},
			{
				"x": -1.0533329655,
				"y": -2.08081805,
				"z": -3.5701140667,
				"element": "C" 
			},
			{
				"x": -2.2091883758,
				"y": -2.488830725,
				"z": -2.6476066768,
				"element": "C" 
			},
			{
				"x": -1.9019967493,
				"y": -2.3469453609,
				"z": -1.1208718921,
				"element": "C" 
			},
			{
				"x": -2.5726910771,
				"y": -3.5678807929,
				"z": -0.4443404744,
				"element": "C" 
			},
			{
				"x": -0.3619993818,
				"y": -2.3197919296,
				"z": -0.9314646244,
				"element": "C" 
			},
			{
				"x": 0.0484980594,
				"y": -2.4752434389,
				"z": 0.5420925975,
				"element": "C" 
			},
			{
				"x": -0.9229879149,
				"y": -1.7976880945,
				"z": 1.5456861748,
				"element": "C" 
			},
			{
				"x": -1.935279133,
				"y": -0.7542367346,
				"z": 0.979347106,
				"element": "C" 
			},
			{
				"x": -1.4249574138,
				"y": 0.6929567531,
				"z": 1.2082358651,
				"element": "C" 
			},
			{
				"x": -0.0230200169,
				"y": 1.0797900993,
				"z": 0.6315385857,
				"element": "C" 
			},
			{
				"x": -0.1903735397,
				"y": 2.4756934988,
				"z": -0.0155470672,
				"element": "C" 
			},
			{
				"x": -1.4775173762,
				"y": 3.0394822089,
				"z": 0.6072238182,
				"element": "C" 
			},
			{
				"x": -1.2368628643,
				"y": 3.5424016048,
				"z": 1.9238998144,
				"element": "O" 
			},
			{
				"x": -0.631091777,
				"y": 4.8230701654,
				"z": 1.9647564472,
				"element": "C" 
			},
			{
				"x": -0.632662487,
				"y": 5.3454121462,
				"z": 3.3834291237,
				"element": "C" 
			},
			{
				"x": 0.485388509,
				"y": 6.0122205294,
				"z": 3.8951643914,
				"element": "C" 
			},
			{
				"x": 0.471238956,
				"y": 6.5403848092,
				"z": 5.1879343372,
				"element": "C" 
			},
			{
				"x": -0.6624837244,
				"y": 6.3967327411,
				"z": 5.9881739505,
				"element": "C" 
			},
			{
				"x": -1.7807630045,
				"y": 5.7249076147,
				"z": 5.4873519609,
				"element": "C" 
			},
			{
				"x": -1.7673126272,
				"y": 5.2058906117,
				"z": 4.1933232303,
				"element": "C" 
			},
			{
				"x": -2.4068184212,
				"y": 1.8034345389,
				"z": 0.7185671158,
				"element": "C" 
			},
			{
				"x": -3.5629593492,
				"y": 2.0387947576,
				"z": 1.7019949676,
				"element": "C" 
			},
			{
				"x": -2.9838833648,
				"y": 1.4493086816,
				"z": -0.6902801253,
				"element": "C" 
			},
			{
				"x": -2.3489094187,
				"y": 0.2237485099,
				"z": -1.3627010243,
				"element": "C" 
			},
			{
				"x": -2.4803755161,
				"y": -1.0374417751,
				"z": -0.4831025379,
				"element": "C" 
			},
			{
				"x": 0.3523438848,
				"y": -3.3204762895,
				"z": -1.8511925858,
				"element": "C" 
			},
			{
				"x": 5.9230682,
				"y": -3.6096209808,
				"z": -3.3006256065,
				"element": "H" 
			},
			{
				"x": 5.3234620791,
				"y": -4.2201010065,
				"z": -4.8617271258,
				"element": "H" 
			},
			{
				"x": 6.1923011138,
				"y": -5.3022460084,
				"z": -3.7583098936,
				"element": "H" 
			},
			{
				"x": 4.3106184843,
				"y": -5.1465213391,
				"z": -2.1069009574,
				"element": "H" 
			},
			{
				"x": 3.6995089943,
				"y": -5.7047251527,
				"z": -3.6876008748,
				"element": "H" 
			},
			{
				"x": 2.3892437591,
				"y": -1.5513596914,
				"z": -2.2449266966,
				"element": "H" 
			},
			{
				"x": 2.9867926949,
				"y": -0.8752304148,
				"z": -3.7589365099,
				"element": "H" 
			},
			{
				"x": 1.3870244852,
				"y": -0.4209129104,
				"z": -3.1742138592,
				"element": "H" 
			},
			{
				"x": 2.0991304631,
				"y": -1.6246620614,
				"z": -5.9884449919,
				"element": "H" 
			},
			{
				"x": 0.6868441102,
				"y": -2.654193206,
				"z": -6.1107428739,
				"element": "H" 
			},
			{
				"x": 0.5291231149,
				"y": -1.016351498,
				"z": -5.4485113066,
				"element": "H" 
			},
			{
				"x": 0.0256360485,
				"y": -4.246928941,
				"z": -4.9050056843,
				"element": "H" 
			},
			{
				"x": -0.7766607144,
				"y": -1.0344297793,
				"z": -3.4043052389,
				"element": "H" 
			},
			{
				"x": -1.3783299087,
				"y": -2.1564762896,
				"z": -4.6131138756,
				"element": "H" 
			},
			{
				"x": -3.1221777485,
				"y": -1.9426854123,
				"z": -2.9105725372,
				"element": "H" 
			},
			{
				"x": -2.4201033097,
				"y": -3.5418031369,
				"z": -2.8634496113,
				"element": "H" 
			},
			{
				"x": -2.5525607886,
				"y": -3.5331096714,
				"z": 0.6459047978,
				"element": "H" 
			},
			{
				"x": -3.6253928619,
				"y": -3.6167222039,
				"z": -0.7466334476,
				"element": "H" 
			},
			{
				"x": -2.1036215226,
				"y": -4.5059056322,
				"z": -0.7589866495,
				"element": "H" 
			},
			{
				"x": -0.0394833275,
				"y": -1.3182797697,
				"z": -1.2417454524,
				"element": "H" 
			},
			{
				"x": 1.0637843632,
				"y": -2.0783436736,
				"z": 0.6627557858,
				"element": "H" 
			},
			{
				"x": 0.1179467857,
				"y": -3.5426401744,
				"z": 0.7869638888,
				"element": "H" 
			},
			{
				"x": -0.3458008569,
				"y": -1.313597051,
				"z": 2.3415954088,
				"element": "H" 
			},
			{
				"x": -1.4924333971,
				"y": -2.5818629448,
				"z": 2.0531070405,
				"element": "H" 
			},
			{
				"x": -2.8099003003,
				"y": -0.8306011505,
				"z": 1.6365843027,
				"element": "H" 
			},
			{
				"x": -1.3522316852,
				"y": 0.8069383207,
				"z": 2.2960056238,
				"element": "H" 
			},
			{
				"x": 0.710924972,
				"y": 1.1209095586,
				"z": 1.4415964624,
				"element": "H" 
			},
			{
				"x": 0.356528521,
				"y": 0.3536676174,
				"z": -0.0910306032,
				"element": "H" 
			},
			{
				"x": -0.3204783035,
				"y": 2.3953751714,
				"z": -1.1006872454,
				"element": "H" 
			},
			{
				"x": 0.6723622672,
				"y": 3.1285222834,
				"z": 0.1470987511,
				"element": "H" 
			},
			{
				"x": -1.9329428753,
				"y": 3.8377383999,
				"z": -0.0016399835,
				"element": "H" 
			},
			{
				"x": -1.1901621988,
				"y": 5.5144966065,
				"z": 1.3084853027,
				"element": "H" 
			},
			{
				"x": 0.4014811102,
				"y": 4.7950573783,
				"z": 1.5837049974,
				"element": "H" 
			},
			{
				"x": 1.3758510925,
				"y": 6.1166882172,
				"z": 3.2795054895,
				"element": "H" 
			},
			{
				"x": 1.348140604,
				"y": 7.0548873068,
				"z": 5.5709766947,
				"element": "H" 
			},
			{
				"x": -0.6744994185,
				"y": 6.8013701552,
				"z": 6.9962785684,
				"element": "H" 
			},
			{
				"x": -2.6655275509,
				"y": 5.6061752286,
				"z": 6.1068568981,
				"element": "H" 
			},
			{
				"x": -2.6330428689,
				"y": 4.6800827617,
				"z": 3.8039271896,
				"element": "H" 
			},
			{
				"x": -4.2208652037,
				"y": 2.8413576338,
				"z": 1.3472497487,
				"element": "H" 
			},
			{
				"x": -4.1756529825,
				"y": 1.1356039672,
				"z": 1.8000635972,
				"element": "H" 
			},
			{
				"x": -3.1930343848,
				"y": 2.3158314285,
				"z": 2.6909534774,
				"element": "H" 
			},
			{
				"x": -2.9062625658,
				"y": 2.3158665215,
				"z": -1.3598173634,
				"element": "H" 
			},
			{
				"x": -4.0586740088,
				"y": 1.2520944379,
				"z": -0.5879325766,
				"element": "H" 
			},
			{
				"x": -1.3009409347,
				"y": 0.4275928505,
				"z": -1.6055439161,
				"element": "H" 
			},
			{
				"x": -2.8540332006,
				"y": 0.0627669478,
				"z": -2.3204902014,
				"element": "H" 
			},
			{
				"x": -3.5635533418,
				"y": -1.2046037636,
				"z": -0.3873995452,
				"element": "H" 
			},
			{
				"x": -0.0592951239,
				"y": -4.3224980906,
				"z": -1.6916363656,
				"element": "H" 
			},
			{
				"x": 1.4117074386,
				"y": -3.3889649375,
				"z": -1.5930436657,
				"element": "H" 
			}
		],
		 "valence_orbital": [ 
			{
				"type": "occ",
				"energy": -0.26558,
				"method": "rhf"
			},
			{
				"type": "occ",
				"energy": -0.2525,
				"method": "rhf"
			},
			{
				"type": "occ",
				"energy": -0.25174,
				"method": "rhf"
			},
			{
				"type": "occ",
				"energy": -0.24567,
				"method": "rhf"
			},
			{
				"type": "occ",
				"energy": -0.23705,
				"method": "rhf"
			},
			{
				"type": "unocc",
				"energy": -0.0004,
				"method": "rhf"
			},
			{
				"type": "unocc",
				"energy": 0.00327,
				"method": "rhf"
			},
			{
				"type": "unocc",
				"energy": 0.01336,
				"method": "rhf"
			},
			{
				"type": "unocc",
				"energy": 0.0586,
				"method": "rhf"
			},
			{
				"type": "unocc",
				"energy": 0.06871,
				"method": "rhf"
			}
		],
		"cosmo_sigma_profile": { 
			"-0.025": 0.0,
			"-0.024": 0.0,
			"-0.023": 0.0,
			"-0.022": 0.0,
			"-0.021": 0.0,
			"-0.02": 0.0,
			"-0.019": 0.0,
			"-0.018": 0.0,
			"-0.017": 0.0,
			"-0.016": 0.0,
			"-0.015": 0.0,
			"-0.014": 0.0,
			"-0.013": 0.306097066606,
			"-0.012": 0.592515897,
			"-0.011": 0.692887931602,
			"-0.01": 0.808639577034,
			"-0.009": 1.01812486457,
			"-0.008": 0.646074660079,
			"-0.007": 1.16519553637,
			"-0.006": 4.88830097855,
			"-0.005": 17.5515305289,
			"-0.004": 36.6896128791,
			"-0.003": 53.3688985443,
			"-0.002": 71.4649072819,
			"-0.001": 86.700861084,
			"0.0": 87.1295359925,
			"0.001": 62.6834274463,
			"0.002": 33.9816296622,
			"0.003": 17.0117166656,
			"0.004": 16.418749794,
			"0.005": 13.8178950207,
			"0.006": 15.3865976453,
			"0.007": 7.54670141665,
			"0.008": 4.32523651054,
			"0.009": 3.74529645736,
			"0.01": 3.94221729098,
			"0.011": 3.85953913867,
			"0.012": 4.86757522516,
			"0.013": 1.67337436126,
			"0.014": 0.838994801696,
			"0.015": 0.0,
			"0.016": 0.0,
			"0.017": 0.0,
			"0.018": 0.0,
			"0.019": 0.0,
			"0.02": 0.0,
			"0.021": 0.0,
			"0.022": 0.0,
			"0.023": 0.0,
			"0.024": 0.0,
			"0.025": 0.0
		}
	}
}
