{
	 "smiles": "NC1=NC=C(C=C1)N1CCN(CC1)C(=O)C1CC1", 
	 "Tm": 427.15, 
	 "num_atms": 36, 
	 "gaussian": { 
		 "optdone": 1, 
		 "sigma_profile": "yes", 
		 "theory": "DFT", 
		 "functional": "B3LYP", 
		 "basiset": "6-31G**", 
		 "properties": { 
			 "R2extent": 7900.4281, 
			 "electric_dipole_moment_norm": 2.64253868089, 
			 "electric_quadrupole_moment_norm": 26.4781819636, 
			 "total_energy": -800.438037375, 
			 "HOMO_LUMO_gap": 0.16457, 
			 "cosmo_polarized_energy": -18.35, 
			 "cosmo_cavitation_energy": 37.22, 
			 "cosmo_dispersion_energy": -27.13, 
			 "cosmo_repulsion_energy": 2.09, 
			 "cosmo_total_nonelectrostatic_energy": 12.17, 
			 "SMD_solvation_energy": 2.94 
		},
		"coords": [
			{
				"x": 2.076164376,
				"y": -4.3989887961,
				"z": 4.2412736964,
				"element": "N" 
			},
			{
				"x": 1.2035754952,
				"y": -3.7649288713,
				"z": 3.3613453302,
				"element": "C" 
			},
			{
				"x": 1.4782323077,
				"y": -3.8865082193,
				"z": 2.0546694089,
				"element": "N" 
			},
			{
				"x": 0.6308224967,
				"y": -3.3559831984,
				"z": 1.1716684865,
				"element": "C" 
			},
			{
				"x": -0.5254726019,
				"y": -2.6271778577,
				"z": 1.5032827788,
				"element": "C" 
			},
			{
				"x": -0.791661693,
				"y": -2.505517365,
				"z": 2.8799396035,
				"element": "C" 
			},
			{
				"x": 0.0597833475,
				"y": -3.085434963,
				"z": 3.8116852144,
				"element": "C" 
			},
			{
				"x": -1.3685306107,
				"y": -2.1279367076,
				"z": 0.4818242466,
				"element": "N" 
			},
			{
				"x": -2.6988274032,
				"y": -1.6242978646,
				"z": 0.8179292782,
				"element": "C" 
			},
			{
				"x": -2.7120793524,
				"y": -0.1246397273,
				"z": 1.1529912276,
				"element": "C" 
			},
			{
				"x": -2.086139999,
				"y": 0.6370272288,
				"z": 0.0679318546,
				"element": "N" 
			},
			{
				"x": -0.7478979416,
				"y": 0.1669344408,
				"z": -0.2815563559,
				"element": "C" 
			},
			{
				"x": -0.7741764103,
				"y": -1.3413940586,
				"z": -0.6001250725,
				"element": "C" 
			},
			{
				"x": -2.7792218939,
				"y": 1.6947479427,
				"z": -0.4807966471,
				"element": "C" 
			},
			{
				"x": -3.9221944103,
				"y": 1.9677850935,
				"z": -0.1085575204,
				"element": "O" 
			},
			{
				"x": -2.1281562301,
				"y": 2.5234312653,
				"z": -1.549000415,
				"element": "C" 
			},
			{
				"x": -3.0402945528,
				"y": 3.0261811879,
				"z": -2.6582796305,
				"element": "C" 
			},
			{
				"x": -2.5573880602,
				"y": 3.9801416463,
				"z": -1.6158604355,
				"element": "C" 
			},
			{
				"x": 2.173191676,
				"y": -3.9741454662,
				"z": 5.1525879835,
				"element": "H" 
			},
			{
				"x": 2.9604200475,
				"y": -4.6349414819,
				"z": 3.8110447187,
				"element": "H" 
			},
			{
				"x": 0.8809968459,
				"y": -3.5230127641,
				"z": 0.1253275102,
				"element": "H" 
			},
			{
				"x": -1.6606357292,
				"y": -1.9617718612,
				"z": 3.2337669369,
				"element": "H" 
			},
			{
				"x": -0.1546386336,
				"y": -3.0082521946,
				"z": 4.8737429818,
				"element": "H" 
			},
			{
				"x": -3.3453551518,
				"y": -1.7861690693,
				"z": -0.0551005943,
				"element": "H" 
			},
			{
				"x": -3.1163902216,
				"y": -2.2103998648,
				"z": 1.6403430832,
				"element": "H" 
			},
			{
				"x": -3.7294892549,
				"y": 0.2486535343,
				"z": 1.2699835034,
				"element": "H" 
			},
			{
				"x": -2.159919796,
				"y": 0.0635242629,
				"z": 2.0848833166,
				"element": "H" 
			},
			{
				"x": -0.0637452342,
				"y": 0.3447365245,
				"z": 0.5619416167,
				"element": "H" 
			},
			{
				"x": -0.3617643522,
				"y": 0.7099126749,
				"z": -1.1429806371,
				"element": "H" 
			},
			{
				"x": 0.2418145435,
				"y": -1.6859686571,
				"z": -0.7992118868,
				"element": "H" 
			},
			{
				"x": -1.3657609856,
				"y": -1.499045934,
				"z": -1.5118155586,
				"element": "H" 
			},
			{
				"x": -1.1023068956,
				"y": 2.319394332,
				"z": -1.8276138359,
				"element": "H" 
			},
			{
				"x": -4.0753602962,
				"y": 2.7082161445,
				"z": -2.5965271668,
				"element": "H" 
			},
			{
				"x": -2.6225559767,
				"y": 3.0807738623,
				"z": -3.6588342144,
				"element": "H" 
			},
			{
				"x": -3.2713625411,
				"y": 4.2935057385,
				"z": -0.8623888494,
				"element": "H" 
			},
			{
				"x": -1.7964749082,
				"y": 4.7076490427,
				"z": -1.8808139563,
				"element": "H" 
			}
		],
		 "valence_orbital": [ 
			{
				"type": "occ",
				"energy": -0.25935,
				"method": "rhf"
			},
			{
				"type": "occ",
				"energy": -0.25114,
				"method": "rhf"
			},
			{
				"type": "occ",
				"energy": -0.24618,
				"method": "rhf"
			},
			{
				"type": "occ",
				"energy": -0.23296,
				"method": "rhf"
			},
			{
				"type": "occ",
				"energy": -0.17975,
				"method": "rhf"
			},
			{
				"type": "unocc",
				"energy": -0.01518,
				"method": "rhf"
			},
			{
				"type": "unocc",
				"energy": 0.01834,
				"method": "rhf"
			},
			{
				"type": "unocc",
				"energy": 0.02596,
				"method": "rhf"
			},
			{
				"type": "unocc",
				"energy": 0.08042,
				"method": "rhf"
			},
			{
				"type": "unocc",
				"energy": 0.08863,
				"method": "rhf"
			}
		],
		"cosmo_sigma_profile": { 
			"-0.025": 0.0,
			"-0.024": 0.0,
			"-0.023": 0.0,
			"-0.022": 0.0,
			"-0.021": 0.0,
			"-0.02": 0.0,
			"-0.019": 0.0,
			"-0.018": 0.0,
			"-0.017": 0.0,
			"-0.016": 0.0,
			"-0.015": 0.0,
			"-0.014": 0.0,
			"-0.013": 0.323170928966,
			"-0.012": 1.67054002072,
			"-0.011": 2.35160762177,
			"-0.01": 2.40302498128,
			"-0.009": 2.98118362479,
			"-0.008": 4.43566494106,
			"-0.007": 8.03586667196,
			"-0.006": 12.8464713763,
			"-0.005": 18.9918795438,
			"-0.004": 34.3371003046,
			"-0.003": 29.2703536053,
			"-0.002": 22.7421878571,
			"-0.001": 18.0666270443,
			"0.0": 17.9948562601,
			"0.001": 16.4536148745,
			"0.002": 15.1134796555,
			"0.003": 13.8955624539,
			"0.004": 16.9560234384,
			"0.005": 10.9816279063,
			"0.006": 5.98855710474,
			"0.007": 5.23490530106,
			"0.008": 4.49610168671,
			"0.009": 4.31872195683,
			"0.01": 4.20218891963,
			"0.011": 3.38885893269,
			"0.012": 3.24738059703,
			"0.013": 4.05397324228,
			"0.014": 5.18134795631,
			"0.015": 2.58543798711,
			"0.016": 0.50090909817,
			"0.017": 0.0777537657857,
			"0.018": 0.0,
			"0.019": 0.0,
			"0.02": 0.0,
			"0.021": 0.0,
			"0.022": 0.0,
			"0.023": 0.0,
			"0.024": 0.0,
			"0.025": 0.0
		}
	}
}
