{
	 "smiles": "OCC(O)CI", 
	 "Tm": 321.65, 
	 "num_atms": 13, 
	 "gaussian": { 
		 "optdone": 1, 
		 "sigma_profile": "no", 
		 "theory": "DFT", 
		 "functional": "B3LYP", 
		 "basiset": "6-31G**", 
		 "properties": { 
			 "R2extent": 846.425, 
			 "electric_dipole_moment_norm": 3.01116064334, 
			 "electric_quadrupole_moment_norm": 4.87880524104, 
			 "total_energy": -280.35937843, 
			 "HOMO_LUMO_gap": 0.21496, 
			 "cosmo_polarized_energy": -96243.77, 
			 "cosmo_cavitation_energy": 18.96, 
			 "cosmo_dispersion_energy": -15.6, 
			 "cosmo_repulsion_energy": 1.31, 
			 "cosmo_total_nonelectrostatic_energy": 4.68, 
			 "SMD_solvation_energy": 2.45 
		},
		"coords": [
			{
				"x": 0.0861397835,
				"y": -1.7308332882,
				"z": 0.5501195004,
				"element": "O" 
			},
			{
				"x": -0.2254473602,
				"y": -0.8788052558,
				"z": 1.6373332756,
				"element": "C" 
			},
			{
				"x": -0.8620776726,
				"y": 0.4259346907,
				"z": 1.1536646286,
				"element": "C" 
			},
			{
				"x": -2.0307224628,
				"y": 0.0083274929,
				"z": 0.438162374,
				"element": "O" 
			},
			{
				"x": 0.0305609874,
				"y": 1.2109789294,
				"z": 0.1899721736,
				"element": "C" 
			},
			{
				"x": 1.7075170324,
				"y": 2.1929569645,
				"z": 1.182706613,
				"element": "I" 
			},
			{
				"x": -0.7393285046,
				"y": -1.846545157,
				"z": 0.057671523,
				"element": "H" 
			},
			{
				"x": -0.9224265723,
				"y": -1.3574582442,
				"z": 2.3413991049,
				"element": "H" 
			},
			{
				"x": 0.7084901363,
				"y": -0.6722563318,
				"z": 2.1656096824,
				"element": "H" 
			},
			{
				"x": -1.1308973981,
				"y": 1.0476373788,
				"z": 2.0195923463,
				"element": "H" 
			},
			{
				"x": -2.5205490932,
				"y": 0.788616434,
				"z": 0.1492241865,
				"element": "H" 
			},
			{
				"x": -0.5122107272,
				"y": 2.0239399667,
				"z": -0.2930235292,
				"element": "H" 
			},
			{
				"x": 0.4659518512,
				"y": 0.5478064201,
				"z": -0.5553318791,
				"element": "H" 
			}
		],
		 "valence_orbital": [ 
			{
				"type": "occ",
				"energy": -0.3311,
				"method": "rhf"
			},
			{
				"type": "occ",
				"energy": -0.29912,
				"method": "rhf"
			},
			{
				"type": "occ",
				"energy": -0.27475,
				"method": "rhf"
			},
			{
				"type": "occ",
				"energy": -0.26214,
				"method": "rhf"
			},
			{
				"type": "occ",
				"energy": -0.2608,
				"method": "rhf"
			},
			{
				"type": "unocc",
				"energy": -0.04584,
				"method": "rhf"
			},
			{
				"type": "unocc",
				"energy": 0.03778,
				"method": "rhf"
			},
			{
				"type": "unocc",
				"energy": 0.03838,
				"method": "rhf"
			},
			{
				"type": "unocc",
				"energy": 0.05254,
				"method": "rhf"
			},
			{
				"type": "unocc",
				"energy": 0.07143,
				"method": "rhf"
			}
		],
		"cosmo_sigma_profile": { 
			"0.0": 0.0,
			"0.0": 0.0,
			"0.0": 0.0,
			"0.0": 0.0,
			"0.0": 0.0,
			"0.0": 0.0,
			"0.0": 0.0,
			"0.0": 0.0,
			"0.0": 0.0,
			"0.0": 0.0,
			"0.0": 0.0,
			"0.0": 0.0,
			"0.0": 0.0,
			"0.0": 0.0,
			"0.0": 0.0,
			"0.0": 0.0,
			"0.0": 0.0,
			"0.0": 0.0,
			"0.0": 0.0,
			"0.0": 0.0,
			"0.0": 0.0,
			"0.0": 0.0,
			"0.0": 0.0,
			"0.0": 0.0,
			"0.0": 0.0,
			"0.0": 0.0,
			"0.0": 0.0,
			"0.0": 0.0,
			"0.0": 0.0,
			"0.0": 0.0,
			"0.0": 0.0,
			"0.0": 0.0,
			"0.0": 0.0,
			"0.0": 0.0,
			"0.0": 0.0,
			"0.0": 0.0,
			"0.0": 0.0,
			"0.0": 0.0,
			"0.0": 0.0,
			"0.0": 0.0,
			"0.0": 0.0,
			"0.0": 0.0,
			"0.0": 0.0,
			"0.0": 0.0,
			"0.0": 0.0,
			"0.0": 0.0,
			"0.0": 0.0,
			"0.0": 0.0,
			"0.0": 0.0,
			"0.0": 0.0,
			"0.0": 0.0
		}
	}
}
