{
	 "smiles": "CN(CC(O)=O)C(N)=O", 
	 "Tm": 415.15, 
	 "num_atms": 17, 
	 "gaussian": { 
		 "optdone": 1, 
		 "sigma_profile": "yes", 
		 "theory": "DFT", 
		 "functional": "B3LYP", 
		 "basiset": "6-31G**", 
		 "properties": { 
			 "R2extent": 1618.605, 
			 "electric_dipole_moment_norm": 6.44674445437, 
			 "electric_quadrupole_moment_norm": 17.6150156693, 
			 "total_energy": -492.447783894, 
			 "HOMO_LUMO_gap": 0.26819, 
			 "cosmo_polarized_energy": -21.36, 
			 "cosmo_cavitation_energy": 20.94, 
			 "cosmo_dispersion_energy": -15.32, 
			 "cosmo_repulsion_energy": 1.29, 
			 "cosmo_total_nonelectrostatic_energy": 6.9, 
			 "SMD_solvation_energy": 6.32 
		},
		"coords": [
			{
				"x": -1.9067052507,
				"y": -1.6328201125,
				"z": -0.2239394525,
				"element": "C" 
			},
			{
				"x": -0.5003109958,
				"y": -1.3541940081,
				"z": -0.5290124179,
				"element": "N" 
			},
			{
				"x": -0.0515819095,
				"y": 0.0084697299,
				"z": -0.2401121295,
				"element": "C" 
			},
			{
				"x": 0.2489794952,
				"y": 0.235551529,
				"z": 1.2437187044,
				"element": "C" 
			},
			{
				"x": 0.540869207,
				"y": -0.8845284525,
				"z": 1.9392279976,
				"element": "O" 
			},
			{
				"x": 0.2535040961,
				"y": 1.3293118134,
				"z": 1.750575728,
				"element": "O" 
			},
			{
				"x": 0.1495779827,
				"y": -2.0009333936,
				"z": -1.5968841024,
				"element": "C" 
			},
			{
				"x": -0.477449619,
				"y": -3.1255694385,
				"z": -2.0843706775,
				"element": "N" 
			},
			{
				"x": 1.2000461308,
				"y": -1.5886304024,
				"z": -2.0692295828,
				"element": "O" 
			},
			{
				"x": -2.0581778532,
				"y": -2.6854164931,
				"z": 0.0348140148,
				"element": "H" 
			},
			{
				"x": -2.1948532009,
				"y": -1.0527304434,
				"z": 0.6547829393,
				"element": "H" 
			},
			{
				"x": -2.5769684161,
				"y": -1.3700475575,
				"z": -1.0524662233,
				"element": "H" 
			},
			{
				"x": 0.8690463416,
				"y": 0.173990493,
				"z": -0.8063593566,
				"element": "H" 
			},
			{
				"x": -0.7836527689,
				"y": 0.7599205332,
				"z": -0.5553326082,
				"element": "H" 
			},
			{
				"x": 0.4644115108,
				"y": -1.6313292395,
				"z": 1.3174454548,
				"element": "H" 
			},
			{
				"x": -1.1573751421,
				"y": -3.6343632231,
				"z": -1.5433394007,
				"element": "H" 
			},
			{
				"x": 0.0966403921,
				"y": -3.6689813343,
				"z": -2.7110188874,
				"element": "H" 
			}
		],
		 "valence_orbital": [ 
			{
				"type": "occ",
				"energy": -0.31113,
				"method": "rhf"
			},
			{
				"type": "occ",
				"energy": -0.29278,
				"method": "rhf"
			},
			{
				"type": "occ",
				"energy": -0.28507,
				"method": "rhf"
			},
			{
				"type": "occ",
				"energy": -0.27453,
				"method": "rhf"
			},
			{
				"type": "occ",
				"energy": -0.25715,
				"method": "rhf"
			},
			{
				"type": "unocc",
				"energy": 0.01104,
				"method": "rhf"
			},
			{
				"type": "unocc",
				"energy": 0.02905,
				"method": "rhf"
			},
			{
				"type": "unocc",
				"energy": 0.0475,
				"method": "rhf"
			},
			{
				"type": "unocc",
				"energy": 0.08965,
				"method": "rhf"
			},
			{
				"type": "unocc",
				"energy": 0.09926,
				"method": "rhf"
			}
		],
		"cosmo_sigma_profile": { 
			"-0.025": 0.0,
			"-0.024": 0.0,
			"-0.023": 0.0,
			"-0.022": 0.0,
			"-0.021": 0.0,
			"-0.02": 0.0,
			"-0.019": 0.0,
			"-0.018": 0.0,
			"-0.017": 0.0,
			"-0.016": 0.0,
			"-0.015": 0.460019034728,
			"-0.014": 2.23956119327,
			"-0.013": 3.26456742413,
			"-0.012": 2.99229884029,
			"-0.011": 3.3864850225,
			"-0.01": 4.17701709653,
			"-0.009": 3.09340468405,
			"-0.008": 4.94012321632,
			"-0.007": 8.81976973717,
			"-0.006": 11.5662500387,
			"-0.005": 13.6816018081,
			"-0.004": 12.26111815,
			"-0.003": 11.0550465262,
			"-0.002": 5.93710316087,
			"-0.001": 5.62776878981,
			"0.0": 4.44232157759,
			"0.001": 3.12834233834,
			"0.002": 2.66265941583,
			"0.003": 4.3164297819,
			"0.004": 3.86909438038,
			"0.005": 5.01626755131,
			"0.006": 3.67175523864,
			"0.007": 3.90783295982,
			"0.008": 3.97351559419,
			"0.009": 5.59862261805,
			"0.01": 6.11626877292,
			"0.011": 6.71896379818,
			"0.012": 7.11296516305,
			"0.013": 6.15793280803,
			"0.014": 4.08729243063,
			"0.015": 0.447676117523,
			"0.016": 0.0,
			"0.017": 0.0,
			"0.018": 0.0,
			"0.019": 0.0,
			"0.02": 0.0,
			"0.021": 0.0,
			"0.022": 0.0,
			"0.023": 0.0,
			"0.024": 0.0,
			"0.025": 0.0
		}
	}
}
