{
	 "smiles": "COC(=O)CCNC1=C(C=CC=N1)[N+]([O-])=O", 
	 "Tm": 339.15, 
	 "num_atms": 27, 
	 "gaussian": { 
		 "optdone": 1, 
		 "sigma_profile": "yes", 
		 "theory": "DFT", 
		 "functional": "B3LYP", 
		 "basiset": "6-31G**", 
		 "properties": { 
			 "R2extent": 3909.8742, 
			 "electric_dipole_moment_norm": 4.49651604022, 
			 "electric_quadrupole_moment_norm": 17.7675122949, 
			 "total_energy": -814.652021845, 
			 "HOMO_LUMO_gap": 0.14024, 
			 "cosmo_polarized_energy": -14.76, 
			 "cosmo_cavitation_energy": 32.06, 
			 "cosmo_dispersion_energy": -22.12, 
			 "cosmo_repulsion_energy": 1.74, 
			 "cosmo_total_nonelectrostatic_energy": 11.68, 
			 "SMD_solvation_energy": 7.81 
		},
		"coords": [
			{
				"x": -0.034950721,
				"y": 3.5729909159,
				"z": -1.0448999728,
				"element": "C" 
			},
			{
				"x": -0.7482816583,
				"y": 2.4228852984,
				"z": -1.5253838477,
				"element": "O" 
			},
			{
				"x": -1.2275800811,
				"y": 1.6018751441,
				"z": -0.5647599723,
				"element": "C" 
			},
			{
				"x": -1.1289707694,
				"y": 1.8230614914,
				"z": 0.6225692224,
				"element": "O" 
			},
			{
				"x": -1.8656115375,
				"y": 0.3702961362,
				"z": -1.1733147068,
				"element": "C" 
			},
			{
				"x": -0.8237532997,
				"y": -0.730503427,
				"z": -1.4831631428,
				"element": "C" 
			},
			{
				"x": -0.1980786398,
				"y": -1.2880796519,
				"z": -0.2974337647,
				"element": "N" 
			},
			{
				"x": 0.9986173218,
				"y": -0.8988405251,
				"z": 0.1941694719,
				"element": "C" 
			},
			{
				"x": 1.565173773,
				"y": -1.4419084454,
				"z": 1.3940612792,
				"element": "C" 
			},
			{
				"x": 2.8184828795,
				"y": -1.0002063938,
				"z": 1.8233329819,
				"element": "C" 
			},
			{
				"x": 3.5001906312,
				"y": -0.0490857379,
				"z": 1.0832474224,
				"element": "C" 
			},
			{
				"x": 2.8768997009,
				"y": 0.4273042301,
				"z": -0.0772855468,
				"element": "C" 
			},
			{
				"x": 1.6855266639,
				"y": 0.0328737443,
				"z": -0.507837202,
				"element": "N" 
			},
			{
				"x": 0.8983382033,
				"y": -2.4398665925,
				"z": 2.2018642582,
				"element": "N" 
			},
			{
				"x": -0.2203441079,
				"y": -2.8546464235,
				"z": 1.8409747847,
				"element": "O" 
			},
			{
				"x": 1.4630374069,
				"y": -2.8469402712,
				"z": 3.2177368619,
				"element": "O" 
			},
			{
				"x": 0.8422335705,
				"y": 3.2624332068,
				"z": -0.4718191271,
				"element": "H" 
			},
			{
				"x": -0.6756980113,
				"y": 4.1861943489,
				"z": -0.4064305861,
				"element": "H" 
			},
			{
				"x": 0.2645705894,
				"y": 4.1280385868,
				"z": -1.9339410362,
				"element": "H" 
			},
			{
				"x": -2.6093582033,
				"y": -0.0068169931,
				"z": -0.4667419309,
				"element": "H" 
			},
			{
				"x": -2.3665034378,
				"y": 0.6413252712,
				"z": -2.1077391874,
				"element": "H" 
			},
			{
				"x": -0.0434587568,
				"y": -0.3309688079,
				"z": -2.1315829764,
				"element": "H" 
			},
			{
				"x": -1.3276449725,
				"y": -1.546831786,
				"z": -2.0109751878,
				"element": "H" 
			},
			{
				"x": -0.6970863513,
				"y": -1.9535266136,
				"z": 0.2821677126,
				"element": "H" 
			},
			{
				"x": 3.2225763269,
				"y": -1.4234614326,
				"z": 2.7346298465,
				"element": "H" 
			},
			{
				"x": 4.474352157,
				"y": 0.3161947858,
				"z": 1.3858478788,
				"element": "H" 
			},
			{
				"x": 3.3740213231,
				"y": 1.1747099416,
				"z": -0.6945935326,
				"element": "H" 
			}
		],
		 "valence_orbital": [ 
			{
				"type": "occ",
				"energy": -0.30073,
				"method": "rhf"
			},
			{
				"type": "occ",
				"energy": -0.29023,
				"method": "rhf"
			},
			{
				"type": "occ",
				"energy": -0.27666,
				"method": "rhf"
			},
			{
				"type": "occ",
				"energy": -0.27011,
				"method": "rhf"
			},
			{
				"type": "occ",
				"energy": -0.22966,
				"method": "rhf"
			},
			{
				"type": "unocc",
				"energy": -0.08942,
				"method": "rhf"
			},
			{
				"type": "unocc",
				"energy": -0.02182,
				"method": "rhf"
			},
			{
				"type": "unocc",
				"energy": -0.00014,
				"method": "rhf"
			},
			{
				"type": "unocc",
				"energy": 0.00908,
				"method": "rhf"
			},
			{
				"type": "unocc",
				"energy": 0.08855,
				"method": "rhf"
			}
		],
		"cosmo_sigma_profile": { 
			"-0.025": 0.0,
			"-0.024": 0.0,
			"-0.023": 0.0,
			"-0.022": 0.0,
			"-0.021": 0.0,
			"-0.02": 0.0,
			"-0.019": 0.0,
			"-0.018": 0.0,
			"-0.017": 0.0,
			"-0.016": 0.0,
			"-0.015": 0.0,
			"-0.014": 0.0,
			"-0.013": 0.0,
			"-0.012": 0.0680325064707,
			"-0.011": 0.648118295592,
			"-0.01": 1.12025260883,
			"-0.009": 0.956271244619,
			"-0.008": 2.98924829827,
			"-0.007": 9.59891659187,
			"-0.006": 19.1825168189,
			"-0.005": 20.3930832042,
			"-0.004": 23.4967274511,
			"-0.003": 25.040091665,
			"-0.002": 18.2836081199,
			"-0.001": 16.1186978152,
			"0.0": 17.7354466146,
			"0.001": 15.1958798404,
			"0.002": 12.272810573,
			"0.003": 6.56370659061,
			"0.004": 7.74941576391,
			"0.005": 8.56728140237,
			"0.006": 7.21306403682,
			"0.007": 8.38290395897,
			"0.008": 10.1240029262,
			"0.009": 7.75335416566,
			"0.01": 6.089725813,
			"0.011": 3.75112757033,
			"0.012": 4.51801234308,
			"0.013": 1.22820050635,
			"0.014": 0.010722982822,
			"0.015": 0.0,
			"0.016": 0.0,
			"0.017": 0.0,
			"0.018": 0.0,
			"0.019": 0.0,
			"0.02": 0.0,
			"0.021": 0.0,
			"0.022": 0.0,
			"0.023": 0.0,
			"0.024": 0.0,
			"0.025": 0.0
		}
	}
}
