{
	 "smiles": "NC1=CC=C(C=C1)C(O)(C1=CC=C(N)C=C1)C1=CC=C(N)C=C1", 
	 "Tm": 478.15, 
	 "num_atms": 42, 
	 "gaussian": { 
		 "optdone": 1, 
		 "sigma_profile": "yes", 
		 "theory": "DFT", 
		 "functional": "B3LYP", 
		 "basiset": "6-31G**", 
		 "properties": { 
			 "R2extent": 9091.7119, 
			 "electric_dipole_moment_norm": 2.08055901623, 
			 "electric_quadrupole_moment_norm": 17.9813599372, 
			 "total_energy": -974.952423715, 
			 "HOMO_LUMO_gap": 0.18646, 
			 "cosmo_polarized_energy": -24.08, 
			 "cosmo_cavitation_energy": 44.6, 
			 "cosmo_dispersion_energy": -30.99, 
			 "cosmo_repulsion_energy": 2.4, 
			 "cosmo_total_nonelectrostatic_energy": 16.0, 
			 "SMD_solvation_energy": 7.28 
		},
		"coords": [
			{
				"x": -1.6293106926,
				"y": 4.2445641808,
				"z": 1.0925068852,
				"element": "N" 
			},
			{
				"x": -1.0756932116,
				"y": 3.0428814814,
				"z": 0.6350754516,
				"element": "C" 
			},
			{
				"x": -1.0994748106,
				"y": 2.7077879269,
				"z": -0.7265618746,
				"element": "C" 
			},
			{
				"x": -0.5916488497,
				"y": 1.4859142727,
				"z": -1.1673599654,
				"element": "C" 
			},
			{
				"x": -0.0507374082,
				"y": 0.556379144,
				"z": -0.2730494005,
				"element": "C" 
			},
			{
				"x": -0.0332429823,
				"y": 0.8939652464,
				"z": 1.0878157501,
				"element": "C" 
			},
			{
				"x": -0.5294614601,
				"y": 2.1125210512,
				"z": 1.5365757096,
				"element": "C" 
			},
			{
				"x": 0.4626659752,
				"y": -0.8212741757,
				"z": -0.7190308901,
				"element": "C" 
			},
			{
				"x": 1.588177254,
				"y": -1.1027426447,
				"z": 0.1430908107,
				"element": "O" 
			},
			{
				"x": -0.6416790193,
				"y": -1.875032536,
				"z": -0.4938724868,
				"element": "C" 
			},
			{
				"x": -0.3926979894,
				"y": -3.0429145066,
				"z": 0.2338123913,
				"element": "C" 
			},
			{
				"x": -1.3832916982,
				"y": -4.0025189077,
				"z": 0.4371567438,
				"element": "C" 
			},
			{
				"x": -2.6719627121,
				"y": -3.8248439117,
				"z": -0.0869662167,
				"element": "C" 
			},
			{
				"x": -3.6557913296,
				"y": -4.8089129577,
				"z": 0.0624863647,
				"element": "N" 
			},
			{
				"x": -2.9328388134,
				"y": -2.6490010952,
				"z": -0.8115364936,
				"element": "C" 
			},
			{
				"x": -1.9372967469,
				"y": -1.6963319308,
				"z": -1.0017837905,
				"element": "C" 
			},
			{
				"x": 0.9891306423,
				"y": -0.8052496761,
				"z": -2.1645008593,
				"element": "C" 
			},
			{
				"x": 0.4934100674,
				"y": -1.6112815944,
				"z": -3.1948983885,
				"element": "C" 
			},
			{
				"x": 1.0518337582,
				"y": -1.5820167222,
				"z": -4.4730084953,
				"element": "C" 
			},
			{
				"x": 2.1386961933,
				"y": -0.7446840903,
				"z": -4.76392439,
				"element": "C" 
			},
			{
				"x": 2.7392125572,
				"y": -0.7536200333,
				"z": -6.0245233212,
				"element": "N" 
			},
			{
				"x": 2.6485091173,
				"y": 0.0627361808,
				"z": -3.729790595,
				"element": "C" 
			},
			{
				"x": 2.0834145604,
				"y": 0.0271673869,
				"z": -2.4620470318,
				"element": "C" 
			},
			{
				"x": -1.2535488824,
				"y": 4.5732183584,
				"z": 1.9718968253,
				"element": "H" 
			},
			{
				"x": -1.6567459544,
				"y": 4.9849329084,
				"z": 0.4043084922,
				"element": "H" 
			},
			{
				"x": -1.5139845347,
				"y": 3.4109089311,
				"z": -1.4455818253,
				"element": "H" 
			},
			{
				"x": -0.6063079623,
				"y": 1.2643278618,
				"z": -2.2300555576,
				"element": "H" 
			},
			{
				"x": 0.3870274373,
				"y": 0.192249117,
				"z": 1.7998583565,
				"element": "H" 
			},
			{
				"x": -0.499843686,
				"y": 2.3503586711,
				"z": 2.597707033,
				"element": "H" 
			},
			{
				"x": 2.1057588456,
				"y": -1.7908591998,
				"z": -0.2960497263,
				"element": "H" 
			},
			{
				"x": 0.5860125152,
				"y": -3.1940454419,
				"z": 0.675313951,
				"element": "H" 
			},
			{
				"x": -1.1566867746,
				"y": -4.8981106908,
				"z": 1.0115285287,
				"element": "H" 
			},
			{
				"x": -4.6057577519,
				"y": -4.4664081081,
				"z": 0.0086769317,
				"element": "H" 
			},
			{
				"x": -3.5279611777,
				"y": -5.4136953432,
				"z": 0.8628189011,
				"element": "H" 
			},
			{
				"x": -3.9266794073,
				"y": -2.4806457685,
				"z": -1.2202749806,
				"element": "H" 
			},
			{
				"x": -2.1804153256,
				"y": -0.7884065485,
				"z": -1.545494449,
				"element": "H" 
			},
			{
				"x": -0.3417885742,
				"y": -2.2761590052,
				"z": -3.0054148936,
				"element": "H" 
			},
			{
				"x": 0.6459842988,
				"y": -2.2235935172,
				"z": -5.2518439321,
				"element": "H" 
			},
			{
				"x": 3.2437007243,
				"y": 0.0884975651,
				"z": -6.2652810449,
				"element": "H" 
			},
			{
				"x": 2.1447028812,
				"y": -1.0649252687,
				"z": -6.7803478551,
				"element": "H" 
			},
			{
				"x": 3.4963491402,
				"y": 0.7147744262,
				"z": -3.9277797249,
				"element": "H" 
			},
			{
				"x": 2.4935617871,
				"y": 0.6548889641,
				"z": -1.6769509379,
				"element": "H" 
			}
		],
		 "valence_orbital": [ 
			{
				"type": "occ",
				"energy": -0.23511,
				"method": "rhf"
			},
			{
				"type": "occ",
				"energy": -0.23197,
				"method": "rhf"
			},
			{
				"type": "occ",
				"energy": -0.19765,
				"method": "rhf"
			},
			{
				"type": "occ",
				"energy": -0.19452,
				"method": "rhf"
			},
			{
				"type": "occ",
				"energy": -0.18372,
				"method": "rhf"
			},
			{
				"type": "unocc",
				"energy": 0.00274,
				"method": "rhf"
			},
			{
				"type": "unocc",
				"energy": 0.01167,
				"method": "rhf"
			},
			{
				"type": "unocc",
				"energy": 0.01588,
				"method": "rhf"
			},
			{
				"type": "unocc",
				"energy": 0.01766,
				"method": "rhf"
			},
			{
				"type": "unocc",
				"energy": 0.02667,
				"method": "rhf"
			}
		],
		"cosmo_sigma_profile": { 
			"-0.025": 0.0,
			"-0.024": 0.0,
			"-0.023": 0.0,
			"-0.022": 0.0,
			"-0.021": 0.0,
			"-0.02": 0.0,
			"-0.019": 0.0,
			"-0.018": 0.0,
			"-0.017": 0.0,
			"-0.016": 0.0,
			"-0.015": 0.124459365285,
			"-0.014": 0.47266755474,
			"-0.013": 1.20876162961,
			"-0.012": 6.87993226931,
			"-0.011": 8.63794538389,
			"-0.01": 9.56970981326,
			"-0.009": 9.18423892867,
			"-0.008": 11.21776923,
			"-0.007": 9.20028428392,
			"-0.006": 12.916731118,
			"-0.005": 15.1838482017,
			"-0.004": 19.4193530271,
			"-0.003": 24.1105313051,
			"-0.002": 19.3913080484,
			"-0.001": 17.3175305494,
			"0.0": 18.7767963563,
			"0.001": 15.2416885198,
			"0.002": 18.2091623182,
			"0.003": 18.6503933148,
			"0.004": 20.46648776,
			"0.005": 22.3250249304,
			"0.006": 27.8539896246,
			"0.007": 20.9009418039,
			"0.008": 4.91651637846,
			"0.009": 4.69592165276,
			"0.01": 3.53039046576,
			"0.011": 2.91699751749,
			"0.012": 2.98568062132,
			"0.013": 3.34427993053,
			"0.014": 1.8126279923,
			"0.015": 1.18142956009,
			"0.016": 0.0502068339033,
			"0.017": 0.0,
			"0.018": 0.0,
			"0.019": 0.0,
			"0.02": 0.0,
			"0.021": 0.0,
			"0.022": 0.0,
			"0.023": 0.0,
			"0.024": 0.0,
			"0.025": 0.0
		}
	}
}
