{
	 "smiles": "OC(=O)CN1C=CC2=C1C=C(Cl)C=C2", 
	 "Tm": 440.15, 
	 "num_atms": 22, 
	 "gaussian": { 
		 "optdone": 1, 
		 "sigma_profile": "yes", 
		 "theory": "DFT", 
		 "functional": "B3LYP", 
		 "basiset": "6-31G**", 
		 "properties": { 
			 "R2extent": 4579.1232, 
			 "electric_dipole_moment_norm": 4.47785485249, 
			 "electric_quadrupole_moment_norm": 14.1419820849, 
			 "total_energy": -1051.28298009, 
			 "HOMO_LUMO_gap": 0.18921, 
			 "cosmo_polarized_energy": -15.93, 
			 "cosmo_cavitation_energy": 28.48, 
			 "cosmo_dispersion_energy": -20.48, 
			 "cosmo_repulsion_energy": 1.61, 
			 "cosmo_total_nonelectrostatic_energy": 9.6, 
			 "SMD_solvation_energy": 6.0 
		},
		"coords": [
			{
				"x": -0.7835436749,
				"y": 2.9280831016,
				"z": 2.3639017303,
				"element": "O" 
			},
			{
				"x": -0.8042068757,
				"y": 1.8635724428,
				"z": 3.1869791247,
				"element": "C" 
			},
			{
				"x": -0.974322489,
				"y": 1.9689133737,
				"z": 4.3746308748,
				"element": "O" 
			},
			{
				"x": -0.6151357426,
				"y": 0.4811064396,
				"z": 2.5324341422,
				"element": "C" 
			},
			{
				"x": -0.3542239169,
				"y": 0.4899937161,
				"z": 1.1079510794,
				"element": "N" 
			},
			{
				"x": -1.29783058,
				"y": 0.2613744139,
				"z": 0.1064308054,
				"element": "C" 
			},
			{
				"x": -0.6946410248,
				"y": 0.2764419111,
				"z": -1.1195241243,
				"element": "C" 
			},
			{
				"x": 0.7059455852,
				"y": 0.5120536523,
				"z": -0.8996978451,
				"element": "C" 
			},
			{
				"x": 0.8902868985,
				"y": 0.6355795328,
				"z": 0.5045533327,
				"element": "C" 
			},
			{
				"x": 2.1421727183,
				"y": 0.8700160845,
				"z": 1.0845343995,
				"element": "C" 
			},
			{
				"x": 3.2184048991,
				"y": 0.9720767619,
				"z": 0.212231314,
				"element": "C" 
			},
			{
				"x": 4.821549872,
				"y": 1.2616099363,
				"z": 0.8757684417,
				"element": "Cl" 
			},
			{
				"x": 3.0766437852,
				"y": 0.8562066895,
				"z": -1.1839547126,
				"element": "C" 
			},
			{
				"x": 1.8255241706,
				"y": 0.6282765141,
				"z": -1.7402592161,
				"element": "C" 
			},
			{
				"x": -0.6224636843,
				"y": 2.6316527583,
				"z": 1.4531324723,
				"element": "H" 
			},
			{
				"x": 0.1968605613,
				"y": -0.0237375208,
				"z": 3.0636476725,
				"element": "H" 
			},
			{
				"x": -1.5236225754,
				"y": -0.0946083485,
				"z": 2.7288679696,
				"element": "H" 
			},
			{
				"x": -2.3342364585,
				"y": 0.1066874698,
				"z": 0.3726922178,
				"element": "H" 
			},
			{
				"x": -1.1872760703,
				"y": 0.1312834239,
				"z": -2.0702069593,
				"element": "H" 
			},
			{
				"x": 2.2836311419,
				"y": 0.9740248921,
				"z": 2.1542203347,
				"element": "H" 
			},
			{
				"x": 3.9537341763,
				"y": 0.9480120833,
				"z": -1.8141467035,
				"element": "H" 
			},
			{
				"x": 1.7181492841,
				"y": 0.5395806719,
				"z": -2.8171863507,
				"element": "H" 
			}
		],
		 "valence_orbital": [ 
			{
				"type": "occ",
				"energy": -0.31518,
				"method": "rhf"
			},
			{
				"type": "occ",
				"energy": -0.29672,
				"method": "rhf"
			},
			{
				"type": "occ",
				"energy": -0.28313,
				"method": "rhf"
			},
			{
				"type": "occ",
				"energy": -0.2426,
				"method": "rhf"
			},
			{
				"type": "occ",
				"energy": -0.22451,
				"method": "rhf"
			},
			{
				"type": "unocc",
				"energy": -0.0353,
				"method": "rhf"
			},
			{
				"type": "unocc",
				"energy": -0.00466,
				"method": "rhf"
			},
			{
				"type": "unocc",
				"energy": -0.00076,
				"method": "rhf"
			},
			{
				"type": "unocc",
				"energy": 0.026,
				"method": "rhf"
			},
			{
				"type": "unocc",
				"energy": 0.04269,
				"method": "rhf"
			}
		],
		"cosmo_sigma_profile": { 
			"-0.025": 0.0,
			"-0.024": 0.0,
			"-0.023": 0.0,
			"-0.022": 0.0,
			"-0.021": 0.0,
			"-0.02": 0.0,
			"-0.019": 0.0,
			"-0.018": 0.0,
			"-0.017": 0.0,
			"-0.016": 0.203801555972,
			"-0.015": 0.306241828483,
			"-0.014": 0.407667384434,
			"-0.013": 0.814319825185,
			"-0.012": 1.14729497391,
			"-0.011": 1.74383181559,
			"-0.01": 6.13891216704,
			"-0.009": 8.59265499266,
			"-0.008": 9.26276725376,
			"-0.007": 7.52611683407,
			"-0.006": 12.9368456081,
			"-0.005": 11.0440106672,
			"-0.004": 11.2559869483,
			"-0.003": 11.2988167342,
			"-0.002": 10.6983610566,
			"-0.001": 9.98818382677,
			"0.0": 9.62845882602,
			"0.001": 11.744769296,
			"0.002": 16.462100543,
			"0.003": 18.6454943954,
			"0.004": 22.6807776004,
			"0.005": 19.2094665856,
			"0.006": 4.07316391182,
			"0.007": 2.54958224612,
			"0.008": 2.93093579011,
			"0.009": 4.41566143278,
			"0.01": 4.48481854552,
			"0.011": 4.87221376857,
			"0.012": 4.58965300331,
			"0.013": 1.07455315102,
			"0.014": 0.0,
			"0.015": 0.0,
			"0.016": 0.0,
			"0.017": 0.0,
			"0.018": 0.0,
			"0.019": 0.0,
			"0.02": 0.0,
			"0.021": 0.0,
			"0.022": 0.0,
			"0.023": 0.0,
			"0.024": 0.0,
			"0.025": 0.0
		}
	}
}
