{
	 "smiles": "C1=CN(C=N1)C1=CN=CN=C1", 
	 "Tm": 403.15, 
	 "num_atms": 17, 
	 "gaussian": { 
		 "optdone": 1, 
		 "sigma_profile": "yes", 
		 "theory": "DFT", 
		 "functional": "B3LYP", 
		 "basiset": "6-31G**", 
		 "properties": { 
			 "R2extent": 2307.8259, 
			 "electric_dipole_moment_norm": 1.21390618254, 
			 "electric_quadrupole_moment_norm": 10.4243610298, 
			 "total_energy": -489.334871607, 
			 "HOMO_LUMO_gap": 0.18517, 
			 "cosmo_polarized_energy": -13.08, 
			 "cosmo_cavitation_energy": 21.61, 
			 "cosmo_dispersion_energy": -16.31, 
			 "cosmo_repulsion_energy": 1.24, 
			 "cosmo_total_nonelectrostatic_energy": 6.54, 
			 "SMD_solvation_energy": 0.25 
		},
		"coords": [
			{
				"x": -2.9785158165,
				"y": 2.1241176431,
				"z": 0.4689108206,
				"element": "C" 
			},
			{
				"x": -2.4292558348,
				"y": 1.7931926258,
				"z": -0.7380389042,
				"element": "C" 
			},
			{
				"x": -1.2722751438,
				"y": 1.0756422007,
				"z": -0.4438408785,
				"element": "N" 
			},
			{
				"x": -1.2057822473,
				"y": 1.0246460155,
				"z": 0.9373154249,
				"element": "C" 
			},
			{
				"x": -2.2095743775,
				"y": 1.6410800997,
				"z": 1.5079832184,
				"element": "N" 
			},
			{
				"x": -0.3588367059,
				"y": 0.5173425767,
				"z": -1.3630106658,
				"element": "C" 
			},
			{
				"x": 0.7797590555,
				"y": -0.1898474077,
				"z": -0.9500690619,
				"element": "C" 
			},
			{
				"x": 1.6440419512,
				"y": -0.7181852046,
				"z": -1.8166508369,
				"element": "N" 
			},
			{
				"x": 1.3756162502,
				"y": -0.5428588707,
				"z": -3.1140044925,
				"element": "C" 
			},
			{
				"x": 0.3272276142,
				"y": 0.1093114796,
				"z": -3.6235545747,
				"element": "N" 
			},
			{
				"x": -0.5320011018,
				"y": 0.634468578,
				"z": -2.7490150265,
				"element": "C" 
			},
			{
				"x": -3.8855159899,
				"y": 2.6836077885,
				"z": 0.6502074691,
				"element": "H" 
			},
			{
				"x": -2.7471095705,
				"y": 1.9969724682,
				"z": -1.7464854446,
				"element": "H" 
			},
			{
				"x": -0.4048407591,
				"y": 0.52565456,
				"z": 1.4612355579,
				"element": "H" 
			},
			{
				"x": 1.0047257062,
				"y": -0.3365422226,
				"z": 0.1028481172,
				"element": "H" 
			},
			{
				"x": 2.0789023758,
				"y": -0.9726948271,
				"z": -3.8231507515,
				"element": "H" 
			},
			{
				"x": -1.3831654059,
				"y": 1.1639924969,
				"z": -3.1682799709,
				"element": "H" 
			}
		],
		 "valence_orbital": [ 
			{
				"type": "occ",
				"energy": -0.32338,
				"method": "rhf"
			},
			{
				"type": "occ",
				"energy": -0.2827,
				"method": "rhf"
			},
			{
				"type": "occ",
				"energy": -0.26648,
				"method": "rhf"
			},
			{
				"type": "occ",
				"energy": -0.26573,
				"method": "rhf"
			},
			{
				"type": "occ",
				"energy": -0.24429,
				"method": "rhf"
			},
			{
				"type": "unocc",
				"energy": -0.05912,
				"method": "rhf"
			},
			{
				"type": "unocc",
				"energy": -0.05346,
				"method": "rhf"
			},
			{
				"type": "unocc",
				"energy": 0.02164,
				"method": "rhf"
			},
			{
				"type": "unocc",
				"energy": 0.05572,
				"method": "rhf"
			},
			{
				"type": "unocc",
				"energy": 0.07468,
				"method": "rhf"
			}
		],
		"cosmo_sigma_profile": { 
			"-0.025": 0.0,
			"-0.024": 0.0,
			"-0.023": 0.0,
			"-0.022": 0.0,
			"-0.021": 0.0,
			"-0.02": 0.0,
			"-0.019": 0.0,
			"-0.018": 0.0,
			"-0.017": 0.0,
			"-0.016": 0.0,
			"-0.015": 0.0,
			"-0.014": 0.0,
			"-0.013": 0.35851947012,
			"-0.012": 2.5206069247,
			"-0.011": 3.69203882339,
			"-0.01": 3.53119182622,
			"-0.009": 4.88595440339,
			"-0.008": 4.84846413014,
			"-0.007": 8.31073718909,
			"-0.006": 7.3528516906,
			"-0.005": 7.77441076381,
			"-0.004": 10.4730528235,
			"-0.003": 12.6956804922,
			"-0.002": 16.4249725879,
			"-0.001": 12.0870482674,
			"0.0": 9.57084485411,
			"0.001": 8.52200619046,
			"0.002": 7.31731388321,
			"0.003": 7.44982149814,
			"0.004": 8.22736163811,
			"0.005": 6.41053911113,
			"0.006": 3.34182606226,
			"0.007": 3.95592801417,
			"0.008": 3.74073275139,
			"0.009": 3.90875877051,
			"0.01": 2.52590027504,
			"0.011": 3.8704750945,
			"0.012": 2.09488489915,
			"0.013": 2.92595444804,
			"0.014": 3.14938530614,
			"0.015": 1.72994947499,
			"0.016": 1.00784755938,
			"0.017": 0.846774257261,
			"0.018": 0.0509754294747,
			"0.019": 0.0,
			"0.02": 0.0,
			"0.021": 0.0,
			"0.022": 0.0,
			"0.023": 0.0,
			"0.024": 0.0,
			"0.025": 0.0
		}
	}
}
