{
	 "smiles": "NCC(O)CN", 
	 "Tm": 316.15, 
	 "num_atms": 16, 
	 "gaussian": { 
		 "optdone": 1, 
		 "sigma_profile": "yes", 
		 "theory": "DFT", 
		 "functional": "B3LYP", 
		 "basiset": "6-31G**", 
		 "properties": { 
			 "R2extent": 1022.5893, 
			 "electric_dipole_moment_norm": 2.21043533043, 
			 "electric_quadrupole_moment_norm": 8.61098940599, 
			 "total_energy": -305.053990021, 
			 "HOMO_LUMO_gap": 0.27546, 
			 "cosmo_polarized_energy": -13.15, 
			 "cosmo_cavitation_energy": 18.11, 
			 "cosmo_dispersion_energy": -13.6, 
			 "cosmo_repulsion_energy": 1.2, 
			 "cosmo_total_nonelectrostatic_energy": 5.71, 
			 "SMD_solvation_energy": 0.34 
		},
		"coords": [
			{
				"x": 0.7304427946,
				"y": 1.5016486252,
				"z": -1.7170417033,
				"element": "N" 
			},
			{
				"x": 0.6360223939,
				"y": 1.8524599735,
				"z": -0.2990806922,
				"element": "C" 
			},
			{
				"x": -0.6609315853,
				"y": 1.4383005236,
				"z": 0.416418282,
				"element": "C" 
			},
			{
				"x": -0.8977658508,
				"y": 0.0356304222,
				"z": 0.2875614604,
				"element": "O" 
			},
			{
				"x": -0.6494683906,
				"y": 1.7350327044,
				"z": 1.9256766967,
				"element": "C" 
			},
			{
				"x": 0.312954022,
				"y": 0.9800513339,
				"z": 2.7262633506,
				"element": "N" 
			},
			{
				"x": 0.7908782283,
				"y": 0.4954750435,
				"z": -1.8442339342,
				"element": "H" 
			},
			{
				"x": -0.076267525,
				"y": 1.8374878242,
				"z": -2.2379780663,
				"element": "H" 
			},
			{
				"x": 1.4888254102,
				"y": 1.3881354365,
				"z": 0.2091515622,
				"element": "H" 
			},
			{
				"x": 0.7580215438,
				"y": 2.9393472066,
				"z": -0.2044659248,
				"element": "H" 
			},
			{
				"x": -1.4970231144,
				"y": 2.004030134,
				"z": -0.0355509962,
				"element": "H" 
			},
			{
				"x": -0.9108974708,
				"y": -0.1700028416,
				"z": -0.6562295077,
				"element": "H" 
			},
			{
				"x": -0.4747151567,
				"y": 2.8073291128,
				"z": 2.0765920995,
				"element": "H" 
			},
			{
				"x": -1.6519818392,
				"y": 1.5202548007,
				"z": 2.3135937454,
				"element": "H" 
			},
			{
				"x": 1.2646090363,
				"y": 1.2473967169,
				"z": 2.4883121386,
				"element": "H" 
			},
			{
				"x": 0.2223975037,
				"y": -0.0061770164,
				"z": 2.4927114894,
				"element": "H" 
			}
		],
		 "valence_orbital": [ 
			{
				"type": "occ",
				"energy": -0.35193,
				"method": "rhf"
			},
			{
				"type": "occ",
				"energy": -0.3386,
				"method": "rhf"
			},
			{
				"type": "occ",
				"energy": -0.28068,
				"method": "rhf"
			},
			{
				"type": "occ",
				"energy": -0.24451,
				"method": "rhf"
			},
			{
				"type": "occ",
				"energy": -0.22466,
				"method": "rhf"
			},
			{
				"type": "unocc",
				"energy": 0.0508,
				"method": "rhf"
			},
			{
				"type": "unocc",
				"energy": 0.08849,
				"method": "rhf"
			},
			{
				"type": "unocc",
				"energy": 0.10759,
				"method": "rhf"
			},
			{
				"type": "unocc",
				"energy": 0.11899,
				"method": "rhf"
			},
			{
				"type": "unocc",
				"energy": 0.14043,
				"method": "rhf"
			}
		],
		"cosmo_sigma_profile": { 
			"-0.025": 0.0,
			"-0.024": 0.0,
			"-0.023": 0.0,
			"-0.022": 0.0,
			"-0.021": 0.0,
			"-0.02": 0.0,
			"-0.019": 0.0,
			"-0.018": 0.0,
			"-0.017": 0.0,
			"-0.016": 0.0,
			"-0.015": 0.265800198706,
			"-0.014": 0.981810921696,
			"-0.013": 1.45539800684,
			"-0.012": 1.63472638785,
			"-0.011": 1.47850950471,
			"-0.01": 2.33599705601,
			"-0.009": 4.35834472422,
			"-0.008": 5.31001037278,
			"-0.007": 6.78809844069,
			"-0.006": 5.4647888102,
			"-0.005": 4.94923099424,
			"-0.004": 8.91098048144,
			"-0.003": 16.763549343,
			"-0.002": 12.4632054495,
			"-0.001": 8.14506607702,
			"0.0": 8.23104824524,
			"0.001": 5.17945251794,
			"0.002": 3.55671592606,
			"0.003": 4.00482471218,
			"0.004": 3.05203887081,
			"0.005": 3.14524076018,
			"0.006": 2.62008868246,
			"0.007": 2.61214683539,
			"0.008": 3.0597921207,
			"0.009": 3.12488630863,
			"0.01": 1.87863265561,
			"0.011": 2.86225958261,
			"0.012": 2.60837909948,
			"0.013": 2.45486617059,
			"0.014": 1.78269312922,
			"0.015": 1.5272303076,
			"0.016": 1.6293037468,
			"0.017": 0.638161867956,
			"0.018": 1.75266225636,
			"0.019": 1.24121717644,
			"0.02": 0.363732221826,
			"0.021": 0.0,
			"0.022": 0.0,
			"0.023": 0.0,
			"0.024": 0.0,
			"0.025": 0.0
		}
	}
}
