{
	 "smiles": "CCCN1C(=O)C=CC1=O", 
	 "Tm": 298.15, 
	 "num_atms": 19, 
	 "gaussian": { 
		 "optdone": 1, 
		 "sigma_profile": "yes", 
		 "theory": "DFT", 
		 "functional": "B3LYP", 
		 "basiset": "6-31G**", 
		 "properties": { 
			 "R2extent": 2147.93, 
			 "electric_dipole_moment_norm": 1.01431015967, 
			 "electric_quadrupole_moment_norm": 12.44201656, 
			 "total_energy": -477.378193049, 
			 "HOMO_LUMO_gap": 0.17428, 
			 "cosmo_polarized_energy": -9.18, 
			 "cosmo_cavitation_energy": 23.09, 
			 "cosmo_dispersion_energy": -16.24, 
			 "cosmo_repulsion_energy": 1.33, 
			 "cosmo_total_nonelectrostatic_energy": 8.17, 
			 "SMD_solvation_energy": 5.56 
		},
		"coords": [
			{
				"x": 1.0040384284,
				"y": 0.6730753928,
				"z": -1.1803107064,
				"element": "C" 
			},
			{
				"x": 1.0346413168,
				"y": 2.0059859244,
				"z": -0.4275415657,
				"element": "C" 
			},
			{
				"x": -0.3218155722,
				"y": 2.4284160561,
				"z": 0.1533853057,
				"element": "C" 
			},
			{
				"x": -0.8417793447,
				"y": 1.5042793236,
				"z": 1.1577946198,
				"element": "N" 
			},
			{
				"x": -1.877530023,
				"y": 0.5885978638,
				"z": 0.9437000461,
				"element": "C" 
			},
			{
				"x": -2.4711342554,
				"y": 0.4162186435,
				"z": -0.1016396,
				"element": "O" 
			},
			{
				"x": -2.0950443066,
				"y": -0.1082794393,
				"z": 2.2587766264,
				"element": "C" 
			},
			{
				"x": -1.2424693711,
				"y": 0.3954419129,
				"z": 3.1559706327,
				"element": "C" 
			},
			{
				"x": -0.4113392714,
				"y": 1.4554066116,
				"z": 2.4863982184,
				"element": "C" 
			},
			{
				"x": 0.4570597674,
				"y": 2.1491507313,
				"z": 2.9769476521,
				"element": "O" 
			},
			{
				"x": 1.9885657857,
				"y": 0.4392364284,
				"z": -1.5972718762,
				"element": "H" 
			},
			{
				"x": 0.7216246436,
				"y": -0.1536445974,
				"z": -0.5204909332,
				"element": "H" 
			},
			{
				"x": 0.2840417846,
				"y": 0.69657152,
				"z": -2.0051611685,
				"element": "H" 
			},
			{
				"x": 1.3608881138,
				"y": 2.8073625947,
				"z": -1.1026077774,
				"element": "H" 
			},
			{
				"x": 1.7676904777,
				"y": 1.9688318253,
				"z": 0.3862619962,
				"element": "H" 
			},
			{
				"x": -0.2372698375,
				"y": 3.4126540577,
				"z": 0.6238823366,
				"element": "H" 
			},
			{
				"x": -1.0810297357,
				"y": 2.4814852874,
				"z": -0.6321959822,
				"element": "H" 
			},
			{
				"x": -2.8437235007,
				"y": -0.8803965049,
				"z": 2.3776874796,
				"element": "H" 
			},
			{
				"x": -1.1123150998,
				"y": 0.142706368,
				"z": 4.2000146959,
				"element": "H" 
			}
		],
		 "valence_orbital": [ 
			{
				"type": "occ",
				"energy": -0.34311,
				"method": "rhf"
			},
			{
				"type": "occ",
				"energy": -0.30704,
				"method": "rhf"
			},
			{
				"type": "occ",
				"energy": -0.29537,
				"method": "rhf"
			},
			{
				"type": "occ",
				"energy": -0.27279,
				"method": "rhf"
			},
			{
				"type": "occ",
				"energy": -0.26977,
				"method": "rhf"
			},
			{
				"type": "unocc",
				"energy": -0.09549,
				"method": "rhf"
			},
			{
				"type": "unocc",
				"energy": 0.05455,
				"method": "rhf"
			},
			{
				"type": "unocc",
				"energy": 0.06558,
				"method": "rhf"
			},
			{
				"type": "unocc",
				"energy": 0.09855,
				"method": "rhf"
			},
			{
				"type": "unocc",
				"energy": 0.10684,
				"method": "rhf"
			}
		],
		"cosmo_sigma_profile": { 
			"-0.025": 0.0,
			"-0.024": 0.0,
			"-0.023": 0.0,
			"-0.022": 0.0,
			"-0.021": 0.0,
			"-0.02": 0.0,
			"-0.019": 0.0,
			"-0.018": 0.0,
			"-0.017": 0.0,
			"-0.016": 0.0,
			"-0.015": 0.0,
			"-0.014": 0.0,
			"-0.013": 0.0,
			"-0.012": 0.0,
			"-0.011": 0.0,
			"-0.01": 1.08162556492,
			"-0.009": 3.74792156106,
			"-0.008": 2.68068318343,
			"-0.007": 4.18203373322,
			"-0.006": 3.19783468621,
			"-0.005": 9.08511672604,
			"-0.004": 15.8720794659,
			"-0.003": 25.4605273259,
			"-0.002": 22.7439909623,
			"-0.001": 18.7527980687,
			"0.0": 16.1799607924,
			"0.001": 12.1582606727,
			"0.002": 5.71957018224,
			"0.003": 3.25213287954,
			"0.004": 4.44592050727,
			"0.005": 3.52550568381,
			"0.006": 2.29830877122,
			"0.007": 3.0874443757,
			"0.008": 3.69475654112,
			"0.009": 3.1034944303,
			"0.01": 5.4309036681,
			"0.011": 9.49482250065,
			"0.012": 3.58885995013,
			"0.013": 0.0745506321108,
			"0.014": 0.0,
			"0.015": 0.0,
			"0.016": 0.0,
			"0.017": 0.0,
			"0.018": 0.0,
			"0.019": 0.0,
			"0.02": 0.0,
			"0.021": 0.0,
			"0.022": 0.0,
			"0.023": 0.0,
			"0.024": 0.0,
			"0.025": 0.0
		}
	}
}
