{
	 "smiles": "CC(C)CC(C)O", 
	 "Tm": 183.15, 
	 "num_atms": 21, 
	 "gaussian": { 
		 "optdone": 1, 
		 "sigma_profile": "yes", 
		 "theory": "DFT", 
		 "functional": "B3LYP", 
		 "basiset": "6-31G**", 
		 "properties": { 
			 "R2extent": 991.4272, 
			 "electric_dipole_moment_norm": 1.50607560899, 
			 "electric_quadrupole_moment_norm": 5.87233274517, 
			 "total_energy": -312.304323525, 
			 "HOMO_LUMO_gap": 0.32175, 
			 "cosmo_polarized_energy": -5.29, 
			 "cosmo_cavitation_energy": 21.64, 
			 "cosmo_dispersion_energy": -15.72, 
			 "cosmo_repulsion_energy": 1.33, 
			 "cosmo_total_nonelectrostatic_energy": 7.25, 
			 "SMD_solvation_energy": 3.77 
		},
		"coords": [
			{
				"x": -0.401547947,
				"y": 0.3063362061,
				"z": 2.0197150686,
				"element": "C" 
			},
			{
				"x": 0.1416443887,
				"y": 0.7615035116,
				"z": 0.6559114784,
				"element": "C" 
			},
			{
				"x": -0.9474281391,
				"y": 1.4683943441,
				"z": -0.1706624443,
				"element": "C" 
			},
			{
				"x": 0.9144949806,
				"y": -0.3388014151,
				"z": -0.1152491065,
				"element": "C" 
			},
			{
				"x": 0.288009521,
				"y": -1.713190069,
				"z": -0.4061470293,
				"element": "C" 
			},
			{
				"x": -1.0365188282,
				"y": -1.7138098324,
				"z": -1.1747517325,
				"element": "C" 
			},
			{
				"x": 0.1528711867,
				"y": -2.400399855,
				"z": 0.8420230217,
				"element": "O" 
			},
			{
				"x": -1.1910885441,
				"y": -0.4415650568,
				"z": 1.9106429729,
				"element": "H" 
			},
			{
				"x": -0.8111215322,
				"y": 1.1613405113,
				"z": 2.5702914669,
				"element": "H" 
			},
			{
				"x": 0.385193693,
				"y": -0.1476612828,
				"z": 2.6296282045,
				"element": "H" 
			},
			{
				"x": 0.9054646503,
				"y": 1.527078294,
				"z": 0.8600066389,
				"element": "H" 
			},
			{
				"x": -1.8240350811,
				"y": 0.8355779404,
				"z": -0.3358726372,
				"element": "H" 
			},
			{
				"x": -1.2937088001,
				"y": 2.3684498237,
				"z": 0.349790705,
				"element": "H" 
			},
			{
				"x": -0.5696286306,
				"y": 1.7787722762,
				"z": -1.1517246619,
				"element": "H" 
			},
			{
				"x": 1.2333175564,
				"y": 0.0802498776,
				"z": -1.0794605732,
				"element": "H" 
			},
			{
				"x": 1.835231875,
				"y": -0.5521397843,
				"z": 0.4423745284,
				"element": "H" 
			},
			{
				"x": 1.0290131911,
				"y": -2.2444101534,
				"z": -1.0297149943,
				"element": "H" 
			},
			{
				"x": -0.9646231672,
				"y": -1.1339418754,
				"z": -2.1006557209,
				"element": "H" 
			},
			{
				"x": -1.8469080864,
				"y": -1.3034933734,
				"z": -0.5679036658,
				"element": "H" 
			},
			{
				"x": -1.3124126026,
				"y": -2.7395695602,
				"z": -1.4505334259,
				"element": "H" 
			},
			{
				"x": -0.2140196844,
				"y": -3.2749205272,
				"z": 0.6586919066,
				"element": "H" 
			}
		],
		 "valence_orbital": [ 
			{
				"type": "occ",
				"energy": -0.33406,
				"method": "rhf"
			},
			{
				"type": "occ",
				"energy": -0.31694,
				"method": "rhf"
			},
			{
				"type": "occ",
				"energy": -0.31148,
				"method": "rhf"
			},
			{
				"type": "occ",
				"energy": -0.29457,
				"method": "rhf"
			},
			{
				"type": "occ",
				"energy": -0.2575,
				"method": "rhf"
			},
			{
				"type": "unocc",
				"energy": 0.06425,
				"method": "rhf"
			},
			{
				"type": "unocc",
				"energy": 0.1034,
				"method": "rhf"
			},
			{
				"type": "unocc",
				"energy": 0.11874,
				"method": "rhf"
			},
			{
				"type": "unocc",
				"energy": 0.13421,
				"method": "rhf"
			},
			{
				"type": "unocc",
				"energy": 0.14239,
				"method": "rhf"
			}
		],
		"cosmo_sigma_profile": { 
			"-0.025": 0.0,
			"-0.024": 0.0,
			"-0.023": 0.0,
			"-0.022": 0.0,
			"-0.021": 0.0,
			"-0.02": 0.0,
			"-0.019": 0.0,
			"-0.018": 0.0,
			"-0.017": 0.0,
			"-0.016": 0.0,
			"-0.015": 0.400925456751,
			"-0.014": 0.858816026044,
			"-0.013": 0.987644694019,
			"-0.012": 0.513403629637,
			"-0.011": 1.68083345488,
			"-0.01": 0.674326412349,
			"-0.009": 0.381396605045,
			"-0.008": 0.613570485677,
			"-0.007": 1.19915427113,
			"-0.006": 1.78781959963,
			"-0.005": 1.26087649675,
			"-0.004": 2.06554425846,
			"-0.003": 8.28203699151,
			"-0.002": 25.5095225465,
			"-0.001": 29.3697008554,
			"0.0": 29.2489559106,
			"0.001": 23.1105686196,
			"0.002": 15.6345164017,
			"0.003": 5.52721577126,
			"0.004": 2.18588851588,
			"0.005": 1.7297013552,
			"0.006": 1.91032682348,
			"0.007": 1.10625464583,
			"0.008": 1.01373420559,
			"0.009": 1.63141326577,
			"0.01": 1.36718157015,
			"0.011": 1.67512911441,
			"0.012": 1.48064496028,
			"0.013": 0.973359252883,
			"0.014": 0.841196029922,
			"0.015": 0.388162482658,
			"0.016": 0.0,
			"0.017": 0.0,
			"0.018": 0.0,
			"0.019": 0.0,
			"0.02": 0.0,
			"0.021": 0.0,
			"0.022": 0.0,
			"0.023": 0.0,
			"0.024": 0.0,
			"0.025": 0.0
		}
	}
}
