{
	 "smiles": "NC1=C(OCCCC#N)C=CC=N1", 
	 "Tm": 362.15, 
	 "num_atms": 24, 
	 "gaussian": { 
		 "optdone": 1, 
		 "sigma_profile": "yes", 
		 "theory": "DFT", 
		 "functional": "B3LYP", 
		 "basiset": "6-31G**", 
		 "properties": { 
			 "R2extent": 3688.8912, 
			 "electric_dipole_moment_norm": 4.68826911664, 
			 "electric_quadrupole_moment_norm": 27.1173574397, 
			 "total_energy": -589.04804219, 
			 "HOMO_LUMO_gap": 0.19545, 
			 "cosmo_polarized_energy": -17.02, 
			 "cosmo_cavitation_energy": 28.9, 
			 "cosmo_dispersion_energy": -20.15, 
			 "cosmo_repulsion_energy": 1.63, 
			 "cosmo_total_nonelectrostatic_energy": 10.38, 
			 "SMD_solvation_energy": 4.92 
		},
		"coords": [
			{
				"x": -1.041672957,
				"y": -2.9271091881,
				"z": -1.0319535439,
				"element": "N" 
			},
			{
				"x": -1.2274612057,
				"y": -1.6681323326,
				"z": -0.4937671044,
				"element": "C" 
			},
			{
				"x": -0.279580091,
				"y": -0.6430466838,
				"z": -0.7623074201,
				"element": "C" 
			},
			{
				"x": 0.7395562139,
				"y": -1.0016250695,
				"z": -1.6112473846,
				"element": "O" 
			},
			{
				"x": 1.7278468591,
				"y": -0.0261228078,
				"z": -1.932929344,
				"element": "C" 
			},
			{
				"x": 2.7745813321,
				"y": -0.7080787325,
				"z": -2.8037221282,
				"element": "C" 
			},
			{
				"x": 3.5281004973,
				"y": -1.8403978505,
				"z": -2.0723219719,
				"element": "C" 
			},
			{
				"x": 4.3596023638,
				"y": -1.3415095391,
				"z": -0.9726873389,
				"element": "C" 
			},
			{
				"x": 5.0100458107,
				"y": -0.917424824,
				"z": -0.1097433037,
				"element": "N" 
			},
			{
				"x": -0.4589711479,
				"y": 0.5993694873,
				"z": -0.1776088032,
				"element": "C" 
			},
			{
				"x": -1.5645388634,
				"y": 0.7949416881,
				"z": 0.6672452844,
				"element": "C" 
			},
			{
				"x": -2.4350278252,
				"y": -0.264817365,
				"z": 0.868433866,
				"element": "C" 
			},
			{
				"x": -2.2803101975,
				"y": -1.4718553224,
				"z": 0.2974031427,
				"element": "N" 
			},
			{
				"x": -0.5118079093,
				"y": -2.9686848623,
				"z": -1.8895247244,
				"element": "H" 
			},
			{
				"x": -1.8681863739,
				"y": -3.5071156941,
				"z": -0.9996176009,
				"element": "H" 
			},
			{
				"x": 2.1848357588,
				"y": 0.3670677926,
				"z": -1.0143478613,
				"element": "H" 
			},
			{
				"x": 1.2684152428,
				"y": 0.8135155915,
				"z": -2.4728372457,
				"element": "H" 
			},
			{
				"x": 2.2830285873,
				"y": -1.1341281021,
				"z": -3.6846469679,
				"element": "H" 
			},
			{
				"x": 3.4859644531,
				"y": 0.0455889882,
				"z": -3.1569873815,
				"element": "H" 
			},
			{
				"x": 4.1724172412,
				"y": -2.3814005133,
				"z": -2.7737884432,
				"element": "H" 
			},
			{
				"x": 2.8083014279,
				"y": -2.5588432457,
				"z": -1.666212276,
				"element": "H" 
			},
			{
				"x": 0.2379744536,
				"y": 1.4092604663,
				"z": -0.3610961847,
				"element": "H" 
			},
			{
				"x": -1.7328252292,
				"y": 1.7540717998,
				"z": 1.1448560638,
				"element": "H" 
			},
			{
				"x": -3.3059884415,
				"y": -0.1540236811,
				"z": 1.5110086718,
				"element": "H" 
			}
		],
		 "valence_orbital": [ 
			{
				"type": "occ",
				"energy": -0.32455,
				"method": "rhf"
			},
			{
				"type": "occ",
				"energy": -0.31491,
				"method": "rhf"
			},
			{
				"type": "occ",
				"energy": -0.25902,
				"method": "rhf"
			},
			{
				"type": "occ",
				"energy": -0.25339,
				"method": "rhf"
			},
			{
				"type": "occ",
				"energy": -0.20208,
				"method": "rhf"
			},
			{
				"type": "unocc",
				"energy": -0.00663,
				"method": "rhf"
			},
			{
				"type": "unocc",
				"energy": 0.01454,
				"method": "rhf"
			},
			{
				"type": "unocc",
				"energy": 0.02686,
				"method": "rhf"
			},
			{
				"type": "unocc",
				"energy": 0.03541,
				"method": "rhf"
			},
			{
				"type": "unocc",
				"energy": 0.07443,
				"method": "rhf"
			}
		],
		"cosmo_sigma_profile": { 
			"-0.025": 0.0,
			"-0.024": 0.0,
			"-0.023": 0.0,
			"-0.022": 0.0,
			"-0.021": 0.0,
			"-0.02": 0.0,
			"-0.019": 0.0,
			"-0.018": 0.0,
			"-0.017": 0.0,
			"-0.016": 0.0,
			"-0.015": 0.0,
			"-0.014": 0.0,
			"-0.013": 0.0615425763375,
			"-0.012": 1.46353928654,
			"-0.011": 1.78109810503,
			"-0.01": 1.6805825127,
			"-0.009": 1.99294322942,
			"-0.008": 5.67362773696,
			"-0.007": 8.33147435871,
			"-0.006": 17.3148973734,
			"-0.005": 27.5790352198,
			"-0.004": 20.709709477,
			"-0.003": 14.6322207344,
			"-0.002": 11.0232830748,
			"-0.001": 10.4836249199,
			"0.0": 9.85753655434,
			"0.001": 9.02567524775,
			"0.002": 11.2146299459,
			"0.003": 11.9793634859,
			"0.004": 12.7002103986,
			"0.005": 9.03857582598,
			"0.006": 6.46815998699,
			"0.007": 5.12866988165,
			"0.008": 5.40957131686,
			"0.009": 5.57209413587,
			"0.01": 5.85145517917,
			"0.011": 4.30695719836,
			"0.012": 4.21551678199,
			"0.013": 3.3313536985,
			"0.014": 1.30847973329,
			"0.015": 0.936533691357,
			"0.016": 0.726392686502,
			"0.017": 0.0045403059522,
			"0.018": 0.0,
			"0.019": 0.0,
			"0.02": 0.0,
			"0.021": 0.0,
			"0.022": 0.0,
			"0.023": 0.0,
			"0.024": 0.0,
			"0.025": 0.0
		}
	}
}
