{
	 "smiles": "COC(=O)C(CC1=CNC=N1)NC(=O)CCC1=CC=CC=C1", 
	 "Tm": 426.15, 
	 "num_atms": 41, 
	 "gaussian": { 
		 "optdone": 1, 
		 "sigma_profile": "yes", 
		 "theory": "DFT", 
		 "functional": "B3LYP", 
		 "basiset": "6-31G**", 
		 "properties": { 
			 "R2extent": 9982.1545, 
			 "electric_dipole_moment_norm": 4.31914765897, 
			 "electric_quadrupole_moment_norm": 29.8558682789, 
			 "total_energy": -1011.10578902, 
			 "HOMO_LUMO_gap": 0.23192, 
			 "cosmo_polarized_energy": -24.91, 
			 "cosmo_cavitation_energy": 45.88, 
			 "cosmo_dispersion_energy": -30.72, 
			 "cosmo_repulsion_energy": 2.39, 
			 "cosmo_total_nonelectrostatic_energy": 17.55, 
			 "SMD_solvation_energy": 8.71 
		},
		"coords": [
			{
				"x": -1.8362511981,
				"y": 2.1021260595,
				"z": -4.3560797767,
				"element": "C" 
			},
			{
				"x": -1.5457661415,
				"y": 1.3292062481,
				"z": -3.176211053,
				"element": "O" 
			},
			{
				"x": -0.61635792,
				"y": 1.8519684843,
				"z": -2.3623693999,
				"element": "C" 
			},
			{
				"x": 0.0665049529,
				"y": 2.8186992727,
				"z": -2.6214189404,
				"element": "O" 
			},
			{
				"x": -0.5617819168,
				"y": 1.0849466372,
				"z": -1.0400300071,
				"element": "C" 
			},
			{
				"x": -1.8936765327,
				"y": 1.3070942915,
				"z": -0.2534084487,
				"element": "C" 
			},
			{
				"x": -2.205039946,
				"y": 2.7488386828,
				"z": 0.0062546335,
				"element": "C" 
			},
			{
				"x": -1.9383239504,
				"y": 3.5020137193,
				"z": 1.1252469291,
				"element": "C" 
			},
			{
				"x": -2.3870597662,
				"y": 4.7726613276,
				"z": 0.8292027197,
				"element": "N" 
			},
			{
				"x": -2.8939169786,
				"y": 4.737465602,
				"z": -0.4380040971,
				"element": "C" 
			},
			{
				"x": -2.8011246536,
				"y": 3.5358643475,
				"z": -0.9634908423,
				"element": "N" 
			},
			{
				"x": 0.6139281371,
				"y": 1.5217075046,
				"z": -0.3181698897,
				"element": "N" 
			},
			{
				"x": 1.4101170494,
				"y": 0.8074703393,
				"z": 0.5384582683,
				"element": "C" 
			},
			{
				"x": 2.3904550841,
				"y": 1.3224284797,
				"z": 1.0643742521,
				"element": "O" 
			},
			{
				"x": 1.0276317693,
				"y": -0.6514383883,
				"z": 0.7927815385,
				"element": "C" 
			},
			{
				"x": 1.9338792091,
				"y": -1.3110544982,
				"z": 1.8453317067,
				"element": "C" 
			},
			{
				"x": 1.5797087404,
				"y": -2.7639698131,
				"z": 2.0775407709,
				"element": "C" 
			},
			{
				"x": 2.1554001399,
				"y": -3.7774617945,
				"z": 1.2983224748,
				"element": "C" 
			},
			{
				"x": 1.8069368274,
				"y": -5.1155062706,
				"z": 1.4874559745,
				"element": "C" 
			},
			{
				"x": 0.8728823319,
				"y": -5.4651024672,
				"z": 2.4646108297,
				"element": "C" 
			},
			{
				"x": 0.2936515613,
				"y": -4.4671398892,
				"z": 3.2504583101,
				"element": "C" 
			},
			{
				"x": 0.6458020044,
				"y": -3.1305439488,
				"z": 3.0566105195,
				"element": "C" 
			},
			{
				"x": -2.2756610993,
				"y": 3.0580194154,
				"z": -4.0624325666,
				"element": "H" 
			},
			{
				"x": -2.5507021423,
				"y": 1.5090034184,
				"z": -4.9263525122,
				"element": "H" 
			},
			{
				"x": -0.9274266704,
				"y": 2.2767108014,
				"z": -4.9358137019,
				"element": "H" 
			},
			{
				"x": -0.4889566163,
				"y": 0.018750276,
				"z": -1.2775652377,
				"element": "H" 
			},
			{
				"x": -2.7072697226,
				"y": 0.8592430316,
				"z": -0.8316316502,
				"element": "H" 
			},
			{
				"x": -1.8146200644,
				"y": 0.761018988,
				"z": 0.6917721504,
				"element": "H" 
			},
			{
				"x": -1.4814536436,
				"y": 3.2585229808,
				"z": 2.0718422977,
				"element": "H" 
			},
			{
				"x": -2.3463182819,
				"y": 5.575705463,
				"z": 1.4379590051,
				"element": "H" 
			},
			{
				"x": -3.316389335,
				"y": 5.6098081563,
				"z": -0.9174182002,
				"element": "H" 
			},
			{
				"x": 0.9458743822,
				"y": 2.4529721375,
				"z": -0.5418218452,
				"element": "H" 
			},
			{
				"x": 1.0915400372,
				"y": -1.2070289506,
				"z": -0.1529381556,
				"element": "H" 
			},
			{
				"x": -0.0221598339,
				"y": -0.7189240334,
				"z": 1.104523212,
				"element": "H" 
			},
			{
				"x": 2.9735028437,
				"y": -1.2150576221,
				"z": 1.5192165624,
				"element": "H" 
			},
			{
				"x": 1.8580320495,
				"y": -0.7454987257,
				"z": 2.7793941518,
				"element": "H" 
			},
			{
				"x": 2.8900805728,
				"y": -3.5138564818,
				"z": 0.5406630603,
				"element": "H" 
			},
			{
				"x": 2.269183112,
				"y": -5.8855503004,
				"z": 0.8758040013,
				"element": "H" 
			},
			{
				"x": 0.603300813,
				"y": -6.5064250035,
				"z": 2.6162004706,
				"element": "H" 
			},
			{
				"x": -0.4286770607,
				"y": -4.7295463982,
				"z": 4.0187061988,
				"element": "H" 
			},
			{
				"x": 0.1961218568,
				"y": -2.3594410788,
				"z": 3.6784262867,
				"element": "H" 
			}
		],
		 "valence_orbital": [ 
			{
				"type": "occ",
				"energy": -0.2456,
				"method": "rhf"
			},
			{
				"type": "occ",
				"energy": -0.24496,
				"method": "rhf"
			},
			{
				"type": "occ",
				"energy": -0.24388,
				"method": "rhf"
			},
			{
				"type": "occ",
				"energy": -0.23208,
				"method": "rhf"
			},
			{
				"type": "occ",
				"energy": -0.22908,
				"method": "rhf"
			},
			{
				"type": "unocc",
				"energy": 0.00284,
				"method": "rhf"
			},
			{
				"type": "unocc",
				"energy": 0.00406,
				"method": "rhf"
			},
			{
				"type": "unocc",
				"energy": 0.00677,
				"method": "rhf"
			},
			{
				"type": "unocc",
				"energy": 0.02287,
				"method": "rhf"
			},
			{
				"type": "unocc",
				"energy": 0.03697,
				"method": "rhf"
			}
		],
		"cosmo_sigma_profile": { 
			"-0.025": 0.0,
			"-0.024": 0.0,
			"-0.023": 0.0,
			"-0.022": 0.0,
			"-0.021": 0.0,
			"-0.02": 0.0,
			"-0.019": 0.0,
			"-0.018": 0.0,
			"-0.017": 0.368892924779,
			"-0.016": 1.88495259772,
			"-0.015": 1.70313231612,
			"-0.014": 1.14468936772,
			"-0.013": 0.991045351518,
			"-0.012": 1.24980184926,
			"-0.011": 1.44484812427,
			"-0.01": 1.19994872125,
			"-0.009": 3.27475910464,
			"-0.008": 8.08938690346,
			"-0.007": 10.699041054,
			"-0.006": 16.9175741954,
			"-0.005": 26.7862676473,
			"-0.004": 33.5255790116,
			"-0.003": 37.1631358492,
			"-0.002": 22.7575412321,
			"-0.001": 21.7683391064,
			"0.0": 18.0214436225,
			"0.001": 17.6790056572,
			"0.002": 18.6001323296,
			"0.003": 19.0449740103,
			"0.004": 17.283878252,
			"0.005": 17.2246159527,
			"0.006": 14.9997379548,
			"0.007": 10.5134141937,
			"0.008": 6.5504841651,
			"0.009": 5.82466312328,
			"0.01": 5.26760530247,
			"0.011": 5.58288438971,
			"0.012": 3.43517345146,
			"0.013": 4.45852739857,
			"0.014": 5.9085823619,
			"0.015": 1.45361388308,
			"0.016": 0.119382101735,
			"0.017": 0.0,
			"0.018": 0.0,
			"0.019": 0.0,
			"0.02": 0.0,
			"0.021": 0.0,
			"0.022": 0.0,
			"0.023": 0.0,
			"0.024": 0.0,
			"0.025": 0.0
		}
	}
}
