{
	 "smiles": "OC(=O)CCCC1=CC2=C(CC3=C2C=CC=C3)C=C1", 
	 "Tm": 425.15, 
	 "num_atms": 35, 
	 "gaussian": { 
		 "optdone": 1, 
		 "sigma_profile": "yes", 
		 "theory": "DFT", 
		 "functional": "B3LYP", 
		 "basiset": "6-31G**", 
		 "properties": { 
			 "R2extent": 7219.3907, 
			 "electric_dipole_moment_norm": 1.79319681575, 
			 "electric_quadrupole_moment_norm": 8.09339276632, 
			 "total_energy": -807.94566299, 
			 "HOMO_LUMO_gap": 0.18395, 
			 "cosmo_polarized_energy": -12.3, 
			 "cosmo_cavitation_energy": 38.65, 
			 "cosmo_dispersion_energy": -27.34, 
			 "cosmo_repulsion_energy": 2.12, 
			 "cosmo_total_nonelectrostatic_energy": 13.43, 
			 "SMD_solvation_energy": 6.53 
		},
		"coords": [
			{
				"x": -1.8727939751,
				"y": 5.0490660358,
				"z": -1.5912078827,
				"element": "O" 
			},
			{
				"x": -2.4183078023,
				"y": 3.8169614839,
				"z": -1.4295993056,
				"element": "C" 
			},
			{
				"x": -3.0800165671,
				"y": 3.2834385403,
				"z": -2.2932982791,
				"element": "O" 
			},
			{
				"x": -2.0839738913,
				"y": 3.2360086272,
				"z": -0.0743731711,
				"element": "C" 
			},
			{
				"x": -2.7753474022,
				"y": 1.8975800279,
				"z": 0.1872010962,
				"element": "C" 
			},
			{
				"x": -2.403344241,
				"y": 1.2745325736,
				"z": 1.548894339,
				"element": "C" 
			},
			{
				"x": -0.941713611,
				"y": 0.8901869424,
				"z": 1.675617654,
				"element": "C" 
			},
			{
				"x": -0.4455942654,
				"y": -0.2311836687,
				"z": 0.9936542462,
				"element": "C" 
			},
			{
				"x": 0.9034146192,
				"y": -0.5689951122,
				"z": 1.0999897602,
				"element": "C" 
			},
			{
				"x": 1.777453797,
				"y": 0.2076157438,
				"z": 1.8902483005,
				"element": "C" 
			},
			{
				"x": 3.1768379127,
				"y": -0.3717329122,
				"z": 1.8412900368,
				"element": "C" 
			},
			{
				"x": 3.0098176188,
				"y": -1.572852001,
				"z": 0.9315137225,
				"element": "C" 
			},
			{
				"x": 1.6684569538,
				"y": -1.6742534473,
				"z": 0.5054303071,
				"element": "C" 
			},
			{
				"x": 1.2725121418,
				"y": -2.7091657173,
				"z": -0.3452544199,
				"element": "C" 
			},
			{
				"x": 2.2258676992,
				"y": -3.6391875428,
				"z": -0.7649314167,
				"element": "C" 
			},
			{
				"x": 3.5560066027,
				"y": -3.5380159374,
				"z": -0.3417762432,
				"element": "C" 
			},
			{
				"x": 3.954915971,
				"y": -2.5018050398,
				"z": 0.5103169276,
				"element": "C" 
			},
			{
				"x": 1.2958139952,
				"y": 1.3180753836,
				"z": 2.5709578719,
				"element": "C" 
			},
			{
				"x": -0.0594035902,
				"y": 1.651202279,
				"z": 2.4588773665,
				"element": "C" 
			},
			{
				"x": -2.1262336302,
				"y": 5.3382324566,
				"z": -2.4838739829,
				"element": "H" 
			},
			{
				"x": -2.3487625352,
				"y": 3.9815582732,
				"z": 0.6863162434,
				"element": "H" 
			},
			{
				"x": -0.9929435382,
				"y": 3.1352329772,
				"z": -0.0166348737,
				"element": "H" 
			},
			{
				"x": -3.8611167562,
				"y": 2.0370237197,
				"z": 0.1392103695,
				"element": "H" 
			},
			{
				"x": -2.5240391913,
				"y": 1.2023322219,
				"z": -0.6208866205,
				"element": "H" 
			},
			{
				"x": -3.0261206611,
				"y": 0.3837847656,
				"z": 1.6971504834,
				"element": "H" 
			},
			{
				"x": -2.6683884819,
				"y": 1.9727476853,
				"z": 2.3526227842,
				"element": "H" 
			},
			{
				"x": -1.119019646,
				"y": -0.8353025838,
				"z": 0.3895266872,
				"element": "H" 
			},
			{
				"x": 3.9060970983,
				"y": 0.346498616,
				"z": 1.4427749974,
				"element": "H" 
			},
			{
				"x": 3.538464843,
				"y": -0.6589903504,
				"z": 2.8378444384,
				"element": "H" 
			},
			{
				"x": 0.2415189251,
				"y": -2.7931139179,
				"z": -0.6779728947,
				"element": "H" 
			},
			{
				"x": 1.9326100824,
				"y": -4.449273814,
				"z": -1.4266567327,
				"element": "H" 
			},
			{
				"x": 4.2848990846,
				"y": -4.269968805,
				"z": -0.677826168,
				"element": "H" 
			},
			{
				"x": 4.9898275402,
				"y": -2.4288582984,
				"z": 0.8352473894,
				"element": "H" 
			},
			{
				"x": 1.9547858262,
				"y": 1.9243329203,
				"z": 3.1875881873,
				"element": "H" 
			},
			{
				"x": -0.4417809254,
				"y": 2.5157878748,
				"z": 2.995918782,
				"element": "H" 
			}
		],
		 "valence_orbital": [ 
			{
				"type": "occ",
				"energy": -0.27808,
				"method": "rhf"
			},
			{
				"type": "occ",
				"energy": -0.27187,
				"method": "rhf"
			},
			{
				"type": "occ",
				"energy": -0.24627,
				"method": "rhf"
			},
			{
				"type": "occ",
				"energy": -0.237,
				"method": "rhf"
			},
			{
				"type": "occ",
				"energy": -0.21281,
				"method": "rhf"
			},
			{
				"type": "unocc",
				"energy": -0.02886,
				"method": "rhf"
			},
			{
				"type": "unocc",
				"energy": -0.01005,
				"method": "rhf"
			},
			{
				"type": "unocc",
				"energy": 0.00898,
				"method": "rhf"
			},
			{
				"type": "unocc",
				"energy": 0.0151,
				"method": "rhf"
			},
			{
				"type": "unocc",
				"energy": 0.04212,
				"method": "rhf"
			}
		],
		"cosmo_sigma_profile": { 
			"-0.025": 0.0,
			"-0.024": 0.0,
			"-0.023": 0.0,
			"-0.022": 0.0,
			"-0.021": 0.0,
			"-0.02": 0.0,
			"-0.019": 0.0,
			"-0.018": 0.406352695359,
			"-0.017": 0.84751263333,
			"-0.016": 0.907978572339,
			"-0.015": 1.1947969766,
			"-0.014": 0.37729517388,
			"-0.013": 0.553569597664,
			"-0.012": 0.492518479659,
			"-0.011": 0.993102268693,
			"-0.01": 0.858989613649,
			"-0.009": 0.696238954391,
			"-0.008": 0.168985249287,
			"-0.007": 0.870734193404,
			"-0.006": 5.91303859694,
			"-0.005": 24.5063180643,
			"-0.004": 29.8552693828,
			"-0.003": 36.3962263481,
			"-0.002": 32.2222712942,
			"-0.001": 24.5814417992,
			"0.0": 20.0394713283,
			"0.001": 15.7631887653,
			"0.002": 15.607690592,
			"0.003": 17.1260293019,
			"0.004": 18.2219897523,
			"0.005": 20.4848985637,
			"0.006": 15.473234771,
			"0.007": 3.34158390166,
			"0.008": 2.30964560894,
			"0.009": 3.70605686223,
			"0.01": 3.37548459704,
			"0.011": 2.81082103914,
			"0.012": 5.12166002647,
			"0.013": 0.91726585335,
			"0.014": 0.0,
			"0.015": 0.0,
			"0.016": 0.0,
			"0.017": 0.0,
			"0.018": 0.0,
			"0.019": 0.0,
			"0.02": 0.0,
			"0.021": 0.0,
			"0.022": 0.0,
			"0.023": 0.0,
			"0.024": 0.0,
			"0.025": 0.0
		}
	}
}
