{
	 "smiles": "NNC(=O)CC1=CC=C(F)C=C1", 
	 "Tm": 403.15, 
	 "num_atms": 21, 
	 "gaussian": { 
		 "optdone": 1, 
		 "sigma_profile": "yes", 
		 "theory": "DFT", 
		 "functional": "B3LYP", 
		 "basiset": "6-31G**", 
		 "properties": { 
			 "R2extent": 2563.4686, 
			 "electric_dipole_moment_norm": 4.29167698458, 
			 "electric_quadrupole_moment_norm": 15.5402035164, 
			 "total_energy": -594.816618442, 
			 "HOMO_LUMO_gap": 0.22182, 
			 "cosmo_polarized_energy": -14.48, 
			 "cosmo_cavitation_energy": 25.91, 
			 "cosmo_dispersion_energy": -18.38, 
			 "cosmo_repulsion_energy": 1.48, 
			 "cosmo_total_nonelectrostatic_energy": 9.01, 
			 "SMD_solvation_energy": 6.22 
		},
		"coords": [
			{
				"x": -2.5861730146,
				"y": 1.411738122,
				"z": -0.5458711461,
				"element": "N" 
			},
			{
				"x": -2.1761178247,
				"y": 1.6584704601,
				"z": 0.7692775803,
				"element": "N" 
			},
			{
				"x": -1.2796558037,
				"y": 0.8597509732,
				"z": 1.4397424821,
				"element": "C" 
			},
			{
				"x": -0.858494303,
				"y": 1.197940485,
				"z": 2.5380409172,
				"element": "O" 
			},
			{
				"x": -0.834172588,
				"y": -0.4219053209,
				"z": 0.7428413352,
				"element": "C" 
			},
			{
				"x": 0.4076151993,
				"y": -0.1800325565,
				"z": -0.1000559198,
				"element": "C" 
			},
			{
				"x": 0.3856853401,
				"y": -0.358282684,
				"z": -1.4884333128,
				"element": "C" 
			},
			{
				"x": 1.5282864368,
				"y": -0.1412935976,
				"z": -2.2613105441,
				"element": "C" 
			},
			{
				"x": 2.6950351549,
				"y": 0.2639672506,
				"z": -1.6257035949,
				"element": "C" 
			},
			{
				"x": 3.8060643914,
				"y": 0.4760133883,
				"z": -2.3651492418,
				"element": "F" 
			},
			{
				"x": 2.7517094772,
				"y": 0.4592034109,
				"z": -0.2497016084,
				"element": "C" 
			},
			{
				"x": 1.6025094457,
				"y": 0.2355476898,
				"z": 0.5067640643,
				"element": "C" 
			},
			{
				"x": -2.1871502068,
				"y": 2.0980840012,
				"z": -1.1824849494,
				"element": "H" 
			},
			{
				"x": -3.5997426161,
				"y": 1.4536561282,
				"z": -0.6056691717,
				"element": "H" 
			},
			{
				"x": -2.365480986,
				"y": 2.5500629538,
				"z": 1.2181046976,
				"element": "H" 
			},
			{
				"x": -1.6355095602,
				"y": -0.821487696,
				"z": 0.1202219328,
				"element": "H" 
			},
			{
				"x": -0.6132439387,
				"y": -1.1321220876,
				"z": 1.5448457232,
				"element": "H" 
			},
			{
				"x": -0.535804287,
				"y": -0.6692479753,
				"z": -1.972028578,
				"element": "H" 
			},
			{
				"x": 1.5243222943,
				"y": -0.2819778788,
				"z": -3.3369748547,
				"element": "H" 
			},
			{
				"x": 3.6816069618,
				"y": 0.7788124139,
				"z": 0.2084648763,
				"element": "H" 
			},
			{
				"x": 1.6223104273,
				"y": 0.3947025197,
				"z": 1.5808793127,
				"element": "H" 
			}
		],
		 "valence_orbital": [ 
			{
				"type": "occ",
				"energy": -0.29052,
				"method": "rhf"
			},
			{
				"type": "occ",
				"energy": -0.26032,
				"method": "rhf"
			},
			{
				"type": "occ",
				"energy": -0.25535,
				"method": "rhf"
			},
			{
				"type": "occ",
				"energy": -0.25256,
				"method": "rhf"
			},
			{
				"type": "occ",
				"energy": -0.22921,
				"method": "rhf"
			},
			{
				"type": "unocc",
				"energy": -0.00739,
				"method": "rhf"
			},
			{
				"type": "unocc",
				"energy": 0.00032,
				"method": "rhf"
			},
			{
				"type": "unocc",
				"energy": 0.03382,
				"method": "rhf"
			},
			{
				"type": "unocc",
				"energy": 0.06202,
				"method": "rhf"
			},
			{
				"type": "unocc",
				"energy": 0.09561,
				"method": "rhf"
			}
		],
		"cosmo_sigma_profile": { 
			"-0.025": 0.0,
			"-0.024": 0.0,
			"-0.023": 0.0,
			"-0.022": 0.0,
			"-0.021": 0.0,
			"-0.02": 0.0,
			"-0.019": 0.0,
			"-0.018": 0.0,
			"-0.017": 0.0,
			"-0.016": 0.0,
			"-0.015": 0.0,
			"-0.014": 0.0854678091313,
			"-0.013": 1.33708342944,
			"-0.012": 3.68305747944,
			"-0.011": 4.63152703494,
			"-0.01": 4.17891409474,
			"-0.009": 5.25098364077,
			"-0.008": 4.33806943564,
			"-0.007": 4.81901293188,
			"-0.006": 6.02545019391,
			"-0.005": 10.3401677514,
			"-0.004": 12.4858641188,
			"-0.003": 10.8022238189,
			"-0.002": 12.8094604646,
			"-0.001": 10.923635871,
			"0.0": 10.8501645065,
			"0.001": 14.986353278,
			"0.002": 17.0025892724,
			"0.003": 15.6946767016,
			"0.004": 20.9631590555,
			"0.005": 11.3720381919,
			"0.006": 3.17626711225,
			"0.007": 1.37856253336,
			"0.008": 2.14797077852,
			"0.009": 1.92943873077,
			"0.01": 1.45520701888,
			"0.011": 1.83697075365,
			"0.012": 1.22245485002,
			"0.013": 3.14948215591,
			"0.014": 5.35399259045,
			"0.015": 0.933113020736,
			"0.016": 0.0,
			"0.017": 0.0,
			"0.018": 0.0,
			"0.019": 0.0,
			"0.02": 0.0,
			"0.021": 0.0,
			"0.022": 0.0,
			"0.023": 0.0,
			"0.024": 0.0,
			"0.025": 0.0
		}
	}
}
