{
	 "smiles": "COC(=O)C1=CC2=CC3=C(C=C2C=C1C(=O)OC)C=C(C(=O)OC)C(=C3)C(=O)OC", 
	 "Tm": 493.15, 
	 "num_atms": 48, 
	 "gaussian": { 
		 "optdone": 1, 
		 "sigma_profile": "yes", 
		 "theory": "DFT", 
		 "functional": "B3LYP", 
		 "basiset": "6-31G**", 
		 "properties": { 
			 "R2extent": 19872.8998, 
			 "electric_dipole_moment_norm": 3.27967739115, 
			 "electric_quadrupole_moment_norm": 34.7330049773, 
			 "total_energy": -1451.02302483, 
			 "HOMO_LUMO_gap": 0.12598, 
			 "cosmo_polarized_energy": -22.62, 
			 "cosmo_cavitation_energy": 54.75, 
			 "cosmo_dispersion_energy": -37.38, 
			 "cosmo_repulsion_energy": 2.78, 
			 "cosmo_total_nonelectrostatic_energy": 20.15, 
			 "SMD_solvation_energy": 14.39 
		},
		"coords": [
			{
				"x": -6.8255999054,
				"y": 2.1872417582,
				"z": -0.6765327418,
				"element": "C" 
			},
			{
				"x": -5.6201628791,
				"y": 1.5960913271,
				"z": -0.1655734623,
				"element": "O" 
			},
			{
				"x": -4.7937869111,
				"y": 1.082470208,
				"z": -1.0972260237,
				"element": "C" 
			},
			{
				"x": -4.9477217539,
				"y": 1.2181030179,
				"z": -2.2927112439,
				"element": "O" 
			},
			{
				"x": -3.600957004,
				"y": 0.4218854683,
				"z": -0.4723627665,
				"element": "C" 
			},
			{
				"x": -2.374430433,
				"y": 0.741018673,
				"z": -0.9970141836,
				"element": "C" 
			},
			{
				"x": -1.1613289641,
				"y": 0.2605956141,
				"z": -0.4189309411,
				"element": "C" 
			},
			{
				"x": 0.0961451924,
				"y": 0.594313107,
				"z": -0.9366420856,
				"element": "C" 
			},
			{
				"x": 1.2745096218,
				"y": 0.1214860424,
				"z": -0.344930064,
				"element": "C" 
			},
			{
				"x": 1.191488762,
				"y": -0.7255158411,
				"z": 0.8201718045,
				"element": "C" 
			},
			{
				"x": -0.0663016546,
				"y": -1.0601976176,
				"z": 1.3371542674,
				"element": "C" 
			},
			{
				"x": -1.2443307695,
				"y": -0.5851298134,
				"z": 0.7469416162,
				"element": "C" 
			},
			{
				"x": -2.5348804047,
				"y": -0.9294174792,
				"z": 1.2486716363,
				"element": "C" 
			},
			{
				"x": -3.6869208657,
				"y": -0.4607237618,
				"z": 0.6631539941,
				"element": "C" 
			},
			{
				"x": -5.0100093001,
				"y": -1.0065037497,
				"z": 1.0925828275,
				"element": "C" 
			},
			{
				"x": -5.9664070734,
				"y": -1.1464050506,
				"z": 0.3579793017,
				"element": "O" 
			},
			{
				"x": -5.0084475108,
				"y": -1.3842674538,
				"z": 2.3906415035,
				"element": "O" 
			},
			{
				"x": -6.22347761,
				"y": -2.0019243585,
				"z": 2.8460017672,
				"element": "C" 
			},
			{
				"x": 2.4027650032,
				"y": -1.2137497738,
				"z": 1.3929225517,
				"element": "C" 
			},
			{
				"x": 3.6325446086,
				"y": -0.8893888302,
				"z": 0.8739802372,
				"element": "C" 
			},
			{
				"x": 4.8071985768,
				"y": -1.6003850756,
				"z": 1.4702318555,
				"element": "C" 
			},
			{
				"x": 4.8983327675,
				"y": -1.9110093569,
				"z": 2.6403172351,
				"element": "O" 
			},
			{
				"x": 5.7141917464,
				"y": -1.946640198,
				"z": 0.5327036118,
				"element": "O" 
			},
			{
				"x": 6.861568361,
				"y": -2.6569499626,
				"z": 1.0247511551,
				"element": "C" 
			},
			{
				"x": 3.7173575643,
				"y": 0.008604141,
				"z": -0.2494000189,
				"element": "C" 
			},
			{
				"x": 2.5658796845,
				"y": 0.4675781013,
				"z": -0.8414026489,
				"element": "C" 
			},
			{
				"x": 4.9991126684,
				"y": 0.5805014195,
				"z": -0.7704486616,
				"element": "C" 
			},
			{
				"x": 5.1985664658,
				"y": 0.8685800731,
				"z": -1.9326215863,
				"element": "O" 
			},
			{
				"x": 5.876830702,
				"y": 0.8333237295,
				"z": 0.223322814,
				"element": "O" 
			},
			{
				"x": 7.1249340684,
				"y": 1.4079467423,
				"z": -0.1953435762,
				"element": "C" 
			},
			{
				"x": -7.3456641042,
				"y": 2.591101524,
				"z": 0.1919502595,
				"element": "H" 
			},
			{
				"x": -7.4369713482,
				"y": 1.426866209,
				"z": -1.168813722,
				"element": "H" 
			},
			{
				"x": -6.5940733936,
				"y": 2.980130043,
				"z": -1.391513685,
				"element": "H" 
			},
			{
				"x": -2.3272558823,
				"y": 1.3940263303,
				"z": -1.8631579512,
				"element": "H" 
			},
			{
				"x": 0.1592423959,
				"y": 1.2339104659,
				"z": -1.8131992361,
				"element": "H" 
			},
			{
				"x": -0.1291487621,
				"y": -1.7017595239,
				"z": 2.2124387116,
				"element": "H" 
			},
			{
				"x": -2.6048523447,
				"y": -1.6025198968,
				"z": 2.0964099738,
				"element": "H" 
			},
			{
				"x": -6.4335476869,
				"y": -2.9087884878,
				"z": 2.273261016,
				"element": "H" 
			},
			{
				"x": -7.0657583178,
				"y": -1.3144134297,
				"z": 2.7378994393,
				"element": "H" 
			},
			{
				"x": -6.0554733035,
				"y": -2.2406119444,
				"z": 3.8960025135,
				"element": "H" 
			},
			{
				"x": 2.3569041631,
				"y": -1.8842077033,
				"z": 2.2455982436,
				"element": "H" 
			},
			{
				"x": 6.5571743105,
				"y": -3.5810028353,
				"z": 1.5220539594,
				"element": "H" 
			},
			{
				"x": 7.4699279894,
				"y": -2.8754829898,
				"z": 0.1473603239,
				"element": "H" 
			},
			{
				"x": 7.4179788059,
				"y": -2.0410157318,
				"z": 1.7359814466,
				"element": "H" 
			},
			{
				"x": 2.6476873205,
				"y": 1.1354926972,
				"z": -1.6933562392,
				"element": "H" 
			},
			{
				"x": 7.6963981261,
				"y": 1.5666140332,
				"z": 0.7189645317,
				"element": "H" 
			},
			{
				"x": 6.9572195783,
				"y": 2.3549979509,
				"z": -0.713798705,
				"element": "H" 
			},
			{
				"x": 7.6540496997,
				"y": 0.7274321892,
				"z": -0.8674690547,
				"element": "H" 
			}
		],
		 "valence_orbital": [ 
			{
				"type": "occ",
				"energy": -0.27818,
				"method": "rhf"
			},
			{
				"type": "occ",
				"energy": -0.27503,
				"method": "rhf"
			},
			{
				"type": "occ",
				"energy": -0.26877,
				"method": "rhf"
			},
			{
				"type": "occ",
				"energy": -0.2565,
				"method": "rhf"
			},
			{
				"type": "occ",
				"energy": -0.21724,
				"method": "rhf"
			},
			{
				"type": "unocc",
				"energy": -0.09126,
				"method": "rhf"
			},
			{
				"type": "unocc",
				"energy": -0.0653,
				"method": "rhf"
			},
			{
				"type": "unocc",
				"energy": -0.02862,
				"method": "rhf"
			},
			{
				"type": "unocc",
				"energy": -0.02309,
				"method": "rhf"
			},
			{
				"type": "unocc",
				"energy": 0.01345,
				"method": "rhf"
			}
		],
		"cosmo_sigma_profile": { 
			"-0.025": 0.0,
			"-0.024": 0.0,
			"-0.023": 0.0,
			"-0.022": 0.0,
			"-0.021": 0.0,
			"-0.02": 0.0,
			"-0.019": 0.0,
			"-0.018": 0.0,
			"-0.017": 0.0,
			"-0.016": 0.0,
			"-0.015": 0.0,
			"-0.014": 0.0,
			"-0.013": 0.0,
			"-0.012": 0.0,
			"-0.011": 0.0,
			"-0.01": 0.0,
			"-0.009": 0.513080746743,
			"-0.008": 10.0005786661,
			"-0.007": 14.1820196889,
			"-0.006": 27.2593480311,
			"-0.005": 33.4763620887,
			"-0.004": 39.5902376826,
			"-0.003": 41.5851934024,
			"-0.002": 25.9082958299,
			"-0.001": 24.7508280487,
			"0.0": 40.6067404439,
			"0.001": 47.4663681436,
			"0.002": 23.496401687,
			"0.003": 16.7111600725,
			"0.004": 12.9324816479,
			"0.005": 11.4298752611,
			"0.006": 10.7991687927,
			"0.007": 9.33600392629,
			"0.008": 7.03701463086,
			"0.009": 6.79670855136,
			"0.01": 7.78786634389,
			"0.011": 13.0093174916,
			"0.012": 12.3092199165,
			"0.013": 0.445197098663,
			"0.014": 0.0,
			"0.015": 0.0,
			"0.016": 0.0,
			"0.017": 0.0,
			"0.018": 0.0,
			"0.019": 0.0,
			"0.02": 0.0,
			"0.021": 0.0,
			"0.022": 0.0,
			"0.023": 0.0,
			"0.024": 0.0,
			"0.025": 0.0
		}
	}
}
