{
	 "smiles": "CN1N=CC2=C1N=CN=C2NN", 
	 "Tm": 530.15, 
	 "num_atms": 20, 
	 "gaussian": { 
		 "optdone": 1, 
		 "sigma_profile": "yes", 
		 "theory": "DFT", 
		 "functional": "B3LYP", 
		 "basiset": "6-31G**", 
		 "properties": { 
			 "R2extent": 2636.9593, 
			 "electric_dipole_moment_norm": 0.578555036276, 
			 "electric_quadrupole_moment_norm": 3.55933711244, 
			 "total_energy": -561.930120948, 
			 "HOMO_LUMO_gap": 0.19092, 
			 "cosmo_polarized_energy": -13.14, 
			 "cosmo_cavitation_energy": 24.36, 
			 "cosmo_dispersion_energy": -18.37, 
			 "cosmo_repulsion_energy": 1.46, 
			 "cosmo_total_nonelectrostatic_energy": 7.45, 
			 "SMD_solvation_energy": 1.59 
		},
		"coords": [
			{
				"x": 0.6395034296,
				"y": 2.3080046252,
				"z": 4.2036159804,
				"element": "C" 
			},
			{
				"x": 1.0153575573,
				"y": 1.5287074617,
				"z": 3.0411159833,
				"element": "N" 
			},
			{
				"x": 2.2678679108,
				"y": 1.0031998018,
				"z": 2.9255270569,
				"element": "N" 
			},
			{
				"x": 2.2975989864,
				"y": 0.3574714865,
				"z": 1.7692292529,
				"element": "C" 
			},
			{
				"x": 1.0458649557,
				"y": 0.4514681798,
				"z": 1.0997211193,
				"element": "C" 
			},
			{
				"x": 0.2429843946,
				"y": 1.2232745919,
				"z": 1.9636048868,
				"element": "C" 
			},
			{
				"x": -1.0385994652,
				"y": 1.5836475168,
				"z": 1.7564430023,
				"element": "N" 
			},
			{
				"x": -1.504262663,
				"y": 1.1197153728,
				"z": 0.6031717686,
				"element": "C" 
			},
			{
				"x": -0.8707578695,
				"y": 0.371408748,
				"z": -0.3250468796,
				"element": "N" 
			},
			{
				"x": 0.4043805757,
				"y": 0.0302297247,
				"z": -0.0946195322,
				"element": "C" 
			},
			{
				"x": 1.0471948034,
				"y": -0.7131355958,
				"z": -1.0396986675,
				"element": "N" 
			},
			{
				"x": 0.3877636526,
				"y": -1.2724382021,
				"z": -2.1509964382,
				"element": "N" 
			},
			{
				"x": -0.3978661033,
				"y": 2.6174666309,
				"z": 4.0713420283,
				"element": "H" 
			},
			{
				"x": 0.7337464836,
				"y": 1.7043582835,
				"z": 5.1101793699,
				"element": "H" 
			},
			{
				"x": 1.2808724405,
				"y": 3.1889193563,
				"z": 4.2918418935,
				"element": "H" 
			},
			{
				"x": 3.2087865155,
				"y": -0.1404616964,
				"z": 1.4644315896,
				"element": "H" 
			},
			{
				"x": -2.5369722193,
				"y": 1.3697077749,
				"z": 0.3667244227,
				"element": "H" 
			},
			{
				"x": 1.9190475413,
				"y": -1.1606293142,
				"z": -0.8024901732,
				"element": "H" 
			},
			{
				"x": -0.5284986002,
				"y": -1.5927725936,
				"z": -1.8352709564,
				"element": "H" 
			},
			{
				"x": 0.1928876736,
				"y": -0.5134421527,
				"z": -2.8032257074,
				"element": "H" 
			}
		],
		 "valence_orbital": [ 
			{
				"type": "occ",
				"energy": -0.28299,
				"method": "rhf"
			},
			{
				"type": "occ",
				"energy": -0.27457,
				"method": "rhf"
			},
			{
				"type": "occ",
				"energy": -0.25974,
				"method": "rhf"
			},
			{
				"type": "occ",
				"energy": -0.25587,
				"method": "rhf"
			},
			{
				"type": "occ",
				"energy": -0.22361,
				"method": "rhf"
			},
			{
				"type": "unocc",
				"energy": -0.03269,
				"method": "rhf"
			},
			{
				"type": "unocc",
				"energy": 0.00623,
				"method": "rhf"
			},
			{
				"type": "unocc",
				"energy": 0.04276,
				"method": "rhf"
			},
			{
				"type": "unocc",
				"energy": 0.07474,
				"method": "rhf"
			},
			{
				"type": "unocc",
				"energy": 0.09095,
				"method": "rhf"
			}
		],
		"cosmo_sigma_profile": { 
			"-0.025": 0.0,
			"-0.024": 0.0,
			"-0.023": 0.0,
			"-0.022": 0.0,
			"-0.021": 0.0,
			"-0.02": 0.0,
			"-0.019": 0.0,
			"-0.018": 0.0,
			"-0.017": 0.0,
			"-0.016": 0.0,
			"-0.015": 0.315096859674,
			"-0.014": 1.05284705952,
			"-0.013": 1.44218584655,
			"-0.012": 1.54303233339,
			"-0.011": 3.16039730846,
			"-0.01": 3.53180449024,
			"-0.009": 4.36114571562,
			"-0.008": 4.43047643995,
			"-0.007": 4.84457936911,
			"-0.006": 10.5602050128,
			"-0.005": 11.2456436166,
			"-0.004": 11.3965845597,
			"-0.003": 13.825335698,
			"-0.002": 10.6624551199,
			"-0.001": 11.318030764,
			"0.0": 15.563446139,
			"0.001": 15.7785600439,
			"0.002": 12.9534206999,
			"0.003": 8.23415418134,
			"0.004": 6.93274735517,
			"0.005": 4.95654285302,
			"0.006": 5.50747059401,
			"0.007": 4.73528968226,
			"0.008": 4.18270561534,
			"0.009": 4.11685081267,
			"0.01": 3.36712003822,
			"0.011": 3.40241701283,
			"0.012": 3.4950728736,
			"0.013": 3.12997458243,
			"0.014": 2.46038128395,
			"0.015": 1.18232425661,
			"0.016": 0.544509094302,
			"0.017": 0.112411707994,
			"0.018": 0.0,
			"0.019": 0.0,
			"0.02": 0.0,
			"0.021": 0.0,
			"0.022": 0.0,
			"0.023": 0.0,
			"0.024": 0.0,
			"0.025": 0.0
		}
	}
}
