{
	 "smiles": "CCC(C)(C)C", 
	 "Tm": 173.65, 
	 "num_atms": 20, 
	 "gaussian": { 
		 "optdone": 1, 
		 "sigma_profile": "yes", 
		 "theory": "DFT", 
		 "functional": "B3LYP", 
		 "basiset": "6-31G**", 
		 "properties": { 
			 "R2extent": 915.62, 
			 "electric_dipole_moment_norm": 0.036514928454, 
			 "electric_quadrupole_moment_norm": 0.279026360762, 
			 "total_energy": -237.098925684, 
			 "HOMO_LUMO_gap": 0.37971, 
			 "cosmo_polarized_energy": -0.62, 
			 "cosmo_cavitation_energy": 20.43, 
			 "cosmo_dispersion_energy": -14.74, 
			 "cosmo_repulsion_energy": 1.24, 
			 "cosmo_total_nonelectrostatic_energy": 6.93, 
			 "SMD_solvation_energy": 3.77 
		},
		"coords": [
			{
				"x": 2.3202909638,
				"y": -0.8140730253,
				"z": 0.8132829782,
				"element": "C" 
			},
			{
				"x": 0.9513282676,
				"y": -0.4891824729,
				"z": 0.2024610289,
				"element": "C" 
			},
			{
				"x": 0.3220950941,
				"y": 0.8790461276,
				"z": 0.5777480113,
				"element": "C" 
			},
			{
				"x": 1.2252222342,
				"y": 2.0411981703,
				"z": 0.1203112975,
				"element": "C" 
			},
			{
				"x": 0.0885143968,
				"y": 0.9762067849,
				"z": 2.0981251547,
				"element": "C" 
			},
			{
				"x": -1.0364924459,
				"y": 0.9914285215,
				"z": -0.142520296,
				"element": "C" 
			},
			{
				"x": 2.6616322735,
				"y": -1.7993347935,
				"z": 0.4785796108,
				"element": "H" 
			},
			{
				"x": 2.286907979,
				"y": -0.8363906996,
				"z": 1.9072466706,
				"element": "H" 
			},
			{
				"x": 3.0844723877,
				"y": -0.0880463759,
				"z": 0.5178323674,
				"element": "H" 
			},
			{
				"x": 0.2421698337,
				"y": -1.2792833057,
				"z": 0.4857143423,
				"element": "H" 
			},
			{
				"x": 1.03311445,
				"y": -0.5374158317,
				"z": -0.8922443109,
				"element": "H" 
			},
			{
				"x": 2.1896744952,
				"y": 2.0375414856,
				"z": 0.6382961452,
				"element": "H" 
			},
			{
				"x": 1.4224874381,
				"y": 1.9887645719,
				"z": -0.9568955498,
				"element": "H" 
			},
			{
				"x": 0.7479949038,
				"y": 3.0065443863,
				"z": 0.3240523051,
				"element": "H" 
			},
			{
				"x": 1.0285111264,
				"y": 0.9501595398,
				"z": 2.6586739632,
				"element": "H" 
			},
			{
				"x": -0.4187265512,
				"y": 1.9136072305,
				"z": 2.3533492495,
				"element": "H" 
			},
			{
				"x": -0.5385708139,
				"y": 0.1510167604,
				"z": 2.4557029474,
				"element": "H" 
			},
			{
				"x": -0.9143026437,
				"y": 0.9332286663,
				"z": -1.2303269439,
				"element": "H" 
			},
			{
				"x": -1.5278989124,
				"y": 1.9436457345,
				"z": 0.0875460989,
				"element": "H" 
			},
			{
				"x": -1.7137244767,
				"y": 0.1845385251,
				"z": 0.1606649295,
				"element": "H" 
			}
		],
		 "valence_orbital": [ 
			{
				"type": "occ",
				"energy": -0.352,
				"method": "rhf"
			},
			{
				"type": "occ",
				"energy": -0.33831,
				"method": "rhf"
			},
			{
				"type": "occ",
				"energy": -0.31079,
				"method": "rhf"
			},
			{
				"type": "occ",
				"energy": -0.30923,
				"method": "rhf"
			},
			{
				"type": "occ",
				"energy": -0.30308,
				"method": "rhf"
			},
			{
				"type": "unocc",
				"energy": 0.07663,
				"method": "rhf"
			},
			{
				"type": "unocc",
				"energy": 0.12431,
				"method": "rhf"
			},
			{
				"type": "unocc",
				"energy": 0.13496,
				"method": "rhf"
			},
			{
				"type": "unocc",
				"energy": 0.1373,
				"method": "rhf"
			},
			{
				"type": "unocc",
				"energy": 0.14284,
				"method": "rhf"
			}
		],
		"cosmo_sigma_profile": { 
			"-0.025": 0.0,
			"-0.024": 0.0,
			"-0.023": 0.0,
			"-0.022": 0.0,
			"-0.021": 0.0,
			"-0.02": 0.0,
			"-0.019": 0.0,
			"-0.018": 0.0,
			"-0.017": 0.0,
			"-0.016": 0.0,
			"-0.015": 0.0,
			"-0.014": 0.0,
			"-0.013": 0.0,
			"-0.012": 0.0,
			"-0.011": 0.0,
			"-0.01": 0.0,
			"-0.009": 0.0,
			"-0.008": 0.0,
			"-0.007": 0.0,
			"-0.006": 0.0,
			"-0.005": 0.0,
			"-0.004": 0.0,
			"-0.003": 2.81612064594,
			"-0.002": 24.9621844821,
			"-0.001": 34.8046732743,
			"0.0": 31.5759633401,
			"0.001": 31.8979349476,
			"0.002": 27.6317264904,
			"0.003": 2.40361706155,
			"0.004": 0.0,
			"0.005": 0.0,
			"0.006": 0.0,
			"0.007": 0.0,
			"0.008": 0.0,
			"0.009": 0.0,
			"0.01": 0.0,
			"0.011": 0.0,
			"0.012": 0.0,
			"0.013": 0.0,
			"0.014": 0.0,
			"0.015": 0.0,
			"0.016": 0.0,
			"0.017": 0.0,
			"0.018": 0.0,
			"0.019": 0.0,
			"0.02": 0.0,
			"0.021": 0.0,
			"0.022": 0.0,
			"0.023": 0.0,
			"0.024": 0.0,
			"0.025": 0.0
		}
	}
}
