{
	 "smiles": "BrC1=CN=CN=C1", 
	 "Tm": 345.15, 
	 "num_atms": 10, 
	 "gaussian": { 
		 "optdone": 1, 
		 "sigma_profile": "yes", 
		 "theory": "DFT", 
		 "functional": "B3LYP", 
		 "basiset": "6-31G**", 
		 "properties": { 
			 "R2extent": 1330.0474, 
			 "electric_dipole_moment_norm": 0.81285887459, 
			 "electric_quadrupole_moment_norm": 0.826605831095, 
			 "total_energy": -2835.12279923, 
			 "HOMO_LUMO_gap": 0.20835, 
			 "cosmo_polarized_energy": -5.57, 
			 "cosmo_cavitation_energy": 16.87, 
			 "cosmo_dispersion_energy": -13.21, 
			 "cosmo_repulsion_energy": 1.1, 
			 "cosmo_total_nonelectrostatic_energy": 4.77, 
			 "SMD_solvation_energy": -0.83 
		},
		"coords": [
			{
				"x": -0.7519077362,
				"y": -1.2629854508,
				"z": -1.4611273434,
				"element": "Br" 
			},
			{
				"x": -0.5487207793,
				"y": 0.3174027984,
				"z": -0.4266586549,
				"element": "C" 
			},
			{
				"x": -1.2872445037,
				"y": 0.5165735747,
				"z": 0.7387596865,
				"element": "C" 
			},
			{
				"x": -1.1468661731,
				"y": 1.6273545085,
				"z": 1.4687341874,
				"element": "N" 
			},
			{
				"x": -0.2650248346,
				"y": 2.5260575792,
				"z": 1.0185769074,
				"element": "C" 
			},
			{
				"x": 0.4893107335,
				"y": 2.4315454597,
				"z": -0.0814104495,
				"element": "N" 
			},
			{
				"x": 0.3440088376,
				"y": 1.3183370897,
				"z": -0.8067088745,
				"element": "C" 
			},
			{
				"x": -1.9992215583,
				"y": -0.2280265144,
				"z": 1.0863650068,
				"element": "H" 
			},
			{
				"x": -0.1487855541,
				"y": 3.4309342669,
				"z": 1.610710313,
				"element": "H" 
			},
			{
				"x": 0.9477515682,
				"y": 1.2204066881,
				"z": -1.7056407788,
				"element": "H" 
			}
		],
		 "valence_orbital": [ 
			{
				"type": "occ",
				"energy": -0.33419,
				"method": "rhf"
			},
			{
				"type": "occ",
				"energy": -0.31822,
				"method": "rhf"
			},
			{
				"type": "occ",
				"energy": -0.31254,
				"method": "rhf"
			},
			{
				"type": "occ",
				"energy": -0.27308,
				"method": "rhf"
			},
			{
				"type": "occ",
				"energy": -0.26615,
				"method": "rhf"
			},
			{
				"type": "unocc",
				"energy": -0.0578,
				"method": "rhf"
			},
			{
				"type": "unocc",
				"energy": -0.04508,
				"method": "rhf"
			},
			{
				"type": "unocc",
				"energy": -0.00906,
				"method": "rhf"
			},
			{
				"type": "unocc",
				"energy": 0.10953,
				"method": "rhf"
			},
			{
				"type": "unocc",
				"energy": 0.12254,
				"method": "rhf"
			}
		],
		"cosmo_sigma_profile": { 
			"-0.025": 0.0,
			"-0.024": 0.0,
			"-0.023": 0.0,
			"-0.022": 0.0,
			"-0.021": 0.0,
			"-0.02": 0.0,
			"-0.019": 0.0,
			"-0.018": 0.0,
			"-0.017": 0.0,
			"-0.016": 0.0,
			"-0.015": 0.0,
			"-0.014": 0.0,
			"-0.013": 0.0,
			"-0.012": 0.0,
			"-0.011": 0.0,
			"-0.01": 0.0,
			"-0.009": 2.14749395057,
			"-0.008": 5.5108292556,
			"-0.007": 5.50996420713,
			"-0.006": 5.0523109158,
			"-0.005": 6.76979797574,
			"-0.004": 7.43229546083,
			"-0.003": 11.4681513717,
			"-0.002": 16.5383144414,
			"-0.001": 12.8256044869,
			"0.0": 9.4908931701,
			"0.001": 8.1790164582,
			"0.002": 10.405596257,
			"0.003": 12.2974341354,
			"0.004": 6.53853893479,
			"0.005": 2.90516144088,
			"0.006": 2.49106051798,
			"0.007": 1.70824080338,
			"0.008": 1.8161834871,
			"0.009": 2.01507304375,
			"0.01": 2.09190745416,
			"0.011": 1.17921282721,
			"0.012": 2.16758393528,
			"0.013": 1.80346011601,
			"0.014": 1.31399131652,
			"0.015": 0.396327220553,
			"0.016": 0.0,
			"0.017": 0.0,
			"0.018": 0.0,
			"0.019": 0.0,
			"0.02": 0.0,
			"0.021": 0.0,
			"0.022": 0.0,
			"0.023": 0.0,
			"0.024": 0.0,
			"0.025": 0.0
		}
	}
}
