{
	 "smiles": "CC1=CC=CC(=C1N)[N+]([O-])=O", 
	 "Tm": 368.65, 
	 "num_atms": 19, 
	 "gaussian": { 
		 "optdone": 1, 
		 "sigma_profile": "yes", 
		 "theory": "DFT", 
		 "functional": "B3LYP", 
		 "basiset": "6-31G**", 
		 "properties": { 
			 "R2extent": 2114.6182, 
			 "electric_dipole_moment_norm": 5.03481085444, 
			 "electric_quadrupole_moment_norm": 8.18237301093, 
			 "total_energy": -531.432981192, 
			 "HOMO_LUMO_gap": 0.14108, 
			 "cosmo_polarized_energy": -10.64, 
			 "cosmo_cavitation_energy": 22.64, 
			 "cosmo_dispersion_energy": -17.25, 
			 "cosmo_repulsion_energy": 1.37, 
			 "cosmo_total_nonelectrostatic_energy": 6.76, 
			 "SMD_solvation_energy": 5.82 
		},
		"coords": [
			{
				"x": -1.6999518256,
				"y": -3.2124514247,
				"z": 1.8573587186,
				"element": "C" 
			},
			{
				"x": -0.5189740563,
				"y": -2.3778721912,
				"z": 1.4280253943,
				"element": "C" 
			},
			{
				"x": 0.6857532965,
				"y": -2.4377838987,
				"z": 2.1098012728,
				"element": "C" 
			},
			{
				"x": 1.7997464391,
				"y": -1.667174871,
				"z": 1.7357527801,
				"element": "C" 
			},
			{
				"x": 1.6944383552,
				"y": -0.8217428696,
				"z": 0.6511706857,
				"element": "C" 
			},
			{
				"x": 0.489126674,
				"y": -0.7359991879,
				"z": -0.0658681681,
				"element": "C" 
			},
			{
				"x": -0.6509512235,
				"y": -1.507353109,
				"z": 0.3012437499,
				"element": "C" 
			},
			{
				"x": -1.8387212781,
				"y": -1.4363852764,
				"z": -0.3532888767,
				"element": "N" 
			},
			{
				"x": 0.4700668636,
				"y": 0.167989826,
				"z": -1.1988960338,
				"element": "N" 
			},
			{
				"x": -0.5718344193,
				"y": 0.2718288431,
				"z": -1.8769553093,
				"element": "O" 
			},
			{
				"x": 1.490219621,
				"y": 0.8075211364,
				"z": -1.4594288529,
				"element": "O" 
			},
			{
				"x": -1.4512057788,
				"y": -3.8139703352,
				"z": 2.7343809534,
				"element": "H" 
			},
			{
				"x": -2.5659034315,
				"y": -2.5900294282,
				"z": 2.1189981325,
				"element": "H" 
			},
			{
				"x": -2.0227450321,
				"y": -3.9055626517,
				"z": 1.0682136144,
				"element": "H" 
			},
			{
				"x": 0.7625973875,
				"y": -3.1061239802,
				"z": 2.9638522729,
				"element": "H" 
			},
			{
				"x": 2.7282966134,
				"y": -1.7363288951,
				"z": 2.2915445737,
				"element": "H" 
			},
			{
				"x": 2.5220066087,
				"y": -0.2080730524,
				"z": 0.3203877098,
				"element": "H" 
			},
			{
				"x": -1.8838766182,
				"y": -0.8610630734,
				"z": -1.182671697,
				"element": "H" 
			},
			{
				"x": -2.5784881958,
				"y": -2.0757255608,
				"z": -0.1226209204,
				"element": "H" 
			}
		],
		 "valence_orbital": [ 
			{
				"type": "occ",
				"energy": -0.29971,
				"method": "rhf"
			},
			{
				"type": "occ",
				"energy": -0.29872,
				"method": "rhf"
			},
			{
				"type": "occ",
				"energy": -0.28046,
				"method": "rhf"
			},
			{
				"type": "occ",
				"energy": -0.26604,
				"method": "rhf"
			},
			{
				"type": "occ",
				"energy": -0.2187,
				"method": "rhf"
			},
			{
				"type": "unocc",
				"energy": -0.07762,
				"method": "rhf"
			},
			{
				"type": "unocc",
				"energy": -0.00206,
				"method": "rhf"
			},
			{
				"type": "unocc",
				"energy": 0.01461,
				"method": "rhf"
			},
			{
				"type": "unocc",
				"energy": 0.06993,
				"method": "rhf"
			},
			{
				"type": "unocc",
				"energy": 0.0921,
				"method": "rhf"
			}
		],
		"cosmo_sigma_profile": { 
			"-0.025": 0.0,
			"-0.024": 0.0,
			"-0.023": 0.0,
			"-0.022": 0.0,
			"-0.021": 0.0,
			"-0.02": 0.0,
			"-0.019": 0.0,
			"-0.018": 0.0,
			"-0.017": 0.0,
			"-0.016": 0.0,
			"-0.015": 0.0,
			"-0.014": 0.239494314684,
			"-0.013": 0.785104381568,
			"-0.012": 1.46153759615,
			"-0.011": 0.964153338338,
			"-0.01": 2.17914912287,
			"-0.009": 2.27751964674,
			"-0.008": 2.3239696815,
			"-0.007": 3.42632695004,
			"-0.006": 8.29807219452,
			"-0.005": 12.4154809709,
			"-0.004": 12.9038309436,
			"-0.003": 12.9642899074,
			"-0.002": 11.8725897264,
			"-0.001": 14.2656629277,
			"0.0": 14.897250206,
			"0.001": 13.7379400385,
			"0.002": 12.756248073,
			"0.003": 11.8219894521,
			"0.004": 9.60438255258,
			"0.005": 4.69187585906,
			"0.006": 3.24193268524,
			"0.007": 3.91298554591,
			"0.008": 5.43428675678,
			"0.009": 5.62041112345,
			"0.01": 4.36525247817,
			"0.011": 3.34328590752,
			"0.012": 0.500774481333,
			"0.013": 0.0,
			"0.014": 0.0,
			"0.015": 0.0,
			"0.016": 0.0,
			"0.017": 0.0,
			"0.018": 0.0,
			"0.019": 0.0,
			"0.02": 0.0,
			"0.021": 0.0,
			"0.022": 0.0,
			"0.023": 0.0,
			"0.024": 0.0,
			"0.025": 0.0
		}
	}
}
