{
	 "smiles": "CC(C)(C)OC(=O)N1CCSCC1C(O)=O", 
	 "Tm": 419.15, 
	 "num_atms": 33, 
	 "gaussian": { 
		 "optdone": 1, 
		 "sigma_profile": "yes", 
		 "theory": "DFT", 
		 "functional": "B3LYP", 
		 "basiset": "6-31G**", 
		 "properties": { 
			 "R2extent": 5101.3781, 
			 "electric_dipole_moment_norm": 6.53011630371, 
			 "electric_quadrupole_moment_norm": 18.1648088217, 
			 "total_energy": -1145.19022927, 
			 "HOMO_LUMO_gap": 0.23607, 
			 "cosmo_polarized_energy": -17.25, 
			 "cosmo_cavitation_energy": 35.57, 
			 "cosmo_dispersion_energy": -24.81, 
			 "cosmo_repulsion_energy": 1.89, 
			 "cosmo_total_nonelectrostatic_energy": 12.66, 
			 "SMD_solvation_energy": 7.69 
		},
		"coords": [
			{
				"x": -2.1411108241,
				"y": 1.0255851818,
				"z": 1.5095757846,
				"element": "C" 
			},
			{
				"x": -2.1166244076,
				"y": 0.7473221265,
				"z": 0.0040083608,
				"element": "C" 
			},
			{
				"x": -2.3626496229,
				"y": 2.0303845104,
				"z": -0.7927095249,
				"element": "C" 
			},
			{
				"x": -3.1037125485,
				"y": -0.3489606484,
				"z": -0.4062853862,
				"element": "C" 
			},
			{
				"x": -0.7464811741,
				"y": 0.3736477722,
				"z": -0.4157844093,
				"element": "O" 
			},
			{
				"x": -0.1511502405,
				"y": -0.7331619786,
				"z": 0.0636111066,
				"element": "C" 
			},
			{
				"x": -0.6280999258,
				"y": -1.5050303393,
				"z": 0.8800800212,
				"element": "O" 
			},
			{
				"x": 1.0994560878,
				"y": -0.9290071842,
				"z": -0.5243284002,
				"element": "N" 
			},
			{
				"x": 1.7754377733,
				"y": 0.1298981008,
				"z": -1.298118735,
				"element": "C" 
			},
			{
				"x": 2.7557661865,
				"y": 0.9422458309,
				"z": -0.4511615524,
				"element": "C" 
			},
			{
				"x": 4.1023011449,
				"y": -0.1118984184,
				"z": 0.2083445125,
				"element": "S" 
			},
			{
				"x": 3.0400640705,
				"y": -1.3707653444,
				"z": 1.0142736041,
				"element": "C" 
			},
			{
				"x": 1.9577900829,
				"y": -1.9507734964,
				"z": 0.0962181479,
				"element": "C" 
			},
			{
				"x": 2.5404806141,
				"y": -2.921977433,
				"z": -0.9482865426,
				"element": "C" 
			},
			{
				"x": 1.8211966911,
				"y": -3.0337443216,
				"z": -2.0854007625,
				"element": "O" 
			},
			{
				"x": 3.5239708398,
				"y": -3.5885079992,
				"z": -0.7463688525,
				"element": "O" 
			},
			{
				"x": -3.1237637089,
				"y": 1.4175628419,
				"z": 1.7904687806,
				"element": "H" 
			},
			{
				"x": -1.3901979163,
				"y": 1.7781158761,
				"z": 1.7703684087,
				"element": "H" 
			},
			{
				"x": -1.9485887535,
				"y": 0.1178348525,
				"z": 2.081417242,
				"element": "H" 
			},
			{
				"x": -2.2996322411,
				"y": 1.8381496732,
				"z": -1.8677197254,
				"element": "H" 
			},
			{
				"x": -3.3593611982,
				"y": 2.4219760961,
				"z": -0.5701793106,
				"element": "H" 
			},
			{
				"x": -1.625508544,
				"y": 2.7957587779,
				"z": -0.5331051609,
				"element": "H" 
			},
			{
				"x": -3.0245617398,
				"y": -0.5517114351,
				"z": -1.4790433723,
				"element": "H" 
			},
			{
				"x": -2.9203920482,
				"y": -1.2712580552,
				"z": 0.1451918303,
				"element": "H" 
			},
			{
				"x": -4.1251367314,
				"y": -0.0134045124,
				"z": -0.2008319994,
				"element": "H" 
			},
			{
				"x": 1.0076975802,
				"y": 0.7748851077,
				"z": -1.7231954736,
				"element": "H" 
			},
			{
				"x": 2.3184703547,
				"y": -0.3480934823,
				"z": -2.1205552533,
				"element": "H" 
			},
			{
				"x": 3.240039596,
				"y": 1.7049840764,
				"z": -1.0673556226,
				"element": "H" 
			},
			{
				"x": 2.2300144872,
				"y": 1.4470665634,
				"z": 0.3669111311,
				"element": "H" 
			},
			{
				"x": 2.5687551417,
				"y": -0.9383167521,
				"z": 1.9019922297,
				"element": "H" 
			},
			{
				"x": 3.707352937,
				"y": -2.1772552804,
				"z": 1.3220034462,
				"element": "H" 
			},
			{
				"x": 1.2853187768,
				"y": -2.5544889186,
				"z": 0.7162710604,
				"element": "H" 
			},
			{
				"x": 1.0724592603,
				"y": -2.4149617879,
				"z": -2.0194055831,
				"element": "H" 
			}
		],
		 "valence_orbital": [ 
			{
				"type": "occ",
				"energy": -0.31096,
				"method": "rhf"
			},
			{
				"type": "occ",
				"energy": -0.29012,
				"method": "rhf"
			},
			{
				"type": "occ",
				"energy": -0.28204,
				"method": "rhf"
			},
			{
				"type": "occ",
				"energy": -0.26252,
				"method": "rhf"
			},
			{
				"type": "occ",
				"energy": -0.22923,
				"method": "rhf"
			},
			{
				"type": "unocc",
				"energy": 0.00684,
				"method": "rhf"
			},
			{
				"type": "unocc",
				"energy": 0.02403,
				"method": "rhf"
			},
			{
				"type": "unocc",
				"energy": 0.0299,
				"method": "rhf"
			},
			{
				"type": "unocc",
				"energy": 0.06253,
				"method": "rhf"
			},
			{
				"type": "unocc",
				"energy": 0.06934,
				"method": "rhf"
			}
		],
		"cosmo_sigma_profile": { 
			"-0.025": 0.0,
			"-0.024": 0.0,
			"-0.023": 0.0,
			"-0.022": 0.0,
			"-0.021": 0.0,
			"-0.02": 0.0,
			"-0.019": 0.0,
			"-0.018": 0.0,
			"-0.017": 0.0,
			"-0.016": 0.219651781539,
			"-0.015": 0.521123168239,
			"-0.014": 0.59056664982,
			"-0.013": 0.322709716086,
			"-0.012": 1.52558385973,
			"-0.011": 1.7359054522,
			"-0.01": 1.13996151049,
			"-0.009": 1.4465715736,
			"-0.008": 3.03692650733,
			"-0.007": 4.73936544352,
			"-0.006": 13.8770024023,
			"-0.005": 18.7962911205,
			"-0.004": 26.9718919194,
			"-0.003": 27.2996183755,
			"-0.002": 24.5977502061,
			"-0.001": 23.5161681451,
			"0.0": 29.0506661443,
			"0.001": 18.2256629513,
			"0.002": 8.03319214152,
			"0.003": 8.73896371421,
			"0.004": 8.24461355081,
			"0.005": 7.40491431138,
			"0.006": 5.86082945508,
			"0.007": 7.77188102132,
			"0.008": 7.28355823283,
			"0.009": 7.26687168636,
			"0.01": 8.17173284817,
			"0.011": 6.65098513763,
			"0.012": 5.77725627355,
			"0.013": 1.09558702305,
			"0.014": 0.0,
			"0.015": 0.0,
			"0.016": 0.0,
			"0.017": 0.0,
			"0.018": 0.0,
			"0.019": 0.0,
			"0.02": 0.0,
			"0.021": 0.0,
			"0.022": 0.0,
			"0.023": 0.0,
			"0.024": 0.0,
			"0.025": 0.0
		}
	}
}
