{
	 "smiles": "NC(=NO)C1=CC(Br)=CS1", 
	 "Tm": 406.15, 
	 "num_atms": 15, 
	 "gaussian": { 
		 "optdone": 1, 
		 "sigma_profile": "yes", 
		 "theory": "DFT", 
		 "functional": "B3LYP", 
		 "basiset": "6-31G**", 
		 "properties": { 
			 "R2extent": 5658.1875, 
			 "electric_dipole_moment_norm": 1.89511587772, 
			 "electric_quadrupole_moment_norm": 7.08066663952, 
			 "total_energy": -3347.78885726, 
			 "HOMO_LUMO_gap": 0.16885, 
			 "cosmo_polarized_energy": -11.28, 
			 "cosmo_cavitation_energy": 23.48, 
			 "cosmo_dispersion_energy": -18.63, 
			 "cosmo_repulsion_energy": 1.49, 
			 "cosmo_total_nonelectrostatic_energy": 6.34, 
			 "SMD_solvation_energy": 2.95 
		},
		"coords": [
			{
				"x": 1.0238302996,
				"y": -0.6726826089,
				"z": -1.7832585381,
				"element": "N" 
			},
			{
				"x": 0.3910303843,
				"y": -0.0735405721,
				"z": -0.684021288,
				"element": "C" 
			},
			{
				"x": 0.8338586463,
				"y": -0.4093691896,
				"z": 0.4831246489,
				"element": "N" 
			},
			{
				"x": 0.0331806076,
				"y": 0.1170689977,
				"z": 1.5165207505,
				"element": "O" 
			},
			{
				"x": -0.7216970223,
				"y": 0.8216263733,
				"z": -1.0110756716,
				"element": "C" 
			},
			{
				"x": -1.2640705971,
				"y": 0.9733889006,
				"z": -2.2704361053,
				"element": "C" 
			},
			{
				"x": -2.2734994918,
				"y": 1.9695014062,
				"z": -2.310331708,
				"element": "C" 
			},
			{
				"x": -3.2169118168,
				"y": 2.4088551569,
				"z": -3.8990316108,
				"element": "Br" 
			},
			{
				"x": -2.5033490202,
				"y": 2.5693206699,
				"z": -1.1031241768,
				"element": "C" 
			},
			{
				"x": -1.4901986707,
				"y": 1.9056993854,
				"z": 0.1299704893,
				"element": "S" 
			},
			{
				"x": 1.3279805773,
				"y": -0.0044502784,
				"z": -2.4830649491,
				"element": "H" 
			},
			{
				"x": 1.7940837722,
				"y": -1.2579621354,
				"z": -1.4784592839,
				"element": "H" 
			},
			{
				"x": 0.5166120555,
				"y": -0.1488593964,
				"z": 2.3085960039,
				"element": "H" 
			},
			{
				"x": -0.9682878088,
				"y": 0.3800024972,
				"z": -3.1250745659,
				"element": "H" 
			},
			{
				"x": -3.2241619151,
				"y": 3.3397007936,
				"z": -0.8704339951,
				"element": "H" 
			}
		],
		 "valence_orbital": [ 
			{
				"type": "occ",
				"energy": -0.29267,
				"method": "rhf"
			},
			{
				"type": "occ",
				"energy": -0.27837,
				"method": "rhf"
			},
			{
				"type": "occ",
				"energy": -0.25929,
				"method": "rhf"
			},
			{
				"type": "occ",
				"energy": -0.24266,
				"method": "rhf"
			},
			{
				"type": "occ",
				"energy": -0.21789,
				"method": "rhf"
			},
			{
				"type": "unocc",
				"energy": -0.04904,
				"method": "rhf"
			},
			{
				"type": "unocc",
				"energy": 0.00254,
				"method": "rhf"
			},
			{
				"type": "unocc",
				"energy": 0.02682,
				"method": "rhf"
			},
			{
				"type": "unocc",
				"energy": 0.03701,
				"method": "rhf"
			},
			{
				"type": "unocc",
				"energy": 0.06435,
				"method": "rhf"
			}
		],
		"cosmo_sigma_profile": { 
			"-0.025": 0.0,
			"-0.024": 0.0,
			"-0.023": 0.0,
			"-0.022": 0.0,
			"-0.021": 0.0,
			"-0.02": 0.0,
			"-0.019": 0.0,
			"-0.018": 0.0769296693018,
			"-0.017": 0.990145535771,
			"-0.016": 1.05522548186,
			"-0.015": 0.631979714034,
			"-0.014": 0.830929285863,
			"-0.013": 1.79054840362,
			"-0.012": 2.86153981603,
			"-0.011": 3.06726575092,
			"-0.01": 4.0344711939,
			"-0.009": 6.10535565506,
			"-0.008": 4.99616089013,
			"-0.007": 5.25086434127,
			"-0.006": 5.23508118249,
			"-0.005": 5.6972001101,
			"-0.004": 5.71620552105,
			"-0.003": 7.14324705104,
			"-0.002": 7.69738968168,
			"-0.001": 7.91555369946,
			"0.0": 10.0976923975,
			"0.001": 13.9928200068,
			"0.002": 24.9248940464,
			"0.003": 21.9956027095,
			"0.004": 18.5940416495,
			"0.005": 8.9008783902,
			"0.006": 5.92025906656,
			"0.007": 4.16207908766,
			"0.008": 3.50036357197,
			"0.009": 2.70431922599,
			"0.01": 2.264408628,
			"0.011": 1.79246879562,
			"0.012": 1.54511508449,
			"0.013": 1.15487747243,
			"0.014": 0.19587965676,
			"0.015": 0.0,
			"0.016": 0.0,
			"0.017": 0.0,
			"0.018": 0.0,
			"0.019": 0.0,
			"0.02": 0.0,
			"0.021": 0.0,
			"0.022": 0.0,
			"0.023": 0.0,
			"0.024": 0.0,
			"0.025": 0.0
		}
	}
}
