{
	 "smiles": "CC1=C2CCC2=C(CCl)C(C)=C1CCl", 
	 "Tm": 365.15, 
	 "num_atms": 28, 
	 "gaussian": { 
		 "optdone": 1, 
		 "sigma_profile": "yes", 
		 "theory": "DFT", 
		 "functional": "B3LYP", 
		 "basiset": "6-31G**", 
		 "properties": { 
			 "R2extent": 4311.0635, 
			 "electric_dipole_moment_norm": 4.16383193825, 
			 "electric_quadrupole_moment_norm": 8.37768517193, 
			 "total_energy": -1386.08775856, 
			 "HOMO_LUMO_gap": 0.20208, 
			 "cosmo_polarized_energy": -8.8, 
			 "cosmo_cavitation_energy": 32.91, 
			 "cosmo_dispersion_energy": -23.41, 
			 "cosmo_repulsion_energy": 1.87, 
			 "cosmo_total_nonelectrostatic_energy": 11.37, 
			 "SMD_solvation_energy": 4.22 
		},
		"coords": [
			{
				"x": -0.8551536099,
				"y": 0.3891151869,
				"z": -2.1795275361,
				"element": "C" 
			},
			{
				"x": -0.5586512941,
				"y": 0.2819408949,
				"z": -0.7033703973,
				"element": "C" 
			},
			{
				"x": -0.119821254,
				"y": 1.3701095704,
				"z": 0.0357970842,
				"element": "C" 
			},
			{
				"x": 0.2311912177,
				"y": 2.8492676293,
				"z": -0.0554748384,
				"element": "C" 
			},
			{
				"x": 0.5500128123,
				"y": 2.7638558885,
				"z": 1.4920952384,
				"element": "C" 
			},
			{
				"x": 0.1635373234,
				"y": 1.2951071128,
				"z": 1.3933192915,
				"element": "C" 
			},
			{
				"x": 0.0447981012,
				"y": 0.1235438528,
				"z": 2.1307298362,
				"element": "C" 
			},
			{
				"x": 0.3359158748,
				"y": 0.1199597929,
				"z": 3.5994990586,
				"element": "C" 
			},
			{
				"x": 2.0391332322,
				"y": -0.4647159629,
				"z": 3.9985148553,
				"element": "Cl" 
			},
			{
				"x": -0.3795801934,
				"y": -1.0219540623,
				"z": 1.4097440023,
				"element": "C" 
			},
			{
				"x": -0.4887511205,
				"y": -2.359942477,
				"z": 2.1154010229,
				"element": "C" 
			},
			{
				"x": -0.6973793883,
				"y": -0.927574103,
				"z": 0.0297307197,
				"element": "C" 
			},
			{
				"x": -1.2137309886,
				"y": -2.1385261907,
				"z": -0.6904315758,
				"element": "C" 
			},
			{
				"x": 0.1316988919,
				"y": -3.156348296,
				"z": -1.4501046272,
				"element": "Cl" 
			},
			{
				"x": -1.9249632349,
				"y": 0.2698449564,
				"z": -2.3926678939,
				"element": "H" 
			},
			{
				"x": -0.5561995465,
				"y": 1.3700007002,
				"z": -2.5573817219,
				"element": "H" 
			},
			{
				"x": -0.3208672928,
				"y": -0.3729321575,
				"z": -2.756098843,
				"element": "H" 
			},
			{
				"x": 1.0939157306,
				"y": 3.0966863711,
				"z": -0.6828319272,
				"element": "H" 
			},
			{
				"x": -0.5923278705,
				"y": 3.5232041527,
				"z": -0.314419775,
				"element": "H" 
			},
			{
				"x": -0.09236062,
				"y": 3.3862692914,
				"z": 2.1245986705,
				"element": "H" 
			},
			{
				"x": 1.5940335012,
				"y": 2.9605040028,
				"z": 1.7561969286,
				"element": "H" 
			},
			{
				"x": 0.2833299147,
				"y": 1.1285265801,
				"z": 4.0082708835,
				"element": "H" 
			},
			{
				"x": -0.326724369,
				"y": -0.5300350835,
				"z": 4.1692880922,
				"element": "H" 
			},
			{
				"x": -0.1023971312,
				"y": -3.1697948902,
				"z": 1.4914684549,
				"element": "H" 
			},
			{
				"x": -1.5288609564,
				"y": -2.6051865605,
				"z": 2.3689756832,
				"element": "H" 
			},
			{
				"x": 0.0891648534,
				"y": -2.3758268378,
				"z": 3.0398854214,
				"element": "H" 
			},
			{
				"x": -1.7463264155,
				"y": -2.8266962693,
				"z": -0.0382474316,
				"element": "H" 
			},
			{
				"x": -1.8603361679,
				"y": -1.8760030923,
				"z": -1.525158676,
				"element": "H" 
			}
		],
		 "valence_orbital": [ 
			{
				"type": "occ",
				"energy": -0.29182,
				"method": "rhf"
			},
			{
				"type": "occ",
				"energy": -0.29057,
				"method": "rhf"
			},
			{
				"type": "occ",
				"energy": -0.28977,
				"method": "rhf"
			},
			{
				"type": "occ",
				"energy": -0.24324,
				"method": "rhf"
			},
			{
				"type": "occ",
				"energy": -0.23712,
				"method": "rhf"
			},
			{
				"type": "unocc",
				"energy": -0.03504,
				"method": "rhf"
			},
			{
				"type": "unocc",
				"energy": -0.02172,
				"method": "rhf"
			},
			{
				"type": "unocc",
				"energy": 0.03207,
				"method": "rhf"
			},
			{
				"type": "unocc",
				"energy": 0.05086,
				"method": "rhf"
			},
			{
				"type": "unocc",
				"energy": 0.08411,
				"method": "rhf"
			}
		],
		"cosmo_sigma_profile": { 
			"-0.025": 0.0,
			"-0.024": 0.0,
			"-0.023": 0.0,
			"-0.022": 0.0,
			"-0.021": 0.0,
			"-0.02": 0.0,
			"-0.019": 0.0,
			"-0.018": 0.0,
			"-0.017": 0.0,
			"-0.016": 0.0,
			"-0.015": 0.0,
			"-0.014": 0.0,
			"-0.013": 0.0,
			"-0.012": 0.0,
			"-0.011": 0.0,
			"-0.01": 0.0,
			"-0.009": 0.0,
			"-0.008": 0.240354876482,
			"-0.007": 6.35039220327,
			"-0.006": 10.1816029369,
			"-0.005": 13.6929926862,
			"-0.004": 23.6779127399,
			"-0.003": 24.608344871,
			"-0.002": 29.1465035542,
			"-0.001": 25.8818699391,
			"0.0": 24.1536838079,
			"0.001": 17.77556946,
			"0.002": 13.0829532752,
			"0.003": 12.5014893059,
			"0.004": 14.8450703875,
			"0.005": 17.5232127114,
			"0.006": 16.2679545637,
			"0.007": 13.9143957624,
			"0.008": 0.408855402917,
			"0.009": 0.0,
			"0.01": 0.0,
			"0.011": 0.0,
			"0.012": 0.0,
			"0.013": 0.0,
			"0.014": 0.0,
			"0.015": 0.0,
			"0.016": 0.0,
			"0.017": 0.0,
			"0.018": 0.0,
			"0.019": 0.0,
			"0.02": 0.0,
			"0.021": 0.0,
			"0.022": 0.0,
			"0.023": 0.0,
			"0.024": 0.0,
			"0.025": 0.0
		}
	}
}
