{
	 "smiles": "O=S(=O)(CC#N)C1=CC=CC=N1", 
	 "Tm": 351.15, 
	 "num_atms": 18, 
	 "gaussian": { 
		 "optdone": 1, 
		 "sigma_profile": "yes", 
		 "theory": "DFT", 
		 "functional": "B3LYP", 
		 "basiset": "6-31G**", 
		 "properties": { 
			 "R2extent": 2857.2184, 
			 "electric_dipole_moment_norm": 4.72291911216, 
			 "electric_quadrupole_moment_norm": 19.8830851301, 
			 "total_energy": -928.395487048, 
			 "HOMO_LUMO_gap": 0.21955, 
			 "cosmo_polarized_energy": -17.58, 
			 "cosmo_cavitation_energy": 25.37, 
			 "cosmo_dispersion_energy": -18.01, 
			 "cosmo_repulsion_energy": 1.4, 
			 "cosmo_total_nonelectrostatic_energy": 8.76, 
			 "SMD_solvation_energy": 4.22 
		},
		"coords": [
			{
				"x": -3.1039894378,
				"y": 0.6499156686,
				"z": 1.06496163,
				"element": "O" 
			},
			{
				"x": -2.4000550255,
				"y": -0.6350341046,
				"z": 1.0015641014,
				"element": "S" 
			},
			{
				"x": -3.0192074944,
				"y": -1.8120279941,
				"z": 0.3810890759,
				"element": "O" 
			},
			{
				"x": -1.9569886923,
				"y": -1.0284529262,
				"z": 2.7523025655,
				"element": "C" 
			},
			{
				"x": -1.2197816598,
				"y": -2.2718250225,
				"z": 2.8927061735,
				"element": "C" 
			},
			{
				"x": -0.614271599,
				"y": -3.2574084632,
				"z": 2.9865544881,
				"element": "N" 
			},
			{
				"x": -0.7673174511,
				"y": -0.4048278633,
				"z": 0.2372326775,
				"element": "C" 
			},
			{
				"x": -0.4956805894,
				"y": -1.0222753696,
				"z": -0.9796821768,
				"element": "C" 
			},
			{
				"x": 0.754770635,
				"y": -0.7657601567,
				"z": -1.5451137884,
				"element": "C" 
			},
			{
				"x": 1.6454115366,
				"y": 0.0647335108,
				"z": -0.8658847894,
				"element": "C" 
			},
			{
				"x": 1.2591359185,
				"y": 0.611706095,
				"z": 0.360926397,
				"element": "C" 
			},
			{
				"x": 0.0603048101,
				"y": 0.3860394836,
				"z": 0.9106683922,
				"element": "N" 
			},
			{
				"x": -1.3726854058,
				"y": -0.1775043407,
				"z": 3.1104904999,
				"element": "H" 
			},
			{
				"x": -2.9182789253,
				"y": -1.066294869,
				"z": 3.2730230494,
				"element": "H" 
			},
			{
				"x": -1.2279795091,
				"y": -1.6734041042,
				"z": -1.4422237049,
				"element": "H" 
			},
			{
				"x": 1.0291447115,
				"y": -1.2139718204,
				"z": -2.4950326145,
				"element": "H" 
			},
			{
				"x": 2.6278804883,
				"y": 0.2828960354,
				"z": -1.2712167296,
				"element": "H" 
			},
			{
				"x": 1.9335876896,
				"y": 1.2525962411,
				"z": 0.9233347533,
				"element": "H" 
			}
		],
		 "valence_orbital": [ 
			{
				"type": "occ",
				"energy": -0.32394,
				"method": "rhf"
			},
			{
				"type": "occ",
				"energy": -0.31896,
				"method": "rhf"
			},
			{
				"type": "occ",
				"energy": -0.31672,
				"method": "rhf"
			},
			{
				"type": "occ",
				"energy": -0.29656,
				"method": "rhf"
			},
			{
				"type": "occ",
				"energy": -0.28918,
				"method": "rhf"
			},
			{
				"type": "unocc",
				"energy": -0.06963,
				"method": "rhf"
			},
			{
				"type": "unocc",
				"energy": -0.0536,
				"method": "rhf"
			},
			{
				"type": "unocc",
				"energy": -0.01381,
				"method": "rhf"
			},
			{
				"type": "unocc",
				"energy": 0.0208,
				"method": "rhf"
			},
			{
				"type": "unocc",
				"energy": 0.05766,
				"method": "rhf"
			}
		],
		"cosmo_sigma_profile": { 
			"-0.025": 0.0,
			"-0.024": 0.0,
			"-0.023": 0.0,
			"-0.022": 0.0,
			"-0.021": 0.0,
			"-0.02": 0.0,
			"-0.019": 0.0,
			"-0.018": 0.0,
			"-0.017": 0.0,
			"-0.016": 0.0,
			"-0.015": 0.0,
			"-0.014": 0.0164919144909,
			"-0.013": 1.5330331246,
			"-0.012": 2.66732360975,
			"-0.011": 3.22842773061,
			"-0.01": 2.59221941628,
			"-0.009": 5.52129661368,
			"-0.008": 12.0715072465,
			"-0.007": 13.4830822489,
			"-0.006": 9.74479660542,
			"-0.005": 8.99786822401,
			"-0.004": 7.13366936457,
			"-0.003": 9.26729353714,
			"-0.002": 13.7159661966,
			"-0.001": 14.9889640967,
			"0.0": 16.8206432475,
			"0.001": 6.99705941218,
			"0.002": 6.15446706946,
			"0.003": 5.18943194761,
			"0.004": 6.69763370517,
			"0.005": 4.94530361371,
			"0.006": 7.20612187044,
			"0.007": 6.92155144878,
			"0.008": 7.88877663717,
			"0.009": 9.96813720888,
			"0.01": 14.0263051918,
			"0.011": 6.23843401442,
			"0.012": 1.26687524232,
			"0.013": 0.00573004240752,
			"0.014": 0.0,
			"0.015": 0.0,
			"0.016": 0.0,
			"0.017": 0.0,
			"0.018": 0.0,
			"0.019": 0.0,
			"0.02": 0.0,
			"0.021": 0.0,
			"0.022": 0.0,
			"0.023": 0.0,
			"0.024": 0.0,
			"0.025": 0.0
		}
	}
}
