{
	 "smiles": "ClC1=CC=C(C=C1)C1CC(=O)NC(=O)C1", 
	 "Tm": 426.15, 
	 "num_atms": 25, 
	 "gaussian": { 
		 "optdone": 1, 
		 "sigma_profile": "yes", 
		 "theory": "DFT", 
		 "functional": "B3LYP", 
		 "basiset": "6-31G**", 
		 "properties": { 
			 "R2extent": 4791.1028, 
			 "electric_dipole_moment_norm": 3.54796476448, 
			 "electric_quadrupole_moment_norm": 17.063790561, 
			 "total_energy": -1090.6251825, 
			 "HOMO_LUMO_gap": 0.21568, 
			 "cosmo_polarized_energy": -15.81, 
			 "cosmo_cavitation_energy": 30.37, 
			 "cosmo_dispersion_energy": -21.97, 
			 "cosmo_repulsion_energy": 1.73, 
			 "cosmo_total_nonelectrostatic_energy": 10.13, 
			 "SMD_solvation_energy": 5.79 
		},
		"coords": [
			{
				"x": -2.8525704638,
				"y": 1.0137745364,
				"z": -3.281201131,
				"element": "Cl" 
			},
			{
				"x": -2.2713740535,
				"y": 0.6179259558,
				"z": -1.6712562912,
				"element": "C" 
			},
			{
				"x": -3.1686315839,
				"y": 0.5930344776,
				"z": -0.6029784174,
				"element": "C" 
			},
			{
				"x": -2.6958388815,
				"y": 0.2802299398,
				"z": 0.6684278096,
				"element": "C" 
			},
			{
				"x": -1.3426596675,
				"y": -0.0123291484,
				"z": 0.9011808299,
				"element": "C" 
			},
			{
				"x": -0.46667937,
				"y": 0.0279203271,
				"z": -0.190538469,
				"element": "C" 
			},
			{
				"x": -0.9222969068,
				"y": 0.3396346596,
				"z": -1.4741635559,
				"element": "C" 
			},
			{
				"x": -0.905136323,
				"y": -0.3537233238,
				"z": 2.3244011778,
				"element": "C" 
			},
			{
				"x": 0.6140074432,
				"y": -0.3159019045,
				"z": 2.5595916888,
				"element": "C" 
			},
			{
				"x": 1.3674728155,
				"y": -1.4926533688,
				"z": 1.9608415772,
				"element": "C" 
			},
			{
				"x": 2.5269482272,
				"y": -1.4369383919,
				"z": 1.5961701193,
				"element": "O" 
			},
			{
				"x": 0.6480963923,
				"y": -2.6827901426,
				"z": 1.8668951604,
				"element": "N" 
			},
			{
				"x": -0.695980826,
				"y": -2.9105260645,
				"z": 2.1720392348,
				"element": "C" 
			},
			{
				"x": -1.1968796335,
				"y": -4.0008890898,
				"z": 1.9820945307,
				"element": "O" 
			},
			{
				"x": -1.4359852685,
				"y": -1.7330707758,
				"z": 2.7819034735,
				"element": "C" 
			},
			{
				"x": -4.2164378029,
				"y": 0.8197562717,
				"z": -0.7657790316,
				"element": "H" 
			},
			{
				"x": -3.3976141416,
				"y": 0.2708208932,
				"z": 1.4991571011,
				"element": "H" 
			},
			{
				"x": 0.5914015545,
				"y": -0.1754074425,
				"z": -0.0636153725,
				"element": "H" 
			},
			{
				"x": -0.2323767382,
				"y": 0.3669515672,
				"z": -2.3102184751,
				"element": "H" 
			},
			{
				"x": -1.3577896728,
				"y": 0.396519897,
				"z": 2.9837029125,
				"element": "H" 
			},
			{
				"x": 1.0766795448,
				"y": 0.5960684532,
				"z": 2.1768627965,
				"element": "H" 
			},
			{
				"x": 0.8065084336,
				"y": -0.3380580595,
				"z": 3.6404930939,
				"element": "H" 
			},
			{
				"x": 1.1484353291,
				"y": -3.4707965197,
				"z": 1.4672667655,
				"element": "H" 
			},
			{
				"x": -2.494601428,
				"y": -1.8674364704,
				"z": 2.5529109814,
				"element": "H" 
			},
			{
				"x": -1.3290969786,
				"y": -1.8209162765,
				"z": 3.8720114907,
				"element": "H" 
			}
		],
		 "valence_orbital": [ 
			{
				"type": "occ",
				"energy": -0.2923,
				"method": "rhf"
			},
			{
				"type": "occ",
				"energy": -0.28709,
				"method": "rhf"
			},
			{
				"type": "occ",
				"energy": -0.27162,
				"method": "rhf"
			},
			{
				"type": "occ",
				"energy": -0.26642,
				"method": "rhf"
			},
			{
				"type": "occ",
				"energy": -0.24973,
				"method": "rhf"
			},
			{
				"type": "unocc",
				"energy": -0.03405,
				"method": "rhf"
			},
			{
				"type": "unocc",
				"energy": -0.02614,
				"method": "rhf"
			},
			{
				"type": "unocc",
				"energy": -0.02175,
				"method": "rhf"
			},
			{
				"type": "unocc",
				"energy": 0.02146,
				"method": "rhf"
			},
			{
				"type": "unocc",
				"energy": 0.02729,
				"method": "rhf"
			}
		],
		"cosmo_sigma_profile": { 
			"-0.025": 0.0,
			"-0.024": 0.0,
			"-0.023": 0.0,
			"-0.022": 0.0,
			"-0.021": 0.0,
			"-0.02": 0.0,
			"-0.019": 0.0,
			"-0.018": 0.0,
			"-0.017": 0.0,
			"-0.016": 0.0,
			"-0.015": 0.896428884784,
			"-0.014": 0.820135994849,
			"-0.013": 0.761825406631,
			"-0.012": 0.97735223017,
			"-0.011": 0.630566006696,
			"-0.01": 0.59829417933,
			"-0.009": 1.99440571084,
			"-0.008": 5.62477532558,
			"-0.007": 11.981812983,
			"-0.006": 19.9406453425,
			"-0.005": 19.1015049767,
			"-0.004": 16.1191987862,
			"-0.003": 15.8300273625,
			"-0.002": 14.5506671276,
			"-0.001": 13.1710022653,
			"0.0": 11.7404526323,
			"0.001": 12.9616546593,
			"0.002": 17.1999576713,
			"0.003": 17.2394875648,
			"0.004": 17.571793525,
			"0.005": 9.87277051978,
			"0.006": 3.01381445365,
			"0.007": 2.09869198369,
			"0.008": 2.04986057337,
			"0.009": 2.87867916334,
			"0.01": 3.92369347132,
			"0.011": 6.07960697402,
			"0.012": 10.4744742648,
			"0.013": 3.42873241677,
			"0.014": 0.0977493499027,
			"0.015": 0.0,
			"0.016": 0.0,
			"0.017": 0.0,
			"0.018": 0.0,
			"0.019": 0.0,
			"0.02": 0.0,
			"0.021": 0.0,
			"0.022": 0.0,
			"0.023": 0.0,
			"0.024": 0.0,
			"0.025": 0.0
		}
	}
}
