{
	 "smiles": "COC1=CC(=CC(OC)=C1)N1C(C)=C(C)C(C#N)=C1N", 
	 "Tm": 440.15, 
	 "num_atms": 37, 
	 "gaussian": { 
		 "optdone": 1, 
		 "sigma_profile": "yes", 
		 "theory": "DFT", 
		 "functional": "B3LYP", 
		 "basiset": "6-31G**", 
		 "properties": { 
			 "R2extent": 6859.2436, 
			 "electric_dipole_moment_norm": 7.49708777993, 
			 "electric_quadrupole_moment_norm": 26.4048675342, 
			 "total_energy": -896.514107485, 
			 "HOMO_LUMO_gap": 0.16279, 
			 "cosmo_polarized_energy": -18.03, 
			 "cosmo_cavitation_energy": 41.37, 
			 "cosmo_dispersion_energy": -28.01, 
			 "cosmo_repulsion_energy": 2.19, 
			 "cosmo_total_nonelectrostatic_energy": 15.54, 
			 "SMD_solvation_energy": 9.99 
		},
		"coords": [
			{
				"x": 3.6321248104,
				"y": 1.5860166399,
				"z": 0.1575767537,
				"element": "C" 
			},
			{
				"x": 2.8711019249,
				"y": 2.166482596,
				"z": -0.8935370315,
				"element": "O" 
			},
			{
				"x": 1.5769593126,
				"y": 1.7721598554,
				"z": -1.0473202371,
				"element": "C" 
			},
			{
				"x": 0.9383939751,
				"y": 0.8361212043,
				"z": -0.2315129823,
				"element": "C" 
			},
			{
				"x": -0.4020027753,
				"y": 0.5137397896,
				"z": -0.5024204757,
				"element": "C" 
			},
			{
				"x": -1.0924297278,
				"y": 1.1009434302,
				"z": -1.5553464051,
				"element": "C" 
			},
			{
				"x": -0.4386730272,
				"y": 2.0566535589,
				"z": -2.3535656944,
				"element": "C" 
			},
			{
				"x": -1.1913353307,
				"y": 2.5893169677,
				"z": -3.3550053893,
				"element": "O" 
			},
			{
				"x": -0.590768917,
				"y": 3.549583432,
				"z": -4.2124581774,
				"element": "C" 
			},
			{
				"x": 0.8914845536,
				"y": 2.3907654647,
				"z": -2.1070662295,
				"element": "C" 
			},
			{
				"x": -1.0591152458,
				"y": -0.4479565233,
				"z": 0.3256803275,
				"element": "N" 
			},
			{
				"x": -2.1875795365,
				"y": -0.2123978231,
				"z": 1.1496540597,
				"element": "C" 
			},
			{
				"x": -2.7945938011,
				"y": 1.1484546,
				"z": 1.2633127142,
				"element": "C" 
			},
			{
				"x": -2.5013095778,
				"y": -1.3879673989,
				"z": 1.7798772696,
				"element": "C" 
			},
			{
				"x": -3.6049936512,
				"y": -1.6518982969,
				"z": 2.7583283381,
				"element": "C" 
			},
			{
				"x": -1.5526068743,
				"y": -2.3834984169,
				"z": 1.3283657196,
				"element": "C" 
			},
			{
				"x": -1.4892854893,
				"y": -3.7513581723,
				"z": 1.6719007619,
				"element": "C" 
			},
			{
				"x": -1.4142534749,
				"y": -4.8874758607,
				"z": 1.9312038069,
				"element": "N" 
			},
			{
				"x": -0.6806853783,
				"y": -1.7617768012,
				"z": 0.4407369259,
				"element": "C" 
			},
			{
				"x": 0.4333751339,
				"y": -2.2752235496,
				"z": -0.2040250874,
				"element": "N" 
			},
			{
				"x": 4.6257101083,
				"y": 2.0307581809,
				"z": 0.0884937191,
				"element": "H" 
			},
			{
				"x": 3.2011411153,
				"y": 1.8138813741,
				"z": 1.1403527024,
				"element": "H" 
			},
			{
				"x": 3.7126807856,
				"y": 0.4979551859,
				"z": 0.0438322566,
				"element": "H" 
			},
			{
				"x": 1.4387582849,
				"y": 0.355863987,
				"z": 0.5978703361,
				"element": "H" 
			},
			{
				"x": -2.1174384679,
				"y": 0.8315074626,
				"z": -1.7784463707,
				"element": "H" 
			},
			{
				"x": -1.3613268901,
				"y": 3.8341310459,
				"z": -4.9301484926,
				"element": "H" 
			},
			{
				"x": -0.266560549,
				"y": 4.4388350227,
				"z": -3.6575303865,
				"element": "H" 
			},
			{
				"x": 0.267870601,
				"y": 3.1287094808,
				"z": -4.7505703539,
				"element": "H" 
			},
			{
				"x": 1.4300424849,
				"y": 3.1147475877,
				"z": -2.7044133144,
				"element": "H" 
			},
			{
				"x": -3.3107187217,
				"y": 1.4679439129,
				"z": 0.3501267384,
				"element": "H" 
			},
			{
				"x": -3.527356109,
				"y": 1.1549678933,
				"z": 2.0730700021,
				"element": "H" 
			},
			{
				"x": -2.0421005593,
				"y": 1.9128607672,
				"z": 1.4904477812,
				"element": "H" 
			},
			{
				"x": -4.3074300583,
				"y": -2.4012727835,
				"z": 2.3744535281,
				"element": "H" 
			},
			{
				"x": -4.1758841043,
				"y": -0.7465710587,
				"z": 2.9794045779,
				"element": "H" 
			},
			{
				"x": -3.2130537759,
				"y": -2.0408000677,
				"z": 3.7052573434,
				"element": "H" 
			},
			{
				"x": 0.5929638361,
				"y": -1.9055383379,
				"z": -1.1336147445,
				"element": "H" 
			},
			{
				"x": 0.4525951164,
				"y": -3.2877643488,
				"z": -0.1905642901,
				"element": "H" 
			}
		],
		 "valence_orbital": [ 
			{
				"type": "occ",
				"energy": -0.30081,
				"method": "rhf"
			},
			{
				"type": "occ",
				"energy": -0.25073,
				"method": "rhf"
			},
			{
				"type": "occ",
				"energy": -0.22903,
				"method": "rhf"
			},
			{
				"type": "occ",
				"energy": -0.22523,
				"method": "rhf"
			},
			{
				"type": "occ",
				"energy": -0.18336,
				"method": "rhf"
			},
			{
				"type": "unocc",
				"energy": -0.02057,
				"method": "rhf"
			},
			{
				"type": "unocc",
				"energy": 0.00205,
				"method": "rhf"
			},
			{
				"type": "unocc",
				"energy": 0.02317,
				"method": "rhf"
			},
			{
				"type": "unocc",
				"energy": 0.04896,
				"method": "rhf"
			},
			{
				"type": "unocc",
				"energy": 0.05227,
				"method": "rhf"
			}
		],
		"cosmo_sigma_profile": { 
			"-0.025": 0.0,
			"-0.024": 0.0,
			"-0.023": 0.0,
			"-0.022": 0.0,
			"-0.021": 0.0,
			"-0.02": 0.0,
			"-0.019": 0.0,
			"-0.018": 0.0,
			"-0.017": 0.0,
			"-0.016": 0.0,
			"-0.015": 0.0,
			"-0.014": 0.110962303856,
			"-0.013": 1.5801421616,
			"-0.012": 2.15280565731,
			"-0.011": 2.38329706888,
			"-0.01": 1.93193911921,
			"-0.009": 2.50434546772,
			"-0.008": 2.49062105142,
			"-0.007": 3.80923512916,
			"-0.006": 16.4870320772,
			"-0.005": 26.9931264392,
			"-0.004": 28.9022571106,
			"-0.003": 30.9168440408,
			"-0.002": 23.6832408637,
			"-0.001": 24.4431257617,
			"0.0": 26.0099121378,
			"0.001": 19.4097059152,
			"0.002": 18.7213142429,
			"0.003": 23.446349111,
			"0.004": 15.8754675907,
			"0.005": 10.8535158913,
			"0.006": 8.2224576835,
			"0.007": 5.42636226351,
			"0.008": 5.58038956646,
			"0.009": 6.42514431271,
			"0.01": 5.8186987319,
			"0.011": 4.33442062671,
			"0.012": 3.66604988103,
			"0.013": 3.03948028876,
			"0.014": 2.56342144737,
			"0.015": 0.654264584704,
			"0.016": 0.0,
			"0.017": 0.0,
			"0.018": 0.0,
			"0.019": 0.0,
			"0.02": 0.0,
			"0.021": 0.0,
			"0.022": 0.0,
			"0.023": 0.0,
			"0.024": 0.0,
			"0.025": 0.0
		}
	}
}
