{
	 "smiles": "NC1=C(NC(=O)NC1=O)C(O)=O", 
	 "Tm": 574.15, 
	 "num_atms": 17, 
	 "gaussian": { 
		 "optdone": 1, 
		 "sigma_profile": "yes", 
		 "theory": "DFT", 
		 "functional": "B3LYP", 
		 "basiset": "6-31G**", 
		 "properties": { 
			 "R2extent": 2534.4798, 
			 "electric_dipole_moment_norm": 3.38760165456, 
			 "electric_quadrupole_moment_norm": 10.7795210793, 
			 "total_energy": -658.74894443, 
			 "HOMO_LUMO_gap": 0.17882, 
			 "cosmo_polarized_energy": -20.92, 
			 "cosmo_cavitation_energy": 22.28, 
			 "cosmo_dispersion_energy": -17.0, 
			 "cosmo_repulsion_energy": 1.36, 
			 "cosmo_total_nonelectrostatic_energy": 6.64, 
			 "SMD_solvation_energy": 7.22 
		},
		"coords": [
			{
				"x": -0.5930451981,
				"y": -0.9966525558,
				"z": 1.0357394651,
				"element": "N" 
			},
			{
				"x": -0.3208170364,
				"y": 0.3895878929,
				"z": 0.7796053362,
				"element": "C" 
			},
			{
				"x": -0.9860653139,
				"y": 1.0638966999,
				"z": -0.1956606291,
				"element": "C" 
			},
			{
				"x": -0.7287858588,
				"y": 2.3858747118,
				"z": -0.4421691804,
				"element": "N" 
			},
			{
				"x": 0.2021332098,
				"y": 3.1517393672,
				"z": 0.2488245481,
				"element": "C" 
			},
			{
				"x": 0.4167732212,
				"y": 4.3237212227,
				"z": 0.0160240525,
				"element": "O" 
			},
			{
				"x": 0.8646198521,
				"y": 2.4274861966,
				"z": 1.2406747095,
				"element": "N" 
			},
			{
				"x": 0.6906863839,
				"y": 1.0835253353,
				"z": 1.5846744238,
				"element": "C" 
			},
			{
				"x": 1.3325657923,
				"y": 0.5517056803,
				"z": 2.479553128,
				"element": "O" 
			},
			{
				"x": -2.0556918013,
				"y": 0.486155522,
				"z": -1.1090081179,
				"element": "C" 
			},
			{
				"x": -2.3570362831,
				"y": -0.7884317243,
				"z": -0.9279687789,
				"element": "O" 
			},
			{
				"x": -2.5723557339,
				"y": 1.2031388031,
				"z": -1.9414187821,
				"element": "O" 
			},
			{
				"x": 0.2655799841,
				"y": -1.5387449536,
				"z": 0.9387960951,
				"element": "H" 
			},
			{
				"x": -0.8755728374,
				"y": -1.1170386322,
				"z": 2.008460935,
				"element": "H" 
			},
			{
				"x": -1.2636281813,
				"y": 2.8247436905,
				"z": -1.1856011473,
				"element": "H" 
			},
			{
				"x": 1.5539702013,
				"y": 2.9476139284,
				"z": 1.7710955538,
				"element": "H" 
			},
			{
				"x": -1.7879304006,
				"y": -1.1473211848,
				"z": -0.1801216116,
				"element": "H" 
			}
		],
		 "valence_orbital": [ 
			{
				"type": "occ",
				"energy": -0.31203,
				"method": "rhf"
			},
			{
				"type": "occ",
				"energy": -0.3037,
				"method": "rhf"
			},
			{
				"type": "occ",
				"energy": -0.29967,
				"method": "rhf"
			},
			{
				"type": "occ",
				"energy": -0.28341,
				"method": "rhf"
			},
			{
				"type": "occ",
				"energy": -0.26761,
				"method": "rhf"
			},
			{
				"type": "unocc",
				"energy": -0.08879,
				"method": "rhf"
			},
			{
				"type": "unocc",
				"energy": -0.00776,
				"method": "rhf"
			},
			{
				"type": "unocc",
				"energy": 0.03306,
				"method": "rhf"
			},
			{
				"type": "unocc",
				"energy": 0.0465,
				"method": "rhf"
			},
			{
				"type": "unocc",
				"energy": 0.07673,
				"method": "rhf"
			}
		],
		"cosmo_sigma_profile": { 
			"-0.025": 0.0,
			"-0.024": 0.0,
			"-0.023": 0.0,
			"-0.022": 0.0,
			"-0.021": 0.0,
			"-0.02": 0.0,
			"-0.019": 0.0,
			"-0.018": 0.0,
			"-0.017": 0.117538143529,
			"-0.016": 1.03510423183,
			"-0.015": 0.884393433413,
			"-0.014": 1.7366535541,
			"-0.013": 5.09590696133,
			"-0.012": 4.31020029174,
			"-0.011": 4.04826306376,
			"-0.01": 4.11765193806,
			"-0.009": 3.3968043416,
			"-0.008": 4.09253588858,
			"-0.007": 7.41915483864,
			"-0.006": 9.25855863972,
			"-0.005": 13.7318624008,
			"-0.004": 13.0731300958,
			"-0.003": 11.7741397473,
			"-0.002": 8.7248423779,
			"-0.001": 5.95812065077,
			"0.0": 4.98369094741,
			"0.001": 2.69192345989,
			"0.002": 4.17592150498,
			"0.003": 3.62611157633,
			"0.004": 3.74770517563,
			"0.005": 4.64709646678,
			"0.006": 5.12395910168,
			"0.007": 4.60236910651,
			"0.008": 4.38214058621,
			"0.009": 6.49041102412,
			"0.01": 9.5035923559,
			"0.011": 8.61485076395,
			"0.012": 13.7039694624,
			"0.013": 2.88099130537,
			"0.014": 0.0,
			"0.015": 0.0,
			"0.016": 0.0,
			"0.017": 0.0,
			"0.018": 0.0,
			"0.019": 0.0,
			"0.02": 0.0,
			"0.021": 0.0,
			"0.022": 0.0,
			"0.023": 0.0,
			"0.024": 0.0,
			"0.025": 0.0
		}
	}
}
