{
	 "smiles": "ClC(=O)C1=CC=C(C=C1)N=NC1=CC=CC=C1", 
	 "Tm": 368.15, 
	 "num_atms": 26, 
	 "gaussian": { 
		 "optdone": 1, 
		 "sigma_profile": "yes", 
		 "theory": "DFT", 
		 "functional": "B3LYP", 
		 "basiset": "6-31G**", 
		 "properties": { 
			 "R2extent": 10476.0146, 
			 "electric_dipole_moment_norm": 5.47528169321, 
			 "electric_quadrupole_moment_norm": 23.9836144321, 
			 "total_energy": -1145.69323632, 
			 "HOMO_LUMO_gap": 0.13349, 
			 "cosmo_polarized_energy": -7.77, 
			 "cosmo_cavitation_energy": 33.95, 
			 "cosmo_dispersion_energy": -24.89, 
			 "cosmo_repulsion_energy": 1.91, 
			 "cosmo_total_nonelectrostatic_energy": 10.98, 
			 "SMD_solvation_energy": 5.13 
		},
		"coords": [
			{
				"x": 5.1668032257,
				"y": -4.5437421266,
				"z": 3.5829969503,
				"element": "Cl" 
			},
			{
				"x": 4.7535409768,
				"y": -4.6232291866,
				"z": 1.7995165669,
				"element": "C" 
			},
			{
				"x": 5.2877537926,
				"y": -5.4522486421,
				"z": 1.1252385826,
				"element": "O" 
			},
			{
				"x": 3.7642751515,
				"y": -3.6238311447,
				"z": 1.3338127919,
				"element": "C" 
			},
			{
				"x": 3.4333237104,
				"y": -3.6676689173,
				"z": -0.0323722548,
				"element": "C" 
			},
			{
				"x": 2.5146091844,
				"y": -2.7667312299,
				"z": -0.5524568388,
				"element": "C" 
			},
			{
				"x": 1.9131247958,
				"y": -1.8108349723,
				"z": 0.27965205,
				"element": "C" 
			},
			{
				"x": 2.2426150336,
				"y": -1.7652361495,
				"z": 1.6456935426,
				"element": "C" 
			},
			{
				"x": 3.1606130069,
				"y": -2.6648571541,
				"z": 2.1666358225,
				"element": "C" 
			},
			{
				"x": 0.9907343877,
				"y": -0.9426502157,
				"z": -0.3592536859,
				"element": "N" 
			},
			{
				"x": 0.4600279142,
				"y": -0.0930396494,
				"z": 0.4070429054,
				"element": "N" 
			},
			{
				"x": -0.4627912127,
				"y": 0.7808184362,
				"z": -0.2139106574,
				"element": "C" 
			},
			{
				"x": -1.0540798065,
				"y": 1.727832154,
				"z": 0.6345317255,
				"element": "C" 
			},
			{
				"x": -1.978713492,
				"y": 2.6395047823,
				"z": 0.1288901615,
				"element": "C" 
			},
			{
				"x": -2.3146516831,
				"y": 2.6067241063,
				"z": -1.2258533958,
				"element": "C" 
			},
			{
				"x": -1.724740786,
				"y": 1.6607335723,
				"z": -2.0755591648,
				"element": "C" 
			},
			{
				"x": -0.8021318637,
				"y": 0.7487421914,
				"z": -1.578843726,
				"element": "C" 
			},
			{
				"x": 3.9056225494,
				"y": -4.4116283184,
				"z": -0.6638607188,
				"element": "H" 
			},
			{
				"x": 2.2427843074,
				"y": -2.7800842514,
				"z": -1.6026939111,
				"element": "H" 
			},
			{
				"x": 1.7684240337,
				"y": -1.0203382919,
				"z": 2.2733314073,
				"element": "H" 
			},
			{
				"x": 3.4160707343,
				"y": -2.6316048246,
				"z": 3.2187662306,
				"element": "H" 
			},
			{
				"x": -0.7710236206,
				"y": 1.726205228,
				"z": 1.6822577287,
				"element": "H" 
			},
			{
				"x": -2.4354282974,
				"y": 3.3720071568,
				"z": 0.7874013872,
				"element": "H" 
			},
			{
				"x": -3.0349961496,
				"y": 3.3156434697,
				"z": -1.6237051032,
				"element": "H" 
			},
			{
				"x": -1.9904977805,
				"y": 1.6405622306,
				"z": -3.1285278078,
				"element": "H" 
			},
			{
				"x": -0.3338681121,
				"y": 0.008851747,
				"z": -2.2175305884,
				"element": "H" 
			}
		],
		 "valence_orbital": [ 
			{
				"type": "occ",
				"energy": -0.29242,
				"method": "rhf"
			},
			{
				"type": "occ",
				"energy": -0.27749,
				"method": "rhf"
			},
			{
				"type": "occ",
				"energy": -0.26846,
				"method": "rhf"
			},
			{
				"type": "occ",
				"energy": -0.2463,
				"method": "rhf"
			},
			{
				"type": "occ",
				"energy": -0.24257,
				"method": "rhf"
			},
			{
				"type": "unocc",
				"energy": -0.10908,
				"method": "rhf"
			},
			{
				"type": "unocc",
				"energy": -0.05328,
				"method": "rhf"
			},
			{
				"type": "unocc",
				"energy": -0.02422,
				"method": "rhf"
			},
			{
				"type": "unocc",
				"energy": -0.01638,
				"method": "rhf"
			},
			{
				"type": "unocc",
				"energy": 0.01201,
				"method": "rhf"
			}
		],
		"cosmo_sigma_profile": { 
			"-0.025": 0.0,
			"-0.024": 0.0,
			"-0.023": 0.0,
			"-0.022": 0.0,
			"-0.021": 0.0,
			"-0.02": 0.0,
			"-0.019": 0.0,
			"-0.018": 0.0,
			"-0.017": 0.0,
			"-0.016": 0.0,
			"-0.015": 0.0,
			"-0.014": 0.0,
			"-0.013": 0.0,
			"-0.012": 0.0,
			"-0.011": 0.0,
			"-0.01": 0.0,
			"-0.009": 0.0,
			"-0.008": 0.621321952971,
			"-0.007": 7.14283413798,
			"-0.006": 16.5880608222,
			"-0.005": 16.874095903,
			"-0.004": 17.8512624772,
			"-0.003": 16.5223534262,
			"-0.002": 17.4685528141,
			"-0.001": 19.7438216963,
			"0.0": 29.201081393,
			"0.001": 37.0961406293,
			"0.002": 27.8142267949,
			"0.003": 23.0109325269,
			"0.004": 19.6480722936,
			"0.005": 9.01884929487,
			"0.006": 5.93230833049,
			"0.007": 4.84019799714,
			"0.008": 4.10082505297,
			"0.009": 2.86667121788,
			"0.01": 0.367410690942,
			"0.011": 0.0,
			"0.012": 0.0,
			"0.013": 0.0,
			"0.014": 0.0,
			"0.015": 0.0,
			"0.016": 0.0,
			"0.017": 0.0,
			"0.018": 0.0,
			"0.019": 0.0,
			"0.02": 0.0,
			"0.021": 0.0,
			"0.022": 0.0,
			"0.023": 0.0,
			"0.024": 0.0,
			"0.025": 0.0
		}
	}
}
