{
	 "smiles": "CN(N)C1=C(Cl)C(=O)N(C)N=C1", 
	 "Tm": 405.15, 
	 "num_atms": 21, 
	 "gaussian": { 
		 "optdone": 1, 
		 "sigma_profile": "yes", 
		 "theory": "DFT", 
		 "functional": "B3LYP", 
		 "basiset": "6-31G**", 
		 "properties": { 
			 "R2extent": 3319.6343, 
			 "electric_dipole_moment_norm": 5.4306000046, 
			 "electric_quadrupole_moment_norm": 18.3678356177, 
			 "total_energy": -988.415125232, 
			 "HOMO_LUMO_gap": 0.17015, 
			 "cosmo_polarized_energy": -16.02, 
			 "cosmo_cavitation_energy": 26.16, 
			 "cosmo_dispersion_energy": -19.53, 
			 "cosmo_repulsion_energy": 1.56, 
			 "cosmo_total_nonelectrostatic_energy": 8.18, 
			 "SMD_solvation_energy": 4.71 
		},
		"coords": [
			{
				"x": 2.6261969145,
				"y": -1.6489522181,
				"z": -0.1406666545,
				"element": "C" 
			},
			{
				"x": 2.7374640537,
				"y": -0.3132517038,
				"z": 0.4428535171,
				"element": "N" 
			},
			{
				"x": 3.3386364119,
				"y": -0.2905514767,
				"z": 1.7240311643,
				"element": "N" 
			},
			{
				"x": 1.7292279972,
				"y": 0.6379432872,
				"z": 0.2565194532,
				"element": "C" 
			},
			{
				"x": 1.2425918392,
				"y": 1.0272674202,
				"z": -0.9759508608,
				"element": "C" 
			},
			{
				"x": 1.8911707079,
				"y": 0.46163348,
				"z": -2.4894945179,
				"element": "Cl" 
			},
			{
				"x": 0.1752203182,
				"y": 2.0101322823,
				"z": -1.1069384233,
				"element": "C" 
			},
			{
				"x": -0.3221316249,
				"y": 2.4077268664,
				"z": -2.1553108512,
				"element": "O" 
			},
			{
				"x": -0.2704669748,
				"y": 2.5236399434,
				"z": 0.1249314544,
				"element": "N" 
			},
			{
				"x": -1.3310705102,
				"y": 3.5286434557,
				"z": 0.0874575817,
				"element": "C" 
			},
			{
				"x": 0.2165390548,
				"y": 2.2075633588,
				"z": 1.33037623,
				"element": "N" 
			},
			{
				"x": 1.1625268058,
				"y": 1.3132351305,
				"z": 1.3968551239,
				"element": "C" 
			},
			{
				"x": 2.1291782453,
				"y": -1.6141196719,
				"z": -1.1073041817,
				"element": "H" 
			},
			{
				"x": 3.6283838423,
				"y": -2.0649660549,
				"z": -0.2839137901,
				"element": "H" 
			},
			{
				"x": 2.0590208922,
				"y": -2.3208911199,
				"z": 0.5245297152,
				"element": "H" 
			},
			{
				"x": 4.3463503306,
				"y": -0.3506058535,
				"z": 1.5979438025,
				"element": "H" 
			},
			{
				"x": 3.0430306684,
				"y": -1.1061625236,
				"z": 2.2646864629,
				"element": "H" 
			},
			{
				"x": -0.9973357603,
				"y": 4.4072374119,
				"z": -0.4705424892,
				"element": "H" 
			},
			{
				"x": -2.2107527968,
				"y": 3.1224860725,
				"z": -0.4171699158,
				"element": "H" 
			},
			{
				"x": -1.5621150648,
				"y": 3.7923679458,
				"z": 1.117912575,
				"element": "H" 
			},
			{
				"x": 1.5446346497,
				"y": 1.0944239675,
				"z": 2.3845946044,
				"element": "H" 
			}
		],
		 "valence_orbital": [ 
			{
				"type": "occ",
				"energy": -0.30598,
				"method": "rhf"
			},
			{
				"type": "occ",
				"energy": -0.28669,
				"method": "rhf"
			},
			{
				"type": "occ",
				"energy": -0.24685,
				"method": "rhf"
			},
			{
				"type": "occ",
				"energy": -0.23936,
				"method": "rhf"
			},
			{
				"type": "occ",
				"energy": -0.22022,
				"method": "rhf"
			},
			{
				"type": "unocc",
				"energy": -0.05007,
				"method": "rhf"
			},
			{
				"type": "unocc",
				"energy": 0.00808,
				"method": "rhf"
			},
			{
				"type": "unocc",
				"energy": 0.03465,
				"method": "rhf"
			},
			{
				"type": "unocc",
				"energy": 0.05631,
				"method": "rhf"
			},
			{
				"type": "unocc",
				"energy": 0.10958,
				"method": "rhf"
			}
		],
		"cosmo_sigma_profile": { 
			"-0.025": 0.0,
			"-0.024": 0.0,
			"-0.023": 0.0,
			"-0.022": 0.0,
			"-0.021": 0.0,
			"-0.02": 0.0,
			"-0.019": 0.0,
			"-0.018": 0.0,
			"-0.017": 0.0,
			"-0.016": 0.0,
			"-0.015": 0.0,
			"-0.014": 0.0,
			"-0.013": 0.0387616336354,
			"-0.012": 1.36248938192,
			"-0.011": 3.79207511397,
			"-0.01": 3.68595160161,
			"-0.009": 3.78783665687,
			"-0.008": 2.53785254417,
			"-0.007": 3.39921183808,
			"-0.006": 8.60276901782,
			"-0.005": 13.4391972457,
			"-0.004": 15.1947418517,
			"-0.003": 23.5032639314,
			"-0.002": 22.1131766106,
			"-0.001": 13.6313327462,
			"0.0": 11.6713564235,
			"0.001": 11.4789055892,
			"0.002": 10.1804152011,
			"0.003": 8.17730431828,
			"0.004": 10.0491236293,
			"0.005": 8.43698887455,
			"0.006": 6.23370775389,
			"0.007": 3.12726280831,
			"0.008": 2.7700281532,
			"0.009": 3.67831743664,
			"0.01": 3.45398862566,
			"0.011": 2.29258023731,
			"0.012": 2.88149090897,
			"0.013": 4.21725074514,
			"0.014": 4.98688540672,
			"0.015": 0.71862292351,
			"0.016": 0.0,
			"0.017": 0.0,
			"0.018": 0.0,
			"0.019": 0.0,
			"0.02": 0.0,
			"0.021": 0.0,
			"0.022": 0.0,
			"0.023": 0.0,
			"0.024": 0.0,
			"0.025": 0.0
		}
	}
}
