{
	 "smiles": "COC(=O)C1=CC2=C(N1)C=C(C)C=C2", 
	 "Tm": 405.15, 
	 "num_atms": 25, 
	 "gaussian": { 
		 "optdone": 1, 
		 "sigma_profile": "yes", 
		 "theory": "DFT", 
		 "functional": "B3LYP", 
		 "basiset": "6-31G**", 
		 "properties": { 
			 "R2extent": 4193.0858, 
			 "electric_dipole_moment_norm": 0.451213696601, 
			 "electric_quadrupole_moment_norm": 10.8405113136, 
			 "total_energy": -631.026188907, 
			 "HOMO_LUMO_gap": 0.16536, 
			 "cosmo_polarized_energy": -9.33, 
			 "cosmo_cavitation_energy": 29.4, 
			 "cosmo_dispersion_energy": -21.68, 
			 "cosmo_repulsion_energy": 1.7, 
			 "cosmo_total_nonelectrostatic_energy": 9.42, 
			 "SMD_solvation_energy": 6.26 
		},
		"coords": [
			{
				"x": -3.3954948496,
				"y": -0.1616339747,
				"z": -4.4557713557,
				"element": "C" 
			},
			{
				"x": -2.9425603357,
				"y": -0.5079006682,
				"z": -3.1382288169,
				"element": "O" 
			},
			{
				"x": -2.0616844836,
				"y": 0.35607484,
				"z": -2.5906405943,
				"element": "C" 
			},
			{
				"x": -1.6592963939,
				"y": 1.3658632005,
				"z": -3.1467592209,
				"element": "O" 
			},
			{
				"x": -1.6375553034,
				"y": -0.0485811549,
				"z": -1.2511689377,
				"element": "C" 
			},
			{
				"x": -1.9608604561,
				"y": -1.1267372486,
				"z": -0.4529560249,
				"element": "C" 
			},
			{
				"x": -1.2233470565,
				"y": -0.9797224044,
				"z": 0.7611836487,
				"element": "C" 
			},
			{
				"x": -0.4596002665,
				"y": 0.219379346,
				"z": 0.6444356316,
				"element": "C" 
			},
			{
				"x": -0.7318806096,
				"y": 0.7601997744,
				"z": -0.5853967977,
				"element": "N" 
			},
			{
				"x": 0.3869003621,
				"y": 0.6694629356,
				"z": 1.6685056587,
				"element": "C" 
			},
			{
				"x": 0.4769513176,
				"y": -0.0857871317,
				"z": 2.8317499922,
				"element": "C" 
			},
			{
				"x": 1.371416237,
				"y": 0.3485961569,
				"z": 3.968997429,
				"element": "C" 
			},
			{
				"x": -0.2811118104,
				"y": -1.2823431593,
				"z": 2.9559437376,
				"element": "C" 
			},
			{
				"x": -1.1169818564,
				"y": -1.7308650124,
				"z": 1.9497503865,
				"element": "C" 
			},
			{
				"x": -2.5553563178,
				"y": -0.1153953063,
				"z": -5.1534655125,
				"element": "H" 
			},
			{
				"x": -4.0889459302,
				"y": -0.9514189157,
				"z": -4.7441981319,
				"element": "H" 
			},
			{
				"x": -3.900173196,
				"y": 0.8079022226,
				"z": -4.4484814654,
				"element": "H" 
			},
			{
				"x": -2.6448906219,
				"y": -1.9192564798,
				"z": -0.718186002,
				"element": "H" 
			},
			{
				"x": -0.3630010418,
				"y": 1.6072729388,
				"z": -0.9902246031,
				"element": "H" 
			},
			{
				"x": 0.959615626,
				"y": 1.5863730011,
				"z": 1.5574776109,
				"element": "H" 
			},
			{
				"x": 1.8933089753,
				"y": 1.2809204341,
				"z": 3.7364924421,
				"element": "H" 
			},
			{
				"x": 2.128595956,
				"y": -0.4121441565,
				"z": 4.1930456347,
				"element": "H" 
			},
			{
				"x": 0.7968059938,
				"y": 0.5071588215,
				"z": 4.8893162432,
				"element": "H" 
			},
			{
				"x": -0.1949356829,
				"y": -1.8570857787,
				"z": 3.8746551093,
				"element": "H" 
			},
			{
				"x": -1.6846182555,
				"y": -2.6491322804,
				"z": 2.0718239385,
				"element": "H" 
			}
		],
		 "valence_orbital": [ 
			{
				"type": "occ",
				"energy": -0.30116,
				"method": "rhf"
			},
			{
				"type": "occ",
				"energy": -0.27889,
				"method": "rhf"
			},
			{
				"type": "occ",
				"energy": -0.27744,
				"method": "rhf"
			},
			{
				"type": "occ",
				"energy": -0.22169,
				"method": "rhf"
			},
			{
				"type": "occ",
				"energy": -0.20815,
				"method": "rhf"
			},
			{
				"type": "unocc",
				"energy": -0.04279,
				"method": "rhf"
			},
			{
				"type": "unocc",
				"energy": 0.01778,
				"method": "rhf"
			},
			{
				"type": "unocc",
				"energy": 0.0309,
				"method": "rhf"
			},
			{
				"type": "unocc",
				"energy": 0.09847,
				"method": "rhf"
			},
			{
				"type": "unocc",
				"energy": 0.105,
				"method": "rhf"
			}
		],
		"cosmo_sigma_profile": { 
			"-0.025": 0.0,
			"-0.024": 0.0,
			"-0.023": 0.0,
			"-0.022": 0.0,
			"-0.021": 0.0,
			"-0.02": 0.0,
			"-0.019": 0.0,
			"-0.018": 0.0,
			"-0.017": 0.0,
			"-0.016": 0.0128533399438,
			"-0.015": 0.678609945555,
			"-0.014": 0.815314547639,
			"-0.013": 0.669679142142,
			"-0.012": 0.986659667087,
			"-0.011": 0.85241608304,
			"-0.01": 1.17101893918,
			"-0.009": 1.17758570834,
			"-0.008": 0.671365580363,
			"-0.007": 2.73088144871,
			"-0.006": 8.96013374565,
			"-0.005": 15.8510812844,
			"-0.004": 21.0796677113,
			"-0.003": 22.6516923391,
			"-0.002": 19.6298878685,
			"-0.001": 17.2159656435,
			"0.0": 19.2465612302,
			"0.001": 14.2699469827,
			"0.002": 12.3376497508,
			"0.003": 16.2754184495,
			"0.004": 15.1352409858,
			"0.005": 16.3545887497,
			"0.006": 10.4308431795,
			"0.007": 2.99150132228,
			"0.008": 1.8193408888,
			"0.009": 1.2521356466,
			"0.01": 1.88469026141,
			"0.011": 2.4588342102,
			"0.012": 4.01781476814,
			"0.013": 0.450616865109,
			"0.014": 0.0,
			"0.015": 0.0,
			"0.016": 0.0,
			"0.017": 0.0,
			"0.018": 0.0,
			"0.019": 0.0,
			"0.02": 0.0,
			"0.021": 0.0,
			"0.022": 0.0,
			"0.023": 0.0,
			"0.024": 0.0,
			"0.025": 0.0
		}
	}
}
