{
	 "smiles": "OC(=O)C(CC1=CC=CC=C1)NC(=O)C(C1=CC=CC=C1)C1=CC=CC=C1", 
	 "Tm": 423.15, 
	 "num_atms": 48, 
	 "gaussian": { 
		 "optdone": 1, 
		 "sigma_profile": "yes", 
		 "theory": "DFT", 
		 "functional": "B3LYP", 
		 "basiset": "6-31G**", 
		 "properties": { 
			 "R2extent": 11135.8245, 
			 "electric_dipole_moment_norm": 2.30824065037, 
			 "electric_quadrupole_moment_norm": 10.8038679046, 
			 "total_energy": -1169.5698759, 
			 "HOMO_LUMO_gap": 0.22071, 
			 "cosmo_polarized_energy": -18.89, 
			 "cosmo_cavitation_energy": 52.16, 
			 "cosmo_dispersion_energy": -33.34, 
			 "cosmo_repulsion_energy": 2.55, 
			 "cosmo_total_nonelectrostatic_energy": 21.37, 
			 "SMD_solvation_energy": 9.46 
		},
		"coords": [
			{
				"x": -0.0387487355,
				"y": -2.7565380182,
				"z": 4.2416263985,
				"element": "O" 
			},
			{
				"x": -0.3450602785,
				"y": -2.3780577083,
				"z": 2.9838846488,
				"element": "C" 
			},
			{
				"x": -0.721132987,
				"y": -3.1542681556,
				"z": 2.1317237072,
				"element": "O" 
			},
			{
				"x": -0.1552832608,
				"y": -0.8839511078,
				"z": 2.7787821279,
				"element": "C" 
			},
			{
				"x": 1.316950373,
				"y": -0.4375855622,
				"z": 3.0319754178,
				"element": "C" 
			},
			{
				"x": 2.3399218096,
				"y": -1.1121433146,
				"z": 2.1452406734,
				"element": "C" 
			},
			{
				"x": 3.0008088343,
				"y": -2.2740011261,
				"z": 2.5702786774,
				"element": "C" 
			},
			{
				"x": 3.9304270629,
				"y": -2.9116423943,
				"z": 1.7475658252,
				"element": "C" 
			},
			{
				"x": 4.2154486443,
				"y": -2.3951036089,
				"z": 0.4825450472,
				"element": "C" 
			},
			{
				"x": 3.5684044877,
				"y": -1.2361760239,
				"z": 0.0494669741,
				"element": "C" 
			},
			{
				"x": 2.6402851256,
				"y": -0.5995065694,
				"z": 0.8746438569,
				"element": "C" 
			},
			{
				"x": -0.6336299604,
				"y": -0.5626563183,
				"z": 1.4491509044,
				"element": "N" 
			},
			{
				"x": -1.0285312107,
				"y": 0.6974002937,
				"z": 1.1207785145,
				"element": "C" 
			},
			{
				"x": -0.9547199317,
				"y": 1.6292587171,
				"z": 1.9205874839,
				"element": "O" 
			},
			{
				"x": -1.539458978,
				"y": 0.862973231,
				"z": -0.3201748429,
				"element": "C" 
			},
			{
				"x": -2.9429489872,
				"y": 1.4703985051,
				"z": -0.3438546196,
				"element": "C" 
			},
			{
				"x": -3.9995178573,
				"y": 0.7418305407,
				"z": -0.9032717713,
				"element": "C" 
			},
			{
				"x": -5.2895439886,
				"y": 1.2740672641,
				"z": -0.9545904554,
				"element": "C" 
			},
			{
				"x": -5.5390840939,
				"y": 2.5462822965,
				"z": -0.4409349267,
				"element": "C" 
			},
			{
				"x": -4.4915558692,
				"y": 3.278567134,
				"z": 0.1232623518,
				"element": "C" 
			},
			{
				"x": -3.2028418682,
				"y": 2.7483363637,
				"z": 0.1704529744,
				"element": "C" 
			},
			{
				"x": -0.5417925308,
				"y": 1.6438023988,
				"z": -1.1849520854,
				"element": "C" 
			},
			{
				"x": 0.2201169287,
				"y": 2.7119636596,
				"z": -0.6909062595,
				"element": "C" 
			},
			{
				"x": 1.0928516404,
				"y": 3.4065325318,
				"z": -1.5322897734,
				"element": "C" 
			},
			{
				"x": 1.2166541857,
				"y": 3.0499143984,
				"z": -2.8753250628,
				"element": "C" 
			},
			{
				"x": 0.4615689553,
				"y": 1.9872126669,
				"z": -3.3752856814,
				"element": "C" 
			},
			{
				"x": -0.4070100886,
				"y": 1.291228384,
				"z": -2.5352395245,
				"element": "C" 
			},
			{
				"x": -0.1739753502,
				"y": -3.7185431762,
				"z": 4.2801374782,
				"element": "H" 
			},
			{
				"x": -0.7772453431,
				"y": -0.3545880846,
				"z": 3.5108681504,
				"element": "H" 
			},
			{
				"x": 1.3262374147,
				"y": 0.6454397451,
				"z": 2.8827729759,
				"element": "H" 
			},
			{
				"x": 1.541618297,
				"y": -0.626262768,
				"z": 4.0861390354,
				"element": "H" 
			},
			{
				"x": 2.7870458531,
				"y": -2.6772184949,
				"z": 3.5570483919,
				"element": "H" 
			},
			{
				"x": 4.4355591977,
				"y": -3.8079145037,
				"z": 2.0969609793,
				"element": "H" 
			},
			{
				"x": 4.9411873259,
				"y": -2.887963897,
				"z": -0.1580867746,
				"element": "H" 
			},
			{
				"x": 3.7893655412,
				"y": -0.8220811407,
				"z": -0.9303024418,
				"element": "H" 
			},
			{
				"x": 2.1495505444,
				"y": 0.3072392868,
				"z": 0.5319979014,
				"element": "H" 
			},
			{
				"x": -0.7621698327,
				"y": -1.3419695867,
				"z": 0.8180024464,
				"element": "H" 
			},
			{
				"x": -1.6216639583,
				"y": -0.1353531059,
				"z": -0.7638735901,
				"element": "H" 
			},
			{
				"x": -3.8134581491,
				"y": -0.2519912477,
				"z": -1.3041956174,
				"element": "H" 
			},
			{
				"x": -6.0954599805,
				"y": 0.6932504433,
				"z": -1.3945087146,
				"element": "H" 
			},
			{
				"x": -6.5408550987,
				"y": 2.9647466801,
				"z": -0.4786830232,
				"element": "H" 
			},
			{
				"x": -4.6781704484,
				"y": 4.2690056674,
				"z": 0.529031925,
				"element": "H" 
			},
			{
				"x": -2.3978409209,
				"y": 3.3154386042,
				"z": 0.6224225511,
				"element": "H" 
			},
			{
				"x": 0.1333828957,
				"y": 2.9895534573,
				"z": 0.3537851875,
				"element": "H" 
			},
			{
				"x": 1.677841079,
				"y": 4.2300162855,
				"z": -1.1319914385,
				"element": "H" 
			},
			{
				"x": 1.8959813874,
				"y": 3.5927036063,
				"z": -3.5263329191,
				"element": "H" 
			},
			{
				"x": 0.5502684338,
				"y": 1.6968173484,
				"z": -4.4184608625,
				"element": "H" 
			},
			{
				"x": -0.9926763093,
				"y": 0.4661364033,
				"z": -2.9335722212,
				"element": "H" 
			}
		],
		 "valence_orbital": [ 
			{
				"type": "occ",
				"energy": -0.24773,
				"method": "rhf"
			},
			{
				"type": "occ",
				"energy": -0.24494,
				"method": "rhf"
			},
			{
				"type": "occ",
				"energy": -0.2416,
				"method": "rhf"
			},
			{
				"type": "occ",
				"energy": -0.23896,
				"method": "rhf"
			},
			{
				"type": "occ",
				"energy": -0.23291,
				"method": "rhf"
			},
			{
				"type": "unocc",
				"energy": -0.0122,
				"method": "rhf"
			},
			{
				"type": "unocc",
				"energy": -0.0083,
				"method": "rhf"
			},
			{
				"type": "unocc",
				"energy": -0.00637,
				"method": "rhf"
			},
			{
				"type": "unocc",
				"energy": -0.00187,
				"method": "rhf"
			},
			{
				"type": "unocc",
				"energy": 0.00247,
				"method": "rhf"
			}
		],
		"cosmo_sigma_profile": { 
			"-0.025": 0.0,
			"-0.024": 0.0,
			"-0.023": 0.0,
			"-0.022": 0.0,
			"-0.021": 0.0,
			"-0.02": 0.00231555704099,
			"-0.019": 0.56873405207,
			"-0.018": 1.08604705133,
			"-0.017": 0.854868505696,
			"-0.016": 0.526262136422,
			"-0.015": 0.99218892816,
			"-0.014": 0.677105872008,
			"-0.013": 1.06494871846,
			"-0.012": 1.58652385077,
			"-0.011": 1.91521892703,
			"-0.01": 1.7259081017,
			"-0.009": 1.54616083375,
			"-0.008": 2.75693647072,
			"-0.007": 5.81795799062,
			"-0.006": 14.3150521094,
			"-0.005": 30.2082261593,
			"-0.004": 35.3422272064,
			"-0.003": 39.6025457112,
			"-0.002": 31.6701064414,
			"-0.001": 33.0891104825,
			"0.0": 25.752686476,
			"0.001": 24.8808013446,
			"0.002": 24.2948902047,
			"0.003": 25.8984053525,
			"0.004": 26.8877586728,
			"0.005": 30.2745081581,
			"0.006": 25.0363498806,
			"0.007": 5.25985099902,
			"0.008": 4.55732535,
			"0.009": 3.34575456324,
			"0.01": 4.37002424608,
			"0.011": 4.26181753258,
			"0.012": 2.16103749901,
			"0.013": 2.42325952725,
			"0.014": 0.432027931446,
			"0.015": 0.0,
			"0.016": 0.0,
			"0.017": 0.0,
			"0.018": 0.0,
			"0.019": 0.0,
			"0.02": 0.0,
			"0.021": 0.0,
			"0.022": 0.0,
			"0.023": 0.0,
			"0.024": 0.0,
			"0.0": 0.0
		}
	}
}
