{
	 "smiles": "CC(NC(=O)C1=C(C)ON=C1)C(O)=O", 
	 "Tm": 433.15, 
	 "num_atms": 24, 
	 "gaussian": { 
		 "optdone": 1, 
		 "sigma_profile": "yes", 
		 "theory": "DFT", 
		 "functional": "B3LYP", 
		 "basiset": "6-31G**", 
		 "properties": { 
			 "R2extent": 4837.189, 
			 "electric_dipole_moment_norm": 5.31816672736, 
			 "electric_quadrupole_moment_norm": 17.0578937038, 
			 "total_energy": -721.2618329, 
			 "HOMO_LUMO_gap": 0.20205, 
			 "cosmo_polarized_energy": -21.37, 
			 "cosmo_cavitation_energy": 28.63, 
			 "cosmo_dispersion_energy": -20.42, 
			 "cosmo_repulsion_energy": 1.6, 
			 "cosmo_total_nonelectrostatic_energy": 9.82, 
			 "SMD_solvation_energy": 6.42 
		},
		"coords": [
			{
				"x": 1.0933653655,
				"y": 0.2842128329,
				"z": 1.0349045583,
				"element": "C" 
			},
			{
				"x": 0.9393242827,
				"y": -1.0987072527,
				"z": 0.4141228276,
				"element": "C" 
			},
			{
				"x": -0.0926929223,
				"y": -1.0676509624,
				"z": -0.6336217433,
				"element": "N" 
			},
			{
				"x": -0.1712875713,
				"y": -2.0088099221,
				"z": -1.6137573784,
				"element": "C" 
			},
			{
				"x": 0.5662649993,
				"y": -3.0090179655,
				"z": -1.6125900878,
				"element": "O" 
			},
			{
				"x": -1.1535291368,
				"y": -1.8067828652,
				"z": -2.6916277132,
				"element": "C" 
			},
			{
				"x": -1.8394747685,
				"y": -0.6979393751,
				"z": -3.1318329226,
				"element": "C" 
			},
			{
				"x": -1.9005449583,
				"y": 0.7329007395,
				"z": -2.7158169237,
				"element": "C" 
			},
			{
				"x": -2.5984182753,
				"y": -1.0393425813,
				"z": -4.1849253642,
				"element": "O" 
			},
			{
				"x": -2.4299439215,
				"y": -2.4072977995,
				"z": -4.4771355672,
				"element": "N" 
			},
			{
				"x": -1.5711369296,
				"y": -2.8346280656,
				"z": -3.5916432413,
				"element": "C" 
			},
			{
				"x": 0.6263492257,
				"y": -2.1717670861,
				"z": 1.4906084474,
				"element": "C" 
			},
			{
				"x": 0.5855738507,
				"y": -3.430036305,
				"z": 1.0393285507,
				"element": "O" 
			},
			{
				"x": 0.446738279,
				"y": -1.8918307797,
				"z": 2.6530618818,
				"element": "O" 
			},
			{
				"x": 1.8822429121,
				"y": 0.2667263927,
				"z": 1.7884850833,
				"element": "H" 
			},
			{
				"x": 1.3490834172,
				"y": 1.0230847183,
				"z": 0.2699614885,
				"element": "H" 
			},
			{
				"x": 0.173551158,
				"y": 0.5868114901,
				"z": 1.5442655189,
				"element": "H" 
			},
			{
				"x": 1.8690960769,
				"y": -1.401135564,
				"z": -0.0827313455,
				"element": "H" 
			},
			{
				"x": -0.8399625182,
				"y": -0.397217557,
				"z": -0.5271395017,
				"element": "H" 
			},
			{
				"x": -2.1568796531,
				"y": 1.3573253618,
				"z": -3.5745289295,
				"element": "H" 
			},
			{
				"x": -2.6687716976,
				"y": 0.8931229564,
				"z": -1.9494016324,
				"element": "H" 
			},
			{
				"x": -0.9378697725,
				"y": 1.0616680168,
				"z": -2.3166275955,
				"element": "H" 
			},
			{
				"x": -1.2535913648,
				"y": -3.8687859333,
				"z": -3.595699103,
				"element": "H" 
			},
			{
				"x": 0.7247139228,
				"y": -3.446602494,
				"z": 0.059340693,
				"element": "H" 
			}
		],
		 "valence_orbital": [ 
			{
				"type": "occ",
				"energy": -0.31145,
				"method": "rhf"
			},
			{
				"type": "occ",
				"energy": -0.30521,
				"method": "rhf"
			},
			{
				"type": "occ",
				"energy": -0.29202,
				"method": "rhf"
			},
			{
				"type": "occ",
				"energy": -0.28462,
				"method": "rhf"
			},
			{
				"type": "occ",
				"energy": -0.2586,
				"method": "rhf"
			},
			{
				"type": "unocc",
				"energy": -0.05655,
				"method": "rhf"
			},
			{
				"type": "unocc",
				"energy": -0.01969,
				"method": "rhf"
			},
			{
				"type": "unocc",
				"energy": 0.00753,
				"method": "rhf"
			},
			{
				"type": "unocc",
				"energy": 0.04515,
				"method": "rhf"
			},
			{
				"type": "unocc",
				"energy": 0.07096,
				"method": "rhf"
			}
		],
		"cosmo_sigma_profile": { 
			"-0.025": 0.0,
			"-0.024": 0.0,
			"-0.023": 0.0,
			"-0.022": 0.0,
			"-0.021": 0.0,
			"-0.02": 0.0,
			"-0.019": 0.0,
			"-0.018": 0.0,
			"-0.017": 0.0,
			"-0.016": 0.0,
			"-0.015": 0.389265589044,
			"-0.014": 1.69291189754,
			"-0.013": 1.20084173145,
			"-0.012": 1.74559037881,
			"-0.011": 1.53940778585,
			"-0.01": 2.44496765251,
			"-0.009": 4.31001709296,
			"-0.008": 6.11826215405,
			"-0.007": 9.4687591501,
			"-0.006": 11.4652758461,
			"-0.005": 16.1852480896,
			"-0.004": 20.6464445596,
			"-0.003": 21.4675899647,
			"-0.002": 16.3095327093,
			"-0.001": 15.5546364092,
			"0.0": 11.8682056265,
			"0.001": 7.94819342566,
			"0.002": 5.57664973431,
			"0.003": 5.64082537992,
			"0.004": 5.75329135786,
			"0.005": 5.09875391128,
			"0.006": 6.97451675215,
			"0.007": 7.61864988561,
			"0.008": 6.96386084307,
			"0.009": 5.60106110366,
			"0.01": 6.85786387249,
			"0.011": 9.10897866023,
			"0.012": 7.84781554992,
			"0.013": 3.82176197281,
			"0.014": 0.400514353653,
			"0.015": 0.0,
			"0.016": 0.0,
			"0.017": 0.0,
			"0.018": 0.0,
			"0.019": 0.0,
			"0.02": 0.0,
			"0.021": 0.0,
			"0.022": 0.0,
			"0.023": 0.0,
			"0.024": 0.0,
			"0.025": 0.0
		}
	}
}
