{
	 "smiles": "COC1=CC(=CC=C1)N1C(C)=NN=C1SCC(O)=O", 
	 "Tm": 404.15, 
	 "num_atms": 32, 
	 "gaussian": { 
		 "optdone": 1, 
		 "sigma_profile": "yes", 
		 "theory": "DFT", 
		 "functional": "B3LYP", 
		 "basiset": "6-31G**", 
		 "properties": { 
			 "R2extent": 7859.2086, 
			 "electric_dipole_moment_norm": 5.13570381642, 
			 "electric_quadrupole_moment_norm": 20.7524702578, 
			 "total_energy": -1253.20428876, 
			 "HOMO_LUMO_gap": 0.18832, 
			 "cosmo_polarized_energy": -21.92, 
			 "cosmo_cavitation_energy": 38.95, 
			 "cosmo_dispersion_energy": -27.62, 
			 "cosmo_repulsion_energy": 2.13, 
			 "cosmo_total_nonelectrostatic_energy": 13.46, 
			 "SMD_solvation_energy": 6.87 
		},
		"coords": [
			{
				"x": 1.1211803693,
				"y": -4.5943843817,
				"z": 0.7996089413,
				"element": "C" 
			},
			{
				"x": 1.4850750906,
				"y": -3.2560146273,
				"z": 1.1079873136,
				"element": "O" 
			},
			{
				"x": 1.0487867418,
				"y": -2.261275583,
				"z": 0.288114926,
				"element": "C" 
			},
			{
				"x": 1.4175581623,
				"y": -0.9629556628,
				"z": 0.6699167177,
				"element": "C" 
			},
			{
				"x": 1.0256287407,
				"y": 0.1220617199,
				"z": -0.1085800988,
				"element": "C" 
			},
			{
				"x": 0.2570727243,
				"y": -0.0582297108,
				"z": -1.265781311,
				"element": "C" 
			},
			{
				"x": -0.1148614368,
				"y": -1.3504411447,
				"z": -1.6250313633,
				"element": "C" 
			},
			{
				"x": 0.2758074534,
				"y": -2.4555800177,
				"z": -0.8640366706,
				"element": "C" 
			},
			{
				"x": 1.4192179762,
				"y": 1.4414729656,
				"z": 0.2819023221,
				"element": "N" 
			},
			{
				"x": 2.6946840065,
				"y": 1.9883782429,
				"z": 0.2877777485,
				"element": "C" 
			},
			{
				"x": 3.9226680803,
				"y": 1.2666865385,
				"z": -0.1530068911,
				"element": "C" 
			},
			{
				"x": 2.6477892897,
				"y": 3.2286317434,
				"z": 0.7045946331,
				"element": "N" 
			},
			{
				"x": 1.32720123,
				"y": 3.5369765098,
				"z": 0.9915102336,
				"element": "N" 
			},
			{
				"x": 0.6135961582,
				"y": 2.4678944515,
				"z": 0.7306644381,
				"element": "C" 
			},
			{
				"x": -1.1320160083,
				"y": 2.2838190167,
				"z": 0.9214185413,
				"element": "S" 
			},
			{
				"x": -1.4304764084,
				"y": 3.9401812632,
				"z": 1.6397244491,
				"element": "C" 
			},
			{
				"x": -2.9105219591,
				"y": 4.1036223651,
				"z": 1.895526441,
				"element": "C" 
			},
			{
				"x": -3.1706900294,
				"y": 5.3185972565,
				"z": 2.4262843725,
				"element": "O" 
			},
			{
				"x": -3.7679144794,
				"y": 3.2799923581,
				"z": 1.6683824861,
				"element": "O" 
			},
			{
				"x": 0.0321421181,
				"y": -4.7276077449,
				"z": 0.804700348,
				"element": "H" 
			},
			{
				"x": 1.5625384914,
				"y": -5.2124198193,
				"z": 1.5824350155,
				"element": "H" 
			},
			{
				"x": 1.5187119405,
				"y": -4.9070206656,
				"z": -0.1742364947,
				"element": "H" 
			},
			{
				"x": 1.9926994146,
				"y": -0.8218422744,
				"z": 1.5780103395,
				"element": "H" 
			},
			{
				"x": -0.0352040835,
				"y": 0.7990553784,
				"z": -1.8615125743,
				"element": "H" 
			},
			{
				"x": -0.7141375209,
				"y": -1.5073073591,
				"z": -2.516667663,
				"element": "H" 
			},
			{
				"x": -0.0251469171,
				"y": -3.4495165096,
				"z": -1.171718017,
				"element": "H" 
			},
			{
				"x": 4.1501846591,
				"y": 0.4085483166,
				"z": 0.487764926,
				"element": "H" 
			},
			{
				"x": 3.8244355983,
				"y": 0.8955857643,
				"z": -1.1788829544,
				"element": "H" 
			},
			{
				"x": 4.7582487883,
				"y": 1.9666774226,
				"z": -0.1091028634,
				"element": "H" 
			},
			{
				"x": -1.0729817924,
				"y": 4.7177735801,
				"z": 0.9602722744,
				"element": "H" 
			},
			{
				"x": -0.8701006524,
				"y": 4.0582081495,
				"z": 2.5706781779,
				"element": "H" 
			},
			{
				"x": -4.1321757458,
				"y": 5.3554324582,
				"z": 2.5650822562,
				"element": "H" 
			}
		],
		 "valence_orbital": [ 
			{
				"type": "occ",
				"energy": -0.28503,
				"method": "rhf"
			},
			{
				"type": "occ",
				"energy": -0.26868,
				"method": "rhf"
			},
			{
				"type": "occ",
				"energy": -0.24551,
				"method": "rhf"
			},
			{
				"type": "occ",
				"energy": -0.23709,
				"method": "rhf"
			},
			{
				"type": "occ",
				"energy": -0.21646,
				"method": "rhf"
			},
			{
				"type": "unocc",
				"energy": -0.02814,
				"method": "rhf"
			},
			{
				"type": "unocc",
				"energy": -0.01041,
				"method": "rhf"
			},
			{
				"type": "unocc",
				"energy": 0.0009,
				"method": "rhf"
			},
			{
				"type": "unocc",
				"energy": 0.0245,
				"method": "rhf"
			},
			{
				"type": "unocc",
				"energy": 0.02846,
				"method": "rhf"
			}
		],
		"cosmo_sigma_profile": { 
			"-0.025": 0.0,
			"-0.024": 0.0,
			"-0.023": 0.0,
			"-0.022": 0.0,
			"-0.021": 0.0,
			"-0.02": 0.0,
			"-0.019": 0.428386241544,
			"-0.018": 0.909348099313,
			"-0.017": 1.06192637178,
			"-0.016": 0.446444661492,
			"-0.015": 1.09746048224,
			"-0.014": 1.04384436822,
			"-0.013": 0.443955104607,
			"-0.012": 0.534948028647,
			"-0.011": 0.896287193922,
			"-0.01": 0.905825789255,
			"-0.009": 1.79605991273,
			"-0.008": 4.44864454058,
			"-0.007": 11.8465791599,
			"-0.006": 22.2430967526,
			"-0.005": 25.7570085311,
			"-0.004": 26.577298091,
			"-0.003": 24.8377828529,
			"-0.002": 21.4871268568,
			"-0.001": 17.7742794306,
			"0.0": 14.2359670695,
			"0.001": 14.4102206597,
			"0.002": 20.8951993566,
			"0.003": 19.6484475409,
			"0.004": 13.5138497298,
			"0.005": 9.73681736749,
			"0.006": 8.69362517448,
			"0.007": 7.33826757225,
			"0.008": 7.2837028063,
			"0.009": 5.8059490104,
			"0.01": 6.10137502456,
			"0.011": 6.19020533591,
			"0.012": 2.76018630781,
			"0.013": 3.42857546693,
			"0.014": 3.32747466901,
			"0.015": 1.87687965764,
			"0.016": 1.38063617677,
			"0.017": 0.611730808072,
			"0.018": 0.0263732438375,
			"0.019": 0.0,
			"0.02": 0.0,
			"0.021": 0.0,
			"0.022": 0.0,
			"0.023": 0.0,
			"0.024": 0.0,
			"0.025": 0.0
		}
	}
}
