{
	 "smiles": "NC(=O)C1CCCN1C(=O)COC(=O)C1=CC=CC=C1", 
	 "Tm": 467.15, 
	 "num_atms": 36, 
	 "gaussian": { 
		 "optdone": 1, 
		 "sigma_profile": "yes", 
		 "theory": "DFT", 
		 "functional": "B3LYP", 
		 "basiset": "6-31G**", 
		 "properties": { 
			 "R2extent": 6576.0378, 
			 "electric_dipole_moment_norm": 4.69725254377, 
			 "electric_quadrupole_moment_norm": 14.9388642738, 
			 "total_energy": -953.578433561, 
			 "HOMO_LUMO_gap": 0.17674, 
			 "cosmo_polarized_energy": -18.92, 
			 "cosmo_cavitation_energy": 39.25, 
			 "cosmo_dispersion_energy": -27.09, 
			 "cosmo_repulsion_energy": 2.1, 
			 "cosmo_total_nonelectrostatic_energy": 14.26, 
			 "SMD_solvation_energy": 7.6 
		},
		"coords": [
			{
				"x": -3.8230769167,
				"y": -1.2417368417,
				"z": 0.1078792592,
				"element": "N" 
			},
			{
				"x": -3.0361568964,
				"y": -1.4878516238,
				"z": -0.9694900415,
				"element": "C" 
			},
			{
				"x": -2.6378183751,
				"y": -2.6016734954,
				"z": -1.2903200444,
				"element": "O" 
			},
			{
				"x": -2.6906676363,
				"y": -0.2185768713,
				"z": -1.7912682479,
				"element": "C" 
			},
			{
				"x": -1.9555935161,
				"y": -0.5547041588,
				"z": -3.0915771773,
				"element": "C" 
			},
			{
				"x": -0.4780147648,
				"y": -0.5644342412,
				"z": -2.6724642538,
				"element": "C" 
			},
			{
				"x": -0.3738895252,
				"y": 0.5840735877,
				"z": -1.6590688472,
				"element": "C" 
			},
			{
				"x": -1.7251237187,
				"y": 0.6390610127,
				"z": -1.0572088193,
				"element": "N" 
			},
			{
				"x": -2.1835400335,
				"y": 1.5341049951,
				"z": -0.1463473442,
				"element": "C" 
			},
			{
				"x": -3.3760864884,
				"y": 1.6065804631,
				"z": 0.169698704,
				"element": "O" 
			},
			{
				"x": -1.2066614801,
				"y": 2.5458511016,
				"z": 0.4675486756,
				"element": "C" 
			},
			{
				"x": 0.0691688253,
				"y": 2.0239323065,
				"z": 0.8697628923,
				"element": "O" 
			},
			{
				"x": 0.0581777523,
				"y": 1.2474604534,
				"z": 1.9909884175,
				"element": "C" 
			},
			{
				"x": -0.9609922809,
				"y": 0.9808116685,
				"z": 2.593051551,
				"element": "O" 
			},
			{
				"x": 1.4186083596,
				"y": 0.7775236721,
				"z": 2.367449184,
				"element": "C" 
			},
			{
				"x": 2.5713408339,
				"y": 1.1677536888,
				"z": 1.6701555625,
				"element": "C" 
			},
			{
				"x": 3.8188292745,
				"y": 0.6931328885,
				"z": 2.0719866523,
				"element": "C" 
			},
			{
				"x": 3.9214317863,
				"y": -0.1691157566,
				"z": 3.1664240924,
				"element": "C" 
			},
			{
				"x": 2.7741285892,
				"y": -0.557410704,
				"z": 3.8639923982,
				"element": "C" 
			},
			{
				"x": 1.52583387,
				"y": -0.0854585478,
				"z": 3.4674563772,
				"element": "C" 
			},
			{
				"x": -3.9975572837,
				"y": -0.2824233447,
				"z": 0.3930663776,
				"element": "H" 
			},
			{
				"x": -3.9886113788,
				"y": -2.0023625854,
				"z": 0.7503406978,
				"element": "H" 
			},
			{
				"x": -3.6083647156,
				"y": 0.3570157267,
				"z": -1.945633662,
				"element": "H" 
			},
			{
				"x": -2.1455264975,
				"y": 0.2262186558,
				"z": -3.8360780205,
				"element": "H" 
			},
			{
				"x": -2.2817267044,
				"y": -1.5162207103,
				"z": -3.4893921494,
				"element": "H" 
			},
			{
				"x": 0.2133981114,
				"y": -0.4333642876,
				"z": -3.5090449953,
				"element": "H" 
			},
			{
				"x": -0.2535315204,
				"y": -1.5164923755,
				"z": -2.1838342497,
				"element": "H" 
			},
			{
				"x": -0.1457128601,
				"y": 1.5368811596,
				"z": -2.1563413036,
				"element": "H" 
			},
			{
				"x": 0.3903696093,
				"y": 0.4106330626,
				"z": -0.9015005819,
				"element": "H" 
			},
			{
				"x": -1.7256138724,
				"y": 2.982775496,
				"z": 1.3207468814,
				"element": "H" 
			},
			{
				"x": -0.9708617659,
				"y": 3.3234083776,
				"z": -0.265314932,
				"element": "H" 
			},
			{
				"x": 2.4847853333,
				"y": 1.8417535039,
				"z": 0.8256668119,
				"element": "H" 
			},
			{
				"x": 4.7113002336,
				"y": 0.9965642599,
				"z": 1.5328446915,
				"element": "H" 
			},
			{
				"x": 4.8951959172,
				"y": -0.5376001995,
				"z": 3.476262372,
				"element": "H" 
			},
			{
				"x": 2.8545723102,
				"y": -1.2273071077,
				"z": 4.7147606241,
				"element": "H" 
			},
			{
				"x": 0.6209874249,
				"y": -0.3718032287,
				"z": 3.9926024472,
				"element": "H" 
			}
		],
		 "valence_orbital": [ 
			{
				"type": "occ",
				"energy": -0.26613,
				"method": "rhf"
			},
			{
				"type": "occ",
				"energy": -0.26558,
				"method": "rhf"
			},
			{
				"type": "occ",
				"energy": -0.25997,
				"method": "rhf"
			},
			{
				"type": "occ",
				"energy": -0.25559,
				"method": "rhf"
			},
			{
				"type": "occ",
				"energy": -0.232,
				"method": "rhf"
			},
			{
				"type": "unocc",
				"energy": -0.05526,
				"method": "rhf"
			},
			{
				"type": "unocc",
				"energy": -0.01612,
				"method": "rhf"
			},
			{
				"type": "unocc",
				"energy": 0.00139,
				"method": "rhf"
			},
			{
				"type": "unocc",
				"energy": 0.03061,
				"method": "rhf"
			},
			{
				"type": "unocc",
				"energy": 0.04819,
				"method": "rhf"
			}
		],
		"cosmo_sigma_profile": { 
			"-0.025": 0.0,
			"-0.024": 0.0,
			"-0.023": 0.0,
			"-0.022": 0.0,
			"-0.021": 0.0,
			"-0.02": 0.0,
			"-0.019": 0.0,
			"-0.018": 0.0,
			"-0.017": 0.0,
			"-0.016": 0.0,
			"-0.015": 0.0,
			"-0.014": 0.37811936821,
			"-0.013": 1.36694209358,
			"-0.012": 1.23307557125,
			"-0.011": 0.573890722145,
			"-0.01": 0.769173468569,
			"-0.009": 2.82834468334,
			"-0.008": 5.33012010923,
			"-0.007": 6.51090787721,
			"-0.006": 16.3921409567,
			"-0.005": 22.6165330481,
			"-0.004": 30.861988962,
			"-0.003": 30.2569457301,
			"-0.002": 28.0078051882,
			"-0.001": 21.5099332427,
			"0.0": 21.0909314155,
			"0.001": 18.6908859238,
			"0.002": 16.6080067011,
			"0.003": 17.3096887884,
			"0.004": 16.5521285472,
			"0.005": 5.56702488125,
			"0.006": 4.50691751007,
			"0.007": 4.89295284903,
			"0.008": 4.33760962626,
			"0.009": 4.19151428596,
			"0.01": 5.19960710695,
			"0.011": 7.28784524975,
			"0.012": 5.60089460262,
			"0.013": 5.21177585987,
			"0.014": 4.68010142055,
			"0.015": 0.392236785378,
			"0.016": 0.0,
			"0.017": 0.0,
			"0.018": 0.0,
			"0.019": 0.0,
			"0.02": 0.0,
			"0.021": 0.0,
			"0.022": 0.0,
			"0.023": 0.0,
			"0.024": 0.0,
			"0.025": 0.0
		}
	}
}
