{
	 "smiles": "COC1=C(N)C=C(C=C1)S(=O)(=O)N1CCCCCC1", 
	 "Tm": 391.15, 
	 "num_atms": 39, 
	 "gaussian": { 
		 "optdone": 1, 
		 "sigma_profile": "yes", 
		 "theory": "DFT", 
		 "functional": "B3LYP", 
		 "basiset": "6-31G**", 
		 "properties": { 
			 "R2extent": 6975.8009, 
			 "electric_dipole_moment_norm": 6.62854836144, 
			 "electric_quadrupole_moment_norm": 26.8754256889, 
			 "total_energy": -1240.72561875, 
			 "HOMO_LUMO_gap": 0.18793, 
			 "cosmo_polarized_energy": -18.31, 
			 "cosmo_cavitation_energy": 40.66, 
			 "cosmo_dispersion_energy": -28.72, 
			 "cosmo_repulsion_energy": 2.19, 
			 "cosmo_total_nonelectrostatic_energy": 14.12, 
			 "SMD_solvation_energy": 5.59 
		},
		"coords": [
			{
				"x": -3.5560938326,
				"y": -3.8652644045,
				"z": -1.7151672153,
				"element": "C" 
			},
			{
				"x": -2.5274886676,
				"y": -3.6305971385,
				"z": -0.7644498981,
				"element": "O" 
			},
			{
				"x": -2.4018468169,
				"y": -2.3739319981,
				"z": -0.2400039473,
				"element": "C" 
			},
			{
				"x": -1.34993178,
				"y": -2.2456436322,
				"z": 0.7081806285,
				"element": "C" 
			},
			{
				"x": -0.6227152112,
				"y": -3.3739372263,
				"z": 1.0621544043,
				"element": "N" 
			},
			{
				"x": -1.1287840273,
				"y": -0.9961796773,
				"z": 1.2859097484,
				"element": "C" 
			},
			{
				"x": -1.933552824,
				"y": 0.093023907,
				"z": 0.9306409076,
				"element": "C" 
			},
			{
				"x": -2.9706970625,
				"y": -0.0336163563,
				"z": 0.0149996219,
				"element": "C" 
			},
			{
				"x": -3.1979623868,
				"y": -1.2829504859,
				"z": -0.5757552316,
				"element": "C" 
			},
			{
				"x": -1.6693816333,
				"y": 1.6695670101,
				"z": 1.7348597814,
				"element": "S" 
			},
			{
				"x": -1.5747125428,
				"y": 1.4679253678,
				"z": 3.1861781577,
				"element": "O" 
			},
			{
				"x": -2.6598359646,
				"y": 2.6138132201,
				"z": 1.1921413997,
				"element": "O" 
			},
			{
				"x": -0.0885816731,
				"y": 2.0482666531,
				"z": 1.2116950314,
				"element": "N" 
			},
			{
				"x": 0.6605785403,
				"y": 2.9520374168,
				"z": 2.1115488695,
				"element": "C" 
			},
			{
				"x": 2.1657195662,
				"y": 2.6668590951,
				"z": 2.1066674637,
				"element": "C" 
			},
			{
				"x": 2.8639088702,
				"y": 2.6785979293,
				"z": 0.735656269,
				"element": "C" 
			},
			{
				"x": 2.4626652173,
				"y": 1.4996671829,
				"z": -0.1709233192,
				"element": "C" 
			},
			{
				"x": 1.1425553254,
				"y": 1.662690727,
				"z": -0.9508123293,
				"element": "C" 
			},
			{
				"x": 0.0151129763,
				"y": 2.4069218441,
				"z": -0.2183671582,
				"element": "C" 
			},
			{
				"x": -3.478712692,
				"y": -4.9178637769,
				"z": -1.9908630219,
				"element": "H" 
			},
			{
				"x": -3.4248614719,
				"y": -3.2447383793,
				"z": -2.6105458262,
				"element": "H" 
			},
			{
				"x": -4.5474045101,
				"y": -3.6748343134,
				"z": -1.2862126465,
				"element": "H" 
			},
			{
				"x": -0.6601702601,
				"y": -4.1282127606,
				"z": 0.3918559299,
				"element": "H" 
			},
			{
				"x": 0.2984808374,
				"y": -3.2043883259,
				"z": 1.4381609123,
				"element": "H" 
			},
			{
				"x": -0.3379768033,
				"y": -0.8705234415,
				"z": 2.0183486115,
				"element": "H" 
			},
			{
				"x": -3.5880830814,
				"y": 0.8228949576,
				"z": -0.2272467076,
				"element": "H" 
			},
			{
				"x": -3.9999598582,
				"y": -1.3908712233,
				"z": -1.2961749527,
				"element": "H" 
			},
			{
				"x": 0.2747881109,
				"y": 2.814480272,
				"z": 3.1228781836,
				"element": "H" 
			},
			{
				"x": 0.475084681,
				"y": 3.998429092,
				"z": 1.8211302285,
				"element": "H" 
			},
			{
				"x": 2.3385903879,
				"y": 1.6912154743,
				"z": 2.5787366135,
				"element": "H" 
			},
			{
				"x": 2.6333474023,
				"y": 3.4167367285,
				"z": 2.7583245061,
				"element": "H" 
			},
			{
				"x": 3.9452515087,
				"y": 2.6295135301,
				"z": 0.9125130311,
				"element": "H" 
			},
			{
				"x": 2.6877373497,
				"y": 3.6359444313,
				"z": 0.2248268059,
				"element": "H" 
			},
			{
				"x": 2.4001140278,
				"y": 0.6001178704,
				"z": 0.4535496691,
				"element": "H" 
			},
			{
				"x": 3.2622039866,
				"y": 1.3075790275,
				"z": -0.896618156,
				"element": "H" 
			},
			{
				"x": 0.7861863319,
				"y": 0.667962529,
				"z": -1.2423937303,
				"element": "H" 
			},
			{
				"x": 1.3285706211,
				"y": 2.2097898881,
				"z": -1.8846021479,
				"element": "H" 
			},
			{
				"x": 0.1598954151,
				"y": 3.4932481112,
				"z": -0.2943502986,
				"element": "H" 
			},
			{
				"x": -0.9353380565,
				"y": 2.1973708747,
				"z": -0.7152701879,
				"element": "H" 
			}
		],
		 "valence_orbital": [ 
			{
				"type": "occ",
				"energy": -0.29227,
				"method": "rhf"
			},
			{
				"type": "occ",
				"energy": -0.28162,
				"method": "rhf"
			},
			{
				"type": "occ",
				"energy": -0.25113,
				"method": "rhf"
			},
			{
				"type": "occ",
				"energy": -0.23334,
				"method": "rhf"
			},
			{
				"type": "occ",
				"energy": -0.20555,
				"method": "rhf"
			},
			{
				"type": "unocc",
				"energy": -0.01762,
				"method": "rhf"
			},
			{
				"type": "unocc",
				"energy": 0.00158,
				"method": "rhf"
			},
			{
				"type": "unocc",
				"energy": 0.06383,
				"method": "rhf"
			},
			{
				"type": "unocc",
				"energy": 0.07616,
				"method": "rhf"
			},
			{
				"type": "unocc",
				"energy": 0.08376,
				"method": "rhf"
			}
		],
		"cosmo_sigma_profile": { 
			"-0.025": 0.0,
			"-0.024": 0.0,
			"-0.023": 0.0,
			"-0.022": 0.0,
			"-0.021": 0.0,
			"-0.02": 0.0,
			"-0.019": 0.0,
			"-0.018": 0.0,
			"-0.017": 0.0,
			"-0.016": 0.0,
			"-0.015": 0.0,
			"-0.014": 0.0,
			"-0.013": 0.858397676318,
			"-0.012": 1.66621290311,
			"-0.011": 2.39541106632,
			"-0.01": 2.67843525547,
			"-0.009": 2.44686682894,
			"-0.008": 2.73439280757,
			"-0.007": 4.51962623773,
			"-0.006": 11.5123533196,
			"-0.005": 15.6919980373,
			"-0.004": 21.6221317449,
			"-0.003": 33.345152098,
			"-0.002": 38.2479075485,
			"-0.001": 34.6311228545,
			"0.0": 28.3483159966,
			"0.001": 20.6755120111,
			"0.002": 15.8775923303,
			"0.003": 15.8825164881,
			"0.004": 14.548816956,
			"0.005": 7.39103026217,
			"0.006": 6.56435373614,
			"0.007": 4.85444799207,
			"0.008": 2.52358186495,
			"0.009": 4.25730447548,
			"0.01": 5.95753061877,
			"0.011": 9.37099383116,
			"0.012": 7.88671163027,
			"0.013": 1.44686515533,
			"0.014": 0.137451927373,
			"0.015": 0.0,
			"0.016": 0.0,
			"0.017": 0.0,
			"0.018": 0.0,
			"0.019": 0.0,
			"0.02": 0.0,
			"0.021": 0.0,
			"0.022": 0.0,
			"0.023": 0.0,
			"0.024": 0.0,
			"0.025": 0.0
		}
	}
}
