{
	 "smiles": "CC(=O)C1=CC=C(C=C1)C1=CC=C(Br)S1", 
	 "Tm": 422.15, 
	 "num_atms": 24, 
	 "gaussian": { 
		 "optdone": 1, 
		 "sigma_profile": "yes", 
		 "theory": "DFT", 
		 "functional": "B3LYP", 
		 "basiset": "6-31G**", 
		 "properties": { 
			 "R2extent": 8656.5208, 
			 "electric_dipole_moment_norm": 3.49032684716, 
			 "electric_quadrupole_moment_norm": 14.752449257, 
			 "total_energy": -3507.50684744, 
			 "HOMO_LUMO_gap": 0.14877, 
			 "cosmo_polarized_energy": -9.74, 
			 "cosmo_cavitation_energy": 32.59, 
			 "cosmo_dispersion_energy": -24.64, 
			 "cosmo_repulsion_energy": 1.86, 
			 "cosmo_total_nonelectrostatic_energy": 9.81, 
			 "SMD_solvation_energy": 4.65 
		},
		"coords": [
			{
				"x": 3.0437448977,
				"y": 4.446260718,
				"z": 0.4747425659,
				"element": "C" 
			},
			{
				"x": 2.8817211061,
				"y": 3.1279777529,
				"z": 1.2133472027,
				"element": "C" 
			},
			{
				"x": 3.7270897689,
				"y": 2.7562118408,
				"z": 2.0141536738,
				"element": "O" 
			},
			{
				"x": 1.6684623157,
				"y": 2.2923974644,
				"z": 0.9438650667,
				"element": "C" 
			},
			{
				"x": 1.5311372366,
				"y": 1.0755947613,
				"z": 1.6304173603,
				"element": "C" 
			},
			{
				"x": 0.425710151,
				"y": 0.263178778,
				"z": 1.4248175626,
				"element": "C" 
			},
			{
				"x": -0.5854345071,
				"y": 0.6334118881,
				"z": 0.5153822875,
				"element": "C" 
			},
			{
				"x": -0.4390689379,
				"y": 1.8491990997,
				"z": -0.1795947487,
				"element": "C" 
			},
			{
				"x": 0.6645755046,
				"y": 2.6664625202,
				"z": 0.0371876791,
				"element": "C" 
			},
			{
				"x": -1.7634238898,
				"y": -0.2083186604,
				"z": 0.2893764609,
				"element": "C" 
			},
			{
				"x": -3.0093795564,
				"y": 0.163293199,
				"z": -0.1657733199,
				"element": "C" 
			},
			{
				"x": -3.9361080901,
				"y": -0.911635173,
				"z": -0.271453046,
				"element": "C" 
			},
			{
				"x": -3.3815850413,
				"y": -2.1033861985,
				"z": 0.1065377086,
				"element": "C" 
			},
			{
				"x": -4.225072903,
				"y": -3.7873940158,
				"z": 0.1321841406,
				"element": "Br" 
			},
			{
				"x": -1.7216405489,
				"y": -1.9388955739,
				"z": 0.5934576003,
				"element": "S" 
			},
			{
				"x": 3.0683659148,
				"y": 4.2899835136,
				"z": -0.6094540626,
				"element": "H" 
			},
			{
				"x": 2.2085002027,
				"y": 5.1225150829,
				"z": 0.6882633414,
				"element": "H" 
			},
			{
				"x": 3.9763881189,
				"y": 4.9119115811,
				"z": 0.7940560973,
				"element": "H" 
			},
			{
				"x": 2.3088487616,
				"y": 0.7943310485,
				"z": 2.3324843588,
				"element": "H" 
			},
			{
				"x": 0.3300240493,
				"y": -0.6603413202,
				"z": 1.9887203051,
				"element": "H" 
			},
			{
				"x": -1.1859486984,
				"y": 2.1419353015,
				"z": -0.9104270803,
				"element": "H" 
			},
			{
				"x": 0.7450394405,
				"y": 3.5958278007,
				"z": -0.5174395146,
				"element": "H" 
			},
			{
				"x": -3.2697469039,
				"y": 1.1906339791,
				"z": -0.3928989557,
				"element": "H" 
			},
			{
				"x": -4.9620983918,
				"y": -0.8090553881,
				"z": -0.6015526838,
				"element": "H" 
			}
		],
		 "valence_orbital": [ 
			{
				"type": "occ",
				"energy": -0.27818,
				"method": "rhf"
			},
			{
				"type": "occ",
				"energy": -0.27033,
				"method": "rhf"
			},
			{
				"type": "occ",
				"energy": -0.26644,
				"method": "rhf"
			},
			{
				"type": "occ",
				"energy": -0.24989,
				"method": "rhf"
			},
			{
				"type": "occ",
				"energy": -0.2216,
				"method": "rhf"
			},
			{
				"type": "unocc",
				"energy": -0.07283,
				"method": "rhf"
			},
			{
				"type": "unocc",
				"energy": -0.02259,
				"method": "rhf"
			},
			{
				"type": "unocc",
				"energy": -0.01828,
				"method": "rhf"
			},
			{
				"type": "unocc",
				"energy": -0.00809,
				"method": "rhf"
			},
			{
				"type": "unocc",
				"energy": 0.01427,
				"method": "rhf"
			}
		],
		"cosmo_sigma_profile": { 
			"-0.025": 0.0,
			"-0.024": 0.0,
			"-0.023": 0.0,
			"-0.022": 0.0,
			"-0.021": 0.0,
			"-0.02": 0.0,
			"-0.019": 0.0,
			"-0.018": 0.0,
			"-0.017": 0.0,
			"-0.016": 0.0,
			"-0.015": 0.0,
			"-0.014": 0.0,
			"-0.013": 0.0,
			"-0.012": 0.0,
			"-0.011": 0.0,
			"-0.01": 0.0,
			"-0.009": 0.0532843881803,
			"-0.008": 3.28675549092,
			"-0.007": 7.47608721508,
			"-0.006": 17.2740364239,
			"-0.005": 18.9065562006,
			"-0.004": 16.1713062452,
			"-0.003": 15.869133007,
			"-0.002": 16.5819372652,
			"-0.001": 22.3547149971,
			"0.0": 20.63434976,
			"0.001": 24.5976532053,
			"0.002": 34.1461025609,
			"0.003": 37.9572375678,
			"0.004": 12.7727447681,
			"0.005": 1.74038681297,
			"0.006": 1.91140242013,
			"0.007": 1.50939544132,
			"0.008": 1.20459846375,
			"0.009": 2.30217861852,
			"0.01": 1.50226236509,
			"0.011": 3.17885076714,
			"0.012": 4.02394837415,
			"0.013": 1.61999481896,
			"0.014": 0.213365651583,
			"0.015": 0.0,
			"0.016": 0.0,
			"0.017": 0.0,
			"0.018": 0.0,
			"0.019": 0.0,
			"0.02": 0.0,
			"0.021": 0.0,
			"0.022": 0.0,
			"0.023": 0.0,
			"0.024": 0.0,
			"0.025": 0.0
		}
	}
}
