{
	 "smiles": "COC(=O)C1=CC(NC(=O)CC(C)=O)=CC=C1", 
	 "Tm": 349.15, 
	 "num_atms": 30, 
	 "gaussian": { 
		 "optdone": 1, 
		 "sigma_profile": "yes", 
		 "theory": "DFT", 
		 "functional": "B3LYP", 
		 "basiset": "6-31G**", 
		 "properties": { 
			 "R2extent": 5498.739, 
			 "electric_dipole_moment_norm": 1.56446719684, 
			 "electric_quadrupole_moment_norm": 18.707564009, 
			 "total_energy": -820.785135096, 
			 "HOMO_LUMO_gap": 0.18726, 
			 "cosmo_polarized_energy": -17.24, 
			 "cosmo_cavitation_energy": 34.9, 
			 "cosmo_dispersion_energy": -24.16, 
			 "cosmo_repulsion_energy": 1.87, 
			 "cosmo_total_nonelectrostatic_energy": 12.61, 
			 "SMD_solvation_energy": 8.89 
		},
		"coords": [
			{
				"x": -2.3272445882,
				"y": -3.2784806363,
				"z": 3.1211336088,
				"element": "C" 
			},
			{
				"x": -1.7683575957,
				"y": -2.032632763,
				"z": 2.6789686525,
				"element": "O" 
			},
			{
				"x": -1.9529858278,
				"y": -0.9848798698,
				"z": 3.5059919851,
				"element": "C" 
			},
			{
				"x": -2.5528272434,
				"y": -1.0605162623,
				"z": 4.5612307899,
				"element": "O" 
			},
			{
				"x": -1.340849758,
				"y": 0.2715054066,
				"z": 2.9763916268,
				"element": "C" 
			},
			{
				"x": -0.6451538822,
				"y": 0.2970554584,
				"z": 1.7596423554,
				"element": "C" 
			},
			{
				"x": -0.1011572672,
				"y": 1.5045762382,
				"z": 1.3048611627,
				"element": "C" 
			},
			{
				"x": 0.6380593645,
				"y": 1.6005713704,
				"z": 0.0966786827,
				"element": "N" 
			},
			{
				"x": 0.4132449101,
				"y": 1.1158927978,
				"z": -1.1720854697,
				"element": "C" 
			},
			{
				"x": 1.2171143405,
				"y": 1.3445995133,
				"z": -2.0681324028,
				"element": "O" 
			},
			{
				"x": -0.8493909115,
				"y": 0.2993628672,
				"z": -1.4416448952,
				"element": "C" 
			},
			{
				"x": -0.4586770541,
				"y": -1.1713658794,
				"z": -1.6646442313,
				"element": "C" 
			},
			{
				"x": 0.0194232107,
				"y": -1.5273266259,
				"z": -3.0512341156,
				"element": "C" 
			},
			{
				"x": -0.5074471923,
				"y": -1.9725665389,
				"z": -0.7505843377,
				"element": "O" 
			},
			{
				"x": -0.223496556,
				"y": 2.6617971283,
				"z": 2.0898289089,
				"element": "C" 
			},
			{
				"x": -0.8930324902,
				"y": 2.618931362,
				"z": 3.310970876,
				"element": "C" 
			},
			{
				"x": -1.4627925678,
				"y": 1.4279809599,
				"z": 3.7547973669,
				"element": "C" 
			},
			{
				"x": -1.8848543167,
				"y": -3.5813902619,
				"z": 4.0736126981,
				"element": "H" 
			},
			{
				"x": -3.4092533694,
				"y": -3.1904935388,
				"z": 3.2482893786,
				"element": "H" 
			},
			{
				"x": -2.0884512881,
				"y": -3.998515809,
				"z": 2.3391157512,
				"element": "H" 
			},
			{
				"x": -0.5299244055,
				"y": -0.6169119669,
				"z": 1.1870672649,
				"element": "H" 
			},
			{
				"x": 1.4509994667,
				"y": 2.2055776767,
				"z": 0.1150114096,
				"element": "H" 
			},
			{
				"x": -1.5759803469,
				"y": 0.3594741807,
				"z": -0.6323449236,
				"element": "H" 
			},
			{
				"x": -1.2780262034,
				"y": 0.7141656282,
				"z": -2.3581635373,
				"element": "H" 
			},
			{
				"x": 0.7911093192,
				"y": -0.8121439221,
				"z": -3.3567723806,
				"element": "H" 
			},
			{
				"x": -0.8077701191,
				"y": -1.4294555853,
				"z": -3.7649553877,
				"element": "H" 
			},
			{
				"x": 0.4008077009,
				"y": -2.5489716458,
				"z": -3.0697856751,
				"element": "H" 
			},
			{
				"x": 0.20345914,
				"y": 3.5948072597,
				"z": 1.7316958064,
				"element": "H" 
			},
			{
				"x": -0.9779456017,
				"y": 3.5210339889,
				"z": 3.9091098587,
				"element": "H" 
			},
			{
				"x": -1.9971988675,
				"y": 1.3686194691,
				"z": 4.6962491736,
				"element": "H" 
			}
		],
		 "valence_orbital": [ 
			{
				"type": "occ",
				"energy": -0.27412,
				"method": "rhf"
			},
			{
				"type": "occ",
				"energy": -0.26973,
				"method": "rhf"
			},
			{
				"type": "occ",
				"energy": -0.26755,
				"method": "rhf"
			},
			{
				"type": "occ",
				"energy": -0.25542,
				"method": "rhf"
			},
			{
				"type": "occ",
				"energy": -0.23929,
				"method": "rhf"
			},
			{
				"type": "unocc",
				"energy": -0.05203,
				"method": "rhf"
			},
			{
				"type": "unocc",
				"energy": -0.03235,
				"method": "rhf"
			},
			{
				"type": "unocc",
				"energy": -0.01693,
				"method": "rhf"
			},
			{
				"type": "unocc",
				"energy": 0.02105,
				"method": "rhf"
			},
			{
				"type": "unocc",
				"energy": 0.05387,
				"method": "rhf"
			}
		],
		"cosmo_sigma_profile": { 
			"-0.025": 0.0,
			"-0.024": 0.0,
			"-0.023": 0.0,
			"-0.022": 0.0,
			"-0.021": 0.0,
			"-0.02": 0.0,
			"-0.019": 0.0,
			"-0.018": 0.0,
			"-0.017": 0.0,
			"-0.016": 0.0,
			"-0.015": 0.394692558684,
			"-0.014": 1.35334953372,
			"-0.013": 1.2340936844,
			"-0.012": 0.605216688114,
			"-0.011": 1.17130814248,
			"-0.01": 1.24140275189,
			"-0.009": 1.43733567755,
			"-0.008": 3.48959428069,
			"-0.007": 9.6547402143,
			"-0.006": 16.6755271585,
			"-0.005": 20.9997618627,
			"-0.004": 24.8374594665,
			"-0.003": 24.5372566873,
			"-0.002": 21.5977138009,
			"-0.001": 21.1733221386,
			"0.0": 15.710052914,
			"0.001": 17.9507366033,
			"0.002": 16.504423725,
			"0.003": 15.123550638,
			"0.004": 7.36122786211,
			"0.005": 5.6663607242,
			"0.006": 5.60440333903,
			"0.007": 5.34210958118,
			"0.008": 4.83810082299,
			"0.009": 6.95784938513,
			"0.01": 6.76316161169,
			"0.011": 6.30956291757,
			"0.012": 8.4765808568,
			"0.013": 4.46630310715,
			"0.014": 0.379735033622,
			"0.015": 0.0,
			"0.016": 0.0,
			"0.017": 0.0,
			"0.018": 0.0,
			"0.019": 0.0,
			"0.02": 0.0,
			"0.021": 0.0,
			"0.022": 0.0,
			"0.023": 0.0,
			"0.024": 0.0,
			"0.025": 0.0
		}
	}
}
