{
	 "smiles": "CC(=O)C1=C(C)C2=C(CC(=O)NC2=O)N1", 
	 "Tm": 628.15, 
	 "num_atms": 25, 
	 "gaussian": { 
		 "optdone": 1, 
		 "sigma_profile": "yes", 
		 "theory": "DFT", 
		 "functional": "B3LYP", 
		 "basiset": "6-31G**", 
		 "properties": { 
			 "R2extent": 4509.2183, 
			 "electric_dipole_moment_norm": 5.14435224688, 
			 "electric_quadrupole_moment_norm": 16.1900451673, 
			 "total_energy": -722.308787559, 
			 "HOMO_LUMO_gap": 0.18553, 
			 "cosmo_polarized_energy": -24.21, 
			 "cosmo_cavitation_energy": 29.37, 
			 "cosmo_dispersion_energy": -21.48, 
			 "cosmo_repulsion_energy": 1.68, 
			 "cosmo_total_nonelectrostatic_energy": 9.56, 
			 "SMD_solvation_energy": 6.66 
		},
		"coords": [
			{
				"x": -1.2323857757,
				"y": 1.5327908196,
				"z": 1.8927530208,
				"element": "C" 
			},
			{
				"x": -0.9054469252,
				"y": 0.1730544108,
				"z": 1.2844633798,
				"element": "C" 
			},
			{
				"x": -1.4934109493,
				"y": -0.8383295466,
				"z": 1.6500974753,
				"element": "O" 
			},
			{
				"x": 0.129936274,
				"y": 0.1131064283,
				"z": 0.2524067504,
				"element": "C" 
			},
			{
				"x": 0.6099141991,
				"y": -0.989959702,
				"z": -0.4524888707,
				"element": "C" 
			},
			{
				"x": 0.1605346929,
				"y": -2.4118426136,
				"z": -0.3096124521,
				"element": "C" 
			},
			{
				"x": 1.6131731336,
				"y": -0.4861120453,
				"z": -1.3340497169,
				"element": "C" 
			},
			{
				"x": 1.7174547068,
				"y": 0.8884611167,
				"z": -1.1472058495,
				"element": "C" 
			},
			{
				"x": 2.6504233711,
				"y": 1.7923670732,
				"z": -1.8753991767,
				"element": "C" 
			},
			{
				"x": 3.5261103722,
				"y": 1.0547438381,
				"z": -2.8921185386,
				"element": "C" 
			},
			{
				"x": 4.3424230119,
				"y": 1.6469436778,
				"z": -3.5723134987,
				"element": "O" 
			},
			{
				"x": 3.3443540435,
				"y": -0.3148294841,
				"z": -3.002002423,
				"element": "N" 
			},
			{
				"x": 2.4571157194,
				"y": -1.171189237,
				"z": -2.3090765268,
				"element": "C" 
			},
			{
				"x": 2.4591304624,
				"y": -2.3647333169,
				"z": -2.5627740562,
				"element": "O" 
			},
			{
				"x": 0.825842518,
				"y": 1.2432508879,
				"z": -0.1947158059,
				"element": "N" 
			},
			{
				"x": -1.5842460143,
				"y": 2.2365518665,
				"z": 1.1283522822,
				"element": "H" 
			},
			{
				"x": -2.0171512371,
				"y": 1.4000934396,
				"z": 2.6378091878,
				"element": "H" 
			},
			{
				"x": -0.352941146,
				"y": 1.9734068392,
				"z": 2.3783724575,
				"element": "H" 
			},
			{
				"x": -0.9111802172,
				"y": -2.500913935,
				"z": -0.5124277855,
				"element": "H" 
			},
			{
				"x": 0.7168329675,
				"y": -3.053281394,
				"z": -0.9926555946,
				"element": "H" 
			},
			{
				"x": 0.3008448869,
				"y": -2.7603158422,
				"z": 0.7182590496,
				"element": "H" 
			},
			{
				"x": 3.334350593,
				"y": 2.3161946914,
				"z": -1.1952580743,
				"element": "H" 
			},
			{
				"x": 2.1186099289,
				"y": 2.5757792447,
				"z": -2.4305554328,
				"element": "H" 
			},
			{
				"x": 3.93713216,
				"y": -0.7772606477,
				"z": -3.6832303796,
				"element": "H" 
			},
			{
				"x": 0.6802792239,
				"y": 2.1812234307,
				"z": 0.1460705783,
				"element": "H" 
			}
		],
		 "valence_orbital": [ 
			{
				"type": "occ",
				"energy": -0.28844,
				"method": "rhf"
			},
			{
				"type": "occ",
				"energy": -0.27017,
				"method": "rhf"
			},
			{
				"type": "occ",
				"energy": -0.26706,
				"method": "rhf"
			},
			{
				"type": "occ",
				"energy": -0.2524,
				"method": "rhf"
			},
			{
				"type": "occ",
				"energy": -0.23825,
				"method": "rhf"
			},
			{
				"type": "unocc",
				"energy": -0.05272,
				"method": "rhf"
			},
			{
				"type": "unocc",
				"energy": -0.04692,
				"method": "rhf"
			},
			{
				"type": "unocc",
				"energy": 0.01011,
				"method": "rhf"
			},
			{
				"type": "unocc",
				"energy": 0.04572,
				"method": "rhf"
			},
			{
				"type": "unocc",
				"energy": 0.064,
				"method": "rhf"
			}
		],
		"cosmo_sigma_profile": { 
			"-0.025": 0.0,
			"-0.024": 0.0,
			"-0.023": 0.0,
			"-0.022": 0.0,
			"-0.021": 0.0,
			"-0.02": 0.0,
			"-0.019": 0.0,
			"-0.018": 0.0151076111592,
			"-0.017": 0.566553510269,
			"-0.016": 1.27208418465,
			"-0.015": 1.60895962912,
			"-0.014": 2.39215026413,
			"-0.013": 2.40744169907,
			"-0.012": 2.70082252606,
			"-0.011": 1.4387610084,
			"-0.01": 2.91652251357,
			"-0.009": 5.833522392,
			"-0.008": 9.99291083195,
			"-0.007": 9.10628033795,
			"-0.006": 9.99818133833,
			"-0.005": 8.96872189597,
			"-0.004": 12.082760185,
			"-0.003": 12.4581658183,
			"-0.002": 15.1447644215,
			"-0.001": 20.1552891991,
			"0.0": 16.1459140429,
			"0.001": 15.8288874125,
			"0.002": 12.2000263859,
			"0.003": 8.732412356,
			"0.004": 5.37332618646,
			"0.005": 4.79641473916,
			"0.006": 4.79767262842,
			"0.007": 4.47178218868,
			"0.008": 4.11478474355,
			"0.009": 4.31350803932,
			"0.01": 5.93802444069,
			"0.011": 7.98109907024,
			"0.012": 12.718458395,
			"0.013": 5.95503594717,
			"0.014": 0.837213510557,
			"0.015": 0.0,
			"0.016": 0.0,
			"0.017": 0.0,
			"0.018": 0.0,
			"0.019": 0.0,
			"0.02": 0.0,
			"0.021": 0.0,
			"0.022": 0.0,
			"0.023": 0.0,
			"0.024": 0.0,
			"0.025": 0.0
		}
	}
}
