{
	 "smiles": "NC1=CC=C(C=C1)C1=CSN=N1", 
	 "Tm": 399.15, 
	 "num_atms": 19, 
	 "gaussian": { 
		 "optdone": 1, 
		 "sigma_profile": "yes", 
		 "theory": "DFT", 
		 "functional": "B3LYP", 
		 "basiset": "6-31G**", 
		 "properties": { 
			 "R2extent": 3048.0318, 
			 "electric_dipole_moment_norm": 4.80203958751, 
			 "electric_quadrupole_moment_norm": 14.0547518982, 
			 "total_energy": -871.475006627, 
			 "HOMO_LUMO_gap": 0.14619, 
			 "cosmo_polarized_energy": -13.35, 
			 "cosmo_cavitation_energy": 25.24, 
			 "cosmo_dispersion_energy": -19.56, 
			 "cosmo_repulsion_energy": 1.48, 
			 "cosmo_total_nonelectrostatic_energy": 7.17, 
			 "SMD_solvation_energy": 2.55 
		},
		"coords": [
			{
				"x": 2.6138023589,
				"y": 3.1353862865,
				"z": 1.6867543494,
				"element": "N" 
			},
			{
				"x": 1.847513517,
				"y": 2.0714478195,
				"z": 1.222340377,
				"element": "C" 
			},
			{
				"x": 0.5461750231,
				"y": 1.8507763413,
				"z": 1.708201327,
				"element": "C" 
			},
			{
				"x": -0.1958942246,
				"y": 0.7569835075,
				"z": 1.2839157615,
				"element": "C" 
			},
			{
				"x": 0.326025618,
				"y": -0.1633228934,
				"z": 0.3580382424,
				"element": "C" 
			},
			{
				"x": 1.625363524,
				"y": 0.0626995941,
				"z": -0.1253915209,
				"element": "C" 
			},
			{
				"x": 2.3740287377,
				"y": 1.1539538376,
				"z": 0.2943859683,
				"element": "C" 
			},
			{
				"x": -0.4771521044,
				"y": -1.3143061262,
				"z": -0.0773736735,
				"element": "C" 
			},
			{
				"x": -0.117400512,
				"y": -2.3496833142,
				"z": -0.9156043802,
				"element": "C" 
			},
			{
				"x": -1.4209809698,
				"y": -3.4305943994,
				"z": -1.0982267727,
				"element": "S" 
			},
			{
				"x": -2.4242160721,
				"y": -2.4583952586,
				"z": -0.0337603553,
				"element": "N" 
			},
			{
				"x": -1.7794618087,
				"y": -1.4457691511,
				"z": 0.3747702231,
				"element": "N" 
			},
			{
				"x": 2.0973777267,
				"y": 3.913087632,
				"z": 2.0728323466,
				"element": "H" 
			},
			{
				"x": 3.3668603072,
				"y": 3.4330229597,
				"z": 1.0827551223,
				"element": "H" 
			},
			{
				"x": 0.1192057215,
				"y": 2.544539871,
				"z": 2.4282349183,
				"element": "H" 
			},
			{
				"x": -1.1986652654,
				"y": 0.6035245729,
				"z": 1.6669354325,
				"element": "H" 
			},
			{
				"x": 2.0644508014,
				"y": -0.6185859565,
				"z": -0.8486636065,
				"element": "H" 
			},
			{
				"x": 3.3781823638,
				"y": 1.3019851831,
				"z": -0.0950095437,
				"element": "H" 
			},
			{
				"x": 0.8333852578,
				"y": -2.5045505059,
				"z": -1.4038342157,
				"element": "H" 
			}
		],
		 "valence_orbital": [ 
			{
				"type": "occ",
				"energy": -0.30403,
				"method": "rhf"
			},
			{
				"type": "occ",
				"energy": -0.26916,
				"method": "rhf"
			},
			{
				"type": "occ",
				"energy": -0.2557,
				"method": "rhf"
			},
			{
				"type": "occ",
				"energy": -0.25424,
				"method": "rhf"
			},
			{
				"type": "occ",
				"energy": -0.19976,
				"method": "rhf"
			},
			{
				"type": "unocc",
				"energy": -0.05357,
				"method": "rhf"
			},
			{
				"type": "unocc",
				"energy": -0.01426,
				"method": "rhf"
			},
			{
				"type": "unocc",
				"energy": -0.00592,
				"method": "rhf"
			},
			{
				"type": "unocc",
				"energy": -0.0019,
				"method": "rhf"
			},
			{
				"type": "unocc",
				"energy": 0.06804,
				"method": "rhf"
			}
		],
		"cosmo_sigma_profile": { 
			"-0.025": 0.0,
			"-0.024": 0.0,
			"-0.023": 0.0,
			"-0.022": 0.0,
			"-0.021": 0.0,
			"-0.02": 0.0,
			"-0.019": 0.0,
			"-0.018": 0.0,
			"-0.017": 0.0,
			"-0.016": 0.0,
			"-0.015": 0.0,
			"-0.014": 0.0,
			"-0.013": 0.91924640304,
			"-0.012": 3.2060390467,
			"-0.011": 3.31126673169,
			"-0.01": 5.44671982889,
			"-0.009": 5.95250291888,
			"-0.008": 5.22121359468,
			"-0.007": 6.04431652204,
			"-0.006": 7.07758663069,
			"-0.005": 7.08546077009,
			"-0.004": 10.2870031504,
			"-0.003": 10.5079239186,
			"-0.002": 9.70249474249,
			"-0.001": 13.6784115594,
			"0.0": 17.0339032491,
			"0.001": 19.1221191876,
			"0.002": 13.1793901145,
			"0.003": 10.8406032821,
			"0.004": 11.0892120249,
			"0.005": 13.2625062029,
			"0.006": 10.5816481516,
			"0.007": 3.53927235211,
			"0.008": 3.69753468,
			"0.009": 3.31922520233,
			"0.01": 4.35282840346,
			"0.011": 3.05559955512,
			"0.012": 2.45643281582,
			"0.013": 0.934275977711,
			"0.014": 0.26892326816,
			"0.015": 0.0,
			"0.016": 0.0,
			"0.017": 0.0,
			"0.018": 0.0,
			"0.019": 0.0,
			"0.02": 0.0,
			"0.021": 0.0,
			"0.022": 0.0,
			"0.023": 0.0,
			"0.024": 0.0,
			"0.025": 0.0
		}
	}
}
