{
	 "smiles": "ClC1=CC=C(C=C1)C1=C(C(=NO1)C(=O)C1=CC=CO1)S(=O)(=O)C1=CC=CC=C1", 
	 "Tm": 413.15, 
	 "num_atms": 40, 
	 "gaussian": { 
		 "optdone": 1, 
		 "sigma_profile": "yes", 
		 "theory": "DFT", 
		 "functional": "B3LYP", 
		 "basiset": "6-31G**", 
		 "properties": { 
			 "R2extent": 13328.6933, 
			 "electric_dipole_moment_norm": 2.12628217554, 
			 "electric_quadrupole_moment_norm": 28.5376430413, 
			 "total_energy": -2058.45094991, 
			 "HOMO_LUMO_gap": 0.17524, 
			 "cosmo_polarized_energy": -18.92, 
			 "cosmo_cavitation_energy": 49.34, 
			 "cosmo_dispersion_energy": -34.27, 
			 "cosmo_repulsion_energy": 2.53, 
			 "cosmo_total_nonelectrostatic_energy": 17.61, 
			 "SMD_solvation_energy": 8.7 
		},
		"coords": [
			{
				"x": 5.923519879,
				"y": -0.6456916739,
				"z": -2.2557039786,
				"element": "Cl" 
			},
			{
				"x": 4.3179731949,
				"y": -0.675036264,
				"z": -1.5524986317,
				"element": "C" 
			},
			{
				"x": 3.9557035621,
				"y": 0.3001560287,
				"z": -0.6241443246,
				"element": "C" 
			},
			{
				"x": 2.6791120765,
				"y": 0.2803292709,
				"z": -0.0670126352,
				"element": "C" 
			},
			{
				"x": 1.7592322525,
				"y": -0.7139796112,
				"z": -0.4386018408,
				"element": "C" 
			},
			{
				"x": 2.1511666015,
				"y": -1.6962821038,
				"z": -1.3686946785,
				"element": "C" 
			},
			{
				"x": 3.423013684,
				"y": -1.6778692391,
				"z": -1.9294078361,
				"element": "C" 
			},
			{
				"x": 0.409542879,
				"y": -0.8038783382,
				"z": 0.132267905,
				"element": "C" 
			},
			{
				"x": -0.5835627397,
				"y": 0.0563292056,
				"z": 0.5641082726,
				"element": "C" 
			},
			{
				"x": -1.6682604358,
				"y": -0.8089070064,
				"z": 0.9263793047,
				"element": "C" 
			},
			{
				"x": -1.3568365256,
				"y": -2.0706941875,
				"z": 0.747676291,
				"element": "N" 
			},
			{
				"x": -0.0568152739,
				"y": -2.0692557133,
				"z": 0.2459974847,
				"element": "O" 
			},
			{
				"x": -3.0894521904,
				"y": -0.4798094513,
				"z": 1.3347508494,
				"element": "C" 
			},
			{
				"x": -3.7927945364,
				"y": 0.2071225766,
				"z": 0.6096075713,
				"element": "O" 
			},
			{
				"x": -3.5485442792,
				"y": -1.0699838594,
				"z": 2.5808567778,
				"element": "C" 
			},
			{
				"x": -2.9440732344,
				"y": -1.8646104025,
				"z": 3.5300765509,
				"element": "C" 
			},
			{
				"x": -3.918815418,
				"y": -2.1048553722,
				"z": 4.5352037553,
				"element": "C" 
			},
			{
				"x": -5.0446075842,
				"y": -1.4399279394,
				"z": 4.1286486097,
				"element": "C" 
			},
			{
				"x": -4.8415426013,
				"y": -0.8112551151,
				"z": 2.9531841537,
				"element": "O" 
			},
			{
				"x": -0.6122819246,
				"y": 1.8394633604,
				"z": 0.720550591,
				"element": "S" 
			},
			{
				"x": 0.7505611853,
				"y": 2.2952136135,
				"z": 1.0426633041,
				"element": "O" 
			},
			{
				"x": -1.7230202447,
				"y": 2.1351239254,
				"z": 1.6306770605,
				"element": "O" 
			},
			{
				"x": -1.0065762733,
				"y": 2.4391824276,
				"z": -0.9258118518,
				"element": "C" 
			},
			{
				"x": -0.002077922,
				"y": 3.0627241837,
				"z": -1.6687676091,
				"element": "C" 
			},
			{
				"x": -0.3121800556,
				"y": 3.5519398414,
				"z": -2.9382347729,
				"element": "C" 
			},
			{
				"x": -1.6059785115,
				"y": 3.4122063949,
				"z": -3.4448840433,
				"element": "C" 
			},
			{
				"x": -2.5988014632,
				"y": 2.785842277,
				"z": -2.6861939184,
				"element": "C" 
			},
			{
				"x": -2.3087454523,
				"y": 2.2943893652,
				"z": -1.4137020476,
				"element": "C" 
			},
			{
				"x": 4.6673403402,
				"y": 1.0643449718,
				"z": -0.3325573107,
				"element": "H" 
			},
			{
				"x": 2.3962425146,
				"y": 1.0317166516,
				"z": 0.6584713261,
				"element": "H" 
			},
			{
				"x": 1.4514303938,
				"y": -2.472501079,
				"z": -1.6573634779,
				"element": "H" 
			},
			{
				"x": 3.719023771,
				"y": -2.4298952698,
				"z": -2.651921318,
				"element": "H" 
			},
			{
				"x": -1.930233263,
				"y": -2.2330054635,
				"z": 3.4936080489,
				"element": "H" 
			},
			{
				"x": -3.8050724185,
				"y": -2.6885526717,
				"z": 5.4367844058,
				"element": "H" 
			},
			{
				"x": -6.0285557038,
				"y": -1.3275858252,
				"z": 4.558823187,
				"element": "H" 
			},
			{
				"x": 0.9912000681,
				"y": 3.1696423696,
				"z": -1.2482317395,
				"element": "H" 
			},
			{
				"x": 0.4555985197,
				"y": 4.0439163297,
				"z": -3.5275657462,
				"element": "H" 
			},
			{
				"x": -1.842506055,
				"y": 3.7945814253,
				"z": -4.4336329643,
				"element": "H" 
			},
			{
				"x": -3.6039315618,
				"y": 2.681805636,
				"z": -3.0832419092,
				"element": "H" 
			},
			{
				"x": -3.0658952538,
				"y": 1.7984467314,
				"z": -0.8147628148,
				"element": "H" 
			}
		],
		 "valence_orbital": [ 
			{
				"type": "occ",
				"energy": -0.2745,
				"method": "rhf"
			},
			{
				"type": "occ",
				"energy": -0.27259,
				"method": "rhf"
			},
			{
				"type": "occ",
				"energy": -0.26799,
				"method": "rhf"
			},
			{
				"type": "occ",
				"energy": -0.25217,
				"method": "rhf"
			},
			{
				"type": "occ",
				"energy": -0.2513,
				"method": "rhf"
			},
			{
				"type": "unocc",
				"energy": -0.07606,
				"method": "rhf"
			},
			{
				"type": "unocc",
				"energy": -0.07123,
				"method": "rhf"
			},
			{
				"type": "unocc",
				"energy": -0.04014,
				"method": "rhf"
			},
			{
				"type": "unocc",
				"energy": -0.02877,
				"method": "rhf"
			},
			{
				"type": "unocc",
				"energy": -0.0185,
				"method": "rhf"
			}
		],
		"cosmo_sigma_profile": { 
			"-0.025": 0.0,
			"-0.024": 0.0,
			"-0.023": 0.0,
			"-0.022": 0.0,
			"-0.021": 0.0,
			"-0.02": 0.0,
			"-0.019": 0.0,
			"-0.018": 0.0,
			"-0.017": 0.0,
			"-0.016": 0.0,
			"-0.015": 0.0,
			"-0.014": 0.0,
			"-0.013": 0.0,
			"-0.012": 0.0,
			"-0.011": 0.791681715941,
			"-0.01": 1.85454765937,
			"-0.009": 2.87871324093,
			"-0.008": 8.88274272539,
			"-0.007": 17.0796918725,
			"-0.006": 23.1630201231,
			"-0.005": 22.6938350375,
			"-0.004": 22.7899911547,
			"-0.003": 24.9529261143,
			"-0.002": 26.1816698836,
			"-0.001": 30.2543908095,
			"0.0": 35.4568650656,
			"0.001": 43.3446772622,
			"0.002": 38.74720775,
			"0.003": 27.5868092355,
			"0.004": 17.7391103771,
			"0.005": 9.0865901946,
			"0.006": 7.12152613241,
			"0.007": 7.37307581251,
			"0.008": 7.25920405881,
			"0.009": 8.93670559226,
			"0.01": 9.08674730339,
			"0.011": 8.38263992881,
			"0.012": 0.96847595595,
			"0.013": 0.0,
			"0.014": 0.0,
			"0.015": 0.0,
			"0.016": 0.0,
			"0.017": 0.0,
			"0.018": 0.0,
			"0.019": 0.0,
			"0.02": 0.0,
			"0.021": 0.0,
			"0.022": 0.0,
			"0.023": 0.0,
			"0.024": 0.0,
			"0.025": 0.0
		}
	}
}
