{
	 "smiles": "ClC1=C2C=CC=NC2=NC=N1", 
	 "Tm": 511.15, 
	 "num_atms": 15, 
	 "gaussian": { 
		 "optdone": 1, 
		 "sigma_profile": "yes", 
		 "theory": "DFT", 
		 "functional": "B3LYP", 
		 "basiset": "6-31G**", 
		 "properties": { 
			 "R2extent": 2252.7142, 
			 "electric_dipole_moment_norm": 3.36353370877, 
			 "electric_quadrupole_moment_norm": 7.47988585408, 
			 "total_energy": -893.595094068, 
			 "HOMO_LUMO_gap": 0.17678, 
			 "cosmo_polarized_energy": -10.93, 
			 "cosmo_cavitation_energy": 21.48, 
			 "cosmo_dispersion_energy": -16.58, 
			 "cosmo_repulsion_energy": 1.3, 
			 "cosmo_total_nonelectrostatic_energy": 6.21, 
			 "SMD_solvation_energy": -1.04 
		},
		"coords": [
			{
				"x": -2.6201145403,
				"y": -2.7700125596,
				"z": 1.2624784221,
				"element": "Cl" 
			},
			{
				"x": -1.0516208737,
				"y": -1.979641815,
				"z": 1.1377546182,
				"element": "C" 
			},
			{
				"x": -0.9308145281,
				"y": -0.7880511308,
				"z": 0.3675529475,
				"element": "C" 
			},
			{
				"x": -1.9678147966,
				"y": -0.1360480891,
				"z": -0.3401219601,
				"element": "C" 
			},
			{
				"x": -1.6628585081,
				"y": 1.011144765,
				"z": -1.0327682135,
				"element": "C" 
			},
			{
				"x": -0.3271928248,
				"y": 1.4878907524,
				"z": -1.006906192,
				"element": "C" 
			},
			{
				"x": 0.6646454874,
				"y": 0.9086701097,
				"z": -0.3598550426,
				"element": "N" 
			},
			{
				"x": 0.3851342254,
				"y": -0.2269306121,
				"z": 0.3315413441,
				"element": "C" 
			},
			{
				"x": 1.4225021561,
				"y": -0.8115270988,
				"z": 0.9938687765,
				"element": "N" 
			},
			{
				"x": 1.1485901158,
				"y": -1.9069056685,
				"z": 1.6594683389,
				"element": "C" 
			},
			{
				"x": -0.0593445478,
				"y": -2.5347110786,
				"z": 1.7685001825,
				"element": "N" 
			},
			{
				"x": -2.9720342377,
				"y": -0.545095281,
				"z": -0.3254828988,
				"element": "H" 
			},
			{
				"x": -2.4191009472,
				"y": 1.5513535605,
				"z": -1.5924241057,
				"element": "H" 
			},
			{
				"x": -0.0763612202,
				"y": 2.3966136439,
				"z": -1.5531388387,
				"element": "H" 
			},
			{
				"x": 1.9651850397,
				"y": -2.3864494979,
				"z": 2.1941326217,
				"element": "H" 
			}
		],
		 "valence_orbital": [ 
			{
				"type": "occ",
				"energy": -0.32197,
				"method": "rhf"
			},
			{
				"type": "occ",
				"energy": -0.30126,
				"method": "rhf"
			},
			{
				"type": "occ",
				"energy": -0.28566,
				"method": "rhf"
			},
			{
				"type": "occ",
				"energy": -0.27633,
				"method": "rhf"
			},
			{
				"type": "occ",
				"energy": -0.2678,
				"method": "rhf"
			},
			{
				"type": "unocc",
				"energy": -0.09102,
				"method": "rhf"
			},
			{
				"type": "unocc",
				"energy": -0.05301,
				"method": "rhf"
			},
			{
				"type": "unocc",
				"energy": -0.01359,
				"method": "rhf"
			},
			{
				"type": "unocc",
				"energy": 0.01732,
				"method": "rhf"
			},
			{
				"type": "unocc",
				"energy": 0.05339,
				"method": "rhf"
			}
		],
		"cosmo_sigma_profile": { 
			"-0.025": 0.0,
			"-0.024": 0.0,
			"-0.023": 0.0,
			"-0.022": 0.0,
			"-0.021": 0.0,
			"-0.02": 0.0,
			"-0.019": 0.0,
			"-0.018": 0.0,
			"-0.017": 0.0,
			"-0.016": 0.0,
			"-0.015": 0.0,
			"-0.014": 0.0,
			"-0.013": 0.0,
			"-0.012": 0.0,
			"-0.011": 0.0,
			"-0.01": 0.0,
			"-0.009": 1.11867258806,
			"-0.008": 8.92188103552,
			"-0.007": 9.2906024158,
			"-0.006": 7.52548651299,
			"-0.005": 8.02844575365,
			"-0.004": 13.1704858284,
			"-0.003": 16.9939831392,
			"-0.002": 16.1149801857,
			"-0.001": 17.1084867725,
			"0.0": 13.6642560579,
			"0.001": 9.48571309746,
			"0.002": 8.9412654376,
			"0.003": 9.60646611267,
			"0.004": 5.34672903312,
			"0.005": 3.75218130745,
			"0.006": 4.37678082417,
			"0.007": 3.52631199755,
			"0.008": 2.0586612027,
			"0.009": 2.24954583749,
			"0.01": 2.59772529136,
			"0.011": 2.71424651275,
			"0.012": 2.49827678984,
			"0.013": 2.46088704054,
			"0.014": 1.82355803159,
			"0.015": 2.6553346231,
			"0.016": 1.00106772188,
			"0.017": 0.0,
			"0.018": 0.0,
			"0.019": 0.0,
			"0.02": 0.0,
			"0.021": 0.0,
			"0.022": 0.0,
			"0.023": 0.0,
			"0.024": 0.0,
			"0.025": 0.0
		}
	}
}
