{
	 "smiles": "CCSC(C)CC1CC(=O)C(=C(CC)NOCC=CCl)C(=O)C1", 
	 "Tm": 193.15, 
	 "num_atms": 49, 
	 "gaussian": { 
		 "optdone": 1, 
		 "sigma_profile": "yes", 
		 "theory": "DFT", 
		 "functional": "B3LYP", 
		 "basiset": "6-31G**", 
		 "properties": { 
			 "R2extent": 12183.8602, 
			 "electric_dipole_moment_norm": 2.79651138921, 
			 "electric_quadrupole_moment_norm": 21.1435903576, 
			 "total_energy": -1802.22095679, 
			 "HOMO_LUMO_gap": 0.17051, 
			 "cosmo_polarized_energy": -17.47, 
			 "cosmo_cavitation_energy": 52.98, 
			 "cosmo_dispersion_energy": -35.39, 
			 "cosmo_repulsion_energy": 2.77, 
			 "cosmo_total_nonelectrostatic_energy": 20.36, 
			 "SMD_solvation_energy": 9.27 
		},
		"coords": [
			{
				"x": 1.6145315252,
				"y": -4.6581498252,
				"z": 0.6419052482,
				"element": "C" 
			},
			{
				"x": 2.200954413,
				"y": -3.2841464419,
				"z": 0.9706748084,
				"element": "C" 
			},
			{
				"x": 2.2838515021,
				"y": -3.0988777986,
				"z": 2.8010791901,
				"element": "S" 
			},
			{
				"x": 2.9664410329,
				"y": -1.3934660517,
				"z": 3.0877635893,
				"element": "C" 
			},
			{
				"x": 4.1320122161,
				"y": -1.0429244293,
				"z": 2.1557495482,
				"element": "C" 
			},
			{
				"x": 1.8750627652,
				"y": -0.3079855355,
				"z": 3.2490171281,
				"element": "C" 
			},
			{
				"x": 0.8500003264,
				"y": -0.066352396,
				"z": 2.1253181146,
				"element": "C" 
			},
			{
				"x": -0.3079657621,
				"y": 0.7901425934,
				"z": 2.6496766991,
				"element": "C" 
			},
			{
				"x": -1.388367117,
				"y": 1.1419024969,
				"z": 1.6258061019,
				"element": "C" 
			},
			{
				"x": -2.5040784009,
				"y": 1.4388454924,
				"z": 2.0574789899,
				"element": "O" 
			},
			{
				"x": -1.0242775121,
				"y": 1.1335210036,
				"z": 0.2003536828,
				"element": "C" 
			},
			{
				"x": -2.0028475973,
				"y": 1.3862816007,
				"z": -0.8091048238,
				"element": "C" 
			},
			{
				"x": -3.4577726737,
				"y": 1.6904141813,
				"z": -0.5500888253,
				"element": "C" 
			},
			{
				"x": -3.6966934153,
				"y": 3.1911429625,
				"z": -0.2937857164,
				"element": "C" 
			},
			{
				"x": -1.603119898,
				"y": 1.3580661478,
				"z": -2.0786654169,
				"element": "N" 
			},
			{
				"x": -2.449539864,
				"y": 1.7909755711,
				"z": -3.0935074437,
				"element": "O" 
			},
			{
				"x": -2.6222108209,
				"y": 0.7573771637,
				"z": -4.0927526532,
				"element": "C" 
			},
			{
				"x": -1.3779135901,
				"y": 0.5254897767,
				"z": -4.8980526817,
				"element": "C" 
			},
			{
				"x": -0.7539400948,
				"y": -0.651151117,
				"z": -4.9061490119,
				"element": "C" 
			},
			{
				"x": 0.6747895571,
				"y": -0.9770307168,
				"z": -5.8478856011,
				"element": "Cl" 
			},
			{
				"x": 0.3537799976,
				"y": 0.8893465188,
				"z": -0.1880399749,
				"element": "C" 
			},
			{
				"x": 0.7480246959,
				"y": 0.8862033562,
				"z": -1.3773055743,
				"element": "O" 
			},
			{
				"x": 1.406050557,
				"y": 0.6361414977,
				"z": 0.8817493312,
				"element": "C" 
			},
			{
				"x": 0.5988201885,
				"y": -4.7617892265,
				"z": 1.0351276583,
				"element": "H" 
			},
			{
				"x": 1.5759040146,
				"y": -4.7983162547,
				"z": -0.4434185588,
				"element": "H" 
			},
			{
				"x": 2.2254017234,
				"y": -5.4612855463,
				"z": 1.0652583952,
				"element": "H" 
			},
			{
				"x": 3.2066861815,
				"y": -3.1942695562,
				"z": 0.5510273581,
				"element": "H" 
			},
			{
				"x": 1.5798454072,
				"y": -2.4944840876,
				"z": 0.538835975,
				"element": "H" 
			},
			{
				"x": 3.3970287103,
				"y": -1.5199533976,
				"z": 4.0883611812,
				"element": "H" 
			},
			{
				"x": 3.8415613503,
				"y": -0.9976194655,
				"z": 1.1042106998,
				"element": "H" 
			},
			{
				"x": 4.9324193309,
				"y": -1.7825458759,
				"z": 2.2495865017,
				"element": "H" 
			},
			{
				"x": 4.5413236813,
				"y": -0.0623770086,
				"z": 2.425295397,
				"element": "H" 
			},
			{
				"x": 2.3827096017,
				"y": 0.6417930853,
				"z": 3.4793566631,
				"element": "H" 
			},
			{
				"x": 1.3052621064,
				"y": -0.5706655352,
				"z": 4.1483390528,
				"element": "H" 
			},
			{
				"x": 0.4402156326,
				"y": -1.0412218479,
				"z": 1.8294510598,
				"element": "H" 
			},
			{
				"x": 0.088591775,
				"y": 1.7436635366,
				"z": 3.0325229121,
				"element": "H" 
			},
			{
				"x": -0.8238155045,
				"y": 0.3150531081,
				"z": 3.4895034798,
				"element": "H" 
			},
			{
				"x": -3.7763324547,
				"y": 1.1305585519,
				"z": 0.3266939629,
				"element": "H" 
			},
			{
				"x": -4.0332590519,
				"y": 1.3757555,
				"z": -1.4232081332,
				"element": "H" 
			},
			{
				"x": -3.1717052006,
				"y": 3.5089545916,
				"z": 0.6089215281,
				"element": "H" 
			},
			{
				"x": -3.3626327923,
				"y": 3.7977999198,
				"z": -1.1406135255,
				"element": "H" 
			},
			{
				"x": -4.765571353,
				"y": 3.371195414,
				"z": -0.1454368429,
				"element": "H" 
			},
			{
				"x": -0.5826971318,
				"y": 1.2380541768,
				"z": -2.2586600079,
				"element": "H" 
			},
			{
				"x": -2.9712190943,
				"y": -0.164881945,
				"z": -3.6139874123,
				"element": "H" 
			},
			{
				"x": -3.4250369305,
				"y": 1.1590231432,
				"z": -4.7193409109,
				"element": "H" 
			},
			{
				"x": -0.9969722368,
				"y": 1.3592797092,
				"z": -5.4819876493,
				"element": "H" 
			},
			{
				"x": -1.0867783158,
				"y": -1.5108518332,
				"z": -4.3341325087,
				"element": "H" 
			},
			{
				"x": 1.8303086084,
				"y": 1.6095404048,
				"z": 1.1731700946,
				"element": "H" 
			},
			{
				"x": 2.2077699118,
				"y": 0.0832243881,
				"z": 0.3897889211,
				"element": "H" 
			}
		],
		 "valence_orbital": [ 
			{
				"type": "occ",
				"energy": -0.27479,
				"method": "rhf"
			},
			{
				"type": "occ",
				"energy": -0.24839,
				"method": "rhf"
			},
			{
				"type": "occ",
				"energy": -0.22829,
				"method": "rhf"
			},
			{
				"type": "occ",
				"energy": -0.22352,
				"method": "rhf"
			},
			{
				"type": "occ",
				"energy": -0.21541,
				"method": "rhf"
			},
			{
				"type": "unocc",
				"energy": -0.0449,
				"method": "rhf"
			},
			{
				"type": "unocc",
				"energy": -0.0265,
				"method": "rhf"
			},
			{
				"type": "unocc",
				"energy": -0.01058,
				"method": "rhf"
			},
			{
				"type": "unocc",
				"energy": 0.02557,
				"method": "rhf"
			},
			{
				"type": "unocc",
				"energy": 0.04226,
				"method": "rhf"
			}
		],
		"cosmo_sigma_profile": { 
			"-0.025": 0.0,
			"-0.024": 0.0,
			"-0.023": 0.0,
			"-0.022": 0.0,
			"-0.021": 0.0,
			"-0.02": 0.0,
			"-0.019": 0.0,
			"-0.018": 0.0,
			"-0.017": 0.0,
			"-0.016": 0.0,
			"-0.015": 0.0,
			"-0.014": 0.0,
			"-0.013": 0.0,
			"-0.012": 0.0,
			"-0.011": 0.0,
			"-0.01": 0.193548923823,
			"-0.009": 2.53470119088,
			"-0.008": 4.77905082291,
			"-0.007": 8.77545010996,
			"-0.006": 9.40647620528,
			"-0.005": 21.4829950089,
			"-0.004": 33.2181705377,
			"-0.003": 46.9723617441,
			"-0.002": 48.4424468348,
			"-0.001": 52.0513485165,
			"0.0": 43.2705836863,
			"0.001": 33.5072964171,
			"0.002": 20.9136184233,
			"0.003": 14.9172108867,
			"0.004": 18.2368337935,
			"0.005": 11.7027987934,
			"0.006": 7.2898395707,
			"0.007": 7.62118195449,
			"0.008": 6.60278681761,
			"0.009": 4.77304649911,
			"0.01": 5.25093059385,
			"0.011": 5.11687056151,
			"0.012": 4.08018452546,
			"0.013": 3.25003601685,
			"0.014": 3.33707388585,
			"0.015": 1.14294378453,
			"0.016": 0.0,
			"0.017": 0.0,
			"0.018": 0.0,
			"0.019": 0.0,
			"0.02": 0.0,
			"0.021": 0.0,
			"0.022": 0.0,
			"0.023": 0.0,
			"0.024": 0.0,
			"0.025": 0.0
		}
	}
}
