{
	 "smiles": "CCC(=O)C(C)C(CC)=CC", 
	 "Tm": 347.65, 
	 "num_atms": 29, 
	 "gaussian": { 
		 "optdone": 1, 
		 "sigma_profile": "yes", 
		 "theory": "DFT", 
		 "functional": "B3LYP", 
		 "basiset": "6-31G**", 
		 "properties": { 
			 "R2extent": 2190.5442, 
			 "electric_dipole_moment_norm": 2.76019760343, 
			 "electric_quadrupole_moment_norm": 10.5584686513, 
			 "total_energy": -467.126067019, 
			 "HOMO_LUMO_gap": 0.21575, 
			 "cosmo_polarized_energy": -7.2, 
			 "cosmo_cavitation_energy": 29.48, 
			 "cosmo_dispersion_energy": -20.17, 
			 "cosmo_repulsion_energy": 1.63, 
			 "cosmo_total_nonelectrostatic_energy": 10.95, 
			 "SMD_solvation_energy": 5.83 
		},
		"coords": [
			{
				"x": 0.8121916261,
				"y": -2.8016739503,
				"z": 0.4013169207,
				"element": "C" 
			},
			{
				"x": -0.0739655658,
				"y": -2.2405369665,
				"z": 1.5285862624,
				"element": "C" 
			},
			{
				"x": -1.0970350041,
				"y": -1.1955004286,
				"z": 1.0827061802,
				"element": "C" 
			},
			{
				"x": -2.2879357982,
				"y": -1.4497358007,
				"z": 1.1244349204,
				"element": "O" 
			},
			{
				"x": -0.6343512541,
				"y": 0.1962427918,
				"z": 0.6068568912,
				"element": "C" 
			},
			{
				"x": 0.6340400253,
				"y": 0.6769237668,
				"z": 1.3434740505,
				"element": "C" 
			},
			{
				"x": -0.5420888861,
				"y": 0.3119104845,
				"z": -0.9240876593,
				"element": "C" 
			},
			{
				"x": -0.0465090617,
				"y": 1.651238535,
				"z": -1.4543801493,
				"element": "C" 
			},
			{
				"x": 1.4395041008,
				"y": 1.6713863578,
				"z": -1.858353952,
				"element": "C" 
			},
			{
				"x": -0.9544076766,
				"y": -0.6690895713,
				"z": -1.7426900604,
				"element": "C" 
			},
			{
				"x": -0.9727247602,
				"y": -0.6560328838,
				"z": -3.2461805399,
				"element": "C" 
			},
			{
				"x": 1.522900529,
				"y": -3.5259357279,
				"z": 0.8112853457,
				"element": "H" 
			},
			{
				"x": 1.3806195261,
				"y": -2.0180516241,
				"z": -0.1062910979,
				"element": "H" 
			},
			{
				"x": 0.2099213134,
				"y": -3.315104679,
				"z": -0.353781106,
				"element": "H" 
			},
			{
				"x": 0.5672758794,
				"y": -1.8041951109,
				"z": 2.3037949963,
				"element": "H" 
			},
			{
				"x": -0.6488658758,
				"y": -3.0479678909,
				"z": 1.9902832985,
				"element": "H" 
			},
			{
				"x": -1.4579458581,
				"y": 0.8607127449,
				"z": 0.9076866003,
				"element": "H" 
			},
			{
				"x": 1.513654582,
				"y": 0.0793264002,
				"z": 1.0867286709,
				"element": "H" 
			},
			{
				"x": 0.8586208478,
				"y": 1.7184224083,
				"z": 1.1013408188,
				"element": "H" 
			},
			{
				"x": 0.4925843183,
				"y": 0.623842815,
				"z": 2.4278788087,
				"element": "H" 
			},
			{
				"x": -0.2268253416,
				"y": 2.4297691979,
				"z": -0.703491144,
				"element": "H" 
			},
			{
				"x": -0.6483470171,
				"y": 1.9397798363,
				"z": -2.3229990857,
				"element": "H" 
			},
			{
				"x": 1.7272915852,
				"y": 2.6597898554,
				"z": -2.23311208,
				"element": "H" 
			},
			{
				"x": 2.093028339,
				"y": 1.4302860356,
				"z": -1.0149542519,
				"element": "H" 
			},
			{
				"x": 1.6393099963,
				"y": 0.9402509428,
				"z": -2.6477428961,
				"element": "H" 
			},
			{
				"x": -1.3488904558,
				"y": -1.5823959274,
				"z": -1.3040575959,
				"element": "H" 
			},
			{
				"x": -0.3399518887,
				"y": -1.4574229174,
				"z": -3.6494799705,
				"element": "H" 
			},
			{
				"x": -0.6257424821,
				"y": 0.285400449,
				"z": -3.6773681055,
				"element": "H" 
			},
			{
				"x": -1.9866557429,
				"y": -0.8458391424,
				"z": -3.6209040699,
				"element": "H" 
			}
		],
		 "valence_orbital": [ 
			{
				"type": "occ",
				"energy": -0.34273,
				"method": "rhf"
			},
			{
				"type": "occ",
				"energy": -0.32814,
				"method": "rhf"
			},
			{
				"type": "occ",
				"energy": -0.31694,
				"method": "rhf"
			},
			{
				"type": "occ",
				"energy": -0.23622,
				"method": "rhf"
			},
			{
				"type": "occ",
				"energy": -0.22968,
				"method": "rhf"
			},
			{
				"type": "unocc",
				"energy": -0.01393,
				"method": "rhf"
			},
			{
				"type": "unocc",
				"energy": 0.02272,
				"method": "rhf"
			},
			{
				"type": "unocc",
				"energy": 0.07779,
				"method": "rhf"
			},
			{
				"type": "unocc",
				"energy": 0.10267,
				"method": "rhf"
			},
			{
				"type": "unocc",
				"energy": 0.11347,
				"method": "rhf"
			}
		],
		"cosmo_sigma_profile": { 
			"-0.025": 0.0,
			"-0.024": 0.0,
			"-0.023": 0.0,
			"-0.022": 0.0,
			"-0.021": 0.0,
			"-0.02": 0.0,
			"-0.019": 0.0,
			"-0.018": 0.0,
			"-0.017": 0.0,
			"-0.016": 0.0,
			"-0.015": 0.0,
			"-0.014": 0.0,
			"-0.013": 0.0,
			"-0.012": 0.0,
			"-0.011": 0.0,
			"-0.01": 0.0,
			"-0.009": 0.0,
			"-0.008": 0.0,
			"-0.007": 0.0,
			"-0.006": 0.258296549156,
			"-0.005": 3.31376303281,
			"-0.004": 18.2010674082,
			"-0.003": 33.299849026,
			"-0.002": 35.4124066566,
			"-0.001": 36.4783817071,
			"0.0": 35.1407324482,
			"0.001": 24.4484930304,
			"0.002": 9.34790916933,
			"0.003": 4.79251495422,
			"0.004": 3.89787329834,
			"0.005": 2.91499627872,
			"0.006": 2.78045102862,
			"0.007": 1.95142306181,
			"0.008": 2.04119180706,
			"0.009": 1.66587132169,
			"0.01": 1.98501138934,
			"0.011": 2.18060248505,
			"0.012": 4.66463707446,
			"0.013": 3.02578746195,
			"0.014": 0.595727413986,
			"0.015": 0.0,
			"0.016": 0.0,
			"0.017": 0.0,
			"0.018": 0.0,
			"0.019": 0.0,
			"0.02": 0.0,
			"0.021": 0.0,
			"0.022": 0.0,
			"0.023": 0.0,
			"0.024": 0.0,
			"0.025": 0.0
		}
	}
}
