{
	 "smiles": "NC1=NC(=NS1)C1=CSC=C1", 
	 "Tm": 446.15, 
	 "num_atms": 16, 
	 "gaussian": { 
		 "optdone": 1, 
		 "sigma_profile": "yes", 
		 "theory": "DFT", 
		 "functional": "B3LYP", 
		 "basiset": "6-31G**", 
		 "properties": { 
			 "R2extent": 3520.9459, 
			 "electric_dipole_moment_norm": 3.38295769113, 
			 "electric_quadrupole_moment_norm": 22.1629928153, 
			 "total_energy": -1192.2670267, 
			 "HOMO_LUMO_gap": 0.18706, 
			 "cosmo_polarized_energy": -13.33, 
			 "cosmo_cavitation_energy": 24.19, 
			 "cosmo_dispersion_energy": -19.43, 
			 "cosmo_repulsion_energy": 1.46, 
			 "cosmo_total_nonelectrostatic_energy": 6.22, 
			 "SMD_solvation_energy": 1.47 
		},
		"coords": [
			{
				"x": 1.7149919333,
				"y": 4.0853071916,
				"z": -0.0495061747,
				"element": "N" 
			},
			{
				"x": 0.6247950697,
				"y": 3.2929439353,
				"z": -0.2533532686,
				"element": "C" 
			},
			{
				"x": 0.3205080937,
				"y": 2.2604616518,
				"z": 0.4886023119,
				"element": "N" 
			},
			{
				"x": -0.8053004534,
				"y": 1.6522124479,
				"z": -0.0276565801,
				"element": "C" 
			},
			{
				"x": -1.3888861219,
				"y": 2.1436777194,
				"z": -1.1026042333,
				"element": "N" 
			},
			{
				"x": -0.5017860739,
				"y": 3.4940292798,
				"z": -1.5950270491,
				"element": "S" 
			},
			{
				"x": -1.3504520442,
				"y": 0.4619162838,
				"z": 0.6309975757,
				"element": "C" 
			},
			{
				"x": -0.7935350667,
				"y": -0.1065855392,
				"z": 1.7513519693,
				"element": "C" 
			},
			{
				"x": -1.6795979137,
				"y": -1.4950524434,
				"z": 2.271601632,
				"element": "S" 
			},
			{
				"x": -2.818549949,
				"y": -1.3154763433,
				"z": 0.9683248454,
				"element": "C" 
			},
			{
				"x": -2.5195900605,
				"y": -0.2413713843,
				"z": 0.1842703015,
				"element": "C" 
			},
			{
				"x": 1.7167607271,
				"y": 5.0190138731,
				"z": -0.4295375175,
				"element": "H" 
			},
			{
				"x": 2.1643425749,
				"y": 3.9750435874,
				"z": 0.8487034463,
				"element": "H" 
			},
			{
				"x": 0.0858187869,
				"y": 0.2269873608,
				"z": 2.281989127,
				"element": "H" 
			},
			{
				"x": -3.6360228246,
				"y": -2.0151661541,
				"z": 0.8647045966,
				"element": "H" 
			},
			{
				"x": -3.0912966777,
				"y": 0.0611585334,
				"z": -0.6839609823,
				"element": "H" 
			}
		],
		 "valence_orbital": [ 
			{
				"type": "occ",
				"energy": -0.29264,
				"method": "rhf"
			},
			{
				"type": "occ",
				"energy": -0.27527,
				"method": "rhf"
			},
			{
				"type": "occ",
				"energy": -0.25655,
				"method": "rhf"
			},
			{
				"type": "occ",
				"energy": -0.23804,
				"method": "rhf"
			},
			{
				"type": "occ",
				"energy": -0.21835,
				"method": "rhf"
			},
			{
				"type": "unocc",
				"energy": -0.03129,
				"method": "rhf"
			},
			{
				"type": "unocc",
				"energy": -0.00622,
				"method": "rhf"
			},
			{
				"type": "unocc",
				"energy": -0.00305,
				"method": "rhf"
			},
			{
				"type": "unocc",
				"energy": 0.03537,
				"method": "rhf"
			},
			{
				"type": "unocc",
				"energy": 0.03631,
				"method": "rhf"
			}
		],
		"cosmo_sigma_profile": { 
			"-0.025": 0.0,
			"-0.024": 0.0,
			"-0.023": 0.0,
			"-0.022": 0.0,
			"-0.021": 0.0,
			"-0.02": 0.0,
			"-0.019": 0.0,
			"-0.018": 0.0,
			"-0.017": 0.0,
			"-0.016": 0.531564729682,
			"-0.015": 2.55017069613,
			"-0.014": 2.97630982959,
			"-0.013": 2.58249258738,
			"-0.012": 2.43025421968,
			"-0.011": 3.033276135,
			"-0.01": 2.17754450426,
			"-0.009": 1.83010152382,
			"-0.008": 5.38794372861,
			"-0.007": 4.54773919967,
			"-0.006": 6.8400739069,
			"-0.005": 5.97932036033,
			"-0.004": 7.57236645652,
			"-0.003": 6.16491303395,
			"-0.002": 7.85975277552,
			"-0.001": 11.4835857553,
			"0.0": 14.8089342388,
			"0.001": 15.6740401931,
			"0.002": 17.9939489528,
			"0.003": 24.6116459393,
			"0.004": 22.86700797,
			"0.005": 8.2878125905,
			"0.006": 3.9148968373,
			"0.007": 3.90119562077,
			"0.008": 3.43174701714,
			"0.009": 2.51592694842,
			"0.01": 3.07493862818,
			"0.011": 2.43402923646,
			"0.012": 0.79522752827,
			"0.013": 1.14809084567,
			"0.014": 0.0190514788648,
			"0.015": 0.0,
			"0.016": 0.0,
			"0.017": 0.0,
			"0.018": 0.0,
			"0.019": 0.0,
			"0.02": 0.0,
			"0.021": 0.0,
			"0.022": 0.0,
			"0.023": 0.0,
			"0.024": 0.0,
			"0.025": 0.0
		}
	}
}
