{
	 "smiles": "CC1=C(C=O)N2C=CC=CC2=N1", 
	 "Tm": 391.15, 
	 "num_atms": 20, 
	 "gaussian": { 
		 "optdone": 1, 
		 "sigma_profile": "yes", 
		 "theory": "DFT", 
		 "functional": "B3LYP", 
		 "basiset": "6-31G**", 
		 "properties": { 
			 "R2extent": 2317.4397, 
			 "electric_dipole_moment_norm": 4.62334420198, 
			 "electric_quadrupole_moment_norm": 5.60007332095, 
			 "total_energy": -532.50092179, 
			 "HOMO_LUMO_gap": 0.16572, 
			 "cosmo_polarized_energy": -13.24, 
			 "cosmo_cavitation_energy": 24.31, 
			 "cosmo_dispersion_energy": -17.94, 
			 "cosmo_repulsion_energy": 1.4, 
			 "cosmo_total_nonelectrostatic_energy": 7.77, 
			 "SMD_solvation_energy": 3.7 
		},
		"coords": [
			{
				"x": 2.6643784115,
				"y": 2.82771137,
				"z": -1.4071035144,
				"element": "C" 
			},
			{
				"x": 1.5552335056,
				"y": 1.8828132801,
				"z": -1.0791744339,
				"element": "C" 
			},
			{
				"x": 1.5118020131,
				"y": 0.9933555425,
				"z": 0.0116816799,
				"element": "C" 
			},
			{
				"x": 2.4748816309,
				"y": 0.7609980891,
				"z": 1.0582420772,
				"element": "C" 
			},
			{
				"x": 3.5455554764,
				"y": 1.3502208499,
				"z": 1.1489418079,
				"element": "O" 
			},
			{
				"x": 0.2846006044,
				"y": 0.3324683455,
				"z": -0.1117712672,
				"element": "N" 
			},
			{
				"x": -0.3160728683,
				"y": -0.6383024491,
				"z": 0.6462915318,
				"element": "C" 
			},
			{
				"x": -1.5490490777,
				"y": -1.1117319349,
				"z": 0.2812172915,
				"element": "C" 
			},
			{
				"x": -2.199862375,
				"y": -0.6022003913,
				"z": -0.8718706843,
				"element": "C" 
			},
			{
				"x": -1.5949606607,
				"y": 0.3735038873,
				"z": -1.6328740319,
				"element": "C" 
			},
			{
				"x": -0.3273471777,
				"y": 0.8593041137,
				"z": -1.2563221783,
				"element": "C" 
			},
			{
				"x": 0.4423522907,
				"y": 1.7935277273,
				"z": -1.8361489961,
				"element": "N" 
			},
			{
				"x": 3.6050650615,
				"y": 2.2888122317,
				"z": -1.5570652336,
				"element": "H" 
			},
			{
				"x": 2.8415991855,
				"y": 3.5236451813,
				"z": -0.581227421,
				"element": "H" 
			},
			{
				"x": 2.4126681329,
				"y": 3.3859324076,
				"z": -2.3103467584,
				"element": "H" 
			},
			{
				"x": 2.194856658,
				"y": -0.0084050522,
				"z": 1.8124809259,
				"element": "H" 
			},
			{
				"x": 0.2249878311,
				"y": -0.990612039,
				"z": 1.5147060898,
				"element": "H" 
			},
			{
				"x": -2.014371047,
				"y": -1.8795030458,
				"z": 0.8883658931,
				"element": "H" 
			},
			{
				"x": -3.1759396291,
				"y": -0.9849550297,
				"z": -1.1508871753,
				"element": "H" 
			},
			{
				"x": -2.0551779661,
				"y": 0.7909169159,
				"z": -2.5205356029,
				"element": "H" 
			}
		],
		 "valence_orbital": [ 
			{
				"type": "occ",
				"energy": -0.33167,
				"method": "rhf"
			},
			{
				"type": "occ",
				"energy": -0.28263,
				"method": "rhf"
			},
			{
				"type": "occ",
				"energy": -0.25385,
				"method": "rhf"
			},
			{
				"type": "occ",
				"energy": -0.24856,
				"method": "rhf"
			},
			{
				"type": "occ",
				"energy": -0.22459,
				"method": "rhf"
			},
			{
				"type": "unocc",
				"energy": -0.05887,
				"method": "rhf"
			},
			{
				"type": "unocc",
				"energy": -0.04028,
				"method": "rhf"
			},
			{
				"type": "unocc",
				"energy": 0.01023,
				"method": "rhf"
			},
			{
				"type": "unocc",
				"energy": 0.07217,
				"method": "rhf"
			},
			{
				"type": "unocc",
				"energy": 0.09689,
				"method": "rhf"
			}
		],
		"cosmo_sigma_profile": { 
			"-0.025": 0.0,
			"-0.024": 0.0,
			"-0.023": 0.0,
			"-0.022": 0.0,
			"-0.021": 0.0,
			"-0.02": 0.0,
			"-0.019": 0.0,
			"-0.018": 0.0,
			"-0.017": 0.0,
			"-0.016": 0.0,
			"-0.015": 0.0,
			"-0.014": 0.0,
			"-0.013": 0.0,
			"-0.012": 0.0,
			"-0.011": 0.575079411998,
			"-0.01": 3.48371928703,
			"-0.009": 2.65460207151,
			"-0.008": 5.40717550778,
			"-0.007": 10.262970486,
			"-0.006": 8.93379133979,
			"-0.005": 11.3280906025,
			"-0.004": 11.6597627985,
			"-0.003": 11.7796329685,
			"-0.002": 15.4602993353,
			"-0.001": 18.9853511786,
			"0.0": 18.2462961148,
			"0.001": 17.5655606635,
			"0.002": 14.127193224,
			"0.003": 6.25307735209,
			"0.004": 4.65965065835,
			"0.005": 3.21647611046,
			"0.006": 3.23175259584,
			"0.007": 3.39917302111,
			"0.008": 1.99353594442,
			"0.009": 3.64508582295,
			"0.01": 2.78190463557,
			"0.011": 2.87372581339,
			"0.012": 4.87271694335,
			"0.013": 3.88217128817,
			"0.014": 1.81928412877,
			"0.015": 0.843886788546,
			"0.016": 0.98407902367,
			"0.017": 0.395654799976,
			"0.018": 0.0445407716629,
			"0.019": 0.0,
			"0.02": 0.0,
			"0.021": 0.0,
			"0.022": 0.0,
			"0.023": 0.0,
			"0.024": 0.0,
			"0.025": 0.0
		}
	}
}
