{
	 "smiles": "CC(C)C(C)=C", 
	 "Tm": 116.15, 
	 "num_atms": 18, 
	 "gaussian": { 
		 "optdone": 1, 
		 "sigma_profile": "yes", 
		 "theory": "DFT", 
		 "functional": "B3LYP", 
		 "basiset": "6-31G**", 
		 "properties": { 
			 "R2extent": 761.5306, 
			 "electric_dipole_moment_norm": 0.485464179935, 
			 "electric_quadrupole_moment_norm": 1.62792741853, 
			 "total_energy": -235.864898424, 
			 "HOMO_LUMO_gap": 0.26927, 
			 "cosmo_polarized_energy": -1.61, 
			 "cosmo_cavitation_energy": 19.78, 
			 "cosmo_dispersion_energy": -14.03, 
			 "cosmo_repulsion_energy": 1.2, 
			 "cosmo_total_nonelectrostatic_energy": 6.95, 
			 "SMD_solvation_energy": 4.41 
		},
		"coords": [
			{
				"x": 0.3102357393,
				"y": -0.0164841947,
				"z": 1.3807427209,
				"element": "C" 
			},
			{
				"x": -0.0539119729,
				"y": 0.2443973759,
				"z": -0.0938893455,
				"element": "C" 
			},
			{
				"x": 0.8640000802,
				"y": 1.3245971329,
				"z": -0.6987777025,
				"element": "C" 
			},
			{
				"x": -0.0585951913,
				"y": -1.03585326,
				"z": -0.9207137448,
				"element": "C" 
			},
			{
				"x": 1.2409115293,
				"y": -1.7938473147,
				"z": -1.0643889751,
				"element": "C" 
			},
			{
				"x": -1.1815547794,
				"y": -1.4730555844,
				"z": -1.5008183463,
				"element": "C" 
			},
			{
				"x": -0.3463115395,
				"y": -0.7724392043,
				"z": 1.8232807263,
				"element": "H" 
			},
			{
				"x": 1.3440518472,
				"y": -0.3634427145,
				"z": 1.4861921565,
				"element": "H" 
			},
			{
				"x": 0.2129850328,
				"y": 0.9031512728,
				"z": 1.9680062004,
				"element": "H" 
			},
			{
				"x": -1.0788940231,
				"y": 0.6369309904,
				"z": -0.1137064446,
				"element": "H" 
			},
			{
				"x": 0.6037124748,
				"y": 1.5266314413,
				"z": -1.7427128371,
				"element": "H" 
			},
			{
				"x": 0.7733890929,
				"y": 2.2618636947,
				"z": -0.1389722898,
				"element": "H" 
			},
			{
				"x": 1.9171940793,
				"y": 1.0247615273,
				"z": -0.6651343136,
				"element": "H" 
			},
			{
				"x": 1.634912711,
				"y": -2.1089263204,
				"z": -0.0906435627,
				"element": "H" 
			},
			{
				"x": 2.0185143775,
				"y": -1.1779034601,
				"z": -1.5319437529,
				"element": "H" 
			},
			{
				"x": 1.1092164856,
				"y": -2.6891163789,
				"z": -1.6777055531,
				"element": "H" 
			},
			{
				"x": -1.2024576469,
				"y": -2.3838671467,
				"z": -2.0936474683,
				"element": "H" 
			},
			{
				"x": -2.1210982967,
				"y": -0.9351978565,
				"z": -1.403467468,
				"element": "H" 
			}
		],
		 "valence_orbital": [ 
			{
				"type": "occ",
				"energy": -0.3592,
				"method": "rhf"
			},
			{
				"type": "occ",
				"energy": -0.33709,
				"method": "rhf"
			},
			{
				"type": "occ",
				"energy": -0.3239,
				"method": "rhf"
			},
			{
				"type": "occ",
				"energy": -0.31384,
				"method": "rhf"
			},
			{
				"type": "occ",
				"energy": -0.23907,
				"method": "rhf"
			},
			{
				"type": "unocc",
				"energy": 0.0302,
				"method": "rhf"
			},
			{
				"type": "unocc",
				"energy": 0.08624,
				"method": "rhf"
			},
			{
				"type": "unocc",
				"energy": 0.12479,
				"method": "rhf"
			},
			{
				"type": "unocc",
				"energy": 0.13457,
				"method": "rhf"
			},
			{
				"type": "unocc",
				"energy": 0.13514,
				"method": "rhf"
			}
		],
		"cosmo_sigma_profile": { 
			"-0.025": 0.0,
			"-0.024": 0.0,
			"-0.023": 0.0,
			"-0.022": 0.0,
			"-0.021": 0.0,
			"-0.02": 0.0,
			"-0.019": 0.0,
			"-0.018": 0.0,
			"-0.017": 0.0,
			"-0.016": 0.0,
			"-0.015": 0.0,
			"-0.014": 0.0,
			"-0.013": 0.0,
			"-0.012": 0.0,
			"-0.011": 0.0,
			"-0.01": 0.0,
			"-0.009": 0.0,
			"-0.008": 0.0,
			"-0.007": 0.0,
			"-0.006": 0.0,
			"-0.005": 0.0,
			"-0.004": 2.85736301144,
			"-0.003": 18.6889847171,
			"-0.002": 25.562740727,
			"-0.001": 23.0703029477,
			"0.0": 24.9541271228,
			"0.001": 27.0822958741,
			"0.002": 12.7717784965,
			"0.003": 4.78358371082,
			"0.004": 3.75868928403,
			"0.005": 3.36676309397,
			"0.006": 2.95529855459,
			"0.007": 2.53793317966,
			"0.008": 0.834695841333,
			"0.009": 0.0,
			"0.01": 0.0,
			"0.011": 0.0,
			"0.012": 0.0,
			"0.013": 0.0,
			"0.014": 0.0,
			"0.015": 0.0,
			"0.016": 0.0,
			"0.017": 0.0,
			"0.018": 0.0,
			"0.019": 0.0,
			"0.02": 0.0,
			"0.021": 0.0,
			"0.022": 0.0,
			"0.023": 0.0,
			"0.024": 0.0,
			"0.025": 0.0
		}
	}
}
