{
	 "smiles": "CC1(C)CCC(C)(C)C2=C1C=CC(=C2)C(O)=O", 
	 "Tm": 473.15, 
	 "num_atms": 37, 
	 "gaussian": { 
		 "optdone": 1, 
		 "sigma_profile": "yes", 
		 "theory": "DFT", 
		 "functional": "B3LYP", 
		 "basiset": "6-31G**", 
		 "properties": { 
			 "R2extent": 4663.045, 
			 "electric_dipole_moment_norm": 2.69284961518, 
			 "electric_quadrupole_moment_norm": 14.269436465, 
			 "total_energy": -734.147683196, 
			 "HOMO_LUMO_gap": 0.20109, 
			 "cosmo_polarized_energy": -9.2, 
			 "cosmo_cavitation_energy": 36.31, 
			 "cosmo_dispersion_energy": -25.39, 
			 "cosmo_repulsion_energy": 1.94, 
			 "cosmo_total_nonelectrostatic_energy": 12.85, 
			 "SMD_solvation_energy": 7.2 
		},
		"coords": [
			{
				"x": 3.4044433682,
				"y": 0.8394955662,
				"z": 0.4901551606,
				"element": "C" 
			},
			{
				"x": 2.0299056594,
				"y": 1.5261576691,
				"z": 0.2935784461,
				"element": "C" 
			},
			{
				"x": 2.104673971,
				"y": 2.9530271694,
				"z": 0.883856415,
				"element": "C" 
			},
			{
				"x": 1.7142298767,
				"y": 1.6602539763,
				"z": -1.2126617644,
				"element": "C" 
			},
			{
				"x": 1.2830977436,
				"y": 0.3413629471,
				"z": -1.844992475,
				"element": "C" 
			},
			{
				"x": -0.0238980831,
				"y": -0.2136707,
				"z": -1.2372634592,
				"element": "C" 
			},
			{
				"x": -0.1642053122,
				"y": -1.6830120217,
				"z": -1.6958764404,
				"element": "C" 
			},
			{
				"x": -1.2397004404,
				"y": 0.5850866697,
				"z": -1.7677923718,
				"element": "C" 
			},
			{
				"x": 0.0143397167,
				"y": -0.11109207,
				"z": 0.2987371742,
				"element": "C" 
			},
			{
				"x": 0.9483605637,
				"y": 0.6890835319,
				"z": 0.9980485919,
				"element": "C" 
			},
			{
				"x": 0.9053582512,
				"y": 0.6986453335,
				"z": 2.4057574392,
				"element": "C" 
			},
			{
				"x": -0.0354771162,
				"y": -0.0226368289,
				"z": 3.1231516683,
				"element": "C" 
			},
			{
				"x": -0.9815642739,
				"y": -0.7890549737,
				"z": 2.4328402164,
				"element": "C" 
			},
			{
				"x": -0.9426486292,
				"y": -0.8232310491,
				"z": 1.0376764144,
				"element": "C" 
			},
			{
				"x": -1.9887759657,
				"y": -1.5426996551,
				"z": 3.2199175653,
				"element": "C" 
			},
			{
				"x": -2.8566123717,
				"y": -2.24900434,
				"z": 2.4482841193,
				"element": "O" 
			},
			{
				"x": -2.0612647899,
				"y": -1.5508894901,
				"z": 4.4339258478,
				"element": "O" 
			},
			{
				"x": 3.4261419161,
				"y": -0.1633418482,
				"z": 0.0536268971,
				"element": "H" 
			},
			{
				"x": 4.1970690576,
				"y": 1.4332087394,
				"z": 0.0202022948,
				"element": "H" 
			},
			{
				"x": 3.6439168252,
				"y": 0.7384623238,
				"z": 1.5532289615,
				"element": "H" 
			},
			{
				"x": 1.1273882627,
				"y": 3.445436406,
				"z": 0.853749382,
				"element": "H" 
			},
			{
				"x": 2.8062555873,
				"y": 3.5572004119,
				"z": 0.2976370758,
				"element": "H" 
			},
			{
				"x": 2.4561770003,
				"y": 2.9630271124,
				"z": 1.9193273485,
				"element": "H" 
			},
			{
				"x": 0.9225895453,
				"y": 2.4081906082,
				"z": -1.3467276242,
				"element": "H" 
			},
			{
				"x": 2.5982971273,
				"y": 2.058533388,
				"z": -1.7255604627,
				"element": "H" 
			},
			{
				"x": 1.1477486922,
				"y": 0.4635024355,
				"z": -2.926663265,
				"element": "H" 
			},
			{
				"x": 2.0794836407,
				"y": -0.4032655184,
				"z": -1.7204882405,
				"element": "H" 
			},
			{
				"x": 0.627140505,
				"y": -2.3077836827,
				"z": -1.269241635,
				"element": "H" 
			},
			{
				"x": -0.0870583384,
				"y": -1.7376290619,
				"z": -2.7877258664,
				"element": "H" 
			},
			{
				"x": -1.1268507084,
				"y": -2.1208477938,
				"z": -1.417385498,
				"element": "H" 
			},
			{
				"x": -2.1739946013,
				"y": 0.1998335313,
				"z": -1.3475467679,
				"element": "H" 
			},
			{
				"x": -1.1774610768,
				"y": 1.6455965364,
				"z": -1.5064618428,
				"element": "H" 
			},
			{
				"x": -1.3026475445,
				"y": 0.5060088553,
				"z": -2.8593803226,
				"element": "H" 
			},
			{
				"x": 1.6304152977,
				"y": 1.2917545256,
				"z": 2.9534776949,
				"element": "H" 
			},
			{
				"x": -0.0589832127,
				"y": -0.0032867017,
				"z": 4.2073600343,
				"element": "H" 
			},
			{
				"x": -1.6806660263,
				"y": -1.4249176285,
				"z": 0.5210918392,
				"element": "H" 
			},
			{
				"x": -3.4558241172,
				"y": -2.6912043732,
				"z": 3.0715374494,
				"element": "H" 
			}
		],
		 "valence_orbital": [ 
			{
				"type": "occ",
				"energy": -0.30384,
				"method": "rhf"
			},
			{
				"type": "occ",
				"energy": -0.30084,
				"method": "rhf"
			},
			{
				"type": "occ",
				"energy": -0.27001,
				"method": "rhf"
			},
			{
				"type": "occ",
				"energy": -0.24852,
				"method": "rhf"
			},
			{
				"type": "occ",
				"energy": -0.24247,
				"method": "rhf"
			},
			{
				"type": "unocc",
				"energy": -0.04138,
				"method": "rhf"
			},
			{
				"type": "unocc",
				"energy": -0.00456,
				"method": "rhf"
			},
			{
				"type": "unocc",
				"energy": 0.0598,
				"method": "rhf"
			},
			{
				"type": "unocc",
				"energy": 0.07353,
				"method": "rhf"
			},
			{
				"type": "unocc",
				"energy": 0.08314,
				"method": "rhf"
			}
		],
		"cosmo_sigma_profile": { 
			"-0.025": 0.0,
			"-0.024": 0.0,
			"-0.023": 0.0,
			"-0.022": 0.0,
			"-0.021": 0.0,
			"-0.02": 0.0,
			"-0.019": 0.0,
			"-0.018": 0.476428253117,
			"-0.017": 1.14022614549,
			"-0.016": 0.919708169769,
			"-0.015": 0.6318095932,
			"-0.014": 0.302989554994,
			"-0.013": 0.47873934686,
			"-0.012": 0.762264143818,
			"-0.011": 1.06636907525,
			"-0.01": 1.15233344544,
			"-0.009": 0.433051867557,
			"-0.008": 0.624062552394,
			"-0.007": 0.471283653218,
			"-0.006": 2.70812464054,
			"-0.005": 7.51969000785,
			"-0.004": 9.381605471,
			"-0.003": 26.6696007772,
			"-0.002": 41.6816474295,
			"-0.001": 35.052884154,
			"0.0": 37.56626055,
			"0.001": 42.9724329348,
			"0.002": 19.6760073519,
			"0.003": 11.0455197397,
			"0.004": 11.2968791452,
			"0.005": 7.89127895573,
			"0.006": 3.14249390229,
			"0.007": 2.26308293874,
			"0.008": 2.90760363549,
			"0.009": 2.0539619846,
			"0.01": 1.84415853081,
			"0.011": 2.51222874531,
			"0.012": 5.41873183688,
			"0.013": 0.593453970274,
			"0.014": 0.0,
			"0.015": 0.0,
			"0.016": 0.0,
			"0.017": 0.0,
			"0.018": 0.0,
			"0.019": 0.0,
			"0.02": 0.0,
			"0.021": 0.0,
			"0.022": 0.0,
			"0.023": 0.0,
			"0.024": 0.0,
			"0.025": 0.0
		}
	}
}
