{
	 "smiles": "SCCCCCCCCCCS", 
	 "Tm": 290.15, 
	 "num_atms": 34, 
	 "gaussian": { 
		 "optdone": 1, 
		 "sigma_profile": "yes", 
		 "theory": "DFT", 
		 "functional": "B3LYP", 
		 "basiset": "6-31G**", 
		 "properties": { 
			 "R2extent": 5556.6642, 
			 "electric_dipole_moment_norm": 2.29170739406, 
			 "electric_quadrupole_moment_norm": 18.7156213242, 
			 "total_energy": -1190.70906162, 
			 "HOMO_LUMO_gap": 0.26147, 
			 "cosmo_polarized_energy": -7.98, 
			 "cosmo_cavitation_energy": 36.78, 
			 "cosmo_dispersion_energy": -26.22, 
			 "cosmo_repulsion_energy": 2.06, 
			 "cosmo_total_nonelectrostatic_energy": 12.63, 
			 "SMD_solvation_energy": 4.02 
		},
		"coords": [
			{
				"x": -1.564570837,
				"y": -0.147244897,
				"z": -4.284370062,
				"element": "S" 
			},
			{
				"x": -2.1344966914,
				"y": -1.2612919932,
				"z": -2.9228359156,
				"element": "C" 
			},
			{
				"x": -1.0432552971,
				"y": -2.0166250217,
				"z": -2.1464208963,
				"element": "C" 
			},
			{
				"x": -0.3266428162,
				"y": -1.2690649376,
				"z": -1.0051965928,
				"element": "C" 
			},
			{
				"x": 0.5699463352,
				"y": -0.0720841972,
				"z": -1.4028693204,
				"element": "C" 
			},
			{
				"x": -0.0992363594,
				"y": 1.3213240295,
				"z": -1.3589640175,
				"element": "C" 
			},
			{
				"x": 0.0543816136,
				"y": 2.133137061,
				"z": -0.0567538862,
				"element": "C" 
			},
			{
				"x": -0.635719965,
				"y": 1.5950677894,
				"z": 1.2153528072,
				"element": "C" 
			},
			{
				"x": 0.1846891471,
				"y": 0.5939795096,
				"z": 2.0438450851,
				"element": "C" 
			},
			{
				"x": -0.5442336087,
				"y": 0.1434237303,
				"z": 3.3154105215,
				"element": "C" 
			},
			{
				"x": 0.2087192672,
				"y": -0.8920224922,
				"z": 4.1569724247,
				"element": "C" 
			},
			{
				"x": 1.7431435745,
				"y": -0.289657962,
				"z": 4.9892642023,
				"element": "S" 
			},
			{
				"x": -1.1485143664,
				"y": -1.1255372938,
				"z": -5.1141557186,
				"element": "H" 
			},
			{
				"x": -2.845531993,
				"y": -1.9667800305,
				"z": -3.3604012149,
				"element": "H" 
			},
			{
				"x": -2.7091962974,
				"y": -0.6100341042,
				"z": -2.256954152,
				"element": "H" 
			},
			{
				"x": -0.300524675,
				"y": -2.4074987774,
				"z": -2.8538801199,
				"element": "H" 
			},
			{
				"x": -1.5276643731,
				"y": -2.8984897639,
				"z": -1.7037750146,
				"element": "H" 
			},
			{
				"x": 0.2882760771,
				"y": -2.0169388376,
				"z": -0.4880961713,
				"element": "H" 
			},
			{
				"x": -1.0784595208,
				"y": -0.947435565,
				"z": -0.2725989656,
				"element": "H" 
			},
			{
				"x": 1.4525743034,
				"y": -0.0531265789,
				"z": -0.7510757632,
				"element": "H" 
			},
			{
				"x": 0.9523380139,
				"y": -0.2501676382,
				"z": -2.4137462854,
				"element": "H" 
			},
			{
				"x": -1.1678996893,
				"y": 1.2295128,
				"z": -1.5922489471,
				"element": "H" 
			},
			{
				"x": 0.3198029326,
				"y": 1.9310761396,
				"z": -2.1679024377,
				"element": "H" 
			},
			{
				"x": -0.3463398161,
				"y": 3.1344931066,
				"z": -0.2596401089,
				"element": "H" 
			},
			{
				"x": 1.123995687,
				"y": 2.2811786693,
				"z": 0.151286002,
				"element": "H" 
			},
			{
				"x": -0.8720703696,
				"y": 2.4464499023,
				"z": 1.8676880394,
				"element": "H" 
			},
			{
				"x": -1.6055191627,
				"y": 1.1511927421,
				"z": 0.9483508954,
				"element": "H" 
			},
			{
				"x": 1.1374703343,
				"y": 1.0665502522,
				"z": 2.3162124525,
				"element": "H" 
			},
			{
				"x": 0.4368914845,
				"y": -0.2886346112,
				"z": 1.4437344903,
				"element": "H" 
			},
			{
				"x": -1.5089787272,
				"y": -0.3041045295,
				"z": 3.0339063965,
				"element": "H" 
			},
			{
				"x": -0.7752545709,
				"y": 1.0153015846,
				"z": 3.9397673466,
				"element": "H" 
			},
			{
				"x": 0.4579224074,
				"y": -1.7780596543,
				"z": 3.564744583,
				"element": "H" 
			},
			{
				"x": -0.416132371,
				"y": -1.2283351298,
				"z": 4.9895143055,
				"element": "H" 
			},
			{
				"x": 2.4962903296,
				"y": -0.1343533013,
				"z": 3.8826360378,
				"element": "H" 
			}
		],
		 "valence_orbital": [ 
			{
				"type": "occ",
				"energy": -0.3117,
				"method": "rhf"
			},
			{
				"type": "occ",
				"energy": -0.30283,
				"method": "rhf"
			},
			{
				"type": "occ",
				"energy": -0.29908,
				"method": "rhf"
			},
			{
				"type": "occ",
				"energy": -0.23472,
				"method": "rhf"
			},
			{
				"type": "occ",
				"energy": -0.23458,
				"method": "rhf"
			},
			{
				"type": "unocc",
				"energy": 0.02689,
				"method": "rhf"
			},
			{
				"type": "unocc",
				"energy": 0.03127,
				"method": "rhf"
			},
			{
				"type": "unocc",
				"energy": 0.06623,
				"method": "rhf"
			},
			{
				"type": "unocc",
				"energy": 0.06781,
				"method": "rhf"
			},
			{
				"type": "unocc",
				"energy": 0.07534,
				"method": "rhf"
			}
		],
		"cosmo_sigma_profile": { 
			"-0.025": 0.0,
			"-0.024": 0.0,
			"-0.023": 0.0,
			"-0.022": 0.0,
			"-0.021": 0.0,
			"-0.02": 0.0,
			"-0.019": 0.0,
			"-0.018": 0.0,
			"-0.017": 0.0,
			"-0.016": 0.0,
			"-0.015": 0.0,
			"-0.014": 0.0,
			"-0.013": 0.0,
			"-0.012": 0.0,
			"-0.011": 0.0,
			"-0.01": 0.0,
			"-0.009": 0.504273149874,
			"-0.008": 3.85929599252,
			"-0.007": 3.42441195396,
			"-0.006": 3.7922978188,
			"-0.005": 11.7486392412,
			"-0.004": 14.8062525013,
			"-0.003": 21.5461237119,
			"-0.002": 39.8941267028,
			"-0.001": 51.75653237,
			"0.0": 40.3163921673,
			"0.001": 28.2796787349,
			"0.002": 15.2721896983,
			"0.003": 6.69267668283,
			"0.004": 5.48173126042,
			"0.005": 8.04028065358,
			"0.006": 8.81028193896,
			"0.007": 6.24963030242,
			"0.008": 5.49847576311,
			"0.009": 4.35926986114,
			"0.01": 3.97004998423,
			"0.011": 2.70723457739,
			"0.012": 0.51866590711,
			"0.013": 0.0,
			"0.014": 0.0,
			"0.015": 0.0,
			"0.016": 0.0,
			"0.017": 0.0,
			"0.018": 0.0,
			"0.019": 0.0,
			"0.02": 0.0,
			"0.021": 0.0,
			"0.022": 0.0,
			"0.023": 0.0,
			"0.024": 0.0,
			"0.025": 0.0
		}
	}
}
