{
	 "smiles": "N#CC1=CC(=CC=C1)N1CCOCC1", 
	 "Tm": 513.15, 
	 "num_atms": 26, 
	 "gaussian": { 
		 "optdone": 1, 
		 "sigma_profile": "yes", 
		 "theory": "DFT", 
		 "functional": "B3LYP", 
		 "basiset": "6-31G**", 
		 "properties": { 
			 "R2extent": 3566.1175, 
			 "electric_dipole_moment_norm": 5.06148463003, 
			 "electric_quadrupole_moment_norm": 21.7638205555, 
			 "total_energy": -611.086783591, 
			 "HOMO_LUMO_gap": 0.16602, 
			 "cosmo_polarized_energy": -12.59, 
			 "cosmo_cavitation_energy": 29.21, 
			 "cosmo_dispersion_energy": -21.27, 
			 "cosmo_repulsion_energy": 1.67, 
			 "cosmo_total_nonelectrostatic_energy": 9.61, 
			 "SMD_solvation_energy": 5.29 
		},
		"coords": [
			{
				"x": -3.9968843842,
				"y": -3.0662077453,
				"z": -1.0712870952,
				"element": "N" 
			},
			{
				"x": -3.4384001768,
				"y": -2.0528002111,
				"z": -0.9503602644,
				"element": "C" 
			},
			{
				"x": -2.749632712,
				"y": -0.8018931402,
				"z": -0.7996325369,
				"element": "C" 
			},
			{
				"x": -1.5247189246,
				"y": -0.780521872,
				"z": -0.1191370421,
				"element": "C" 
			},
			{
				"x": -0.8176230301,
				"y": 0.4286958156,
				"z": 0.0483761272,
				"element": "C" 
			},
			{
				"x": -1.3881342343,
				"y": 1.6024921408,
				"z": -0.4993953137,
				"element": "C" 
			},
			{
				"x": -2.600702847,
				"y": 1.5608688364,
				"z": -1.1815049635,
				"element": "C" 
			},
			{
				"x": -3.3021865571,
				"y": 0.3683429292,
				"z": -1.3421449003,
				"element": "C" 
			},
			{
				"x": 0.3880440759,
				"y": 0.4634553257,
				"z": 0.7253641729,
				"element": "N" 
			},
			{
				"x": 1.2802490449,
				"y": 1.617028568,
				"z": 0.649261937,
				"element": "C" 
			},
			{
				"x": 2.7241743483,
				"y": 1.1689501646,
				"z": 0.8698719081,
				"element": "C" 
			},
			{
				"x": 2.9308755509,
				"y": 0.5274450246,
				"z": 2.122574106,
				"element": "O" 
			},
			{
				"x": 1.7921531726,
				"y": -0.1634313975,
				"z": 2.6250090181,
				"element": "C" 
			},
			{
				"x": 0.8524035721,
				"y": -0.6635458866,
				"z": 1.5293655026,
				"element": "C" 
			},
			{
				"x": -1.1233855171,
				"y": -1.7146526051,
				"z": 0.2521616405,
				"element": "H" 
			},
			{
				"x": -0.8933619662,
				"y": 2.5577162994,
				"z": -0.3694323215,
				"element": "H" 
			},
			{
				"x": -3.0098264403,
				"y": 2.4828212492,
				"z": -1.5841506176,
				"element": "H" 
			},
			{
				"x": -4.2492748248,
				"y": 0.3343257526,
				"z": -1.8675819875,
				"element": "H" 
			},
			{
				"x": 1.2142292344,
				"y": 2.0687457088,
				"z": -0.3468588052,
				"element": "H" 
			},
			{
				"x": 1.0113605364,
				"y": 2.395234485,
				"z": 1.3812342875,
				"element": "H" 
			},
			{
				"x": 3.0177754819,
				"y": 0.4980050798,
				"z": 0.0476550898,
				"element": "H" 
			},
			{
				"x": 3.3880832651,
				"y": 2.0391931093,
				"z": 0.8437110567,
				"element": "H" 
			},
			{
				"x": 2.1638365671,
				"y": -1.0129220518,
				"z": 3.2072627784,
				"element": "H" 
			},
			{
				"x": 1.226513315,
				"y": 0.4898330058,
				"z": 3.3072120243,
				"element": "H" 
			},
			{
				"x": 1.3575833257,
				"y": -1.4275879674,
				"z": 0.9172002439,
				"element": "H" 
			},
			{
				"x": -0.0036498761,
				"y": -1.146890618,
				"z": 2.0130259552,
				"element": "H" 
			}
		],
		 "valence_orbital": [ 
			{
				"type": "occ",
				"energy": -0.31849,
				"method": "rhf"
			},
			{
				"type": "occ",
				"energy": -0.29797,
				"method": "rhf"
			},
			{
				"type": "occ",
				"energy": -0.26269,
				"method": "rhf"
			},
			{
				"type": "occ",
				"energy": -0.2603,
				"method": "rhf"
			},
			{
				"type": "occ",
				"energy": -0.20858,
				"method": "rhf"
			},
			{
				"type": "unocc",
				"energy": -0.04256,
				"method": "rhf"
			},
			{
				"type": "unocc",
				"energy": -0.00427,
				"method": "rhf"
			},
			{
				"type": "unocc",
				"energy": 0.04444,
				"method": "rhf"
			},
			{
				"type": "unocc",
				"energy": 0.06713,
				"method": "rhf"
			},
			{
				"type": "unocc",
				"energy": 0.08468,
				"method": "rhf"
			}
		],
		"cosmo_sigma_profile": { 
			"-0.025": 0.0,
			"-0.024": 0.0,
			"-0.023": 0.0,
			"-0.022": 0.0,
			"-0.021": 0.0,
			"-0.02": 0.0,
			"-0.019": 0.0,
			"-0.018": 0.0,
			"-0.017": 0.0,
			"-0.016": 0.0,
			"-0.015": 0.0,
			"-0.014": 0.0,
			"-0.013": 0.0,
			"-0.012": 0.0,
			"-0.011": 0.0,
			"-0.01": 0.0,
			"-0.009": 0.0,
			"-0.008": 0.407723957351,
			"-0.007": 5.09945342905,
			"-0.006": 14.7388532296,
			"-0.005": 23.5644520613,
			"-0.004": 33.5424522616,
			"-0.003": 23.0706114516,
			"-0.002": 15.3647546571,
			"-0.001": 11.6943862958,
			"0.0": 14.1806662535,
			"0.001": 11.2431041952,
			"0.002": 11.7697998247,
			"0.003": 13.9773290684,
			"0.004": 13.6684295728,
			"0.005": 5.90236052781,
			"0.006": 4.04204639177,
			"0.007": 3.57416203519,
			"0.008": 5.01957410352,
			"0.009": 4.04615853824,
			"0.01": 4.93805234894,
			"0.011": 3.87237648362,
			"0.012": 4.19017149881,
			"0.013": 3.66648185884,
			"0.014": 0.747523477269,
			"0.015": 0.0,
			"0.016": 0.0,
			"0.017": 0.0,
			"0.018": 0.0,
			"0.019": 0.0,
			"0.02": 0.0,
			"0.021": 0.0,
			"0.022": 0.0,
			"0.023": 0.0,
			"0.024": 0.0,
			"0.025": 0.0
		}
	}
}
