{
	 "smiles": "FC1=CC2=C(C=C1)C(=O)OC(=O)N2", 
	 "Tm": 514.15, 
	 "num_atms": 17, 
	 "gaussian": { 
		 "optdone": 1, 
		 "sigma_profile": "yes", 
		 "theory": "DFT", 
		 "functional": "B3LYP", 
		 "basiset": "6-31G**", 
		 "properties": { 
			 "R2extent": 2437.5837, 
			 "electric_dipole_moment_norm": 5.23233896264, 
			 "electric_quadrupole_moment_norm": 9.66466847543, 
			 "total_energy": -687.552608946, 
			 "HOMO_LUMO_gap": 0.18804, 
			 "cosmo_polarized_energy": -16.47, 
			 "cosmo_cavitation_energy": 23.05, 
			 "cosmo_dispersion_energy": -17.27, 
			 "cosmo_repulsion_energy": 1.31, 
			 "cosmo_total_nonelectrostatic_energy": 7.1, 
			 "SMD_solvation_energy": 6.6 
		},
		"coords": [
			{
				"x": 1.9154590744,
				"y": -1.9715078882,
				"z": 3.473336302,
				"element": "F" 
			},
			{
				"x": 1.2760929791,
				"y": -1.2533232066,
				"z": 2.5376187626,
				"element": "C" 
			},
			{
				"x": 1.4615083837,
				"y": -1.5987687881,
				"z": 1.2066612127,
				"element": "C" 
			},
			{
				"x": 0.7927314905,
				"y": -0.8469677651,
				"z": 0.2341575318,
				"element": "C" 
			},
			{
				"x": -0.0376215408,
				"y": 0.2222275047,
				"z": 0.6121955773,
				"element": "C" 
			},
			{
				"x": -0.1967966664,
				"y": 0.5371320793,
				"z": 1.9694534754,
				"element": "C" 
			},
			{
				"x": 0.4579117295,
				"y": -0.1966886964,
				"z": 2.946943563,
				"element": "C" 
			},
			{
				"x": -0.7319299875,
				"y": 1.0010686775,
				"z": -0.4168176551,
				"element": "C" 
			},
			{
				"x": -1.4671886105,
				"y": 1.934863269,
				"z": -0.2306986193,
				"element": "O" 
			},
			{
				"x": -0.5039596486,
				"y": 0.603178346,
				"z": -1.7411834938,
				"element": "O" 
			},
			{
				"x": 0.3011782021,
				"y": -0.4359663091,
				"z": -2.1369711805,
				"element": "C" 
			},
			{
				"x": 0.4373415656,
				"y": -0.7059356929,
				"z": -3.3020634691,
				"element": "O" 
			},
			{
				"x": 0.9251760481,
				"y": -1.1279543738,
				"z": -1.1161883667,
				"element": "N" 
			},
			{
				"x": 2.1088895251,
				"y": -2.4292324554,
				"z": 0.9475083301,
				"element": "H" 
			},
			{
				"x": -0.844376146,
				"y": 1.3678125499,
				"z": 2.2279069056,
				"element": "H" 
			},
			{
				"x": 0.3538395942,
				"y": 0.0235945656,
				"z": 4.0026578093,
				"element": "H" 
			},
			{
				"x": 1.5132440074,
				"y": -1.8888318165,
				"z": -1.4263166855,
				"element": "H" 
			}
		],
		 "valence_orbital": [ 
			{
				"type": "occ",
				"energy": -0.32908,
				"method": "rhf"
			},
			{
				"type": "occ",
				"energy": -0.3183,
				"method": "rhf"
			},
			{
				"type": "occ",
				"energy": -0.29072,
				"method": "rhf"
			},
			{
				"type": "occ",
				"energy": -0.28543,
				"method": "rhf"
			},
			{
				"type": "occ",
				"energy": -0.25837,
				"method": "rhf"
			},
			{
				"type": "unocc",
				"energy": -0.07033,
				"method": "rhf"
			},
			{
				"type": "unocc",
				"energy": -0.04132,
				"method": "rhf"
			},
			{
				"type": "unocc",
				"energy": 0.00864,
				"method": "rhf"
			},
			{
				"type": "unocc",
				"energy": 0.05218,
				"method": "rhf"
			},
			{
				"type": "unocc",
				"energy": 0.05404,
				"method": "rhf"
			}
		],
		"cosmo_sigma_profile": { 
			"-0.025": 0.0,
			"-0.024": 0.0,
			"-0.023": 0.0,
			"-0.022": 0.0,
			"-0.021": 0.0,
			"-0.02": 0.0,
			"-0.019": 0.0,
			"-0.018": 0.306759045449,
			"-0.017": 1.48392134343,
			"-0.016": 1.28284529414,
			"-0.015": 1.59664876029,
			"-0.014": 0.898930759736,
			"-0.013": 1.13119155745,
			"-0.012": 1.0500776806,
			"-0.011": 1.19816295912,
			"-0.01": 2.15292294426,
			"-0.009": 3.98172501663,
			"-0.008": 5.34388822831,
			"-0.007": 7.08348521676,
			"-0.006": 8.83757415595,
			"-0.005": 6.71818705801,
			"-0.004": 8.82519083255,
			"-0.003": 9.55218885426,
			"-0.002": 11.48621429,
			"-0.001": 18.6526210092,
			"0.0": 15.850336851,
			"0.001": 11.2084327341,
			"0.002": 8.33146201898,
			"0.003": 11.6045658772,
			"0.004": 5.60640677996,
			"0.005": 2.83576329089,
			"0.006": 3.60025085378,
			"0.007": 3.92033555273,
			"0.008": 5.57751377879,
			"0.009": 5.43032172299,
			"0.01": 8.47290630705,
			"0.011": 9.74449095711,
			"0.012": 2.77457774822,
			"0.013": 0.0610850190919,
			"0.014": 0.0,
			"0.015": 0.0,
			"0.016": 0.0,
			"0.017": 0.0,
			"0.018": 0.0,
			"0.019": 0.0,
			"0.02": 0.0,
			"0.021": 0.0,
			"0.022": 0.0,
			"0.023": 0.0,
			"0.024": 0.0,
			"0.025": 0.0
		}
	}
}
