{
	 "smiles": "SC(=O)C1=CC=CC=C1", 
	 "Tm": 297.15, 
	 "num_atms": 15, 
	 "gaussian": { 
		 "optdone": 1, 
		 "sigma_profile": "yes", 
		 "theory": "DFT", 
		 "functional": "B3LYP", 
		 "basiset": "6-31G**", 
		 "properties": { 
			 "R2extent": 2360.7826, 
			 "electric_dipole_moment_norm": 4.14243699288, 
			 "electric_quadrupole_moment_norm": 13.4750493235, 
			 "total_energy": -743.769849535, 
			 "HOMO_LUMO_gap": 0.20027, 
			 "cosmo_polarized_energy": -8.76, 
			 "cosmo_cavitation_energy": 20.99, 
			 "cosmo_dispersion_energy": -16.08, 
			 "cosmo_repulsion_energy": 1.26, 
			 "cosmo_total_nonelectrostatic_energy": 6.17, 
			 "SMD_solvation_energy": 3.86 
		},
		"coords": [
			{
				"x": 0.202782697,
				"y": 4.2923891702,
				"z": 1.2225503249,
				"element": "S" 
			},
			{
				"x": -0.7690242292,
				"y": 3.0529999718,
				"z": 0.3054644766,
				"element": "C" 
			},
			{
				"x": -1.8451913756,
				"y": 3.4016410035,
				"z": -0.1260807165,
				"element": "O" 
			},
			{
				"x": -0.2361237607,
				"y": 1.6662497453,
				"z": 0.1237735133,
				"element": "C" 
			},
			{
				"x": 1.1256408908,
				"y": 1.3348014488,
				"z": 0.1548064862,
				"element": "C" 
			},
			{
				"x": 1.5309224694,
				"y": 0.017173218,
				"z": -0.0545773751,
				"element": "C" 
			},
			{
				"x": 0.5816365348,
				"y": -0.97952677,
				"z": -0.2887612413,
				"element": "C" 
			},
			{
				"x": -0.7767340788,
				"y": -0.6537574989,
				"z": -0.3311467483,
				"element": "C" 
			},
			{
				"x": -1.1838256229,
				"y": 0.6630999841,
				"z": -0.1375212092,
				"element": "C" 
			},
			{
				"x": 1.1403713404,
				"y": 3.4789687492,
				"z": 1.7439841505,
				"element": "H" 
			},
			{
				"x": 1.8752188723,
				"y": 2.1045764076,
				"z": 0.30510402,
				"element": "H" 
			},
			{
				"x": 2.5882782495,
				"y": -0.2292642092,
				"z": -0.0402570344,
				"element": "H" 
			},
			{
				"x": 0.8999697735,
				"y": -2.0062435682,
				"z": -0.444278181,
				"element": "H" 
			},
			{
				"x": -1.5167411372,
				"y": -1.4259388068,
				"z": -0.5190662229,
				"element": "H" 
			},
			{
				"x": -2.2320806234,
				"y": 0.9381311544,
				"z": -0.1794942429,
				"element": "H" 
			}
		],
		 "valence_orbital": [ 
			{
				"type": "occ",
				"energy": -0.36043,
				"method": "rhf"
			},
			{
				"type": "occ",
				"energy": -0.27461,
				"method": "rhf"
			},
			{
				"type": "occ",
				"energy": -0.27212,
				"method": "rhf"
			},
			{
				"type": "occ",
				"energy": -0.2678,
				"method": "rhf"
			},
			{
				"type": "occ",
				"energy": -0.26391,
				"method": "rhf"
			},
			{
				"type": "unocc",
				"energy": -0.06364,
				"method": "rhf"
			},
			{
				"type": "unocc",
				"energy": -0.02213,
				"method": "rhf"
			},
			{
				"type": "unocc",
				"energy": 0.01947,
				"method": "rhf"
			},
			{
				"type": "unocc",
				"energy": 0.02652,
				"method": "rhf"
			},
			{
				"type": "unocc",
				"energy": 0.05836,
				"method": "rhf"
			}
		],
		"cosmo_sigma_profile": { 
			"-0.025": 0.0,
			"-0.024": 0.0,
			"-0.023": 0.0,
			"-0.022": 0.0,
			"-0.021": 0.0,
			"-0.02": 0.0,
			"-0.019": 0.0,
			"-0.018": 0.0,
			"-0.017": 0.0,
			"-0.016": 0.0,
			"-0.015": 0.0,
			"-0.014": 0.0,
			"-0.013": 0.0,
			"-0.012": 0.482643230118,
			"-0.011": 2.06559754796,
			"-0.01": 2.00384871172,
			"-0.009": 1.34113789723,
			"-0.008": 2.62432015563,
			"-0.007": 5.50395017389,
			"-0.006": 11.163119847,
			"-0.005": 12.0022391209,
			"-0.004": 10.4918292889,
			"-0.003": 8.92938297095,
			"-0.002": 12.1783606548,
			"-0.001": 8.28277377656,
			"0.0": 10.3610626906,
			"0.001": 12.0955429217,
			"0.002": 14.0516043651,
			"0.003": 18.7061365045,
			"0.004": 13.3640025847,
			"0.005": 5.7944449033,
			"0.006": 4.65512630223,
			"0.007": 3.90935313723,
			"0.008": 1.3611149952,
			"0.009": 2.31773597367,
			"0.01": 4.07040605267,
			"0.011": 3.31491858598,
			"0.012": 0.298855566465,
			"0.013": 0.0,
			"0.014": 0.0,
			"0.015": 0.0,
			"0.016": 0.0,
			"0.017": 0.0,
			"0.018": 0.0,
			"0.019": 0.0,
			"0.02": 0.0,
			"0.021": 0.0,
			"0.022": 0.0,
			"0.023": 0.0,
			"0.024": 0.0,
			"0.025": 0.0
		}
	}
}
