{
	 "smiles": "CC1=CC=C(S1)C1=CC=CC=C1", 
	 "Tm": 320.65, 
	 "num_atms": 22, 
	 "gaussian": { 
		 "optdone": 1, 
		 "sigma_profile": "yes", 
		 "theory": "DFT", 
		 "functional": "B3LYP", 
		 "basiset": "6-31G**", 
		 "properties": { 
			 "R2extent": 3172.8636, 
			 "electric_dipole_moment_norm": 0.73664898018, 
			 "electric_quadrupole_moment_norm": 9.08317142853, 
			 "total_energy": -823.38446867, 
			 "HOMO_LUMO_gap": 0.17031, 
			 "cosmo_polarized_energy": -5.26, 
			 "cosmo_cavitation_energy": 27.04, 
			 "cosmo_dispersion_energy": -20.48, 
			 "cosmo_repulsion_energy": 1.57, 
			 "cosmo_total_nonelectrostatic_energy": 8.14, 
			 "SMD_solvation_energy": 4.27 
		},
		"coords": [
			{
				"x": 3.2205984749,
				"y": -2.1000851902,
				"z": 1.2810128912,
				"element": "C" 
			},
			{
				"x": 1.9333326119,
				"y": -1.9866662867,
				"z": 0.521088555,
				"element": "C" 
			},
			{
				"x": 1.168185357,
				"y": -2.9879749922,
				"z": -0.0160650295,
				"element": "C" 
			},
			{
				"x": -0.0057417393,
				"y": -2.5234614552,
				"z": -0.6774575908,
				"element": "C" 
			},
			{
				"x": -0.1507756968,
				"y": -1.1565411974,
				"z": -0.654108291,
				"element": "C" 
			},
			{
				"x": 1.2015927447,
				"y": -0.4315608265,
				"z": 0.2024399028,
				"element": "S" 
			},
			{
				"x": -1.2243888918,
				"y": -0.3375842008,
				"z": -1.2302019127,
				"element": "C" 
			},
			{
				"x": -1.5560483685,
				"y": 0.9234888488,
				"z": -0.7021662548,
				"element": "C" 
			},
			{
				"x": -2.582965157,
				"y": 1.6843213694,
				"z": -1.2574141307,
				"element": "C" 
			},
			{
				"x": -3.3098693936,
				"y": 1.2007028994,
				"z": -2.3467438944,
				"element": "C" 
			},
			{
				"x": -2.9924992749,
				"y": -0.0503158284,
				"z": -2.8810834249,
				"element": "C" 
			},
			{
				"x": -1.9583255312,
				"y": -0.8072883038,
				"z": -2.3360814458,
				"element": "C" 
			},
			{
				"x": 4.0398200657,
				"y": -1.5689465603,
				"z": 0.7826774794,
				"element": "H" 
			},
			{
				"x": 3.5070559201,
				"y": -3.1521168276,
				"z": 1.3658820741,
				"element": "H" 
			},
			{
				"x": 3.1359017692,
				"y": -1.6927905539,
				"z": 2.2951252966,
				"element": "H" 
			},
			{
				"x": 1.4353669818,
				"y": -4.0363455128,
				"z": 0.0680005087,
				"element": "H" 
			},
			{
				"x": -0.7361635478,
				"y": -3.1836382953,
				"z": -1.1314368181,
				"element": "H" 
			},
			{
				"x": -1.0165553999,
				"y": 1.3010233765,
				"z": 0.1617957033,
				"element": "H" 
			},
			{
				"x": -2.8214073286,
				"y": 2.6545336046,
				"z": -0.8308077493,
				"element": "H" 
			},
			{
				"x": -4.1121536298,
				"y": 1.7928955362,
				"z": -2.7769363947,
				"element": "H" 
			},
			{
				"x": -3.544058288,
				"y": -0.4333783643,
				"z": -3.7351367181,
				"element": "H" 
			},
			{
				"x": -1.6988016779,
				"y": -1.7630712397,
				"z": -2.7806827563,
				"element": "H" 
			}
		],
		 "valence_orbital": [ 
			{
				"type": "occ",
				"energy": -0.32666,
				"method": "rhf"
			},
			{
				"type": "occ",
				"energy": -0.2677,
				"method": "rhf"
			},
			{
				"type": "occ",
				"energy": -0.25045,
				"method": "rhf"
			},
			{
				"type": "occ",
				"energy": -0.24531,
				"method": "rhf"
			},
			{
				"type": "occ",
				"energy": -0.2039,
				"method": "rhf"
			},
			{
				"type": "unocc",
				"energy": -0.03359,
				"method": "rhf"
			},
			{
				"type": "unocc",
				"energy": -0.00152,
				"method": "rhf"
			},
			{
				"type": "unocc",
				"energy": 0.02497,
				"method": "rhf"
			},
			{
				"type": "unocc",
				"energy": 0.03707,
				"method": "rhf"
			},
			{
				"type": "unocc",
				"energy": 0.07678,
				"method": "rhf"
			}
		],
		"cosmo_sigma_profile": { 
			"-0.025": 0.0,
			"-0.024": 0.0,
			"-0.023": 0.0,
			"-0.022": 0.0,
			"-0.021": 0.0,
			"-0.02": 0.0,
			"-0.019": 0.0,
			"-0.018": 0.0,
			"-0.017": 0.0,
			"-0.016": 0.0,
			"-0.015": 0.0,
			"-0.014": 0.0,
			"-0.013": 0.0,
			"-0.012": 0.0,
			"-0.011": 0.0,
			"-0.01": 0.0,
			"-0.009": 0.0,
			"-0.008": 0.0,
			"-0.007": 0.511884188742,
			"-0.006": 8.84449707606,
			"-0.005": 18.2777606231,
			"-0.004": 21.0735782226,
			"-0.003": 21.4753086906,
			"-0.002": 17.637321287,
			"-0.001": 18.5900001903,
			"0.0": 14.0634805966,
			"0.001": 12.2583605196,
			"0.002": 15.1896346283,
			"0.003": 18.03933814,
			"0.004": 20.7567550464,
			"0.005": 22.3840016607,
			"0.006": 9.31297133503,
			"0.007": 0.0,
			"0.008": 0.0,
			"0.009": 0.0,
			"0.01": 0.0,
			"0.011": 0.0,
			"0.012": 0.0,
			"0.013": 0.0,
			"0.014": 0.0,
			"0.015": 0.0,
			"0.016": 0.0,
			"0.017": 0.0,
			"0.018": 0.0,
			"0.019": 0.0,
			"0.02": 0.0,
			"0.021": 0.0,
			"0.022": 0.0,
			"0.023": 0.0,
			"0.024": 0.0,
			"0.025": 0.0
		}
	}
}
