{
	 "smiles": "COC1=CC2=C(C=C1)C(C)=CC(=O)O2", 
	 "Tm": 434.15, 
	 "num_atms": 24, 
	 "gaussian": { 
		 "optdone": 1, 
		 "sigma_profile": "yes", 
		 "theory": "DFT", 
		 "functional": "B3LYP", 
		 "basiset": "6-31G**", 
		 "properties": { 
			 "R2extent": 3325.9945, 
			 "electric_dipole_moment_norm": 4.51760709779, 
			 "electric_quadrupole_moment_norm": 25.9490685856, 
			 "total_energy": -650.871052632, 
			 "HOMO_LUMO_gap": 0.16408, 
			 "cosmo_polarized_energy": -12.72, 
			 "cosmo_cavitation_energy": 28.03, 
			 "cosmo_dispersion_energy": -20.83, 
			 "cosmo_repulsion_energy": 1.61, 
			 "cosmo_total_nonelectrostatic_energy": 8.81, 
			 "SMD_solvation_energy": 6.76 
		},
		"coords": [
			{
				"x": -3.101287843,
				"y": 0.886130998,
				"z": 2.8688559553,
				"element": "C" 
			},
			{
				"x": -2.5865022258,
				"y": -0.2281335924,
				"z": 2.1502233631,
				"element": "O" 
			},
			{
				"x": -1.5059466597,
				"y": -0.038425226,
				"z": 1.351440617,
				"element": "C" 
			},
			{
				"x": -0.8567617001,
				"y": 1.1845555457,
				"z": 1.1823650498,
				"element": "C" 
			},
			{
				"x": 0.2489196787,
				"y": 1.2520421178,
				"z": 0.3297119532,
				"element": "C" 
			},
			{
				"x": 0.7305002913,
				"y": 0.1263469955,
				"z": -0.3652575285,
				"element": "C" 
			},
			{
				"x": 0.0480679405,
				"y": -1.0942392481,
				"z": -0.1693805553,
				"element": "C" 
			},
			{
				"x": -1.0464051215,
				"y": -1.1840540921,
				"z": 0.6681486814,
				"element": "C" 
			},
			{
				"x": 1.8850070931,
				"y": 0.2984900045,
				"z": -1.2269657236,
				"element": "C" 
			},
			{
				"x": 2.4393778244,
				"y": -0.8731244779,
				"z": -1.9920687884,
				"element": "C" 
			},
			{
				"x": 2.448900668,
				"y": 1.5312475575,
				"z": -1.3260853449,
				"element": "C" 
			},
			{
				"x": 1.9515092219,
				"y": 2.692570533,
				"z": -0.6086860461,
				"element": "C" 
			},
			{
				"x": 2.4027213319,
				"y": 3.8136155114,
				"z": -0.6506457316,
				"element": "O" 
			},
			{
				"x": 0.8361443125,
				"y": 2.4747549584,
				"z": 0.2094049227,
				"element": "O" 
			},
			{
				"x": -3.4381617887,
				"y": 1.6798070005,
				"z": 2.1909004104,
				"element": "H" 
			},
			{
				"x": -3.9535297551,
				"y": 0.5091799498,
				"z": 3.4354025947,
				"element": "H" 
			},
			{
				"x": -2.3563121524,
				"y": 1.2950806431,
				"z": 3.5622476555,
				"element": "H" 
			},
			{
				"x": -1.1709519878,
				"y": 2.0904310134,
				"z": 1.683854609,
				"element": "H" 
			},
			{
				"x": 0.3899862564,
				"y": -1.9836339669,
				"z": -0.6880762883,
				"element": "H" 
			},
			{
				"x": -1.5708594082,
				"y": -2.1209626446,
				"z": 0.8190706783,
				"element": "H" 
			},
			{
				"x": 1.6852658391,
				"y": -1.296030151,
				"z": -2.6656707524,
				"element": "H" 
			},
			{
				"x": 2.750847038,
				"y": -1.675139145,
				"z": -1.3130751479,
				"element": "H" 
			},
			{
				"x": 3.3036437023,
				"y": -0.5768685858,
				"z": -2.5899183371,
				"element": "H" 
			},
			{
				"x": 3.3123274442,
				"y": 1.7148583012,
				"z": -1.9551962465,
				"element": "H" 
			}
		],
		 "valence_orbital": [ 
			{
				"type": "occ",
				"energy": -0.33093,
				"method": "rhf"
			},
			{
				"type": "occ",
				"energy": -0.28375,
				"method": "rhf"
			},
			{
				"type": "occ",
				"energy": -0.26526,
				"method": "rhf"
			},
			{
				"type": "occ",
				"energy": -0.25114,
				"method": "rhf"
			},
			{
				"type": "occ",
				"energy": -0.21957,
				"method": "rhf"
			},
			{
				"type": "unocc",
				"energy": -0.05549,
				"method": "rhf"
			},
			{
				"type": "unocc",
				"energy": -0.0106,
				"method": "rhf"
			},
			{
				"type": "unocc",
				"energy": 0.01278,
				"method": "rhf"
			},
			{
				"type": "unocc",
				"energy": 0.08248,
				"method": "rhf"
			},
			{
				"type": "unocc",
				"energy": 0.09434,
				"method": "rhf"
			}
		],
		"cosmo_sigma_profile": { 
			"-0.025": 0.0,
			"-0.024": 0.0,
			"-0.023": 0.0,
			"-0.022": 0.0,
			"-0.021": 0.0,
			"-0.02": 0.0,
			"-0.019": 0.0,
			"-0.018": 0.0,
			"-0.017": 0.0,
			"-0.016": 0.0,
			"-0.015": 0.0,
			"-0.014": 0.0,
			"-0.013": 0.0,
			"-0.012": 0.0,
			"-0.011": 0.0,
			"-0.01": 0.0,
			"-0.009": 0.0,
			"-0.008": 0.384086205655,
			"-0.007": 5.94118581819,
			"-0.006": 18.924848394,
			"-0.005": 22.3296035375,
			"-0.004": 19.2435556843,
			"-0.003": 18.01978322,
			"-0.002": 17.1453424221,
			"-0.001": 16.3901875607,
			"0.0": 14.9694109526,
			"0.001": 16.8416614151,
			"0.002": 18.9825739655,
			"0.003": 13.0662896592,
			"0.004": 6.29242354717,
			"0.005": 3.97278605553,
			"0.006": 3.24096069703,
			"0.007": 3.85480398848,
			"0.008": 2.65798159621,
			"0.009": 4.24942030983,
			"0.01": 3.26026328661,
			"0.011": 2.85958093119,
			"0.012": 5.91361981679,
			"0.013": 4.65709117171,
			"0.014": 0.606418718696,
			"0.015": 0.0,
			"0.016": 0.0,
			"0.017": 0.0,
			"0.018": 0.0,
			"0.019": 0.0,
			"0.02": 0.0,
			"0.021": 0.0,
			"0.022": 0.0,
			"0.023": 0.0,
			"0.024": 0.0,
			"0.025": 0.0
		}
	}
}
