{
	 "smiles": "ClC1=CC=C(C=C1)C(=O)C1=NOC(=C1S(=O)(=O)C1=CC=CC=C1)C1=CC=C(Cl)C=C1", 
	 "Tm": 420.15, 
	 "num_atms": 43, 
	 "gaussian": { 
		 "optdone": 1, 
		 "sigma_profile": "yes", 
		 "theory": "DFT", 
		 "functional": "B3LYP", 
		 "basiset": "6-31G**", 
		 "properties": { 
			 "R2extent": 16695.2935, 
			 "electric_dipole_moment_norm": 6.29340717895, 
			 "electric_quadrupole_moment_norm": 6.10426428327, 
			 "total_energy": -2520.26357002, 
			 "HOMO_LUMO_gap": 0.17754, 
			 "cosmo_polarized_energy": -20.06, 
			 "cosmo_cavitation_energy": 54.2, 
			 "cosmo_dispersion_energy": -36.0, 
			 "cosmo_repulsion_energy": 2.67, 
			 "cosmo_total_nonelectrostatic_energy": 20.87, 
			 "SMD_solvation_energy": 7.94 
		},
		"coords": [
			{
				"x": -4.5409277282,
				"y": 2.142846722,
				"z": -5.0863902933,
				"element": "Cl" 
			},
			{
				"x": -3.0234252112,
				"y": 2.2262680915,
				"z": -4.2135954832,
				"element": "C" 
			},
			{
				"x": -1.8295042547,
				"y": 2.3647803033,
				"z": -4.9284422617,
				"element": "C" 
			},
			{
				"x": -0.6303331881,
				"y": 2.4304312797,
				"z": -4.2305876318,
				"element": "C" 
			},
			{
				"x": -0.6136574312,
				"y": 2.3523155212,
				"z": -2.8287529571,
				"element": "C" 
			},
			{
				"x": -1.8227597654,
				"y": 2.2149068916,
				"z": -2.1318203507,
				"element": "C" 
			},
			{
				"x": -3.0329949161,
				"y": 2.1539270924,
				"z": -2.8201510398,
				"element": "C" 
			},
			{
				"x": 0.6996585029,
				"y": 2.431596908,
				"z": -2.1397226461,
				"element": "C" 
			},
			{
				"x": 1.7380096506,
				"y": 2.6987253078,
				"z": -2.7125770628,
				"element": "O" 
			},
			{
				"x": 0.7523809387,
				"y": 2.2065152311,
				"z": -0.6344421614,
				"element": "C" 
			},
			{
				"x": 0.4923606489,
				"y": 3.2132208128,
				"z": 0.162799941,
				"element": "N" 
			},
			{
				"x": 0.7610654228,
				"y": 2.7466929242,
				"z": 1.4558785908,
				"element": "O" 
			},
			{
				"x": 1.177917293,
				"y": 1.4641147768,
				"z": 1.4169578208,
				"element": "C" 
			},
			{
				"x": 1.1807326803,
				"y": 1.0530577723,
				"z": 0.0977787347,
				"element": "C" 
			},
			{
				"x": 1.458635863,
				"y": -0.551512494,
				"z": -0.6329358399,
				"element": "S" 
			},
			{
				"x": 1.2748694343,
				"y": -0.3523695561,
				"z": -2.0766134162,
				"element": "O" 
			},
			{
				"x": 2.7019408593,
				"y": -1.119972741,
				"z": -0.0909393682,
				"element": "O" 
			},
			{
				"x": 0.0874584632,
				"y": -1.5552664094,
				"z": -0.0416587035,
				"element": "C" 
			},
			{
				"x": -1.1420242638,
				"y": -1.4672656942,
				"z": -0.7012159804,
				"element": "C" 
			},
			{
				"x": -2.2032338969,
				"y": -2.2526888838,
				"z": -0.2537387812,
				"element": "C" 
			},
			{
				"x": -2.0287605041,
				"y": -3.1146675719,
				"z": 0.8328187377,
				"element": "C" 
			},
			{
				"x": -0.7909707218,
				"y": -3.2017874949,
				"z": 1.4729252584,
				"element": "C" 
			},
			{
				"x": 0.2803065481,
				"y": -2.4206346214,
				"z": 1.0365256482,
				"element": "C" 
			},
			{
				"x": 1.4846938072,
				"y": 0.8652298999,
				"z": 2.7176139999,
				"element": "C" 
			},
			{
				"x": 2.4811350387,
				"y": -0.1150827941,
				"z": 2.8623225436,
				"element": "C" 
			},
			{
				"x": 2.7686256008,
				"y": -0.6437053194,
				"z": 4.1184878125,
				"element": "C" 
			},
			{
				"x": 2.0626845101,
				"y": -0.1901971274,
				"z": 5.2330207711,
				"element": "C" 
			},
			{
				"x": 2.4210158649,
				"y": -0.8590667191,
				"z": 6.8123018573,
				"element": "Cl" 
			},
			{
				"x": 1.0778598955,
				"y": 0.7923790725,
				"z": 5.1125725137,
				"element": "C" 
			},
			{
				"x": 0.7956951381,
				"y": 1.3192836012,
				"z": 3.8573348422,
				"element": "C" 
			},
			{
				"x": -1.8488525102,
				"y": 2.4182274693,
				"z": -6.0111320377,
				"element": "H" 
			},
			{
				"x": 0.313521304,
				"y": 2.5379798293,
				"z": -4.7541404542,
				"element": "H" 
			},
			{
				"x": -1.8250612549,
				"y": 2.1750944077,
				"z": -1.0476875374,
				"element": "H" 
			},
			{
				"x": -3.9722914864,
				"y": 2.0576094002,
				"z": -2.2874368564,
				"element": "H" 
			},
			{
				"x": -1.2546292198,
				"y": -0.8103373431,
				"z": -1.5570074436,
				"element": "H" 
			},
			{
				"x": -3.1627455802,
				"y": -2.1991837518,
				"z": -0.758918423,
				"element": "H" 
			},
			{
				"x": -2.8580839652,
				"y": -3.7266254467,
				"z": 1.1749972965,
				"element": "H" 
			},
			{
				"x": -0.6547802191,
				"y": -3.8824444183,
				"z": 2.3076429564,
				"element": "H" 
			},
			{
				"x": 1.25373627,
				"y": -2.4902226281,
				"z": 1.5072808,
				"element": "H" 
			},
			{
				"x": 3.038401851,
				"y": -0.4520298343,
				"z": 1.9959029784,
				"element": "H" 
			},
			{
				"x": 3.5429763366,
				"y": -1.393782205,
				"z": 4.2336275159,
				"element": "H" 
			},
			{
				"x": 0.5420691451,
				"y": 1.1367524448,
				"z": 5.9897933017,
				"element": "H" 
			},
			{
				"x": 0.0342850504,
				"y": 2.0845872943,
				"z": 3.7552228092,
				"element": "H" 
			}
		],
		 "valence_orbital": [ 
			{
				"type": "occ",
				"energy": -0.28194,
				"method": "rhf"
			},
			{
				"type": "occ",
				"energy": -0.28021,
				"method": "rhf"
			},
			{
				"type": "occ",
				"energy": -0.27257,
				"method": "rhf"
			},
			{
				"type": "occ",
				"energy": -0.2637,
				"method": "rhf"
			},
			{
				"type": "occ",
				"energy": -0.25614,
				"method": "rhf"
			},
			{
				"type": "unocc",
				"energy": -0.0786,
				"method": "rhf"
			},
			{
				"type": "unocc",
				"energy": -0.0782,
				"method": "rhf"
			},
			{
				"type": "unocc",
				"energy": -0.05161,
				"method": "rhf"
			},
			{
				"type": "unocc",
				"energy": -0.0372,
				"method": "rhf"
			},
			{
				"type": "unocc",
				"energy": -0.03141,
				"method": "rhf"
			}
		],
		"cosmo_sigma_profile": { 
			"-0.025": 0.0,
			"-0.024": 0.0,
			"-0.023": 0.0,
			"-0.022": 0.0,
			"-0.021": 0.0,
			"-0.02": 0.0,
			"-0.019": 0.0,
			"-0.018": 0.0,
			"-0.017": 0.0,
			"-0.016": 0.0,
			"-0.015": 0.0,
			"-0.014": 0.0,
			"-0.013": 0.0,
			"-0.012": 0.0,
			"-0.011": 0.0,
			"-0.01": 0.0,
			"-0.009": 0.498113845777,
			"-0.008": 9.16395851866,
			"-0.007": 21.2089394163,
			"-0.006": 26.0192701928,
			"-0.005": 23.8097322236,
			"-0.004": 24.27828798,
			"-0.003": 29.1615860708,
			"-0.002": 29.4463916564,
			"-0.001": 31.675993838,
			"0.0": 45.0253499684,
			"0.001": 52.3186898501,
			"0.002": 37.5842169013,
			"0.003": 31.5423289195,
			"0.004": 25.5623569695,
			"0.005": 9.26324588324,
			"0.006": 5.82459961844,
			"0.007": 6.94196722759,
			"0.008": 6.978691691,
			"0.009": 8.49109462719,
			"0.01": 10.6358297386,
			"0.011": 7.35025636595,
			"0.012": 0.402610464818,
			"0.013": 0.0,
			"0.014": 0.0,
			"0.015": 0.0,
			"0.016": 0.0,
			"0.017": 0.0,
			"0.018": 0.0,
			"0.019": 0.0,
			"0.02": 0.0,
			"0.021": 0.0,
			"0.022": 0.0,
			"0.023": 0.0,
			"0.024": 0.0,
			"0.025": 0.0
		}
	}
}
