{
	 "smiles": "CCCCC1=CC=C(C=C1)N1N=NN=C1S", 
	 "Tm": 363.15, 
	 "num_atms": 30, 
	 "gaussian": { 
		 "optdone": 1, 
		 "sigma_profile": "yes", 
		 "theory": "DFT", 
		 "functional": "B3LYP", 
		 "basiset": "6-31G**", 
		 "properties": { 
			 "R2extent": 7381.3146, 
			 "electric_dipole_moment_norm": 7.6062620958, 
			 "electric_quadrupole_moment_norm": 28.6161283096, 
			 "total_energy": -1044.75087897, 
			 "HOMO_LUMO_gap": 0.21066, 
			 "cosmo_polarized_energy": -14.68, 
			 "cosmo_cavitation_energy": 35.69, 
			 "cosmo_dispersion_energy": -25.57, 
			 "cosmo_repulsion_energy": 1.97, 
			 "cosmo_total_nonelectrostatic_energy": 12.08, 
			 "SMD_solvation_energy": 3.26 
		},
		"coords": [
			{
				"x": 4.6399323504,
				"y": 0.2926400754,
				"z": -2.6340062573,
				"element": "C" 
			},
			{
				"x": 4.7171704243,
				"y": 0.2413106597,
				"z": -1.1035151473,
				"element": "C" 
			},
			{
				"x": 3.4459276875,
				"y": 0.7179590202,
				"z": -0.3828719176,
				"element": "C" 
			},
			{
				"x": 2.2142389459,
				"y": -0.1851937192,
				"z": -0.6111289005,
				"element": "C" 
			},
			{
				"x": 0.9963742789,
				"y": 0.2886919261,
				"z": 0.1501231185,
				"element": "C" 
			},
			{
				"x": 0.7380811329,
				"y": -0.163220513,
				"z": 1.4513572495,
				"element": "C" 
			},
			{
				"x": -0.357337858,
				"y": 0.3039458784,
				"z": 2.1767151934,
				"element": "C" 
			},
			{
				"x": -1.2258405844,
				"y": 1.2257554735,
				"z": 1.5859710242,
				"element": "C" 
			},
			{
				"x": -0.9901038358,
				"y": 1.6948400097,
				"z": 0.2913218057,
				"element": "C" 
			},
			{
				"x": 0.1176613098,
				"y": 1.228063587,
				"z": -0.4107087612,
				"element": "C" 
			},
			{
				"x": -2.353957391,
				"y": 1.7162936492,
				"z": 2.3073634544,
				"element": "N" 
			},
			{
				"x": -2.5754444569,
				"y": 3.0624185135,
				"z": 2.4457581013,
				"element": "N" 
			},
			{
				"x": -3.6646545464,
				"y": 3.1867055113,
				"z": 3.1192479032,
				"element": "N" 
			},
			{
				"x": -4.2013635024,
				"y": 1.9779360531,
				"z": 3.4362756874,
				"element": "N" 
			},
			{
				"x": -3.3834876408,
				"y": 1.0765609282,
				"z": 2.9244848699,
				"element": "C" 
			},
			{
				"x": -3.681528829,
				"y": -0.6516753049,
				"z": 3.0497968019,
				"element": "S" 
			},
			{
				"x": 3.8725645356,
				"y": -0.3801962809,
				"z": -3.0309407956,
				"element": "H" 
			},
			{
				"x": 5.5934345004,
				"y": -0.001264317,
				"z": -3.0843162517,
				"element": "H" 
			},
			{
				"x": 4.4067581935,
				"y": 1.3052229979,
				"z": -2.9833906225,
				"element": "H" 
			},
			{
				"x": 5.5558550289,
				"y": 0.8641325243,
				"z": -0.7682891347,
				"element": "H" 
			},
			{
				"x": 4.9532043557,
				"y": -0.7822969908,
				"z": -0.7815282717,
				"element": "H" 
			},
			{
				"x": 3.641278108,
				"y": 0.7740004065,
				"z": 0.6954026428,
				"element": "H" 
			},
			{
				"x": 3.2035124038,
				"y": 1.7408510186,
				"z": -0.7012341518,
				"element": "H" 
			},
			{
				"x": 2.4626346393,
				"y": -1.2096235476,
				"z": -0.3063158936,
				"element": "H" 
			},
			{
				"x": 1.9785782755,
				"y": -0.224887309,
				"z": -1.6803913354,
				"element": "H" 
			},
			{
				"x": 1.4098182125,
				"y": -0.88321484,
				"z": 1.911237138,
				"element": "H" 
			},
			{
				"x": -0.5267775851,
				"y": -0.0278879882,
				"z": 3.1960488533,
				"element": "H" 
			},
			{
				"x": -1.6699114567,
				"y": 2.417402688,
				"z": -0.146453321,
				"element": "H" 
			},
			{
				"x": 0.298675038,
				"y": 1.5931313366,
				"z": -1.4182229564,
				"element": "H" 
			},
			{
				"x": -2.6889917345,
				"y": -1.0177014469,
				"z": 2.2137098749,
				"element": "H" 
			}
		],
		 "valence_orbital": [ 
			{
				"type": "occ",
				"energy": -0.29627,
				"method": "rhf"
			},
			{
				"type": "occ",
				"energy": -0.28792,
				"method": "rhf"
			},
			{
				"type": "occ",
				"energy": -0.27886,
				"method": "rhf"
			},
			{
				"type": "occ",
				"energy": -0.26307,
				"method": "rhf"
			},
			{
				"type": "occ",
				"energy": -0.25396,
				"method": "rhf"
			},
			{
				"type": "unocc",
				"energy": -0.0433,
				"method": "rhf"
			},
			{
				"type": "unocc",
				"energy": -0.03294,
				"method": "rhf"
			},
			{
				"type": "unocc",
				"energy": -0.0044,
				"method": "rhf"
			},
			{
				"type": "unocc",
				"energy": 0.00287,
				"method": "rhf"
			},
			{
				"type": "unocc",
				"energy": 0.02404,
				"method": "rhf"
			}
		],
		"cosmo_sigma_profile": { 
			"-0.025": 0.0,
			"-0.024": 0.0,
			"-0.023": 0.0,
			"-0.022": 0.0,
			"-0.021": 0.0,
			"-0.02": 0.0,
			"-0.019": 0.0,
			"-0.018": 0.0,
			"-0.017": 0.0,
			"-0.016": 0.0,
			"-0.015": 0.0,
			"-0.014": 0.0,
			"-0.013": 0.224729268702,
			"-0.012": 0.970446262681,
			"-0.011": 1.27644420109,
			"-0.01": 1.44609777018,
			"-0.009": 1.84805424184,
			"-0.008": 3.75523325772,
			"-0.007": 6.61685970023,
			"-0.006": 12.2373202873,
			"-0.005": 15.3584147838,
			"-0.004": 13.7270693112,
			"-0.003": 19.7791383916,
			"-0.002": 30.9291461605,
			"-0.001": 30.906868214,
			"0.0": 33.7710408685,
			"0.001": 29.350088893,
			"0.002": 18.9131547302,
			"0.003": 16.5999680188,
			"0.004": 9.13542079537,
			"0.005": 5.09582302847,
			"0.006": 4.38780626968,
			"0.007": 4.51204999431,
			"0.008": 5.02570570113,
			"0.009": 4.57655328582,
			"0.01": 5.27372154958,
			"0.011": 3.5860465224,
			"0.012": 2.55301561282,
			"0.013": 2.44572284678,
			"0.014": 1.15734637984,
			"0.015": 0.0668469223786,
			"0.016": 0.0,
			"0.017": 0.0,
			"0.018": 0.0,
			"0.019": 0.0,
			"0.02": 0.0,
			"0.021": 0.0,
			"0.022": 0.0,
			"0.023": 0.0,
			"0.024": 0.0,
			"0.025": 0.0
		}
	}
}
