{
	 "smiles": "OC(=O)C1=CC2=C(OCC(=O)N2)N=C1", 
	 "Tm": 593.15, 
	 "num_atms": 20, 
	 "gaussian": { 
		 "optdone": 1, 
		 "sigma_profile": "yes", 
		 "theory": "DFT", 
		 "functional": "B3LYP", 
		 "basiset": "6-31G**", 
		 "properties": { 
			 "R2extent": 3139.1692, 
			 "electric_dipole_moment_norm": 2.9147150564, 
			 "electric_quadrupole_moment_norm": 18.8371325703, 
			 "total_energy": -718.884553314, 
			 "HOMO_LUMO_gap": 0.17772, 
			 "cosmo_polarized_energy": -19.95, 
			 "cosmo_cavitation_energy": 25.54, 
			 "cosmo_dispersion_energy": -19.36, 
			 "cosmo_repulsion_energy": 1.51, 
			 "cosmo_total_nonelectrostatic_energy": 7.69, 
			 "SMD_solvation_energy": 5.05 
		},
		"coords": [
			{
				"x": 0.6364972955,
				"y": 2.1699979085,
				"z": 2.7775196929,
				"element": "O" 
			},
			{
				"x": 1.6027452,
				"y": 1.9019705627,
				"z": 1.8612832797,
				"element": "C" 
			},
			{
				"x": 2.7166522545,
				"y": 2.3802564812,
				"z": 1.9336173342,
				"element": "O" 
			},
			{
				"x": 1.1411822903,
				"y": 0.9817496025,
				"z": 0.7962423958,
				"element": "C" 
			},
			{
				"x": -0.1591026293,
				"y": 0.4542973196,
				"z": 0.7582890596,
				"element": "C" 
			},
			{
				"x": -0.4995125391,
				"y": -0.4042397404,
				"z": -0.2755391816,
				"element": "C" 
			},
			{
				"x": 0.481863993,
				"y": -0.6863588168,
				"z": -1.2541132823,
				"element": "C" 
			},
			{
				"x": 0.2036799539,
				"y": -1.5397901699,
				"z": -2.2705687156,
				"element": "O" 
			},
			{
				"x": -1.1704543448,
				"y": -1.676059129,
				"z": -2.6504366821,
				"element": "C" 
			},
			{
				"x": -2.1651697602,
				"y": -1.7113110242,
				"z": -1.4937297119,
				"element": "C" 
			},
			{
				"x": -3.2536511193,
				"y": -2.2482752418,
				"z": -1.5869122355,
				"element": "O" 
			},
			{
				"x": -1.7470197324,
				"y": -1.0353799808,
				"z": -0.3740731857,
				"element": "N" 
			},
			{
				"x": 1.7115350217,
				"y": -0.2009802463,
				"z": -1.2213706815,
				"element": "N" 
			},
			{
				"x": 2.03690144,
				"y": 0.6141387531,
				"z": -0.2124729609,
				"element": "C" 
			},
			{
				"x": 1.0418000307,
				"y": 2.773822853,
				"z": 3.4214807143,
				"element": "H" 
			},
			{
				"x": -0.8763499128,
				"y": 0.7044047905,
				"z": 1.53300405,
				"element": "H" 
			},
			{
				"x": -1.4544971191,
				"y": -0.8531129483,
				"z": -3.3224886019,
				"element": "H" 
			},
			{
				"x": -1.2518892742,
				"y": -2.6130919357,
				"z": -3.2009028038,
				"element": "H" 
			},
			{
				"x": -2.4056169174,
				"y": -0.9818611582,
				"z": 0.3931192706,
				"element": "H" 
			},
			{
				"x": 3.051405869,
				"y": 1.0010221201,
				"z": -0.1947477544,
				"element": "H" 
			}
		],
		 "valence_orbital": [ 
			{
				"type": "occ",
				"energy": -0.29451,
				"method": "rhf"
			},
			{
				"type": "occ",
				"energy": -0.29055,
				"method": "rhf"
			},
			{
				"type": "occ",
				"energy": -0.27857,
				"method": "rhf"
			},
			{
				"type": "occ",
				"energy": -0.2755,
				"method": "rhf"
			},
			{
				"type": "occ",
				"energy": -0.23916,
				"method": "rhf"
			},
			{
				"type": "unocc",
				"energy": -0.06144,
				"method": "rhf"
			},
			{
				"type": "unocc",
				"energy": -0.04328,
				"method": "rhf"
			},
			{
				"type": "unocc",
				"energy": -0.00171,
				"method": "rhf"
			},
			{
				"type": "unocc",
				"energy": 0.05182,
				"method": "rhf"
			},
			{
				"type": "unocc",
				"energy": 0.06394,
				"method": "rhf"
			}
		],
		"cosmo_sigma_profile": { 
			"-0.025": 0.0,
			"-0.024": 0.0,
			"-0.023": 0.0,
			"-0.022": 0.0,
			"-0.021": 0.0,
			"-0.02": 0.0,
			"-0.019": 0.150332541199,
			"-0.018": 0.733704388471,
			"-0.017": 1.42836392336,
			"-0.016": 1.99503692733,
			"-0.015": 2.05056443087,
			"-0.014": 2.47436046443,
			"-0.013": 1.784719337,
			"-0.012": 1.69250972041,
			"-0.011": 2.25855567926,
			"-0.01": 2.62177180418,
			"-0.009": 5.00316060551,
			"-0.008": 7.37242652672,
			"-0.007": 8.06337669641,
			"-0.006": 8.07511936822,
			"-0.005": 8.43436725931,
			"-0.004": 7.85302510309,
			"-0.003": 10.8407513264,
			"-0.002": 14.7047458757,
			"-0.001": 18.4084547991,
			"0.0": 14.9261853071,
			"0.001": 9.15010073715,
			"0.002": 6.53413382779,
			"0.003": 5.18443167371,
			"0.004": 6.3870150365,
			"0.005": 5.98123410522,
			"0.006": 5.75912577673,
			"0.007": 5.7964352663,
			"0.008": 4.10795625272,
			"0.009": 5.64417237587,
			"0.01": 5.43647650313,
			"0.011": 9.72334978149,
			"0.012": 9.52743362501,
			"0.013": 2.99720353673,
			"0.014": 1.09190736053,
			"0.015": 0.646253608463,
			"0.016": 0.0016256627353,
			"0.017": 0.0,
			"0.018": 0.0,
			"0.019": 0.0,
			"0.02": 0.0,
			"0.021": 0.0,
			"0.022": 0.0,
			"0.023": 0.0,
			"0.024": 0.0,
			"0.025": 0.0
		}
	}
}
