{
	 "smiles": "ClC1=C2C=CC=CC2=NN=C1C#N", 
	 "Tm": 453.15, 
	 "num_atms": 17, 
	 "gaussian": { 
		 "optdone": 1, 
		 "sigma_profile": "yes", 
		 "theory": "DFT", 
		 "functional": "B3LYP", 
		 "basiset": "6-31G**", 
		 "properties": { 
			 "R2extent": 2898.4621, 
			 "electric_dipole_moment_norm": 7.28994303819, 
			 "electric_quadrupole_moment_norm": 7.55629405463, 
			 "total_energy": -969.750964126, 
			 "HOMO_LUMO_gap": 0.15443, 
			 "cosmo_polarized_energy": -12.61, 
			 "cosmo_cavitation_energy": 24.82, 
			 "cosmo_dispersion_energy": -18.11, 
			 "cosmo_repulsion_energy": 1.4, 
			 "cosmo_total_nonelectrostatic_energy": 8.11, 
			 "SMD_solvation_energy": 3.33 
		},
		"coords": [
			{
				"x": 2.6517347706,
				"y": -0.7046609898,
				"z": -1.7562169113,
				"element": "Cl" 
			},
			{
				"x": 1.1701731421,
				"y": -0.6152348272,
				"z": -0.8514849372,
				"element": "C" 
			},
			{
				"x": -0.0798583829,
				"y": -0.5455167332,
				"z": -1.5084084766,
				"element": "C" 
			},
			{
				"x": -0.2764978225,
				"y": -0.539762155,
				"z": -2.9134988533,
				"element": "C" 
			},
			{
				"x": -1.5527590715,
				"y": -0.4678172086,
				"z": -3.4243176078,
				"element": "C" 
			},
			{
				"x": -2.6817053895,
				"y": -0.3989550425,
				"z": -2.5674986571,
				"element": "C" 
			},
			{
				"x": -2.5190897981,
				"y": -0.4029533168,
				"z": -1.2021359326,
				"element": "C" 
			},
			{
				"x": -1.2172683824,
				"y": -0.4761575578,
				"z": -0.6442736232,
				"element": "C" 
			},
			{
				"x": -1.1211355352,
				"y": -0.4762583615,
				"z": 0.721242061,
				"element": "N" 
			},
			{
				"x": 0.0381979027,
				"y": -0.5410590004,
				"z": 1.2929201325,
				"element": "N" 
			},
			{
				"x": 1.1826919522,
				"y": -0.610327149,
				"z": 0.536282795,
				"element": "C" 
			},
			{
				"x": 2.4032198156,
				"y": -0.6778852842,
				"z": 1.2879607318,
				"element": "C" 
			},
			{
				"x": 3.3893724682,
				"y": -0.7324504035,
				"z": 1.9000502758,
				"element": "N" 
			},
			{
				"x": 0.584098548,
				"y": -0.5923012521,
				"z": -3.5701983199,
				"element": "H" 
			},
			{
				"x": -1.700439793,
				"y": -0.4635636398,
				"z": -4.4998952111,
				"element": "H" 
			},
			{
				"x": -3.676234502,
				"y": -0.3430169716,
				"z": -2.9988733663,
				"element": "H" 
			},
			{
				"x": -3.3562999225,
				"y": -0.3516801071,
				"z": -0.5145540996,
				"element": "H" 
			}
		],
		 "valence_orbital": [ 
			{
				"type": "occ",
				"energy": -0.33501,
				"method": "rhf"
			},
			{
				"type": "occ",
				"energy": -0.31794,
				"method": "rhf"
			},
			{
				"type": "occ",
				"energy": -0.29807,
				"method": "rhf"
			},
			{
				"type": "occ",
				"energy": -0.2684,
				"method": "rhf"
			},
			{
				"type": "occ",
				"energy": -0.25836,
				"method": "rhf"
			},
			{
				"type": "unocc",
				"energy": -0.10393,
				"method": "rhf"
			},
			{
				"type": "unocc",
				"energy": -0.07875,
				"method": "rhf"
			},
			{
				"type": "unocc",
				"energy": -0.0189,
				"method": "rhf"
			},
			{
				"type": "unocc",
				"energy": 0.00045,
				"method": "rhf"
			},
			{
				"type": "unocc",
				"energy": 0.01551,
				"method": "rhf"
			}
		],
		"cosmo_sigma_profile": { 
			"-0.025": 0.0,
			"-0.024": 0.0,
			"-0.023": 0.0,
			"-0.022": 0.0,
			"-0.021": 0.0,
			"-0.02": 0.0,
			"-0.019": 0.0,
			"-0.018": 0.0,
			"-0.017": 0.0,
			"-0.016": 0.0,
			"-0.015": 0.0,
			"-0.014": 0.0,
			"-0.013": 0.0,
			"-0.012": 0.0,
			"-0.011": 0.0,
			"-0.01": 0.0,
			"-0.009": 0.087270488037,
			"-0.008": 5.4783510104,
			"-0.007": 10.6685948704,
			"-0.006": 10.8669217368,
			"-0.005": 12.4380854272,
			"-0.004": 17.8497142836,
			"-0.003": 15.4468473501,
			"-0.002": 15.2852746417,
			"-0.001": 17.6114035056,
			"0.0": 19.1223871916,
			"0.001": 20.2629327123,
			"0.002": 10.4707590109,
			"0.003": 5.25076440078,
			"0.004": 5.53298964767,
			"0.005": 4.36623732938,
			"0.006": 4.31164106279,
			"0.007": 6.01338229594,
			"0.008": 4.74580037167,
			"0.009": 4.2516969539,
			"0.01": 4.81415498281,
			"0.011": 5.48154332082,
			"0.012": 2.94534939547,
			"0.013": 1.34341797642,
			"0.014": 0.302716081742,
			"0.015": 0.0,
			"0.016": 0.0,
			"0.017": 0.0,
			"0.018": 0.0,
			"0.019": 0.0,
			"0.02": 0.0,
			"0.021": 0.0,
			"0.022": 0.0,
			"0.023": 0.0,
			"0.024": 0.0,
			"0.025": 0.0
		}
	}
}
