{
	 "smiles": "CC(C)(C)NC(=O)C1=CC=C(N)C=C1", 
	 "Tm": 398.15, 
	 "num_atms": 30, 
	 "gaussian": { 
		 "optdone": 1, 
		 "sigma_profile": "yes", 
		 "theory": "DFT", 
		 "functional": "B3LYP", 
		 "basiset": "6-31G**", 
		 "properties": { 
			 "R2extent": 3466.7126, 
			 "electric_dipole_moment_norm": 4.90666590976, 
			 "electric_quadrupole_moment_norm": 23.4562949493, 
			 "total_energy": -613.565295255, 
			 "HOMO_LUMO_gap": 0.19147, 
			 "cosmo_polarized_energy": -15.78, 
			 "cosmo_cavitation_energy": 31.88, 
			 "cosmo_dispersion_energy": -22.31, 
			 "cosmo_repulsion_energy": 1.76, 
			 "cosmo_total_nonelectrostatic_energy": 11.33, 
			 "SMD_solvation_energy": 5.5 
		},
		"coords": [
			{
				"x": 0.169377607,
				"y": -1.066445504,
				"z": -3.4872514502,
				"element": "C" 
			},
			{
				"x": 0.1519852636,
				"y": -0.7223558803,
				"z": -1.9860374924,
				"element": "C" 
			},
			{
				"x": 1.4084127018,
				"y": 0.1048043305,
				"z": -1.6623015262,
				"element": "C" 
			},
			{
				"x": 0.1448981781,
				"y": -2.0238985267,
				"z": -1.1610504374,
				"element": "C" 
			},
			{
				"x": -1.1104533313,
				"y": 0.0558175666,
				"z": -1.7793258703,
				"element": "N" 
			},
			{
				"x": -1.8739734036,
				"y": 0.1620448275,
				"z": -0.618681362,
				"element": "C" 
			},
			{
				"x": -3.0946327828,
				"y": 0.0296663456,
				"z": -0.679507794,
				"element": "O" 
			},
			{
				"x": -1.2195349505,
				"y": 0.5198455007,
				"z": 0.6757807492,
				"element": "C" 
			},
			{
				"x": -0.2485310749,
				"y": 1.5246815897,
				"z": 0.7901961247,
				"element": "C" 
			},
			{
				"x": 0.2498667556,
				"y": 1.903878299,
				"z": 2.0324270997,
				"element": "C" 
			},
			{
				"x": -0.2055451513,
				"y": 1.278503865,
				"z": 3.207080094,
				"element": "C" 
			},
			{
				"x": 0.2614626762,
				"y": 1.6790372327,
				"z": 4.4536944007,
				"element": "N" 
			},
			{
				"x": -1.1965201702,
				"y": 0.2834808354,
				"z": 3.0961392967,
				"element": "C" 
			},
			{
				"x": -1.7055791519,
				"y": -0.0685021964,
				"z": 1.8543386683,
				"element": "C" 
			},
			{
				"x": 0.1499514954,
				"y": -0.1557284022,
				"z": -4.0951832782,
				"element": "H" 
			},
			{
				"x": 1.0745533153,
				"y": -1.625597386,
				"z": -3.7402449477,
				"element": "H" 
			},
			{
				"x": -0.6937954796,
				"y": -1.6840328949,
				"z": -3.7605709281,
				"element": "H" 
			},
			{
				"x": 1.5057859581,
				"y": 0.2950450547,
				"z": -0.5924076372,
				"element": "H" 
			},
			{
				"x": 1.382777324,
				"y": 1.0651436539,
				"z": -2.1865991656,
				"element": "H" 
			},
			{
				"x": 2.3021000808,
				"y": -0.4390327161,
				"z": -1.9867382844,
				"element": "H" 
			},
			{
				"x": 0.1223964268,
				"y": -1.811016279,
				"z": -0.088812876,
				"element": "H" 
			},
			{
				"x": 1.044388596,
				"y": -2.6132718797,
				"z": -1.3693031085,
				"element": "H" 
			},
			{
				"x": -0.7291075417,
				"y": -2.635467036,
				"z": -1.4076383567,
				"element": "H" 
			},
			{
				"x": -1.7680629283,
				"y": -0.1072602766,
				"z": -2.5357265172,
				"element": "H" 
			},
			{
				"x": 0.0953748028,
				"y": 2.0394818056,
				"z": -0.1001385085,
				"element": "H" 
			},
			{
				"x": 0.9859170249,
				"y": 2.7011336319,
				"z": 2.1015879979,
				"element": "H" 
			},
			{
				"x": 1.164153096,
				"y": 2.131695951,
				"z": 4.4650539866,
				"element": "H" 
			},
			{
				"x": 0.1492417461,
				"y": 1.0121480569,
				"z": 5.2037406069,
				"element": "H" 
			},
			{
				"x": -1.5754371014,
				"y": -0.1960789499,
				"z": 3.9954165642,
				"element": "H" 
			},
			{
				"x": -2.4937699808,
				"y": -0.810820619,
				"z": 1.778763952,
				"element": "H" 
			}
		],
		 "valence_orbital": [ 
			{
				"type": "occ",
				"energy": -0.30529,
				"method": "rhf"
			},
			{
				"type": "occ",
				"energy": -0.25378,
				"method": "rhf"
			},
			{
				"type": "occ",
				"energy": -0.24821,
				"method": "rhf"
			},
			{
				"type": "occ",
				"energy": -0.22912,
				"method": "rhf"
			},
			{
				"type": "occ",
				"energy": -0.20472,
				"method": "rhf"
			},
			{
				"type": "unocc",
				"energy": -0.01325,
				"method": "rhf"
			},
			{
				"type": "unocc",
				"energy": -0.00041,
				"method": "rhf"
			},
			{
				"type": "unocc",
				"energy": 0.05564,
				"method": "rhf"
			},
			{
				"type": "unocc",
				"energy": 0.07696,
				"method": "rhf"
			},
			{
				"type": "unocc",
				"energy": 0.07829,
				"method": "rhf"
			}
		],
		"cosmo_sigma_profile": { 
			"-0.025": 0.0,
			"-0.024": 0.0,
			"-0.023": 0.0,
			"-0.022": 0.0,
			"-0.021": 0.0,
			"-0.02": 0.0,
			"-0.019": 0.0,
			"-0.018": 0.0,
			"-0.017": 0.0,
			"-0.016": 0.0,
			"-0.015": 0.0,
			"-0.014": 0.0,
			"-0.013": 1.17101449293,
			"-0.012": 2.81623147115,
			"-0.011": 3.37395887694,
			"-0.01": 3.93737563293,
			"-0.009": 3.05907012833,
			"-0.008": 4.25807938629,
			"-0.007": 5.46356970823,
			"-0.006": 6.16500006833,
			"-0.005": 7.69156814057,
			"-0.004": 15.7400427688,
			"-0.003": 25.3172000014,
			"-0.002": 19.7843244466,
			"-0.001": 25.860394047,
			"0.0": 28.7512275119,
			"0.001": 22.8400620672,
			"0.002": 9.37523007166,
			"0.003": 9.28980492263,
			"0.004": 9.00445449984,
			"0.005": 12.7230543583,
			"0.006": 6.36244709644,
			"0.007": 2.97403802013,
			"0.008": 2.77241388921,
			"0.009": 2.65505599501,
			"0.01": 2.35114208166,
			"0.011": 2.30238290777,
			"0.012": 2.41524367793,
			"0.013": 3.8680409276,
			"0.014": 5.54213016155,
			"0.015": 1.43860957896,
			"0.016": 0.0197973637142,
			"0.017": 0.0,
			"0.018": 0.0,
			"0.019": 0.0,
			"0.02": 0.0,
			"0.021": 0.0,
			"0.022": 0.0,
			"0.023": 0.0,
			"0.024": 0.0,
			"0.025": 0.0
		}
	}
}
