{
	 "smiles": "ClC1=NC=CC(=C1)N1C=CC=N1", 
	 "Tm": 385.15, 
	 "num_atms": 18, 
	 "gaussian": { 
		 "optdone": 1, 
		 "sigma_profile": "yes", 
		 "theory": "DFT", 
		 "functional": "B3LYP", 
		 "basiset": "6-31G**", 
		 "properties": { 
			 "R2extent": 3741.5149, 
			 "electric_dipole_moment_norm": 4.88332970216, 
			 "electric_quadrupole_moment_norm": 15.3914236885, 
			 "total_energy": -932.884020219, 
			 "HOMO_LUMO_gap": 0.20022, 
			 "cosmo_polarized_energy": -10.51, 
			 "cosmo_cavitation_energy": 24.57, 
			 "cosmo_dispersion_energy": -18.59, 
			 "cosmo_repulsion_energy": 1.45, 
			 "cosmo_total_nonelectrostatic_energy": 7.42, 
			 "SMD_solvation_energy": 2.5 
		},
		"coords": [
			{
				"x": -1.1819031569,
				"y": 2.0555985683,
				"z": -4.3547972233,
				"element": "Cl" 
			},
			{
				"x": 0.0203473399,
				"y": 1.174306548,
				"z": -3.4166923613,
				"element": "C" 
			},
			{
				"x": 1.2698840127,
				"y": 1.2474494198,
				"z": -3.8432164952,
				"element": "N" 
			},
			{
				"x": 2.1813174881,
				"y": 0.5756265669,
				"z": -3.1267153865,
				"element": "C" 
			},
			{
				"x": 1.8874216431,
				"y": -0.1717662444,
				"z": -1.9916606019,
				"element": "C" 
			},
			{
				"x": 0.5522325936,
				"y": -0.2274768602,
				"z": -1.5677464015,
				"element": "C" 
			},
			{
				"x": -0.4165510629,
				"y": 0.4656005526,
				"z": -2.2995559808,
				"element": "C" 
			},
			{
				"x": 0.1691091447,
				"y": -0.9618880703,
				"z": -0.4280355239,
				"element": "N" 
			},
			{
				"x": 0.9565980847,
				"y": -1.7023465041,
				"z": 0.4180665071,
				"element": "C" 
			},
			{
				"x": 0.126696676,
				"y": -2.2283544577,
				"z": 1.378020229,
				"element": "C" 
			},
			{
				"x": -1.1636580195,
				"y": -1.7505878244,
				"z": 1.0341296442,
				"element": "C" 
			},
			{
				"x": -1.1393818173,
				"y": -0.9902415597,
				"z": -0.0498718641,
				"element": "N" 
			},
			{
				"x": 3.2073628238,
				"y": 0.6391927546,
				"z": -3.481909164,
				"element": "H" 
			},
			{
				"x": 2.6824104047,
				"y": -0.6868002878,
				"z": -1.4671567123,
				"element": "H" 
			},
			{
				"x": -1.4540740653,
				"y": 0.4426784247,
				"z": -1.9989500941,
				"element": "H" 
			},
			{
				"x": 2.0213216746,
				"y": -1.797090059,
				"z": 0.2773021521,
				"element": "H" 
			},
			{
				"x": 0.4063197857,
				"y": -2.8629282242,
				"z": 2.2052268821,
				"element": "H" 
			},
			{
				"x": -2.1045535497,
				"y": -1.933172743,
				"z": 1.5359623944,
				"element": "H" 
			}
		],
		 "valence_orbital": [ 
			{
				"type": "occ",
				"energy": -0.30782,
				"method": "rhf"
			},
			{
				"type": "occ",
				"energy": -0.27865,
				"method": "rhf"
			},
			{
				"type": "occ",
				"energy": -0.27156,
				"method": "rhf"
			},
			{
				"type": "occ",
				"energy": -0.26242,
				"method": "rhf"
			},
			{
				"type": "occ",
				"energy": -0.25413,
				"method": "rhf"
			},
			{
				"type": "unocc",
				"energy": -0.05391,
				"method": "rhf"
			},
			{
				"type": "unocc",
				"energy": -0.02923,
				"method": "rhf"
			},
			{
				"type": "unocc",
				"energy": 0.01971,
				"method": "rhf"
			},
			{
				"type": "unocc",
				"energy": 0.03458,
				"method": "rhf"
			},
			{
				"type": "unocc",
				"energy": 0.05461,
				"method": "rhf"
			}
		],
		"cosmo_sigma_profile": { 
			"-0.025": 0.0,
			"-0.024": 0.0,
			"-0.023": 0.0,
			"-0.022": 0.0,
			"-0.021": 0.0,
			"-0.02": 0.0,
			"-0.019": 0.0,
			"-0.018": 0.0,
			"-0.017": 0.0,
			"-0.016": 0.0,
			"-0.015": 0.0,
			"-0.014": 0.0,
			"-0.013": 0.00724901131647,
			"-0.012": 0.896470894766,
			"-0.011": 2.01859188689,
			"-0.01": 2.12500768922,
			"-0.009": 2.18515961287,
			"-0.008": 6.10748273008,
			"-0.007": 9.37746055764,
			"-0.006": 8.28109619999,
			"-0.005": 8.79677884262,
			"-0.004": 8.31332793622,
			"-0.003": 9.98104041986,
			"-0.002": 11.4011049416,
			"-0.001": 16.9758564148,
			"0.0": 23.9796121767,
			"0.001": 16.772432115,
			"0.002": 13.1801869645,
			"0.003": 15.7775500912,
			"0.004": 15.9658855524,
			"0.005": 8.0871018936,
			"0.006": 4.3127180516,
			"0.007": 3.68817517648,
			"0.008": 2.71759340408,
			"0.009": 2.33567868677,
			"0.01": 2.5077630842,
			"0.011": 2.43498298258,
			"0.012": 1.12930945958,
			"0.013": 0.768176693324,
			"0.014": 0.99231757606,
			"0.015": 0.280214146139,
			"0.016": 0.0,
			"0.017": 0.0,
			"0.018": 0.0,
			"0.019": 0.0,
			"0.02": 0.0,
			"0.021": 0.0,
			"0.022": 0.0,
			"0.023": 0.0,
			"0.024": 0.0,
			"0.025": 0.0
		}
	}
}
