{
	 "smiles": "OC1=C(C=CC2=CC=CC=C12)C1=CC=C2C=CC=CC2=C1O", 
	 "Tm": 573.15, 
	 "num_atms": 36, 
	 "gaussian": { 
		 "optdone": 1, 
		 "sigma_profile": "yes", 
		 "theory": "DFT", 
		 "functional": "B3LYP", 
		 "basiset": "6-31G**", 
		 "properties": { 
			 "R2extent": 8705.5877, 
			 "electric_dipole_moment_norm": 1.13700779681, 
			 "electric_quadrupole_moment_norm": 14.7564231798, 
			 "total_energy": -921.027758882, 
			 "HOMO_LUMO_gap": 0.14934, 
			 "cosmo_polarized_energy": -15.57, 
			 "cosmo_cavitation_energy": 38.98, 
			 "cosmo_dispersion_energy": -28.96, 
			 "cosmo_repulsion_energy": 2.13, 
			 "cosmo_total_nonelectrostatic_energy": 12.16, 
			 "SMD_solvation_energy": 6.21 
		},
		"coords": [
			{
				"x": -2.1448905775,
				"y": 1.2554922648,
				"z": -0.4918530707,
				"element": "O" 
			},
			{
				"x": -1.8755699875,
				"y": 0.070317428,
				"z": 0.1412785274,
				"element": "C" 
			},
			{
				"x": -0.8402519418,
				"y": -0.7175004901,
				"z": -0.3526615139,
				"element": "C" 
			},
			{
				"x": -0.5451748393,
				"y": -1.935158434,
				"z": 0.322967404,
				"element": "C" 
			},
			{
				"x": -1.2379780677,
				"y": -2.3404511931,
				"z": 1.4364146615,
				"element": "C" 
			},
			{
				"x": -2.3055187166,
				"y": -1.5553548347,
				"z": 1.9434728836,
				"element": "C" 
			},
			{
				"x": -3.0531040102,
				"y": -1.9427676044,
				"z": 3.0870736637,
				"element": "C" 
			},
			{
				"x": -4.0990448442,
				"y": -1.176413573,
				"z": 3.5501771446,
				"element": "C" 
			},
			{
				"x": -4.4551172991,
				"y": 0.0151136445,
				"z": 2.8761302718,
				"element": "C" 
			},
			{
				"x": -3.7485252162,
				"y": 0.4213219965,
				"z": 1.7652852347,
				"element": "C" 
			},
			{
				"x": -2.6480082702,
				"y": -0.3346088373,
				"z": 1.2758341174,
				"element": "C" 
			},
			{
				"x": -0.0681187469,
				"y": -0.3219555053,
				"z": -1.5606375289,
				"element": "C" 
			},
			{
				"x": -0.7444314762,
				"y": 0.0741605118,
				"z": -2.7488829739,
				"element": "C" 
			},
			{
				"x": -0.070153246,
				"y": 0.4396627453,
				"z": -3.8871917199,
				"element": "C" 
			},
			{
				"x": 1.3479459497,
				"y": 0.4101294065,
				"z": -3.9228292881,
				"element": "C" 
			},
			{
				"x": 2.0835375598,
				"y": 0.7718014514,
				"z": -5.0825189387,
				"element": "C" 
			},
			{
				"x": 3.4591269127,
				"y": 0.7159183256,
				"z": -5.1023281843,
				"element": "C" 
			},
			{
				"x": 4.1655274447,
				"y": 0.2792882411,
				"z": -3.9572473032,
				"element": "C" 
			},
			{
				"x": 3.4826205268,
				"y": -0.0759755514,
				"z": -2.8145848992,
				"element": "C" 
			},
			{
				"x": 2.0636207278,
				"y": -0.0064309411,
				"z": -2.7534040629,
				"element": "C" 
			},
			{
				"x": 1.3232324659,
				"y": -0.3424110515,
				"z": -1.5757789573,
				"element": "C" 
			},
			{
				"x": 1.977217842,
				"y": -0.6987010713,
				"z": -0.4253890115,
				"element": "O" 
			},
			{
				"x": -2.6408214215,
				"y": 1.8285122711,
				"z": 0.1054138968,
				"element": "H" 
			},
			{
				"x": 0.2657234131,
				"y": -2.5443586691,
				"z": -0.0597058111,
				"element": "H" 
			},
			{
				"x": -0.9828211499,
				"y": -3.2707585742,
				"z": 1.9358229973,
				"element": "H" 
			},
			{
				"x": -2.7830253511,
				"y": -2.8667113138,
				"z": 3.5920273919,
				"element": "H" 
			},
			{
				"x": -4.6599520998,
				"y": -1.488568465,
				"z": 4.4262400962,
				"element": "H" 
			},
			{
				"x": -5.2956020359,
				"y": 0.6053281306,
				"z": 3.2290979249,
				"element": "H" 
			},
			{
				"x": -4.0748378964,
				"y": 1.3194402828,
				"z": 1.2455989992,
				"element": "H" 
			},
			{
				"x": -1.828134793,
				"y": 0.095404093,
				"z": -2.7330405425,
				"element": "H" 
			},
			{
				"x": -0.6146596464,
				"y": 0.746473209,
				"z": -4.7756565535,
				"element": "H" 
			},
			{
				"x": 1.5338078048,
				"y": 1.0931195182,
				"z": -5.9635085935,
				"element": "H" 
			},
			{
				"x": 4.0051169413,
				"y": 0.9960249419,
				"z": -5.9984195347,
				"element": "H" 
			},
			{
				"x": 5.2491809417,
				"y": 0.2131508854,
				"z": -3.9832349686,
				"element": "H" 
			},
			{
				"x": 4.0532094467,
				"y": -0.4476544959,
				"z": -1.9663785104,
				"element": "H" 
			},
			{
				"x": 2.8869736565,
				"y": -0.3797787422,
				"z": -0.4660832483,
				"element": "H" 
			}
		],
		 "valence_orbital": [ 
			{
				"type": "occ",
				"energy": -0.26486,
				"method": "rhf"
			},
			{
				"type": "occ",
				"energy": -0.25025,
				"method": "rhf"
			},
			{
				"type": "occ",
				"energy": -0.22984,
				"method": "rhf"
			},
			{
				"type": "occ",
				"energy": -0.20488,
				"method": "rhf"
			},
			{
				"type": "occ",
				"energy": -0.19034,
				"method": "rhf"
			},
			{
				"type": "unocc",
				"energy": -0.041,
				"method": "rhf"
			},
			{
				"type": "unocc",
				"energy": -0.02818,
				"method": "rhf"
			},
			{
				"type": "unocc",
				"energy": -0.01503,
				"method": "rhf"
			},
			{
				"type": "unocc",
				"energy": 0.00399,
				"method": "rhf"
			},
			{
				"type": "unocc",
				"energy": 0.04114,
				"method": "rhf"
			}
		],
		"cosmo_sigma_profile": { 
			"-0.025": 0.0,
			"-0.024": 0.0,
			"-0.023": 0.0,
			"-0.022": 0.0,
			"-0.021": 0.0,
			"-0.02": 0.0,
			"-0.019": 0.0,
			"-0.018": 0.250387951567,
			"-0.017": 1.46661112121,
			"-0.016": 1.94344938423,
			"-0.015": 2.01794560668,
			"-0.014": 1.39939693432,
			"-0.013": 1.47918007018,
			"-0.012": 1.4307274405,
			"-0.011": 2.27001838904,
			"-0.01": 2.6198289129,
			"-0.009": 2.24798815081,
			"-0.008": 1.70137302537,
			"-0.007": 3.38955302449,
			"-0.006": 14.3228554296,
			"-0.005": 21.929349125,
			"-0.004": 23.7506217465,
			"-0.003": 21.4916152395,
			"-0.002": 16.3538834909,
			"-0.001": 15.2795670791,
			"0.0": 15.7288992894,
			"0.001": 17.0680179348,
			"0.002": 20.8495794762,
			"0.003": 27.8913353671,
			"0.004": 39.8556108524,
			"0.005": 30.4680220738,
			"0.006": 8.64934963356,
			"0.007": 4.86238335277,
			"0.008": 4.19155791298,
			"0.009": 3.30982283832,
			"0.01": 2.85995867416,
			"0.011": 2.08529308337,
			"0.012": 0.0638131932168,
			"0.013": 0.0,
			"0.014": 0.0,
			"0.015": 0.0,
			"0.016": 0.0,
			"0.017": 0.0,
			"0.018": 0.0,
			"0.019": 0.0,
			"0.02": 0.0,
			"0.021": 0.0,
			"0.022": 0.0,
			"0.023": 0.0,
			"0.024": 0.0,
			"0.025": 0.0
		}
	}
}
