{
	 "smiles": "CC1=CC(C)=C(CC(=O)C2=C(NC(=O)C3=CC=CC=C3)C3=C(O2)C=CC=C3)C(C)=C1", 
	 "Tm": 471.15, 
	 "num_atms": 53, 
	 "gaussian": { 
		 "optdone": 1, 
		 "sigma_profile": "yes", 
		 "theory": "DFT", 
		 "functional": "B3LYP", 
		 "basiset": "6-31G**", 
		 "properties": { 
			 "R2extent": 15181.3146, 
			 "electric_dipole_moment_norm": 4.63957437811, 
			 "electric_quadrupole_moment_norm": 13.6202494159, 
			 "total_energy": -1285.08057984, 
			 "HOMO_LUMO_gap": 0.14984, 
			 "cosmo_polarized_energy": -22.77, 
			 "cosmo_cavitation_energy": 57.01, 
			 "cosmo_dispersion_energy": -38.62, 
			 "cosmo_repulsion_energy": 2.9, 
			 "cosmo_total_nonelectrostatic_energy": 21.29, 
			 "SMD_solvation_energy": 10.15 
		},
		"coords": [
			{
				"x": 3.1884083501,
				"y": 2.2688356055,
				"z": 6.0030694665,
				"element": "C" 
			},
			{
				"x": 2.7154109392,
				"y": 1.3520211794,
				"z": 4.8990749951,
				"element": "C" 
			},
			{
				"x": 1.7152967135,
				"y": 0.4044780151,
				"z": 5.1266450382,
				"element": "C" 
			},
			{
				"x": 1.2445558575,
				"y": -0.4326593347,
				"z": 4.108798039,
				"element": "C" 
			},
			{
				"x": 0.1454183344,
				"y": -1.4248881274,
				"z": 4.4231130346,
				"element": "C" 
			},
			{
				"x": 1.7981814778,
				"y": -0.3290554083,
				"z": 2.8179153119,
				"element": "C" 
			},
			{
				"x": 1.3237915488,
				"y": -1.2331327808,
				"z": 1.7038042598,
				"element": "C" 
			},
			{
				"x": 0.31143032,
				"y": -0.5829361532,
				"z": 0.7565151097,
				"element": "C" 
			},
			{
				"x": -0.0750824922,
				"y": 0.5688316168,
				"z": 0.874328519,
				"element": "O" 
			},
			{
				"x": -0.1946674561,
				"y": -1.4226007773,
				"z": -0.3433259308,
				"element": "C" 
			},
			{
				"x": -0.9328178045,
				"y": -1.1217343475,
				"z": -1.4646905269,
				"element": "C" 
			},
			{
				"x": -1.3132828342,
				"y": 0.1331409566,
				"z": -1.9351261573,
				"element": "N" 
			},
			{
				"x": -0.4490500399,
				"y": 1.2191267354,
				"z": -2.0671491014,
				"element": "C" 
			},
			{
				"x": 0.7403865891,
				"y": 1.1465582596,
				"z": -1.8075826101,
				"element": "O" 
			},
			{
				"x": -1.0886791919,
				"y": 2.4705875148,
				"z": -2.5886011635,
				"element": "C" 
			},
			{
				"x": -2.4561392974,
				"y": 2.7503807043,
				"z": -2.4522079218,
				"element": "C" 
			},
			{
				"x": -2.9834420433,
				"y": 3.939566123,
				"z": -2.9565785274,
				"element": "C" 
			},
			{
				"x": -2.1504093695,
				"y": 4.8564316486,
				"z": -3.6001174712,
				"element": "C" 
			},
			{
				"x": -0.7841815611,
				"y": 4.5891196939,
				"z": -3.7255930143,
				"element": "C" 
			},
			{
				"x": -0.2547709148,
				"y": 3.4064341523,
				"z": -3.2160475002,
				"element": "C" 
			},
			{
				"x": -1.2264403694,
				"y": -2.3748210303,
				"z": -2.1157357065,
				"element": "C" 
			},
			{
				"x": -0.6168966226,
				"y": -3.3593474831,
				"z": -1.3179424745,
				"element": "C" 
			},
			{
				"x": 0.0237369073,
				"y": -2.7902963849,
				"z": -0.2600176516,
				"element": "O" 
			},
			{
				"x": -0.6723829204,
				"y": -4.7190260652,
				"z": -1.6082763941,
				"element": "C" 
			},
			{
				"x": -1.3747982932,
				"y": -5.0808877464,
				"z": -2.7553335411,
				"element": "C" 
			},
			{
				"x": -1.9891166796,
				"y": -4.1148396253,
				"z": -3.5783463119,
				"element": "C" 
			},
			{
				"x": -1.9207579274,
				"y": -2.7603389305,
				"z": -3.2738459211,
				"element": "C" 
			},
			{
				"x": 2.8012240043,
				"y": 0.6298832994,
				"z": 2.5647282638,
				"element": "C" 
			},
			{
				"x": 3.4002163658,
				"y": 0.7963533946,
				"z": 1.1860586674,
				"element": "C" 
			},
			{
				"x": 3.2444410671,
				"y": 1.4469833809,
				"z": 3.6090364631,
				"element": "C" 
			},
			{
				"x": 3.0243831679,
				"y": 1.8256902385,
				"z": 6.9901164014,
				"element": "H" 
			},
			{
				"x": 4.2551329341,
				"y": 2.4953500117,
				"z": 5.9067612628,
				"element": "H" 
			},
			{
				"x": 2.6519178554,
				"y": 3.2260628227,
				"z": 5.9824354699,
				"element": "H" 
			},
			{
				"x": 1.2854601615,
				"y": 0.3138223975,
				"z": 6.1221951136,
				"element": "H" 
			},
			{
				"x": 0.4727379968,
				"y": -2.463402369,
				"z": 4.2877801955,
				"element": "H" 
			},
			{
				"x": -0.1844830725,
				"y": -1.3206749496,
				"z": 5.4601540721,
				"element": "H" 
			},
			{
				"x": -0.7311100955,
				"y": -1.2766500839,
				"z": 3.7819711131,
				"element": "H" 
			},
			{
				"x": 0.8778548509,
				"y": -2.1555674203,
				"z": 2.0887677388,
				"element": "H" 
			},
			{
				"x": 2.1633913443,
				"y": -1.5687948954,
				"z": 1.0811026724,
				"element": "H" 
			},
			{
				"x": -2.1861090184,
				"y": 0.1789876736,
				"z": -2.4405930697,
				"element": "H" 
			},
			{
				"x": -3.1054004005,
				"y": 2.0653814441,
				"z": -1.9142735219,
				"element": "H" 
			},
			{
				"x": -4.0411840717,
				"y": 4.1545338961,
				"z": -2.8364007708,
				"element": "H" 
			},
			{
				"x": -2.562486503,
				"y": 5.7812254012,
				"z": -3.9936146609,
				"element": "H" 
			},
			{
				"x": -0.1327265622,
				"y": 5.3055368144,
				"z": -4.2174157444,
				"element": "H" 
			},
			{
				"x": 0.8044525334,
				"y": 3.1843372014,
				"z": -3.2893763016,
				"element": "H" 
			},
			{
				"x": -0.1895423583,
				"y": -5.4507374312,
				"z": -0.9700800078,
				"element": "H" 
			},
			{
				"x": -1.4474421592,
				"y": -6.1302991178,
				"z": -3.0239701477,
				"element": "H" 
			},
			{
				"x": -2.5196680086,
				"y": -4.4381496224,
				"z": -4.4686067961,
				"element": "H" 
			},
			{
				"x": -2.3845671276,
				"y": -2.0225117802,
				"z": -3.9223473065,
				"element": "H" 
			},
			{
				"x": 2.6387520852,
				"y": 1.0590311931,
				"z": 0.4439495537,
				"element": "H" 
			},
			{
				"x": 3.8909969012,
				"y": -0.1215917827,
				"z": 0.8378644413,
				"element": "H" 
			},
			{
				"x": 4.1545818437,
				"y": 1.5876978917,
				"z": 1.185582728,
				"element": "H" 
			},
			{
				"x": 4.0221750459,
				"y": 2.1805543812,
				"z": 3.4062283224,
				"element": "H" 
			}
		],
		 "valence_orbital": [ 
			{
				"type": "occ",
				"energy": -0.249,
				"method": "rhf"
			},
			{
				"type": "occ",
				"energy": -0.24442,
				"method": "rhf"
			},
			{
				"type": "occ",
				"energy": -0.22191,
				"method": "rhf"
			},
			{
				"type": "occ",
				"energy": -0.21865,
				"method": "rhf"
			},
			{
				"type": "occ",
				"energy": -0.21273,
				"method": "rhf"
			},
			{
				"type": "unocc",
				"energy": -0.06289,
				"method": "rhf"
			},
			{
				"type": "unocc",
				"energy": -0.03779,
				"method": "rhf"
			},
			{
				"type": "unocc",
				"energy": -0.01187,
				"method": "rhf"
			},
			{
				"type": "unocc",
				"energy": -0.00391,
				"method": "rhf"
			},
			{
				"type": "unocc",
				"energy": 0.01055,
				"method": "rhf"
			}
		],
		"cosmo_sigma_profile": { 
			"-0.025": 0.0,
			"-0.024": 0.0,
			"-0.023": 0.0,
			"-0.022": 0.0,
			"-0.021": 0.0,
			"-0.02": 0.0,
			"-0.019": 0.0,
			"-0.018": 0.0,
			"-0.017": 0.0,
			"-0.016": 0.0,
			"-0.015": 0.664832137951,
			"-0.014": 1.09921272074,
			"-0.013": 1.57759105863,
			"-0.012": 1.75619503787,
			"-0.011": 1.6862113763,
			"-0.01": 1.79273846602,
			"-0.009": 1.7770320424,
			"-0.008": 2.62959764555,
			"-0.007": 8.03547074065,
			"-0.006": 18.6079331373,
			"-0.005": 27.7942728468,
			"-0.004": 41.1773193577,
			"-0.003": 36.4050655887,
			"-0.002": 34.2946821091,
			"-0.001": 35.6203880428,
			"0.0": 42.9598928568,
			"0.001": 41.2569820233,
			"0.002": 28.9508630777,
			"0.003": 30.6357549987,
			"0.004": 32.5135933158,
			"0.005": 14.8215543455,
			"0.006": 10.6600829599,
			"0.007": 9.06586707367,
			"0.008": 4.99864598146,
			"0.009": 4.22020642082,
			"0.01": 4.99260262495,
			"0.011": 6.87563856024,
			"0.012": 5.26637700613,
			"0.013": 2.10225598893,
			"0.014": 0.199746533399,
			"0.015": 0.0,
			"0.016": 0.0,
			"0.017": 0.0,
			"0.018": 0.0,
			"0.019": 0.0,
			"0.02": 0.0,
			"0.021": 0.0,
			"0.022": 0.0,
			"0.023": 0.0,
			"0.024": 0.0,
			"0.025": 0.0
		}
	}
}
