{
	 "smiles": "OC1=CC(F)=C(C=O)C=C1", 
	 "Tm": 442.15, 
	 "num_atms": 15, 
	 "gaussian": { 
		 "optdone": 1, 
		 "sigma_profile": "yes", 
		 "theory": "DFT", 
		 "functional": "B3LYP", 
		 "basiset": "6-31G**", 
		 "properties": { 
			 "R2extent": 2009.7202, 
			 "electric_dipole_moment_norm": 4.41934232437, 
			 "electric_quadrupole_moment_norm": 8.63581081486, 
			 "total_energy": -520.026674067, 
			 "HOMO_LUMO_gap": 0.18637, 
			 "cosmo_polarized_energy": -11.97, 
			 "cosmo_cavitation_energy": 20.47, 
			 "cosmo_dispersion_energy": -14.99, 
			 "cosmo_repulsion_energy": 1.19, 
			 "cosmo_total_nonelectrostatic_energy": 6.66, 
			 "SMD_solvation_energy": 5.54 
		},
		"coords": [
			{
				"x": 0.0492626942,
				"y": 1.7166571761,
				"z": 1.2565199292,
				"element": "O" 
			},
			{
				"x": -0.3312881424,
				"y": 0.8295926927,
				"z": 0.3033768184,
				"element": "C" 
			},
			{
				"x": -0.8380740319,
				"y": 1.2348500563,
				"z": -0.937292038,
				"element": "C" 
			},
			{
				"x": -1.2026331099,
				"y": 0.2579933124,
				"z": -1.8527637214,
				"element": "C" 
			},
			{
				"x": -1.6894663769,
				"y": 0.6606078842,
				"z": -3.0443355192,
				"element": "F" 
			},
			{
				"x": -1.0853836644,
				"y": -1.1105099497,
				"z": -1.5887784253,
				"element": "C" 
			},
			{
				"x": -1.477951036,
				"y": -2.1347971357,
				"z": -2.5741720318,
				"element": "C" 
			},
			{
				"x": -1.3876689454,
				"y": -3.3342188045,
				"z": -2.3735405012,
				"element": "O" 
			},
			{
				"x": -0.5719885492,
				"y": -1.4816158908,
				"z": -0.331159692,
				"element": "C" 
			},
			{
				"x": -0.1976530591,
				"y": -0.5369928692,
				"z": 0.6077725973,
				"element": "C" 
			},
			{
				"x": -0.0865359519,
				"y": 2.6190967779,
				"z": 0.9383794023,
				"element": "H" 
			},
			{
				"x": -0.951747385,
				"y": 2.2825975334,
				"z": -1.1981895433,
				"element": "H" 
			},
			{
				"x": -1.8702505871,
				"y": -1.7448615997,
				"z": -3.5333214867,
				"element": "H" 
			},
			{
				"x": -0.4805146288,
				"y": -2.5433289997,
				"z": -0.1251203002,
				"element": "H" 
			},
			{
				"x": 0.1979927737,
				"y": -0.8193701837,
				"z": 1.5769245121,
				"element": "H" 
			}
		],
		 "valence_orbital": [ 
			{
				"type": "occ",
				"energy": -0.37119,
				"method": "rhf"
			},
			{
				"type": "occ",
				"energy": -0.33886,
				"method": "rhf"
			},
			{
				"type": "occ",
				"energy": -0.26921,
				"method": "rhf"
			},
			{
				"type": "occ",
				"energy": -0.25174,
				"method": "rhf"
			},
			{
				"type": "occ",
				"energy": -0.24509,
				"method": "rhf"
			},
			{
				"type": "unocc",
				"energy": -0.05872,
				"method": "rhf"
			},
			{
				"type": "unocc",
				"energy": -0.01696,
				"method": "rhf"
			},
			{
				"type": "unocc",
				"energy": 0.04171,
				"method": "rhf"
			},
			{
				"type": "unocc",
				"energy": 0.04982,
				"method": "rhf"
			},
			{
				"type": "unocc",
				"energy": 0.08268,
				"method": "rhf"
			}
		],
		"cosmo_sigma_profile": { 
			"-0.025": 0.0,
			"-0.024": 0.0,
			"-0.023": 0.0,
			"-0.022": 0.0,
			"-0.021": 0.0,
			"-0.02": 0.0281102315702,
			"-0.019": 0.759515367992,
			"-0.018": 1.28310442773,
			"-0.017": 1.27995182297,
			"-0.016": 1.24316623467,
			"-0.015": 0.627378333643,
			"-0.014": 0.894616134437,
			"-0.013": 1.11273702684,
			"-0.012": 1.30703563073,
			"-0.011": 1.30552670954,
			"-0.01": 0.934695349387,
			"-0.009": 1.40582620376,
			"-0.008": 1.5378766026,
			"-0.007": 4.18634321651,
			"-0.006": 6.75719560596,
			"-0.005": 6.33245968685,
			"-0.004": 8.94647568423,
			"-0.003": 8.5966461093,
			"-0.002": 8.73825517723,
			"-0.001": 11.2981036052,
			"0.0": 13.281435153,
			"0.001": 19.1402336207,
			"0.002": 13.3333481654,
			"0.003": 15.5167948734,
			"0.004": 6.73702339758,
			"0.005": 3.02817665229,
			"0.006": 2.44787399518,
			"0.007": 3.26281291325,
			"0.008": 2.64027055832,
			"0.009": 3.69364144665,
			"0.01": 3.92511896259,
			"0.011": 3.81902696473,
			"0.012": 3.73760612099,
			"0.013": 1.27847159134,
			"0.014": 0.0709606713043,
			"0.015": 0.0,
			"0.016": 0.0,
			"0.017": 0.0,
			"0.018": 0.0,
			"0.019": 0.0,
			"0.02": 0.0,
			"0.021": 0.0,
			"0.022": 0.0,
			"0.023": 0.0,
			"0.024": 0.0,
			"0.025": 0.0
		}
	}
}
