{
	 "smiles": "CC1CCC2(CC1)NC(=O)N(N)C2=O", 
	 "Tm": 392.15, 
	 "num_atms": 29, 
	 "gaussian": { 
		 "optdone": 1, 
		 "sigma_profile": "yes", 
		 "theory": "DFT", 
		 "functional": "B3LYP", 
		 "basiset": "6-31G**", 
		 "properties": { 
			 "R2extent": 3867.2326, 
			 "electric_dipole_moment_norm": 2.73573964587, 
			 "electric_quadrupole_moment_norm": 10.2691546736, 
			 "total_energy": -666.724156523, 
			 "HOMO_LUMO_gap": 0.24857, 
			 "cosmo_polarized_energy": -17.85, 
			 "cosmo_cavitation_energy": 29.82, 
			 "cosmo_dispersion_energy": -21.65, 
			 "cosmo_repulsion_energy": 1.71, 
			 "cosmo_total_nonelectrostatic_energy": 9.88, 
			 "SMD_solvation_energy": 6.09 
		},
		"coords": [
			{
				"x": -1.0574336447,
				"y": 0.3947156726,
				"z": -2.2397480585,
				"element": "C" 
			},
			{
				"x": -0.533108791,
				"y": 1.47467776,
				"z": -1.2786069029,
				"element": "C" 
			},
			{
				"x": -1.0582510887,
				"y": 1.3002705756,
				"z": 0.1624513362,
				"element": "C" 
			},
			{
				"x": -0.4163040055,
				"y": 0.1110041666,
				"z": 0.8958650486,
				"element": "C" 
			},
			{
				"x": 1.1295931598,
				"y": 0.162865498,
				"z": 0.8982428369,
				"element": "C" 
			},
			{
				"x": 1.6644678482,
				"y": 0.3699385517,
				"z": -0.540105926,
				"element": "C" 
			},
			{
				"x": 1.0080286607,
				"y": 1.5603268781,
				"z": -1.2585062893,
				"element": "C" 
			},
			{
				"x": 1.6973961732,
				"y": -1.0437151843,
				"z": 1.5083794139,
				"element": "N" 
			},
			{
				"x": 2.5288661698,
				"y": -0.7924358899,
				"z": 2.5601130094,
				"element": "C" 
			},
			{
				"x": 3.2127402425,
				"y": -1.5561749285,
				"z": 3.2140490122,
				"element": "O" 
			},
			{
				"x": 2.4586917332,
				"y": 0.6066690504,
				"z": 2.7766416968,
				"element": "N" 
			},
			{
				"x": 3.1594064,
				"y": 1.2546641312,
				"z": 3.7969213092,
				"element": "N" 
			},
			{
				"x": 1.6617220215,
				"y": 1.2595656992,
				"z": 1.8498773357,
				"element": "C" 
			},
			{
				"x": 1.426905356,
				"y": 2.4488448113,
				"z": 1.7988410338,
				"element": "O" 
			},
			{
				"x": -2.1526672742,
				"y": 0.3938023386,
				"z": -2.2644868241,
				"element": "H" 
			},
			{
				"x": -0.7019494517,
				"y": 0.5747112705,
				"z": -3.2602987377,
				"element": "H" 
			},
			{
				"x": -0.7386669668,
				"y": -0.6147226616,
				"z": -1.9580437703,
				"element": "H" 
			},
			{
				"x": -0.9072587258,
				"y": 2.4390234907,
				"z": -1.6470035522,
				"element": "H" 
			},
			{
				"x": -2.1471630802,
				"y": 1.1682560002,
				"z": 0.1541056096,
				"element": "H" 
			},
			{
				"x": -0.8483553741,
				"y": 2.2131722599,
				"z": 0.7281095439,
				"element": "H" 
			},
			{
				"x": -0.7772286348,
				"y": 0.0542822088,
				"z": 1.9289140758,
				"element": "H" 
			},
			{
				"x": -0.7053075801,
				"y": -0.8335599487,
				"z": 0.4165123717,
				"element": "H" 
			},
			{
				"x": 1.4714054962,
				"y": -0.5592541935,
				"z": -1.0931935649,
				"element": "H" 
			},
			{
				"x": 2.7534876089,
				"y": 0.4913757847,
				"z": -0.5091452152,
				"element": "H" 
			},
			{
				"x": 1.3975573333,
				"y": 1.6177107344,
				"z": -2.2823003082,
				"element": "H" 
			},
			{
				"x": 1.3048339912,
				"y": 2.4823955368,
				"z": -0.7489485103,
				"element": "H" 
			},
			{
				"x": 1.705699319,
				"y": -1.9464961786,
				"z": 1.0581610183,
				"element": "H" 
			},
			{
				"x": 4.1216394873,
				"y": 0.923075842,
				"z": 3.7601036537,
				"element": "H" 
			},
			{
				"x": 2.7777536172,
				"y": 0.9441107238,
				"z": 4.688999354,
				"element": "H" 
			}
		],
		 "valence_orbital": [ 
			{
				"type": "occ",
				"energy": -0.29466,
				"method": "rhf"
			},
			{
				"type": "occ",
				"energy": -0.28446,
				"method": "rhf"
			},
			{
				"type": "occ",
				"energy": -0.2757,
				"method": "rhf"
			},
			{
				"type": "occ",
				"energy": -0.26161,
				"method": "rhf"
			},
			{
				"type": "occ",
				"energy": -0.25374,
				"method": "rhf"
			},
			{
				"type": "unocc",
				"energy": -0.00517,
				"method": "rhf"
			},
			{
				"type": "unocc",
				"energy": 0.05753,
				"method": "rhf"
			},
			{
				"type": "unocc",
				"energy": 0.06336,
				"method": "rhf"
			},
			{
				"type": "unocc",
				"energy": 0.07509,
				"method": "rhf"
			},
			{
				"type": "unocc",
				"energy": 0.08478,
				"method": "rhf"
			}
		],
		"cosmo_sigma_profile": { 
			"-0.025": 0.0,
			"-0.024": 0.0,
			"-0.023": 0.0,
			"-0.022": 0.0,
			"-0.021": 0.0,
			"-0.02": 0.0,
			"-0.019": 0.0,
			"-0.018": 0.0,
			"-0.017": 0.0,
			"-0.016": 0.0251152835046,
			"-0.015": 0.702533010117,
			"-0.014": 1.14024192968,
			"-0.013": 2.81569908466,
			"-0.012": 3.8540089748,
			"-0.011": 3.683783232,
			"-0.01": 3.79250555201,
			"-0.009": 3.01071641578,
			"-0.008": 3.91436227404,
			"-0.007": 2.88876280529,
			"-0.006": 6.26990489382,
			"-0.005": 9.15692232101,
			"-0.004": 11.1179397839,
			"-0.003": 15.8489494463,
			"-0.002": 25.6784056767,
			"-0.001": 31.1539932173,
			"0.0": 27.3592594887,
			"0.001": 18.6143488812,
			"0.002": 7.79500998471,
			"0.003": 4.82186066201,
			"0.004": 3.65188881373,
			"0.005": 2.91990045206,
			"0.006": 3.20105602399,
			"0.007": 3.49548550508,
			"0.008": 2.8579558805,
			"0.009": 2.1736703056,
			"0.01": 4.29006212453,
			"0.011": 4.40187386039,
			"0.012": 7.57991127648,
			"0.013": 7.55850218308,
			"0.014": 2.12251269535,
			"0.015": 1.56941973016,
			"0.016": 1.42932521739,
			"0.017": 0.361908476095,
			"0.018": 0.0,
			"0.019": 0.0,
			"0.02": 0.0,
			"0.021": 0.0,
			"0.022": 0.0,
			"0.023": 0.0,
			"0.024": 0.0,
			"0.025": 0.0
		}
	}
}
