{
	 "smiles": "OC(=O)C1=CC=C(SC2=NC=CC=C2)C=C1", 
	 "Tm": 453.15, 
	 "num_atms": 25, 
	 "gaussian": { 
		 "optdone": 1, 
		 "sigma_profile": "yes", 
		 "theory": "DFT", 
		 "functional": "B3LYP", 
		 "basiset": "6-31G**", 
		 "properties": { 
			 "R2extent": 5524.5465, 
			 "electric_dipole_moment_norm": 5.83929414741, 
			 "electric_quadrupole_moment_norm": 21.6243051276, 
			 "total_energy": -1066.08679701, 
			 "HOMO_LUMO_gap": 0.16953, 
			 "cosmo_polarized_energy": -17.06, 
			 "cosmo_cavitation_energy": 31.98, 
			 "cosmo_dispersion_energy": -23.62, 
			 "cosmo_repulsion_energy": 1.79, 
			 "cosmo_total_nonelectrostatic_energy": 10.16, 
			 "SMD_solvation_energy": 5.53 
		},
		"coords": [
			{
				"x": -0.7649296237,
				"y": -3.7218254685,
				"z": 4.2239466374,
				"element": "O" 
			},
			{
				"x": -1.3243561019,
				"y": -3.6460887882,
				"z": 2.9857232637,
				"element": "C" 
			},
			{
				"x": -2.2994006155,
				"y": -4.3099219594,
				"z": 2.7227582449,
				"element": "O" 
			},
			{
				"x": -0.6726357689,
				"y": -2.7164358799,
				"z": 2.0069945054,
				"element": "C" 
			},
			{
				"x": 0.6574475135,
				"y": -2.2933673428,
				"z": 2.1231568005,
				"element": "C" 
			},
			{
				"x": 1.2093348714,
				"y": -1.4310402574,
				"z": 1.1763115011,
				"element": "C" 
			},
			{
				"x": 0.4383538352,
				"y": -0.9946642113,
				"z": 0.0932413889,
				"element": "C" 
			},
			{
				"x": 1.2330070328,
				"y": 0.0161152728,
				"z": -1.1481228629,
				"element": "S" 
			},
			{
				"x": 0.1984467152,
				"y": 1.4836997476,
				"z": -1.2632748265,
				"element": "C" 
			},
			{
				"x": -0.8613998762,
				"y": 1.616274699,
				"z": -0.4730664956,
				"element": "N" 
			},
			{
				"x": -1.5926811413,
				"y": 2.7349817842,
				"z": -0.5920235012,
				"element": "C" 
			},
			{
				"x": -1.2992425766,
				"y": 3.7554905636,
				"z": -1.4914346333,
				"element": "C" 
			},
			{
				"x": -0.1819259378,
				"y": 3.5996043253,
				"z": -2.3179587139,
				"element": "C" 
			},
			{
				"x": 0.5851230125,
				"y": 2.4464159504,
				"z": -2.2112002464,
				"element": "C" 
			},
			{
				"x": -0.886333523,
				"y": -1.4360610235,
				"z": -0.0422527125,
				"element": "C" 
			},
			{
				"x": -1.4329442959,
				"y": -2.2885417395,
				"z": 0.9084351298,
				"element": "C" 
			},
			{
				"x": -0.109995323,
				"y": -3.0192825239,
				"z": 4.3370906041,
				"element": "H" 
			},
			{
				"x": 1.2897002888,
				"y": -2.6507717929,
				"z": 2.9324832365,
				"element": "H" 
			},
			{
				"x": 2.2371836563,
				"y": -1.0980103502,
				"z": 1.275425146,
				"element": "H" 
			},
			{
				"x": -2.4531773959,
				"y": 2.8086790767,
				"z": 0.0701852286,
				"element": "H" 
			},
			{
				"x": -1.9243191453,
				"y": 4.6404172821,
				"z": -1.5449055245,
				"element": "H" 
			},
			{
				"x": 0.0863651734,
				"y": 4.3672769669,
				"z": -3.038068007,
				"element": "H" 
			},
			{
				"x": 1.4574939444,
				"y": 2.2889524093,
				"z": -2.8375835914,
				"element": "H" 
			},
			{
				"x": -1.4798924299,
				"y": -1.1093291347,
				"z": -0.8875525218,
				"element": "H" 
			},
			{
				"x": -2.4525222887,
				"y": -2.6466676058,
				"z": 0.8155919501,
				"element": "H" 
			}
		],
		 "valence_orbital": [ 
			{
				"type": "occ",
				"energy": -0.27794,
				"method": "rhf"
			},
			{
				"type": "occ",
				"energy": -0.27706,
				"method": "rhf"
			},
			{
				"type": "occ",
				"energy": -0.26764,
				"method": "rhf"
			},
			{
				"type": "occ",
				"energy": -0.26316,
				"method": "rhf"
			},
			{
				"type": "occ",
				"energy": -0.22761,
				"method": "rhf"
			},
			{
				"type": "unocc",
				"energy": -0.05808,
				"method": "rhf"
			},
			{
				"type": "unocc",
				"energy": -0.03406,
				"method": "rhf"
			},
			{
				"type": "unocc",
				"energy": -0.02337,
				"method": "rhf"
			},
			{
				"type": "unocc",
				"energy": -0.01953,
				"method": "rhf"
			},
			{
				"type": "unocc",
				"energy": 0.02424,
				"method": "rhf"
			}
		],
		"cosmo_sigma_profile": { 
			"-0.025": 0.0,
			"-0.024": 0.0,
			"-0.023": 0.0,
			"-0.022": 0.0,
			"-0.021": 0.0,
			"-0.02": 0.0,
			"-0.019": 0.365944333139,
			"-0.018": 1.06391943828,
			"-0.017": 1.1049335339,
			"-0.016": 0.518743419634,
			"-0.015": 0.693067099017,
			"-0.014": 0.662677416326,
			"-0.013": 1.48750524601,
			"-0.012": 1.73292989499,
			"-0.011": 1.18955865145,
			"-0.01": 0.740701993043,
			"-0.009": 1.673912272,
			"-0.008": 3.23601809698,
			"-0.007": 12.380512416,
			"-0.006": 17.8753143646,
			"-0.005": 15.95962866,
			"-0.004": 13.7324744145,
			"-0.003": 13.356388715,
			"-0.002": 13.3440745924,
			"-0.001": 14.2132061108,
			"0.0": 14.2815900254,
			"0.001": 22.6323553821,
			"0.002": 32.0720333406,
			"0.003": 19.1435403866,
			"0.004": 9.06998159411,
			"0.005": 7.16396312706,
			"0.006": 5.92577367775,
			"0.007": 5.95187400914,
			"0.008": 4.37660545203,
			"0.009": 4.25346291496,
			"0.01": 5.48056942174,
			"0.011": 6.76959401861,
			"0.012": 5.22010599676,
			"0.013": 1.75285638519,
			"0.014": 0.00180294687178,
			"0.015": 0.0,
			"0.016": 0.0,
			"0.017": 0.0,
			"0.018": 0.0,
			"0.019": 0.0,
			"0.02": 0.0,
			"0.021": 0.0,
			"0.022": 0.0,
			"0.023": 0.0,
			"0.024": 0.0,
			"0.025": 0.0
		}
	}
}
