{
	 "smiles": "COC(=O)C1=CC=C(NC(C)C)C(N)=C1", 
	 "Tm": 378.15, 
	 "num_atms": 31, 
	 "gaussian": { 
		 "optdone": 1, 
		 "sigma_profile": "yes", 
		 "theory": "DFT", 
		 "functional": "B3LYP", 
		 "basiset": "6-31G**", 
		 "properties": { 
			 "R2extent": 5528.1787, 
			 "electric_dipole_moment_norm": 2.61665390337, 
			 "electric_quadrupole_moment_norm": 11.6837778633, 
			 "total_energy": -688.787264195, 
			 "HOMO_LUMO_gap": 0.16529, 
			 "cosmo_polarized_energy": -12.05, 
			 "cosmo_cavitation_energy": 33.84, 
			 "cosmo_dispersion_energy": -24.07, 
			 "cosmo_repulsion_energy": 1.9, 
			 "cosmo_total_nonelectrostatic_energy": 11.67, 
			 "SMD_solvation_energy": 6.89 
		},
		"coords": [
			{
				"x": 0.1675228677,
				"y": 3.9981471673,
				"z": -5.0934912985,
				"element": "C" 
			},
			{
				"x": 0.2715218457,
				"y": 3.0556835977,
				"z": -4.0177031302,
				"element": "O" 
			},
			{
				"x": -0.7200927953,
				"y": 3.1233401772,
				"z": -3.0965104609,
				"element": "C" 
			},
			{
				"x": -1.6330954438,
				"y": 3.9241393664,
				"z": -3.1722587463,
				"element": "O" 
			},
			{
				"x": -0.5571700165,
				"y": 2.1209817495,
				"z": -2.007218477,
				"element": "C" 
			},
			{
				"x": 0.5250988506,
				"y": 1.2313118346,
				"z": -1.9617038737,
				"element": "C" 
			},
			{
				"x": 0.6055409641,
				"y": 0.3257765688,
				"z": -0.9062069767,
				"element": "C" 
			},
			{
				"x": -0.3607231347,
				"y": 0.2889462597,
				"z": 0.1034195641,
				"element": "C" 
			},
			{
				"x": -0.2688670639,
				"y": -0.604554158,
				"z": 1.2267047063,
				"element": "N" 
			},
			{
				"x": -0.6336359376,
				"y": -2.0218217891,
				"z": 0.9641353385,
				"element": "C" 
			},
			{
				"x": -0.2464625932,
				"y": -2.850063197,
				"z": 2.1910809275,
				"element": "C" 
			},
			{
				"x": -2.1224633087,
				"y": -2.1597055665,
				"z": 0.6417000221,
				"element": "C" 
			},
			{
				"x": -1.4485335125,
				"y": 1.1958733344,
				"z": 0.0621039868,
				"element": "C" 
			},
			{
				"x": -2.4140583317,
				"y": 1.1474681766,
				"z": 1.0587521788,
				"element": "N" 
			},
			{
				"x": -1.5304788962,
				"y": 2.1012707462,
				"z": -1.0040169603,
				"element": "C" 
			},
			{
				"x": 1.0289268594,
				"y": 3.8100854679,
				"z": -5.7347962375,
				"element": "H" 
			},
			{
				"x": -0.762812271,
				"y": 3.8508631787,
				"z": -5.6482136339,
				"element": "H" 
			},
			{
				"x": 0.1889497154,
				"y": 5.0229527064,
				"z": -4.7136074338,
				"element": "H" 
			},
			{
				"x": 1.2814544623,
				"y": 1.253164696,
				"z": -2.7363967774,
				"element": "H" 
			},
			{
				"x": 1.4400411844,
				"y": -0.3699967402,
				"z": -0.8530930756,
				"element": "H" 
			},
			{
				"x": 0.6900162721,
				"y": -0.5943318404,
				"z": 1.5674789855,
				"element": "H" 
			},
			{
				"x": -0.0658822368,
				"y": -2.4011480798,
				"z": 0.0955908129,
				"element": "H" 
			},
			{
				"x": -0.7881200642,
				"y": -2.4993463244,
				"z": 3.0758561165,
				"element": "H" 
			},
			{
				"x": -0.485339836,
				"y": -3.9063208212,
				"z": 2.0349180793,
				"element": "H" 
			},
			{
				"x": 0.8277581938,
				"y": -2.7796448022,
				"z": 2.4004357952,
				"element": "H" 
			},
			{
				"x": -2.405110473,
				"y": -1.5479214166,
				"z": -0.2187110083,
				"element": "H" 
			},
			{
				"x": -2.7370161284,
				"y": -1.8494584704,
				"z": 1.4925493092,
				"element": "H" 
			},
			{
				"x": -2.356851604,
				"y": -3.20320895,
				"z": 0.4070751448,
				"element": "H" 
			},
			{
				"x": -2.9078728533,
				"y": 2.0118301167,
				"z": 1.2301194276,
				"element": "H" 
			},
			{
				"x": -2.0786586003,
				"y": 0.6845797913,
				"z": 1.8956093529,
				"element": "H" 
			},
			{
				"x": -2.3490861143,
				"y": 2.8119072206,
				"z": -1.0624016579,
				"element": "H" 
			}
		],
		 "valence_orbital": [ 
			{
				"type": "occ",
				"energy": -0.29347,
				"method": "rhf"
			},
			{
				"type": "occ",
				"energy": -0.26507,
				"method": "rhf"
			},
			{
				"type": "occ",
				"energy": -0.25114,
				"method": "rhf"
			},
			{
				"type": "occ",
				"energy": -0.23683,
				"method": "rhf"
			},
			{
				"type": "occ",
				"energy": -0.19962,
				"method": "rhf"
			},
			{
				"type": "unocc",
				"energy": -0.03433,
				"method": "rhf"
			},
			{
				"type": "unocc",
				"energy": 0.01157,
				"method": "rhf"
			},
			{
				"type": "unocc",
				"energy": 0.06784,
				"method": "rhf"
			},
			{
				"type": "unocc",
				"energy": 0.08063,
				"method": "rhf"
			},
			{
				"type": "unocc",
				"energy": 0.10024,
				"method": "rhf"
			}
		],
		"cosmo_sigma_profile": { 
			"-0.025": 0.0,
			"-0.024": 0.0,
			"-0.023": 0.0,
			"-0.022": 0.0,
			"-0.021": 0.0,
			"-0.02": 0.0,
			"-0.019": 0.0,
			"-0.018": 0.0,
			"-0.017": 0.0,
			"-0.016": 0.0,
			"-0.015": 0.0,
			"-0.014": 0.0,
			"-0.013": 0.137466912372,
			"-0.012": 1.15527770206,
			"-0.011": 1.74892594853,
			"-0.01": 2.67107798218,
			"-0.009": 3.5259655614,
			"-0.008": 3.34186300783,
			"-0.007": 4.96804570327,
			"-0.006": 9.13503238935,
			"-0.005": 13.7941216273,
			"-0.004": 15.1916964498,
			"-0.003": 24.4417941081,
			"-0.002": 24.5928158806,
			"-0.001": 24.9335187789,
			"0.0": 22.0017629559,
			"0.001": 24.6879013765,
			"0.002": 17.5302845391,
			"0.003": 15.9592928282,
			"0.004": 13.9744644887,
			"0.005": 12.8301325753,
			"0.006": 6.80805023279,
			"0.007": 3.1552816664,
			"0.008": 3.29818527292,
			"0.009": 2.98608374035,
			"0.01": 2.60352164952,
			"0.011": 3.40505696021,
			"0.012": 4.89328253721,
			"0.013": 1.6025145576,
			"0.014": 0.0819416136229,
			"0.015": 0.0,
			"0.016": 0.0,
			"0.017": 0.0,
			"0.018": 0.0,
			"0.019": 0.0,
			"0.02": 0.0,
			"0.021": 0.0,
			"0.022": 0.0,
			"0.023": 0.0,
			"0.024": 0.0,
			"0.025": 0.0
		}
	}
}
