{
	 "smiles": "CC1=C(CC(O)=O)C2=CC=CC=C2N1", 
	 "Tm": 473.15, 
	 "num_atms": 25, 
	 "gaussian": { 
		 "optdone": 1, 
		 "sigma_profile": "yes", 
		 "theory": "DFT", 
		 "functional": "B3LYP", 
		 "basiset": "6-31G**", 
		 "properties": { 
			 "R2extent": 3560.4766, 
			 "electric_dipole_moment_norm": 1.59259068188, 
			 "electric_quadrupole_moment_norm": 10.0817249873, 
			 "total_energy": -631.031025398, 
			 "HOMO_LUMO_gap": 0.18853, 
			 "cosmo_polarized_energy": -14.1, 
			 "cosmo_cavitation_energy": 29.06, 
			 "cosmo_dispersion_energy": -20.76, 
			 "cosmo_repulsion_energy": 1.64, 
			 "cosmo_total_nonelectrostatic_energy": 9.94, 
			 "SMD_solvation_energy": 5.69 
		},
		"coords": [
			{
				"x": 1.4028986161,
				"y": 0.2048755106,
				"z": 1.2803527744,
				"element": "C" 
			},
			{
				"x": 0.1325388814,
				"y": 0.1171115574,
				"z": 0.4960179082,
				"element": "C" 
			},
			{
				"x": -0.8357038807,
				"y": 1.0693860335,
				"z": 0.2563380137,
				"element": "C" 
			},
			{
				"x": -0.829991166,
				"y": 2.4939461981,
				"z": 0.7549674724,
				"element": "C" 
			},
			{
				"x": 0.0888468117,
				"y": 3.3630534149,
				"z": -0.0842691554,
				"element": "C" 
			},
			{
				"x": -0.5589391087,
				"y": 3.9388506473,
				"z": -1.1234077363,
				"element": "O" 
			},
			{
				"x": 1.2769692361,
				"y": 3.5157935292,
				"z": 0.1095055411,
				"element": "O" 
			},
			{
				"x": -1.8494907733,
				"y": 0.4538721119,
				"z": -0.5625283938,
				"element": "C" 
			},
			{
				"x": -3.052083258,
				"y": 0.9012898387,
				"z": -1.1354566965,
				"element": "C" 
			},
			{
				"x": -3.8143902396,
				"y": 0.0128171742,
				"z": -1.8848970411,
				"element": "C" 
			},
			{
				"x": -3.3988184266,
				"y": -1.3197666803,
				"z": -2.0798852606,
				"element": "C" 
			},
			{
				"x": -2.2107629032,
				"y": -1.7904677488,
				"z": -1.5296828089,
				"element": "C" 
			},
			{
				"x": -1.4488378928,
				"y": -0.8933201455,
				"z": -0.7758706534,
				"element": "C" 
			},
			{
				"x": -0.2455066828,
				"y": -1.0649874048,
				"z": -0.1207368404,
				"element": "N" 
			},
			{
				"x": 1.6893211961,
				"y": 1.2486914844,
				"z": 1.4207719462,
				"element": "H" 
			},
			{
				"x": 1.3099002771,
				"y": -0.2692099138,
				"z": 2.2663495079,
				"element": "H" 
			},
			{
				"x": 2.226677041,
				"y": -0.2915811203,
				"z": 0.7543120432,
				"element": "H" 
			},
			{
				"x": -1.8436316982,
				"y": 2.9023211471,
				"z": 0.7270427459,
				"element": "H" 
			},
			{
				"x": -0.4688642569,
				"y": 2.5488944387,
				"z": 1.7855553625,
				"element": "H" 
			},
			{
				"x": 0.1158566347,
				"y": 4.4230030041,
				"z": -1.6291211286,
				"element": "H" 
			},
			{
				"x": -3.3773263567,
				"y": 1.9296099376,
				"z": -1.0037958545,
				"element": "H" 
			},
			{
				"x": -4.7450926336,
				"y": 0.3492946402,
				"z": -2.3324517399,
				"element": "H" 
			},
			{
				"x": -4.0150755214,
				"y": -1.9906756581,
				"z": -2.6712092522,
				"element": "H" 
			},
			{
				"x": -1.8885769146,
				"y": -2.8170459204,
				"z": -1.6815981442,
				"element": "H" 
			},
			{
				"x": 0.2946830186,
				"y": -1.9150560756,
				"z": -0.1062026097,
				"element": "H" 
			}
		],
		 "valence_orbital": [ 
			{
				"type": "occ",
				"energy": -0.31372,
				"method": "rhf"
			},
			{
				"type": "occ",
				"energy": -0.28071,
				"method": "rhf"
			},
			{
				"type": "occ",
				"energy": -0.26138,
				"method": "rhf"
			},
			{
				"type": "occ",
				"energy": -0.21472,
				"method": "rhf"
			},
			{
				"type": "occ",
				"energy": -0.19532,
				"method": "rhf"
			},
			{
				"type": "unocc",
				"energy": -0.00679,
				"method": "rhf"
			},
			{
				"type": "unocc",
				"energy": 0.01252,
				"method": "rhf"
			},
			{
				"type": "unocc",
				"energy": 0.03161,
				"method": "rhf"
			},
			{
				"type": "unocc",
				"energy": 0.06961,
				"method": "rhf"
			},
			{
				"type": "unocc",
				"energy": 0.07916,
				"method": "rhf"
			}
		],
		"cosmo_sigma_profile": { 
			"-0.025": 0.0,
			"-0.024": 0.0,
			"-0.023": 0.0,
			"-0.022": 0.0,
			"-0.021": 0.0,
			"-0.02": 0.0,
			"-0.019": 0.0,
			"-0.018": 0.455419241611,
			"-0.017": 1.11478016894,
			"-0.016": 0.762718049333,
			"-0.015": 1.96873272271,
			"-0.014": 2.50738753247,
			"-0.013": 1.55596657303,
			"-0.012": 0.918889915892,
			"-0.011": 2.81605332248,
			"-0.01": 2.02831194326,
			"-0.009": 2.01249317188,
			"-0.008": 1.80498985887,
			"-0.007": 2.82116162208,
			"-0.006": 6.50352863848,
			"-0.005": 14.8052711035,
			"-0.004": 17.0654391829,
			"-0.003": 19.1165336389,
			"-0.002": 18.8929893698,
			"-0.001": 16.5114402961,
			"0.0": 14.5521051985,
			"0.001": 8.93785395387,
			"0.002": 9.80600986079,
			"0.003": 11.5064528517,
			"0.004": 14.1801870693,
			"0.005": 16.5603591712,
			"0.006": 13.9380331581,
			"0.007": 10.2947910729,
			"0.008": 4.80220935231,
			"0.009": 3.01211687338,
			"0.01": 2.1179900055,
			"0.011": 2.80442697021,
			"0.012": 4.23485973186,
			"0.013": 0.248906949272,
			"0.014": 0.0,
			"0.015": 0.0,
			"0.016": 0.0,
			"0.017": 0.0,
			"0.018": 0.0,
			"0.019": 0.0,
			"0.02": 0.0,
			"0.021": 0.0,
			"0.022": 0.0,
			"0.023": 0.0,
			"0.024": 0.0,
			"0.025": 0.0
		}
	}
}
