{
	 "smiles": "CCOC1=CC=CN=C1[N+]([O-])=O", 
	 "Tm": 303.15, 
	 "num_atms": 20, 
	 "gaussian": { 
		 "optdone": 1, 
		 "sigma_profile": "yes", 
		 "theory": "DFT", 
		 "functional": "B3LYP", 
		 "basiset": "6-31G**", 
		 "properties": { 
			 "R2extent": 2607.6349, 
			 "electric_dipole_moment_norm": 5.67897048504, 
			 "electric_quadrupole_moment_norm": 15.121433527, 
			 "total_energy": -606.61423869, 
			 "HOMO_LUMO_gap": 0.18835, 
			 "cosmo_polarized_energy": -11.82, 
			 "cosmo_cavitation_energy": 25.09, 
			 "cosmo_dispersion_energy": -18.04, 
			 "cosmo_repulsion_energy": 1.46, 
			 "cosmo_total_nonelectrostatic_energy": 8.52, 
			 "SMD_solvation_energy": 5.79 
		},
		"coords": [
			{
				"x": -2.4460602681,
				"y": 2.2520685948,
				"z": -1.2138235162,
				"element": "C" 
			},
			{
				"x": -1.2150875544,
				"y": 1.3753623239,
				"z": -1.1026695457,
				"element": "C" 
			},
			{
				"x": -0.2533754028,
				"y": 2.0819683101,
				"z": -0.2810630788,
				"element": "O" 
			},
			{
				"x": 0.9030131797,
				"y": 1.4211942207,
				"z": -0.0130209657,
				"element": "C" 
			},
			{
				"x": 1.9732587622,
				"y": 1.4254170328,
				"z": -0.9148461893,
				"element": "C" 
			},
			{
				"x": 3.1704121584,
				"y": 0.8086661379,
				"z": -0.561826761,
				"element": "C" 
			},
			{
				"x": 3.2734473609,
				"y": 0.2143787033,
				"z": 0.6983366048,
				"element": "C" 
			},
			{
				"x": 2.2714194042,
				"y": 0.2179468801,
				"z": 1.5816594224,
				"element": "N" 
			},
			{
				"x": 1.1359444641,
				"y": 0.7853919722,
				"z": 1.2172153813,
				"element": "C" 
			},
			{
				"x": 0.0595481098,
				"y": 0.7365961625,
				"z": 2.24141482,
				"element": "N" 
			},
			{
				"x": -1.0612708002,
				"y": 0.4080508995,
				"z": 1.8520835265,
				"element": "O" 
			},
			{
				"x": 0.3671265693,
				"y": 1.0110745038,
				"z": 3.3918673807,
				"element": "O" 
			},
			{
				"x": -3.1987418924,
				"y": 1.7593402506,
				"z": -1.8370103971,
				"element": "H" 
			},
			{
				"x": -2.8749603358,
				"y": 2.4284813769,
				"z": -0.2240925413,
				"element": "H" 
			},
			{
				"x": -2.1984591201,
				"y": 3.2172840651,
				"z": -1.6648596491,
				"element": "H" 
			},
			{
				"x": -1.4482944971,
				"y": 0.4203968167,
				"z": -0.6220498169,
				"element": "H" 
			},
			{
				"x": -0.770452632,
				"y": 1.1801429047,
				"z": -2.088308706,
				"element": "H" 
			},
			{
				"x": 1.8513774716,
				"y": 1.9296948387,
				"z": -1.868299061,
				"element": "H" 
			},
			{
				"x": 4.0147279235,
				"y": 0.7993497523,
				"z": -1.2436337883,
				"element": "H" 
			},
			{
				"x": 4.1917270993,
				"y": -0.2737057465,
				"z": 1.0145268807,
				"element": "H" 
			}
		],
		 "valence_orbital": [ 
			{
				"type": "occ",
				"energy": -0.31033,
				"method": "rhf"
			},
			{
				"type": "occ",
				"energy": -0.30002,
				"method": "rhf"
			},
			{
				"type": "occ",
				"energy": -0.29479,
				"method": "rhf"
			},
			{
				"type": "occ",
				"energy": -0.27517,
				"method": "rhf"
			},
			{
				"type": "occ",
				"energy": -0.26999,
				"method": "rhf"
			},
			{
				"type": "unocc",
				"energy": -0.08164,
				"method": "rhf"
			},
			{
				"type": "unocc",
				"energy": -0.04499,
				"method": "rhf"
			},
			{
				"type": "unocc",
				"energy": -0.02064,
				"method": "rhf"
			},
			{
				"type": "unocc",
				"energy": 0.07575,
				"method": "rhf"
			},
			{
				"type": "unocc",
				"energy": 0.09544,
				"method": "rhf"
			}
		],
		"cosmo_sigma_profile": { 
			"-0.025": 0.0,
			"-0.024": 0.0,
			"-0.023": 0.0,
			"-0.022": 0.0,
			"-0.021": 0.0,
			"-0.02": 0.0,
			"-0.019": 0.0,
			"-0.018": 0.0,
			"-0.017": 0.0,
			"-0.016": 0.0,
			"-0.015": 0.0,
			"-0.014": 0.0,
			"-0.013": 0.0,
			"-0.012": 0.0,
			"-0.011": 0.0,
			"-0.01": 0.0,
			"-0.009": 1.13123486583,
			"-0.008": 6.74395008428,
			"-0.007": 8.29079093384,
			"-0.006": 7.15833554895,
			"-0.005": 10.3351995457,
			"-0.004": 17.4081773079,
			"-0.003": 20.2070834196,
			"-0.002": 19.0669317009,
			"-0.001": 17.3955819148,
			"0.0": 20.7447409606,
			"0.001": 9.87961107304,
			"0.002": 5.81605062253,
			"0.003": 5.78494005275,
			"0.004": 5.91359842983,
			"0.005": 5.74400638323,
			"0.006": 7.20830900017,
			"0.007": 10.1640230593,
			"0.008": 7.57720901378,
			"0.009": 6.36371476596,
			"0.01": 3.2631630608,
			"0.011": 1.60304565762,
			"0.012": 1.21014145627,
			"0.013": 0.839223300961,
			"0.014": 0.25085634337,
			"0.015": 0.0,
			"0.016": 0.0,
			"0.017": 0.0,
			"0.018": 0.0,
			"0.019": 0.0,
			"0.02": 0.0,
			"0.021": 0.0,
			"0.022": 0.0,
			"0.023": 0.0,
			"0.024": 0.0,
			"0.025": 0.0
		}
	}
}
