{
	 "smiles": "CCCCN1C2=C(N(CC)C(CCl)=N2)C(=O)NC1=O", 
	 "Tm": 446.15, 
	 "num_atms": 36, 
	 "gaussian": { 
		 "optdone": 1, 
		 "sigma_profile": "yes", 
		 "theory": "DFT", 
		 "functional": "B3LYP", 
		 "basiset": "6-31G**", 
		 "properties": { 
			 "R2extent": 7447.8888, 
			 "electric_dipole_moment_norm": 3.33836814926, 
			 "electric_quadrupole_moment_norm": 12.2498743516, 
			 "total_energy": -1297.24561303, 
			 "HOMO_LUMO_gap": 0.17075, 
			 "cosmo_polarized_energy": -15.85, 
			 "cosmo_cavitation_energy": 39.48, 
			 "cosmo_dispersion_energy": -27.77, 
			 "cosmo_repulsion_energy": 2.16, 
			 "cosmo_total_nonelectrostatic_energy": 13.86, 
			 "SMD_solvation_energy": 5.87 
		},
		"coords": [
			{
				"x": 2.3827327336,
				"y": 3.1945765831,
				"z": -0.9150432702,
				"element": "C" 
			},
			{
				"x": 0.9195359643,
				"y": 2.7368152502,
				"z": -0.8958146319,
				"element": "C" 
			},
			{
				"x": 0.6765256331,
				"y": 1.345906996,
				"z": -1.5024905087,
				"element": "C" 
			},
			{
				"x": 1.3240543029,
				"y": 0.1672840928,
				"z": -0.7603223067,
				"element": "C" 
			},
			{
				"x": 0.8165619802,
				"y": -0.0209858772,
				"z": 0.6107035026,
				"element": "N" 
			},
			{
				"x": -0.4160053863,
				"y": -0.5997607892,
				"z": 0.836559637,
				"element": "C" 
			},
			{
				"x": -0.9183312287,
				"y": -0.8232262665,
				"z": 2.1087381817,
				"element": "C" 
			},
			{
				"x": -2.1626384979,
				"y": -1.4005660936,
				"z": 1.9208587079,
				"element": "N" 
			},
			{
				"x": -3.0583030073,
				"y": -1.8586562939,
				"z": 2.9939875096,
				"element": "C" 
			},
			{
				"x": -2.5873471184,
				"y": -3.1614388912,
				"z": 3.6401291543,
				"element": "C" 
			},
			{
				"x": -2.3266141528,
				"y": -1.4962488999,
				"z": 0.5694241987,
				"element": "C" 
			},
			{
				"x": -3.5318679126,
				"y": -2.0449772779,
				"z": -0.1009893947,
				"element": "C" 
			},
			{
				"x": -3.6209133854,
				"y": -3.8755667231,
				"z": -0.0370482077,
				"element": "Cl" 
			},
			{
				"x": -1.2839592366,
				"y": -1.0176909448,
				"z": -0.11678142,
				"element": "N" 
			},
			{
				"x": -0.2023112762,
				"y": -0.4630977679,
				"z": 3.3024799803,
				"element": "C" 
			},
			{
				"x": -0.5488972895,
				"y": -0.6015751029,
				"z": 4.4707095355,
				"element": "O" 
			},
			{
				"x": 1.0361748548,
				"y": 0.1065160115,
				"z": 2.9579459813,
				"element": "N" 
			},
			{
				"x": 1.6040723176,
				"y": 0.3459642319,
				"z": 1.6995985464,
				"element": "C" 
			},
			{
				"x": 2.7163090005,
				"y": 0.8410792412,
				"z": 1.5953021492,
				"element": "O" 
			},
			{
				"x": 2.7925988548,
				"y": 3.1637753097,
				"z": -1.931873123,
				"element": "H" 
			},
			{
				"x": 3.0052638073,
				"y": 2.5673915772,
				"z": -0.2712483846,
				"element": "H" 
			},
			{
				"x": 2.4714012947,
				"y": 4.2250062317,
				"z": -0.5552500696,
				"element": "H" 
			},
			{
				"x": 0.3051474975,
				"y": 3.4562252912,
				"z": -1.4519836936,
				"element": "H" 
			},
			{
				"x": 0.5428179772,
				"y": 2.7577255981,
				"z": 0.1352688017,
				"element": "H" 
			},
			{
				"x": 1.0663339709,
				"y": 1.3243035885,
				"z": -2.5294959977,
				"element": "H" 
			},
			{
				"x": -0.3996529751,
				"y": 1.154825266,
				"z": -1.5779214731,
				"element": "H" 
			},
			{
				"x": 2.4022760392,
				"y": 0.2951747053,
				"z": -0.6650747235,
				"element": "H" 
			},
			{
				"x": 1.1267900318,
				"y": -0.76014128,
				"z": -1.3049465104,
				"element": "H" 
			},
			{
				"x": -4.0529572339,
				"y": -1.9754070987,
				"z": 2.5581968224,
				"element": "H" 
			},
			{
				"x": -3.0996630219,
				"y": -1.0613495497,
				"z": 3.7391317794,
				"element": "H" 
			},
			{
				"x": -3.3103893477,
				"y": -3.4675467913,
				"z": 4.4024591313,
				"element": "H" 
			},
			{
				"x": -1.6225348894,
				"y": -3.0113677117,
				"z": 4.1292914376,
				"element": "H" 
			},
			{
				"x": -2.5056929417,
				"y": -3.9606529159,
				"z": 2.8991859796,
				"element": "H" 
			},
			{
				"x": -3.4919681093,
				"y": -1.7749239561,
				"z": -1.1539327684,
				"element": "H" 
			},
			{
				"x": -4.4637324152,
				"y": -1.69062997,
				"z": 0.3401781338,
				"element": "H" 
			},
			{
				"x": 1.6252831653,
				"y": 0.3871402273,
				"z": 3.7324673134,
				"element": "H" 
			}
		],
		 "valence_orbital": [ 
			{
				"type": "occ",
				"energy": -0.29253,
				"method": "rhf"
			},
			{
				"type": "occ",
				"energy": -0.28638,
				"method": "rhf"
			},
			{
				"type": "occ",
				"energy": -0.28505,
				"method": "rhf"
			},
			{
				"type": "occ",
				"energy": -0.26661,
				"method": "rhf"
			},
			{
				"type": "occ",
				"energy": -0.22633,
				"method": "rhf"
			},
			{
				"type": "unocc",
				"energy": -0.05558,
				"method": "rhf"
			},
			{
				"type": "unocc",
				"energy": -0.00141,
				"method": "rhf"
			},
			{
				"type": "unocc",
				"energy": 0.01692,
				"method": "rhf"
			},
			{
				"type": "unocc",
				"energy": 0.04529,
				"method": "rhf"
			},
			{
				"type": "unocc",
				"energy": 0.07649,
				"method": "rhf"
			}
		],
		"cosmo_sigma_profile": { 
			"-0.025": 0.0,
			"-0.024": 0.0,
			"-0.023": 0.0,
			"-0.022": 0.0,
			"-0.021": 0.0,
			"-0.02": 0.0,
			"-0.019": 0.0,
			"-0.018": 0.0,
			"-0.017": 0.0,
			"-0.016": 0.185657656465,
			"-0.015": 1.01860887666,
			"-0.014": 0.974606581483,
			"-0.013": 0.625343411388,
			"-0.012": 0.489873476033,
			"-0.011": 1.20650427048,
			"-0.01": 3.53880581498,
			"-0.009": 4.11002856902,
			"-0.008": 4.96152224209,
			"-0.007": 5.1472575361,
			"-0.006": 7.72700316037,
			"-0.005": 11.4664623587,
			"-0.004": 20.4118868911,
			"-0.003": 25.9084993369,
			"-0.002": 38.9355395289,
			"-0.001": 37.9128994557,
			"0.0": 32.4465733243,
			"0.001": 24.2765121909,
			"0.002": 17.7657407522,
			"0.003": 9.62477387644,
			"0.004": 10.182600477,
			"0.005": 10.9034929646,
			"0.006": 10.9722290826,
			"0.007": 4.58211777214,
			"0.008": 3.1577469398,
			"0.009": 3.90730217228,
			"0.01": 3.65148638551,
			"0.011": 4.3752928758,
			"0.012": 6.73610234215,
			"0.013": 5.67159055262,
			"0.014": 0.353772277441,
			"0.015": 0.0,
			"0.016": 0.0,
			"0.017": 0.0,
			"0.018": 0.0,
			"0.019": 0.0,
			"0.02": 0.0,
			"0.021": 0.0,
			"0.022": 0.0,
			"0.023": 0.0,
			"0.024": 0.0,
			"0.025": 0.0
		}
	}
}
