{
	 "smiles": "CC1=NN(C(=O)C1)C1=CC(=CC=C1)C(F)(F)F", 
	 "Tm": 401.15, 
	 "num_atms": 26, 
	 "gaussian": { 
		 "optdone": 1, 
		 "sigma_profile": "yes", 
		 "theory": "DFT", 
		 "functional": "B3LYP", 
		 "basiset": "6-31G**", 
		 "properties": { 
			 "R2extent": 5493.2187, 
			 "electric_dipole_moment_norm": 4.27941246551, 
			 "electric_quadrupole_moment_norm": 16.7532179739, 
			 "total_energy": -908.839511395, 
			 "HOMO_LUMO_gap": 0.18323, 
			 "cosmo_polarized_energy": -10.67, 
			 "cosmo_cavitation_energy": 31.92, 
			 "cosmo_dispersion_energy": -22.87, 
			 "cosmo_repulsion_energy": 1.72, 
			 "cosmo_total_nonelectrostatic_energy": 10.77, 
			 "SMD_solvation_energy": 6.68 
		},
		"coords": [
			{
				"x": -1.7675136449,
				"y": -2.9457703478,
				"z": 0.2907981955,
				"element": "C" 
			},
			{
				"x": -1.178879369,
				"y": -1.9474132711,
				"z": -0.6494970642,
				"element": "C" 
			},
			{
				"x": -0.4948030434,
				"y": -0.9421836967,
				"z": -0.2265112531,
				"element": "N" 
			},
			{
				"x": -0.0756501279,
				"y": -0.1874384641,
				"z": -1.3316647803,
				"element": "N" 
			},
			{
				"x": -0.5084204712,
				"y": -0.7270105689,
				"z": -2.5441706957,
				"element": "C" 
			},
			{
				"x": -0.3013698988,
				"y": -0.295803992,
				"z": -3.6632410124,
				"element": "O" 
			},
			{
				"x": -1.2951973509,
				"y": -1.9733388206,
				"z": -2.1456646169,
				"element": "C" 
			},
			{
				"x": 0.6966673785,
				"y": 0.9764747467,
				"z": -1.1032760994,
				"element": "C" 
			},
			{
				"x": 1.0027867699,
				"y": 1.3431424681,
				"z": 0.2142929387,
				"element": "C" 
			},
			{
				"x": 1.7587151581,
				"y": 2.4896306542,
				"z": 0.4513731019,
				"element": "C" 
			},
			{
				"x": 2.2168044877,
				"y": 3.2813349712,
				"z": -0.6044720318,
				"element": "C" 
			},
			{
				"x": 1.9056286128,
				"y": 2.906498929,
				"z": -1.9096979078,
				"element": "C" 
			},
			{
				"x": 1.1522427297,
				"y": 1.7636084703,
				"z": -2.1734664123,
				"element": "C" 
			},
			{
				"x": 2.1353399552,
				"y": 2.8416024813,
				"z": 1.8657435776,
				"element": "C" 
			},
			{
				"x": 1.2196715524,
				"y": 2.407229381,
				"z": 2.759966106,
				"element": "F" 
			},
			{
				"x": 3.319939518,
				"y": 2.2881385848,
				"z": 2.2188385843,
				"element": "F" 
			},
			{
				"x": 2.2643759516,
				"y": 4.1770524578,
				"z": 2.0337424061,
				"element": "F" 
			},
			{
				"x": -1.3832439067,
				"y": -3.9517316033,
				"z": 0.0841822282,
				"element": "H" 
			},
			{
				"x": -2.8576838106,
				"y": -2.990327318,
				"z": 0.1819146051,
				"element": "H" 
			},
			{
				"x": -1.5250197487,
				"y": -2.6786161375,
				"z": 1.3211226926,
				"element": "H" 
			},
			{
				"x": -0.8560196874,
				"y": -2.8687932525,
				"z": -2.600052403,
				"element": "H" 
			},
			{
				"x": -2.3294843156,
				"y": -1.9072395969,
				"z": -2.5021193126,
				"element": "H" 
			},
			{
				"x": 0.6439046244,
				"y": 0.7392747976,
				"z": 1.0359674721,
				"element": "H" 
			},
			{
				"x": 2.7964645207,
				"y": 4.1752987541,
				"z": -0.4042840557,
				"element": "H" 
			},
			{
				"x": 2.250393814,
				"y": 3.5126596304,
				"z": -2.741925592,
				"element": "H" 
			},
			{
				"x": 0.9116503022,
				"y": 1.4784207429,
				"z": -3.1878986706,
				"element": "H" 
			}
		],
		 "valence_orbital": [ 
			{
				"type": "occ",
				"energy": -0.32183,
				"method": "rhf"
			},
			{
				"type": "occ",
				"energy": -0.29127,
				"method": "rhf"
			},
			{
				"type": "occ",
				"energy": -0.26596,
				"method": "rhf"
			},
			{
				"type": "occ",
				"energy": -0.26319,
				"method": "rhf"
			},
			{
				"type": "occ",
				"energy": -0.224,
				"method": "rhf"
			},
			{
				"type": "unocc",
				"energy": -0.04077,
				"method": "rhf"
			},
			{
				"type": "unocc",
				"energy": -0.02252,
				"method": "rhf"
			},
			{
				"type": "unocc",
				"energy": -0.01811,
				"method": "rhf"
			},
			{
				"type": "unocc",
				"energy": 0.04376,
				"method": "rhf"
			},
			{
				"type": "unocc",
				"energy": 0.08036,
				"method": "rhf"
			}
		],
		"cosmo_sigma_profile": { 
			"-0.025": 0.0,
			"-0.024": 0.0,
			"-0.023": 0.0,
			"-0.022": 0.0,
			"-0.021": 0.0,
			"-0.02": 0.0,
			"-0.019": 0.0,
			"-0.018": 0.0,
			"-0.017": 0.0,
			"-0.016": 0.0,
			"-0.015": 0.0,
			"-0.014": 0.0,
			"-0.013": 0.0,
			"-0.012": 0.0,
			"-0.011": 0.0,
			"-0.01": 0.0,
			"-0.009": 2.71665217154,
			"-0.008": 5.90743161248,
			"-0.007": 7.97812110797,
			"-0.006": 15.4958692134,
			"-0.005": 16.1776095848,
			"-0.004": 16.1398659592,
			"-0.003": 13.8248056162,
			"-0.002": 16.0859434275,
			"-0.001": 16.6590051685,
			"0.0": 16.310939573,
			"0.001": 20.9668094609,
			"0.002": 31.7580195794,
			"0.003": 42.3118799054,
			"0.004": 9.83643771483,
			"0.005": 3.57891381665,
			"0.006": 2.94724782877,
			"0.007": 2.76362622695,
			"0.008": 3.28274246276,
			"0.009": 2.11964027345,
			"0.01": 2.01697854377,
			"0.011": 3.17208927502,
			"0.012": 2.84268327708,
			"0.013": 1.13710427636,
			"0.014": 0.011487013006,
			"0.015": 0.0,
			"0.016": 0.0,
			"0.017": 0.0,
			"0.018": 0.0,
			"0.019": 0.0,
			"0.02": 0.0,
			"0.021": 0.0,
			"0.022": 0.0,
			"0.023": 0.0,
			"0.024": 0.0,
			"0.0": 0.0
		}
	}
}
