{
	 "smiles": "CCC(=O)C1=CN(C)N=C1", 
	 "Tm": 318.15, 
	 "num_atms": 20, 
	 "gaussian": { 
		 "optdone": 1, 
		 "sigma_profile": "yes", 
		 "theory": "DFT", 
		 "functional": "B3LYP", 
		 "basiset": "6-31G**", 
		 "properties": { 
			 "R2extent": 1974.7146, 
			 "electric_dipole_moment_norm": 5.15491676945, 
			 "electric_quadrupole_moment_norm": 8.14534112607, 
			 "total_energy": -457.480729701, 
			 "HOMO_LUMO_gap": 0.20461, 
			 "cosmo_polarized_energy": -13.43, 
			 "cosmo_cavitation_energy": 24.14, 
			 "cosmo_dispersion_energy": -17.23, 
			 "cosmo_repulsion_energy": 1.41, 
			 "cosmo_total_nonelectrostatic_energy": 8.32, 
			 "SMD_solvation_energy": 4.44 
		},
		"coords": [
			{
				"x": -1.6688578248,
				"y": 0.3003345684,
				"z": 2.5904348881,
				"element": "C" 
			},
			{
				"x": -2.1057182575,
				"y": 0.7467926931,
				"z": 1.1827014292,
				"element": "C" 
			},
			{
				"x": -1.1432036804,
				"y": 1.7865578997,
				"z": 0.6161197947,
				"element": "C" 
			},
			{
				"x": -1.2907560503,
				"y": 2.9747741018,
				"z": 0.8744632864,
				"element": "O" 
			},
			{
				"x": -0.0085812001,
				"y": 1.3296297969,
				"z": -0.2019077671,
				"element": "C" 
			},
			{
				"x": 0.3373584453,
				"y": 0.049200308,
				"z": -0.6281186539,
				"element": "C" 
			},
			{
				"x": 1.4728611433,
				"y": 0.1675817292,
				"z": -1.3513589335,
				"element": "N" 
			},
			{
				"x": 2.2316411797,
				"y": -0.877659555,
				"z": -2.0134330226,
				"element": "C" 
			},
			{
				"x": 1.9057687797,
				"y": 1.4543945057,
				"z": -1.4333911655,
				"element": "N" 
			},
			{
				"x": 1.0158107442,
				"y": 2.152827429,
				"z": -0.7423137937,
				"element": "C" 
			},
			{
				"x": -2.382925625,
				"y": -0.41500882,
				"z": 3.0095586762,
				"element": "H" 
			},
			{
				"x": -0.6832493517,
				"y": -0.1763477594,
				"z": 2.5712305059,
				"element": "H" 
			},
			{
				"x": -1.6137350009,
				"y": 1.162492529,
				"z": 3.2611125725,
				"element": "H" 
			},
			{
				"x": -3.0909539551,
				"y": 1.219293563,
				"z": 1.2359390037,
				"element": "H" 
			},
			{
				"x": -2.1836516023,
				"y": -0.1210277813,
				"z": 0.5178618753,
				"element": "H" 
			},
			{
				"x": -0.132551751,
				"y": -0.9109871921,
				"z": -0.4717654858,
				"element": "H" 
			},
			{
				"x": 2.2805307217,
				"y": -0.6804767955,
				"z": -3.0872488558,
				"element": "H" 
			},
			{
				"x": 1.7404486124,
				"y": -1.8367274905,
				"z": -1.8419330934,
				"element": "H" 
			},
			{
				"x": 3.24781275,
				"y": -0.9121544519,
				"z": -1.6127424991,
				"element": "H" 
			},
			{
				"x": 1.1129519229,
				"y": 3.2243107219,
				"z": -0.6383087617,
				"element": "H" 
			}
		],
		 "valence_orbital": [ 
			{
				"type": "occ",
				"energy": -0.34344,
				"method": "rhf"
			},
			{
				"type": "occ",
				"energy": -0.29497,
				"method": "rhf"
			},
			{
				"type": "occ",
				"energy": -0.26424,
				"method": "rhf"
			},
			{
				"type": "occ",
				"energy": -0.25091,
				"method": "rhf"
			},
			{
				"type": "occ",
				"energy": -0.23744,
				"method": "rhf"
			},
			{
				"type": "unocc",
				"energy": -0.03283,
				"method": "rhf"
			},
			{
				"type": "unocc",
				"energy": 0.01133,
				"method": "rhf"
			},
			{
				"type": "unocc",
				"energy": 0.08036,
				"method": "rhf"
			},
			{
				"type": "unocc",
				"energy": 0.09386,
				"method": "rhf"
			},
			{
				"type": "unocc",
				"energy": 0.11081,
				"method": "rhf"
			}
		],
		"cosmo_sigma_profile": { 
			"-0.025": 0.0,
			"-0.024": 0.0,
			"-0.023": 0.0,
			"-0.022": 0.0,
			"-0.021": 0.0,
			"-0.02": 0.0,
			"-0.019": 0.0,
			"-0.018": 0.0,
			"-0.017": 0.0,
			"-0.016": 0.0,
			"-0.015": 0.0,
			"-0.014": 0.0,
			"-0.013": 0.0,
			"-0.012": 0.0,
			"-0.011": 0.0439454027303,
			"-0.01": 2.37399020195,
			"-0.009": 3.09527424849,
			"-0.008": 3.66326426078,
			"-0.007": 6.44698901871,
			"-0.006": 9.06236129245,
			"-0.005": 11.116225326,
			"-0.004": 15.2036604036,
			"-0.003": 21.7912178303,
			"-0.002": 17.6799216626,
			"-0.001": 17.1011235076,
			"0.0": 15.4090365722,
			"0.001": 11.2528377324,
			"0.002": 8.16761617001,
			"0.003": 9.31668801118,
			"0.004": 4.62250848014,
			"0.005": 3.61308441567,
			"0.006": 3.35647509076,
			"0.007": 3.36627218409,
			"0.008": 2.37461656891,
			"0.009": 2.90001453118,
			"0.01": 2.9748796993,
			"0.011": 3.24706541719,
			"0.012": 4.63081162009,
			"0.013": 4.57085929957,
			"0.014": 2.70935898901,
			"0.015": 0.840467132754,
			"0.016": 0.0896931114958,
			"0.017": 0.0,
			"0.018": 0.0,
			"0.019": 0.0,
			"0.02": 0.0,
			"0.021": 0.0,
			"0.022": 0.0,
			"0.023": 0.0,
			"0.024": 0.0,
			"0.025": 0.0
		}
	}
}
