{
	 "smiles": "C=CC=CC#C", 
	 "Tm": 192.15, 
	 "num_atms": 12, 
	 "gaussian": { 
		 "optdone": 1, 
		 "sigma_profile": "yes", 
		 "theory": "DFT", 
		 "functional": "B3LYP", 
		 "basiset": "6-31G**", 
		 "properties": { 
			 "R2extent": 1121.2311, 
			 "electric_dipole_moment_norm": 0.571278224686, 
			 "electric_quadrupole_moment_norm": 5.40613757409, 
			 "total_energy": -232.139227646, 
			 "HOMO_LUMO_gap": 0.1686, 
			 "cosmo_polarized_energy": -4.55, 
			 "cosmo_cavitation_energy": 17.5, 
			 "cosmo_dispersion_energy": -11.78, 
			 "cosmo_repulsion_energy": 1.01, 
			 "cosmo_total_nonelectrostatic_energy": 6.73, 
			 "SMD_solvation_energy": 5.38 
		},
		"coords": [
			{
				"x": 0.2764948859,
				"y": 0.9249358431,
				"z": -2.8940377144,
				"element": "C" 
			},
			{
				"x": 0.4907120819,
				"y": 0.3586427642,
				"z": -1.6970704184,
				"element": "C" 
			},
			{
				"x": -0.3446476789,
				"y": 0.5083459062,
				"z": -0.5061521887,
				"element": "C" 
			},
			{
				"x": -1.1634579947,
				"y": 1.5531585586,
				"z": -0.2484625177,
				"element": "C" 
			},
			{
				"x": -1.9812922597,
				"y": 1.6542120629,
				"z": 0.9061273702,
				"element": "C" 
			},
			{
				"x": -2.6918636863,
				"y": 1.7747251982,
				"z": 1.8807250563,
				"element": "C" 
			},
			{
				"x": -0.5936487049,
				"y": 1.5447285446,
				"z": -3.0918661676,
				"element": "H" 
			},
			{
				"x": 0.9633364397,
				"y": 0.7712816293,
				"z": -3.7200089017,
				"element": "H" 
			},
			{
				"x": 1.352046711,
				"y": -0.2985012527,
				"z": -1.5823698833,
				"element": "H" 
			},
			{
				"x": -0.2773388994,
				"y": -0.2844719828,
				"z": 0.2361943335,
				"element": "H" 
			},
			{
				"x": -1.2062479359,
				"y": 2.3870454511,
				"z": -0.948028667,
				"element": "H" 
			},
			{
				"x": -3.3111929588,
				"y": 1.8663972773,
				"z": 2.7423496989,
				"element": "H" 
			}
		],
		 "valence_orbital": [ 
			{
				"type": "occ",
				"energy": -0.36381,
				"method": "rhf"
			},
			{
				"type": "occ",
				"energy": -0.34164,
				"method": "rhf"
			},
			{
				"type": "occ",
				"energy": -0.29062,
				"method": "rhf"
			},
			{
				"type": "occ",
				"energy": -0.27031,
				"method": "rhf"
			},
			{
				"type": "occ",
				"energy": -0.2208,
				"method": "rhf"
			},
			{
				"type": "unocc",
				"energy": -0.0522,
				"method": "rhf"
			},
			{
				"type": "unocc",
				"energy": 0.04994,
				"method": "rhf"
			},
			{
				"type": "unocc",
				"energy": 0.05321,
				"method": "rhf"
			},
			{
				"type": "unocc",
				"energy": 0.10655,
				"method": "rhf"
			},
			{
				"type": "unocc",
				"energy": 0.11998,
				"method": "rhf"
			}
		],
		"cosmo_sigma_profile": { 
			"-0.025": 0.0,
			"-0.024": 0.0,
			"-0.023": 0.0,
			"-0.022": 0.0,
			"-0.021": 0.0,
			"-0.02": 0.0,
			"-0.019": 0.0,
			"-0.018": 0.0,
			"-0.017": 0.0,
			"-0.016": 0.0,
			"-0.015": 0.0,
			"-0.014": 0.0,
			"-0.013": 0.0,
			"-0.012": 0.382418692598,
			"-0.011": 1.27931886082,
			"-0.01": 1.25529713618,
			"-0.009": 1.15686972874,
			"-0.008": 0.90401052532,
			"-0.007": 2.56901238211,
			"-0.006": 9.00876977169,
			"-0.005": 11.3619364627,
			"-0.004": 9.11248685881,
			"-0.003": 9.5237233658,
			"-0.002": 8.34531589172,
			"-0.001": 8.74889169372,
			"0.0": 8.16539032288,
			"0.001": 9.32757501674,
			"0.002": 9.39612308422,
			"0.003": 11.4234538454,
			"0.004": 13.6352062589,
			"0.005": 10.5495879748,
			"0.006": 10.1431769255,
			"0.007": 5.17976234774,
			"0.008": 4.90306415038e-05,
			"0.009": 0.0,
			"0.01": 0.0,
			"0.011": 0.0,
			"0.012": 0.0,
			"0.013": 0.0,
			"0.014": 0.0,
			"0.015": 0.0,
			"0.016": 0.0,
			"0.017": 0.0,
			"0.018": 0.0,
			"0.019": 0.0,
			"0.02": 0.0,
			"0.021": 0.0,
			"0.022": 0.0,
			"0.023": 0.0,
			"0.024": 0.0,
			"0.025": 0.0
		}
	}
}
