{
	 "smiles": "CC(C)(C)C1=CC=C(OC2=CC=C(C=C2C=O)[N+]([O-])=O)C=C1", 
	 "Tm": 408.15, 
	 "num_atms": 39, 
	 "gaussian": { 
		 "optdone": 1, 
		 "sigma_profile": "yes", 
		 "theory": "DFT", 
		 "functional": "B3LYP", 
		 "basiset": "6-31G**", 
		 "properties": { 
			 "R2extent": 11368.1545, 
			 "electric_dipole_moment_norm": 8.56115526024, 
			 "electric_quadrupole_moment_norm": 34.4949559197, 
			 "total_energy": -1013.59731052, 
			 "HOMO_LUMO_gap": 0.16845, 
			 "cosmo_polarized_energy": -13.51, 
			 "cosmo_cavitation_energy": 43.5, 
			 "cosmo_dispersion_energy": -29.97, 
			 "cosmo_repulsion_energy": 2.27, 
			 "cosmo_total_nonelectrostatic_energy": 15.81, 
			 "SMD_solvation_energy": 11.04 
		},
		"coords": [
			{
				"x": 2.1807210933,
				"y": -4.1094323948,
				"z": 0.0705340449,
				"element": "C" 
			},
			{
				"x": 0.7223723791,
				"y": -3.859740366,
				"z": -0.3583030581,
				"element": "C" 
			},
			{
				"x": 0.4474625551,
				"y": -4.6835599898,
				"z": -1.6391370539,
				"element": "C" 
			},
			{
				"x": -0.2062897254,
				"y": -4.3515656997,
				"z": 0.777681481,
				"element": "C" 
			},
			{
				"x": 0.442854093,
				"y": -2.3716838766,
				"z": -0.6383157457,
				"element": "C" 
			},
			{
				"x": 1.4227816247,
				"y": -1.3766618376,
				"z": -0.5146261966,
				"element": "C" 
			},
			{
				"x": 1.1420925947,
				"y": -0.0330094942,
				"z": -0.7771453321,
				"element": "C" 
			},
			{
				"x": -0.1401340864,
				"y": 0.3286671555,
				"z": -1.1708253463,
				"element": "C" 
			},
			{
				"x": -0.4038207449,
				"y": 1.658598839,
				"z": -1.5116059555,
				"element": "O" 
			},
			{
				"x": -0.9361898564,
				"y": 2.5127046289,
				"z": -0.5951671024,
				"element": "C" 
			},
			{
				"x": -1.2021432318,
				"y": 2.1471441151,
				"z": 0.7336422453,
				"element": "C" 
			},
			{
				"x": -1.7407220206,
				"y": 3.0801228714,
				"z": 1.608970715,
				"element": "C" 
			},
			{
				"x": -2.0125190513,
				"y": 4.3746328475,
				"z": 1.1574241456,
				"element": "C" 
			},
			{
				"x": -1.7546109522,
				"y": 4.752009317,
				"z": -0.152915248,
				"element": "C" 
			},
			{
				"x": -1.2129219508,
				"y": 3.8244173412,
				"z": -1.0461421123,
				"element": "C" 
			},
			{
				"x": -0.9453682599,
				"y": 4.2464684511,
				"z": -2.4455719978,
				"element": "C" 
			},
			{
				"x": -1.1745154381,
				"y": 5.369828162,
				"z": -2.8545445094,
				"element": "O" 
			},
			{
				"x": -2.5817045028,
				"y": 5.3504931077,
				"z": 2.0924222288,
				"element": "N" 
			},
			{
				"x": -2.796428804,
				"y": 4.9747414773,
				"z": 3.2461645107,
				"element": "O" 
			},
			{
				"x": -2.8096228424,
				"y": 6.482447077,
				"z": 1.6686232239,
				"element": "O" 
			},
			{
				"x": -1.1410081802,
				"y": -0.6308318809,
				"z": -1.3099383387,
				"element": "C" 
			},
			{
				"x": -0.8416624866,
				"y": -1.9643110253,
				"z": -1.0421882744,
				"element": "C" 
			},
			{
				"x": 2.3300607425,
				"y": -5.17715259,
				"z": 0.259111198,
				"element": "H" 
			},
			{
				"x": 2.8921568892,
				"y": -3.8107417152,
				"z": -0.7064073841,
				"element": "H" 
			},
			{
				"x": 2.4333015758,
				"y": -3.5748589117,
				"z": 0.9922615477,
				"element": "H" 
			},
			{
				"x": 1.0953868085,
				"y": -4.3602704623,
				"z": -2.460335833,
				"element": "H" 
			},
			{
				"x": -0.5896506405,
				"y": -4.5857174139,
				"z": -1.973534728,
				"element": "H" 
			},
			{
				"x": 0.6376803957,
				"y": -5.7465654169,
				"z": -1.4545565743,
				"element": "H" 
			},
			{
				"x": -1.2634517389,
				"y": -4.2425196055,
				"z": 0.5177424521,
				"element": "H" 
			},
			{
				"x": -0.0289402888,
				"y": -3.7900927266,
				"z": 1.7008504743,
				"element": "H" 
			},
			{
				"x": -0.0234489082,
				"y": -5.411618314,
				"z": 0.9851249071,
				"element": "H" 
			},
			{
				"x": 2.4299131798,
				"y": -1.637032826,
				"z": -0.2117710722,
				"element": "H" 
			},
			{
				"x": 1.9117129808,
				"y": 0.7267924825,
				"z": -0.6868579837,
				"element": "H" 
			},
			{
				"x": -0.9858157438,
				"y": 1.1415747694,
				"z": 1.0721626708,
				"element": "H" 
			},
			{
				"x": -1.9547212903,
				"y": 2.8247134157,
				"z": 2.6394814429,
				"element": "H" 
			},
			{
				"x": -1.9668326225,
				"y": 5.7567342221,
				"z": -0.4984378936,
				"element": "H" 
			},
			{
				"x": -0.5196720863,
				"y": 3.4708560539,
				"z": -3.107500051,
				"element": "H" 
			},
			{
				"x": -2.133590876,
				"y": -0.3324894814,
				"z": -1.6319565683,
				"element": "H" 
			},
			{
				"x": -1.6306105831,
				"y": -2.7009903057,
				"z": -1.1573129287,
				"element": "H" 
			}
		],
		 "valence_orbital": [ 
			{
				"type": "occ",
				"energy": -0.28648,
				"method": "rhf"
			},
			{
				"type": "occ",
				"energy": -0.27506,
				"method": "rhf"
			},
			{
				"type": "occ",
				"energy": -0.26513,
				"method": "rhf"
			},
			{
				"type": "occ",
				"energy": -0.26171,
				"method": "rhf"
			},
			{
				"type": "occ",
				"energy": -0.25593,
				"method": "rhf"
			},
			{
				"type": "unocc",
				"energy": -0.08748,
				"method": "rhf"
			},
			{
				"type": "unocc",
				"energy": -0.07625,
				"method": "rhf"
			},
			{
				"type": "unocc",
				"energy": -0.02651,
				"method": "rhf"
			},
			{
				"type": "unocc",
				"energy": -0.02153,
				"method": "rhf"
			},
			{
				"type": "unocc",
				"energy": -0.00668,
				"method": "rhf"
			}
		],
		"cosmo_sigma_profile": { 
			"-0.025": 0.0,
			"-0.024": 0.0,
			"-0.023": 0.0,
			"-0.022": 0.0,
			"-0.021": 0.0,
			"-0.02": 0.0,
			"-0.019": 0.0,
			"-0.018": 0.0,
			"-0.017": 0.0,
			"-0.016": 0.0,
			"-0.015": 0.0,
			"-0.014": 0.0,
			"-0.013": 0.0,
			"-0.012": 0.0,
			"-0.011": 0.0,
			"-0.01": 0.0,
			"-0.009": 0.37465044282,
			"-0.008": 2.50663584685,
			"-0.007": 6.70701708419,
			"-0.006": 12.6482088934,
			"-0.005": 17.6699077953,
			"-0.004": 22.77881853,
			"-0.003": 35.4561063524,
			"-0.002": 41.9685806418,
			"-0.001": 42.4239937296,
			"0.0": 32.9023216311,
			"0.001": 34.1397027739,
			"0.002": 19.6023839323,
			"0.003": 13.50958055,
			"0.004": 14.8361389395,
			"0.005": 5.97867100599,
			"0.006": 4.92567603609,
			"0.007": 9.60486630614,
			"0.008": 9.22164706247,
			"0.009": 6.68037376871,
			"0.01": 5.95229786612,
			"0.011": 4.0004028817,
			"0.012": 1.56294209087,
			"0.013": 0.216327877837,
			"0.014": 0.0,
			"0.015": 0.0,
			"0.016": 0.0,
			"0.017": 0.0,
			"0.018": 0.0,
			"0.019": 0.0,
			"0.02": 0.0,
			"0.021": 0.0,
			"0.022": 0.0,
			"0.023": 0.0,
			"0.024": 0.0,
			"0.025": 0.0
		}
	}
}
