{
	 "smiles": "ClC1=CC=C(C=C1)C(=O)C=CC1=CC=CC=C1", 
	 "Tm": 370.65, 
	 "num_atms": 28, 
	 "gaussian": { 
		 "optdone": 1, 
		 "sigma_profile": "yes", 
		 "theory": "DFT", 
		 "functional": "B3LYP", 
		 "basiset": "6-31G**", 
		 "properties": { 
			 "R2extent": 8419.8343, 
			 "electric_dipole_moment_norm": 3.57858285219, 
			 "electric_quadrupole_moment_norm": 10.0498364713, 
			 "total_energy": -1113.6342683, 
			 "HOMO_LUMO_gap": 0.15289, 
			 "cosmo_polarized_energy": -10.59, 
			 "cosmo_cavitation_energy": 35.12, 
			 "cosmo_dispersion_energy": -25.61, 
			 "cosmo_repulsion_energy": 1.95, 
			 "cosmo_total_nonelectrostatic_energy": 11.46, 
			 "SMD_solvation_energy": 6.11 
		},
		"coords": [
			{
				"x": 3.3257537719,
				"y": -5.6376092476,
				"z": -0.0082481944,
				"element": "Cl" 
			},
			{
				"x": 2.4932411156,
				"y": -4.1005614723,
				"z": 0.1482092048,
				"element": "C" 
			},
			{
				"x": 2.1556636535,
				"y": -3.385650134,
				"z": -1.00020834,
				"element": "C" 
			},
			{
				"x": 1.4884092471,
				"y": -2.168505278,
				"z": -0.8697471658,
				"element": "C" 
			},
			{
				"x": 1.1610723273,
				"y": -1.6571246575,
				"z": 0.3950378855,
				"element": "C" 
			},
			{
				"x": 1.5251240949,
				"y": -2.3951668386,
				"z": 1.5331281285,
				"element": "C" 
			},
			{
				"x": 2.1834007355,
				"y": -3.6140340709,
				"z": 1.4204906582,
				"element": "C" 
			},
			{
				"x": 0.4579627686,
				"y": -0.3473936175,
				"z": 0.6162069866,
				"element": "C" 
			},
			{
				"x": 0.3827656146,
				"y": 0.1149034429,
				"z": 1.7537224308,
				"element": "O" 
			},
			{
				"x": -0.1450189868,
				"y": 0.3556660977,
				"z": -0.541254491,
				"element": "C" 
			},
			{
				"x": -0.7227528926,
				"y": 1.5623212235,
				"z": -0.3689772134,
				"element": "C" 
			},
			{
				"x": -1.3774392211,
				"y": 2.4006798706,
				"z": -1.3710540785,
				"element": "C" 
			},
			{
				"x": -1.90881801,
				"y": 3.6396324909,
				"z": -0.9657517586,
				"element": "C" 
			},
			{
				"x": -2.5447975702,
				"y": 4.4821395152,
				"z": -1.875115964,
				"element": "C" 
			},
			{
				"x": -2.6630175487,
				"y": 4.1015240497,
				"z": -3.212552549,
				"element": "C" 
			},
			{
				"x": -2.1410306595,
				"y": 2.8733035141,
				"z": -3.6331945059,
				"element": "C" 
			},
			{
				"x": -1.5063332235,
				"y": 2.0327511887,
				"z": -2.7254579644,
				"element": "C" 
			},
			{
				"x": 2.4131505202,
				"y": -3.7755547955,
				"z": -1.9785915505,
				"element": "H" 
			},
			{
				"x": 1.2459605846,
				"y": -1.6177227586,
				"z": -1.7717402331,
				"element": "H" 
			},
			{
				"x": 1.2779128168,
				"y": -1.985298225,
				"z": 2.506380971,
				"element": "H" 
			},
			{
				"x": 2.4570754163,
				"y": -4.1840735855,
				"z": 2.3014257803,
				"element": "H" 
			},
			{
				"x": -0.1298906661,
				"y": -0.1238927266,
				"z": -1.5133566232,
				"element": "H" 
			},
			{
				"x": -0.6974122762,
				"y": 1.959099421,
				"z": 0.6450554059,
				"element": "H" 
			},
			{
				"x": -1.8173419396,
				"y": 3.9363575277,
				"z": 0.0757076193,
				"element": "H" 
			},
			{
				"x": -2.9475097969,
				"y": 5.4336198265,
				"z": -1.5405861455,
				"element": "H" 
			},
			{
				"x": -3.1580586781,
				"y": 4.7551291204,
				"z": -3.9247802059,
				"element": "H" 
			},
			{
				"x": -2.2314008838,
				"y": 2.5731076512,
				"z": -4.6731213833,
				"element": "H" 
			},
			{
				"x": -1.1076703139,
				"y": 1.0831524674,
				"z": -3.0687267041,
				"element": "H" 
			}
		],
		 "valence_orbital": [ 
			{
				"type": "occ",
				"energy": -0.27058,
				"method": "rhf"
			},
			{
				"type": "occ",
				"energy": -0.26387,
				"method": "rhf"
			},
			{
				"type": "occ",
				"energy": -0.25421,
				"method": "rhf"
			},
			{
				"type": "occ",
				"energy": -0.24997,
				"method": "rhf"
			},
			{
				"type": "occ",
				"energy": -0.23651,
				"method": "rhf"
			},
			{
				"type": "unocc",
				"energy": -0.08362,
				"method": "rhf"
			},
			{
				"type": "unocc",
				"energy": -0.03258,
				"method": "rhf"
			},
			{
				"type": "unocc",
				"energy": -0.01853,
				"method": "rhf"
			},
			{
				"type": "unocc",
				"energy": -0.01241,
				"method": "rhf"
			},
			{
				"type": "unocc",
				"energy": 0.02496,
				"method": "rhf"
			}
		],
		"cosmo_sigma_profile": { 
			"-0.025": 0.0,
			"-0.024": 0.0,
			"-0.023": 0.0,
			"-0.022": 0.0,
			"-0.021": 0.0,
			"-0.02": 0.0,
			"-0.019": 0.0,
			"-0.018": 0.0,
			"-0.017": 0.0,
			"-0.016": 0.0,
			"-0.015": 0.0,
			"-0.014": 0.0,
			"-0.013": 0.0,
			"-0.012": 0.0,
			"-0.011": 0.0,
			"-0.01": 0.304466220853,
			"-0.009": 2.45624383688,
			"-0.008": 4.18255716695,
			"-0.007": 10.2512826724,
			"-0.006": 16.8165060951,
			"-0.005": 18.9392651129,
			"-0.004": 18.0467798132,
			"-0.003": 15.9977229025,
			"-0.002": 17.0595499651,
			"-0.001": 17.3186801392,
			"0.0": 22.0130593333,
			"0.001": 27.2328137779,
			"0.002": 34.2737833811,
			"0.003": 29.5716733213,
			"0.004": 24.6288626301,
			"0.005": 9.71505633341,
			"0.006": 1.90862983867,
			"0.007": 2.03797511754,
			"0.008": 1.24393054913,
			"0.009": 1.67966843738,
			"0.01": 1.67032956836,
			"0.011": 2.51067391386,
			"0.012": 3.72953167979,
			"0.013": 1.76593473295,
			"0.014": 0.0,
			"0.015": 0.0,
			"0.016": 0.0,
			"0.017": 0.0,
			"0.018": 0.0,
			"0.019": 0.0,
			"0.02": 0.0,
			"0.021": 0.0,
			"0.022": 0.0,
			"0.023": 0.0,
			"0.024": 0.0,
			"0.025": 0.0
		}
	}
}
