{
	 "smiles": "NC1=NN=C(S1)C1=CC(F)=C(Br)C=C1", 
	 "Tm": 493.15, 
	 "num_atms": 19, 
	 "gaussian": { 
		 "optdone": 1, 
		 "sigma_profile": "yes", 
		 "theory": "DFT", 
		 "functional": "B3LYP", 
		 "basiset": "6-31G**", 
		 "properties": { 
			 "R2extent": 6120.811, 
			 "electric_dipole_moment_norm": 3.8303162859, 
			 "electric_quadrupole_moment_norm": 21.8415275672, 
			 "total_energy": -3541.51717974, 
			 "HOMO_LUMO_gap": 0.16107, 
			 "cosmo_polarized_energy": -14.32, 
			 "cosmo_cavitation_energy": 28.71, 
			 "cosmo_dispersion_energy": -22.22, 
			 "cosmo_repulsion_energy": 1.67, 
			 "cosmo_total_nonelectrostatic_energy": 8.16, 
			 "SMD_solvation_energy": 2.19 
		},
		"coords": [
			{
				"x": -1.4543947042,
				"y": 3.0470646575,
				"z": -4.1682634147,
				"element": "N" 
			},
			{
				"x": -1.2625297873,
				"y": 2.0014376384,
				"z": -3.3044694722,
				"element": "C" 
			},
			{
				"x": -1.7206134467,
				"y": 0.7947260027,
				"z": -3.526661937,
				"element": "N" 
			},
			{
				"x": -1.3352086949,
				"y": -0.0940584441,
				"z": -2.5716134039,
				"element": "N" 
			},
			{
				"x": -0.6052615908,
				"y": 0.4105090952,
				"z": -1.6189985726,
				"element": "C" 
			},
			{
				"x": -0.2891144675,
				"y": 2.1464186063,
				"z": -1.8463003069,
				"element": "S" 
			},
			{
				"x": -0.1016924272,
				"y": -0.3616111459,
				"z": -0.4797717585,
				"element": "C" 
			},
			{
				"x": 0.6872273431,
				"y": 0.2252751624,
				"z": 0.5196965973,
				"element": "C" 
			},
			{
				"x": 1.1424445422,
				"y": -0.5432436215,
				"z": 1.5823511575,
				"element": "C" 
			},
			{
				"x": 1.8953879637,
				"y": 0.0427550476,
				"z": 2.5260299793,
				"element": "F" 
			},
			{
				"x": 0.831549427,
				"y": -1.8984169076,
				"z": 1.6798495756,
				"element": "C" 
			},
			{
				"x": 1.4735241233,
				"y": -2.9134560286,
				"z": 3.1483189586,
				"element": "Br" 
			},
			{
				"x": 0.046662754,
				"y": -2.4869987599,
				"z": 0.6857047113,
				"element": "C" 
			},
			{
				"x": -0.4167979231,
				"y": -1.7297438802,
				"z": -0.3835047646,
				"element": "C" 
			},
			{
				"x": -1.5033297765,
				"y": 3.9761197657,
				"z": -3.7769167051,
				"element": "H" 
			},
			{
				"x": -2.1477915173,
				"y": 2.8529037105,
				"z": -4.8793939822,
				"element": "H" 
			},
			{
				"x": 0.9624818219,
				"y": 1.2745341376,
				"z": 0.4963492104,
				"element": "H" 
			},
			{
				"x": -0.1973984716,
				"y": -3.5408357667,
				"z": 0.7576994596,
				"element": "H" 
			},
			{
				"x": -1.0262451681,
				"y": -2.1826792694,
				"z": -1.1564053318,
				"element": "H" 
			}
		],
		 "valence_orbital": [ 
			{
				"type": "occ",
				"energy": -0.29373,
				"method": "rhf"
			},
			{
				"type": "occ",
				"energy": -0.26904,
				"method": "rhf"
			},
			{
				"type": "occ",
				"energy": -0.26617,
				"method": "rhf"
			},
			{
				"type": "occ",
				"energy": -0.26305,
				"method": "rhf"
			},
			{
				"type": "occ",
				"energy": -0.224,
				"method": "rhf"
			},
			{
				"type": "unocc",
				"energy": -0.06293,
				"method": "rhf"
			},
			{
				"type": "unocc",
				"energy": -0.01794,
				"method": "rhf"
			},
			{
				"type": "unocc",
				"energy": -0.01367,
				"method": "rhf"
			},
			{
				"type": "unocc",
				"energy": 0.00094,
				"method": "rhf"
			},
			{
				"type": "unocc",
				"energy": 0.00736,
				"method": "rhf"
			}
		],
		"cosmo_sigma_profile": { 
			"-0.025": 0.0,
			"-0.024": 0.0,
			"-0.023": 0.0,
			"-0.022": 0.0,
			"-0.021": 0.0,
			"-0.02": 0.0,
			"-0.019": 0.0,
			"-0.018": 0.0,
			"-0.017": 0.0,
			"-0.016": 0.246488405888,
			"-0.015": 1.70895683031,
			"-0.014": 2.97373638785,
			"-0.013": 2.8466754086,
			"-0.012": 2.74477244821,
			"-0.011": 2.73013471868,
			"-0.01": 1.80619437043,
			"-0.009": 2.92610849918,
			"-0.008": 4.17255293218,
			"-0.007": 6.14398470299,
			"-0.006": 6.66363099367,
			"-0.005": 7.02155983162,
			"-0.004": 8.35053164437,
			"-0.003": 11.0040700402,
			"-0.002": 10.9497840401,
			"-0.001": 22.123408094,
			"0.0": 25.1528446343,
			"0.001": 26.9281145983,
			"0.002": 21.4944700835,
			"0.003": 21.1692217978,
			"0.004": 18.0116087034,
			"0.005": 6.11798849752,
			"0.006": 2.9720035464,
			"0.007": 2.15482294249,
			"0.008": 2.98619431644,
			"0.009": 2.63491787515,
			"0.01": 2.68577315093,
			"0.011": 2.94632961151,
			"0.012": 3.10708650232,
			"0.013": 2.45773785415,
			"0.014": 1.13251379827,
			"0.015": 0.727790374194,
			"0.016": 0.0105164722347,
			"0.017": 0.0,
			"0.018": 0.0,
			"0.019": 0.0,
			"0.02": 0.0,
			"0.021": 0.0,
			"0.022": 0.0,
			"0.023": 0.0,
			"0.024": 0.0,
			"0.025": 0.0
		}
	}
}
