{
	 "smiles": "COC(=O)C1CC2=C(CC1C(=O)OC)C1=C(CC(C(C1)C(=O)OC)C(=O)OC)C1=C2CC(C(C1)C(=O)OC)C(=O)OC", 
	 "Tm": 535.15, 
	 "num_atms": 78, 
	 "gaussian": { 
		 "optdone": 1, 
		 "sigma_profile": "yes", 
		 "theory": "DFT", 
		 "functional": "B3LYP", 
		 "basiset": "6-31G**", 
		 "properties": { 
			 "R2extent": 25496.0805, 
			 "electric_dipole_moment_norm": 5.46722818437, 
			 "electric_quadrupole_moment_norm": 22.7811154771, 
			 "total_energy": -2067.65653255, 
			 "HOMO_LUMO_gap": 0.21454, 
			 "cosmo_polarized_energy": -31.56, 
			 "cosmo_cavitation_energy": 78.42, 
			 "cosmo_dispersion_energy": -48.08, 
			 "cosmo_repulsion_energy": 3.7, 
			 "cosmo_total_nonelectrostatic_energy": 34.05, 
			 "SMD_solvation_energy": 20.18 
		},
		"coords": [
			{
				"x": 5.2375074254,
				"y": -2.5666874803,
				"z": -4.3524208079,
				"element": "C" 
			},
			{
				"x": 4.3293631076,
				"y": -1.9468983093,
				"z": -3.428559558,
				"element": "O" 
			},
			{
				"x": 3.4115473169,
				"y": -2.7679209955,
				"z": -2.8754635959,
				"element": "C" 
			},
			{
				"x": 3.3421235657,
				"y": -3.9517784252,
				"z": -3.138221484,
				"element": "O" 
			},
			{
				"x": 2.5102745672,
				"y": -2.0059160943,
				"z": -1.9125403161,
				"element": "C" 
			},
			{
				"x": 1.7866083747,
				"y": -0.8420636059,
				"z": -2.6486877054,
				"element": "C" 
			},
			{
				"x": 0.7660426025,
				"y": -0.1855266856,
				"z": -1.7449175788,
				"element": "C" 
			},
			{
				"x": -0.1237407101,
				"y": -1.0465018386,
				"z": -1.0788166964,
				"element": "C" 
			},
			{
				"x": 0.0522168282,
				"y": -2.5191027202,
				"z": -1.3821592329,
				"element": "C" 
			},
			{
				"x": 1.5280953602,
				"y": -2.9580188936,
				"z": -1.1951049136,
				"element": "C" 
			},
			{
				"x": 1.8918683603,
				"y": -3.1075014938,
				"z": 0.2798799341,
				"element": "C" 
			},
			{
				"x": 2.8660645253,
				"y": -2.6373981242,
				"z": 0.8290590167,
				"element": "O" 
			},
			{
				"x": 0.9928378313,
				"y": -3.8858695259,
				"z": 0.9262638002,
				"element": "O" 
			},
			{
				"x": 1.2781072737,
				"y": -4.1402759033,
				"z": 2.3112062126,
				"element": "C" 
			},
			{
				"x": -1.0975840105,
				"y": -0.5466922572,
				"z": -0.1932316756,
				"element": "C" 
			},
			{
				"x": -1.1906080973,
				"y": 0.8451625717,
				"z": 0.0114444564,
				"element": "C" 
			},
			{
				"x": -2.2453731457,
				"y": 1.4321176297,
				"z": 0.9393229484,
				"element": "C" 
			},
			{
				"x": -3.4093901921,
				"y": 0.4771361438,
				"z": 1.2542838579,
				"element": "C" 
			},
			{
				"x": -2.8453359751,
				"y": -0.8949452402,
				"z": 1.6519870329,
				"element": "C" 
			},
			{
				"x": -2.0291883459,
				"y": -1.5203065489,
				"z": 0.5135869079,
				"element": "C" 
			},
			{
				"x": -3.8794970749,
				"y": -1.8839048765,
				"z": 2.1753995626,
				"element": "C" 
			},
			{
				"x": -3.8270820173,
				"y": -3.084868493,
				"z": 2.0293121383,
				"element": "O" 
			},
			{
				"x": -4.8390876604,
				"y": -1.2658841305,
				"z": 2.903386921,
				"element": "O" 
			},
			{
				"x": -5.8463456647,
				"y": -2.134443733,
				"z": 3.446125482,
				"element": "C" 
			},
			{
				"x": -4.4279801078,
				"y": 0.3516155875,
				"z": 0.1249840566,
				"element": "C" 
			},
			{
				"x": -4.9438257735,
				"y": -0.6852995551,
				"z": -0.2388933916,
				"element": "O" 
			},
			{
				"x": -4.7457340017,
				"y": 1.5540745723,
				"z": -0.399819131,
				"element": "O" 
			},
			{
				"x": -5.7396852004,
				"y": 1.5301306411,
				"z": -1.4388160215,
				"element": "C" 
			},
			{
				"x": -0.2853024113,
				"y": 1.7016963821,
				"z": -0.6418325653,
				"element": "C" 
			},
			{
				"x": 0.6791605242,
				"y": 1.1970906264,
				"z": -1.5311735061,
				"element": "C" 
			},
			{
				"x": 1.5566288206,
				"y": 2.2299226742,
				"z": -2.2031699865,
				"element": "C" 
			},
			{
				"x": 2.2128511764,
				"y": 3.1783828414,
				"z": -1.1773050459,
				"element": "C" 
			},
			{
				"x": 1.2217318736,
				"y": 3.6297633826,
				"z": -0.0714791938,
				"element": "C" 
			},
			{
				"x": -0.2370356224,
				"y": 3.1976769017,
				"z": -0.403002571,
				"element": "C" 
			},
			{
				"x": 1.2765651627,
				"y": 5.1352322398,
				"z": 0.1443794567,
				"element": "C" 
			},
			{
				"x": 1.7033320039,
				"y": 5.9542018728,
				"z": -0.6424454223,
				"element": "O" 
			},
			{
				"x": 0.7375912508,
				"y": 5.4672988468,
				"z": 1.3382062967,
				"element": "O" 
			},
			{
				"x": 0.6950531808,
				"y": 6.8751354344,
				"z": 1.6250381933,
				"element": "C" 
			},
			{
				"x": 3.4806118736,
				"y": 2.5479731495,
				"z": -0.6115716013,
				"element": "C" 
			},
			{
				"x": 4.0726448761,
				"y": 1.6061527897,
				"z": -1.095344898,
				"element": "O" 
			},
			{
				"x": 3.9112692439,
				"y": 3.2003104377,
				"z": 0.4916446895,
				"element": "O" 
			},
			{
				"x": 5.1306914111,
				"y": 2.6995272787,
				"z": 1.0668465881,
				"element": "C" 
			},
			{
				"x": 4.6947632084,
				"y": -3.0018487265,
				"z": -5.1955883997,
				"element": "H" 
			},
			{
				"x": 5.8994462509,
				"y": -1.770387604,
				"z": -4.6925793652,
				"element": "H" 
			},
			{
				"x": 5.8095830631,
				"y": -3.3559890287,
				"z": -3.8583040918,
				"element": "H" 
			},
			{
				"x": 3.1691207399,
				"y": -1.5501384378,
				"z": -1.1660442351,
				"element": "H" 
			},
			{
				"x": 2.5425426472,
				"y": -0.1395751536,
				"z": -2.9941544923,
				"element": "H" 
			},
			{
				"x": 1.2842692243,
				"y": -1.2391390437,
				"z": -3.5432548596,
				"element": "H" 
			},
			{
				"x": -0.2154727119,
				"y": -2.7057186041,
				"z": -2.4311561168,
				"element": "H" 
			},
			{
				"x": -0.5955298291,
				"y": -3.1560691374,
				"z": -0.7836273849,
				"element": "H" 
			},
			{
				"x": 1.6383212874,
				"y": -3.9603429994,
				"z": -1.6257058905,
				"element": "H" 
			},
			{
				"x": 1.3354221555,
				"y": -3.2040296991,
				"z": 2.8718591021,
				"element": "H" 
			},
			{
				"x": 0.4539646305,
				"y": -4.7548904083,
				"z": 2.6728666948,
				"element": "H" 
			},
			{
				"x": 2.2281917198,
				"y": -4.6705357954,
				"z": 2.4155581163,
				"element": "H" 
			},
			{
				"x": -1.780740599,
				"y": 1.718725826,
				"z": 1.8936385603,
				"element": "H" 
			},
			{
				"x": -2.6567533305,
				"y": 2.3497140122,
				"z": 0.51413537,
				"element": "H" 
			},
			{
				"x": -3.9729289234,
				"y": 0.8947970935,
				"z": 2.0967467159,
				"element": "H" 
			},
			{
				"x": -2.1746417015,
				"y": -0.7066418094,
				"z": 2.5042324599,
				"element": "H" 
			},
			{
				"x": -1.4571052605,
				"y": -2.3567985961,
				"z": 0.9227542418,
				"element": "H" 
			},
			{
				"x": -2.7267452354,
				"y": -1.9622339032,
				"z": -0.2061510876,
				"element": "H" 
			},
			{
				"x": -5.398052455,
				"y": -2.8809713568,
				"z": 4.1065119241,
				"element": "H" 
			},
			{
				"x": -6.5251543741,
				"y": -1.4881963636,
				"z": 4.0030123144,
				"element": "H" 
			},
			{
				"x": -6.3785628274,
				"y": -2.6484080017,
				"z": 2.6420645831,
				"element": "H" 
			},
			{
				"x": -6.6788182897,
				"y": 1.1173658996,
				"z": -1.0622808609,
				"element": "H" 
			},
			{
				"x": -5.8713196376,
				"y": 2.5681122088,
				"z": -1.7438071957,
				"element": "H" 
			},
			{
				"x": -5.3997672092,
				"y": 0.9219938539,
				"z": -2.2804526019,
				"element": "H" 
			},
			{
				"x": 2.3389296489,
				"y": 1.7798261118,
				"z": -2.811221139,
				"element": "H" 
			},
			{
				"x": 0.9404761629,
				"y": 2.8384460423,
				"z": -2.8782935801,
				"element": "H" 
			},
			{
				"x": 2.5446658894,
				"y": 4.0850800677,
				"z": -1.6998394164,
				"element": "H" 
			},
			{
				"x": 1.4787358603,
				"y": 3.1644645329,
				"z": 0.8832171805,
				"element": "H" 
			},
			{
				"x": -0.5749010345,
				"y": 3.7444057665,
				"z": -1.2953485165,
				"element": "H" 
			},
			{
				"x": -0.8819630142,
				"y": 3.5075231859,
				"z": 0.4192015272,
				"element": "H" 
			},
			{
				"x": 0.2425910934,
				"y": 6.9612176017,
				"z": 2.6128971218,
				"element": "H" 
			},
			{
				"x": 0.0941122459,
				"y": 7.4029664458,
				"z": 0.880160286,
				"element": "H" 
			},
			{
				"x": 1.7031127086,
				"y": 7.296870728,
				"z": 1.6263630634,
				"element": "H" 
			},
			{
				"x": 5.0168923817,
				"y": 1.6519817159,
				"z": 1.3556152192,
				"element": "H" 
			},
			{
				"x": 5.9530481066,
				"y": 2.7807306165,
				"z": 0.3517857696,
				"element": "H" 
			},
			{
				"x": 5.3206748828,
				"y": 3.3218958861,
				"z": 1.9412083304,
				"element": "H" 
			}
		],
		 "valence_orbital": [ 
			{
				"type": "occ",
				"energy": -0.26841,
				"method": "rhf"
			},
			{
				"type": "occ",
				"energy": -0.2643,
				"method": "rhf"
			},
			{
				"type": "occ",
				"energy": -0.26151,
				"method": "rhf"
			},
			{
				"type": "occ",
				"energy": -0.22438,
				"method": "rhf"
			},
			{
				"type": "occ",
				"energy": -0.22185,
				"method": "rhf"
			},
			{
				"type": "unocc",
				"energy": -0.00731,
				"method": "rhf"
			},
			{
				"type": "unocc",
				"energy": 0.00136,
				"method": "rhf"
			},
			{
				"type": "unocc",
				"energy": 0.00665,
				"method": "rhf"
			},
			{
				"type": "unocc",
				"energy": 0.01138,
				"method": "rhf"
			},
			{
				"type": "unocc",
				"energy": 0.01438,
				"method": "rhf"
			}
		],
		"cosmo_sigma_profile": { 
			"-0.025": 0.0,
			"-0.024": 0.0,
			"-0.023": 0.0,
			"-0.022": 0.0,
			"-0.021": 0.0,
			"-0.02": 0.0,
			"-0.019": 0.0,
			"-0.018": 0.0,
			"-0.017": 0.0,
			"-0.016": 0.0,
			"-0.015": 0.0,
			"-0.014": 0.0,
			"-0.013": 0.0,
			"-0.012": 0.0,
			"-0.011": 0.0,
			"-0.01": 0.0,
			"-0.009": 0.0,
			"-0.008": 0.0,
			"-0.007": 5.94895462174,
			"-0.006": 36.445238151,
			"-0.005": 63.0330004444,
			"-0.004": 74.9397829102,
			"-0.003": 80.0422959651,
			"-0.002": 51.7287843801,
			"-0.001": 43.0374341918,
			"0.0": 31.4264704248,
			"0.001": 29.6573754181,
			"0.002": 27.3662043381,
			"0.003": 24.8087338852,
			"0.004": 27.6913303533,
			"0.005": 22.6503700051,
			"0.006": 16.7851674127,
			"0.007": 12.4519832759,
			"0.008": 12.0027637331,
			"0.009": 10.4764357116,
			"0.01": 10.5723540096,
			"0.011": 17.7534430883,
			"0.012": 16.0758284864,
			"0.013": 0.828274697427,
			"0.014": 0.0,
			"0.015": 0.0,
			"0.016": 0.0,
			"0.017": 0.0,
			"0.018": 0.0,
			"0.019": 0.0,
			"0.02": 0.0,
			"0.021": 0.0,
			"0.022": 0.0,
			"0.023": 0.0,
			"0.024": 0.0,
			"0.025": 0.0
		}
	}
}
