{
	 "smiles": "OC(=O)C1=C(Cl)N=C(Cl)C=C1", 
	 "Tm": 421.65, 
	 "num_atms": 14, 
	 "gaussian": { 
		 "optdone": 1, 
		 "sigma_profile": "yes", 
		 "theory": "DFT", 
		 "functional": "B3LYP", 
		 "basiset": "6-31G**", 
		 "properties": { 
			 "R2extent": 2675.557, 
			 "electric_dipole_moment_norm": 4.28996681689, 
			 "electric_quadrupole_moment_norm": 1.62075064708, 
			 "total_energy": -1356.03402867, 
			 "HOMO_LUMO_gap": 0.19385, 
			 "cosmo_polarized_energy": -11.93, 
			 "cosmo_cavitation_energy": 23.01, 
			 "cosmo_dispersion_energy": -17.58, 
			 "cosmo_repulsion_energy": 1.42, 
			 "cosmo_total_nonelectrostatic_energy": 6.86, 
			 "SMD_solvation_energy": 3.4 
		},
		"coords": [
			{
				"x": 2.4218359735,
				"y": -0.6400995123,
				"z": 0.8540245414,
				"element": "O" 
			},
			{
				"x": 1.7349732635,
				"y": -0.5604227759,
				"z": -0.3177093291,
				"element": "C" 
			},
			{
				"x": 2.2613698357,
				"y": -0.7901938409,
				"z": -1.3828256901,
				"element": "O" 
			},
			{
				"x": 0.3135271688,
				"y": -0.1674490659,
				"z": -0.0880768394,
				"element": "C" 
			},
			{
				"x": -0.6419798932,
				"y": -0.0038344141,
				"z": -1.1143704019,
				"element": "C" 
			},
			{
				"x": -0.2628033275,
				"y": -0.2464829923,
				"z": -2.7979510937,
				"element": "Cl" 
			},
			{
				"x": -1.901733526,
				"y": 0.3464963899,
				"z": -0.8863987781,
				"element": "N" 
			},
			{
				"x": -2.2890143094,
				"y": 0.5541550682,
				"z": 0.3585662132,
				"element": "C" 
			},
			{
				"x": -3.9626297825,
				"y": 1.0139702736,
				"z": 0.5952388432,
				"element": "Cl" 
			},
			{
				"x": -1.4544086159,
				"y": 0.4296163566,
				"z": 1.4705705556,
				"element": "C" 
			},
			{
				"x": -0.1402199279,
				"y": 0.0633267977,
				"z": 1.2225988523,
				"element": "C" 
			},
			{
				"x": 3.3251892004,
				"y": -0.8985053708,
				"z": 0.6082802098,
				"element": "H" 
			},
			{
				"x": -1.8218935301,
				"y": 0.6114764339,
				"z": 2.4725824659,
				"element": "H" 
			},
			{
				"x": 0.5577874707,
				"y": -0.0501533477,
				"z": 2.0428704507,
				"element": "H" 
			}
		],
		 "valence_orbital": [ 
			{
				"type": "occ",
				"energy": -0.3278,
				"method": "rhf"
			},
			{
				"type": "occ",
				"energy": -0.30983,
				"method": "rhf"
			},
			{
				"type": "occ",
				"energy": -0.30204,
				"method": "rhf"
			},
			{
				"type": "occ",
				"energy": -0.28459,
				"method": "rhf"
			},
			{
				"type": "occ",
				"energy": -0.27364,
				"method": "rhf"
			},
			{
				"type": "unocc",
				"energy": -0.07979,
				"method": "rhf"
			},
			{
				"type": "unocc",
				"energy": -0.05469,
				"method": "rhf"
			},
			{
				"type": "unocc",
				"energy": 0.01104,
				"method": "rhf"
			},
			{
				"type": "unocc",
				"energy": 0.02528,
				"method": "rhf"
			},
			{
				"type": "unocc",
				"energy": 0.03792,
				"method": "rhf"
			}
		],
		"cosmo_sigma_profile": { 
			"-0.025": 0.0,
			"-0.024": 0.0,
			"-0.023": 0.0,
			"-0.022": 0.0,
			"-0.021": 0.0,
			"-0.02": 0.0,
			"-0.019": 0.41847072245,
			"-0.018": 0.581436588774,
			"-0.017": 1.44047942459,
			"-0.016": 0.675707299723,
			"-0.015": 0.383724254199,
			"-0.014": 0.460453785165,
			"-0.013": 0.938770076201,
			"-0.012": 1.02984691912,
			"-0.011": 0.872016612159,
			"-0.01": 0.898108489839,
			"-0.009": 3.65140016991,
			"-0.008": 4.39446814622,
			"-0.007": 4.4280089658,
			"-0.006": 3.27220007909,
			"-0.005": 5.23055244348,
			"-0.004": 10.9718608592,
			"-0.003": 17.7243788001,
			"-0.002": 20.0398995683,
			"-0.001": 14.5883548686,
			"0.0": 11.0803731695,
			"0.001": 11.3660824326,
			"0.002": 11.8473393668,
			"0.003": 18.5565480322,
			"0.004": 12.8111813359,
			"0.005": 5.80863544723,
			"0.006": 5.50277507699,
			"0.007": 3.63373394534,
			"0.008": 3.0380967028,
			"0.009": 3.71140907602,
			"0.01": 3.68907373538,
			"0.011": 6.24868468976,
			"0.012": 1.00909939453,
			"0.013": 0.0,
			"0.014": 0.0,
			"0.015": 0.0,
			"0.016": 0.0,
			"0.017": 0.0,
			"0.018": 0.0,
			"0.019": 0.0,
			"0.02": 0.0,
			"0.021": 0.0,
			"0.022": 0.0,
			"0.023": 0.0,
			"0.024": 0.0,
			"0.025": 0.0
		}
	}
}
