{
	 "smiles": "[O-][N+](=O)C1=CC(=CC(=C1Cl)[N+]([O-])=O)C#N", 
	 "Tm": 414.15, 
	 "num_atms": 17, 
	 "gaussian": { 
		 "optdone": 1, 
		 "sigma_profile": "yes", 
		 "theory": "DFT", 
		 "functional": "B3LYP", 
		 "basiset": "6-31G**", 
		 "properties": { 
			 "R2extent": 3503.0261, 
			 "electric_dipole_moment_norm": 0.0733357348092, 
			 "electric_quadrupole_moment_norm": 10.2322949738, 
			 "total_energy": -1193.03200933, 
			 "HOMO_LUMO_gap": 0.18027, 
			 "cosmo_polarized_energy": -15.77, 
			 "cosmo_cavitation_energy": 27.1, 
			 "cosmo_dispersion_energy": -18.97, 
			 "cosmo_repulsion_energy": 1.48, 
			 "cosmo_total_nonelectrostatic_energy": 9.61, 
			 "SMD_solvation_energy": 10.52 
		},
		"coords": [
			{
				"x": 0.1195531785,
				"y": -3.2163580803,
				"z": -1.6208069459,
				"element": "O" 
			},
			{
				"x": 0.9019734996,
				"y": -2.5365911795,
				"z": -0.9711671318,
				"element": "N" 
			},
			{
				"x": 2.0977761707,
				"y": -2.7644261627,
				"z": -0.8080010898,
				"element": "O" 
			},
			{
				"x": 0.3626909355,
				"y": -1.3509250889,
				"z": -0.2654650171,
				"element": "C" 
			},
			{
				"x": 0.874388374,
				"y": -1.1287136702,
				"z": 1.0070561273,
				"element": "C" 
			},
			{
				"x": 0.412448384,
				"y": -0.0473371193,
				"z": 1.7655176468,
				"element": "C" 
			},
			{
				"x": -0.544362352,
				"y": 0.8138044922,
				"z": 1.2168873525,
				"element": "C" 
			},
			{
				"x": -1.0427243693,
				"y": 0.57335291,
				"z": -0.0575927593,
				"element": "C" 
			},
			{
				"x": -0.6047480952,
				"y": -0.5084716219,
				"z": -0.8434355799,
				"element": "C" 
			},
			{
				"x": -1.1225674575,
				"y": -0.7101744694,
				"z": -2.4749901318,
				"element": "Cl" 
			},
			{
				"x": -2.0687333665,
				"y": 1.5309345919,
				"z": -0.5318829878,
				"element": "N" 
			},
			{
				"x": -3.0203802352,
				"y": 1.082031268,
				"z": -1.1557078353,
				"element": "O" 
			},
			{
				"x": -1.8967436706,
				"y": 2.7058750288,
				"z": -0.218195004,
				"element": "O" 
			},
			{
				"x": 0.9226814931,
				"y": 0.1827634897,
				"z": 3.0849810251,
				"element": "C" 
			},
			{
				"x": 1.3347699841,
				"y": 0.3680084227,
				"z": 4.1558485801,
				"element": "N" 
			},
			{
				"x": 1.6351236329,
				"y": -1.7979031698,
				"z": 1.3897295008,
				"element": "H" 
			},
			{
				"x": -0.9024461061,
				"y": 1.6765303586,
				"z": 1.7650242504,
				"element": "H" 
			}
		],
		 "valence_orbital": [ 
			{
				"type": "occ",
				"energy": -0.34157,
				"method": "rhf"
			},
			{
				"type": "occ",
				"energy": -0.3307,
				"method": "rhf"
			},
			{
				"type": "occ",
				"energy": -0.32941,
				"method": "rhf"
			},
			{
				"type": "occ",
				"energy": -0.313,
				"method": "rhf"
			},
			{
				"type": "occ",
				"energy": -0.30656,
				"method": "rhf"
			},
			{
				"type": "unocc",
				"energy": -0.12629,
				"method": "rhf"
			},
			{
				"type": "unocc",
				"energy": -0.12621,
				"method": "rhf"
			},
			{
				"type": "unocc",
				"energy": -0.08997,
				"method": "rhf"
			},
			{
				"type": "unocc",
				"energy": -0.05477,
				"method": "rhf"
			},
			{
				"type": "unocc",
				"energy": -0.02713,
				"method": "rhf"
			}
		],
		"cosmo_sigma_profile": { 
			"-0.025": 0.0,
			"-0.024": 0.0,
			"-0.023": 0.0,
			"-0.022": 0.0,
			"-0.021": 0.0,
			"-0.02": 0.0,
			"-0.019": 0.0,
			"-0.018": 0.0,
			"-0.017": 0.0,
			"-0.016": 0.0,
			"-0.015": 0.0,
			"-0.014": 0.0,
			"-0.013": 0.0,
			"-0.012": 1.5568012493,
			"-0.011": 5.08577016273,
			"-0.01": 6.6586470364,
			"-0.009": 5.436431175,
			"-0.008": 5.72572824169,
			"-0.007": 9.29552074973,
			"-0.006": 13.4826870622,
			"-0.005": 18.0461087262,
			"-0.004": 13.2289950756,
			"-0.003": 9.49108888678,
			"-0.002": 8.34407259878,
			"-0.001": 8.43651881783,
			"0.0": 9.44922708819,
			"0.001": 10.2718248728,
			"0.002": 8.88502349978,
			"0.003": 9.54038204556,
			"0.004": 9.04950806659,
			"0.005": 12.2279291212,
			"0.006": 25.312753045,
			"0.007": 14.3128094894,
			"0.008": 9.72304025978,
			"0.009": 3.64501107923,
			"0.01": 2.56970796344,
			"0.011": 2.32829341859,
			"0.012": 0.728786819301,
			"0.013": 0.0,
			"0.014": 0.0,
			"0.015": 0.0,
			"0.016": 0.0,
			"0.017": 0.0,
			"0.018": 0.0,
			"0.019": 0.0,
			"0.02": 0.0,
			"0.021": 0.0,
			"0.022": 0.0,
			"0.023": 0.0,
			"0.024": 0.0,
			"0.025": 0.0
		}
	}
}
