{
	 "smiles": "SC1=NN=C(S1)C1CC1", 
	 "Tm": 382.15, 
	 "num_atms": 15, 
	 "gaussian": { 
		 "optdone": 1, 
		 "sigma_profile": "yes", 
		 "theory": "DFT", 
		 "functional": "B3LYP", 
		 "basiset": "6-31G**", 
		 "properties": { 
			 "R2extent": 3919.1458, 
			 "electric_dipole_moment_norm": 3.81781539758, 
			 "electric_quadrupole_moment_norm": 11.6246155687, 
			 "total_energy": -1099.95544189, 
			 "HOMO_LUMO_gap": 0.20014, 
			 "cosmo_polarized_energy": -11.3, 
			 "cosmo_cavitation_energy": 22.56, 
			 "cosmo_dispersion_energy": -17.8, 
			 "cosmo_repulsion_energy": 1.37, 
			 "cosmo_total_nonelectrostatic_energy": 6.13, 
			 "SMD_solvation_energy": 0.97 
		},
		"coords": [
			{
				"x": -3.221891652,
				"y": -2.6427324508,
				"z": -3.6444169626,
				"element": "S" 
			},
			{
				"x": -2.500376515,
				"y": -1.4742876132,
				"z": -2.5292963093,
				"element": "C" 
			},
			{
				"x": -1.8534795386,
				"y": -1.8752553018,
				"z": -1.4764272508,
				"element": "N" 
			},
			{
				"x": -1.3570748318,
				"y": -0.8421468132,
				"z": -0.7294930672,
				"element": "N" 
			},
			{
				"x": -1.6260524522,
				"y": 0.3371584231,
				"z": -1.2112411617,
				"element": "C" 
			},
			{
				"x": -2.5616204045,
				"y": 0.2761928888,
				"z": -2.7065762521,
				"element": "S" 
			},
			{
				"x": -1.2061695317,
				"y": 1.6090387724,
				"z": -0.5905841469,
				"element": "C" 
			},
			{
				"x": -1.1494107112,
				"y": 1.7030416134,
				"z": 0.927003127,
				"element": "C" 
			},
			{
				"x": 0.1251003161,
				"y": 1.6643300111,
				"z": 0.1436051813,
				"element": "C" 
			},
			{
				"x": -3.7598497934,
				"y": -1.731035167,
				"z": -4.4771297882,
				"element": "H" 
			},
			{
				"x": -1.5094202769,
				"y": 2.5018056928,
				"z": -1.1276758294,
				"element": "H" 
			},
			{
				"x": -1.4623339388,
				"y": 2.6402181217,
				"z": 1.3769549734,
				"element": "H" 
			},
			{
				"x": -1.4331124472,
				"y": 0.8078717011,
				"z": 1.4701642113,
				"element": "H" 
			},
			{
				"x": 0.6978399668,
				"y": 0.7431872748,
				"z": 0.1604265896,
				"element": "H" 
			},
			{
				"x": 0.7085518104,
				"y": 2.5743128468,
				"z": 0.0426866854,
				"element": "H" 
			}
		],
		 "valence_orbital": [ 
			{
				"type": "occ",
				"energy": -0.30874,
				"method": "rhf"
			},
			{
				"type": "occ",
				"energy": -0.30621,
				"method": "rhf"
			},
			{
				"type": "occ",
				"energy": -0.28937,
				"method": "rhf"
			},
			{
				"type": "occ",
				"energy": -0.26624,
				"method": "rhf"
			},
			{
				"type": "occ",
				"energy": -0.23641,
				"method": "rhf"
			},
			{
				"type": "unocc",
				"energy": -0.03627,
				"method": "rhf"
			},
			{
				"type": "unocc",
				"energy": -0.02839,
				"method": "rhf"
			},
			{
				"type": "unocc",
				"energy": 0.01919,
				"method": "rhf"
			},
			{
				"type": "unocc",
				"energy": 0.02216,
				"method": "rhf"
			},
			{
				"type": "unocc",
				"energy": 0.05412,
				"method": "rhf"
			}
		],
		"cosmo_sigma_profile": { 
			"-0.025": 0.0,
			"-0.024": 0.0,
			"-0.023": 0.0,
			"-0.022": 0.0,
			"-0.021": 0.0,
			"-0.02": 0.0,
			"-0.019": 0.0,
			"-0.018": 0.0,
			"-0.017": 0.0,
			"-0.016": 0.0,
			"-0.015": 0.0,
			"-0.014": 0.0,
			"-0.013": 1.14274616345,
			"-0.012": 3.11565057912,
			"-0.011": 1.88103274831,
			"-0.01": 1.62318471624,
			"-0.009": 1.39511799115,
			"-0.008": 3.07357134135,
			"-0.007": 4.11488640697,
			"-0.006": 6.5150154489,
			"-0.005": 11.0601177705,
			"-0.004": 10.3028224941,
			"-0.003": 11.6207652895,
			"-0.002": 11.9388303397,
			"-0.001": 18.3318875418,
			"0.0": 18.1274190661,
			"0.001": 17.1938178492,
			"0.002": 15.9272737393,
			"0.003": 10.765346736,
			"0.004": 8.2433791607,
			"0.005": 5.6679436639,
			"0.006": 4.51865152749,
			"0.007": 2.84597719768,
			"0.008": 2.04545766061,
			"0.009": 2.16363200837,
			"0.01": 1.99030427046,
			"0.011": 3.42532454181,
			"0.012": 2.74176437063,
			"0.013": 2.19205684643,
			"0.014": 1.30346887347,
			"0.015": 0.0669093767166,
			"0.016": 0.0,
			"0.017": 0.0,
			"0.018": 0.0,
			"0.019": 0.0,
			"0.02": 0.0,
			"0.021": 0.0,
			"0.022": 0.0,
			"0.023": 0.0,
			"0.024": 0.0,
			"0.025": 0.0
		}
	}
}
