{
	 "smiles": "CC(Cl)C1=CN(N=N1)C1=CC=CC=C1", 
	 "Tm": 343.15, 
	 "num_atms": 24, 
	 "gaussian": { 
		 "optdone": 1, 
		 "sigma_profile": "yes", 
		 "theory": "DFT", 
		 "functional": "B3LYP", 
		 "basiset": "6-31G**", 
		 "properties": { 
			 "R2extent": 5043.7656, 
			 "electric_dipole_moment_norm": 4.67023212485, 
			 "electric_quadrupole_moment_norm": 17.522416738, 
			 "total_energy": -1011.50667108, 
			 "HOMO_LUMO_gap": 0.20266, 
			 "cosmo_polarized_energy": -12.77, 
			 "cosmo_cavitation_energy": 30.24, 
			 "cosmo_dispersion_energy": -21.93, 
			 "cosmo_repulsion_energy": 1.73, 
			 "cosmo_total_nonelectrostatic_energy": 10.05, 
			 "SMD_solvation_energy": 3.56 
		},
		"coords": [
			{
				"x": -0.9479630696,
				"y": -0.6345544677,
				"z": 4.1669451019,
				"element": "C" 
			},
			{
				"x": -0.0175925529,
				"y": -1.7395950714,
				"z": 3.6775352785,
				"element": "C" 
			},
			{
				"x": -0.9695392775,
				"y": -3.324573712,
				"z": 3.5930400477,
				"element": "Cl" 
			},
			{
				"x": 0.6373311019,
				"y": -1.4583034076,
				"z": 2.3676106182,
				"element": "C" 
			},
			{
				"x": 0.0992887064,
				"y": -1.1390402796,
				"z": 1.1387308795,
				"element": "C" 
			},
			{
				"x": 1.1779002673,
				"y": -0.9631177778,
				"z": 0.3297418214,
				"element": "N" 
			},
			{
				"x": 2.3302941801,
				"y": -1.1582140011,
				"z": 1.0290769738,
				"element": "N" 
			},
			{
				"x": 1.9996819554,
				"y": -1.4576591684,
				"z": 2.2498840295,
				"element": "N" 
			},
			{
				"x": 1.2190327125,
				"y": -0.6249986162,
				"z": -1.0528323774,
				"element": "C" 
			},
			{
				"x": 2.3333458384,
				"y": 0.0539787498,
				"z": -1.5553301666,
				"element": "C" 
			},
			{
				"x": 2.3737499394,
				"y": 0.3858240117,
				"z": -2.9079221638,
				"element": "C" 
			},
			{
				"x": 1.3105929163,
				"y": 0.0567478916,
				"z": -3.7521586507,
				"element": "C" 
			},
			{
				"x": 0.2042161095,
				"y": -0.6220188987,
				"z": -3.2391812097,
				"element": "C" 
			},
			{
				"x": 0.1559944933,
				"y": -0.9740260593,
				"z": -1.890586263,
				"element": "C" 
			},
			{
				"x": -1.3812699475,
				"y": -0.8938512712,
				"z": 5.1355557932,
				"element": "H" 
			},
			{
				"x": -1.7630768351,
				"y": -0.4610484025,
				"z": 3.4589151564,
				"element": "H" 
			},
			{
				"x": -0.3778936129,
				"y": 0.2946290226,
				"z": 4.2734956451,
				"element": "H" 
			},
			{
				"x": 0.7708102973,
				"y": -1.9370695227,
				"z": 4.4045720509,
				"element": "H" 
			},
			{
				"x": -0.9157322313,
				"y": -1.0202756114,
				"z": 0.7974180161,
				"element": "H" 
			},
			{
				"x": 3.1464966688,
				"y": 0.3065653826,
				"z": -0.8857515083,
				"element": "H" 
			},
			{
				"x": 3.238631683,
				"y": 0.9117654094,
				"z": -3.300615473,
				"element": "H" 
			},
			{
				"x": 1.3461626059,
				"y": 0.3238223296,
				"z": -4.8038044538,
				"element": "H" 
			},
			{
				"x": -0.6213133815,
				"y": -0.8928018157,
				"z": -3.8902775926,
				"element": "H" 
			},
			{
				"x": -0.6883485673,
				"y": -1.5334847142,
				"z": -1.5017615533,
				"element": "H" 
			}
		],
		 "valence_orbital": [ 
			{
				"type": "occ",
				"energy": -0.29272,
				"method": "rhf"
			},
			{
				"type": "occ",
				"energy": -0.27655,
				"method": "rhf"
			},
			{
				"type": "occ",
				"energy": -0.27134,
				"method": "rhf"
			},
			{
				"type": "occ",
				"energy": -0.26721,
				"method": "rhf"
			},
			{
				"type": "occ",
				"energy": -0.24788,
				"method": "rhf"
			},
			{
				"type": "unocc",
				"energy": -0.04522,
				"method": "rhf"
			},
			{
				"type": "unocc",
				"energy": -0.02194,
				"method": "rhf"
			},
			{
				"type": "unocc",
				"energy": -0.00197,
				"method": "rhf"
			},
			{
				"type": "unocc",
				"energy": 0.01488,
				"method": "rhf"
			},
			{
				"type": "unocc",
				"energy": 0.06626,
				"method": "rhf"
			}
		],
		"cosmo_sigma_profile": { 
			"-0.025": 0.0,
			"-0.024": 0.0,
			"-0.023": 0.0,
			"-0.022": 0.0,
			"-0.021": 0.0,
			"-0.02": 0.0,
			"-0.019": 0.0,
			"-0.018": 0.0,
			"-0.017": 0.0,
			"-0.016": 0.0,
			"-0.015": 0.0,
			"-0.014": 0.0,
			"-0.013": 0.0,
			"-0.012": 0.0740952989947,
			"-0.011": 1.36894361829,
			"-0.01": 2.66696081247,
			"-0.009": 2.11153674764,
			"-0.008": 3.50008223549,
			"-0.007": 6.97537052544,
			"-0.006": 14.2916904167,
			"-0.005": 18.5302406089,
			"-0.004": 19.7665874139,
			"-0.003": 14.5928472533,
			"-0.002": 18.9915317127,
			"-0.001": 19.3846407811,
			"0.0": 15.9645274722,
			"0.001": 12.9951977132,
			"0.002": 15.8864902333,
			"0.003": 16.890792633,
			"0.004": 17.6699981637,
			"0.005": 8.26977814188,
			"0.006": 12.001225174,
			"0.007": 6.07084311322,
			"0.008": 2.19673942389,
			"0.009": 2.77024677234,
			"0.01": 3.14304291527,
			"0.011": 3.12779415073,
			"0.012": 2.13935826216,
			"0.013": 1.18652303255,
			"0.014": 0.92025929613,
			"0.015": 0.625764056239,
			"0.016": 0.0428798262423,
			"0.017": 0.0,
			"0.018": 0.0,
			"0.019": 0.0,
			"0.02": 0.0,
			"0.021": 0.0,
			"0.022": 0.0,
			"0.023": 0.0,
			"0.024": 0.0,
			"0.025": 0.0
		}
	}
}
