{
	 "smiles": "OC(=O)CC(O)(C1=NC=CN1)C(F)(F)F", 
	 "Tm": 482.15, 
	 "num_atms": 22, 
	 "gaussian": { 
		 "optdone": 1, 
		 "sigma_profile": "yes", 
		 "theory": "DFT", 
		 "functional": "B3LYP", 
		 "basiset": "6-31G**", 
		 "properties": { 
			 "R2extent": 3071.6067, 
			 "electric_dipole_moment_norm": 2.10701518742, 
			 "electric_quadrupole_moment_norm": 12.7208417874, 
			 "total_energy": -905.676707364, 
			 "HOMO_LUMO_gap": 0.21988, 
			 "cosmo_polarized_energy": -15.26, 
			 "cosmo_cavitation_energy": 27.61, 
			 "cosmo_dispersion_energy": -19.26, 
			 "cosmo_repulsion_energy": 1.46, 
			 "cosmo_total_nonelectrostatic_energy": 9.81, 
			 "SMD_solvation_energy": 5.92 
		},
		"coords": [
			{
				"x": 3.9313041377,
				"y": 0.2910755253,
				"z": 0.9602537717,
				"element": "O" 
			},
			{
				"x": 2.9788872397,
				"y": -0.6308483832,
				"z": 0.7661844026,
				"element": "C" 
			},
			{
				"x": 3.180313954,
				"y": -1.6534096388,
				"z": 0.1299789405,
				"element": "O" 
			},
			{
				"x": 1.6843171114,
				"y": -0.2805022001,
				"z": 1.4604954623,
				"element": "C" 
			},
			{
				"x": 0.4779820462,
				"y": -0.9737760612,
				"z": 0.7962398184,
				"element": "C" 
			},
			{
				"x": 0.6198722057,
				"y": -2.3805620036,
				"z": 0.728236023,
				"element": "O" 
			},
			{
				"x": 0.2421388045,
				"y": -0.3987830281,
				"z": -0.5814990553,
				"element": "C" 
			},
			{
				"x": 0.6874895277,
				"y": 0.7506102436,
				"z": -1.0497250605,
				"element": "N" 
			},
			{
				"x": 0.225547215,
				"y": 0.8179114227,
				"z": -2.3448085461,
				"element": "C" 
			},
			{
				"x": -0.5027545401,
				"y": -0.305262579,
				"z": -2.6570975344,
				"element": "C" 
			},
			{
				"x": -0.4843944117,
				"y": -1.0754969223,
				"z": -1.5168006024,
				"element": "N" 
			},
			{
				"x": -0.769077811,
				"y": -0.7544024695,
				"z": 1.6803774211,
				"element": "C" 
			},
			{
				"x": -1.0429947961,
				"y": 0.5589779405,
				"z": 1.8053854243,
				"element": "F" 
			},
			{
				"x": -1.850334173,
				"y": -1.3557406616,
				"z": 1.1473558619,
				"element": "F" 
			},
			{
				"x": -0.5893907124,
				"y": -1.2543375138,
				"z": 2.9175658032,
				"element": "F" 
			},
			{
				"x": 4.7296686097,
				"y": -0.029052519,
				"z": 0.5055985586,
				"element": "H" 
			},
			{
				"x": 1.7606936961,
				"y": -0.6206612597,
				"z": 2.4992426029,
				"element": "H" 
			},
			{
				"x": 1.5530121929,
				"y": 0.8017428184,
				"z": 1.4587309469,
				"element": "H" 
			},
			{
				"x": 1.5155128421,
				"y": -2.5278444523,
				"z": 0.3667581669,
				"element": "H" 
			},
			{
				"x": 0.4453889438,
				"y": 1.6652852014,
				"z": -2.9787856646,
				"element": "H" 
			},
			{
				"x": -1.0107840272,
				"y": -0.6179743306,
				"z": -3.5560790056,
				"element": "H" 
			},
			{
				"x": -0.8916980551,
				"y": -1.9875491291,
				"z": -1.3731077355,
				"element": "H" 
			}
		],
		 "valence_orbital": [ 
			{
				"type": "occ",
				"energy": -0.3003,
				"method": "rhf"
			},
			{
				"type": "occ",
				"energy": -0.29873,
				"method": "rhf"
			},
			{
				"type": "occ",
				"energy": -0.28666,
				"method": "rhf"
			},
			{
				"type": "occ",
				"energy": -0.27566,
				"method": "rhf"
			},
			{
				"type": "occ",
				"energy": -0.23162,
				"method": "rhf"
			},
			{
				"type": "unocc",
				"energy": -0.01174,
				"method": "rhf"
			},
			{
				"type": "unocc",
				"energy": 0.01364,
				"method": "rhf"
			},
			{
				"type": "unocc",
				"energy": 0.05952,
				"method": "rhf"
			},
			{
				"type": "unocc",
				"energy": 0.06494,
				"method": "rhf"
			},
			{
				"type": "unocc",
				"energy": 0.08181,
				"method": "rhf"
			}
		],
		"cosmo_sigma_profile": { 
			"-0.025": 0.0,
			"-0.024": 0.0,
			"-0.023": 0.0,
			"-0.022": 0.0,
			"-0.021": 0.0,
			"-0.02": 0.0417400926387,
			"-0.019": 0.741800901258,
			"-0.018": 0.842707905696,
			"-0.017": 1.01410137745,
			"-0.016": 2.01293188675,
			"-0.015": 1.53966658171,
			"-0.014": 1.3757673812,
			"-0.013": 1.17827463262,
			"-0.012": 1.9259538691,
			"-0.011": 1.42888763782,
			"-0.01": 1.6449501729,
			"-0.009": 4.13803168239,
			"-0.008": 6.40965076138,
			"-0.007": 7.82716145455,
			"-0.006": 7.74390603068,
			"-0.005": 8.54565026327,
			"-0.004": 11.2058616296,
			"-0.003": 8.66322799041,
			"-0.002": 8.55465457567,
			"-0.001": 11.6098062844,
			"0.0": 10.3524512521,
			"0.001": 15.3063324279,
			"0.002": 29.2133636606,
			"0.003": 20.1478920298,
			"0.004": 12.0755936899,
			"0.005": 10.8694906036,
			"0.006": 6.61750753948,
			"0.007": 5.50728293558,
			"0.008": 5.9031378158,
			"0.009": 4.55893891662,
			"0.01": 4.77712050312,
			"0.011": 2.70637919577,
			"0.012": 1.00227093831,
			"0.013": 0.775596244718,
			"0.014": 0.654194947606,
			"0.015": 0.619031402955,
			"0.016": 0.112230274662,
			"0.017": 0.0,
			"0.018": 0.0,
			"0.019": 0.0,
			"0.02": 0.0,
			"0.021": 0.0,
			"0.022": 0.0,
			"0.023": 0.0,
			"0.024": 0.0,
			"0.025": 0.0
		}
	}
}
