{
	 "smiles": "CC(C)C#N", 
	 "Tm": 201.35, 
	 "num_atms": 12, 
	 "gaussian": { 
		 "optdone": 1, 
		 "sigma_profile": "yes", 
		 "theory": "DFT", 
		 "functional": "B3LYP", 
		 "basiset": "6-31G**", 
		 "properties": { 
			 "R2extent": 576.7911, 
			 "electric_dipole_moment_norm": 3.94592066063, 
			 "electric_quadrupole_moment_norm": 9.41102042342, 
			 "total_energy": -211.387897748, 
			 "HOMO_LUMO_gap": 0.35384, 
			 "cosmo_polarized_energy": -7.85, 
			 "cosmo_cavitation_energy": 15.81, 
			 "cosmo_dispersion_energy": -11.06, 
			 "cosmo_repulsion_energy": 1.0, 
			 "cosmo_total_nonelectrostatic_energy": 5.75, 
			 "SMD_solvation_energy": 4.52 
		},
		"coords": [
			{
				"x": -1.5503668605,
				"y": -1.2632987855,
				"z": -0.1498631991,
				"element": "C" 
			},
			{
				"x": -0.3134574223,
				"y": -0.3538460607,
				"z": -0.2891363215,
				"element": "C" 
			},
			{
				"x": 0.5532878507,
				"y": -0.348453004,
				"z": 0.9856763079,
				"element": "C" 
			},
			{
				"x": 0.489910662,
				"y": -0.7518580893,
				"z": -1.4571268707,
				"element": "C" 
			},
			{
				"x": 1.126259965,
				"y": -1.0758665868,
				"z": -2.37263518,
				"element": "N" 
			},
			{
				"x": -1.2507660885,
				"y": -2.2988593263,
				"z": 0.0363530532,
				"element": "H" 
			},
			{
				"x": -2.1638097214,
				"y": -1.2417332393,
				"z": -1.0542251047,
				"element": "H" 
			},
			{
				"x": -2.1621633801,
				"y": -0.9253955757,
				"z": 0.6919308386,
				"element": "H" 
			},
			{
				"x": -0.6550535265,
				"y": 0.6717542461,
				"z": -0.4825805402,
				"element": "H" 
			},
			{
				"x": 1.4153881292,
				"y": 0.3147129908,
				"z": 0.8777414134,
				"element": "H" 
			},
			{
				"x": 0.9206479476,
				"y": -1.3545304569,
				"z": 1.2085269175,
				"element": "H" 
			},
			{
				"x": -0.0442775552,
				"y": -0.0043261125,
				"z": 1.8351386858,
				"element": "H" 
			}
		],
		 "valence_orbital": [ 
			{
				"type": "occ",
				"energy": -0.37858,
				"method": "rhf"
			},
			{
				"type": "occ",
				"energy": -0.37468,
				"method": "rhf"
			},
			{
				"type": "occ",
				"energy": -0.34879,
				"method": "rhf"
			},
			{
				"type": "occ",
				"energy": -0.31858,
				"method": "rhf"
			},
			{
				"type": "occ",
				"energy": -0.31772,
				"method": "rhf"
			},
			{
				"type": "unocc",
				"energy": 0.03612,
				"method": "rhf"
			},
			{
				"type": "unocc",
				"energy": 0.0404,
				"method": "rhf"
			},
			{
				"type": "unocc",
				"energy": 0.0807,
				"method": "rhf"
			},
			{
				"type": "unocc",
				"energy": 0.12248,
				"method": "rhf"
			},
			{
				"type": "unocc",
				"energy": 0.13327,
				"method": "rhf"
			}
		],
		"cosmo_sigma_profile": { 
			"-0.025": 0.0,
			"-0.024": 0.0,
			"-0.023": 0.0,
			"-0.022": 0.0,
			"-0.021": 0.0,
			"-0.02": 0.0,
			"-0.019": 0.0,
			"-0.018": 0.0,
			"-0.017": 0.0,
			"-0.016": 0.0,
			"-0.015": 0.0,
			"-0.014": 0.0,
			"-0.013": 0.0,
			"-0.012": 0.0,
			"-0.011": 0.0,
			"-0.01": 0.0,
			"-0.009": 0.0,
			"-0.008": 0.28121518559,
			"-0.007": 2.98884868029,
			"-0.006": 3.10928129652,
			"-0.005": 12.1755432675,
			"-0.004": 20.3574587807,
			"-0.003": 12.3767275254,
			"-0.002": 12.9254069655,
			"-0.001": 16.0231757009,
			"0.0": 10.7955127184,
			"0.001": 2.43772849051,
			"0.002": 1.68209707367,
			"0.003": 1.05017124242,
			"0.004": 2.51609926185,
			"0.005": 1.58510590694,
			"0.006": 2.6088372331,
			"0.007": 2.38462510067,
			"0.008": 3.1102609326,
			"0.009": 3.82140195992,
			"0.01": 3.44487179076,
			"0.011": 3.19735150697,
			"0.012": 2.62530745831,
			"0.013": 2.29630566051,
			"0.014": 0.859868374034,
			"0.015": 0.0,
			"0.016": 0.0,
			"0.017": 0.0,
			"0.018": 0.0,
			"0.019": 0.0,
			"0.02": 0.0,
			"0.021": 0.0,
			"0.022": 0.0,
			"0.023": 0.0,
			"0.024": 0.0,
			"0.025": 0.0
		}
	}
}
