{
	 "smiles": "CCCOC1=C(NC(=O)CCl)C=C(C=C1)C(F)(F)F", 
	 "Tm": 347.15, 
	 "num_atms": 32, 
	 "gaussian": { 
		 "optdone": 1, 
		 "sigma_profile": "yes", 
		 "theory": "DFT", 
		 "functional": "B3LYP", 
		 "basiset": "6-31G**", 
		 "properties": { 
			 "R2extent": 9123.3448, 
			 "electric_dipole_moment_norm": 6.19771537423, 
			 "electric_quadrupole_moment_norm": 16.7174965267, 
			 "total_energy": -1430.04167325, 
			 "HOMO_LUMO_gap": 0.19782, 
			 "cosmo_polarized_energy": -15.48, 
			 "cosmo_cavitation_energy": 39.34, 
			 "cosmo_dispersion_energy": -26.98, 
			 "cosmo_repulsion_energy": 2.08, 
			 "cosmo_total_nonelectrostatic_energy": 14.44, 
			 "SMD_solvation_energy": 8.26 
		},
		"coords": [
			{
				"x": -1.700803041,
				"y": -3.4069070014,
				"z": 0.1202684897,
				"element": "C" 
			},
			{
				"x": -2.3492627493,
				"y": -2.3076671284,
				"z": -0.7265051139,
				"element": "C" 
			},
			{
				"x": -1.3812245158,
				"y": -1.2178271314,
				"z": -1.1659215276,
				"element": "C" 
			},
			{
				"x": -0.9270006827,
				"y": -0.5241014851,
				"z": 0.0047840621,
				"element": "O" 
			},
			{
				"x": -0.0232577144,
				"y": 0.4832034402,
				"z": -0.1287259935,
				"element": "C" 
			},
			{
				"x": 0.372364549,
				"y": 1.0972136179,
				"z": 1.0905610847,
				"element": "C" 
			},
			{
				"x": -0.2056830299,
				"y": 0.593486567,
				"z": 2.2693993401,
				"element": "N" 
			},
			{
				"x": -0.6332101796,
				"y": 1.1933644664,
				"z": 3.4442029676,
				"element": "C" 
			},
			{
				"x": -1.2044268956,
				"y": 0.5316777406,
				"z": 4.2893327164,
				"element": "O" 
			},
			{
				"x": -0.3430690772,
				"y": 2.6883939939,
				"z": 3.6046860533,
				"element": "C" 
			},
			{
				"x": -1.4023867622,
				"y": 3.4441769088,
				"z": 4.8358508348,
				"element": "Cl" 
			},
			{
				"x": 1.3361774932,
				"y": 2.1021036291,
				"z": 1.0534126,
				"element": "C" 
			},
			{
				"x": 1.8561810336,
				"y": 2.5480702129,
				"z": -0.1679969148,
				"element": "C" 
			},
			{
				"x": 1.4445385421,
				"y": 1.9619895935,
				"z": -1.3601073309,
				"element": "C" 
			},
			{
				"x": 0.5119183079,
				"y": 0.9222241831,
				"z": -1.3394044903,
				"element": "C" 
			},
			{
				"x": 2.9239113015,
				"y": 3.6052828889,
				"z": -0.1656017277,
				"element": "C" 
			},
			{
				"x": 2.7204821968,
				"y": 4.5193120987,
				"z": 0.8118439448,
				"element": "F" 
			},
			{
				"x": 2.9792082167,
				"y": 4.2692743945,
				"z": -1.3403890344,
				"element": "F" 
			},
			{
				"x": 4.1533470641,
				"y": 3.0793841131,
				"z": 0.0478868478,
				"element": "F" 
			},
			{
				"x": -2.4362112171,
				"y": -4.1660464513,
				"z": 0.4019717455,
				"element": "H" 
			},
			{
				"x": -0.8965781498,
				"y": -3.9081349833,
				"z": -0.4301586435,
				"element": "H" 
			},
			{
				"x": -1.2730890043,
				"y": -2.998906317,
				"z": 1.0402345707,
				"element": "H" 
			},
			{
				"x": -2.7840127374,
				"y": -2.7408389121,
				"z": -1.6358717636,
				"element": "H" 
			},
			{
				"x": -3.1743684699,
				"y": -1.8395321658,
				"z": -0.1771555696,
				"element": "H" 
			},
			{
				"x": -1.8747957225,
				"y": -0.5039413724,
				"z": -1.8384723537,
				"element": "H" 
			},
			{
				"x": -0.5183850735,
				"y": -1.649234493,
				"z": -1.6924560178,
				"element": "H" 
			},
			{
				"x": -0.5703321099,
				"y": -0.3490148959,
				"z": 2.1914035117,
				"element": "H" 
			},
			{
				"x": -0.4824104811,
				"y": 3.2269871302,
				"z": 2.6667115675,
				"element": "H" 
			},
			{
				"x": 0.6873256094,
				"y": 2.8319029607,
				"z": 3.9387326577,
				"element": "H" 
			},
			{
				"x": 1.7007704357,
				"y": 2.5420501789,
				"z": 1.9724501365,
				"element": "H" 
			},
			{
				"x": 1.8465688144,
				"y": 2.3098611763,
				"z": -2.3046030453,
				"element": "H" 
			},
			{
				"x": 0.1998140487,
				"y": 0.4686930424,
				"z": -2.2717636042,
				"element": "H" 
			}
		],
		 "valence_orbital": [ 
			{
				"type": "occ",
				"energy": -0.30035,
				"method": "rhf"
			},
			{
				"type": "occ",
				"energy": -0.29759,
				"method": "rhf"
			},
			{
				"type": "occ",
				"energy": -0.27156,
				"method": "rhf"
			},
			{
				"type": "occ",
				"energy": -0.2646,
				"method": "rhf"
			},
			{
				"type": "occ",
				"energy": -0.23301,
				"method": "rhf"
			},
			{
				"type": "unocc",
				"energy": -0.03519,
				"method": "rhf"
			},
			{
				"type": "unocc",
				"energy": -0.02959,
				"method": "rhf"
			},
			{
				"type": "unocc",
				"energy": 0.00718,
				"method": "rhf"
			},
			{
				"type": "unocc",
				"energy": 0.03128,
				"method": "rhf"
			},
			{
				"type": "unocc",
				"energy": 0.06439,
				"method": "rhf"
			}
		],
		"cosmo_sigma_profile": { 
			"-0.025": 0.0,
			"-0.024": 0.0,
			"-0.023": 0.0,
			"-0.022": 0.0,
			"-0.021": 0.0,
			"-0.02": 0.0,
			"-0.019": 0.0,
			"-0.018": 0.0,
			"-0.017": 0.0,
			"-0.016": 0.0,
			"-0.015": 0.0,
			"-0.014": 0.0,
			"-0.013": 0.0112872827595,
			"-0.012": 0.858189138906,
			"-0.011": 1.79143168884,
			"-0.01": 2.84131363284,
			"-0.009": 3.70592272316,
			"-0.008": 5.320328783,
			"-0.007": 9.1258478169,
			"-0.006": 12.297191925,
			"-0.005": 16.6796031429,
			"-0.004": 19.2538983737,
			"-0.003": 22.5719182867,
			"-0.002": 20.6737876143,
			"-0.001": 25.1142828267,
			"0.0": 26.1468116587,
			"0.001": 28.9428727322,
			"0.002": 31.3847742526,
			"0.003": 40.9765381063,
			"0.004": 10.9958256208,
			"0.005": 7.58191112754,
			"0.006": 7.79473220011,
			"0.007": 1.99632271592,
			"0.008": 2.3350267173,
			"0.009": 1.66079469855,
			"0.01": 1.57024434018,
			"0.011": 2.95643600639,
			"0.012": 5.33903157583,
			"0.013": 3.82726822563,
			"0.014": 0.711968645455,
			"0.015": 0.0,
			"0.016": 0.0,
			"0.017": 0.0,
			"0.018": 0.0,
			"0.019": 0.0,
			"0.02": 0.0,
			"0.021": 0.0,
			"0.022": 0.0,
			"0.023": 0.0,
			"0.024": 0.0,
			"0.025": 0.0
		}
	}
}
