{
	 "smiles": "CCC(O)(CC)CC", 
	 "Tm": 260.35, 
	 "num_atms": 24, 
	 "gaussian": { 
		 "optdone": 1, 
		 "sigma_profile": "yes", 
		 "theory": "DFT", 
		 "functional": "B3LYP", 
		 "basiset": "6-31G**", 
		 "properties": { 
			 "R2extent": 1463.334, 
			 "electric_dipole_moment_norm": 1.43646362293, 
			 "electric_quadrupole_moment_norm": 4.34090320786, 
			 "total_energy": -351.616941584, 
			 "HOMO_LUMO_gap": 0.32904, 
			 "cosmo_polarized_energy": -5.56, 
			 "cosmo_cavitation_energy": 23.47, 
			 "cosmo_dispersion_energy": -17.11, 
			 "cosmo_repulsion_energy": 1.4, 
			 "cosmo_total_nonelectrostatic_energy": 7.76, 
			 "SMD_solvation_energy": 3.99 
		},
		"coords": [
			{
				"x": 1.4287719205,
				"y": -1.9260397042,
				"z": 1.1537788277,
				"element": "C" 
			},
			{
				"x": 1.2543102568,
				"y": -1.6752730378,
				"z": -0.3504657369,
				"element": "C" 
			},
			{
				"x": -0.023012243,
				"y": -0.9573732277,
				"z": -0.8624390317,
				"element": "C" 
			},
			{
				"x": 0.2976649137,
				"y": -0.4259401192,
				"z": -2.1701801358,
				"element": "O" 
			},
			{
				"x": -1.2337466668,
				"y": -1.9081003257,
				"z": -1.0652541432,
				"element": "C" 
			},
			{
				"x": -1.6039187091,
				"y": -2.9114907733,
				"z": 0.0363356235,
				"element": "C" 
			},
			{
				"x": -0.3638106544,
				"y": 0.3296487087,
				"z": -0.073133835,
				"element": "C" 
			},
			{
				"x": -1.2046073515,
				"y": 0.2188950085,
				"z": 1.2044475571,
				"element": "C" 
			},
			{
				"x": 2.3724185015,
				"y": -2.4525543242,
				"z": 1.33286496,
				"element": "H" 
			},
			{
				"x": 1.4735263677,
				"y": -0.986731384,
				"z": 1.7128758764,
				"element": "H" 
			},
			{
				"x": 0.6289816066,
				"y": -2.5340070772,
				"z": 1.5828145974,
				"element": "H" 
			},
			{
				"x": 2.0911765252,
				"y": -1.0538567743,
				"z": -0.6909465024,
				"element": "H" 
			},
			{
				"x": 1.3455033781,
				"y": -2.6314252139,
				"z": -0.8880480254,
				"element": "H" 
			},
			{
				"x": 0.6215049184,
				"y": -1.160429641,
				"z": -2.7095993588,
				"element": "H" 
			},
			{
				"x": -2.1034150181,
				"y": -1.2868882634,
				"z": -1.3128172514,
				"element": "H" 
			},
			{
				"x": -1.019593204,
				"y": -2.4851807251,
				"z": -1.9759738004,
				"element": "H" 
			},
			{
				"x": -0.8044481155,
				"y": -3.6393504552,
				"z": 0.2055312775,
				"element": "H" 
			},
			{
				"x": -1.8285161163,
				"y": -2.4331136932,
				"z": 0.9923130358,
				"element": "H" 
			},
			{
				"x": -2.4935067057,
				"y": -3.4758953016,
				"z": -0.2635705415,
				"element": "H" 
			},
			{
				"x": 0.5790762742,
				"y": 0.8460828537,
				"z": 0.1464084004,
				"element": "H" 
			},
			{
				"x": -0.896530818,
				"y": 0.9727116384,
				"z": -0.7827416097,
				"element": "H" 
			},
			{
				"x": -2.206224418,
				"y": -0.1705351532,
				"z": 0.9981774998,
				"element": "H" 
			},
			{
				"x": -1.3322164935,
				"y": 1.2134671506,
				"z": 1.6450629349,
				"element": "H" 
			},
			{
				"x": -0.7479881488,
				"y": -0.4178201659,
				"z": 1.9664593817,
				"element": "H" 
			}
		],
		 "valence_orbital": [ 
			{
				"type": "occ",
				"energy": -0.33102,
				"method": "rhf"
			},
			{
				"type": "occ",
				"energy": -0.32395,
				"method": "rhf"
			},
			{
				"type": "occ",
				"energy": -0.31013,
				"method": "rhf"
			},
			{
				"type": "occ",
				"energy": -0.29531,
				"method": "rhf"
			},
			{
				"type": "occ",
				"energy": -0.25535,
				"method": "rhf"
			},
			{
				"type": "unocc",
				"energy": 0.07369,
				"method": "rhf"
			},
			{
				"type": "unocc",
				"energy": 0.08466,
				"method": "rhf"
			},
			{
				"type": "unocc",
				"energy": 0.12408,
				"method": "rhf"
			},
			{
				"type": "unocc",
				"energy": 0.12466,
				"method": "rhf"
			},
			{
				"type": "unocc",
				"energy": 0.13386,
				"method": "rhf"
			}
		],
		"cosmo_sigma_profile": { 
			"-0.025": 0.0,
			"-0.024": 0.0,
			"-0.023": 0.0,
			"-0.022": 0.0,
			"-0.021": 0.0,
			"-0.02": 0.0,
			"-0.019": 0.0,
			"-0.018": 0.0,
			"-0.017": 0.0,
			"-0.016": 0.0,
			"-0.015": 0.0,
			"-0.014": 0.501329564113,
			"-0.013": 0.789300220009,
			"-0.012": 1.30694375339,
			"-0.011": 0.539593173486,
			"-0.01": 0.702730395361,
			"-0.009": 1.17879187252,
			"-0.008": 1.00104884438,
			"-0.007": 1.42388084016,
			"-0.006": 1.31664808086,
			"-0.005": 0.779342021755,
			"-0.004": 2.04455667368,
			"-0.003": 7.49512215267,
			"-0.002": 32.8696081065,
			"-0.001": 36.2494917765,
			"0.0": 32.2493627435,
			"0.001": 27.7845490241,
			"0.002": 12.5901683298,
			"0.003": 1.80505885449,
			"0.004": 1.70500926156,
			"0.005": 1.64746059602,
			"0.006": 1.18702256055,
			"0.007": 1.13414025376,
			"0.008": 1.67749407183,
			"0.009": 1.2360212611,
			"0.01": 1.10934484355,
			"0.011": 0.996101226485,
			"0.012": 1.46663660843,
			"0.013": 1.10560696475,
			"0.014": 2.00868037812,
			"0.015": 1.50174261065,
			"0.016": 0.0260322467533,
			"0.017": 0.0,
			"0.018": 0.0,
			"0.019": 0.0,
			"0.02": 0.0,
			"0.021": 0.0,
			"0.022": 0.0,
			"0.023": 0.0,
			"0.024": 0.0,
			"0.025": 0.0
		}
	}
}
