{
	 "smiles": "OC(=O)C1=CC(N2CCCC2=O)=C(Cl)C=C1", 
	 "Tm": 562.15, 
	 "num_atms": 26, 
	 "gaussian": { 
		 "optdone": 1, 
		 "sigma_profile": "yes", 
		 "theory": "DFT", 
		 "functional": "B3LYP", 
		 "basiset": "6-31G**", 
		 "properties": { 
			 "R2extent": 5640.4442, 
			 "electric_dipole_moment_norm": 3.89470197705, 
			 "electric_quadrupole_moment_norm": 9.48118893019, 
			 "total_energy": -1165.84625097, 
			 "HOMO_LUMO_gap": 0.18268, 
			 "cosmo_polarized_energy": -15.45, 
			 "cosmo_cavitation_energy": 31.85, 
			 "cosmo_dispersion_energy": -22.98, 
			 "cosmo_repulsion_energy": 1.81, 
			 "cosmo_total_nonelectrostatic_energy": 10.68, 
			 "SMD_solvation_energy": 6.71 
		},
		"coords": [
			{
				"x": 0.2985194675,
				"y": 2.2974449238,
				"z": 3.3451099768,
				"element": "O" 
			},
			{
				"x": 0.3540568183,
				"y": 1.2076872036,
				"z": 4.1479373833,
				"element": "C" 
			},
			{
				"x": 0.483018012,
				"y": 1.2943907002,
				"z": 5.3531169687,
				"element": "O" 
			},
			{
				"x": 0.2375486229,
				"y": -0.0738229765,
				"z": 3.4016787064,
				"element": "C" 
			},
			{
				"x": 0.096233403,
				"y": -0.1123870826,
				"z": 2.0131472711,
				"element": "C" 
			},
			{
				"x": -0.0144158965,
				"y": -1.3313786686,
				"z": 1.3304307972,
				"element": "C" 
			},
			{
				"x": -0.1693874033,
				"y": -1.3228526438,
				"z": -0.0761828855,
				"element": "N" 
			},
			{
				"x": -1.3042846775,
				"y": -1.9355541423,
				"z": -0.7872127746,
				"element": "C" 
			},
			{
				"x": -1.3077135335,
				"y": -1.1992865553,
				"z": -2.1426366366,
				"element": "C" 
			},
			{
				"x": 0.1587975377,
				"y": -0.7933482002,
				"z": -2.3394621902,
				"element": "C" 
			},
			{
				"x": 0.6881538884,
				"y": -0.619301909,
				"z": -0.9172838152,
				"element": "C" 
			},
			{
				"x": 1.6731962262,
				"y": 0.0017590512,
				"z": -0.5663502256,
				"element": "O" 
			},
			{
				"x": 0.0414871949,
				"y": -2.515663243,
				"z": 2.0865765954,
				"element": "C" 
			},
			{
				"x": 0.0112160884,
				"y": -4.086020787,
				"z": 1.3051802398,
				"element": "Cl" 
			},
			{
				"x": 0.1575282546,
				"y": -2.4842697386,
				"z": 3.4790113912,
				"element": "C" 
			},
			{
				"x": 0.2574512726,
				"y": -1.2661564123,
				"z": 4.1367469332,
				"element": "C" 
			},
			{
				"x": 0.3942570438,
				"y": 3.0654711373,
				"z": 3.931785193,
				"element": "H" 
			},
			{
				"x": 0.0797274781,
				"y": 0.8075051949,
				"z": 1.4439097807,
				"element": "H" 
			},
			{
				"x": -1.1528273777,
				"y": -3.0121559818,
				"z": -0.9155393358,
				"element": "H" 
			},
			{
				"x": -2.2288672744,
				"y": -1.7897045216,
				"z": -0.2204178055,
				"element": "H" 
			},
			{
				"x": -1.7010835174,
				"y": -1.8277217938,
				"z": -2.9450814841,
				"element": "H" 
			},
			{
				"x": -1.9362940117,
				"y": -0.3051841063,
				"z": -2.0774334416,
				"element": "H" 
			},
			{
				"x": 0.7426541333,
				"y": -1.5844678064,
				"z": -2.8263352691,
				"element": "H" 
			},
			{
				"x": 0.3068811036,
				"y": 0.1250746142,
				"z": -2.9105378307,
				"element": "H" 
			},
			{
				"x": 0.1868144685,
				"y": -3.4180747921,
				"z": 4.0289076655,
				"element": "H" 
			},
			{
				"x": 0.3590326783,
				"y": -1.2184814641,
				"z": 5.2151347921,
				"element": "H" 
			}
		],
		 "valence_orbital": [ 
			{
				"type": "occ",
				"energy": -0.28999,
				"method": "rhf"
			},
			{
				"type": "occ",
				"energy": -0.28099,
				"method": "rhf"
			},
			{
				"type": "occ",
				"energy": -0.26458,
				"method": "rhf"
			},
			{
				"type": "occ",
				"energy": -0.25177,
				"method": "rhf"
			},
			{
				"type": "occ",
				"energy": -0.24,
				"method": "rhf"
			},
			{
				"type": "unocc",
				"energy": -0.05732,
				"method": "rhf"
			},
			{
				"type": "unocc",
				"energy": -0.02625,
				"method": "rhf"
			},
			{
				"type": "unocc",
				"energy": 0.01754,
				"method": "rhf"
			},
			{
				"type": "unocc",
				"energy": 0.02109,
				"method": "rhf"
			},
			{
				"type": "unocc",
				"energy": 0.04785,
				"method": "rhf"
			}
		],
		"cosmo_sigma_profile": { 
			"-0.025": 0.0,
			"-0.024": 0.0,
			"-0.023": 0.0,
			"-0.022": 0.0,
			"-0.021": 0.0,
			"-0.02": 0.0,
			"-0.019": 0.239163082637,
			"-0.018": 0.646222939428,
			"-0.017": 1.25890693937,
			"-0.016": 0.922382279586,
			"-0.015": 0.242629979623,
			"-0.014": 0.600507124318,
			"-0.013": 0.875468645716,
			"-0.012": 0.636459150716,
			"-0.011": 1.220244352,
			"-0.01": 0.578396732612,
			"-0.009": 0.203050153861,
			"-0.008": 1.89725853779,
			"-0.007": 4.32846798157,
			"-0.006": 9.80860447355,
			"-0.005": 16.3436401442,
			"-0.004": 25.6994427585,
			"-0.003": 24.3300166215,
			"-0.002": 21.7340069233,
			"-0.001": 20.8762195104,
			"0.0": 21.6883461064,
			"0.001": 21.0690013586,
			"0.002": 17.7506092266,
			"0.003": 10.5407630016,
			"0.004": 10.1251261122,
			"0.005": 4.20675603516,
			"0.006": 3.88279447591,
			"0.007": 4.95689034278,
			"0.008": 3.18436661532,
			"0.009": 3.17033483784,
			"0.01": 3.32895838954,
			"0.011": 6.76353439161,
			"0.012": 5.191546823,
			"0.013": 5.19733628376,
			"0.014": 2.07157777948,
			"0.015": 0.0736713875266,
			"0.016": 0.0,
			"0.017": 0.0,
			"0.018": 0.0,
			"0.019": 0.0,
			"0.02": 0.0,
			"0.021": 0.0,
			"0.022": 0.0,
			"0.023": 0.0,
			"0.024": 0.0,
			"0.025": 0.0
		}
	}
}
