{
	 "smiles": "CN1CCC2=C(C1)C=C(C#N)C(N)=N2", 
	 "Tm": 489.15, 
	 "num_atms": 26, 
	 "gaussian": { 
		 "optdone": 1, 
		 "sigma_profile": "yes", 
		 "theory": "DFT", 
		 "functional": "B3LYP", 
		 "basiset": "6-31G**", 
		 "properties": { 
			 "R2extent": 3544.3998, 
			 "electric_dipole_moment_norm": 3.35295583776, 
			 "electric_quadrupole_moment_norm": 17.8211023057, 
			 "total_energy": -607.293799214, 
			 "HOMO_LUMO_gap": 0.16544, 
			 "cosmo_polarized_energy": -13.0, 
			 "cosmo_cavitation_energy": 29.15, 
			 "cosmo_dispersion_energy": -21.11, 
			 "cosmo_repulsion_energy": 1.66, 
			 "cosmo_total_nonelectrostatic_energy": 9.7, 
			 "SMD_solvation_energy": 1.52 
		},
		"coords": [
			{
				"x": 0.4184007736,
				"y": 1.1807869086,
				"z": 3.0907340673,
				"element": "C" 
			},
			{
				"x": -0.6203898426,
				"y": 0.2744203575,
				"z": 2.6102773576,
				"element": "N" 
			},
			{
				"x": -0.0979527923,
				"y": -0.9642277421,
				"z": 2.0296069217,
				"element": "C" 
			},
			{
				"x": 0.6948872099,
				"y": -0.7523982264,
				"z": 0.7244609134,
				"element": "C" 
			},
			{
				"x": 0.0193573508,
				"y": 0.2282171425,
				"z": -0.2095426789,
				"element": "C" 
			},
			{
				"x": -1.0241867943,
				"y": 1.0499166786,
				"z": 0.2572978787,
				"element": "C" 
			},
			{
				"x": -1.554172141,
				"y": 0.9025197361,
				"z": 1.6799312752,
				"element": "C" 
			},
			{
				"x": -1.5640351901,
				"y": 1.9632578252,
				"z": -0.6434927056,
				"element": "C" 
			},
			{
				"x": -1.0819287664,
				"y": 2.036632592,
				"z": -1.9540624661,
				"element": "C" 
			},
			{
				"x": -1.5966495968,
				"y": 2.9684021835,
				"z": -2.9012742392,
				"element": "C" 
			},
			{
				"x": -1.9742866313,
				"y": 3.712995736,
				"z": -3.7147099611,
				"element": "N" 
			},
			{
				"x": -0.0313576419,
				"y": 1.1488576973,
				"z": -2.3295656003,
				"element": "C" 
			},
			{
				"x": 0.4616655416,
				"y": 1.1289246595,
				"z": -3.6013723748,
				"element": "N" 
			},
			{
				"x": 0.4991399858,
				"y": 0.2809233523,
				"z": -1.4591324614,
				"element": "N" 
			},
			{
				"x": 1.0589162503,
				"y": 0.6480377647,
				"z": 3.8011949871,
				"element": "H" 
			},
			{
				"x": 1.06489015,
				"y": 1.6076355109,
				"z": 2.3039818332,
				"element": "H" 
			},
			{
				"x": -0.0493123153,
				"y": 2.0149476426,
				"z": 3.6239241886,
				"element": "H" 
			},
			{
				"x": -0.9551002216,
				"y": -1.6214140638,
				"z": 1.834275868,
				"element": "H" 
			},
			{
				"x": 0.5274858489,
				"y": -1.4697816377,
				"z": 2.7734095417,
				"element": "H" 
			},
			{
				"x": 0.8466479192,
				"y": -1.7005347936,
				"z": 0.1971523854,
				"element": "H" 
			},
			{
				"x": 1.700972445,
				"y": -0.3701368358,
				"z": 0.9437738378,
				"element": "H" 
			},
			{
				"x": -1.845573577,
				"y": 1.8820695421,
				"z": 2.0760665881,
				"element": "H" 
			},
			{
				"x": -2.4700871331,
				"y": 0.2932272774,
				"z": 1.6587450957,
				"element": "H" 
			},
			{
				"x": -2.3644069062,
				"y": 2.6327440619,
				"z": -0.3385726702,
				"element": "H" 
			},
			{
				"x": 0.243505776,
				"y": 1.8772463078,
				"z": -4.2401901359,
				"element": "H" 
			},
			{
				"x": 1.3062702989,
				"y": 0.5997303229,
				"z": -3.7500174462,
				"element": "H" 
			}
		],
		 "valence_orbital": [ 
			{
				"type": "occ",
				"energy": -0.31681,
				"method": "rhf"
			},
			{
				"type": "occ",
				"energy": -0.2794,
				"method": "rhf"
			},
			{
				"type": "occ",
				"energy": -0.26786,
				"method": "rhf"
			},
			{
				"type": "occ",
				"energy": -0.22139,
				"method": "rhf"
			},
			{
				"type": "occ",
				"energy": -0.21622,
				"method": "rhf"
			},
			{
				"type": "unocc",
				"energy": -0.05078,
				"method": "rhf"
			},
			{
				"type": "unocc",
				"energy": -0.0083,
				"method": "rhf"
			},
			{
				"type": "unocc",
				"energy": 0.03089,
				"method": "rhf"
			},
			{
				"type": "unocc",
				"energy": 0.06661,
				"method": "rhf"
			},
			{
				"type": "unocc",
				"energy": 0.08079,
				"method": "rhf"
			}
		],
		"cosmo_sigma_profile": { 
			"-0.025": 0.0,
			"-0.024": 0.0,
			"-0.023": 0.0,
			"-0.022": 0.0,
			"-0.021": 0.0,
			"-0.02": 0.0,
			"-0.019": 0.0,
			"-0.018": 0.0,
			"-0.017": 0.0,
			"-0.016": 0.0,
			"-0.015": 0.0,
			"-0.014": 0.824280653349,
			"-0.013": 1.79833149111,
			"-0.012": 1.24984546816,
			"-0.011": 2.29551924735,
			"-0.01": 1.97880927011,
			"-0.009": 2.80606862619,
			"-0.008": 3.58104472449,
			"-0.007": 3.81209859958,
			"-0.006": 4.86978907613,
			"-0.005": 6.96795886206,
			"-0.004": 23.5470755453,
			"-0.003": 26.744385528,
			"-0.002": 22.4331172401,
			"-0.001": 24.3542794724,
			"0.0": 20.9815456665,
			"0.001": 15.8065388618,
			"0.002": 9.77995070059,
			"0.003": 6.33272679775,
			"0.004": 5.71590202592,
			"0.005": 5.19834582855,
			"0.006": 6.09236187443,
			"0.007": 4.44676393343,
			"0.008": 5.43023570264,
			"0.009": 4.69384769639,
			"0.01": 4.82962136507,
			"0.011": 3.94420026457,
			"0.012": 4.56448146511,
			"0.013": 3.0301053515,
			"0.014": 1.47541771229,
			"0.015": 0.477465616026,
			"0.016": 0.410753077329,
			"0.017": 0.12332980692,
			"0.018": 0.0,
			"0.019": 0.0,
			"0.02": 0.0,
			"0.021": 0.0,
			"0.022": 0.0,
			"0.023": 0.0,
			"0.024": 0.0,
			"0.025": 0.0
		}
	}
}
