{
	 "smiles": "NC(=O)C1CCC2=C(N1)C=CC=C2", 
	 "Tm": 389.15, 
	 "num_atms": 25, 
	 "gaussian": { 
		 "optdone": 1, 
		 "sigma_profile": "yes", 
		 "theory": "DFT", 
		 "functional": "B3LYP", 
		 "basiset": "6-31G**", 
		 "properties": { 
			 "R2extent": 2629.2123, 
			 "electric_dipole_moment_norm": 2.79022486011, 
			 "electric_quadrupole_moment_norm": 14.3747922086, 
			 "total_energy": -573.052631219, 
			 "HOMO_LUMO_gap": 0.20079, 
			 "cosmo_polarized_energy": -14.37, 
			 "cosmo_cavitation_energy": 27.21, 
			 "cosmo_dispersion_energy": -20.14, 
			 "cosmo_repulsion_energy": 1.6, 
			 "cosmo_total_nonelectrostatic_energy": 8.67, 
			 "SMD_solvation_energy": 4.72 
		},
		"coords": [
			{
				"x": -0.4414644313,
				"y": 0.9304909149,
				"z": 3.0948797342,
				"element": "N" 
			},
			{
				"x": -0.7854528639,
				"y": 1.8700109482,
				"z": 2.1786933308,
				"element": "C" 
			},
			{
				"x": -1.7709457547,
				"y": 2.591207438,
				"z": 2.2694468974,
				"element": "O" 
			},
			{
				"x": 0.1797777111,
				"y": 2.0056594019,
				"z": 0.9743965711,
				"element": "C" 
			},
			{
				"x": -0.6150178217,
				"y": 1.876750599,
				"z": -0.3356754937,
				"element": "C" 
			},
			{
				"x": -0.9162347321,
				"y": 0.4016651089,
				"z": -0.6333810248,
				"element": "C" 
			},
			{
				"x": 0.3706570301,
				"y": -0.3890387145,
				"z": -0.6949208968,
				"element": "C" 
			},
			{
				"x": 1.450855882,
				"y": 0.0114163752,
				"z": 0.1182259727,
				"element": "C" 
			},
			{
				"x": 1.3086858021,
				"y": 1.0693756456,
				"z": 1.0311706634,
				"element": "N" 
			},
			{
				"x": 2.6707136771,
				"y": -0.6815639749,
				"z": 0.0434937598,
				"element": "C" 
			},
			{
				"x": 2.8165048506,
				"y": -1.7658029237,
				"z": -0.8169669674,
				"element": "C" 
			},
			{
				"x": 1.750261678,
				"y": -2.1747863868,
				"z": -1.6212525019,
				"element": "C" 
			},
			{
				"x": 0.5444737679,
				"y": -1.4766585337,
				"z": -1.5548108768,
				"element": "C" 
			},
			{
				"x": -1.0434782682,
				"y": 0.7817385686,
				"z": 3.8893032151,
				"element": "H" 
			},
			{
				"x": 0.3618245312,
				"y": 0.3443471495,
				"z": 2.9263350946,
				"element": "H" 
			},
			{
				"x": 0.568961923,
				"y": 3.028377141,
				"z": 1.0446300285,
				"element": "H" 
			},
			{
				"x": -1.5312684278,
				"y": 2.4611982407,
				"z": -0.2293632876,
				"element": "H" 
			},
			{
				"x": -0.0273974012,
				"y": 2.3030984976,
				"z": -1.1563924871,
				"element": "H" 
			},
			{
				"x": -1.4626359165,
				"y": 0.3055388879,
				"z": -1.5776556473,
				"element": "H" 
			},
			{
				"x": -1.5795084005,
				"y": 0.0044295808,
				"z": 0.1486577286,
				"element": "H" 
			},
			{
				"x": 2.1863408959,
				"y": 1.4881117442,
				"z": 1.3054527602,
				"element": "H" 
			},
			{
				"x": 3.5028162066,
				"y": -0.3653611544,
				"z": 0.6693665944,
				"element": "H" 
			},
			{
				"x": 3.7676575035,
				"y": -2.28905985,
				"z": -0.8601169942,
				"element": "H" 
			},
			{
				"x": 1.859580437,
				"y": -3.0178807514,
				"z": -2.2962042247,
				"element": "H" 
			},
			{
				"x": -0.2874078781,
				"y": -1.7732639526,
				"z": -2.1900119484,
				"element": "H" 
			}
		],
		 "valence_orbital": [ 
			{
				"type": "occ",
				"energy": -0.3062,
				"method": "rhf"
			},
			{
				"type": "occ",
				"energy": -0.26247,
				"method": "rhf"
			},
			{
				"type": "occ",
				"energy": -0.24597,
				"method": "rhf"
			},
			{
				"type": "occ",
				"energy": -0.23863,
				"method": "rhf"
			},
			{
				"type": "occ",
				"energy": -0.19839,
				"method": "rhf"
			},
			{
				"type": "unocc",
				"energy": 0.0024,
				"method": "rhf"
			},
			{
				"type": "unocc",
				"energy": 0.01619,
				"method": "rhf"
			},
			{
				"type": "unocc",
				"energy": 0.03237,
				"method": "rhf"
			},
			{
				"type": "unocc",
				"energy": 0.07153,
				"method": "rhf"
			},
			{
				"type": "unocc",
				"energy": 0.09793,
				"method": "rhf"
			}
		],
		"cosmo_sigma_profile": { 
			"-0.025": 0.0,
			"-0.024": 0.0,
			"-0.023": 0.0,
			"-0.022": 0.0,
			"-0.021": 0.0,
			"-0.02": 0.0,
			"-0.019": 0.0,
			"-0.018": 0.0,
			"-0.017": 0.0,
			"-0.016": 0.0,
			"-0.015": 0.0,
			"-0.014": 0.588955945555,
			"-0.013": 2.25121869516,
			"-0.012": 2.47391823885,
			"-0.011": 3.10466156082,
			"-0.01": 3.04771572604,
			"-0.009": 4.38533791148,
			"-0.008": 3.64170449499,
			"-0.007": 3.65926347028,
			"-0.006": 6.00867680852,
			"-0.005": 8.99711352964,
			"-0.004": 15.3319085706,
			"-0.003": 19.9017671987,
			"-0.002": 21.3774880725,
			"-0.001": 18.855563742,
			"0.0": 16.4619053743,
			"0.001": 9.71371879745,
			"0.002": 10.0981774012,
			"0.003": 9.83020073136,
			"0.004": 8.96031671126,
			"0.005": 8.37127739664,
			"0.006": 8.39417716164,
			"0.007": 8.18534975197,
			"0.008": 4.43589658333,
			"0.009": 1.64416080486,
			"0.01": 0.539121301631,
			"0.011": 1.62798870335,
			"0.012": 1.57843736025,
			"0.013": 1.91774193325,
			"0.014": 5.69179805765,
			"0.015": 3.03369910847,
			"0.016": 0.0689282741877,
			"0.017": 0.0,
			"0.018": 0.0,
			"0.019": 0.0,
			"0.02": 0.0,
			"0.021": 0.0,
			"0.022": 0.0,
			"0.023": 0.0,
			"0.024": 0.0,
			"0.025": 0.0
		}
	}
}
