{
	 "smiles": "CC(N)CC1=CNC2=CC=CC=C12", 
	 "Tm": 372.15, 
	 "num_atms": 27, 
	 "gaussian": { 
		 "optdone": 1, 
		 "sigma_profile": "yes", 
		 "theory": "DFT", 
		 "functional": "B3LYP", 
		 "basiset": "6-31G**", 
		 "properties": { 
			 "R2extent": 2571.5692, 
			 "electric_dipole_moment_norm": 2.89064922466, 
			 "electric_quadrupole_moment_norm": 7.73007993684, 
			 "total_energy": -537.121720798, 
			 "HOMO_LUMO_gap": 0.191, 
			 "cosmo_polarized_energy": -11.02, 
			 "cosmo_cavitation_energy": 28.78, 
			 "cosmo_dispersion_energy": -20.9, 
			 "cosmo_repulsion_energy": 1.66, 
			 "cosmo_total_nonelectrostatic_energy": 9.54, 
			 "SMD_solvation_energy": 3.69 
		},
		"coords": [
			{
				"x": 2.7545786336,
				"y": -1.1418876004,
				"z": -1.3844770246,
				"element": "C" 
			},
			{
				"x": 2.4789306225,
				"y": 0.1500405367,
				"z": -0.5985251692,
				"element": "C" 
			},
			{
				"x": 2.3452225299,
				"y": -0.0459714345,
				"z": 0.8522071265,
				"element": "N" 
			},
			{
				"x": 1.2412122996,
				"y": 0.9119091435,
				"z": -1.1355875993,
				"element": "C" 
			},
			{
				"x": -0.0791104748,
				"y": 0.1991372586,
				"z": -1.008722076,
				"element": "C" 
			},
			{
				"x": -0.7331326237,
				"y": -0.487697985,
				"z": -2.0031618308,
				"element": "C" 
			},
			{
				"x": -1.9340693262,
				"y": -0.9881167341,
				"z": -1.5321484727,
				"element": "N" 
			},
			{
				"x": -2.0882927389,
				"y": -0.6239791115,
				"z": -0.2107415991,
				"element": "C" 
			},
			{
				"x": -3.1337448979,
				"y": -0.8784833176,
				"z": 0.6839339383,
				"element": "C" 
			},
			{
				"x": -3.0157375748,
				"y": -0.3656590582,
				"z": 1.9705870377,
				"element": "C" 
			},
			{
				"x": -1.8830099085,
				"y": 0.3800451243,
				"z": 2.3580915008,
				"element": "C" 
			},
			{
				"x": -0.8450571135,
				"y": 0.6279831407,
				"z": 1.4682699541,
				"element": "C" 
			},
			{
				"x": -0.9344908812,
				"y": 0.1239354456,
				"z": 0.156568882,
				"element": "C" 
			},
			{
				"x": 1.9112975714,
				"y": -1.8360708613,
				"z": -1.3002718298,
				"element": "H" 
			},
			{
				"x": 2.9195812751,
				"y": -0.9403104878,
				"z": -2.4500499996,
				"element": "H" 
			},
			{
				"x": 3.649084506,
				"y": -1.6449553086,
				"z": -0.9998437036,
				"element": "H" 
			},
			{
				"x": 3.3366000692,
				"y": 0.8222148871,
				"z": -0.7404113612,
				"element": "H" 
			},
			{
				"x": 3.1865610222,
				"y": -0.4890413984,
				"z": 1.2157223939,
				"element": "H" 
			},
			{
				"x": 1.5813375093,
				"y": -0.6943961875,
				"z": 1.035890319,
				"element": "H" 
			},
			{
				"x": 1.1890367265,
				"y": 1.8689117067,
				"z": -0.6039211322,
				"element": "H" 
			},
			{
				"x": 1.4208620708,
				"y": 1.1453667675,
				"z": -2.1921215285,
				"element": "H" 
			},
			{
				"x": -0.438763165,
				"y": -0.6497117968,
				"z": -3.0310761099,
				"element": "H" 
			},
			{
				"x": -2.6000068508,
				"y": -1.5113969359,
				"z": -2.0759402491,
				"element": "H" 
			},
			{
				"x": -4.0060681505,
				"y": -1.4533993923,
				"z": 0.3849040848,
				"element": "H" 
			},
			{
				"x": -3.8099106827,
				"y": -0.5438057385,
				"z": 2.6899696254,
				"element": "H" 
			},
			{
				"x": -1.822733288,
				"y": 0.7638217782,
				"z": 3.3724893713,
				"element": "H" 
			},
			{
				"x": 0.0358228405,
				"y": 1.1819175596,
				"z": 1.7774654518,
				"element": "H" 
			}
		],
		 "valence_orbital": [ 
			{
				"type": "occ",
				"energy": -0.31795,
				"method": "rhf"
			},
			{
				"type": "occ",
				"energy": -0.26338,
				"method": "rhf"
			},
			{
				"type": "occ",
				"energy": -0.22727,
				"method": "rhf"
			},
			{
				"type": "occ",
				"energy": -0.21407,
				"method": "rhf"
			},
			{
				"type": "occ",
				"energy": -0.19335,
				"method": "rhf"
			},
			{
				"type": "unocc",
				"energy": -0.00235,
				"method": "rhf"
			},
			{
				"type": "unocc",
				"energy": 0.03351,
				"method": "rhf"
			},
			{
				"type": "unocc",
				"energy": 0.06532,
				"method": "rhf"
			},
			{
				"type": "unocc",
				"energy": 0.08312,
				"method": "rhf"
			},
			{
				"type": "unocc",
				"energy": 0.09352,
				"method": "rhf"
			}
		],
		"cosmo_sigma_profile": { 
			"-0.025": 0.0,
			"-0.024": 0.0,
			"-0.023": 0.0,
			"-0.022": 0.0,
			"-0.021": 0.0,
			"-0.02": 0.0,
			"-0.019": 0.0,
			"-0.018": 0.0,
			"-0.017": 0.0,
			"-0.016": 0.00512738901655,
			"-0.015": 1.26223388866,
			"-0.014": 1.50578614364,
			"-0.013": 1.73782291814,
			"-0.012": 0.843189904583,
			"-0.011": 1.01036478405,
			"-0.01": 1.32554973943,
			"-0.009": 2.49006286472,
			"-0.008": 3.05177152612,
			"-0.007": 5.05507833315,
			"-0.006": 7.15527184985,
			"-0.005": 9.22317437877,
			"-0.004": 9.53001546787,
			"-0.003": 17.3798615145,
			"-0.002": 24.5104629084,
			"-0.001": 22.7965313547,
			"0.0": 18.7156591756,
			"0.001": 19.4774836575,
			"0.002": 13.7021323074,
			"0.003": 9.79334109074,
			"0.004": 11.3423172738,
			"0.005": 13.9833396041,
			"0.006": 11.8460984636,
			"0.007": 8.98623698393,
			"0.008": 3.30953940357,
			"0.009": 0.8345937285,
			"0.01": 0.815101195317,
			"0.011": 0.840830213908,
			"0.012": 0.348800093268,
			"0.013": 0.174880677326,
			"0.014": 1.16918985121,
			"0.015": 0.551649621002,
			"0.016": 0.339111480333,
			"0.017": 0.441861541806,
			"0.018": 0.451037003248,
			"0.019": 0.0656313441279,
			"0.02": 0.0,
			"0.021": 0.0,
			"0.022": 0.0,
			"0.023": 0.0,
			"0.024": 0.0,
			"0.025": 0.0
		}
	}
}
