{
	 "smiles": "NC1=CC(=CC=C1)C1OCCCO1", 
	 "Tm": 348.65, 
	 "num_atms": 26, 
	 "gaussian": { 
		 "optdone": 1, 
		 "sigma_profile": "yes", 
		 "theory": "DFT", 
		 "functional": "B3LYP", 
		 "basiset": "6-31G**", 
		 "properties": { 
			 "R2extent": 2970.6164, 
			 "electric_dipole_moment_norm": 2.31503660662, 
			 "electric_quadrupole_moment_norm": 7.98896766798, 
			 "total_energy": -594.078897198, 
			 "HOMO_LUMO_gap": 0.20159, 
			 "cosmo_polarized_energy": -10.87, 
			 "cosmo_cavitation_energy": 28.04, 
			 "cosmo_dispersion_energy": -21.04, 
			 "cosmo_repulsion_energy": 1.69, 
			 "cosmo_total_nonelectrostatic_energy": 8.69, 
			 "SMD_solvation_energy": 4.43 
		},
		"coords": [
			{
				"x": -0.7048831979,
				"y": -2.1811961324,
				"z": -2.4995173375,
				"element": "N" 
			},
			{
				"x": -1.2554667682,
				"y": -1.2537537658,
				"z": -1.6089352129,
				"element": "C" 
			},
			{
				"x": -0.4769617212,
				"y": -0.7142298095,
				"z": -0.5720931221,
				"element": "C" 
			},
			{
				"x": -1.033780025,
				"y": 0.172407374,
				"z": 0.3509227269,
				"element": "C" 
			},
			{
				"x": -2.3828513348,
				"y": 0.531749669,
				"z": 0.2539688328,
				"element": "C" 
			},
			{
				"x": -3.1580230932,
				"y": -0.00215226,
				"z": -0.776119945,
				"element": "C" 
			},
			{
				"x": -2.6087575083,
				"y": -0.8866541478,
				"z": -1.7011197559,
				"element": "C" 
			},
			{
				"x": -0.1991791882,
				"y": 0.7021483708,
				"z": 1.5083358616,
				"element": "C" 
			},
			{
				"x": -0.6258294222,
				"y": 1.9838149243,
				"z": 1.9523120441,
				"element": "O" 
			},
			{
				"x": 0.0406826751,
				"y": 3.0366554632,
				"z": 1.2505031303,
				"element": "C" 
			},
			{
				"x": 1.5276725419,
				"y": 3.0475365252,
				"z": 1.6528309522,
				"element": "C" 
			},
			{
				"x": 1.9371145352,
				"y": 1.589257765,
				"z": 1.9363815237,
				"element": "C" 
			},
			{
				"x": 1.1621549269,
				"y": 0.7124621456,
				"z": 1.1176930842,
				"element": "O" 
			},
			{
				"x": -1.1650540554,
				"y": -2.2337538543,
				"z": -3.3981039879,
				"element": "H" 
			},
			{
				"x": 0.2998709581,
				"y": -2.1285125056,
				"z": -2.5980189519,
				"element": "H" 
			},
			{
				"x": 0.5722102456,
				"y": -0.9800901324,
				"z": -0.4893202846,
				"element": "H" 
			},
			{
				"x": -2.8054914899,
				"y": 1.2267159758,
				"z": 0.9705377058,
				"element": "H" 
			},
			{
				"x": -4.2048443882,
				"y": 0.2763480538,
				"z": -0.8637868378,
				"element": "H" 
			},
			{
				"x": -3.2242442914,
				"y": -1.3000603389,
				"z": -2.4966863998,
				"element": "H" 
			},
			{
				"x": -0.3254311977,
				"y": 0.0574152902,
				"z": 2.3947598765,
				"element": "H" 
			},
			{
				"x": -0.0686006072,
				"y": 2.8989394662,
				"z": 0.167061509,
				"element": "H" 
			},
			{
				"x": -0.4704177913,
				"y": 3.9605962905,
				"z": 1.5304482479,
				"element": "H" 
			},
			{
				"x": 2.1281666623,
				"y": 3.476809542,
				"z": 0.84299929,
				"element": "H" 
			},
			{
				"x": 1.6913871654,
				"y": 3.6594936987,
				"z": 2.5467379863,
				"element": "H" 
			},
			{
				"x": 1.787584104,
				"y": 1.3440553323,
				"z": 2.9976505582,
				"element": "H" 
			},
			{
				"x": 2.9830722655,
				"y": 1.3955970602,
				"z": 1.6869585058,
				"element": "H" 
			}
		],
		 "valence_orbital": [ 
			{
				"type": "occ",
				"energy": -0.2927,
				"method": "rhf"
			},
			{
				"type": "occ",
				"energy": -0.27652,
				"method": "rhf"
			},
			{
				"type": "occ",
				"energy": -0.24579,
				"method": "rhf"
			},
			{
				"type": "occ",
				"energy": -0.23674,
				"method": "rhf"
			},
			{
				"type": "occ",
				"energy": -0.19555,
				"method": "rhf"
			},
			{
				"type": "unocc",
				"energy": 0.00604,
				"method": "rhf"
			},
			{
				"type": "unocc",
				"energy": 0.02399,
				"method": "rhf"
			},
			{
				"type": "unocc",
				"energy": 0.0867,
				"method": "rhf"
			},
			{
				"type": "unocc",
				"energy": 0.09606,
				"method": "rhf"
			},
			{
				"type": "unocc",
				"energy": 0.11367,
				"method": "rhf"
			}
		],
		"cosmo_sigma_profile": { 
			"-0.025": 0.0,
			"-0.024": 0.0,
			"-0.023": 0.0,
			"-0.022": 0.0,
			"-0.021": 0.0,
			"-0.02": 0.0,
			"-0.019": 0.0,
			"-0.018": 0.0,
			"-0.017": 0.0,
			"-0.016": 0.0,
			"-0.015": 0.0,
			"-0.014": 0.0,
			"-0.013": 0.144444633897,
			"-0.012": 1.94688424226,
			"-0.011": 2.72739990229,
			"-0.01": 2.72619460346,
			"-0.009": 2.86471339142,
			"-0.008": 3.39731454597,
			"-0.007": 2.81097470387,
			"-0.006": 4.13797250197,
			"-0.005": 11.6313257288,
			"-0.004": 22.046145452,
			"-0.003": 27.5564343784,
			"-0.002": 21.5101655275,
			"-0.001": 14.5923110402,
			"0.0": 13.5074463026,
			"0.001": 9.24876476471,
			"0.002": 9.6282388396,
			"0.003": 9.57194172244,
			"0.004": 10.5398076534,
			"0.005": 10.7181196816,
			"0.006": 12.625882057,
			"0.007": 9.61945000515,
			"0.008": 3.91137034435,
			"0.009": 3.76779004312,
			"0.01": 2.80200262617,
			"0.011": 1.48133962964,
			"0.012": 2.38237134402,
			"0.013": 1.34464435425,
			"0.014": 0.533350485663,
			"0.015": 0.384257762234,
			"0.016": 0.00418902098709,
			"0.017": 0.0,
			"0.018": 0.0,
			"0.019": 0.0,
			"0.02": 0.0,
			"0.021": 0.0,
			"0.022": 0.0,
			"0.023": 0.0,
			"0.024": 0.0,
			"0.025": 0.0
		}
	}
}
