{
	 "smiles": "CC(C)CCCCCCCO", 
	 "Tm": 278.15, 
	 "num_atms": 33, 
	 "gaussian": { 
		 "optdone": 1, 
		 "sigma_profile": "yes", 
		 "theory": "DFT", 
		 "functional": "B3LYP", 
		 "basiset": "6-31G**", 
		 "properties": { 
			 "R2extent": 4228.5949, 
			 "electric_dipole_moment_norm": 1.36283409482, 
			 "electric_quadrupole_moment_norm": 10.6405711064, 
			 "total_energy": -469.566748826, 
			 "HOMO_LUMO_gap": 0.33542, 
			 "cosmo_polarized_energy": -5.75, 
			 "cosmo_cavitation_energy": 33.24, 
			 "cosmo_dispersion_energy": -23.44, 
			 "cosmo_repulsion_energy": 1.96, 
			 "cosmo_total_nonelectrostatic_energy": 11.77, 
			 "SMD_solvation_energy": 5.04 
		},
		"coords": [
			{
				"x": -2.6161994868,
				"y": 1.2600453148,
				"z": -2.7684415406,
				"element": "C" 
			},
			{
				"x": -2.4896251635,
				"y": -0.0701574354,
				"z": -2.0107648755,
				"element": "C" 
			},
			{
				"x": -3.746381217,
				"y": -0.3289690128,
				"z": -1.165392601,
				"element": "C" 
			},
			{
				"x": -1.197267873,
				"y": -0.0932966084,
				"z": -1.1698012207,
				"element": "C" 
			},
			{
				"x": -0.8718790568,
				"y": -1.4445838324,
				"z": -0.5154049993,
				"element": "C" 
			},
			{
				"x": 0.5058950922,
				"y": -1.5049342569,
				"z": 0.1656145161,
				"element": "C" 
			},
			{
				"x": 0.6616641529,
				"y": -0.5902938245,
				"z": 1.3894719125,
				"element": "C" 
			},
			{
				"x": 2.0229157448,
				"y": -0.7511401469,
				"z": 2.0807189667,
				"element": "C" 
			},
			{
				"x": 2.2571093061,
				"y": 0.1948795319,
				"z": 3.2695006821,
				"element": "C" 
			},
			{
				"x": 1.3530959506,
				"y": -0.0595256943,
				"z": 4.4723248693,
				"element": "C" 
			},
			{
				"x": 1.5898139065,
				"y": -1.3861461031,
				"z": 4.9338989759,
				"element": "O" 
			},
			{
				"x": -2.6927097012,
				"y": 2.1025791021,
				"z": -2.0698634886,
				"element": "H" 
			},
			{
				"x": -3.5096981981,
				"y": 1.2745309636,
				"z": -3.4022736001,
				"element": "H" 
			},
			{
				"x": -1.7465991099,
				"y": 1.4396124192,
				"z": -3.4102722784,
				"element": "H" 
			},
			{
				"x": -2.4140801393,
				"y": -0.8757714048,
				"z": -2.7572545742,
				"element": "H" 
			},
			{
				"x": -3.7190678544,
				"y": -1.3063208841,
				"z": -0.6741978875,
				"element": "H" 
			},
			{
				"x": -4.649245656,
				"y": -0.2966721826,
				"z": -1.7851430995,
				"element": "H" 
			},
			{
				"x": -3.8538039225,
				"y": 0.4344866681,
				"z": -0.3844247698,
				"element": "H" 
			},
			{
				"x": -1.2654073262,
				"y": 0.6903242575,
				"z": -0.4021112195,
				"element": "H" 
			},
			{
				"x": -0.3557143857,
				"y": 0.1909376408,
				"z": -1.8180082784,
				"element": "H" 
			},
			{
				"x": -0.9168294628,
				"y": -2.2271441911,
				"z": -1.2856917727,
				"element": "H" 
			},
			{
				"x": -1.6435276548,
				"y": -1.7009214473,
				"z": 0.2225092976,
				"element": "H" 
			},
			{
				"x": 1.2850980759,
				"y": -1.2599744584,
				"z": -0.5707213452,
				"element": "H" 
			},
			{
				"x": 0.6997223024,
				"y": -2.5404844836,
				"z": 0.4764464991,
				"element": "H" 
			},
			{
				"x": 0.5300479071,
				"y": 0.4590674743,
				"z": 1.0921169775,
				"element": "H" 
			},
			{
				"x": -0.1470625746,
				"y": -0.8115884572,
				"z": 2.0995217967,
				"element": "H" 
			},
			{
				"x": 2.8171707483,
				"y": -0.5817661184,
				"z": 1.3412437543,
				"element": "H" 
			},
			{
				"x": 2.137098158,
				"y": -1.78456973,
				"z": 2.4280302515,
				"element": "H" 
			},
			{
				"x": 3.2970456264,
				"y": 0.1007944825,
				"z": 3.6055023218,
				"element": "H" 
			},
			{
				"x": 2.1201007407,
				"y": 1.2383563402,
				"z": 2.9541593331,
				"element": "H" 
			},
			{
				"x": 1.5788074339,
				"y": 0.6797741498,
				"z": 5.2580469156,
				"element": "H" 
			},
			{
				"x": 0.296746063,
				"y": 0.0793284471,
				"z": 4.1918811502,
				"element": "H" 
			},
			{
				"x": 0.9820675736,
				"y": -1.5649565199,
				"z": 5.6614793308,
				"element": "H" 
			}
		],
		 "valence_orbital": [ 
			{
				"type": "occ",
				"energy": -0.31077,
				"method": "rhf"
			},
			{
				"type": "occ",
				"energy": -0.30556,
				"method": "rhf"
			},
			{
				"type": "occ",
				"energy": -0.30149,
				"method": "rhf"
			},
			{
				"type": "occ",
				"energy": -0.29622,
				"method": "rhf"
			},
			{
				"type": "occ",
				"energy": -0.26115,
				"method": "rhf"
			},
			{
				"type": "unocc",
				"energy": 0.07427,
				"method": "rhf"
			},
			{
				"type": "unocc",
				"energy": 0.0888,
				"method": "rhf"
			},
			{
				"type": "unocc",
				"energy": 0.10826,
				"method": "rhf"
			},
			{
				"type": "unocc",
				"energy": 0.11285,
				"method": "rhf"
			},
			{
				"type": "unocc",
				"energy": 0.11866,
				"method": "rhf"
			}
		],
		"cosmo_sigma_profile": { 
			"-0.025": 0.0,
			"-0.024": 0.0,
			"-0.023": 0.0,
			"-0.022": 0.0,
			"-0.021": 0.0,
			"-0.02": 0.0,
			"-0.019": 0.0,
			"-0.018": 0.0,
			"-0.017": 0.0,
			"-0.016": 0.16053281791,
			"-0.015": 1.04282883474,
			"-0.014": 0.993138053368,
			"-0.013": 0.873787471734,
			"-0.012": 0.566553187446,
			"-0.011": 1.06468260252,
			"-0.01": 0.742128061483,
			"-0.009": 0.909869895162,
			"-0.008": 0.305515555543,
			"-0.007": 1.19159818132,
			"-0.006": 0.862505386425,
			"-0.005": 1.46516584686,
			"-0.004": 0.895266586483,
			"-0.003": 8.5379386129,
			"-0.002": 35.3141812825,
			"-0.001": 56.4400137183,
			"0.0": 52.5248387429,
			"0.001": 45.0121951356,
			"0.002": 24.729905383,
			"0.003": 3.1328743255,
			"0.004": 1.757250789,
			"0.005": 0.813756878988,
			"0.006": 1.689594686,
			"0.007": 1.96609869508,
			"0.008": 1.39574539474,
			"0.009": 1.71861409923,
			"0.01": 1.83963047895,
			"0.011": 0.727381921936,
			"0.012": 1.55581995655,
			"0.013": 1.57473937955,
			"0.014": 1.10566599549,
			"0.015": 0.76319653795,
			"0.016": 0.018332779751,
			"0.017": 0.0,
			"0.018": 0.0,
			"0.019": 0.0,
			"0.02": 0.0,
			"0.021": 0.0,
			"0.022": 0.0,
			"0.023": 0.0,
			"0.024": 0.0,
			"0.025": 0.0
		}
	}
}
