{
	 "smiles": "OC(=O)C1=C(F)C=CC(F)=C1", 
	 "Tm": 405.15, 
	 "num_atms": 15, 
	 "gaussian": { 
		 "optdone": 1, 
		 "sigma_profile": "yes", 
		 "theory": "DFT", 
		 "functional": "B3LYP", 
		 "basiset": "6-31G**", 
		 "properties": { 
			 "R2extent": 2035.0603, 
			 "electric_dipole_moment_norm": 1.64688778913, 
			 "electric_quadrupole_moment_norm": 11.5594807483, 
			 "total_energy": -619.280620602, 
			 "HOMO_LUMO_gap": 0.1903, 
			 "cosmo_polarized_energy": -9.64, 
			 "cosmo_cavitation_energy": 21.12, 
			 "cosmo_dispersion_energy": -15.46, 
			 "cosmo_repulsion_energy": 1.2, 
			 "cosmo_total_nonelectrostatic_energy": 6.86, 
			 "SMD_solvation_energy": 5.92 
		},
		"coords": [
			{
				"x": -1.5561290513,
				"y": -1.680202669,
				"z": -1.8060722243,
				"element": "O" 
			},
			{
				"x": -0.5151285332,
				"y": -1.5688170084,
				"z": -0.9385276456,
				"element": "C" 
			},
			{
				"x": -0.1652236001,
				"y": -2.4900152671,
				"z": -0.2332914005,
				"element": "O" 
			},
			{
				"x": 0.0983028375,
				"y": -0.2128581632,
				"z": -0.9802282043,
				"element": "C" 
			},
			{
				"x": 1.1898773407,
				"y": 0.1171661386,
				"z": -0.1608970652,
				"element": "C" 
			},
			{
				"x": 1.7100917826,
				"y": -0.7823163218,
				"z": 0.6828418661,
				"element": "F" 
			},
			{
				"x": 1.769603108,
				"y": 1.3826557191,
				"z": -0.193471173,
				"element": "C" 
			},
			{
				"x": 1.2652348165,
				"y": 2.3537960274,
				"z": -1.0540890653,
				"element": "C" 
			},
			{
				"x": 0.182987957,
				"y": 2.0308948524,
				"z": -1.8682377374,
				"element": "C" 
			},
			{
				"x": -0.3090077656,
				"y": 2.9681637393,
				"z": -2.7033926106,
				"element": "F" 
			},
			{
				"x": -0.4021256382,
				"y": 0.7756021655,
				"z": -1.8447888748,
				"element": "C" 
			},
			{
				"x": -1.8833147525,
				"y": -2.588750498,
				"z": -1.7030846447,
				"element": "H" 
			},
			{
				"x": 2.6107615662,
				"y": 1.5871537566,
				"z": 0.4592679862,
				"element": "H" 
			},
			{
				"x": 1.6968492623,
				"y": 3.3475304065,
				"z": -1.1004841768,
				"element": "H" 
			},
			{
				"x": -1.2424793298,
				"y": 0.558297122,
				"z": -2.4913450299,
				"element": "H" 
			}
		],
		 "valence_orbital": [ 
			{
				"type": "occ",
				"energy": -0.3642,
				"method": "rhf"
			},
			{
				"type": "occ",
				"energy": -0.32541,
				"method": "rhf"
			},
			{
				"type": "occ",
				"energy": -0.28391,
				"method": "rhf"
			},
			{
				"type": "occ",
				"energy": -0.28041,
				"method": "rhf"
			},
			{
				"type": "occ",
				"energy": -0.25324,
				"method": "rhf"
			},
			{
				"type": "unocc",
				"energy": -0.06294,
				"method": "rhf"
			},
			{
				"type": "unocc",
				"energy": -0.0134,
				"method": "rhf"
			},
			{
				"type": "unocc",
				"energy": 0.04709,
				"method": "rhf"
			},
			{
				"type": "unocc",
				"energy": 0.06707,
				"method": "rhf"
			},
			{
				"type": "unocc",
				"energy": 0.08639,
				"method": "rhf"
			}
		],
		"cosmo_sigma_profile": { 
			"-0.025": 0.0,
			"-0.024": 0.0,
			"-0.023": 0.0,
			"-0.022": 0.0,
			"-0.021": 0.0,
			"-0.02": 0.0,
			"-0.019": 0.146817491425,
			"-0.018": 0.76309554072,
			"-0.017": 1.02085046223,
			"-0.016": 1.07551623927,
			"-0.015": 0.107388004519,
			"-0.014": 1.02089292122,
			"-0.013": 0.939582188922,
			"-0.012": 0.290083879223,
			"-0.011": 0.741564166894,
			"-0.01": 1.06993244621,
			"-0.009": 1.46180666192,
			"-0.008": 5.43560797199,
			"-0.007": 5.25707400899,
			"-0.006": 6.60196898587,
			"-0.005": 4.51970130161,
			"-0.004": 4.9889511868,
			"-0.003": 8.38452988697,
			"-0.002": 10.8732991224,
			"-0.001": 17.5875037832,
			"0.0": 22.7325963814,
			"0.001": 13.5296830421,
			"0.002": 9.98439196186,
			"0.003": 10.9278048234,
			"0.004": 15.6985336893,
			"0.005": 3.57215317048,
			"0.006": 4.53295807098,
			"0.007": 2.88827626559,
			"0.008": 1.51968651336,
			"0.009": 1.42582075817,
			"0.01": 3.3053540307,
			"0.011": 4.98512456448,
			"0.012": 2.90066201285,
			"0.013": 0.0,
			"0.014": 0.0,
			"0.015": 0.0,
			"0.016": 0.0,
			"0.017": 0.0,
			"0.018": 0.0,
			"0.019": 0.0,
			"0.02": 0.0,
			"0.021": 0.0,
			"0.022": 0.0,
			"0.023": 0.0,
			"0.024": 0.0,
			"0.025": 0.0
		}
	}
}
