{
	 "smiles": "COC1=C2N=CC(C(O)=O)=C(O)C2=C(OC)C=C1", 
	 "Tm": 546.15, 
	 "num_atms": 29, 
	 "gaussian": { 
		 "optdone": 1, 
		 "sigma_profile": "yes", 
		 "theory": "DFT", 
		 "functional": "B3LYP", 
		 "basiset": "6-31G**", 
		 "properties": { 
			 "R2extent": 4895.7998, 
			 "electric_dipole_moment_norm": 2.87633212964, 
			 "electric_quadrupole_moment_norm": 15.4349493608, 
			 "total_energy": -894.762151454, 
			 "HOMO_LUMO_gap": 0.15044, 
			 "cosmo_polarized_energy": -17.02, 
			 "cosmo_cavitation_energy": 32.71, 
			 "cosmo_dispersion_energy": -24.34, 
			 "cosmo_repulsion_energy": 1.85, 
			 "cosmo_total_nonelectrostatic_energy": 10.22, 
			 "SMD_solvation_energy": 7.64 
		},
		"coords": [
			{
				"x": 1.5472792463,
				"y": -4.4687702272,
				"z": -0.8198040016,
				"element": "C" 
			},
			{
				"x": 1.4902217996,
				"y": -3.4688713407,
				"z": -1.8435735984,
				"element": "O" 
			},
			{
				"x": 1.7140084338,
				"y": -2.173490464,
				"z": -1.4699608198,
				"element": "C" 
			},
			{
				"x": 0.8294301976,
				"y": -1.4682895716,
				"z": -0.5989138526,
				"element": "C" 
			},
			{
				"x": -0.2510489951,
				"y": -2.1539494063,
				"z": -0.105783152,
				"element": "N" 
			},
			{
				"x": -1.0873391378,
				"y": -1.5080366729,
				"z": 0.6617899313,
				"element": "C" 
			},
			{
				"x": -0.9681304106,
				"y": -0.1460317259,
				"z": 1.0409158609,
				"element": "C" 
			},
			{
				"x": -1.9322449752,
				"y": 0.548260504,
				"z": 1.9067444353,
				"element": "C" 
			},
			{
				"x": -3.0501526926,
				"y": -0.0872709953,
				"z": 2.3041554312,
				"element": "O" 
			},
			{
				"x": -1.764810679,
				"y": 1.7060307612,
				"z": 2.2919208912,
				"element": "O" 
			},
			{
				"x": 0.1553860032,
				"y": 0.5712514633,
				"z": 0.5740469168,
				"element": "C" 
			},
			{
				"x": 0.3576133169,
				"y": 1.8313019852,
				"z": 0.9253340222,
				"element": "O" 
			},
			{
				"x": 1.090083463,
				"y": -0.0878332065,
				"z": -0.2956740956,
				"element": "C" 
			},
			{
				"x": 2.2156523559,
				"y": 0.5564563835,
				"z": -0.8983985302,
				"element": "C" 
			},
			{
				"x": 2.4799969882,
				"y": 1.8894254487,
				"z": -0.7166890025,
				"element": "O" 
			},
			{
				"x": 3.2967521438,
				"y": 2.2097885651,
				"z": 0.410844725,
				"element": "C" 
			},
			{
				"x": 3.030893648,
				"y": -0.1566881099,
				"z": -1.7585076135,
				"element": "C" 
			},
			{
				"x": 2.7867263324,
				"y": -1.5105324843,
				"z": -2.0376040147,
				"element": "C" 
			},
			{
				"x": 0.7435015145,
				"y": -4.3359819908,
				"z": -0.0929175573,
				"element": "H" 
			},
			{
				"x": 2.5205628656,
				"y": -4.4486786121,
				"z": -0.3121177068,
				"element": "H" 
			},
			{
				"x": 1.4317907212,
				"y": -5.4256870935,
				"z": -1.3327588639,
				"element": "H" 
			},
			{
				"x": -1.9244260961,
				"y": -2.1063219992,
				"z": 1.0320689587,
				"element": "H" 
			},
			{
				"x": -3.1222479646,
				"y": -0.9606124072,
				"z": 1.8954096405,
				"element": "H" 
			},
			{
				"x": -0.4011305252,
				"y": 2.0779799149,
				"z": 1.5334729708,
				"element": "H" 
			},
			{
				"x": 3.4675963378,
				"y": 3.2870000199,
				"z": 0.3675347042,
				"element": "H" 
			},
			{
				"x": 4.2599683435,
				"y": 1.6854867247,
				"z": 0.359209888,
				"element": "H" 
			},
			{
				"x": 2.7921220473,
				"y": 1.9644696093,
				"z": 1.3510638708,
				"element": "H" 
			},
			{
				"x": 3.8635894614,
				"y": 0.3621771815,
				"z": -2.2217921375,
				"element": "H" 
			},
			{
				"x": 3.4304562562,
				"y": -2.062082254,
				"z": -2.7149173008,
				"element": "H" 
			}
		],
		 "valence_orbital": [ 
			{
				"type": "occ",
				"energy": -0.27508,
				"method": "rhf"
			},
			{
				"type": "occ",
				"energy": -0.27394,
				"method": "rhf"
			},
			{
				"type": "occ",
				"energy": -0.26684,
				"method": "rhf"
			},
			{
				"type": "occ",
				"energy": -0.26227,
				"method": "rhf"
			},
			{
				"type": "occ",
				"energy": -0.21958,
				"method": "rhf"
			},
			{
				"type": "unocc",
				"energy": -0.06914,
				"method": "rhf"
			},
			{
				"type": "unocc",
				"energy": -0.04793,
				"method": "rhf"
			},
			{
				"type": "unocc",
				"energy": 0.01361,
				"method": "rhf"
			},
			{
				"type": "unocc",
				"energy": 0.02113,
				"method": "rhf"
			},
			{
				"type": "unocc",
				"energy": 0.0413,
				"method": "rhf"
			}
		],
		"cosmo_sigma_profile": { 
			"-0.025": 0.0,
			"-0.024": 0.0,
			"-0.023": 0.0,
			"-0.022": 0.0,
			"-0.021": 0.0467740274011,
			"-0.02": 0.9248247136,
			"-0.019": 0.973118674902,
			"-0.018": 1.24681900059,
			"-0.017": 0.801940769551,
			"-0.016": 0.489929363161,
			"-0.015": 1.08448331164,
			"-0.014": 1.51193228327,
			"-0.013": 1.15142501112,
			"-0.012": 0.990648052212,
			"-0.011": 0.913173155555,
			"-0.01": 1.09120700557,
			"-0.009": 1.37631503133,
			"-0.008": 1.86054743846,
			"-0.007": 3.74247945393,
			"-0.006": 7.25522662129,
			"-0.005": 14.1650554632,
			"-0.004": 22.3557207072,
			"-0.003": 25.794409559,
			"-0.002": 29.0724618036,
			"-0.001": 20.0446974042,
			"0.0": 17.9480207627,
			"0.001": 16.3091424794,
			"0.002": 15.1650003882,
			"0.003": 13.4535529775,
			"0.004": 8.77141508982,
			"0.005": 6.58661482338,
			"0.006": 5.3005277647,
			"0.007": 6.43765124803,
			"0.008": 7.50091258748,
			"0.009": 7.66732818669,
			"0.01": 6.70543657173,
			"0.011": 6.72181946317,
			"0.012": 4.81573346628,
			"0.013": 1.51385057995,
			"0.014": 0.028148300207,
			"0.015": 0.0,
			"0.016": 0.0,
			"0.017": 0.0,
			"0.018": 0.0,
			"0.019": 0.0,
			"0.02": 0.0,
			"0.021": 0.0,
			"0.022": 0.0,
			"0.023": 0.0,
			"0.024": 0.0,
			"0.025": 0.0
		}
	}
}
