{
	 "smiles": "NC1=CC2=C(NC(=N2)C2=CC=C(F)C=C2)C=C1", 
	 "Tm": 392.15, 
	 "num_atms": 27, 
	 "gaussian": { 
		 "optdone": 1, 
		 "sigma_profile": "yes", 
		 "theory": "DFT", 
		 "functional": "B3LYP", 
		 "basiset": "6-31G**", 
		 "properties": { 
			 "R2extent": 7070.7528, 
			 "electric_dipole_moment_norm": 2.99469205262, 
			 "electric_quadrupole_moment_norm": 16.1177510134, 
			 "total_energy": -765.520854122, 
			 "HOMO_LUMO_gap": 0.14703, 
			 "cosmo_polarized_energy": -17.7, 
			 "cosmo_cavitation_energy": 32.05, 
			 "cosmo_dispersion_energy": -23.89, 
			 "cosmo_repulsion_energy": 1.79, 
			 "cosmo_total_nonelectrostatic_energy": 9.95, 
			 "SMD_solvation_energy": 3.69 
		},
		"coords": [
			{
				"x": 0.430328854,
				"y": 2.8066799011,
				"z": -2.9361712559,
				"element": "N" 
			},
			{
				"x": 0.2208168385,
				"y": 1.9832195332,
				"z": -1.8173300924,
				"element": "C" 
			},
			{
				"x": 0.8639334331,
				"y": 0.7470927251,
				"z": -1.7090850449,
				"element": "C" 
			},
			{
				"x": 0.6750411244,
				"y": -0.0066258711,
				"z": -0.5438460266,
				"element": "C" 
			},
			{
				"x": -0.1590989602,
				"y": 0.4783610225,
				"z": 0.4916860874,
				"element": "C" 
			},
			{
				"x": -0.125632939,
				"y": -0.5124945775,
				"z": 1.4608019368,
				"element": "N" 
			},
			{
				"x": 0.7060277537,
				"y": -1.5124310947,
				"z": 0.9945085399,
				"element": "C" 
			},
			{
				"x": 1.1945499753,
				"y": -1.2412246299,
				"z": -0.2017553206,
				"element": "N" 
			},
			{
				"x": 1.003017345,
				"y": -2.7309338047,
				"z": 1.7530023608,
				"element": "C" 
			},
			{
				"x": 1.9971055688,
				"y": -3.6007927899,
				"z": 1.2693739922,
				"element": "C" 
			},
			{
				"x": 2.3179229225,
				"y": -4.7679014438,
				"z": 1.9529742267,
				"element": "C" 
			},
			{
				"x": 1.6379058164,
				"y": -5.0654295271,
				"z": 3.1307238358,
				"element": "C" 
			},
			{
				"x": 1.9466701598,
				"y": -6.1949572777,
				"z": 3.7994613536,
				"element": "F" 
			},
			{
				"x": 0.646578787,
				"y": -4.2325437608,
				"z": 3.6362938679,
				"element": "C" 
			},
			{
				"x": 0.3321965115,
				"y": -3.0670801982,
				"z": 2.9402650611,
				"element": "C" 
			},
			{
				"x": -0.8096528494,
				"y": 1.7078215339,
				"z": 0.3972417831,
				"element": "C" 
			},
			{
				"x": -0.6065048244,
				"y": 2.4482536634,
				"z": -0.7623172091,
				"element": "C" 
			},
			{
				"x": 0.7329079713,
				"y": 2.3087284524,
				"z": -3.7630496948,
				"element": "H" 
			},
			{
				"x": -0.3443090273,
				"y": 3.420912537,
				"z": -3.1504584097,
				"element": "H" 
			},
			{
				"x": 1.5024874888,
				"y": 0.3724938412,
				"z": -2.5035982047,
				"element": "H" 
			},
			{
				"x": -0.551345903,
				"y": -0.4652155047,
				"z": 2.3719522299,
				"element": "H" 
			},
			{
				"x": 2.5065652388,
				"y": -3.3372154275,
				"z": 0.3494081944,
				"element": "H" 
			},
			{
				"x": 3.0836303024,
				"y": -5.4456367153,
				"z": 1.5913188304,
				"element": "H" 
			},
			{
				"x": 0.1335770217,
				"y": -4.5034361723,
				"z": 4.5524821072,
				"element": "H" 
			},
			{
				"x": -0.4585944639,
				"y": -2.4322502078,
				"z": 3.3298168799,
				"element": "H" 
			},
			{
				"x": -1.4514149847,
				"y": 2.084592988,
				"z": 1.188206258,
				"element": "H" 
			},
			{
				"x": -1.0885091611,
				"y": 3.4169128057,
				"z": -0.8659062863,
				"element": "H" 
			}
		],
		 "valence_orbital": [ 
			{
				"type": "occ",
				"energy": -0.26649,
				"method": "rhf"
			},
			{
				"type": "occ",
				"energy": -0.26472,
				"method": "rhf"
			},
			{
				"type": "occ",
				"energy": -0.2562,
				"method": "rhf"
			},
			{
				"type": "occ",
				"energy": -0.21026,
				"method": "rhf"
			},
			{
				"type": "occ",
				"energy": -0.18707,
				"method": "rhf"
			},
			{
				"type": "unocc",
				"energy": -0.04004,
				"method": "rhf"
			},
			{
				"type": "unocc",
				"energy": -0.01484,
				"method": "rhf"
			},
			{
				"type": "unocc",
				"energy": 0.01655,
				"method": "rhf"
			},
			{
				"type": "unocc",
				"energy": 0.03973,
				"method": "rhf"
			},
			{
				"type": "unocc",
				"energy": 0.05944,
				"method": "rhf"
			}
		],
		"cosmo_sigma_profile": { 
			"-0.025": 0.0,
			"-0.024": 0.0,
			"-0.023": 0.0,
			"-0.022": 0.0,
			"-0.021": 0.0,
			"-0.02": 0.0,
			"-0.019": 0.0,
			"-0.018": 0.0,
			"-0.017": 0.222700118472,
			"-0.016": 1.29977339571,
			"-0.015": 1.79795058084,
			"-0.014": 0.80385344609,
			"-0.013": 1.25868012745,
			"-0.012": 3.03818908206,
			"-0.011": 4.52576344796,
			"-0.01": 3.78365041914,
			"-0.009": 4.17572777,
			"-0.008": 6.55450855173,
			"-0.007": 9.06953801607,
			"-0.006": 12.2658258533,
			"-0.005": 13.9246542843,
			"-0.004": 11.9717866102,
			"-0.003": 10.4631617774,
			"-0.002": 10.1578465807,
			"-0.001": 10.1165296591,
			"0.0": 15.5352084724,
			"0.001": 18.1971966751,
			"0.002": 20.6934801648,
			"0.003": 26.0825293208,
			"0.004": 21.9998758217,
			"0.005": 12.700094054,
			"0.006": 13.9329749766,
			"0.007": 5.75255969755,
			"0.008": 3.13615002802,
			"0.009": 1.95532783994,
			"0.01": 2.10673856818,
			"0.011": 2.25584127488,
			"0.012": 1.48652198205,
			"0.013": 2.46713206169,
			"0.014": 1.64291172067,
			"0.015": 1.32963683913,
			"0.016": 0.669062997831,
			"0.017": 0.0,
			"0.018": 0.0,
			"0.019": 0.0,
			"0.02": 0.0,
			"0.021": 0.0,
			"0.022": 0.0,
			"0.023": 0.0,
			"0.024": 0.0,
			"0.025": 0.0
		}
	}
}
