{
	 "smiles": "CCC(C1=CC=CC=C1)C1=CC=CC=C1", 
	 "Tm": 286.85, 
	 "num_atms": 31, 
	 "gaussian": { 
		 "optdone": 1, 
		 "sigma_profile": "yes", 
		 "theory": "DFT", 
		 "functional": "B3LYP", 
		 "basiset": "6-31G**", 
		 "properties": { 
			 "R2extent": 3607.4712, 
			 "electric_dipole_moment_norm": 0.255250817824, 
			 "electric_quadrupole_moment_norm": 3.84231427528, 
			 "total_energy": -581.248617843, 
			 "HOMO_LUMO_gap": 0.22563, 
			 "cosmo_polarized_energy": -4.98, 
			 "cosmo_cavitation_energy": 32.5, 
			 "cosmo_dispersion_energy": -22.94, 
			 "cosmo_repulsion_energy": 1.8, 
			 "cosmo_total_nonelectrostatic_energy": 11.35, 
			 "SMD_solvation_energy": 5.32 
		},
		"coords": [
			{
				"x": -1.2830408443,
				"y": 1.8054883749,
				"z": 2.1818453466,
				"element": "C" 
			},
			{
				"x": 0.0960586825,
				"y": 1.2020206633,
				"z": 2.474129954,
				"element": "C" 
			},
			{
				"x": 0.8443459793,
				"y": 0.5579003858,
				"z": 1.273210049,
				"element": "C" 
			},
			{
				"x": 1.1095497175,
				"y": 1.594325444,
				"z": 0.1820592133,
				"element": "C" 
			},
			{
				"x": 2.2949183913,
				"y": 2.3419418418,
				"z": 0.2099598283,
				"element": "C" 
			},
			{
				"x": 2.5454564243,
				"y": 3.3365332503,
				"z": -0.7369479793,
				"element": "C" 
			},
			{
				"x": 1.6084419468,
				"y": 3.6018006598,
				"z": -1.7363622929,
				"element": "C" 
			},
			{
				"x": 0.424386685,
				"y": 2.8629934799,
				"z": -1.7797617217,
				"element": "C" 
			},
			{
				"x": 0.178684413,
				"y": 1.8692746413,
				"z": -0.831200239,
				"element": "C" 
			},
			{
				"x": 0.2387883946,
				"y": -0.7485965092,
				"z": 0.7451311557,
				"element": "C" 
			},
			{
				"x": 0.7637335283,
				"y": -1.3245313683,
				"z": -0.4247870135,
				"element": "C" 
			},
			{
				"x": 0.298658926,
				"y": -2.5477164834,
				"z": -0.9033772003,
				"element": "C" 
			},
			{
				"x": -0.7106041988,
				"y": -3.2320011546,
				"z": -0.2218280786,
				"element": "C" 
			},
			{
				"x": -1.2385644175,
				"y": -2.6789833843,
				"z": 0.9429279959,
				"element": "C" 
			},
			{
				"x": -0.7663812872,
				"y": -1.4530587127,
				"z": 1.4213350611,
				"element": "C" 
			},
			{
				"x": -1.21189775,
				"y": 2.6288719728,
				"z": 1.465788744,
				"element": "H" 
			},
			{
				"x": -1.7251311238,
				"y": 2.2020254419,
				"z": 3.1019323992,
				"element": "H" 
			},
			{
				"x": -1.9785544156,
				"y": 1.0682380723,
				"z": 1.7696639532,
				"element": "H" 
			},
			{
				"x": 0.7464195423,
				"y": 1.9915476404,
				"z": 2.8689301501,
				"element": "H" 
			},
			{
				"x": 0.0155812711,
				"y": 0.4568616778,
				"z": 3.2750122657,
				"element": "H" 
			},
			{
				"x": 1.8317270543,
				"y": 0.2811184008,
				"z": 1.6712702691,
				"element": "H" 
			},
			{
				"x": 3.032829248,
				"y": 2.1395946172,
				"z": 0.9833392877,
				"element": "H" 
			},
			{
				"x": 3.47447593,
				"y": 3.8985972502,
				"z": -0.696350894,
				"element": "H" 
			},
			{
				"x": 1.8008592901,
				"y": 4.3723115962,
				"z": -2.4774912406,
				"element": "H" 
			},
			{
				"x": -0.3103035236,
				"y": 3.0576876276,
				"z": -2.5563244166,
				"element": "H" 
			},
			{
				"x": -0.7385361313,
				"y": 1.2907246024,
				"z": -0.8849485297,
				"element": "H" 
			},
			{
				"x": 1.5469752623,
				"y": -0.8030512933,
				"z": -0.9672602724,
				"element": "H" 
			},
			{
				"x": 0.7258026772,
				"y": -2.9673119357,
				"z": -1.8101786185,
				"element": "H" 
			},
			{
				"x": -1.0775544896,
				"y": -4.1841637332,
				"z": -0.594218112,
				"element": "H" 
			},
			{
				"x": -2.0218599664,
				"y": -3.1991916756,
				"z": 1.4875593423,
				"element": "H" 
			},
			{
				"x": -1.1916652158,
				"y": -1.0554513902,
				"z": 2.3360415943,
				"element": "H" 
			}
		],
		 "valence_orbital": [ 
			{
				"type": "occ",
				"energy": -0.31478,
				"method": "rhf"
			},
			{
				"type": "occ",
				"energy": -0.24873,
				"method": "rhf"
			},
			{
				"type": "occ",
				"energy": -0.24483,
				"method": "rhf"
			},
			{
				"type": "occ",
				"energy": -0.2429,
				"method": "rhf"
			},
			{
				"type": "occ",
				"energy": -0.22985,
				"method": "rhf"
			},
			{
				"type": "unocc",
				"energy": -0.00422,
				"method": "rhf"
			},
			{
				"type": "unocc",
				"energy": -4e-05,
				"method": "rhf"
			},
			{
				"type": "unocc",
				"energy": 0.00463,
				"method": "rhf"
			},
			{
				"type": "unocc",
				"energy": 0.01,
				"method": "rhf"
			},
			{
				"type": "unocc",
				"energy": 0.09009,
				"method": "rhf"
			}
		],
		"cosmo_sigma_profile": { 
			"-0.025": 0.0,
			"-0.024": 0.0,
			"-0.023": 0.0,
			"-0.022": 0.0,
			"-0.021": 0.0,
			"-0.02": 0.0,
			"-0.019": 0.0,
			"-0.018": 0.0,
			"-0.017": 0.0,
			"-0.016": 0.0,
			"-0.015": 0.0,
			"-0.014": 0.0,
			"-0.013": 0.0,
			"-0.012": 0.0,
			"-0.011": 0.0,
			"-0.01": 0.0,
			"-0.009": 0.0,
			"-0.008": 0.0,
			"-0.007": 0.0,
			"-0.006": 2.57825440719,
			"-0.005": 17.0169630476,
			"-0.004": 22.4946768008,
			"-0.003": 29.1923160493,
			"-0.002": 26.4528006878,
			"-0.001": 28.3901852194,
			"0.0": 24.7130714468,
			"0.001": 25.1083843009,
			"0.002": 16.7582700709,
			"0.003": 15.8756695985,
			"0.004": 14.602683498,
			"0.005": 14.6929750599,
			"0.006": 14.773400915,
			"0.007": 4.58515364183,
			"0.008": 0.0,
			"0.009": 0.0,
			"0.01": 0.0,
			"0.011": 0.0,
			"0.012": 0.0,
			"0.013": 0.0,
			"0.014": 0.0,
			"0.015": 0.0,
			"0.016": 0.0,
			"0.017": 0.0,
			"0.018": 0.0,
			"0.019": 0.0,
			"0.02": 0.0,
			"0.021": 0.0,
			"0.022": 0.0,
			"0.023": 0.0,
			"0.024": 0.0,
			"0.025": 0.0
		}
	}
}
