{
	 "smiles": "ClC1=CC=NC=C1", 
	 "Tm": 229.65, 
	 "num_atms": 11, 
	 "gaussian": { 
		 "optdone": 1, 
		 "sigma_profile": "yes", 
		 "theory": "DFT", 
		 "functional": "B3LYP", 
		 "basiset": "6-31G**", 
		 "properties": { 
			 "R2extent": 1330.6604, 
			 "electric_dipole_moment_norm": 0.497434618819, 
			 "electric_quadrupole_moment_norm": 8.56254885183, 
			 "total_energy": -707.877876025, 
			 "HOMO_LUMO_gap": 0.23015, 
			 "cosmo_polarized_energy": -5.21, 
			 "cosmo_cavitation_energy": 16.93, 
			 "cosmo_dispersion_energy": -12.97, 
			 "cosmo_repulsion_energy": 1.09, 
			 "cosmo_total_nonelectrostatic_energy": 5.05, 
			 "SMD_solvation_energy": 1.41 
		},
		"coords": [
			{
				"x": 1.9625244678,
				"y": 1.3468193789,
				"z": 1.2841131057,
				"element": "Cl" 
			},
			{
				"x": 0.2970220861,
				"y": 0.805503619,
				"z": 1.3109899715,
				"element": "C" 
			},
			{
				"x": -0.6288916855,
				"y": 1.348534789,
				"z": 0.4234576606,
				"element": "C" 
			},
			{
				"x": -1.9412925133,
				"y": 0.8768829534,
				"z": 0.4928410541,
				"element": "C" 
			},
			{
				"x": -2.3595687585,
				"y": -0.0579625458,
				"z": 1.3538736695,
				"element": "N" 
			},
			{
				"x": -1.4467625316,
				"y": -0.5601585582,
				"z": 2.193427763,
				"element": "C" 
			},
			{
				"x": -0.1064610773,
				"y": -0.1695944163,
				"z": 2.219992431,
				"element": "C" 
			},
			{
				"x": -0.341953471,
				"y": 2.1085201359,
				"z": -0.2941070724,
				"element": "H" 
			},
			{
				"x": -2.6919727601,
				"y": 1.2784271583,
				"z": -0.1853459416,
				"element": "H" 
			},
			{
				"x": -1.7978390805,
				"y": -1.3197937706,
				"z": 2.8894125098,
				"element": "H" 
			},
			{
				"x": 0.5931953241,
				"y": -0.6088787437,
				"z": 2.9216448489,
				"element": "H" 
			}
		],
		 "valence_orbital": [ 
			{
				"type": "occ",
				"energy": -0.36207,
				"method": "rhf"
			},
			{
				"type": "occ",
				"energy": -0.3249,
				"method": "rhf"
			},
			{
				"type": "occ",
				"energy": -0.27786,
				"method": "rhf"
			},
			{
				"type": "occ",
				"energy": -0.27702,
				"method": "rhf"
			},
			{
				"type": "occ",
				"energy": -0.26675,
				"method": "rhf"
			},
			{
				"type": "unocc",
				"energy": -0.0366,
				"method": "rhf"
			},
			{
				"type": "unocc",
				"energy": -0.02544,
				"method": "rhf"
			},
			{
				"type": "unocc",
				"energy": 0.01836,
				"method": "rhf"
			},
			{
				"type": "unocc",
				"energy": 0.12148,
				"method": "rhf"
			},
			{
				"type": "unocc",
				"energy": 0.12832,
				"method": "rhf"
			}
		],
		"cosmo_sigma_profile": { 
			"-0.025": 0.0,
			"-0.024": 0.0,
			"-0.023": 0.0,
			"-0.022": 0.0,
			"-0.021": 0.0,
			"-0.02": 0.0,
			"-0.019": 0.0,
			"-0.018": 0.0,
			"-0.017": 0.0,
			"-0.016": 0.0,
			"-0.015": 0.0,
			"-0.014": 0.0,
			"-0.013": 0.0,
			"-0.012": 0.0,
			"-0.011": 0.0,
			"-0.01": 0.0,
			"-0.009": 0.158433081191,
			"-0.008": 3.5651471967,
			"-0.007": 8.65052202073,
			"-0.006": 8.60241048768,
			"-0.005": 6.30827805784,
			"-0.004": 6.88101626043,
			"-0.003": 6.1040669074,
			"-0.002": 7.06919120719,
			"-0.001": 9.95830708945,
			"0.0": 16.1617895643,
			"0.001": 21.2480064347,
			"0.002": 10.7610781119,
			"0.003": 9.12333412299,
			"0.004": 11.5209742552,
			"0.005": 1.7684239389,
			"0.006": 0.792816216825,
			"0.007": 1.60038820823,
			"0.008": 1.32146966251,
			"0.009": 0.990853128244,
			"0.01": 1.01567853735,
			"0.011": 0.756066003463,
			"0.012": 1.13111874579,
			"0.013": 0.870193815651,
			"0.014": 0.982748519458,
			"0.015": 0.756866298138,
			"0.016": 0.790858977863,
			"0.017": 0.0150479527635,
			"0.018": 0.0,
			"0.019": 0.0,
			"0.02": 0.0,
			"0.021": 0.0,
			"0.022": 0.0,
			"0.023": 0.0,
			"0.024": 0.0,
			"0.025": 0.0
		}
	}
}
