{
	 "smiles": "ClC1=C2C=CC=CC2=NC=C1C#N", 
	 "Tm": 402.15, 
	 "num_atms": 18, 
	 "gaussian": { 
		 "optdone": 1, 
		 "sigma_profile": "yes", 
		 "theory": "DFT", 
		 "functional": "B3LYP", 
		 "basiset": "6-31G**", 
		 "properties": { 
			 "R2extent": 2971.0424, 
			 "electric_dipole_moment_norm": 5.07494516818, 
			 "electric_quadrupole_moment_norm": 10.772131504, 
			 "total_energy": -953.756238531, 
			 "HOMO_LUMO_gap": 0.16589, 
			 "cosmo_polarized_energy": -9.27, 
			 "cosmo_cavitation_energy": 25.33, 
			 "cosmo_dispersion_energy": -18.47, 
			 "cosmo_repulsion_energy": 1.43, 
			 "cosmo_total_nonelectrostatic_energy": 8.28, 
			 "SMD_solvation_energy": 3.79 
		},
		"coords": [
			{
				"x": -0.1393110167,
				"y": -2.8713419597,
				"z": -1.6174618076,
				"element": "Cl" 
			},
			{
				"x": -0.3487220154,
				"y": -1.6751730318,
				"z": -0.3693334745,
				"element": "C" 
			},
			{
				"x": 0.7655688394,
				"y": -0.9364580116,
				"z": 0.1119983758,
				"element": "C" 
			},
			{
				"x": 2.0952712871,
				"y": -1.0976696781,
				"z": -0.3589604213,
				"element": "C" 
			},
			{
				"x": 3.1152358271,
				"y": -0.3369120366,
				"z": 0.166392678,
				"element": "C" 
			},
			{
				"x": 2.8564820153,
				"y": 0.6156748184,
				"z": 1.1815418846,
				"element": "C" 
			},
			{
				"x": 1.5776643316,
				"y": 0.7944826077,
				"z": 1.658343083,
				"element": "C" 
			},
			{
				"x": 0.5013697102,
				"y": 0.0292930296,
				"z": 1.1416752369,
				"element": "C" 
			},
			{
				"x": -0.7446883462,
				"y": 0.2519344408,
				"z": 1.6548671131,
				"element": "N" 
			},
			{
				"x": -1.7413531381,
				"y": -0.4520393982,
				"z": 1.1810764741,
				"element": "C" 
			},
			{
				"x": -1.611412341,
				"y": -1.4426366682,
				"z": 0.1576844748,
				"element": "C" 
			},
			{
				"x": -2.7755911046,
				"y": -2.1466598411,
				"z": -0.2772135007,
				"element": "C" 
			},
			{
				"x": -3.7514454162,
				"y": -2.6926643012,
				"z": -0.5974975346,
				"element": "N" 
			},
			{
				"x": 2.2958599735,
				"y": -1.826133552,
				"z": -1.1358433151,
				"element": "H" 
			},
			{
				"x": 4.1284274584,
				"y": -0.4680279079,
				"z": -0.200755277,
				"element": "H" 
			},
			{
				"x": 3.6743094235,
				"y": 1.2062128908,
				"z": 1.5832838738,
				"element": "H" 
			},
			{
				"x": 1.3472239076,
				"y": 1.5156879919,
				"z": 2.4349835552,
				"element": "H" 
			},
			{
				"x": -2.7303893956,
				"y": -0.2679693928,
				"z": 1.5958185814,
				"element": "H" 
			}
		],
		 "valence_orbital": [ 
			{
				"type": "occ",
				"energy": -0.33666,
				"method": "rhf"
			},
			{
				"type": "occ",
				"energy": -0.30678,
				"method": "rhf"
			},
			{
				"type": "occ",
				"energy": -0.28305,
				"method": "rhf"
			},
			{
				"type": "occ",
				"energy": -0.27596,
				"method": "rhf"
			},
			{
				"type": "occ",
				"energy": -0.25604,
				"method": "rhf"
			},
			{
				"type": "unocc",
				"energy": -0.09015,
				"method": "rhf"
			},
			{
				"type": "unocc",
				"energy": -0.056,
				"method": "rhf"
			},
			{
				"type": "unocc",
				"energy": -0.00592,
				"method": "rhf"
			},
			{
				"type": "unocc",
				"energy": 0.00615,
				"method": "rhf"
			},
			{
				"type": "unocc",
				"energy": 0.02453,
				"method": "rhf"
			}
		],
		"cosmo_sigma_profile": { 
			"-0.025": 0.0,
			"-0.024": 0.0,
			"-0.023": 0.0,
			"-0.022": 0.0,
			"-0.021": 0.0,
			"-0.02": 0.0,
			"-0.019": 0.0,
			"-0.018": 0.0,
			"-0.017": 0.0,
			"-0.016": 0.0,
			"-0.015": 0.0,
			"-0.014": 0.0,
			"-0.013": 0.0,
			"-0.012": 0.0,
			"-0.011": 0.0,
			"-0.01": 0.0341150789834,
			"-0.009": 1.52003592624,
			"-0.008": 2.92020031956,
			"-0.007": 8.83161498508,
			"-0.006": 10.5978148134,
			"-0.005": 10.7437299352,
			"-0.004": 13.5390129529,
			"-0.003": 21.1893649649,
			"-0.002": 18.8873249023,
			"-0.001": 13.9774844399,
			"0.0": 18.6111685868,
			"0.001": 19.3493492556,
			"0.002": 21.9196114125,
			"0.003": 10.1618237108,
			"0.004": 4.06168027101,
			"0.005": 4.20412506108,
			"0.006": 3.59669067441,
			"0.007": 4.2646499116,
			"0.008": 4.32203283651,
			"0.009": 4.35887168799,
			"0.01": 3.79200763483,
			"0.011": 3.36538856599,
			"0.012": 2.75023029481,
			"0.013": 0.719889860587,
			"0.014": 0.715130465276,
			"0.015": 0.0830914256959,
			"0.016": 0.0,
			"0.017": 0.0,
			"0.018": 0.0,
			"0.019": 0.0,
			"0.02": 0.0,
			"0.021": 0.0,
			"0.022": 0.0,
			"0.023": 0.0,
			"0.024": 0.0,
			"0.025": 0.0
		}
	}
}
