{
	 "smiles": "O=C(CC1=CC=CC=C1)CC1=CC=CC=C1", 
	 "Tm": 306.65, 
	 "num_atms": 30, 
	 "gaussian": { 
		 "optdone": 1, 
		 "sigma_profile": "yes", 
		 "theory": "DFT", 
		 "functional": "B3LYP", 
		 "basiset": "6-31G**", 
		 "properties": { 
			 "R2extent": 4879.6142, 
			 "electric_dipole_moment_norm": 2.44479448625, 
			 "electric_quadrupole_moment_norm": 9.09852287902, 
			 "total_energy": -655.262610342, 
			 "HOMO_LUMO_gap": 0.20073, 
			 "cosmo_polarized_energy": -9.21, 
			 "cosmo_cavitation_energy": 34.31, 
			 "cosmo_dispersion_energy": -23.49, 
			 "cosmo_repulsion_energy": 1.83, 
			 "cosmo_total_nonelectrostatic_energy": 12.65, 
			 "SMD_solvation_energy": 5.94 
		},
		"coords": [
			{
				"x": 0.0054400848,
				"y": -1.8559936733,
				"z": 1.7712713251,
				"element": "O" 
			},
			{
				"x": -0.2318359698,
				"y": -0.8517252474,
				"z": 1.1274316153,
				"element": "C" 
			},
			{
				"x": -1.3296408659,
				"y": -0.8250632443,
				"z": 0.062087017,
				"element": "C" 
			},
			{
				"x": -2.5946467233,
				"y": -0.1817780275,
				"z": 0.6074045246,
				"element": "C" 
			},
			{
				"x": -3.0882487524,
				"y": 1.0154987193,
				"z": 0.0749382647,
				"element": "C" 
			},
			{
				"x": -4.2478575939,
				"y": 1.6002459864,
				"z": 0.5889869604,
				"element": "C" 
			},
			{
				"x": -4.9267486528,
				"y": 0.9953098005,
				"z": 1.6471079798,
				"element": "C" 
			},
			{
				"x": -4.4398778582,
				"y": -0.1975018424,
				"z": 2.1879551948,
				"element": "C" 
			},
			{
				"x": -3.2824304837,
				"y": -0.7804099378,
				"z": 1.673589843,
				"element": "C" 
			},
			{
				"x": 0.5538087817,
				"y": 0.4428862713,
				"z": 1.3458978516,
				"element": "C" 
			},
			{
				"x": 1.6310301882,
				"y": 0.6053260516,
				"z": 0.2854227652,
				"element": "C" 
			},
			{
				"x": 2.6815333596,
				"y": -0.3210358296,
				"z": 0.2052237081,
				"element": "C" 
			},
			{
				"x": 3.6723131621,
				"y": -0.1879679692,
				"z": -0.7667230561,
				"element": "C" 
			},
			{
				"x": 3.6271357516,
				"y": 0.8714176466,
				"z": -1.676679472,
				"element": "C" 
			},
			{
				"x": 2.5844530942,
				"y": 1.7957938109,
				"z": -1.6074044771,
				"element": "C" 
			},
			{
				"x": 1.5923390077,
				"y": 1.6611090891,
				"z": -0.6335116127,
				"element": "C" 
			},
			{
				"x": -1.5203997179,
				"y": -1.8610086549,
				"z": -0.2333946699,
				"element": "H" 
			},
			{
				"x": -0.9766207935,
				"y": -0.2709544777,
				"z": -0.8139058191,
				"element": "H" 
			},
			{
				"x": -2.5674669965,
				"y": 1.4879765993,
				"z": -0.7544742335,
				"element": "H" 
			},
			{
				"x": -4.6200919106,
				"y": 2.5265459532,
				"z": 0.160336645,
				"element": "H" 
			},
			{
				"x": -5.8293335966,
				"y": 1.448119117,
				"z": 2.0471635407,
				"element": "H" 
			},
			{
				"x": -4.9626733376,
				"y": -0.6747193096,
				"z": 3.0120680965,
				"element": "H" 
			},
			{
				"x": -2.9011567379,
				"y": -1.7048281484,
				"z": 2.0991551393,
				"element": "H" 
			},
			{
				"x": -0.1311922195,
				"y": 1.2966364695,
				"z": 1.3164724385,
				"element": "H" 
			},
			{
				"x": 1.0000977716,
				"y": 0.3872803495,
				"z": 2.3431965759,
				"element": "H" 
			},
			{
				"x": 2.714136552,
				"y": -1.1489737875,
				"z": 0.9084100517,
				"element": "H" 
			},
			{
				"x": 4.4808335574,
				"y": -0.9120246843,
				"z": -0.8141591077,
				"element": "H" 
			},
			{
				"x": 4.4001249406,
				"y": 0.975490513,
				"z": -2.4325871367,
				"element": "H" 
			},
			{
				"x": 2.5421464429,
				"y": 2.6241498803,
				"z": -2.3090932206,
				"element": "H" 
			},
			{
				"x": 0.7861295156,
				"y": 2.3887985763,
				"z": -0.5799867318,
				"element": "H" 
			}
		],
		 "valence_orbital": [ 
			{
				"type": "occ",
				"energy": -0.26435,
				"method": "rhf"
			},
			{
				"type": "occ",
				"energy": -0.25366,
				"method": "rhf"
			},
			{
				"type": "occ",
				"energy": -0.25281,
				"method": "rhf"
			},
			{
				"type": "occ",
				"energy": -0.24959,
				"method": "rhf"
			},
			{
				"type": "occ",
				"energy": -0.22973,
				"method": "rhf"
			},
			{
				"type": "unocc",
				"energy": -0.029,
				"method": "rhf"
			},
			{
				"type": "unocc",
				"energy": -0.00861,
				"method": "rhf"
			},
			{
				"type": "unocc",
				"energy": -0.00537,
				"method": "rhf"
			},
			{
				"type": "unocc",
				"energy": -0.00382,
				"method": "rhf"
			},
			{
				"type": "unocc",
				"energy": 0.01446,
				"method": "rhf"
			}
		],
		"cosmo_sigma_profile": { 
			"-0.025": 0.0,
			"-0.024": 0.0,
			"-0.023": 0.0,
			"-0.022": 0.0,
			"-0.021": 0.0,
			"-0.02": 0.0,
			"-0.019": 0.0,
			"-0.018": 0.0,
			"-0.017": 0.0,
			"-0.016": 0.0,
			"-0.015": 0.0,
			"-0.014": 0.0,
			"-0.013": 0.0,
			"-0.012": 0.0,
			"-0.011": 0.0,
			"-0.01": 0.0,
			"-0.009": 0.0,
			"-0.008": 0.0,
			"-0.007": 0.0,
			"-0.006": 10.0979482767,
			"-0.005": 28.2170905238,
			"-0.004": 29.1528199761,
			"-0.003": 31.1066963284,
			"-0.002": 25.4926626878,
			"-0.001": 19.7216392815,
			"0.0": 16.4523619579,
			"0.001": 17.0951380495,
			"0.002": 17.5678477611,
			"0.003": 16.6758929581,
			"0.004": 16.086381445,
			"0.005": 19.1905504523,
			"0.006": 12.6631016048,
			"0.007": 1.07924642246,
			"0.008": 1.1484275236,
			"0.009": 1.99643077314,
			"0.01": 1.62299297791,
			"0.011": 2.87040795193,
			"0.012": 3.86188695867,
			"0.013": 1.09946292839,
			"0.014": 0.0,
			"0.015": 0.0,
			"0.016": 0.0,
			"0.017": 0.0,
			"0.018": 0.0,
			"0.019": 0.0,
			"0.02": 0.0,
			"0.021": 0.0,
			"0.022": 0.0,
			"0.023": 0.0,
			"0.024": 0.0,
			"0.025": 0.0
		}
	}
}
