{
	 "smiles": "CC1(C)CC(C)(C)[N+]([O-])=C1", 
	 "Tm": 329.15, 
	 "num_atms": 25, 
	 "gaussian": { 
		 "optdone": 1, 
		 "sigma_profile": "yes", 
		 "theory": "DFT", 
		 "functional": "B3LYP", 
		 "basiset": "6-31G**", 
		 "properties": { 
			 "R2extent": 1729.1356, 
			 "electric_dipole_moment_norm": 3.7223711744, 
			 "electric_quadrupole_moment_norm": 10.4458340419, 
			 "total_energy": -443.818535729, 
			 "HOMO_LUMO_gap": 0.20154, 
			 "cosmo_polarized_energy": -10.57, 
			 "cosmo_cavitation_energy": 25.8, 
			 "cosmo_dispersion_energy": -18.09, 
			 "cosmo_repulsion_energy": 1.45, 
			 "cosmo_total_nonelectrostatic_energy": 9.16, 
			 "SMD_solvation_energy": 5.7 
		},
		"coords": [
			{
				"x": -0.4590038841,
				"y": -0.6317427097,
				"z": 1.9715735146,
				"element": "C" 
			},
			{
				"x": 0.2767675182,
				"y": -0.1852554726,
				"z": 0.691581131,
				"element": "C" 
			},
			{
				"x": 1.3012810685,
				"y": 0.9148634016,
				"z": 1.054395563,
				"element": "C" 
			},
			{
				"x": 0.95244368,
				"y": -1.3953276721,
				"z": -0.0365624308,
				"element": "C" 
			},
			{
				"x": 0.5557456274,
				"y": -1.3179864199,
				"z": -1.5282659916,
				"element": "C" 
			},
			{
				"x": -0.0398806907,
				"y": -2.6134207182,
				"z": -2.0817651677,
				"element": "C" 
			},
			{
				"x": 1.6637058274,
				"y": -0.7901830492,
				"z": -2.4472111171,
				"element": "C" 
			},
			{
				"x": -0.55135299,
				"y": -0.2691043151,
				"z": -1.5216604739,
				"element": "N" 
			},
			{
				"x": -1.1859773818,
				"y": -0.0423807494,
				"z": -2.5933831619,
				"element": "O" 
			},
			{
				"x": -0.6845197166,
				"y": 0.3036262416,
				"z": -0.3544364431,
				"element": "C" 
			},
			{
				"x": 0.2486990001,
				"y": -1.044261704,
				"z": 2.6997289659,
				"element": "H" 
			},
			{
				"x": -0.9708326106,
				"y": 0.2125471486,
				"z": 2.4466005476,
				"element": "H" 
			},
			{
				"x": -1.2078614977,
				"y": -1.3983905561,
				"z": 1.7494812051,
				"element": "H" 
			},
			{
				"x": 0.8001307904,
				"y": 1.7929639979,
				"z": 1.4761262895,
				"element": "H" 
			},
			{
				"x": 1.864580624,
				"y": 1.2422737656,
				"z": 0.175311556,
				"element": "H" 
			},
			{
				"x": 2.0147478906,
				"y": 0.5459341465,
				"z": 1.80035932,
				"element": "H" 
			},
			{
				"x": 0.591633473,
				"y": -2.3337872681,
				"z": 0.3951776584,
				"element": "H" 
			},
			{
				"x": 2.0390706048,
				"y": -1.3802369881,
				"z": 0.0887624009,
				"element": "H" 
			},
			{
				"x": -0.4547456806,
				"y": -2.4346140732,
				"z": -3.0759492754,
				"element": "H" 
			},
			{
				"x": -0.8410320645,
				"y": -2.9839512027,
				"z": -1.4345023554,
				"element": "H" 
			},
			{
				"x": 0.7346666462,
				"y": -3.3837531166,
				"z": -2.1470710413,
				"element": "H" 
			},
			{
				"x": 2.4498435708,
				"y": -1.5431320042,
				"z": -2.558997374,
				"element": "H" 
			},
			{
				"x": 2.1158388545,
				"y": 0.1210630563,
				"z": -2.0437103807,
				"element": "H" 
			},
			{
				"x": 1.2457601843,
				"y": -0.5625104608,
				"z": -3.430738731,
				"element": "H" 
			},
			{
				"x": -1.4235088438,
				"y": 1.086866722,
				"z": -0.2372442082,
				"element": "H" 
			}
		],
		 "valence_orbital": [ 
			{
				"type": "occ",
				"energy": -0.34334,
				"method": "rhf"
			},
			{
				"type": "occ",
				"energy": -0.32842,
				"method": "rhf"
			},
			{
				"type": "occ",
				"energy": -0.32047,
				"method": "rhf"
			},
			{
				"type": "occ",
				"energy": -0.2296,
				"method": "rhf"
			},
			{
				"type": "occ",
				"energy": -0.20515,
				"method": "rhf"
			},
			{
				"type": "unocc",
				"energy": -0.00361,
				"method": "rhf"
			},
			{
				"type": "unocc",
				"energy": 0.07056,
				"method": "rhf"
			},
			{
				"type": "unocc",
				"energy": 0.09897,
				"method": "rhf"
			},
			{
				"type": "unocc",
				"energy": 0.11395,
				"method": "rhf"
			},
			{
				"type": "unocc",
				"energy": 0.11891,
				"method": "rhf"
			}
		],
		"cosmo_sigma_profile": { 
			"-0.025": 0.0,
			"-0.024": 0.0,
			"-0.023": 0.0,
			"-0.022": 0.0,
			"-0.021": 0.0,
			"-0.02": 0.0,
			"-0.019": 0.0,
			"-0.018": 0.0,
			"-0.017": 0.0,
			"-0.016": 0.0,
			"-0.015": 0.0,
			"-0.014": 0.0,
			"-0.013": 0.0,
			"-0.012": 0.0,
			"-0.011": 0.0,
			"-0.01": 0.0,
			"-0.009": 0.0,
			"-0.008": 0.922534016987,
			"-0.007": 1.61861153512,
			"-0.006": 1.66188746496,
			"-0.005": 3.90510941854,
			"-0.004": 19.5393272648,
			"-0.003": 34.9326895191,
			"-0.002": 28.9021561463,
			"-0.001": 27.644275466,
			"0.0": 28.8083634558,
			"0.001": 19.3909931941,
			"0.002": 3.67851221596,
			"0.003": 1.85229735459,
			"0.004": 1.90289745931,
			"0.005": 1.5246353391,
			"0.006": 1.50202491771,
			"0.007": 2.05770834811,
			"0.008": 1.71586545535,
			"0.009": 1.68433351123,
			"0.01": 0.995378508599,
			"0.011": 1.14092534339,
			"0.012": 1.65935569789,
			"0.013": 2.75935137131,
			"0.014": 5.02884816716,
			"0.015": 3.64661459331,
			"0.016": 0.957862831236,
			"0.017": 0.0,
			"0.018": 0.0,
			"0.019": 0.0,
			"0.02": 0.0,
			"0.021": 0.0,
			"0.022": 0.0,
			"0.023": 0.0,
			"0.024": 0.0,
			"0.025": 0.0
		}
	}
}
