{
	 "smiles": "COC1=CC2=C(CC(CO2)C(O)=O)C=C1", 
	 "Tm": 426.15, 
	 "num_atms": 27, 
	 "gaussian": { 
		 "optdone": 1, 
		 "sigma_profile": "yes", 
		 "theory": "DFT", 
		 "functional": "B3LYP", 
		 "basiset": "6-31G**", 
		 "properties": { 
			 "R2extent": 3923.0918, 
			 "electric_dipole_moment_norm": 1.64470579436, 
			 "electric_quadrupole_moment_norm": 16.0444526173, 
			 "total_energy": -727.297487096, 
			 "HOMO_LUMO_gap": 0.20592, 
			 "cosmo_polarized_energy": -14.43, 
			 "cosmo_cavitation_energy": 30.13, 
			 "cosmo_dispersion_energy": -22.18, 
			 "cosmo_repulsion_energy": 1.74, 
			 "cosmo_total_nonelectrostatic_energy": 9.68, 
			 "SMD_solvation_energy": 6.84 
		},
		"coords": [
			{
				"x": -0.3889298629,
				"y": 3.2641483342,
				"z": 3.8369053817,
				"element": "C" 
			},
			{
				"x": -0.5029148294,
				"y": 1.8611116521,
				"z": 3.6703696905,
				"element": "O" 
			},
			{
				"x": -0.2716740143,
				"y": 1.3385611035,
				"z": 2.4291518776,
				"element": "C" 
			},
			{
				"x": -0.3976143639,
				"y": -0.0493063977,
				"z": 2.326507685,
				"element": "C" 
			},
			{
				"x": -0.1811567334,
				"y": -0.6785663363,
				"z": 1.1026493139,
				"element": "C" 
			},
			{
				"x": 0.160567081,
				"y": 0.0525320303,
				"z": -0.0493814239,
				"element": "C" 
			},
			{
				"x": 0.3680606371,
				"y": -0.6387771527,
				"z": -1.3827390441,
				"element": "C" 
			},
			{
				"x": -0.1636587106,
				"y": -2.0784585876,
				"z": -1.355763077,
				"element": "C" 
			},
			{
				"x": 0.2196069045,
				"y": -2.7327666803,
				"z": -0.0214949495,
				"element": "C" 
			},
			{
				"x": -0.3527112818,
				"y": -2.04285323,
				"z": 1.0859243166,
				"element": "O" 
			},
			{
				"x": -1.6674704266,
				"y": -2.1354305977,
				"z": -1.6000346027,
				"element": "C" 
			},
			{
				"x": -2.146911628,
				"y": -3.3954928552,
				"z": -1.4573597169,
				"element": "O" 
			},
			{
				"x": -2.3715264138,
				"y": -1.2049374291,
				"z": -1.9200706398,
				"element": "O" 
			},
			{
				"x": 0.2807948901,
				"y": 1.4367421924,
				"z": 0.0862464504,
				"element": "C" 
			},
			{
				"x": 0.0765001257,
				"y": 2.0933711792,
				"z": 1.3001983395,
				"element": "C" 
			},
			{
				"x": 0.6248283531,
				"y": 3.6199218085,
				"z": 3.6106131699,
				"element": "H" 
			},
			{
				"x": -1.1061732259,
				"y": 3.808009876,
				"z": 3.2083992921,
				"element": "H" 
			},
			{
				"x": -0.6112743263,
				"y": 3.462513223,
				"z": 4.8867665895,
				"element": "H" 
			},
			{
				"x": -0.6638500994,
				"y": -0.6367635024,
				"z": 3.1975540204,
				"element": "H" 
			},
			{
				"x": 1.4368995305,
				"y": -0.66796452,
				"z": -1.6325117893,
				"element": "H" 
			},
			{
				"x": -0.1324694474,
				"y": -0.0766027919,
				"z": -2.1761718528,
				"element": "H" 
			},
			{
				"x": 0.2948024343,
				"y": -2.6703939567,
				"z": -2.1592188182,
				"element": "H" 
			},
			{
				"x": 1.3151456725,
				"y": -2.7417580604,
				"z": 0.0715363587,
				"element": "H" 
			},
			{
				"x": -0.1500023323,
				"y": -3.7564946614,
				"z": 0.0451290791,
				"element": "H" 
			},
			{
				"x": -3.1011241062,
				"y": -3.3429238045,
				"z": -1.6339966986,
				"element": "H" 
			},
			{
				"x": 0.5343883578,
				"y": 2.0263036762,
				"z": -0.7919421964,
				"element": "H" 
			},
			{
				"x": 0.1789678153,
				"y": 3.1701754888,
				"z": 1.3510332443,
				"element": "H" 
			}
		],
		 "valence_orbital": [ 
			{
				"type": "occ",
				"energy": -0.30817,
				"method": "rhf"
			},
			{
				"type": "occ",
				"energy": -0.29141,
				"method": "rhf"
			},
			{
				"type": "occ",
				"energy": -0.27647,
				"method": "rhf"
			},
			{
				"type": "occ",
				"energy": -0.22058,
				"method": "rhf"
			},
			{
				"type": "occ",
				"energy": -0.20585,
				"method": "rhf"
			},
			{
				"type": "unocc",
				"energy": 7e-05,
				"method": "rhf"
			},
			{
				"type": "unocc",
				"energy": 0.01066,
				"method": "rhf"
			},
			{
				"type": "unocc",
				"energy": 0.02549,
				"method": "rhf"
			},
			{
				"type": "unocc",
				"energy": 0.07472,
				"method": "rhf"
			},
			{
				"type": "unocc",
				"energy": 0.09775,
				"method": "rhf"
			}
		],
		"cosmo_sigma_profile": { 
			"-0.025": 0.0,
			"-0.024": 0.0,
			"-0.023": 0.0,
			"-0.022": 0.0,
			"-0.021": 0.0,
			"-0.02": 0.0,
			"-0.019": 0.0945450284627,
			"-0.018": 1.03494030123,
			"-0.017": 0.742909068354,
			"-0.016": 0.561608441782,
			"-0.015": 0.945305774109,
			"-0.014": 1.02677383484,
			"-0.013": 0.345333592391,
			"-0.012": 0.423495832153,
			"-0.011": 0.801903626539,
			"-0.01": 0.570084622048,
			"-0.009": 0.663426964919,
			"-0.008": 1.69616934468,
			"-0.007": 4.41470083525,
			"-0.006": 13.8195496124,
			"-0.005": 24.8713001139,
			"-0.004": 23.1606789196,
			"-0.003": 22.1735590547,
			"-0.002": 16.5570221885,
			"-0.001": 11.539010405,
			"0.0": 8.14047768986,
			"0.001": 10.5582974822,
			"0.002": 8.60978763629,
			"0.003": 11.5350538551,
			"0.004": 15.1779229998,
			"0.005": 16.5015379956,
			"0.006": 11.9474848354,
			"0.007": 6.65264261517,
			"0.008": 4.83667182653,
			"0.009": 3.9453800576,
			"0.01": 6.5195956327,
			"0.011": 5.14037769996,
			"0.012": 2.85833297999,
			"0.013": 0.0,
			"0.014": 0.0,
			"0.015": 0.0,
			"0.016": 0.0,
			"0.017": 0.0,
			"0.018": 0.0,
			"0.019": 0.0,
			"0.02": 0.0,
			"0.021": 0.0,
			"0.022": 0.0,
			"0.023": 0.0,
			"0.024": 0.0,
			"0.025": 0.0
		}
	}
}
