{
	 "smiles": "CCN(CC)C(=O)CSC1=CC=C(Cl)N=N1", 
	 "Tm": 371.15, 
	 "num_atms": 30, 
	 "gaussian": { 
		 "optdone": 1, 
		 "sigma_profile": "yes", 
		 "theory": "DFT", 
		 "functional": "B3LYP", 
		 "basiset": "6-31G**", 
		 "properties": { 
			 "R2extent": 10752.9795, 
			 "electric_dipole_moment_norm": 6.69470001195, 
			 "electric_quadrupole_moment_norm": 37.6082448051, 
			 "total_energy": -1487.33095305, 
			 "HOMO_LUMO_gap": 0.17548, 
			 "cosmo_polarized_energy": -16.32, 
			 "cosmo_cavitation_energy": 36.45, 
			 "cosmo_dispersion_energy": -26.3, 
			 "cosmo_repulsion_energy": 2.02, 
			 "cosmo_total_nonelectrostatic_energy": 12.16, 
			 "SMD_solvation_energy": 4.15 
		},
		"coords": [
			{
				"x": -0.3223024996,
				"y": -2.351696253,
				"z": 0.7973328117,
				"element": "C" 
			},
			{
				"x": -0.4096640436,
				"y": -0.8868099867,
				"z": 1.2350344012,
				"element": "C" 
			},
			{
				"x": 0.0800019972,
				"y": 0.0721517446,
				"z": 0.2285143314,
				"element": "N" 
			},
			{
				"x": 1.4053105045,
				"y": 0.671267162,
				"z": 0.4179784207,
				"element": "C" 
			},
			{
				"x": 2.5666139184,
				"y": -0.2002933349,
				"z": -0.0725534445,
				"element": "C" 
			},
			{
				"x": -0.7538804699,
				"y": 0.3485233029,
				"z": -0.8139632875,
				"element": "C" 
			},
			{
				"x": -1.865474348,
				"y": -0.1805880491,
				"z": -0.9133644648,
				"element": "O" 
			},
			{
				"x": -0.3013535662,
				"y": 1.3345864752,
				"z": -1.8947574908,
				"element": "C" 
			},
			{
				"x": -0.4517848411,
				"y": 3.121155281,
				"z": -1.4765473892,
				"element": "S" 
			},
			{
				"x": -2.1919964707,
				"y": 3.471463788,
				"z": -1.6601337119,
				"element": "C" 
			},
			{
				"x": -3.2171939891,
				"y": 2.5143736154,
				"z": -1.7890292194,
				"element": "C" 
			},
			{
				"x": -4.5000479518,
				"y": 3.0046884434,
				"z": -1.9359573594,
				"element": "C" 
			},
			{
				"x": -4.6546866569,
				"y": 4.3967750499,
				"z": -1.9197904291,
				"element": "C" 
			},
			{
				"x": -6.2538995712,
				"y": 5.0891689484,
				"z": -2.0964672569,
				"element": "Cl" 
			},
			{
				"x": -3.6600417188,
				"y": 5.2559246819,
				"z": -1.7670699103,
				"element": "N" 
			},
			{
				"x": -2.4170595569,
				"y": 4.788578508,
				"z": -1.6452620264,
				"element": "N" 
			},
			{
				"x": -0.9270795464,
				"y": -2.5128050084,
				"z": -0.0975171401,
				"element": "H" 
			},
			{
				"x": 0.7082941319,
				"y": -2.6521029489,
				"z": 0.5857676759,
				"element": "H" 
			},
			{
				"x": -0.7077422528,
				"y": -2.9995445019,
				"z": 1.5917092167,
				"element": "H" 
			},
			{
				"x": 0.1729485812,
				"y": -0.7219196714,
				"z": 2.1463805441,
				"element": "H" 
			},
			{
				"x": -1.4517378751,
				"y": -0.6355504392,
				"z": 1.4502035581,
				"element": "H" 
			},
			{
				"x": 1.4298146073,
				"y": 1.6472918856,
				"z": -0.0692780442,
				"element": "H" 
			},
			{
				"x": 1.5207690167,
				"y": 0.8753022593,
				"z": 1.4881395636,
				"element": "H" 
			},
			{
				"x": 2.6038521657,
				"y": -1.1543733697,
				"z": 0.4608319971,
				"element": "H" 
			},
			{
				"x": 2.4765936813,
				"y": -0.4170093376,
				"z": -1.1419876742,
				"element": "H" 
			},
			{
				"x": 3.518581796,
				"y": 0.315009403,
				"z": 0.0922462517,
				"element": "H" 
			},
			{
				"x": -0.890401982,
				"y": 1.1211689458,
				"z": -2.7877610963,
				"element": "H" 
			},
			{
				"x": 0.7527541114,
				"y": 1.2149979038,
				"z": -2.1558823531,
				"element": "H" 
			},
			{
				"x": -3.0178312279,
				"y": 1.4480360737,
				"z": -1.7411397303,
				"element": "H" 
			},
			{
				"x": -5.3562559434,
				"y": 2.3484294288,
				"z": -2.042976744,
				"element": "H" 
			}
		],
		 "valence_orbital": [ 
			{
				"type": "occ",
				"energy": -0.29965,
				"method": "rhf"
			},
			{
				"type": "occ",
				"energy": -0.27015,
				"method": "rhf"
			},
			{
				"type": "occ",
				"energy": -0.25684,
				"method": "rhf"
			},
			{
				"type": "occ",
				"energy": -0.24577,
				"method": "rhf"
			},
			{
				"type": "occ",
				"energy": -0.23473,
				"method": "rhf"
			},
			{
				"type": "unocc",
				"energy": -0.05925,
				"method": "rhf"
			},
			{
				"type": "unocc",
				"energy": -0.03412,
				"method": "rhf"
			},
			{
				"type": "unocc",
				"energy": -0.01358,
				"method": "rhf"
			},
			{
				"type": "unocc",
				"energy": 0.02388,
				"method": "rhf"
			},
			{
				"type": "unocc",
				"energy": 0.0316,
				"method": "rhf"
			}
		],
		"cosmo_sigma_profile": { 
			"-0.025": 0.0,
			"-0.024": 0.0,
			"-0.023": 0.0,
			"-0.022": 0.0,
			"-0.021": 0.0,
			"-0.02": 0.0,
			"-0.019": 0.0,
			"-0.018": 0.0,
			"-0.017": 0.0,
			"-0.016": 0.0,
			"-0.015": 0.0,
			"-0.014": 0.0,
			"-0.013": 0.0,
			"-0.012": 0.0,
			"-0.011": 0.0434849321943,
			"-0.01": 1.46760610678,
			"-0.009": 3.53215555331,
			"-0.008": 5.91832822539,
			"-0.007": 8.49213214347,
			"-0.006": 10.0471433574,
			"-0.005": 13.4833073264,
			"-0.004": 23.2608917986,
			"-0.003": 30.5891269013,
			"-0.002": 32.0342060733,
			"-0.001": 27.3651564882,
			"0.0": 25.8932843354,
			"0.001": 21.6512513961,
			"0.002": 13.8240954914,
			"0.003": 15.9508010101,
			"0.004": 13.1600978032,
			"0.005": 8.69210353658,
			"0.006": 7.04949030491,
			"0.007": 4.98563909791,
			"0.008": 3.77139812572,
			"0.009": 3.12951861436,
			"0.01": 3.31538755004,
			"0.011": 4.30963558421,
			"0.012": 5.02300758082,
			"0.013": 4.35355627342,
			"0.014": 1.97618883479,
			"0.015": 0.0105915787332,
			"0.016": 0.0,
			"0.017": 0.0,
			"0.018": 0.0,
			"0.019": 0.0,
			"0.02": 0.0,
			"0.021": 0.0,
			"0.022": 0.0,
			"0.023": 0.0,
			"0.024": 0.0,
			"0.025": 0.0
		}
	}
}
