{
	 "smiles": "CCCCCCCC(C)=O", 
	 "Tm": 265.65, 
	 "num_atms": 28, 
	 "gaussian": { 
		 "optdone": 1, 
		 "sigma_profile": "yes", 
		 "theory": "DFT", 
		 "functional": "B3LYP", 
		 "basiset": "6-31G**", 
		 "properties": { 
			 "R2extent": 2787.0007, 
			 "electric_dipole_moment_norm": 2.60468955156, 
			 "electric_quadrupole_moment_norm": 7.08676524234, 
			 "total_energy": -429.052521207, 
			 "HOMO_LUMO_gap": 0.23317, 
			 "cosmo_polarized_energy": -6.96, 
			 "cosmo_cavitation_energy": 29.54, 
			 "cosmo_dispersion_energy": -20.63, 
			 "cosmo_repulsion_energy": 1.73, 
			 "cosmo_total_nonelectrostatic_energy": 10.65, 
			 "SMD_solvation_energy": 5.23 
		},
		"coords": [
			{
				"x": -1.97353063,
				"y": -4.2984474873,
				"z": -0.1865110909,
				"element": "C" 
			},
			{
				"x": -0.588771415,
				"y": -3.6534713682,
				"z": -0.0660733901,
				"element": "C" 
			},
			{
				"x": -0.5208103757,
				"y": -2.5862441237,
				"z": 1.0352530637,
				"element": "C" 
			},
			{
				"x": 0.8742251179,
				"y": -1.9748705185,
				"z": 1.2546820317,
				"element": "C" 
			},
			{
				"x": 1.4660722095,
				"y": -1.2044773895,
				"z": 0.0585576255,
				"element": "C" 
			},
			{
				"x": 0.6500510854,
				"y": 0.0010093011,
				"z": -0.4365354666,
				"element": "C" 
			},
			{
				"x": 0.5026774137,
				"y": 1.122555967,
				"z": 0.5940369166,
				"element": "C" 
			},
			{
				"x": -0.2242830811,
				"y": 2.3542587945,
				"z": 0.0647412662,
				"element": "C" 
			},
			{
				"x": -0.390695874,
				"y": 3.513043157,
				"z": 1.0353372286,
				"element": "C" 
			},
			{
				"x": -0.6512211553,
				"y": 2.4124066736,
				"z": -1.0732049797,
				"element": "O" 
			},
			{
				"x": -2.266653971,
				"y": -4.7862165042,
				"z": 0.7503574609,
				"element": "H" 
			},
			{
				"x": -1.9961164412,
				"y": -5.0557664077,
				"z": -0.9769968714,
				"element": "H" 
			},
			{
				"x": -2.7394988969,
				"y": -3.5505416644,
				"z": -0.4217417585,
				"element": "H" 
			},
			{
				"x": -0.3125371958,
				"y": -3.2121041203,
				"z": -1.0318928274,
				"element": "H" 
			},
			{
				"x": 0.1612812693,
				"y": -4.4301423897,
				"z": 0.1387213972,
				"element": "H" 
			},
			{
				"x": -1.2484883494,
				"y": -1.7935850381,
				"z": 0.8127112372,
				"element": "H" 
			},
			{
				"x": -0.8530531526,
				"y": -3.0358327377,
				"z": 1.9811334715,
				"element": "H" 
			},
			{
				"x": 0.834812369,
				"y": -1.3143587878,
				"z": 2.1309852718,
				"element": "H" 
			},
			{
				"x": 1.5724872452,
				"y": -2.7791831967,
				"z": 1.5237733252,
				"element": "H" 
			},
			{
				"x": 2.4740889246,
				"y": -0.863704852,
				"z": 0.3333541709,
				"element": "H" 
			},
			{
				"x": 1.6071631485,
				"y": -1.8944129388,
				"z": -0.7824868568,
				"element": "H" 
			},
			{
				"x": 1.1271923464,
				"y": 0.4142579314,
				"z": -1.3318575685,
				"element": "H" 
			},
			{
				"x": -0.3469084465,
				"y": -0.315907975,
				"z": -0.7623010358,
				"element": "H" 
			},
			{
				"x": 1.4876605686,
				"y": 1.4454764632,
				"z": 0.9644375723,
				"element": "H" 
			},
			{
				"x": -0.0352510277,
				"y": 0.78061839,
				"z": 1.4896270534,
				"element": "H" 
			},
			{
				"x": 0.587210573,
				"y": 3.8685045078,
				"z": 1.3804588092,
				"element": "H" 
			},
			{
				"x": -0.9245082838,
				"y": 4.3293156901,
				"z": 0.5467198218,
				"element": "H" 
			},
			{
				"x": -0.9443939751,
				"y": 3.1928206239,
				"z": 1.9256141222,
				"element": "H" 
			}
		],
		 "valence_orbital": [ 
			{
				"type": "occ",
				"energy": -0.32951,
				"method": "rhf"
			},
			{
				"type": "occ",
				"energy": -0.31407,
				"method": "rhf"
			},
			{
				"type": "occ",
				"energy": -0.3105,
				"method": "rhf"
			},
			{
				"type": "occ",
				"energy": -0.30524,
				"method": "rhf"
			},
			{
				"type": "occ",
				"energy": -0.24212,
				"method": "rhf"
			},
			{
				"type": "unocc",
				"energy": -0.00895,
				"method": "rhf"
			},
			{
				"type": "unocc",
				"energy": 0.07372,
				"method": "rhf"
			},
			{
				"type": "unocc",
				"energy": 0.09358,
				"method": "rhf"
			},
			{
				"type": "unocc",
				"energy": 0.11094,
				"method": "rhf"
			},
			{
				"type": "unocc",
				"energy": 0.11789,
				"method": "rhf"
			}
		],
		"cosmo_sigma_profile": { 
			"-0.025": 0.0,
			"-0.024": 0.0,
			"-0.023": 0.0,
			"-0.022": 0.0,
			"-0.021": 0.0,
			"-0.02": 0.0,
			"-0.019": 0.0,
			"-0.018": 0.0,
			"-0.017": 0.0,
			"-0.016": 0.0,
			"-0.015": 0.0,
			"-0.014": 0.0,
			"-0.013": 0.0,
			"-0.012": 0.0,
			"-0.011": 0.0,
			"-0.01": 0.0,
			"-0.009": 0.0,
			"-0.008": 0.0,
			"-0.007": 0.0196149780862,
			"-0.006": 5.66924303599,
			"-0.005": 9.77666883476,
			"-0.004": 10.1792752291,
			"-0.003": 14.3265676548,
			"-0.002": 36.0765032363,
			"-0.001": 41.054125785,
			"0.0": 39.2610123917,
			"0.001": 31.5663644405,
			"0.002": 14.8998184589,
			"0.003": 1.71325399507,
			"0.004": 1.95919303441,
			"0.005": 1.65759892653,
			"0.006": 1.80920062931,
			"0.007": 1.90097583491,
			"0.008": 1.14561621017,
			"0.009": 1.85479524685,
			"0.01": 2.24911188723,
			"0.011": 2.76547548545,
			"0.012": 3.89957782045,
			"0.013": 3.2949365406,
			"0.014": 0.423765520894,
			"0.015": 0.0,
			"0.016": 0.0,
			"0.017": 0.0,
			"0.018": 0.0,
			"0.019": 0.0,
			"0.02": 0.0,
			"0.021": 0.0,
			"0.022": 0.0,
			"0.023": 0.0,
			"0.024": 0.0,
			"0.025": 0.0
		}
	}
}
