{
	 "smiles": "N=C1OC2=CC=CC=C2C=C1C1=NC2=C(S1)C=CC=C2", 
	 "Tm": 459.15, 
	 "num_atms": 30, 
	 "gaussian": { 
		 "optdone": 1, 
		 "sigma_profile": "yes", 
		 "theory": "DFT", 
		 "functional": "B3LYP", 
		 "basiset": "6-31G**", 
		 "properties": { 
			 "R2extent": 7692.7795, 
			 "electric_dipole_moment_norm": 3.35565813962, 
			 "electric_quadrupole_moment_norm": 25.4722030066, 
			 "total_energy": -1198.63741512, 
			 "HOMO_LUMO_gap": 0.13369, 
			 "cosmo_polarized_energy": -12.76, 
			 "cosmo_cavitation_energy": 36.14, 
			 "cosmo_dispersion_energy": -27.43, 
			 "cosmo_repulsion_energy": 1.99, 
			 "cosmo_total_nonelectrostatic_energy": 10.7, 
			 "SMD_solvation_energy": 3.27 
		},
		"coords": [
			{
				"x": 0.6160725177,
				"y": -3.3997074642,
				"z": -0.7176872254,
				"element": "N" 
			},
			{
				"x": 0.691280379,
				"y": -2.1995124202,
				"z": -1.1317827297,
				"element": "C" 
			},
			{
				"x": 1.1764696443,
				"y": -2.0879686501,
				"z": -2.4286462762,
				"element": "O" 
			},
			{
				"x": 1.5409132565,
				"y": -0.9057631551,
				"z": -2.990701923,
				"element": "C" 
			},
			{
				"x": 2.0987369975,
				"y": -0.9440167165,
				"z": -4.2694559908,
				"element": "C" 
			},
			{
				"x": 2.4907605808,
				"y": 0.2496645607,
				"z": -4.8693315255,
				"element": "C" 
			},
			{
				"x": 2.3257797166,
				"y": 1.476728016,
				"z": -4.2084945676,
				"element": "C" 
			},
			{
				"x": 1.7596212249,
				"y": 1.5060838032,
				"z": -2.9413733038,
				"element": "C" 
			},
			{
				"x": 1.3581816718,
				"y": 0.3129158175,
				"z": -2.3107899809,
				"element": "C" 
			},
			{
				"x": 0.7186752316,
				"y": 0.2577348918,
				"z": -1.0276977262,
				"element": "C" 
			},
			{
				"x": 0.3549617944,
				"y": -0.926090586,
				"z": -0.4583554531,
				"element": "C" 
			},
			{
				"x": -0.356516926,
				"y": -0.8902324605,
				"z": 0.8268802578,
				"element": "C" 
			},
			{
				"x": -0.2779117073,
				"y": 0.1186071063,
				"z": 1.6445311703,
				"element": "N" 
			},
			{
				"x": -1.1155012541,
				"y": -0.0320354948,
				"z": 2.731366069,
				"element": "C" 
			},
			{
				"x": -1.8803140487,
				"y": -1.2244483297,
				"z": 2.7489042637,
				"element": "C" 
			},
			{
				"x": -1.511703477,
				"y": -2.1657156636,
				"z": 1.3211771223,
				"element": "S" 
			},
			{
				"x": -2.7616896362,
				"y": -1.5119275965,
				"z": 3.7942385298,
				"element": "C" 
			},
			{
				"x": -2.8751269483,
				"y": -0.5849962839,
				"z": 4.8268918903,
				"element": "C" 
			},
			{
				"x": -2.1229941823,
				"y": 0.6040594154,
				"z": 4.8212735295,
				"element": "C" 
			},
			{
				"x": -1.2441517164,
				"y": 0.8881063877,
				"z": 3.7844503424,
				"element": "C" 
			},
			{
				"x": 0.2887674553,
				"y": -3.444371012,
				"z": 0.2444952331,
				"element": "H" 
			},
			{
				"x": 2.2197367385,
				"y": -1.9018816552,
				"z": -4.7631802869,
				"element": "H" 
			},
			{
				"x": 2.9311938696,
				"y": 0.2259756312,
				"z": -5.8616088041,
				"element": "H" 
			},
			{
				"x": 2.6365962377,
				"y": 2.3989012355,
				"z": -4.6886478745,
				"element": "H" 
			},
			{
				"x": 1.6171242536,
				"y": 2.4483351734,
				"z": -2.4194670652,
				"element": "H" 
			},
			{
				"x": 0.4922535608,
				"y": 1.1799339904,
				"z": -0.5012778197,
				"element": "H" 
			},
			{
				"x": -3.3428389927,
				"y": -2.4283113781,
				"z": 3.8032789456,
				"element": "H" 
			},
			{
				"x": -3.5547280176,
				"y": -0.7855877996,
				"z": 5.6496168312,
				"element": "H" 
			},
			{
				"x": -2.2322476762,
				"y": 1.3076464552,
				"z": 5.640968726,
				"element": "H" 
			},
			{
				"x": -0.656100548,
				"y": 1.7996741817,
				"z": 3.7669256415,
				"element": "H" 
			}
		],
		 "valence_orbital": [ 
			{
				"type": "occ",
				"energy": -0.27306,
				"method": "rhf"
			},
			{
				"type": "occ",
				"energy": -0.26496,
				"method": "rhf"
			},
			{
				"type": "occ",
				"energy": -0.24445,
				"method": "rhf"
			},
			{
				"type": "occ",
				"energy": -0.24084,
				"method": "rhf"
			},
			{
				"type": "occ",
				"energy": -0.21614,
				"method": "rhf"
			},
			{
				"type": "unocc",
				"energy": -0.08245,
				"method": "rhf"
			},
			{
				"type": "unocc",
				"energy": -0.02883,
				"method": "rhf"
			},
			{
				"type": "unocc",
				"energy": -0.01291,
				"method": "rhf"
			},
			{
				"type": "unocc",
				"energy": -0.00922,
				"method": "rhf"
			},
			{
				"type": "unocc",
				"energy": 0.005,
				"method": "rhf"
			}
		],
		"cosmo_sigma_profile": { 
			"-0.025": 0.0,
			"-0.024": 0.0,
			"-0.023": 0.0,
			"-0.022": 0.0,
			"-0.021": 0.0,
			"-0.02": 0.0,
			"-0.019": 0.0,
			"-0.018": 0.0,
			"-0.017": 0.0,
			"-0.016": 0.0,
			"-0.015": 0.0,
			"-0.014": 0.0,
			"-0.013": 0.0,
			"-0.012": 0.0,
			"-0.011": 0.0,
			"-0.01": 0.0,
			"-0.009": 0.286783486826,
			"-0.008": 3.909332191,
			"-0.007": 12.9840220904,
			"-0.006": 18.8076834229,
			"-0.005": 20.8670465662,
			"-0.004": 20.4954781822,
			"-0.003": 18.2544472129,
			"-0.002": 19.0224318568,
			"-0.001": 22.9809010129,
			"0.0": 26.4308405778,
			"0.001": 26.5967259093,
			"0.002": 26.5375179832,
			"0.003": 26.7463862839,
			"0.004": 17.9505718764,
			"0.005": 6.49084191969,
			"0.006": 3.59214043535,
			"0.007": 2.63878860333,
			"0.008": 3.1000988686,
			"0.009": 2.44529762437,
			"0.01": 2.7058251335,
			"0.011": 2.54812945179,
			"0.012": 2.29850787534,
			"0.013": 1.56064415006,
			"0.014": 1.22605577952,
			"0.015": 1.4311779037,
			"0.016": 1.51622712369,
			"0.017": 1.01298709823,
			"0.018": 0.166045745034,
			"0.019": 0.0,
			"0.02": 0.0,
			"0.021": 0.0,
			"0.022": 0.0,
			"0.023": 0.0,
			"0.024": 0.0,
			"0.025": 0.0
		}
	}
}
