{
	 "smiles": "ClCC(=O)NC1=NN=C(O1)C1CC1", 
	 "Tm": 422.15, 
	 "num_atms": 21, 
	 "gaussian": { 
		 "optdone": 1, 
		 "sigma_profile": "yes", 
		 "theory": "DFT", 
		 "functional": "B3LYP", 
		 "basiset": "6-31G**", 
		 "properties": { 
			 "R2extent": 5160.3696, 
			 "electric_dipole_moment_norm": 2.68897758265, 
			 "electric_quadrupole_moment_norm": 17.7307065528, 
			 "total_energy": -1046.41053003, 
			 "HOMO_LUMO_gap": 0.20762, 
			 "cosmo_polarized_energy": -16.15, 
			 "cosmo_cavitation_energy": 28.13, 
			 "cosmo_dispersion_energy": -20.52, 
			 "cosmo_repulsion_energy": 1.65, 
			 "cosmo_total_nonelectrostatic_energy": 9.27, 
			 "SMD_solvation_energy": 3.24 
		},
		"coords": [
			{
				"x": 1.9034589766,
				"y": -3.89222242,
				"z": 4.1918523089,
				"element": "Cl" 
			},
			{
				"x": 1.1637544472,
				"y": -3.9246514459,
				"z": 2.5387370371,
				"element": "C" 
			},
			{
				"x": 0.9791664653,
				"y": -2.5788093928,
				"z": 1.83174027,
				"element": "C" 
			},
			{
				"x": 0.4833925029,
				"y": -2.5791769441,
				"z": 0.7217550226,
				"element": "O" 
			},
			{
				"x": 1.3949888767,
				"y": -1.4625352915,
				"z": 2.5186570001,
				"element": "N" 
			},
			{
				"x": 1.3349183762,
				"y": -0.1500348771,
				"z": 2.0967027763,
				"element": "C" 
			},
			{
				"x": 1.7414317357,
				"y": 0.8710347051,
				"z": 2.7830775212,
				"element": "N" 
			},
			{
				"x": 1.4882518087,
				"y": 1.985720883,
				"z": 1.9721577172,
				"element": "N" 
			},
			{
				"x": 0.9563592106,
				"y": 1.5400077038,
				"z": 0.8790991062,
				"element": "C" 
			},
			{
				"x": 0.8251478814,
				"y": 0.1662588826,
				"z": 0.8863344434,
				"element": "O" 
			},
			{
				"x": 0.503897692,
				"y": 2.2839660098,
				"z": -0.2966886112,
				"element": "C" 
			},
			{
				"x": -0.7151071231,
				"y": 1.8247583449,
				"z": -1.0802160646,
				"element": "C" 
			},
			{
				"x": 0.6478977295,
				"y": 1.6913204696,
				"z": -1.689143124,
				"element": "C" 
			},
			{
				"x": 1.7973789113,
				"y": -4.5509395752,
				"z": 1.9100121454,
				"element": "H" 
			},
			{
				"x": 0.1839308932,
				"y": -4.3945669588,
				"z": 2.6288300589,
				"element": "H" 
			},
			{
				"x": 1.7957686539,
				"y": -1.580788363,
				"z": 3.4422189208,
				"element": "H" 
			},
			{
				"x": 0.6591941864,
				"y": 3.3511167657,
				"z": -0.1830423137,
				"element": "H" 
			},
			{
				"x": -1.2087724318,
				"y": 0.9189908,
				"z": -0.7435508738,
				"element": "H" 
			},
			{
				"x": -1.3815280581,
				"y": 2.5984331875,
				"z": -1.4477449123,
				"element": "H" 
			},
			{
				"x": 1.072917367,
				"y": 0.6956478286,
				"z": -1.7629809172,
				"element": "H" 
			},
			{
				"x": 0.9374518985,
				"y": 2.371469688,
				"z": -2.4837075112,
				"element": "H" 
			}
		],
		 "valence_orbital": [ 
			{
				"type": "occ",
				"energy": -0.31474,
				"method": "rhf"
			},
			{
				"type": "occ",
				"energy": -0.31402,
				"method": "rhf"
			},
			{
				"type": "occ",
				"energy": -0.28464,
				"method": "rhf"
			},
			{
				"type": "occ",
				"energy": -0.28034,
				"method": "rhf"
			},
			{
				"type": "occ",
				"energy": -0.24166,
				"method": "rhf"
			},
			{
				"type": "unocc",
				"energy": -0.03404,
				"method": "rhf"
			},
			{
				"type": "unocc",
				"energy": -0.00146,
				"method": "rhf"
			},
			{
				"type": "unocc",
				"energy": 0.01164,
				"method": "rhf"
			},
			{
				"type": "unocc",
				"energy": 0.05788,
				"method": "rhf"
			},
			{
				"type": "unocc",
				"energy": 0.07761,
				"method": "rhf"
			}
		],
		"cosmo_sigma_profile": { 
			"-0.025": 0.0,
			"-0.024": 0.0,
			"-0.023": 0.0,
			"-0.022": 0.0,
			"-0.021": 0.0,
			"-0.02": 0.0,
			"-0.019": 0.0,
			"-0.018": 0.0,
			"-0.017": 0.0,
			"-0.016": 0.0,
			"-0.015": 0.0,
			"-0.014": 0.159992326558,
			"-0.013": 0.789283482213,
			"-0.012": 0.88039470081,
			"-0.011": 0.795911999164,
			"-0.01": 3.70518164566,
			"-0.009": 6.20934541168,
			"-0.008": 5.77303359019,
			"-0.007": 7.74504694359,
			"-0.006": 13.9688676409,
			"-0.005": 18.6432740924,
			"-0.004": 15.2877678342,
			"-0.003": 16.2370107195,
			"-0.002": 16.8193812896,
			"-0.001": 14.9128525252,
			"0.0": 14.4106927193,
			"0.001": 12.3436027943,
			"0.002": 10.7592873753,
			"0.003": 9.72026214954,
			"0.004": 9.72691340332,
			"0.005": 8.34028468584,
			"0.006": 2.98377246653,
			"0.007": 2.8177657176,
			"0.008": 3.22026543386,
			"0.009": 3.68627309003,
			"0.01": 5.10293381122,
			"0.011": 9.23278375914,
			"0.012": 6.03185628301,
			"0.013": 3.16468132051,
			"0.014": 1.95409972408,
			"0.015": 1.57074575749,
			"0.016": 0.102983549283,
			"0.017": 0.0,
			"0.018": 0.0,
			"0.019": 0.0,
			"0.02": 0.0,
			"0.021": 0.0,
			"0.022": 0.0,
			"0.023": 0.0,
			"0.024": 0.0,
			"0.025": 0.0
		}
	}
}
