{
	 "smiles": "CSC1=CC=C(C=O)C=C1", 
	 "Tm": 279.15, 
	 "num_atms": 18, 
	 "gaussian": { 
		 "optdone": 1, 
		 "sigma_profile": "yes", 
		 "theory": "DFT", 
		 "functional": "B3LYP", 
		 "basiset": "6-31G**", 
		 "properties": { 
			 "R2extent": 2315.6473, 
			 "electric_dipole_moment_norm": 3.29877605484, 
			 "electric_quadrupole_moment_norm": 16.5067617082, 
			 "total_energy": -783.077043436, 
			 "HOMO_LUMO_gap": 0.16315, 
			 "cosmo_polarized_energy": -9.57, 
			 "cosmo_cavitation_energy": 23.79, 
			 "cosmo_dispersion_energy": -17.9, 
			 "cosmo_repulsion_energy": 1.39, 
			 "cosmo_total_nonelectrostatic_energy": 7.28, 
			 "SMD_solvation_energy": 5.15 
		},
		"coords": [
			{
				"x": -0.4485410258,
				"y": -1.7199376547,
				"z": -2.7844142868,
				"element": "C" 
			},
			{
				"x": 0.432339561,
				"y": -0.1261570037,
				"z": -2.8312613247,
				"element": "S" 
			},
			{
				"x": 0.3071505204,
				"y": 0.4798368048,
				"z": -1.1678528657,
				"element": "C" 
			},
			{
				"x": -0.3479987619,
				"y": -0.1975208962,
				"z": -0.1237523096,
				"element": "C" 
			},
			{
				"x": -0.3922554507,
				"y": 0.3600956758,
				"z": 1.1481378293,
				"element": "C" 
			},
			{
				"x": 0.2114389317,
				"y": 1.5982799724,
				"z": 1.408720569,
				"element": "C" 
			},
			{
				"x": 0.1615922208,
				"y": 2.1859751038,
				"z": 2.7609633183,
				"element": "C" 
			},
			{
				"x": -0.3818767815,
				"y": 1.6720239732,
				"z": 3.7222080593,
				"element": "O" 
			},
			{
				"x": 0.864212443,
				"y": 2.2715098772,
				"z": 0.3650690332,
				"element": "C" 
			},
			{
				"x": 0.9141275103,
				"y": 1.72324609,
				"z": -0.9089739758,
				"element": "C" 
			},
			{
				"x": 0.0310977365,
				"y": -2.4236256969,
				"z": -2.1004936058,
				"element": "H" 
			},
			{
				"x": -1.5003619315,
				"y": -1.5896401519,
				"z": -2.5204540333,
				"element": "H" 
			},
			{
				"x": -0.3856426451,
				"y": -2.1158368007,
				"z": -3.8000054509,
				"element": "H" 
			},
			{
				"x": -0.8225681604,
				"y": -1.1559031393,
				"z": -0.2987331373,
				"element": "H" 
			},
			{
				"x": -0.8944265243,
				"y": -0.1514284979,
				"z": 1.9635901977,
				"element": "H" 
			},
			{
				"x": 0.6726943495,
				"y": 3.1707759083,
				"z": 2.8552160898,
				"element": "H" 
			},
			{
				"x": 1.3354308621,
				"y": 3.2327154496,
				"z": 0.5579832483,
				"element": "H" 
			},
			{
				"x": 1.421887146,
				"y": 2.2520909862,
				"z": -1.7104473549,
				"element": "H" 
			}
		],
		 "valence_orbital": [ 
			{
				"type": "occ",
				"energy": -0.33329,
				"method": "rhf"
			},
			{
				"type": "occ",
				"energy": -0.29677,
				"method": "rhf"
			},
			{
				"type": "occ",
				"energy": -0.26901,
				"method": "rhf"
			},
			{
				"type": "occ",
				"energy": -0.25113,
				"method": "rhf"
			},
			{
				"type": "occ",
				"energy": -0.22368,
				"method": "rhf"
			},
			{
				"type": "unocc",
				"energy": -0.06053,
				"method": "rhf"
			},
			{
				"type": "unocc",
				"energy": -0.01648,
				"method": "rhf"
			},
			{
				"type": "unocc",
				"energy": 0.02489,
				"method": "rhf"
			},
			{
				"type": "unocc",
				"energy": 0.03851,
				"method": "rhf"
			},
			{
				"type": "unocc",
				"energy": 0.06449,
				"method": "rhf"
			}
		],
		"cosmo_sigma_profile": { 
			"-0.025": 0.0,
			"-0.024": 0.0,
			"-0.023": 0.0,
			"-0.022": 0.0,
			"-0.021": 0.0,
			"-0.02": 0.0,
			"-0.019": 0.0,
			"-0.018": 0.0,
			"-0.017": 0.0,
			"-0.016": 0.0,
			"-0.015": 0.0,
			"-0.014": 0.0,
			"-0.013": 0.0,
			"-0.012": 0.0,
			"-0.011": 0.0,
			"-0.01": 0.0,
			"-0.009": 0.0,
			"-0.008": 0.614961897756,
			"-0.007": 9.80983371289,
			"-0.006": 19.5325589232,
			"-0.005": 15.6357934768,
			"-0.004": 14.0578041819,
			"-0.003": 13.9804874576,
			"-0.002": 13.4434260337,
			"-0.001": 9.5003825312,
			"0.0": 9.86772414917,
			"0.001": 11.0264920461,
			"0.002": 12.9507704904,
			"0.003": 19.8119220513,
			"0.004": 11.4845959532,
			"0.005": 4.53042707093,
			"0.006": 4.44676022727,
			"0.007": 4.45010655444,
			"0.008": 3.63555207521,
			"0.009": 2.05784362074,
			"0.01": 2.34935819162,
			"0.011": 3.40141996372,
			"0.012": 4.09951731265,
			"0.013": 1.44775460325,
			"0.014": 0.0753269108638,
			"0.015": 0.0,
			"0.016": 0.0,
			"0.017": 0.0,
			"0.018": 0.0,
			"0.019": 0.0,
			"0.02": 0.0,
			"0.021": 0.0,
			"0.022": 0.0,
			"0.023": 0.0,
			"0.024": 0.0,
			"0.025": 0.0
		}
	}
}
