{
	 "smiles": "OC(=O)C=CC1=C(OCC2=C(Cl)C=CC=C2)C=CC(Br)=C1", 
	 "Tm": 466.15, 
	 "num_atms": 33, 
	 "gaussian": { 
		 "optdone": 1, 
		 "sigma_profile": "yes", 
		 "theory": "DFT", 
		 "functional": "B3LYP", 
		 "basiset": "6-31G**", 
		 "properties": { 
			 "R2extent": 11151.7102, 
			 "electric_dipole_moment_norm": 3.34079634369, 
			 "electric_quadrupole_moment_norm": 8.16083287477, 
			 "total_energy": -3874.18692082, 
			 "HOMO_LUMO_gap": 0.15583, 
			 "cosmo_polarized_energy": -14.53, 
			 "cosmo_cavitation_energy": 42.1, 
			 "cosmo_dispersion_energy": -28.88, 
			 "cosmo_repulsion_energy": 2.22, 
			 "cosmo_total_nonelectrostatic_energy": 15.44, 
			 "SMD_solvation_energy": 6.48 
		},
		"coords": [
			{
				"x": 2.4332341263,
				"y": -1.9445914906,
				"z": 0.6825655389,
				"element": "O" 
			},
			{
				"x": 1.7282355657,
				"y": -0.7937376003,
				"z": 0.5057367703,
				"element": "C" 
			},
			{
				"x": 0.9331497178,
				"y": -0.3971868803,
				"z": 1.3373010167,
				"element": "O" 
			},
			{
				"x": 2.121210372,
				"y": -0.1466694406,
				"z": -0.7609471524,
				"element": "C" 
			},
			{
				"x": 1.5837105456,
				"y": 0.9595905711,
				"z": -1.3088566922,
				"element": "C" 
			},
			{
				"x": 0.4348131535,
				"y": 1.7825408667,
				"z": -0.8923724455,
				"element": "C" 
			},
			{
				"x": -0.8301723184,
				"y": 1.2539838228,
				"z": -0.5378988686,
				"element": "C" 
			},
			{
				"x": -0.9881335193,
				"y": -0.0866322871,
				"z": -0.663104943,
				"element": "O" 
			},
			{
				"x": -2.1205451675,
				"y": -0.6998150931,
				"z": -0.0335053984,
				"element": "C" 
			},
			{
				"x": -1.9684443154,
				"y": -2.1945096618,
				"z": -0.1393551799,
				"element": "C" 
			},
			{
				"x": -2.3994618115,
				"y": -2.9260849486,
				"z": -1.2551101885,
				"element": "C" 
			},
			{
				"x": -3.1535343559,
				"y": -2.1101094699,
				"z": -2.6223003198,
				"element": "Cl" 
			},
			{
				"x": -2.2518656653,
				"y": -4.311592752,
				"z": -1.3242823329,
				"element": "C" 
			},
			{
				"x": -1.6570939196,
				"y": -4.9915589112,
				"z": -0.2624132703,
				"element": "C" 
			},
			{
				"x": -1.211201179,
				"y": -4.287626875,
				"z": 0.8570853278,
				"element": "C" 
			},
			{
				"x": -1.3668530835,
				"y": -2.9039687004,
				"z": 0.9095890244,
				"element": "C" 
			},
			{
				"x": -1.8539117594,
				"y": 2.1208362992,
				"z": -0.1343107243,
				"element": "C" 
			},
			{
				"x": -1.6536509907,
				"y": 3.50080108,
				"z": -0.1089097789,
				"element": "C" 
			},
			{
				"x": -0.4268420136,
				"y": 4.0220649612,
				"z": -0.5065067082,
				"element": "C" 
			},
			{
				"x": -0.1492758593,
				"y": 5.9138234606,
				"z": -0.5047105161,
				"element": "Br" 
			},
			{
				"x": 0.6001332408,
				"y": 3.1752750379,
				"z": -0.9085597526,
				"element": "C" 
			},
			{
				"x": 2.1480455372,
				"y": -2.2997343483,
				"z": 1.5399941995,
				"element": "H" 
			},
			{
				"x": 2.9770609995,
				"y": -0.6004669652,
				"z": -1.2506603161,
				"element": "H" 
			},
			{
				"x": 2.1031104139,
				"y": 1.3442982949,
				"z": -2.1867886654,
				"element": "H" 
			},
			{
				"x": -3.0444890733,
				"y": -0.3714061266,
				"z": -0.5221746292,
				"element": "H" 
			},
			{
				"x": -2.1512859182,
				"y": -0.4021021764,
				"z": 1.0205911362,
				"element": "H" 
			},
			{
				"x": -2.6007334103,
				"y": -4.8443661388,
				"z": -2.2018197102,
				"element": "H" 
			},
			{
				"x": -1.5441600166,
				"y": -6.0703145454,
				"z": -0.3148394646,
				"element": "H" 
			},
			{
				"x": -0.7474598314,
				"y": -4.8148212818,
				"z": 1.6853016268,
				"element": "H" 
			},
			{
				"x": -1.0065259273,
				"y": -2.342734444,
				"z": 1.7667758805,
				"element": "H" 
			},
			{
				"x": -2.8231128902,
				"y": 1.7309413088,
				"z": 0.1507212872,
				"element": "H" 
			},
			{
				"x": -2.4547022906,
				"y": 4.1607458803,
				"z": 0.2040660221,
				"element": "H" 
			},
			{
				"x": 1.5549516439,
				"y": 3.5915285539,
				"z": -1.2118007732,
				"element": "H" 
			}
		],
		 "valence_orbital": [ 
			{
				"type": "occ",
				"energy": -0.27279,
				"method": "rhf"
			},
			{
				"type": "occ",
				"energy": -0.26686,
				"method": "rhf"
			},
			{
				"type": "occ",
				"energy": -0.25254,
				"method": "rhf"
			},
			{
				"type": "occ",
				"energy": -0.25117,
				"method": "rhf"
			},
			{
				"type": "occ",
				"energy": -0.21832,
				"method": "rhf"
			},
			{
				"type": "unocc",
				"energy": -0.06249,
				"method": "rhf"
			},
			{
				"type": "unocc",
				"energy": -0.02655,
				"method": "rhf"
			},
			{
				"type": "unocc",
				"energy": -0.01866,
				"method": "rhf"
			},
			{
				"type": "unocc",
				"energy": -0.00677,
				"method": "rhf"
			},
			{
				"type": "unocc",
				"energy": 0.00344,
				"method": "rhf"
			}
		],
		"cosmo_sigma_profile": { 
			"-0.025": 0.0,
			"-0.024": 0.0,
			"-0.023": 0.0,
			"-0.022": 0.0,
			"-0.021": 0.0,
			"-0.02": 0.0,
			"-0.019": 0.0,
			"-0.018": 0.16944182435,
			"-0.017": 0.665590864809,
			"-0.016": 0.685101978825,
			"-0.015": 0.813720563382,
			"-0.014": 0.784183020708,
			"-0.013": 0.50994510829,
			"-0.012": 0.3471210888,
			"-0.011": 1.09495935097,
			"-0.01": 0.774562124968,
			"-0.009": 0.354096791296,
			"-0.008": 3.74759876139,
			"-0.007": 15.8133702151,
			"-0.006": 21.6742356668,
			"-0.005": 22.9765269673,
			"-0.004": 19.3584215057,
			"-0.003": 15.665517321,
			"-0.002": 18.4879502104,
			"-0.001": 20.2655609495,
			"0.0": 22.7737218958,
			"0.001": 25.7537442952,
			"0.002": 35.706032599,
			"0.003": 39.1083081807,
			"0.004": 32.3809886303,
			"0.005": 18.0767227649,
			"0.006": 5.03023570649,
			"0.007": 4.07344346121,
			"0.008": 3.54214037701,
			"0.009": 4.76362378792,
			"0.01": 2.46300263469,
			"0.011": 1.92146173229,
			"0.012": 2.68945590988,
			"0.013": 0.150513763926,
			"0.014": 0.0,
			"0.015": 0.0,
			"0.016": 0.0,
			"0.017": 0.0,
			"0.018": 0.0,
			"0.019": 0.0,
			"0.02": 0.0,
			"0.021": 0.0,
			"0.022": 0.0,
			"0.023": 0.0,
			"0.024": 0.0,
			"0.025": 0.0
		}
	}
}
