{
	 "smiles": "CCN(CCO)C(=O)COC(=O)C1=CC=CC=C1", 
	 "Tm": 352.15, 
	 "num_atms": 35, 
	 "gaussian": { 
		 "optdone": 1, 
		 "sigma_profile": "yes", 
		 "theory": "DFT", 
		 "functional": "B3LYP", 
		 "basiset": "6-31G**", 
		 "properties": { 
			 "R2extent": 5209.1275, 
			 "electric_dipole_moment_norm": 5.10420470299, 
			 "electric_quadrupole_moment_norm": 12.2605936157, 
			 "total_energy": -861.291635199, 
			 "HOMO_LUMO_gap": 0.17281, 
			 "cosmo_polarized_energy": -15.75, 
			 "cosmo_cavitation_energy": 36.52, 
			 "cosmo_dispersion_energy": -25.25, 
			 "cosmo_repulsion_energy": 1.93, 
			 "cosmo_total_nonelectrostatic_energy": 13.2, 
			 "SMD_solvation_energy": 7.15 
		},
		"coords": [
			{
				"x": -0.5865264334,
				"y": -0.0954048094,
				"z": -2.0312038442,
				"element": "C" 
			},
			{
				"x": -1.2702365025,
				"y": -1.451765499,
				"z": -1.8346900163,
				"element": "C" 
			},
			{
				"x": -2.2025938629,
				"y": -1.5058418544,
				"z": -0.7014182143,
				"element": "N" 
			},
			{
				"x": -3.4732467935,
				"y": -0.7770043144,
				"z": -0.8319355511,
				"element": "C" 
			},
			{
				"x": -3.6532088514,
				"y": 0.2805727223,
				"z": 0.2690588623,
				"element": "C" 
			},
			{
				"x": -2.5486874711,
				"y": 1.1650128342,
				"z": 0.3582084156,
				"element": "O" 
			},
			{
				"x": -2.0954387296,
				"y": -2.3453615,
				"z": 0.369910906,
				"element": "C" 
			},
			{
				"x": -3.045249632,
				"y": -2.6086576455,
				"z": 1.10188177,
				"element": "O" 
			},
			{
				"x": -0.7457930947,
				"y": -2.9989415899,
				"z": 0.7059329094,
				"element": "C" 
			},
			{
				"x": 0.4461247029,
				"y": -2.2089053588,
				"z": 0.5148254815,
				"element": "O" 
			},
			{
				"x": 0.5183350498,
				"y": -1.0436651276,
				"z": 1.2003669058,
				"element": "C" 
			},
			{
				"x": -0.4171770698,
				"y": -0.5910761373,
				"z": 1.8386090198,
				"element": "O" 
			},
			{
				"x": 1.8485281439,
				"y": -0.389181095,
				"z": 1.0816321052,
				"element": "C" 
			},
			{
				"x": 2.0248491934,
				"y": 0.8506522883,
				"z": 1.7135234999,
				"element": "C" 
			},
			{
				"x": 3.2530870673,
				"y": 1.5018070972,
				"z": 1.6392774723,
				"element": "C" 
			},
			{
				"x": 4.3109278542,
				"y": 0.9188770449,
				"z": 0.9360408721,
				"element": "C" 
			},
			{
				"x": 4.1397159565,
				"y": -0.3172125661,
				"z": 0.3073135285,
				"element": "C" 
			},
			{
				"x": 2.9125385455,
				"y": -0.9734036002,
				"z": 0.3779675937,
				"element": "C" 
			},
			{
				"x": 0.1436341013,
				"y": 0.1040437043,
				"z": -1.2438212782,
				"element": "H" 
			},
			{
				"x": -1.3101959277,
				"y": 0.7227346295,
				"z": -2.0190823236,
				"element": "H" 
			},
			{
				"x": -0.0584552422,
				"y": -0.0849813122,
				"z": -2.9906887328,
				"element": "H" 
			},
			{
				"x": -1.839155854,
				"y": -1.7086130193,
				"z": -2.7389682659,
				"element": "H" 
			},
			{
				"x": -0.517923167,
				"y": -2.2322577279,
				"z": -1.7101132339,
				"element": "H" 
			},
			{
				"x": -4.3115119806,
				"y": -1.4829235628,
				"z": -0.8018669066,
				"element": "H" 
			},
			{
				"x": -3.465513027,
				"y": -0.2888815173,
				"z": -1.8097540516,
				"element": "H" 
			},
			{
				"x": -3.8448297429,
				"y": -0.2221227845,
				"z": 1.2232984471,
				"element": "H" 
			},
			{
				"x": -4.5343689249,
				"y": 0.8850599566,
				"z": 0.0236423081,
				"element": "H" 
			},
			{
				"x": -1.8596555606,
				"y": 0.7095303784,
				"z": 0.8655913152,
				"element": "H" 
			},
			{
				"x": -0.5808000817,
				"y": -3.8907395087,
				"z": 0.095731255,
				"element": "H" 
			},
			{
				"x": -0.8280420253,
				"y": -3.2908035179,
				"z": 1.753880202,
				"element": "H" 
			},
			{
				"x": 1.1909017669,
				"y": 1.2823215012,
				"z": 2.2562897637,
				"element": "H" 
			},
			{
				"x": 3.387066563,
				"y": 2.4618766161,
				"z": 2.1283131891,
				"element": "H" 
			},
			{
				"x": 5.269218975,
				"y": 1.4271970409,
				"z": 0.8790033311,
				"element": "H" 
			},
			{
				"x": 4.963419412,
				"y": -0.7697950552,
				"z": -0.2365458289,
				"element": "H" 
			},
			{
				"x": 2.772662643,
				"y": -1.9341467104,
				"z": -0.1037109061,
				"element": "H" 
			}
		],
		 "valence_orbital": [ 
			{
				"type": "occ",
				"energy": -0.27083,
				"method": "rhf"
			},
			{
				"type": "occ",
				"energy": -0.26855,
				"method": "rhf"
			},
			{
				"type": "occ",
				"energy": -0.25927,
				"method": "rhf"
			},
			{
				"type": "occ",
				"energy": -0.24588,
				"method": "rhf"
			},
			{
				"type": "occ",
				"energy": -0.23385,
				"method": "rhf"
			},
			{
				"type": "unocc",
				"energy": -0.06104,
				"method": "rhf"
			},
			{
				"type": "unocc",
				"energy": -0.01775,
				"method": "rhf"
			},
			{
				"type": "unocc",
				"energy": 0.01769,
				"method": "rhf"
			},
			{
				"type": "unocc",
				"energy": 0.04064,
				"method": "rhf"
			},
			{
				"type": "unocc",
				"energy": 0.07697,
				"method": "rhf"
			}
		],
		"cosmo_sigma_profile": { 
			"-0.025": 0.0,
			"-0.024": 0.0,
			"-0.023": 0.0,
			"-0.022": 0.0,
			"-0.021": 0.0,
			"-0.02": 0.0,
			"-0.019": 0.0,
			"-0.018": 0.0,
			"-0.017": 0.0,
			"-0.016": 0.0,
			"-0.015": 0.0,
			"-0.014": 0.0,
			"-0.013": 0.0,
			"-0.012": 0.0,
			"-0.011": 0.0,
			"-0.01": 0.0,
			"-0.009": 1.42506515195,
			"-0.008": 4.10719360032,
			"-0.007": 6.06109846818,
			"-0.006": 14.1054387721,
			"-0.005": 21.9983475433,
			"-0.004": 28.1952072973,
			"-0.003": 29.7842457923,
			"-0.002": 27.7502085075,
			"-0.001": 22.5587424384,
			"0.0": 23.8253243019,
			"0.001": 21.670618082,
			"0.002": 15.6650433795,
			"0.003": 16.8425916716,
			"0.004": 12.5371269856,
			"0.005": 4.21285728181,
			"0.006": 3.57196773667,
			"0.007": 3.36392481375,
			"0.008": 4.29527545511,
			"0.009": 3.84012743396,
			"0.01": 4.64967060669,
			"0.011": 3.81592598899,
			"0.012": 3.10235850014,
			"0.013": 4.56510226874,
			"0.014": 5.00609458523,
			"0.015": 1.27797730987,
			"0.016": 0.0,
			"0.017": 0.0,
			"0.018": 0.0,
			"0.019": 0.0,
			"0.02": 0.0,
			"0.021": 0.0,
			"0.022": 0.0,
			"0.023": 0.0,
			"0.024": 0.0,
			"0.025": 0.0
		}
	}
}
