{
	 "smiles": "ClC1=C(Cl)C(I)=CC=C1", 
	 "Tm": 308.15, 
	 "num_atms": 12, 
	 "gaussian": { 
		 "optdone": 1, 
		 "sigma_profile": "no", 
		 "theory": "DFT", 
		 "functional": "B3LYP", 
		 "basiset": "6-31G**", 
		 "properties": { 
			 "R2extent": 2419.1583, 
			 "electric_dipole_moment_norm": 2.61889405093, 
			 "electric_quadrupole_moment_norm": 10.3171932865, 
			 "total_energy": -1162.20616576, 
			 "HOMO_LUMO_gap": 0.19379, 
			 "cosmo_polarized_energy": -89431.43, 
			 "cosmo_cavitation_energy": 22.71, 
			 "cosmo_dispersion_energy": -18.63, 
			 "cosmo_repulsion_energy": 1.48, 
			 "cosmo_total_nonelectrostatic_energy": 5.56, 
			 "SMD_solvation_energy": 2.59 
		},
		"coords": [
			{
				"x": -1.503932845,
				"y": -2.9198809558,
				"z": -1.672625952,
				"element": "Cl" 
			},
			{
				"x": -1.0503034384,
				"y": -1.2362421754,
				"z": -1.7772726674,
				"element": "C" 
			},
			{
				"x": -1.2087802323,
				"y": -0.3727208878,
				"z": -0.6774722113,
				"element": "C" 
			},
			{
				"x": -1.8653229433,
				"y": -0.9789959896,
				"z": 0.8144413614,
				"element": "Cl" 
			},
			{
				"x": -0.8270019679,
				"y": 0.9726399668,
				"z": -0.8178804257,
				"element": "C" 
			},
			{
				"x": -1.0184210073,
				"y": 2.3615841281,
				"z": 0.7638684687,
				"element": "I" 
			},
			{
				"x": -0.3018247514,
				"y": 1.4369908278,
				"z": -2.0265632406,
				"element": "C" 
			},
			{
				"x": -0.1530905588,
				"y": 0.5658907197,
				"z": -3.1032022591,
				"element": "C" 
			},
			{
				"x": -0.5257802778,
				"y": -0.769330894,
				"z": -2.9820974767,
				"element": "C" 
			},
			{
				"x": -0.0118300363,
				"y": 2.4767555831,
				"z": -2.1203012911,
				"element": "H" 
			},
			{
				"x": 0.255287199,
				"y": 0.9307472011,
				"z": -4.0402339765,
				"element": "H" 
			},
			{
				"x": -0.4158991404,
				"y": -1.458837524,
				"z": -3.8111603296,
				"element": "H" 
			}
		],
		 "valence_orbital": [ 
			{
				"type": "occ",
				"energy": -0.31795,
				"method": "rhf"
			},
			{
				"type": "occ",
				"energy": -0.30239,
				"method": "rhf"
			},
			{
				"type": "occ",
				"energy": -0.27193,
				"method": "rhf"
			},
			{
				"type": "occ",
				"energy": -0.26046,
				"method": "rhf"
			},
			{
				"type": "occ",
				"energy": -0.25234,
				"method": "rhf"
			},
			{
				"type": "unocc",
				"energy": -0.05855,
				"method": "rhf"
			},
			{
				"type": "unocc",
				"energy": -0.03806,
				"method": "rhf"
			},
			{
				"type": "unocc",
				"energy": -0.035,
				"method": "rhf"
			},
			{
				"type": "unocc",
				"energy": 0.01013,
				"method": "rhf"
			},
			{
				"type": "unocc",
				"energy": 0.03856,
				"method": "rhf"
			}
		],
		"cosmo_sigma_profile": { 
			"0.0": 0.0,
			"0.0": 0.0,
			"0.0": 0.0,
			"0.0": 0.0,
			"0.0": 0.0,
			"0.0": 0.0,
			"0.0": 0.0,
			"0.0": 0.0,
			"0.0": 0.0,
			"0.0": 0.0,
			"0.0": 0.0,
			"0.0": 0.0,
			"0.0": 0.0,
			"0.0": 0.0,
			"0.0": 0.0,
			"0.0": 0.0,
			"0.0": 0.0,
			"0.0": 0.0,
			"0.0": 0.0,
			"0.0": 0.0,
			"0.0": 0.0,
			"0.0": 0.0,
			"0.0": 0.0,
			"0.0": 0.0,
			"0.0": 0.0,
			"0.0": 0.0,
			"0.0": 0.0,
			"0.0": 0.0,
			"0.0": 0.0,
			"0.0": 0.0,
			"0.0": 0.0,
			"0.0": 0.0,
			"0.0": 0.0,
			"0.0": 0.0,
			"0.0": 0.0,
			"0.0": 0.0,
			"0.0": 0.0,
			"0.0": 0.0,
			"0.0": 0.0,
			"0.0": 0.0,
			"0.0": 0.0,
			"0.0": 0.0,
			"0.0": 0.0,
			"0.0": 0.0,
			"0.0": 0.0,
			"0.0": 0.0,
			"0.0": 0.0,
			"0.0": 0.0,
			"0.0": 0.0,
			"0.0": 0.0,
			"0.0": 0.0
		}
	}
}
