{
	 "smiles": "COC(=O)C1=CC=C(C=C1)N(C)C", 
	 "Tm": 373.15, 
	 "num_atms": 26, 
	 "gaussian": { 
		 "optdone": 1, 
		 "sigma_profile": "yes", 
		 "theory": "DFT", 
		 "functional": "B3LYP", 
		 "basiset": "6-31G**", 
		 "properties": { 
			 "R2extent": 3912.6127, 
			 "electric_dipole_moment_norm": 4.22867815872, 
			 "electric_quadrupole_moment_norm": 17.9995870894, 
			 "total_energy": -594.106269465, 
			 "HOMO_LUMO_gap": 0.17398, 
			 "cosmo_polarized_energy": -10.68, 
			 "cosmo_cavitation_energy": 29.16, 
			 "cosmo_dispersion_energy": -21.48, 
			 "cosmo_repulsion_energy": 1.68, 
			 "cosmo_total_nonelectrostatic_energy": 9.37, 
			 "SMD_solvation_energy": 6.41 
		},
		"coords": [
			{
				"x": 3.5546454052,
				"y": -3.2502360415,
				"z": 2.4033479047,
				"element": "C" 
			},
			{
				"x": 2.6489953579,
				"y": -2.3897753542,
				"z": 1.7022640584,
				"element": "O" 
			},
			{
				"x": 1.4042964927,
				"y": -2.3018449751,
				"z": 2.2429190794,
				"element": "C" 
			},
			{
				"x": 1.0848740607,
				"y": -2.9106378993,
				"z": 3.2489596069,
				"element": "O" 
			},
			{
				"x": 0.5158756166,
				"y": -1.4017339141,
				"z": 1.4784029218,
				"element": "C" 
			},
			{
				"x": -0.7999151389,
				"y": -1.2187054233,
				"z": 1.9287411345,
				"element": "C" 
			},
			{
				"x": -1.6821014167,
				"y": -0.3873005213,
				"z": 1.258003292,
				"element": "C" 
			},
			{
				"x": -1.2805788189,
				"y": 0.304391614,
				"z": 0.0869475298,
				"element": "C" 
			},
			{
				"x": 0.0525482255,
				"y": 0.1194256088,
				"z": -0.3584286588,
				"element": "C" 
			},
			{
				"x": 0.9238140702,
				"y": -0.7164988105,
				"z": 0.3242031207,
				"element": "C" 
			},
			{
				"x": -2.1560056084,
				"y": 1.1249224082,
				"z": -0.5952888452,
				"element": "N" 
			},
			{
				"x": -1.6940282351,
				"y": 1.8894982998,
				"z": -1.7414483534,
				"element": "C" 
			},
			{
				"x": -3.4890205182,
				"y": 1.3651368872,
				"z": -0.0683401275,
				"element": "C" 
			},
			{
				"x": 4.4922023888,
				"y": -3.2086076324,
				"z": 1.8478860918,
				"element": "H" 
			},
			{
				"x": 3.1733563449,
				"y": -4.2745147784,
				"z": 2.4332773194,
				"element": "H" 
			},
			{
				"x": 3.7030643502,
				"y": -2.9048321827,
				"z": 3.430041922,
				"element": "H" 
			},
			{
				"x": -1.1163396599,
				"y": -1.7448033401,
				"z": 2.8235475003,
				"element": "H" 
			},
			{
				"x": -2.6873773023,
				"y": -0.2724294302,
				"z": 1.6436901267,
				"element": "H" 
			},
			{
				"x": 0.4092838762,
				"y": 0.6327752538,
				"z": -1.2426134955,
				"element": "H" 
			},
			{
				"x": 1.938169786,
				"y": -0.8412931663,
				"z": -0.0382119832,
				"element": "H" 
			},
			{
				"x": -2.5276862634,
				"y": 2.4608986109,
				"z": -2.151150315,
				"element": "H" 
			},
			{
				"x": -1.316558759,
				"y": 1.2339827928,
				"z": -2.5363994333,
				"element": "H" 
			},
			{
				"x": -0.8939277782,
				"y": 2.5962440149,
				"z": -1.4778075125,
				"element": "H" 
			},
			{
				"x": -4.0601968268,
				"y": 0.4325125146,
				"z": 0.0207484762,
				"element": "H" 
			},
			{
				"x": -3.4674202228,
				"y": 1.8441350804,
				"z": 0.9211421228,
				"element": "H" 
			},
			{
				"x": -4.0309694265,
				"y": 2.0218903842,
				"z": -0.749733483,
				"element": "H" 
			}
		],
		 "valence_orbital": [ 
			{
				"type": "occ",
				"energy": -0.28721,
				"method": "rhf"
			},
			{
				"type": "occ",
				"energy": -0.2839,
				"method": "rhf"
			},
			{
				"type": "occ",
				"energy": -0.25649,
				"method": "rhf"
			},
			{
				"type": "occ",
				"energy": -0.24781,
				"method": "rhf"
			},
			{
				"type": "occ",
				"energy": -0.19589,
				"method": "rhf"
			},
			{
				"type": "unocc",
				"energy": -0.02191,
				"method": "rhf"
			},
			{
				"type": "unocc",
				"energy": 0.00433,
				"method": "rhf"
			},
			{
				"type": "unocc",
				"energy": 0.0785,
				"method": "rhf"
			},
			{
				"type": "unocc",
				"energy": 0.08134,
				"method": "rhf"
			},
			{
				"type": "unocc",
				"energy": 0.10096,
				"method": "rhf"
			}
		],
		"cosmo_sigma_profile": { 
			"-0.025": 0.0,
			"-0.024": 0.0,
			"-0.023": 0.0,
			"-0.022": 0.0,
			"-0.021": 0.0,
			"-0.02": 0.0,
			"-0.019": 0.0,
			"-0.018": 0.0,
			"-0.017": 0.0,
			"-0.016": 0.0,
			"-0.015": 0.0,
			"-0.014": 0.0,
			"-0.013": 0.0,
			"-0.012": 0.0,
			"-0.011": 0.0,
			"-0.01": 0.0,
			"-0.009": 0.0,
			"-0.008": 0.250627996199,
			"-0.007": 2.07682601084,
			"-0.006": 7.91717927045,
			"-0.005": 20.5107223417,
			"-0.004": 27.3888291028,
			"-0.003": 27.0928243247,
			"-0.002": 26.3294610655,
			"-0.001": 17.5516096178,
			"0.0": 11.6674686185,
			"0.001": 11.1615219667,
			"0.002": 12.3206583964,
			"0.003": 14.1721147725,
			"0.004": 13.4412249557,
			"0.005": 14.4214145233,
			"0.006": 7.45393096424,
			"0.007": 2.77914528316,
			"0.008": 1.68215465727,
			"0.009": 1.73906369405,
			"0.01": 1.52965790582,
			"0.011": 1.97465383359,
			"0.012": 3.52210608929,
			"0.013": 3.81918913246,
			"0.014": 0.054186476892,
			"0.015": 0.0,
			"0.016": 0.0,
			"0.017": 0.0,
			"0.018": 0.0,
			"0.019": 0.0,
			"0.02": 0.0,
			"0.021": 0.0,
			"0.022": 0.0,
			"0.023": 0.0,
			"0.024": 0.0,
			"0.025": 0.0
		}
	}
}
