{
	 "smiles": "CCC(Br)=C", 
	 "Tm": 140.15, 
	 "num_atms": 12, 
	 "gaussian": { 
		 "optdone": 1, 
		 "sigma_profile": "yes", 
		 "theory": "DFT", 
		 "functional": "B3LYP", 
		 "basiset": "6-31G**", 
		 "properties": { 
			 "R2extent": 1747.1905, 
			 "electric_dipole_moment_norm": 1.71934415985, 
			 "electric_quadrupole_moment_norm": 4.31656019534, 
			 "total_energy": -2728.03441665, 
			 "HOMO_LUMO_gap": 0.25078, 
			 "cosmo_polarized_energy": -2.81, 
			 "cosmo_cavitation_energy": 17.38, 
			 "cosmo_dispersion_energy": -12.98, 
			 "cosmo_repulsion_energy": 1.14, 
			 "cosmo_total_nonelectrostatic_energy": 5.53, 
			 "SMD_solvation_energy": 2.76 
		},
		"coords": [
			{
				"x": 0.145593446,
				"y": 0.1716752124,
				"z": -0.3773391937,
				"element": "C" 
			},
			{
				"x": -1.1175962037,
				"y": 0.4635666944,
				"z": 0.4475794307,
				"element": "C" 
			},
			{
				"x": -0.8803688408,
				"y": 0.5465496188,
				"z": 1.9299672027,
				"element": "C" 
			},
			{
				"x": -0.3350946175,
				"y": -1.1181304194,
				"z": 2.7506007743,
				"element": "Br" 
			},
			{
				"x": -1.0090075413,
				"y": 1.6262105923,
				"z": 2.6960576634,
				"element": "C" 
			},
			{
				"x": -0.0990682164,
				"y": 0.1289063009,
				"z": -1.4430147643,
				"element": "H" 
			},
			{
				"x": 0.898412308,
				"y": 0.9519194082,
				"z": -0.2292575115,
				"element": "H" 
			},
			{
				"x": 0.5884674504,
				"y": -0.7857690592,
				"z": -0.0903844283,
				"element": "H" 
			},
			{
				"x": -1.8689926596,
				"y": -0.310603164,
				"z": 0.2490652819,
				"element": "H" 
			},
			{
				"x": -1.5535308029,
				"y": 1.4197449779,
				"z": 0.1334099625,
				"element": "H" 
			},
			{
				"x": -1.318981991,
				"y": 2.5661686481,
				"z": 2.2469937117,
				"element": "H" 
			},
			{
				"x": -0.8186323312,
				"y": 1.6156611896,
				"z": 3.7622218707,
				"element": "H" 
			}
		],
		 "valence_orbital": [ 
			{
				"type": "occ",
				"energy": -0.35439,
				"method": "rhf"
			},
			{
				"type": "occ",
				"energy": -0.34407,
				"method": "rhf"
			},
			{
				"type": "occ",
				"energy": -0.31511,
				"method": "rhf"
			},
			{
				"type": "occ",
				"energy": -0.28051,
				"method": "rhf"
			},
			{
				"type": "occ",
				"energy": -0.24747,
				"method": "rhf"
			},
			{
				"type": "unocc",
				"energy": 0.00331,
				"method": "rhf"
			},
			{
				"type": "unocc",
				"energy": 0.01102,
				"method": "rhf"
			},
			{
				"type": "unocc",
				"energy": 0.10085,
				"method": "rhf"
			},
			{
				"type": "unocc",
				"energy": 0.13049,
				"method": "rhf"
			},
			{
				"type": "unocc",
				"energy": 0.14975,
				"method": "rhf"
			}
		],
		"cosmo_sigma_profile": { 
			"-0.025": 0.0,
			"-0.024": 0.0,
			"-0.023": 0.0,
			"-0.022": 0.0,
			"-0.021": 0.0,
			"-0.02": 0.0,
			"-0.019": 0.0,
			"-0.018": 0.0,
			"-0.017": 0.0,
			"-0.016": 0.0,
			"-0.015": 0.0,
			"-0.014": 0.0,
			"-0.013": 0.0,
			"-0.012": 0.0,
			"-0.011": 0.0,
			"-0.01": 0.0,
			"-0.009": 0.0,
			"-0.008": 0.0,
			"-0.007": 1.02605697513,
			"-0.006": 4.19714518142,
			"-0.005": 5.55657380756,
			"-0.004": 8.26233614124,
			"-0.003": 13.8707382566,
			"-0.002": 16.5504535996,
			"-0.001": 17.2737895296,
			"0.0": 15.0502904552,
			"0.001": 12.6769557388,
			"0.002": 9.2654849834,
			"0.003": 9.86929094167,
			"0.004": 11.9270436033,
			"0.005": 12.0038203021,
			"0.006": 2.5810767073,
			"0.007": 0.0,
			"0.008": 0.0,
			"0.009": 0.0,
			"0.01": 0.0,
			"0.011": 0.0,
			"0.012": 0.0,
			"0.013": 0.0,
			"0.014": 0.0,
			"0.015": 0.0,
			"0.016": 0.0,
			"0.017": 0.0,
			"0.018": 0.0,
			"0.019": 0.0,
			"0.02": 0.0,
			"0.021": 0.0,
			"0.022": 0.0,
			"0.023": 0.0,
			"0.024": 0.0,
			"0.025": 0.0
		}
	}
}
