{
	 "smiles": "OC(=O)C1=CC(F)=C(C=C1)N1C=NC=N1", 
	 "Tm": 559.15, 
	 "num_atms": 21, 
	 "gaussian": { 
		 "optdone": 1, 
		 "sigma_profile": "yes", 
		 "theory": "DFT", 
		 "functional": "B3LYP", 
		 "basiset": "6-31G**", 
		 "properties": { 
			 "R2extent": 3933.4002, 
			 "electric_dipole_moment_norm": 3.69965329997, 
			 "electric_quadrupole_moment_norm": 12.9831544472, 
			 "total_energy": -761.100426067, 
			 "HOMO_LUMO_gap": 0.18625, 
			 "cosmo_polarized_energy": -15.94, 
			 "cosmo_cavitation_energy": 27.54, 
			 "cosmo_dispersion_energy": -19.96, 
			 "cosmo_repulsion_energy": 1.51, 
			 "cosmo_total_nonelectrostatic_energy": 9.08, 
			 "SMD_solvation_energy": 4.72 
		},
		"coords": [
			{
				"x": -1.5331738311,
				"y": -1.5510396012,
				"z": 4.4094843783,
				"element": "O" 
			},
			{
				"x": -1.3486092995,
				"y": -2.2695326434,
				"z": 3.2760966742,
				"element": "C" 
			},
			{
				"x": -1.4764560893,
				"y": -3.4762402669,
				"z": 3.2397336738,
				"element": "O" 
			},
			{
				"x": -0.980327153,
				"y": -1.4226185461,
				"z": 2.1079056515,
				"element": "C" 
			},
			{
				"x": -0.7685205919,
				"y": -2.0671568193,
				"z": 0.8833696773,
				"element": "C" 
			},
			{
				"x": -0.4300422655,
				"y": -1.3209424029,
				"z": -0.2330893179,
				"element": "C" 
			},
			{
				"x": -0.265755532,
				"y": -1.9402135393,
				"z": -1.4076060374,
				"element": "F" 
			},
			{
				"x": -0.2787706318,
				"y": 0.0716865013,
				"z": -0.1531063255,
				"element": "C" 
			},
			{
				"x": -0.4850659917,
				"y": 0.7051435829,
				"z": 1.0774211705,
				"element": "C" 
			},
			{
				"x": -0.843896537,
				"y": -0.0320512072,
				"z": 2.2020486429,
				"element": "C" 
			},
			{
				"x": 0.0523049162,
				"y": 0.8334673426,
				"z": -1.2978807623,
				"element": "N" 
			},
			{
				"x": -0.4861909117,
				"y": 2.0153330667,
				"z": -1.7130105812,
				"element": "C" 
			},
			{
				"x": 0.1090335854,
				"y": 2.4302261231,
				"z": -2.8113407869,
				"element": "N" 
			},
			{
				"x": 1.0319701765,
				"y": 1.4481962528,
				"z": -3.0388651239,
				"element": "C" 
			},
			{
				"x": 1.0427731787,
				"y": 0.4598161645,
				"z": -2.1613020301,
				"element": "N" 
			},
			{
				"x": -1.7654016143,
				"y": -2.1943706871,
				"z": 5.0993116072,
				"element": "H" 
			},
			{
				"x": -0.8824683905,
				"y": -3.1420565414,
				"z": 0.8053006323,
				"element": "H" 
			},
			{
				"x": -0.3405066199,
				"y": 1.7781491682,
				"z": 1.1465147751,
				"element": "H" 
			},
			{
				"x": -1.000105328,
				"y": 0.46289281,
				"z": 3.1526324909,
				"element": "H" 
			},
			{
				"x": -1.3049075805,
				"y": 2.4983477279,
				"z": -1.1984281132,
				"element": "H" 
			},
			{
				"x": 1.716316511,
				"y": 1.4648635148,
				"z": -3.8757902956,
				"element": "H" 
			}
		],
		 "valence_orbital": [ 
			{
				"type": "occ",
				"energy": -0.29292,
				"method": "rhf"
			},
			{
				"type": "occ",
				"energy": -0.28707,
				"method": "rhf"
			},
			{
				"type": "occ",
				"energy": -0.28469,
				"method": "rhf"
			},
			{
				"type": "occ",
				"energy": -0.27729,
				"method": "rhf"
			},
			{
				"type": "occ",
				"energy": -0.26026,
				"method": "rhf"
			},
			{
				"type": "unocc",
				"energy": -0.07401,
				"method": "rhf"
			},
			{
				"type": "unocc",
				"energy": -0.02946,
				"method": "rhf"
			},
			{
				"type": "unocc",
				"energy": -0.00551,
				"method": "rhf"
			},
			{
				"type": "unocc",
				"energy": 0.04326,
				"method": "rhf"
			},
			{
				"type": "unocc",
				"energy": 0.04477,
				"method": "rhf"
			}
		],
		"cosmo_sigma_profile": { 
			"-0.025": 0.0,
			"-0.024": 0.0,
			"-0.023": 0.0,
			"-0.022": 0.0,
			"-0.021": 0.0,
			"-0.02": 0.0,
			"-0.019": 0.134825661364,
			"-0.018": 1.25353146184,
			"-0.017": 0.597008994553,
			"-0.016": 0.617369909424,
			"-0.015": 0.949446061721,
			"-0.014": 1.20973304324,
			"-0.013": 0.48995588923,
			"-0.012": 0.536290963523,
			"-0.011": 2.00061197875,
			"-0.01": 3.92246826308,
			"-0.009": 5.65261154936,
			"-0.008": 7.65146367495,
			"-0.007": 8.56727738256,
			"-0.006": 8.57196693712,
			"-0.005": 7.14562363754,
			"-0.004": 9.26832480821,
			"-0.003": 11.8603558565,
			"-0.002": 14.3555608457,
			"-0.001": 21.1440161725,
			"0.0": 20.4851029411,
			"0.001": 17.3659407119,
			"0.002": 10.2232808814,
			"0.003": 12.454251359,
			"0.004": 8.95553996602,
			"0.005": 5.22220933237,
			"0.006": 7.31250879661,
			"0.007": 6.44570825951,
			"0.008": 3.67297391805,
			"0.009": 4.35465869287,
			"0.01": 4.02815524314,
			"0.011": 8.02461635883,
			"0.012": 3.56381864942,
			"0.013": 1.60126337562,
			"0.014": 1.50506968214,
			"0.015": 0.982527523477,
			"0.016": 0.529388403368,
			"0.017": 0.0,
			"0.018": 0.0,
			"0.019": 0.0,
			"0.02": 0.0,
			"0.021": 0.0,
			"0.022": 0.0,
			"0.023": 0.0,
			"0.024": 0.0,
			"0.025": 0.0
		}
	}
}
