{
	 "smiles": "CCOC(=O)C1=C(C)C2=C(S1)N=C(NC2=O)N1CCOCC1", 
	 "Tm": 570.15, 
	 "num_atms": 39, 
	 "gaussian": { 
		 "optdone": 1, 
		 "sigma_profile": "yes", 
		 "theory": "DFT", 
		 "functional": "B3LYP", 
		 "basiset": "6-31G**", 
		 "properties": { 
			 "R2extent": 10829.1889, 
			 "electric_dipole_moment_norm": 5.06113819116, 
			 "electric_quadrupole_moment_norm": 20.6938362734, 
			 "total_energy": -1407.10786645, 
			 "HOMO_LUMO_gap": 0.15834, 
			 "cosmo_polarized_energy": -19.82, 
			 "cosmo_cavitation_energy": 42.91, 
			 "cosmo_dispersion_energy": -32.08, 
			 "cosmo_repulsion_energy": 2.42, 
			 "cosmo_total_nonelectrostatic_energy": 13.24, 
			 "SMD_solvation_energy": 6.3 
		},
		"coords": [
			{
				"x": 2.8680788871,
				"y": -4.623997024,
				"z": 2.582033779,
				"element": "C" 
			},
			{
				"x": 1.3840384735,
				"y": -4.3624887623,
				"z": 2.7933104944,
				"element": "C" 
			},
			{
				"x": 0.9617005453,
				"y": -3.152967345,
				"z": 2.1247895642,
				"element": "O" 
			},
			{
				"x": 0.6192364198,
				"y": -3.2707429344,
				"z": 0.8139996228,
				"element": "C" 
			},
			{
				"x": 0.6455164803,
				"y": -4.3249458957,
				"z": 0.2016797817,
				"element": "O" 
			},
			{
				"x": 0.2177048915,
				"y": -1.9804796432,
				"z": 0.2525709769,
				"element": "C" 
			},
			{
				"x": -0.1836645803,
				"y": -1.7402231907,
				"z": -1.0475657313,
				"element": "C" 
			},
			{
				"x": -0.2794642559,
				"y": -2.7861671534,
				"z": -2.1252155896,
				"element": "C" 
			},
			{
				"x": -0.503059728,
				"y": -0.3553780054,
				"z": -1.2375792583,
				"element": "C" 
			},
			{
				"x": -0.3370117735,
				"y": 0.4265897444,
				"z": -0.0846083969,
				"element": "C" 
			},
			{
				"x": 0.2152477898,
				"y": -0.5297277162,
				"z": 1.2588258741,
				"element": "S" 
			},
			{
				"x": -0.5560374159,
				"y": 1.7539439211,
				"z": 0.0478975865,
				"element": "N" 
			},
			{
				"x": -0.9761016647,
				"y": 2.3766338053,
				"z": -1.0350237074,
				"element": "C" 
			},
			{
				"x": -1.153573438,
				"y": 1.7131305122,
				"z": -2.2236719459,
				"element": "N" 
			},
			{
				"x": -0.9463728552,
				"y": 0.3213282827,
				"z": -2.4380579388,
				"element": "C" 
			},
			{
				"x": -1.1480091371,
				"y": -0.1264355722,
				"z": -3.5601280311,
				"element": "O" 
			},
			{
				"x": -1.2695964879,
				"y": 3.7153121709,
				"z": -0.9722300876,
				"element": "N" 
			},
			{
				"x": -0.7998393804,
				"y": 4.4828809537,
				"z": 0.1917626549,
				"element": "C" 
			},
			{
				"x": -1.7496292077,
				"y": 5.642773859,
				"z": 0.4660256895,
				"element": "C" 
			},
			{
				"x": -1.9124082404,
				"y": 6.4591690464,
				"z": -0.6882498797,
				"element": "O" 
			},
			{
				"x": -2.466747804,
				"y": 5.7078878265,
				"z": -1.7504427411,
				"element": "C" 
			},
			{
				"x": -1.5658581472,
				"y": 4.5329796865,
				"z": -2.1489406616,
				"element": "C" 
			},
			{
				"x": 3.1772422887,
				"y": -5.5015668306,
				"z": 3.1599048393,
				"element": "H" 
			},
			{
				"x": 3.4650930776,
				"y": -3.7680229732,
				"z": 2.9102891098,
				"element": "H" 
			},
			{
				"x": 3.0758517407,
				"y": -4.8174619386,
				"z": 1.5268901632,
				"element": "H" 
			},
			{
				"x": 1.154282539,
				"y": -4.1853000574,
				"z": 3.8468358881,
				"element": "H" 
			},
			{
				"x": 0.7816667337,
				"y": -5.1964870598,
				"z": 2.4251722823,
				"element": "H" 
			},
			{
				"x": -0.566624035,
				"y": -2.3284051616,
				"z": -3.070844374,
				"element": "H" 
			},
			{
				"x": 0.6726269825,
				"y": -3.3118563887,
				"z": -2.2364610207,
				"element": "H" 
			},
			{
				"x": -1.012938709,
				"y": -3.5509435297,
				"z": -1.8517273366,
				"element": "H" 
			},
			{
				"x": -1.435235562,
				"y": 2.1961067946,
				"z": -3.0651942435,
				"element": "H" 
			},
			{
				"x": 0.2089541352,
				"y": 4.873243678,
				"z": -0.0086208774,
				"element": "H" 
			},
			{
				"x": -0.7426961393,
				"y": 3.8081417515,
				"z": 1.0448320108,
				"element": "H" 
			},
			{
				"x": -2.72686968,
				"y": 5.2579168952,
				"z": 0.7987125149,
				"element": "H" 
			},
			{
				"x": -1.3406339521,
				"y": 6.2849259567,
				"z": 1.2504396134,
				"element": "H" 
			},
			{
				"x": -2.5820567749,
				"y": 6.3879669911,
				"z": -2.5989883986,
				"element": "H" 
			},
			{
				"x": -3.4603385601,
				"y": 5.3212368466,
				"z": -1.470489008,
				"element": "H" 
			},
			{
				"x": -2.1032794084,
				"y": 3.9501354008,
				"z": -2.9014982043,
				"element": "H" 
			},
			{
				"x": -0.6372940475,
				"y": 4.9127930591,
				"z": -2.6020350133,
				"element": "H" 
			}
		],
		 "valence_orbital": [ 
			{
				"type": "occ",
				"energy": -0.26884,
				"method": "rhf"
			},
			{
				"type": "occ",
				"energy": -0.26659,
				"method": "rhf"
			},
			{
				"type": "occ",
				"energy": -0.26126,
				"method": "rhf"
			},
			{
				"type": "occ",
				"energy": -0.25132,
				"method": "rhf"
			},
			{
				"type": "occ",
				"energy": -0.20703,
				"method": "rhf"
			},
			{
				"type": "unocc",
				"energy": -0.04869,
				"method": "rhf"
			},
			{
				"type": "unocc",
				"energy": -0.01784,
				"method": "rhf"
			},
			{
				"type": "unocc",
				"energy": 0.01683,
				"method": "rhf"
			},
			{
				"type": "unocc",
				"energy": 0.02991,
				"method": "rhf"
			},
			{
				"type": "unocc",
				"energy": 0.05249,
				"method": "rhf"
			}
		],
		"cosmo_sigma_profile": { 
			"-0.025": 0.0,
			"-0.024": 0.0,
			"-0.023": 0.0,
			"-0.022": 0.0,
			"-0.021": 0.0,
			"-0.02": 0.0,
			"-0.019": 0.0,
			"-0.018": 0.0,
			"-0.017": 0.249845412138,
			"-0.016": 0.893983998972,
			"-0.015": 0.763024074748,
			"-0.014": 1.26326363809,
			"-0.013": 1.01317193292,
			"-0.012": 1.06548281516,
			"-0.011": 0.94021835597,
			"-0.01": 1.95877272317,
			"-0.009": 1.51266948413,
			"-0.008": 2.00690964214,
			"-0.007": 2.85813095915,
			"-0.006": 13.146658304,
			"-0.005": 27.4708666437,
			"-0.004": 34.3726486205,
			"-0.003": 29.5381588306,
			"-0.002": 25.7354078396,
			"-0.001": 25.9901621036,
			"0.0": 34.9018504501,
			"0.001": 26.1593801376,
			"0.002": 21.1657580183,
			"0.003": 17.3984291461,
			"0.004": 12.9917662522,
			"0.005": 9.28690161235,
			"0.006": 8.9697078148,
			"0.007": 6.19009229278,
			"0.008": 6.02894870509,
			"0.009": 5.25074076702,
			"0.01": 3.76155909789,
			"0.011": 4.99268484399,
			"0.012": 9.01547368308,
			"0.013": 4.69531237475,
			"0.014": 0.0600153054528,
			"0.015": 0.0,
			"0.016": 0.0,
			"0.017": 0.0,
			"0.018": 0.0,
			"0.019": 0.0,
			"0.02": 0.0,
			"0.021": 0.0,
			"0.022": 0.0,
			"0.023": 0.0,
			"0.024": 0.0,
			"0.025": 0.0
		}
	}
}
