{
	 "smiles": "O=NN1CCOCC1", 
	 "Tm": 302.15, 
	 "num_atms": 16, 
	 "gaussian": { 
		 "optdone": 1, 
		 "sigma_profile": "yes", 
		 "theory": "DFT", 
		 "functional": "B3LYP", 
		 "basiset": "6-31G**", 
		 "properties": { 
			 "R2extent": 1193.6176, 
			 "electric_dipole_moment_norm": 3.62753322383, 
			 "electric_quadrupole_moment_norm": 12.730954769, 
			 "total_energy": -417.096435749, 
			 "HOMO_LUMO_gap": 0.19379, 
			 "cosmo_polarized_energy": -11.4, 
			 "cosmo_cavitation_energy": 18.74, 
			 "cosmo_dispersion_energy": -14.39, 
			 "cosmo_repulsion_energy": 1.21, 
			 "cosmo_total_nonelectrostatic_energy": 5.56, 
			 "SMD_solvation_energy": 3.18 
		},
		"coords": [
			{
				"x": -2.2877145311,
				"y": 0.5774822875,
				"z": 1.7050449857,
				"element": "O" 
			},
			{
				"x": -1.4721402656,
				"y": 1.276812133,
				"z": 1.1080720317,
				"element": "N" 
			},
			{
				"x": -0.2079283378,
				"y": 0.85934822,
				"z": 1.2259196557,
				"element": "N" 
			},
			{
				"x": 0.1331151327,
				"y": -0.3857784776,
				"z": 1.9142274796,
				"element": "C" 
			},
			{
				"x": 1.5930428314,
				"y": -0.7160919831,
				"z": 1.5978803865,
				"element": "C" 
			},
			{
				"x": 1.8327341722,
				"y": -0.6551554233,
				"z": 0.2009387944,
				"element": "O" 
			},
			{
				"x": 1.6174937622,
				"y": 0.6287106092,
				"z": -0.3911191279,
				"element": "C" 
			},
			{
				"x": 0.8290113633,
				"y": 1.5868427279,
				"z": 0.5174478479,
				"element": "C" 
			},
			{
				"x": -0.5403783858,
				"y": -1.1685762202,
				"z": 1.5495045042,
				"element": "H" 
			},
			{
				"x": -0.038244115,
				"y": -0.286881135,
				"z": 2.9939049492,
				"element": "H" 
			},
			{
				"x": 1.8154595334,
				"y": -1.7420000552,
				"z": 1.9022044137,
				"element": "H" 
			},
			{
				"x": 2.2736598052,
				"y": -0.0528517817,
				"z": 2.1547837043,
				"element": "H" 
			},
			{
				"x": 2.5825317765,
				"y": 1.0892526963,
				"z": -0.6489096674,
				"element": "H" 
			},
			{
				"x": 1.0649041168,
				"y": 0.454057246,
				"z": -1.3208669866,
				"element": "H" 
			},
			{
				"x": 1.498086275,
				"y": 2.0750324242,
				"z": 1.237672977,
				"element": "H" 
			},
			{
				"x": 0.3389668666,
				"y": 2.369296732,
				"z": -0.0663059481,
				"element": "H" 
			}
		],
		 "valence_orbital": [ 
			{
				"type": "occ",
				"energy": -0.37166,
				"method": "rhf"
			},
			{
				"type": "occ",
				"energy": -0.33016,
				"method": "rhf"
			},
			{
				"type": "occ",
				"energy": -0.26805,
				"method": "rhf"
			},
			{
				"type": "occ",
				"energy": -0.25788,
				"method": "rhf"
			},
			{
				"type": "occ",
				"energy": -0.22388,
				"method": "rhf"
			},
			{
				"type": "unocc",
				"energy": -0.03009,
				"method": "rhf"
			},
			{
				"type": "unocc",
				"energy": 0.0722,
				"method": "rhf"
			},
			{
				"type": "unocc",
				"energy": 0.09261,
				"method": "rhf"
			},
			{
				"type": "unocc",
				"energy": 0.10855,
				"method": "rhf"
			},
			{
				"type": "unocc",
				"energy": 0.1159,
				"method": "rhf"
			}
		],
		"cosmo_sigma_profile": { 
			"-0.025": 0.0,
			"-0.024": 0.0,
			"-0.023": 0.0,
			"-0.022": 0.0,
			"-0.021": 0.0,
			"-0.02": 0.0,
			"-0.019": 0.0,
			"-0.018": 0.0,
			"-0.017": 0.0,
			"-0.016": 0.0,
			"-0.015": 0.0,
			"-0.014": 0.0,
			"-0.013": 0.0,
			"-0.012": 0.0,
			"-0.011": 0.0,
			"-0.01": 0.0,
			"-0.009": 0.0,
			"-0.008": 0.619129290371,
			"-0.007": 6.33304079863,
			"-0.006": 17.7920928053,
			"-0.005": 23.3613387451,
			"-0.004": 15.084822766,
			"-0.003": 10.8863701745,
			"-0.002": 8.38307594057,
			"-0.001": 6.43592139401,
			"0.0": 5.10734875574,
			"0.001": 3.50955752356,
			"0.002": 2.65061760139,
			"0.003": 4.74323447658,
			"0.004": 3.35858147062,
			"0.005": 3.20352068576,
			"0.006": 3.32205076501,
			"0.007": 4.1550774313,
			"0.008": 3.83277627217,
			"0.009": 4.3403901346,
			"0.01": 7.56680267667,
			"0.011": 5.73261698854,
			"0.012": 3.51549426158,
			"0.013": 2.62881095556,
			"0.014": 0.185129816465,
			"0.015": 0.0,
			"0.016": 0.0,
			"0.017": 0.0,
			"0.018": 0.0,
			"0.019": 0.0,
			"0.02": 0.0,
			"0.021": 0.0,
			"0.022": 0.0,
			"0.023": 0.0,
			"0.024": 0.0,
			"0.025": 0.0
		}
	}
}
