{
	 "smiles": "ClC1=CC(C2=CC=C(O2)C=O)=C(Cl)C=C1", 
	 "Tm": 358.15, 
	 "num_atms": 21, 
	 "gaussian": { 
		 "optdone": 1, 
		 "sigma_profile": "yes", 
		 "theory": "DFT", 
		 "functional": "B3LYP", 
		 "basiset": "6-31G**", 
		 "properties": { 
			 "R2extent": 6304.4867, 
			 "electric_dipole_moment_norm": 3.45479533547, 
			 "electric_quadrupole_moment_norm": 10.4812905813, 
			 "total_energy": -1493.58888541, 
			 "HOMO_LUMO_gap": 0.15179, 
			 "cosmo_polarized_energy": -8.47, 
			 "cosmo_cavitation_energy": 30.23, 
			 "cosmo_dispersion_energy": -22.21, 
			 "cosmo_repulsion_energy": 1.72, 
			 "cosmo_total_nonelectrostatic_energy": 9.74, 
			 "SMD_solvation_energy": 6.13 
		},
		"coords": [
			{
				"x": 4.1120042965,
				"y": 3.6275423004,
				"z": 1.1136745803,
				"element": "Cl" 
			},
			{
				"x": 2.5623888978,
				"y": 2.8135248211,
				"z": 1.0023130123,
				"element": "C" 
			},
			{
				"x": 2.5283202156,
				"y": 1.4323753971,
				"z": 0.8800203608,
				"element": "C" 
			},
			{
				"x": 1.3032915394,
				"y": 0.7360105533,
				"z": 0.7894453939,
				"element": "C" 
			},
			{
				"x": 1.3568672161,
				"y": -0.7203309202,
				"z": 0.6642506835,
				"element": "C" 
			},
			{
				"x": 0.4474889299,
				"y": -1.7587790176,
				"z": 0.7508695151,
				"element": "C" 
			},
			{
				"x": 1.1739997345,
				"y": -2.9592689076,
				"z": 0.5636457872,
				"element": "C" 
			},
			{
				"x": 2.4850475891,
				"y": -2.5993257088,
				"z": 0.371546339,
				"element": "C" 
			},
			{
				"x": 2.600230449,
				"y": -1.2365090779,
				"z": 0.4332419816,
				"element": "O" 
			},
			{
				"x": 3.6976829871,
				"y": -3.3669129433,
				"z": 0.1252696924,
				"element": "C" 
			},
			{
				"x": 3.715833002,
				"y": -4.5835620113,
				"z": 0.048638901,
				"element": "O" 
			},
			{
				"x": 0.1230046239,
				"y": 1.5084971787,
				"z": 0.8263649651,
				"element": "C" 
			},
			{
				"x": -1.4755623165,
				"y": 0.7929871996,
				"z": 0.6964546049,
				"element": "Cl" 
			},
			{
				"x": 0.1701577577,
				"y": 2.8970566124,
				"z": 0.9521375831,
				"element": "C" 
			},
			{
				"x": 1.3874221278,
				"y": 3.5639605017,
				"z": 1.0422876151,
				"element": "C" 
			},
			{
				"x": 3.4532068727,
				"y": 0.8716333125,
				"z": 0.8557162707,
				"element": "H" 
			},
			{
				"x": -0.6087529154,
				"y": -1.6687710816,
				"z": 0.9371763765,
				"element": "H" 
			},
			{
				"x": 0.7959734111,
				"y": -3.9709520538,
				"z": 0.5670873951,
				"element": "H" 
			},
			{
				"x": 4.6144152582,
				"y": -2.7513172634,
				"z": 0.0120803287,
				"element": "H" 
			},
			{
				"x": -0.7589740667,
				"y": 3.4550835412,
				"z": 0.974783942,
				"element": "H" 
			},
			{
				"x": 1.4222543901,
				"y": 4.6427575676,
				"z": 1.1398946714,
				"element": "H" 
			}
		],
		 "valence_orbital": [ 
			{
				"type": "occ",
				"energy": -0.30969,
				"method": "rhf"
			},
			{
				"type": "occ",
				"energy": -0.30119,
				"method": "rhf"
			},
			{
				"type": "occ",
				"energy": -0.26331,
				"method": "rhf"
			},
			{
				"type": "occ",
				"energy": -0.26165,
				"method": "rhf"
			},
			{
				"type": "occ",
				"energy": -0.23552,
				"method": "rhf"
			},
			{
				"type": "unocc",
				"energy": -0.08373,
				"method": "rhf"
			},
			{
				"type": "unocc",
				"energy": -0.03618,
				"method": "rhf"
			},
			{
				"type": "unocc",
				"energy": -0.03439,
				"method": "rhf"
			},
			{
				"type": "unocc",
				"energy": 0.0053,
				"method": "rhf"
			},
			{
				"type": "unocc",
				"energy": 0.02415,
				"method": "rhf"
			}
		],
		"cosmo_sigma_profile": { 
			"-0.025": 0.0,
			"-0.024": 0.0,
			"-0.023": 0.0,
			"-0.022": 0.0,
			"-0.021": 0.0,
			"-0.02": 0.0,
			"-0.019": 0.0,
			"-0.018": 0.0,
			"-0.017": 0.0,
			"-0.016": 0.0,
			"-0.015": 0.0,
			"-0.014": 0.0,
			"-0.013": 0.0,
			"-0.012": 0.0,
			"-0.011": 0.0,
			"-0.01": 0.0,
			"-0.009": 1.38588572793,
			"-0.008": 5.31103925736,
			"-0.007": 9.60712805954,
			"-0.006": 10.654707746,
			"-0.005": 10.0132326486,
			"-0.004": 11.6980243399,
			"-0.003": 12.5464531942,
			"-0.002": 19.7694887916,
			"-0.001": 24.7975732003,
			"0.0": 33.9005610131,
			"0.001": 34.0065234411,
			"0.002": 22.4216273532,
			"0.003": 16.1170814507,
			"0.004": 15.2799211359,
			"0.005": 3.88019897967,
			"0.006": 1.59253113297,
			"0.007": 1.17114920419,
			"0.008": 1.50603242085,
			"0.009": 2.23322031907,
			"0.01": 2.69744449648,
			"0.011": 4.15552008254,
			"0.012": 3.6285655521,
			"0.013": 0.777538253634,
			"0.014": 0.0,
			"0.015": 0.0,
			"0.016": 0.0,
			"0.017": 0.0,
			"0.018": 0.0,
			"0.019": 0.0,
			"0.02": 0.0,
			"0.021": 0.0,
			"0.022": 0.0,
			"0.023": 0.0,
			"0.024": 0.0,
			"0.0": 0.0
		}
	}
}
