{
	 "smiles": "NC(=S)C1(CCCCC1)NC(=O)C1=CC=CC=C1", 
	 "Tm": 463.15, 
	 "num_atms": 36, 
	 "gaussian": { 
		 "optdone": 1, 
		 "sigma_profile": "yes", 
		 "theory": "DFT", 
		 "functional": "B3LYP", 
		 "basiset": "6-31G**", 
		 "properties": { 
			 "R2extent": 5557.082, 
			 "electric_dipole_moment_norm": 0.926225901171, 
			 "electric_quadrupole_moment_norm": 22.7565814832, 
			 "total_energy": -1127.27374102, 
			 "HOMO_LUMO_gap": 0.16672, 
			 "cosmo_polarized_energy": -18.11, 
			 "cosmo_cavitation_energy": 37.41, 
			 "cosmo_dispersion_energy": -26.41, 
			 "cosmo_repulsion_energy": 2.0, 
			 "cosmo_total_nonelectrostatic_energy": 13.0, 
			 "SMD_solvation_energy": 5.61 
		},
		"coords": [
			{
				"x": -2.3030773199,
				"y": 2.471231933,
				"z": -1.5642567654,
				"element": "N" 
			},
			{
				"x": -1.6125135194,
				"y": 2.3012350633,
				"z": -0.4250795508,
				"element": "C" 
			},
			{
				"x": -2.3083600572,
				"y": 2.5593187723,
				"z": 1.0676843356,
				"element": "S" 
			},
			{
				"x": -0.1110322063,
				"y": 1.9623732603,
				"z": -0.6525992577,
				"element": "C" 
			},
			{
				"x": 0.4882325706,
				"y": 1.0730714873,
				"z": 0.4677291337,
				"element": "C" 
			},
			{
				"x": 1.9929834323,
				"y": 1.3168218779,
				"z": 0.6362675266,
				"element": "C" 
			},
			{
				"x": 2.2717671269,
				"y": 2.7412928236,
				"z": 1.1710701867,
				"element": "C" 
			},
			{
				"x": 1.1866804032,
				"y": 3.7402121882,
				"z": 0.7092555021,
				"element": "C" 
			},
			{
				"x": 0.637535224,
				"y": 3.352265783,
				"z": -0.6663453476,
				"element": "C" 
			},
			{
				"x": 0.0861111803,
				"y": 1.3893382488,
				"z": -2.0149833291,
				"element": "N" 
			},
			{
				"x": 0.2141211186,
				"y": 0.0803469907,
				"z": -2.4867248542,
				"element": "C" 
			},
			{
				"x": 0.9141337515,
				"y": -0.1033696501,
				"z": -3.4786305251,
				"element": "O" 
			},
			{
				"x": -0.515670177,
				"y": -1.0722781494,
				"z": -1.8627138554,
				"element": "C" 
			},
			{
				"x": 0.0761369614,
				"y": -2.3365822066,
				"z": -2.0170827195,
				"element": "C" 
			},
			{
				"x": -0.5478625892,
				"y": -3.4751046273,
				"z": -1.5153303741,
				"element": "C" 
			},
			{
				"x": -1.7851780018,
				"y": -3.3695729191,
				"z": -0.8740384701,
				"element": "C" 
			},
			{
				"x": -2.3924363832,
				"y": -2.1205877487,
				"z": -0.7390741028,
				"element": "C" 
			},
			{
				"x": -1.7613128222,
				"y": -0.9753691709,
				"z": -1.2265848644,
				"element": "C" 
			},
			{
				"x": -3.2706750782,
				"y": 2.753904933,
				"z": -1.5171236536,
				"element": "H" 
			},
			{
				"x": -1.8751848537,
				"y": 2.22424926,
				"z": -2.4477111331,
				"element": "H" 
			},
			{
				"x": 0.2817721083,
				"y": 0.0230258267,
				"z": 0.2585503262,
				"element": "H" 
			},
			{
				"x": -0.0334463981,
				"y": 1.3119621804,
				"z": 1.3978229367,
				"element": "H" 
			},
			{
				"x": 2.4972680211,
				"y": 1.1672218222,
				"z": -0.3272996215,
				"element": "H" 
			},
			{
				"x": 2.4127646553,
				"y": 0.5662269339,
				"z": 1.3138892674,
				"element": "H" 
			},
			{
				"x": 2.3084494549,
				"y": 2.7299327126,
				"z": 2.2661448215,
				"element": "H" 
			},
			{
				"x": 3.2601154673,
				"y": 3.0735816307,
				"z": 0.8318355106,
				"element": "H" 
			},
			{
				"x": 1.5931283164,
				"y": 4.7563747045,
				"z": 0.6634133001,
				"element": "H" 
			},
			{
				"x": 0.3586315886,
				"y": 3.7681722695,
				"z": 1.4245498225,
				"element": "H" 
			},
			{
				"x": 1.4819180339,
				"y": 3.2699312685,
				"z": -1.3635231786,
				"element": "H" 
			},
			{
				"x": -0.026914936,
				"y": 4.1262482347,
				"z": -1.0628039424,
				"element": "H" 
			},
			{
				"x": 0.67222862,
				"y": 1.9658233377,
				"z": -2.6089143456,
				"element": "H" 
			},
			{
				"x": 1.0239898902,
				"y": -2.4023088322,
				"z": -2.5397654481,
				"element": "H" 
			},
			{
				"x": -0.0738913071,
				"y": -4.4455845212,
				"z": -1.6295969174,
				"element": "H" 
			},
			{
				"x": -2.2756694702,
				"y": -4.2578151251,
				"z": -0.4862317671,
				"element": "H" 
			},
			{
				"x": -3.3598061587,
				"y": -2.0328176551,
				"z": -0.2536634074,
				"element": "H" 
			},
			{
				"x": -2.2556366466,
				"y": -0.017872937,
				"z": -1.1263352387,
				"element": "H" 
			}
		],
		 "valence_orbital": [ 
			{
				"type": "occ",
				"energy": -0.2662,
				"method": "rhf"
			},
			{
				"type": "occ",
				"energy": -0.26037,
				"method": "rhf"
			},
			{
				"type": "occ",
				"energy": -0.25089,
				"method": "rhf"
			},
			{
				"type": "occ",
				"energy": -0.23664,
				"method": "rhf"
			},
			{
				"type": "occ",
				"energy": -0.21078,
				"method": "rhf"
			},
			{
				"type": "unocc",
				"energy": -0.04406,
				"method": "rhf"
			},
			{
				"type": "unocc",
				"energy": -0.0365,
				"method": "rhf"
			},
			{
				"type": "unocc",
				"energy": -0.00883,
				"method": "rhf"
			},
			{
				"type": "unocc",
				"energy": 0.04506,
				"method": "rhf"
			},
			{
				"type": "unocc",
				"energy": 0.06344,
				"method": "rhf"
			}
		],
		"cosmo_sigma_profile": { 
			"-0.025": 0.0,
			"-0.024": 0.0,
			"-0.023": 0.0,
			"-0.022": 0.0,
			"-0.021": 0.0,
			"-0.02": 0.0,
			"-0.019": 0.0,
			"-0.018": 0.0,
			"-0.017": 0.0,
			"-0.016": 0.0194587198352,
			"-0.015": 0.805965005808,
			"-0.014": 1.47191107894,
			"-0.013": 1.87305006765,
			"-0.012": 3.05392508408,
			"-0.011": 3.84280094402,
			"-0.01": 3.08165337518,
			"-0.009": 3.3487812462,
			"-0.008": 3.67120607965,
			"-0.007": 3.936948491,
			"-0.006": 10.8010579146,
			"-0.005": 12.8032725821,
			"-0.004": 17.9973483922,
			"-0.003": 21.0045595752,
			"-0.002": 30.7140334725,
			"-0.001": 32.9924765549,
			"0.0": 25.5117042154,
			"0.001": 23.351704932,
			"0.002": 13.4953195795,
			"0.003": 13.7469826885,
			"0.004": 16.7689666931,
			"0.005": 8.01108493081,
			"0.006": 5.55483669919,
			"0.007": 6.66136840764,
			"0.008": 7.78408336977,
			"0.009": 6.76776920968,
			"0.01": 4.45219312948,
			"0.011": 3.17435616611,
			"0.012": 3.71983018995,
			"0.013": 5.22997960293,
			"0.014": 1.35978527494,
			"0.015": 0.0,
			"0.016": 0.0,
			"0.017": 0.0,
			"0.018": 0.0,
			"0.019": 0.0,
			"0.02": 0.0,
			"0.021": 0.0,
			"0.022": 0.0,
			"0.023": 0.0,
			"0.024": 0.0,
			"0.025": 0.0
		}
	}
}
