{
	 "smiles": "CC(C)(C)OC(=O)N1C=C(C(O)=O)C2=CC(Br)=CC=C12", 
	 "Tm": 481.15, 
	 "num_atms": 34, 
	 "gaussian": { 
		 "optdone": 1, 
		 "sigma_profile": "yes", 
		 "theory": "DFT", 
		 "functional": "B3LYP", 
		 "basiset": "6-31G**", 
		 "properties": { 
			 "R2extent": 12417.2687, 
			 "electric_dipole_moment_norm": 7.89046918123, 
			 "electric_quadrupole_moment_norm": 25.0939704288, 
			 "total_energy": -3469.02533475, 
			 "HOMO_LUMO_gap": 0.17628, 
			 "cosmo_polarized_energy": -17.92, 
			 "cosmo_cavitation_energy": 40.19, 
			 "cosmo_dispersion_energy": -28.52, 
			 "cosmo_repulsion_energy": 2.16, 
			 "cosmo_total_nonelectrostatic_energy": 13.83, 
			 "SMD_solvation_energy": 7.89 
		},
		"coords": [
			{
				"x": -2.8876523099,
				"y": -0.140454479,
				"z": 2.2567247785,
				"element": "C" 
			},
			{
				"x": -2.0638261042,
				"y": -1.0304545912,
				"z": 1.3252528761,
				"element": "C" 
			},
			{
				"x": -1.6490695004,
				"y": -2.3262860597,
				"z": 2.0256340561,
				"element": "C" 
			},
			{
				"x": -2.7996507755,
				"y": -1.2784388611,
				"z": 0.006636002,
				"element": "C" 
			},
			{
				"x": -0.8571130215,
				"y": -0.1938075189,
				"z": 1.0719674491,
				"element": "O" 
			},
			{
				"x": 0.1244072196,
				"y": -0.632467299,
				"z": 0.2870694271,
				"element": "C" 
			},
			{
				"x": 0.1902451247,
				"y": -1.6919130978,
				"z": -0.3022548088,
				"element": "O" 
			},
			{
				"x": 1.1612992425,
				"y": 0.3209930607,
				"z": 0.1940812734,
				"element": "N" 
			},
			{
				"x": 2.2870455247,
				"y": 0.051013958,
				"z": -0.5722065744,
				"element": "C" 
			},
			{
				"x": 3.1615308477,
				"y": 1.1019007163,
				"z": -0.5149339399,
				"element": "C" 
			},
			{
				"x": 4.4848536806,
				"y": 1.2218826252,
				"z": -1.1601307749,
				"element": "C" 
			},
			{
				"x": 4.7928894086,
				"y": 0.300726833,
				"z": -2.1148978641,
				"element": "O" 
			},
			{
				"x": 5.287099538,
				"y": 2.0828713317,
				"z": -0.8760476347,
				"element": "O" 
			},
			{
				"x": 2.5649730975,
				"y": 2.0998978423,
				"z": 0.3526065218,
				"element": "C" 
			},
			{
				"x": 3.0058845611,
				"y": 3.3600035796,
				"z": 0.7778875079,
				"element": "C" 
			},
			{
				"x": 2.1684420535,
				"y": 4.0809966335,
				"z": 1.6167847878,
				"element": "C" 
			},
			{
				"x": 2.7196779862,
				"y": 5.8071870528,
				"z": 2.229553211,
				"element": "Br" 
			},
			{
				"x": 0.9232483977,
				"y": 3.5869903944,
				"z": 2.0373907351,
				"element": "C" 
			},
			{
				"x": 0.4787411983,
				"y": 2.3350394696,
				"z": 1.6225029307,
				"element": "C" 
			},
			{
				"x": 1.3122540745,
				"y": 1.5977704303,
				"z": 0.7783203276,
				"element": "C" 
			},
			{
				"x": -3.1406657659,
				"y": 0.8052589287,
				"z": 1.7688361523,
				"element": "H" 
			},
			{
				"x": -3.8184480307,
				"y": -0.6481895721,
				"z": 2.5248080392,
				"element": "H" 
			},
			{
				"x": -2.3369047722,
				"y": 0.0755148164,
				"z": 3.1767101061,
				"element": "H" 
			},
			{
				"x": -2.5468090855,
				"y": -2.8800086521,
				"z": 2.317574029,
				"element": "H" 
			},
			{
				"x": -1.0479677712,
				"y": -2.9576089703,
				"z": 1.370883929,
				"element": "H" 
			},
			{
				"x": -1.0780643651,
				"y": -2.1052805778,
				"z": 2.9325434501,
				"element": "H" 
			},
			{
				"x": -3.7457829508,
				"y": -1.7881119096,
				"z": 0.2136161777,
				"element": "H" 
			},
			{
				"x": -2.2095229333,
				"y": -1.8998032404,
				"z": -0.6673372821,
				"element": "H" 
			},
			{
				"x": -3.0278247608,
				"y": -0.3297492766,
				"z": -0.4887036923,
				"element": "H" 
			},
			{
				"x": 2.3407088988,
				"y": -0.9087703118,
				"z": -1.0648334027,
				"element": "H" 
			},
			{
				"x": 4.0172681112,
				"y": -0.2313294249,
				"z": -2.3388687735,
				"element": "H" 
			},
			{
				"x": 3.9696354477,
				"y": 3.7357152423,
				"z": 0.4605399233,
				"element": "H" 
			},
			{
				"x": 0.3042806322,
				"y": 4.1878888028,
				"z": 2.6933731958,
				"element": "H" 
			},
			{
				"x": -0.4783828982,
				"y": 1.9534221245,
				"z": 1.9471178607,
				"element": "H" 
			}
		],
		 "valence_orbital": [ 
			{
				"type": "occ",
				"energy": -0.29712,
				"method": "rhf"
			},
			{
				"type": "occ",
				"energy": -0.28385,
				"method": "rhf"
			},
			{
				"type": "occ",
				"energy": -0.2753,
				"method": "rhf"
			},
			{
				"type": "occ",
				"energy": -0.24178,
				"method": "rhf"
			},
			{
				"type": "occ",
				"energy": -0.23546,
				"method": "rhf"
			},
			{
				"type": "unocc",
				"energy": -0.05918,
				"method": "rhf"
			},
			{
				"type": "unocc",
				"energy": -0.02207,
				"method": "rhf"
			},
			{
				"type": "unocc",
				"energy": -0.01228,
				"method": "rhf"
			},
			{
				"type": "unocc",
				"energy": 0.00954,
				"method": "rhf"
			},
			{
				"type": "unocc",
				"energy": 0.03761,
				"method": "rhf"
			}
		],
		"cosmo_sigma_profile": { 
			"-0.025": 0.0,
			"-0.024": 0.0,
			"-0.023": 0.0,
			"-0.022": 0.0,
			"-0.021": 0.0,
			"-0.02": 0.11727429067,
			"-0.019": 1.21324480477,
			"-0.018": 1.1896014179,
			"-0.017": 0.655722840239,
			"-0.016": 1.54248176007,
			"-0.015": 1.04482390825,
			"-0.014": 0.951522346106,
			"-0.013": 0.933511223967,
			"-0.012": 1.06488218394,
			"-0.011": 1.14109217815,
			"-0.01": 1.03474972011,
			"-0.009": 1.08496648957,
			"-0.008": 1.45691568284,
			"-0.007": 2.78404910997,
			"-0.006": 3.9348915671,
			"-0.005": 13.2077350337,
			"-0.004": 26.9132535937,
			"-0.003": 29.4057880829,
			"-0.002": 33.3427794344,
			"-0.001": 32.6621415352,
			"0.0": 36.644724418,
			"0.001": 23.8812626337,
			"0.002": 24.32245095,
			"0.003": 21.9336756,
			"0.004": 15.060285596,
			"0.005": 10.2931630182,
			"0.006": 3.74445486468,
			"0.007": 4.12231788253,
			"0.008": 4.6254214874,
			"0.009": 4.27632199078,
			"0.01": 7.2637937475,
			"0.011": 6.37416539667,
			"0.012": 3.3154530715,
			"0.013": 1.63271905213,
			"0.014": 0.0411496162666,
			"0.015": 0.0,
			"0.016": 0.0,
			"0.017": 0.0,
			"0.018": 0.0,
			"0.019": 0.0,
			"0.02": 0.0,
			"0.021": 0.0,
			"0.022": 0.0,
			"0.023": 0.0,
			"0.024": 0.0,
			"0.025": 0.0
		}
	}
}
