{
	 "smiles": "CC(C)(C)C1=CC(CO)=CC(=C1O)C(C)(C)C", 
	 "Tm": 413.15, 
	 "num_atms": 41, 
	 "gaussian": { 
		 "optdone": 1, 
		 "sigma_profile": "yes", 
		 "theory": "DFT", 
		 "functional": "B3LYP", 
		 "basiset": "6-31G**", 
		 "properties": { 
			 "R2extent": 4925.1027, 
			 "electric_dipole_moment_norm": 1.83796928701, 
			 "electric_quadrupole_moment_norm": 11.7542741209, 
			 "total_energy": -736.516678222, 
			 "HOMO_LUMO_gap": 0.21288, 
			 "cosmo_polarized_energy": -9.3, 
			 "cosmo_cavitation_energy": 39.05, 
			 "cosmo_dispersion_energy": -27.03, 
			 "cosmo_repulsion_energy": 2.1, 
			 "cosmo_total_nonelectrostatic_energy": 14.12, 
			 "SMD_solvation_energy": 7.03 
		},
		"coords": [
			{
				"x": -2.1868964148,
				"y": 3.1065927345,
				"z": -1.5449079962,
				"element": "C" 
			},
			{
				"x": -2.2762487219,
				"y": 1.6314940726,
				"z": -2.0099992207,
				"element": "C" 
			},
			{
				"x": -2.2441987165,
				"y": 1.6402972418,
				"z": -3.5529351947,
				"element": "C" 
			},
			{
				"x": -3.6356016039,
				"y": 1.0209714263,
				"z": -1.5864563673,
				"element": "C" 
			},
			{
				"x": -1.1080038231,
				"y": 0.8098332382,
				"z": -1.4164404817,
				"element": "C" 
			},
			{
				"x": -0.1766126621,
				"y": 0.1731357598,
				"z": -2.2434006673,
				"element": "C" 
			},
			{
				"x": 0.8877178875,
				"y": -0.5735120213,
				"z": -1.7381412403,
				"element": "C" 
			},
			{
				"x": 1.9006693801,
				"y": -1.2140294525,
				"z": -2.6664970789,
				"element": "C" 
			},
			{
				"x": 2.4070805654,
				"y": -2.4560796859,
				"z": -2.1894491507,
				"element": "O" 
			},
			{
				"x": 1.0207590274,
				"y": -0.7007676905,
				"z": -0.356666968,
				"element": "C" 
			},
			{
				"x": 0.1263091986,
				"y": -0.1004547962,
				"z": 0.5377872388,
				"element": "C" 
			},
			{
				"x": -0.9329555262,
				"y": 0.6578220188,
				"z": -0.019610227,
				"element": "C" 
			},
			{
				"x": -1.8632324507,
				"y": 1.2885072707,
				"z": 0.7762104614,
				"element": "O" 
			},
			{
				"x": 0.3079384248,
				"y": -0.269018447,
				"z": 2.0677784136,
				"element": "C" 
			},
			{
				"x": 0.5573481238,
				"y": 1.1050047802,
				"z": 2.7482156159,
				"element": "C" 
			},
			{
				"x": -0.9177241859,
				"y": -0.9895204236,
				"z": 2.6936157462,
				"element": "C" 
			},
			{
				"x": 1.5351476842,
				"y": -1.1415143629,
				"z": 2.4083987195,
				"element": "C" 
			},
			{
				"x": -1.244028433,
				"y": 3.557373757,
				"z": -1.8736376575,
				"element": "H" 
			},
			{
				"x": -2.2495849516,
				"y": 3.1942578439,
				"z": -0.4602372745,
				"element": "H" 
			},
			{
				"x": -3.0066456738,
				"y": 3.6863245903,
				"z": -1.9850204116,
				"element": "H" 
			},
			{
				"x": -2.3418345292,
				"y": 0.6344034453,
				"z": -3.9747638559,
				"element": "H" 
			},
			{
				"x": -1.3266187469,
				"y": 2.0913514866,
				"z": -3.9450671683,
				"element": "H" 
			},
			{
				"x": -3.0855525479,
				"y": 2.2337962513,
				"z": -3.9247817786,
				"element": "H" 
			},
			{
				"x": -4.4569462005,
				"y": 1.5994398136,
				"z": -2.0252360717,
				"element": "H" 
			},
			{
				"x": -3.7593064085,
				"y": 1.0184064679,
				"z": -0.5034660882,
				"element": "H" 
			},
			{
				"x": -3.7232365937,
				"y": -0.0101761872,
				"z": -1.9462931157,
				"element": "H" 
			},
			{
				"x": -0.2769750944,
				"y": 0.2549427823,
				"z": -3.3197165157,
				"element": "H" 
			},
			{
				"x": 1.4636224142,
				"y": -1.317132044,
				"z": -3.672816194,
				"element": "H" 
			},
			{
				"x": 2.7852719875,
				"y": -0.5738144347,
				"z": -2.7722932483,
				"element": "H" 
			},
			{
				"x": 1.6450980486,
				"y": -3.0260230227,
				"z": -2.0187708816,
				"element": "H" 
			},
			{
				"x": 1.8464166021,
				"y": -1.2960399899,
				"z": 0.0114260946,
				"element": "H" 
			},
			{
				"x": -1.6574858053,
				"y": 1.1300144011,
				"z": 1.7020058854,
				"element": "H" 
			},
			{
				"x": 0.6778279594,
				"y": 0.9755988221,
				"z": 3.8293061394,
				"element": "H" 
			},
			{
				"x": -0.2392196379,
				"y": 1.8400383086,
				"z": 2.5956919052,
				"element": "H" 
			},
			{
				"x": 1.4736789766,
				"y": 1.5562955774,
				"z": 2.3557460619,
				"element": "H" 
			},
			{
				"x": -1.0232102692,
				"y": -1.9906894739,
				"z": 2.2645215085,
				"element": "H" 
			},
			{
				"x": -0.7822934829,
				"y": -1.0962730264,
				"z": 3.7754089943,
				"element": "H" 
			},
			{
				"x": -1.8740847612,
				"y": -0.4819893017,
				"z": 2.533678338,
				"element": "H" 
			},
			{
				"x": 1.4452548091,
				"y": -2.1522000291,
				"z": 1.9993268941,
				"element": "H" 
			},
			{
				"x": 1.6230513498,
				"y": -1.2320141016,
				"z": 3.4959064053,
				"element": "H" 
			},
			{
				"x": 2.4656048019,
				"y": -0.7022535994,
				"z": 2.0369804321,
				"element": "H" 
			}
		],
		 "valence_orbital": [ 
			{
				"type": "occ",
				"energy": -0.30645,
				"method": "rhf"
			},
			{
				"type": "occ",
				"energy": -0.30023,
				"method": "rhf"
			},
			{
				"type": "occ",
				"energy": -0.26773,
				"method": "rhf"
			},
			{
				"type": "occ",
				"energy": -0.23682,
				"method": "rhf"
			},
			{
				"type": "occ",
				"energy": -0.20874,
				"method": "rhf"
			},
			{
				"type": "unocc",
				"energy": 0.00414,
				"method": "rhf"
			},
			{
				"type": "unocc",
				"energy": 0.00988,
				"method": "rhf"
			},
			{
				"type": "unocc",
				"energy": 0.06231,
				"method": "rhf"
			},
			{
				"type": "unocc",
				"energy": 0.09107,
				"method": "rhf"
			},
			{
				"type": "unocc",
				"energy": 0.09987,
				"method": "rhf"
			}
		],
		"cosmo_sigma_profile": { 
			"-0.025": 0.0,
			"-0.024": 0.0,
			"-0.023": 0.0,
			"-0.022": 0.0,
			"-0.021": 0.0,
			"-0.02": 0.0,
			"-0.019": 0.0,
			"-0.018": 0.0,
			"-0.017": 0.0,
			"-0.016": 0.0,
			"-0.015": 0.602265328888,
			"-0.014": 1.25526838478,
			"-0.013": 1.20570646124,
			"-0.012": 1.5576156624,
			"-0.011": 1.65635171954,
			"-0.01": 1.14959872785,
			"-0.009": 1.66671603847,
			"-0.008": 1.53945043277,
			"-0.007": 1.79015744915,
			"-0.006": 2.17750057525,
			"-0.005": 3.79220422172,
			"-0.004": 10.7204095328,
			"-0.003": 33.6725246744,
			"-0.002": 41.5697728014,
			"-0.001": 38.6621109572,
			"0.0": 37.0864673941,
			"0.001": 38.7313661126,
			"0.002": 26.0697648533,
			"0.003": 12.6109646252,
			"0.004": 10.258107548,
			"0.005": 11.4119069777,
			"0.006": 8.60345236617,
			"0.007": 4.61268966686,
			"0.008": 0.847516002176,
			"0.009": 1.01784863747,
			"0.01": 1.41083669639,
			"0.011": 1.49050350685,
			"0.012": 1.02859945489,
			"0.013": 1.43997472159,
			"0.014": 2.28653356607,
			"0.015": 0.47528712775,
			"0.016": 0.0,
			"0.017": 0.0,
			"0.018": 0.0,
			"0.019": 0.0,
			"0.02": 0.0,
			"0.021": 0.0,
			"0.022": 0.0,
			"0.023": 0.0,
			"0.024": 0.0,
			"0.025": 0.0
		}
	}
}
