{
	 "smiles": "OC(=O)C1=CSC(=N1)C1=COC=C1", 
	 "Tm": 440.15, 
	 "num_atms": 18, 
	 "gaussian": { 
		 "optdone": 1, 
		 "sigma_profile": "yes", 
		 "theory": "DFT", 
		 "functional": "B3LYP", 
		 "basiset": "6-31G**", 
		 "properties": { 
			 "R2extent": 3187.1103, 
			 "electric_dipole_moment_norm": 5.37465588573, 
			 "electric_quadrupole_moment_norm": 17.7981116274, 
			 "total_energy": -986.451881427, 
			 "HOMO_LUMO_gap": 0.1704, 
			 "cosmo_polarized_energy": -12.97, 
			 "cosmo_cavitation_energy": 25.6, 
			 "cosmo_dispersion_energy": -19.37, 
			 "cosmo_repulsion_energy": 1.47, 
			 "cosmo_total_nonelectrostatic_energy": 7.69, 
			 "SMD_solvation_energy": 6.07 
		},
		"coords": [
			{
				"x": 2.0634175519,
				"y": -1.6871839559,
				"z": -2.4571023637,
				"element": "O" 
			},
			{
				"x": 2.7847058397,
				"y": -0.742896831,
				"z": -1.8200362466,
				"element": "C" 
			},
			{
				"x": 3.9571463269,
				"y": -0.5515531735,
				"z": -2.0448820851,
				"element": "O" 
			},
			{
				"x": 1.9978982357,
				"y": 0.0366814906,
				"z": -0.8182015327,
				"element": "C" 
			},
			{
				"x": 2.5016876509,
				"y": 1.0453683391,
				"z": -0.0462898543,
				"element": "C" 
			},
			{
				"x": 1.2566857645,
				"y": 1.6734374453,
				"z": 0.9715503712,
				"element": "S" 
			},
			{
				"x": 0.1207207817,
				"y": 0.5109502505,
				"z": 0.2731409858,
				"element": "C" 
			},
			{
				"x": 0.6660339131,
				"y": -0.257885537,
				"z": -0.6353957471,
				"element": "N" 
			},
			{
				"x": -1.2707649813,
				"y": 0.4312770444,
				"z": 0.677899495,
				"element": "C" 
			},
			{
				"x": -1.9338978127,
				"y": 1.1848204834,
				"z": 1.6122142335,
				"element": "C" 
			},
			{
				"x": -3.2294377984,
				"y": 0.8008004413,
				"z": 1.6987148567,
				"element": "O" 
			},
			{
				"x": -3.40699997,
				"y": -0.2191810373,
				"z": 0.8044921633,
				"element": "C" 
			},
			{
				"x": -2.2492707963,
				"y": -0.4894244949,
				"z": 0.1524174071,
				"element": "C" 
			},
			{
				"x": 1.1537992809,
				"y": -1.6475143788,
				"z": -2.1064940543,
				"element": "H" 
			},
			{
				"x": 3.5120711621,
				"y": 1.4264977269,
				"z": -0.0371552498,
				"element": "H" 
			},
			{
				"x": -1.6335345225,
				"y": 1.9910840134,
				"z": 2.2639721635,
				"element": "H" 
			},
			{
				"x": -4.4014964337,
				"y": -0.6339834489,
				"z": 0.7585135132,
				"element": "H" 
			},
			{
				"x": -2.0793641924,
				"y": -1.2371943777,
				"z": -0.6066580557,
				"element": "H" 
			}
		],
		 "valence_orbital": [ 
			{
				"type": "occ",
				"energy": -0.30985,
				"method": "rhf"
			},
			{
				"type": "occ",
				"energy": -0.30591,
				"method": "rhf"
			},
			{
				"type": "occ",
				"energy": -0.27172,
				"method": "rhf"
			},
			{
				"type": "occ",
				"energy": -0.27063,
				"method": "rhf"
			},
			{
				"type": "occ",
				"energy": -0.23978,
				"method": "rhf"
			},
			{
				"type": "unocc",
				"energy": -0.06938,
				"method": "rhf"
			},
			{
				"type": "unocc",
				"energy": -0.03313,
				"method": "rhf"
			},
			{
				"type": "unocc",
				"energy": -0.00666,
				"method": "rhf"
			},
			{
				"type": "unocc",
				"energy": 0.00205,
				"method": "rhf"
			},
			{
				"type": "unocc",
				"energy": 0.06566,
				"method": "rhf"
			}
		],
		"cosmo_sigma_profile": { 
			"-0.025": 0.0,
			"-0.024": 0.0,
			"-0.023": 0.0,
			"-0.022": 0.0,
			"-0.021": 0.0,
			"-0.02": 0.0,
			"-0.019": 0.0,
			"-0.018": 0.0,
			"-0.017": 0.0,
			"-0.016": 0.0,
			"-0.015": 0.0,
			"-0.014": 0.171854499695,
			"-0.013": 0.451336822022,
			"-0.012": 0.643928264433,
			"-0.011": 1.4937630057,
			"-0.01": 4.9681663259,
			"-0.009": 6.00177192758,
			"-0.008": 7.78705545931,
			"-0.007": 5.57103578694,
			"-0.006": 7.25815695333,
			"-0.005": 9.24617871215,
			"-0.004": 9.59954481618,
			"-0.003": 10.0911140107,
			"-0.002": 13.4704645904,
			"-0.001": 18.0697124913,
			"0.0": 21.3219974058,
			"0.001": 20.3665066606,
			"0.002": 17.1766900975,
			"0.003": 11.9641123746,
			"0.004": 7.41386401374,
			"0.005": 5.11258444552,
			"0.006": 3.45390430739,
			"0.007": 4.35803383248,
			"0.008": 3.80482258545,
			"0.009": 3.58878880024,
			"0.01": 4.7228273442,
			"0.011": 5.13729511657,
			"0.012": 4.77069394665,
			"0.013": 1.41788271921,
			"0.014": 0.0386042285101,
			"0.015": 0.0,
			"0.016": 0.0,
			"0.017": 0.0,
			"0.018": 0.0,
			"0.019": 0.0,
			"0.02": 0.0,
			"0.021": 0.0,
			"0.022": 0.0,
			"0.023": 0.0,
			"0.024": 0.0,
			"0.025": 0.0
		}
	}
}
