{
	 "smiles": "CCOC(=O)CC1SC2=CC=CC=C2NC1=S", 
	 "Tm": 380.15, 
	 "num_atms": 30, 
	 "gaussian": { 
		 "optdone": 1, 
		 "sigma_profile": "yes", 
		 "theory": "DFT", 
		 "functional": "B3LYP", 
		 "basiset": "6-31G**", 
		 "properties": { 
			 "R2extent": 5502.0471, 
			 "electric_dipole_moment_norm": 5.41082790061, 
			 "electric_quadrupole_moment_norm": 12.4502464923, 
			 "total_energy": -1466.71147666, 
			 "HOMO_LUMO_gap": 0.15193, 
			 "cosmo_polarized_energy": -16.97, 
			 "cosmo_cavitation_energy": 37.02, 
			 "cosmo_dispersion_energy": -26.05, 
			 "cosmo_repulsion_energy": 1.97, 
			 "cosmo_total_nonelectrostatic_energy": 12.94, 
			 "SMD_solvation_energy": 5.3 
		},
		"coords": [
			{
				"x": 3.3498519337,
				"y": -2.5721566192,
				"z": 0.3593230099,
				"element": "C" 
			},
			{
				"x": 3.2568307924,
				"y": -1.4761363393,
				"z": -0.6844319907,
				"element": "C" 
			},
			{
				"x": 2.2162543143,
				"y": -0.560101927,
				"z": -0.2618085391,
				"element": "O" 
			},
			{
				"x": 1.9743748394,
				"y": 0.4700379683,
				"z": -1.0935169203,
				"element": "C" 
			},
			{
				"x": 2.5946310233,
				"y": 0.6914201901,
				"z": -2.1106457477,
				"element": "O" 
			},
			{
				"x": 0.8164359632,
				"y": 1.3268787602,
				"z": -0.6044256222,
				"element": "C" 
			},
			{
				"x": -0.4344023643,
				"y": 1.1349328603,
				"z": -1.4974124944,
				"element": "C" 
			},
			{
				"x": -1.7072846498,
				"y": 2.437972881,
				"z": -1.2037362662,
				"element": "S" 
			},
			{
				"x": -2.2513041244,
				"y": 1.8981591437,
				"z": 0.3958961648,
				"element": "C" 
			},
			{
				"x": -2.743950737,
				"y": 2.8130285886,
				"z": 1.3328049357,
				"element": "C" 
			},
			{
				"x": -3.2458085029,
				"y": 2.3749193042,
				"z": 2.5571381207,
				"element": "C" 
			},
			{
				"x": -3.2396565057,
				"y": 1.011953861,
				"z": 2.8655600369,
				"element": "C" 
			},
			{
				"x": -2.7375987528,
				"y": 0.0927206767,
				"z": 1.9492551212,
				"element": "C" 
			},
			{
				"x": -2.2517099159,
				"y": 0.5257889619,
				"z": 0.7082356943,
				"element": "C" 
			},
			{
				"x": -1.8111173341,
				"y": -0.4293359364,
				"z": -0.225739812,
				"element": "N" 
			},
			{
				"x": -1.0529336532,
				"y": -0.2443954064,
				"z": -1.3366191828,
				"element": "C" 
			},
			{
				"x": -0.752743333,
				"y": -1.4826538801,
				"z": -2.4026496335,
				"element": "S" 
			},
			{
				"x": 4.128524827,
				"y": -3.287314279,
				"z": 0.076432104,
				"element": "H" 
			},
			{
				"x": 3.6019637763,
				"y": -2.1600662226,
				"z": 1.340874715,
				"element": "H" 
			},
			{
				"x": 2.4020751866,
				"y": -3.1114437786,
				"z": 0.4427341537,
				"element": "H" 
			},
			{
				"x": 2.9931340393,
				"y": -1.8663505924,
				"z": -1.6717336945,
				"element": "H" 
			},
			{
				"x": 4.1938692642,
				"y": -0.9195995611,
				"z": -0.7851022216,
				"element": "H" 
			},
			{
				"x": 0.5875091842,
				"y": 1.1077957492,
				"z": 0.4402995341,
				"element": "H" 
			},
			{
				"x": 1.1265398843,
				"y": 2.3717202807,
				"z": -0.6871995199,
				"element": "H" 
			},
			{
				"x": -0.1441184351,
				"y": 1.255170885,
				"z": -2.541354062,
				"element": "H" 
			},
			{
				"x": -2.7332798874,
				"y": 3.871674428,
				"z": 1.0919850059,
				"element": "H" 
			},
			{
				"x": -3.6303389023,
				"y": 3.0963666119,
				"z": 3.2710211063,
				"element": "H" 
			},
			{
				"x": -3.6187779687,
				"y": 0.6641075276,
				"z": 3.8212028551,
				"element": "H" 
			},
			{
				"x": -2.721332379,
				"y": -0.9681261069,
				"z": 2.1855959124,
				"element": "H" 
			},
			{
				"x": -2.1260375828,
				"y": -1.3830680295,
				"z": -0.0894827629,
				"element": "H" 
			}
		],
		 "valence_orbital": [ 
			{
				"type": "occ",
				"energy": -0.28268,
				"method": "rhf"
			},
			{
				"type": "occ",
				"energy": -0.2703,
				"method": "rhf"
			},
			{
				"type": "occ",
				"energy": -0.24368,
				"method": "rhf"
			},
			{
				"type": "occ",
				"energy": -0.22238,
				"method": "rhf"
			},
			{
				"type": "occ",
				"energy": -0.21677,
				"method": "rhf"
			},
			{
				"type": "unocc",
				"energy": -0.06484,
				"method": "rhf"
			},
			{
				"type": "unocc",
				"energy": -0.02657,
				"method": "rhf"
			},
			{
				"type": "unocc",
				"energy": -0.00464,
				"method": "rhf"
			},
			{
				"type": "unocc",
				"energy": 0.00227,
				"method": "rhf"
			},
			{
				"type": "unocc",
				"energy": 0.03096,
				"method": "rhf"
			}
		],
		"cosmo_sigma_profile": { 
			"-0.025": 0.0,
			"-0.024": 0.0,
			"-0.023": 0.0,
			"-0.022": 0.0,
			"-0.021": 0.0,
			"-0.02": 0.0,
			"-0.019": 0.0,
			"-0.018": 0.0,
			"-0.017": 0.0,
			"-0.016": 0.8675158455,
			"-0.015": 1.03120638338,
			"-0.014": 1.30132197758,
			"-0.013": 0.939090989026,
			"-0.012": 0.969079817461,
			"-0.011": 1.12027810031,
			"-0.01": 1.03869340808,
			"-0.009": 2.07279695004,
			"-0.008": 3.4155260182,
			"-0.007": 7.48929698373,
			"-0.006": 15.3203598769,
			"-0.005": 21.4273171997,
			"-0.004": 25.2998713822,
			"-0.003": 23.6247466136,
			"-0.002": 21.6468465516,
			"-0.001": 18.6293125281,
			"0.0": 20.7533624229,
			"0.001": 18.3000044123,
			"0.002": 18.2370387696,
			"0.003": 20.6071778931,
			"0.004": 18.4735068143,
			"0.005": 11.4282720013,
			"0.006": 9.91558730462,
			"0.007": 7.77838540775,
			"0.008": 7.93054154634,
			"0.009": 4.21024945744,
			"0.01": 5.73951258072,
			"0.011": 3.5863399696,
			"0.012": 4.71681648412,
			"0.013": 0.551166977444,
			"0.014": 0.0,
			"0.015": 0.0,
			"0.016": 0.0,
			"0.017": 0.0,
			"0.018": 0.0,
			"0.019": 0.0,
			"0.02": 0.0,
			"0.021": 0.0,
			"0.022": 0.0,
			"0.023": 0.0,
			"0.024": 0.0,
			"0.025": 0.0
		}
	}
}
