{
	 "smiles": "COC1=CC(OC)=C(C=C1)C(=O)C1=C(Cl)C=CC=C1", 
	 "Tm": 335.15, 
	 "num_atms": 32, 
	 "gaussian": { 
		 "optdone": 1, 
		 "sigma_profile": "yes", 
		 "theory": "DFT", 
		 "functional": "B3LYP", 
		 "basiset": "6-31G**", 
		 "properties": { 
			 "R2extent": 6267.7986, 
			 "electric_dipole_moment_norm": 3.69849592267, 
			 "electric_quadrupole_moment_norm": 26.4752965067, 
			 "total_energy": -1265.26587491, 
			 "HOMO_LUMO_gap": 0.16777, 
			 "cosmo_polarized_energy": -13.26, 
			 "cosmo_cavitation_energy": 37.74, 
			 "cosmo_dispersion_energy": -26.13, 
			 "cosmo_repulsion_energy": 2.01, 
			 "cosmo_total_nonelectrostatic_energy": 13.62, 
			 "SMD_solvation_energy": 8.19 
		},
		"coords": [
			{
				"x": -0.2523433738,
				"y": 5.1885867046,
				"z": 1.1510404016,
				"element": "C" 
			},
			{
				"x": -0.6184136441,
				"y": 4.1134527988,
				"z": 0.2960149534,
				"element": "O" 
			},
			{
				"x": 0.1622607093,
				"y": 3.0007995166,
				"z": 0.2848469759,
				"element": "C" 
			},
			{
				"x": -0.2585128435,
				"y": 1.9909380372,
				"z": -0.5931242792,
				"element": "C" 
			},
			{
				"x": 0.4545100608,
				"y": 0.7975962876,
				"z": -0.6880464267,
				"element": "C" 
			},
			{
				"x": 0.1164741897,
				"y": -0.196048105,
				"z": -1.5490688409,
				"element": "O" 
			},
			{
				"x": -1.0613227927,
				"y": -0.0610185352,
				"z": -2.331540609,
				"element": "C" 
			},
			{
				"x": 1.6115535562,
				"y": 0.5914028938,
				"z": 0.1090603326,
				"element": "C" 
			},
			{
				"x": 2.0175115575,
				"y": 1.6348509716,
				"z": 0.9505913596,
				"element": "C" 
			},
			{
				"x": 1.3137615026,
				"y": 2.828362259,
				"z": 1.0640614936,
				"element": "C" 
			},
			{
				"x": 2.4753013279,
				"y": -0.620814616,
				"z": 0.0839676387,
				"element": "C" 
			},
			{
				"x": 3.6500734733,
				"y": -0.5453878071,
				"z": 0.4322154926,
				"element": "O" 
			},
			{
				"x": 1.9806297251,
				"y": -1.9730750607,
				"z": -0.3771281544,
				"element": "C" 
			},
			{
				"x": 0.855576753,
				"y": -2.6458629894,
				"z": 0.1182863006,
				"element": "C" 
			},
			{
				"x": -0.1657413725,
				"y": -1.9253986342,
				"z": 1.3606520612,
				"element": "Cl" 
			},
			{
				"x": 0.5267806986,
				"y": -3.9304393056,
				"z": -0.3148570369,
				"element": "C" 
			},
			{
				"x": 1.3244927541,
				"y": -4.5640412469,
				"z": -1.2668665757,
				"element": "C" 
			},
			{
				"x": 2.4606411587,
				"y": -3.9228104013,
				"z": -1.7625509138,
				"element": "C" 
			},
			{
				"x": 2.7876601226,
				"y": -2.649787389,
				"z": -1.3045280196,
				"element": "C" 
			},
			{
				"x": -1.0067226901,
				"y": 5.9617303472,
				"z": 0.9991023678,
				"element": "H" 
			},
			{
				"x": -0.2535362012,
				"y": 4.8835460047,
				"z": 2.2045902569,
				"element": "H" 
			},
			{
				"x": 0.7351232896,
				"y": 5.5901797268,
				"z": 0.8927795567,
				"element": "H" 
			},
			{
				"x": -1.1408062245,
				"y": 2.1804213751,
				"z": -1.1899270855,
				"element": "H" 
			},
			{
				"x": -0.9919100057,
				"y": 0.7914007407,
				"z": -3.0185433819,
				"element": "H" 
			},
			{
				"x": -1.9509430274,
				"y": 0.0525470177,
				"z": -1.7006260583,
				"element": "H" 
			},
			{
				"x": -1.1412205853,
				"y": -0.9835744773,
				"z": -2.9077755854,
				"element": "H" 
			},
			{
				"x": 2.9180973956,
				"y": 1.4762849338,
				"z": 1.5340422683,
				"element": "H" 
			},
			{
				"x": 1.6585814218,
				"y": 3.5969631352,
				"z": 1.7439157268,
				"element": "H" 
			},
			{
				"x": -0.3428067762,
				"y": -4.4266497887,
				"z": 0.101944067,
				"element": "H" 
			},
			{
				"x": 1.0617160222,
				"y": -5.5613922215,
				"z": -1.6070287574,
				"element": "H" 
			},
			{
				"x": 3.094899458,
				"y": -4.4163594562,
				"z": -2.4925189813,
				"element": "H" 
			},
			{
				"x": 3.6830343605,
				"y": -2.1490027159,
				"z": -1.6577805472,
				"element": "H" 
			}
		],
		 "valence_orbital": [ 
			{
				"type": "occ",
				"energy": -0.26008,
				"method": "rhf"
			},
			{
				"type": "occ",
				"energy": -0.24326,
				"method": "rhf"
			},
			{
				"type": "occ",
				"energy": -0.24162,
				"method": "rhf"
			},
			{
				"type": "occ",
				"energy": -0.23424,
				"method": "rhf"
			},
			{
				"type": "occ",
				"energy": -0.21945,
				"method": "rhf"
			},
			{
				"type": "unocc",
				"energy": -0.05168,
				"method": "rhf"
			},
			{
				"type": "unocc",
				"energy": -0.00906,
				"method": "rhf"
			},
			{
				"type": "unocc",
				"energy": -0.00615,
				"method": "rhf"
			},
			{
				"type": "unocc",
				"energy": 0.00809,
				"method": "rhf"
			},
			{
				"type": "unocc",
				"energy": 0.03519,
				"method": "rhf"
			}
		],
		"cosmo_sigma_profile": { 
			"-0.025": 0.0,
			"-0.024": 0.0,
			"-0.023": 0.0,
			"-0.022": 0.0,
			"-0.021": 0.0,
			"-0.02": 0.0,
			"-0.019": 0.0,
			"-0.018": 0.0,
			"-0.017": 0.0,
			"-0.016": 0.0,
			"-0.015": 0.0,
			"-0.014": 0.0,
			"-0.013": 0.0,
			"-0.012": 0.0,
			"-0.011": 0.0,
			"-0.01": 0.0,
			"-0.009": 0.0,
			"-0.008": 0.231228136969,
			"-0.007": 7.42588430829,
			"-0.006": 24.445857745,
			"-0.005": 30.5218601286,
			"-0.004": 27.7654892122,
			"-0.003": 22.0711452139,
			"-0.002": 16.5711721277,
			"-0.001": 15.2653595507,
			"0.0": 16.2340967221,
			"0.001": 19.8525499292,
			"0.002": 22.0118154986,
			"0.003": 32.6761211551,
			"0.004": 30.36332202,
			"0.005": 11.3910230451,
			"0.006": 4.46080950198,
			"0.007": 4.37626270044,
			"0.008": 3.82192753534,
			"0.009": 3.22731222473,
			"0.01": 2.95441847179,
			"0.011": 2.33304137892,
			"0.012": 4.35751264084,
			"0.013": 1.16096314259,
			"0.014": 0.0,
			"0.015": 0.0,
			"0.016": 0.0,
			"0.017": 0.0,
			"0.018": 0.0,
			"0.019": 0.0,
			"0.02": 0.0,
			"0.021": 0.0,
			"0.022": 0.0,
			"0.023": 0.0,
			"0.024": 0.0,
			"0.025": 0.0
		}
	}
}
