{
	 "smiles": "[O-][N+](=O)C1=CC=C(Cl)C(=C1)[N+]([O-])=O", 
	 "Tm": 324.65, 
	 "num_atms": 16, 
	 "gaussian": { 
		 "optdone": 1, 
		 "sigma_profile": "yes", 
		 "theory": "DFT", 
		 "functional": "B3LYP", 
		 "basiset": "6-31G**", 
		 "properties": { 
			 "R2extent": 3911.0108, 
			 "electric_dipole_moment_norm": 3.77353842037, 
			 "electric_quadrupole_moment_norm": 13.1295908181, 
			 "total_energy": -1100.81594854, 
			 "HOMO_LUMO_gap": 0.18028, 
			 "cosmo_polarized_energy": -11.56, 
			 "cosmo_cavitation_energy": 24.39, 
			 "cosmo_dispersion_energy": -17.95, 
			 "cosmo_repulsion_energy": 1.41, 
			 "cosmo_total_nonelectrostatic_energy": 7.85, 
			 "SMD_solvation_energy": 8.56 
		},
		"coords": [
			{
				"x": 0.7082682629,
				"y": 3.1052254507,
				"z": 1.0951709909,
				"element": "O" 
			},
			{
				"x": -0.2122120591,
				"y": 2.5941868485,
				"z": 0.4628563172,
				"element": "N" 
			},
			{
				"x": -1.3959040449,
				"y": 2.9154817024,
				"z": 0.5422435229,
				"element": "O" 
			},
			{
				"x": 0.1278118241,
				"y": 1.5054717071,
				"z": -0.4697158346,
				"element": "C" 
			},
			{
				"x": -0.8854302352,
				"y": 0.9026426074,
				"z": -1.2121942092,
				"element": "C" 
			},
			{
				"x": -0.5554032519,
				"y": -0.1284888108,
				"z": -2.0826333574,
				"element": "C" 
			},
			{
				"x": 0.7739362182,
				"y": -0.5450868224,
				"z": -2.2321807797,
				"element": "C" 
			},
			{
				"x": 1.0828039465,
				"y": -1.8711732253,
				"z": -3.3063214033,
				"element": "Cl" 
			},
			{
				"x": 1.7732583353,
				"y": 0.0885389588,
				"z": -1.4731365029,
				"element": "C" 
			},
			{
				"x": 1.4511340803,
				"y": 1.1047272543,
				"z": -0.5775695316,
				"element": "C" 
			},
			{
				"x": 3.2058103044,
				"y": -0.2599600145,
				"z": -1.569286013,
				"element": "N" 
			},
			{
				"x": 3.8680104043,
				"y": -0.1348988457,
				"z": -0.5415807795,
				"element": "O" 
			},
			{
				"x": 3.6367167411,
				"y": -0.6142125079,
				"z": -2.6598390911,
				"element": "O" 
			},
			{
				"x": -1.9079137856,
				"y": 1.2392435377,
				"z": -1.0954107589,
				"element": "H" 
			},
			{
				"x": -1.3259755877,
				"y": -0.6276028709,
				"z": -2.6583798959,
				"element": "H" 
			},
			{
				"x": 2.2238888473,
				"y": 1.5702050306,
				"z": 0.019677326,
				"element": "H" 
			}
		],
		 "valence_orbital": [ 
			{
				"type": "occ",
				"energy": -0.32906,
				"method": "rhf"
			},
			{
				"type": "occ",
				"energy": -0.32017,
				"method": "rhf"
			},
			{
				"type": "occ",
				"energy": -0.31476,
				"method": "rhf"
			},
			{
				"type": "occ",
				"energy": -0.30404,
				"method": "rhf"
			},
			{
				"type": "occ",
				"energy": -0.29926,
				"method": "rhf"
			},
			{
				"type": "unocc",
				"energy": -0.11898,
				"method": "rhf"
			},
			{
				"type": "unocc",
				"energy": -0.10612,
				"method": "rhf"
			},
			{
				"type": "unocc",
				"energy": -0.05081,
				"method": "rhf"
			},
			{
				"type": "unocc",
				"energy": -0.02587,
				"method": "rhf"
			},
			{
				"type": "unocc",
				"energy": -0.00849,
				"method": "rhf"
			}
		],
		"cosmo_sigma_profile": { 
			"-0.025": 0.0,
			"-0.024": 0.0,
			"-0.023": 0.0,
			"-0.022": 0.0,
			"-0.021": 0.0,
			"-0.02": 0.0,
			"-0.019": 0.0,
			"-0.018": 0.0,
			"-0.017": 0.0,
			"-0.016": 0.0,
			"-0.015": 0.0,
			"-0.014": 0.0,
			"-0.013": 0.0,
			"-0.012": 0.0,
			"-0.011": 0.0,
			"-0.01": 2.12782213965,
			"-0.009": 5.57015364581,
			"-0.008": 7.88103621189,
			"-0.007": 6.9072533725,
			"-0.006": 7.96534559535,
			"-0.005": 11.2160800313,
			"-0.004": 15.3565418832,
			"-0.003": 19.4645254082,
			"-0.002": 15.8327610864,
			"-0.001": 11.4937103818,
			"0.0": 7.02828098543,
			"0.001": 8.42499101705,
			"0.002": 11.9317672273,
			"0.003": 8.38990609825,
			"0.004": 6.01321253434,
			"0.005": 6.94898437774,
			"0.006": 14.504845951,
			"0.007": 18.1782196321,
			"0.008": 8.88920603277,
			"0.009": 4.90054581415,
			"0.01": 0.337653148814,
			"0.011": 0.0,
			"0.012": 0.0,
			"0.013": 0.0,
			"0.014": 0.0,
			"0.015": 0.0,
			"0.016": 0.0,
			"0.017": 0.0,
			"0.018": 0.0,
			"0.019": 0.0,
			"0.02": 0.0,
			"0.021": 0.0,
			"0.022": 0.0,
			"0.023": 0.0,
			"0.024": 0.0,
			"0.025": 0.0
		}
	}
}
