{
	 "smiles": "NC(=O)C(=CC1=CSC=C1)C#N", 
	 "Tm": 396.15, 
	 "num_atms": 18, 
	 "gaussian": { 
		 "optdone": 1, 
		 "sigma_profile": "yes", 
		 "theory": "DFT", 
		 "functional": "B3LYP", 
		 "basiset": "6-31G**", 
		 "properties": { 
			 "R2extent": 3495.0919, 
			 "electric_dipole_moment_norm": 1.88031170554, 
			 "electric_quadrupole_moment_norm": 17.8347821032, 
			 "total_energy": -891.348967686, 
			 "HOMO_LUMO_gap": 0.15758, 
			 "cosmo_polarized_energy": -13.86, 
			 "cosmo_cavitation_energy": 25.43, 
			 "cosmo_dispersion_energy": -18.97, 
			 "cosmo_repulsion_energy": 1.46, 
			 "cosmo_total_nonelectrostatic_energy": 7.91, 
			 "SMD_solvation_energy": 6.52 
		},
		"coords": [
			{
				"x": -1.9602531366,
				"y": 2.3676360544,
				"z": -0.9446049159,
				"element": "N" 
			},
			{
				"x": -1.2183913676,
				"y": 1.4582348061,
				"z": -0.2515532564,
				"element": "C" 
			},
			{
				"x": -1.3671566746,
				"y": 0.2513902361,
				"z": -0.4160913085,
				"element": "O" 
			},
			{
				"x": -0.2239160922,
				"y": 2.0523389089,
				"z": 0.7111044674,
				"element": "C" 
			},
			{
				"x": 0.6518152049,
				"y": 1.4007991478,
				"z": 1.5374456431,
				"element": "C" 
			},
			{
				"x": 0.9758781199,
				"y": 0.019007679,
				"z": 1.8231226935,
				"element": "C" 
			},
			{
				"x": 1.9666073988,
				"y": -0.2271930622,
				"z": 2.767158945,
				"element": "C" 
			},
			{
				"x": 2.2492352284,
				"y": -1.9001359617,
				"z": 3.0081134389,
				"element": "S" 
			},
			{
				"x": 1.0299790039,
				"y": -2.3148885404,
				"z": 1.8336528917,
				"element": "C" 
			},
			{
				"x": 0.4438110066,
				"y": -1.2132342149,
				"z": 1.291870554,
				"element": "C" 
			},
			{
				"x": -0.188143911,
				"y": 3.4853973986,
				"z": 0.7709329713,
				"element": "C" 
			},
			{
				"x": -0.2000359038,
				"y": 4.6509382047,
				"z": 0.7804221016,
				"element": "N" 
			},
			{
				"x": -1.8606239158,
				"y": 3.3643322676,
				"z": -0.8318713912,
				"element": "H" 
			},
			{
				"x": -2.6360860452,
				"y": 2.0050347397,
				"z": -1.5986015493,
				"element": "H" 
			},
			{
				"x": 1.2584622371,
				"y": 2.0835152432,
				"z": 2.1301437442,
				"element": "H" 
			},
			{
				"x": 2.533624439,
				"y": 0.507648095,
				"z": 3.3230185649,
				"element": "H" 
			},
			{
				"x": 0.8245819643,
				"y": -3.3542679448,
				"z": 1.618752597,
				"element": "H" 
			},
			{
				"x": -0.3357875561,
				"y": -1.2305530571,
				"z": 0.5452838088,
				"element": "H" 
			}
		],
		 "valence_orbital": [ 
			{
				"type": "occ",
				"energy": -0.31367,
				"method": "rhf"
			},
			{
				"type": "occ",
				"energy": -0.27898,
				"method": "rhf"
			},
			{
				"type": "occ",
				"energy": -0.26701,
				"method": "rhf"
			},
			{
				"type": "occ",
				"energy": -0.25976,
				"method": "rhf"
			},
			{
				"type": "occ",
				"energy": -0.24207,
				"method": "rhf"
			},
			{
				"type": "unocc",
				"energy": -0.08449,
				"method": "rhf"
			},
			{
				"type": "unocc",
				"energy": -0.01602,
				"method": "rhf"
			},
			{
				"type": "unocc",
				"energy": 0.0166,
				"method": "rhf"
			},
			{
				"type": "unocc",
				"energy": 0.02534,
				"method": "rhf"
			},
			{
				"type": "unocc",
				"energy": 0.02536,
				"method": "rhf"
			}
		],
		"cosmo_sigma_profile": { 
			"-0.025": 0.0,
			"-0.024": 0.0,
			"-0.023": 0.0,
			"-0.022": 0.0,
			"-0.021": 0.0,
			"-0.02": 0.0,
			"-0.019": 0.0,
			"-0.018": 0.0,
			"-0.017": 0.0,
			"-0.016": 0.0,
			"-0.015": 0.242424980711,
			"-0.014": 1.32062348311,
			"-0.013": 1.73820435065,
			"-0.012": 1.9151316861,
			"-0.011": 3.22269567655,
			"-0.01": 4.69282686545,
			"-0.009": 6.77910224072,
			"-0.008": 7.44839812819,
			"-0.007": 6.42524836298,
			"-0.006": 7.06624404626,
			"-0.005": 6.56841311053,
			"-0.004": 6.71029583838,
			"-0.003": 9.5480849481,
			"-0.002": 12.2891278828,
			"-0.001": 14.3049593068,
			"0.0": 16.7874479292,
			"0.001": 17.5575092168,
			"0.002": 22.6050721066,
			"0.003": 15.1528264795,
			"0.004": 7.42662806157,
			"0.005": 4.78899589516,
			"0.006": 3.60422303935,
			"0.007": 4.80103390481,
			"0.008": 4.8113271316,
			"0.009": 3.25057030099,
			"0.01": 3.96458010139,
			"0.011": 4.74872539661,
			"0.012": 4.51424613812,
			"0.013": 3.06588804163,
			"0.014": 0.683570926391,
			"0.015": 0.0,
			"0.016": 0.0,
			"0.017": 0.0,
			"0.018": 0.0,
			"0.019": 0.0,
			"0.02": 0.0,
			"0.021": 0.0,
			"0.022": 0.0,
			"0.023": 0.0,
			"0.024": 0.0,
			"0.025": 0.0
		}
	}
}
