{
	 "smiles": "CC1=CC(N2N=NN=C2SCC(O)=O)=C(C)C=C1", 
	 "Tm": 431.15, 
	 "num_atms": 30, 
	 "gaussian": { 
		 "optdone": 1, 
		 "sigma_profile": "yes", 
		 "theory": "DFT", 
		 "functional": "B3LYP", 
		 "basiset": "6-31G**", 
		 "properties": { 
			 "R2extent": 5833.8926, 
			 "electric_dipole_moment_norm": 8.10387481949, 
			 "electric_quadrupole_moment_norm": 26.8532834998, 
			 "total_energy": -1193.99996539, 
			 "HOMO_LUMO_gap": 0.21244, 
			 "cosmo_polarized_energy": -20.94, 
			 "cosmo_cavitation_energy": 36.65, 
			 "cosmo_dispersion_energy": -25.42, 
			 "cosmo_repulsion_energy": 1.95, 
			 "cosmo_total_nonelectrostatic_energy": 13.18, 
			 "SMD_solvation_energy": 5.98 
		},
		"coords": [
			{
				"x": -3.1742117485,
				"y": 1.552944138,
				"z": -2.1305646508,
				"element": "C" 
			},
			{
				"x": -2.546551584,
				"y": 0.9751452409,
				"z": -0.8847044055,
				"element": "C" 
			},
			{
				"x": -1.5320678615,
				"y": 0.0167991395,
				"z": -0.9648098891,
				"element": "C" 
			},
			{
				"x": -0.973723397,
				"y": -0.5286302114,
				"z": 0.1933933382,
				"element": "C" 
			},
			{
				"x": 0.0730035609,
				"y": -1.4975076001,
				"z": 0.0464195236,
				"element": "N" 
			},
			{
				"x": -0.0644729792,
				"y": -2.7929802873,
				"z": 0.4652682405,
				"element": "N" 
			},
			{
				"x": 1.0391951325,
				"y": -3.3907242106,
				"z": 0.1827133837,
				"element": "N" 
			},
			{
				"x": 1.9242987764,
				"y": -2.5484064051,
				"z": -0.420202094,
				"element": "N" 
			},
			{
				"x": 1.3102885174,
				"y": -1.3831539573,
				"z": -0.4971561957,
				"element": "C" 
			},
			{
				"x": 1.9522228128,
				"y": 0.1074452917,
				"z": -1.185534784,
				"element": "S" 
			},
			{
				"x": 3.6820473654,
				"y": -0.4357096914,
				"z": -1.4906870433,
				"element": "C" 
			},
			{
				"x": 4.6772600634,
				"y": -0.302486134,
				"z": -0.3271348728,
				"element": "C" 
			},
			{
				"x": 4.2644007762,
				"y": 0.3250706332,
				"z": 0.7879385602,
				"element": "O" 
			},
			{
				"x": 5.797146725,
				"y": -0.727435034,
				"z": -0.4476809234,
				"element": "O" 
			},
			{
				"x": -1.4002110878,
				"y": -0.1585051886,
				"z": 1.479120642,
				"element": "C" 
			},
			{
				"x": -0.7976104106,
				"y": -0.7468042095,
				"z": 2.7304725328,
				"element": "C" 
			},
			{
				"x": -2.4222883555,
				"y": 0.7964828833,
				"z": 1.5407348218,
				"element": "C" 
			},
			{
				"x": -2.980350743,
				"y": 1.3542565017,
				"z": 0.3918112823,
				"element": "C" 
			},
			{
				"x": -3.3821088417,
				"y": 2.6208596136,
				"z": -2.0125010975,
				"element": "H" 
			},
			{
				"x": -4.1273448852,
				"y": 1.0598768821,
				"z": -2.3570014413,
				"element": "H" 
			},
			{
				"x": -2.5252262163,
				"y": 1.4283787762,
				"z": -3.0016590634,
				"element": "H" 
			},
			{
				"x": -1.1757520496,
				"y": -0.3217814307,
				"z": -1.9333940244,
				"element": "H" 
			},
			{
				"x": 4.0404879413,
				"y": 0.1817599136,
				"z": -2.3183930859,
				"element": "H" 
			},
			{
				"x": 3.6721164437,
				"y": -1.4776876416,
				"z": -1.8123034124,
				"element": "H" 
			},
			{
				"x": 3.3371017868,
				"y": 0.6021114963,
				"z": 0.6826994574,
				"element": "H" 
			},
			{
				"x": 0.2938374452,
				"y": -0.6525711882,
				"z": 2.7359364139,
				"element": "H" 
			},
			{
				"x": -1.0227386071,
				"y": -1.8138933209,
				"z": 2.8165038346,
				"element": "H" 
			},
			{
				"x": -1.1845742133,
				"y": -0.2388947109,
				"z": 3.6168882287,
				"element": "H" 
			},
			{
				"x": -2.7802181362,
				"y": 1.1142380117,
				"z": 2.516096469,
				"element": "H" 
			},
			{
				"x": -3.7669562304,
				"y": 2.0981026998,
				"z": 0.4895302547,
				"element": "H" 
			}
		],
		 "valence_orbital": [ 
			{
				"type": "occ",
				"energy": -0.30215,
				"method": "rhf"
			},
			{
				"type": "occ",
				"energy": -0.28933,
				"method": "rhf"
			},
			{
				"type": "occ",
				"energy": -0.27473,
				"method": "rhf"
			},
			{
				"type": "occ",
				"energy": -0.26193,
				"method": "rhf"
			},
			{
				"type": "occ",
				"energy": -0.259,
				"method": "rhf"
			},
			{
				"type": "unocc",
				"energy": -0.04656,
				"method": "rhf"
			},
			{
				"type": "unocc",
				"energy": -0.02882,
				"method": "rhf"
			},
			{
				"type": "unocc",
				"energy": -0.01698,
				"method": "rhf"
			},
			{
				"type": "unocc",
				"energy": -0.00523,
				"method": "rhf"
			},
			{
				"type": "unocc",
				"energy": 0.00283,
				"method": "rhf"
			}
		],
		"cosmo_sigma_profile": { 
			"-0.025": 0.0,
			"-0.024": 0.0,
			"-0.023": 0.0,
			"-0.022": 0.0,
			"-0.021": 0.0,
			"-0.02": 0.0,
			"-0.019": 0.0,
			"-0.018": 0.0,
			"-0.017": 0.0,
			"-0.016": 0.0,
			"-0.015": 0.372746707005,
			"-0.014": 0.45238210852,
			"-0.013": 0.852585759756,
			"-0.012": 1.69688347904,
			"-0.011": 4.57540860676,
			"-0.01": 4.1722631211,
			"-0.009": 3.04226017218,
			"-0.008": 4.61433059045,
			"-0.007": 8.26282852149,
			"-0.006": 15.3375203475,
			"-0.005": 19.0354382778,
			"-0.004": 22.0443733885,
			"-0.003": 19.7794839811,
			"-0.002": 21.0377957595,
			"-0.001": 25.5598829088,
			"0.0": 24.9447964396,
			"0.001": 17.2966575014,
			"0.002": 16.2839661418,
			"0.003": 16.1843806258,
			"0.004": 9.69322984557,
			"0.005": 5.10767932951,
			"0.006": 6.03954807959,
			"0.007": 6.60924845032,
			"0.008": 8.08724929117,
			"0.009": 8.96709643135,
			"0.01": 8.64290373634,
			"0.011": 8.61408320068,
			"0.012": 5.7702421093,
			"0.013": 1.07110243598,
			"0.014": 0.0563726661507,
			"0.015": 0.0,
			"0.016": 0.0,
			"0.017": 0.0,
			"0.018": 0.0,
			"0.019": 0.0,
			"0.02": 0.0,
			"0.021": 0.0,
			"0.022": 0.0,
			"0.023": 0.0,
			"0.024": 0.0,
			"0.025": 0.0
		}
	}
}
