{
	 "smiles": "OC1CCN(CC2=CC=CC=C2)CC1", 
	 "Tm": 335.15, 
	 "num_atms": 31, 
	 "gaussian": { 
		 "optdone": 1, 
		 "sigma_profile": "yes", 
		 "theory": "DFT", 
		 "functional": "B3LYP", 
		 "basiset": "6-31G**", 
		 "properties": { 
			 "R2extent": 3843.019, 
			 "electric_dipole_moment_norm": 2.4238004889, 
			 "electric_quadrupole_moment_norm": 12.979381736, 
			 "total_energy": -597.488237258, 
			 "HOMO_LUMO_gap": 0.21693, 
			 "cosmo_polarized_energy": -8.01, 
			 "cosmo_cavitation_energy": 31.53, 
			 "cosmo_dispersion_energy": -22.56, 
			 "cosmo_repulsion_energy": 1.77, 
			 "cosmo_total_nonelectrostatic_energy": 10.73, 
			 "SMD_solvation_energy": 4.17 
		},
		"coords": [
			{
				"x": 1.1140545316,
				"y": 3.3117389003,
				"z": 1.2356431138,
				"element": "O" 
			},
			{
				"x": 2.1940037566,
				"y": 2.4994403317,
				"z": 1.6829578843,
				"element": "C" 
			},
			{
				"x": 1.7056367891,
				"y": 1.3933091718,
				"z": 2.640277964,
				"element": "C" 
			},
			{
				"x": 1.137697366,
				"y": 0.1868419652,
				"z": 1.8551247885,
				"element": "C" 
			},
			{
				"x": 0.7805284015,
				"y": 0.5970092859,
				"z": 0.4883436833,
				"element": "N" 
			},
			{
				"x": -0.0618289377,
				"y": -0.3913495519,
				"z": -0.1921384399,
				"element": "C" 
			},
			{
				"x": -0.6658608917,
				"y": 0.1255489576,
				"z": -1.4839624107,
				"element": "C" 
			},
			{
				"x": -1.4835181688,
				"y": 1.2648789422,
				"z": -1.4765098432,
				"element": "C" 
			},
			{
				"x": -2.0605420797,
				"y": 1.7346518231,
				"z": -2.6551255278,
				"element": "C" 
			},
			{
				"x": -1.8324423058,
				"y": 1.0681579688,
				"z": -3.8625150433,
				"element": "C" 
			},
			{
				"x": -1.0229798783,
				"y": -0.0674220067,
				"z": -3.8812665547,
				"element": "C" 
			},
			{
				"x": -0.4427289618,
				"y": -0.5322129518,
				"z": -2.6982115009,
				"element": "C" 
			},
			{
				"x": 1.9973754016,
				"y": 0.9068648486,
				"z": -0.2863619254,
				"element": "C" 
			},
			{
				"x": 2.9344863016,
				"y": 1.8582105259,
				"z": 0.5001464454,
				"element": "C" 
			},
			{
				"x": 0.4986404178,
				"y": 2.6825114279,
				"z": 0.8213266673,
				"element": "H" 
			},
			{
				"x": 2.8692426869,
				"y": 3.1750563417,
				"z": 2.2192371182,
				"element": "H" 
			},
			{
				"x": 2.5268508356,
				"y": 1.0606588253,
				"z": 3.2858961246,
				"element": "H" 
			},
			{
				"x": 0.9394813189,
				"y": 1.8314113993,
				"z": 3.2873984385,
				"element": "H" 
			},
			{
				"x": 0.238676743,
				"y": -0.2007053519,
				"z": 2.3447229123,
				"element": "H" 
			},
			{
				"x": 1.8672522636,
				"y": -0.645184048,
				"z": 1.8337097772,
				"element": "H" 
			},
			{
				"x": 0.4982852614,
				"y": -1.3230897678,
				"z": -0.3987420552,
				"element": "H" 
			},
			{
				"x": -0.869845076,
				"y": -0.6588900363,
				"z": 0.5004689005,
				"element": "H" 
			},
			{
				"x": -1.664651874,
				"y": 1.7826805692,
				"z": -0.5384272834,
				"element": "H" 
			},
			{
				"x": -2.6912910162,
				"y": 2.6189302162,
				"z": -2.6326272229,
				"element": "H" 
			},
			{
				"x": -2.2834038,
				"y": 1.4331442861,
				"z": -4.7808733276,
				"element": "H" 
			},
			{
				"x": -0.8384326331,
				"y": -0.5906999941,
				"z": -4.815310814,
				"element": "H" 
			},
			{
				"x": 0.1910641961,
				"y": -1.4156318444,
				"z": -2.7177650082,
				"element": "H" 
			},
			{
				"x": 2.5350281111,
				"y": -0.0248617696,
				"z": -0.5459545177,
				"element": "H" 
			},
			{
				"x": 1.6829823871,
				"y": 1.3644037238,
				"z": -1.2277622306,
				"element": "H" 
			},
			{
				"x": 3.8018184641,
				"y": 1.3061774423,
				"z": 0.8827244463,
				"element": "H" 
			},
			{
				"x": 3.3168203894,
				"y": 2.6411203698,
				"z": -0.1611245587,
				"element": "H" 
			}
		],
		 "valence_orbital": [ 
			{
				"type": "occ",
				"energy": -0.30593,
				"method": "rhf"
			},
			{
				"type": "occ",
				"energy": -0.2508,
				"method": "rhf"
			},
			{
				"type": "occ",
				"energy": -0.24546,
				"method": "rhf"
			},
			{
				"type": "occ",
				"energy": -0.24467,
				"method": "rhf"
			},
			{
				"type": "occ",
				"energy": -0.22311,
				"method": "rhf"
			},
			{
				"type": "unocc",
				"energy": -0.00618,
				"method": "rhf"
			},
			{
				"type": "unocc",
				"energy": -0.00092,
				"method": "rhf"
			},
			{
				"type": "unocc",
				"energy": 0.07425,
				"method": "rhf"
			},
			{
				"type": "unocc",
				"energy": 0.09265,
				"method": "rhf"
			},
			{
				"type": "unocc",
				"energy": 0.10776,
				"method": "rhf"
			}
		],
		"cosmo_sigma_profile": { 
			"-0.025": 0.0,
			"-0.024": 0.0,
			"-0.023": 0.0,
			"-0.022": 0.0,
			"-0.021": 0.0,
			"-0.02": 0.0,
			"-0.019": 0.0,
			"-0.018": 0.0,
			"-0.017": 0.0,
			"-0.016": 0.0,
			"-0.015": 0.0,
			"-0.014": 0.0,
			"-0.013": 0.0,
			"-0.012": 0.0,
			"-0.011": 0.0,
			"-0.01": 0.0,
			"-0.009": 0.0,
			"-0.008": 0.0,
			"-0.007": 0.0,
			"-0.006": 2.16653496098,
			"-0.005": 12.4093859198,
			"-0.004": 18.6422376621,
			"-0.003": 33.7489078544,
			"-0.002": 44.5354960724,
			"-0.001": 33.4490365541,
			"0.0": 24.416294883,
			"0.001": 14.7909820407,
			"0.002": 10.4659854482,
			"0.003": 10.0893470383,
			"0.004": 8.91914476494,
			"0.005": 8.80851568799,
			"0.006": 8.76697592272,
			"0.007": 2.21845894933,
			"0.008": 1.50337816756,
			"0.009": 0.847502446219,
			"0.01": 0.847074025188,
			"0.011": 1.2614572404,
			"0.012": 1.3281737632,
			"0.013": 1.89128828233,
			"0.014": 0.938614561655,
			"0.015": 2.62174596008,
			"0.016": 1.25753063738,
			"0.017": 0.0,
			"0.018": 0.0,
			"0.019": 0.0,
			"0.02": 0.0,
			"0.021": 0.0,
			"0.022": 0.0,
			"0.023": 0.0,
			"0.024": 0.0,
			"0.025": 0.0
		}
	}
}
