{
	 "smiles": "COC(=O)CC#N", 
	 "Tm": 260.15, 
	 "num_atms": 12, 
	 "gaussian": { 
		 "optdone": 1, 
		 "sigma_profile": "yes", 
		 "theory": "DFT", 
		 "functional": "B3LYP", 
		 "basiset": "6-31G**", 
		 "properties": { 
			 "R2extent": 1652.522, 
			 "electric_dipole_moment_norm": 5.35027160619, 
			 "electric_quadrupole_moment_norm": 20.7487704272, 
			 "total_energy": -360.618455123, 
			 "HOMO_LUMO_gap": 0.28555, 
			 "cosmo_polarized_energy": -13.51, 
			 "cosmo_cavitation_energy": 17.68, 
			 "cosmo_dispersion_energy": -12.4, 
			 "cosmo_repulsion_energy": 1.08, 
			 "cosmo_total_nonelectrostatic_energy": 6.36, 
			 "SMD_solvation_energy": 6.46 
		},
		"coords": [
			{
				"x": 0.822653576,
				"y": -2.4256888805,
				"z": -0.0363698249,
				"element": "C" 
			},
			{
				"x": 1.4489278947,
				"y": -1.1404795943,
				"z": 0.1502123045,
				"element": "O" 
			},
			{
				"x": 1.2160696085,
				"y": -0.5562976592,
				"z": 1.3399344731,
				"element": "C" 
			},
			{
				"x": 0.5414409114,
				"y": -1.0247396991,
				"z": 2.2230330888,
				"element": "O" 
			},
			{
				"x": 1.942917352,
				"y": 0.7902638164,
				"z": 1.3815930876,
				"element": "C" 
			},
			{
				"x": 1.7516567398,
				"y": 1.5087122975,
				"z": 2.63841829,
				"element": "C" 
			},
			{
				"x": 1.6227489916,
				"y": 2.1084509171,
				"z": 3.6220930788,
				"element": "N" 
			},
			{
				"x": -0.2631808848,
				"y": -2.3351408324,
				"z": 0.0415886087,
				"element": "H" 
			},
			{
				"x": 1.1761378945,
				"y": -3.1344116811,
				"z": 0.716010109,
				"element": "H" 
			},
			{
				"x": 1.1117926435,
				"y": -2.7482467546,
				"z": -1.0357249767,
				"element": "H" 
			},
			{
				"x": 1.5926799773,
				"y": 1.4044708818,
				"z": 0.5441323676,
				"element": "H" 
			},
			{
				"x": 3.0115552954,
				"y": 0.6179071885,
				"z": 1.2096793936,
				"element": "H" 
			}
		],
		 "valence_orbital": [ 
			{
				"type": "occ",
				"energy": -0.36172,
				"method": "rhf"
			},
			{
				"type": "occ",
				"energy": -0.33454,
				"method": "rhf"
			},
			{
				"type": "occ",
				"energy": -0.33236,
				"method": "rhf"
			},
			{
				"type": "occ",
				"energy": -0.32332,
				"method": "rhf"
			},
			{
				"type": "occ",
				"energy": -0.29739,
				"method": "rhf"
			},
			{
				"type": "unocc",
				"energy": -0.01184,
				"method": "rhf"
			},
			{
				"type": "unocc",
				"energy": 0.02523,
				"method": "rhf"
			},
			{
				"type": "unocc",
				"energy": 0.03299,
				"method": "rhf"
			},
			{
				"type": "unocc",
				"energy": 0.0812,
				"method": "rhf"
			},
			{
				"type": "unocc",
				"energy": 0.10474,
				"method": "rhf"
			}
		],
		"cosmo_sigma_profile": { 
			"-0.025": 0.0,
			"-0.024": 0.0,
			"-0.023": 0.0,
			"-0.022": 0.0,
			"-0.021": 0.0,
			"-0.02": 0.0,
			"-0.019": 0.0,
			"-0.018": 0.0,
			"-0.017": 0.0,
			"-0.016": 0.0,
			"-0.015": 0.0,
			"-0.014": 0.0,
			"-0.013": 0.0,
			"-0.012": 0.0,
			"-0.011": 4.00565159614,
			"-0.01": 5.29457599878,
			"-0.009": 4.54239975378,
			"-0.008": 4.36094809931,
			"-0.007": 6.74676923102,
			"-0.006": 9.87535572705,
			"-0.005": 10.9662047138,
			"-0.004": 11.6786981778,
			"-0.003": 8.46103505322,
			"-0.002": 5.32598445938,
			"-0.001": 5.32219370299,
			"0.0": 4.31054065758,
			"0.001": 3.15225377186,
			"0.002": 4.38166229053,
			"0.003": 4.45192493997,
			"0.004": 3.11365782124,
			"0.005": 5.98892676577,
			"0.006": 4.9114502599,
			"0.007": 6.65540304179,
			"0.008": 5.92259763123,
			"0.009": 5.45535340336,
			"0.01": 6.62051696362,
			"0.011": 6.69083620272,
			"0.012": 2.48373124082,
			"0.013": 0.897016174293,
			"0.014": 0.0,
			"0.015": 0.0,
			"0.016": 0.0,
			"0.017": 0.0,
			"0.018": 0.0,
			"0.019": 0.0,
			"0.02": 0.0,
			"0.021": 0.0,
			"0.022": 0.0,
			"0.023": 0.0,
			"0.024": 0.0,
			"0.025": 0.0
		}
	}
}
