{
	 "smiles": "O=C(CC#N)NC1=CC=CC=C1", 
	 "Tm": 473.15, 
	 "num_atms": 20, 
	 "gaussian": { 
		 "optdone": 1, 
		 "sigma_profile": "yes", 
		 "theory": "DFT", 
		 "functional": "B3LYP", 
		 "basiset": "6-31G**", 
		 "properties": { 
			 "R2extent": 2937.0586, 
			 "electric_dipole_moment_norm": 5.43942990211, 
			 "electric_quadrupole_moment_norm": 11.8124381069, 
			 "total_energy": -532.495000405, 
			 "HOMO_LUMO_gap": 0.21479, 
			 "cosmo_polarized_energy": -15.29, 
			 "cosmo_cavitation_energy": 25.44, 
			 "cosmo_dispersion_energy": -17.72, 
			 "cosmo_repulsion_energy": 1.43, 
			 "cosmo_total_nonelectrostatic_energy": 9.14, 
			 "SMD_solvation_energy": 6.44 
		},
		"coords": [
			{
				"x": -1.0919790802,
				"y": -0.0106573318,
				"z": -2.4625646103,
				"element": "O" 
			},
			{
				"x": -1.2667945951,
				"y": -0.4653149511,
				"z": -1.3459453305,
				"element": "C" 
			},
			{
				"x": -2.0354232465,
				"y": -1.7898397064,
				"z": -1.147898863,
				"element": "C" 
			},
			{
				"x": -1.16447672,
				"y": -2.9578388359,
				"z": -1.277158687,
				"element": "C" 
			},
			{
				"x": -0.4629690072,
				"y": -3.8790423263,
				"z": -1.3594345455,
				"element": "N" 
			},
			{
				"x": -0.8316847564,
				"y": 0.1946258678,
				"z": -0.222286496,
				"element": "N" 
			},
			{
				"x": -0.9305380459,
				"y": -0.144357832,
				"z": 1.1557837368,
				"element": "C" 
			},
			{
				"x": -1.4058015808,
				"y": 0.8239563989,
				"z": 2.0514896229,
				"element": "C" 
			},
			{
				"x": -1.4793879711,
				"y": 0.5400470837,
				"z": 3.4136754275,
				"element": "C" 
			},
			{
				"x": -1.0975400334,
				"y": -0.7154283191,
				"z": 3.8926160385,
				"element": "C" 
			},
			{
				"x": -0.6216738314,
				"y": -1.6776130985,
				"z": 3.0012356868,
				"element": "C" 
			},
			{
				"x": -0.5180744272,
				"y": -1.3931571975,
				"z": 1.6385058271,
				"element": "C" 
			},
			{
				"x": -2.5423791306,
				"y": -1.8317919738,
				"z": -0.1793644079,
				"element": "H" 
			},
			{
				"x": -2.7854738142,
				"y": -1.8191145999,
				"z": -1.9431837201,
				"element": "H" 
			},
			{
				"x": -0.4453802404,
				"y": 1.1041770526,
				"z": -0.4473221379,
				"element": "H" 
			},
			{
				"x": -1.7231162473,
				"y": 1.7914188408,
				"z": 1.6723759952,
				"element": "H" 
			},
			{
				"x": -1.8463997485,
				"y": 1.2977741605,
				"z": 4.0995709244,
				"element": "H" 
			},
			{
				"x": -1.16361272,
				"y": -0.9383302738,
				"z": 4.9530544732,
				"element": "H" 
			},
			{
				"x": -0.3059707914,
				"y": -2.6506458262,
				"z": 3.36537761,
				"element": "H" 
			},
			{
				"x": -0.0988240124,
				"y": -2.1284671322,
				"z": 0.9601734559,
				"element": "H" 
			}
		],
		 "valence_orbital": [ 
			{
				"type": "occ",
				"energy": -0.33277,
				"method": "rhf"
			},
			{
				"type": "occ",
				"energy": -0.30734,
				"method": "rhf"
			},
			{
				"type": "occ",
				"energy": -0.27295,
				"method": "rhf"
			},
			{
				"type": "occ",
				"energy": -0.27161,
				"method": "rhf"
			},
			{
				"type": "occ",
				"energy": -0.24717,
				"method": "rhf"
			},
			{
				"type": "unocc",
				"energy": -0.03238,
				"method": "rhf"
			},
			{
				"type": "unocc",
				"energy": -0.0229,
				"method": "rhf"
			},
			{
				"type": "unocc",
				"energy": 0.00479,
				"method": "rhf"
			},
			{
				"type": "unocc",
				"energy": 0.0305,
				"method": "rhf"
			},
			{
				"type": "unocc",
				"energy": 0.03889,
				"method": "rhf"
			}
		],
		"cosmo_sigma_profile": { 
			"-0.025": 0.0,
			"-0.024": 0.0,
			"-0.023": 0.0,
			"-0.022": 0.0,
			"-0.021": 0.0,
			"-0.02": 0.0,
			"-0.019": 0.0,
			"-0.018": 0.0,
			"-0.017": 0.0,
			"-0.016": 0.0,
			"-0.015": 0.652112895241,
			"-0.014": 1.01250950264,
			"-0.013": 1.24939326854,
			"-0.012": 1.00788104724,
			"-0.011": 0.838360284526,
			"-0.01": 2.83652888796,
			"-0.009": 5.07255656696,
			"-0.008": 5.78598116237,
			"-0.007": 8.74058848151,
			"-0.006": 12.7242790054,
			"-0.005": 14.2421063443,
			"-0.004": 15.1109549425,
			"-0.003": 11.9607888074,
			"-0.002": 12.2918460893,
			"-0.001": 9.55912792794,
			"0.0": 11.1247794055,
			"0.001": 12.1183335673,
			"0.002": 9.98340032778,
			"0.003": 11.086228412,
			"0.004": 11.871097612,
			"0.005": 8.94892560594,
			"0.006": 2.53765416544,
			"0.007": 3.95732074897,
			"0.008": 4.54669111742,
			"0.009": 4.07519625696,
			"0.01": 5.20758793846,
			"0.011": 4.17841458618,
			"0.012": 7.26071134343,
			"0.013": 4.43294965336,
			"0.014": 0.0843448362353,
			"0.015": 0.0,
			"0.016": 0.0,
			"0.017": 0.0,
			"0.018": 0.0,
			"0.019": 0.0,
			"0.02": 0.0,
			"0.021": 0.0,
			"0.022": 0.0,
			"0.023": 0.0,
			"0.024": 0.0,
			"0.025": 0.0
		}
	}
}
