{
	 "smiles": "OC(=O)C(C1CCCCC1)C1=CC=CC=C1", 
	 "Tm": 423.15, 
	 "num_atms": 34, 
	 "gaussian": { 
		 "optdone": 1, 
		 "sigma_profile": "yes", 
		 "theory": "DFT", 
		 "functional": "B3LYP", 
		 "basiset": "6-31G**", 
		 "properties": { 
			 "R2extent": 4194.4659, 
			 "electric_dipole_moment_norm": 1.23101725821, 
			 "electric_quadrupole_moment_norm": 6.69068919843, 
			 "total_energy": -694.812766507, 
			 "HOMO_LUMO_gap": 0.23336, 
			 "cosmo_polarized_energy": -8.85, 
			 "cosmo_cavitation_energy": 34.21, 
			 "cosmo_dispersion_energy": -24.33, 
			 "cosmo_repulsion_energy": 1.92, 
			 "cosmo_total_nonelectrostatic_energy": 11.8, 
			 "SMD_solvation_energy": 5.88 
		},
		"coords": [
			{
				"x": -3.6592144734,
				"y": 1.8892891011,
				"z": 0.2635616059,
				"element": "O" 
			},
			{
				"x": -2.5799902945,
				"y": 1.3317036108,
				"z": 0.8662997443,
				"element": "C" 
			},
			{
				"x": -2.5195359068,
				"y": 1.2028752574,
				"z": 2.0720721331,
				"element": "O" 
			},
			{
				"x": -1.5030056696,
				"y": 0.9730278906,
				"z": -0.1460456857,
				"element": "C" 
			},
			{
				"x": -0.3814530777,
				"y": 2.0740043075,
				"z": -0.0977459748,
				"element": "C" 
			},
			{
				"x": 0.5199998076,
				"y": 1.9969836498,
				"z": -1.3565653887,
				"element": "C" 
			},
			{
				"x": 1.8857506089,
				"y": 2.6954711349,
				"z": -1.1527547659,
				"element": "C" 
			},
			{
				"x": 1.7717677578,
				"y": 3.8681878819,
				"z": -0.1710648529,
				"element": "C" 
			},
			{
				"x": 1.343214815,
				"y": 3.3727728519,
				"z": 1.2318235745,
				"element": "C" 
			},
			{
				"x": 0.482055678,
				"y": 2.0870240535,
				"z": 1.1730522127,
				"element": "C" 
			},
			{
				"x": -1.0141095227,
				"y": -0.4641236683,
				"z": -0.0062518155,
				"element": "C" 
			},
			{
				"x": -0.8961050834,
				"y": -1.2528595805,
				"z": -1.1604974121,
				"element": "C" 
			},
			{
				"x": -0.4291857989,
				"y": -2.5664726747,
				"z": -1.0935237573,
				"element": "C" 
			},
			{
				"x": -0.0780186585,
				"y": -3.1196473671,
				"z": 0.1379420673,
				"element": "C" 
			},
			{
				"x": -0.2030284305,
				"y": -2.3499383314,
				"z": 1.2958813357,
				"element": "C" 
			},
			{
				"x": -0.665722678,
				"y": -1.0350116694,
				"z": 1.227965257,
				"element": "C" 
			},
			{
				"x": -4.2746761292,
				"y": 2.1231403969,
				"z": 0.9796564493,
				"element": "H" 
			},
			{
				"x": -1.9700545471,
				"y": 1.0674479106,
				"z": -1.1313675341,
				"element": "H" 
			},
			{
				"x": -0.9214957761,
				"y": 3.0314760709,
				"z": -0.1333049704,
				"element": "H" 
			},
			{
				"x": 0.6904275487,
				"y": 0.9485174761,
				"z": -1.6243541322,
				"element": "H" 
			},
			{
				"x": -0.013137671,
				"y": 2.4523167707,
				"z": -2.2008892963,
				"element": "H" 
			},
			{
				"x": 2.2793861471,
				"y": 3.0315573906,
				"z": -2.1186346131,
				"element": "H" 
			},
			{
				"x": 2.6147807661,
				"y": 1.9746691195,
				"z": -0.7608823046,
				"element": "H" 
			},
			{
				"x": 1.0346919628,
				"y": 4.5845161416,
				"z": -0.5575248829,
				"element": "H" 
			},
			{
				"x": 2.7197089884,
				"y": 4.414114275,
				"z": -0.1072882971,
				"element": "H" 
			},
			{
				"x": 0.7876601335,
				"y": 4.1672623399,
				"z": 1.7444545681,
				"element": "H" 
			},
			{
				"x": 2.2306678043,
				"y": 3.1763995603,
				"z": 1.8448988616,
				"element": "H" 
			},
			{
				"x": 1.1289636652,
				"y": 1.2019862167,
				"z": 1.1715986286,
				"element": "H" 
			},
			{
				"x": -0.1426124124,
				"y": 2.0144215524,
				"z": 2.0676312772,
				"element": "H" 
			},
			{
				"x": -1.1790278335,
				"y": -0.8342719748,
				"z": -2.123252567,
				"element": "H" 
			},
			{
				"x": -0.347320052,
				"y": -3.1563452198,
				"z": -2.0021852396,
				"element": "H" 
			},
			{
				"x": 0.2828107884,
				"y": -4.1426132549,
				"z": 0.1961605937,
				"element": "H" 
			},
			{
				"x": 0.0573455462,
				"y": -2.7749376569,
				"z": 2.261356006,
				"element": "H" 
			},
			{
				"x": -0.7847380027,
				"y": -0.4557435631,
				"z": 2.1353791754,
				"element": "H" 
			}
		],
		 "valence_orbital": [ 
			{
				"type": "occ",
				"energy": -0.29725,
				"method": "rhf"
			},
			{
				"type": "occ",
				"energy": -0.29405,
				"method": "rhf"
			},
			{
				"type": "occ",
				"energy": -0.26996,
				"method": "rhf"
			},
			{
				"type": "occ",
				"energy": -0.24636,
				"method": "rhf"
			},
			{
				"type": "occ",
				"energy": -0.24067,
				"method": "rhf"
			},
			{
				"type": "unocc",
				"energy": -0.00731,
				"method": "rhf"
			},
			{
				"type": "unocc",
				"energy": 0.00073,
				"method": "rhf"
			},
			{
				"type": "unocc",
				"energy": 0.0156,
				"method": "rhf"
			},
			{
				"type": "unocc",
				"energy": 0.07652,
				"method": "rhf"
			},
			{
				"type": "unocc",
				"energy": 0.08438,
				"method": "rhf"
			}
		],
		"cosmo_sigma_profile": { 
			"-0.025": 0.0,
			"-0.024": 0.0,
			"-0.023": 0.0,
			"-0.022": 0.0,
			"-0.021": 0.0,
			"-0.02": 0.0,
			"-0.019": 0.0,
			"-0.018": 0.449038464307,
			"-0.017": 0.964259209697,
			"-0.016": 0.895922932642,
			"-0.015": 0.752109505613,
			"-0.014": 0.952331112098,
			"-0.013": 0.988488913582,
			"-0.012": 0.239768681921,
			"-0.011": 0.791298260508,
			"-0.01": 0.676766865557,
			"-0.009": 0.415977086584,
			"-0.008": 0.711356705799,
			"-0.007": 1.09416266771,
			"-0.006": 4.08470368455,
			"-0.005": 11.1861231012,
			"-0.004": 12.0223439201,
			"-0.003": 19.9557434847,
			"-0.002": 33.6456394514,
			"-0.001": 37.5153418391,
			"0.0": 33.7599114067,
			"0.001": 32.5544044005,
			"0.002": 16.7052587559,
			"0.003": 8.46655190795,
			"0.004": 10.703664984,
			"0.005": 11.2405034479,
			"0.006": 9.8618703562,
			"0.007": 3.00547016251,
			"0.008": 2.50880320816,
			"0.009": 3.24692085528,
			"0.01": 2.35111781254,
			"0.011": 2.8122468138,
			"0.012": 2.39045387537,
			"0.013": 0.0638097050321,
			"0.014": 0.0,
			"0.015": 0.0,
			"0.016": 0.0,
			"0.017": 0.0,
			"0.018": 0.0,
			"0.019": 0.0,
			"0.02": 0.0,
			"0.021": 0.0,
			"0.022": 0.0,
			"0.023": 0.0,
			"0.024": 0.0,
			"0.025": 0.0
		}
	}
}
