{
	 "smiles": "CCCOC1=C(Cl)C=C(C=C1Cl)C(O)=O", 
	 "Tm": 403.15, 
	 "num_atms": 25, 
	 "gaussian": { 
		 "optdone": 1, 
		 "sigma_profile": "yes", 
		 "theory": "DFT", 
		 "functional": "B3LYP", 
		 "basiset": "6-31G**", 
		 "properties": { 
			 "R2extent": 5349.382, 
			 "electric_dipole_moment_norm": 1.90157074546, 
			 "electric_quadrupole_moment_norm": 12.449029428, 
			 "total_energy": -1533.15849376, 
			 "HOMO_LUMO_gap": 0.19668, 
			 "cosmo_polarized_energy": -9.88, 
			 "cosmo_cavitation_energy": 33.18, 
			 "cosmo_dispersion_energy": -23.44, 
			 "cosmo_repulsion_energy": 1.85, 
			 "cosmo_total_nonelectrostatic_energy": 11.59, 
			 "SMD_solvation_energy": 6.58 
		},
		"coords": [
			{
				"x": -3.0092937741,
				"y": 0.1990870989,
				"z": 2.8947556914,
				"element": "C" 
			},
			{
				"x": -2.3249644106,
				"y": 1.3700817979,
				"z": 2.183399546,
				"element": "C" 
			},
			{
				"x": -1.9097068288,
				"y": 1.0589152604,
				"z": 0.7542538914,
				"element": "C" 
			},
			{
				"x": -0.9249744943,
				"y": -0.0053611756,
				"z": 0.7986687237,
				"element": "O" 
			},
			{
				"x": -0.3937171732,
				"y": -0.3796638154,
				"z": -0.3900048657,
				"element": "C" 
			},
			{
				"x": -0.954042359,
				"y": -1.4274820176,
				"z": -1.1450304456,
				"element": "C" 
			},
			{
				"x": -2.4031876171,
				"y": -2.2144289358,
				"z": -0.5589657895,
				"element": "Cl" 
			},
			{
				"x": -0.3776366874,
				"y": -1.8616563336,
				"z": -2.3338991881,
				"element": "C" 
			},
			{
				"x": 0.7871936276,
				"y": -1.2410260172,
				"z": -2.7980927842,
				"element": "C" 
			},
			{
				"x": 1.3697090077,
				"y": -0.1983509979,
				"z": -2.0697315483,
				"element": "C" 
			},
			{
				"x": 0.7804956527,
				"y": 0.2218455793,
				"z": -0.8845159166,
				"element": "C" 
			},
			{
				"x": 1.519106613,
				"y": 1.5161455314,
				"z": 0.0322412596,
				"element": "Cl" 
			},
			{
				"x": 1.4529764279,
				"y": -1.6565953252,
				"z": -4.0623099556,
				"element": "C" 
			},
			{
				"x": 0.8117702216,
				"y": -2.6742871278,
				"z": -4.6856401143,
				"element": "O" 
			},
			{
				"x": 2.4633197459,
				"y": -1.1516852316,
				"z": -4.5080373899,
				"element": "O" 
			},
			{
				"x": -3.2838466738,
				"y": 0.4714659324,
				"z": 3.9184934106,
				"element": "H" 
			},
			{
				"x": -3.9233873857,
				"y": -0.1021886966,
				"z": 2.3709999353,
				"element": "H" 
			},
			{
				"x": -2.3474404144,
				"y": -0.6696041159,
				"z": 2.9387816407,
				"element": "H" 
			},
			{
				"x": -2.9969710722,
				"y": 2.2370299854,
				"z": 2.1451540928,
				"element": "H" 
			},
			{
				"x": -1.4350230263,
				"y": 1.6856101735,
				"z": 2.7404243358,
				"element": "H" 
			},
			{
				"x": -2.7664571014,
				"y": 0.7252875702,
				"z": 0.1548259165,
				"element": "H" 
			},
			{
				"x": -1.4627261651,
				"y": 1.93756854,
				"z": 0.274532689,
				"element": "H" 
			},
			{
				"x": -0.8284304295,
				"y": -2.6725107978,
				"z": -2.8916020164,
				"element": "H" 
			},
			{
				"x": 2.2748112246,
				"y": 0.2684653987,
				"z": -2.4392778004,
				"element": "H" 
			},
			{
				"x": 1.3256230922,
				"y": -2.8628622801,
				"z": -5.4880233182,
				"element": "H" 
			}
		],
		 "valence_orbital": [ 
			{
				"type": "occ",
				"energy": -0.32023,
				"method": "rhf"
			},
			{
				"type": "occ",
				"energy": -0.29287,
				"method": "rhf"
			},
			{
				"type": "occ",
				"energy": -0.28789,
				"method": "rhf"
			},
			{
				"type": "occ",
				"energy": -0.26094,
				"method": "rhf"
			},
			{
				"type": "occ",
				"energy": -0.26013,
				"method": "rhf"
			},
			{
				"type": "unocc",
				"energy": -0.06345,
				"method": "rhf"
			},
			{
				"type": "unocc",
				"energy": -0.03227,
				"method": "rhf"
			},
			{
				"type": "unocc",
				"energy": 0.00108,
				"method": "rhf"
			},
			{
				"type": "unocc",
				"energy": 0.03978,
				"method": "rhf"
			},
			{
				"type": "unocc",
				"energy": 0.045,
				"method": "rhf"
			}
		],
		"cosmo_sigma_profile": { 
			"-0.025": 0.0,
			"-0.024": 0.0,
			"-0.023": 0.0,
			"-0.022": 0.0,
			"-0.021": 0.0,
			"-0.02": 0.0,
			"-0.019": 0.169252641451,
			"-0.018": 1.25723285977,
			"-0.017": 0.670365216211,
			"-0.016": 0.655319425147,
			"-0.015": 0.860373792323,
			"-0.014": 0.991311693876,
			"-0.013": 0.530313671832,
			"-0.012": 0.456177336867,
			"-0.011": 1.06580275746,
			"-0.01": 0.671810971631,
			"-0.009": 0.555409121693,
			"-0.008": 1.19195599144,
			"-0.007": 3.08232748037,
			"-0.006": 2.80445238256,
			"-0.005": 6.45163208816,
			"-0.004": 17.226775514,
			"-0.003": 25.7566483648,
			"-0.002": 23.9890952759,
			"-0.001": 35.2488711383,
			"0.0": 35.9238038813,
			"0.001": 24.1111316025,
			"0.002": 18.9767652093,
			"0.003": 17.5385797466,
			"0.004": 16.3321429387,
			"0.005": 7.81382857292,
			"0.006": 4.87553285069,
			"0.007": 4.76587333806,
			"0.008": 2.33771471667,
			"0.009": 2.44251429392,
			"0.01": 2.82245619739,
			"0.011": 4.58031839689,
			"0.012": 1.71247078725,
			"0.013": 0.0,
			"0.014": 0.0,
			"0.015": 0.0,
			"0.016": 0.0,
			"0.017": 0.0,
			"0.018": 0.0,
			"0.019": 0.0,
			"0.02": 0.0,
			"0.021": 0.0,
			"0.022": 0.0,
			"0.023": 0.0,
			"0.024": 0.0,
			"0.025": 0.0
		}
	}
}
