{
	 "smiles": "CN1C(=O)NC2=C1C=C(C=C2)C(O)=O", 
	 "Tm": 640.15, 
	 "num_atms": 22, 
	 "gaussian": { 
		 "optdone": 1, 
		 "sigma_profile": "yes", 
		 "theory": "DFT", 
		 "functional": "B3LYP", 
		 "basiset": "6-31G**", 
		 "properties": { 
			 "R2extent": 3480.128, 
			 "electric_dipole_moment_norm": 0.574813030472, 
			 "electric_quadrupole_moment_norm": 23.9404916535, 
			 "total_energy": -683.011253572, 
			 "HOMO_LUMO_gap": 0.17309, 
			 "cosmo_polarized_energy": -17.27, 
			 "cosmo_cavitation_energy": 26.92, 
			 "cosmo_dispersion_energy": -19.96, 
			 "cosmo_repulsion_energy": 1.56, 
			 "cosmo_total_nonelectrostatic_energy": 8.51, 
			 "SMD_solvation_energy": 6.51 
		},
		"coords": [
			{
				"x": 0.1088943535,
				"y": 1.5037114757,
				"z": -1.4963936533,
				"element": "C" 
			},
			{
				"x": 0.7415955105,
				"y": 0.3363216962,
				"z": -0.9190120815,
				"element": "N" 
			},
			{
				"x": 1.7411801712,
				"y": -0.3830449859,
				"z": -1.579036904,
				"element": "C" 
			},
			{
				"x": 2.2148466829,
				"y": -0.160821178,
				"z": -2.6788342412,
				"element": "O" 
			},
			{
				"x": 2.0792824947,
				"y": -1.4162155939,
				"z": -0.6984833728,
				"element": "N" 
			},
			{
				"x": 1.3288431486,
				"y": -1.3516771418,
				"z": 0.4615162064,
				"element": "C" 
			},
			{
				"x": 0.474285401,
				"y": -0.2328566697,
				"z": 0.3216495213,
				"element": "C" 
			},
			{
				"x": -0.4191922944,
				"y": 0.1182736614,
				"z": 1.3193715621,
				"element": "C" 
			},
			{
				"x": -0.4459226567,
				"y": -0.6803837764,
				"z": 2.4799380448,
				"element": "C" 
			},
			{
				"x": 0.4041199822,
				"y": -1.7896184894,
				"z": 2.6138748541,
				"element": "C" 
			},
			{
				"x": 1.3037410137,
				"y": -2.1408513377,
				"z": 1.6060991394,
				"element": "C" 
			},
			{
				"x": -1.3679878705,
				"y": -0.3835357035,
				"z": 3.6013419204,
				"element": "C" 
			},
			{
				"x": -2.148664513,
				"y": 0.7071449092,
				"z": 3.3753565879,
				"element": "O" 
			},
			{
				"x": -1.4497833952,
				"y": -1.0250588575,
				"z": 4.6315479949,
				"element": "O" 
			},
			{
				"x": 0.2730593697,
				"y": 2.3874948835,
				"z": -0.870697567,
				"element": "H" 
			},
			{
				"x": -0.9682943427,
				"y": 1.3460493555,
				"z": -1.6160689023,
				"element": "H" 
			},
			{
				"x": 0.5617792704,
				"y": 1.6646853908,
				"z": -2.4755538525,
				"element": "H" 
			},
			{
				"x": 2.7872851381,
				"y": -2.0942979668,
				"z": -0.9304000967,
				"element": "H" 
			},
			{
				"x": -1.0783579198,
				"y": 0.9722678468,
				"z": 1.2241969251,
				"element": "H" 
			},
			{
				"x": 0.3436652927,
				"y": -2.3709254365,
				"z": 3.526904347,
				"element": "H" 
			},
			{
				"x": 1.9589547925,
				"y": -2.9991231674,
				"z": 1.7139520563,
				"element": "H" 
			},
			{
				"x": -2.7018296296,
				"y": 0.7980610855,
				"z": 4.1682315119,
				"element": "H" 
			}
		],
		 "valence_orbital": [ 
			{
				"type": "occ",
				"energy": -0.30631,
				"method": "rhf"
			},
			{
				"type": "occ",
				"energy": -0.27942,
				"method": "rhf"
			},
			{
				"type": "occ",
				"energy": -0.27438,
				"method": "rhf"
			},
			{
				"type": "occ",
				"energy": -0.24935,
				"method": "rhf"
			},
			{
				"type": "occ",
				"energy": -0.21738,
				"method": "rhf"
			},
			{
				"type": "unocc",
				"energy": -0.04429,
				"method": "rhf"
			},
			{
				"type": "unocc",
				"energy": -0.01073,
				"method": "rhf"
			},
			{
				"type": "unocc",
				"energy": 0.0572,
				"method": "rhf"
			},
			{
				"type": "unocc",
				"energy": 0.06632,
				"method": "rhf"
			},
			{
				"type": "unocc",
				"energy": 0.07675,
				"method": "rhf"
			}
		],
		"cosmo_sigma_profile": { 
			"-0.025": 0.0,
			"-0.024": 0.0,
			"-0.023": 0.0,
			"-0.022": 0.0,
			"-0.021": 0.0,
			"-0.02": 0.0,
			"-0.019": 0.0,
			"-0.018": 0.387391749168,
			"-0.017": 1.50185949004,
			"-0.016": 2.44040406678,
			"-0.015": 2.06699627567,
			"-0.014": 1.27672315865,
			"-0.013": 2.05736753348,
			"-0.012": 1.2898379598,
			"-0.011": 2.09883653134,
			"-0.01": 1.89158995028,
			"-0.009": 1.59554487478,
			"-0.008": 2.53513078176,
			"-0.007": 4.50972042991,
			"-0.006": 11.4205030714,
			"-0.005": 14.1920267171,
			"-0.004": 12.0805245938,
			"-0.003": 12.879149411,
			"-0.002": 15.4593920548,
			"-0.001": 15.4493112046,
			"0.0": 15.0075696923,
			"0.001": 13.4977638857,
			"0.002": 15.3345394146,
			"0.003": 13.8898587749,
			"0.004": 9.38682410163,
			"0.005": 4.22006614007,
			"0.006": 3.84344240981,
			"0.007": 4.13733129139,
			"0.008": 4.35073744353,
			"0.009": 2.31843933044,
			"0.01": 3.07917126559,
			"0.011": 4.11068274365,
			"0.012": 7.75588867633,
			"0.013": 6.95178141121,
			"0.014": 2.12228768254,
			"0.015": 0.0,
			"0.016": 0.0,
			"0.017": 0.0,
			"0.018": 0.0,
			"0.019": 0.0,
			"0.02": 0.0,
			"0.021": 0.0,
			"0.022": 0.0,
			"0.023": 0.0,
			"0.024": 0.0,
			"0.025": 0.0
		}
	}
}
