{
	 "smiles": "OC1=C(C=NC=C1)[N+]([O-])=O", 
	 "Tm": 545.15, 
	 "num_atms": 14, 
	 "gaussian": { 
		 "optdone": 1, 
		 "sigma_profile": "yes", 
		 "theory": "DFT", 
		 "functional": "B3LYP", 
		 "basiset": "6-31G**", 
		 "properties": { 
			 "R2extent": 1947.3767, 
			 "electric_dipole_moment_norm": 5.48809460013, 
			 "electric_quadrupole_moment_norm": 14.8251350358, 
			 "total_energy": -527.9931484, 
			 "HOMO_LUMO_gap": 0.18687, 
			 "cosmo_polarized_energy": -16.69, 
			 "cosmo_cavitation_energy": 19.43, 
			 "cosmo_dispersion_energy": -14.64, 
			 "cosmo_repulsion_energy": 1.18, 
			 "cosmo_total_nonelectrostatic_energy": 5.98, 
			 "SMD_solvation_energy": 4.78 
		},
		"coords": [
			{
				"x": -1.3006299721,
				"y": 2.4412503374,
				"z": 0.1633490076,
				"element": "O" 
			},
			{
				"x": -1.7929400109,
				"y": 1.4382672884,
				"z": -0.5813316011,
				"element": "C" 
			},
			{
				"x": -1.0006958632,
				"y": 0.3270283124,
				"z": -0.9332493404,
				"element": "C" 
			},
			{
				"x": -1.5672226735,
				"y": -0.7075475833,
				"z": -1.6861575078,
				"element": "C" 
			},
			{
				"x": -2.8277830903,
				"y": -0.7156313665,
				"z": -2.1152705946,
				"element": "N" 
			},
			{
				"x": -3.5806502466,
				"y": 0.3430882508,
				"z": -1.7778447244,
				"element": "C" 
			},
			{
				"x": -3.1231930105,
				"y": 1.4185051671,
				"z": -1.0279559992,
				"element": "C" 
			},
			{
				"x": 0.4087545596,
				"y": 0.2039321106,
				"z": -0.5562075923,
				"element": "N" 
			},
			{
				"x": 1.0125532273,
				"y": 1.2223728054,
				"z": -0.2315702025,
				"element": "O" 
			},
			{
				"x": 0.9031181589,
				"y": -0.9240922031,
				"z": -0.6088155616,
				"element": "O" 
			},
			{
				"x": -2.0043619065,
				"y": 3.0837515835,
				"z": 0.3333622691,
				"element": "H" 
			},
			{
				"x": -0.9402256679,
				"y": -1.5561432628,
				"z": -1.9410389719,
				"element": "H" 
			},
			{
				"x": -4.6118245361,
				"y": 0.32935645,
				"z": -2.1247607535,
				"element": "H" 
			},
			{
				"x": -3.7892989683,
				"y": 2.24226211,
				"z": -0.7841084275,
				"element": "H" 
			}
		],
		 "valence_orbital": [ 
			{
				"type": "occ",
				"energy": -0.30894,
				"method": "rhf"
			},
			{
				"type": "occ",
				"energy": -0.30205,
				"method": "rhf"
			},
			{
				"type": "occ",
				"energy": -0.28735,
				"method": "rhf"
			},
			{
				"type": "occ",
				"energy": -0.2826,
				"method": "rhf"
			},
			{
				"type": "occ",
				"energy": -0.27669,
				"method": "rhf"
			},
			{
				"type": "unocc",
				"energy": -0.08982,
				"method": "rhf"
			},
			{
				"type": "unocc",
				"energy": -0.0378,
				"method": "rhf"
			},
			{
				"type": "unocc",
				"energy": -0.01392,
				"method": "rhf"
			},
			{
				"type": "unocc",
				"energy": 0.03734,
				"method": "rhf"
			},
			{
				"type": "unocc",
				"energy": 0.07316,
				"method": "rhf"
			}
		],
		"cosmo_sigma_profile": { 
			"-0.025": 0.0,
			"-0.024": 0.0,
			"-0.023": 0.0,
			"-0.022": 0.0,
			"-0.021": 0.0,
			"-0.02": 0.669128294182,
			"-0.019": 1.534774478,
			"-0.018": 1.20252078658,
			"-0.017": 1.49289189579,
			"-0.016": 0.924409923881,
			"-0.015": 0.73369365861,
			"-0.014": 0.776768871643,
			"-0.013": 1.44719819075,
			"-0.012": 1.05286217585,
			"-0.011": 1.27490128444,
			"-0.01": 1.06562396695,
			"-0.009": 2.05177768351,
			"-0.008": 4.66355203624,
			"-0.007": 7.45047371062,
			"-0.006": 5.81101660071,
			"-0.005": 6.1600794627,
			"-0.004": 7.099364102,
			"-0.003": 8.84076650418,
			"-0.002": 13.4822165424,
			"-0.001": 10.7336371309,
			"0.0": 10.1545100028,
			"0.001": 5.61777025896,
			"0.002": 5.07461163511,
			"0.003": 5.15349764218,
			"0.004": 3.76099985206,
			"0.005": 4.28425139654,
			"0.006": 5.9427961845,
			"0.007": 8.72490810202,
			"0.008": 9.80738339621,
			"0.009": 7.20824794755,
			"0.01": 4.72508728537,
			"0.011": 3.04000201315,
			"0.012": 1.80884101842,
			"0.013": 0.350505481153,
			"0.014": 1.23339090918,
			"0.015": 0.835778278748,
			"0.016": 0.206986660079,
			"0.017": 0.0,
			"0.018": 0.0,
			"0.019": 0.0,
			"0.02": 0.0,
			"0.021": 0.0,
			"0.022": 0.0,
			"0.023": 0.0,
			"0.024": 0.0,
			"0.025": 0.0
		}
	}
}
