{
	 "smiles": "CCCC(=O)C1=CC2=C(OC1=O)C=CC=C2", 
	 "Tm": 366.65, 
	 "num_atms": 28, 
	 "gaussian": { 
		 "optdone": 1, 
		 "sigma_profile": "yes", 
		 "theory": "DFT", 
		 "functional": "B3LYP", 
		 "basiset": "6-31G**", 
		 "properties": { 
			 "R2extent": 4325.5141, 
			 "electric_dipole_moment_norm": 4.18600146321, 
			 "electric_quadrupole_moment_norm": 14.0653667805, 
			 "total_energy": -728.300172268, 
			 "HOMO_LUMO_gap": 0.1543, 
			 "cosmo_polarized_energy": -11.51, 
			 "cosmo_cavitation_energy": 31.8, 
			 "cosmo_dispersion_energy": -23.09, 
			 "cosmo_repulsion_energy": 1.78, 
			 "cosmo_total_nonelectrostatic_energy": 10.49, 
			 "SMD_solvation_energy": 6.65 
		},
		"coords": [
			{
				"x": 1.6222467421,
				"y": -4.0320634298,
				"z": 2.028061306,
				"element": "C" 
			},
			{
				"x": 2.0150523631,
				"y": -2.5651779606,
				"z": 2.2283328128,
				"element": "C" 
			},
			{
				"x": 2.4940377597,
				"y": -1.8614894434,
				"z": 0.9346574084,
				"element": "C" 
			},
			{
				"x": 1.4072996932,
				"y": -1.7860152458,
				"z": -0.117722325,
				"element": "C" 
			},
			{
				"x": 1.3707291178,
				"y": -2.5933613561,
				"z": -1.0374021446,
				"element": "O" 
			},
			{
				"x": 0.3205748122,
				"y": -0.7343278034,
				"z": -0.0486024478,
				"element": "C" 
			},
			{
				"x": -0.6549260839,
				"y": -0.7844441491,
				"z": -1.0016779423,
				"element": "C" 
			},
			{
				"x": -1.726888194,
				"y": 0.1599079637,
				"z": -1.0538293648,
				"element": "C" 
			},
			{
				"x": -1.74236496,
				"y": 1.1701478554,
				"z": -0.0724719037,
				"element": "C" 
			},
			{
				"x": -0.7737925752,
				"y": 1.2325953894,
				"z": 0.8793224911,
				"element": "O" 
			},
			{
				"x": 0.2863466655,
				"y": 0.3230206763,
				"z": 0.9705152313,
				"element": "C" 
			},
			{
				"x": 1.0642239886,
				"y": 0.5022243081,
				"z": 1.8794815366,
				"element": "O" 
			},
			{
				"x": -2.748516566,
				"y": 2.1384563778,
				"z": -0.0433782248,
				"element": "C" 
			},
			{
				"x": -3.7490162465,
				"y": 2.0929857114,
				"z": -1.0081473461,
				"element": "C" 
			},
			{
				"x": -3.7563306495,
				"y": 1.0950552975,
				"z": -1.99828699,
				"element": "C" 
			},
			{
				"x": -2.7542735276,
				"y": 0.138026856,
				"z": -2.0201109878,
				"element": "C" 
			},
			{
				"x": 2.4631792913,
				"y": -4.6181124824,
				"z": 1.6413666375,
				"element": "H" 
			},
			{
				"x": 0.7979778969,
				"y": -4.140329751,
				"z": 1.3157808124,
				"element": "H" 
			},
			{
				"x": 1.3074070735,
				"y": -4.4821068407,
				"z": 2.9753256451,
				"element": "H" 
			},
			{
				"x": 2.8312251071,
				"y": -2.4987713291,
				"z": 2.9571976754,
				"element": "H" 
			},
			{
				"x": 1.1827386388,
				"y": -1.9986438626,
				"z": 2.6588715757,
				"element": "H" 
			},
			{
				"x": 3.3134082949,
				"y": -2.4322366252,
				"z": 0.486839702,
				"element": "H" 
			},
			{
				"x": 2.8406869959,
				"y": -0.8581998658,
				"z": 1.1900726385,
				"element": "H" 
			},
			{
				"x": -0.591575009,
				"y": -1.5804028199,
				"z": -1.7396340296,
				"element": "H" 
			},
			{
				"x": -2.7273218979,
				"y": 2.9008919136,
				"z": 0.7273269509,
				"element": "H" 
			},
			{
				"x": -4.5353483186,
				"y": 2.8416863405,
				"z": -0.9935957978,
				"element": "H" 
			},
			{
				"x": -4.5455381524,
				"y": 1.0763616747,
				"z": -2.7426849139,
				"element": "H" 
			},
			{
				"x": -2.7441422601,
				"y": -0.6399773996,
				"z": -2.7781080057,
				"element": "H" 
			}
		],
		 "valence_orbital": [ 
			{
				"type": "occ",
				"energy": -0.32157,
				"method": "rhf"
			},
			{
				"type": "occ",
				"energy": -0.28326,
				"method": "rhf"
			},
			{
				"type": "occ",
				"energy": -0.2666,
				"method": "rhf"
			},
			{
				"type": "occ",
				"energy": -0.25093,
				"method": "rhf"
			},
			{
				"type": "occ",
				"energy": -0.24751,
				"method": "rhf"
			},
			{
				"type": "unocc",
				"energy": -0.09321,
				"method": "rhf"
			},
			{
				"type": "unocc",
				"energy": -0.02751,
				"method": "rhf"
			},
			{
				"type": "unocc",
				"energy": -0.00928,
				"method": "rhf"
			},
			{
				"type": "unocc",
				"energy": -0.00329,
				"method": "rhf"
			},
			{
				"type": "unocc",
				"energy": 0.07693,
				"method": "rhf"
			}
		],
		"cosmo_sigma_profile": { 
			"-0.025": 0.0,
			"-0.024": 0.0,
			"-0.023": 0.0,
			"-0.022": 0.0,
			"-0.021": 0.0,
			"-0.02": 0.0,
			"-0.019": 0.0,
			"-0.018": 0.0,
			"-0.017": 0.0,
			"-0.016": 0.0,
			"-0.015": 0.0,
			"-0.014": 0.0,
			"-0.013": 0.0,
			"-0.012": 0.0,
			"-0.011": 0.0,
			"-0.01": 0.0,
			"-0.009": 0.92349789265,
			"-0.008": 4.03434311141,
			"-0.007": 8.83885773472,
			"-0.006": 11.5431769915,
			"-0.005": 11.9339423868,
			"-0.004": 15.0268645752,
			"-0.003": 24.2540510482,
			"-0.002": 28.3708191936,
			"-0.001": 29.4332552257,
			"0.0": 26.8804718042,
			"0.001": 21.7154006867,
			"0.002": 16.890373205,
			"0.003": 11.1960989653,
			"0.004": 3.63837973524,
			"0.005": 5.32850012509,
			"0.006": 3.22744887577,
			"0.007": 3.99724824495,
			"0.008": 3.96725245106,
			"0.009": 4.01610607316,
			"0.01": 4.8080251385,
			"0.011": 6.01620193608,
			"0.012": 5.69305165357,
			"0.013": 1.73877519251,
			"0.014": 0.0333097060226,
			"0.015": 0.0,
			"0.016": 0.0,
			"0.017": 0.0,
			"0.018": 0.0,
			"0.019": 0.0,
			"0.02": 0.0,
			"0.021": 0.0,
			"0.022": 0.0,
			"0.023": 0.0,
			"0.024": 0.0,
			"0.025": 0.0
		}
	}
}
