{
	 "smiles": "OC(=O)CC1=CSC(=N1)C1=C(Cl)C=C(Cl)C=C1", 
	 "Tm": 433.15, 
	 "num_atms": 24, 
	 "gaussian": { 
		 "optdone": 1, 
		 "sigma_profile": "yes", 
		 "theory": "DFT", 
		 "functional": "B3LYP", 
		 "basiset": "6-31G**", 
		 "properties": { 
			 "R2extent": 9783.2428, 
			 "electric_dipole_moment_norm": 2.42747610081, 
			 "electric_quadrupole_moment_norm": 6.88220452689, 
			 "total_energy": -1947.17183998, 
			 "HOMO_LUMO_gap": 0.1636, 
			 "cosmo_polarized_energy": -10.27, 
			 "cosmo_cavitation_energy": 34.31, 
			 "cosmo_dispersion_energy": -26.18, 
			 "cosmo_repulsion_energy": 1.98, 
			 "cosmo_total_nonelectrostatic_energy": 10.11, 
			 "SMD_solvation_energy": 5.22 
		},
		"coords": [
			{
				"x": -4.3055205157,
				"y": 2.1628647008,
				"z": 0.6401438847,
				"element": "O" 
			},
			{
				"x": -3.3110310634,
				"y": 2.2686386723,
				"z": -0.2728737851,
				"element": "C" 
			},
			{
				"x": -3.2459411756,
				"y": 3.1953220438,
				"z": -1.0512788774,
				"element": "O" 
			},
			{
				"x": -2.3633736087,
				"y": 1.0962536785,
				"z": -0.1476539849,
				"element": "C" 
			},
			{
				"x": -1.1921107242,
				"y": 1.0495249733,
				"z": -1.0927283118,
				"element": "C" 
			},
			{
				"x": -0.8471029223,
				"y": 1.9377241129,
				"z": -2.0756790241,
				"element": "C" 
			},
			{
				"x": 0.5913796344,
				"y": 1.4173622409,
				"z": -2.8744299148,
				"element": "S" 
			},
			{
				"x": 0.6465605695,
				"y": 0.0059725285,
				"z": -1.8179569133,
				"element": "C" 
			},
			{
				"x": -0.3480331099,
				"y": -0.0235273153,
				"z": -0.9616123584,
				"element": "N" 
			},
			{
				"x": 1.660431294,
				"y": -1.0663863998,
				"z": -1.8296281717,
				"element": "C" 
			},
			{
				"x": 2.778677562,
				"y": -1.1791271194,
				"z": -2.6781503006,
				"element": "C" 
			},
			{
				"x": 3.1444995067,
				"y": 0.0130053314,
				"z": -3.9156100144,
				"element": "Cl" 
			},
			{
				"x": 3.6711933144,
				"y": -2.2497839029,
				"z": -2.589410403,
				"element": "C" 
			},
			{
				"x": 3.4573102491,
				"y": -3.2391652409,
				"z": -1.6374912903,
				"element": "C" 
			},
			{
				"x": 4.5774212318,
				"y": -4.5818728515,
				"z": -1.5267398453,
				"element": "Cl" 
			},
			{
				"x": 2.3627287804,
				"y": -3.1710502876,
				"z": -0.7739815163,
				"element": "C" 
			},
			{
				"x": 1.4905259087,
				"y": -2.0995814884,
				"z": -0.8803723348,
				"element": "C" 
			},
			{
				"x": -4.8762365049,
				"y": 2.9389222548,
				"z": 0.5104144248,
				"element": "H" 
			},
			{
				"x": -2.9579126098,
				"y": 0.1797374032,
				"z": -0.2512000947,
				"element": "H" 
			},
			{
				"x": -2.0026520423,
				"y": 1.0739608019,
				"z": 0.8885259794,
				"element": "H" 
			},
			{
				"x": -1.3593766157,
				"y": 2.8447383498,
				"z": -2.3551874426,
				"element": "H" 
			},
			{
				"x": 4.5196658564,
				"y": -2.3009249704,
				"z": -3.2600872529,
				"element": "H" 
			},
			{
				"x": 2.1999833797,
				"y": -3.9452493022,
				"z": -0.0329932998,
				"element": "H" 
			},
			{
				"x": 0.6344136054,
				"y": -2.0261582136,
				"z": -0.2207191526,
				"element": "H" 
			}
		],
		 "valence_orbital": [ 
			{
				"type": "occ",
				"energy": -0.28926,
				"method": "rhf"
			},
			{
				"type": "occ",
				"energy": -0.28121,
				"method": "rhf"
			},
			{
				"type": "occ",
				"energy": -0.27543,
				"method": "rhf"
			},
			{
				"type": "occ",
				"energy": -0.2653,
				"method": "rhf"
			},
			{
				"type": "occ",
				"energy": -0.22787,
				"method": "rhf"
			},
			{
				"type": "unocc",
				"energy": -0.06427,
				"method": "rhf"
			},
			{
				"type": "unocc",
				"energy": -0.02774,
				"method": "rhf"
			},
			{
				"type": "unocc",
				"energy": -0.00299,
				"method": "rhf"
			},
			{
				"type": "unocc",
				"energy": 0.00257,
				"method": "rhf"
			},
			{
				"type": "unocc",
				"energy": 0.00934,
				"method": "rhf"
			}
		],
		"cosmo_sigma_profile": { 
			"-0.025": 0.0,
			"-0.024": 0.0,
			"-0.023": 0.0,
			"-0.022": 0.0,
			"-0.021": 0.0,
			"-0.02": 0.0,
			"-0.019": 0.0,
			"-0.018": 1.0553818603,
			"-0.017": 0.636512137593,
			"-0.016": 0.913838176624,
			"-0.015": 1.27875222169,
			"-0.014": 0.494570660975,
			"-0.013": 0.421794702825,
			"-0.012": 0.114041702093,
			"-0.011": 1.22475568692,
			"-0.01": 1.14822638659,
			"-0.009": 0.805032270514,
			"-0.008": 5.39349495857,
			"-0.007": 10.957719433,
			"-0.006": 10.5984112533,
			"-0.005": 10.3919535117,
			"-0.004": 10.8409948425,
			"-0.003": 13.6988657425,
			"-0.002": 15.1859864136,
			"-0.001": 19.4110919132,
			"0.0": 30.1910510827,
			"0.001": 40.4259205711,
			"0.002": 33.5145263568,
			"0.003": 27.7538237557,
			"0.004": 17.4549012608,
			"0.005": 5.60683837883,
			"0.006": 4.09414807303,
			"0.007": 3.99738868147,
			"0.008": 4.45717430272,
			"0.009": 4.49285004603,
			"0.01": 2.29771563129,
			"0.011": 2.72218400457,
			"0.012": 0.676980580528,
			"0.013": 0.0,
			"0.014": 0.0,
			"0.015": 0.0,
			"0.016": 0.0,
			"0.017": 0.0,
			"0.018": 0.0,
			"0.019": 0.0,
			"0.02": 0.0,
			"0.021": 0.0,
			"0.022": 0.0,
			"0.023": 0.0,
			"0.024": 0.0,
			"0.025": 0.0
		}
	}
}
