{
	 "smiles": "OC(=O)C1=CC2=C(NCCC2)C=C1", 
	 "Tm": 442.15, 
	 "num_atms": 24, 
	 "gaussian": { 
		 "optdone": 1, 
		 "sigma_profile": "yes", 
		 "theory": "DFT", 
		 "functional": "B3LYP", 
		 "basiset": "6-31G**", 
		 "properties": { 
			 "R2extent": 3205.9831, 
			 "electric_dipole_moment_norm": 7.53129610426, 
			 "electric_quadrupole_moment_norm": 18.9145329541, 
			 "total_energy": -592.916310036, 
			 "HOMO_LUMO_gap": 0.17682, 
			 "cosmo_polarized_energy": -17.83, 
			 "cosmo_cavitation_energy": 26.7, 
			 "cosmo_dispersion_energy": -20.25, 
			 "cosmo_repulsion_energy": 1.6, 
			 "cosmo_total_nonelectrostatic_energy": 8.05, 
			 "SMD_solvation_energy": 4.23 
		},
		"coords": [
			{
				"x": -0.810842885,
				"y": -0.3358259077,
				"z": -3.4460262628,
				"element": "O" 
			},
			{
				"x": 0.3508862837,
				"y": -0.9070821379,
				"z": -3.0097610087,
				"element": "C" 
			},
			{
				"x": 1.2046265488,
				"y": -1.2035142162,
				"z": -3.8160511106,
				"element": "O" 
			},
			{
				"x": 0.4829402562,
				"y": -1.1309949856,
				"z": -1.5443476811,
				"element": "C" 
			},
			{
				"x": -0.31462905,
				"y": -0.4951856818,
				"z": -0.5805729674,
				"element": "C" 
			},
			{
				"x": -0.1602959432,
				"y": -0.7219324085,
				"z": 0.784179809,
				"element": "C" 
			},
			{
				"x": 0.8520775167,
				"y": -1.6155828891,
				"z": 1.2140562321,
				"element": "C" 
			},
			{
				"x": 1.0705875727,
				"y": -1.8356620721,
				"z": 2.5583679684,
				"element": "N" 
			},
			{
				"x": 0.1360407619,
				"y": -1.3750218278,
				"z": 3.5741904362,
				"element": "C" 
			},
			{
				"x": -0.3868483055,
				"y": 0.0116143051,
				"z": 3.1921804367,
				"element": "C" 
			},
			{
				"x": -1.0477555481,
				"y": -0.037559572,
				"z": 1.8074405029,
				"element": "C" 
			},
			{
				"x": 1.6698305488,
				"y": -2.2445309365,
				"z": 0.2506722839,
				"element": "C" 
			},
			{
				"x": 1.4914249482,
				"y": -2.0013227877,
				"z": -1.0990998318,
				"element": "C" 
			},
			{
				"x": -1.4579368226,
				"y": -0.3203818722,
				"z": -2.7281023312,
				"element": "H" 
			},
			{
				"x": -1.0669613628,
				"y": 0.2330454048,
				"z": -0.881684682,
				"element": "H" 
			},
			{
				"x": 1.6610850971,
				"y": -2.6185917948,
				"z": 2.7951738017,
				"element": "H" 
			},
			{
				"x": -0.7130383127,
				"y": -2.0694847408,
				"z": 3.6920132932,
				"element": "H" 
			},
			{
				"x": 0.6612168775,
				"y": -1.3385400757,
				"z": 4.5343135925,
				"element": "H" 
			},
			{
				"x": -1.0999471178,
				"y": 0.3580550359,
				"z": 3.9470034982,
				"element": "H" 
			},
			{
				"x": 0.452591899,
				"y": 0.7161730907,
				"z": 3.1817303957,
				"element": "H" 
			},
			{
				"x": -2.0034967629,
				"y": -0.5757690857,
				"z": 1.8862334246,
				"element": "H" 
			},
			{
				"x": -1.2960650318,
				"y": 0.9749730147,
				"z": 1.4692390221,
				"element": "H" 
			},
			{
				"x": 2.4534953926,
				"y": -2.9212049629,
				"z": 0.5833214024,
				"element": "H" 
			},
			{
				"x": 2.1252134393,
				"y": -2.477272896,
				"z": -1.8395702241,
				"element": "H" 
			}
		],
		 "valence_orbital": [ 
			{
				"type": "occ",
				"energy": -0.31025,
				"method": "rhf"
			},
			{
				"type": "occ",
				"energy": -0.29417,
				"method": "rhf"
			},
			{
				"type": "occ",
				"energy": -0.2566,
				"method": "rhf"
			},
			{
				"type": "occ",
				"energy": -0.2528,
				"method": "rhf"
			},
			{
				"type": "occ",
				"energy": -0.20471,
				"method": "rhf"
			},
			{
				"type": "unocc",
				"energy": -0.02789,
				"method": "rhf"
			},
			{
				"type": "unocc",
				"energy": -0.00995,
				"method": "rhf"
			},
			{
				"type": "unocc",
				"energy": 0.06421,
				"method": "rhf"
			},
			{
				"type": "unocc",
				"energy": 0.06844,
				"method": "rhf"
			},
			{
				"type": "unocc",
				"energy": 0.07331,
				"method": "rhf"
			}
		],
		"cosmo_sigma_profile": { 
			"-0.025": 0.0,
			"-0.024": 0.0,
			"-0.023": 0.0,
			"-0.022": 0.0,
			"-0.021": 0.0,
			"-0.02": 0.0,
			"-0.019": 0.0,
			"-0.018": 0.224340062089,
			"-0.017": 0.567112928329,
			"-0.016": 0.852594465693,
			"-0.015": 1.22024532336,
			"-0.014": 1.10766786139,
			"-0.013": 2.09098875472,
			"-0.012": 2.03575719,
			"-0.011": 2.84760929362,
			"-0.01": 2.75785792095,
			"-0.009": 2.32478689107,
			"-0.008": 2.49778110997,
			"-0.007": 3.77604608847,
			"-0.006": 4.34278361713,
			"-0.005": 8.47431681351,
			"-0.004": 15.1696517491,
			"-0.003": 23.2295453944,
			"-0.002": 22.3120292372,
			"-0.001": 18.5324767663,
			"0.0": 12.39174416,
			"0.001": 9.33262878811,
			"0.002": 8.20461049184,
			"0.003": 9.18703009063,
			"0.004": 11.7672501357,
			"0.005": 11.9529211963,
			"0.006": 4.87941143702,
			"0.007": 2.54563132916,
			"0.008": 3.37181034523,
			"0.009": 2.89751319279,
			"0.01": 3.09373027341,
			"0.011": 4.64195471232,
			"0.012": 5.54113062298,
			"0.013": 4.97902986196,
			"0.014": 1.63024208211,
			"0.015": 0.0486265960753,
			"0.016": 0.0,
			"0.017": 0.0,
			"0.018": 0.0,
			"0.019": 0.0,
			"0.02": 0.0,
			"0.021": 0.0,
			"0.022": 0.0,
			"0.023": 0.0,
			"0.024": 0.0,
			"0.025": 0.0
		}
	}
}
