{
	 "smiles": "O=C1OCC2=CC(=CC=C12)C#N", 
	 "Tm": 476.15, 
	 "num_atms": 17, 
	 "gaussian": { 
		 "optdone": 1, 
		 "sigma_profile": "yes", 
		 "theory": "DFT", 
		 "functional": "B3LYP", 
		 "basiset": "6-31G**", 
		 "properties": { 
			 "R2extent": 2224.8823, 
			 "electric_dipole_moment_norm": 1.60251365673, 
			 "electric_quadrupole_moment_norm": 28.1676318414, 
			 "total_energy": -551.158346542, 
			 "HOMO_LUMO_gap": 0.19684, 
			 "cosmo_polarized_energy": -15.4, 
			 "cosmo_cavitation_energy": 23.17, 
			 "cosmo_dispersion_energy": -16.69, 
			 "cosmo_repulsion_energy": 1.33, 
			 "cosmo_total_nonelectrostatic_energy": 7.8, 
			 "SMD_solvation_energy": 6.39 
		},
		"coords": [
			{
				"x": 2.4543836133,
				"y": -1.5962092969,
				"z": -2.1165602872,
				"element": "O" 
			},
			{
				"x": 1.9849478944,
				"y": -1.2193093351,
				"z": -1.0743578848,
				"element": "C" 
			},
			{
				"x": 2.7339611342,
				"y": -1.0429703047,
				"z": 0.0663995506,
				"element": "O" 
			},
			{
				"x": 1.9216836309,
				"y": -0.5862220739,
				"z": 1.1618391085,
				"element": "C" 
			},
			{
				"x": 0.5284704324,
				"y": -0.4810891801,
				"z": 0.5968805985,
				"element": "C" 
			},
			{
				"x": -0.6727149946,
				"y": -0.094203714,
				"z": 1.1763231955,
				"element": "C" 
			},
			{
				"x": -1.8215015199,
				"y": -0.103742633,
				"z": 0.3632436954,
				"element": "C" 
			},
			{
				"x": -1.758686496,
				"y": -0.4920552827,
				"z": -0.9930728214,
				"element": "C" 
			},
			{
				"x": -0.5456928174,
				"y": -0.8765145144,
				"z": -1.5557763198,
				"element": "C" 
			},
			{
				"x": 0.5831838688,
				"y": -0.8624745844,
				"z": -0.7397244007,
				"element": "C" 
			},
			{
				"x": -3.0827475758,
				"y": 0.2893585654,
				"z": 0.9241852507,
				"element": "C" 
			},
			{
				"x": -4.1038592533,
				"y": 0.6081958622,
				"z": 1.3804419502,
				"element": "N" 
			},
			{
				"x": 2.3151980874,
				"y": 0.3747586464,
				"z": 1.5120601445,
				"element": "H" 
			},
			{
				"x": 1.9982108852,
				"y": -1.3112996046,
				"z": 1.9800067636,
				"element": "H" 
			},
			{
				"x": -0.7463519552,
				"y": 0.2083153282,
				"z": 2.2158463363,
				"element": "H" 
			},
			{
				"x": -2.6671604877,
				"y": -0.4855237215,
				"z": -1.5852905052,
				"element": "H" 
			},
			{
				"x": -0.4705244469,
				"y": -1.1792141569,
				"z": -2.5950443748,
				"element": "H" 
			}
		],
		 "valence_orbital": [ 
			{
				"type": "occ",
				"energy": -0.3466,
				"method": "rhf"
			},
			{
				"type": "occ",
				"energy": -0.31536,
				"method": "rhf"
			},
			{
				"type": "occ",
				"energy": -0.29422,
				"method": "rhf"
			},
			{
				"type": "occ",
				"energy": -0.28786,
				"method": "rhf"
			},
			{
				"type": "occ",
				"energy": -0.28576,
				"method": "rhf"
			},
			{
				"type": "unocc",
				"energy": -0.08892,
				"method": "rhf"
			},
			{
				"type": "unocc",
				"energy": -0.04842,
				"method": "rhf"
			},
			{
				"type": "unocc",
				"energy": 0.0081,
				"method": "rhf"
			},
			{
				"type": "unocc",
				"energy": 0.02012,
				"method": "rhf"
			},
			{
				"type": "unocc",
				"energy": 0.07214,
				"method": "rhf"
			}
		],
		"cosmo_sigma_profile": { 
			"-0.025": 0.0,
			"-0.024": 0.0,
			"-0.023": 0.0,
			"-0.022": 0.0,
			"-0.021": 0.0,
			"-0.02": 0.0,
			"-0.019": 0.0,
			"-0.018": 0.0,
			"-0.017": 0.0,
			"-0.016": 0.0,
			"-0.015": 0.0,
			"-0.014": 0.0,
			"-0.013": 0.0,
			"-0.012": 0.0,
			"-0.011": 0.0,
			"-0.01": 0.126540365475,
			"-0.009": 5.1199553172,
			"-0.008": 15.4260827267,
			"-0.007": 12.7546810712,
			"-0.006": 11.8982535975,
			"-0.005": 9.96426048289,
			"-0.004": 8.9821416769,
			"-0.003": 11.0224523748,
			"-0.002": 13.1927093727,
			"-0.001": 15.13132807,
			"0.0": 15.4253734733,
			"0.001": 6.83138222648,
			"0.002": 3.36288224795,
			"0.003": 4.32048473693,
			"0.004": 3.75351112114,
			"0.005": 5.36473962314,
			"0.006": 4.54255414232,
			"0.007": 5.808796839,
			"0.008": 6.17785935094,
			"0.009": 7.36821313742,
			"0.01": 7.24046857322,
			"0.011": 8.3001743472,
			"0.012": 5.21728294846,
			"0.013": 0.810114492071,
			"0.014": 0.0,
			"0.015": 0.0,
			"0.016": 0.0,
			"0.017": 0.0,
			"0.018": 0.0,
			"0.019": 0.0,
			"0.02": 0.0,
			"0.021": 0.0,
			"0.022": 0.0,
			"0.023": 0.0,
			"0.024": 0.0,
			"0.025": 0.0
		}
	}
}
