{
	 "smiles": "ClC1=CC=C(S1)C1=NC2=C(CCC2)C(=O)N1", 
	 "Tm": 550.15, 
	 "num_atms": 25, 
	 "gaussian": { 
		 "optdone": 1, 
		 "sigma_profile": "yes", 
		 "theory": "DFT", 
		 "functional": "B3LYP", 
		 "basiset": "6-31G**", 
		 "properties": { 
			 "R2extent": 8126.3226, 
			 "electric_dipole_moment_norm": 3.21187496955, 
			 "electric_quadrupole_moment_norm": 13.1610528082, 
			 "total_energy": -1467.70730164, 
			 "HOMO_LUMO_gap": 0.14357, 
			 "cosmo_polarized_energy": -12.2, 
			 "cosmo_cavitation_energy": 32.42, 
			 "cosmo_dispersion_energy": -24.86, 
			 "cosmo_repulsion_energy": 1.9, 
			 "cosmo_total_nonelectrostatic_energy": 9.47, 
			 "SMD_solvation_energy": 3.61 
		},
		"coords": [
			{
				"x": -2.2887645041,
				"y": 0.8266325178,
				"z": 6.7437037825,
				"element": "Cl" 
			},
			{
				"x": -1.6357036157,
				"y": 0.3316048475,
				"z": 5.2241885541,
				"element": "C" 
			},
			{
				"x": -1.7277185247,
				"y": -0.9085688797,
				"z": 4.6494989859,
				"element": "C" 
			},
			{
				"x": -1.0725206159,
				"y": -0.9627514283,
				"z": 3.391334215,
				"element": "C" 
			},
			{
				"x": -0.4898876917,
				"y": 0.2270331068,
				"z": 3.0183671821,
				"element": "C" 
			},
			{
				"x": -0.7462277652,
				"y": 1.4587135854,
				"z": 4.2404518804,
				"element": "S" 
			},
			{
				"x": 0.2495240639,
				"y": 0.4628824562,
				"z": 1.778322794,
				"element": "C" 
			},
			{
				"x": 0.3903004671,
				"y": -0.5360767439,
				"z": 0.9356447531,
				"element": "N" 
			},
			{
				"x": 1.0824027692,
				"y": -0.2524774755,
				"z": -0.205279427,
				"element": "C" 
			},
			{
				"x": 1.6374971563,
				"y": 0.9592835133,
				"z": -0.5277393831,
				"element": "C" 
			},
			{
				"x": 2.3576924571,
				"y": 0.922484173,
				"z": -1.8465189666,
				"element": "C" 
			},
			{
				"x": 1.8665990606,
				"y": -0.4186709426,
				"z": -2.4660617635,
				"element": "C" 
			},
			{
				"x": 1.3619236163,
				"y": -1.278986673,
				"z": -1.2772144731,
				"element": "C" 
			},
			{
				"x": 1.516843553,
				"y": 2.0719443865,
				"z": 0.3773353331,
				"element": "C" 
			},
			{
				"x": 1.9512884246,
				"y": 3.2110161418,
				"z": 0.2665858021,
				"element": "O" 
			},
			{
				"x": 0.7677614587,
				"y": 1.7060959319,
				"z": 1.5339243045,
				"element": "N" 
			},
			{
				"x": -2.2435196484,
				"y": -1.7399684012,
				"z": 5.1130913764,
				"element": "H" 
			},
			{
				"x": -1.0175705058,
				"y": -1.8400530799,
				"z": 2.7595778341,
				"element": "H" 
			},
			{
				"x": 3.4457066804,
				"y": 0.9282216864,
				"z": -1.6923358985,
				"element": "H" 
			},
			{
				"x": 2.1317330916,
				"y": 1.790361703,
				"z": -2.4743585256,
				"element": "H" 
			},
			{
				"x": 2.6434601917,
				"y": -0.9204445027,
				"z": -3.0485201381,
				"element": "H" 
			},
			{
				"x": 1.0316645118,
				"y": -0.2171661968,
				"z": -3.1452279758,
				"element": "H" 
			},
			{
				"x": 0.4764981677,
				"y": -1.8770177666,
				"z": -1.5147489334,
				"element": "H" 
			},
			{
				"x": 2.1281480501,
				"y": -1.9804195269,
				"z": -0.9192364064,
				"element": "H" 
			},
			{
				"x": 0.6503691515,
				"y": 2.4649275676,
				"z": 2.1963150936,
				"element": "H" 
			}
		],
		 "valence_orbital": [ 
			{
				"type": "occ",
				"energy": -0.28167,
				"method": "rhf"
			},
			{
				"type": "occ",
				"energy": -0.28103,
				"method": "rhf"
			},
			{
				"type": "occ",
				"energy": -0.25968,
				"method": "rhf"
			},
			{
				"type": "occ",
				"energy": -0.25711,
				"method": "rhf"
			},
			{
				"type": "occ",
				"energy": -0.21976,
				"method": "rhf"
			},
			{
				"type": "unocc",
				"energy": -0.07619,
				"method": "rhf"
			},
			{
				"type": "unocc",
				"energy": -0.01652,
				"method": "rhf"
			},
			{
				"type": "unocc",
				"energy": -0.01472,
				"method": "rhf"
			},
			{
				"type": "unocc",
				"energy": 0.00637,
				"method": "rhf"
			},
			{
				"type": "unocc",
				"energy": 0.01108,
				"method": "rhf"
			}
		],
		"cosmo_sigma_profile": { 
			"-0.025": 0.0,
			"-0.024": 0.0,
			"-0.023": 0.0,
			"-0.022": 0.0,
			"-0.021": 0.0,
			"-0.02": 0.0,
			"-0.019": 0.0,
			"-0.018": 0.0,
			"-0.017": 0.0,
			"-0.016": 0.116066951846,
			"-0.015": 0.756791235107,
			"-0.014": 1.1761928835,
			"-0.013": 1.11441365075,
			"-0.012": 0.978142878181,
			"-0.011": 1.04483118412,
			"-0.01": 0.899105627859,
			"-0.009": 2.18495940135,
			"-0.008": 2.96473576392,
			"-0.007": 4.85945586238,
			"-0.006": 5.07728797108,
			"-0.005": 5.67081180571,
			"-0.004": 15.4301067904,
			"-0.003": 25.1684616394,
			"-0.002": 33.6192318495,
			"-0.001": 29.4147572927,
			"0.0": 33.7824934988,
			"0.001": 27.5600874214,
			"0.002": 22.9123127637,
			"0.003": 13.2655671119,
			"0.004": 4.30811468419,
			"0.005": 3.73327632538,
			"0.006": 2.59107424235,
			"0.007": 2.71104757289,
			"0.008": 2.3868620701,
			"0.009": 2.49447803456,
			"0.01": 2.4354381231,
			"0.011": 3.27907758213,
			"0.012": 1.92440944234,
			"0.013": 4.64419955982,
			"0.014": 4.97350503226,
			"0.015": 0.336535668215,
			"0.016": 0.0,
			"0.017": 0.0,
			"0.018": 0.0,
			"0.019": 0.0,
			"0.02": 0.0,
			"0.021": 0.0,
			"0.022": 0.0,
			"0.023": 0.0,
			"0.024": 0.0,
			"0.025": 0.0
		}
	}
}
