{
	 "smiles": "S=C=NC1=CC=C(C=C1)N1C=CC=N1", 
	 "Tm": 371.15, 
	 "num_atms": 21, 
	 "gaussian": { 
		 "optdone": 1, 
		 "sigma_profile": "yes", 
		 "theory": "DFT", 
		 "functional": "B3LYP", 
		 "basiset": "6-31G**", 
		 "properties": { 
			 "R2extent": 5774.496, 
			 "electric_dipole_moment_norm": 3.93066746113, 
			 "electric_quadrupole_moment_norm": 14.9578100005, 
			 "total_energy": -947.694620205, 
			 "HOMO_LUMO_gap": 0.16646, 
			 "cosmo_polarized_energy": -8.9, 
			 "cosmo_cavitation_energy": 29.07, 
			 "cosmo_dispersion_energy": -21.72, 
			 "cosmo_repulsion_energy": 1.64, 
			 "cosmo_total_nonelectrostatic_energy": 9.0, 
			 "SMD_solvation_energy": 5.17 
		},
		"coords": [
			{
				"x": 5.4104277743,
				"y": -3.3468744705,
				"z": -2.7645804404,
				"element": "S" 
			},
			{
				"x": 4.4129045012,
				"y": -2.6129855955,
				"z": -1.7700812386,
				"element": "C" 
			},
			{
				"x": 3.7058811138,
				"y": -2.0950010788,
				"z": -0.9554747997,
				"element": "N" 
			},
			{
				"x": 2.6399409909,
				"y": -1.3005252725,
				"z": -0.5788920117,
				"element": "C" 
			},
			{
				"x": 1.8315713539,
				"y": -0.6698738057,
				"z": -1.5404745544,
				"element": "C" 
			},
			{
				"x": 0.761439087,
				"y": 0.1191508338,
				"z": -1.1427817917,
				"element": "C" 
			},
			{
				"x": 0.4864075686,
				"y": 0.2955121607,
				"z": 0.2205725741,
				"element": "C" 
			},
			{
				"x": 1.299977593,
				"y": -0.319138638,
				"z": 1.1804481915,
				"element": "C" 
			},
			{
				"x": 2.3659852141,
				"y": -1.1184214969,
				"z": 0.7831027033,
				"element": "C" 
			},
			{
				"x": -0.6128808148,
				"y": 1.0982075363,
				"z": 0.6084274971,
				"element": "N" 
			},
			{
				"x": -1.2423858675,
				"y": 1.1495348498,
				"z": 1.8240420791,
				"element": "C" 
			},
			{
				"x": -2.2588746468,
				"y": 2.0708007613,
				"z": 1.7107939136,
				"element": "C" 
			},
			{
				"x": -2.1724589256,
				"y": 2.5306015703,
				"z": 0.3749986692,
				"element": "C" 
			},
			{
				"x": -1.1838565226,
				"y": 1.9450444333,
				"z": -0.289795962,
				"element": "N" 
			},
			{
				"x": 2.046532778,
				"y": -0.809357214,
				"z": -2.5947116737,
				"element": "H" 
			},
			{
				"x": 0.1289520254,
				"y": 0.6102063532,
				"z": -1.8713631912,
				"element": "H" 
			},
			{
				"x": 1.1206631646,
				"y": -0.1646707058,
				"z": 2.2382734144,
				"element": "H" 
			},
			{
				"x": 3.0005236536,
				"y": -1.5967456316,
				"z": 1.5209015632,
				"element": "H" 
			},
			{
				"x": -0.9436840061,
				"y": 0.5234558339,
				"z": 2.649864718,
				"element": "H" 
			},
			{
				"x": -2.963361252,
				"y": 2.3622642457,
				"z": 2.4750713138,
				"element": "H" 
			},
			{
				"x": -2.789004783,
				"y": 3.2650153308,
				"z": -0.1259409739,
				"element": "H" 
			}
		],
		 "valence_orbital": [ 
			{
				"type": "occ",
				"energy": -0.27731,
				"method": "rhf"
			},
			{
				"type": "occ",
				"energy": -0.26696,
				"method": "rhf"
			},
			{
				"type": "occ",
				"energy": -0.26119,
				"method": "rhf"
			},
			{
				"type": "occ",
				"energy": -0.25918,
				"method": "rhf"
			},
			{
				"type": "occ",
				"energy": -0.22169,
				"method": "rhf"
			},
			{
				"type": "unocc",
				"energy": -0.05523,
				"method": "rhf"
			},
			{
				"type": "unocc",
				"energy": -0.02545,
				"method": "rhf"
			},
			{
				"type": "unocc",
				"energy": -0.01949,
				"method": "rhf"
			},
			{
				"type": "unocc",
				"energy": 0.00364,
				"method": "rhf"
			},
			{
				"type": "unocc",
				"energy": 0.05577,
				"method": "rhf"
			}
		],
		"cosmo_sigma_profile": { 
			"-0.025": 0.0,
			"-0.024": 0.0,
			"-0.023": 0.0,
			"-0.022": 0.0,
			"-0.021": 0.0,
			"-0.02": 0.0,
			"-0.019": 0.0,
			"-0.018": 0.0,
			"-0.017": 0.0,
			"-0.016": 0.0,
			"-0.015": 0.0,
			"-0.014": 0.0,
			"-0.013": 0.0,
			"-0.012": 0.0,
			"-0.011": 0.406190117311,
			"-0.01": 2.17043922687,
			"-0.009": 2.52949352934,
			"-0.008": 4.49188023553,
			"-0.007": 11.8121463524,
			"-0.006": 12.2284902726,
			"-0.005": 11.2969046192,
			"-0.004": 10.8516553254,
			"-0.003": 10.38747285,
			"-0.002": 13.4251477027,
			"-0.001": 16.1607521727,
			"0.0": 23.639123829,
			"0.001": 24.8838456518,
			"0.002": 26.8427597928,
			"0.003": 18.9700587481,
			"0.004": 16.0068532573,
			"0.005": 17.656359902,
			"0.006": 6.47230961853,
			"0.007": 2.30808247974,
			"0.008": 1.33773570892,
			"0.009": 0.893154632762,
			"0.01": 1.50858612319,
			"0.011": 1.53354904043,
			"0.012": 0.71852384854,
			"0.013": 0.771907102008,
			"0.014": 0.0396577069116,
			"0.015": 0.0,
			"0.016": 0.0,
			"0.017": 0.0,
			"0.018": 0.0,
			"0.019": 0.0,
			"0.02": 0.0,
			"0.021": 0.0,
			"0.022": 0.0,
			"0.023": 0.0,
			"0.024": 0.0,
			"0.025": 0.0
		}
	}
}
