{
	 "smiles": "NC1=NC=CC=C1O", 
	 "Tm": 446.15, 
	 "num_atms": 14, 
	 "gaussian": { 
		 "optdone": 1, 
		 "sigma_profile": "yes", 
		 "theory": "DFT", 
		 "functional": "B3LYP", 
		 "basiset": "6-31G**", 
		 "properties": { 
			 "R2extent": 937.1125, 
			 "electric_dipole_moment_norm": 1.01379964983, 
			 "electric_quadrupole_moment_norm": 8.30359841394, 
			 "total_energy": -378.872303906, 
			 "HOMO_LUMO_gap": 0.20242, 
			 "cosmo_polarized_energy": -9.91, 
			 "cosmo_cavitation_energy": 17.87, 
			 "cosmo_dispersion_energy": -13.77, 
			 "cosmo_repulsion_energy": 1.15, 
			 "cosmo_total_nonelectrostatic_energy": 5.24, 
			 "SMD_solvation_energy": 2.2 
		},
		"coords": [
			{
				"x": 0.4207906596,
				"y": -1.0542475899,
				"z": -2.2731417618,
				"element": "N" 
			},
			{
				"x": 0.0157383488,
				"y": -0.4454891512,
				"z": -1.0620710886,
				"element": "C" 
			},
			{
				"x": 0.4709212722,
				"y": 0.7646944179,
				"z": -0.7539208926,
				"element": "N" 
			},
			{
				"x": 0.0375424643,
				"y": 1.3291310672,
				"z": 0.3858576853,
				"element": "C" 
			},
			{
				"x": -0.8423579399,
				"y": 0.6992330738,
				"z": 1.2608434825,
				"element": "C" 
			},
			{
				"x": -1.3420212372,
				"y": -0.5626404149,
				"z": 0.9215448971,
				"element": "C" 
			},
			{
				"x": -0.9218397142,
				"y": -1.1412700621,
				"z": -0.268230332,
				"element": "C" 
			},
			{
				"x": -1.4029790087,
				"y": -2.3522106562,
				"z": -0.6731863158,
				"element": "O" 
			},
			{
				"x": 0.9998127161,
				"y": -0.4089357771,
				"z": -2.8015165708,
				"element": "H" 
			},
			{
				"x": 0.9404076151,
				"y": -1.9148531257,
				"z": -2.1164673681,
				"element": "H" 
			},
			{
				"x": 0.4244807504,
				"y": 2.3218524345,
				"z": 0.6041398627,
				"element": "H" 
			},
			{
				"x": -1.1481922998,
				"y": 1.1878184918,
				"z": 2.1802628846,
				"element": "H" 
			},
			{
				"x": -2.0592432598,
				"y": -1.0860376892,
				"z": 1.545619256,
				"element": "H" 
			},
			{
				"x": -1.2498603669,
				"y": -2.4022450191,
				"z": -1.6319337387,
				"element": "H" 
			}
		],
		 "valence_orbital": [ 
			{
				"type": "occ",
				"energy": -0.35547,
				"method": "rhf"
			},
			{
				"type": "occ",
				"energy": -0.3128,
				"method": "rhf"
			},
			{
				"type": "occ",
				"energy": -0.26349,
				"method": "rhf"
			},
			{
				"type": "occ",
				"energy": -0.25802,
				"method": "rhf"
			},
			{
				"type": "occ",
				"energy": -0.21466,
				"method": "rhf"
			},
			{
				"type": "unocc",
				"energy": -0.01224,
				"method": "rhf"
			},
			{
				"type": "unocc",
				"energy": 0.00879,
				"method": "rhf"
			},
			{
				"type": "unocc",
				"energy": 0.06744,
				"method": "rhf"
			},
			{
				"type": "unocc",
				"energy": 0.10946,
				"method": "rhf"
			},
			{
				"type": "unocc",
				"energy": 0.12487,
				"method": "rhf"
			}
		],
		"cosmo_sigma_profile": { 
			"-0.025": 0.0,
			"-0.024": 0.0,
			"-0.023": 0.0,
			"-0.022": 0.0,
			"-0.021": 0.0,
			"-0.02": 0.0,
			"-0.019": 0.0,
			"-0.018": 0.0,
			"-0.017": 0.0,
			"-0.016": 0.0,
			"-0.015": 0.0,
			"-0.014": 0.488982479529,
			"-0.013": 1.73866011229,
			"-0.012": 2.98638317216,
			"-0.011": 3.61574185716,
			"-0.01": 3.16994789649,
			"-0.009": 3.50593983633,
			"-0.008": 3.23569503929,
			"-0.007": 3.75562424521,
			"-0.006": 6.66624584355,
			"-0.005": 7.17685892986,
			"-0.004": 8.89537432698,
			"-0.003": 7.26455073109,
			"-0.002": 5.45253948095,
			"-0.001": 5.28776800392,
			"0.0": 7.0909241619,
			"0.001": 7.86025185023,
			"0.002": 10.6210447617,
			"0.003": 11.9772009091,
			"0.004": 12.0948414484,
			"0.005": 5.00073757195,
			"0.006": 3.26757581325,
			"0.007": 3.0876486275,
			"0.008": 3.25090664131,
			"0.009": 3.42837422175,
			"0.01": 2.89214943115,
			"0.011": 3.30648777302,
			"0.012": 2.00780551412,
			"0.013": 0.938952123154,
			"0.014": 1.08014323946,
			"0.015": 0.565695060157,
			"0.016": 0.359986000051,
			"0.017": 0.0,
			"0.018": 0.0,
			"0.019": 0.0,
			"0.02": 0.0,
			"0.021": 0.0,
			"0.022": 0.0,
			"0.023": 0.0,
			"0.024": 0.0,
			"0.025": 0.0
		}
	}
}
