{
	 "smiles": "ClCC1=C(Cl)C=CC(Br)=C1", 
	 "Tm": 321.15, 
	 "num_atms": 15, 
	 "gaussian": { 
		 "optdone": 1, 
		 "sigma_profile": "yes", 
		 "theory": "DFT", 
		 "functional": "B3LYP", 
		 "basiset": "6-31G**", 
		 "properties": { 
			 "R2extent": 4847.3809, 
			 "electric_dipole_moment_norm": 2.11003638831, 
			 "electric_quadrupole_moment_norm": 8.3521498879, 
			 "total_energy": -3761.55040407, 
			 "HOMO_LUMO_gap": 0.20101, 
			 "cosmo_polarized_energy": -6.57, 
			 "cosmo_cavitation_energy": 25.07, 
			 "cosmo_dispersion_energy": -18.87, 
			 "cosmo_repulsion_energy": 1.54, 
			 "cosmo_total_nonelectrostatic_energy": 7.74, 
			 "SMD_solvation_energy": 2.5 
		},
		"coords": [
			{
				"x": -0.6693869041,
				"y": -0.6603941455,
				"z": -2.8235945596,
				"element": "Cl" 
			},
			{
				"x": 0.0752019408,
				"y": -0.0130660757,
				"z": -1.2819118757,
				"element": "C" 
			},
			{
				"x": -0.4284534699,
				"y": -0.732208961,
				"z": -0.0662213287,
				"element": "C" 
			},
			{
				"x": -1.5950669101,
				"y": -0.3510483733,
				"z": 0.6156165164,
				"element": "C" 
			},
			{
				"x": -2.5459813221,
				"y": 1.0176483448,
				"z": 0.0640744739,
				"element": "Cl" 
			},
			{
				"x": -2.03077354,
				"y": -1.0398100982,
				"z": 1.7473710762,
				"element": "C" 
			},
			{
				"x": -1.3074274276,
				"y": -2.1321058364,
				"z": 2.2213916635,
				"element": "C" 
			},
			{
				"x": -0.1486555102,
				"y": -2.5206561455,
				"z": 1.5515841153,
				"element": "C" 
			},
			{
				"x": 0.8552756548,
				"y": -4.011331198,
				"z": 2.1907706075,
				"element": "Br" 
			},
			{
				"x": 0.2878570972,
				"y": -1.8332260619,
				"z": 0.4240537933,
				"element": "C" 
			},
			{
				"x": -0.1657367928,
				"y": 1.0481884867,
				"z": -1.2603500233,
				"element": "H" 
			},
			{
				"x": 1.1506521665,
				"y": -0.14417621,
				"z": -1.396583222,
				"element": "H" 
			},
			{
				"x": -2.9338918231,
				"y": -0.7206726782,
				"z": 2.2552556322,
				"element": "H" 
			},
			{
				"x": -1.6418640435,
				"y": -2.6705595126,
				"z": 3.100464589,
				"element": "H" 
			},
			{
				"x": 1.189850884,
				"y": -2.1509815355,
				"z": -0.087621458,
				"element": "H" 
			}
		],
		 "valence_orbital": [ 
			{
				"type": "occ",
				"energy": -0.30398,
				"method": "rhf"
			},
			{
				"type": "occ",
				"energy": -0.29992,
				"method": "rhf"
			},
			{
				"type": "occ",
				"energy": -0.29842,
				"method": "rhf"
			},
			{
				"type": "occ",
				"energy": -0.2796,
				"method": "rhf"
			},
			{
				"type": "occ",
				"energy": -0.25101,
				"method": "rhf"
			},
			{
				"type": "unocc",
				"energy": -0.05,
				"method": "rhf"
			},
			{
				"type": "unocc",
				"energy": -0.03428,
				"method": "rhf"
			},
			{
				"type": "unocc",
				"energy": -0.00774,
				"method": "rhf"
			},
			{
				"type": "unocc",
				"energy": 0.02072,
				"method": "rhf"
			},
			{
				"type": "unocc",
				"energy": 0.03115,
				"method": "rhf"
			}
		],
		"cosmo_sigma_profile": { 
			"-0.025": 0.0,
			"-0.024": 0.0,
			"-0.023": 0.0,
			"-0.022": 0.0,
			"-0.021": 0.0,
			"-0.02": 0.0,
			"-0.019": 0.0,
			"-0.018": 0.0,
			"-0.017": 0.0,
			"-0.016": 0.0,
			"-0.015": 0.0,
			"-0.014": 0.0,
			"-0.013": 0.0,
			"-0.012": 0.0,
			"-0.011": 0.0,
			"-0.01": 0.143903380144,
			"-0.009": 3.03133498567,
			"-0.008": 7.26930460562,
			"-0.007": 8.86268834749,
			"-0.006": 8.49389850029,
			"-0.005": 9.11267830746,
			"-0.004": 9.44343905745,
			"-0.003": 9.41433488479,
			"-0.002": 10.1513116814,
			"-0.001": 12.1984658399,
			"0.0": 17.5375431696,
			"0.001": 28.2928003985,
			"0.002": 23.0184009275,
			"0.003": 17.1192097124,
			"0.004": 23.1065228708,
			"0.005": 9.00308176375,
			"0.006": 10.4928698761,
			"0.007": 2.22204570514,
			"0.008": 0.0,
			"0.009": 0.0,
			"0.01": 0.0,
			"0.011": 0.0,
			"0.012": 0.0,
			"0.013": 0.0,
			"0.014": 0.0,
			"0.015": 0.0,
			"0.016": 0.0,
			"0.017": 0.0,
			"0.018": 0.0,
			"0.019": 0.0,
			"0.02": 0.0,
			"0.021": 0.0,
			"0.022": 0.0,
			"0.023": 0.0,
			"0.024": 0.0,
			"0.025": 0.0
		}
	}
}
