{
	 "smiles": "NC(C(N)C1=C2C=CC=CC2=CC=C1)C1=CC=CC2=CC=CC=C12", 
	 "Tm": 449.15, 
	 "num_atms": 44, 
	 "gaussian": { 
		 "optdone": 1, 
		 "sigma_profile": "yes", 
		 "theory": "DFT", 
		 "functional": "B3LYP", 
		 "basiset": "6-31G**", 
		 "properties": { 
			 "R2extent": 9616.6854, 
			 "electric_dipole_moment_norm": 0.145674191263, 
			 "electric_quadrupole_moment_norm": 10.0574358482, 
			 "total_energy": -959.913425984, 
			 "HOMO_LUMO_gap": 0.16494, 
			 "cosmo_polarized_energy": -11.49, 
			 "cosmo_cavitation_energy": 44.59, 
			 "cosmo_dispersion_energy": -31.13, 
			 "cosmo_repulsion_energy": 2.32, 
			 "cosmo_total_nonelectrostatic_energy": 15.78, 
			 "SMD_solvation_energy": 5.92 
		},
		"coords": [
			{
				"x": -1.0853070727,
				"y": 0.7659989267,
				"z": -2.5812706285,
				"element": "N" 
			},
			{
				"x": 0.0542307391,
				"y": 1.2855100373,
				"z": -1.814606853,
				"element": "C" 
			},
			{
				"x": -0.2298721262,
				"y": 1.1279139808,
				"z": -0.2817511366,
				"element": "C" 
			},
			{
				"x": 0.91132287,
				"y": 1.6954391098,
				"z": 0.450457471,
				"element": "N" 
			},
			{
				"x": -1.5023115611,
				"y": 1.8727285614,
				"z": 0.1186850578,
				"element": "C" 
			},
			{
				"x": -2.7702209421,
				"y": 1.2133737242,
				"z": 0.2764411547,
				"element": "C" 
			},
			{
				"x": -2.9642202366,
				"y": -0.1860588408,
				"z": 0.086339859,
				"element": "C" 
			},
			{
				"x": -4.198591852,
				"y": -0.7711163477,
				"z": 0.2620899558,
				"element": "C" 
			},
			{
				"x": -5.3196997573,
				"y": 0.0069773467,
				"z": 0.6341766766,
				"element": "C" 
			},
			{
				"x": -5.1759549179,
				"y": 1.3613260685,
				"z": 0.8230973504,
				"element": "C" 
			},
			{
				"x": -3.9164971452,
				"y": 1.9985524839,
				"z": 0.6528179758,
				"element": "C" 
			},
			{
				"x": -3.7775144622,
				"y": 3.3976374227,
				"z": 0.8481604155,
				"element": "C" 
			},
			{
				"x": -2.5556250024,
				"y": 4.0057547915,
				"z": 0.6854641828,
				"element": "C" 
			},
			{
				"x": -1.42469662,
				"y": 3.2400507152,
				"z": 0.3249883821,
				"element": "C" 
			},
			{
				"x": 1.3654820741,
				"y": 0.6210217104,
				"z": -2.228677607,
				"element": "C" 
			},
			{
				"x": 2.4461357891,
				"y": 1.4509977907,
				"z": -2.4759555315,
				"element": "C" 
			},
			{
				"x": 3.728021933,
				"y": 0.9476305767,
				"z": -2.7954765004,
				"element": "C" 
			},
			{
				"x": 3.9343414547,
				"y": -0.4085117604,
				"z": -2.8601498063,
				"element": "C" 
			},
			{
				"x": 2.8643657757,
				"y": -1.3119298495,
				"z": -2.6217013884,
				"element": "C" 
			},
			{
				"x": 3.0739456324,
				"y": -2.7165672479,
				"z": -2.683247236,
				"element": "C" 
			},
			{
				"x": 2.0438303113,
				"y": -3.5995483735,
				"z": -2.4579074691,
				"element": "C" 
			},
			{
				"x": 0.7488740085,
				"y": -3.1072333225,
				"z": -2.1742168962,
				"element": "C" 
			},
			{
				"x": 0.5080148845,
				"y": -1.7520333513,
				"z": -2.1076708751,
				"element": "C" 
			},
			{
				"x": 1.5536866246,
				"y": -0.8047108874,
				"z": -2.3138413282,
				"element": "C" 
			},
			{
				"x": -1.9090781376,
				"y": 1.3314458517,
				"z": -2.3925136349,
				"element": "H" 
			},
			{
				"x": -0.8893916427,
				"y": 0.8398383037,
				"z": -3.5760835957,
				"element": "H" 
			},
			{
				"x": 0.199821003,
				"y": 2.3680964243,
				"z": -1.959709082,
				"element": "H" 
			},
			{
				"x": -0.35911552,
				"y": 0.0565334636,
				"z": -0.0849568979,
				"element": "H" 
			},
			{
				"x": 1.7519042721,
				"y": 1.1669974341,
				"z": 0.2323819701,
				"element": "H" 
			},
			{
				"x": 0.7489155159,
				"y": 1.6076576633,
				"z": 1.4503020101,
				"element": "H" 
			},
			{
				"x": -2.12846934,
				"y": -0.8059285561,
				"z": -0.212274473,
				"element": "H" 
			},
			{
				"x": -4.3129484612,
				"y": -1.8406520103,
				"z": 0.1101361563,
				"element": "H" 
			},
			{
				"x": -6.2880167869,
				"y": -0.4665346866,
				"z": 0.7682957315,
				"element": "H" 
			},
			{
				"x": -6.0292373559,
				"y": 1.9719027657,
				"z": 1.107912353,
				"element": "H" 
			},
			{
				"x": -4.6538832788,
				"y": 3.9757560226,
				"z": 1.1301415726,
				"element": "H" 
			},
			{
				"x": -2.4501952994,
				"y": 5.0762403081,
				"z": 0.8380238411,
				"element": "H" 
			},
			{
				"x": -0.4564038441,
				"y": 3.7191756076,
				"z": 0.2245664676,
				"element": "H" 
			},
			{
				"x": 2.3058975426,
				"y": 2.5262739657,
				"z": -2.4098207655,
				"element": "H" 
			},
			{
				"x": 4.5439281491,
				"y": 1.6397895822,
				"z": -2.9825499147,
				"element": "H" 
			},
			{
				"x": 4.9162000908,
				"y": -0.811209529,
				"z": -3.0957371002,
				"element": "H" 
			},
			{
				"x": 4.0718421197,
				"y": -3.0806526222,
				"z": -2.9149717101,
				"element": "H" 
			},
			{
				"x": 2.2188927753,
				"y": -4.6705396282,
				"z": -2.5076097052,
				"element": "H" 
			},
			{
				"x": -0.0683076341,
				"y": -3.8059508707,
				"z": -2.0173226579,
				"element": "H" 
			},
			{
				"x": -0.4957945693,
				"y": -1.3793427552,
				"z": -1.9476557904,
				"element": "H" 
			}
		],
		 "valence_orbital": [ 
			{
				"type": "occ",
				"energy": -0.23979,
				"method": "rhf"
			},
			{
				"type": "occ",
				"energy": -0.23475,
				"method": "rhf"
			},
			{
				"type": "occ",
				"energy": -0.2343,
				"method": "rhf"
			},
			{
				"type": "occ",
				"energy": -0.21276,
				"method": "rhf"
			},
			{
				"type": "occ",
				"energy": -0.20421,
				"method": "rhf"
			},
			{
				"type": "unocc",
				"energy": -0.03927,
				"method": "rhf"
			},
			{
				"type": "unocc",
				"energy": -0.03196,
				"method": "rhf"
			},
			{
				"type": "unocc",
				"energy": -0.00597,
				"method": "rhf"
			},
			{
				"type": "unocc",
				"energy": -0.00552,
				"method": "rhf"
			},
			{
				"type": "unocc",
				"energy": 0.02732,
				"method": "rhf"
			}
		],
		"cosmo_sigma_profile": { 
			"-0.025": 0.0,
			"-0.024": 0.0,
			"-0.023": 0.0,
			"-0.022": 0.0,
			"-0.021": 0.0,
			"-0.02": 0.0,
			"-0.019": 0.0,
			"-0.018": 0.0,
			"-0.017": 0.0,
			"-0.016": 0.0,
			"-0.015": 0.0,
			"-0.014": 0.0,
			"-0.013": 0.0,
			"-0.012": 0.0,
			"-0.011": 0.00957667785106,
			"-0.01": 1.46728965927,
			"-0.009": 2.18417584073,
			"-0.008": 4.95515831224,
			"-0.007": 3.59259769763,
			"-0.006": 15.3709362886,
			"-0.005": 30.6708211345,
			"-0.004": 29.8998985553,
			"-0.003": 33.6717929201,
			"-0.002": 26.2947526699,
			"-0.001": 24.8450040533,
			"0.0": 20.0952863799,
			"0.001": 21.4237021945,
			"0.002": 21.2333245222,
			"0.003": 25.3344024882,
			"0.004": 34.4678300909,
			"0.005": 34.8167891784,
			"0.006": 13.9482303559,
			"0.007": 1.91371785098,
			"0.008": 1.85986376072,
			"0.009": 1.80234054793,
			"0.01": 1.33367334753,
			"0.011": 0.63942895311,
			"0.012": 1.12948575389,
			"0.013": 0.771977262728,
			"0.014": 0.374290280025,
			"0.015": 0.36964504983,
			"0.016": 0.290666779465,
			"0.017": 0.097336502175,
			"0.018": 0.0,
			"0.019": 0.0,
			"0.02": 0.0,
			"0.021": 0.0,
			"0.022": 0.0,
			"0.023": 0.0,
			"0.024": 0.0,
			"0.025": 0.0
		}
	}
}
