{
	 "smiles": "COC1=C(OC2CCCC2)C=C(C=C1)C(Cl)=O", 
	 "Tm": 319.65, 
	 "num_atms": 32, 
	 "gaussian": { 
		 "optdone": 1, 
		 "sigma_profile": "yes", 
		 "theory": "DFT", 
		 "functional": "B3LYP", 
		 "basiset": "6-31G**", 
		 "properties": { 
			 "R2extent": 5503.26, 
			 "electric_dipole_moment_norm": 5.09910219058, 
			 "electric_quadrupole_moment_norm": 12.8124876499, 
			 "total_energy": -1190.27766001, 
			 "HOMO_LUMO_gap": 0.17579, 
			 "cosmo_polarized_energy": -7.63, 
			 "cosmo_cavitation_energy": 36.26, 
			 "cosmo_dispersion_energy": -25.3, 
			 "cosmo_repulsion_energy": 1.99, 
			 "cosmo_total_nonelectrostatic_energy": 12.94, 
			 "SMD_solvation_energy": 6.96 
		},
		"coords": [
			{
				"x": 2.7588798399,
				"y": 1.6641565305,
				"z": 1.1606209286,
				"element": "C" 
			},
			{
				"x": 2.6050763393,
				"y": 0.2710146072,
				"z": 1.4778050059,
				"element": "O" 
			},
			{
				"x": 1.871387559,
				"y": -0.463511481,
				"z": 0.5864830831,
				"element": "C" 
			},
			{
				"x": 0.4915604885,
				"y": -0.2338538459,
				"z": 0.3822629243,
				"element": "C" 
			},
			{
				"x": -0.1754887841,
				"y": 0.7706118767,
				"z": 1.0336876122,
				"element": "O" 
			},
			{
				"x": -0.3608485327,
				"y": 0.608137603,
				"z": 2.4738687452,
				"element": "C" 
			},
			{
				"x": -1.0126171886,
				"y": 1.9021305768,
				"z": 2.9597066068,
				"element": "C" 
			},
			{
				"x": -2.4837005314,
				"y": 1.7561308256,
				"z": 2.526578301,
				"element": "C" 
			},
			{
				"x": -2.7941590667,
				"y": 0.2421497536,
				"z": 2.683895797,
				"element": "C" 
			},
			{
				"x": -1.4131986794,
				"y": -0.4691878102,
				"z": 2.781311042,
				"element": "C" 
			},
			{
				"x": -0.2004598434,
				"y": -1.0119601327,
				"z": -0.5431026228,
				"element": "C" 
			},
			{
				"x": 0.449998077,
				"y": -2.0349045201,
				"z": -1.2476899096,
				"element": "C" 
			},
			{
				"x": 1.8124015801,
				"y": -2.2867720926,
				"z": -1.0073053731,
				"element": "C" 
			},
			{
				"x": 2.510755762,
				"y": -1.5017335733,
				"z": -0.1000318344,
				"element": "C" 
			},
			{
				"x": -0.2138278339,
				"y": -2.9039618174,
				"z": -2.2415788796,
				"element": "C" 
			},
			{
				"x": -1.9910918933,
				"y": -2.5406799016,
				"z": -2.5363775233,
				"element": "Cl" 
			},
			{
				"x": 0.2926990845,
				"y": -3.796712102,
				"z": -2.8528566529,
				"element": "O" 
			},
			{
				"x": 3.3254114665,
				"y": 1.7810884679,
				"z": 0.2291670392,
				"element": "H" 
			},
			{
				"x": 3.3249985928,
				"y": 2.0993590456,
				"z": 1.9856087778,
				"element": "H" 
			},
			{
				"x": 1.7905246336,
				"y": 2.1619752292,
				"z": 1.0663735918,
				"element": "H" 
			},
			{
				"x": 0.613026187,
				"y": 0.4044763267,
				"z": 2.9284635731,
				"element": "H" 
			},
			{
				"x": -0.9317699981,
				"y": 1.9398128257,
				"z": 4.0531040055,
				"element": "H" 
			},
			{
				"x": -0.5198609139,
				"y": 2.791513205,
				"z": 2.5563296492,
				"element": "H" 
			},
			{
				"x": -2.5814581284,
				"y": 2.0539620469,
				"z": 1.4784111621,
				"element": "H" 
			},
			{
				"x": -3.1581378991,
				"y": 2.388915462,
				"z": 3.1107367741,
				"element": "H" 
			},
			{
				"x": -3.3843099604,
				"y": 0.0519178998,
				"z": 3.5857919685,
				"element": "H" 
			},
			{
				"x": -3.3826734359,
				"y": -0.1303380367,
				"z": 1.8408096063,
				"element": "H" 
			},
			{
				"x": -1.3196191795,
				"y": -1.3283830715,
				"z": 2.111398591,
				"element": "H" 
			},
			{
				"x": -1.2394069319,
				"y": -0.8426061768,
				"z": 3.7968600539,
				"element": "H" 
			},
			{
				"x": -1.252097171,
				"y": -0.8083295797,
				"z": -0.7001550934,
				"element": "H" 
			},
			{
				"x": 2.305781135,
				"y": -3.0855298927,
				"z": -1.5489628508,
				"element": "H" 
			},
			{
				"x": 3.5665252265,
				"y": -1.6643882485,
				"z": 0.0902859015,
				"element": "H" 
			}
		],
		 "valence_orbital": [ 
			{
				"type": "occ",
				"energy": -0.30888,
				"method": "rhf"
			},
			{
				"type": "occ",
				"energy": -0.29075,
				"method": "rhf"
			},
			{
				"type": "occ",
				"energy": -0.27881,
				"method": "rhf"
			},
			{
				"type": "occ",
				"energy": -0.26309,
				"method": "rhf"
			},
			{
				"type": "occ",
				"energy": -0.24738,
				"method": "rhf"
			},
			{
				"type": "unocc",
				"energy": -0.07159,
				"method": "rhf"
			},
			{
				"type": "unocc",
				"energy": -0.01868,
				"method": "rhf"
			},
			{
				"type": "unocc",
				"energy": 0.02272,
				"method": "rhf"
			},
			{
				"type": "unocc",
				"energy": 0.03056,
				"method": "rhf"
			},
			{
				"type": "unocc",
				"energy": 0.06849,
				"method": "rhf"
			}
		],
		"cosmo_sigma_profile": { 
			"-0.025": 0.0,
			"-0.024": 0.0,
			"-0.023": 0.0,
			"-0.022": 0.0,
			"-0.021": 0.0,
			"-0.02": 0.0,
			"-0.019": 0.0,
			"-0.018": 0.0,
			"-0.017": 0.0,
			"-0.016": 0.0,
			"-0.015": 0.0,
			"-0.014": 0.0,
			"-0.013": 0.0,
			"-0.012": 0.0,
			"-0.011": 0.0,
			"-0.01": 0.0,
			"-0.009": 0.0,
			"-0.008": 0.360752894709,
			"-0.007": 2.95191600908,
			"-0.006": 6.28778078558,
			"-0.005": 8.55790027952,
			"-0.004": 16.0521568605,
			"-0.003": 33.7696440703,
			"-0.002": 38.7984178368,
			"-0.001": 40.6923912085,
			"0.0": 33.8476763939,
			"0.001": 32.0065366596,
			"0.002": 19.5014066883,
			"0.003": 10.2613876071,
			"0.004": 11.1166166332,
			"0.005": 10.3909868737,
			"0.006": 5.71005874195,
			"0.007": 4.67358410512,
			"0.008": 5.17689521802,
			"0.009": 5.89286897297,
			"0.01": 2.27496054054,
			"0.011": 0.484927836787,
			"0.012": 0.0,
			"0.013": 0.0,
			"0.014": 0.0,
			"0.015": 0.0,
			"0.016": 0.0,
			"0.017": 0.0,
			"0.018": 0.0,
			"0.019": 0.0,
			"0.02": 0.0,
			"0.021": 0.0,
			"0.022": 0.0,
			"0.023": 0.0,
			"0.024": 0.0,
			"0.025": 0.0
		}
	}
}
