{
	 "smiles": "CC1(C)C2CCC1(C)C(C2)=NO", 
	 "Tm": 391.15, 
	 "num_atms": 29, 
	 "gaussian": { 
		 "optdone": 1, 
		 "sigma_profile": "yes", 
		 "theory": "DFT", 
		 "functional": "B3LYP", 
		 "basiset": "6-31G**", 
		 "properties": { 
			 "R2extent": 2552.1204, 
			 "electric_dipole_moment_norm": 0.883819766695, 
			 "electric_quadrupole_moment_norm": 1.81732332016, 
			 "total_energy": -521.236372941, 
			 "HOMO_LUMO_gap": 0.25275, 
			 "cosmo_polarized_energy": -7.03, 
			 "cosmo_cavitation_energy": 27.99, 
			 "cosmo_dispersion_energy": -20.17, 
			 "cosmo_repulsion_energy": 1.59, 
			 "cosmo_total_nonelectrostatic_energy": 9.41, 
			 "SMD_solvation_energy": 4.51 
		},
		"coords": [
			{
				"x": 1.4838878889,
				"y": 0.0535281914,
				"z": -0.4335066699,
				"element": "C" 
			},
			{
				"x": -0.0463264307,
				"y": 0.2217192886,
				"z": -0.4024212812,
				"element": "C" 
			},
			{
				"x": -0.6370640933,
				"y": -0.7710194191,
				"z": -1.4178271747,
				"element": "C" 
			},
			{
				"x": -0.6702361878,
				"y": 0.1107230459,
				"z": 1.0281915655,
				"element": "C" 
			},
			{
				"x": -2.1520038335,
				"y": 0.4913430147,
				"z": 0.7864772992,
				"element": "C" 
			},
			{
				"x": -2.0543359483,
				"y": 1.5980824814,
				"z": -0.3091418619,
				"element": "C" 
			},
			{
				"x": -0.5214704966,
				"y": 1.715904927,
				"z": -0.5967269136,
				"element": "C" 
			},
			{
				"x": -0.1725705143,
				"y": 2.4299919891,
				"z": -1.892831837,
				"element": "C" 
			},
			{
				"x": 0.0531334608,
				"y": 2.335664928,
				"z": 0.669160348,
				"element": "C" 
			},
			{
				"x": -0.0227222793,
				"y": 1.2994126931,
				"z": 1.7762770753,
				"element": "C" 
			},
			{
				"x": 0.5089209914,
				"y": 3.5253991022,
				"z": 0.7091732637,
				"element": "N" 
			},
			{
				"x": 0.9617357429,
				"y": 3.8439189716,
				"z": 2.0157305108,
				"element": "O" 
			},
			{
				"x": 2.0140766633,
				"y": 0.7781455733,
				"z": 0.188671255,
				"element": "H" 
			},
			{
				"x": 1.7650168659,
				"y": -0.9502675134,
				"z": -0.0946929268,
				"element": "H" 
			},
			{
				"x": 1.8608225528,
				"y": 0.1683276649,
				"z": -1.4555271309,
				"element": "H" 
			},
			{
				"x": -1.7254515049,
				"y": -0.7331620287,
				"z": -1.4921191943,
				"element": "H" 
			},
			{
				"x": -0.2318943598,
				"y": -0.5861429524,
				"z": -2.4186536833,
				"element": "H" 
			},
			{
				"x": -0.3625406523,
				"y": -1.7958628271,
				"z": -1.1422971265,
				"element": "H" 
			},
			{
				"x": -0.5300734884,
				"y": -0.8548573884,
				"z": 1.5233407533,
				"element": "H" 
			},
			{
				"x": -2.7375529977,
				"y": -0.3656294825,
				"z": 0.4416793083,
				"element": "H" 
			},
			{
				"x": -2.627126205,
				"y": 0.8517724478,
				"z": 1.7041553248,
				"element": "H" 
			},
			{
				"x": -2.5870422493,
				"y": 1.3137622184,
				"z": -1.2224115715,
				"element": "H" 
			},
			{
				"x": -2.4665338769,
				"y": 2.5577808934,
				"z": 0.0155185887,
				"element": "H" 
			},
			{
				"x": 0.9100032087,
				"y": 2.4766453418,
				"z": -2.0445690823,
				"element": "H" 
			},
			{
				"x": -0.6220507995,
				"y": 1.922535175,
				"z": -2.7529289161,
				"element": "H" 
			},
			{
				"x": -0.5404644962,
				"y": 3.4602212852,
				"z": -1.8753084743,
				"element": "H" 
			},
			{
				"x": -0.6154093905,
				"y": 1.6549416854,
				"z": 2.6260029542,
				"element": "H" 
			},
			{
				"x": 0.977487387,
				"y": 1.0797041595,
				"z": 2.1641662667,
				"element": "H" 
			},
			{
				"x": 1.2880850425,
				"y": 4.7454165342,
				"z": 1.8977193309,
				"element": "H" 
			}
		],
		 "valence_orbital": [ 
			{
				"type": "occ",
				"energy": -0.31319,
				"method": "rhf"
			},
			{
				"type": "occ",
				"energy": -0.30833,
				"method": "rhf"
			},
			{
				"type": "occ",
				"energy": -0.28868,
				"method": "rhf"
			},
			{
				"type": "occ",
				"energy": -0.25738,
				"method": "rhf"
			},
			{
				"type": "occ",
				"energy": -0.23423,
				"method": "rhf"
			},
			{
				"type": "unocc",
				"energy": 0.01852,
				"method": "rhf"
			},
			{
				"type": "unocc",
				"energy": 0.07474,
				"method": "rhf"
			},
			{
				"type": "unocc",
				"energy": 0.08281,
				"method": "rhf"
			},
			{
				"type": "unocc",
				"energy": 0.11004,
				"method": "rhf"
			},
			{
				"type": "unocc",
				"energy": 0.11624,
				"method": "rhf"
			}
		],
		"cosmo_sigma_profile": { 
			"-0.025": 0.0,
			"-0.024": 0.0,
			"-0.023": 0.0,
			"-0.022": 0.0,
			"-0.021": 0.0,
			"-0.02": 0.0,
			"-0.019": 0.0,
			"-0.018": 0.0,
			"-0.017": 0.356003095722,
			"-0.016": 0.775073054786,
			"-0.015": 0.762639615202,
			"-0.014": 1.28894210611,
			"-0.013": 0.866990198759,
			"-0.012": 0.157611480422,
			"-0.011": 0.116686640107,
			"-0.01": 0.777115896657,
			"-0.009": 0.511644218477,
			"-0.008": 0.909490980764,
			"-0.007": 0.715441201193,
			"-0.006": 0.792049203732,
			"-0.005": 0.919001505207,
			"-0.004": 6.46494265931,
			"-0.003": 22.3743710495,
			"-0.002": 36.2492564304,
			"-0.001": 35.9899850761,
			"0.0": 31.1662294826,
			"0.001": 29.3384623958,
			"0.002": 12.1532216782,
			"0.003": 3.54781261464,
			"0.004": 2.2782951389,
			"0.005": 3.52618548515,
			"0.006": 2.76532662628,
			"0.007": 4.09762150897,
			"0.008": 3.91266328153,
			"0.009": 3.34522813916,
			"0.01": 3.37471714857,
			"0.011": 3.38857599974,
			"0.012": 1.04616763307,
			"0.013": 1.0062374155,
			"0.014": 0.299876459432,
			"0.015": 0.0,
			"0.016": 0.0,
			"0.017": 0.0,
			"0.018": 0.0,
			"0.019": 0.0,
			"0.02": 0.0,
			"0.021": 0.0,
			"0.022": 0.0,
			"0.023": 0.0,
			"0.024": 0.0,
			"0.025": 0.0
		}
	}
}
