{
	 "smiles": "CC(=O)C1C(=O)OC(C)=CC1=O", 
	 "Tm": 383.15, 
	 "num_atms": 20, 
	 "gaussian": { 
		 "optdone": 1, 
		 "sigma_profile": "yes", 
		 "theory": "DFT", 
		 "functional": "B3LYP", 
		 "basiset": "6-31G**", 
		 "properties": { 
			 "R2extent": 1959.0567, 
			 "electric_dipole_moment_norm": 2.11758401014, 
			 "electric_quadrupole_moment_norm": 20.107920343, 
			 "total_energy": -610.556290277, 
			 "HOMO_LUMO_gap": 0.18382, 
			 "cosmo_polarized_energy": -13.66, 
			 "cosmo_cavitation_energy": 24.99, 
			 "cosmo_dispersion_energy": -17.65, 
			 "cosmo_repulsion_energy": 1.43, 
			 "cosmo_total_nonelectrostatic_energy": 8.77, 
			 "SMD_solvation_energy": 7.08 
		},
		"coords": [
			{
				"x": -2.631190084,
				"y": 0.7619230242,
				"z": 1.1725179459,
				"element": "C" 
			},
			{
				"x": -1.5111645716,
				"y": 0.1155417663,
				"z": 0.3973798422,
				"element": "C" 
			},
			{
				"x": -1.3512834394,
				"y": -1.0796587291,
				"z": 0.2892278458,
				"element": "O" 
			},
			{
				"x": -0.4999230858,
				"y": 1.1142023391,
				"z": -0.2506820016,
				"element": "C" 
			},
			{
				"x": 0.0925911502,
				"y": 0.4881259682,
				"z": -1.4920548953,
				"element": "C" 
			},
			{
				"x": -0.4146610062,
				"y": 0.5231138319,
				"z": -2.5777556035,
				"element": "O" 
			},
			{
				"x": 1.2848762152,
				"y": -0.2039277181,
				"z": -1.3470986862,
				"element": "O" 
			},
			{
				"x": 2.0586135703,
				"y": -0.0805845063,
				"z": -0.2242068851,
				"element": "C" 
			},
			{
				"x": 3.288120849,
				"y": -0.9182909158,
				"z": -0.3384421072,
				"element": "C" 
			},
			{
				"x": 1.7493922215,
				"y": 0.7238616955,
				"z": 0.8164449905,
				"element": "C" 
			},
			{
				"x": 0.5077101164,
				"y": 1.4755130688,
				"z": 0.8577042999,
				"element": "C" 
			},
			{
				"x": 0.2097650247,
				"y": 2.2838507277,
				"z": 1.7252326209,
				"element": "O" 
			},
			{
				"x": -3.1663248806,
				"y": 0.0069950425,
				"z": 1.7498478114,
				"element": "H" 
			},
			{
				"x": -2.2300848387,
				"y": 1.5452154985,
				"z": 1.8236909508,
				"element": "H" 
			},
			{
				"x": -3.3232729529,
				"y": 1.2437980039,
				"z": 0.4712503767,
				"element": "H" 
			},
			{
				"x": -1.0376407105,
				"y": 2.0175575456,
				"z": -0.5472025865,
				"element": "H" 
			},
			{
				"x": 3.9211115339,
				"y": -0.8087849212,
				"z": 0.5430240448,
				"element": "H" 
			},
			{
				"x": 3.8554199359,
				"y": -0.6353388844,
				"z": -1.2315989473,
				"element": "H" 
			},
			{
				"x": 3.0083044867,
				"y": -1.9711366319,
				"z": -0.4538557247,
				"element": "H" 
			},
			{
				"x": 2.4346404657,
				"y": 0.8205237944,
				"z": 1.6494767084,
				"element": "H" 
			}
		],
		 "valence_orbital": [ 
			{
				"type": "occ",
				"energy": -0.3612,
				"method": "rhf"
			},
			{
				"type": "occ",
				"energy": -0.30391,
				"method": "rhf"
			},
			{
				"type": "occ",
				"energy": -0.27451,
				"method": "rhf"
			},
			{
				"type": "occ",
				"energy": -0.27129,
				"method": "rhf"
			},
			{
				"type": "occ",
				"energy": -0.2626,
				"method": "rhf"
			},
			{
				"type": "unocc",
				"energy": -0.07878,
				"method": "rhf"
			},
			{
				"type": "unocc",
				"energy": -0.03783,
				"method": "rhf"
			},
			{
				"type": "unocc",
				"energy": -0.00539,
				"method": "rhf"
			},
			{
				"type": "unocc",
				"energy": 0.05944,
				"method": "rhf"
			},
			{
				"type": "unocc",
				"energy": 0.08332,
				"method": "rhf"
			}
		],
		"cosmo_sigma_profile": { 
			"-0.025": 0.0,
			"-0.024": 0.0,
			"-0.023": 0.0,
			"-0.022": 0.0,
			"-0.021": 0.0,
			"-0.02": 0.0,
			"-0.019": 0.0,
			"-0.018": 0.0,
			"-0.017": 0.0,
			"-0.016": 0.0,
			"-0.015": 0.0,
			"-0.014": 0.0,
			"-0.013": 0.0,
			"-0.012": 0.0,
			"-0.011": 0.0391000830311,
			"-0.01": 2.12688671191,
			"-0.009": 4.96147353595,
			"-0.008": 6.4926400251,
			"-0.007": 9.85273099461,
			"-0.006": 13.4569066101,
			"-0.005": 13.8362698183,
			"-0.004": 15.9506425517,
			"-0.003": 18.3730380754,
			"-0.002": 18.2207322723,
			"-0.001": 10.9853432971,
			"0.0": 6.91642530584,
			"0.001": 8.12263684463,
			"0.002": 7.25179984207,
			"0.003": 5.26806655688,
			"0.004": 5.95817085954,
			"0.005": 5.09775095501,
			"0.006": 4.96044350189,
			"0.007": 5.73542900544,
			"0.008": 6.18975377823,
			"0.009": 8.39918593838,
			"0.01": 10.5050588452,
			"0.011": 6.99914129327,
			"0.012": 2.70274433765,
			"0.013": 0.361994862393,
			"0.014": 0.0,
			"0.015": 0.0,
			"0.016": 0.0,
			"0.017": 0.0,
			"0.018": 0.0,
			"0.019": 0.0,
			"0.02": 0.0,
			"0.021": 0.0,
			"0.022": 0.0,
			"0.023": 0.0,
			"0.024": 0.0,
			"0.025": 0.0
		}
	}
}
