{
	 "smiles": "CCCCCCCCO", 
	 "Tm": 257.65, 
	 "num_atms": 27, 
	 "gaussian": { 
		 "optdone": 1, 
		 "sigma_profile": "yes", 
		 "theory": "DFT", 
		 "functional": "B3LYP", 
		 "basiset": "6-31G**", 
		 "properties": { 
			 "R2extent": 1999.0069, 
			 "electric_dipole_moment_norm": 1.48793577146, 
			 "electric_quadrupole_moment_norm": 8.47079601572, 
			 "total_energy": -390.931195884, 
			 "HOMO_LUMO_gap": 0.33258, 
			 "cosmo_polarized_energy": -5.82, 
			 "cosmo_cavitation_energy": 27.49, 
			 "cosmo_dispersion_energy": -19.29, 
			 "cosmo_repulsion_energy": 1.62, 
			 "cosmo_total_nonelectrostatic_energy": 9.82, 
			 "SMD_solvation_energy": 4.13 
		},
		"coords": [
			{
				"x": 0.5373454408,
				"y": 0.7643484101,
				"z": -3.4387898446,
				"element": "C" 
			},
			{
				"x": -0.5020951991,
				"y": 0.5691546379,
				"z": -2.3300480515,
				"element": "C" 
			},
			{
				"x": -0.1453743958,
				"y": -0.5712785868,
				"z": -1.3658655328,
				"element": "C" 
			},
			{
				"x": -1.1819015974,
				"y": -0.8027459836,
				"z": -0.2494802651,
				"element": "C" 
			},
			{
				"x": -1.2609415242,
				"y": 0.2855220948,
				"z": 0.8476263294,
				"element": "C" 
			},
			{
				"x": -0.4416382237,
				"y": 0.0038789095,
				"z": 2.121623534,
				"element": "C" 
			},
			{
				"x": 1.0868820077,
				"y": -0.0527900983,
				"z": 1.9648442246,
				"element": "C" 
			},
			{
				"x": 1.7334981754,
				"y": 1.2816527073,
				"z": 1.5803886343,
				"element": "C" 
			},
			{
				"x": 1.428520858,
				"y": 2.3343064811,
				"z": 2.4896288818,
				"element": "O" 
			},
			{
				"x": 0.6526025885,
				"y": -0.1455772157,
				"z": -4.0391004983,
				"element": "H" 
			},
			{
				"x": 0.253428469,
				"y": 1.5759818635,
				"z": -4.1167142433,
				"element": "H" 
			},
			{
				"x": 1.5210092885,
				"y": 1.0095354347,
				"z": -3.0217416194,
				"element": "H" 
			},
			{
				"x": -0.6173318439,
				"y": 1.5083652224,
				"z": -1.7737605013,
				"element": "H" 
			},
			{
				"x": -1.4833471205,
				"y": 0.3623446869,
				"z": -2.7791387396,
				"element": "H" 
			},
			{
				"x": 0.8453809564,
				"y": -0.3796506534,
				"z": -0.933157565,
				"element": "H" 
			},
			{
				"x": -0.0426185601,
				"y": -1.4979559832,
				"z": -1.9474447859,
				"element": "H" 
			},
			{
				"x": -0.9868515393,
				"y": -1.7730234329,
				"z": 0.2273328231,
				"element": "H" 
			},
			{
				"x": -2.1661569258,
				"y": -0.9031180557,
				"z": -0.7262038025,
				"element": "H" 
			},
			{
				"x": -0.9819174225,
				"y": 1.2625367853,
				"z": 0.4340896379,
				"element": "H" 
			},
			{
				"x": -2.306729345,
				"y": 0.3952264518,
				"z": 1.1597130943,
				"element": "H" 
			},
			{
				"x": -0.7829584214,
				"y": -0.9476974832,
				"z": 2.5510011468,
				"element": "H" 
			},
			{
				"x": -0.6745910122,
				"y": 0.779534462,
				"z": 2.8605424324,
				"element": "H" 
			},
			{
				"x": 1.3773776326,
				"y": -0.8108126954,
				"z": 1.2261451248,
				"element": "H" 
			},
			{
				"x": 1.5251279622,
				"y": -0.3866805418,
				"z": 2.9175667156,
				"element": "H" 
			},
			{
				"x": 1.3643643974,
				"y": 1.6250005498,
				"z": 0.6085702277,
				"element": "H" 
			},
			{
				"x": 2.8227346792,
				"y": 1.1477665937,
				"z": 1.4791498993,
				"element": "H" 
			},
			{
				"x": 1.762580675,
				"y": 2.0747754391,
				"z": 3.3584227431,
				"element": "H" 
			}
		],
		 "valence_orbital": [ 
			{
				"type": "occ",
				"energy": -0.31727,
				"method": "rhf"
			},
			{
				"type": "occ",
				"energy": -0.30865,
				"method": "rhf"
			},
			{
				"type": "occ",
				"energy": -0.30338,
				"method": "rhf"
			},
			{
				"type": "occ",
				"energy": -0.29915,
				"method": "rhf"
			},
			{
				"type": "occ",
				"energy": -0.26206,
				"method": "rhf"
			},
			{
				"type": "unocc",
				"energy": 0.07052,
				"method": "rhf"
			},
			{
				"type": "unocc",
				"energy": 0.08488,
				"method": "rhf"
			},
			{
				"type": "unocc",
				"energy": 0.10586,
				"method": "rhf"
			},
			{
				"type": "unocc",
				"energy": 0.11336,
				"method": "rhf"
			},
			{
				"type": "unocc",
				"energy": 0.12077,
				"method": "rhf"
			}
		],
		"cosmo_sigma_profile": { 
			"-0.025": 0.0,
			"-0.024": 0.0,
			"-0.023": 0.0,
			"-0.022": 0.0,
			"-0.021": 0.0,
			"-0.02": 0.0,
			"-0.019": 0.0,
			"-0.018": 0.0,
			"-0.017": 0.0,
			"-0.016": 0.0,
			"-0.015": 0.497915251501,
			"-0.014": 0.951774749308,
			"-0.013": 1.06293562347,
			"-0.012": 0.705466039727,
			"-0.011": 0.842780497027,
			"-0.01": 1.25452039308,
			"-0.009": 0.668132822961,
			"-0.008": 0.378209516357,
			"-0.007": 1.56106574357,
			"-0.006": 0.991548357112,
			"-0.005": 1.44628798765,
			"-0.004": 1.51523245635,
			"-0.003": 10.7860665309,
			"-0.002": 32.1852533871,
			"-0.001": 40.825827207,
			"0.0": 40.9799418499,
			"0.001": 35.7881434437,
			"0.002": 19.3265696689,
			"0.003": 2.00855926168,
			"0.004": 1.47246094096,
			"0.005": 1.35254387252,
			"0.006": 1.51606709384,
			"0.007": 1.16748563186,
			"0.008": 1.3865937946,
			"0.009": 0.838071398813,
			"0.01": 1.17557173012,
			"0.011": 1.45645810882,
			"0.012": 1.16850792279,
			"0.013": 1.52259236462,
			"0.014": 1.79879150339,
			"0.015": 1.71864964564,
			"0.016": 0.00131145677114,
			"0.017": 0.0,
			"0.018": 0.0,
			"0.019": 0.0,
			"0.02": 0.0,
			"0.021": 0.0,
			"0.022": 0.0,
			"0.023": 0.0,
			"0.024": 0.0,
			"0.025": 0.0
		}
	}
}
