{
	 "smiles": "FC(F)(F)C1=CC=C(C=C1)N1CCC(Br)C1=O", 
	 "Tm": 337.15, 
	 "num_atms": 26, 
	 "gaussian": { 
		 "optdone": 1, 
		 "sigma_profile": "yes", 
		 "theory": "DFT", 
		 "functional": "B3LYP", 
		 "basiset": "6-31G**", 
		 "properties": { 
			 "R2extent": 7936.3316, 
			 "electric_dipole_moment_norm": 5.08032042395, 
			 "electric_quadrupole_moment_norm": 14.3895054991, 
			 "total_energy": -3425.52198676, 
			 "HOMO_LUMO_gap": 0.18243, 
			 "cosmo_polarized_energy": -12.15, 
			 "cosmo_cavitation_energy": 33.17, 
			 "cosmo_dispersion_energy": -24.12, 
			 "cosmo_repulsion_energy": 1.79, 
			 "cosmo_total_nonelectrostatic_energy": 10.85, 
			 "SMD_solvation_energy": 5.47 
		},
		"coords": [
			{
				"x": 1.0226050456,
				"y": 1.424024431,
				"z": -4.2066226199,
				"element": "F" 
			},
			{
				"x": 1.9298793137,
				"y": 0.775972817,
				"z": -3.4377369105,
				"element": "C" 
			},
			{
				"x": 2.3790694193,
				"y": -0.2707431835,
				"z": -4.1661646434,
				"element": "F" 
			},
			{
				"x": 2.9681509022,
				"y": 1.6249290743,
				"z": -3.2612096284,
				"element": "F" 
			},
			{
				"x": 1.3396765805,
				"y": 0.3336339782,
				"z": -2.1292356522,
				"element": "C" 
			},
			{
				"x": 1.4140188796,
				"y": 1.1579451877,
				"z": -1.0065313178,
				"element": "C" 
			},
			{
				"x": 0.8223938623,
				"y": 0.7693154759,
				"z": 0.1914254677,
				"element": "C" 
			},
			{
				"x": 0.1419041748,
				"y": -0.4577343753,
				"z": 0.2876793412,
				"element": "C" 
			},
			{
				"x": 0.0673424913,
				"y": -1.2868386341,
				"z": -0.8482354715,
				"element": "C" 
			},
			{
				"x": 0.6614640816,
				"y": -0.8849458319,
				"z": -2.0389068153,
				"element": "C" 
			},
			{
				"x": -0.4362130463,
				"y": -0.8338514011,
				"z": 1.5208209682,
				"element": "N" 
			},
			{
				"x": -0.2014634338,
				"y": -0.0618320695,
				"z": 2.7499063033,
				"element": "C" 
			},
			{
				"x": -0.7258782618,
				"y": -0.9850793263,
				"z": 3.8594484227,
				"element": "C" 
			},
			{
				"x": -1.8248834252,
				"y": -1.7719046612,
				"z": 3.1658999456,
				"element": "C" 
			},
			{
				"x": -3.5570299931,
				"y": -0.7839376817,
				"z": 3.2036693195,
				"element": "Br" 
			},
			{
				"x": -1.3656254882,
				"y": -1.8506695063,
				"z": 1.7088303332,
				"element": "C" 
			},
			{
				"x": -1.7500618485,
				"y": -2.6657048115,
				"z": 0.8918977015,
				"element": "O" 
			},
			{
				"x": 1.9392369437,
				"y": 2.1050516869,
				"z": -1.0639104958,
				"element": "H" 
			},
			{
				"x": 0.8874399331,
				"y": 1.434789424,
				"z": 1.0434147808,
				"element": "H" 
			},
			{
				"x": -0.4573833209,
				"y": -2.2286009656,
				"z": -0.7870345188,
				"element": "H" 
			},
			{
				"x": 0.6058235319,
				"y": -1.5349952872,
				"z": -2.9056686009,
				"element": "H" 
			},
			{
				"x": -0.7525803365,
				"y": 0.8863172133,
				"z": 2.7216389673,
				"element": "H" 
			},
			{
				"x": 0.8630704244,
				"y": 0.1572192251,
				"z": 2.864996484,
				"element": "H" 
			},
			{
				"x": 0.062072736,
				"y": -1.6859416702,
				"z": 4.160944982,
				"element": "H" 
			},
			{
				"x": -1.0601231522,
				"y": -0.441885714,
				"z": 4.7438521879,
				"element": "H" 
			},
			{
				"x": -2.0530060135,
				"y": -2.7536333939,
				"z": 3.5723314697,
				"element": "H" 
			}
		],
		 "valence_orbital": [ 
			{
				"type": "occ",
				"energy": -0.2954,
				"method": "rhf"
			},
			{
				"type": "occ",
				"energy": -0.2894,
				"method": "rhf"
			},
			{
				"type": "occ",
				"energy": -0.27038,
				"method": "rhf"
			},
			{
				"type": "occ",
				"energy": -0.26686,
				"method": "rhf"
			},
			{
				"type": "occ",
				"energy": -0.23918,
				"method": "rhf"
			},
			{
				"type": "unocc",
				"energy": -0.05675,
				"method": "rhf"
			},
			{
				"type": "unocc",
				"energy": -0.01945,
				"method": "rhf"
			},
			{
				"type": "unocc",
				"energy": -0.01636,
				"method": "rhf"
			},
			{
				"type": "unocc",
				"energy": 0.03872,
				"method": "rhf"
			},
			{
				"type": "unocc",
				"energy": 0.071,
				"method": "rhf"
			}
		],
		"cosmo_sigma_profile": { 
			"-0.025": 0.0,
			"-0.024": 0.0,
			"-0.023": 0.0,
			"-0.022": 0.0,
			"-0.021": 0.0,
			"-0.02": 0.0,
			"-0.019": 0.0,
			"-0.018": 0.0,
			"-0.017": 0.0,
			"-0.016": 0.0,
			"-0.015": 0.0,
			"-0.014": 0.0,
			"-0.013": 0.0,
			"-0.012": 0.0,
			"-0.011": 0.0,
			"-0.01": 0.0836148330204,
			"-0.009": 1.93389722269,
			"-0.008": 4.9052817569,
			"-0.007": 13.5075589816,
			"-0.006": 18.7563380142,
			"-0.005": 17.4067395137,
			"-0.004": 16.5892903571,
			"-0.003": 12.6338007039,
			"-0.002": 13.2549672888,
			"-0.001": 13.8922606543,
			"0.0": 15.9766964835,
			"0.001": 19.8599880222,
			"0.002": 28.1477937212,
			"0.003": 48.2456027786,
			"0.004": 14.6997249114,
			"0.005": 11.9595582984,
			"0.006": 2.8816857602,
			"0.007": 1.73104173644,
			"0.008": 1.76043801788,
			"0.009": 1.55099538052,
			"0.01": 1.96299576785,
			"0.011": 2.881086043,
			"0.012": 2.77197113626,
			"0.013": 0.955397967322,
			"0.014": 0.0,
			"0.015": 0.0,
			"0.016": 0.0,
			"0.017": 0.0,
			"0.018": 0.0,
			"0.019": 0.0,
			"0.02": 0.0,
			"0.021": 0.0,
			"0.022": 0.0,
			"0.023": 0.0,
			"0.024": 0.0,
			"0.025": 0.0
		}
	}
}
