{
	 "smiles": "CC(C)(C)C1=CC=C(N)C=C1", 
	 "Tm": 289.15, 
	 "num_atms": 26, 
	 "gaussian": { 
		 "optdone": 1, 
		 "sigma_profile": "yes", 
		 "theory": "DFT", 
		 "functional": "B3LYP", 
		 "basiset": "6-31G**", 
		 "properties": { 
			 "R2extent": 2172.5516, 
			 "electric_dipole_moment_norm": 1.57189970736, 
			 "electric_quadrupole_moment_norm": 11.2418168389, 
			 "total_energy": -444.872992547, 
			 "HOMO_LUMO_gap": 0.20182, 
			 "cosmo_polarized_energy": -7.67, 
			 "cosmo_cavitation_energy": 27.27, 
			 "cosmo_dispersion_energy": -19.67, 
			 "cosmo_repulsion_energy": 1.57, 
			 "cosmo_total_nonelectrostatic_energy": 9.16, 
			 "SMD_solvation_energy": 4.74 
		},
		"coords": [
			{
				"x": -1.5765347818,
				"y": 2.2809650992,
				"z": 1.3180998939,
				"element": "C" 
			},
			{
				"x": -1.0493777066,
				"y": 0.8297563728,
				"z": 1.4210630813,
				"element": "C" 
			},
			{
				"x": -0.208529565,
				"y": 0.7167712759,
				"z": 2.7068990002,
				"element": "C" 
			},
			{
				"x": -2.2490353443,
				"y": -0.1397594959,
				"z": 1.5454238591,
				"element": "C" 
			},
			{
				"x": -0.2351563589,
				"y": 0.4848246246,
				"z": 0.1613645786,
				"element": "C" 
			},
			{
				"x": 1.1152911721,
				"y": 0.1124880811,
				"z": 0.1949335299,
				"element": "C" 
			},
			{
				"x": 1.828180011,
				"y": -0.1929159677,
				"z": -0.964648828,
				"element": "C" 
			},
			{
				"x": 1.2120625968,
				"y": -0.1390382212,
				"z": -2.2222965182,
				"element": "C" 
			},
			{
				"x": 1.9028241284,
				"y": -0.5006413738,
				"z": -3.3844172784,
				"element": "N" 
			},
			{
				"x": -0.1420213248,
				"y": 0.2325216356,
				"z": -2.2726004757,
				"element": "C" 
			},
			{
				"x": -0.8382445977,
				"y": 0.5343815353,
				"z": -1.107402252,
				"element": "C" 
			},
			{
				"x": -2.1667933803,
				"y": 2.5404030072,
				"z": 2.2047988638,
				"element": "H" 
			},
			{
				"x": -2.2163724631,
				"y": 2.4189432904,
				"z": 0.4412184982,
				"element": "H" 
			},
			{
				"x": -0.7479686744,
				"y": 2.9927585225,
				"z": 1.2407009181,
				"element": "H" 
			},
			{
				"x": 0.1718033664,
				"y": -0.2992057735,
				"z": 2.856367962,
				"element": "H" 
			},
			{
				"x": -0.8248718866,
				"y": 0.9694283874,
				"z": 3.5760856025,
				"element": "H" 
			},
			{
				"x": 0.6447375841,
				"y": 1.4031977101,
				"z": 2.6970977033,
				"element": "H" 
			},
			{
				"x": -1.9059871923,
				"y": -1.1760634774,
				"z": 1.6312805893,
				"element": "H" 
			},
			{
				"x": -2.8449822613,
				"y": 0.0969422593,
				"z": 2.4346780319,
				"element": "H" 
			},
			{
				"x": -2.9109746209,
				"y": -0.0798451711,
				"z": 0.6761993424,
				"element": "H" 
			},
			{
				"x": 1.6417580146,
				"y": 0.0563583477,
				"z": 1.141353462,
				"element": "H" 
			},
			{
				"x": 2.8747012163,
				"y": -0.4807148281,
				"z": -0.8921118959,
				"element": "H" 
			},
			{
				"x": 1.5393211554,
				"y": -0.0936822543,
				"z": -4.235762876,
				"element": "H" 
			},
			{
				"x": 2.9072907953,
				"y": -0.3990705077,
				"z": -3.3272638855,
				"element": "H" 
			},
			{
				"x": -0.6496276909,
				"y": 0.2795971507,
				"z": -3.2335416837,
				"element": "H" 
			},
			{
				"x": -1.8832921915,
				"y": 0.8185997709,
				"z": -1.1969192232,
				"element": "H" 
			}
		],
		 "valence_orbital": [ 
			{
				"type": "occ",
				"energy": -0.31371,
				"method": "rhf"
			},
			{
				"type": "occ",
				"energy": -0.30655,
				"method": "rhf"
			},
			{
				"type": "occ",
				"energy": -0.29097,
				"method": "rhf"
			},
			{
				"type": "occ",
				"energy": -0.23823,
				"method": "rhf"
			},
			{
				"type": "occ",
				"energy": -0.19256,
				"method": "rhf"
			},
			{
				"type": "unocc",
				"energy": 0.00926,
				"method": "rhf"
			},
			{
				"type": "unocc",
				"energy": 0.02516,
				"method": "rhf"
			},
			{
				"type": "unocc",
				"energy": 0.08545,
				"method": "rhf"
			},
			{
				"type": "unocc",
				"energy": 0.0877,
				"method": "rhf"
			},
			{
				"type": "unocc",
				"energy": 0.11921,
				"method": "rhf"
			}
		],
		"cosmo_sigma_profile": { 
			"-0.025": 0.0,
			"-0.024": 0.0,
			"-0.023": 0.0,
			"-0.022": 0.0,
			"-0.021": 0.0,
			"-0.02": 0.0,
			"-0.019": 0.0,
			"-0.018": 0.0,
			"-0.017": 0.0,
			"-0.016": 0.0,
			"-0.015": 0.0,
			"-0.014": 0.0,
			"-0.013": 0.00670046466893,
			"-0.012": 1.71790743895,
			"-0.011": 2.32473058895,
			"-0.01": 2.86527587406,
			"-0.009": 2.94440720189,
			"-0.008": 3.42274808322,
			"-0.007": 2.75209028054,
			"-0.006": 3.17959223563,
			"-0.005": 5.57959267736,
			"-0.004": 10.1272243153,
			"-0.003": 15.3024618514,
			"-0.002": 27.4401800743,
			"-0.001": 22.0384033803,
			"0.0": 21.5233912351,
			"0.001": 24.2287737341,
			"0.002": 19.3150578357,
			"0.003": 7.08215035624,
			"0.004": 6.64961018736,
			"0.005": 7.05926282395,
			"0.006": 7.36836497972,
			"0.007": 9.32282912964,
			"0.008": 4.97382570164,
			"0.009": 0.854075473092,
			"0.01": 0.962637821592,
			"0.011": 0.65043428525,
			"0.012": 0.607149191615,
			"0.013": 0.806427427958,
			"0.014": 0.712187252677,
			"0.015": 0.482373865468,
			"0.016": 0.0672731792727,
			"0.017": 0.0,
			"0.018": 0.0,
			"0.019": 0.0,
			"0.02": 0.0,
			"0.021": 0.0,
			"0.022": 0.0,
			"0.023": 0.0,
			"0.024": 0.0,
			"0.025": 0.0
		}
	}
}
