{
	 "smiles": "OCC1=C(Cl)C=CC(=C1)C(F)(F)F", 
	 "Tm": 332.15, 
	 "num_atms": 19, 
	 "gaussian": { 
		 "optdone": 1, 
		 "sigma_profile": "yes", 
		 "theory": "DFT", 
		 "functional": "B3LYP", 
		 "basiset": "6-31G**", 
		 "properties": { 
			 "R2extent": 3316.3068, 
			 "electric_dipole_moment_norm": 2.65280734883, 
			 "electric_quadrupole_moment_norm": 15.4790364674, 
			 "total_energy": -1143.40152709, 
			 "HOMO_LUMO_gap": 0.22315, 
			 "cosmo_polarized_energy": -7.53, 
			 "cosmo_cavitation_energy": 26.32, 
			 "cosmo_dispersion_energy": -19.06, 
			 "cosmo_repulsion_energy": 1.47, 
			 "cosmo_total_nonelectrostatic_energy": 8.73, 
			 "SMD_solvation_energy": 5.48 
		},
		"coords": [
			{
				"x": -0.4978923117,
				"y": -2.944734026,
				"z": 2.4147919539,
				"element": "O" 
			},
			{
				"x": 0.5942403759,
				"y": -2.0539837004,
				"z": 2.2739774508,
				"element": "C" 
			},
			{
				"x": 0.2718493217,
				"y": -1.0386260645,
				"z": 1.2015549468,
				"element": "C" 
			},
			{
				"x": 1.1800789092,
				"y": -0.0306942472,
				"z": 0.8516312088,
				"element": "C" 
			},
			{
				"x": 2.7360193124,
				"y": 0.0616257282,
				"z": 1.6729434884,
				"element": "Cl" 
			},
			{
				"x": 0.8935849762,
				"y": 0.9150705171,
				"z": -0.1307848269,
				"element": "C" 
			},
			{
				"x": -0.3305013897,
				"y": 0.862854641,
				"z": -0.7927338456,
				"element": "C" 
			},
			{
				"x": -1.2507727212,
				"y": -0.1328721555,
				"z": -0.4615126252,
				"element": "C" 
			},
			{
				"x": -0.9503127545,
				"y": -1.072734033,
				"z": 0.5259377326,
				"element": "C" 
			},
			{
				"x": -2.5526304618,
				"y": -0.2339337005,
				"z": -1.2098069206,
				"element": "C" 
			},
			{
				"x": -3.5478201867,
				"y": -0.7055555739,
				"z": -0.428123004,
				"element": "F" 
			},
			{
				"x": -2.4549995329,
				"y": -1.0719126625,
				"z": -2.2684556714,
				"element": "F" 
			},
			{
				"x": -2.9477745585,
				"y": 0.9648739315,
				"z": -1.6944736225,
				"element": "F" 
			},
			{
				"x": -0.2764899663,
				"y": -3.5828567943,
				"z": 3.1026911309,
				"element": "H" 
			},
			{
				"x": 1.5182052686,
				"y": -2.5856522014,
				"z": 1.9958132504,
				"element": "H" 
			},
			{
				"x": 0.8093391665,
				"y": -1.5236113089,
				"z": 3.2153492765,
				"element": "H" 
			},
			{
				"x": 1.62188451,
				"y": 1.682076786,
				"z": -0.3684084784,
				"element": "H" 
			},
			{
				"x": -0.5692454565,
				"y": 1.5966810863,
				"z": -1.5542250886,
				"element": "H" 
			},
			{
				"x": -1.6644625007,
				"y": -1.8417162219,
				"z": 0.792233644,
				"element": "H" 
			}
		],
		 "valence_orbital": [ 
			{
				"type": "occ",
				"energy": -0.34477,
				"method": "rhf"
			},
			{
				"type": "occ",
				"energy": -0.3229,
				"method": "rhf"
			},
			{
				"type": "occ",
				"energy": -0.29235,
				"method": "rhf"
			},
			{
				"type": "occ",
				"energy": -0.26782,
				"method": "rhf"
			},
			{
				"type": "occ",
				"energy": -0.25738,
				"method": "rhf"
			},
			{
				"type": "unocc",
				"energy": -0.03423,
				"method": "rhf"
			},
			{
				"type": "unocc",
				"energy": -0.02151,
				"method": "rhf"
			},
			{
				"type": "unocc",
				"energy": 0.02063,
				"method": "rhf"
			},
			{
				"type": "unocc",
				"energy": 0.0612,
				"method": "rhf"
			},
			{
				"type": "unocc",
				"energy": 0.10868,
				"method": "rhf"
			}
		],
		"cosmo_sigma_profile": { 
			"-0.025": 0.0,
			"-0.024": 0.0,
			"-0.023": 0.0,
			"-0.022": 0.0,
			"-0.021": 0.0,
			"-0.02": 0.0,
			"-0.019": 0.0,
			"-0.018": 0.0,
			"-0.017": 0.214748822562,
			"-0.016": 1.37787231111,
			"-0.015": 1.02370181299,
			"-0.014": 0.827781371613,
			"-0.013": 0.944302010028,
			"-0.012": 1.08672060674,
			"-0.011": 1.07876266887,
			"-0.01": 0.555803878818,
			"-0.009": 0.778321642232,
			"-0.008": 2.35208112486,
			"-0.007": 5.14686381697,
			"-0.006": 5.3718612761,
			"-0.005": 10.3853326444,
			"-0.004": 9.32342865753,
			"-0.003": 10.1553107532,
			"-0.002": 12.0194633896,
			"-0.001": 12.4367286507,
			"0.0": 17.090283668,
			"0.001": 23.5104390531,
			"0.002": 37.6833115614,
			"0.003": 37.3661172681,
			"0.004": 9.64122423262,
			"0.005": 2.72233794786,
			"0.006": 2.02380584938,
			"0.007": 1.15133807019,
			"0.008": 0.668240884784,
			"0.009": 2.46392559496,
			"0.01": 1.67302231179,
			"0.011": 0.9664126365,
			"0.012": 0.405786825941,
			"0.013": 0.0,
			"0.014": 0.0,
			"0.015": 0.0,
			"0.016": 0.0,
			"0.017": 0.0,
			"0.018": 0.0,
			"0.019": 0.0,
			"0.02": 0.0,
			"0.021": 0.0,
			"0.022": 0.0,
			"0.023": 0.0,
			"0.024": 0.0,
			"0.025": 0.0
		}
	}
}
