{
	 "smiles": "OC(=O)CCCOC1=C(Cl)C=CC=C1", 
	 "Tm": 358.15, 
	 "num_atms": 25, 
	 "gaussian": { 
		 "optdone": 1, 
		 "sigma_profile": "yes", 
		 "theory": "DFT", 
		 "functional": "B3LYP", 
		 "basiset": "6-31G**", 
		 "properties": { 
			 "R2extent": 4179.5775, 
			 "electric_dipole_moment_norm": 2.27871422737, 
			 "electric_quadrupole_moment_norm": 11.1597879138, 
			 "total_energy": -1073.56663526, 
			 "HOMO_LUMO_gap": 0.21792, 
			 "cosmo_polarized_energy": -10.98, 
			 "cosmo_cavitation_energy": 30.9, 
			 "cosmo_dispersion_energy": -21.96, 
			 "cosmo_repulsion_energy": 1.77, 
			 "cosmo_total_nonelectrostatic_energy": 10.71, 
			 "SMD_solvation_energy": 6.14 
		},
		"coords": [
			{
				"x": -2.6551776083,
				"y": -0.7887772152,
				"z": -2.3754557036,
				"element": "O" 
			},
			{
				"x": -1.4035378082,
				"y": -1.0773436352,
				"z": -1.9499642307,
				"element": "C" 
			},
			{
				"x": -0.4167524289,
				"y": -0.6875970206,
				"z": -2.5429206947,
				"element": "O" 
			},
			{
				"x": -1.4266166683,
				"y": -1.8943883037,
				"z": -0.6779186661,
				"element": "C" 
			},
			{
				"x": -0.0998262736,
				"y": -2.5798795339,
				"z": -0.329855217,
				"element": "C" 
			},
			{
				"x": 1.0326149804,
				"y": -1.6181840109,
				"z": 0.0131976726,
				"element": "C" 
			},
			{
				"x": 0.6033224236,
				"y": -0.7945455658,
				"z": 1.1122281437,
				"element": "O" 
			},
			{
				"x": 1.1750227806,
				"y": 0.4363595987,
				"z": 1.2627110999,
				"element": "C" 
			},
			{
				"x": 1.6165573337,
				"y": 0.8199229237,
				"z": 2.5400354594,
				"element": "C" 
			},
			{
				"x": 1.4993328888,
				"y": -0.3122219091,
				"z": 3.8746573412,
				"element": "Cl" 
			},
			{
				"x": 2.1452232312,
				"y": 2.0906262719,
				"z": 2.7638712246,
				"element": "C" 
			},
			{
				"x": 2.2517801489,
				"y": 2.9949103641,
				"z": 1.7076320115,
				"element": "C" 
			},
			{
				"x": 1.8159247595,
				"y": 2.6258414021,
				"z": 0.4340831324,
				"element": "C" 
			},
			{
				"x": 1.2762814318,
				"y": 1.3599193166,
				"z": 0.2129921925,
				"element": "C" 
			},
			{
				"x": -2.5517765964,
				"y": -0.2393966505,
				"z": -3.1709768582,
				"element": "H" 
			},
			{
				"x": -2.2368269345,
				"y": -2.6257354018,
				"z": -0.7601301554,
				"element": "H" 
			},
			{
				"x": -1.7129107612,
				"y": -1.2153062159,
				"z": 0.134755022,
				"element": "H" 
			},
			{
				"x": -0.2751162054,
				"y": -3.2421318231,
				"z": 0.5248954932,
				"element": "H" 
			},
			{
				"x": 0.2337814583,
				"y": -3.2097523526,
				"z": -1.1625200571,
				"element": "H" 
			},
			{
				"x": 1.2849389839,
				"y": -1.0095554883,
				"z": -0.8557376438,
				"element": "H" 
			},
			{
				"x": 1.9251446482,
				"y": -2.1773947899,
				"z": 0.3233960974,
				"element": "H" 
			},
			{
				"x": 2.4758515824,
				"y": 2.3567373235,
				"z": 3.762015601,
				"element": "H" 
			},
			{
				"x": 2.6690816195,
				"y": 3.9813397679,
				"z": 1.88370613,
				"element": "H" 
			},
			{
				"x": 1.8848652904,
				"y": 3.3275777474,
				"z": -0.3917362112,
				"element": "H" 
			},
			{
				"x": 0.9100177235,
				"y": 1.0839752005,
				"z": -0.7708611834,
				"element": "H" 
			}
		],
		 "valence_orbital": [ 
			{
				"type": "occ",
				"energy": -0.30387,
				"method": "rhf"
			},
			{
				"type": "occ",
				"energy": -0.29666,
				"method": "rhf"
			},
			{
				"type": "occ",
				"energy": -0.27995,
				"method": "rhf"
			},
			{
				"type": "occ",
				"energy": -0.24651,
				"method": "rhf"
			},
			{
				"type": "occ",
				"energy": -0.22651,
				"method": "rhf"
			},
			{
				"type": "unocc",
				"energy": -0.00859,
				"method": "rhf"
			},
			{
				"type": "unocc",
				"energy": -0.00055,
				"method": "rhf"
			},
			{
				"type": "unocc",
				"energy": 0.00182,
				"method": "rhf"
			},
			{
				"type": "unocc",
				"energy": 0.03705,
				"method": "rhf"
			},
			{
				"type": "unocc",
				"energy": 0.07305,
				"method": "rhf"
			}
		],
		"cosmo_sigma_profile": { 
			"-0.025": 0.0,
			"-0.024": 0.0,
			"-0.023": 0.0,
			"-0.022": 0.0,
			"-0.021": 0.0,
			"-0.02": 0.0,
			"-0.019": 0.0,
			"-0.018": 0.50456512412,
			"-0.017": 1.02544758168,
			"-0.016": 0.9462061471,
			"-0.015": 0.550167421433,
			"-0.014": 0.884404491111,
			"-0.013": 0.856264317561,
			"-0.012": 0.213722643027,
			"-0.011": 0.988267118383,
			"-0.01": 1.03201596687,
			"-0.009": 0.497566074075,
			"-0.008": 0.43002247618,
			"-0.007": 3.10784180044,
			"-0.006": 8.70319616167,
			"-0.005": 16.7665474548,
			"-0.004": 23.4117967639,
			"-0.003": 24.1303025146,
			"-0.002": 22.618424744,
			"-0.001": 16.9928524655,
			"0.0": 11.6138906637,
			"0.001": 12.8005796595,
			"0.002": 19.8682298334,
			"0.003": 18.4031350959,
			"0.004": 18.9492743223,
			"0.005": 14.6524339016,
			"0.006": 5.68354477105,
			"0.007": 5.11558227945,
			"0.008": 3.59988630988,
			"0.009": 3.96809396414,
			"0.01": 3.52333786097,
			"0.011": 3.59360266139,
			"0.012": 1.97118389568,
			"0.013": 0.071310220514,
			"0.014": 0.0,
			"0.015": 0.0,
			"0.016": 0.0,
			"0.017": 0.0,
			"0.018": 0.0,
			"0.019": 0.0,
			"0.02": 0.0,
			"0.021": 0.0,
			"0.022": 0.0,
			"0.023": 0.0,
			"0.024": 0.0,
			"0.025": 0.0
		}
	}
}
