{
	 "smiles": "FC(F)(F)C1=CC=C(C=C1)C(=O)C1=CC=CC=C1", 
	 "Tm": 389.15, 
	 "num_atms": 27, 
	 "gaussian": { 
		 "optdone": 1, 
		 "sigma_profile": "yes", 
		 "theory": "DFT", 
		 "functional": "B3LYP", 
		 "basiset": "6-31G**", 
		 "properties": { 
			 "R2extent": 6841.2066, 
			 "electric_dipole_moment_norm": 3.19148958795, 
			 "electric_quadrupole_moment_norm": 9.90077247239, 
			 "total_energy": -913.667972181, 
			 "HOMO_LUMO_gap": 0.17732, 
			 "cosmo_polarized_energy": -8.63, 
			 "cosmo_cavitation_energy": 33.3, 
			 "cosmo_dispersion_energy": -23.55, 
			 "cosmo_repulsion_energy": 1.74, 
			 "cosmo_total_nonelectrostatic_energy": 11.48, 
			 "SMD_solvation_energy": 7.21 
		},
		"coords": [
			{
				"x": -2.1816893975,
				"y": -5.4075266171,
				"z": 0.5365915089,
				"element": "F" 
			},
			{
				"x": -1.0317315405,
				"y": -4.8837567368,
				"z": 0.0598966346,
				"element": "C" 
			},
			{
				"x": -0.0402831945,
				"y": -5.2953765647,
				"z": 0.8839845068,
				"element": "F" 
			},
			{
				"x": -0.7975753511,
				"y": -5.4427343835,
				"z": -1.1473811758,
				"element": "F" 
			},
			{
				"x": -1.0913502345,
				"y": -3.3807841402,
				"z": -0.0187932761,
				"element": "C" 
			},
			{
				"x": -1.8437411163,
				"y": -2.6646160765,
				"z": 0.9188883267,
				"element": "C" 
			},
			{
				"x": -1.8598404757,
				"y": -1.2756307884,
				"z": 0.8744725735,
				"element": "C" 
			},
			{
				"x": -1.1059664455,
				"y": -0.5825421884,
				"z": -0.0854750948,
				"element": "C" 
			},
			{
				"x": -0.3637074505,
				"y": -1.3107333316,
				"z": -1.0267854565,
				"element": "C" 
			},
			{
				"x": -0.3603905905,
				"y": -2.7044337387,
				"z": -0.9973906606,
				"element": "C" 
			},
			{
				"x": -1.2164208896,
				"y": 0.9179762547,
				"z": -0.1098621421,
				"element": "C" 
			},
			{
				"x": -2.2463787185,
				"y": 1.4481571388,
				"z": 0.290455752,
				"element": "O" 
			},
			{
				"x": -0.0855636316,
				"y": 1.759090792,
				"z": -0.6184358169,
				"element": "C" 
			},
			{
				"x": 1.2586262694,
				"y": 1.3601310428,
				"z": -0.5467044491,
				"element": "C" 
			},
			{
				"x": 2.270890541,
				"y": 2.2188516749,
				"z": -0.9767574348,
				"element": "C" 
			},
			{
				"x": 1.9503499631,
				"y": 3.4757452984,
				"z": -1.4921715302,
				"element": "C" 
			},
			{
				"x": 0.6142774398,
				"y": 3.883604824,
				"z": -1.5599491931,
				"element": "C" 
			},
			{
				"x": -0.3952690748,
				"y": 3.0364315242,
				"z": -1.1141463876,
				"element": "C" 
			},
			{
				"x": -2.4222068625,
				"y": -3.1970265372,
				"z": 1.6661512203,
				"element": "H" 
			},
			{
				"x": -2.4585035453,
				"y": -0.7029589843,
				"z": 1.5744680831,
				"element": "H" 
			},
			{
				"x": 0.1914380961,
				"y": -0.7915223047,
				"z": -1.8003070144,
				"element": "H" 
			},
			{
				"x": 0.1986589131,
				"y": -3.2659320529,
				"z": -1.7378353095,
				"element": "H" 
			},
			{
				"x": 1.5166569618,
				"y": 0.3921360767,
				"z": -0.1303503165,
				"element": "H" 
			},
			{
				"x": 3.3088386771,
				"y": 1.9073604007,
				"z": -0.9057145735,
				"element": "H" 
			},
			{
				"x": 2.739256761,
				"y": 4.1394788757,
				"z": -1.8343411208,
				"element": "H" 
			},
			{
				"x": 0.3642038436,
				"y": 4.8639777248,
				"z": -1.9547181988,
				"element": "H" 
			},
			{
				"x": -1.4359789469,
				"y": 3.3419328173,
				"z": -1.1379894549,
				"element": "H" 
			}
		],
		 "valence_orbital": [ 
			{
				"type": "occ",
				"energy": -0.27735,
				"method": "rhf"
			},
			{
				"type": "occ",
				"energy": -0.27554,
				"method": "rhf"
			},
			{
				"type": "occ",
				"energy": -0.26787,
				"method": "rhf"
			},
			{
				"type": "occ",
				"energy": -0.26599,
				"method": "rhf"
			},
			{
				"type": "occ",
				"energy": -0.25394,
				"method": "rhf"
			},
			{
				"type": "unocc",
				"energy": -0.07662,
				"method": "rhf"
			},
			{
				"type": "unocc",
				"energy": -0.03076,
				"method": "rhf"
			},
			{
				"type": "unocc",
				"energy": -0.02455,
				"method": "rhf"
			},
			{
				"type": "unocc",
				"energy": -0.01391,
				"method": "rhf"
			},
			{
				"type": "unocc",
				"energy": 0.04059,
				"method": "rhf"
			}
		],
		"cosmo_sigma_profile": { 
			"-0.025": 0.0,
			"-0.024": 0.0,
			"-0.023": 0.0,
			"-0.022": 0.0,
			"-0.021": 0.0,
			"-0.02": 0.0,
			"-0.019": 0.0,
			"-0.018": 0.0,
			"-0.017": 0.0,
			"-0.016": 0.0,
			"-0.015": 0.0,
			"-0.014": 0.0,
			"-0.013": 0.0,
			"-0.012": 0.0,
			"-0.011": 0.0,
			"-0.01": 0.0,
			"-0.009": 0.0,
			"-0.008": 0.691747387089,
			"-0.007": 7.11741198409,
			"-0.006": 16.859169702,
			"-0.005": 18.6327862762,
			"-0.004": 20.3948011149,
			"-0.003": 17.3913172428,
			"-0.002": 16.5115727856,
			"-0.001": 17.1387974106,
			"0.0": 20.9751537969,
			"0.001": 25.1375335618,
			"0.002": 37.9790768499,
			"0.003": 37.577532492,
			"0.004": 12.7519297282,
			"0.005": 3.2122526899,
			"0.006": 1.96949004548,
			"0.007": 1.7766632234,
			"0.008": 1.58242464431,
			"0.009": 1.6590289118,
			"0.01": 2.39325851107,
			"0.011": 3.38797991131,
			"0.012": 3.08794056079,
			"0.013": 0.118754717868,
			"0.014": 0.0,
			"0.015": 0.0,
			"0.016": 0.0,
			"0.017": 0.0,
			"0.018": 0.0,
			"0.019": 0.0,
			"0.02": 0.0,
			"0.021": 0.0,
			"0.022": 0.0,
			"0.023": 0.0,
			"0.024": 0.0,
			"0.025": 0.0
		}
	}
}
