{
	 "smiles": "CCCC(=O)NC1CCCNC1", 
	 "Tm": 331.15, 
	 "num_atms": 30, 
	 "gaussian": { 
		 "optdone": 1, 
		 "sigma_profile": "yes", 
		 "theory": "DFT", 
		 "functional": "B3LYP", 
		 "basiset": "6-31G**", 
		 "properties": { 
			 "R2extent": 2924.9528, 
			 "electric_dipole_moment_norm": 3.86086575524, 
			 "electric_quadrupole_moment_norm": 5.5334385982, 
			 "total_energy": -538.549557689, 
			 "HOMO_LUMO_gap": 0.2316, 
			 "cosmo_polarized_energy": -13.42, 
			 "cosmo_cavitation_energy": 29.88, 
			 "cosmo_dispersion_energy": -21.79, 
			 "cosmo_repulsion_energy": 1.77, 
			 "cosmo_total_nonelectrostatic_energy": 9.86, 
			 "SMD_solvation_energy": 1.77 
		},
		"coords": [
			{
				"x": 4.2092056927,
				"y": 0.1807250133,
				"z": 1.5702499262,
				"element": "C" 
			},
			{
				"x": 3.3110548529,
				"y": -1.0142011823,
				"z": 1.9051655912,
				"element": "C" 
			},
			{
				"x": 2.6954591876,
				"y": -1.7088443084,
				"z": 0.6689432924,
				"element": "C" 
			},
			{
				"x": 1.6739464649,
				"y": -0.8296433907,
				"z": -0.0479490339,
				"element": "C" 
			},
			{
				"x": 2.0129473984,
				"y": 0.1367122728,
				"z": -0.729903119,
				"element": "O" 
			},
			{
				"x": 0.3677204977,
				"y": -1.1800420858,
				"z": 0.1447257626,
				"element": "N" 
			},
			{
				"x": -0.7925557374,
				"y": -0.4334841796,
				"z": -0.3648178219,
				"element": "C" 
			},
			{
				"x": -0.8502225548,
				"y": -0.3276339841,
				"z": -1.9197828375,
				"element": "C" 
			},
			{
				"x": -0.5660997205,
				"y": 1.0951124167,
				"z": -2.4179909548,
				"element": "C" 
			},
			{
				"x": -1.5423181991,
				"y": 2.1143144936,
				"z": -1.7890193627,
				"element": "C" 
			},
			{
				"x": -1.9029332777,
				"y": 1.8101981286,
				"z": -0.3876815264,
				"element": "N" 
			},
			{
				"x": -0.9151548075,
				"y": 0.9703719618,
				"z": 0.2834784558,
				"element": "C" 
			},
			{
				"x": 3.6661750753,
				"y": 0.935716795,
				"z": 0.9976014049,
				"element": "H" 
			},
			{
				"x": 5.0673436507,
				"y": -0.1346926369,
				"z": 0.9661046319,
				"element": "H" 
			},
			{
				"x": 4.595230896,
				"y": 0.643033939,
				"z": 2.4848180865,
				"element": "H" 
			},
			{
				"x": 3.8890719586,
				"y": -1.7638423563,
				"z": 2.4596691152,
				"element": "H" 
			},
			{
				"x": 2.50114029,
				"y": -0.6968682629,
				"z": 2.5755132332,
				"element": "H" 
			},
			{
				"x": 3.4865050995,
				"y": -1.9360635867,
				"z": -0.0538869232,
				"element": "H" 
			},
			{
				"x": 2.2449215758,
				"y": -2.6624149222,
				"z": 0.9703495978,
				"element": "H" 
			},
			{
				"x": 0.1818766029,
				"y": -1.9753334781,
				"z": 0.7359081516,
				"element": "H" 
			},
			{
				"x": -1.6565327091,
				"y": -1.0239683238,
				"z": -0.0373197859,
				"element": "H" 
			},
			{
				"x": -0.1416617714,
				"y": -1.0354816085,
				"z": -2.3586433262,
				"element": "H" 
			},
			{
				"x": -1.8489804468,
				"y": -0.6385616154,
				"z": -2.2531873713,
				"element": "H" 
			},
			{
				"x": -0.6395228042,
				"y": 1.1372528873,
				"z": -3.511071286,
				"element": "H" 
			},
			{
				"x": 0.4646729136,
				"y": 1.346002409,
				"z": -2.1560668954,
				"element": "H" 
			},
			{
				"x": -2.4716726193,
				"y": 2.1601744482,
				"z": -2.3692017253,
				"element": "H" 
			},
			{
				"x": -1.0978050561,
				"y": 3.1179511873,
				"z": -1.8359755663,
				"element": "H" 
			},
			{
				"x": -2.8060509461,
				"y": 1.3449918417,
				"z": -0.3622761607,
				"element": "H" 
			},
			{
				"x": -1.1820236623,
				"y": 0.8687065355,
				"z": 1.3416641334,
				"element": "H" 
			},
			{
				"x": 0.0571621559,
				"y": 1.468911592,
				"z": 0.2418823137,
				"element": "H" 
			}
		],
		 "valence_orbital": [ 
			{
				"type": "occ",
				"energy": -0.31705,
				"method": "rhf"
			},
			{
				"type": "occ",
				"energy": -0.30661,
				"method": "rhf"
			},
			{
				"type": "occ",
				"energy": -0.25604,
				"method": "rhf"
			},
			{
				"type": "occ",
				"energy": -0.23919,
				"method": "rhf"
			},
			{
				"type": "occ",
				"energy": -0.20431,
				"method": "rhf"
			},
			{
				"type": "unocc",
				"energy": 0.02729,
				"method": "rhf"
			},
			{
				"type": "unocc",
				"energy": 0.05804,
				"method": "rhf"
			},
			{
				"type": "unocc",
				"energy": 0.08137,
				"method": "rhf"
			},
			{
				"type": "unocc",
				"energy": 0.10663,
				"method": "rhf"
			},
			{
				"type": "unocc",
				"energy": 0.12943,
				"method": "rhf"
			}
		],
		"cosmo_sigma_profile": { 
			"-0.025": 0.0,
			"-0.024": 0.0,
			"-0.023": 0.0,
			"-0.022": 0.0,
			"-0.021": 0.0,
			"-0.02": 0.0,
			"-0.019": 0.0,
			"-0.018": 0.0,
			"-0.017": 0.0,
			"-0.016": 0.0,
			"-0.015": 0.0,
			"-0.014": 0.539210074279,
			"-0.013": 1.44033487693,
			"-0.012": 0.871867079499,
			"-0.011": 1.74013515217,
			"-0.01": 1.75641759174,
			"-0.009": 2.33866337331,
			"-0.008": 3.47859458862,
			"-0.007": 3.62748342296,
			"-0.006": 3.99078925871,
			"-0.005": 6.31869551959,
			"-0.004": 9.74491093436,
			"-0.003": 22.2995184289,
			"-0.002": 27.6716000617,
			"-0.001": 31.7951499258,
			"0.0": 32.8546398718,
			"0.001": 26.0074630715,
			"0.002": 13.2178195365,
			"0.003": 5.97222126721,
			"0.004": 4.44281023233,
			"0.005": 3.39384447967,
			"0.006": 2.45601729511,
			"0.007": 2.5021194897,
			"0.008": 2.2778235056,
			"0.009": 3.51114917495,
			"0.01": 2.72013005185,
			"0.011": 2.04537781188,
			"0.012": 2.13499250625,
			"0.013": 2.26227831433,
			"0.014": 2.29055476076,
			"0.015": 2.43380067766,
			"0.016": 0.617953091845,
			"0.017": 0.752824564905,
			"0.018": 0.416496247505,
			"0.019": 0.313233720981,
			"0.02": 0.0,
			"0.021": 0.0,
			"0.022": 0.0,
			"0.023": 0.0,
			"0.024": 0.0,
			"0.025": 0.0
		}
	}
}
