{
	 "smiles": "NC(=O)NCC1=C(F)C=CC=C1", 
	 "Tm": 421.15, 
	 "num_atms": 21, 
	 "gaussian": { 
		 "optdone": 1, 
		 "sigma_profile": "yes", 
		 "theory": "DFT", 
		 "functional": "B3LYP", 
		 "basiset": "6-31G**", 
		 "properties": { 
			 "R2extent": 2517.75, 
			 "electric_dipole_moment_norm": 3.69105039792, 
			 "electric_quadrupole_moment_norm": 10.3674664224, 
			 "total_energy": -594.863278802, 
			 "HOMO_LUMO_gap": 0.22566, 
			 "cosmo_polarized_energy": -14.02, 
			 "cosmo_cavitation_energy": 25.42, 
			 "cosmo_dispersion_energy": -18.34, 
			 "cosmo_repulsion_energy": 1.47, 
			 "cosmo_total_nonelectrostatic_energy": 8.54, 
			 "SMD_solvation_energy": 5.42 
		},
		"coords": [
			{
				"x": -1.6236564977,
				"y": 1.2104447966,
				"z": 0.1735721895,
				"element": "N" 
			},
			{
				"x": -1.276278757,
				"y": 1.4803278243,
				"z": 1.4887643377,
				"element": "C" 
			},
			{
				"x": -2.0812551681,
				"y": 1.8591042652,
				"z": 2.3286254993,
				"element": "O" 
			},
			{
				"x": 0.0681156606,
				"y": 1.3111562852,
				"z": 1.7828329477,
				"element": "N" 
			},
			{
				"x": 1.1360234629,
				"y": 1.2748003795,
				"z": 0.796446358,
				"element": "C" 
			},
			{
				"x": 1.4282620675,
				"y": -0.1103962069,
				"z": 0.2330943926,
				"element": "C" 
			},
			{
				"x": 2.2601823407,
				"y": -0.2359518285,
				"z": -0.8821299216,
				"element": "C" 
			},
			{
				"x": 2.7702933088,
				"y": 0.8967742009,
				"z": -1.4251956815,
				"element": "F" 
			},
			{
				"x": 2.5865577399,
				"y": -1.4583562123,
				"z": -1.4515923507,
				"element": "C" 
			},
			{
				"x": 2.0598563889,
				"y": -2.6210016113,
				"z": -0.8839341116,
				"element": "C" 
			},
			{
				"x": 1.2256945079,
				"y": -2.5362228462,
				"z": 0.2314443013,
				"element": "C" 
			},
			{
				"x": 0.9156349782,
				"y": -1.2899039447,
				"z": 0.7828481886,
				"element": "C" 
			},
			{
				"x": -2.6238526652,
				"y": 1.1697177507,
				"z": 0.0410211301,
				"element": "H" 
			},
			{
				"x": -1.0989263734,
				"y": 0.507118436,
				"z": -0.3288299852,
				"element": "H" 
			},
			{
				"x": 0.2911601829,
				"y": 1.6416212674,
				"z": 2.709704606,
				"element": "H" 
			},
			{
				"x": 0.9141296233,
				"y": 1.9580730263,
				"z": -0.032252126,
				"element": "H" 
			},
			{
				"x": 2.0432298578,
				"y": 1.6644536458,
				"z": 1.2716015329,
				"element": "H" 
			},
			{
				"x": 3.238179338,
				"y": -1.4842575573,
				"z": -2.3183515172,
				"element": "H" 
			},
			{
				"x": 2.3034752683,
				"y": -3.5869175251,
				"z": -1.3157073985,
				"element": "H" 
			},
			{
				"x": 0.8161311892,
				"y": -3.4384217651,
				"z": 0.6751710752,
				"element": "H" 
			},
			{
				"x": 0.2699435464,
				"y": -1.2141623804,
				"z": 1.6521665333,
				"element": "H" 
			}
		],
		 "valence_orbital": [ 
			{
				"type": "occ",
				"energy": -0.27229,
				"method": "rhf"
			},
			{
				"type": "occ",
				"energy": -0.26416,
				"method": "rhf"
			},
			{
				"type": "occ",
				"energy": -0.25678,
				"method": "rhf"
			},
			{
				"type": "occ",
				"energy": -0.25195,
				"method": "rhf"
			},
			{
				"type": "occ",
				"energy": -0.24339,
				"method": "rhf"
			},
			{
				"type": "unocc",
				"energy": -0.01773,
				"method": "rhf"
			},
			{
				"type": "unocc",
				"energy": -0.00938,
				"method": "rhf"
			},
			{
				"type": "unocc",
				"energy": 0.0572,
				"method": "rhf"
			},
			{
				"type": "unocc",
				"energy": 0.07574,
				"method": "rhf"
			},
			{
				"type": "unocc",
				"energy": 0.08128,
				"method": "rhf"
			}
		],
		"cosmo_sigma_profile": { 
			"-0.025": 0.0,
			"-0.024": 0.0,
			"-0.023": 0.0,
			"-0.022": 0.0,
			"-0.021": 0.0,
			"-0.02": 0.0,
			"-0.019": 0.0,
			"-0.018": 0.0,
			"-0.017": 0.0,
			"-0.016": 0.0,
			"-0.015": 0.0,
			"-0.014": 0.253683993523,
			"-0.013": 2.32792184778,
			"-0.012": 2.43382165398,
			"-0.011": 2.31298255626,
			"-0.01": 3.41557663657,
			"-0.009": 3.71497843804,
			"-0.008": 3.2810795017,
			"-0.007": 6.61553503578,
			"-0.006": 9.14926444978,
			"-0.005": 12.9255310935,
			"-0.004": 14.3170539568,
			"-0.003": 13.1902897857,
			"-0.002": 13.0368604124,
			"-0.001": 10.8768166397,
			"0.0": 12.247720271,
			"0.001": 14.193597481,
			"0.002": 13.2461590283,
			"0.003": 12.4650448856,
			"0.004": 17.6900889724,
			"0.005": 9.43500299941,
			"0.006": 1.95915461422,
			"0.007": 2.26595858427,
			"0.008": 1.52761621919,
			"0.009": 1.50361375328,
			"0.01": 1.61304529,
			"0.011": 1.94534344781,
			"0.012": 1.79423597797,
			"0.013": 1.47044042615,
			"0.014": 5.80318208964,
			"0.015": 4.58948365392,
			"0.016": 0.174428076355,
			"0.017": 0.0,
			"0.018": 0.0,
			"0.019": 0.0,
			"0.02": 0.0,
			"0.021": 0.0,
			"0.022": 0.0,
			"0.023": 0.0,
			"0.024": 0.0,
			"0.025": 0.0
		}
	}
}
