{
	 "smiles": "O=CC1=CN2C=CSC2=N1", 
	 "Tm": 344.15, 
	 "num_atms": 14, 
	 "gaussian": { 
		 "optdone": 1, 
		 "sigma_profile": "yes", 
		 "theory": "DFT", 
		 "functional": "B3LYP", 
		 "basiset": "6-31G**", 
		 "properties": { 
			 "R2extent": 2306.9005, 
			 "electric_dipole_moment_norm": 5.58139530404, 
			 "electric_quadrupole_moment_norm": 16.9198463752, 
			 "total_energy": -813.921446445, 
			 "HOMO_LUMO_gap": 0.18032, 
			 "cosmo_polarized_energy": -13.11, 
			 "cosmo_cavitation_energy": 20.92, 
			 "cosmo_dispersion_energy": -16.15, 
			 "cosmo_repulsion_energy": 1.24, 
			 "cosmo_total_nonelectrostatic_energy": 6.0, 
			 "SMD_solvation_energy": 3.53 
		},
		"coords": [
			{
				"x": 3.4431032561,
				"y": -0.3713655191,
				"z": 1.1216939391,
				"element": "O" 
			},
			{
				"x": 2.4133844453,
				"y": -0.7208263775,
				"z": 0.570740737,
				"element": "C" 
			},
			{
				"x": 1.0730935458,
				"y": -0.3430428149,
				"z": 1.0278758087,
				"element": "C" 
			},
			{
				"x": 0.76510694,
				"y": 0.4470935847,
				"z": 2.1247725303,
				"element": "C" 
			},
			{
				"x": -0.6073932005,
				"y": 0.5099272778,
				"z": 2.1359894029,
				"element": "N" 
			},
			{
				"x": -1.628418319,
				"y": 1.0843600149,
				"z": 2.8885399444,
				"element": "C" 
			},
			{
				"x": -2.8498612267,
				"y": 0.784376939,
				"z": 2.3966106893,
				"element": "C" 
			},
			{
				"x": -2.7956715419,
				"y": -0.2366890503,
				"z": 0.959645358,
				"element": "S" 
			},
			{
				"x": -1.0429599478,
				"y": -0.2426109453,
				"z": 1.0501409786,
				"element": "C" 
			},
			{
				"x": -0.0665050049,
				"y": -0.7699677971,
				"z": 0.3615037523,
				"element": "N" 
			},
			{
				"x": 2.4150732179,
				"y": -1.3626316262,
				"z": -0.3342012017,
				"element": "H" 
			},
			{
				"x": 1.3925094793,
				"y": 0.9371963956,
				"z": 2.8513225002,
				"element": "H" 
			},
			{
				"x": -1.3964487719,
				"y": 1.6886358623,
				"z": 3.7538206932,
				"element": "H" 
			},
			{
				"x": -3.8015128718,
				"y": 1.1044440559,
				"z": 2.7943448678,
				"element": "H" 
			}
		],
		 "valence_orbital": [ 
			{
				"type": "occ",
				"energy": -0.33792,
				"method": "rhf"
			},
			{
				"type": "occ",
				"energy": -0.29747,
				"method": "rhf"
			},
			{
				"type": "occ",
				"energy": -0.25146,
				"method": "rhf"
			},
			{
				"type": "occ",
				"energy": -0.24882,
				"method": "rhf"
			},
			{
				"type": "occ",
				"energy": -0.23497,
				"method": "rhf"
			},
			{
				"type": "unocc",
				"energy": -0.05465,
				"method": "rhf"
			},
			{
				"type": "unocc",
				"energy": -0.01314,
				"method": "rhf"
			},
			{
				"type": "unocc",
				"energy": -0.00496,
				"method": "rhf"
			},
			{
				"type": "unocc",
				"energy": 0.02941,
				"method": "rhf"
			},
			{
				"type": "unocc",
				"energy": 0.06532,
				"method": "rhf"
			}
		],
		"cosmo_sigma_profile": { 
			"-0.025": 0.0,
			"-0.024": 0.0,
			"-0.023": 0.0,
			"-0.022": 0.0,
			"-0.021": 0.0,
			"-0.02": 0.0,
			"-0.019": 0.0,
			"-0.018": 0.0,
			"-0.017": 0.0,
			"-0.016": 0.0,
			"-0.015": 0.0,
			"-0.014": 0.0,
			"-0.013": 0.0,
			"-0.012": 0.0,
			"-0.011": 2.63779811935,
			"-0.01": 7.76542127773,
			"-0.009": 5.12769879264,
			"-0.008": 5.36618737465,
			"-0.007": 4.61037384174,
			"-0.006": 6.59335224628,
			"-0.005": 6.6912046965,
			"-0.004": 6.51155721295,
			"-0.003": 9.37338790407,
			"-0.002": 13.7191806593,
			"-0.001": 13.7189987254,
			"0.0": 15.0821264269,
			"0.001": 16.757959641,
			"0.002": 13.4398186662,
			"0.003": 7.93795572574,
			"0.004": 4.56609565922,
			"0.005": 3.65570352973,
			"0.006": 2.71108295479,
			"0.007": 2.07465375564,
			"0.008": 3.30531782614,
			"0.009": 2.98850202301,
			"0.01": 2.85312627035,
			"0.011": 5.06942428464,
			"0.012": 5.0661872802,
			"0.013": 2.28539877295,
			"0.014": 1.02186132875,
			"0.015": 0.861719596544,
			"0.016": 0.261070649696,
			"0.017": 0.0,
			"0.018": 0.0,
			"0.019": 0.0,
			"0.02": 0.0,
			"0.021": 0.0,
			"0.022": 0.0,
			"0.023": 0.0,
			"0.024": 0.0,
			"0.025": 0.0
		}
	}
}
