{
	 "smiles": "BrC1=CC2=C(C=C1)N(CC1CO1)C1=C2C=C(Br)C=C1", 
	 "Tm": 416.15, 
	 "num_atms": 30, 
	 "gaussian": { 
		 "optdone": 1, 
		 "sigma_profile": "yes", 
		 "theory": "DFT", 
		 "functional": "B3LYP", 
		 "basiset": "6-31G**", 
		 "properties": { 
			 "R2extent": 12075.1264, 
			 "electric_dipole_moment_norm": 2.74321377585, 
			 "electric_quadrupole_moment_norm": 7.10848779699, 
			 "total_energy": -5850.98200237, 
			 "HOMO_LUMO_gap": 0.16265, 
			 "cosmo_polarized_energy": -12.26, 
			 "cosmo_cavitation_energy": 39.01, 
			 "cosmo_dispersion_energy": -28.33, 
			 "cosmo_repulsion_energy": 2.16, 
			 "cosmo_total_nonelectrostatic_energy": 12.84, 
			 "SMD_solvation_energy": 3.32 
		},
		"coords": [
			{
				"x": 4.7929647696,
				"y": -0.2330212775,
				"z": 1.3873806861,
				"element": "Br" 
			},
			{
				"x": 3.0932260676,
				"y": -0.8195564554,
				"z": 0.7305723528,
				"element": "C" 
			},
			{
				"x": 2.5348527671,
				"y": -0.1864938956,
				"z": -0.3727183012,
				"element": "C" 
			},
			{
				"x": 1.2906863782,
				"y": -0.6336293079,
				"z": -0.8310035098,
				"element": "C" 
			},
			{
				"x": 0.634541399,
				"y": -1.7066086109,
				"z": -0.1715338042,
				"element": "C" 
			},
			{
				"x": 1.2078976025,
				"y": -2.3337665968,
				"z": 0.9384622563,
				"element": "C" 
			},
			{
				"x": 2.4469411471,
				"y": -1.8805322219,
				"z": 1.3837709534,
				"element": "C" 
			},
			{
				"x": -0.5677723806,
				"y": -1.9729079612,
				"z": -0.8199422035,
				"element": "N" 
			},
			{
				"x": -1.5500075128,
				"y": -2.9662213037,
				"z": -0.42429692,
				"element": "C" 
			},
			{
				"x": -2.5825595675,
				"y": -2.4283812054,
				"z": 0.5528164219,
				"element": "C" 
			},
			{
				"x": -2.5279926763,
				"y": -2.7291557945,
				"z": 1.9900742736,
				"element": "C" 
			},
			{
				"x": -3.4420265823,
				"y": -3.4165055744,
				"z": 1.1240198874,
				"element": "O" 
			},
			{
				"x": -0.7078281787,
				"y": -1.0773567697,
				"z": -1.8763280294,
				"element": "C" 
			},
			{
				"x": 0.430442199,
				"y": -0.2300196548,
				"z": -1.9225558146,
				"element": "C" 
			},
			{
				"x": 0.5298333943,
				"y": 0.7540014038,
				"z": -2.912273923,
				"element": "C" 
			},
			{
				"x": -0.5082558466,
				"y": 0.8691401258,
				"z": -3.828413626,
				"element": "C" 
			},
			{
				"x": -0.4075889924,
				"y": 2.20563853,
				"z": -5.1951939966,
				"element": "Br" 
			},
			{
				"x": -1.6357849465,
				"y": 0.0344526049,
				"z": -3.7825590373,
				"element": "C" 
			},
			{
				"x": -1.7476204928,
				"y": -0.9481748284,
				"z": -2.8021100196,
				"element": "C" 
			},
			{
				"x": 3.0540157452,
				"y": 0.6306180583,
				"z": -0.8607808213,
				"element": "H" 
			},
			{
				"x": 0.714243563,
				"y": -3.1520004401,
				"z": 1.4518055622,
				"element": "H" 
			},
			{
				"x": 2.9179396918,
				"y": -2.346371832,
				"z": 2.2415198627,
				"element": "H" 
			},
			{
				"x": -1.038096941,
				"y": -3.8281952003,
				"z": 0.0136948286,
				"element": "H" 
			},
			{
				"x": -2.0580261598,
				"y": -3.3278855915,
				"z": -1.3245720394,
				"element": "H" 
			},
			{
				"x": -3.0838062061,
				"y": -1.5119309698,
				"z": 0.2346939264,
				"element": "H" 
			},
			{
				"x": -2.983054059,
				"y": -2.0432370452,
				"z": 2.7036483857,
				"element": "H" 
			},
			{
				"x": -1.7136719997,
				"y": -3.3371055036,
				"z": 2.3846646227,
				"element": "H" 
			},
			{
				"x": 1.389854453,
				"y": 1.4117548429,
				"z": -2.9681346213,
				"element": "H" 
			},
			{
				"x": -2.4241231015,
				"y": 0.1602018201,
				"z": -4.5155290987,
				"element": "H" 
			},
			{
				"x": -2.6259235334,
				"y": -1.5846493452,
				"z": -2.7709782539,
				"element": "H" 
			}
		],
		 "valence_orbital": [ 
			{
				"type": "occ",
				"energy": -0.28605,
				"method": "rhf"
			},
			{
				"type": "occ",
				"energy": -0.28249,
				"method": "rhf"
			},
			{
				"type": "occ",
				"energy": -0.25592,
				"method": "rhf"
			},
			{
				"type": "occ",
				"energy": -0.22952,
				"method": "rhf"
			},
			{
				"type": "occ",
				"energy": -0.21175,
				"method": "rhf"
			},
			{
				"type": "unocc",
				"energy": -0.0491,
				"method": "rhf"
			},
			{
				"type": "unocc",
				"energy": -0.0151,
				"method": "rhf"
			},
			{
				"type": "unocc",
				"energy": 0.00535,
				"method": "rhf"
			},
			{
				"type": "unocc",
				"energy": 0.00606,
				"method": "rhf"
			},
			{
				"type": "unocc",
				"energy": 0.00889,
				"method": "rhf"
			}
		],
		"cosmo_sigma_profile": { 
			"-0.025": 0.0,
			"-0.024": 0.0,
			"-0.023": 0.0,
			"-0.022": 0.0,
			"-0.021": 0.0,
			"-0.02": 0.0,
			"-0.019": 0.0,
			"-0.018": 0.0,
			"-0.017": 0.0,
			"-0.016": 0.0,
			"-0.015": 0.0,
			"-0.014": 0.0,
			"-0.013": 0.0,
			"-0.012": 0.0,
			"-0.011": 0.0,
			"-0.01": 0.0570807908983,
			"-0.009": 1.98471870621,
			"-0.008": 6.3025229879,
			"-0.007": 16.7811576723,
			"-0.006": 20.8158276196,
			"-0.005": 19.6343114423,
			"-0.004": 19.9948052875,
			"-0.003": 17.372527393,
			"-0.002": 17.901927224,
			"-0.001": 17.3340657542,
			"0.0": 18.2412342575,
			"0.001": 22.2248378429,
			"0.002": 27.6546911112,
			"0.003": 42.7707792967,
			"0.004": 33.2824407309,
			"0.005": 21.9941739553,
			"0.006": 2.82791535131,
			"0.007": 1.16449123007,
			"0.008": 1.25722254158,
			"0.009": 2.18953884563,
			"0.01": 2.35101091685,
			"0.011": 3.20278289105,
			"0.012": 2.11025285378,
			"0.013": 0.116604071359,
			"0.014": 0.0,
			"0.015": 0.0,
			"0.016": 0.0,
			"0.017": 0.0,
			"0.018": 0.0,
			"0.019": 0.0,
			"0.02": 0.0,
			"0.021": 0.0,
			"0.022": 0.0,
			"0.023": 0.0,
			"0.024": 0.0,
			"0.025": 0.0
		}
	}
}
