{
	 "smiles": "CC(=O)NC1=C(C(O)=O)C(C)=C(C)S1", 
	 "Tm": 491.15, 
	 "num_atms": 25, 
	 "gaussian": { 
		 "optdone": 1, 
		 "sigma_profile": "yes", 
		 "theory": "DFT", 
		 "functional": "B3LYP", 
		 "basiset": "6-31G**", 
		 "properties": { 
			 "R2extent": 4411.3804, 
			 "electric_dipole_moment_norm": 1.9194779733, 
			 "electric_quadrupole_moment_norm": 31.3561726349, 
			 "total_energy": -1028.22278163, 
			 "HOMO_LUMO_gap": 0.1678, 
			 "cosmo_polarized_energy": -19.13, 
			 "cosmo_cavitation_energy": 30.1, 
			 "cosmo_dispersion_energy": -22.34, 
			 "cosmo_repulsion_energy": 1.73, 
			 "cosmo_total_nonelectrostatic_energy": 9.49, 
			 "SMD_solvation_energy": 6.85 
		},
		"coords": [
			{
				"x": 1.1354139326,
				"y": 0.9258410498,
				"z": -3.7443060823,
				"element": "C" 
			},
			{
				"x": 1.0984927713,
				"y": 0.695771892,
				"z": -2.2461246079,
				"element": "C" 
			},
			{
				"x": 1.128134149,
				"y": 1.6043854869,
				"z": -1.4305839977,
				"element": "O" 
			},
			{
				"x": 1.0078057352,
				"y": -0.62976759,
				"z": -1.8604881554,
				"element": "N" 
			},
			{
				"x": 0.8630905169,
				"y": -1.0805498871,
				"z": -0.5482055735,
				"element": "C" 
			},
			{
				"x": 0.7590268926,
				"y": -2.4052927556,
				"z": -0.1486915301,
				"element": "C" 
			},
			{
				"x": 0.8244558975,
				"y": -3.5569687458,
				"z": -1.0749055907,
				"element": "C" 
			},
			{
				"x": 1.6587856044,
				"y": -3.3930408293,
				"z": -2.1686073759,
				"element": "O" 
			},
			{
				"x": 0.2037227009,
				"y": -4.5863649023,
				"z": -0.9640827215,
				"element": "O" 
			},
			{
				"x": 0.4998589142,
				"y": -2.5439452005,
				"z": 1.2704701437,
				"element": "C" 
			},
			{
				"x": 0.3380330006,
				"y": -3.8855371337,
				"z": 1.9346793168,
				"element": "C" 
			},
			{
				"x": 0.4531067107,
				"y": -1.3325170769,
				"z": 1.9053110251,
				"element": "C" 
			},
			{
				"x": 0.2583676394,
				"y": -1.0128614601,
				"z": 3.3593698899,
				"element": "C" 
			},
			{
				"x": 0.6833099866,
				"y": 0.011884042,
				"z": 0.7929986541,
				"element": "S" 
			},
			{
				"x": 1.875742322,
				"y": 1.6986949565,
				"z": -3.9599069957,
				"element": "H" 
			},
			{
				"x": 1.3709077185,
				"y": 0.0261030468,
				"z": -4.3190696815,
				"element": "H" 
			},
			{
				"x": 0.1604944305,
				"y": 1.302860685,
				"z": -4.0700916731,
				"element": "H" 
			},
			{
				"x": 0.9231311254,
				"y": -1.3385149851,
				"z": -2.5785344669,
				"element": "H" 
			},
			{
				"x": 2.3465291022,
				"y": -2.7491500945,
				"z": -1.940792508,
				"element": "H" 
			},
			{
				"x": 1.2253133528,
				"y": -4.5110406068,
				"z": 1.7865941212,
				"element": "H" 
			},
			{
				"x": -0.5028109671,
				"y": -4.4339449192,
				"z": 1.5029987373,
				"element": "H" 
			},
			{
				"x": 0.1767278538,
				"y": -3.7833529878,
				"z": 3.0093392644,
				"element": "H" 
			},
			{
				"x": -0.6083794998,
				"y": -0.3609804736,
				"z": 3.5181468591,
				"element": "H" 
			},
			{
				"x": 0.0945204012,
				"y": -1.9238664062,
				"z": 3.9384129219,
				"element": "H" 
			},
			{
				"x": 1.1319197086,
				"y": -0.5037451044,
				"z": 3.7834700267,
				"element": "H" 
			}
		],
		 "valence_orbital": [ 
			{
				"type": "occ",
				"energy": -0.3128,
				"method": "rhf"
			},
			{
				"type": "occ",
				"energy": -0.27921,
				"method": "rhf"
			},
			{
				"type": "occ",
				"energy": -0.27338,
				"method": "rhf"
			},
			{
				"type": "occ",
				"energy": -0.25198,
				"method": "rhf"
			},
			{
				"type": "occ",
				"energy": -0.21497,
				"method": "rhf"
			},
			{
				"type": "unocc",
				"energy": -0.04717,
				"method": "rhf"
			},
			{
				"type": "unocc",
				"energy": 0.00308,
				"method": "rhf"
			},
			{
				"type": "unocc",
				"energy": 0.02151,
				"method": "rhf"
			},
			{
				"type": "unocc",
				"energy": 0.03055,
				"method": "rhf"
			},
			{
				"type": "unocc",
				"energy": 0.04937,
				"method": "rhf"
			}
		],
		"cosmo_sigma_profile": { 
			"-0.025": 0.0,
			"-0.024": 0.0,
			"-0.023": 0.0,
			"-0.022": 0.0,
			"-0.021": 0.0,
			"-0.02": 0.0,
			"-0.019": 0.103041126692,
			"-0.018": 0.628748502788,
			"-0.017": 0.717655280918,
			"-0.016": 1.00124455236,
			"-0.015": 0.966708241983,
			"-0.014": 1.64705487172,
			"-0.013": 3.0179718662,
			"-0.012": 2.33747808128,
			"-0.011": 2.76343050307,
			"-0.01": 1.91730603156,
			"-0.009": 2.23030417605,
			"-0.008": 1.9396077476,
			"-0.007": 4.32916084709,
			"-0.006": 9.37414590866,
			"-0.005": 11.8453718427,
			"-0.004": 18.6464367067,
			"-0.003": 21.6206342741,
			"-0.002": 21.4241903875,
			"-0.001": 19.5904450141,
			"0.0": 18.50089733,
			"0.001": 12.1479399896,
			"0.002": 10.1634628625,
			"0.003": 12.6024065041,
			"0.004": 10.3264389884,
			"0.005": 6.46908741025,
			"0.006": 5.09504631872,
			"0.007": 4.55984566293,
			"0.008": 3.7161408919,
			"0.009": 5.65515262293,
			"0.01": 6.14304060896,
			"0.011": 8.26776099336,
			"0.012": 7.29103761258,
			"0.013": 3.34442511724,
			"0.014": 0.249731191385,
			"0.015": 0.0,
			"0.016": 0.0,
			"0.017": 0.0,
			"0.018": 0.0,
			"0.019": 0.0,
			"0.02": 0.0,
			"0.021": 0.0,
			"0.022": 0.0,
			"0.023": 0.0,
			"0.024": 0.0,
			"0.0": 0.0
		}
	}
}
