{
	 "smiles": "CC(=N/CCN)C1=C(O)C2=CC=CC=C2N(C2=CC=CC=C2)C1=O", 
	 "Tm": 573.15, 
	 "num_atms": 43, 
	 "gaussian": { 
		 "optdone": 1, 
		 "sigma_profile": "yes", 
		 "theory": "DFT", 
		 "functional": "B3LYP", 
		 "basiset": "6-31G**", 
		 "properties": { 
			 "R2extent": 9812.1458, 
			 "electric_dipole_moment_norm": 1.79662162127, 
			 "electric_quadrupole_moment_norm": 21.528330135, 
			 "total_energy": -1050.20897808, 
			 "HOMO_LUMO_gap": 0.15917, 
			 "cosmo_polarized_energy": -18.41, 
			 "cosmo_cavitation_energy": 45.64, 
			 "cosmo_dispersion_energy": -32.27, 
			 "cosmo_repulsion_energy": 2.45, 
			 "cosmo_total_nonelectrostatic_energy": 15.82, 
			 "SMD_solvation_energy": 6.28 
		},
		"coords": [
			{
				"x": -0.0724935532,
				"y": -0.1843033898,
				"z": 3.1192379959,
				"element": "C" 
			},
			{
				"x": -0.8669989775,
				"y": 0.4946113648,
				"z": 2.0367918671,
				"element": "C" 
			},
			{
				"x": -1.8163424977,
				"y": 1.3556061483,
				"z": 2.3982059582,
				"element": "N" 
			},
			{
				"x": -2.2077576353,
				"y": 1.742339356,
				"z": 3.7481391646,
				"element": "C" 
			},
			{
				"x": -3.37218092,
				"y": 2.7349488489,
				"z": 3.681652408,
				"element": "C" 
			},
			{
				"x": -3.7496288692,
				"y": 3.1283368059,
				"z": 5.038704302,
				"element": "N" 
			},
			{
				"x": -0.6519151741,
				"y": 0.2614065078,
				"z": 0.6440698735,
				"element": "C" 
			},
			{
				"x": -1.457086385,
				"y": 0.959011236,
				"z": -0.3387805637,
				"element": "C" 
			},
			{
				"x": -2.3622065653,
				"y": 1.783297537,
				"z": -0.0398302909,
				"element": "O" 
			},
			{
				"x": -1.1932978488,
				"y": 0.6810228804,
				"z": -1.7608980843,
				"element": "C" 
			},
			{
				"x": -1.9517972673,
				"y": 1.3359164086,
				"z": -2.7442211383,
				"element": "C" 
			},
			{
				"x": -1.7321318525,
				"y": 1.0991663097,
				"z": -4.092490346,
				"element": "C" 
			},
			{
				"x": -0.7345756842,
				"y": 0.1896007134,
				"z": -4.4688513416,
				"element": "C" 
			},
			{
				"x": 0.0296444643,
				"y": -0.471286431,
				"z": -3.5153806564,
				"element": "C" 
			},
			{
				"x": -0.1907090278,
				"y": -0.2330891402,
				"z": -2.1443214923,
				"element": "C" 
			},
			{
				"x": 0.5614911467,
				"y": -0.8820839588,
				"z": -1.161076928,
				"element": "N" 
			},
			{
				"x": 1.589703478,
				"y": -1.8198810834,
				"z": -1.542740752,
				"element": "C" 
			},
			{
				"x": 1.2734223104,
				"y": -3.1697614304,
				"z": -1.7056801904,
				"element": "C" 
			},
			{
				"x": 2.2650295585,
				"y": -4.0723415693,
				"z": -2.0914819521,
				"element": "C" 
			},
			{
				"x": 3.5696443844,
				"y": -3.6270786108,
				"z": -2.3143952018,
				"element": "C" 
			},
			{
				"x": 3.8820588384,
				"y": -2.2761347182,
				"z": -2.1492168541,
				"element": "C" 
			},
			{
				"x": 2.8929361113,
				"y": -1.370812613,
				"z": -1.7633752216,
				"element": "C" 
			},
			{
				"x": 0.3859889109,
				"y": -0.6848235815,
				"z": 0.2278675547,
				"element": "C" 
			},
			{
				"x": 1.1138183843,
				"y": -1.318535757,
				"z": 0.9947130128,
				"element": "O" 
			},
			{
				"x": -0.3890116278,
				"y": 0.1373609953,
				"z": 4.1111474781,
				"element": "H" 
			},
			{
				"x": -0.1679891946,
				"y": -1.2683561468,
				"z": 3.0335692366,
				"element": "H" 
			},
			{
				"x": 0.9925159827,
				"y": 0.0142609809,
				"z": 2.9862665767,
				"element": "H" 
			},
			{
				"x": -1.3632283969,
				"y": 2.2072383536,
				"z": 4.2755464269,
				"element": "H" 
			},
			{
				"x": -2.5209749933,
				"y": 0.8743734536,
				"z": 4.3385098054,
				"element": "H" 
			},
			{
				"x": -4.2306717074,
				"y": 2.239038275,
				"z": 3.2147943844,
				"element": "H" 
			},
			{
				"x": -3.0916066216,
				"y": 3.5726664878,
				"z": 3.0197994855,
				"element": "H" 
			},
			{
				"x": -4.6406297236,
				"y": 3.6158412581,
				"z": 5.0262121133,
				"element": "H" 
			},
			{
				"x": -3.0697479162,
				"y": 3.7839496429,
				"z": 5.4166571039,
				"element": "H" 
			},
			{
				"x": -2.3014850928,
				"y": 1.770446207,
				"z": 1.5732406691,
				"element": "H" 
			},
			{
				"x": -2.7116237046,
				"y": 2.0300157639,
				"z": -2.40212613,
				"element": "H" 
			},
			{
				"x": -2.3233634245,
				"y": 1.609929487,
				"z": -4.8460252346,
				"element": "H" 
			},
			{
				"x": -0.5487421794,
				"y": -0.0083719276,
				"z": -5.5209735698,
				"element": "H" 
			},
			{
				"x": 0.7960051946,
				"y": -1.1707423339,
				"z": -3.8242735452,
				"element": "H" 
			},
			{
				"x": 0.2563586721,
				"y": -3.5029872798,
				"z": -1.5250668932,
				"element": "H" 
			},
			{
				"x": 2.0184874269,
				"y": -5.122766137,
				"z": -2.2155408025,
				"element": "H" 
			},
			{
				"x": 4.3407119409,
				"y": -4.3308565147,
				"z": -2.6141630579,
				"element": "H" 
			},
			{
				"x": 4.8962090786,
				"y": -1.9261583474,
				"z": -2.3183152211,
				"element": "H" 
			},
			{
				"x": 3.1228709578,
				"y": -0.3188140513,
				"z": -1.627299949,
				"element": "H" 
			}
		],
		 "valence_orbital": [ 
			{
				"type": "occ",
				"energy": -0.24716,
				"method": "rhf"
			},
			{
				"type": "occ",
				"energy": -0.24689,
				"method": "rhf"
			},
			{
				"type": "occ",
				"energy": -0.2328,
				"method": "rhf"
			},
			{
				"type": "occ",
				"energy": -0.21585,
				"method": "rhf"
			},
			{
				"type": "occ",
				"energy": -0.20893,
				"method": "rhf"
			},
			{
				"type": "unocc",
				"energy": -0.04976,
				"method": "rhf"
			},
			{
				"type": "unocc",
				"energy": -0.00825,
				"method": "rhf"
			},
			{
				"type": "unocc",
				"energy": -0.00501,
				"method": "rhf"
			},
			{
				"type": "unocc",
				"energy": -0.00088,
				"method": "rhf"
			},
			{
				"type": "unocc",
				"energy": 0.01622,
				"method": "rhf"
			}
		],
		"cosmo_sigma_profile": { 
			"-0.025": 0.0,
			"-0.024": 0.0,
			"-0.023": 0.0,
			"-0.022": 0.0,
			"-0.021": 0.0,
			"-0.02": 0.0,
			"-0.019": 0.0,
			"-0.018": 0.0,
			"-0.017": 0.0,
			"-0.016": 0.0,
			"-0.015": 0.0,
			"-0.014": 0.0,
			"-0.013": 0.0,
			"-0.012": 0.0,
			"-0.011": 0.128795044044,
			"-0.01": 2.11465930129,
			"-0.009": 3.34876545275,
			"-0.008": 2.78812928582,
			"-0.007": 5.5065449837,
			"-0.006": 20.0636434775,
			"-0.005": 30.683143226,
			"-0.004": 37.2260010128,
			"-0.003": 31.9224602917,
			"-0.002": 29.4162942673,
			"-0.001": 28.8338180617,
			"0.0": 25.0303230662,
			"0.001": 26.775920055,
			"0.002": 22.0270073782,
			"0.003": 20.4468327861,
			"0.004": 19.5350473981,
			"0.005": 14.668254244,
			"0.006": 5.57058339723,
			"0.007": 4.79116483536,
			"0.008": 4.30315543583,
			"0.009": 3.82072705503,
			"0.01": 5.0810782442,
			"0.011": 2.29589081904,
			"0.012": 5.33310083933,
			"0.013": 4.47891277469,
			"0.014": 3.286533784,
			"0.015": 1.44308338872,
			"0.016": 0.635153579773,
			"0.017": 0.517123197005,
			"0.018": 0.474001055109,
			"0.019": 0.313286451842,
			"0.02": 0.0350079375445,
			"0.021": 0.0,
			"0.022": 0.0,
			"0.023": 0.0,
			"0.024": 0.0,
			"0.025": 0.0
		}
	}
}
