{
	 "smiles": "CN(C)S(=O)(=O)NC1=C(Br)C=CC=C1", 
	 "Tm": 352.15, 
	 "num_atms": 25, 
	 "gaussian": { 
		 "optdone": 1, 
		 "sigma_profile": "yes", 
		 "theory": "DFT", 
		 "functional": "B3LYP", 
		 "basiset": "6-31G**", 
		 "properties": { 
			 "R2extent": 4783.301, 
			 "electric_dipole_moment_norm": 5.81542637904, 
			 "electric_quadrupole_moment_norm": 11.9858847604, 
			 "total_energy": -3540.93389631, 
			 "HOMO_LUMO_gap": 0.21164, 
			 "cosmo_polarized_energy": -16.78, 
			 "cosmo_cavitation_energy": 31.68, 
			 "cosmo_dispersion_energy": -22.79, 
			 "cosmo_repulsion_energy": 1.75, 
			 "cosmo_total_nonelectrostatic_energy": 10.63, 
			 "SMD_solvation_energy": 3.76 
		},
		"coords": [
			{
				"x": 2.7306928058,
				"y": -2.1718863862,
				"z": -1.264318711,
				"element": "C" 
			},
			{
				"x": 1.4712382979,
				"y": -1.7360976104,
				"z": -0.6463987736,
				"element": "N" 
			},
			{
				"x": 0.2817568844,
				"y": -2.4233733405,
				"z": -1.1682931151,
				"element": "C" 
			},
			{
				"x": 1.5111090855,
				"y": -1.5249697692,
				"z": 1.0473777912,
				"element": "S" 
			},
			{
				"x": 0.3821092514,
				"y": -2.2460709315,
				"z": 1.6200551847,
				"element": "O" 
			},
			{
				"x": 2.8923745849,
				"y": -1.7121310917,
				"z": 1.4808305204,
				"element": "O" 
			},
			{
				"x": 1.2143883413,
				"y": 0.1283563332,
				"z": 1.3105422134,
				"element": "N" 
			},
			{
				"x": -0.0407889374,
				"y": 0.6920018831,
				"z": 0.9223273517,
				"element": "C" 
			},
			{
				"x": -1.0931131195,
				"y": 0.8090924767,
				"z": 1.8461563017,
				"element": "C" 
			},
			{
				"x": -0.8936118234,
				"y": 0.2333495098,
				"z": 3.6453125622,
				"element": "Br" 
			},
			{
				"x": -2.3057095957,
				"y": 1.3854534527,
				"z": 1.4638217961,
				"element": "C" 
			},
			{
				"x": -2.474997213,
				"y": 1.8670081139,
				"z": 0.1663985381,
				"element": "C" 
			},
			{
				"x": -1.4324262565,
				"y": 1.7740551336,
				"z": -0.7565220336,
				"element": "C" 
			},
			{
				"x": -0.229348439,
				"y": 1.1830912974,
				"z": -0.3775153961,
				"element": "C" 
			},
			{
				"x": 2.6584084475,
				"y": -1.9779707041,
				"z": -2.338791166,
				"element": "H" 
			},
			{
				"x": 3.5673227869,
				"y": -1.6046744026,
				"z": -0.8593598454,
				"element": "H" 
			},
			{
				"x": 2.9293149301,
				"y": -3.2416539935,
				"z": -1.1112455747,
				"element": "H" 
			},
			{
				"x": 0.310557745,
				"y": -3.5070762055,
				"z": -0.9927072157,
				"element": "H" 
			},
			{
				"x": -0.6197353923,
				"y": -2.0207417263,
				"z": -0.7094797364,
				"element": "H" 
			},
			{
				"x": 0.2379675361,
				"y": -2.2386751186,
				"z": -2.2458579667,
				"element": "H" 
			},
			{
				"x": 2.0199542976,
				"y": 0.6544091391,
				"z": 0.9833283141,
				"element": "H" 
			},
			{
				"x": -3.1054829533,
				"y": 1.4659434841,
				"z": 2.1909437123,
				"element": "H" 
			},
			{
				"x": -3.4201532367,
				"y": 2.3206689551,
				"z": -0.116197944,
				"element": "H" 
			},
			{
				"x": -1.555909706,
				"y": 2.1529929747,
				"z": -1.7662739608,
				"element": "H" 
			},
			{
				"x": 0.5845816787,
				"y": 1.0832985267,
				"z": -1.0891328466,
				"element": "H" 
			}
		],
		 "valence_orbital": [ 
			{
				"type": "occ",
				"energy": -0.306,
				"method": "rhf"
			},
			{
				"type": "occ",
				"energy": -0.27736,
				"method": "rhf"
			},
			{
				"type": "occ",
				"energy": -0.26503,
				"method": "rhf"
			},
			{
				"type": "occ",
				"energy": -0.25017,
				"method": "rhf"
			},
			{
				"type": "occ",
				"energy": -0.24235,
				"method": "rhf"
			},
			{
				"type": "unocc",
				"energy": -0.03071,
				"method": "rhf"
			},
			{
				"type": "unocc",
				"energy": -0.02256,
				"method": "rhf"
			},
			{
				"type": "unocc",
				"energy": 0.01042,
				"method": "rhf"
			},
			{
				"type": "unocc",
				"energy": 0.05233,
				"method": "rhf"
			},
			{
				"type": "unocc",
				"energy": 0.06946,
				"method": "rhf"
			}
		],
		"cosmo_sigma_profile": { 
			"-0.025": 0.0,
			"-0.024": 0.0,
			"-0.023": 0.0,
			"-0.022": 0.0,
			"-0.021": 0.0,
			"-0.02": 0.0,
			"-0.019": 0.0,
			"-0.018": 0.0,
			"-0.017": 0.0,
			"-0.016": 0.311253669718,
			"-0.015": 1.2314576583,
			"-0.014": 1.02879957657,
			"-0.013": 0.882834523806,
			"-0.012": 1.02045723799,
			"-0.011": 0.930072315196,
			"-0.01": 1.2459446133,
			"-0.009": 1.11794875145,
			"-0.008": 1.64589449171,
			"-0.007": 6.7498660574,
			"-0.006": 13.6561359323,
			"-0.005": 19.7999142943,
			"-0.004": 20.5219513074,
			"-0.003": 22.1825104449,
			"-0.002": 23.8627459175,
			"-0.001": 13.9029868223,
			"0.0": 12.2508627749,
			"0.001": 15.6478488209,
			"0.002": 18.2497908582,
			"0.003": 16.8462575852,
			"0.004": 12.8651243544,
			"0.005": 8.13999907446,
			"0.006": 6.99683191476,
			"0.007": 5.10806734254,
			"0.008": 5.17170005395,
			"0.009": 5.04739831055,
			"0.01": 10.1827461523,
			"0.011": 7.2711608525,
			"0.012": 0.599689504213,
			"0.013": 0.0,
			"0.014": 0.0,
			"0.015": 0.0,
			"0.016": 0.0,
			"0.017": 0.0,
			"0.018": 0.0,
			"0.019": 0.0,
			"0.02": 0.0,
			"0.021": 0.0,
			"0.022": 0.0,
			"0.023": 0.0,
			"0.024": 0.0,
			"0.025": 0.0
		}
	}
}
