{
	 "smiles": "COC1=CC2=C(NC3=C2C(=O)CCC3)C=C1", 
	 "Tm": 543.15, 
	 "num_atms": 29, 
	 "gaussian": { 
		 "optdone": 1, 
		 "sigma_profile": "yes", 
		 "theory": "DFT", 
		 "functional": "B3LYP", 
		 "basiset": "6-31G**", 
		 "properties": { 
			 "R2extent": 3981.1662, 
			 "electric_dipole_moment_norm": 4.61420442222, 
			 "electric_quadrupole_moment_norm": 13.9424243211, 
			 "total_energy": -708.431193991, 
			 "HOMO_LUMO_gap": 0.1746, 
			 "cosmo_polarized_energy": -17.5, 
			 "cosmo_cavitation_energy": 31.61, 
			 "cosmo_dispersion_energy": -23.55, 
			 "cosmo_repulsion_energy": 1.83, 
			 "cosmo_total_nonelectrostatic_energy": 9.89, 
			 "SMD_solvation_energy": 5.56 
		},
		"coords": [
			{
				"x": 4.2201396036,
				"y": 1.6207829433,
				"z": 0.659526038,
				"element": "C" 
			},
			{
				"x": 3.4460513533,
				"y": 2.1869868818,
				"z": -0.3849715937,
				"element": "O" 
			},
			{
				"x": 2.2082861833,
				"y": 1.6532425907,
				"z": -0.6227658428,
				"element": "C" 
			},
			{
				"x": 1.6597217669,
				"y": 0.5906707414,
				"z": 0.0931978648,
				"element": "C" 
			},
			{
				"x": 0.3756570957,
				"y": 0.1492900445,
				"z": -0.2648602604,
				"element": "C" 
			},
			{
				"x": -0.3231953687,
				"y": 0.7748957027,
				"z": -1.3227929302,
				"element": "C" 
			},
			{
				"x": -1.5565104905,
				"y": 0.1310098921,
				"z": -1.4503439699,
				"element": "N" 
			},
			{
				"x": -1.6544866674,
				"y": -0.8620047652,
				"z": -0.5162001576,
				"element": "C" 
			},
			{
				"x": -0.4876013997,
				"y": -0.89422201,
				"z": 0.2357691278,
				"element": "C" 
			},
			{
				"x": -0.2721137385,
				"y": -1.864178734,
				"z": 1.2978279407,
				"element": "C" 
			},
			{
				"x": 0.7452075455,
				"y": -1.907322548,
				"z": 1.9841727811,
				"element": "O" 
			},
			{
				"x": -1.4040892618,
				"y": -2.8843944349,
				"z": 1.4822525118,
				"element": "C" 
			},
			{
				"x": -2.7937258986,
				"y": -2.3473102977,
				"z": 1.0972664986,
				"element": "C" 
			},
			{
				"x": -2.8204745188,
				"y": -1.7801375959,
				"z": -0.3363740658,
				"element": "C" 
			},
			{
				"x": 0.2266030611,
				"y": 1.8409127841,
				"z": -2.0395341036,
				"element": "C" 
			},
			{
				"x": 1.4952863593,
				"y": 2.2705304899,
				"z": -1.6782671242,
				"element": "C" 
			},
			{
				"x": 5.1555361711,
				"y": 2.1826949409,
				"z": 0.6816490543,
				"element": "H" 
			},
			{
				"x": 4.4383289824,
				"y": 0.5610556031,
				"z": 0.4740245595,
				"element": "H" 
			},
			{
				"x": 3.7188090623,
				"y": 1.7131834307,
				"z": 1.6317224787,
				"element": "H" 
			},
			{
				"x": 2.1764774432,
				"y": 0.0968453507,
				"z": 0.9051309581,
				"element": "H" 
			},
			{
				"x": -2.2771307393,
				"y": 0.380417779,
				"z": -2.1096426473,
				"element": "H" 
			},
			{
				"x": -1.3805269095,
				"y": -3.2261966539,
				"z": 2.5209143112,
				"element": "H" 
			},
			{
				"x": -1.1567806772,
				"y": -3.7565109112,
				"z": 0.8586342799,
				"element": "H" 
			},
			{
				"x": -3.5448486257,
				"y": -3.1382380556,
				"z": 1.1962229648,
				"element": "H" 
			},
			{
				"x": -3.0765302514,
				"y": -1.5499600037,
				"z": 1.7951006746,
				"element": "H" 
			},
			{
				"x": -3.7668453564,
				"y": -1.2593444267,
				"z": -0.5292516157,
				"element": "H" 
			},
			{
				"x": -2.7644007307,
				"y": -2.6033325103,
				"z": -1.0648482708,
				"element": "H" 
			},
			{
				"x": -0.3105092655,
				"y": 2.3222979048,
				"z": -2.8518230192,
				"element": "H" 
			},
			{
				"x": 1.9735652718,
				"y": 3.0933358676,
				"z": -2.1987364426,
				"element": "H" 
			}
		],
		 "valence_orbital": [ 
			{
				"type": "occ",
				"energy": -0.29285,
				"method": "rhf"
			},
			{
				"type": "occ",
				"energy": -0.27188,
				"method": "rhf"
			},
			{
				"type": "occ",
				"energy": -0.22612,
				"method": "rhf"
			},
			{
				"type": "occ",
				"energy": -0.20862,
				"method": "rhf"
			},
			{
				"type": "occ",
				"energy": -0.19967,
				"method": "rhf"
			},
			{
				"type": "unocc",
				"energy": -0.02507,
				"method": "rhf"
			},
			{
				"type": "unocc",
				"energy": -0.00037,
				"method": "rhf"
			},
			{
				"type": "unocc",
				"energy": 0.03714,
				"method": "rhf"
			},
			{
				"type": "unocc",
				"energy": 0.0718,
				"method": "rhf"
			},
			{
				"type": "unocc",
				"energy": 0.08195,
				"method": "rhf"
			}
		],
		"cosmo_sigma_profile": { 
			"-0.025": 0.0,
			"-0.024": 0.0,
			"-0.023": 0.0,
			"-0.022": 0.0,
			"-0.021": 0.0,
			"-0.02": 0.0,
			"-0.019": 0.0,
			"-0.018": 0.0,
			"-0.017": 0.0552585693133,
			"-0.016": 1.17802161092,
			"-0.015": 1.85417978594,
			"-0.014": 0.437637457614,
			"-0.013": 1.78461103162,
			"-0.012": 1.1900230368,
			"-0.011": 1.27889152977,
			"-0.01": 1.9213596041,
			"-0.009": 0.892810017931,
			"-0.008": 1.48011426403,
			"-0.007": 3.10071381863,
			"-0.006": 6.30033909826,
			"-0.005": 19.3246526901,
			"-0.004": 26.0496861592,
			"-0.003": 29.6093007863,
			"-0.002": 24.5509222166,
			"-0.001": 18.0234219436,
			"0.0": 10.9532425844,
			"0.001": 8.56359139059,
			"0.002": 9.62966913427,
			"0.003": 12.3678074279,
			"0.004": 13.6711579163,
			"0.005": 18.789100073,
			"0.006": 10.4996532096,
			"0.007": 4.12475122688,
			"0.008": 3.71315996859,
			"0.009": 2.55137228124,
			"0.01": 3.08728705586,
			"0.011": 3.12350051063,
			"0.012": 2.56887163449,
			"0.013": 3.73022630162,
			"0.014": 2.85530252334,
			"0.015": 1.03229417572,
			"0.016": 0.0265529148659,
			"0.017": 0.0,
			"0.018": 0.0,
			"0.019": 0.0,
			"0.02": 0.0,
			"0.021": 0.0,
			"0.022": 0.0,
			"0.023": 0.0,
			"0.024": 0.0,
			"0.025": 0.0
		}
	}
}
