{
	 "smiles": "CS(=O)(=O)C1=CC(=CC=C1C(=O)C1=C(ON=C1)C1CC1)C(F)(F)F", 
	 "Tm": 413.15, 
	 "num_atms": 36, 
	 "gaussian": { 
		 "optdone": 1, 
		 "sigma_profile": "yes", 
		 "theory": "DFT", 
		 "functional": "B3LYP", 
		 "basiset": "6-31G**", 
		 "properties": { 
			 "R2extent": 9456.8996, 
			 "electric_dipole_moment_norm": 3.31356986647, 
			 "electric_quadrupole_moment_norm": 18.8419837955, 
			 "total_energy": -1632.03931687, 
			 "HOMO_LUMO_gap": 0.1817, 
			 "cosmo_polarized_energy": -19.4, 
			 "cosmo_cavitation_energy": 43.68, 
			 "cosmo_dispersion_energy": -28.75, 
			 "cosmo_repulsion_energy": 2.1, 
			 "cosmo_total_nonelectrostatic_energy": 17.03, 
			 "SMD_solvation_energy": 8.23 
		},
		"coords": [
			{
				"x": 4.2337824408,
				"y": -1.5441450844,
				"z": -1.0029331642,
				"element": "C" 
			},
			{
				"x": 3.398923267,
				"y": 0.004359354,
				"z": -0.6104068423,
				"element": "S" 
			},
			{
				"x": 4.3999619749,
				"y": 0.9400104046,
				"z": -0.0743863746,
				"element": "O" 
			},
			{
				"x": 2.5447504788,
				"y": 0.3859992807,
				"z": -1.7470144125,
				"element": "O" 
			},
			{
				"x": 2.2794854101,
				"y": -0.405816181,
				"z": 0.7588733694,
				"element": "C" 
			},
			{
				"x": 2.655379611,
				"y": 0.0185558002,
				"z": 2.0309900189,
				"element": "C" 
			},
			{
				"x": 1.7933034987,
				"y": -0.1891642252,
				"z": 3.1093758118,
				"element": "C" 
			},
			{
				"x": 0.5545007162,
				"y": -0.7987254812,
				"z": 2.9057132682,
				"element": "C" 
			},
			{
				"x": 0.1777141863,
				"y": -1.1978696506,
				"z": 1.6244629759,
				"element": "C" 
			},
			{
				"x": 1.0341375357,
				"y": -1.0138527388,
				"z": 0.5312043793,
				"element": "C" 
			},
			{
				"x": 0.6149215467,
				"y": -1.6038689598,
				"z": -0.8026820362,
				"element": "C" 
			},
			{
				"x": 1.223348111,
				"y": -2.5777954512,
				"z": -1.2352141928,
				"element": "O" 
			},
			{
				"x": -0.5748692601,
				"y": -1.0922349679,
				"z": -1.4761339772,
				"element": "C" 
			},
			{
				"x": -1.2638902145,
				"y": 0.1047477465,
				"z": -1.3746431865,
				"element": "C" 
			},
			{
				"x": -2.2853693502,
				"y": 0.0931933704,
				"z": -2.2447056717,
				"element": "O" 
			},
			{
				"x": -2.3001100394,
				"y": -1.1282819187,
				"z": -2.9661664878,
				"element": "N" 
			},
			{
				"x": -1.2782935956,
				"y": -1.7929789725,
				"z": -2.5070328316,
				"element": "C" 
			},
			{
				"x": -1.0768490839,
				"y": 1.3236686077,
				"z": -0.5860851849,
				"element": "C" 
			},
			{
				"x": -1.4870849091,
				"y": 2.6688789688,
				"z": -1.1716780966,
				"element": "C" 
			},
			{
				"x": -2.2915329116,
				"y": 2.0828363563,
				"z": -0.0578438661,
				"element": "C" 
			},
			{
				"x": 2.1711094455,
				"y": 0.3093576673,
				"z": 4.4813789267,
				"element": "C" 
			},
			{
				"x": 3.5076919669,
				"y": 0.3305749854,
				"z": 4.6540879379,
				"element": "F" 
			},
			{
				"x": 1.6403758899,
				"y": -0.4655603689,
				"z": 5.4516521752,
				"element": "F" 
			},
			{
				"x": 1.7202261199,
				"y": 1.5666193865,
				"z": 4.6874098645,
				"element": "F" 
			},
			{
				"x": 4.8649418955,
				"y": -1.3331547818,
				"z": -1.8689741847,
				"element": "H" 
			},
			{
				"x": 4.8460901426,
				"y": -1.8338278075,
				"z": -0.147656868,
				"element": "H" 
			},
			{
				"x": 3.4775432034,
				"y": -2.2946998429,
				"z": -1.234718362,
				"element": "H" 
			},
			{
				"x": 3.6092708659,
				"y": 0.5166976868,
				"z": 2.1635350402,
				"element": "H" 
			},
			{
				"x": -0.1119661957,
				"y": -0.962881396,
				"z": 3.7455457519,
				"element": "H" 
			},
			{
				"x": -0.7887738691,
				"y": -1.6671288172,
				"z": 1.4684189433,
				"element": "H" 
			},
			{
				"x": -1.0514148703,
				"y": -2.77523487,
				"z": -2.9002563731,
				"element": "H" 
			},
			{
				"x": -0.1912180305,
				"y": 1.3150143282,
				"z": 0.0356965617,
				"element": "H" 
			},
			{
				"x": -0.8271917107,
				"y": 3.5041134634,
				"z": -0.9619904355,
				"element": "H" 
			},
			{
				"x": -1.9136781301,
				"y": 2.6578559582,
				"z": -2.1686764342,
				"element": "H" 
			},
			{
				"x": -3.2668431586,
				"y": 1.6722506336,
				"z": -0.2975641782,
				"element": "H" 
			},
			{
				"x": -2.2033729778,
				"y": 2.5080875166,
				"z": 0.936818136,
				"element": "H" 
			}
		],
		 "valence_orbital": [ 
			{
				"type": "occ",
				"energy": -0.30413,
				"method": "rhf"
			},
			{
				"type": "occ",
				"energy": -0.29859,
				"method": "rhf"
			},
			{
				"type": "occ",
				"energy": -0.29477,
				"method": "rhf"
			},
			{
				"type": "occ",
				"energy": -0.27634,
				"method": "rhf"
			},
			{
				"type": "occ",
				"energy": -0.26236,
				"method": "rhf"
			},
			{
				"type": "unocc",
				"energy": -0.08066,
				"method": "rhf"
			},
			{
				"type": "unocc",
				"energy": -0.05804,
				"method": "rhf"
			},
			{
				"type": "unocc",
				"energy": -0.05124,
				"method": "rhf"
			},
			{
				"type": "unocc",
				"energy": -0.02128,
				"method": "rhf"
			},
			{
				"type": "unocc",
				"energy": 0.05088,
				"method": "rhf"
			}
		],
		"cosmo_sigma_profile": { 
			"-0.025": 0.0,
			"-0.024": 0.0,
			"-0.023": 0.0,
			"-0.022": 0.0,
			"-0.021": 0.0,
			"-0.02": 0.0,
			"-0.019": 0.0,
			"-0.018": 0.0,
			"-0.017": 0.0,
			"-0.016": 0.0,
			"-0.015": 0.0,
			"-0.014": 0.0,
			"-0.013": 0.0,
			"-0.012": 0.0,
			"-0.011": 0.174982690795,
			"-0.01": 1.59655463143,
			"-0.009": 7.31244695514,
			"-0.008": 9.9666754423,
			"-0.007": 11.9381204843,
			"-0.006": 20.2772104926,
			"-0.005": 20.3648892483,
			"-0.004": 23.0403123586,
			"-0.003": 23.9273077217,
			"-0.002": 26.8607483332,
			"-0.001": 31.9446937211,
			"0.0": 26.6602031551,
			"0.001": 18.7301600656,
			"0.002": 33.9784886641,
			"0.003": 25.1735470542,
			"0.004": 6.98003600652,
			"0.005": 6.22554876854,
			"0.006": 8.32651565737,
			"0.007": 7.6400167575,
			"0.008": 6.49750730806,
			"0.009": 7.1863737184,
			"0.01": 9.96280651229,
			"0.011": 9.4593620887,
			"0.012": 5.39808251351,
			"0.013": 0.866922354727,
			"0.014": 0.0444354607953,
			"0.015": 0.0,
			"0.016": 0.0,
			"0.017": 0.0,
			"0.018": 0.0,
			"0.019": 0.0,
			"0.02": 0.0,
			"0.021": 0.0,
			"0.022": 0.0,
			"0.023": 0.0,
			"0.024": 0.0,
			"0.025": 0.0
		}
	}
}
