{
	 "smiles": "CN1C=CC(=N1)S(Cl)(=O)=O", 
	 "Tm": 310.65, 
	 "num_atms": 15, 
	 "gaussian": { 
		 "optdone": 1, 
		 "sigma_profile": "yes", 
		 "theory": "DFT", 
		 "functional": "B3LYP", 
		 "basiset": "6-31G**", 
		 "properties": { 
			 "R2extent": 3549.9405, 
			 "electric_dipole_moment_norm": 7.34074666298, 
			 "electric_quadrupole_moment_norm": 14.7749778731, 
			 "total_energy": -1273.6632417, 
			 "HOMO_LUMO_gap": 0.20856, 
			 "cosmo_polarized_energy": -13.74, 
			 "cosmo_cavitation_energy": 23.19, 
			 "cosmo_dispersion_energy": -17.7, 
			 "cosmo_repulsion_energy": 1.41, 
			 "cosmo_total_nonelectrostatic_energy": 6.9, 
			 "SMD_solvation_energy": 2.48 
		},
		"coords": [
			{
				"x": 0.4395008788,
				"y": 0.2091948599,
				"z": 2.4407560688,
				"element": "C" 
			},
			{
				"x": 0.7608079195,
				"y": -0.2519862839,
				"z": 1.0984458801,
				"element": "N" 
			},
			{
				"x": 0.3348019484,
				"y": -1.3841095679,
				"z": 0.4723336439,
				"element": "C" 
			},
			{
				"x": 0.9015744374,
				"y": -1.3936513352,
				"z": -0.7864483739,
				"element": "C" 
			},
			{
				"x": 1.657515051,
				"y": -0.201912354,
				"z": -0.8026632188,
				"element": "C" 
			},
			{
				"x": 1.5753362243,
				"y": 0.4869592484,
				"z": 0.3283664977,
				"element": "N" 
			},
			{
				"x": 2.6301373512,
				"y": 0.3365041289,
				"z": -2.1966103289,
				"element": "S" 
			},
			{
				"x": 3.4459029225,
				"y": 2.1450317631,
				"z": -1.4912065342,
				"element": "Cl" 
			},
			{
				"x": 3.7361476544,
				"y": -0.5945413008,
				"z": -2.3849836308,
				"element": "O" 
			},
			{
				"x": 1.7318760648,
				"y": 0.66517137,
				"z": -3.2969231133,
				"element": "O" 
			},
			{
				"x": 1.3540638488,
				"y": 0.2986532146,
				"z": 3.0308951772,
				"element": "H" 
			},
			{
				"x": -0.053827751,
				"y": 1.1822255685,
				"z": 2.390358331,
				"element": "H" 
			},
			{
				"x": -0.228017566,
				"y": -0.5153706284,
				"z": 2.90849314,
				"element": "H" 
			},
			{
				"x": -0.3270789699,
				"y": -2.0855921567,
				"z": 0.9587287178,
				"element": "H" 
			},
			{
				"x": 0.7908599861,
				"y": -2.1330765267,
				"z": -1.5635422567,
				"element": "H" 
			}
		],
		 "valence_orbital": [ 
			{
				"type": "occ",
				"energy": -0.33481,
				"method": "rhf"
			},
			{
				"type": "occ",
				"energy": -0.31802,
				"method": "rhf"
			},
			{
				"type": "occ",
				"energy": -0.30682,
				"method": "rhf"
			},
			{
				"type": "occ",
				"energy": -0.28679,
				"method": "rhf"
			},
			{
				"type": "occ",
				"energy": -0.28056,
				"method": "rhf"
			},
			{
				"type": "unocc",
				"energy": -0.072,
				"method": "rhf"
			},
			{
				"type": "unocc",
				"energy": -0.02542,
				"method": "rhf"
			},
			{
				"type": "unocc",
				"energy": 0.01492,
				"method": "rhf"
			},
			{
				"type": "unocc",
				"energy": 0.04472,
				"method": "rhf"
			},
			{
				"type": "unocc",
				"energy": 0.06482,
				"method": "rhf"
			}
		],
		"cosmo_sigma_profile": { 
			"-0.025": 0.0,
			"-0.024": 0.0,
			"-0.023": 0.0,
			"-0.022": 0.0,
			"-0.021": 0.0,
			"-0.02": 0.0,
			"-0.019": 0.0,
			"-0.018": 0.0,
			"-0.017": 0.0,
			"-0.016": 0.0,
			"-0.015": 0.0,
			"-0.014": 0.0,
			"-0.013": 0.0,
			"-0.012": 0.0,
			"-0.011": 1.50829870503,
			"-0.01": 4.66153398518,
			"-0.009": 4.74119696559,
			"-0.008": 5.64382940322,
			"-0.007": 8.76360871835,
			"-0.006": 9.82238872029,
			"-0.005": 10.1258143914,
			"-0.004": 13.2076673051,
			"-0.003": 8.67733212258,
			"-0.002": 8.52758975988,
			"-0.001": 10.0889984181,
			"0.0": 12.638198765,
			"0.001": 12.4696419751,
			"0.002": 16.3591031437,
			"0.003": 14.6631135425,
			"0.004": 6.02486821848,
			"0.005": 4.74161481584,
			"0.006": 4.686885807,
			"0.007": 6.39179941783,
			"0.008": 14.0846853063,
			"0.009": 8.02569915684,
			"0.01": 1.31910248206,
			"0.011": 1.19310876525,
			"0.012": 0.341909045254,
			"0.013": 0.0,
			"0.014": 0.0,
			"0.015": 0.0,
			"0.016": 0.0,
			"0.017": 0.0,
			"0.018": 0.0,
			"0.019": 0.0,
			"0.02": 0.0,
			"0.021": 0.0,
			"0.022": 0.0,
			"0.023": 0.0,
			"0.024": 0.0,
			"0.025": 0.0
		}
	}
}
