{
	 "smiles": "CCNC(=O)NC1=C(N)C=CC(F)=C1", 
	 "Tm": 421.15, 
	 "num_atms": 26, 
	 "gaussian": { 
		 "optdone": 1, 
		 "sigma_profile": "yes", 
		 "theory": "DFT", 
		 "functional": "B3LYP", 
		 "basiset": "6-31G**", 
		 "properties": { 
			 "R2extent": 4026.4523, 
			 "electric_dipole_moment_norm": 3.12129657354, 
			 "electric_quadrupole_moment_norm": 17.4443280948, 
			 "total_energy": -689.536529167, 
			 "HOMO_LUMO_gap": 0.18287, 
			 "cosmo_polarized_energy": -17.49, 
			 "cosmo_cavitation_energy": 30.09, 
			 "cosmo_dispersion_energy": -21.92, 
			 "cosmo_repulsion_energy": 1.73, 
			 "cosmo_total_nonelectrostatic_energy": 9.9, 
			 "SMD_solvation_energy": 5.26 
		},
		"coords": [
			{
				"x": -3.6931653048,
				"y": -1.9550098342,
				"z": 1.5356130579,
				"element": "C" 
			},
			{
				"x": -2.3700589804,
				"y": -2.5417919937,
				"z": 1.0359124474,
				"element": "C" 
			},
			{
				"x": -1.2156709774,
				"y": -1.6794668954,
				"z": 1.2713167529,
				"element": "N" 
			},
			{
				"x": -0.915175178,
				"y": -0.6664751079,
				"z": 0.3868465337,
				"element": "C" 
			},
			{
				"x": -1.493763232,
				"y": -0.5456469341,
				"z": -0.6959188584,
				"element": "O" 
			},
			{
				"x": 0.117952478,
				"y": 0.1561744447,
				"z": 0.7923733523,
				"element": "N" 
			},
			{
				"x": 0.5441465098,
				"y": 1.3632573097,
				"z": 0.1674050651,
				"element": "C" 
			},
			{
				"x": 0.892578818,
				"y": 1.4311933338,
				"z": -1.2044723615,
				"element": "C" 
			},
			{
				"x": 0.8152502886,
				"y": 0.3111010395,
				"z": -2.0290052186,
				"element": "N" 
			},
			{
				"x": 1.3962161145,
				"y": 2.6543567646,
				"z": -1.6855546827,
				"element": "C" 
			},
			{
				"x": 1.5850115598,
				"y": 3.7610609265,
				"z": -0.862605783,
				"element": "C" 
			},
			{
				"x": 1.2365828815,
				"y": 3.6569596901,
				"z": 0.4768545318,
				"element": "C" 
			},
			{
				"x": 1.3973681669,
				"y": 4.7214679823,
				"z": 1.2988754525,
				"element": "F" 
			},
			{
				"x": 0.7110557301,
				"y": 2.4820908514,
				"z": 0.9921080923,
				"element": "C" 
			},
			{
				"x": -3.6645236522,
				"y": -1.7647068282,
				"z": 2.6145257628,
				"element": "H" 
			},
			{
				"x": -4.5182682262,
				"y": -2.6479629905,
				"z": 1.3391204308,
				"element": "H" 
			},
			{
				"x": -3.9068301536,
				"y": -1.0131472341,
				"z": 1.0229480955,
				"element": "H" 
			},
			{
				"x": -2.4183023618,
				"y": -2.7105315843,
				"z": -0.0415709973,
				"element": "H" 
			},
			{
				"x": -2.1680302185,
				"y": -3.5058371558,
				"z": 1.5156580274,
				"element": "H" 
			},
			{
				"x": -0.8991025518,
				"y": -1.5939341566,
				"z": 2.2267369667,
				"element": "H" 
			},
			{
				"x": 0.4944515686,
				"y": 0.0042971881,
				"z": 1.7171726307,
				"element": "H" 
			},
			{
				"x": -0.0364633015,
				"y": -0.2268465359,
				"z": -1.8725883519,
				"element": "H" 
			},
			{
				"x": 0.9441580395,
				"y": 0.5334152977,
				"z": -3.0077705523,
				"element": "H" 
			},
			{
				"x": 1.6651275988,
				"y": 2.7228391812,
				"z": -2.7366003556,
				"element": "H" 
			},
			{
				"x": 1.9873851789,
				"y": 4.6911792564,
				"z": -1.2485818744,
				"element": "H" 
			},
			{
				"x": 0.429669205,
				"y": 2.4384639849,
				"z": 2.0396018358,
				"element": "H" 
			}
		],
		 "valence_orbital": [ 
			{
				"type": "occ",
				"energy": -0.28896,
				"method": "rhf"
			},
			{
				"type": "occ",
				"energy": -0.2712,
				"method": "rhf"
			},
			{
				"type": "occ",
				"energy": -0.25858,
				"method": "rhf"
			},
			{
				"type": "occ",
				"energy": -0.23376,
				"method": "rhf"
			},
			{
				"type": "occ",
				"energy": -0.18982,
				"method": "rhf"
			},
			{
				"type": "unocc",
				"energy": -0.00695,
				"method": "rhf"
			},
			{
				"type": "unocc",
				"energy": 0.02573,
				"method": "rhf"
			},
			{
				"type": "unocc",
				"energy": 0.05153,
				"method": "rhf"
			},
			{
				"type": "unocc",
				"energy": 0.05717,
				"method": "rhf"
			},
			{
				"type": "unocc",
				"energy": 0.09358,
				"method": "rhf"
			}
		],
		"cosmo_sigma_profile": { 
			"-0.025": 0.0,
			"-0.024": 0.0,
			"-0.023": 0.0,
			"-0.022": 0.0,
			"-0.021": 0.0,
			"-0.02": 0.0,
			"-0.019": 0.0,
			"-0.018": 0.389424336997,
			"-0.017": 0.8231383891,
			"-0.016": 1.60044332783,
			"-0.015": 2.00893689577,
			"-0.014": 1.75881447435,
			"-0.013": 1.80849447755,
			"-0.012": 2.39287018718,
			"-0.011": 3.19574100949,
			"-0.01": 2.82905277969,
			"-0.009": 3.51631488941,
			"-0.008": 4.46842134641,
			"-0.007": 5.57546916628,
			"-0.006": 7.77140350459,
			"-0.005": 7.89792278016,
			"-0.004": 12.1455484202,
			"-0.003": 15.0786648336,
			"-0.002": 16.2838004543,
			"-0.001": 17.1648774368,
			"0.0": 15.9048825305,
			"0.001": 15.6688315524,
			"0.002": 14.7888756922,
			"0.003": 15.0884589344,
			"0.004": 18.6023973128,
			"0.005": 22.6256378915,
			"0.006": 5.88784709774,
			"0.007": 3.74094589452,
			"0.008": 3.13298898596,
			"0.009": 2.68088428178,
			"0.01": 2.09623130566,
			"0.011": 2.08767493891,
			"0.012": 2.5605546851,
			"0.013": 3.20689289553,
			"0.014": 2.20842322966,
			"0.015": 0.58442738166,
			"0.016": 0.300878428055,
			"0.017": 0.0,
			"0.018": 0.0,
			"0.019": 0.0,
			"0.02": 0.0,
			"0.021": 0.0,
			"0.022": 0.0,
			"0.023": 0.0,
			"0.024": 0.0,
			"0.025": 0.0
		}
	}
}
