{
	 "smiles": "COC(=O)C1=C(N2C=CC=C2)C(=CS1)C#N", 
	 "Tm": 361.65, 
	 "num_atms": 24, 
	 "gaussian": { 
		 "optdone": 1, 
		 "sigma_profile": "yes", 
		 "theory": "DFT", 
		 "functional": "B3LYP", 
		 "basiset": "6-31G**", 
		 "properties": { 
			 "R2extent": 4023.9856, 
			 "electric_dipole_moment_norm": 4.99736459046, 
			 "electric_quadrupole_moment_norm": 10.607454739, 
			 "total_energy": -1082.07922371, 
			 "HOMO_LUMO_gap": 0.13326, 
			 "cosmo_polarized_energy": -14.4, 
			 "cosmo_cavitation_energy": 31.5, 
			 "cosmo_dispersion_energy": -22.45, 
			 "cosmo_repulsion_energy": 1.7, 
			 "cosmo_total_nonelectrostatic_energy": 10.75, 
			 "SMD_solvation_energy": 8.71 
		},
		"coords": [
			{
				"x": 3.7065419885,
				"y": -1.8213903266,
				"z": -0.2245323547,
				"element": "C" 
			},
			{
				"x": 2.9312354305,
				"y": -0.7654841257,
				"z": 0.3674461933,
				"element": "O" 
			},
			{
				"x": 1.6037749482,
				"y": -0.7940870977,
				"z": 0.091099203,
				"element": "C" 
			},
			{
				"x": 1.0840968863,
				"y": -1.6432001129,
				"z": -0.6022531533,
				"element": "O" 
			},
			{
				"x": 0.9238951598,
				"y": 0.3419700195,
				"z": 0.7407146663,
				"element": "C" 
			},
			{
				"x": -0.3988446488,
				"y": 0.7556311868,
				"z": 0.647103337,
				"element": "C" 
			},
			{
				"x": -1.4357641157,
				"y": 0.0936099277,
				"z": -0.0177250109,
				"element": "N" 
			},
			{
				"x": -1.7372055889,
				"y": -1.2635994747,
				"z": 0.0572049685,
				"element": "C" 
			},
			{
				"x": -2.8741730814,
				"y": -1.4872629619,
				"z": -0.6701892856,
				"element": "C" 
			},
			{
				"x": -3.291919753,
				"y": -0.2348337281,
				"z": -1.2225556782,
				"element": "C" 
			},
			{
				"x": -2.4047943667,
				"y": 0.7192847532,
				"z": -0.8043455279,
				"element": "C" 
			},
			{
				"x": -0.6161897254,
				"y": 1.9986134976,
				"z": 1.3540127622,
				"element": "C" 
			},
			{
				"x": 0.5302957885,
				"y": 2.4787432791,
				"z": 1.9482802448,
				"element": "C" 
			},
			{
				"x": 1.8779555216,
				"y": 1.4600726501,
				"z": 1.6911012746,
				"element": "S" 
			},
			{
				"x": -1.8683510538,
				"y": 2.6675011638,
				"z": 1.4971974751,
				"element": "C" 
			},
			{
				"x": -2.865410874,
				"y": 3.248965174,
				"z": 1.6430845678,
				"element": "N" 
			},
			{
				"x": 3.6424342326,
				"y": -1.7779382384,
				"z": -1.3143273469,
				"element": "H" 
			},
			{
				"x": 4.7304045862,
				"y": -1.6524442722,
				"z": 0.1073177254,
				"element": "H" 
			},
			{
				"x": 3.3469478115,
				"y": -2.7961653454,
				"z": 0.1135505761,
				"element": "H" 
			},
			{
				"x": -1.1053190759,
				"y": -1.9333500603,
				"z": 0.6146853482,
				"element": "H" 
			},
			{
				"x": -3.3595346089,
				"y": -2.4446754065,
				"z": -0.7958900201,
				"element": "H" 
			},
			{
				"x": -4.1470769449,
				"y": -0.0595431364,
				"z": -1.8597790956,
				"element": "H" 
			},
			{
				"x": -2.3526532394,
				"y": 1.7770220067,
				"z": -1.0067384498,
				"element": "H" 
			},
			{
				"x": 0.614754723,
				"y": 3.3753606281,
				"z": 2.5465375804,
				"element": "H" 
			}
		],
		 "valence_orbital": [ 
			{
				"type": "occ",
				"energy": -0.29436,
				"method": "rhf"
			},
			{
				"type": "occ",
				"energy": -0.29318,
				"method": "rhf"
			},
			{
				"type": "occ",
				"energy": -0.27235,
				"method": "rhf"
			},
			{
				"type": "occ",
				"energy": -0.23531,
				"method": "rhf"
			},
			{
				"type": "occ",
				"energy": -0.2129,
				"method": "rhf"
			},
			{
				"type": "unocc",
				"energy": -0.07964,
				"method": "rhf"
			},
			{
				"type": "unocc",
				"energy": -0.03903,
				"method": "rhf"
			},
			{
				"type": "unocc",
				"energy": -0.01019,
				"method": "rhf"
			},
			{
				"type": "unocc",
				"energy": 0.03329,
				"method": "rhf"
			},
			{
				"type": "unocc",
				"energy": 0.03879,
				"method": "rhf"
			}
		],
		"cosmo_sigma_profile": { 
			"-0.025": 0.0,
			"-0.024": 0.0,
			"-0.023": 0.0,
			"-0.022": 0.0,
			"-0.021": 0.0,
			"-0.02": 0.0,
			"-0.019": 0.0,
			"-0.018": 0.0,
			"-0.017": 0.0,
			"-0.016": 0.0,
			"-0.015": 0.0,
			"-0.014": 0.0,
			"-0.013": 0.0,
			"-0.012": 0.956837829186,
			"-0.011": 2.93975114837,
			"-0.01": 2.13258225187,
			"-0.009": 2.17507349785,
			"-0.008": 3.39934539051,
			"-0.007": 6.87143389496,
			"-0.006": 13.62843459,
			"-0.005": 16.1921011767,
			"-0.004": 20.4457849676,
			"-0.003": 23.8258183696,
			"-0.002": 25.9726280671,
			"-0.001": 21.7699444421,
			"0.0": 15.9468080828,
			"0.001": 13.5167375466,
			"0.002": 10.1692538659,
			"0.003": 9.75505760461,
			"0.004": 10.6261075897,
			"0.005": 10.971053646,
			"0.006": 8.74045652171,
			"0.007": 9.37256926178,
			"0.008": 6.45324660311,
			"0.009": 5.23317985584,
			"0.01": 4.89686325775,
			"0.011": 6.85364000628,
			"0.012": 3.42843313526,
			"0.013": 0.508787231754,
			"0.014": 0.0,
			"0.015": 0.0,
			"0.016": 0.0,
			"0.017": 0.0,
			"0.018": 0.0,
			"0.019": 0.0,
			"0.02": 0.0,
			"0.021": 0.0,
			"0.022": 0.0,
			"0.023": 0.0,
			"0.024": 0.0,
			"0.025": 0.0
		}
	}
}
