{
	 "smiles": "COC1=C2O[C@H]3[C@H](O)CCC4[C@H]5CC(C=C1)=C2[C@@]34CCN5C", 
	 "Tm": 473.15, 
	 "num_atms": 45, 
	 "gaussian": { 
		 "optdone": 1, 
		 "sigma_profile": "yes", 
		 "theory": "DFT", 
		 "functional": "B3LYP", 
		 "basiset": "6-31G**", 
		 "properties": { 
			 "R2extent": 5963.6548, 
			 "electric_dipole_moment_norm": 2.13849692541, 
			 "electric_quadrupole_moment_norm": 11.6672031721, 
			 "total_energy": -980.166691699, 
			 "HOMO_LUMO_gap": 0.20802, 
			 "cosmo_polarized_energy": -11.45, 
			 "cosmo_cavitation_energy": 41.17, 
			 "cosmo_dispersion_energy": -29.47, 
			 "cosmo_repulsion_energy": 2.22, 
			 "cosmo_total_nonelectrostatic_energy": 13.92, 
			 "SMD_solvation_energy": 5.28 
		},
		"coords": [
			{
				"x": -1.4965570952,
				"y": -1.3883333353,
				"z": 4.5427120693,
				"element": "C" 
			},
			{
				"x": -2.4658879571,
				"y": -1.4065489838,
				"z": 3.4948199424,
				"element": "O" 
			},
			{
				"x": -2.1281148856,
				"y": -0.7827493826,
				"z": 2.3234031902,
				"element": "C" 
			},
			{
				"x": -0.8753824496,
				"y": -0.8272734875,
				"z": 1.7073368018,
				"element": "C" 
			},
			{
				"x": 0.2400080268,
				"y": -1.5494148041,
				"z": 2.0991194437,
				"element": "O" 
			},
			{
				"x": 1.0725737401,
				"y": -1.6499263003,
				"z": 0.8855862216,
				"element": "C" 
			},
			{
				"x": 0.6679600169,
				"y": -2.9317884755,
				"z": 0.1393989088,
				"element": "C" 
			},
			{
				"x": 1.251323778,
				"y": -4.0754282814,
				"z": 0.7517666618,
				"element": "O" 
			},
			{
				"x": 1.0840630709,
				"y": -2.888360381,
				"z": -1.329703521,
				"element": "C" 
			},
			{
				"x": 0.4096123169,
				"y": -1.6990825934,
				"z": -2.033873793,
				"element": "C" 
			},
			{
				"x": 0.9005185293,
				"y": -0.3778370793,
				"z": -1.4242632644,
				"element": "C" 
			},
			{
				"x": 0.1739946912,
				"y": 0.9039602133,
				"z": -1.924214468,
				"element": "C" 
			},
			{
				"x": -1.3500986909,
				"y": 0.8846069064,
				"z": -1.6449034118,
				"element": "C" 
			},
			{
				"x": -1.6667953429,
				"y": 0.4383293094,
				"z": -0.230884143,
				"element": "C" 
			},
			{
				"x": -2.9375113028,
				"y": 0.4692856112,
				"z": 0.3694357608,
				"element": "C" 
			},
			{
				"x": -3.143752078,
				"y": -0.0986245335,
				"z": 1.6280596842,
				"element": "C" 
			},
			{
				"x": -0.6597413469,
				"y": -0.1660398025,
				"z": 0.5024749536,
				"element": "C" 
			},
			{
				"x": 0.7910763966,
				"y": -0.342645901,
				"z": 0.1111411334,
				"element": "C" 
			},
			{
				"x": 1.6700876233,
				"y": 0.8425406775,
				"z": 0.6330791611,
				"element": "C" 
			},
			{
				"x": 1.929742691,
				"y": 1.8931024726,
				"z": -0.459004282,
				"element": "C" 
			},
			{
				"x": 0.736147889,
				"y": 2.1099243563,
				"z": -1.2652031887,
				"element": "N" 
			},
			{
				"x": 0.8561639232,
				"y": 3.2402947977,
				"z": -2.167956823,
				"element": "C" 
			},
			{
				"x": -1.9775376072,
				"y": -1.8547788193,
				"z": 5.4048847871,
				"element": "H" 
			},
			{
				"x": -0.5950797539,
				"y": -1.9467883347,
				"z": 4.2755068715,
				"element": "H" 
			},
			{
				"x": -1.215399044,
				"y": -0.3586488159,
				"z": 4.7993102799,
				"element": "H" 
			},
			{
				"x": 2.107076217,
				"y": -1.7461241919,
				"z": 1.2255953944,
				"element": "H" 
			},
			{
				"x": -0.4303627612,
				"y": -3.0023023116,
				"z": 0.1760888674,
				"element": "H" 
			},
			{
				"x": 0.9269219698,
				"y": -4.1005845673,
				"z": 1.6624858626,
				"element": "H" 
			},
			{
				"x": 0.8038348036,
				"y": -3.8371686641,
				"z": -1.7984846397,
				"element": "H" 
			},
			{
				"x": 2.1774512058,
				"y": -2.8095301164,
				"z": -1.4007995668,
				"element": "H" 
			},
			{
				"x": 0.631997749,
				"y": -1.7140631158,
				"z": -3.1073634866,
				"element": "H" 
			},
			{
				"x": -0.6782688537,
				"y": -1.7959568158,
				"z": -1.936286642,
				"element": "H" 
			},
			{
				"x": 1.9574714659,
				"y": -0.2883069288,
				"z": -1.7063989641,
				"element": "H" 
			},
			{
				"x": 0.3275856413,
				"y": 0.9675875583,
				"z": -3.0143946773,
				"element": "H" 
			},
			{
				"x": -1.749140043,
				"y": 1.8869640117,
				"z": -1.8388067004,
				"element": "H" 
			},
			{
				"x": -1.8537745396,
				"y": 0.2142829573,
				"z": -2.3563542607,
				"element": "H" 
			},
			{
				"x": -3.7742831195,
				"y": 0.9332113396,
				"z": -0.1466346648,
				"element": "H" 
			},
			{
				"x": -4.1236413164,
				"y": -0.0666686963,
				"z": 2.0943433067,
				"element": "H" 
			},
			{
				"x": 1.1763076334,
				"y": 1.3093575327,
				"z": 1.4900540957,
				"element": "H" 
			},
			{
				"x": 2.6357660753,
				"y": 0.458705138,
				"z": 0.9839797453,
				"element": "H" 
			},
			{
				"x": 2.1941551902,
				"y": 2.8473676099,
				"z": 0.0108897197,
				"element": "H" 
			},
			{
				"x": 2.8103707076,
				"y": 1.6045831786,
				"z": -1.0676370323,
				"element": "H" 
			},
			{
				"x": 1.1072035256,
				"y": 4.1446244914,
				"z": -1.6032698911,
				"element": "H" 
			},
			{
				"x": -0.0980230981,
				"y": 3.4210925193,
				"z": -2.6737490585,
				"element": "H" 
			},
			{
				"x": 1.629336408,
				"y": 3.1018540378,
				"z": -2.9496863837,
				"element": "H" 
			}
		],
		 "valence_orbital": [ 
			{
				"type": "occ",
				"energy": -0.28489,
				"method": "rhf"
			},
			{
				"type": "occ",
				"energy": -0.26512,
				"method": "rhf"
			},
			{
				"type": "occ",
				"energy": -0.21931,
				"method": "rhf"
			},
			{
				"type": "occ",
				"energy": -0.20392,
				"method": "rhf"
			},
			{
				"type": "occ",
				"energy": -0.2004,
				"method": "rhf"
			},
			{
				"type": "unocc",
				"energy": 0.00762,
				"method": "rhf"
			},
			{
				"type": "unocc",
				"energy": 0.01551,
				"method": "rhf"
			},
			{
				"type": "unocc",
				"energy": 0.06942,
				"method": "rhf"
			},
			{
				"type": "unocc",
				"energy": 0.086,
				"method": "rhf"
			},
			{
				"type": "unocc",
				"energy": 0.09118,
				"method": "rhf"
			}
		],
		"cosmo_sigma_profile": { 
			"-0.025": 0.0,
			"-0.024": 0.0,
			"-0.023": 0.0,
			"-0.022": 0.0,
			"-0.021": 0.0,
			"-0.02": 0.0,
			"-0.019": 0.0,
			"-0.018": 0.0,
			"-0.017": 0.0,
			"-0.016": 0.0,
			"-0.015": 0.104637152789,
			"-0.014": 0.517422650839,
			"-0.013": 1.08649374595,
			"-0.012": 0.498716588061,
			"-0.011": 0.630631000186,
			"-0.01": 0.272666975525,
			"-0.009": 0.572098319165,
			"-0.008": 1.24507276675,
			"-0.007": 0.758642920362,
			"-0.006": 2.61616811392,
			"-0.005": 11.2580443717,
			"-0.004": 22.6692471409,
			"-0.003": 48.89631109,
			"-0.002": 51.2046358092,
			"-0.001": 44.2435823526,
			"0.0": 33.3834758638,
			"0.001": 16.1948640612,
			"0.002": 11.5394002858,
			"0.003": 10.8278000698,
			"0.004": 12.4490971879,
			"0.005": 9.7173805989,
			"0.006": 9.29140840902,
			"0.007": 7.08444267856,
			"0.008": 3.69225649579,
			"0.009": 4.01124260792,
			"0.01": 3.54913564279,
			"0.011": 3.92234702309,
			"0.012": 2.30994800775,
			"0.013": 2.40959183835,
			"0.014": 2.4642468401,
			"0.015": 0.120853359029,
			"0.016": 0.0,
			"0.017": 0.0,
			"0.018": 0.0,
			"0.019": 0.0,
			"0.02": 0.0,
			"0.021": 0.0,
			"0.022": 0.0,
			"0.023": 0.0,
			"0.024": 0.0,
			"0.025": 0.0
		}
	}
}
