{
	 "smiles": "NC1=CC=C(C=C1)S(=O)(=O)NC1CCS(=O)(=O)C1", 
	 "Tm": 290.15, 
	 "num_atms": 32, 
	 "gaussian": { 
		 "optdone": 1, 
		 "sigma_profile": "yes", 
		 "theory": "DFT", 
		 "functional": "B3LYP", 
		 "basiset": "6-31G**", 
		 "properties": { 
			 "R2extent": 6487.4464, 
			 "electric_dipole_moment_norm": 5.97974472448, 
			 "electric_quadrupole_moment_norm": 31.9879596928, 
			 "total_energy": -1596.14792094, 
			 "HOMO_LUMO_gap": 0.19894, 
			 "cosmo_polarized_energy": -30.42, 
			 "cosmo_cavitation_energy": 36.91, 
			 "cosmo_dispersion_energy": -27.29, 
			 "cosmo_repulsion_energy": 1.99, 
			 "cosmo_total_nonelectrostatic_energy": 11.62, 
			 "SMD_solvation_energy": 4.37 
		},
		"coords": [
			{
				"x": 3.43399765,
				"y": 0.6697378965,
				"z": -5.198813812,
				"element": "N" 
			},
			{
				"x": 2.2966545105,
				"y": 0.5096135293,
				"z": -4.4310582431,
				"element": "C" 
			},
			{
				"x": 1.0170539536,
				"y": 0.6695117622,
				"z": -4.9988666069,
				"element": "C" 
			},
			{
				"x": -0.1244566036,
				"y": 0.461367729,
				"z": -4.2364851646,
				"element": "C" 
			},
			{
				"x": -0.0040796881,
				"y": 0.0924658104,
				"z": -2.8930470603,
				"element": "C" 
			},
			{
				"x": 1.2588342085,
				"y": -0.07170187,
				"z": -2.3080523234,
				"element": "C" 
			},
			{
				"x": 2.3957094853,
				"y": 0.141243335,
				"z": -3.0724786588,
				"element": "C" 
			},
			{
				"x": -1.4823222464,
				"y": -0.2514454836,
				"z": -1.9715050741,
				"element": "S" 
			},
			{
				"x": -1.5219516238,
				"y": -1.6558032177,
				"z": -1.5436043582,
				"element": "O" 
			},
			{
				"x": -2.6188605399,
				"y": 0.3212598949,
				"z": -2.7063259511,
				"element": "O" 
			},
			{
				"x": -1.2207742345,
				"y": 0.659079135,
				"z": -0.5445636137,
				"element": "N" 
			},
			{
				"x": -1.7387780497,
				"y": 0.1351241848,
				"z": 0.7372945147,
				"element": "C" 
			},
			{
				"x": -1.6440668701,
				"y": 1.2793526314,
				"z": 1.7762134677,
				"element": "C" 
			},
			{
				"x": -0.1599009984,
				"y": 1.5142622606,
				"z": 2.0809117052,
				"element": "C" 
			},
			{
				"x": 0.5918305061,
				"y": -0.1655219741,
				"z": 2.0622651407,
				"element": "S" 
			},
			{
				"x": 0.7354126746,
				"y": -0.6478796504,
				"z": 3.4459149298,
				"element": "O" 
			},
			{
				"x": 1.7488588873,
				"y": -0.1848370945,
				"z": 1.1482504776,
				"element": "O" 
			},
			{
				"x": -0.8485378061,
				"y": -0.9903082487,
				"z": 1.279693233,
				"element": "C" 
			},
			{
				"x": 3.345214926,
				"y": 1.1977810133,
				"z": -6.0538704419,
				"element": "H" 
			},
			{
				"x": 4.3033778755,
				"y": 0.8225597956,
				"z": -4.7101855085,
				"element": "H" 
			},
			{
				"x": 0.9248702016,
				"y": 0.9548917188,
				"z": -6.0433475679,
				"element": "H" 
			},
			{
				"x": -1.1100007554,
				"y": 0.5895070727,
				"z": -4.6702065536,
				"element": "H" 
			},
			{
				"x": 1.3602768507,
				"y": -0.3315565689,
				"z": -1.2588215685,
				"element": "H" 
			},
			{
				"x": 3.3759204933,
				"y": 0.0227781849,
				"z": -2.618746815,
				"element": "H" 
			},
			{
				"x": -1.5644681237,
				"y": 1.5990767635,
				"z": -0.7311102943,
				"element": "H" 
			},
			{
				"x": -2.7725170248,
				"y": -0.2214557933,
				"z": 0.6539168198,
				"element": "H" 
			},
			{
				"x": -2.1312869754,
				"y": 2.1924017611,
				"z": 1.4182107107,
				"element": "H" 
			},
			{
				"x": -2.171410863,
				"y": 0.9656587287,
				"z": 2.6829288019,
				"element": "H" 
			},
			{
				"x": 0.3447828877,
				"y": 2.0910589023,
				"z": 1.304847972,
				"element": "H" 
			},
			{
				"x": 0.0331304798,
				"y": 1.9459918711,
				"z": 3.0637122078,
				"element": "H" 
			},
			{
				"x": -1.3587149062,
				"y": -1.5411346571,
				"z": 2.0730298852,
				"element": "H" 
			},
			{
				"x": -0.4953982815,
				"y": -1.6773794226,
				"z": 0.5132997495,
				"element": "H" 
			}
		],
		 "valence_orbital": [ 
			{
				"type": "occ",
				"energy": -0.29251,
				"method": "rhf"
			},
			{
				"type": "occ",
				"energy": -0.284,
				"method": "rhf"
			},
			{
				"type": "occ",
				"energy": -0.27407,
				"method": "rhf"
			},
			{
				"type": "occ",
				"energy": -0.26502,
				"method": "rhf"
			},
			{
				"type": "occ",
				"energy": -0.22164,
				"method": "rhf"
			},
			{
				"type": "unocc",
				"energy": -0.0227,
				"method": "rhf"
			},
			{
				"type": "unocc",
				"energy": -0.01371,
				"method": "rhf"
			},
			{
				"type": "unocc",
				"energy": 0.0406,
				"method": "rhf"
			},
			{
				"type": "unocc",
				"energy": 0.04851,
				"method": "rhf"
			},
			{
				"type": "unocc",
				"energy": 0.05863,
				"method": "rhf"
			}
		],
		"cosmo_sigma_profile": { 
			"-0.025": 0.0,
			"-0.024": 0.0,
			"-0.023": 0.0,
			"-0.022": 0.0,
			"-0.021": 0.0,
			"-0.02": 0.0,
			"-0.019": 0.0,
			"-0.018": 0.0,
			"-0.017": 0.0,
			"-0.016": 0.0,
			"-0.015": 0.497149102407,
			"-0.014": 1.44021993161,
			"-0.013": 4.22533491389,
			"-0.012": 4.81142765054,
			"-0.011": 3.96675051427,
			"-0.01": 5.21671920297,
			"-0.009": 5.74465474546,
			"-0.008": 11.0994256841,
			"-0.007": 18.6005812256,
			"-0.006": 22.2991611282,
			"-0.005": 18.7281631138,
			"-0.004": 18.5117236584,
			"-0.003": 13.6029807259,
			"-0.002": 9.44468788232,
			"-0.001": 11.5209837971,
			"0.0": 9.05355932087,
			"0.001": 9.56147227722,
			"0.002": 12.4598375749,
			"0.003": 14.4458602232,
			"0.004": 19.6354138868,
			"0.005": 8.70462573967,
			"0.006": 6.61902863135,
			"0.007": 6.13356689906,
			"0.008": 6.2130702224,
			"0.009": 7.32407006492,
			"0.01": 9.17231021691,
			"0.011": 15.4914616473,
			"0.012": 15.1998517433,
			"0.013": 2.40689343641,
			"0.014": 0.0,
			"0.015": 0.0,
			"0.016": 0.0,
			"0.017": 0.0,
			"0.018": 0.0,
			"0.019": 0.0,
			"0.02": 0.0,
			"0.021": 0.0,
			"0.022": 0.0,
			"0.023": 0.0,
			"0.024": 0.0,
			"0.025": 0.0
		}
	}
}
