{
	 "smiles": "FC(F)(F)C1=CC=CC(=C1)C1=NN=NN1", 
	 "Tm": 430.15, 
	 "num_atms": 20, 
	 "gaussian": { 
		 "optdone": 1, 
		 "sigma_profile": "yes", 
		 "theory": "DFT", 
		 "functional": "B3LYP", 
		 "basiset": "6-31G**", 
		 "properties": { 
			 "R2extent": 4407.2855, 
			 "electric_dipole_moment_norm": 6.37444917463, 
			 "electric_quadrupole_moment_norm": 16.6754186388, 
			 "total_energy": -826.345196252, 
			 "HOMO_LUMO_gap": 0.1971, 
			 "cosmo_polarized_energy": -18.77, 
			 "cosmo_cavitation_energy": 27.0, 
			 "cosmo_dispersion_energy": -19.42, 
			 "cosmo_repulsion_energy": 1.43, 
			 "cosmo_total_nonelectrostatic_energy": 9.02, 
			 "SMD_solvation_energy": 3.97 
		},
		"coords": [
			{
				"x": 2.4986197291,
				"y": -3.5203423691,
				"z": -1.3088530994,
				"element": "F" 
			},
			{
				"x": 1.4776073016,
				"y": -3.4333121535,
				"z": -0.4273047806,
				"element": "C" 
			},
			{
				"x": 0.4743625779,
				"y": -4.2089437578,
				"z": -0.8832147991,
				"element": "F" 
			},
			{
				"x": 1.9119130154,
				"y": -3.9783743063,
				"z": 0.7312060898,
				"element": "F" 
			},
			{
				"x": 1.0421118321,
				"y": -2.0033353352,
				"z": -0.229409432,
				"element": "C" 
			},
			{
				"x": 2.0050263044,
				"y": -0.9883315809,
				"z": -0.2202483818,
				"element": "C" 
			},
			{
				"x": 1.6143022615,
				"y": 0.3285122061,
				"z": 0.0128950208,
				"element": "C" 
			},
			{
				"x": 0.2723235075,
				"y": 0.6326982599,
				"z": 0.2354588126,
				"element": "C" 
			},
			{
				"x": -0.6953105653,
				"y": -0.3822302984,
				"z": 0.2248159078,
				"element": "C" 
			},
			{
				"x": -0.3001053118,
				"y": -1.7080266973,
				"z": -0.0097690177,
				"element": "C" 
			},
			{
				"x": -2.1165340435,
				"y": -0.1085401772,
				"z": 0.4471371187,
				"element": "C" 
			},
			{
				"x": -3.089838282,
				"y": -1.0082284502,
				"z": 0.4584962622,
				"element": "N" 
			},
			{
				"x": -4.240978043,
				"y": -0.33215101,
				"z": 0.6979066206,
				"element": "N" 
			},
			{
				"x": -4.0218399978,
				"y": 0.9346865634,
				"z": 0.8334903599,
				"element": "N" 
			},
			{
				"x": -2.6872684039,
				"y": 1.0974173984,
				"z": 0.6791441612,
				"element": "N" 
			},
			{
				"x": 3.0465103125,
				"y": -1.2295938375,
				"z": -0.4027219542,
				"element": "H" 
			},
			{
				"x": 2.3552804165,
				"y": 1.1213167203,
				"z": 0.0184665083,
				"element": "H" 
			},
			{
				"x": -0.0102011064,
				"y": 1.6664314726,
				"z": 0.4143619393,
				"element": "H" 
			},
			{
				"x": -1.0511246045,
				"y": -2.4888276083,
				"z": -0.023634135,
				"element": "H" 
			},
			{
				"x": -2.2857569003,
				"y": 2.020774961,
				"z": 0.7450767984,
				"element": "H" 
			}
		],
		 "valence_orbital": [ 
			{
				"type": "occ",
				"energy": -0.33255,
				"method": "rhf"
			},
			{
				"type": "occ",
				"energy": -0.30635,
				"method": "rhf"
			},
			{
				"type": "occ",
				"energy": -0.29167,
				"method": "rhf"
			},
			{
				"type": "occ",
				"energy": -0.291,
				"method": "rhf"
			},
			{
				"type": "occ",
				"energy": -0.26856,
				"method": "rhf"
			},
			{
				"type": "unocc",
				"energy": -0.07146,
				"method": "rhf"
			},
			{
				"type": "unocc",
				"energy": -0.04488,
				"method": "rhf"
			},
			{
				"type": "unocc",
				"energy": -0.00974,
				"method": "rhf"
			},
			{
				"type": "unocc",
				"energy": 0.03448,
				"method": "rhf"
			},
			{
				"type": "unocc",
				"energy": 0.03598,
				"method": "rhf"
			}
		],
		"cosmo_sigma_profile": { 
			"-0.025": 0.0,
			"-0.024": 0.0,
			"-0.023": 0.0,
			"-0.022": 0.0,
			"-0.021": 0.0,
			"-0.02": 0.136857939011,
			"-0.019": 1.44706376325,
			"-0.018": 1.82266788706,
			"-0.017": 1.47589455469,
			"-0.016": 1.07826164163,
			"-0.015": 1.97911200085,
			"-0.014": 1.02113070094,
			"-0.013": 0.820170912383,
			"-0.012": 0.983576215906,
			"-0.011": 1.91383811999,
			"-0.01": 0.956205510972,
			"-0.009": 1.79669531518,
			"-0.008": 3.36852700525,
			"-0.007": 6.65690467538,
			"-0.006": 8.08883200251,
			"-0.005": 8.05641394655,
			"-0.004": 10.0487831745,
			"-0.003": 10.5695390838,
			"-0.002": 11.1797469943,
			"-0.001": 13.624119395,
			"0.0": 17.5813481767,
			"0.001": 21.637294992,
			"0.002": 28.6472519696,
			"0.003": 26.1743123743,
			"0.004": 2.52813633983,
			"0.005": 2.28816708821,
			"0.006": 3.73630513376,
			"0.007": 3.62949671662,
			"0.008": 4.96024766517,
			"0.009": 4.71441307918,
			"0.01": 4.88277716302,
			"0.011": 4.58753724529,
			"0.012": 2.83675581507,
			"0.013": 2.57594998568,
			"0.014": 0.591045037455,
			"0.015": 0.0,
			"0.016": 0.0,
			"0.017": 0.0,
			"0.018": 0.0,
			"0.019": 0.0,
			"0.02": 0.0,
			"0.021": 0.0,
			"0.022": 0.0,
			"0.023": 0.0,
			"0.024": 0.0,
			"0.025": 0.0
		}
	}
}
