{
	 "smiles": "CC(C)(C)OC(=O)NC1=CC=C(O)C=C1", 
	 "Tm": 405.15, 
	 "num_atms": 30, 
	 "gaussian": { 
		 "optdone": 1, 
		 "sigma_profile": "yes", 
		 "theory": "DFT", 
		 "functional": "B3LYP", 
		 "basiset": "6-31G**", 
		 "properties": { 
			 "R2extent": 5233.3315, 
			 "electric_dipole_moment_norm": 1.361688764, 
			 "electric_quadrupole_moment_norm": 11.3528207587, 
			 "total_energy": -708.671530145, 
			 "HOMO_LUMO_gap": 0.19645, 
			 "cosmo_polarized_energy": -13.56, 
			 "cosmo_cavitation_energy": 33.03, 
			 "cosmo_dispersion_energy": -24.0, 
			 "cosmo_repulsion_energy": 1.88, 
			 "cosmo_total_nonelectrostatic_energy": 10.91, 
			 "SMD_solvation_energy": 6.94 
		},
		"coords": [
			{
				"x": -1.5107765287,
				"y": -2.5628196895,
				"z": -1.2521447493,
				"element": "C" 
			},
			{
				"x": -2.3245606758,
				"y": -1.4297907274,
				"z": -0.617628625,
				"element": "C" 
			},
			{
				"x": -2.7673517183,
				"y": -1.7611587756,
				"z": 0.8116379847,
				"element": "C" 
			},
			{
				"x": -3.5308076613,
				"y": -1.0731379697,
				"z": -1.4905150724,
				"element": "C" 
			},
			{
				"x": -1.5450183168,
				"y": -0.1818274161,
				"z": -0.6276337961,
				"element": "O" 
			},
			{
				"x": -0.3720497869,
				"y": -0.0851634704,
				"z": 0.0496511401,
				"element": "C" 
			},
			{
				"x": 0.1527337643,
				"y": -0.9658707133,
				"z": 0.7110145231,
				"element": "O" 
			},
			{
				"x": 0.1220419391,
				"y": 1.1810100686,
				"z": -0.1407006602,
				"element": "N" 
			},
			{
				"x": 1.3130585655,
				"y": 1.74348294,
				"z": 0.3672233374,
				"element": "C" 
			},
			{
				"x": 1.5984987328,
				"y": 3.0746214402,
				"z": 0.0241079818,
				"element": "C" 
			},
			{
				"x": 2.7501967288,
				"y": 3.7030095609,
				"z": 0.4825074959,
				"element": "C" 
			},
			{
				"x": 3.6459388413,
				"y": 3.0064542362,
				"z": 1.2995720266,
				"element": "C" 
			},
			{
				"x": 4.7659214274,
				"y": 3.6702171621,
				"z": 1.7248572145,
				"element": "O" 
			},
			{
				"x": 3.3668290879,
				"y": 1.6819009029,
				"z": 1.6440090016,
				"element": "C" 
			},
			{
				"x": 2.2118202105,
				"y": 1.0472966552,
				"z": 1.1860422653,
				"element": "C" 
			},
			{
				"x": -0.639800941,
				"y": -2.8077305018,
				"z": -0.6439611132,
				"element": "H" 
			},
			{
				"x": -2.1375203792,
				"y": -3.4554270367,
				"z": -1.347900532,
				"element": "H" 
			},
			{
				"x": -1.1752344291,
				"y": -2.2747763956,
				"z": -2.2534758859,
				"element": "H" 
			},
			{
				"x": -3.4425028884,
				"y": -2.6229336377,
				"z": 0.7960227054,
				"element": "H" 
			},
			{
				"x": -1.9102107327,
				"y": -1.9968653878,
				"z": 1.4426896662,
				"element": "H" 
			},
			{
				"x": -3.3074602385,
				"y": -0.9148082258,
				"z": 1.2477502926,
				"element": "H" 
			},
			{
				"x": -4.2050823432,
				"y": -1.9311654646,
				"z": -1.5676252534,
				"element": "H" 
			},
			{
				"x": -4.0853492561,
				"y": -0.2344767809,
				"z": -1.0594548652,
				"element": "H" 
			},
			{
				"x": -3.2096176063,
				"y": -0.7933610947,
				"z": -2.4981098127,
				"element": "H" 
			},
			{
				"x": -0.4506116179,
				"y": 1.7764872308,
				"z": -0.7207107609,
				"element": "H" 
			},
			{
				"x": 0.9089152374,
				"y": 3.6263130381,
				"z": -0.610934706,
				"element": "H" 
			},
			{
				"x": 2.9681652946,
				"y": 4.7316861389,
				"z": 0.2157772427,
				"element": "H" 
			},
			{
				"x": 5.2912447064,
				"y": 3.0763922866,
				"z": 2.2761952932,
				"element": "H" 
			},
			{
				"x": 4.0568370528,
				"y": 1.1299586533,
				"z": 2.2794181962,
				"element": "H" 
			},
			{
				"x": 2.0021535312,
				"y": 0.0219829737,
				"z": 1.4566194648,
				"element": "H" 
			}
		],
		 "valence_orbital": [ 
			{
				"type": "occ",
				"energy": -0.29102,
				"method": "rhf"
			},
			{
				"type": "occ",
				"energy": -0.28546,
				"method": "rhf"
			},
			{
				"type": "occ",
				"energy": -0.26569,
				"method": "rhf"
			},
			{
				"type": "occ",
				"energy": -0.25034,
				"method": "rhf"
			},
			{
				"type": "occ",
				"energy": -0.19738,
				"method": "rhf"
			},
			{
				"type": "unocc",
				"energy": -0.00093,
				"method": "rhf"
			},
			{
				"type": "unocc",
				"energy": 0.01098,
				"method": "rhf"
			},
			{
				"type": "unocc",
				"energy": 0.06979,
				"method": "rhf"
			},
			{
				"type": "unocc",
				"energy": 0.07234,
				"method": "rhf"
			},
			{
				"type": "unocc",
				"energy": 0.08351,
				"method": "rhf"
			}
		],
		"cosmo_sigma_profile": { 
			"-0.025": 0.0,
			"-0.024": 0.0,
			"-0.023": 0.0,
			"-0.022": 0.0,
			"-0.021": 0.0,
			"-0.02": 0.0,
			"-0.019": 0.0,
			"-0.018": 0.114793231474,
			"-0.017": 1.19119273266,
			"-0.016": 0.810948890034,
			"-0.015": 1.68758204502,
			"-0.014": 2.27171782028,
			"-0.013": 1.57587466364,
			"-0.012": 1.81616750157,
			"-0.011": 1.87190891459,
			"-0.01": 2.51899299776,
			"-0.009": 2.35396722748,
			"-0.008": 2.12490520182,
			"-0.007": 3.43838446314,
			"-0.006": 5.3272697658,
			"-0.005": 6.47293102281,
			"-0.004": 17.242353282,
			"-0.003": 20.8265428913,
			"-0.002": 19.9470469469,
			"-0.001": 22.4670627832,
			"0.0": 30.798571139,
			"0.001": 24.6505218244,
			"0.002": 12.7632705997,
			"0.003": 12.9426552863,
			"0.004": 17.7568493831,
			"0.005": 15.9690695195,
			"0.006": 9.69400162971,
			"0.007": 4.91473075646,
			"0.008": 2.7078457405,
			"0.009": 3.03150314063,
			"0.01": 3.576328326,
			"0.011": 3.7895636648,
			"0.012": 2.99142621349,
			"0.013": 0.282981151788,
			"0.014": 0.0,
			"0.015": 0.0,
			"0.016": 0.0,
			"0.017": 0.0,
			"0.018": 0.0,
			"0.019": 0.0,
			"0.02": 0.0,
			"0.021": 0.0,
			"0.022": 0.0,
			"0.023": 0.0,
			"0.024": 0.0,
			"0.025": 0.0
		}
	}
}
