{
	 "smiles": "CC(C)=CC(C)=C", 
	 "Tm": 159.15, 
	 "num_atms": 19, 
	 "gaussian": { 
		 "optdone": 1, 
		 "sigma_profile": "yes", 
		 "theory": "DFT", 
		 "functional": "B3LYP", 
		 "basiset": "6-31G**", 
		 "properties": { 
			 "R2extent": 1128.0505, 
			 "electric_dipole_moment_norm": 0.78406765652, 
			 "electric_quadrupole_moment_norm": 2.68077365139, 
			 "total_energy": -273.952873234, 
			 "HOMO_LUMO_gap": 0.19759, 
			 "cosmo_polarized_energy": -2.61, 
			 "cosmo_cavitation_energy": 21.38, 
			 "cosmo_dispersion_energy": -15.3, 
			 "cosmo_repulsion_energy": 1.28, 
			 "cosmo_total_nonelectrostatic_energy": 7.36, 
			 "SMD_solvation_energy": 4.73 
		},
		"coords": [
			{
				"x": -0.3746005899,
				"y": -0.8916464957,
				"z": 1.0980607384,
				"element": "C" 
			},
			{
				"x": -0.5548923738,
				"y": -0.4308969563,
				"z": -0.3273797657,
				"element": "C" 
			},
			{
				"x": -1.9599189465,
				"y": -0.6508649866,
				"z": -0.8415316845,
				"element": "C" 
			},
			{
				"x": 0.3632852718,
				"y": 0.1282318896,
				"z": -1.1457023517,
				"element": "C" 
			},
			{
				"x": 1.783165293,
				"y": 0.4793977368,
				"z": -0.9849553498,
				"element": "C" 
			},
			{
				"x": 2.5489505747,
				"y": 0.2375233127,
				"z": 0.2964610837,
				"element": "C" 
			},
			{
				"x": 2.4172131239,
				"y": 1.0402118554,
				"z": -2.0330682906,
				"element": "C" 
			},
			{
				"x": -0.620385653,
				"y": -1.9589284371,
				"z": 1.1824027672,
				"element": "H" 
			},
			{
				"x": 0.6253983163,
				"y": -0.7465542173,
				"z": 1.4971408666,
				"element": "H" 
			},
			{
				"x": -1.0800999158,
				"y": -0.3656195132,
				"z": 1.7554843383,
				"element": "H" 
			},
			{
				"x": -2.233863948,
				"y": -1.7137277825,
				"z": -0.7947064983,
				"element": "H" 
			},
			{
				"x": -2.0800529344,
				"y": -0.3148341392,
				"z": -1.8746731794,
				"element": "H" 
			},
			{
				"x": -2.6934812646,
				"y": -0.1170507873,
				"z": -0.2219624159,
				"element": "H" 
			},
			{
				"x": -0.003840366,
				"y": 0.3805312561,
				"z": -2.1407223251,
				"element": "H" 
			},
			{
				"x": 2.1082656825,
				"y": 0.7787959021,
				"z": 1.1409671163,
				"element": "H" 
			},
			{
				"x": 3.5840315222,
				"y": 0.5728454021,
				"z": 0.1906345838,
				"element": "H" 
			},
			{
				"x": 2.5686069789,
				"y": -0.8249729904,
				"z": 0.5630330779,
				"element": "H" 
			},
			{
				"x": 1.9065403678,
				"y": 1.2321088555,
				"z": -2.972480638,
				"element": "H" 
			},
			{
				"x": 3.464078861,
				"y": 1.3230500952,
				"z": -1.9811020734,
				"element": "H" 
			}
		],
		 "valence_orbital": [ 
			{
				"type": "occ",
				"energy": -0.35449,
				"method": "rhf"
			},
			{
				"type": "occ",
				"energy": -0.34362,
				"method": "rhf"
			},
			{
				"type": "occ",
				"energy": -0.32306,
				"method": "rhf"
			},
			{
				"type": "occ",
				"energy": -0.28934,
				"method": "rhf"
			},
			{
				"type": "occ",
				"energy": -0.20848,
				"method": "rhf"
			},
			{
				"type": "unocc",
				"energy": -0.01089,
				"method": "rhf"
			},
			{
				"type": "unocc",
				"energy": 0.08765,
				"method": "rhf"
			},
			{
				"type": "unocc",
				"energy": 0.09212,
				"method": "rhf"
			},
			{
				"type": "unocc",
				"energy": 0.1207,
				"method": "rhf"
			},
			{
				"type": "unocc",
				"energy": 0.13086,
				"method": "rhf"
			}
		],
		"cosmo_sigma_profile": { 
			"-0.025": 0.0,
			"-0.024": 0.0,
			"-0.023": 0.0,
			"-0.022": 0.0,
			"-0.021": 0.0,
			"-0.02": 0.0,
			"-0.019": 0.0,
			"-0.018": 0.0,
			"-0.017": 0.0,
			"-0.016": 0.0,
			"-0.015": 0.0,
			"-0.014": 0.0,
			"-0.013": 0.0,
			"-0.012": 0.0,
			"-0.011": 0.0,
			"-0.01": 0.0,
			"-0.009": 0.0,
			"-0.008": 0.0,
			"-0.007": 0.0,
			"-0.006": 0.0,
			"-0.005": 0.498131311157,
			"-0.004": 11.8072599715,
			"-0.003": 27.1370307989,
			"-0.002": 21.7177320108,
			"-0.001": 20.5276690649,
			"0.0": 26.1455784537,
			"0.001": 19.7256433362,
			"0.002": 8.11337894723,
			"0.003": 6.5055349206,
			"0.004": 6.25303309035,
			"0.005": 6.60170693181,
			"0.006": 7.26787879303,
			"0.007": 4.63462432792,
			"0.008": 0.302335571934,
			"0.009": 0.0,
			"0.01": 0.0,
			"0.011": 0.0,
			"0.012": 0.0,
			"0.013": 0.0,
			"0.014": 0.0,
			"0.015": 0.0,
			"0.016": 0.0,
			"0.017": 0.0,
			"0.018": 0.0,
			"0.019": 0.0,
			"0.02": 0.0,
			"0.021": 0.0,
			"0.022": 0.0,
			"0.023": 0.0,
			"0.024": 0.0,
			"0.025": 0.0
		}
	}
}
