{
	 "smiles": "CC1=NOC2=C1C(=CC(=N2)C1=C(C=CC=C1)C(F)(F)F)C(O)=O", 
	 "Tm": 444.15, 
	 "num_atms": 32, 
	 "gaussian": { 
		 "optdone": 1, 
		 "sigma_profile": "yes", 
		 "theory": "DFT", 
		 "functional": "B3LYP", 
		 "basiset": "6-31G**", 
		 "properties": { 
			 "R2extent": 7992.6977, 
			 "electric_dipole_moment_norm": 4.83711930182, 
			 "electric_quadrupole_moment_norm": 30.7022368887, 
			 "total_energy": -1211.6964599, 
			 "HOMO_LUMO_gap": 0.16171, 
			 "cosmo_polarized_energy": -16.6, 
			 "cosmo_cavitation_energy": 38.59, 
			 "cosmo_dispersion_energy": -27.12, 
			 "cosmo_repulsion_energy": 1.98, 
			 "cosmo_total_nonelectrostatic_energy": 13.45, 
			 "SMD_solvation_energy": 7.76 
		},
		"coords": [
			{
				"x": -1.2701026747,
				"y": -3.1639149192,
				"z": -3.7888217569,
				"element": "C" 
			},
			{
				"x": -0.6449254889,
				"y": -2.9749961478,
				"z": -2.4415988712,
				"element": "C" 
			},
			{
				"x": -0.1136973219,
				"y": -4.0296088893,
				"z": -1.8700783683,
				"element": "N" 
			},
			{
				"x": 0.4155946169,
				"y": -3.6477370629,
				"z": -0.6295478187,
				"element": "O" 
			},
			{
				"x": 0.1875641095,
				"y": -2.3278700276,
				"z": -0.4696403847,
				"element": "C" 
			},
			{
				"x": -0.4922422348,
				"y": -1.8126596294,
				"z": -1.592494813,
				"element": "C" 
			},
			{
				"x": -0.781415228,
				"y": -0.4309784,
				"z": -1.545188043,
				"element": "C" 
			},
			{
				"x": -0.367139101,
				"y": 0.2657462966,
				"z": -0.4106483508,
				"element": "C" 
			},
			{
				"x": 0.3080474529,
				"y": -0.3851561227,
				"z": 0.6446468445,
				"element": "C" 
			},
			{
				"x": 0.591308488,
				"y": -1.6942070508,
				"z": 0.615854518,
				"element": "N" 
			},
			{
				"x": 0.771403451,
				"y": 0.3997418921,
				"z": 1.8253104547,
				"element": "C" 
			},
			{
				"x": 0.5486295023,
				"y": 0.0134866285,
				"z": 3.1650993924,
				"element": "C" 
			},
			{
				"x": 1.0517411377,
				"y": 0.7985811043,
				"z": 4.2059740816,
				"element": "C" 
			},
			{
				"x": 1.7712365858,
				"y": 1.9636015947,
				"z": 3.9445328613,
				"element": "C" 
			},
			{
				"x": 1.9815062467,
				"y": 2.3616363926,
				"z": 2.6264612634,
				"element": "C" 
			},
			{
				"x": 1.48027887,
				"y": 1.5859629198,
				"z": 1.5829386856,
				"element": "C" 
			},
			{
				"x": -0.2456332004,
				"y": -1.2207584587,
				"z": 3.542969703,
				"element": "C" 
			},
			{
				"x": -0.7129744441,
				"y": -1.1231254718,
				"z": 4.8125019941,
				"element": "F" 
			},
			{
				"x": 0.4911753732,
				"y": -2.3448760397,
				"z": 3.4903542663,
				"element": "F" 
			},
			{
				"x": -1.3248934895,
				"y": -1.3950667406,
				"z": 2.7490431756,
				"element": "F" 
			},
			{
				"x": -1.4950023886,
				"y": 0.377598257,
				"z": -2.5810838376,
				"element": "C" 
			},
			{
				"x": -1.9404588768,
				"y": -0.3502235974,
				"z": -3.6268326451,
				"element": "O" 
			},
			{
				"x": -1.6689094266,
				"y": 1.5758846193,
				"z": -2.5038838913,
				"element": "O" 
			},
			{
				"x": -2.3316940321,
				"y": -2.9071861577,
				"z": -3.7687719888,
				"element": "H" 
			},
			{
				"x": -1.1562610219,
				"y": -4.2091208577,
				"z": -4.0827008706,
				"element": "H" 
			},
			{
				"x": -0.7950296387,
				"y": -2.5242589286,
				"z": -4.5364040807,
				"element": "H" 
			},
			{
				"x": -0.5931833628,
				"y": 1.322868563,
				"z": -0.3471578925,
				"element": "H" 
			},
			{
				"x": 0.8604612934,
				"y": 0.4985996902,
				"z": 5.2293298776,
				"element": "H" 
			},
			{
				"x": 2.1552024569,
				"y": 2.5575852289,
				"z": 4.7680201336,
				"element": "H" 
			},
			{
				"x": 2.5366734766,
				"y": 3.2685073304,
				"z": 2.4067168064,
				"element": "H" 
			},
			{
				"x": 1.6602027105,
				"y": 1.8868468425,
				"z": 0.555469794,
				"element": "H" 
			},
			{
				"x": -2.3824638404,
				"y": 0.2773971423,
				"z": -4.2234702388,
				"element": "H" 
			}
		],
		 "valence_orbital": [ 
			{
				"type": "occ",
				"energy": -0.28843,
				"method": "rhf"
			},
			{
				"type": "occ",
				"energy": -0.28731,
				"method": "rhf"
			},
			{
				"type": "occ",
				"energy": -0.27504,
				"method": "rhf"
			},
			{
				"type": "occ",
				"energy": -0.27388,
				"method": "rhf"
			},
			{
				"type": "occ",
				"energy": -0.25606,
				"method": "rhf"
			},
			{
				"type": "unocc",
				"energy": -0.09435,
				"method": "rhf"
			},
			{
				"type": "unocc",
				"energy": -0.04786,
				"method": "rhf"
			},
			{
				"type": "unocc",
				"energy": -0.02783,
				"method": "rhf"
			},
			{
				"type": "unocc",
				"energy": -0.00967,
				"method": "rhf"
			},
			{
				"type": "unocc",
				"energy": 0.01712,
				"method": "rhf"
			}
		],
		"cosmo_sigma_profile": { 
			"-0.025": 0.0,
			"-0.024": 0.0,
			"-0.023": 0.0,
			"-0.022": 0.0,
			"-0.021": 0.0,
			"-0.02": 0.0,
			"-0.019": 0.779512581698,
			"-0.018": 0.931540855919,
			"-0.017": 0.893858983625,
			"-0.016": 0.793957387857,
			"-0.015": 0.536264810162,
			"-0.014": 0.478221093486,
			"-0.013": 0.572021436208,
			"-0.012": 1.27460655378,
			"-0.011": 0.933768177507,
			"-0.01": 0.428935290813,
			"-0.009": 0.639493080077,
			"-0.008": 1.03868846725,
			"-0.007": 8.73616944679,
			"-0.006": 12.9149991598,
			"-0.005": 17.5426479458,
			"-0.004": 21.2822400954,
			"-0.003": 26.1215015302,
			"-0.002": 26.9621019655,
			"-0.001": 25.3986958552,
			"0.0": 21.6913756234,
			"0.001": 20.9532386752,
			"0.002": 29.3109632151,
			"0.003": 35.6601165404,
			"0.004": 7.35135472147,
			"0.005": 6.57065848722,
			"0.006": 7.31436296025,
			"0.007": 9.52593743638,
			"0.008": 5.8421803671,
			"0.009": 4.31784725062,
			"0.01": 5.988805222,
			"0.011": 5.65602379519,
			"0.012": 1.59754810978,
			"0.013": 0.680343339268,
			"0.014": 0.0737668975663,
			"0.015": 0.0,
			"0.016": 0.0,
			"0.017": 0.0,
			"0.018": 0.0,
			"0.019": 0.0,
			"0.02": 0.0,
			"0.021": 0.0,
			"0.022": 0.0,
			"0.023": 0.0,
			"0.024": 0.0,
			"0.025": 0.0
		}
	}
}
