{
	 "smiles": "OCCOC1=CC=C(Cl)C=C1", 
	 "Tm": 303.15, 
	 "num_atms": 20, 
	 "gaussian": { 
		 "optdone": 1, 
		 "sigma_profile": "yes", 
		 "theory": "DFT", 
		 "functional": "B3LYP", 
		 "basiset": "6-31G**", 
		 "properties": { 
			 "R2extent": 3634.4001, 
			 "electric_dipole_moment_norm": 1.6057269195, 
			 "electric_quadrupole_moment_norm": 14.3927900627, 
			 "total_energy": -920.893791767, 
			 "HOMO_LUMO_gap": 0.2064, 
			 "cosmo_polarized_energy": -9.46, 
			 "cosmo_cavitation_energy": 25.5, 
			 "cosmo_dispersion_energy": -18.96, 
			 "cosmo_repulsion_energy": 1.54, 
			 "cosmo_total_nonelectrostatic_energy": 8.08, 
			 "SMD_solvation_energy": 4.34 
		},
		"coords": [
			{
				"x": -3.4508333891,
				"y": -1.3123013035,
				"z": 0.590496152,
				"element": "O" 
			},
			{
				"x": -3.0831995573,
				"y": 0.0432934722,
				"z": 0.760653995,
				"element": "C" 
			},
			{
				"x": -2.0213304136,
				"y": 0.4611236337,
				"z": -0.2515887601,
				"element": "C" 
			},
			{
				"x": -0.8459923864,
				"y": -0.3492316567,
				"z": -0.1198310471,
				"element": "O" 
			},
			{
				"x": 0.1324948838,
				"y": -0.0069575549,
				"z": 0.7751567116,
				"element": "C" 
			},
			{
				"x": 0.0854882394,
				"y": 1.0853079486,
				"z": 1.6493307704,
				"element": "C" 
			},
			{
				"x": 1.1592431507,
				"y": 1.3377741503,
				"z": 2.5081589295,
				"element": "C" 
			},
			{
				"x": 2.2700327782,
				"y": 0.5009975057,
				"z": 2.4969534414,
				"element": "C" 
			},
			{
				"x": 3.6167427004,
				"y": 0.8211800156,
				"z": 3.5825856719,
				"element": "Cl" 
			},
			{
				"x": 2.3245504771,
				"y": -0.5944451438,
				"z": 1.6319282399,
				"element": "C" 
			},
			{
				"x": 1.258613702,
				"y": -0.8436845081,
				"z": 0.7759682727,
				"element": "C" 
			},
			{
				"x": -2.6297157174,
				"y": -1.8237821537,
				"z": 0.6026454655,
				"element": "H" 
			},
			{
				"x": -3.9866071957,
				"y": 0.6427013656,
				"z": 0.6022230525,
				"element": "H" 
			},
			{
				"x": -2.7288824789,
				"y": 0.2405650293,
				"z": 1.7846640379,
				"element": "H" 
			},
			{
				"x": -1.7766458189,
				"y": 1.5276361089,
				"z": -0.1801508078,
				"element": "H" 
			},
			{
				"x": -2.385193022,
				"y": 0.2564828082,
				"z": -1.2620806069,
				"element": "H" 
			},
			{
				"x": -0.7726548626,
				"y": 1.7451722304,
				"z": 1.6830519478,
				"element": "H" 
			},
			{
				"x": 1.1229448444,
				"y": 2.1835893536,
				"z": 3.1858915792,
				"element": "H" 
			},
			{
				"x": 3.1943721742,
				"y": -1.242001485,
				"z": 1.6277931995,
				"element": "H" 
			},
			{
				"x": 1.2808718917,
				"y": -1.6841198164,
				"z": 0.0901497551,
				"element": "H" 
			}
		],
		 "valence_orbital": [ 
			{
				"type": "occ",
				"energy": -0.31176,
				"method": "rhf"
			},
			{
				"type": "occ",
				"energy": -0.31081,
				"method": "rhf"
			},
			{
				"type": "occ",
				"energy": -0.27488,
				"method": "rhf"
			},
			{
				"type": "occ",
				"energy": -0.2682,
				"method": "rhf"
			},
			{
				"type": "occ",
				"energy": -0.22583,
				"method": "rhf"
			},
			{
				"type": "unocc",
				"energy": -0.01943,
				"method": "rhf"
			},
			{
				"type": "unocc",
				"energy": -0.00415,
				"method": "rhf"
			},
			{
				"type": "unocc",
				"energy": 0.02942,
				"method": "rhf"
			},
			{
				"type": "unocc",
				"energy": 0.08061,
				"method": "rhf"
			},
			{
				"type": "unocc",
				"energy": 0.09009,
				"method": "rhf"
			}
		],
		"cosmo_sigma_profile": { 
			"-0.025": 0.0,
			"-0.024": 0.0,
			"-0.023": 0.0,
			"-0.022": 0.0,
			"-0.021": 0.0,
			"-0.02": 0.0,
			"-0.019": 0.0,
			"-0.018": 0.0,
			"-0.017": 0.0,
			"-0.016": 0.0,
			"-0.015": 0.0,
			"-0.014": 0.160547722456,
			"-0.013": 0.592009390832,
			"-0.012": 0.574887112217,
			"-0.011": 0.660896971396,
			"-0.01": 0.687930847759,
			"-0.009": 1.47112048151,
			"-0.008": 2.90361678287,
			"-0.007": 7.63000782075,
			"-0.006": 13.5531138691,
			"-0.005": 17.9044926813,
			"-0.004": 14.2099078452,
			"-0.003": 13.5087867824,
			"-0.002": 11.2087047054,
			"-0.001": 10.5952577304,
			"0.0": 10.1290253155,
			"0.001": 13.7196178091,
			"0.002": 15.1643063187,
			"0.003": 20.5416660435,
			"0.004": 19.2101543936,
			"0.005": 12.9785932724,
			"0.006": 2.54214473043,
			"0.007": 1.93906616562,
			"0.008": 2.03369297186,
			"0.009": 1.90437633802,
			"0.01": 1.41962305773,
			"0.011": 1.80881876423,
			"0.012": 1.05028690777,
			"0.013": 1.86909557981,
			"0.014": 2.42496369428,
			"0.015": 0.296874052959,
			"0.016": 0.0,
			"0.017": 0.0,
			"0.018": 0.0,
			"0.019": 0.0,
			"0.02": 0.0,
			"0.021": 0.0,
			"0.022": 0.0,
			"0.023": 0.0,
			"0.024": 0.0,
			"0.025": 0.0
		}
	}
}
