{
	 "smiles": "NC1=CC=C(C=C1)S(=O)(=O)NC1=CC(=C(Cl)C=C1)C(F)(F)F", 
	 "Tm": 418.15, 
	 "num_atms": 32, 
	 "gaussian": { 
		 "optdone": 1, 
		 "sigma_profile": "yes", 
		 "theory": "DFT", 
		 "functional": "B3LYP", 
		 "basiset": "6-31G**", 
		 "properties": { 
			 "R2extent": 10673.3213, 
			 "electric_dipole_moment_norm": 8.01045760303, 
			 "electric_quadrupole_moment_norm": 35.5340458551, 
			 "total_energy": -1919.19938816, 
			 "HOMO_LUMO_gap": 0.19106, 
			 "cosmo_polarized_energy": -21.15, 
			 "cosmo_cavitation_energy": 41.27, 
			 "cosmo_dispersion_energy": -29.49, 
			 "cosmo_repulsion_energy": 2.15, 
			 "cosmo_total_nonelectrostatic_energy": 13.94, 
			 "SMD_solvation_energy": 6.97 
		},
		"coords": [
			{
				"x": -4.3692799782,
				"y": 3.9596500047,
				"z": -0.9869733919,
				"element": "N" 
			},
			{
				"x": -3.3488686458,
				"y": 3.0562347321,
				"z": -1.2008468809,
				"element": "C" 
			},
			{
				"x": -3.637500401,
				"y": 1.7210403683,
				"z": -1.559080045,
				"element": "C" 
			},
			{
				"x": -2.6154043922,
				"y": 0.8230584248,
				"z": -1.8208935907,
				"element": "C" 
			},
			{
				"x": -1.2819939329,
				"y": 1.2379335701,
				"z": -1.7191717394,
				"element": "C" 
			},
			{
				"x": -0.9762706497,
				"y": 2.5583543675,
				"z": -1.3773575334,
				"element": "C" 
			},
			{
				"x": -2.0011082856,
				"y": 3.4588387672,
				"z": -1.1166901205,
				"element": "C" 
			},
			{
				"x": 0.031613982,
				"y": 0.1043697097,
				"z": -2.1009776986,
				"element": "S" 
			},
			{
				"x": 1.3003371121,
				"y": 0.8094280679,
				"z": -1.9107959563,
				"element": "O" 
			},
			{
				"x": -0.2803421077,
				"y": -0.611960549,
				"z": -3.3405696793,
				"element": "O" 
			},
			{
				"x": -0.139735248,
				"y": -1.1298527506,
				"z": -0.9228680355,
				"element": "N" 
			},
			{
				"x": 0.5083557116,
				"y": -1.1383440012,
				"z": 0.3290885937,
				"element": "C" 
			},
			{
				"x": 0.9387539891,
				"y": -2.3619830288,
				"z": 0.8560056759,
				"element": "C" 
			},
			{
				"x": 1.5238066579,
				"y": -2.4444757916,
				"z": 2.1202849097,
				"element": "C" 
			},
			{
				"x": 1.6974023968,
				"y": -1.2709052408,
				"z": 2.8676706234,
				"element": "C" 
			},
			{
				"x": 2.4303823883,
				"y": -1.2819803418,
				"z": 4.4602094166,
				"element": "Cl" 
			},
			{
				"x": 1.2784108837,
				"y": -0.0485065158,
				"z": 2.3446644655,
				"element": "C" 
			},
			{
				"x": 0.6805798813,
				"y": 0.0242541694,
				"z": 1.0910525563,
				"element": "C" 
			},
			{
				"x": 1.9574163109,
				"y": -3.7989340843,
				"z": 2.6351000519,
				"element": "C" 
			},
			{
				"x": 1.3191123266,
				"y": -4.1280044185,
				"z": 3.7765256948,
				"element": "F" 
			},
			{
				"x": 3.2810645441,
				"y": -3.8426073377,
				"z": 2.8833296535,
				"element": "F" 
			},
			{
				"x": 1.6903029989,
				"y": -4.776112129,
				"z": 1.7379852858,
				"element": "F" 
			},
			{
				"x": -5.2867816033,
				"y": 3.5904313242,
				"z": -0.7887901061,
				"element": "H" 
			},
			{
				"x": -4.1464318976,
				"y": 4.8062021431,
				"z": -0.4858444834,
				"element": "H" 
			},
			{
				"x": -4.6726394713,
				"y": 1.4002455499,
				"z": -1.6377088221,
				"element": "H" 
			},
			{
				"x": -2.8484235658,
				"y": -0.1982038335,
				"z": -2.1029388933,
				"element": "H" 
			},
			{
				"x": 0.0612996649,
				"y": 2.8696738676,
				"z": -1.3239522083,
				"element": "H" 
			},
			{
				"x": -1.763749665,
				"y": 4.4863855895,
				"z": -0.8551897082,
				"element": "H" 
			},
			{
				"x": -0.151115428,
				"y": -2.0190906123,
				"z": -1.4124414551,
				"element": "H" 
			},
			{
				"x": 0.8177323235,
				"y": -3.2719250744,
				"z": 0.2793119898,
				"element": "H" 
			},
			{
				"x": 1.4168984449,
				"y": 0.8527661359,
				"z": 2.9310937525,
				"element": "H" 
			},
			{
				"x": 0.3518756558,
				"y": 0.9843189172,
				"z": 0.7139676785,
				"element": "H" 
			}
		],
		 "valence_orbital": [ 
			{
				"type": "occ",
				"energy": -0.30493,
				"method": "rhf"
			},
			{
				"type": "occ",
				"energy": -0.27993,
				"method": "rhf"
			},
			{
				"type": "occ",
				"energy": -0.27786,
				"method": "rhf"
			},
			{
				"type": "occ",
				"energy": -0.23805,
				"method": "rhf"
			},
			{
				"type": "occ",
				"energy": -0.22811,
				"method": "rhf"
			},
			{
				"type": "unocc",
				"energy": -0.03705,
				"method": "rhf"
			},
			{
				"type": "unocc",
				"energy": -0.03334,
				"method": "rhf"
			},
			{
				"type": "unocc",
				"energy": -0.02699,
				"method": "rhf"
			},
			{
				"type": "unocc",
				"energy": -0.02164,
				"method": "rhf"
			},
			{
				"type": "unocc",
				"energy": 0.02322,
				"method": "rhf"
			}
		],
		"cosmo_sigma_profile": { 
			"-0.025": 0.0,
			"-0.024": 0.0,
			"-0.023": 0.0,
			"-0.022": 0.0,
			"-0.021": 0.0,
			"-0.02": 0.0,
			"-0.019": 0.0,
			"-0.018": 0.0,
			"-0.017": 0.00292482856446,
			"-0.016": 0.66337082091,
			"-0.015": 1.37124552454,
			"-0.014": 1.57758630389,
			"-0.013": 4.28948027865,
			"-0.012": 4.1193663315,
			"-0.011": 4.41035468392,
			"-0.01": 4.94408913084,
			"-0.009": 4.1982360188,
			"-0.008": 6.49609602154,
			"-0.007": 10.095786423,
			"-0.006": 13.3436631968,
			"-0.005": 12.8666682451,
			"-0.004": 12.4689138496,
			"-0.003": 14.9611733593,
			"-0.002": 14.7313623845,
			"-0.001": 16.6738091818,
			"0.0": 25.113381662,
			"0.001": 30.3721018371,
			"0.002": 39.5278523412,
			"0.003": 43.0807114485,
			"0.004": 25.8482546088,
			"0.005": 5.70241716824,
			"0.006": 4.50783545384,
			"0.007": 4.76586173823,
			"0.008": 3.92582226266,
			"0.009": 4.40164342923,
			"0.01": 9.66430007289,
			"0.011": 8.03171686781,
			"0.012": 0.997120959157,
			"0.013": 0.0,
			"0.014": 0.0,
			"0.015": 0.0,
			"0.016": 0.0,
			"0.017": 0.0,
			"0.018": 0.0,
			"0.019": 0.0,
			"0.02": 0.0,
			"0.021": 0.0,
			"0.022": 0.0,
			"0.023": 0.0,
			"0.024": 0.0,
			"0.025": 0.0
		}
	}
}
