{
	 "smiles": "CC(=O)CCC1=C(C2=CC=C(C)O2)C2=C(O1)C=CC(C)=C2", 
	 "Tm": 349.15, 
	 "num_atms": 39, 
	 "gaussian": { 
		 "optdone": 1, 
		 "sigma_profile": "yes", 
		 "theory": "DFT", 
		 "functional": "B3LYP", 
		 "basiset": "6-31G**", 
		 "properties": { 
			 "R2extent": 7166.6446, 
			 "electric_dipole_moment_norm": 1.74756482283, 
			 "electric_quadrupole_moment_norm": 19.3798713148, 
			 "total_energy": -922.436930023, 
			 "HOMO_LUMO_gap": 0.16496, 
			 "cosmo_polarized_energy": -11.24, 
			 "cosmo_cavitation_energy": 42.49, 
			 "cosmo_dispersion_energy": -29.57, 
			 "cosmo_repulsion_energy": 2.3, 
			 "cosmo_total_nonelectrostatic_energy": 15.22, 
			 "SMD_solvation_energy": 8.17 
		},
		"coords": [
			{
				"x": 0.7005706321,
				"y": 4.1619758605,
				"z": 3.3424886931,
				"element": "C" 
			},
			{
				"x": -0.2517402772,
				"y": 3.3314634073,
				"z": 2.5037234578,
				"element": "C" 
			},
			{
				"x": -1.0220378861,
				"y": 2.5383571642,
				"z": 3.013337441,
				"element": "O" 
			},
			{
				"x": -0.2101108523,
				"y": 3.5707319175,
				"z": 0.9979188805,
				"element": "C" 
			},
			{
				"x": -0.8281115238,
				"y": 2.4443380461,
				"z": 0.1505144295,
				"element": "C" 
			},
			{
				"x": 0.0614141189,
				"y": 1.258209493,
				"z": -0.0180161058,
				"element": "C" 
			},
			{
				"x": -0.0751549137,
				"y": -0.0806220043,
				"z": 0.2455456225,
				"element": "C" 
			},
			{
				"x": -1.1836257104,
				"y": -0.7475012834,
				"z": 0.9034588786,
				"element": "C" 
			},
			{
				"x": -2.0840487652,
				"y": -0.383210339,
				"z": 1.8685906282,
				"element": "C" 
			},
			{
				"x": -2.9312896276,
				"y": -1.5171620638,
				"z": 2.081117839,
				"element": "C" 
			},
			{
				"x": -2.4938503309,
				"y": -2.5042688438,
				"z": 1.2468116188,
				"element": "C" 
			},
			{
				"x": -2.9287023884,
				"y": -3.904197247,
				"z": 0.9901870542,
				"element": "C" 
			},
			{
				"x": -1.4262200041,
				"y": -2.0497143879,
				"z": 0.5206112672,
				"element": "O" 
			},
			{
				"x": 1.1314093202,
				"y": -0.7122668269,
				"z": -0.2673929067,
				"element": "C" 
			},
			{
				"x": 1.9117457732,
				"y": 0.3291366476,
				"z": -0.7873382675,
				"element": "C" 
			},
			{
				"x": 1.2669359345,
				"y": 1.5285501039,
				"z": -0.6372719226,
				"element": "O" 
			},
			{
				"x": 3.1615222965,
				"y": 0.1339370547,
				"z": -1.3621885186,
				"element": "C" 
			},
			{
				"x": 3.627259207,
				"y": -1.1778579377,
				"z": -1.4076769282,
				"element": "C" 
			},
			{
				"x": 2.8759300396,
				"y": -2.2608084537,
				"z": -0.8963908443,
				"element": "C" 
			},
			{
				"x": 3.4356090307,
				"y": -3.6636764506,
				"z": -0.9774679023,
				"element": "C" 
			},
			{
				"x": 1.6247334671,
				"y": -2.0244377818,
				"z": -0.3243722812,
				"element": "C" 
			},
			{
				"x": 1.7260908237,
				"y": 3.8064016262,
				"z": 3.1837214902,
				"element": "H" 
			},
			{
				"x": 0.447977324,
				"y": 4.0665481084,
				"z": 4.3993400816,
				"element": "H" 
			},
			{
				"x": 0.6788362776,
				"y": 5.2152739671,
				"z": 3.0417041186,
				"element": "H" 
			},
			{
				"x": 0.8196418078,
				"y": 3.7717028193,
				"z": 0.6822562837,
				"element": "H" 
			},
			{
				"x": -0.760718683,
				"y": 4.5074785217,
				"z": 0.8253388598,
				"element": "H" 
			},
			{
				"x": -1.0494120157,
				"y": 2.8495040906,
				"z": -0.8458438103,
				"element": "H" 
			},
			{
				"x": -1.772317742,
				"y": 2.1208718897,
				"z": 0.5919812364,
				"element": "H" 
			},
			{
				"x": -2.0991377013,
				"y": 0.5637232897,
				"z": 2.3883016005,
				"element": "H" 
			},
			{
				"x": -3.7554327749,
				"y": -1.5925737629,
				"z": 2.7766216633,
				"element": "H" 
			},
			{
				"x": -3.7850925017,
				"y": -4.1479340895,
				"z": 1.6232897517,
				"element": "H" 
			},
			{
				"x": -3.2233294267,
				"y": -4.0500897547,
				"z": -0.0558253002,
				"element": "H" 
			},
			{
				"x": -2.12816577,
				"y": -4.6215732915,
				"z": 1.2072238216,
				"element": "H" 
			},
			{
				"x": 3.7394147842,
				"y": 0.9637205785,
				"z": -1.7550136567,
				"element": "H" 
			},
			{
				"x": 4.5992651813,
				"y": -1.3766344822,
				"z": -1.8520735468,
				"element": "H" 
			},
			{
				"x": 4.3961563296,
				"y": -3.7436805934,
				"z": -0.4549561331,
				"element": "H" 
			},
			{
				"x": 2.7522297473,
				"y": -4.3904594191,
				"z": -0.5299254163,
				"element": "H" 
			},
			{
				"x": 3.609839214,
				"y": -3.9668899121,
				"z": -2.0167070541,
				"element": "H" 
			},
			{
				"x": 1.0331175857,
				"y": -2.8455656608,
				"z": 0.065975877,
				"element": "H" 
			}
		],
		 "valence_orbital": [ 
			{
				"type": "occ",
				"energy": -0.26199,
				"method": "rhf"
			},
			{
				"type": "occ",
				"energy": -0.25359,
				"method": "rhf"
			},
			{
				"type": "occ",
				"energy": -0.23024,
				"method": "rhf"
			},
			{
				"type": "occ",
				"energy": -0.21907,
				"method": "rhf"
			},
			{
				"type": "occ",
				"energy": -0.18446,
				"method": "rhf"
			},
			{
				"type": "unocc",
				"energy": -0.0195,
				"method": "rhf"
			},
			{
				"type": "unocc",
				"energy": -0.01599,
				"method": "rhf"
			},
			{
				"type": "unocc",
				"energy": 0.01342,
				"method": "rhf"
			},
			{
				"type": "unocc",
				"energy": 0.02164,
				"method": "rhf"
			},
			{
				"type": "unocc",
				"energy": 0.06401,
				"method": "rhf"
			}
		],
		"cosmo_sigma_profile": { 
			"-0.025": 0.0,
			"-0.024": 0.0,
			"-0.023": 0.0,
			"-0.022": 0.0,
			"-0.021": 0.0,
			"-0.02": 0.0,
			"-0.019": 0.0,
			"-0.018": 0.0,
			"-0.017": 0.0,
			"-0.016": 0.0,
			"-0.015": 0.0,
			"-0.014": 0.0,
			"-0.013": 0.0,
			"-0.012": 0.0,
			"-0.011": 0.0,
			"-0.01": 0.0,
			"-0.009": 0.0,
			"-0.008": 0.000265840769049,
			"-0.007": 4.2115858115,
			"-0.006": 14.5287881164,
			"-0.005": 23.276786528,
			"-0.004": 29.9537752884,
			"-0.003": 33.2870986787,
			"-0.002": 32.002620778,
			"-0.001": 34.3689968135,
			"0.0": 26.0759361523,
			"0.001": 21.357862254,
			"0.002": 21.5925313714,
			"0.003": 24.0294210229,
			"0.004": 22.4643813206,
			"0.005": 21.4191623175,
			"0.006": 14.8957208229,
			"0.007": 4.12575720346,
			"0.008": 2.58779528112,
			"0.009": 2.25582406874,
			"0.01": 1.81849815181,
			"0.011": 1.55903899193,
			"0.012": 0.944052553176,
			"0.013": 0.889083381895,
			"0.014": 0.0,
			"0.015": 0.0,
			"0.016": 0.0,
			"0.017": 0.0,
			"0.018": 0.0,
			"0.019": 0.0,
			"0.02": 0.0,
			"0.021": 0.0,
			"0.022": 0.0,
			"0.023": 0.0,
			"0.024": 0.0,
			"0.025": 0.0
		}
	}
}
