{
	 "smiles": "CCCC=C", 
	 "Tm": 109.15, 
	 "num_atms": 15, 
	 "gaussian": { 
		 "optdone": 1, 
		 "sigma_profile": "yes", 
		 "theory": "DFT", 
		 "functional": "B3LYP", 
		 "basiset": "6-31G**", 
		 "properties": { 
			 "R2extent": 904.1782, 
			 "electric_dipole_moment_norm": 0.35935198622, 
			 "electric_quadrupole_moment_norm": 1.52419543366, 
			 "total_energy": -196.544174231, 
			 "HOMO_LUMO_gap": 0.27248, 
			 "cosmo_polarized_energy": -1.47, 
			 "cosmo_cavitation_energy": 17.46, 
			 "cosmo_dispersion_energy": -12.62, 
			 "cosmo_repulsion_energy": 1.13, 
			 "cosmo_total_nonelectrostatic_energy": 5.96, 
			 "SMD_solvation_energy": 3.73 
		},
		"coords": [
			{
				"x": 2.168451392,
				"y": -2.1537427784,
				"z": 1.601551794,
				"element": "C" 
			},
			{
				"x": 1.1317757745,
				"y": -1.7884225775,
				"z": 0.5333555847,
				"element": "C" 
			},
			{
				"x": -0.0137645198,
				"y": -0.8840472857,
				"z": 1.0395350615,
				"element": "C" 
			},
			{
				"x": 0.4310223652,
				"y": 0.4812918413,
				"z": 1.4915710522,
				"element": "C" 
			},
			{
				"x": 0.0734750136,
				"y": 1.629989241,
				"z": 0.915801082,
				"element": "C" 
			},
			{
				"x": 1.6968561258,
				"y": -2.6502538319,
				"z": 2.4578637137,
				"element": "H" 
			},
			{
				"x": 2.6937197013,
				"y": -1.2700178584,
				"z": 1.9781223574,
				"element": "H" 
			},
			{
				"x": 2.9240022132,
				"y": -2.8358884619,
				"z": 1.1982725058,
				"element": "H" 
			},
			{
				"x": 0.6896471392,
				"y": -2.7094879862,
				"z": 0.1325911127,
				"element": "H" 
			},
			{
				"x": 1.6296001772,
				"y": -1.2917912092,
				"z": -0.3089397559,
				"element": "H" 
			},
			{
				"x": -0.5165709102,
				"y": -1.3963924759,
				"z": 1.8737913967,
				"element": "H" 
			},
			{
				"x": -0.7612376361,
				"y": -0.7729358316,
				"z": 0.2446919366,
				"element": "H" 
			},
			{
				"x": 1.098465645,
				"y": 0.5139942017,
				"z": 2.3530724777,
				"element": "H" 
			},
			{
				"x": -0.5940862248,
				"y": 1.6532006924,
				"z": 0.0569467294,
				"element": "H" 
			},
			{
				"x": 0.429143744,
				"y": 2.5894043204,
				"z": 1.2804729513,
				"element": "H" 
			}
		],
		 "valence_orbital": [ 
			{
				"type": "occ",
				"energy": -0.36258,
				"method": "rhf"
			},
			{
				"type": "occ",
				"energy": -0.33858,
				"method": "rhf"
			},
			{
				"type": "occ",
				"energy": -0.3303,
				"method": "rhf"
			},
			{
				"type": "occ",
				"energy": -0.31817,
				"method": "rhf"
			},
			{
				"type": "occ",
				"energy": -0.24962,
				"method": "rhf"
			},
			{
				"type": "unocc",
				"energy": 0.02286,
				"method": "rhf"
			},
			{
				"type": "unocc",
				"energy": 0.10269,
				"method": "rhf"
			},
			{
				"type": "unocc",
				"energy": 0.11925,
				"method": "rhf"
			},
			{
				"type": "unocc",
				"energy": 0.13761,
				"method": "rhf"
			},
			{
				"type": "unocc",
				"energy": 0.14506,
				"method": "rhf"
			}
		],
		"cosmo_sigma_profile": { 
			"-0.025": 0.0,
			"-0.024": 0.0,
			"-0.023": 0.0,
			"-0.022": 0.0,
			"-0.021": 0.0,
			"-0.02": 0.0,
			"-0.019": 0.0,
			"-0.018": 0.0,
			"-0.017": 0.0,
			"-0.016": 0.0,
			"-0.015": 0.0,
			"-0.014": 0.0,
			"-0.013": 0.0,
			"-0.012": 0.0,
			"-0.011": 0.0,
			"-0.01": 0.0,
			"-0.009": 0.0,
			"-0.008": 0.0,
			"-0.007": 0.0,
			"-0.006": 0.0,
			"-0.005": 0.867685520818,
			"-0.004": 4.84867802447,
			"-0.003": 13.3836151399,
			"-0.002": 21.4693315612,
			"-0.001": 22.8737762461,
			"0.0": 24.345168233,
			"0.001": 19.9233234601,
			"0.002": 9.48628987101,
			"0.003": 4.90573980629,
			"0.004": 3.81893250442,
			"0.005": 3.23412652712,
			"0.006": 3.08252245477,
			"0.007": 2.64092073934,
			"0.008": 0.8937738174,
			"0.009": 0.0,
			"0.01": 0.0,
			"0.011": 0.0,
			"0.012": 0.0,
			"0.013": 0.0,
			"0.014": 0.0,
			"0.015": 0.0,
			"0.016": 0.0,
			"0.017": 0.0,
			"0.018": 0.0,
			"0.019": 0.0,
			"0.02": 0.0,
			"0.021": 0.0,
			"0.022": 0.0,
			"0.023": 0.0,
			"0.024": 0.0,
			"0.025": 0.0
		}
	}
}
