{
	 "smiles": "OC(=O)C1=C(C=CC(=C1)S(=O)(=O)N1CCCCC1)N1CCCCC1", 
	 "Tm": 417.15, 
	 "num_atms": 48, 
	 "gaussian": { 
		 "optdone": 1, 
		 "sigma_profile": "yes", 
		 "theory": "DFT", 
		 "functional": "B3LYP", 
		 "basiset": "6-31G**", 
		 "properties": { 
			 "R2extent": 10516.8455, 
			 "electric_dipole_moment_norm": 6.05471619318, 
			 "electric_quadrupole_moment_norm": 33.5850431097, 
			 "total_energy": -1470.80249792, 
			 "HOMO_LUMO_gap": 0.15985, 
			 "cosmo_polarized_energy": -20.84, 
			 "cosmo_cavitation_energy": 47.85, 
			 "cosmo_dispersion_energy": -33.87, 
			 "cosmo_repulsion_energy": 2.56, 
			 "cosmo_total_nonelectrostatic_energy": 16.54, 
			 "SMD_solvation_energy": 5.41 
		},
		"coords": [
			{
				"x": -2.1181431281,
				"y": 1.661039439,
				"z": 1.6771394238,
				"element": "O" 
			},
			{
				"x": -1.8899160557,
				"y": 0.4349186325,
				"z": 1.1316809571,
				"element": "C" 
			},
			{
				"x": -2.8148713456,
				"y": -0.3076817972,
				"z": 0.8543830346,
				"element": "O" 
			},
			{
				"x": -0.4523851951,
				"y": 0.1876862607,
				"z": 0.8601597399,
				"element": "C" 
			},
			{
				"x": 0.0820417854,
				"y": -1.1243994547,
				"z": 0.6469670547,
				"element": "C" 
			},
			{
				"x": 1.3789379268,
				"y": -1.2061827107,
				"z": 0.0675095268,
				"element": "C" 
			},
			{
				"x": 2.1310872304,
				"y": -0.0817714577,
				"z": -0.2117269103,
				"element": "C" 
			},
			{
				"x": 1.6240991823,
				"y": 1.1943912907,
				"z": 0.0784949369,
				"element": "C" 
			},
			{
				"x": 0.3493677075,
				"y": 1.3169034076,
				"z": 0.6135964306,
				"element": "C" 
			},
			{
				"x": 2.5953030238,
				"y": 2.6535003037,
				"z": -0.2883682596,
				"element": "S" 
			},
			{
				"x": 2.0924006194,
				"y": 3.7288439845,
				"z": 0.5704364188,
				"element": "O" 
			},
			{
				"x": 4.0022868513,
				"y": 2.2396216926,
				"z": -0.2872406905,
				"element": "O" 
			},
			{
				"x": 2.2430893524,
				"y": 3.1211852982,
				"z": -1.8615735286,
				"element": "N" 
			},
			{
				"x": 0.8987080609,
				"y": 3.6882026796,
				"z": -2.0974737697,
				"element": "C" 
			},
			{
				"x": 0.7670429662,
				"y": 4.0649443533,
				"z": -3.5747188983,
				"element": "C" 
			},
			{
				"x": 0.8781514972,
				"y": 2.8284590319,
				"z": -4.4956196921,
				"element": "C" 
			},
			{
				"x": 1.8188967097,
				"y": 1.7555876581,
				"z": -3.8956434462,
				"element": "C" 
			},
			{
				"x": 2.8732368974,
				"y": 2.3897100917,
				"z": -2.9833597224,
				"element": "C" 
			},
			{
				"x": -0.5793884037,
				"y": -2.2720512778,
				"z": 1.016446218,
				"element": "N" 
			},
			{
				"x": -0.2048245024,
				"y": -3.5832481092,
				"z": 0.4850619658,
				"element": "C" 
			},
			{
				"x": 0.696645645,
				"y": -4.3765128419,
				"z": 1.4570796226,
				"element": "C" 
			},
			{
				"x": 0.3206998255,
				"y": -4.0415407478,
				"z": 2.9190608738,
				"element": "C" 
			},
			{
				"x": -1.1581375173,
				"y": -3.6450457866,
				"z": 3.007281321,
				"element": "C" 
			},
			{
				"x": -1.4331302191,
				"y": -2.3474961251,
				"z": 2.2139351108,
				"element": "C" 
			},
			{
				"x": -3.0845542401,
				"y": 1.7467211886,
				"z": 1.7195994478,
				"element": "H" 
			},
			{
				"x": 1.8283078494,
				"y": -2.1776953198,
				"z": -0.0953006873,
				"element": "H" 
			},
			{
				"x": 3.1397373357,
				"y": -0.1839973501,
				"z": -0.5979396304,
				"element": "H" 
			},
			{
				"x": -0.0489625681,
				"y": 2.2999923398,
				"z": 0.8304512626,
				"element": "H" 
			},
			{
				"x": 0.7810922339,
				"y": 4.5623249319,
				"z": -1.4545119266,
				"element": "H" 
			},
			{
				"x": 0.1079992946,
				"y": 2.9672396589,
				"z": -1.8309562935,
				"element": "H" 
			},
			{
				"x": 1.5513815547,
				"y": 4.7914313823,
				"z": -3.8160786341,
				"element": "H" 
			},
			{
				"x": -0.1892080011,
				"y": 4.5760190322,
				"z": -3.7270513113,
				"element": "H" 
			},
			{
				"x": -0.1133775983,
				"y": 2.391552599,
				"z": -4.6589961672,
				"element": "H" 
			},
			{
				"x": 1.242391999,
				"y": 3.1441610199,
				"z": -5.4795690828,
				"element": "H" 
			},
			{
				"x": 1.2420241115,
				"y": 1.0307995805,
				"z": -3.3094224482,
				"element": "H" 
			},
			{
				"x": 2.3170987144,
				"y": 1.1890052021,
				"z": -4.6900446202,
				"element": "H" 
			},
			{
				"x": 3.4929501034,
				"y": 3.0947243658,
				"z": -3.5528873459,
				"element": "H" 
			},
			{
				"x": 3.5563611652,
				"y": 1.6444234325,
				"z": -2.5732401557,
				"element": "H" 
			},
			{
				"x": -1.1386442754,
				"y": -4.1346692847,
				"z": 0.3205707689,
				"element": "H" 
			},
			{
				"x": 0.2498397618,
				"y": -3.4657838708,
				"z": -0.4997254976,
				"element": "H" 
			},
			{
				"x": 1.7542752483,
				"y": -4.1520280274,
				"z": 1.2806011998,
				"element": "H" 
			},
			{
				"x": 0.5643464343,
				"y": -5.4468365595,
				"z": 1.2583690968,
				"element": "H" 
			},
			{
				"x": 0.933540669,
				"y": -3.2046081881,
				"z": 3.2754923769,
				"element": "H" 
			},
			{
				"x": 0.5386949988,
				"y": -4.88963604,
				"z": 3.5759944501,
				"element": "H" 
			},
			{
				"x": -1.7829361896,
				"y": -4.4637177029,
				"z": 2.6286919008,
				"element": "H" 
			},
			{
				"x": -1.4643283888,
				"y": -3.4835503492,
				"z": 4.0462750376,
				"element": "H" 
			},
			{
				"x": -2.4910328807,
				"y": -2.264004451,
				"z": 1.9457558405,
				"element": "H" 
			},
			{
				"x": -1.1925962462,
				"y": -1.4839314051,
				"z": 2.8430147016,
				"element": "H" 
			}
		],
		 "valence_orbital": [ 
			{
				"type": "occ",
				"energy": -0.2835,
				"method": "rhf"
			},
			{
				"type": "occ",
				"energy": -0.27508,
				"method": "rhf"
			},
			{
				"type": "occ",
				"energy": -0.26771,
				"method": "rhf"
			},
			{
				"type": "occ",
				"energy": -0.24109,
				"method": "rhf"
			},
			{
				"type": "occ",
				"energy": -0.20731,
				"method": "rhf"
			},
			{
				"type": "unocc",
				"energy": -0.04746,
				"method": "rhf"
			},
			{
				"type": "unocc",
				"energy": -0.02116,
				"method": "rhf"
			},
			{
				"type": "unocc",
				"energy": 0.03435,
				"method": "rhf"
			},
			{
				"type": "unocc",
				"energy": 0.06267,
				"method": "rhf"
			},
			{
				"type": "unocc",
				"energy": 0.07084,
				"method": "rhf"
			}
		],
		"cosmo_sigma_profile": { 
			"-0.025": 0.0,
			"-0.024": 0.0,
			"-0.023": 0.0,
			"-0.022": 0.0,
			"-0.021": 0.0,
			"-0.02": 0.0,
			"-0.019": 0.0,
			"-0.018": 0.460809301618,
			"-0.017": 0.729940347529,
			"-0.016": 1.07332380117,
			"-0.015": 0.745223495094,
			"-0.014": 0.88435485307,
			"-0.013": 0.399179842853,
			"-0.012": 0.353150239345,
			"-0.011": 0.693006029556,
			"-0.01": 0.972598352876,
			"-0.009": 0.692078602607,
			"-0.008": 0.697641937711,
			"-0.007": 4.41767598041,
			"-0.006": 6.89914896826,
			"-0.005": 12.6519469242,
			"-0.004": 29.4206149063,
			"-0.003": 56.7824076888,
			"-0.002": 60.283276027,
			"-0.001": 42.1762816036,
			"0.0": 34.4880040159,
			"0.001": 19.1139339774,
			"0.002": 18.0034684107,
			"0.003": 12.3051191215,
			"0.004": 6.80610839741,
			"0.005": 6.0391674254,
			"0.006": 7.29933692939,
			"0.007": 7.61510663538,
			"0.008": 6.29428387423,
			"0.009": 6.10197255502,
			"0.01": 6.80246107597,
			"0.011": 10.6179751628,
			"0.012": 10.9005346493,
			"0.013": 1.47606419569,
			"0.014": 0.0,
			"0.015": 0.0,
			"0.016": 0.0,
			"0.017": 0.0,
			"0.018": 0.0,
			"0.019": 0.0,
			"0.02": 0.0,
			"0.021": 0.0,
			"0.022": 0.0,
			"0.023": 0.0,
			"0.024": 0.0,
			"0.025": 0.0
		}
	}
}
