{
	 "smiles": "CN(CC(O)=O)C(N)=N", 
	 "Tm": 528.15, 
	 "num_atms": 18, 
	 "gaussian": { 
		 "optdone": 1, 
		 "sigma_profile": "yes", 
		 "theory": "DFT", 
		 "functional": "B3LYP", 
		 "basiset": "6-31G**", 
		 "properties": { 
			 "R2extent": 1802.0589, 
			 "electric_dipole_moment_norm": 4.40116436639, 
			 "electric_quadrupole_moment_norm": 13.4922874454, 
			 "total_energy": -472.554457254, 
			 "HOMO_LUMO_gap": 0.22273, 
			 "cosmo_polarized_energy": -18.51, 
			 "cosmo_cavitation_energy": 21.81, 
			 "cosmo_dispersion_energy": -15.79, 
			 "cosmo_repulsion_energy": 1.33, 
			 "cosmo_total_nonelectrostatic_energy": 7.35, 
			 "SMD_solvation_energy": 4.28 
		},
		"coords": [
			{
				"x": 1.4864709709,
				"y": 1.3688905362,
				"z": -0.085713804,
				"element": "C" 
			},
			{
				"x": 0.0910583877,
				"y": 0.9881142932,
				"z": 0.0390298518,
				"element": "N" 
			},
			{
				"x": -0.2563314136,
				"y": 0.0031378142,
				"z": 1.035054945,
				"element": "C" 
			},
			{
				"x": -0.1736056084,
				"y": 0.4566393567,
				"z": 2.4883951802,
				"element": "C" 
			},
			{
				"x": -0.076588917,
				"y": 1.8013391221,
				"z": 2.6270283631,
				"element": "O" 
			},
			{
				"x": -0.2049773157,
				"y": -0.2991445006,
				"z": 3.4334842718,
				"element": "O" 
			},
			{
				"x": -0.9403891313,
				"y": 1.6990037679,
				"z": -0.5634136948,
				"element": "C" 
			},
			{
				"x": -0.5096947908,
				"y": 2.8002484133,
				"z": -1.318961561,
				"element": "N" 
			},
			{
				"x": -2.1528169136,
				"y": 1.2807435335,
				"z": -0.4570712713,
				"element": "N" 
			},
			{
				"x": 1.6946224656,
				"y": 1.7150869185,
				"z": -1.1003894309,
				"element": "H" 
			},
			{
				"x": 2.1101662433,
				"y": 0.4886830593,
				"z": 0.0979057383,
				"element": "H" 
			},
			{
				"x": 1.7894860501,
				"y": 2.1467204085,
				"z": 0.6323492221,
				"element": "H" 
			},
			{
				"x": 0.3789095881,
				"y": -0.8848522639,
				"z": 0.9445654906,
				"element": "H" 
			},
			{
				"x": -1.2904831664,
				"y": -0.3036141038,
				"z": 0.8541091688,
				"element": "H" 
			},
			{
				"x": -0.063927665,
				"y": 1.9640706953,
				"z": 3.5854924074,
				"element": "H" 
			},
			{
				"x": -1.2791012955,
				"y": 3.3645853738,
				"z": -1.6525995155,
				"element": "H" 
			},
			{
				"x": 0.2025072246,
				"y": 3.3739058221,
				"z": -0.8842987541,
				"element": "H" 
			},
			{
				"x": -2.8026047131,
				"y": 1.9089417536,
				"z": -0.9252666075,
				"element": "H" 
			}
		],
		 "valence_orbital": [ 
			{
				"type": "occ",
				"energy": -0.31572,
				"method": "rhf"
			},
			{
				"type": "occ",
				"energy": -0.28639,
				"method": "rhf"
			},
			{
				"type": "occ",
				"energy": -0.26525,
				"method": "rhf"
			},
			{
				"type": "occ",
				"energy": -0.24528,
				"method": "rhf"
			},
			{
				"type": "occ",
				"energy": -0.20981,
				"method": "rhf"
			},
			{
				"type": "unocc",
				"energy": 0.01292,
				"method": "rhf"
			},
			{
				"type": "unocc",
				"energy": 0.05491,
				"method": "rhf"
			},
			{
				"type": "unocc",
				"energy": 0.06672,
				"method": "rhf"
			},
			{
				"type": "unocc",
				"energy": 0.08374,
				"method": "rhf"
			},
			{
				"type": "unocc",
				"energy": 0.10238,
				"method": "rhf"
			}
		],
		"cosmo_sigma_profile": { 
			"-0.025": 0.0,
			"-0.024": 0.0,
			"-0.023": 0.0,
			"-0.022": 0.0,
			"-0.021": 0.0,
			"-0.02": 0.0,
			"-0.019": 0.0875348458646,
			"-0.018": 0.609301436307,
			"-0.017": 0.969018397941,
			"-0.016": 1.11852298239,
			"-0.015": 0.853618780713,
			"-0.014": 0.314523935909,
			"-0.013": 2.38218410162,
			"-0.012": 4.66376927753,
			"-0.011": 3.32405001434,
			"-0.01": 4.68488618846,
			"-0.009": 3.33570153755,
			"-0.008": 3.28310991993,
			"-0.007": 5.87774647481,
			"-0.006": 7.99272210382,
			"-0.005": 9.21706063269,
			"-0.004": 10.2881058311,
			"-0.003": 11.4463127057,
			"-0.002": 14.0278328337,
			"-0.001": 8.83981665812,
			"0.0": 5.03541590167,
			"0.001": 4.65759103142,
			"0.002": 5.0351674679,
			"0.003": 5.30832045222,
			"0.004": 5.83333978987,
			"0.005": 6.13695888938,
			"0.006": 5.08642508452,
			"0.007": 6.4206208379,
			"0.008": 5.66349598606,
			"0.009": 3.30781849485,
			"0.01": 4.25908255381,
			"0.011": 5.95179665241,
			"0.012": 7.0929536105,
			"0.013": 2.40804183103,
			"0.014": 0.94627725597,
			"0.015": 1.40470055653,
			"0.016": 1.64071583617,
			"0.017": 0.9722878441,
			"0.018": 0.0410932282242,
			"0.019": 0.0,
			"0.02": 0.0,
			"0.021": 0.0,
			"0.022": 0.0,
			"0.023": 0.0,
			"0.024": 0.0,
			"0.025": 0.0
		}
	}
}
