{
	 "smiles": "CCCOC1=CC=C(NS(C)(=O)=O)C=C1", 
	 "Tm": 392.15, 
	 "num_atms": 30, 
	 "gaussian": { 
		 "optdone": 1, 
		 "sigma_profile": "yes", 
		 "theory": "DFT", 
		 "functional": "B3LYP", 
		 "basiset": "6-31G**", 
		 "properties": { 
			 "R2extent": 6613.7365, 
			 "electric_dipole_moment_norm": 5.52938124025, 
			 "electric_quadrupole_moment_norm": 19.5494660395, 
			 "total_energy": -1068.64876653, 
			 "HOMO_LUMO_gap": 0.21544, 
			 "cosmo_polarized_energy": -16.54, 
			 "cosmo_cavitation_energy": 34.86, 
			 "cosmo_dispersion_energy": -25.33, 
			 "cosmo_repulsion_energy": 1.97, 
			 "cosmo_total_nonelectrostatic_energy": 11.5, 
			 "SMD_solvation_energy": 5.75 
		},
		"coords": [
			{
				"x": -2.7441931114,
				"y": 3.197032584,
				"z": 3.7307163973,
				"element": "C" 
			},
			{
				"x": -1.402750684,
				"y": 2.4811894163,
				"z": 3.9140960334,
				"element": "C" 
			},
			{
				"x": -1.1011174237,
				"y": 1.4667102624,
				"z": 2.8185491713,
				"element": "C" 
			},
			{
				"x": -0.9942364917,
				"y": 2.173465824,
				"z": 1.5812500705,
				"element": "O" 
			},
			{
				"x": -0.7428462319,
				"y": 1.4759272876,
				"z": 0.4406821736,
				"element": "C" 
			},
			{
				"x": -0.656116794,
				"y": 2.2418448391,
				"z": -0.7345013725,
				"element": "C" 
			},
			{
				"x": -0.4010757011,
				"y": 1.6305548867,
				"z": -1.9528275256,
				"element": "C" 
			},
			{
				"x": -0.2362543744,
				"y": 0.2380796993,
				"z": -2.0254319114,
				"element": "C" 
			},
			{
				"x": 0.0029382978,
				"y": -0.4455888176,
				"z": -3.2694879145,
				"element": "N" 
			},
			{
				"x": 1.5027329653,
				"y": -0.2505001263,
				"z": -4.0612650161,
				"element": "S" 
			},
			{
				"x": 2.4938901717,
				"y": -1.5169645722,
				"z": -3.256431344,
				"element": "C" 
			},
			{
				"x": 1.2386347742,
				"y": -0.6430823066,
				"z": -5.4489531317,
				"element": "O" 
			},
			{
				"x": 2.1132041202,
				"y": 1.0459714668,
				"z": -3.7510082005,
				"element": "O" 
			},
			{
				"x": -0.3215734238,
				"y": -0.5186479822,
				"z": -0.8567782356,
				"element": "C" 
			},
			{
				"x": -0.571507806,
				"y": 0.08708341,
				"z": 0.3770627754,
				"element": "C" 
			},
			{
				"x": -2.7713792191,
				"y": 3.7327168177,
				"z": 2.7781929666,
				"element": "H" 
			},
			{
				"x": -2.9153929615,
				"y": 3.920443078,
				"z": 4.5336558727,
				"element": "H" 
			},
			{
				"x": -3.5770098494,
				"y": 2.4844408107,
				"z": 3.7396549033,
				"element": "H" 
			},
			{
				"x": -0.5854436528,
				"y": 3.2113663665,
				"z": 3.9451296676,
				"element": "H" 
			},
			{
				"x": -1.3849304053,
				"y": 1.9474524637,
				"z": 4.872647729,
				"element": "H" 
			},
			{
				"x": -1.9047751759,
				"y": 0.7184878378,
				"z": 2.751056467,
				"element": "H" 
			},
			{
				"x": -0.1602990368,
				"y": 0.9378327911,
				"z": 3.0261609378,
				"element": "H" 
			},
			{
				"x": -0.7862948067,
				"y": 3.3163961911,
				"z": -0.6612082173,
				"element": "H" 
			},
			{
				"x": -0.3125248431,
				"y": 2.2281122481,
				"z": -2.853911776,
				"element": "H" 
			},
			{
				"x": -0.7099371027,
				"y": -0.3105911888,
				"z": -3.9835214716,
				"element": "H" 
			},
			{
				"x": 2.5075185091,
				"y": -1.316603383,
				"z": -2.1841015404,
				"element": "H" 
			},
			{
				"x": 3.5019297464,
				"y": -1.4402946627,
				"z": -3.6671387493,
				"element": "H" 
			},
			{
				"x": 2.0572401487,
				"y": -2.4920034374,
				"z": -3.4706760276,
				"element": "H" 
			},
			{
				"x": -0.2061345149,
				"y": -1.5963529091,
				"z": -0.9200832259,
				"element": "H" 
			},
			{
				"x": -0.636895123,
				"y": -0.5260788951,
				"z": 1.2674704947,
				"element": "H" 
			}
		],
		 "valence_orbital": [ 
			{
				"type": "occ",
				"energy": -0.30628,
				"method": "rhf"
			},
			{
				"type": "occ",
				"energy": -0.29468,
				"method": "rhf"
			},
			{
				"type": "occ",
				"energy": -0.27382,
				"method": "rhf"
			},
			{
				"type": "occ",
				"energy": -0.26057,
				"method": "rhf"
			},
			{
				"type": "occ",
				"energy": -0.22757,
				"method": "rhf"
			},
			{
				"type": "unocc",
				"energy": -0.01213,
				"method": "rhf"
			},
			{
				"type": "unocc",
				"energy": -0.0074,
				"method": "rhf"
			},
			{
				"type": "unocc",
				"energy": 0.06848,
				"method": "rhf"
			},
			{
				"type": "unocc",
				"energy": 0.07924,
				"method": "rhf"
			},
			{
				"type": "unocc",
				"energy": 0.0861,
				"method": "rhf"
			}
		],
		"cosmo_sigma_profile": { 
			"-0.025": 0.0,
			"-0.024": 0.0,
			"-0.023": 0.0,
			"-0.022": 0.0,
			"-0.021": 0.0,
			"-0.02": 0.0,
			"-0.019": 0.0,
			"-0.018": 0.0,
			"-0.017": 0.0,
			"-0.016": 0.0,
			"-0.015": 0.234747767609,
			"-0.014": 1.06515364189,
			"-0.013": 0.861720958937,
			"-0.012": 0.970013834451,
			"-0.011": 0.974525757295,
			"-0.01": 1.45054586355,
			"-0.009": 2.43654618604,
			"-0.008": 5.5430377689,
			"-0.007": 6.4714254902,
			"-0.006": 14.4575482939,
			"-0.005": 19.4289939436,
			"-0.004": 24.5661520533,
			"-0.003": 25.7132453864,
			"-0.002": 21.6385524495,
			"-0.001": 18.8080013795,
			"0.0": 17.9908627165,
			"0.001": 17.5785210232,
			"0.002": 14.6583710246,
			"0.003": 12.4965964084,
			"0.004": 15.5313132667,
			"0.005": 8.17991140768,
			"0.006": 5.46285597689,
			"0.007": 4.95575642369,
			"0.008": 4.78142269251,
			"0.009": 5.44657574202,
			"0.01": 4.21509069063,
			"0.011": 11.983509733,
			"0.012": 6.74862919109,
			"0.013": 0.142325367903,
			"0.014": 0.0,
			"0.015": 0.0,
			"0.016": 0.0,
			"0.017": 0.0,
			"0.018": 0.0,
			"0.019": 0.0,
			"0.02": 0.0,
			"0.021": 0.0,
			"0.022": 0.0,
			"0.023": 0.0,
			"0.024": 0.0,
			"0.025": 0.0
		}
	}
}
