{
	 "smiles": "CC1=CC=CC(Cl)=C1I", 
	 "Tm": 300.15, 
	 "num_atms": 15, 
	 "gaussian": { 
		 "optdone": 1, 
		 "sigma_profile": "no", 
		 "theory": "DFT", 
		 "functional": "B3LYP", 
		 "basiset": "6-31G**", 
		 "properties": { 
			 "R2extent": 1556.94, 
			 "electric_dipole_moment_norm": 2.65759682044, 
			 "electric_quadrupole_moment_norm": 5.29896217952, 
			 "total_energy": -741.940751868, 
			 "HOMO_LUMO_gap": 0.19865, 
			 "cosmo_polarized_energy": -77497.74, 
			 "cosmo_cavitation_energy": 23.08, 
			 "cosmo_dispersion_energy": -18.6, 
			 "cosmo_repulsion_energy": 1.47, 
			 "cosmo_total_nonelectrostatic_energy": 5.95, 
			 "SMD_solvation_energy": 2.97 
		},
		"coords": [
			{
				"x": -2.8865765948,
				"y": -1.336319854,
				"z": -0.1830037405,
				"element": "C" 
			},
			{
				"x": -1.4553219497,
				"y": -0.8915022046,
				"z": -0.3573192244,
				"element": "C" 
			},
			{
				"x": -0.5441883924,
				"y": -1.7452813496,
				"z": -0.9935705464,
				"element": "C" 
			},
			{
				"x": 0.7876313005,
				"y": -1.384949294,
				"z": -1.1805488211,
				"element": "C" 
			},
			{
				"x": 1.2435564423,
				"y": -0.1507360874,
				"z": -0.73131637,
				"element": "C" 
			},
			{
				"x": 0.3567533757,
				"y": 0.7200429916,
				"z": -0.0936725569,
				"element": "C" 
			},
			{
				"x": 0.9956438799,
				"y": 2.2581018897,
				"z": 0.4473486595,
				"element": "Cl" 
			},
			{
				"x": -0.9859892615,
				"y": 0.3585491969,
				"z": 0.0956642941,
				"element": "C" 
			},
			{
				"x": -2.3271625715,
				"y": 1.6862548028,
				"z": 1.0648280977,
				"element": "I" 
			},
			{
				"x": -3.170236338,
				"y": -1.3674125174,
				"z": 0.8742024335,
				"element": "H" 
			},
			{
				"x": -3.0303342128,
				"y": -2.3336457811,
				"z": -0.6056444312,
				"element": "H" 
			},
			{
				"x": -3.5820924843,
				"y": -0.6503569214,
				"z": -0.6778048728,
				"element": "H" 
			},
			{
				"x": -0.8967223652,
				"y": -2.7102260539,
				"z": -1.3458126951,
				"element": "H" 
			},
			{
				"x": 1.4734388142,
				"y": -2.0647449444,
				"z": -1.6766383813,
				"element": "H" 
			},
			{
				"x": 2.2761003575,
				"y": 0.1506261267,
				"z": -0.8661118448,
				"element": "H" 
			}
		],
		 "valence_orbital": [ 
			{
				"type": "occ",
				"energy": -0.32124,
				"method": "rhf"
			},
			{
				"type": "occ",
				"energy": -0.29854,
				"method": "rhf"
			},
			{
				"type": "occ",
				"energy": -0.26283,
				"method": "rhf"
			},
			{
				"type": "occ",
				"energy": -0.25264,
				"method": "rhf"
			},
			{
				"type": "occ",
				"energy": -0.2431,
				"method": "rhf"
			},
			{
				"type": "unocc",
				"energy": -0.04445,
				"method": "rhf"
			},
			{
				"type": "unocc",
				"energy": -0.025,
				"method": "rhf"
			},
			{
				"type": "unocc",
				"energy": -0.01891,
				"method": "rhf"
			},
			{
				"type": "unocc",
				"energy": 0.03224,
				"method": "rhf"
			},
			{
				"type": "unocc",
				"energy": 0.04686,
				"method": "rhf"
			}
		],
		"cosmo_sigma_profile": { 
			"0.0": 0.0,
			"0.0": 0.0,
			"0.0": 0.0,
			"0.0": 0.0,
			"0.0": 0.0,
			"0.0": 0.0,
			"0.0": 0.0,
			"0.0": 0.0,
			"0.0": 0.0,
			"0.0": 0.0,
			"0.0": 0.0,
			"0.0": 0.0,
			"0.0": 0.0,
			"0.0": 0.0,
			"0.0": 0.0,
			"0.0": 0.0,
			"0.0": 0.0,
			"0.0": 0.0,
			"0.0": 0.0,
			"0.0": 0.0,
			"0.0": 0.0,
			"0.0": 0.0,
			"0.0": 0.0,
			"0.0": 0.0,
			"0.0": 0.0,
			"0.0": 0.0,
			"0.0": 0.0,
			"0.0": 0.0,
			"0.0": 0.0,
			"0.0": 0.0,
			"0.0": 0.0,
			"0.0": 0.0,
			"0.0": 0.0,
			"0.0": 0.0,
			"0.0": 0.0,
			"0.0": 0.0,
			"0.0": 0.0,
			"0.0": 0.0,
			"0.0": 0.0,
			"0.0": 0.0,
			"0.0": 0.0,
			"0.0": 0.0,
			"0.0": 0.0,
			"0.0": 0.0,
			"0.0": 0.0,
			"0.0": 0.0,
			"0.0": 0.0,
			"0.0": 0.0,
			"0.0": 0.0,
			"0.0": 0.0,
			"0.0": 0.0
		}
	}
}
