{
	 "smiles": "CCCCCCCCCCCCOC(=O)C(C)=C", 
	 "Tm": 266.15, 
	 "num_atms": 48, 
	 "gaussian": { 
		 "optdone": 1, 
		 "sigma_profile": "yes", 
		 "theory": "DFT", 
		 "functional": "B3LYP", 
		 "basiset": "6-31G**", 
		 "properties": { 
			 "R2extent": 9414.1574, 
			 "electric_dipole_moment_norm": 1.75899497725, 
			 "electric_quadrupole_moment_norm": 17.4873068109, 
			 "total_energy": -778.255044405, 
			 "HOMO_LUMO_gap": 0.22843, 
			 "cosmo_polarized_energy": -6.5, 
			 "cosmo_cavitation_energy": 48.08, 
			 "cosmo_dispersion_energy": -30.91, 
			 "cosmo_repulsion_energy": 2.48, 
			 "cosmo_total_nonelectrostatic_energy": 19.64, 
			 "SMD_solvation_energy": 8.35 
		},
		"coords": [
			{
				"x": -2.9484113161,
				"y": -4.1748337579,
				"z": 1.8339933022,
				"element": "C" 
			},
			{
				"x": -3.5091496309,
				"y": -2.8202515048,
				"z": 1.3880526023,
				"element": "C" 
			},
			{
				"x": -2.9015328516,
				"y": -2.3275694144,
				"z": 0.0668870052,
				"element": "C" 
			},
			{
				"x": -3.5005420944,
				"y": -1.0151859159,
				"z": -0.468245653,
				"element": "C" 
			},
			{
				"x": -3.3000101865,
				"y": 0.2283834572,
				"z": 0.4175197336,
				"element": "C" 
			},
			{
				"x": -1.84981109,
				"y": 0.6812116132,
				"z": 0.679075247,
				"element": "C" 
			},
			{
				"x": -1.0741061736,
				"y": 1.1894352657,
				"z": -0.5586056961,
				"element": "C" 
			},
			{
				"x": -0.2415323349,
				"y": 0.1499176352,
				"z": -1.3344008501,
				"element": "C" 
			},
			{
				"x": 0.9910072748,
				"y": -0.3591188497,
				"z": -0.5701346828,
				"element": "C" 
			},
			{
				"x": 1.8455224178,
				"y": -1.393858364,
				"z": -1.336214573,
				"element": "C" 
			},
			{
				"x": 3.0127007379,
				"y": -0.8583434933,
				"z": -2.1874460655,
				"element": "C" 
			},
			{
				"x": 2.6756853229,
				"y": -0.0065478566,
				"z": -3.4049306978,
				"element": "C" 
			},
			{
				"x": 2.3526872029,
				"y": 1.3341105009,
				"z": -2.9683057615,
				"element": "O" 
			},
			{
				"x": 2.1187867014,
				"y": 2.2306321738,
				"z": -3.9544967966,
				"element": "C" 
			},
			{
				"x": 2.145746888,
				"y": 1.9411260766,
				"z": -5.1360829235,
				"element": "O" 
			},
			{
				"x": 1.8249744117,
				"y": 3.6098767877,
				"z": -3.4552690016,
				"element": "C" 
			},
			{
				"x": 1.4927583708,
				"y": 4.6091580476,
				"z": -4.531303894,
				"element": "C" 
			},
			{
				"x": 1.8762757609,
				"y": 3.9049304777,
				"z": -2.1501207297,
				"element": "C" 
			},
			{
				"x": -3.3969650757,
				"y": -4.5048741719,
				"z": 2.7768549745,
				"element": "H" 
			},
			{
				"x": -3.1419797201,
				"y": -4.9503514343,
				"z": 1.0839092642,
				"element": "H" 
			},
			{
				"x": -1.8634050528,
				"y": -4.1250172125,
				"z": 1.9822520682,
				"element": "H" 
			},
			{
				"x": -4.6000548647,
				"y": -2.8936657424,
				"z": 1.2774790365,
				"element": "H" 
			},
			{
				"x": -3.3342290987,
				"y": -2.0805023483,
				"z": 2.1794085398,
				"element": "H" 
			},
			{
				"x": -3.0409930291,
				"y": -3.1072296763,
				"z": -0.694817698,
				"element": "H" 
			},
			{
				"x": -1.8147359181,
				"y": -2.2236541473,
				"z": 0.1887864022,
				"element": "H" 
			},
			{
				"x": -3.0936353357,
				"y": -0.8195746665,
				"z": -1.4680669305,
				"element": "H" 
			},
			{
				"x": -4.5804274852,
				"y": -1.1594064195,
				"z": -0.6127083121,
				"element": "H" 
			},
			{
				"x": -3.8421603491,
				"y": 1.0658739856,
				"z": -0.0430346473,
				"element": "H" 
			},
			{
				"x": -3.7879449603,
				"y": 0.0597206975,
				"z": 1.3862719137,
				"element": "H" 
			},
			{
				"x": -1.2888926001,
				"y": -0.1213203343,
				"z": 1.1745886655,
				"element": "H" 
			},
			{
				"x": -1.8978208752,
				"y": 1.4942175818,
				"z": 1.4144710017,
				"element": "H" 
			},
			{
				"x": -0.3926318785,
				"y": 1.9922907287,
				"z": -0.2466323427,
				"element": "H" 
			},
			{
				"x": -1.7860181597,
				"y": 1.6627260944,
				"z": -1.2485039826,
				"element": "H" 
			},
			{
				"x": 0.0850150875,
				"y": 0.6082643028,
				"z": -2.2734083568,
				"element": "H" 
			},
			{
				"x": -0.8662350821,
				"y": -0.7089025617,
				"z": -1.6101603891,
				"element": "H" 
			},
			{
				"x": 1.6189893909,
				"y": 0.4938698537,
				"z": -0.2799898171,
				"element": "H" 
			},
			{
				"x": 0.65801395,
				"y": -0.8185962212,
				"z": 0.3688884244,
				"element": "H" 
			},
			{
				"x": 1.1902610522,
				"y": -2.0066849844,
				"z": -1.971444769,
				"element": "H" 
			},
			{
				"x": 2.2856601471,
				"y": -2.0899863117,
				"z": -0.6114918182,
				"element": "H" 
			},
			{
				"x": 3.5771780961,
				"y": -1.7225418503,
				"z": -2.561719346,
				"element": "H" 
			},
			{
				"x": 3.7089041584,
				"y": -0.2922844995,
				"z": -1.5551973658,
				"element": "H" 
			},
			{
				"x": 1.8298958567,
				"y": -0.4109079966,
				"z": -3.9718600033,
				"element": "H" 
			},
			{
				"x": 3.5273384415,
				"y": 0.0552993772,
				"z": -4.0896270737,
				"element": "H" 
			},
			{
				"x": 2.3123366875,
				"y": 4.6903028793,
				"z": -5.2525392305,
				"element": "H" 
			},
			{
				"x": 1.2985584847,
				"y": 5.5950180851,
				"z": -4.1022434715,
				"element": "H" 
			},
			{
				"x": 0.6131193712,
				"y": 4.2914827854,
				"z": -5.1009071638,
				"element": "H" 
			},
			{
				"x": 2.1282921704,
				"y": 3.1561023025,
				"z": -1.4087024398,
				"element": "H" 
			},
			{
				"x": 1.6693171798,
				"y": 4.9107590261,
				"z": -1.7959256978,
				"element": "H" 
			}
		],
		 "valence_orbital": [ 
			{
				"type": "occ",
				"energy": -0.29887,
				"method": "rhf"
			},
			{
				"type": "occ",
				"energy": -0.29656,
				"method": "rhf"
			},
			{
				"type": "occ",
				"energy": -0.29337,
				"method": "rhf"
			},
			{
				"type": "occ",
				"energy": -0.26848,
				"method": "rhf"
			},
			{
				"type": "occ",
				"energy": -0.26693,
				"method": "rhf"
			},
			{
				"type": "unocc",
				"energy": -0.0385,
				"method": "rhf"
			},
			{
				"type": "unocc",
				"energy": 0.07128,
				"method": "rhf"
			},
			{
				"type": "unocc",
				"energy": 0.08071,
				"method": "rhf"
			},
			{
				"type": "unocc",
				"energy": 0.09033,
				"method": "rhf"
			},
			{
				"type": "unocc",
				"energy": 0.09509,
				"method": "rhf"
			}
		],
		"cosmo_sigma_profile": { 
			"-0.025": 0.0,
			"-0.024": 0.0,
			"-0.023": 0.0,
			"-0.022": 0.0,
			"-0.021": 0.0,
			"-0.02": 0.0,
			"-0.019": 0.0,
			"-0.018": 0.0,
			"-0.017": 0.0,
			"-0.016": 0.0,
			"-0.015": 0.0,
			"-0.014": 0.0,
			"-0.013": 0.0,
			"-0.012": 0.0,
			"-0.011": 0.0,
			"-0.01": 0.0,
			"-0.009": 0.0,
			"-0.008": 0.0,
			"-0.007": 0.27696003528,
			"-0.006": 1.97835866653,
			"-0.005": 6.68997938023,
			"-0.004": 15.7144026386,
			"-0.003": 23.759548515,
			"-0.002": 49.5344027515,
			"-0.001": 72.587263727,
			"0.0": 75.0270007707,
			"0.001": 57.5187711133,
			"0.002": 33.415870622,
			"0.003": 10.0056478565,
			"0.004": 5.39919243301,
			"0.005": 2.88572934946,
			"0.006": 1.56035843455,
			"0.007": 1.19027657358,
			"0.008": 1.3463592987,
			"0.009": 2.130192063,
			"0.01": 1.73927321039,
			"0.011": 2.02880455103,
			"0.012": 4.53868149869,
			"0.013": 1.51501415182,
			"0.014": 0.0,
			"0.015": 0.0,
			"0.016": 0.0,
			"0.017": 0.0,
			"0.018": 0.0,
			"0.019": 0.0,
			"0.02": 0.0,
			"0.021": 0.0,
			"0.022": 0.0,
			"0.023": 0.0,
			"0.024": 0.0,
			"0.025": 0.0
		}
	}
}
