{
	 "smiles": "ClC1=CC(Cl)=NC(=N1)C1=NC=CC=C1", 
	 "Tm": 416.15, 
	 "num_atms": 19, 
	 "gaussian": { 
		 "optdone": 1, 
		 "sigma_profile": "yes", 
		 "theory": "DFT", 
		 "functional": "B3LYP", 
		 "basiset": "6-31G**", 
		 "properties": { 
			 "R2extent": 8296.036, 
			 "electric_dipole_moment_norm": 2.23827297933, 
			 "electric_quadrupole_moment_norm": 10.945639022, 
			 "total_energy": -1430.60420513, 
			 "HOMO_LUMO_gap": 0.17976, 
			 "cosmo_polarized_energy": -10.73, 
			 "cosmo_cavitation_energy": 28.33, 
			 "cosmo_dispersion_energy": -21.32, 
			 "cosmo_repulsion_energy": 1.69, 
			 "cosmo_total_nonelectrostatic_energy": 8.71, 
			 "SMD_solvation_energy": 0.82 
		},
		"coords": [
			{
				"x": 4.7812186795,
				"y": -3.6436488315,
				"z": 0.1030028637,
				"element": "Cl" 
			},
			{
				"x": 4.050167047,
				"y": -2.4654292388,
				"z": -0.968528927,
				"element": "C" 
			},
			{
				"x": 4.4190771857,
				"y": -2.4563537582,
				"z": -2.3123882975,
				"element": "C" 
			},
			{
				"x": 3.7731430948,
				"y": -1.4764979422,
				"z": -3.0676061037,
				"element": "C" 
			},
			{
				"x": 4.1454367268,
				"y": -1.3546762166,
				"z": -4.7756207644,
				"element": "Cl" 
			},
			{
				"x": 2.8915920937,
				"y": -0.6252262498,
				"z": -2.581125301,
				"element": "N" 
			},
			{
				"x": 2.6179111443,
				"y": -0.7320723015,
				"z": -1.2720921869,
				"element": "C" 
			},
			{
				"x": 3.1733205708,
				"y": -1.6329923337,
				"z": -0.4404155078,
				"element": "N" 
			},
			{
				"x": 1.6261363082,
				"y": 0.210080393,
				"z": -0.6757642476,
				"element": "C" 
			},
			{
				"x": 1.0694407825,
				"y": 1.1109247377,
				"z": -1.5000036241,
				"element": "N" 
			},
			{
				"x": 0.1813570228,
				"y": 1.9598258832,
				"z": -0.9822931528,
				"element": "C" 
			},
			{
				"x": -0.1976813488,
				"y": 1.9609613537,
				"z": 0.3639138651,
				"element": "C" 
			},
			{
				"x": 0.3848642151,
				"y": 1.0224544128,
				"z": 1.2133606783,
				"element": "C" 
			},
			{
				"x": 1.3147662087,
				"y": 0.1278015051,
				"z": 0.6893164498,
				"element": "C" 
			},
			{
				"x": 5.1393449271,
				"y": -3.1450827533,
				"z": -2.7308599395,
				"element": "H" 
			},
			{
				"x": -0.2527657421,
				"y": 2.678481242,
				"z": -1.6753750525,
				"element": "H" 
			},
			{
				"x": -0.9270124019,
				"y": 2.6777756638,
				"z": 0.7278277145,
				"element": "H" 
			},
			{
				"x": 0.1213225396,
				"y": 0.9857022176,
				"z": 2.266284817,
				"element": "H" 
			},
			{
				"x": 1.7971609462,
				"y": -0.6212277833,
				"z": 1.3050667163,
				"element": "H" 
			}
		],
		 "valence_orbital": [ 
			{
				"type": "occ",
				"energy": -0.30203,
				"method": "rhf"
			},
			{
				"type": "occ",
				"energy": -0.29255,
				"method": "rhf"
			},
			{
				"type": "occ",
				"energy": -0.2839,
				"method": "rhf"
			},
			{
				"type": "occ",
				"energy": -0.26103,
				"method": "rhf"
			},
			{
				"type": "occ",
				"energy": -0.25865,
				"method": "rhf"
			},
			{
				"type": "unocc",
				"energy": -0.07889,
				"method": "rhf"
			},
			{
				"type": "unocc",
				"energy": -0.05781,
				"method": "rhf"
			},
			{
				"type": "unocc",
				"energy": -0.02645,
				"method": "rhf"
			},
			{
				"type": "unocc",
				"energy": 0.00148,
				"method": "rhf"
			},
			{
				"type": "unocc",
				"energy": 0.00509,
				"method": "rhf"
			}
		],
		"cosmo_sigma_profile": { 
			"-0.025": 0.0,
			"-0.024": 0.0,
			"-0.023": 0.0,
			"-0.022": 0.0,
			"-0.021": 0.0,
			"-0.02": 0.0,
			"-0.019": 0.0,
			"-0.018": 0.0,
			"-0.017": 0.0,
			"-0.016": 0.0,
			"-0.015": 0.0,
			"-0.014": 0.0,
			"-0.013": 0.0,
			"-0.012": 0.0,
			"-0.011": 0.183730393307,
			"-0.01": 1.62761574406,
			"-0.009": 1.28119683232,
			"-0.008": 2.3492921235,
			"-0.007": 8.59690159915,
			"-0.006": 12.4727281621,
			"-0.005": 11.9758149744,
			"-0.004": 13.847848582,
			"-0.003": 22.7010871211,
			"-0.002": 16.7104506378,
			"-0.001": 16.1759884801,
			"0.0": 19.5994928399,
			"0.001": 26.1195131316,
			"0.002": 24.4438862227,
			"0.003": 20.7770677072,
			"0.004": 8.9353591274,
			"0.005": 5.75464640759,
			"0.006": 3.940444643,
			"0.007": 4.11663610768,
			"0.008": 1.96689922586,
			"0.009": 1.13554818291,
			"0.01": 0.953992014859,
			"0.011": 1.54075293529,
			"0.012": 1.38558550677,
			"0.013": 1.08459615394,
			"0.014": 0.724438507694,
			"0.015": 0.91224635171,
			"0.016": 0.79692226473,
			"0.017": 1.20188196839,
			"0.018": 0.693016401485,
			"0.019": 0.556654374077,
			"0.02": 0.0191022913191,
			"0.021": 0.0,
			"0.022": 0.0,
			"0.023": 0.0,
			"0.024": 0.0,
			"0.025": 0.0
		}
	}
}
