{
	 "smiles": "CN1C=CN=C1SCC(=O)NC1=CC=C(C=C1)C(O)=O", 
	 "Tm": 445.15, 
	 "num_atms": 33, 
	 "gaussian": { 
		 "optdone": 1, 
		 "sigma_profile": "yes", 
		 "theory": "DFT", 
		 "functional": "B3LYP", 
		 "basiset": "6-31G**", 
		 "properties": { 
			 "R2extent": 10164.4156, 
			 "electric_dipole_moment_norm": 4.23066577385, 
			 "electric_quadrupole_moment_norm": 20.6235977528, 
			 "total_energy": -1291.35191972, 
			 "HOMO_LUMO_gap": 0.15526, 
			 "cosmo_polarized_energy": -23.06, 
			 "cosmo_cavitation_energy": 39.75, 
			 "cosmo_dispersion_energy": -28.76, 
			 "cosmo_repulsion_energy": 2.15, 
			 "cosmo_total_nonelectrostatic_energy": 13.14, 
			 "SMD_solvation_energy": 6.93 
		},
		"coords": [
			{
				"x": -1.9030733083,
				"y": 2.0490519241,
				"z": -3.5439091036,
				"element": "C" 
			},
			{
				"x": -0.4457964234,
				"y": 2.0412126189,
				"z": -3.4921286228,
				"element": "N" 
			},
			{
				"x": 0.4069668087,
				"y": 1.7610534449,
				"z": -4.5347284373,
				"element": "C" 
			},
			{
				"x": 1.6771185817,
				"y": 1.8001226808,
				"z": -4.0078157532,
				"element": "C" 
			},
			{
				"x": 1.6335402255,
				"y": 2.1135149934,
				"z": -2.6746840298,
				"element": "N" 
			},
			{
				"x": 0.3484656388,
				"y": 2.24777049,
				"z": -2.390334064,
				"element": "C" 
			},
			{
				"x": -0.2979642327,
				"y": 2.6677272305,
				"z": -0.7999262179,
				"element": "S" 
			},
			{
				"x": 0.1423818931,
				"y": 1.1531354483,
				"z": 0.1317303624,
				"element": "C" 
			},
			{
				"x": -0.8227229755,
				"y": -0.0113618363,
				"z": -0.0760095392,
				"element": "C" 
			},
			{
				"x": -1.5623031896,
				"y": -0.1077719426,
				"z": -1.0436796689,
				"element": "O" 
			},
			{
				"x": -0.8678355454,
				"y": -1.0010915972,
				"z": 0.8952356855,
				"element": "N" 
			},
			{
				"x": -0.1981995032,
				"y": -1.183585583,
				"z": 2.1205745286,
				"element": "C" 
			},
			{
				"x": -0.9073740257,
				"y": -1.806065594,
				"z": 3.1638875978,
				"element": "C" 
			},
			{
				"x": -0.2995354124,
				"y": -2.0483016809,
				"z": 4.3881880759,
				"element": "C" 
			},
			{
				"x": 1.0325322453,
				"y": -1.6656185723,
				"z": 4.6023769113,
				"element": "C" 
			},
			{
				"x": 1.7433029901,
				"y": -1.0576981994,
				"z": 3.5604023795,
				"element": "C" 
			},
			{
				"x": 1.1455863191,
				"y": -0.8285100418,
				"z": 2.3265119285,
				"element": "C" 
			},
			{
				"x": 1.7311662833,
				"y": -1.8901127085,
				"z": 5.8916331121,
				"element": "C" 
			},
			{
				"x": 0.9481891052,
				"y": -2.4950649623,
				"z": 6.8211689286,
				"element": "O" 
			},
			{
				"x": 2.8827107588,
				"y": -1.5767055409,
				"z": 6.1223502265,
				"element": "O" 
			},
			{
				"x": -2.2903929528,
				"y": 1.4532260202,
				"z": -2.7166655554,
				"element": "H" 
			},
			{
				"x": -2.2167375108,
				"y": 1.6069226704,
				"z": -4.4909860175,
				"element": "H" 
			},
			{
				"x": -2.2933726376,
				"y": 3.0690883989,
				"z": -3.4821659949,
				"element": "H" 
			},
			{
				"x": 0.0379924092,
				"y": 1.5674284652,
				"z": -5.5307469564,
				"element": "H" 
			},
			{
				"x": 2.615079281,
				"y": 1.6280183745,
				"z": -4.5177130569,
				"element": "H" 
			},
			{
				"x": 0.1976878993,
				"y": 1.4370899801,
				"z": 1.1856594383,
				"element": "H" 
			},
			{
				"x": 1.1484824909,
				"y": 0.8700275386,
				"z": -0.1909111117,
				"element": "H" 
			},
			{
				"x": -1.6202610741,
				"y": -1.6521593911,
				"z": 0.7018444697,
				"element": "H" 
			},
			{
				"x": -1.9456295255,
				"y": -2.0860447637,
				"z": 3.0081842054,
				"element": "H" 
			},
			{
				"x": -0.8569146123,
				"y": -2.5249335301,
				"z": 5.1863425993,
				"element": "H" 
			},
			{
				"x": 2.7799014002,
				"y": -0.7862325444,
				"z": 3.7288605705,
				"element": "H" 
			},
			{
				"x": 1.7320702803,
				"y": -0.4042131413,
				"z": 1.5218282619,
				"element": "H" 
			},
			{
				"x": 1.5034383191,
				"y": -2.588218649,
				"z": 7.6125248474,
				"element": "H" 
			}
		],
		 "valence_orbital": [ 
			{
				"type": "occ",
				"energy": -0.26737,
				"method": "rhf"
			},
			{
				"type": "occ",
				"energy": -0.26517,
				"method": "rhf"
			},
			{
				"type": "occ",
				"energy": -0.24972,
				"method": "rhf"
			},
			{
				"type": "occ",
				"energy": -0.24181,
				"method": "rhf"
			},
			{
				"type": "occ",
				"energy": -0.21501,
				"method": "rhf"
			},
			{
				"type": "unocc",
				"energy": -0.05975,
				"method": "rhf"
			},
			{
				"type": "unocc",
				"energy": -0.02618,
				"method": "rhf"
			},
			{
				"type": "unocc",
				"energy": -0.00679,
				"method": "rhf"
			},
			{
				"type": "unocc",
				"energy": 0.01465,
				"method": "rhf"
			},
			{
				"type": "unocc",
				"energy": 0.0494,
				"method": "rhf"
			}
		],
		"cosmo_sigma_profile": { 
			"-0.025": 0.0,
			"-0.024": 0.0,
			"-0.023": 0.0,
			"-0.022": 0.0,
			"-0.021": 0.0,
			"-0.02": 0.0,
			"-0.019": 0.0224931739141,
			"-0.018": 0.648158671813,
			"-0.017": 1.14516890457,
			"-0.016": 0.475548124699,
			"-0.015": 1.50949945642,
			"-0.014": 2.04398002887,
			"-0.013": 1.70623590603,
			"-0.012": 2.06171042726,
			"-0.011": 2.11819982122,
			"-0.01": 3.17959165495,
			"-0.009": 4.95386528968,
			"-0.008": 9.90337538651,
			"-0.007": 11.8902589313,
			"-0.006": 19.3439714239,
			"-0.005": 17.9164053197,
			"-0.004": 16.2800687458,
			"-0.003": 20.9480688897,
			"-0.002": 18.0340224342,
			"-0.001": 18.1914324871,
			"0.0": 17.5849532184,
			"0.001": 22.8644105374,
			"0.002": 21.3077308688,
			"0.003": 22.2738500866,
			"0.004": 12.9568123104,
			"0.005": 12.1842192912,
			"0.006": 10.5237129441,
			"0.007": 9.60366927245,
			"0.008": 6.92726392764,
			"0.009": 6.1651973,
			"0.01": 5.5540149729,
			"0.011": 6.71503770649,
			"0.012": 7.34138468334,
			"0.013": 1.41573845329,
			"0.014": 1.09356565865,
			"0.015": 0.79329419282,
			"0.016": 1.08352038112,
			"0.017": 0.739501640447,
			"0.018": 0.227223662363,
			"0.019": 0.0,
			"0.02": 0.0,
			"0.021": 0.0,
			"0.022": 0.0,
			"0.023": 0.0,
			"0.024": 0.0,
			"0.025": 0.0
		}
	}
}
