{
	 "smiles": "BrC1=CSC(C=O)=C1", 
	 "Tm": 319.65, 
	 "num_atms": 11, 
	 "gaussian": { 
		 "optdone": 1, 
		 "sigma_profile": "yes", 
		 "theory": "DFT", 
		 "functional": "B3LYP", 
		 "basiset": "6-31G**", 
		 "properties": { 
			 "R2extent": 2216.5124, 
			 "electric_dipole_moment_norm": 2.14039963792, 
			 "electric_quadrupole_moment_norm": 11.5656138315, 
			 "total_energy": -3237.12581317, 
			 "HOMO_LUMO_gap": 0.17064, 
			 "cosmo_polarized_energy": -7.8, 
			 "cosmo_cavitation_energy": 20.01, 
			 "cosmo_dispersion_energy": -15.69, 
			 "cosmo_repulsion_energy": 1.25, 
			 "cosmo_total_nonelectrostatic_energy": 5.57, 
			 "SMD_solvation_energy": 3.43 
		},
		"coords": [
			{
				"x": -1.6445751569,
				"y": 0.9278742688,
				"z": -2.0113264295,
				"element": "Br" 
			},
			{
				"x": -0.093994781,
				"y": 0.4591186695,
				"z": -1.0247453759,
				"element": "C" 
			},
			{
				"x": 1.1805440256,
				"y": 0.5789063424,
				"z": -1.5182528778,
				"element": "C" 
			},
			{
				"x": 2.3612779339,
				"y": 0.0669442077,
				"z": -0.3674160137,
				"element": "S" 
			},
			{
				"x": 1.1154452834,
				"y": -0.3134368088,
				"z": 0.7943241175,
				"element": "C" 
			},
			{
				"x": 1.460790059,
				"y": -0.843222432,
				"z": 2.1114562549,
				"element": "C" 
			},
			{
				"x": 2.5986714509,
				"y": -1.0539313525,
				"z": 2.490411141,
				"element": "O" 
			},
			{
				"x": -0.1427571796,
				"y": -0.0506691872,
				"z": 0.2980991003,
				"element": "C" 
			},
			{
				"x": 1.4775468491,
				"y": 0.9397102642,
				"z": -2.4925442575,
				"element": "H" 
			},
			{
				"x": 0.5827850359,
				"y": -1.0458522596,
				"z": 2.7611173989,
				"element": "H" 
			},
			{
				"x": -1.0589335203,
				"y": -0.2142417124,
				"z": 0.8526769417,
				"element": "H" 
			}
		],
		 "valence_orbital": [ 
			{
				"type": "occ",
				"energy": -0.3277,
				"method": "rhf"
			},
			{
				"type": "occ",
				"energy": -0.30304,
				"method": "rhf"
			},
			{
				"type": "occ",
				"energy": -0.27678,
				"method": "rhf"
			},
			{
				"type": "occ",
				"energy": -0.26974,
				"method": "rhf"
			},
			{
				"type": "occ",
				"energy": -0.25313,
				"method": "rhf"
			},
			{
				"type": "unocc",
				"energy": -0.08249,
				"method": "rhf"
			},
			{
				"type": "unocc",
				"energy": -0.01199,
				"method": "rhf"
			},
			{
				"type": "unocc",
				"energy": 0.00581,
				"method": "rhf"
			},
			{
				"type": "unocc",
				"energy": 0.01717,
				"method": "rhf"
			},
			{
				"type": "unocc",
				"energy": 0.06078,
				"method": "rhf"
			}
		],
		"cosmo_sigma_profile": { 
			"-0.025": 0.0,
			"-0.024": 0.0,
			"-0.023": 0.0,
			"-0.022": 0.0,
			"-0.021": 0.0,
			"-0.02": 0.0,
			"-0.019": 0.0,
			"-0.018": 0.0,
			"-0.017": 0.0,
			"-0.016": 0.0,
			"-0.015": 0.0,
			"-0.014": 0.0,
			"-0.013": 0.0,
			"-0.012": 0.0,
			"-0.011": 0.309481932076,
			"-0.01": 2.77094159437,
			"-0.009": 5.25303941504,
			"-0.008": 5.56465769151,
			"-0.007": 6.48301053188,
			"-0.006": 4.86752408342,
			"-0.005": 6.21948176825,
			"-0.004": 7.29882367784,
			"-0.003": 8.34307686217,
			"-0.002": 8.32419147796,
			"-0.001": 10.5121181184,
			"0.0": 20.3534114036,
			"0.001": 24.7766287102,
			"0.002": 13.5093821165,
			"0.003": 11.5194180089,
			"0.004": 11.9308815344,
			"0.005": 2.13627223072,
			"0.006": 1.56877215894,
			"0.007": 2.13841766747,
			"0.008": 1.10763184737,
			"0.009": 2.36027425702,
			"0.01": 2.9516517545,
			"0.011": 4.44885695936,
			"0.012": 2.17263802158,
			"0.013": 0.316901431648,
			"0.014": 0.0,
			"0.015": 0.0,
			"0.016": 0.0,
			"0.017": 0.0,
			"0.018": 0.0,
			"0.019": 0.0,
			"0.02": 0.0,
			"0.021": 0.0,
			"0.022": 0.0,
			"0.023": 0.0,
			"0.024": 0.0,
			"0.025": 0.0
		}
	}
}
