{
	 "smiles": "COC1=CC=C(C=C1OC)C(=O)C1=CC=C(Cl)C=C1Cl", 
	 "Tm": 401.15, 
	 "num_atms": 32, 
	 "gaussian": { 
		 "optdone": 1, 
		 "sigma_profile": "yes", 
		 "theory": "DFT", 
		 "functional": "B3LYP", 
		 "basiset": "6-31G**", 
		 "properties": { 
			 "R2extent": 9139.1556, 
			 "electric_dipole_moment_norm": 3.38743327757, 
			 "electric_quadrupole_moment_norm": 11.5370059873, 
			 "total_energy": -1724.84751687, 
			 "HOMO_LUMO_gap": 0.17159, 
			 "cosmo_polarized_energy": -10.71, 
			 "cosmo_cavitation_energy": 40.26, 
			 "cosmo_dispersion_energy": -28.0, 
			 "cosmo_repulsion_energy": 2.19, 
			 "cosmo_total_nonelectrostatic_energy": 14.45, 
			 "SMD_solvation_energy": 8.2 
		},
		"coords": [
			{
				"x": 1.7018945065,
				"y": 0.0579691742,
				"z": -3.8100360504,
				"element": "C" 
			},
			{
				"x": 2.1024379057,
				"y": 0.984743692,
				"z": -2.788846889,
				"element": "O" 
			},
			{
				"x": 1.2998812227,
				"y": 1.0302562107,
				"z": -1.6789695648,
				"element": "C" 
			},
			{
				"x": 0.643388439,
				"y": 2.22958324,
				"z": -1.3796276998,
				"element": "C" 
			},
			{
				"x": -0.1605405237,
				"y": 2.3320383639,
				"z": -0.251669691,
				"element": "C" 
			},
			{
				"x": -0.3425687728,
				"y": 1.2228103893,
				"z": 0.58955579,
				"element": "C" 
			},
			{
				"x": 0.3342784133,
				"y": 0.0277453605,
				"z": 0.3036453888,
				"element": "C" 
			},
			{
				"x": 1.1627933935,
				"y": -0.0729089721,
				"z": -0.8104222968,
				"element": "C" 
			},
			{
				"x": 1.8053965997,
				"y": -1.2658418451,
				"z": -1.0556691875,
				"element": "O" 
			},
			{
				"x": 3.2278677928,
				"y": -1.2266329476,
				"z": -0.8798720171,
				"element": "C" 
			},
			{
				"x": -1.1900849494,
				"y": 1.388794356,
				"z": 1.8019249247,
				"element": "C" 
			},
			{
				"x": -1.5202725555,
				"y": 2.4965000144,
				"z": 2.2038923663,
				"element": "O" 
			},
			{
				"x": -1.5898884963,
				"y": 0.1801630266,
				"z": 2.6226489986,
				"element": "C" 
			},
			{
				"x": -1.2252872455,
				"y": 0.1830186614,
				"z": 3.9776668987,
				"element": "C" 
			},
			{
				"x": -1.5635851693,
				"y": -0.8606181934,
				"z": 4.8325618924,
				"element": "C" 
			},
			{
				"x": -2.31241947,
				"y": -1.9236089607,
				"z": 4.3273703521,
				"element": "C" 
			},
			{
				"x": -2.7567042079,
				"y": -3.2511315514,
				"z": 5.3829318431,
				"element": "Cl" 
			},
			{
				"x": -2.7291556102,
				"y": -1.947267363,
				"z": 2.998677177,
				"element": "C" 
			},
			{
				"x": -2.3619455943,
				"y": -0.8939899061,
				"z": 2.1593487909,
				"element": "C" 
			},
			{
				"x": -2.9686064548,
				"y": -0.9303828454,
				"z": 0.5106431056,
				"element": "Cl" 
			},
			{
				"x": 1.6706721809,
				"y": -0.9669704038,
				"z": -3.4310533818,
				"element": "H" 
			},
			{
				"x": 0.7179256656,
				"y": 0.3316666024,
				"z": -4.2092654423,
				"element": "H" 
			},
			{
				"x": 2.4486379218,
				"y": 0.1414569851,
				"z": -4.6015361656,
				"element": "H" 
			},
			{
				"x": 0.7791143053,
				"y": 3.0672672769,
				"z": -2.0561720211,
				"element": "H" 
			},
			{
				"x": -0.6707164428,
				"y": 3.2574955669,
				"z": -0.0085640491,
				"element": "H" 
			},
			{
				"x": 0.2423572277,
				"y": -0.8404782048,
				"z": 0.9472596031,
				"element": "H" 
			},
			{
				"x": 3.4827230837,
				"y": -0.976824619,
				"z": 0.1574497833,
				"element": "H" 
			},
			{
				"x": 3.6941261123,
				"y": -0.500898332,
				"z": -1.5537115954,
				"element": "H" 
			},
			{
				"x": 3.5913650186,
				"y": -2.2301393504,
				"z": -1.109153692,
				"element": "H" 
			},
			{
				"x": -0.6635683471,
				"y": 1.0307947327,
				"z": 4.3564339732,
				"element": "H" 
			},
			{
				"x": -1.2615637297,
				"y": -0.8495478438,
				"z": 5.8734038412,
				"element": "H" 
			},
			{
				"x": -3.3362522196,
				"y": -2.7610623147,
				"z": 2.6219550146,
				"element": "H" 
			}
		],
		 "valence_orbital": [ 
			{
				"type": "occ",
				"energy": -0.27167,
				"method": "rhf"
			},
			{
				"type": "occ",
				"energy": -0.26365,
				"method": "rhf"
			},
			{
				"type": "occ",
				"energy": -0.25495,
				"method": "rhf"
			},
			{
				"type": "occ",
				"energy": -0.2513,
				"method": "rhf"
			},
			{
				"type": "occ",
				"energy": -0.23962,
				"method": "rhf"
			},
			{
				"type": "unocc",
				"energy": -0.06803,
				"method": "rhf"
			},
			{
				"type": "unocc",
				"energy": -0.03122,
				"method": "rhf"
			},
			{
				"type": "unocc",
				"energy": -0.0283,
				"method": "rhf"
			},
			{
				"type": "unocc",
				"energy": -0.0099,
				"method": "rhf"
			},
			{
				"type": "unocc",
				"energy": 0.00272,
				"method": "rhf"
			}
		],
		"cosmo_sigma_profile": { 
			"-0.025": 0.0,
			"-0.024": 0.0,
			"-0.023": 0.0,
			"-0.022": 0.0,
			"-0.021": 0.0,
			"-0.02": 0.0,
			"-0.019": 0.0,
			"-0.018": 0.0,
			"-0.017": 0.0,
			"-0.016": 0.0,
			"-0.015": 0.0,
			"-0.014": 0.0,
			"-0.013": 0.0,
			"-0.012": 0.0,
			"-0.011": 0.0,
			"-0.01": 0.0,
			"-0.009": 0.664690745188,
			"-0.008": 4.43410600275,
			"-0.007": 6.55668878004,
			"-0.006": 13.1126929055,
			"-0.005": 18.7044928965,
			"-0.004": 22.874762798,
			"-0.003": 30.6003910899,
			"-0.002": 29.856053839,
			"-0.001": 27.3469975655,
			"0.0": 30.2028059673,
			"0.001": 32.5487355939,
			"0.002": 28.1887160776,
			"0.003": 27.9168747964,
			"0.004": 21.8808290214,
			"0.005": 5.04088031608,
			"0.006": 3.26464786955,
			"0.007": 3.14014954991,
			"0.008": 4.90203483506,
			"0.009": 2.95585361756,
			"0.01": 4.23216618137,
			"0.011": 6.02172880171,
			"0.012": 2.16750491732,
			"0.013": 0.156633360483,
			"0.014": 0.0,
			"0.015": 0.0,
			"0.016": 0.0,
			"0.017": 0.0,
			"0.018": 0.0,
			"0.019": 0.0,
			"0.02": 0.0,
			"0.021": 0.0,
			"0.022": 0.0,
			"0.023": 0.0,
			"0.024": 0.0,
			"0.025": 0.0
		}
	}
}
