{
	 "smiles": "C[C@H](CC1=CC=CC=C1)N(C)CC#C", 
	 "Tm": 414.65, 
	 "num_atms": 31, 
	 "gaussian": { 
		 "optdone": 1, 
		 "sigma_profile": "yes", 
		 "theory": "DFT", 
		 "functional": "B3LYP", 
		 "basiset": "6-31G**", 
		 "properties": { 
			 "R2extent": 3642.2237, 
			 "electric_dipole_moment_norm": 1.10754769198, 
			 "electric_quadrupole_moment_norm": 4.23665674914, 
			 "total_energy": -560.295351227, 
			 "HOMO_LUMO_gap": 0.22133, 
			 "cosmo_polarized_energy": -7.37, 
			 "cosmo_cavitation_energy": 33.27, 
			 "cosmo_dispersion_energy": -22.27, 
			 "cosmo_repulsion_energy": 1.74, 
			 "cosmo_total_nonelectrostatic_energy": 12.74, 
			 "SMD_solvation_energy": 6.65 
		},
		"coords": [
			{
				"x": 1.4141183976,
				"y": -2.1327315999,
				"z": 0.7860130615,
				"element": "C" 
			},
			{
				"x": 0.2379387572,
				"y": -1.8251209893,
				"z": -0.147380875,
				"element": "C" 
			},
			{
				"x": 0.3560092601,
				"y": -0.3720511969,
				"z": -0.6920248215,
				"element": "C" 
			},
			{
				"x": 0.5008823976,
				"y": 0.7163500864,
				"z": 0.3532079165,
				"element": "C" 
			},
			{
				"x": -0.5607117386,
				"y": 1.0565865686,
				"z": 1.2074594842,
				"element": "C" 
			},
			{
				"x": -0.4142622984,
				"y": 2.0675691237,
				"z": 2.1575582993,
				"element": "C" 
			},
			{
				"x": 0.7925377465,
				"y": 2.7618750956,
				"z": 2.2720503492,
				"element": "C" 
			},
			{
				"x": 1.8541727372,
				"y": 2.4355121726,
				"z": 1.4281075173,
				"element": "C" 
			},
			{
				"x": 1.7056803872,
				"y": 1.4216182397,
				"z": 0.4793667314,
				"element": "C" 
			},
			{
				"x": -1.080641897,
				"y": -2.0397974458,
				"z": 0.4918882231,
				"element": "N" 
			},
			{
				"x": -1.1467677476,
				"y": -3.1286082112,
				"z": 1.4642987971,
				"element": "C" 
			},
			{
				"x": -2.1315786166,
				"y": -2.2111027568,
				"z": -0.5206192147,
				"element": "C" 
			},
			{
				"x": -3.4834901963,
				"y": -2.0246670842,
				"z": 0.0165732044,
				"element": "C" 
			},
			{
				"x": -4.604823979,
				"y": -1.8787731177,
				"z": 0.4403257803,
				"element": "C" 
			},
			{
				"x": 1.3592759629,
				"y": -1.5426577579,
				"z": 1.7048461153,
				"element": "H" 
			},
			{
				"x": 1.4664112828,
				"y": -3.1918816105,
				"z": 1.0487779479,
				"element": "H" 
			},
			{
				"x": 2.3494005788,
				"y": -1.8725962236,
				"z": 0.2808013502,
				"element": "H" 
			},
			{
				"x": 0.3359470743,
				"y": -2.4995951377,
				"z": -1.0219583631,
				"element": "H" 
			},
			{
				"x": -0.5097420766,
				"y": -0.1503475455,
				"z": -1.326660902,
				"element": "H" 
			},
			{
				"x": 1.2261071689,
				"y": -0.3459946202,
				"z": -1.3587212579,
				"element": "H" 
			},
			{
				"x": -1.4951534069,
				"y": 0.5107641821,
				"z": 1.132494575,
				"element": "H" 
			},
			{
				"x": -1.2476443288,
				"y": 2.3162413479,
				"z": 2.8092249923,
				"element": "H" 
			},
			{
				"x": 0.9022747629,
				"y": 3.551689602,
				"z": 3.0099764858,
				"element": "H" 
			},
			{
				"x": 2.7973677068,
				"y": 2.9697316052,
				"z": 1.5044826754,
				"element": "H" 
			},
			{
				"x": 2.537082845,
				"y": 1.1772804816,
				"z": -0.1781364011,
				"element": "H" 
			},
			{
				"x": -0.4793769281,
				"y": -2.9372283477,
				"z": 2.3052271685,
				"element": "H" 
			},
			{
				"x": -2.1659404214,
				"y": -3.1812903061,
				"z": 1.8553678051,
				"element": "H" 
			},
			{
				"x": -0.8980085769,
				"y": -4.1183403512,
				"z": 1.0351768607,
				"element": "H" 
			},
			{
				"x": -1.9798904134,
				"y": -1.4787737686,
				"z": -1.3195855133,
				"element": "H" 
			},
			{
				"x": -2.0705666819,
				"y": -3.206913703,
				"z": -1.005200836,
				"element": "H" 
			},
			{
				"x": -5.5917077582,
				"y": -1.7400467318,
				"z": 0.816862844,
				"element": "H" 
			}
		],
		 "valence_orbital": [ 
			{
				"type": "occ",
				"energy": -0.27031,
				"method": "rhf"
			},
			{
				"type": "occ",
				"energy": -0.26438,
				"method": "rhf"
			},
			{
				"type": "occ",
				"energy": -0.24023,
				"method": "rhf"
			},
			{
				"type": "occ",
				"energy": -0.23281,
				"method": "rhf"
			},
			{
				"type": "occ",
				"energy": -0.21502,
				"method": "rhf"
			},
			{
				"type": "unocc",
				"energy": 0.00631,
				"method": "rhf"
			},
			{
				"type": "unocc",
				"energy": 0.00943,
				"method": "rhf"
			},
			{
				"type": "unocc",
				"energy": 0.04331,
				"method": "rhf"
			},
			{
				"type": "unocc",
				"energy": 0.05588,
				"method": "rhf"
			},
			{
				"type": "unocc",
				"energy": 0.08816,
				"method": "rhf"
			}
		],
		"cosmo_sigma_profile": { 
			"-0.025": 0.0,
			"-0.024": 0.0,
			"-0.023": 0.0,
			"-0.022": 0.0,
			"-0.021": 0.0,
			"-0.02": 0.0,
			"-0.019": 0.0,
			"-0.018": 0.0,
			"-0.017": 0.0,
			"-0.016": 0.0,
			"-0.015": 0.0,
			"-0.014": 0.0,
			"-0.013": 0.0,
			"-0.012": 0.267194470072,
			"-0.011": 1.09735600994,
			"-0.01": 1.18066594951,
			"-0.009": 0.672787288935,
			"-0.008": 1.47434077872,
			"-0.007": 2.89559639084,
			"-0.006": 3.09066237289,
			"-0.005": 11.5710208498,
			"-0.004": 19.0202382988,
			"-0.003": 31.1682503569,
			"-0.002": 35.790887903,
			"-0.001": 28.5803158408,
			"0.0": 24.2970965293,
			"0.001": 17.1458213187,
			"0.002": 13.2281576477,
			"0.003": 12.8451328613,
			"0.004": 14.7206977137,
			"0.005": 13.0548586778,
			"0.006": 15.9378444522,
			"0.007": 11.0509704485,
			"0.008": 2.43527183406,
			"0.009": 0.711149012643,
			"0.01": 0.423520363829,
			"0.011": 0.0,
			"0.012": 0.0,
			"0.013": 0.0,
			"0.014": 0.0,
			"0.015": 0.0,
			"0.016": 0.0,
			"0.017": 0.0,
			"0.018": 0.0,
			"0.019": 0.0,
			"0.02": 0.0,
			"0.021": 0.0,
			"0.022": 0.0,
			"0.023": 0.0,
			"0.024": 0.0,
			"0.025": 0.0
		}
	}
}
