{
	 "smiles": "SC1=NN=C(SCCSC2=NN=C(S)S2)S1", 
	 "Tm": 476.15, 
	 "num_atms": 22, 
	 "gaussian": { 
		 "optdone": 1, 
		 "sigma_profile": "yes", 
		 "theory": "DFT", 
		 "functional": "B3LYP", 
		 "basiset": "6-31G**", 
		 "properties": { 
			 "R2extent": 10001.2064, 
			 "electric_dipole_moment_norm": 0.498974658675, 
			 "electric_quadrupole_moment_norm": 7.95727528869, 
			 "total_energy": -2840.29390099, 
			 "HOMO_LUMO_gap": 0.18614, 
			 "cosmo_polarized_energy": -15.1, 
			 "cosmo_cavitation_energy": 37.93, 
			 "cosmo_dispersion_energy": -30.08, 
			 "cosmo_repulsion_energy": 2.11, 
			 "cosmo_total_nonelectrostatic_energy": 9.96, 
			 "SMD_solvation_energy": 0.89 
		},
		"coords": [
			{
				"x": 2.289024165,
				"y": 5.3196322508,
				"z": 1.8966308705,
				"element": "S" 
			},
			{
				"x": 1.2361501021,
				"y": 3.926616283,
				"z": 1.6381535741,
				"element": "C" 
			},
			{
				"x": 1.3623884587,
				"y": 3.083505453,
				"z": 0.6560358358,
				"element": "N" 
			},
			{
				"x": 0.4052445474,
				"y": 2.100502471,
				"z": 0.6719266729,
				"element": "N" 
			},
			{
				"x": -0.4243514934,
				"y": 2.2030540353,
				"z": 1.6687639748,
				"element": "C" 
			},
			{
				"x": -1.7759623004,
				"y": 1.1253404379,
				"z": 2.0054226226,
				"element": "S" 
			},
			{
				"x": -1.3930814368,
				"y": -0.3060635776,
				"z": 0.9078242127,
				"element": "C" 
			},
			{
				"x": -1.6277856794,
				"y": -0.0189462785,
				"z": -0.5743987905,
				"element": "C" 
			},
			{
				"x": -1.7652233476,
				"y": -1.5406376795,
				"z": -1.6068537555,
				"element": "S" 
			},
			{
				"x": -0.0940878878,
				"y": -2.0949577487,
				"z": -1.64672906,
				"element": "C" 
			},
			{
				"x": 0.8675004078,
				"y": -1.6802306827,
				"z": -0.8748632389,
				"element": "N" 
			},
			{
				"x": 2.0705577635,
				"y": -2.2897651724,
				"z": -1.1274991039,
				"element": "N" 
			},
			{
				"x": 1.9998160564,
				"y": -3.1693230478,
				"z": -2.0828392469,
				"element": "C" 
			},
			{
				"x": 3.3604998769,
				"y": -4.1456403052,
				"z": -2.6406835645,
				"element": "S" 
			},
			{
				"x": 0.403289572,
				"y": -3.3314834872,
				"z": -2.8074363584,
				"element": "S" 
			},
			{
				"x": -0.1006902349,
				"y": 3.5788124113,
				"z": 2.7299787725,
				"element": "S" 
			},
			{
				"x": 3.0426214668,
				"y": 5.0443843701,
				"z": 0.8129782185,
				"element": "H" 
			},
			{
				"x": -0.3625106449,
				"y": -0.6182998497,
				"z": 1.0778169664,
				"element": "H" 
			},
			{
				"x": -2.0695981529,
				"y": -1.0834217049,
				"z": 1.2740006481,
				"element": "H" 
			},
			{
				"x": -2.5901786957,
				"y": 0.4747126544,
				"z": -0.7360702543,
				"element": "H" 
			},
			{
				"x": -0.830937085,
				"y": 0.609508585,
				"z": -0.9725676987,
				"element": "H" 
			},
			{
				"x": 4.2166145421,
				"y": -3.5880994175,
				"z": -1.7607912974,
				"element": "H" 
			}
		],
		 "valence_orbital": [ 
			{
				"type": "occ",
				"energy": -0.27789,
				"method": "rhf"
			},
			{
				"type": "occ",
				"energy": -0.27667,
				"method": "rhf"
			},
			{
				"type": "occ",
				"energy": -0.27275,
				"method": "rhf"
			},
			{
				"type": "occ",
				"energy": -0.23565,
				"method": "rhf"
			},
			{
				"type": "occ",
				"energy": -0.23064,
				"method": "rhf"
			},
			{
				"type": "unocc",
				"energy": -0.0445,
				"method": "rhf"
			},
			{
				"type": "unocc",
				"energy": -0.0433,
				"method": "rhf"
			},
			{
				"type": "unocc",
				"energy": -0.02431,
				"method": "rhf"
			},
			{
				"type": "unocc",
				"energy": -0.02348,
				"method": "rhf"
			},
			{
				"type": "unocc",
				"energy": -0.00488,
				"method": "rhf"
			}
		],
		"cosmo_sigma_profile": { 
			"-0.025": 0.0,
			"-0.024": 0.0,
			"-0.023": 0.0,
			"-0.022": 0.0,
			"-0.021": 0.0,
			"-0.02": 0.0,
			"-0.019": 0.0,
			"-0.018": 0.0,
			"-0.017": 0.0,
			"-0.016": 0.0,
			"-0.015": 0.0,
			"-0.014": 0.0,
			"-0.013": 0.552965537641,
			"-0.012": 3.41856050983,
			"-0.011": 2.91205055148,
			"-0.01": 2.65047314352,
			"-0.009": 3.26238584097,
			"-0.008": 6.05834466331,
			"-0.007": 9.33329066661,
			"-0.006": 11.0871323918,
			"-0.005": 13.0994149359,
			"-0.004": 15.4624953406,
			"-0.003": 22.6983956974,
			"-0.002": 28.8565647044,
			"-0.001": 32.7174920487,
			"0.0": 29.6910139933,
			"0.001": 30.6585154019,
			"0.002": 22.2694658666,
			"0.003": 15.833928526,
			"0.004": 15.1975135804,
			"0.005": 13.1454833157,
			"0.006": 10.4148315632,
			"0.007": 5.06378367106,
			"0.008": 4.87095776505,
			"0.009": 4.31653364974,
			"0.01": 6.0056358262,
			"0.011": 4.67754248881,
			"0.012": 2.11737923531,
			"0.013": 2.05393239316,
			"0.014": 0.366079755243,
			"0.015": 0.0,
			"0.016": 0.0,
			"0.017": 0.0,
			"0.018": 0.0,
			"0.019": 0.0,
			"0.02": 0.0,
			"0.021": 0.0,
			"0.022": 0.0,
			"0.023": 0.0,
			"0.024": 0.0,
			"0.025": 0.0
		}
	}
}
