{
	 "smiles": "COC1=CC(C)=CC(OC)=C1O", 
	 "Tm": 312.15, 
	 "num_atms": 24, 
	 "gaussian": { 
		 "optdone": 1, 
		 "sigma_profile": "yes", 
		 "theory": "DFT", 
		 "functional": "B3LYP", 
		 "basiset": "6-31G**", 
		 "properties": { 
			 "R2extent": 2405.4962, 
			 "electric_dipole_moment_norm": 3.18652094454, 
			 "electric_quadrupole_moment_norm": 9.0737062064, 
			 "total_energy": -575.832621092, 
			 "HOMO_LUMO_gap": 0.21332, 
			 "cosmo_polarized_energy": -8.81, 
			 "cosmo_cavitation_energy": 27.04, 
			 "cosmo_dispersion_energy": -20.02, 
			 "cosmo_repulsion_energy": 1.62, 
			 "cosmo_total_nonelectrostatic_energy": 8.63, 
			 "SMD_solvation_energy": 6.56 
		},
		"coords": [
			{
				"x": -2.0110061364,
				"y": -1.9182020911,
				"z": -2.4004676073,
				"element": "C" 
			},
			{
				"x": -0.865095971,
				"y": -1.0788761147,
				"z": -2.5633507623,
				"element": "O" 
			},
			{
				"x": -0.394892774,
				"y": -0.4558383141,
				"z": -1.4341107579,
				"element": "C" 
			},
			{
				"x": 0.9414714432,
				"y": -0.671863085,
				"z": -1.0710677821,
				"element": "C" 
			},
			{
				"x": 1.514329036,
				"y": -0.0299694858,
				"z": 0.025560894,
				"element": "C" 
			},
			{
				"x": 2.9633547298,
				"y": -0.2545360301,
				"z": 0.3921632059,
				"element": "C" 
			},
			{
				"x": 0.7195434005,
				"y": 0.8413526162,
				"z": 0.7906637568,
				"element": "C" 
			},
			{
				"x": -0.6077929854,
				"y": 1.0600820375,
				"z": 0.43623046,
				"element": "C" 
			},
			{
				"x": -1.4900570982,
				"y": 1.8917408804,
				"z": 1.089948671,
				"element": "O" 
			},
			{
				"x": -1.0175911504,
				"y": 2.6256769297,
				"z": 2.2080385623,
				"element": "C" 
			},
			{
				"x": -1.1789755933,
				"y": 0.4261451638,
				"z": -0.6840649663,
				"element": "C" 
			},
			{
				"x": -2.4766184601,
				"y": 0.6836380627,
				"z": -1.0289533759,
				"element": "O" 
			},
			{
				"x": -2.8936521915,
				"y": -1.3468345737,
				"z": -2.101395461,
				"element": "H" 
			},
			{
				"x": -1.8170628736,
				"y": -2.7044063915,
				"z": -1.6588337762,
				"element": "H" 
			},
			{
				"x": -2.184918186,
				"y": -2.3809162104,
				"z": -3.3743544714,
				"element": "H" 
			},
			{
				"x": 1.520430474,
				"y": -1.3571105566,
				"z": -1.6822688917,
				"element": "H" 
			},
			{
				"x": 3.0777302171,
				"y": -0.4958278448,
				"z": 1.4551226803,
				"element": "H" 
			},
			{
				"x": 3.3950218547,
				"y": -1.0766379251,
				"z": -0.1851265025,
				"element": "H" 
			},
			{
				"x": 3.5701118991,
				"y": 0.6387308843,
				"z": 0.1980237449,
				"element": "H" 
			},
			{
				"x": 1.1480104405,
				"y": 1.3405897684,
				"z": 1.6528688466,
				"element": "H" 
			},
			{
				"x": -0.6867657459,
				"y": 1.9584428847,
				"z": 3.0137910657,
				"element": "H" 
			},
			{
				"x": -0.1903048964,
				"y": 3.2902422648,
				"z": 1.929289107,
				"element": "H" 
			},
			{
				"x": -1.8598471345,
				"y": 3.2241362061,
				"z": 2.5588750106,
				"element": "H" 
			},
			{
				"x": -2.8127222983,
				"y": 1.3160409241,
				"z": -0.3750816506,
				"element": "H" 
			}
		],
		 "valence_orbital": [ 
			{
				"type": "occ",
				"energy": -0.33158,
				"method": "rhf"
			},
			{
				"type": "occ",
				"energy": -0.29981,
				"method": "rhf"
			},
			{
				"type": "occ",
				"energy": -0.26873,
				"method": "rhf"
			},
			{
				"type": "occ",
				"energy": -0.21669,
				"method": "rhf"
			},
			{
				"type": "occ",
				"energy": -0.19765,
				"method": "rhf"
			},
			{
				"type": "unocc",
				"energy": 0.01567,
				"method": "rhf"
			},
			{
				"type": "unocc",
				"energy": 0.02266,
				"method": "rhf"
			},
			{
				"type": "unocc",
				"energy": 0.07323,
				"method": "rhf"
			},
			{
				"type": "unocc",
				"energy": 0.09519,
				"method": "rhf"
			},
			{
				"type": "unocc",
				"energy": 0.12045,
				"method": "rhf"
			}
		],
		"cosmo_sigma_profile": { 
			"-0.025": 0.0,
			"-0.024": 0.0,
			"-0.023": 0.0,
			"-0.022": 0.0,
			"-0.021": 0.0,
			"-0.02": 0.0,
			"-0.019": 0.0,
			"-0.018": 0.0,
			"-0.017": 0.0,
			"-0.016": 0.0,
			"-0.015": 0.0,
			"-0.014": 0.16568009788,
			"-0.013": 0.625172241001,
			"-0.012": 0.79097964832,
			"-0.011": 0.583791954096,
			"-0.01": 0.602173793517,
			"-0.009": 0.45845252728,
			"-0.008": 0.500590453491,
			"-0.007": 0.731034825222,
			"-0.006": 6.59651568708,
			"-0.005": 15.4910658411,
			"-0.004": 21.3941173173,
			"-0.003": 25.4503565651,
			"-0.002": 21.0456721287,
			"-0.001": 15.4842182746,
			"0.0": 16.2486705111,
			"0.001": 14.5693296404,
			"0.002": 12.0934753744,
			"0.003": 11.0189932936,
			"0.004": 12.7322138736,
			"0.005": 11.7529026674,
			"0.006": 9.31049538817,
			"0.007": 3.63368330675,
			"0.008": 2.51670920238,
			"0.009": 3.29512347068,
			"0.01": 1.87818060422,
			"0.011": 2.9762781914,
			"0.012": 1.28005884081,
			"0.013": 0.143756532289,
			"0.014": 0.0,
			"0.015": 0.0,
			"0.016": 0.0,
			"0.017": 0.0,
			"0.018": 0.0,
			"0.019": 0.0,
			"0.02": 0.0,
			"0.021": 0.0,
			"0.022": 0.0,
			"0.023": 0.0,
			"0.024": 0.0,
			"0.025": 0.0
		}
	}
}
