{
	 "smiles": "CS(=O)(=O)C1=CC(=CC=C1)C(N)C1=CC=CC=C1", 
	 "Tm": 322.15, 
	 "num_atms": 33, 
	 "gaussian": { 
		 "optdone": 1, 
		 "sigma_profile": "yes", 
		 "theory": "DFT", 
		 "functional": "B3LYP", 
		 "basiset": "6-31G**", 
		 "properties": { 
			 "R2extent": 5701.7597, 
			 "electric_dipole_moment_norm": 4.83630497591, 
			 "electric_quadrupole_moment_norm": 18.1001141695, 
			 "total_energy": -1145.85291816, 
			 "HOMO_LUMO_gap": 0.20418, 
			 "cosmo_polarized_energy": -18.92, 
			 "cosmo_cavitation_energy": 37.83, 
			 "cosmo_dispersion_energy": -26.42, 
			 "cosmo_repulsion_energy": 2.03, 
			 "cosmo_total_nonelectrostatic_energy": 13.44, 
			 "SMD_solvation_energy": 5.28 
		},
		"coords": [
			{
				"x": 2.3739765752,
				"y": 2.6884315686,
				"z": -1.3638896872,
				"element": "C" 
			},
			{
				"x": 2.1662687079,
				"y": 2.1566547763,
				"z": 0.3537483087,
				"element": "S" 
			},
			{
				"x": 3.4736417853,
				"y": 2.2930527306,
				"z": 1.0160266317,
				"element": "O" 
			},
			{
				"x": 0.9724915378,
				"y": 2.8360738269,
				"z": 0.881516161,
				"element": "O" 
			},
			{
				"x": 1.7969451833,
				"y": 0.4002510961,
				"z": 0.2092423328,
				"element": "C" 
			},
			{
				"x": 0.4682765632,
				"y": -0.0044433929,
				"z": 0.0834532997,
				"element": "C" 
			},
			{
				"x": 0.1650204211,
				"y": -1.3670978475,
				"z": -0.0384764631,
				"element": "C" 
			},
			{
				"x": 1.2195532878,
				"y": -2.2905720959,
				"z": -0.0311037505,
				"element": "C" 
			},
			{
				"x": 2.544525846,
				"y": -1.8724376279,
				"z": 0.1132179111,
				"element": "C" 
			},
			{
				"x": 2.8481478872,
				"y": -0.517929332,
				"z": 0.2376217231,
				"element": "C" 
			},
			{
				"x": -1.2811596207,
				"y": -1.8328557545,
				"z": -0.2354208184,
				"element": "C" 
			},
			{
				"x": -1.3973907965,
				"y": -3.2712465494,
				"z": 0.0703816592,
				"element": "N" 
			},
			{
				"x": -2.3079119257,
				"y": -0.9743117701,
				"z": 0.5018111211,
				"element": "C" 
			},
			{
				"x": -2.220384267,
				"y": -0.7724568873,
				"z": 1.8880664145,
				"element": "C" 
			},
			{
				"x": -3.1997517111,
				"y": -0.0490306916,
				"z": 2.5658253194,
				"element": "C" 
			},
			{
				"x": -4.285570765,
				"y": 0.4880576074,
				"z": 1.8682900812,
				"element": "C" 
			},
			{
				"x": -4.3816033438,
				"y": 0.2982399378,
				"z": 0.4901785689,
				"element": "C" 
			},
			{
				"x": -3.3977176282,
				"y": -0.4281330738,
				"z": -0.1856646767,
				"element": "C" 
			},
			{
				"x": 2.6045746321,
				"y": 3.7551662412,
				"z": -1.3276112668,
				"element": "H" 
			},
			{
				"x": 3.1998342133,
				"y": 2.1357668085,
				"z": -1.8137778114,
				"element": "H" 
			},
			{
				"x": 1.4434114808,
				"y": 2.5188162139,
				"z": -1.9071412767,
				"element": "H" 
			},
			{
				"x": -0.319533883,
				"y": 0.7409913035,
				"z": 0.1078368742,
				"element": "H" 
			},
			{
				"x": 0.9828609111,
				"y": -3.3434343908,
				"z": -0.1366820252,
				"element": "H" 
			},
			{
				"x": 3.3425088186,
				"y": -2.6089719406,
				"z": 0.134238454,
				"element": "H" 
			},
			{
				"x": 3.8668805658,
				"y": -0.1718366946,
				"z": 0.3753042954,
				"element": "H" 
			},
			{
				"x": -1.4977682427,
				"y": -1.741441626,
				"z": -1.3091694669,
				"element": "H" 
			},
			{
				"x": -1.321764903,
				"y": -3.406440553,
				"z": 1.0776263308,
				"element": "H" 
			},
			{
				"x": -2.3320155429,
				"y": -3.5841196513,
				"z": -0.1821242171,
				"element": "H" 
			},
			{
				"x": -1.3710951922,
				"y": -1.1715832755,
				"z": 2.4375761995,
				"element": "H" 
			},
			{
				"x": -3.1127027738,
				"y": 0.1034875553,
				"z": 3.6377721513,
				"element": "H" 
			},
			{
				"x": -5.0463799853,
				"y": 1.0552328787,
				"z": 2.3964705893,
				"element": "H" 
			},
			{
				"x": -5.2186392068,
				"y": 0.7168352036,
				"z": -0.0614907561,
				"element": "H" 
			},
			{
				"x": -3.477928629,
				"y": -0.5723145936,
				"z": -1.2610522108,
				"element": "H" 
			}
		],
		 "valence_orbital": [ 
			{
				"type": "occ",
				"energy": -0.27372,
				"method": "rhf"
			},
			{
				"type": "occ",
				"energy": -0.26778,
				"method": "rhf"
			},
			{
				"type": "occ",
				"energy": -0.25799,
				"method": "rhf"
			},
			{
				"type": "occ",
				"energy": -0.2537,
				"method": "rhf"
			},
			{
				"type": "occ",
				"energy": -0.23864,
				"method": "rhf"
			},
			{
				"type": "unocc",
				"energy": -0.03446,
				"method": "rhf"
			},
			{
				"type": "unocc",
				"energy": -0.01974,
				"method": "rhf"
			},
			{
				"type": "unocc",
				"energy": -0.01029,
				"method": "rhf"
			},
			{
				"type": "unocc",
				"energy": -0.00527,
				"method": "rhf"
			},
			{
				"type": "unocc",
				"energy": 0.07277,
				"method": "rhf"
			}
		],
		"cosmo_sigma_profile": { 
			"-0.025": 0.0,
			"-0.024": 0.0,
			"-0.023": 0.0,
			"-0.022": 0.0,
			"-0.021": 0.0,
			"-0.02": 0.0,
			"-0.019": 0.0,
			"-0.018": 0.0,
			"-0.017": 0.0,
			"-0.016": 0.0,
			"-0.015": 0.0,
			"-0.014": 0.0,
			"-0.013": 0.0,
			"-0.012": 0.0,
			"-0.011": 0.109913066696,
			"-0.01": 1.41394296008,
			"-0.009": 3.71632870586,
			"-0.008": 9.63658260627,
			"-0.007": 10.753233806,
			"-0.006": 19.959444883,
			"-0.005": 26.548921364,
			"-0.004": 27.4556793753,
			"-0.003": 23.7923842719,
			"-0.002": 17.8471264928,
			"-0.001": 15.4094158585,
			"0.0": 15.6007500512,
			"0.001": 16.8058491872,
			"0.002": 19.7761371256,
			"0.003": 20.1762433532,
			"0.004": 13.5236673604,
			"0.005": 10.475849077,
			"0.006": 8.72230867126,
			"0.007": 3.86576265388,
			"0.008": 3.69868685342,
			"0.009": 3.73935350428,
			"0.01": 4.97980412898,
			"0.011": 8.86120564991,
			"0.012": 10.1012878996,
			"0.013": 2.18970983809,
			"0.014": 0.784897349007,
			"0.015": 0.544068911848,
			"0.016": 0.114872244738,
			"0.017": 0.0,
			"0.018": 0.0,
			"0.019": 0.0,
			"0.02": 0.0,
			"0.021": 0.0,
			"0.022": 0.0,
			"0.023": 0.0,
			"0.024": 0.0,
			"0.025": 0.0
		}
	}
}
