{
	 "smiles": "OC1=C2N=CC=CC2=C(C=C1)S(O)(=O)=O", 
	 "Tm": 595.15, 
	 "num_atms": 22, 
	 "gaussian": { 
		 "optdone": 1, 
		 "sigma_profile": "yes", 
		 "theory": "DFT", 
		 "functional": "B3LYP", 
		 "basiset": "6-31G**", 
		 "properties": { 
			 "R2extent": 3456.8292, 
			 "electric_dipole_moment_norm": 1.8455916829, 
			 "electric_quadrupole_moment_norm": 20.1495821594, 
			 "total_energy": -1100.94681184, 
			 "HOMO_LUMO_gap": 0.16, 
			 "cosmo_polarized_energy": -15.33, 
			 "cosmo_cavitation_energy": 27.54, 
			 "cosmo_dispersion_energy": -21.48, 
			 "cosmo_repulsion_energy": 1.6, 
			 "cosmo_total_nonelectrostatic_energy": 7.66, 
			 "SMD_solvation_energy": 3.3 
		},
		"coords": [
			{
				"x": -2.1098923995,
				"y": 3.0135205691,
				"z": 0.3633299258,
				"element": "O" 
			},
			{
				"x": -1.3261965071,
				"y": 1.981073928,
				"z": 0.0238627445,
				"element": "C" 
			},
			{
				"x": -0.1312105217,
				"y": 1.7587431002,
				"z": 0.7854318529,
				"element": "C" 
			},
			{
				"x": 0.0833001468,
				"y": 2.6453539371,
				"z": 1.7915766599,
				"element": "N" 
			},
			{
				"x": 1.1653507331,
				"y": 2.4974011312,
				"z": 2.5314883494,
				"element": "C" 
			},
			{
				"x": 2.0977823791,
				"y": 1.4566803584,
				"z": 2.3209786929,
				"element": "C" 
			},
			{
				"x": 1.8895648227,
				"y": 0.5478752547,
				"z": 1.3070907192,
				"element": "C" 
			},
			{
				"x": 0.7407301542,
				"y": 0.6741402141,
				"z": 0.4785955649,
				"element": "C" 
			},
			{
				"x": 0.3760369599,
				"y": -0.1719629929,
				"z": -0.617403419,
				"element": "C" 
			},
			{
				"x": -0.7779071778,
				"y": 0.0738385943,
				"z": -1.3412625296,
				"element": "C" 
			},
			{
				"x": -1.6410760141,
				"y": 1.1389004187,
				"z": -1.0249096353,
				"element": "C" 
			},
			{
				"x": 1.4844753735,
				"y": -1.469865397,
				"z": -1.1352912939,
				"element": "S" 
			},
			{
				"x": 0.4536790997,
				"y": -2.42935858,
				"z": -1.9873820552,
				"element": "O" 
			},
			{
				"x": 1.9337198118,
				"y": -2.2149181052,
				"z": 0.0360247269,
				"element": "O" 
			},
			{
				"x": 2.4667093412,
				"y": -0.9727957425,
				"z": -2.102886788,
				"element": "O" 
			},
			{
				"x": -1.6602237013,
				"y": 3.4354404433,
				"z": 1.1258897628,
				"element": "H" 
			},
			{
				"x": 1.3170083233,
				"y": 3.2203351611,
				"z": 3.3304070467,
				"element": "H" 
			},
			{
				"x": 2.968475273,
				"y": 1.3767831101,
				"z": 2.9633585293,
				"element": "H" 
			},
			{
				"x": 2.5851877161,
				"y": -0.2670374466,
				"z": 1.149211973,
				"element": "H" 
			},
			{
				"x": -1.0350109488,
				"y": -0.5822411364,
				"z": -2.1635664048,
				"element": "H" 
			},
			{
				"x": -2.5473536332,
				"y": 1.3051236058,
				"z": -1.595707569,
				"element": "H" 
			},
			{
				"x": 0.8719507692,
				"y": -2.5544304254,
				"z": -2.8564368533,
				"element": "H" 
			}
		],
		 "valence_orbital": [ 
			{
				"type": "occ",
				"energy": -0.30909,
				"method": "rhf"
			},
			{
				"type": "occ",
				"energy": -0.30728,
				"method": "rhf"
			},
			{
				"type": "occ",
				"energy": -0.29115,
				"method": "rhf"
			},
			{
				"type": "occ",
				"energy": -0.27723,
				"method": "rhf"
			},
			{
				"type": "occ",
				"energy": -0.23575,
				"method": "rhf"
			},
			{
				"type": "unocc",
				"energy": -0.07575,
				"method": "rhf"
			},
			{
				"type": "unocc",
				"energy": -0.03941,
				"method": "rhf"
			},
			{
				"type": "unocc",
				"energy": -0.0114,
				"method": "rhf"
			},
			{
				"type": "unocc",
				"energy": 0.03042,
				"method": "rhf"
			},
			{
				"type": "unocc",
				"energy": 0.05843,
				"method": "rhf"
			}
		],
		"cosmo_sigma_profile": { 
			"-0.025": 0.0,
			"-0.024": 0.0,
			"-0.023": 0.0,
			"-0.022": 0.0,
			"-0.021": 0.0313206122932,
			"-0.02": 0.708754372087,
			"-0.019": 1.05489807679,
			"-0.018": 0.623722642947,
			"-0.017": 1.1101617394,
			"-0.016": 0.267593552732,
			"-0.015": 0.225215127418,
			"-0.014": 0.723070441489,
			"-0.013": 1.57610766893,
			"-0.012": 1.3303260543,
			"-0.011": 1.1999997432,
			"-0.01": 1.54065331181,
			"-0.009": 1.6711933957,
			"-0.008": 5.95828976149,
			"-0.007": 13.2146436787,
			"-0.006": 11.7419349133,
			"-0.005": 9.09108958195,
			"-0.004": 7.85978406013,
			"-0.003": 8.39128872795,
			"-0.002": 10.7061470892,
			"-0.001": 20.9112915063,
			"0.0": 22.067374025,
			"0.001": 22.0267744026,
			"0.002": 12.5362760854,
			"0.003": 7.87791051844,
			"0.004": 5.61373746067,
			"0.005": 6.62427003095,
			"0.006": 6.86457838052,
			"0.007": 5.24923029195,
			"0.008": 8.0201784761,
			"0.009": 8.13125459416,
			"0.01": 12.7502397062,
			"0.011": 4.20209426691,
			"0.012": 0.0,
			"0.013": 0.0,
			"0.014": 0.0,
			"0.015": 0.0,
			"0.016": 0.0,
			"0.017": 0.0,
			"0.018": 0.0,
			"0.019": 0.0,
			"0.02": 0.0,
			"0.021": 0.0,
			"0.022": 0.0,
			"0.023": 0.0,
			"0.024": 0.0,
			"0.025": 0.0
		}
	}
}
