{
	 "smiles": "CC1=NC2=C(C(C)=C1)C(=O)N(C(S)=N2)C1=CC=C(Cl)C=C1", 
	 "Tm": 598.15, 
	 "num_atms": 33, 
	 "gaussian": { 
		 "optdone": 1, 
		 "sigma_profile": "yes", 
		 "theory": "DFT", 
		 "functional": "B3LYP", 
		 "basiset": "6-31G**", 
		 "properties": { 
			 "R2extent": 9603.7484, 
			 "electric_dipole_moment_norm": 1.24981692259, 
			 "electric_quadrupole_moment_norm": 14.6683989951, 
			 "total_energy": -1676.71807931, 
			 "HOMO_LUMO_gap": 0.18129, 
			 "cosmo_polarized_energy": -15.5, 
			 "cosmo_cavitation_energy": 40.92, 
			 "cosmo_dispersion_energy": -29.52, 
			 "cosmo_repulsion_energy": 2.22, 
			 "cosmo_total_nonelectrostatic_energy": 13.62, 
			 "SMD_solvation_energy": 4.04 
		},
		"coords": [
			{
				"x": -4.5438452207,
				"y": -2.4610236238,
				"z": 2.5174400444,
				"element": "C" 
			},
			{
				"x": -3.2663744764,
				"y": -1.8624171659,
				"z": 1.9841866616,
				"element": "C" 
			},
			{
				"x": -3.2827643044,
				"y": -0.5623493215,
				"z": 1.6980444283,
				"element": "N" 
			},
			{
				"x": -2.1524587764,
				"y": -0.007273451,
				"z": 1.2205630353,
				"element": "C" 
			},
			{
				"x": -0.9558047728,
				"y": -0.7385419639,
				"z": 1.0103544206,
				"element": "C" 
			},
			{
				"x": -0.9414319821,
				"y": -2.1256016946,
				"z": 1.3166914379,
				"element": "C" 
			},
			{
				"x": 0.2700960941,
				"y": -3.0021982805,
				"z": 1.1345255277,
				"element": "C" 
			},
			{
				"x": -2.1224658789,
				"y": -2.6659950786,
				"z": 1.8068612662,
				"element": "C" 
			},
			{
				"x": 0.2227619059,
				"y": -0.0464637169,
				"z": 0.4869641414,
				"element": "C" 
			},
			{
				"x": 1.3170888888,
				"y": -0.5400008541,
				"z": 0.2555081028,
				"element": "O" 
			},
			{
				"x": 0.0214285105,
				"y": 1.3460612351,
				"z": 0.2379619682,
				"element": "N" 
			},
			{
				"x": -1.1990933593,
				"y": 1.9480576167,
				"z": 0.4849486373,
				"element": "C" 
			},
			{
				"x": -1.2896978258,
				"y": 3.6947246917,
				"z": 0.1227132862,
				"element": "S" 
			},
			{
				"x": -2.2412416402,
				"y": 1.3452044474,
				"z": 0.9455735486,
				"element": "N" 
			},
			{
				"x": 1.1438048288,
				"y": 2.090795874,
				"z": -0.2792752124,
				"element": "C" 
			},
			{
				"x": 2.0425393448,
				"y": 2.6917858481,
				"z": 0.6036212456,
				"element": "C" 
			},
			{
				"x": 3.1292343876,
				"y": 3.4096381013,
				"z": 0.1085981425,
				"element": "C" 
			},
			{
				"x": 3.3045173389,
				"y": 3.510805034,
				"z": -1.2718571625,
				"element": "C" 
			},
			{
				"x": 4.6705496158,
				"y": 4.4145866751,
				"z": -1.9006954438,
				"element": "Cl" 
			},
			{
				"x": 2.4164437734,
				"y": 2.9068064808,
				"z": -2.162416184,
				"element": "C" 
			},
			{
				"x": 1.332487183,
				"y": 2.1908279581,
				"z": -1.6586905382,
				"element": "C" 
			},
			{
				"x": -4.3885136124,
				"y": -2.8948893678,
				"z": 3.511899257,
				"element": "H" 
			},
			{
				"x": -4.9009914866,
				"y": -3.2672726503,
				"z": 1.8665255684,
				"element": "H" 
			},
			{
				"x": -5.312774356,
				"y": -1.6904005764,
				"z": 2.582651707,
				"element": "H" 
			},
			{
				"x": 1.1166063351,
				"y": -2.6353805232,
				"z": 1.7208435688,
				"element": "H" 
			},
			{
				"x": 0.6088733448,
				"y": -2.9992868026,
				"z": 0.0952461978,
				"element": "H" 
			},
			{
				"x": 0.0419078133,
				"y": -4.0280784729,
				"z": 1.4354875626,
				"element": "H" 
			},
			{
				"x": -2.1673265572,
				"y": -3.7220348085,
				"z": 2.0575145868,
				"element": "H" 
			},
			{
				"x": -2.5775863717,
				"y": 3.7538882383,
				"z": 0.5122788517,
				"element": "H" 
			},
			{
				"x": 1.8907557253,
				"y": 2.5965645924,
				"z": 1.6735774731,
				"element": "H" 
			},
			{
				"x": 3.833111557,
				"y": 3.8830089215,
				"z": 0.7833936535,
				"element": "H" 
			},
			{
				"x": 2.5730060187,
				"y": 2.9940797821,
				"z": -3.2314097196,
				"element": "H" 
			},
			{
				"x": 0.6329579552,
				"y": 1.7092728562,
				"z": -2.3337300609,
				"element": "H" 
			}
		],
		 "valence_orbital": [ 
			{
				"type": "occ",
				"energy": -0.27504,
				"method": "rhf"
			},
			{
				"type": "occ",
				"energy": -0.27371,
				"method": "rhf"
			},
			{
				"type": "occ",
				"energy": -0.25976,
				"method": "rhf"
			},
			{
				"type": "occ",
				"energy": -0.25172,
				"method": "rhf"
			},
			{
				"type": "occ",
				"energy": -0.23182,
				"method": "rhf"
			},
			{
				"type": "unocc",
				"energy": -0.05053,
				"method": "rhf"
			},
			{
				"type": "unocc",
				"energy": -0.0422,
				"method": "rhf"
			},
			{
				"type": "unocc",
				"energy": -0.03569,
				"method": "rhf"
			},
			{
				"type": "unocc",
				"energy": -0.02767,
				"method": "rhf"
			},
			{
				"type": "unocc",
				"energy": 0.00976,
				"method": "rhf"
			}
		],
		"cosmo_sigma_profile": { 
			"-0.025": 0.0,
			"-0.024": 0.0,
			"-0.023": 0.0,
			"-0.022": 0.0,
			"-0.021": 0.0,
			"-0.02": 0.0,
			"-0.019": 0.0,
			"-0.018": 0.0,
			"-0.017": 0.0,
			"-0.016": 0.0,
			"-0.015": 0.0,
			"-0.014": 0.0,
			"-0.013": 0.0,
			"-0.012": 0.62873319734,
			"-0.011": 1.53918480663,
			"-0.01": 1.12932302178,
			"-0.009": 1.8857575115,
			"-0.008": 7.95725789703,
			"-0.007": 10.4501280157,
			"-0.006": 16.6167328242,
			"-0.005": 18.5483421843,
			"-0.004": 21.9755020373,
			"-0.003": 21.6425631559,
			"-0.002": 25.1630917691,
			"-0.001": 31.887078161,
			"0.0": 35.2548560141,
			"0.001": 29.7340856943,
			"0.002": 27.1719755775,
			"0.003": 18.4895476406,
			"0.004": 17.5766437754,
			"0.005": 9.45457393231,
			"0.006": 5.30438135386,
			"0.007": 3.99746185677,
			"0.008": 3.23896073247,
			"0.009": 3.77518194173,
			"0.01": 3.07691561984,
			"0.011": 3.691601022,
			"0.012": 4.49934319382,
			"0.013": 2.28899738418,
			"0.014": 1.30657290714,
			"0.015": 1.37719962888,
			"0.016": 1.42586288753,
			"0.017": 1.11113568695,
			"0.018": 0.270025347766,
			"0.019": 0.0,
			"0.02": 0.0,
			"0.021": 0.0,
			"0.022": 0.0,
			"0.023": 0.0,
			"0.024": 0.0,
			"0.025": 0.0
		}
	}
}
