{
	 "smiles": "[O-][N+](=O)C1=C(C=C(Cl)C=C1)C(=O)N1CCCC1", 
	 "Tm": 431.15, 
	 "num_atms": 28, 
	 "gaussian": { 
		 "optdone": 1, 
		 "sigma_profile": "yes", 
		 "theory": "DFT", 
		 "functional": "B3LYP", 
		 "basiset": "6-31G**", 
		 "properties": { 
			 "R2extent": 5469.0536, 
			 "electric_dipole_moment_norm": 4.57660053533, 
			 "electric_quadrupole_moment_norm": 20.8289965577, 
			 "total_energy": -1221.07569303, 
			 "HOMO_LUMO_gap": 0.14598, 
			 "cosmo_polarized_energy": -14.32, 
			 "cosmo_cavitation_energy": 33.72, 
			 "cosmo_dispersion_energy": -23.85, 
			 "cosmo_repulsion_energy": 1.87, 
			 "cosmo_total_nonelectrostatic_energy": 11.74, 
			 "SMD_solvation_energy": 6.75 
		},
		"coords": [
			{
				"x": 0.3478197329,
				"y": -2.7800032017,
				"z": 1.0153292764,
				"element": "O" 
			},
			{
				"x": 0.7901611245,
				"y": -3.0042763201,
				"z": -0.1125082041,
				"element": "N" 
			},
			{
				"x": 1.5690217304,
				"y": -3.9145465106,
				"z": -0.3879828858,
				"element": "O" 
			},
			{
				"x": 0.3744825148,
				"y": -2.107443095,
				"z": -1.2001114502,
				"element": "C" 
			},
			{
				"x": -0.7166428461,
				"y": -1.2434016174,
				"z": -1.0363677976,
				"element": "C" 
			},
			{
				"x": -1.0353780724,
				"y": -0.3924645096,
				"z": -2.1000628179,
				"element": "C" 
			},
			{
				"x": -0.2753089716,
				"y": -0.4089591597,
				"z": -3.2689134004,
				"element": "C" 
			},
			{
				"x": -0.6905263003,
				"y": 0.6798061636,
				"z": -4.5736146212,
				"element": "Cl" 
			},
			{
				"x": 0.8055168749,
				"y": -1.2803707026,
				"z": -3.4216419646,
				"element": "C" 
			},
			{
				"x": 1.1247487917,
				"y": -2.1378286943,
				"z": -2.3762937248,
				"element": "C" 
			},
			{
				"x": -1.6908713936,
				"y": -1.2897025518,
				"z": 0.1325134613,
				"element": "C" 
			},
			{
				"x": -2.631037013,
				"y": -2.0752613054,
				"z": 0.0822762094,
				"element": "O" 
			},
			{
				"x": -1.5246448751,
				"y": -0.3648570565,
				"z": 1.1085938236,
				"element": "N" 
			},
			{
				"x": -0.311358365,
				"y": 0.4418419464,
				"z": 1.3255407705,
				"element": "C" 
			},
			{
				"x": -0.6531898151,
				"y": 1.2507314339,
				"z": 2.5854906337,
				"element": "C" 
			},
			{
				"x": -1.5599714303,
				"y": 0.2953250288,
				"z": 3.3800358321,
				"element": "C" 
			},
			{
				"x": -2.4040422409,
				"y": -0.3842985483,
				"z": 2.2917525592,
				"element": "C" 
			},
			{
				"x": -1.887223744,
				"y": 0.273331634,
				"z": -2.0182378253,
				"element": "H" 
			},
			{
				"x": 1.3823995586,
				"y": -1.2839106236,
				"z": -4.338931888,
				"element": "H" 
			},
			{
				"x": 1.9520327224,
				"y": -2.8324375328,
				"z": -2.4512812275,
				"element": "H" 
			},
			{
				"x": -0.0960630427,
				"y": 1.0766017618,
				"z": 0.4608773181,
				"element": "H" 
			},
			{
				"x": 0.5514073639,
				"y": -0.214021564,
				"z": 1.4973724056,
				"element": "H" 
			},
			{
				"x": 0.2418594538,
				"y": 1.5569789674,
				"z": 3.1331494633,
				"element": "H" 
			},
			{
				"x": -1.2055068448,
				"y": 2.1564962352,
				"z": 2.3102414225,
				"element": "H" 
			},
			{
				"x": -2.1742931137,
				"y": 0.8063966877,
				"z": 4.1259021117,
				"element": "H" 
			},
			{
				"x": -0.9513476925,
				"y": -0.4520210211,
				"z": 3.9007434486,
				"element": "H" 
			},
			{
				"x": -2.6862386916,
				"y": -1.4134774013,
				"z": 2.5250903466,
				"element": "H" 
			},
			{
				"x": -3.3256054152,
				"y": 0.1731715569,
				"z": 2.081338725,
				"element": "H" 
			}
		],
		 "valence_orbital": [ 
			{
				"type": "occ",
				"energy": -0.30028,
				"method": "rhf"
			},
			{
				"type": "occ",
				"energy": -0.29428,
				"method": "rhf"
			},
			{
				"type": "occ",
				"energy": -0.27701,
				"method": "rhf"
			},
			{
				"type": "occ",
				"energy": -0.25265,
				"method": "rhf"
			},
			{
				"type": "occ",
				"energy": -0.24398,
				"method": "rhf"
			},
			{
				"type": "unocc",
				"energy": -0.098,
				"method": "rhf"
			},
			{
				"type": "unocc",
				"energy": -0.04274,
				"method": "rhf"
			},
			{
				"type": "unocc",
				"energy": -0.0154,
				"method": "rhf"
			},
			{
				"type": "unocc",
				"energy": 0.00673,
				"method": "rhf"
			},
			{
				"type": "unocc",
				"energy": 0.02166,
				"method": "rhf"
			}
		],
		"cosmo_sigma_profile": { 
			"-0.025": 0.0,
			"-0.024": 0.0,
			"-0.023": 0.0,
			"-0.022": 0.0,
			"-0.021": 0.0,
			"-0.02": 0.0,
			"-0.019": 0.0,
			"-0.018": 0.0,
			"-0.017": 0.0,
			"-0.016": 0.0,
			"-0.015": 0.0,
			"-0.014": 0.0,
			"-0.013": 0.0,
			"-0.012": 0.0,
			"-0.011": 0.0,
			"-0.01": 0.00712214490793,
			"-0.009": 2.77989213752,
			"-0.008": 5.8036856489,
			"-0.007": 5.65156670319,
			"-0.006": 6.54947429296,
			"-0.005": 11.0208150129,
			"-0.004": 25.8801648389,
			"-0.003": 35.9038893425,
			"-0.002": 31.5765971451,
			"-0.001": 30.1642862204,
			"0.0": 23.6204086259,
			"0.001": 11.8701069182,
			"0.002": 11.0758714215,
			"0.003": 13.7228876142,
			"0.004": 9.01501069228,
			"0.005": 3.92773519205,
			"0.006": 5.99514461896,
			"0.007": 8.89174209478,
			"0.008": 6.70444038677,
			"0.009": 5.30298929997,
			"0.01": 2.72783068754,
			"0.011": 1.38304583012,
			"0.012": 2.34594908946,
			"0.013": 5.38804402195,
			"0.014": 2.66236106081,
			"0.015": 0.147626901227,
			"0.016": 0.0,
			"0.017": 0.0,
			"0.018": 0.0,
			"0.019": 0.0,
			"0.02": 0.0,
			"0.021": 0.0,
			"0.022": 0.0,
			"0.023": 0.0,
			"0.024": 0.0,
			"0.025": 0.0
		}
	}
}
