{
	 "smiles": "CCN1C=C(C(O)=O)C(=O)C2=CN=C(N=C12)N1CCNCC1", 
	 "Tm": 527.15, 
	 "num_atms": 39, 
	 "gaussian": { 
		 "optdone": 1, 
		 "sigma_profile": "yes", 
		 "theory": "DFT", 
		 "functional": "B3LYP", 
		 "basiset": "6-31G**", 
		 "properties": { 
			 "R2extent": 9755.9728, 
			 "electric_dipole_moment_norm": 10.3465938434, 
			 "electric_quadrupole_moment_norm": 44.4922852589, 
			 "total_energy": -1043.21802403, 
			 "HOMO_LUMO_gap": 0.16001, 
			 "cosmo_polarized_energy": -20.96, 
			 "cosmo_cavitation_energy": 41.11, 
			 "cosmo_dispersion_energy": -29.74, 
			 "cosmo_repulsion_energy": 2.24, 
			 "cosmo_total_nonelectrostatic_energy": 13.61, 
			 "SMD_solvation_energy": 4.27 
		},
		"coords": [
			{
				"x": -2.0281251791,
				"y": 3.5899197851,
				"z": -1.0210736915,
				"element": "C" 
			},
			{
				"x": -2.7754951579,
				"y": 2.3623575209,
				"z": -0.5009717482,
				"element": "C" 
			},
			{
				"x": -2.6238022832,
				"y": 1.1871755927,
				"z": -1.3826778842,
				"element": "N" 
			},
			{
				"x": -3.5573284932,
				"y": 0.9298237254,
				"z": -2.3426997698,
				"element": "C" 
			},
			{
				"x": -3.4928657827,
				"y": -0.1065545839,
				"z": -3.230095885,
				"element": "C" 
			},
			{
				"x": -4.6157487321,
				"y": -0.2446407685,
				"z": -4.2167064251,
				"element": "C" 
			},
			{
				"x": -4.5047394971,
				"y": -1.272569533,
				"z": -5.060646838,
				"element": "O" 
			},
			{
				"x": -5.5548152702,
				"y": 0.5284107393,
				"z": -4.2398480544,
				"element": "O" 
			},
			{
				"x": -2.366122443,
				"y": -1.0278079913,
				"z": -3.192962101,
				"element": "C" 
			},
			{
				"x": -2.2491529595,
				"y": -1.9955350422,
				"z": -3.9779620302,
				"element": "O" 
			},
			{
				"x": -1.3804255166,
				"y": -0.7311460371,
				"z": -2.1622674708,
				"element": "C" 
			},
			{
				"x": -0.2200611269,
				"y": -1.5054215973,
				"z": -1.9715736824,
				"element": "C" 
			},
			{
				"x": 0.6874720528,
				"y": -1.2550333308,
				"z": -1.0490113275,
				"element": "N" 
			},
			{
				"x": 0.4556830485,
				"y": -0.1729172007,
				"z": -0.247191692,
				"element": "C" 
			},
			{
				"x": -0.6105012579,
				"y": 0.6477236807,
				"z": -0.3363935012,
				"element": "N" 
			},
			{
				"x": -1.510187508,
				"y": 0.3619352705,
				"z": -1.2779707186,
				"element": "C" 
			},
			{
				"x": 1.3798698909,
				"y": 0.084812761,
				"z": 0.7151378315,
				"element": "N" 
			},
			{
				"x": 1.2797411319,
				"y": 1.2295034426,
				"z": 1.6215690803,
				"element": "C" 
			},
			{
				"x": 1.4898491534,
				"y": 0.7716961706,
				"z": 3.0678264316,
				"element": "C" 
			},
			{
				"x": 2.7703536219,
				"y": 0.0743181353,
				"z": 3.1706611749,
				"element": "N" 
			},
			{
				"x": 2.7900399205,
				"y": -1.1182072134,
				"z": 2.3232917606,
				"element": "C" 
			},
			{
				"x": 2.6088415065,
				"y": -0.7014915074,
				"z": 0.861935362,
				"element": "C" 
			},
			{
				"x": -2.1870963023,
				"y": 4.434196981,
				"z": -0.3428440974,
				"element": "H" 
			},
			{
				"x": -2.3853282656,
				"y": 3.8790758192,
				"z": -2.014112561,
				"element": "H" 
			},
			{
				"x": -0.9551535676,
				"y": 3.3920192487,
				"z": -1.0783372949,
				"element": "H" 
			},
			{
				"x": -3.8475845733,
				"y": 2.5602099575,
				"z": -0.4243063185,
				"element": "H" 
			},
			{
				"x": -2.4099862884,
				"y": 2.0769235737,
				"z": 0.4858154526,
				"element": "H" 
			},
			{
				"x": -4.4069141986,
				"y": 1.6035279639,
				"z": -2.3876103984,
				"element": "H" 
			},
			{
				"x": -3.6595251763,
				"y": -1.7597261419,
				"z": -4.8511018286,
				"element": "H" 
			},
			{
				"x": -0.0556697238,
				"y": -2.3626088697,
				"z": -2.6213095478,
				"element": "H" 
			},
			{
				"x": 0.3037534299,
				"y": 1.6929235829,
				"z": 1.4933353266,
				"element": "H" 
			},
			{
				"x": 2.0575087266,
				"y": 1.9604063946,
				"z": 1.3596121057,
				"element": "H" 
			},
			{
				"x": 0.6289617821,
				"y": 0.1431510917,
				"z": 3.3647329135,
				"element": "H" 
			},
			{
				"x": 1.5054460221,
				"y": 1.6501949564,
				"z": 3.7218484608,
				"element": "H" 
			},
			{
				"x": 2.955397103,
				"y": -0.1783749407,
				"z": 4.1369036211,
				"element": "H" 
			},
			{
				"x": 1.9982271344,
				"y": -1.8457946944,
				"z": 2.5825678002,
				"element": "H" 
			},
			{
				"x": 3.7568449778,
				"y": -1.620571918,
				"z": 2.4335649644,
				"element": "H" 
			},
			{
				"x": 3.4629732867,
				"y": -0.0811080269,
				"z": 0.5571497761,
				"element": "H" 
			},
			{
				"x": 2.5470665145,
				"y": -1.5666969967,
				"z": 0.2054228047,
				"element": "H" 
			}
		],
		 "valence_orbital": [ 
			{
				"type": "occ",
				"energy": -0.2629,
				"method": "rhf"
			},
			{
				"type": "occ",
				"energy": -0.25134,
				"method": "rhf"
			},
			{
				"type": "occ",
				"energy": -0.2459,
				"method": "rhf"
			},
			{
				"type": "occ",
				"energy": -0.24356,
				"method": "rhf"
			},
			{
				"type": "occ",
				"energy": -0.23103,
				"method": "rhf"
			},
			{
				"type": "unocc",
				"energy": -0.07102,
				"method": "rhf"
			},
			{
				"type": "unocc",
				"energy": -0.04294,
				"method": "rhf"
			},
			{
				"type": "unocc",
				"energy": -0.01595,
				"method": "rhf"
			},
			{
				"type": "unocc",
				"energy": 0.03173,
				"method": "rhf"
			},
			{
				"type": "unocc",
				"energy": 0.06839,
				"method": "rhf"
			}
		],
		"cosmo_sigma_profile": { 
			"-0.025": 0.0,
			"-0.024": 0.0,
			"-0.023": 0.0,
			"-0.022": 0.0,
			"-0.021": 0.0,
			"-0.02": 0.0,
			"-0.019": 0.0,
			"-0.018": 0.0,
			"-0.017": 0.0,
			"-0.016": 0.0,
			"-0.015": 0.0,
			"-0.014": 0.0,
			"-0.013": 0.0,
			"-0.012": 0.0,
			"-0.011": 0.778338331108,
			"-0.01": 3.28002877069,
			"-0.009": 3.31393947394,
			"-0.008": 3.75434905849,
			"-0.007": 5.30753738763,
			"-0.006": 5.72011798119,
			"-0.005": 15.65909174,
			"-0.004": 34.967567794,
			"-0.003": 43.3873823957,
			"-0.002": 45.6883757017,
			"-0.001": 39.4958095646,
			"0.0": 24.9043720773,
			"0.001": 12.5591239827,
			"0.002": 10.9858776048,
			"0.003": 9.5248466347,
			"0.004": 6.90746024159,
			"0.005": 6.46123567124,
			"0.006": 5.5416195265,
			"0.007": 5.05089958362,
			"0.008": 5.94172287644,
			"0.009": 5.80723411914,
			"0.01": 5.82248256095,
			"0.011": 7.42848393349,
			"0.012": 8.99569240511,
			"0.013": 4.62640514838,
			"0.014": 2.23424617454,
			"0.015": 0.644219317373,
			"0.016": 0.16779476867,
			"0.017": 0.446950062139,
			"0.018": 0.0803824893253,
			"0.019": 0.0,
			"0.02": 0.0,
			"0.021": 0.0,
			"0.022": 0.0,
			"0.023": 0.0,
			"0.024": 0.0,
			"0.025": 0.0
		}
	}
}
