{
	 "smiles": "CCC(C1=CC=C2C=C(OC)C=CC2=C1)C(C)(C)C(O)=O", 
	 "Tm": 413.15, 
	 "num_atms": 43, 
	 "gaussian": { 
		 "optdone": 1, 
		 "sigma_profile": "yes", 
		 "theory": "DFT", 
		 "functional": "B3LYP", 
		 "basiset": "6-31G**", 
		 "properties": { 
			 "R2extent": 8247.8412, 
			 "electric_dipole_moment_norm": 1.47938155322, 
			 "electric_quadrupole_moment_norm": 17.7712702937, 
			 "total_energy": -924.87814052, 
			 "HOMO_LUMO_gap": 0.17069, 
			 "cosmo_polarized_energy": -12.82, 
			 "cosmo_cavitation_energy": 43.45, 
			 "cosmo_dispersion_energy": -29.75, 
			 "cosmo_repulsion_energy": 2.27, 
			 "cosmo_total_nonelectrostatic_energy": 15.96, 
			 "SMD_solvation_energy": 8.76 
		},
		"coords": [
			{
				"x": 0.1995217905,
				"y": 0.9141520893,
				"z": 3.3569788559,
				"element": "C" 
			},
			{
				"x": 1.3576126308,
				"y": 0.5118822487,
				"z": 2.4356666582,
				"element": "C" 
			},
			{
				"x": 1.0930056568,
				"y": 0.8430800422,
				"z": 0.947117184,
				"element": "C" 
			},
			{
				"x": -0.1844912147,
				"y": 0.1830088212,
				"z": 0.4358368248,
				"element": "C" 
			},
			{
				"x": -0.4000722915,
				"y": -1.2188587606,
				"z": 0.5662516958,
				"element": "C" 
			},
			{
				"x": -1.5575600458,
				"y": -1.8121569868,
				"z": 0.1144849829,
				"element": "C" 
			},
			{
				"x": -2.5866545516,
				"y": -1.0490655466,
				"z": -0.4978923476,
				"element": "C" 
			},
			{
				"x": -3.7910998483,
				"y": -1.6396815972,
				"z": -0.9715410078,
				"element": "C" 
			},
			{
				"x": -4.7654743087,
				"y": -0.85452776,
				"z": -1.5555157789,
				"element": "C" 
			},
			{
				"x": -5.9552458071,
				"y": -1.3091887915,
				"z": -2.0450814119,
				"element": "O" 
			},
			{
				"x": -6.225380245,
				"y": -2.6983414435,
				"z": -1.9527246844,
				"element": "C" 
			},
			{
				"x": -4.5721678443,
				"y": 0.5493461551,
				"z": -1.6860180764,
				"element": "C" 
			},
			{
				"x": -3.4176844157,
				"y": 1.134799744,
				"z": -1.2340807536,
				"element": "C" 
			},
			{
				"x": -2.3881014299,
				"y": 0.3607597657,
				"z": -0.6278880489,
				"element": "C" 
			},
			{
				"x": -1.1838356711,
				"y": 0.9381957274,
				"z": -0.1503344491,
				"element": "C" 
			},
			{
				"x": 2.3347070689,
				"y": 0.6162041644,
				"z": -0.0157923652,
				"element": "C" 
			},
			{
				"x": 2.0311299378,
				"y": 1.235464355,
				"z": -1.3930881137,
				"element": "C" 
			},
			{
				"x": 3.600361508,
				"y": 1.2908578493,
				"z": 0.5624338673,
				"element": "C" 
			},
			{
				"x": 2.6384537901,
				"y": -0.8812509039,
				"z": -0.1197251874,
				"element": "C" 
			},
			{
				"x": 2.4028412104,
				"y": -1.4062339622,
				"z": -1.3442598261,
				"element": "O" 
			},
			{
				"x": 3.0557034831,
				"y": -1.568558865,
				"z": 0.7926200905,
				"element": "O" 
			},
			{
				"x": -0.7170417151,
				"y": 0.3653962073,
				"z": 3.1224284442,
				"element": "H" 
			},
			{
				"x": 0.4532335557,
				"y": 0.7126786584,
				"z": 4.4028460452,
				"element": "H" 
			},
			{
				"x": -0.0247632011,
				"y": 1.984097474,
				"z": 3.270681591,
				"element": "H" 
			},
			{
				"x": 2.2585243885,
				"y": 1.0416362551,
				"z": 2.7600934479,
				"element": "H" 
			},
			{
				"x": 1.5798400117,
				"y": -0.5530200574,
				"z": 2.5507129892,
				"element": "H" 
			},
			{
				"x": 0.925772152,
				"y": 1.9283551314,
				"z": 0.8940989697,
				"element": "H" 
			},
			{
				"x": 0.358877725,
				"y": -1.8341697462,
				"z": 1.0394142878,
				"element": "H" 
			},
			{
				"x": -1.6977814853,
				"y": -2.8843665651,
				"z": 0.2291769712,
				"element": "H" 
			},
			{
				"x": -3.9193900304,
				"y": -2.7105656504,
				"z": -0.8616096336,
				"element": "H" 
			},
			{
				"x": -6.2422890568,
				"y": -3.0376576151,
				"z": -0.9088392839,
				"element": "H" 
			},
			{
				"x": -5.4868011244,
				"y": -3.2907734413,
				"z": -2.5083142968,
				"element": "H" 
			},
			{
				"x": -7.2117539939,
				"y": -2.8456220737,
				"z": -2.3952959442,
				"element": "H" 
			},
			{
				"x": -5.3624122947,
				"y": 1.1304538023,
				"z": -2.1500763921,
				"element": "H" 
			},
			{
				"x": -3.2771100274,
				"y": 2.2077626559,
				"z": -1.3369556967,
				"element": "H" 
			},
			{
				"x": -1.0544602645,
				"y": 2.0138180727,
				"z": -0.2528545079,
				"element": "H" 
			},
			{
				"x": 1.8720034878,
				"y": 2.3135512915,
				"z": -1.2811159718,
				"element": "H" 
			},
			{
				"x": 1.1400563621,
				"y": 0.8035663092,
				"z": -1.8504227371,
				"element": "H" 
			},
			{
				"x": 2.8688196034,
				"y": 1.0880980719,
				"z": -2.0802168512,
				"element": "H" 
			},
			{
				"x": 3.389992919,
				"y": 2.3363097644,
				"z": 0.8118002758,
				"element": "H" 
			},
			{
				"x": 3.9620229432,
				"y": 0.7785852089,
				"z": 1.4545302816,
				"element": "H" 
			},
			{
				"x": 4.4056474507,
				"y": 1.2811443991,
				"z": -0.1797093355,
				"element": "H" 
			},
			{
				"x": 2.6193431918,
				"y": -2.351464498,
				"z": -1.2711207615,
				"element": "H" 
			}
		],
		 "valence_orbital": [ 
			{
				"type": "occ",
				"energy": -0.29283,
				"method": "rhf"
			},
			{
				"type": "occ",
				"energy": -0.27281,
				"method": "rhf"
			},
			{
				"type": "occ",
				"energy": -0.26585,
				"method": "rhf"
			},
			{
				"type": "occ",
				"energy": -0.22587,
				"method": "rhf"
			},
			{
				"type": "occ",
				"energy": -0.20295,
				"method": "rhf"
			},
			{
				"type": "unocc",
				"energy": -0.03226,
				"method": "rhf"
			},
			{
				"type": "unocc",
				"energy": -0.00368,
				"method": "rhf"
			},
			{
				"type": "unocc",
				"energy": 0.01097,
				"method": "rhf"
			},
			{
				"type": "unocc",
				"energy": 0.03738,
				"method": "rhf"
			},
			{
				"type": "unocc",
				"energy": 0.07748,
				"method": "rhf"
			}
		],
		"cosmo_sigma_profile": { 
			"-0.025": 0.0,
			"-0.024": 0.0,
			"-0.023": 0.0,
			"-0.022": 0.0,
			"-0.021": 0.0,
			"-0.02": 0.0,
			"-0.019": 0.00868115733416,
			"-0.018": 0.519497635788,
			"-0.017": 0.84339575569,
			"-0.016": 0.97667571207,
			"-0.015": 0.473033193685,
			"-0.014": 0.871180447318,
			"-0.013": 0.693076821155,
			"-0.012": 0.421633185505,
			"-0.011": 0.797244761937,
			"-0.01": 1.06971693468,
			"-0.009": 0.402272937471,
			"-0.008": 0.381376239214,
			"-0.007": 1.10761254105,
			"-0.006": 9.48989925134,
			"-0.005": 21.8112976014,
			"-0.004": 26.7734989678,
			"-0.003": 36.7582098147,
			"-0.002": 31.8148828921,
			"-0.001": 30.204339775,
			"0.0": 29.2326954582,
			"0.001": 32.5710964575,
			"0.002": 20.115101224,
			"0.003": 18.4040981585,
			"0.004": 23.7021751877,
			"0.005": 20.9918314064,
			"0.006": 7.09901700592,
			"0.007": 4.34180102601,
			"0.008": 5.69912539791,
			"0.009": 2.72167491124,
			"0.01": 3.09495767526,
			"0.011": 2.52638423676,
			"0.012": 4.00044401161,
			"0.013": 0.608689202814,
			"0.014": 0.0,
			"0.015": 0.0,
			"0.016": 0.0,
			"0.017": 0.0,
			"0.018": 0.0,
			"0.019": 0.0,
			"0.02": 0.0,
			"0.021": 0.0,
			"0.022": 0.0,
			"0.023": 0.0,
			"0.024": 0.0,
			"0.025": 0.0
		}
	}
}
