{
	 "smiles": "OC(=O)C1C2CC(=O)C1CC2Br", 
	 "Tm": 453.15, 
	 "num_atms": 21, 
	 "gaussian": { 
		 "optdone": 1, 
		 "sigma_profile": "yes", 
		 "theory": "DFT", 
		 "functional": "B3LYP", 
		 "basiset": "6-31G**", 
		 "properties": { 
			 "R2extent": 4811.6705, 
			 "electric_dipole_moment_norm": 3.84042489837, 
			 "electric_quadrupole_moment_norm": 4.91336472898, 
			 "total_energy": -3107.35574531, 
			 "HOMO_LUMO_gap": 0.21676, 
			 "cosmo_polarized_energy": -15.0, 
			 "cosmo_cavitation_energy": 25.76, 
			 "cosmo_dispersion_energy": -19.21, 
			 "cosmo_repulsion_energy": 1.55, 
			 "cosmo_total_nonelectrostatic_energy": 8.09, 
			 "SMD_solvation_energy": 4.45 
		},
		"coords": [
			{
				"x": -1.3305289261,
				"y": 0.9015590517,
				"z": -1.0850954577,
				"element": "O" 
			},
			{
				"x": -0.8429007012,
				"y": -0.2368595807,
				"z": -0.5396174039,
				"element": "C" 
			},
			{
				"x": -1.5032316115,
				"y": -0.9543460954,
				"z": 0.1798491966,
				"element": "O" 
			},
			{
				"x": 0.5917877083,
				"y": -0.4666660754,
				"z": -0.9678935847,
				"element": "C" 
			},
			{
				"x": 1.2774385555,
				"y": -1.7380254209,
				"z": -0.3926015369,
				"element": "C" 
			},
			{
				"x": 1.3950226588,
				"y": -1.4004564805,
				"z": 1.1091337608,
				"element": "C" 
			},
			{
				"x": 1.658229848,
				"y": 0.1117180873,
				"z": 1.0941087618,
				"element": "C" 
			},
			{
				"x": 1.8584406694,
				"y": 0.832761941,
				"z": 2.0439948871,
				"element": "O" 
			},
			{
				"x": 1.6424080955,
				"y": 0.5225322826,
				"z": -0.3845560224,
				"element": "C" 
			},
			{
				"x": 2.9571269902,
				"y": -0.0633194132,
				"z": -0.9841785068,
				"element": "C" 
			},
			{
				"x": 2.6458473439,
				"y": -1.5863266745,
				"z": -1.087509644,
				"element": "C" 
			},
			{
				"x": 4.0746992333,
				"y": -2.7374192785,
				"z": -0.3386192941,
				"element": "Br" 
			},
			{
				"x": -2.2453313304,
				"y": 0.98948618,
				"z": -0.7670837867,
				"element": "H" 
			},
			{
				"x": 0.6066951661,
				"y": -0.4374429278,
				"z": -2.0639717943,
				"element": "H" 
			},
			{
				"x": 0.7764824928,
				"y": -2.6828365181,
				"z": -0.604295253,
				"element": "H" 
			},
			{
				"x": 0.4534976876,
				"y": -1.6030517839,
				"z": 1.6268655677,
				"element": "H" 
			},
			{
				"x": 2.1960670803,
				"y": -1.9368755286,
				"z": 1.6234263537,
				"element": "H" 
			},
			{
				"x": 1.4903738045,
				"y": 1.5883140241,
				"z": -0.5506825608,
				"element": "H" 
			},
			{
				"x": 3.154540972,
				"y": 0.3607066843,
				"z": -1.9733021874,
				"element": "H" 
			},
			{
				"x": 3.8241188589,
				"y": 0.1458668928,
				"z": -0.3546662404,
				"element": "H" 
			},
			{
				"x": 2.5885154042,
				"y": -1.9151193662,
				"z": -2.1244052544,
				"element": "H" 
			}
		],
		 "valence_orbital": [ 
			{
				"type": "occ",
				"energy": -0.3318,
				"method": "rhf"
			},
			{
				"type": "occ",
				"energy": -0.29158,
				"method": "rhf"
			},
			{
				"type": "occ",
				"energy": -0.28118,
				"method": "rhf"
			},
			{
				"type": "occ",
				"energy": -0.27917,
				"method": "rhf"
			},
			{
				"type": "occ",
				"energy": -0.24552,
				"method": "rhf"
			},
			{
				"type": "unocc",
				"energy": -0.02876,
				"method": "rhf"
			},
			{
				"type": "unocc",
				"energy": -0.01119,
				"method": "rhf"
			},
			{
				"type": "unocc",
				"energy": -0.0046,
				"method": "rhf"
			},
			{
				"type": "unocc",
				"energy": 0.06263,
				"method": "rhf"
			},
			{
				"type": "unocc",
				"energy": 0.06865,
				"method": "rhf"
			}
		],
		"cosmo_sigma_profile": { 
			"-0.025": 0.0,
			"-0.024": 0.0,
			"-0.023": 0.0,
			"-0.022": 0.0,
			"-0.021": 0.0,
			"-0.02": 0.0,
			"-0.019": 0.223708768893,
			"-0.018": 0.91432504518,
			"-0.017": 1.00683540653,
			"-0.016": 0.643552542122,
			"-0.015": 0.838144239389,
			"-0.014": 0.510903356944,
			"-0.013": 0.404688917404,
			"-0.012": 1.45824179241,
			"-0.011": 0.487705663782,
			"-0.01": 0.676147097326,
			"-0.009": 1.59292070934,
			"-0.008": 6.01082093228,
			"-0.007": 7.60223068311,
			"-0.006": 12.1783336216,
			"-0.005": 16.1900110016,
			"-0.004": 14.5799643524,
			"-0.003": 15.8265225555,
			"-0.002": 15.6855835175,
			"-0.001": 11.5133601835,
			"0.0": 9.3376555072,
			"0.001": 7.94410633628,
			"0.002": 8.95904092023,
			"0.003": 8.53816775137,
			"0.004": 9.21935137663,
			"0.005": 10.8561215271,
			"0.006": 10.9083108772,
			"0.007": 3.71561237722,
			"0.008": 4.09372909193,
			"0.009": 4.77626714039,
			"0.01": 4.78085852905,
			"0.011": 8.56798687154,
			"0.012": 4.66228832968,
			"0.013": 0.905366269613,
			"0.014": 0.0,
			"0.015": 0.0,
			"0.016": 0.0,
			"0.017": 0.0,
			"0.018": 0.0,
			"0.019": 0.0,
			"0.02": 0.0,
			"0.021": 0.0,
			"0.022": 0.0,
			"0.023": 0.0,
			"0.024": 0.0,
			"0.025": 0.0
		}
	}
}
