{
	 "smiles": "ClC1=CC=C(C=C1)C(=O)NNC(=O)C1=CC=C(Cl)C=C1", 
	 "Tm": 533.15, 
	 "num_atms": 30, 
	 "gaussian": { 
		 "optdone": 1, 
		 "sigma_profile": "yes", 
		 "theory": "DFT", 
		 "functional": "B3LYP", 
		 "basiset": "6-31G**", 
		 "properties": { 
			 "R2extent": 10003.5988, 
			 "electric_dipole_moment_norm": 3.93997497708, 
			 "electric_quadrupole_moment_norm": 11.4113312278, 
			 "total_energy": -1719.84704087, 
			 "HOMO_LUMO_gap": 0.18864, 
			 "cosmo_polarized_energy": -19.94, 
			 "cosmo_cavitation_energy": 39.78, 
			 "cosmo_dispersion_energy": -28.02, 
			 "cosmo_repulsion_energy": 2.18, 
			 "cosmo_total_nonelectrostatic_energy": 13.94, 
			 "SMD_solvation_energy": 7.85 
		},
		"coords": [
			{
				"x": 0.4938875778,
				"y": 2.7418451578,
				"z": -6.146793002,
				"element": "Cl" 
			},
			{
				"x": 0.0657987437,
				"y": 1.6203589317,
				"z": -4.8694116568,
				"element": "C" 
			},
			{
				"x": 0.1503209844,
				"y": 2.034051845,
				"z": -3.5396998485,
				"element": "C" 
			},
			{
				"x": -0.1976427119,
				"y": 1.1406577246,
				"z": -2.5279648165,
				"element": "C" 
			},
			{
				"x": -0.6262752348,
				"y": -0.1581135782,
				"z": -2.8384440576,
				"element": "C" 
			},
			{
				"x": -0.6794880196,
				"y": -0.5578530523,
				"z": -4.1806514462,
				"element": "C" 
			},
			{
				"x": -0.3433862154,
				"y": 0.3267927417,
				"z": -5.2003922583,
				"element": "C" 
			},
			{
				"x": -1.0018752625,
				"y": -1.1778138075,
				"z": -1.805140141,
				"element": "C" 
			},
			{
				"x": -0.9464052053,
				"y": -2.3793423003,
				"z": -2.0123311568,
				"element": "O" 
			},
			{
				"x": -1.4059719755,
				"y": -0.6523848578,
				"z": -0.5864623201,
				"element": "N" 
			},
			{
				"x": -1.8906085339,
				"y": -1.4798428078,
				"z": 0.406119297,
				"element": "N" 
			},
			{
				"x": -1.3241427249,
				"y": -1.5926609302,
				"z": 1.6698013664,
				"element": "C" 
			},
			{
				"x": -2.025508974,
				"y": -1.9401824206,
				"z": 2.6087253432,
				"element": "O" 
			},
			{
				"x": 0.1388330038,
				"y": -1.3190615343,
				"z": 1.8183570704,
				"element": "C" 
			},
			{
				"x": 0.5724629691,
				"y": -0.7660871771,
				"z": 3.0304506457,
				"element": "C" 
			},
			{
				"x": 1.9254876701,
				"y": -0.5357098442,
				"z": 3.2625905163,
				"element": "C" 
			},
			{
				"x": 2.8494947859,
				"y": -0.8925519551,
				"z": 2.2790656283,
				"element": "C" 
			},
			{
				"x": 4.5591903282,
				"y": -0.6113946632,
				"z": 2.5630127652,
				"element": "Cl" 
			},
			{
				"x": 2.4428843386,
				"y": -1.4783821514,
				"z": 1.0797031754,
				"element": "C" 
			},
			{
				"x": 1.0839187641,
				"y": -1.6863150003,
				"z": 0.8501525142,
				"element": "C" 
			},
			{
				"x": 0.4929882001,
				"y": 3.034785102,
				"z": -3.302174885,
				"element": "H" 
			},
			{
				"x": -0.0903913996,
				"y": 1.4569799363,
				"z": -1.4947050939,
				"element": "H" 
			},
			{
				"x": -0.9861037043,
				"y": -1.5733934945,
				"z": -4.4069488263,
				"element": "H" 
			},
			{
				"x": -0.3926257483,
				"y": 0.0219822553,
				"z": -6.2397052631,
				"element": "H" 
			},
			{
				"x": -1.6819461336,
				"y": 0.3206902453,
				"z": -0.5401256409,
				"element": "H" 
			},
			{
				"x": -2.8754992217,
				"y": -1.721647004,
				"z": 0.3703363396,
				"element": "H" 
			},
			{
				"x": -0.1636347588,
				"y": -0.5242875904,
				"z": 3.7900006199,
				"element": "H" 
			},
			{
				"x": 2.2642025291,
				"y": -0.0956381516,
				"z": 4.1937870632,
				"element": "H" 
			},
			{
				"x": 3.1800520212,
				"y": -1.772545145,
				"z": 0.3410257907,
				"element": "H" 
			},
			{
				"x": 0.7647839079,
				"y": -2.1691364741,
				"z": -0.0673777227,
				"element": "H" 
			}
		],
		 "valence_orbital": [ 
			{
				"type": "occ",
				"energy": -0.28014,
				"method": "rhf"
			},
			{
				"type": "occ",
				"energy": -0.27179,
				"method": "rhf"
			},
			{
				"type": "occ",
				"energy": -0.26802,
				"method": "rhf"
			},
			{
				"type": "occ",
				"energy": -0.26507,
				"method": "rhf"
			},
			{
				"type": "occ",
				"energy": -0.251,
				"method": "rhf"
			},
			{
				"type": "unocc",
				"energy": -0.06236,
				"method": "rhf"
			},
			{
				"type": "unocc",
				"energy": -0.04868,
				"method": "rhf"
			},
			{
				"type": "unocc",
				"energy": -0.03508,
				"method": "rhf"
			},
			{
				"type": "unocc",
				"energy": -0.02112,
				"method": "rhf"
			},
			{
				"type": "unocc",
				"energy": 0.01411,
				"method": "rhf"
			}
		],
		"cosmo_sigma_profile": { 
			"-0.025": 0.0,
			"-0.024": 0.0,
			"-0.023": 0.0,
			"-0.022": 0.0,
			"-0.021": 0.0,
			"-0.02": 0.0,
			"-0.019": 0.0,
			"-0.018": 0.0,
			"-0.017": 0.0,
			"-0.016": 0.600699473117,
			"-0.015": 2.17349634433,
			"-0.014": 2.3483584467,
			"-0.013": 2.15742520229,
			"-0.012": 2.86726996982,
			"-0.011": 3.17320775686,
			"-0.01": 2.11456799604,
			"-0.009": 2.41736464024,
			"-0.008": 6.66643841355,
			"-0.007": 13.8574616668,
			"-0.006": 14.8132546843,
			"-0.005": 13.1694197213,
			"-0.004": 13.8042433906,
			"-0.003": 16.1466150331,
			"-0.002": 18.7112369281,
			"-0.001": 20.5759418266,
			"0.0": 25.0941862317,
			"0.001": 33.1209053684,
			"0.002": 38.6660367565,
			"0.003": 26.4452819303,
			"0.004": 23.6245533182,
			"0.005": 7.42293392904,
			"0.006": 2.45196762983,
			"0.007": 3.94207000088,
			"0.008": 2.50668976907,
			"0.009": 2.7730732933,
			"0.01": 2.7045975564,
			"0.011": 4.43957479066,
			"0.012": 8.71640559621,
			"0.013": 6.03791744955,
			"0.014": 0.824620826246,
			"0.015": 0.0,
			"0.016": 0.0,
			"0.017": 0.0,
			"0.018": 0.0,
			"0.019": 0.0,
			"0.02": 0.0,
			"0.021": 0.0,
			"0.022": 0.0,
			"0.023": 0.0,
			"0.024": 0.0,
			"0.025": 0.0
		}
	}
}
