{
	 "smiles": "FC1=CC=C(C=C1)C(Cl)C(=O)NC1CC1", 
	 "Tm": 409.15, 
	 "num_atms": 26, 
	 "gaussian": { 
		 "optdone": 1, 
		 "sigma_profile": "yes", 
		 "theory": "DFT", 
		 "functional": "B3LYP", 
		 "basiset": "6-31G**", 
		 "properties": { 
			 "R2extent": 4534.8248, 
			 "electric_dipole_moment_norm": 4.56751755443, 
			 "electric_quadrupole_moment_norm": 11.8262077514, 
			 "total_energy": -1115.76902507, 
			 "HOMO_LUMO_gap": 0.20104, 
			 "cosmo_polarized_energy": -13.84, 
			 "cosmo_cavitation_energy": 31.66, 
			 "cosmo_dispersion_energy": -22.27, 
			 "cosmo_repulsion_energy": 1.72, 
			 "cosmo_total_nonelectrostatic_energy": 11.1, 
			 "SMD_solvation_energy": 5.15 
		},
		"coords": [
			{
				"x": 2.320667173,
				"y": 1.0972127118,
				"z": 4.3104138114,
				"element": "F" 
			},
			{
				"x": 1.9476590221,
				"y": 0.7959793225,
				"z": 3.0505305106,
				"element": "C" 
			},
			{
				"x": 0.5945719774,
				"y": 0.684566251,
				"z": 2.7574227939,
				"element": "C" 
			},
			{
				"x": 0.2241803919,
				"y": 0.3692277375,
				"z": 1.4503876233,
				"element": "C" 
			},
			{
				"x": 1.18673512,
				"y": 0.1771991087,
				"z": 0.4501130164,
				"element": "C" 
			},
			{
				"x": 2.5465613646,
				"y": 0.2917665979,
				"z": 0.7826690556,
				"element": "C" 
			},
			{
				"x": 2.930342896,
				"y": 0.6030119306,
				"z": 2.0835571995,
				"element": "C" 
			},
			{
				"x": 0.7216164435,
				"y": -0.15784372,
				"z": -0.9407475445,
				"element": "C" 
			},
			{
				"x": 1.1397673217,
				"y": -1.9043866696,
				"z": -1.3945178602,
				"element": "Cl" 
			},
			{
				"x": 1.3234830155,
				"y": 0.7263619483,
				"z": -2.0466925749,
				"element": "C" 
			},
			{
				"x": 2.5178229994,
				"y": 0.9972226028,
				"z": -2.0596818862,
				"element": "O" 
			},
			{
				"x": 0.4998133542,
				"y": 1.2161348089,
				"z": -3.0247641927,
				"element": "N" 
			},
			{
				"x": -0.8981191271,
				"y": 1.0848142725,
				"z": -3.3775772914,
				"element": "C" 
			},
			{
				"x": -2.0584161846,
				"y": 1.1870680219,
				"z": -2.4195000016,
				"element": "C" 
			},
			{
				"x": -1.7669570177,
				"y": -0.1204668982,
				"z": -3.1345800737,
				"element": "C" 
			},
			{
				"x": -0.1413462477,
				"y": 0.8378601261,
				"z": 3.5388982998,
				"element": "H" 
			},
			{
				"x": -0.8315292245,
				"y": 0.2686217777,
				"z": 1.2112967126,
				"element": "H" 
			},
			{
				"x": 3.2926707007,
				"y": 0.150991255,
				"z": 0.01143221,
				"element": "H" 
			},
			{
				"x": 3.9753467622,
				"y": 0.6975024684,
				"z": 2.3579892392,
				"element": "H" 
			},
			{
				"x": -0.3634405389,
				"y": -0.1431663403,
				"z": -0.961199934,
				"element": "H" 
			},
			{
				"x": 1.0407607252,
				"y": 1.7724914111,
				"z": -3.6746137864,
				"element": "H" 
			},
			{
				"x": -1.0513185619,
				"y": 1.5726370687,
				"z": -4.3347406078,
				"element": "H" 
			},
			{
				"x": -2.9210106198,
				"y": 1.7717012116,
				"z": -2.7252617196,
				"element": "H" 
			},
			{
				"x": -1.8433227685,
				"y": 1.2520662747,
				"z": -1.3573799209,
				"element": "H" 
			},
			{
				"x": -2.4274725749,
				"y": -0.4282074425,
				"z": -3.9397396266,
				"element": "H" 
			},
			{
				"x": -1.364866402,
				"y": -0.950665837,
				"z": -2.564413452,
				"element": "H" 
			}
		],
		 "valence_orbital": [ 
			{
				"type": "occ",
				"energy": -0.3028,
				"method": "rhf"
			},
			{
				"type": "occ",
				"energy": -0.2665,
				"method": "rhf"
			},
			{
				"type": "occ",
				"energy": -0.25899,
				"method": "rhf"
			},
			{
				"type": "occ",
				"energy": -0.24666,
				"method": "rhf"
			},
			{
				"type": "occ",
				"energy": -0.24461,
				"method": "rhf"
			},
			{
				"type": "unocc",
				"energy": -0.04357,
				"method": "rhf"
			},
			{
				"type": "unocc",
				"energy": -0.01366,
				"method": "rhf"
			},
			{
				"type": "unocc",
				"energy": 0.01144,
				"method": "rhf"
			},
			{
				"type": "unocc",
				"energy": 0.05153,
				"method": "rhf"
			},
			{
				"type": "unocc",
				"energy": 0.05645,
				"method": "rhf"
			}
		],
		"cosmo_sigma_profile": { 
			"-0.025": 0.0,
			"-0.024": 0.0,
			"-0.023": 0.0,
			"-0.022": 0.0,
			"-0.021": 0.0,
			"-0.02": 0.0,
			"-0.019": 0.0,
			"-0.018": 0.0,
			"-0.017": 0.0,
			"-0.016": 0.0,
			"-0.015": 0.243079924987,
			"-0.014": 1.21250846951,
			"-0.013": 1.35814224575,
			"-0.012": 1.02673962699,
			"-0.011": 0.665948939176,
			"-0.01": 2.95235930766,
			"-0.009": 2.42022684509,
			"-0.008": 5.52975948099,
			"-0.007": 10.3958417581,
			"-0.006": 10.7098766437,
			"-0.005": 17.2164360085,
			"-0.004": 12.9333176666,
			"-0.003": 13.5817117203,
			"-0.002": 12.84514882,
			"-0.001": 15.2092976724,
			"0.0": 18.8327211898,
			"0.001": 20.6457833076,
			"0.002": 21.7229864863,
			"0.003": 24.9559005662,
			"0.004": 25.5134477199,
			"0.005": 12.0985505131,
			"0.006": 6.57737933574,
			"0.007": 3.13954143345,
			"0.008": 1.46746158903,
			"0.009": 1.13140779623,
			"0.01": 1.69932460968,
			"0.011": 1.90204870969,
			"0.012": 2.84755742387,
			"0.013": 3.30423200486,
			"0.014": 0.612525868664,
			"0.015": 0.0,
			"0.016": 0.0,
			"0.017": 0.0,
			"0.018": 0.0,
			"0.019": 0.0,
			"0.02": 0.0,
			"0.021": 0.0,
			"0.022": 0.0,
			"0.023": 0.0,
			"0.024": 0.0,
			"0.025": 0.0
		}
	}
}
