{
	 "smiles": "COC1=CC(OC)=NC(=N1)S(C)(=O)=O", 
	 "Tm": 404.15, 
	 "num_atms": 24, 
	 "gaussian": { 
		 "optdone": 1, 
		 "sigma_profile": "yes", 
		 "theory": "DFT", 
		 "functional": "B3LYP", 
		 "basiset": "6-31G**", 
		 "properties": { 
			 "R2extent": 3370.8508, 
			 "electric_dipole_moment_norm": 4.83408767918, 
			 "electric_quadrupole_moment_norm": 20.8993045116, 
			 "total_energy": -1081.27856725, 
			 "HOMO_LUMO_gap": 0.21116, 
			 "cosmo_polarized_energy": -17.61, 
			 "cosmo_cavitation_energy": 30.33, 
			 "cosmo_dispersion_energy": -21.96, 
			 "cosmo_repulsion_energy": 1.71, 
			 "cosmo_total_nonelectrostatic_energy": 10.08, 
			 "SMD_solvation_energy": 5.5 
		},
		"coords": [
			{
				"x": 2.8024716264,
				"y": 0.5582880277,
				"z": 2.2639602651,
				"element": "C" 
			},
			{
				"x": 1.8540770916,
				"y": 1.5498533449,
				"z": 1.8283618635,
				"element": "O" 
			},
			{
				"x": 0.948138959,
				"y": 1.1803883652,
				"z": 0.9202004111,
				"element": "C" 
			},
			{
				"x": 0.0209959078,
				"y": 2.1338775378,
				"z": 0.4882161634,
				"element": "C" 
			},
			{
				"x": -0.9041562872,
				"y": 1.7001871558,
				"z": -0.4604660438,
				"element": "C" 
			},
			{
				"x": -1.8100873086,
				"y": 2.581727334,
				"z": -0.9014658838,
				"element": "O" 
			},
			{
				"x": -2.7618781237,
				"y": 2.1362502512,
				"z": -1.8775022649,
				"element": "C" 
			},
			{
				"x": -0.9153626429,
				"y": 0.441775527,
				"z": -0.940175586,
				"element": "N" 
			},
			{
				"x": 0.0216167212,
				"y": -0.349567147,
				"z": -0.4391201038,
				"element": "C" 
			},
			{
				"x": 0.9545326201,
				"y": -0.0785967095,
				"z": 0.4553104047,
				"element": "N" 
			},
			{
				"x": 0.0697713082,
				"y": -2.0800330501,
				"z": -1.0445444091,
				"element": "S" 
			},
			{
				"x": -1.2893444752,
				"y": -2.1546322749,
				"z": -2.2291942257,
				"element": "C" 
			},
			{
				"x": 1.3276793414,
				"y": -2.258180896,
				"z": -1.7823586084,
				"element": "O" 
			},
			{
				"x": -0.2630928249,
				"y": -2.956414394,
				"z": 0.086653935,
				"element": "O" 
			},
			{
				"x": 3.4320654812,
				"y": 1.071104894,
				"z": 2.9908033687,
				"element": "H" 
			},
			{
				"x": 3.3996277481,
				"y": 0.1971300917,
				"z": 1.4235875778,
				"element": "H" 
			},
			{
				"x": 2.2922660657,
				"y": -0.2897570319,
				"z": 2.7263023701,
				"element": "H" 
			},
			{
				"x": 0.0208657953,
				"y": 3.1470545018,
				"z": 0.866622182,
				"element": "H" 
			},
			{
				"x": -2.2605422693,
				"y": 1.8039326019,
				"z": -2.7903135233,
				"element": "H" 
			},
			{
				"x": -3.3702077432,
				"y": 1.3167551979,
				"z": -1.4858835889,
				"element": "H" 
			},
			{
				"x": -3.3860832027,
				"y": 3.0056534355,
				"z": -2.0837921799,
				"element": "H" 
			},
			{
				"x": -1.275332248,
				"y": -3.1812210317,
				"z": -2.6007078119,
				"element": "H" 
			},
			{
				"x": -1.109357834,
				"y": -1.4479886683,
				"z": -3.038209841,
				"element": "H" 
			},
			{
				"x": -2.2291637062,
				"y": -1.9393870631,
				"z": -1.7225844709,
				"element": "H" 
			}
		],
		 "valence_orbital": [ 
			{
				"type": "occ",
				"energy": -0.29175,
				"method": "rhf"
			},
			{
				"type": "occ",
				"energy": -0.29135,
				"method": "rhf"
			},
			{
				"type": "occ",
				"energy": -0.28931,
				"method": "rhf"
			},
			{
				"type": "occ",
				"energy": -0.28071,
				"method": "rhf"
			},
			{
				"type": "occ",
				"energy": -0.26086,
				"method": "rhf"
			},
			{
				"type": "unocc",
				"energy": -0.0497,
				"method": "rhf"
			},
			{
				"type": "unocc",
				"energy": -0.0251,
				"method": "rhf"
			},
			{
				"type": "unocc",
				"energy": 0.07036,
				"method": "rhf"
			},
			{
				"type": "unocc",
				"energy": 0.07832,
				"method": "rhf"
			},
			{
				"type": "unocc",
				"energy": 0.08477,
				"method": "rhf"
			}
		],
		"cosmo_sigma_profile": { 
			"-0.025": 0.0,
			"-0.024": 0.0,
			"-0.023": 0.0,
			"-0.022": 0.0,
			"-0.021": 0.0,
			"-0.02": 0.0,
			"-0.019": 0.0,
			"-0.018": 0.0,
			"-0.017": 0.0,
			"-0.016": 0.0,
			"-0.015": 0.0,
			"-0.014": 0.0,
			"-0.013": 0.0,
			"-0.012": 0.0,
			"-0.011": 0.0,
			"-0.01": 0.290931012593,
			"-0.009": 2.78018923765,
			"-0.008": 6.46327667713,
			"-0.007": 8.61016349723,
			"-0.006": 16.7833387111,
			"-0.005": 20.7013469533,
			"-0.004": 28.3359828954,
			"-0.003": 24.2952587244,
			"-0.002": 17.981287966,
			"-0.001": 13.7093589946,
			"0.0": 14.7167334531,
			"0.001": 8.28263128263,
			"0.002": 9.02323693321,
			"0.003": 6.48551863234,
			"0.004": 5.86448408712,
			"0.005": 4.95200415779,
			"0.006": 4.97927446699,
			"0.007": 6.67064126589,
			"0.008": 6.80059203677,
			"0.009": 6.97126124071,
			"0.01": 6.06996085794,
			"0.011": 13.7863872338,
			"0.012": 6.82755574926,
			"0.013": 0.109439357193,
			"0.014": 0.0,
			"0.015": 0.0,
			"0.016": 0.0,
			"0.017": 0.0,
			"0.018": 0.0,
			"0.019": 0.0,
			"0.02": 0.0,
			"0.021": 0.0,
			"0.022": 0.0,
			"0.023": 0.0,
			"0.024": 0.0,
			"0.025": 0.0
		}
	}
}
