{
	 "smiles": "OC(=O)C1=CC=CC2=C1C1=C(C2)C=CC=C1", 
	 "Tm": 466.15, 
	 "num_atms": 26, 
	 "gaussian": { 
		 "optdone": 1, 
		 "sigma_profile": "yes", 
		 "theory": "DFT", 
		 "functional": "B3LYP", 
		 "basiset": "6-31G**", 
		 "properties": { 
			 "R2extent": 3688.4779, 
			 "electric_dipole_moment_norm": 5.36177179112, 
			 "electric_quadrupole_moment_norm": 11.6109241071, 
			 "total_energy": -689.987408896, 
			 "HOMO_LUMO_gap": 0.17351, 
			 "cosmo_polarized_energy": -12.9, 
			 "cosmo_cavitation_energy": 29.38, 
			 "cosmo_dispersion_energy": -21.83, 
			 "cosmo_repulsion_energy": 1.66, 
			 "cosmo_total_nonelectrostatic_energy": 9.21, 
			 "SMD_solvation_energy": 5.32 
		},
		"coords": [
			{
				"x": 2.2410492717,
				"y": 1.2856710719,
				"z": -0.8561130348,
				"element": "O" 
			},
			{
				"x": 0.9622823924,
				"y": 1.6396141356,
				"z": -1.1639261746,
				"element": "C" 
			},
			{
				"x": 0.7621540033,
				"y": 2.5868830155,
				"z": -1.886045575,
				"element": "O" 
			},
			{
				"x": -0.1313732892,
				"y": 0.8523964428,
				"z": -0.5028194296,
				"element": "C" 
			},
			{
				"x": -1.2407824992,
				"y": 1.6079863442,
				"z": -0.0903799016,
				"element": "C" 
			},
			{
				"x": -2.2906751453,
				"y": 1.032795881,
				"z": 0.6208080942,
				"element": "C" 
			},
			{
				"x": -2.2594030343,
				"y": -0.3298876471,
				"z": 0.9309534752,
				"element": "C" 
			},
			{
				"x": -1.1889682365,
				"y": -1.0994077333,
				"z": 0.4941443653,
				"element": "C" 
			},
			{
				"x": -0.1205082206,
				"y": -0.5354160091,
				"z": -0.2431327976,
				"element": "C" 
			},
			{
				"x": 0.7988472548,
				"y": -1.6366144248,
				"z": -0.6241824121,
				"element": "C" 
			},
			{
				"x": 0.309739228,
				"y": -2.8368229199,
				"z": -0.0581563167,
				"element": "C" 
			},
			{
				"x": -0.9734372931,
				"y": -2.5811838717,
				"z": 0.6935990413,
				"element": "C" 
			},
			{
				"x": 0.9677962823,
				"y": -4.0447211732,
				"z": -0.2566733077,
				"element": "C" 
			},
			{
				"x": 2.1235684804,
				"y": -4.0700563507,
				"z": -1.0427285086,
				"element": "C" 
			},
			{
				"x": 2.5970529334,
				"y": -2.8947789336,
				"z": -1.6321303655,
				"element": "C" 
			},
			{
				"x": 1.9431203656,
				"y": -1.6764058757,
				"z": -1.4348119814,
				"element": "C" 
			},
			{
				"x": 2.2404138849,
				"y": 0.5670969268,
				"z": -0.2063745004,
				"element": "H" 
			},
			{
				"x": -1.2499504951,
				"y": 2.6656793837,
				"z": -0.3306228753,
				"element": "H" 
			},
			{
				"x": -3.1276584468,
				"y": 1.6465833149,
				"z": 0.9391603065,
				"element": "H" 
			},
			{
				"x": -3.0680910466,
				"y": -0.7841228291,
				"z": 1.4975354296,
				"element": "H" 
			},
			{
				"x": -1.8048613674,
				"y": -3.1771708708,
				"z": 0.2949127718,
				"element": "H" 
			},
			{
				"x": -0.8905284881,
				"y": -2.8372707737,
				"z": 1.7586641952,
				"element": "H" 
			},
			{
				"x": 0.5834999027,
				"y": -4.960765343,
				"z": 0.1844762139,
				"element": "H" 
			},
			{
				"x": 2.6465325553,
				"y": -5.0075635373,
				"z": -1.2072086249,
				"element": "H" 
			},
			{
				"x": 3.4826670578,
				"y": -2.9256391325,
				"z": -2.2599947026,
				"element": "H" 
			},
			{
				"x": 2.3236139497,
				"y": -0.7872790909,
				"z": -1.9229533847,
				"element": "H" 
			}
		],
		 "valence_orbital": [ 
			{
				"type": "occ",
				"energy": -0.29532,
				"method": "rhf"
			},
			{
				"type": "occ",
				"energy": -0.27613,
				"method": "rhf"
			},
			{
				"type": "occ",
				"energy": -0.2602,
				"method": "rhf"
			},
			{
				"type": "occ",
				"energy": -0.25188,
				"method": "rhf"
			},
			{
				"type": "occ",
				"energy": -0.23061,
				"method": "rhf"
			},
			{
				"type": "unocc",
				"energy": -0.0571,
				"method": "rhf"
			},
			{
				"type": "unocc",
				"energy": -0.03051,
				"method": "rhf"
			},
			{
				"type": "unocc",
				"energy": -0.00999,
				"method": "rhf"
			},
			{
				"type": "unocc",
				"energy": 0.01993,
				"method": "rhf"
			},
			{
				"type": "unocc",
				"energy": 0.04282,
				"method": "rhf"
			}
		],
		"cosmo_sigma_profile": { 
			"-0.025": 0.0,
			"-0.024": 0.0,
			"-0.023": 0.0,
			"-0.022": 0.0,
			"-0.021": 0.0,
			"-0.02": 0.0,
			"-0.019": 0.0,
			"-0.018": 0.0,
			"-0.017": 0.163559150136,
			"-0.016": 0.609426567787,
			"-0.015": 0.960291319896,
			"-0.014": 0.288092085877,
			"-0.013": 0.722304639645,
			"-0.012": 1.05945502367,
			"-0.011": 0.931584958024,
			"-0.01": 0.848702779729,
			"-0.009": 0.903254422138,
			"-0.008": 0.755992992806,
			"-0.007": 2.23205388909,
			"-0.006": 14.0169061035,
			"-0.005": 20.1971915388,
			"-0.004": 24.5375196215,
			"-0.003": 21.047934277,
			"-0.002": 16.9098732997,
			"-0.001": 11.9747168921,
			"0.0": 13.8923608935,
			"0.001": 13.7816951624,
			"0.002": 15.9745132856,
			"0.003": 18.1732885375,
			"0.004": 17.5688191553,
			"0.005": 10.4232489957,
			"0.006": 3.86308197606,
			"0.007": 2.18010110095,
			"0.008": 2.5898168763,
			"0.009": 3.47047429431,
			"0.01": 4.78532505425,
			"0.011": 4.94001198022,
			"0.012": 4.72150829937,
			"0.013": 1.45942755172,
			"0.014": 0.0182675771731,
			"0.015": 0.0,
			"0.016": 0.0,
			"0.017": 0.0,
			"0.018": 0.0,
			"0.019": 0.0,
			"0.02": 0.0,
			"0.021": 0.0,
			"0.022": 0.0,
			"0.023": 0.0,
			"0.024": 0.0,
			"0.025": 0.0
		}
	}
}
