{
	 "smiles": "NCC1=CC(=CC=C1)C1=CC=CC=C1", 
	 "Tm": 302.15, 
	 "num_atms": 27, 
	 "gaussian": { 
		 "optdone": 1, 
		 "sigma_profile": "yes", 
		 "theory": "DFT", 
		 "functional": "B3LYP", 
		 "basiset": "6-31G**", 
		 "properties": { 
			 "R2extent": 3806.5005, 
			 "electric_dipole_moment_norm": 1.57747482706, 
			 "electric_quadrupole_moment_norm": 8.00780755388, 
			 "total_energy": -557.97505515, 
			 "HOMO_LUMO_gap": 0.19572, 
			 "cosmo_polarized_energy": -8.49, 
			 "cosmo_cavitation_energy": 30.19, 
			 "cosmo_dispersion_energy": -22.1, 
			 "cosmo_repulsion_energy": 1.76, 
			 "cosmo_total_nonelectrostatic_energy": 9.84, 
			 "SMD_solvation_energy": 4.02 
		},
		"coords": [
			{
				"x": 1.3388765937,
				"y": 2.9326102853,
				"z": 0.0447820528,
				"element": "N" 
			},
			{
				"x": 1.9786685,
				"y": 1.9620433156,
				"z": 0.9371372267,
				"element": "C" 
			},
			{
				"x": 1.3081729443,
				"y": 0.6007213818,
				"z": 0.8741362064,
				"element": "C" 
			},
			{
				"x": 0.7219968911,
				"y": 0.1458263291,
				"z": -0.311140774,
				"element": "C" 
			},
			{
				"x": 0.1212626475,
				"y": -1.1208994933,
				"z": -0.3942138133,
				"element": "C" 
			},
			{
				"x": 0.1216213122,
				"y": -1.9376586407,
				"z": 0.7493535292,
				"element": "C" 
			},
			{
				"x": 0.6996875526,
				"y": -1.4918845026,
				"z": 1.9362646201,
				"element": "C" 
			},
			{
				"x": 1.2862752107,
				"y": -0.2277886554,
				"z": 2.0022311557,
				"element": "C" 
			},
			{
				"x": -0.4994068023,
				"y": -1.5851279233,
				"z": -1.6624662296,
				"element": "C" 
			},
			{
				"x": 0.0761879059,
				"y": -1.2724063562,
				"z": -2.9060234542,
				"element": "C" 
			},
			{
				"x": -0.5054481857,
				"y": -1.7083138234,
				"z": -4.0957263847,
				"element": "C" 
			},
			{
				"x": -1.6761527382,
				"y": -2.4687484587,
				"z": -4.0699399471,
				"element": "C" 
			},
			{
				"x": -2.2601283801,
				"y": -2.7874748751,
				"z": -2.8425204979,
				"element": "C" 
			},
			{
				"x": -1.6787177372,
				"y": -2.3498544102,
				"z": -1.6532091125,
				"element": "C" 
			},
			{
				"x": 0.4010722651,
				"y": 3.1431680616,
				"z": 0.3781917134,
				"element": "H" 
			},
			{
				"x": 1.8580585924,
				"y": 3.8062664229,
				"z": 0.0516227191,
				"element": "H" 
			},
			{
				"x": 2.0253185542,
				"y": 2.2788622918,
				"z": 1.9937590135,
				"element": "H" 
			},
			{
				"x": 3.0222112571,
				"y": 1.8602463782,
				"z": 0.6071856285,
				"element": "H" 
			},
			{
				"x": 0.7111773816,
				"y": 0.813206857,
				"z": -1.1665471986,
				"element": "H" 
			},
			{
				"x": -0.3133172351,
				"y": -2.9314792591,
				"z": 0.7004086212,
				"element": "H" 
			},
			{
				"x": 0.6940016084,
				"y": -2.1329452858,
				"z": 2.813572337,
				"element": "H" 
			},
			{
				"x": 1.7274964324,
				"y": 0.1184348821,
				"z": 2.9341097903,
				"element": "H" 
			},
			{
				"x": 0.9995085602,
				"y": -0.7017491571,
				"z": -2.9365327194,
				"element": "H" 
			},
			{
				"x": -0.0381119604,
				"y": -1.460217307,
				"z": -5.0447175368,
				"element": "H" 
			},
			{
				"x": -2.1289842334,
				"y": -2.8089494258,
				"z": -4.996810455,
				"element": "H" 
			},
			{
				"x": -3.1762057409,
				"y": -3.3708907781,
				"z": -2.8103243114,
				"element": "H" 
			},
			{
				"x": -2.1564211958,
				"y": -2.5808978534,
				"z": -0.7055821797,
				"element": "H" 
			}
		],
		 "valence_orbital": [ 
			{
				"type": "occ",
				"energy": -0.26677,
				"method": "rhf"
			},
			{
				"type": "occ",
				"energy": -0.24528,
				"method": "rhf"
			},
			{
				"type": "occ",
				"energy": -0.24475,
				"method": "rhf"
			},
			{
				"type": "occ",
				"energy": -0.2314,
				"method": "rhf"
			},
			{
				"type": "occ",
				"energy": -0.21723,
				"method": "rhf"
			},
			{
				"type": "unocc",
				"energy": -0.02151,
				"method": "rhf"
			},
			{
				"type": "unocc",
				"energy": 0.00136,
				"method": "rhf"
			},
			{
				"type": "unocc",
				"energy": 0.00581,
				"method": "rhf"
			},
			{
				"type": "unocc",
				"energy": 0.03446,
				"method": "rhf"
			},
			{
				"type": "unocc",
				"energy": 0.08753,
				"method": "rhf"
			}
		],
		"cosmo_sigma_profile": { 
			"-0.025": 0.0,
			"-0.024": 0.0,
			"-0.023": 0.0,
			"-0.022": 0.0,
			"-0.021": 0.0,
			"-0.02": 0.0,
			"-0.019": 0.0,
			"-0.018": 0.0,
			"-0.017": 0.0,
			"-0.016": 0.0,
			"-0.015": 0.0,
			"-0.014": 0.0,
			"-0.013": 0.0,
			"-0.012": 0.0,
			"-0.011": 0.0451088372445,
			"-0.01": 1.2862354341,
			"-0.009": 2.97666718241,
			"-0.008": 2.70069184015,
			"-0.007": 2.38030373501,
			"-0.006": 6.25847464093,
			"-0.005": 19.891645208,
			"-0.004": 23.0977754286,
			"-0.003": 25.5245613913,
			"-0.002": 20.4472673861,
			"-0.001": 17.3409809664,
			"0.0": 13.1829454403,
			"0.001": 12.752112615,
			"0.002": 13.9552960327,
			"0.003": 18.550241389,
			"0.004": 16.9844903277,
			"0.005": 17.6631107391,
			"0.006": 16.2693129369,
			"0.007": 1.94250595398,
			"0.008": 1.00059217552,
			"0.009": 0.862893254445,
			"0.01": 0.586740677929,
			"0.011": 0.983404820609,
			"0.012": 0.449458578642,
			"0.013": 0.490065906682,
			"0.014": 0.791328663293,
			"0.015": 0.43081371927,
			"0.016": 0.565421649543,
			"0.017": 0.362542286094,
			"0.018": 0.0,
			"0.019": 0.0,
			"0.02": 0.0,
			"0.021": 0.0,
			"0.022": 0.0,
			"0.023": 0.0,
			"0.024": 0.0,
			"0.025": 0.0
		}
	}
}
