{
	 "smiles": "OC(=O)C1=CC2=CC=CC=C2C=C1", 
	 "Tm": 458.15, 
	 "num_atms": 21, 
	 "gaussian": { 
		 "optdone": 1, 
		 "sigma_profile": "yes", 
		 "theory": "DFT", 
		 "functional": "B3LYP", 
		 "basiset": "6-31G**", 
		 "properties": { 
			 "R2extent": 3148.3121, 
			 "electric_dipole_moment_norm": 5.19939754972, 
			 "electric_quadrupole_moment_norm": 25.1566596992, 
			 "total_energy": -574.460105039, 
			 "HOMO_LUMO_gap": 0.16797, 
			 "cosmo_polarized_energy": -14.29, 
			 "cosmo_cavitation_energy": 25.39, 
			 "cosmo_dispersion_energy": -18.93, 
			 "cosmo_repulsion_energy": 1.46, 
			 "cosmo_total_nonelectrostatic_energy": 7.92, 
			 "SMD_solvation_energy": 5.21 
		},
		"coords": [
			{
				"x": -1.7062657113,
				"y": -0.4941557627,
				"z": -4.5071787683,
				"element": "O" 
			},
			{
				"x": -0.4907961525,
				"y": -0.9167217865,
				"z": -4.0640885187,
				"element": "C" 
			},
			{
				"x": 0.2932600617,
				"y": -1.4160878953,
				"z": -4.8367455935,
				"element": "O" 
			},
			{
				"x": -0.199023193,
				"y": -0.7270713198,
				"z": -2.6065251013,
				"element": "C" 
			},
			{
				"x": -0.8521083099,
				"y": 0.2086605827,
				"z": -1.8250550969,
				"element": "C" 
			},
			{
				"x": -0.5291021122,
				"y": 0.3754952332,
				"z": -0.4533928062,
				"element": "C" 
			},
			{
				"x": -1.1853166211,
				"y": 1.3328004453,
				"z": 0.366881471,
				"element": "C" 
			},
			{
				"x": -0.8531136534,
				"y": 1.4641572244,
				"z": 1.6961987482,
				"element": "C" 
			},
			{
				"x": 0.1535495348,
				"y": 0.6453344079,
				"z": 2.2649982846,
				"element": "C" 
			},
			{
				"x": 0.8110299228,
				"y": -0.2881762481,
				"z": 1.4948138741,
				"element": "C" 
			},
			{
				"x": 0.492875031,
				"y": -0.4491372258,
				"z": 0.1204146626,
				"element": "C" 
			},
			{
				"x": 1.1588564545,
				"y": -1.3927811274,
				"z": -0.7104953573,
				"element": "C" 
			},
			{
				"x": 0.83281035,
				"y": -1.5230739572,
				"z": -2.0374779258,
				"element": "C" 
			},
			{
				"x": -2.277049417,
				"y": -0.2856227011,
				"z": -3.7547783757,
				"element": "H" 
			},
			{
				"x": -1.6035788786,
				"y": 0.8704116552,
				"z": -2.2515943988,
				"element": "H" 
			},
			{
				"x": -1.9568062413,
				"y": 1.95991357,
				"z": -0.0726329505,
				"element": "H" 
			},
			{
				"x": -1.361896998,
				"y": 2.1972266392,
				"z": 2.3150164728,
				"element": "H" 
			},
			{
				"x": 0.4064773275,
				"y": 0.759338786,
				"z": 3.3149969903,
				"element": "H" 
			},
			{
				"x": 1.5855946503,
				"y": -0.9143889083,
				"z": 1.9294252587,
				"element": "H" 
			},
			{
				"x": 1.9404781145,
				"y": -2.0106416909,
				"z": -0.2764818171,
				"element": "H" 
			},
			{
				"x": 1.3455258413,
				"y": -2.2288799209,
				"z": -2.6813990519,
				"element": "H" 
			}
		],
		 "valence_orbital": [ 
			{
				"type": "occ",
				"energy": -0.31379,
				"method": "rhf"
			},
			{
				"type": "occ",
				"energy": -0.3015,
				"method": "rhf"
			},
			{
				"type": "occ",
				"energy": -0.274,
				"method": "rhf"
			},
			{
				"type": "occ",
				"energy": -0.25754,
				"method": "rhf"
			},
			{
				"type": "occ",
				"energy": -0.23367,
				"method": "rhf"
			},
			{
				"type": "unocc",
				"energy": -0.0657,
				"method": "rhf"
			},
			{
				"type": "unocc",
				"energy": -0.03671,
				"method": "rhf"
			},
			{
				"type": "unocc",
				"energy": 0.00832,
				"method": "rhf"
			},
			{
				"type": "unocc",
				"energy": 0.03572,
				"method": "rhf"
			},
			{
				"type": "unocc",
				"energy": 0.06282,
				"method": "rhf"
			}
		],
		"cosmo_sigma_profile": { 
			"-0.025": 0.0,
			"-0.024": 0.0,
			"-0.023": 0.0,
			"-0.022": 0.0,
			"-0.021": 0.0,
			"-0.02": 0.0,
			"-0.019": 0.0726588106331,
			"-0.018": 0.829846787406,
			"-0.017": 0.834589557014,
			"-0.016": 1.10703193484,
			"-0.015": 1.13379799289,
			"-0.014": 1.13592302083,
			"-0.013": 0.458844160796,
			"-0.012": 1.13663417236,
			"-0.011": 1.2600074466,
			"-0.01": 1.48283879927,
			"-0.009": 1.38461529987,
			"-0.008": 2.08051437641,
			"-0.007": 5.42343790893,
			"-0.006": 14.5411826615,
			"-0.005": 13.0652958819,
			"-0.004": 14.1724906744,
			"-0.003": 11.7630856383,
			"-0.002": 10.6035522445,
			"-0.001": 10.2270691813,
			"0.0": 10.614102023,
			"0.001": 11.4798871622,
			"0.002": 20.1645075206,
			"0.003": 23.2952716301,
			"0.004": 13.8041791582,
			"0.005": 4.09855565118,
			"0.006": 2.73695305613,
			"0.007": 2.9333250394,
			"0.008": 2.53310969084,
			"0.009": 3.04064071816,
			"0.01": 4.47193001606,
			"0.011": 5.4946889099,
			"0.012": 5.02302614179,
			"0.013": 1.64601873959,
			"0.014": 0.0630209602308,
			"0.015": 0.0,
			"0.016": 0.0,
			"0.017": 0.0,
			"0.018": 0.0,
			"0.019": 0.0,
			"0.02": 0.0,
			"0.021": 0.0,
			"0.022": 0.0,
			"0.023": 0.0,
			"0.024": 0.0,
			"0.025": 0.0
		}
	}
}
