{
	 "smiles": "NC(=O)CNS(=O)(=O)C1=CC(C(O)=O)=C(F)C=C1", 
	 "Tm": 475.15, 
	 "num_atms": 27, 
	 "gaussian": { 
		 "optdone": 1, 
		 "sigma_profile": "yes", 
		 "theory": "DFT", 
		 "functional": "B3LYP", 
		 "basiset": "6-31G**", 
		 "properties": { 
			 "R2extent": 6227.9845, 
			 "electric_dipole_moment_norm": 2.88147278488, 
			 "electric_quadrupole_moment_norm": 30.9144092514, 
			 "total_energy": -1331.96935143, 
			 "HOMO_LUMO_gap": 0.17623, 
			 "cosmo_polarized_energy": -29.78, 
			 "cosmo_cavitation_energy": 34.5, 
			 "cosmo_dispersion_energy": -24.66, 
			 "cosmo_repulsion_energy": 1.87, 
			 "cosmo_total_nonelectrostatic_energy": 11.71, 
			 "SMD_solvation_energy": 7.32 
		},
		"coords": [
			{
				"x": -3.0608346382,
				"y": 2.2026591,
				"z": 1.9048823953,
				"element": "N" 
			},
			{
				"x": -1.8251559556,
				"y": 2.7510791065,
				"z": 2.0540185568,
				"element": "C" 
			},
			{
				"x": -1.6214909964,
				"y": 3.9125098937,
				"z": 2.3755869859,
				"element": "O" 
			},
			{
				"x": -0.6290994167,
				"y": 1.810035729,
				"z": 1.7986299048,
				"element": "C" 
			},
			{
				"x": -0.7087980108,
				"y": 0.4569528235,
				"z": 2.3627858316,
				"element": "N" 
			},
			{
				"x": -1.3623729673,
				"y": -0.8197005652,
				"z": 1.4994125282,
				"element": "S" 
			},
			{
				"x": -1.6884370238,
				"y": -1.8317062553,
				"z": 2.5042986373,
				"element": "O" 
			},
			{
				"x": -2.3853555844,
				"y": -0.3384655856,
				"z": 0.5501215702,
				"element": "O" 
			},
			{
				"x": 0.0161058734,
				"y": -1.3721835169,
				"z": 0.4969047375,
				"element": "C" 
			},
			{
				"x": -0.1534038604,
				"y": -1.4867117735,
				"z": -0.8805240637,
				"element": "C" 
			},
			{
				"x": 0.8837362796,
				"y": -1.9821611506,
				"z": -1.6833569206,
				"element": "C" 
			},
			{
				"x": 0.7053483321,
				"y": -2.1781457318,
				"z": -3.163960871,
				"element": "C" 
			},
			{
				"x": -0.0854597725,
				"y": -1.2637042716,
				"z": -3.7853236789,
				"element": "O" 
			},
			{
				"x": 1.1924455177,
				"y": -3.0898017791,
				"z": -3.7809364549,
				"element": "O" 
			},
			{
				"x": 2.0760975412,
				"y": -2.3590312105,
				"z": -1.0485509625,
				"element": "C" 
			},
			{
				"x": 3.0976659915,
				"y": -2.8185614142,
				"z": -1.7712774946,
				"element": "F" 
			},
			{
				"x": 2.2523750873,
				"y": -2.2407643149,
				"z": 0.3293381584,
				"element": "C" 
			},
			{
				"x": 1.2134005861,
				"y": -1.7518709883,
				"z": 1.1119513171,
				"element": "C" 
			},
			{
				"x": -3.1860472226,
				"y": 1.3176992222,
				"z": 1.4262948736,
				"element": "H" 
			},
			{
				"x": -3.8465030155,
				"y": 2.8316295173,
				"z": 1.9847503526,
				"element": "H" 
			},
			{
				"x": -0.4677288376,
				"y": 1.7216943497,
				"z": 0.7190550296,
				"element": "H" 
			},
			{
				"x": 0.2451020218,
				"y": 2.3119205091,
				"z": 2.2187446765,
				"element": "H" 
			},
			{
				"x": -1.0109160439,
				"y": 0.3913377157,
				"z": 3.3308441934,
				"element": "H" 
			},
			{
				"x": -1.1117051175,
				"y": -1.2167705954,
				"z": -1.3126612999,
				"element": "H" 
			},
			{
				"x": -0.2727907791,
				"y": -0.5169449961,
				"z": -3.1994449682,
				"element": "H" 
			},
			{
				"x": 3.201014539,
				"y": -2.5366128272,
				"z": 0.7629009051,
				"element": "H" 
			},
			{
				"x": 1.3314074726,
				"y": -1.6570809905,
				"z": 2.1857160605,
				"element": "H" 
			}
		],
		 "valence_orbital": [ 
			{
				"type": "occ",
				"energy": -0.30924,
				"method": "rhf"
			},
			{
				"type": "occ",
				"energy": -0.29328,
				"method": "rhf"
			},
			{
				"type": "occ",
				"energy": -0.28423,
				"method": "rhf"
			},
			{
				"type": "occ",
				"energy": -0.27897,
				"method": "rhf"
			},
			{
				"type": "occ",
				"energy": -0.25565,
				"method": "rhf"
			},
			{
				"type": "unocc",
				"energy": -0.07942,
				"method": "rhf"
			},
			{
				"type": "unocc",
				"energy": -0.06449,
				"method": "rhf"
			},
			{
				"type": "unocc",
				"energy": 0.00127,
				"method": "rhf"
			},
			{
				"type": "unocc",
				"energy": 0.01014,
				"method": "rhf"
			},
			{
				"type": "unocc",
				"energy": 0.03422,
				"method": "rhf"
			}
		],
		"cosmo_sigma_profile": { 
			"-0.025": 0.0,
			"-0.024": 0.0,
			"-0.023": 0.0,
			"-0.022": 0.0,
			"-0.021": 0.0,
			"-0.02": 0.0412864108445,
			"-0.019": 0.848330810113,
			"-0.018": 1.02720458797,
			"-0.017": 0.839273876022,
			"-0.016": 1.71480102292,
			"-0.015": 1.90169451428,
			"-0.014": 2.67363982676,
			"-0.013": 3.33289257655,
			"-0.012": 3.7657790204,
			"-0.011": 2.63818467071,
			"-0.01": 2.73585896906,
			"-0.009": 8.70587925304,
			"-0.008": 11.0829801617,
			"-0.007": 11.1342765606,
			"-0.006": 12.691348575,
			"-0.005": 12.1580234616,
			"-0.004": 14.1236627833,
			"-0.003": 14.9669344387,
			"-0.002": 19.7629111236,
			"-0.001": 16.1444354293,
			"0.0": 14.3886503178,
			"0.001": 10.1060810837,
			"0.002": 11.2042229147,
			"0.003": 11.5783943036,
			"0.004": 7.22117449613,
			"0.005": 7.57807151996,
			"0.006": 7.61303847809,
			"0.007": 6.79829629205,
			"0.008": 8.5448050424,
			"0.009": 9.13123607316,
			"0.01": 15.005875425,
			"0.011": 9.89381599558,
			"0.012": 4.60705118843,
			"0.013": 5.11876233534,
			"0.014": 4.20296074115,
			"0.015": 0.39438664645,
			"0.016": 0.0,
			"0.017": 0.0,
			"0.018": 0.0,
			"0.019": 0.0,
			"0.02": 0.0,
			"0.021": 0.0,
			"0.022": 0.0,
			"0.023": 0.0,
			"0.024": 0.0,
			"0.025": 0.0
		}
	}
}
