{
	 "smiles": "OC1=C(NC2=C1C(C1=CC=C(Br)C=C1)C1=C(O2)C2=C(OC1=O)C=CC=C2)C(=O)C1=CC=C(Br)C=C1", 
	 "Tm": 503.15, 
	 "num_atms": 50, 
	 "gaussian": { 
		 "optdone": 1, 
		 "sigma_profile": "yes", 
		 "theory": "DFT", 
		 "functional": "B3LYP", 
		 "basiset": "6-31G**", 
		 "properties": { 
			 "R2extent": 31032.9963, 
			 "electric_dipole_moment_norm": 4.83815331196, 
			 "electric_quadrupole_moment_norm": 28.7188568549, 
			 "total_energy": -6611.59230666, 
			 "HOMO_LUMO_gap": 0.14049, 
			 "cosmo_polarized_energy": -21.54, 
			 "cosmo_cavitation_energy": 60.06, 
			 "cosmo_dispersion_energy": -42.94, 
			 "cosmo_repulsion_energy": 3.17, 
			 "cosmo_total_nonelectrostatic_energy": 20.29, 
			 "SMD_solvation_energy": 9.01 
		},
		"coords": [
			{
				"x": 1.6254558011,
				"y": 1.1151324823,
				"z": -0.6904850483,
				"element": "O" 
			},
			{
				"x": 1.1253934799,
				"y": 0.3855765515,
				"z": 0.3379761582,
				"element": "C" 
			},
			{
				"x": 1.4877505828,
				"y": 0.5102735749,
				"z": 1.6892245356,
				"element": "C" 
			},
			{
				"x": 0.7005947849,
				"y": -0.417834004,
				"z": 2.3848559594,
				"element": "N" 
			},
			{
				"x": -0.0912447753,
				"y": -1.0604260716,
				"z": 1.5132566809,
				"element": "C" 
			},
			{
				"x": 0.1365692813,
				"y": -0.6260194813,
				"z": 0.2250304546,
				"element": "C" 
			},
			{
				"x": -0.6061139659,
				"y": -1.1811397824,
				"z": -0.9574219704,
				"element": "C" 
			},
			{
				"x": -1.358061529,
				"y": -0.0859004237,
				"z": -1.7275261412,
				"element": "C" 
			},
			{
				"x": -1.1639642154,
				"y": 0.0766886174,
				"z": -3.1042233348,
				"element": "C" 
			},
			{
				"x": -1.8166681318,
				"y": 1.0901072119,
				"z": -3.8093545131,
				"element": "C" 
			},
			{
				"x": -2.6796127361,
				"y": 1.9434319453,
				"z": -3.1263223359,
				"element": "C" 
			},
			{
				"x": -3.5792486735,
				"y": 3.3340453406,
				"z": -4.078164332,
				"element": "Br" 
			},
			{
				"x": -2.8960314687,
				"y": 1.7998541303,
				"z": -1.7554452955,
				"element": "C" 
			},
			{
				"x": -2.2303501409,
				"y": 0.78883161,
				"z": -1.0654104433,
				"element": "C" 
			},
			{
				"x": -1.5205003679,
				"y": -2.2854685704,
				"z": -0.4331915557,
				"element": "C" 
			},
			{
				"x": -1.6639460205,
				"y": -2.6172258244,
				"z": 0.8843396734,
				"element": "C" 
			},
			{
				"x": -0.9755255704,
				"y": -2.0149601154,
				"z": 1.907292594,
				"element": "O" 
			},
			{
				"x": -2.5672479624,
				"y": -3.6583524105,
				"z": 1.3192485027,
				"element": "C" 
			},
			{
				"x": -3.276924417,
				"y": -4.3413658646,
				"z": 0.3169073621,
				"element": "C" 
			},
			{
				"x": -3.1012322862,
				"y": -4.0550173241,
				"z": -1.0040183319,
				"element": "O" 
			},
			{
				"x": -2.2171795564,
				"y": -3.0765469639,
				"z": -1.4454494887,
				"element": "C" 
			},
			{
				"x": -2.0721715961,
				"y": -2.9503456034,
				"z": -2.6407050081,
				"element": "O" 
			},
			{
				"x": -4.1841979402,
				"y": -5.353006217,
				"z": 0.6391513277,
				"element": "C" 
			},
			{
				"x": -4.3803311724,
				"y": -5.6852765061,
				"z": 1.9745105711,
				"element": "C" 
			},
			{
				"x": -3.6772108675,
				"y": -5.017391298,
				"z": 2.9889552459,
				"element": "C" 
			},
			{
				"x": -2.7771275383,
				"y": -4.0124173701,
				"z": 2.66510651,
				"element": "C" 
			},
			{
				"x": 2.3050731365,
				"y": 1.3670370565,
				"z": 2.5430766157,
				"element": "C" 
			},
			{
				"x": 2.1402998552,
				"y": 1.280958207,
				"z": 3.7692293717,
				"element": "O" 
			},
			{
				"x": 3.3125156447,
				"y": 2.3290338201,
				"z": 2.0025682992,
				"element": "C" 
			},
			{
				"x": 3.6573277566,
				"y": 3.4178149113,
				"z": 2.819924178,
				"element": "C" 
			},
			{
				"x": 4.6182634818,
				"y": 4.338703706,
				"z": 2.4176210685,
				"element": "C" 
			},
			{
				"x": 5.2599764654,
				"y": 4.1527049059,
				"z": 1.1918640949,
				"element": "C" 
			},
			{
				"x": 6.5880601532,
				"y": 5.4055777861,
				"z": 0.6301824824,
				"element": "Br" 
			},
			{
				"x": 4.9547321396,
				"y": 3.0672733667,
				"z": 0.3733561592,
				"element": "C" 
			},
			{
				"x": 3.9775630765,
				"y": 2.1596520641,
				"z": 0.7809615438,
				"element": "C" 
			},
			{
				"x": 1.0178167482,
				"y": 1.0460028959,
				"z": -1.442214416,
				"element": "H" 
			},
			{
				"x": 0.7230654636,
				"y": -0.4542851713,
				"z": 3.3952349565,
				"element": "H" 
			},
			{
				"x": 0.0884805123,
				"y": -1.6448611028,
				"z": -1.6715825156,
				"element": "H" 
			},
			{
				"x": -0.517972211,
				"y": -0.6131859095,
				"z": -3.6392131675,
				"element": "H" 
			},
			{
				"x": -1.6623172553,
				"y": 1.2071139013,
				"z": -4.8758768891,
				"element": "H" 
			},
			{
				"x": -3.5699632247,
				"y": 2.4719397305,
				"z": -1.2365264736,
				"element": "H" 
			},
			{
				"x": -2.3881575401,
				"y": 0.6845075897,
				"z": 0.004432191,
				"element": "H" 
			},
			{
				"x": -4.7121642751,
				"y": -5.8569247813,
				"z": -0.1627589527,
				"element": "H" 
			},
			{
				"x": -5.0841250851,
				"y": -6.4711902282,
				"z": 2.2308268245,
				"element": "H" 
			},
			{
				"x": -3.8369245617,
				"y": -5.286138164,
				"z": 4.0280345375,
				"element": "H" 
			},
			{
				"x": -2.2284953673,
				"y": -3.4875411776,
				"z": 3.4385414956,
				"element": "H" 
			},
			{
				"x": 3.1594536636,
				"y": 3.5230257759,
				"z": 3.7776901124,
				"element": "H" 
			},
			{
				"x": 4.8728301586,
				"y": 5.1858173507,
				"z": 3.0442130052,
				"element": "H" 
			},
			{
				"x": 5.4746792461,
				"y": 2.9308062368,
				"z": -0.5678400059,
				"element": "H" 
			},
			{
				"x": 3.7460090201,
				"y": 1.3178095966,
				"z": 0.1414177079,
				"element": "H" 
			}
		],
		 "valence_orbital": [ 
			{
				"type": "occ",
				"energy": -0.25437,
				"method": "rhf"
			},
			{
				"type": "occ",
				"energy": -0.24716,
				"method": "rhf"
			},
			{
				"type": "occ",
				"energy": -0.24365,
				"method": "rhf"
			},
			{
				"type": "occ",
				"energy": -0.24065,
				"method": "rhf"
			},
			{
				"type": "occ",
				"energy": -0.21925,
				"method": "rhf"
			},
			{
				"type": "unocc",
				"energy": -0.07876,
				"method": "rhf"
			},
			{
				"type": "unocc",
				"energy": -0.05981,
				"method": "rhf"
			},
			{
				"type": "unocc",
				"energy": -0.02719,
				"method": "rhf"
			},
			{
				"type": "unocc",
				"energy": -0.02467,
				"method": "rhf"
			},
			{
				"type": "unocc",
				"energy": -0.02156,
				"method": "rhf"
			}
		],
		"cosmo_sigma_profile": { 
			"-0.025": 0.0,
			"-0.024": 0.0,
			"-0.023": 0.0,
			"-0.022": 0.0,
			"-0.021": 0.0,
			"-0.02": 0.0,
			"-0.019": 0.0,
			"-0.018": 0.0,
			"-0.017": 0.0,
			"-0.016": 0.0175772502173,
			"-0.015": 0.886788222259,
			"-0.014": 0.792610872672,
			"-0.013": 0.68559942236,
			"-0.012": 2.18352624041,
			"-0.011": 2.26368684505,
			"-0.01": 2.42368651069,
			"-0.009": 2.17104792977,
			"-0.008": 3.38524837536,
			"-0.007": 17.3610548804,
			"-0.006": 27.4453160207,
			"-0.005": 29.0141601016,
			"-0.004": 27.545762413,
			"-0.003": 30.7490607527,
			"-0.002": 32.9818801322,
			"-0.001": 33.8834056633,
			"0.0": 39.4419034413,
			"0.001": 48.9031995142,
			"0.002": 53.4916958843,
			"0.003": 46.9858673035,
			"0.004": 31.3208788627,
			"0.005": 16.1021354829,
			"0.006": 6.43631057668,
			"0.007": 5.24235841751,
			"0.008": 4.78255912756,
			"0.009": 5.01623068961,
			"0.01": 4.11441931789,
			"0.011": 5.63467649124,
			"0.012": 6.17263354381,
			"0.013": 3.64258837234,
			"0.014": 0.176154007925,
			"0.015": 0.0,
			"0.016": 0.0,
			"0.017": 0.0,
			"0.018": 0.0,
			"0.019": 0.0,
			"0.02": 0.0,
			"0.021": 0.0,
			"0.022": 0.0,
			"0.023": 0.0,
			"0.024": 0.0,
			"0.025": 0.0
		}
	}
}
