{
	 "smiles": "O=C(NC1=CC=CC=C1)NC1=CC=C(C=C1)C1=NNC(=O)CC1", 
	 "Tm": 609.15, 
	 "num_atms": 39, 
	 "gaussian": { 
		 "optdone": 1, 
		 "sigma_profile": "yes", 
		 "theory": "DFT", 
		 "functional": "B3LYP", 
		 "basiset": "6-31G**", 
		 "properties": { 
			 "R2extent": 14300.7576, 
			 "electric_dipole_moment_norm": 7.40106149549, 
			 "electric_quadrupole_moment_norm": 25.1771592494, 
			 "total_energy": -1026.9244591, 
			 "HOMO_LUMO_gap": 0.158, 
			 "cosmo_polarized_energy": -23.2, 
			 "cosmo_cavitation_energy": 43.5, 
			 "cosmo_dispersion_energy": -31.7, 
			 "cosmo_repulsion_energy": 2.39, 
			 "cosmo_total_nonelectrostatic_energy": 14.19, 
			 "SMD_solvation_energy": 7.69 
		},
		"coords": [
			{
				"x": -1.5605248864,
				"y": 0.7253868035,
				"z": -2.6184136515,
				"element": "O" 
			},
			{
				"x": -1.1960531521,
				"y": 1.319414596,
				"z": -1.6126663555,
				"element": "C" 
			},
			{
				"x": -1.1793655922,
				"y": 2.7140645148,
				"z": -1.594858999,
				"element": "N" 
			},
			{
				"x": -0.7603545942,
				"y": 3.6236562216,
				"z": -0.598599823,
				"element": "C" 
			},
			{
				"x": -1.5602723521,
				"y": 4.7423404984,
				"z": -0.3168980638,
				"element": "C" 
			},
			{
				"x": -1.1519874492,
				"y": 5.6790792861,
				"z": 0.6298394625,
				"element": "C" 
			},
			{
				"x": 0.0465123342,
				"y": 5.5058127263,
				"z": 1.3264929557,
				"element": "C" 
			},
			{
				"x": 0.8458026183,
				"y": 4.396963265,
				"z": 1.0471690682,
				"element": "C" 
			},
			{
				"x": 0.4599426342,
				"y": 3.4675975256,
				"z": 0.0798734847,
				"element": "C" 
			},
			{
				"x": -0.8022980586,
				"y": 0.7159444671,
				"z": -0.4339012764,
				"element": "N" 
			},
			{
				"x": -0.6984295621,
				"y": -0.6590358618,
				"z": -0.1610811242,
				"element": "C" 
			},
			{
				"x": -0.893682963,
				"y": -1.6667372183,
				"z": -1.1232620077,
				"element": "C" 
			},
			{
				"x": -0.7502177089,
				"y": -2.9990155624,
				"z": -0.7621045802,
				"element": "C" 
			},
			{
				"x": -0.4102716557,
				"y": -3.3885510086,
				"z": 0.5475402565,
				"element": "C" 
			},
			{
				"x": -0.2191106454,
				"y": -2.3697427997,
				"z": 1.4951735418,
				"element": "C" 
			},
			{
				"x": -0.3626763299,
				"y": -1.0307726942,
				"z": 1.1495848714,
				"element": "C" 
			},
			{
				"x": -0.2859801149,
				"y": -4.8176533825,
				"z": 0.9016541221,
				"element": "C" 
			},
			{
				"x": -0.7114965289,
				"y": -5.6846070607,
				"z": 0.0412742492,
				"element": "N" 
			},
			{
				"x": -0.6135152686,
				"y": -7.0189134666,
				"z": 0.3731878527,
				"element": "N" 
			},
			{
				"x": 0.2374496444,
				"y": -7.5973153124,
				"z": 1.2940812303,
				"element": "C" 
			},
			{
				"x": 0.3365678862,
				"y": -8.8093391475,
				"z": 1.4007874012,
				"element": "O" 
			},
			{
				"x": 1.0349464679,
				"y": -6.5835553479,
				"z": 2.0902884159,
				"element": "C" 
			},
			{
				"x": 0.2788675818,
				"y": -5.2572581563,
				"z": 2.2381591688,
				"element": "C" 
			},
			{
				"x": -1.6714691164,
				"y": 3.0889241625,
				"z": -2.3938881919,
				"element": "H" 
			},
			{
				"x": -2.5046871027,
				"y": 4.8653743382,
				"z": -0.8398292457,
				"element": "H" 
			},
			{
				"x": -1.7809149751,
				"y": 6.5408509903,
				"z": 0.8333894372,
				"element": "H" 
			},
			{
				"x": 0.3568424493,
				"y": 6.2314606733,
				"z": 2.0717192529,
				"element": "H" 
			},
			{
				"x": 1.7910116221,
				"y": 4.2623112535,
				"z": 1.5650790217,
				"element": "H" 
			},
			{
				"x": 1.116998366,
				"y": 2.6425435988,
				"z": -0.1757579065,
				"element": "H" 
			},
			{
				"x": -0.6423570945,
				"y": 1.3266936847,
				"z": 0.3550191056,
				"element": "H" 
			},
			{
				"x": -1.1572902101,
				"y": -1.3898558446,
				"z": -2.1339028062,
				"element": "H" 
			},
			{
				"x": -0.9017865204,
				"y": -3.7717395616,
				"z": -1.507391403,
				"element": "H" 
			},
			{
				"x": 0.0285394645,
				"y": -2.6099968878,
				"z": 2.5237409078,
				"element": "H" 
			},
			{
				"x": -0.2146595696,
				"y": -0.2640199014,
				"z": 1.9067877874,
				"element": "H" 
			},
			{
				"x": -1.0475570224,
				"y": -7.6427706306,
				"z": -0.2939825154,
				"element": "H" 
			},
			{
				"x": 1.2883356996,
				"y": -7.0263504941,
				"z": 3.0556658118,
				"element": "H" 
			},
			{
				"x": 1.977863656,
				"y": -6.4229249353,
				"z": 1.5501209893,
				"element": "H" 
			},
			{
				"x": 0.9383344959,
				"y": -4.4973572037,
				"z": 2.6619478419,
				"element": "H" 
			},
			{
				"x": -0.556156447,
				"y": -5.3817061276,
				"z": 2.9433617138,
				"element": "H" 
			}
		],
		 "valence_orbital": [ 
			{
				"type": "occ",
				"energy": -0.25501,
				"method": "rhf"
			},
			{
				"type": "occ",
				"energy": -0.25273,
				"method": "rhf"
			},
			{
				"type": "occ",
				"energy": -0.24346,
				"method": "rhf"
			},
			{
				"type": "occ",
				"energy": -0.23684,
				"method": "rhf"
			},
			{
				"type": "occ",
				"energy": -0.20371,
				"method": "rhf"
			},
			{
				"type": "unocc",
				"energy": -0.04571,
				"method": "rhf"
			},
			{
				"type": "unocc",
				"energy": -0.02377,
				"method": "rhf"
			},
			{
				"type": "unocc",
				"energy": -0.02145,
				"method": "rhf"
			},
			{
				"type": "unocc",
				"energy": -0.00405,
				"method": "rhf"
			},
			{
				"type": "unocc",
				"energy": 0.01767,
				"method": "rhf"
			}
		],
		"cosmo_sigma_profile": { 
			"-0.025": 0.0,
			"-0.024": 0.0,
			"-0.023": 0.0,
			"-0.022": 0.0,
			"-0.021": 0.0,
			"-0.02": 0.0,
			"-0.019": 0.0,
			"-0.018": 0.0,
			"-0.017": 0.0,
			"-0.016": 0.0,
			"-0.015": 0.587772010439,
			"-0.014": 1.99055646271,
			"-0.013": 2.52795508806,
			"-0.012": 3.30072767086,
			"-0.011": 2.58707428678,
			"-0.01": 2.72670592188,
			"-0.009": 3.50097771612,
			"-0.008": 3.79421101498,
			"-0.007": 9.62322248879,
			"-0.006": 22.5506281899,
			"-0.005": 28.4733162496,
			"-0.004": 29.4032133422,
			"-0.003": 23.3216907989,
			"-0.002": 20.5742675109,
			"-0.001": 17.0758938171,
			"0.0": 17.8868583313,
			"0.001": 19.0109379001,
			"0.002": 22.5147655934,
			"0.003": 22.5061819896,
			"0.004": 25.5781379099,
			"0.005": 22.3859622934,
			"0.006": 4.8025877022,
			"0.007": 5.72428011047,
			"0.008": 5.11039280268,
			"0.009": 3.31496159104,
			"0.01": 3.36070350621,
			"0.011": 3.87585653464,
			"0.012": 5.10924700429,
			"0.013": 10.0025496697,
			"0.014": 4.11754527665,
			"0.015": 0.159897005034,
			"0.016": 0.0,
			"0.017": 0.0,
			"0.018": 0.0,
			"0.019": 0.0,
			"0.02": 0.0,
			"0.021": 0.0,
			"0.022": 0.0,
			"0.023": 0.0,
			"0.024": 0.0,
			"0.025": 0.0
		}
	}
}
