{
	 "smiles": "[O-][N+](=O)C1=C(C=C(Cl)C2=NON=C12)N1CCCCC1", 
	 "Tm": 433.15, 
	 "num_atms": 30, 
	 "gaussian": { 
		 "optdone": 1, 
		 "sigma_profile": "yes", 
		 "theory": "DFT", 
		 "functional": "B3LYP", 
		 "basiset": "6-31G**", 
		 "properties": { 
			 "R2extent": 5860.1561, 
			 "electric_dipole_moment_norm": 8.58133347913, 
			 "electric_quadrupole_moment_norm": 15.2739894153, 
			 "total_energy": -1330.45239404, 
			 "HOMO_LUMO_gap": 0.12966, 
			 "cosmo_polarized_energy": -19.08, 
			 "cosmo_cavitation_energy": 34.66, 
			 "cosmo_dispersion_energy": -25.31, 
			 "cosmo_repulsion_energy": 1.92, 
			 "cosmo_total_nonelectrostatic_energy": 11.27, 
			 "SMD_solvation_energy": 6.35 
		},
		"coords": [
			{
				"x": -0.9135842601,
				"y": 3.1821016976,
				"z": -2.386496866,
				"element": "O" 
			},
			{
				"x": -0.9017708749,
				"y": 2.7436856442,
				"z": -1.2359835414,
				"element": "N" 
			},
			{
				"x": -1.6533935506,
				"y": 3.1342908301,
				"z": -0.3308045342,
				"element": "O" 
			},
			{
				"x": 0.1056857481,
				"y": 1.7590535012,
				"z": -0.905152779,
				"element": "C" 
			},
			{
				"x": -0.0432496501,
				"y": 0.8204584998,
				"z": 0.1339548173,
				"element": "C" 
			},
			{
				"x": 1.1418242254,
				"y": 0.1126825028,
				"z": 0.6067083824,
				"element": "C" 
			},
			{
				"x": 2.3720890979,
				"y": 0.2593138349,
				"z": 0.047418194,
				"element": "C" 
			},
			{
				"x": 3.7468215599,
				"y": -0.6296314054,
				"z": 0.6280712746,
				"element": "Cl" 
			},
			{
				"x": 2.5133692579,
				"y": 1.1398622402,
				"z": -1.0681012105,
				"element": "C" 
			},
			{
				"x": 3.5744230889,
				"y": 1.4396851562,
				"z": -1.7858509777,
				"element": "N" 
			},
			{
				"x": 3.1228945573,
				"y": 2.3362112102,
				"z": -2.7004940536,
				"element": "O" 
			},
			{
				"x": 1.7766276791,
				"y": 2.6125039205,
				"z": -2.5767254967,
				"element": "N" 
			},
			{
				"x": 1.3776857334,
				"y": 1.8695786643,
				"z": -1.5568424531,
				"element": "C" 
			},
			{
				"x": -1.245815364,
				"y": 0.4584288544,
				"z": 0.6674773221,
				"element": "N" 
			},
			{
				"x": -2.5074639591,
				"y": 0.5184193528,
				"z": -0.0886773703,
				"element": "C" 
			},
			{
				"x": -3.4258227516,
				"y": -0.6627588365,
				"z": 0.2940323711,
				"element": "C" 
			},
			{
				"x": -2.6075879185,
				"y": -1.9156796016,
				"z": 0.6302284994,
				"element": "C" 
			},
			{
				"x": -1.7287090144,
				"y": -1.6625126323,
				"z": 1.8776289851,
				"element": "C" 
			},
			{
				"x": -1.3846735418,
				"y": -0.1629118773,
				"z": 1.9901628287,
				"element": "C" 
			},
			{
				"x": 1.0280401417,
				"y": -0.6087648537,
				"z": 1.4039721275,
				"element": "H" 
			},
			{
				"x": -3.0097703286,
				"y": 1.4792353383,
				"z": 0.0664711826,
				"element": "H" 
			},
			{
				"x": -2.247634396,
				"y": 0.4594979717,
				"z": -1.1512774519,
				"element": "H" 
			},
			{
				"x": -4.1078658681,
				"y": -0.846355381,
				"z": -0.5421517448,
				"element": "H" 
			},
			{
				"x": -4.0567406842,
				"y": -0.3922033174,
				"z": 1.149424233,
				"element": "H" 
			},
			{
				"x": -1.9704262262,
				"y": -2.1647770884,
				"z": -0.2268894694,
				"element": "H" 
			},
			{
				"x": -3.2627915837,
				"y": -2.7769282249,
				"z": 0.7922500004,
				"element": "H" 
			},
			{
				"x": -2.253167562,
				"y": -1.9647413491,
				"z": 2.7913088194,
				"element": "H" 
			},
			{
				"x": -0.8154479802,
				"y": -2.2655424547,
				"z": 1.8239810276,
				"element": "H" 
			},
			{
				"x": -0.4916054174,
				"y": 0.0194379823,
				"z": 2.5879794054,
				"element": "H" 
			},
			{
				"x": -2.196640158,
				"y": 0.3692598206,
				"z": 2.4996784781,
				"element": "H" 
			}
		],
		 "valence_orbital": [ 
			{
				"type": "occ",
				"energy": -0.29982,
				"method": "rhf"
			},
			{
				"type": "occ",
				"energy": -0.29755,
				"method": "rhf"
			},
			{
				"type": "occ",
				"energy": -0.2842,
				"method": "rhf"
			},
			{
				"type": "occ",
				"energy": -0.26925,
				"method": "rhf"
			},
			{
				"type": "occ",
				"energy": -0.23601,
				"method": "rhf"
			},
			{
				"type": "unocc",
				"energy": -0.10635,
				"method": "rhf"
			},
			{
				"type": "unocc",
				"energy": -0.0634,
				"method": "rhf"
			},
			{
				"type": "unocc",
				"energy": -0.01301,
				"method": "rhf"
			},
			{
				"type": "unocc",
				"energy": 0.00098,
				"method": "rhf"
			},
			{
				"type": "unocc",
				"energy": 0.00644,
				"method": "rhf"
			}
		],
		"cosmo_sigma_profile": { 
			"-0.025": 0.0,
			"-0.024": 0.0,
			"-0.023": 0.0,
			"-0.022": 0.0,
			"-0.021": 0.0,
			"-0.02": 0.0,
			"-0.019": 0.0,
			"-0.018": 0.0,
			"-0.017": 0.0,
			"-0.016": 0.0,
			"-0.015": 0.0,
			"-0.014": 0.0,
			"-0.013": 0.0,
			"-0.012": 0.0201424732713,
			"-0.011": 0.684748147444,
			"-0.01": 1.52812739436,
			"-0.009": 2.23647948869,
			"-0.008": 2.49067993877,
			"-0.007": 4.77242280115,
			"-0.006": 12.199922486,
			"-0.005": 18.1242474636,
			"-0.004": 32.6834777637,
			"-0.003": 34.9657068663,
			"-0.002": 27.4555540272,
			"-0.001": 22.9749924668,
			"0.0": 16.5739800631,
			"0.001": 9.91827556173,
			"0.002": 11.7185018707,
			"0.003": 12.6308713855,
			"0.004": 9.31910134629,
			"0.005": 10.8768357979,
			"0.006": 6.44409893855,
			"0.007": 6.43875364273,
			"0.008": 9.40743125395,
			"0.009": 10.000317427,
			"0.01": 6.68874944732,
			"0.011": 4.67908920284,
			"0.012": 1.6174921774,
			"0.013": 1.44303158587,
			"0.014": 0.181295775746,
			"0.015": 0.0,
			"0.016": 0.0,
			"0.017": 0.0,
			"0.018": 0.0,
			"0.019": 0.0,
			"0.02": 0.0,
			"0.021": 0.0,
			"0.022": 0.0,
			"0.023": 0.0,
			"0.024": 0.0,
			"0.025": 0.0
		}
	}
}
