{
	 "smiles": "CC(NC(=O)C1=C(Cl)C(Cl)=CC=C1)C(O)=O", 
	 "Tm": 426.15, 
	 "num_atms": 25, 
	 "gaussian": { 
		 "optdone": 1, 
		 "sigma_profile": "yes", 
		 "theory": "DFT", 
		 "functional": "B3LYP", 
		 "basiset": "6-31G**", 
		 "properties": { 
			 "R2extent": 5346.605, 
			 "electric_dipole_moment_norm": 3.00605576961, 
			 "electric_quadrupole_moment_norm": 18.9000012529, 
			 "total_energy": -1587.3147348, 
			 "HOMO_LUMO_gap": 0.21535, 
			 "cosmo_polarized_energy": -17.98, 
			 "cosmo_cavitation_energy": 33.48, 
			 "cosmo_dispersion_energy": -22.91, 
			 "cosmo_repulsion_energy": 1.82, 
			 "cosmo_total_nonelectrostatic_energy": 12.39, 
			 "SMD_solvation_energy": 7.02 
		},
		"coords": [
			{
				"x": -0.5313543052,
				"y": -0.4599317508,
				"z": -3.5615409038,
				"element": "C" 
			},
			{
				"x": -0.3488021699,
				"y": -0.3945084803,
				"z": -2.0408636147,
				"element": "C" 
			},
			{
				"x": -1.3177635667,
				"y": 0.4986431858,
				"z": -1.4330902668,
				"element": "N" 
			},
			{
				"x": -1.165091858,
				"y": 1.2763066803,
				"z": -0.3166428374,
				"element": "C" 
			},
			{
				"x": -2.1161976247,
				"y": 1.8037639396,
				"z": 0.2402798601,
				"element": "O" 
			},
			{
				"x": 0.2355431248,
				"y": 1.4513860597,
				"z": 0.2375886384,
				"element": "C" 
			},
			{
				"x": 1.2035923367,
				"y": 2.2683809613,
				"z": -0.3656300598,
				"element": "C" 
			},
			{
				"x": 0.8497249704,
				"y": 3.0597239263,
				"z": -1.8855783268,
				"element": "Cl" 
			},
			{
				"x": 2.4459982888,
				"y": 2.4583510783,
				"z": 0.2597456858,
				"element": "C" 
			},
			{
				"x": 3.6770529077,
				"y": 3.471241451,
				"z": -0.4551815185,
				"element": "Cl" 
			},
			{
				"x": 2.720090379,
				"y": 1.8368616626,
				"z": 1.4786924689,
				"element": "C" 
			},
			{
				"x": 1.755529591,
				"y": 1.0321538821,
				"z": 2.0808918248,
				"element": "C" 
			},
			{
				"x": 0.519184368,
				"y": 0.8484852588,
				"z": 1.468139615,
				"element": "C" 
			},
			{
				"x": -0.3474041772,
				"y": -1.8120061164,
				"z": -1.4433110846,
				"element": "C" 
			},
			{
				"x": -0.9445205738,
				"y": -1.8780907679,
				"z": -0.2328176497,
				"element": "O" 
			},
			{
				"x": 0.1647189057,
				"y": -2.769272486,
				"z": -1.9785031983,
				"element": "O" 
			},
			{
				"x": 0.1838631769,
				"y": -1.1617487721,
				"z": -3.9924990981,
				"element": "H" 
			},
			{
				"x": -1.5389171319,
				"y": -0.8046231002,
				"z": -3.8187107813,
				"element": "H" 
			},
			{
				"x": -0.3808053838,
				"y": 0.5308584725,
				"z": -3.9948208129,
				"element": "H" 
			},
			{
				"x": 0.6501985895,
				"y": 0.0011793813,
				"z": -1.8286584027,
				"element": "H" 
			},
			{
				"x": -2.289587927,
				"y": 0.3766589479,
				"z": -1.6931795318,
				"element": "H" 
			},
			{
				"x": 3.6859970274,
				"y": 1.9959024983,
				"z": 1.9447114594,
				"element": "H" 
			},
			{
				"x": 1.970201002,
				"y": 0.5560301783,
				"z": 3.0322662853,
				"element": "H" 
			},
			{
				"x": -0.2448833585,
				"y": 0.2358061241,
				"z": 1.9339510723,
				"element": "H" 
			},
			{
				"x": -0.8539665913,
				"y": -2.8008522146,
				"z": 0.0606611773,
				"element": "H" 
			}
		],
		 "valence_orbital": [ 
			{
				"type": "occ",
				"energy": -0.30716,
				"method": "rhf"
			},
			{
				"type": "occ",
				"energy": -0.27984,
				"method": "rhf"
			},
			{
				"type": "occ",
				"energy": -0.2591,
				"method": "rhf"
			},
			{
				"type": "occ",
				"energy": -0.25706,
				"method": "rhf"
			},
			{
				"type": "occ",
				"energy": -0.25305,
				"method": "rhf"
			},
			{
				"type": "unocc",
				"energy": -0.0377,
				"method": "rhf"
			},
			{
				"type": "unocc",
				"energy": -0.032,
				"method": "rhf"
			},
			{
				"type": "unocc",
				"energy": -0.01066,
				"method": "rhf"
			},
			{
				"type": "unocc",
				"energy": -0.00478,
				"method": "rhf"
			},
			{
				"type": "unocc",
				"energy": 0.01608,
				"method": "rhf"
			}
		],
		"cosmo_sigma_profile": { 
			"-0.025": 0.0,
			"-0.024": 0.0,
			"-0.023": 0.0,
			"-0.022": 0.0,
			"-0.021": 0.0,
			"-0.02": 0.0,
			"-0.019": 0.272520598662,
			"-0.018": 1.02616498918,
			"-0.017": 0.943273870195,
			"-0.016": 0.934109189897,
			"-0.015": 0.561184979367,
			"-0.014": 1.64012849387,
			"-0.013": 2.10136753456,
			"-0.012": 1.70222848013,
			"-0.011": 2.62546875462,
			"-0.01": 1.65668146847,
			"-0.009": 1.81490954193,
			"-0.008": 6.05881379041,
			"-0.007": 10.2323775631,
			"-0.006": 10.9423485122,
			"-0.005": 10.1951742734,
			"-0.004": 12.0873085056,
			"-0.003": 15.9580842353,
			"-0.002": 18.5588944383,
			"-0.001": 22.6928528267,
			"0.0": 25.184952849,
			"0.001": 22.3696431186,
			"0.002": 21.4154804689,
			"0.003": 19.8638599373,
			"0.004": 16.6119725587,
			"0.005": 7.43541098443,
			"0.006": 3.46755551877,
			"0.007": 3.46795995493,
			"0.008": 2.6419735296,
			"0.009": 3.9610136025,
			"0.01": 3.21066445631,
			"0.011": 6.93765202931,
			"0.012": 6.07531959541,
			"0.013": 5.11793641441,
			"0.014": 0.925711907878,
			"0.015": 0.0,
			"0.016": 0.0,
			"0.017": 0.0,
			"0.018": 0.0,
			"0.019": 0.0,
			"0.02": 0.0,
			"0.021": 0.0,
			"0.022": 0.0,
			"0.023": 0.0,
			"0.024": 0.0,
			"0.025": 0.0
		}
	}
}
