{
	 "smiles": "ClC1=CC(NC(=O)NC2=CC=CC=C2)=CC=N1", 
	 "Tm": 440.15, 
	 "num_atms": 27, 
	 "gaussian": { 
		 "optdone": 1, 
		 "sigma_profile": "yes", 
		 "theory": "DFT", 
		 "functional": "B3LYP", 
		 "basiset": "6-31G**", 
		 "properties": { 
			 "R2extent": 4400.583, 
			 "electric_dipole_moment_norm": 2.79690000358, 
			 "electric_quadrupole_moment_norm": 23.1219390867, 
			 "total_energy": -1162.99159624, 
			 "HOMO_LUMO_gap": 0.19584, 
			 "cosmo_polarized_energy": -17.08, 
			 "cosmo_cavitation_energy": 33.58, 
			 "cosmo_dispersion_energy": -23.25, 
			 "cosmo_repulsion_energy": 1.83, 
			 "cosmo_total_nonelectrostatic_energy": 12.16, 
			 "SMD_solvation_energy": 5.11 
		},
		"coords": [
			{
				"x": -1.0722760323,
				"y": -0.0552342547,
				"z": -3.4453761446,
				"element": "Cl" 
			},
			{
				"x": -1.0576646692,
				"y": -1.2267867623,
				"z": -2.1259644921,
				"element": "C" 
			},
			{
				"x": -0.0048606412,
				"y": -1.1567361641,
				"z": -1.2134040429,
				"element": "C" 
			},
			{
				"x": 0.0017880591,
				"y": -2.0902579442,
				"z": -0.1700311094,
				"element": "C" 
			},
			{
				"x": 0.996802063,
				"y": -2.1626727504,
				"z": 0.8134064888,
				"element": "N" 
			},
			{
				"x": 2.1350155813,
				"y": -1.3711222553,
				"z": 1.0246157781,
				"element": "C" 
			},
			{
				"x": 3.1838743625,
				"y": -1.8885820717,
				"z": 1.377930017,
				"element": "O" 
			},
			{
				"x": 2.0260551085,
				"y": -0.006520119,
				"z": 0.8273408117,
				"element": "N" 
			},
			{
				"x": 0.9305673142,
				"y": 0.8701282375,
				"z": 1.066165249,
				"element": "C" 
			},
			{
				"x": 0.9768814637,
				"y": 2.1402720686,
				"z": 0.4753318145,
				"element": "C" 
			},
			{
				"x": -0.0437750457,
				"y": 3.0599460722,
				"z": 0.7075652161,
				"element": "C" 
			},
			{
				"x": -1.1295570226,
				"y": 2.7184740602,
				"z": 1.5157365923,
				"element": "C" 
			},
			{
				"x": -1.1756048881,
				"y": 1.4520611055,
				"z": 2.1000626248,
				"element": "C" 
			},
			{
				"x": -0.1493584504,
				"y": 0.5308808833,
				"z": 1.8908814742,
				"element": "C" 
			},
			{
				"x": -1.0397502614,
				"y": -3.0355144919,
				"z": -0.1269822882,
				"element": "C" 
			},
			{
				"x": -2.0205138478,
				"y": -2.9962221899,
				"z": -1.1065787467,
				"element": "C" 
			},
			{
				"x": -2.0483768953,
				"y": -2.0989127217,
				"z": -2.1054053989,
				"element": "N" 
			},
			{
				"x": 0.7729058196,
				"y": -0.4160856567,
				"z": -1.3246575472,
				"element": "H" 
			},
			{
				"x": 1.161600577,
				"y": -3.0910154705,
				"z": 1.1818789757,
				"element": "H" 
			},
			{
				"x": 2.9416474134,
				"y": 0.421867394,
				"z": 0.8838930554,
				"element": "H" 
			},
			{
				"x": 1.812872705,
				"y": 2.3992971164,
				"z": -0.1688627089,
				"element": "H" 
			},
			{
				"x": 0.0066259416,
				"y": 4.0411640556,
				"z": 0.2450801647,
				"element": "H" 
			},
			{
				"x": -1.9298708621,
				"y": 3.4311065264,
				"z": 1.6884620773,
				"element": "H" 
			},
			{
				"x": -2.0105579661,
				"y": 1.1776355477,
				"z": 2.7381422597,
				"element": "H" 
			},
			{
				"x": -0.1843532379,
				"y": -0.441620794,
				"z": 2.3676031403,
				"element": "H" 
			},
			{
				"x": -1.079406197,
				"y": -3.7795929463,
				"z": 0.6626013726,
				"element": "H" 
			},
			{
				"x": -2.8349103919,
				"y": -3.7170564747,
				"z": -1.0930346333,
				"element": "H" 
			}
		],
		 "valence_orbital": [ 
			{
				"type": "occ",
				"energy": -0.27496,
				"method": "rhf"
			},
			{
				"type": "occ",
				"energy": -0.26439,
				"method": "rhf"
			},
			{
				"type": "occ",
				"energy": -0.2614,
				"method": "rhf"
			},
			{
				"type": "occ",
				"energy": -0.25234,
				"method": "rhf"
			},
			{
				"type": "occ",
				"energy": -0.23586,
				"method": "rhf"
			},
			{
				"type": "unocc",
				"energy": -0.04002,
				"method": "rhf"
			},
			{
				"type": "unocc",
				"energy": -0.02718,
				"method": "rhf"
			},
			{
				"type": "unocc",
				"energy": -0.01481,
				"method": "rhf"
			},
			{
				"type": "unocc",
				"energy": -0.01013,
				"method": "rhf"
			},
			{
				"type": "unocc",
				"energy": 0.03302,
				"method": "rhf"
			}
		],
		"cosmo_sigma_profile": { 
			"-0.025": 0.0,
			"-0.024": 0.0,
			"-0.023": 0.0,
			"-0.022": 0.0,
			"-0.021": 0.0,
			"-0.02": 0.0,
			"-0.019": 0.0,
			"-0.018": 0.0,
			"-0.017": 0.0,
			"-0.016": 0.176104481236,
			"-0.015": 1.3533715568,
			"-0.014": 2.3780330152,
			"-0.013": 2.32713834027,
			"-0.012": 1.69041969651,
			"-0.011": 2.25153299031,
			"-0.01": 2.05127196191,
			"-0.009": 3.17874621393,
			"-0.008": 3.70605035994,
			"-0.007": 6.84597240714,
			"-0.006": 13.6699091748,
			"-0.005": 16.5217211524,
			"-0.004": 18.1951489938,
			"-0.003": 17.0213391896,
			"-0.002": 17.3296026521,
			"-0.001": 16.7892145635,
			"0.0": 19.6031023465,
			"0.001": 23.2976526601,
			"0.002": 17.3065229704,
			"0.003": 16.9047924627,
			"0.004": 20.2865843024,
			"0.005": 16.651235426,
			"0.006": 5.32240692479,
			"0.007": 3.113859527,
			"0.008": 2.55046905869,
			"0.009": 2.11941239447,
			"0.01": 2.8406020758,
			"0.011": 3.53396631185,
			"0.012": 4.37856110911,
			"0.013": 6.21349892411,
			"0.014": 1.41801134993,
			"0.015": 0.590743834867,
			"0.016": 0.00965256771459,
			"0.017": 0.0,
			"0.018": 0.0,
			"0.019": 0.0,
			"0.02": 0.0,
			"0.021": 0.0,
			"0.022": 0.0,
			"0.023": 0.0,
			"0.024": 0.0,
			"0.025": 0.0
		}
	}
}
