{
	 "smiles": "OC(=O)CNC(=O)NC1CC1", 
	 "Tm": 453.15, 
	 "num_atms": 21, 
	 "gaussian": { 
		 "optdone": 1, 
		 "sigma_profile": "yes", 
		 "theory": "DFT", 
		 "functional": "B3LYP", 
		 "basiset": "6-31G**", 
		 "properties": { 
			 "R2extent": 2287.0017, 
			 "electric_dipole_moment_norm": 4.89502959439, 
			 "electric_quadrupole_moment_norm": 15.008140709, 
			 "total_energy": -569.834890495, 
			 "HOMO_LUMO_gap": 0.22885, 
			 "cosmo_polarized_energy": -17.19, 
			 "cosmo_cavitation_energy": 25.18, 
			 "cosmo_dispersion_energy": -18.14, 
			 "cosmo_repulsion_energy": 1.49, 
			 "cosmo_total_nonelectrostatic_energy": 8.53, 
			 "SMD_solvation_energy": 4.51 
		},
		"coords": [
			{
				"x": 3.5177720874,
				"y": -0.0023511929,
				"z": 1.1050513706,
				"element": "O" 
			},
			{
				"x": 2.8171525263,
				"y": 0.6230691611,
				"z": 0.1374061486,
				"element": "C" 
			},
			{
				"x": 3.2569064643,
				"y": 1.5365896324,
				"z": -0.5244718621,
				"element": "O" 
			},
			{
				"x": 1.4284429348,
				"y": 0.0289695658,
				"z": -0.0037797462,
				"element": "C" 
			},
			{
				"x": 0.7394619465,
				"y": 0.6765959218,
				"z": -1.1015156245,
				"element": "N" 
			},
			{
				"x": -0.6225762673,
				"y": 0.919532745,
				"z": -1.1513792893,
				"element": "C" 
			},
			{
				"x": -1.0817370549,
				"y": 1.9125459481,
				"z": -1.7020350214,
				"element": "O" 
			},
			{
				"x": -1.4563648384,
				"y": -0.0278672137,
				"z": -0.5548552844,
				"element": "N" 
			},
			{
				"x": -1.2124999135,
				"y": -1.4516760179,
				"z": -0.6003450834,
				"element": "C" 
			},
			{
				"x": -0.8813480834,
				"y": -2.212241987,
				"z": 0.666409448,
				"element": "C" 
			},
			{
				"x": -2.2464868529,
				"y": -2.3375748125,
				"z": 0.0395328744,
				"element": "C" 
			},
			{
				"x": 4.3873351781,
				"y": 0.4305121623,
				"z": 1.142581363,
				"element": "H" 
			},
			{
				"x": 1.5418115763,
				"y": -1.0522069478,
				"z": -0.1463620241,
				"element": "H" 
			},
			{
				"x": 0.9076909828,
				"y": 0.1596365357,
				"z": 0.9538778138,
				"element": "H" 
			},
			{
				"x": 1.2641520893,
				"y": 1.4497930851,
				"z": -1.49737041,
				"element": "H" 
			},
			{
				"x": -2.4145341309,
				"y": 0.2323268848,
				"z": -0.7575228716,
				"element": "H" 
			},
			{
				"x": -0.7594777703,
				"y": -1.8156609366,
				"z": -1.522023926,
				"element": "H" 
			},
			{
				"x": -0.8087510574,
				"y": -1.6347182671,
				"z": 1.5823227124,
				"element": "H" 
			},
			{
				"x": -0.1985726341,
				"y": -3.0543044647,
				"z": 0.5991718503,
				"element": "H" 
			},
			{
				"x": -3.0731872066,
				"y": -1.8475900141,
				"z": 0.5460609534,
				"element": "H" 
			},
			{
				"x": -2.5131899762,
				"y": -3.2598797877,
				"z": -0.4663533916,
				"element": "H" 
			}
		],
		 "valence_orbital": [ 
			{
				"type": "occ",
				"energy": -0.31377,
				"method": "rhf"
			},
			{
				"type": "occ",
				"energy": -0.29847,
				"method": "rhf"
			},
			{
				"type": "occ",
				"energy": -0.26146,
				"method": "rhf"
			},
			{
				"type": "occ",
				"energy": -0.25349,
				"method": "rhf"
			},
			{
				"type": "occ",
				"energy": -0.23624,
				"method": "rhf"
			},
			{
				"type": "unocc",
				"energy": -0.00739,
				"method": "rhf"
			},
			{
				"type": "unocc",
				"energy": 0.0464,
				"method": "rhf"
			},
			{
				"type": "unocc",
				"energy": 0.06421,
				"method": "rhf"
			},
			{
				"type": "unocc",
				"energy": 0.08038,
				"method": "rhf"
			},
			{
				"type": "unocc",
				"energy": 0.09095,
				"method": "rhf"
			}
		],
		"cosmo_sigma_profile": { 
			"-0.025": 0.0,
			"-0.024": 0.0,
			"-0.023": 0.0,
			"-0.022": 0.0,
			"-0.021": 0.0,
			"-0.02": 0.0,
			"-0.019": 0.472177785217,
			"-0.018": 1.12278909272,
			"-0.017": 0.93131440648,
			"-0.016": 0.51649641457,
			"-0.015": 0.639338607091,
			"-0.014": 0.603152606257,
			"-0.013": 0.812195210243,
			"-0.012": 2.00628785304,
			"-0.011": 1.56406514162,
			"-0.01": 1.38481368479,
			"-0.009": 1.43377296139,
			"-0.008": 3.45532072489,
			"-0.007": 6.16174715959,
			"-0.006": 7.88974522054,
			"-0.005": 16.4953864889,
			"-0.004": 17.5872051582,
			"-0.003": 18.1713043434,
			"-0.002": 14.7011293336,
			"-0.001": 13.1426075424,
			"0.0": 11.5000955151,
			"0.001": 8.9054479326,
			"0.002": 8.07570821674,
			"0.003": 7.79970019982,
			"0.004": 6.26519383977,
			"0.005": 5.96119961739,
			"0.006": 4.46370839679,
			"0.007": 4.26489949656,
			"0.008": 5.51167616536,
			"0.009": 4.18015442155,
			"0.01": 4.06171617701,
			"0.011": 3.80360485591,
			"0.012": 1.97951179046,
			"0.013": 2.54710456353,
			"0.014": 6.83205536817,
			"0.015": 2.36252649953,
			"0.016": 0.00192649474677,
			"0.017": 0.0,
			"0.018": 0.0,
			"0.019": 0.0,
			"0.02": 0.0,
			"0.021": 0.0,
			"0.022": 0.0,
			"0.023": 0.0,
			"0.024": 0.0,
			"0.025": 0.0
		}
	}
}
