{
	 "smiles": "NC(CCC(O)=O)C(O)=O", 
	 "Tm": 478.15, 
	 "num_atms": 19, 
	 "gaussian": { 
		 "optdone": 1, 
		 "sigma_profile": "yes", 
		 "theory": "DFT", 
		 "functional": "B3LYP", 
		 "basiset": "6-31G**", 
		 "properties": { 
			 "R2extent": 1686.509, 
			 "electric_dipole_moment_norm": 2.54130946561, 
			 "electric_quadrupole_moment_norm": 11.178220688, 
			 "total_energy": -551.631233707, 
			 "HOMO_LUMO_gap": 0.24282, 
			 "cosmo_polarized_energy": -16.19, 
			 "cosmo_cavitation_energy": 22.46, 
			 "cosmo_dispersion_energy": -16.31, 
			 "cosmo_repulsion_energy": 1.36, 
			 "cosmo_total_nonelectrostatic_energy": 7.5, 
			 "SMD_solvation_energy": 4.65 
		},
		"coords": [
			{
				"x": -1.7112457438,
				"y": -1.0707984214,
				"z": -2.1834057452,
				"element": "N" 
			},
			{
				"x": -1.5362078916,
				"y": -0.2537638072,
				"z": -0.9868667902,
				"element": "C" 
			},
			{
				"x": -1.0080302216,
				"y": -1.0869516836,
				"z": 0.2008778837,
				"element": "C" 
			},
			{
				"x": 0.1618645423,
				"y": -2.0466926491,
				"z": -0.1107630495,
				"element": "C" 
			},
			{
				"x": 1.3784402021,
				"y": -1.3587009412,
				"z": -0.6812286018,
				"element": "C" 
			},
			{
				"x": 2.4310785343,
				"y": -1.352384004,
				"z": 0.163900532,
				"element": "O" 
			},
			{
				"x": 1.4323511676,
				"y": -0.8524921828,
				"z": -1.7864850644,
				"element": "O" 
			},
			{
				"x": -0.7687110783,
				"y": 1.0459593823,
				"z": -1.2769952573,
				"element": "C" 
			},
			{
				"x": -0.1392584457,
				"y": 1.5623811206,
				"z": -0.1910646393,
				"element": "O" 
			},
			{
				"x": -0.7761786493,
				"y": 1.6088346605,
				"z": -2.3484604248,
				"element": "O" 
			},
			{
				"x": -2.2132137313,
				"y": -0.5209163134,
				"z": -2.8767356285,
				"element": "H" 
			},
			{
				"x": -0.7874437904,
				"y": -1.2228744484,
				"z": -2.5882356221,
				"element": "H" 
			},
			{
				"x": -2.5316511654,
				"y": 0.1026374525,
				"z": -0.6818935621,
				"element": "H" 
			},
			{
				"x": -0.735608248,
				"y": -0.4178560306,
				"z": 1.0209253537,
				"element": "H" 
			},
			{
				"x": -1.8341538598,
				"y": -1.713446823,
				"z": 0.550852135,
				"element": "H" 
			},
			{
				"x": 0.4369790211,
				"y": -2.5887604516,
				"z": 0.7966375627,
				"element": "H" 
			},
			{
				"x": -0.1739288963,
				"y": -2.7721383392,
				"z": -0.8583582918,
				"element": "H" 
			},
			{
				"x": 3.1476431905,
				"y": -0.8830492912,
				"z": -0.2971596874,
				"element": "H" 
			},
			{
				"x": 0.2647750637,
				"y": 2.3944127709,
				"z": -0.4913411026,
				"element": "H" 
			}
		],
		 "valence_orbital": [ 
			{
				"type": "occ",
				"energy": -0.32401,
				"method": "rhf"
			},
			{
				"type": "occ",
				"energy": -0.31605,
				"method": "rhf"
			},
			{
				"type": "occ",
				"energy": -0.28348,
				"method": "rhf"
			},
			{
				"type": "occ",
				"energy": -0.27214,
				"method": "rhf"
			},
			{
				"type": "occ",
				"energy": -0.24382,
				"method": "rhf"
			},
			{
				"type": "unocc",
				"energy": -0.001,
				"method": "rhf"
			},
			{
				"type": "unocc",
				"energy": 0.01312,
				"method": "rhf"
			},
			{
				"type": "unocc",
				"energy": 0.06906,
				"method": "rhf"
			},
			{
				"type": "unocc",
				"energy": 0.07965,
				"method": "rhf"
			},
			{
				"type": "unocc",
				"energy": 0.09581,
				"method": "rhf"
			}
		],
		"cosmo_sigma_profile": { 
			"-0.025": 0.0,
			"-0.024": 0.0,
			"-0.023": 0.0,
			"-0.022": 0.0,
			"-0.021": 0.0,
			"-0.02": 0.0,
			"-0.019": 0.05136876554,
			"-0.018": 1.43507154745,
			"-0.017": 2.09491251751,
			"-0.016": 1.39621050838,
			"-0.015": 1.35682455604,
			"-0.014": 1.81414542786,
			"-0.013": 1.04404730732,
			"-0.012": 1.61110618771,
			"-0.011": 1.72023621445,
			"-0.01": 1.40748689892,
			"-0.009": 1.74538445092,
			"-0.008": 2.2910473445,
			"-0.007": 6.56714837731,
			"-0.006": 8.87571558285,
			"-0.005": 10.8459681655,
			"-0.004": 13.4040420789,
			"-0.003": 15.2108625488,
			"-0.002": 11.3007517266,
			"-0.001": 9.8554699337,
			"0.0": 7.19398511679,
			"0.001": 5.30958452315,
			"0.002": 6.78416317589,
			"0.003": 5.85019596705,
			"0.004": 6.45521368585,
			"0.005": 4.83238994973,
			"0.006": 5.93448382313,
			"0.007": 5.21907241503,
			"0.008": 5.36971366255,
			"0.009": 5.65874948683,
			"0.01": 5.25261483342,
			"0.011": 6.48211923115,
			"0.012": 6.93266411585,
			"0.013": 0.964220595892,
			"0.014": 0.52770165665,
			"0.015": 0.602204038504,
			"0.016": 0.494442213171,
			"0.017": 0.356682992656,
			"0.018": 0.640588611714,
			"0.019": 0.0489227637922,
			"0.02": 0.0,
			"0.021": 0.0,
			"0.022": 0.0,
			"0.023": 0.0,
			"0.024": 0.0,
			"0.025": 0.0
		}
	}
}
