{
	 "smiles": "OC(P(C1=CC=CC=C1)C1=CC=CC=C1)C1=CC=CC=C1", 
	 "Tm": 430.15, 
	 "num_atms": 38, 
	 "gaussian": { 
		 "optdone": 1, 
		 "sigma_profile": "yes", 
		 "theory": "DFT", 
		 "functional": "B3LYP", 
		 "basiset": "6-31G**", 
		 "properties": { 
			 "R2extent": 6154.9935, 
			 "electric_dipole_moment_norm": 1.56589114245, 
			 "electric_quadrupole_moment_norm": 10.3988706911, 
			 "total_energy": -1150.82618837, 
			 "HOMO_LUMO_gap": 0.18159, 
			 "cosmo_polarized_energy": -11.39, 
			 "cosmo_cavitation_energy": 41.73, 
			 "cosmo_dispersion_energy": -28.44, 
			 "cosmo_repulsion_energy": 2.27, 
			 "cosmo_total_nonelectrostatic_energy": 15.57, 
			 "SMD_solvation_energy": 6.93 
		},
		"coords": [
			{
				"x": -0.3973973601,
				"y": 0.0085068053,
				"z": -3.1171325856,
				"element": "O" 
			},
			{
				"x": -0.7001339365,
				"y": 0.6919640226,
				"z": -1.9088725073,
				"element": "C" 
			},
			{
				"x": 0.9681129194,
				"y": 1.3564632029,
				"z": -1.1991076782,
				"element": "P" 
			},
			{
				"x": 1.7037038013,
				"y": -0.0518468056,
				"z": -0.2642642995,
				"element": "C" 
			},
			{
				"x": 1.1061265355,
				"y": -0.7174348057,
				"z": 0.8221499048,
				"element": "C" 
			},
			{
				"x": 1.7569738213,
				"y": -1.7820793495,
				"z": 1.4458684704,
				"element": "C" 
			},
			{
				"x": 3.0099248639,
				"y": -2.2047246396,
				"z": 0.9949985545,
				"element": "C" 
			},
			{
				"x": 3.6135545458,
				"y": -1.5572176532,
				"z": -0.0830378978,
				"element": "C" 
			},
			{
				"x": 2.9644321768,
				"y": -0.4888710828,
				"z": -0.7046318694,
				"element": "C" 
			},
			{
				"x": 0.3933949314,
				"y": 2.5589125634,
				"z": 0.0808939476,
				"element": "C" 
			},
			{
				"x": 0.7673584628,
				"y": 2.5111618736,
				"z": 1.4327420753,
				"element": "C" 
			},
			{
				"x": 0.368481282,
				"y": 3.5129355634,
				"z": 2.3209704817,
				"element": "C" 
			},
			{
				"x": -0.4132411534,
				"y": 4.5798577445,
				"z": 1.8791243629,
				"element": "C" 
			},
			{
				"x": -0.7803000769,
				"y": 4.6500303095,
				"z": 0.5330007708,
				"element": "C" 
			},
			{
				"x": -0.3701044137,
				"y": 3.6584932251,
				"z": -0.3566178786,
				"element": "C" 
			},
			{
				"x": -1.5343207119,
				"y": -0.2077943038,
				"z": -1.0345680386,
				"element": "C" 
			},
			{
				"x": -1.4704895737,
				"y": -1.6014602739,
				"z": -1.1662370292,
				"element": "C" 
			},
			{
				"x": -2.2379111317,
				"y": -2.4247028204,
				"z": -0.3412300687,
				"element": "C" 
			},
			{
				"x": -3.0730797777,
				"y": -1.8704272553,
				"z": 0.6303029135,
				"element": "C" 
			},
			{
				"x": -3.1453677037,
				"y": -0.4815519505,
				"z": 0.7642849313,
				"element": "C" 
			},
			{
				"x": -2.387838411,
				"y": 0.343561566,
				"z": -0.0668677533,
				"element": "C" 
			},
			{
				"x": 0.2477635056,
				"y": 0.5425260825,
				"z": -3.6013181084,
				"element": "H" 
			},
			{
				"x": -1.2724722079,
				"y": 1.6116637186,
				"z": -2.1083923114,
				"element": "H" 
			},
			{
				"x": 0.131749231,
				"y": -0.4061571284,
				"z": 1.1812045166,
				"element": "H" 
			},
			{
				"x": 1.2813943203,
				"y": -2.2856375983,
				"z": 2.2828428726,
				"element": "H" 
			},
			{
				"x": 3.5123397744,
				"y": -3.0351421052,
				"z": 1.4833212724,
				"element": "H" 
			},
			{
				"x": 4.588054048,
				"y": -1.8794197973,
				"z": -0.4388351981,
				"element": "H" 
			},
			{
				"x": 3.4391269965,
				"y": 0.0171601483,
				"z": -1.5409212003,
				"element": "H" 
			},
			{
				"x": 1.3755728033,
				"y": 1.6910688133,
				"z": 1.7977672408,
				"element": "H" 
			},
			{
				"x": 0.6702988963,
				"y": 3.4542028192,
				"z": 3.3631618247,
				"element": "H" 
			},
			{
				"x": -0.725368076,
				"y": 5.3553789343,
				"z": 2.572551198,
				"element": "H" 
			},
			{
				"x": -1.3768998952,
				"y": 5.4834361963,
				"z": 0.1724655492,
				"element": "H" 
			},
			{
				"x": -0.6392939267,
				"y": 3.7498441264,
				"z": -1.4062655972,
				"element": "H" 
			},
			{
				"x": -0.8249732399,
				"y": -2.0278703724,
				"z": -1.9251256813,
				"element": "H" 
			},
			{
				"x": -2.1821439705,
				"y": -3.5034974027,
				"z": -0.4588193496,
				"element": "H" 
			},
			{
				"x": -3.6696377741,
				"y": -2.5131688674,
				"z": 1.2715559159,
				"element": "H" 
			},
			{
				"x": -3.8013749786,
				"y": -0.0387060194,
				"z": 1.5086385963,
				"element": "H" 
			},
			{
				"x": -2.4576145965,
				"y": 1.422842516,
				"z": 0.0360996533,
				"element": "H" 
			}
		],
		 "valence_orbital": [ 
			{
				"type": "occ",
				"energy": -0.25307,
				"method": "rhf"
			},
			{
				"type": "occ",
				"energy": -0.25108,
				"method": "rhf"
			},
			{
				"type": "occ",
				"energy": -0.24072,
				"method": "rhf"
			},
			{
				"type": "occ",
				"energy": -0.2396,
				"method": "rhf"
			},
			{
				"type": "occ",
				"energy": -0.21039,
				"method": "rhf"
			},
			{
				"type": "unocc",
				"energy": -0.0288,
				"method": "rhf"
			},
			{
				"type": "unocc",
				"energy": -0.01408,
				"method": "rhf"
			},
			{
				"type": "unocc",
				"energy": -0.0073,
				"method": "rhf"
			},
			{
				"type": "unocc",
				"energy": -0.00172,
				"method": "rhf"
			},
			{
				"type": "unocc",
				"energy": 0.0052,
				"method": "rhf"
			}
		],
		"cosmo_sigma_profile": { 
			"-0.025": 0.0,
			"-0.024": 0.0,
			"-0.023": 0.0,
			"-0.022": 0.0,
			"-0.021": 0.0,
			"-0.02": 0.0,
			"-0.019": 0.0,
			"-0.018": 0.0,
			"-0.017": 0.0,
			"-0.016": 0.0,
			"-0.015": 0.246302197161,
			"-0.014": 0.781344296723,
			"-0.013": 0.910478674148,
			"-0.012": 0.894708164931,
			"-0.011": 0.825318410531,
			"-0.01": 0.58168382107,
			"-0.009": 0.456073270259,
			"-0.008": 1.40151966795,
			"-0.007": 3.14922198665,
			"-0.006": 14.4998465714,
			"-0.005": 26.5479441289,
			"-0.004": 32.2574965388,
			"-0.003": 29.5117765266,
			"-0.002": 23.4006311989,
			"-0.001": 24.2729152231,
			"0.0": 21.1367158871,
			"0.001": 21.5495157776,
			"0.002": 23.4752899393,
			"0.003": 25.0427131384,
			"0.004": 28.919768813,
			"0.005": 28.067921412,
			"0.006": 11.4622997252,
			"0.007": 2.63931200013,
			"0.008": 2.68000686222,
			"0.009": 2.03087447694,
			"0.01": 1.79847873525,
			"0.011": 1.89787702628,
			"0.012": 1.51418958539,
			"0.013": 1.18115781532,
			"0.014": 0.102258534799,
			"0.015": 0.0,
			"0.016": 0.0,
			"0.017": 0.0,
			"0.018": 0.0,
			"0.019": 0.0,
			"0.02": 0.0,
			"0.021": 0.0,
			"0.022": 0.0,
			"0.023": 0.0,
			"0.024": 0.0,
			"0.025": 0.0
		}
	}
}
