{
	 "smiles": "CCN(CCO)C1=CC=C(C=C1)N=NC1=CC=C(C=C1)[N+]([O-])=O", 
	 "Tm": 434.15, 
	 "num_atms": 41, 
	 "gaussian": { 
		 "optdone": 1, 
		 "sigma_profile": "yes", 
		 "theory": "DFT", 
		 "functional": "B3LYP", 
		 "basiset": "6-31G**", 
		 "properties": { 
			 "R2extent": 16431.9357, 
			 "electric_dipole_moment_norm": 10.4025329199, 
			 "electric_quadrupole_moment_norm": 28.6093917026, 
			 "total_energy": -1065.07263662, 
			 "HOMO_LUMO_gap": 0.10733, 
			 "cosmo_polarized_energy": -19.03, 
			 "cosmo_cavitation_energy": 45.75, 
			 "cosmo_dispersion_energy": -32.75, 
			 "cosmo_repulsion_energy": 2.48, 
			 "cosmo_total_nonelectrostatic_energy": 15.48, 
			 "SMD_solvation_energy": 7.82 
		},
		"coords": [
			{
				"x": -3.9959049317,
				"y": 4.1140107174,
				"z": -0.2988585443,
				"element": "C" 
			},
			{
				"x": -3.4105880883,
				"y": 3.9332964256,
				"z": 1.1079546827,
				"element": "C" 
			},
			{
				"x": -3.4644025724,
				"y": 2.5569997359,
				"z": 1.6115392724,
				"element": "N" 
			},
			{
				"x": -4.6939326416,
				"y": 2.0897771652,
				"z": 2.2566788469,
				"element": "C" 
			},
			{
				"x": -5.5353033768,
				"y": 3.1666649479,
				"z": 2.9554910821,
				"element": "C" 
			},
			{
				"x": -6.5729252724,
				"y": 2.5532817683,
				"z": 3.7033357473,
				"element": "O" 
			},
			{
				"x": -2.5626614146,
				"y": 1.6116288996,
				"z": 1.148791352,
				"element": "C" 
			},
			{
				"x": -2.7529611732,
				"y": 0.2261456822,
				"z": 1.3890288816,
				"element": "C" 
			},
			{
				"x": -1.8223679575,
				"y": -0.7060583072,
				"z": 0.959594811,
				"element": "C" 
			},
			{
				"x": -0.6668046858,
				"y": -0.3218327877,
				"z": 0.2620451126,
				"element": "C" 
			},
			{
				"x": -0.4744840312,
				"y": 1.0502181616,
				"z": -0.0002409805,
				"element": "C" 
			},
			{
				"x": -1.3946612786,
				"y": 1.9873435811,
				"z": 0.423130471,
				"element": "C" 
			},
			{
				"x": 0.1968844075,
				"y": -1.3494200581,
				"z": -0.1236567684,
				"element": "N" 
			},
			{
				"x": 1.233165582,
				"y": -0.9837909421,
				"z": -0.7579054219,
				"element": "N" 
			},
			{
				"x": 2.0866312848,
				"y": -2.0467345239,
				"z": -1.1322011851,
				"element": "C" 
			},
			{
				"x": 3.2422135588,
				"y": -1.674047768,
				"z": -1.8385958283,
				"element": "C" 
			},
			{
				"x": 4.1557555129,
				"y": -2.6325105706,
				"z": -2.2595197512,
				"element": "C" 
			},
			{
				"x": 3.8998366485,
				"y": -3.9714827349,
				"z": -1.965030316,
				"element": "C" 
			},
			{
				"x": 2.7575348538,
				"y": -4.3699650391,
				"z": -1.2629248531,
				"element": "C" 
			},
			{
				"x": 1.851794209,
				"y": -3.406503149,
				"z": -0.8471095832,
				"element": "C" 
			},
			{
				"x": 4.857014376,
				"y": -4.9920326931,
				"z": -2.4047690213,
				"element": "N" 
			},
			{
				"x": 5.8550040664,
				"y": -4.6150109256,
				"z": -3.0214031243,
				"element": "O" 
			},
			{
				"x": 4.6077438591,
				"y": -6.1675957771,
				"z": -2.1322771109,
				"element": "O" 
			},
			{
				"x": -3.9156756896,
				"y": 5.1597676578,
				"z": -0.6136757462,
				"element": "H" 
			},
			{
				"x": -5.0543571348,
				"y": 3.834725668,
				"z": -0.3253554342,
				"element": "H" 
			},
			{
				"x": -3.4665021439,
				"y": 3.4953134637,
				"z": -1.0289279774,
				"element": "H" 
			},
			{
				"x": -2.373190062,
				"y": 4.2753413538,
				"z": 1.1355219476,
				"element": "H" 
			},
			{
				"x": -3.9378349884,
				"y": 4.5757763662,
				"z": 1.814733227,
				"element": "H" 
			},
			{
				"x": -4.4303962384,
				"y": 1.370229908,
				"z": 3.037039757,
				"element": "H" 
			},
			{
				"x": -5.3387623343,
				"y": 1.5547733307,
				"z": 1.5368387453,
				"element": "H" 
			},
			{
				"x": -4.9229649662,
				"y": 3.7135210338,
				"z": 3.6792452653,
				"element": "H" 
			},
			{
				"x": -5.9417672494,
				"y": 3.8961854935,
				"z": 2.240311128,
				"element": "H" 
			},
			{
				"x": -7.2098255257,
				"y": 2.1756669538,
				"z": 3.0828370056,
				"element": "H" 
			},
			{
				"x": -3.6330514258,
				"y": -0.1283461296,
				"z": 1.9078494497,
				"element": "H" 
			},
			{
				"x": -1.9762330015,
				"y": -1.7636348441,
				"z": 1.1508236763,
				"element": "H" 
			},
			{
				"x": 0.411005483,
				"y": 1.3559598547,
				"z": -0.5459875865,
				"element": "H" 
			},
			{
				"x": -1.2063918292,
				"y": 3.0273563412,
				"z": 0.1902228292,
				"element": "H" 
			},
			{
				"x": 3.3994241397,
				"y": -0.6206780291,
				"z": -2.0447413875,
				"element": "H" 
			},
			{
				"x": 5.05292498,
				"y": -2.3692408046,
				"z": -2.8051982164,
				"element": "H" 
			},
			{
				"x": 2.6042408033,
				"y": -5.4223698998,
				"z": -1.0586708354,
				"element": "H" 
			},
			{
				"x": 0.9561762483,
				"y": -3.6771295267,
				"z": -0.3011636186,
				"element": "H" 
			}
		],
		 "valence_orbital": [ 
			{
				"type": "occ",
				"energy": -0.26924,
				"method": "rhf"
			},
			{
				"type": "occ",
				"energy": -0.26524,
				"method": "rhf"
			},
			{
				"type": "occ",
				"energy": -0.26229,
				"method": "rhf"
			},
			{
				"type": "occ",
				"energy": -0.22901,
				"method": "rhf"
			},
			{
				"type": "occ",
				"energy": -0.20493,
				"method": "rhf"
			},
			{
				"type": "unocc",
				"energy": -0.0976,
				"method": "rhf"
			},
			{
				"type": "unocc",
				"energy": -0.05598,
				"method": "rhf"
			},
			{
				"type": "unocc",
				"energy": -0.01591,
				"method": "rhf"
			},
			{
				"type": "unocc",
				"energy": -0.0122,
				"method": "rhf"
			},
			{
				"type": "unocc",
				"energy": 0.01808,
				"method": "rhf"
			}
		],
		"cosmo_sigma_profile": { 
			"-0.025": 0.0,
			"-0.024": 0.0,
			"-0.023": 0.0,
			"-0.022": 0.0,
			"-0.021": 0.0,
			"-0.02": 0.0,
			"-0.019": 0.0,
			"-0.018": 0.0,
			"-0.017": 0.0,
			"-0.016": 0.367694800542,
			"-0.015": 1.42790854548,
			"-0.014": 0.899076536654,
			"-0.013": 1.09025731183,
			"-0.012": 0.900252096692,
			"-0.011": 1.310467314,
			"-0.01": 0.910545302011,
			"-0.009": 0.771152028501,
			"-0.008": 2.76420494443,
			"-0.007": 8.58552487062,
			"-0.006": 17.7364294012,
			"-0.005": 26.9674224877,
			"-0.004": 31.3102324069,
			"-0.003": 27.5678916956,
			"-0.002": 25.1144740752,
			"-0.001": 24.5396489164,
			"0.0": 27.4280646789,
			"0.001": 32.6804929158,
			"0.002": 30.8489384756,
			"0.003": 22.2365280877,
			"0.004": 19.3941095136,
			"0.005": 9.28295237637,
			"0.006": 8.96010122592,
			"0.007": 9.63132372029,
			"0.008": 12.2285809237,
			"0.009": 6.48559624936,
			"0.01": 4.93277773358,
			"0.011": 2.19428454699,
			"0.012": 1.14133597104,
			"0.013": 1.90546144465,
			"0.014": 1.95250081246,
			"0.015": 0.0699191184764,
			"0.016": 0.0,
			"0.017": 0.0,
			"0.018": 0.0,
			"0.019": 0.0,
			"0.02": 0.0,
			"0.021": 0.0,
			"0.022": 0.0,
			"0.023": 0.0,
			"0.024": 0.0,
			"0.025": 0.0
		}
	}
}
