{
	 "smiles": "CCOC(=O)C1=CN=C2SCCN2C1=O", 
	 "Tm": 449.15, 
	 "num_atms": 25, 
	 "gaussian": { 
		 "optdone": 1, 
		 "sigma_profile": "yes", 
		 "theory": "DFT", 
		 "functional": "B3LYP", 
		 "basiset": "6-31G**", 
		 "properties": { 
			 "R2extent": 4787.0201, 
			 "electric_dipole_moment_norm": 3.190497538, 
			 "electric_quadrupole_moment_norm": 34.4201776808, 
			 "total_energy": -1082.36640371, 
			 "HOMO_LUMO_gap": 0.17482, 
			 "cosmo_polarized_energy": -18.68, 
			 "cosmo_cavitation_energy": 30.7, 
			 "cosmo_dispersion_energy": -23.27, 
			 "cosmo_repulsion_energy": 1.78, 
			 "cosmo_total_nonelectrostatic_energy": 9.21, 
			 "SMD_solvation_energy": 4.52 
		},
		"coords": [
			{
				"x": -2.9021400707,
				"y": -0.3038363578,
				"z": -3.1889127677,
				"element": "C" 
			},
			{
				"x": -1.384679267,
				"y": -0.3437011714,
				"z": -3.2933740464,
				"element": "C" 
			},
			{
				"x": -0.7592445066,
				"y": 0.0163972155,
				"z": -2.040379881,
				"element": "O" 
			},
			{
				"x": -0.5971624677,
				"y": -0.9911669989,
				"z": -1.1386225866,
				"element": "C" 
			},
			{
				"x": -0.9482407524,
				"y": -2.1328988276,
				"z": -1.3444081933,
				"element": "O" 
			},
			{
				"x": 0.0690407799,
				"y": -0.5016358297,
				"z": 0.0967893411,
				"element": "C" 
			},
			{
				"x": 0.5200828273,
				"y": 0.797383171,
				"z": 0.2003371616,
				"element": "C" 
			},
			{
				"x": 1.1636845047,
				"y": 1.335175726,
				"z": 1.2736286483,
				"element": "N" 
			},
			{
				"x": 1.3427943064,
				"y": 0.5189046767,
				"z": 2.2764543902,
				"element": "C" 
			},
			{
				"x": 2.1428911073,
				"y": 1.0141000746,
				"z": 3.773507691,
				"element": "S" 
			},
			{
				"x": 2.2476814327,
				"y": -0.7466952117,
				"z": 4.3197914087,
				"element": "C" 
			},
			{
				"x": 1.1278446976,
				"y": -1.485778822,
				"z": 3.5776751263,
				"element": "C" 
			},
			{
				"x": 0.9421960394,
				"y": -0.7789424107,
				"z": 2.3068346148,
				"element": "N" 
			},
			{
				"x": 0.2355500531,
				"y": -1.4095687783,
				"z": 1.2307706292,
				"element": "C" 
			},
			{
				"x": -0.1382656429,
				"y": -2.5596255507,
				"z": 1.3756531688,
				"element": "O" 
			},
			{
				"x": -3.2575155636,
				"y": -1.0634619004,
				"z": -2.4886610691,
				"element": "H" 
			},
			{
				"x": -3.244312368,
				"y": 0.6790185418,
				"z": -2.8512706794,
				"element": "H" 
			},
			{
				"x": -3.3473745238,
				"y": -0.504773922,
				"z": -4.1691968167,
				"element": "H" 
			},
			{
				"x": -1.0378063852,
				"y": -1.3368386344,
				"z": -3.5882759807,
				"element": "H" 
			},
			{
				"x": -1.0126765469,
				"y": 0.3976635629,
				"z": -4.0050385586,
				"element": "H" 
			},
			{
				"x": 0.36920288,
				"y": 1.4736341471,
				"z": -0.6344244177,
				"element": "H" 
			},
			{
				"x": 3.2340497674,
				"y": -1.1347382325,
				"z": 4.0553240069,
				"element": "H" 
			},
			{
				"x": 2.1213574933,
				"y": -0.7961158324,
				"z": 5.4016557398,
				"element": "H" 
			},
			{
				"x": 0.1857919718,
				"y": -1.4628795008,
				"z": 4.1373670712,
				"element": "H" 
			},
			{
				"x": 1.3723502341,
				"y": -2.5287191343,
				"z": 3.3714759995,
				"element": "H" 
			}
		],
		 "valence_orbital": [ 
			{
				"type": "occ",
				"energy": -0.29164,
				"method": "rhf"
			},
			{
				"type": "occ",
				"energy": -0.27754,
				"method": "rhf"
			},
			{
				"type": "occ",
				"energy": -0.27435,
				"method": "rhf"
			},
			{
				"type": "occ",
				"energy": -0.25216,
				"method": "rhf"
			},
			{
				"type": "occ",
				"energy": -0.24252,
				"method": "rhf"
			},
			{
				"type": "unocc",
				"energy": -0.0677,
				"method": "rhf"
			},
			{
				"type": "unocc",
				"energy": -0.01376,
				"method": "rhf"
			},
			{
				"type": "unocc",
				"energy": -0.01109,
				"method": "rhf"
			},
			{
				"type": "unocc",
				"energy": 0.031,
				"method": "rhf"
			},
			{
				"type": "unocc",
				"energy": 0.05852,
				"method": "rhf"
			}
		],
		"cosmo_sigma_profile": { 
			"-0.025": 0.0,
			"-0.024": 0.0,
			"-0.023": 0.0,
			"-0.022": 0.0,
			"-0.021": 0.0,
			"-0.02": 0.0,
			"-0.019": 0.0,
			"-0.018": 0.0,
			"-0.017": 0.0,
			"-0.016": 0.0,
			"-0.015": 0.0,
			"-0.014": 0.0,
			"-0.013": 0.0,
			"-0.012": 0.0,
			"-0.011": 0.0,
			"-0.01": 0.0,
			"-0.009": 0.98548841905,
			"-0.008": 8.35916310405,
			"-0.007": 16.1063682845,
			"-0.006": 14.7114026754,
			"-0.005": 16.80970143,
			"-0.004": 19.160547999,
			"-0.003": 19.8054171219,
			"-0.002": 21.8736230231,
			"-0.001": 20.6306551776,
			"0.0": 18.6389705754,
			"0.001": 13.8873453871,
			"0.002": 10.3220580316,
			"0.003": 9.1909870548,
			"0.004": 8.66435257915,
			"0.005": 7.45926502795,
			"0.006": 4.40498687696,
			"0.007": 2.96960912659,
			"0.008": 3.04961875676,
			"0.009": 3.06415012684,
			"0.01": 4.59382371303,
			"0.011": 4.23301471474,
			"0.012": 7.37640882699,
			"0.013": 4.27680362245,
			"0.014": 2.40719868092,
			"0.015": 1.72264171442,
			"0.016": 0.926857431716,
			"0.017": 1.09301338244,
			"0.018": 0.0382013616564,
			"0.019": 0.0,
			"0.02": 0.0,
			"0.021": 0.0,
			"0.022": 0.0,
			"0.023": 0.0,
			"0.024": 0.0,
			"0.025": 0.0
		}
	}
}
