{
	 "smiles": "NC1=NC(=O)N(C=N1)C1OC(CO)C(O)C1O", 
	 "Tm": 502.15, 
	 "num_atms": 29, 
	 "gaussian": { 
		 "optdone": 1, 
		 "sigma_profile": "yes", 
		 "theory": "DFT", 
		 "functional": "B3LYP", 
		 "basiset": "6-31G**", 
		 "properties": { 
			 "R2extent": 4866.1878, 
			 "electric_dipole_moment_norm": 6.22394573482, 
			 "electric_quadrupole_moment_norm": 15.6411075202, 
			 "total_energy": -907.20493253, 
			 "HOMO_LUMO_gap": 0.21288, 
			 "cosmo_polarized_energy": -26.56, 
			 "cosmo_cavitation_energy": 30.98, 
			 "cosmo_dispersion_energy": -23.42, 
			 "cosmo_repulsion_energy": 1.82, 
			 "cosmo_total_nonelectrostatic_energy": 9.38, 
			 "SMD_solvation_energy": 2.71 
		},
		"coords": [
			{
				"x": -3.7227786385,
				"y": -4.6624106106,
				"z": -0.2968792311,
				"element": "N" 
			},
			{
				"x": -3.1052090132,
				"y": -3.4657319596,
				"z": -0.4007116839,
				"element": "C" 
			},
			{
				"x": -2.8859905324,
				"y": -2.9799970698,
				"z": -1.6096624434,
				"element": "N" 
			},
			{
				"x": -2.2634809726,
				"y": -1.7743857648,
				"z": -1.7220651533,
				"element": "C" 
			},
			{
				"x": -1.9415835219,
				"y": -1.2215595369,
				"z": -2.7630467502,
				"element": "O" 
			},
			{
				"x": -1.9659140176,
				"y": -1.1058241387,
				"z": -0.4743246753,
				"element": "N" 
			},
			{
				"x": -2.2126805335,
				"y": -1.7190070699,
				"z": 0.7034778428,
				"element": "C" 
			},
			{
				"x": -2.7770925245,
				"y": -2.8887858019,
				"z": 0.8104499569,
				"element": "N" 
			},
			{
				"x": -1.2967259413,
				"y": 0.1879416298,
				"z": -0.5625972266,
				"element": "C" 
			},
			{
				"x": -1.59429587,
				"y": 0.9515727151,
				"z": 0.6020666189,
				"element": "O" 
			},
			{
				"x": -0.4571883172,
				"y": 1.7331212204,
				"z": 1.0068001185,
				"element": "C" 
			},
			{
				"x": -0.0776415822,
				"y": 1.4001901644,
				"z": 2.4434817359,
				"element": "C" 
			},
			{
				"x": 0.140845802,
				"y": -0.0121850657,
				"z": 2.5686566452,
				"element": "O" 
			},
			{
				"x": 0.6520963913,
				"y": 1.4656216843,
				"z": -0.0609768555,
				"element": "C" 
			},
			{
				"x": 1.9654327788,
				"y": 1.4750023653,
				"z": 0.4427477255,
				"element": "O" 
			},
			{
				"x": 0.2410138698,
				"y": 0.1004705354,
				"z": -0.6536227313,
				"element": "C" 
			},
			{
				"x": 0.8216691341,
				"y": -0.9564083826,
				"z": 0.0841541523,
				"element": "O" 
			},
			{
				"x": -3.9577642516,
				"y": -5.1659527804,
				"z": -1.1359733626,
				"element": "H" 
			},
			{
				"x": -3.8590314237,
				"y": -5.0695119305,
				"z": 0.6126747712,
				"element": "H" 
			},
			{
				"x": -1.9239589527,
				"y": -1.173796765,
				"z": 1.5968046645,
				"element": "H" 
			},
			{
				"x": -1.6919295508,
				"y": 0.6693118346,
				"z": -1.4627471154,
				"element": "H" 
			},
			{
				"x": -0.7476968958,
				"y": 2.7919034895,
				"z": 0.9945522852,
				"element": "H" 
			},
			{
				"x": 0.8293523876,
				"y": 1.9627388408,
				"z": 2.6937965635,
				"element": "H" 
			},
			{
				"x": -0.8926931902,
				"y": 1.7071503745,
				"z": 3.1109738411,
				"element": "H" 
			},
			{
				"x": 0.5486840988,
				"y": -0.1968208965,
				"z": 3.4230776923,
				"element": "H" 
			},
			{
				"x": 0.5763807415,
				"y": 2.2395127065,
				"z": -0.833959053,
				"element": "H" 
			},
			{
				"x": 2.2049240516,
				"y": 0.5378034383,
				"z": 0.5447727977,
				"element": "H" 
			},
			{
				"x": 0.5552126646,
				"y": -0.0332471926,
				"z": -1.6896585399,
				"element": "H" 
			},
			{
				"x": 0.5754438093,
				"y": -0.8419160337,
				"z": 1.0250374099,
				"element": "H" 
			}
		],
		 "valence_orbital": [ 
			{
				"type": "occ",
				"energy": -0.27383,
				"method": "rhf"
			},
			{
				"type": "occ",
				"energy": -0.26017,
				"method": "rhf"
			},
			{
				"type": "occ",
				"energy": -0.24987,
				"method": "rhf"
			},
			{
				"type": "occ",
				"energy": -0.24714,
				"method": "rhf"
			},
			{
				"type": "occ",
				"energy": -0.24219,
				"method": "rhf"
			},
			{
				"type": "unocc",
				"energy": -0.02931,
				"method": "rhf"
			},
			{
				"type": "unocc",
				"energy": 0.01679,
				"method": "rhf"
			},
			{
				"type": "unocc",
				"energy": 0.03281,
				"method": "rhf"
			},
			{
				"type": "unocc",
				"energy": 0.0782,
				"method": "rhf"
			},
			{
				"type": "unocc",
				"energy": 0.08588,
				"method": "rhf"
			}
		],
		"cosmo_sigma_profile": { 
			"-0.025": 0.0,
			"-0.024": 0.0,
			"-0.023": 0.0,
			"-0.022": 0.0,
			"-0.021": 0.0,
			"-0.02": 0.0,
			"-0.019": 0.0,
			"-0.018": 0.305554630001,
			"-0.017": 1.12917227831,
			"-0.016": 1.30053042369,
			"-0.015": 1.49001248304,
			"-0.014": 4.26769410435,
			"-0.013": 2.81006917749,
			"-0.012": 1.70470426221,
			"-0.011": 3.44249406371,
			"-0.01": 3.72257518511,
			"-0.009": 4.42220964648,
			"-0.008": 4.39612425995,
			"-0.007": 7.73402207969,
			"-0.006": 16.6725288072,
			"-0.005": 18.9766968373,
			"-0.004": 16.9881525569,
			"-0.003": 14.6115957332,
			"-0.002": 12.7131033479,
			"-0.001": 10.5869182965,
			"0.0": 11.1627544325,
			"0.001": 11.0602378495,
			"0.002": 12.3391179555,
			"0.003": 10.8146461857,
			"0.004": 7.99106759585,
			"0.005": 6.47981958411,
			"0.006": 5.05979982098,
			"0.007": 5.11856370858,
			"0.008": 5.81811831178,
			"0.009": 4.92836716879,
			"0.01": 5.94751659804,
			"0.011": 7.08277470397,
			"0.012": 5.42545129373,
			"0.013": 8.80292756179,
			"0.014": 4.8134003555,
			"0.015": 3.05175273102,
			"0.016": 0.710636677598,
			"0.017": 0.0,
			"0.018": 0.0,
			"0.019": 0.0,
			"0.02": 0.0,
			"0.021": 0.0,
			"0.022": 0.0,
			"0.023": 0.0,
			"0.024": 0.0,
			"0.025": 0.0
		}
	}
}
