{
	 "smiles": "OC(=O)C1(CCCCC1)C1=CC=C(Br)C=C1", 
	 "Tm": 453.15, 
	 "num_atms": 31, 
	 "gaussian": { 
		 "optdone": 1, 
		 "sigma_profile": "yes", 
		 "theory": "DFT", 
		 "functional": "B3LYP", 
		 "basiset": "6-31G**", 
		 "properties": { 
			 "R2extent": 7558.3289, 
			 "electric_dipole_moment_norm": 2.36258487255, 
			 "electric_quadrupole_moment_norm": 12.653484507, 
			 "total_energy": -3226.29551146, 
			 "HOMO_LUMO_gap": 0.21684, 
			 "cosmo_polarized_energy": -9.75, 
			 "cosmo_cavitation_energy": 34.13, 
			 "cosmo_dispersion_energy": -25.02, 
			 "cosmo_repulsion_energy": 1.95, 
			 "cosmo_total_nonelectrostatic_energy": 11.07, 
			 "SMD_solvation_energy": 4.98 
		},
		"coords": [
			{
				"x": 0.947764755,
				"y": 1.1359613599,
				"z": -3.1457316665,
				"element": "O" 
			},
			{
				"x": 1.430136342,
				"y": 0.1440940074,
				"z": -2.3515021642,
				"element": "C" 
			},
			{
				"x": 2.4384461616,
				"y": -0.460647178,
				"z": -2.6423990424,
				"element": "O" 
			},
			{
				"x": 0.6013953007,
				"y": -0.095257253,
				"z": -1.0764617444,
				"element": "C" 
			},
			{
				"x": -0.9245900216,
				"y": 0.1836417014,
				"z": -1.2970628407,
				"element": "C" 
			},
			{
				"x": -1.6631285004,
				"y": -1.0502591572,
				"z": -1.830088716,
				"element": "C" 
			},
			{
				"x": -1.6556179275,
				"y": -2.1938856331,
				"z": -0.787991945,
				"element": "C" 
			},
			{
				"x": -0.3883685771,
				"y": -2.1479148296,
				"z": 0.0987219935,
				"element": "C" 
			},
			{
				"x": 0.8033129026,
				"y": -1.591495091,
				"z": -0.6905306304,
				"element": "C" 
			},
			{
				"x": 1.1323093404,
				"y": 0.9014845795,
				"z": -0.0187923958,
				"element": "C" 
			},
			{
				"x": 1.6210154919,
				"y": 0.4934031613,
				"z": 1.2291790464,
				"element": "C" 
			},
			{
				"x": 2.0492306611,
				"y": 1.4184882188,
				"z": 2.184140523,
				"element": "C" 
			},
			{
				"x": 1.9953656446,
				"y": 2.7769697147,
				"z": 1.8917414749,
				"element": "C" 
			},
			{
				"x": 2.5839358019,
				"y": 4.0507576497,
				"z": 3.1901450944,
				"element": "Br" 
			},
			{
				"x": 1.5163647443,
				"y": 3.2180962646,
				"z": 0.660026837,
				"element": "C" 
			},
			{
				"x": 1.0879312861,
				"y": 2.2824214651,
				"z": -0.2793217505,
				"element": "C" 
			},
			{
				"x": 1.5821351356,
				"y": 1.2142129351,
				"z": -3.8786398529,
				"element": "H" 
			},
			{
				"x": -1.0537995472,
				"y": 1.0380073196,
				"z": -1.9637492491,
				"element": "H" 
			},
			{
				"x": -1.3590481017,
				"y": 0.4715019711,
				"z": -0.3332172192,
				"element": "H" 
			},
			{
				"x": -2.6917463053,
				"y": -0.7833506404,
				"z": -2.0956965465,
				"element": "H" 
			},
			{
				"x": -1.187333605,
				"y": -1.3816961065,
				"z": -2.7619588562,
				"element": "H" 
			},
			{
				"x": -1.7146444635,
				"y": -3.1590354754,
				"z": -1.3043611422,
				"element": "H" 
			},
			{
				"x": -2.5476371708,
				"y": -2.1279186584,
				"z": -0.1543252528,
				"element": "H" 
			},
			{
				"x": -0.1527298031,
				"y": -3.1492887213,
				"z": 0.4751730165,
				"element": "H" 
			},
			{
				"x": -0.5719499057,
				"y": -1.5252814749,
				"z": 0.9828212517,
				"element": "H" 
			},
			{
				"x": 0.9155943546,
				"y": -2.1706440722,
				"z": -1.6120981675,
				"element": "H" 
			},
			{
				"x": 1.7493449151,
				"y": -1.7249770898,
				"z": -0.1618167467,
				"element": "H" 
			},
			{
				"x": 1.6735357838,
				"y": -0.5578303652,
				"z": 1.4849213312,
				"element": "H" 
			},
			{
				"x": 2.4219260909,
				"y": 1.0799416223,
				"z": 3.1442766423,
				"element": "H" 
			},
			{
				"x": 1.478675415,
				"y": 4.2781820782,
				"z": 0.4358173208,
				"element": "H" 
			},
			{
				"x": 0.7227738017,
				"y": 2.6378176976,
				"z": -1.2367186026,
				"element": "H" 
			}
		],
		 "valence_orbital": [ 
			{
				"type": "occ",
				"energy": -0.30351,
				"method": "rhf"
			},
			{
				"type": "occ",
				"energy": -0.28602,
				"method": "rhf"
			},
			{
				"type": "occ",
				"energy": -0.27625,
				"method": "rhf"
			},
			{
				"type": "occ",
				"energy": -0.26295,
				"method": "rhf"
			},
			{
				"type": "occ",
				"energy": -0.23807,
				"method": "rhf"
			},
			{
				"type": "unocc",
				"energy": -0.02123,
				"method": "rhf"
			},
			{
				"type": "unocc",
				"energy": -0.01644,
				"method": "rhf"
			},
			{
				"type": "unocc",
				"energy": 0.00848,
				"method": "rhf"
			},
			{
				"type": "unocc",
				"energy": 0.01369,
				"method": "rhf"
			},
			{
				"type": "unocc",
				"energy": 0.06692,
				"method": "rhf"
			}
		],
		"cosmo_sigma_profile": { 
			"-0.025": 0.0,
			"-0.024": 0.0,
			"-0.023": 0.0,
			"-0.022": 0.0,
			"-0.021": 0.0,
			"-0.02": 0.0,
			"-0.019": 0.027705327308,
			"-0.018": 0.718085137442,
			"-0.017": 0.849343682576,
			"-0.016": 1.00140779725,
			"-0.015": 0.554226457457,
			"-0.014": 0.691924209968,
			"-0.013": 0.31854964134,
			"-0.012": 0.816618404213,
			"-0.011": 1.14535861772,
			"-0.01": 0.949581367148,
			"-0.009": 0.363480005006,
			"-0.008": 0.625068302716,
			"-0.007": 3.37905545455,
			"-0.006": 7.03520808873,
			"-0.005": 9.59028559621,
			"-0.004": 10.5610105334,
			"-0.003": 22.0780393865,
			"-0.002": 32.3227569212,
			"-0.001": 36.0717105709,
			"0.0": 27.9787956732,
			"0.001": 27.1029146689,
			"0.002": 18.9708266387,
			"0.003": 20.1848332629,
			"0.004": 19.6755151317,
			"0.005": 10.4538179581,
			"0.006": 2.65647932089,
			"0.007": 2.08846730261,
			"0.008": 1.78881958787,
			"0.009": 1.6187739336,
			"0.01": 1.65412077235,
			"0.011": 3.72924420796,
			"0.012": 4.17076446371,
			"0.013": 0.342379458714,
			"0.014": 0.0,
			"0.015": 0.0,
			"0.016": 0.0,
			"0.017": 0.0,
			"0.018": 0.0,
			"0.019": 0.0,
			"0.02": 0.0,
			"0.021": 0.0,
			"0.022": 0.0,
			"0.023": 0.0,
			"0.024": 0.0,
			"0.025": 0.0
		}
	}
}
