{
	 "smiles": "CCCCCCC(=O)CCCCCC", 
	 "Tm": 306.15, 
	 "num_atms": 40, 
	 "gaussian": { 
		 "optdone": 1, 
		 "sigma_profile": "yes", 
		 "theory": "DFT", 
		 "functional": "B3LYP", 
		 "basiset": "6-31G**", 
		 "properties": { 
			 "R2extent": 6368.1959, 
			 "electric_dipole_moment_norm": 2.39568192797, 
			 "electric_quadrupole_moment_norm": 4.17463193348, 
			 "total_energy": -586.310830728, 
			 "HOMO_LUMO_gap": 0.23258, 
			 "cosmo_polarized_energy": -6.87, 
			 "cosmo_cavitation_energy": 39.87, 
			 "cosmo_dispersion_energy": -27.4, 
			 "cosmo_repulsion_energy": 2.25, 
			 "cosmo_total_nonelectrostatic_energy": 14.72, 
			 "SMD_solvation_energy": 6.11 
		},
		"coords": [
			{
				"x": -4.6143456817,
				"y": -4.855319164,
				"z": -0.3566827635,
				"element": "C" 
			},
			{
				"x": -4.0462686367,
				"y": -4.0423191807,
				"z": 0.8129426083,
				"element": "C" 
			},
			{
				"x": -2.6304504246,
				"y": -3.4874660948,
				"z": 0.5790305966,
				"element": "C" 
			},
			{
				"x": -2.5378703168,
				"y": -2.4248233315,
				"z": -0.5266355375,
				"element": "C" 
			},
			{
				"x": -1.1223163956,
				"y": -1.8808220203,
				"z": -0.7775528151,
				"element": "C" 
			},
			{
				"x": -0.5383420766,
				"y": -1.078062,
				"z": 0.3879816222,
				"element": "C" 
			},
			{
				"x": 0.792268023,
				"y": -0.4032854862,
				"z": 0.0691200901,
				"element": "C" 
			},
			{
				"x": 1.2307656716,
				"y": -0.3500543035,
				"z": -1.0658128,
				"element": "O" 
			},
			{
				"x": 1.5487988451,
				"y": 0.1911661934,
				"z": 1.2553991081,
				"element": "C" 
			},
			{
				"x": 2.7129964796,
				"y": 1.107346738,
				"z": 0.8562548561,
				"element": "C" 
			},
			{
				"x": 2.3145894137,
				"y": 2.4756345349,
				"z": 0.2605145249,
				"element": "C" 
			},
			{
				"x": 2.1391018314,
				"y": 3.6255801327,
				"z": 1.2712503909,
				"element": "C" 
			},
			{
				"x": 0.9732939612,
				"y": 3.5221790849,
				"z": 2.2704342098,
				"element": "C" 
			},
			{
				"x": -0.4169901621,
				"y": 3.5252529403,
				"z": 1.6241901087,
				"element": "C" 
			},
			{
				"x": -4.7331561349,
				"y": -4.2481927329,
				"z": -1.259809211,
				"element": "H" 
			},
			{
				"x": -5.5983603296,
				"y": -5.2663998721,
				"z": -0.1080545504,
				"element": "H" 
			},
			{
				"x": -3.9572851296,
				"y": -5.6963905229,
				"z": -0.6074492219,
				"element": "H" 
			},
			{
				"x": -4.0298885151,
				"y": -4.675577429,
				"z": 1.7092445337,
				"element": "H" 
			},
			{
				"x": -4.725610097,
				"y": -3.2100550019,
				"z": 1.0439199386,
				"element": "H" 
			},
			{
				"x": -1.9522931375,
				"y": -4.3188993906,
				"z": 0.3365483712,
				"element": "H" 
			},
			{
				"x": -2.2656408517,
				"y": -3.0646097267,
				"z": 1.524078665,
				"element": "H" 
			},
			{
				"x": -3.2116279406,
				"y": -1.5902481113,
				"z": -0.281618906,
				"element": "H" 
			},
			{
				"x": -2.9108697947,
				"y": -2.8468801174,
				"z": -1.4676007107,
				"element": "H" 
			},
			{
				"x": -0.44436242,
				"y": -2.7101567366,
				"z": -1.0168327407,
				"element": "H" 
			},
			{
				"x": -1.1263173539,
				"y": -1.2395500503,
				"z": -1.6648927957,
				"element": "H" 
			},
			{
				"x": -0.4062546083,
				"y": -1.6936939194,
				"z": 1.2875336079,
				"element": "H" 
			},
			{
				"x": -1.2352222069,
				"y": -0.2801791595,
				"z": 0.6906399574,
				"element": "H" 
			},
			{
				"x": 0.8308395131,
				"y": 0.6882930681,
				"z": 1.918393409,
				"element": "H" 
			},
			{
				"x": 1.9255675587,
				"y": -0.6654228305,
				"z": 1.8354800129,
				"element": "H" 
			},
			{
				"x": 3.3599160068,
				"y": 1.2638782217,
				"z": 1.729092102,
				"element": "H" 
			},
			{
				"x": 3.3093603537,
				"y": 0.563316437,
				"z": 0.1170838758,
				"element": "H" 
			},
			{
				"x": 1.4150219558,
				"y": 2.3607759808,
				"z": -0.3554376706,
				"element": "H" 
			},
			{
				"x": 3.1020290802,
				"y": 2.7817751331,
				"z": -0.4387193532,
				"element": "H" 
			},
			{
				"x": 3.0747576898,
				"y": 3.7319678763,
				"z": 1.8377419453,
				"element": "H" 
			},
			{
				"x": 2.02307418,
				"y": 4.5615089789,
				"z": 0.7067747615,
				"element": "H" 
			},
			{
				"x": 1.0411914931,
				"y": 4.3720717923,
				"z": 2.9619743987,
				"element": "H" 
			},
			{
				"x": 1.0914891579,
				"y": 2.6274956539,
				"z": 2.8952552909,
				"element": "H" 
			},
			{
				"x": -0.5676974234,
				"y": 2.6629227032,
				"z": 0.965935777,
				"element": "H" 
			},
			{
				"x": -0.5653533893,
				"y": 4.4260661897,
				"z": 1.0175029116,
				"element": "H" 
			},
			{
				"x": -1.2067381881,
				"y": 3.5024755228,
				"z": 2.3825814021,
				"element": "H" 
			}
		],
		 "valence_orbital": [ 
			{
				"type": "occ",
				"energy": -0.31272,
				"method": "rhf"
			},
			{
				"type": "occ",
				"energy": -0.30829,
				"method": "rhf"
			},
			{
				"type": "occ",
				"energy": -0.30687,
				"method": "rhf"
			},
			{
				"type": "occ",
				"energy": -0.3061,
				"method": "rhf"
			},
			{
				"type": "occ",
				"energy": -0.24059,
				"method": "rhf"
			},
			{
				"type": "unocc",
				"energy": -0.00801,
				"method": "rhf"
			},
			{
				"type": "unocc",
				"energy": 0.06626,
				"method": "rhf"
			},
			{
				"type": "unocc",
				"energy": 0.08863,
				"method": "rhf"
			},
			{
				"type": "unocc",
				"energy": 0.10017,
				"method": "rhf"
			},
			{
				"type": "unocc",
				"energy": 0.11194,
				"method": "rhf"
			}
		],
		"cosmo_sigma_profile": { 
			"-0.025": 0.0,
			"-0.024": 0.0,
			"-0.023": 0.0,
			"-0.022": 0.0,
			"-0.021": 0.0,
			"-0.02": 0.0,
			"-0.019": 0.0,
			"-0.018": 0.0,
			"-0.017": 0.0,
			"-0.016": 0.0,
			"-0.015": 0.0,
			"-0.014": 0.0,
			"-0.013": 0.0,
			"-0.012": 0.0,
			"-0.011": 0.0,
			"-0.01": 0.0,
			"-0.009": 0.0,
			"-0.008": 0.0,
			"-0.007": 0.0,
			"-0.006": 1.0914544322,
			"-0.005": 5.99741977303,
			"-0.004": 15.2605238179,
			"-0.003": 18.468117672,
			"-0.002": 47.2696619317,
			"-0.001": 58.7831441861,
			"0.0": 59.3886113555,
			"0.001": 53.3172541954,
			"0.002": 20.6522644807,
			"0.003": 3.14592182795,
			"0.004": 1.87171936684,
			"0.005": 2.14469138006,
			"0.006": 1.75841079754,
			"0.007": 1.91982991705,
			"0.008": 2.35229452785,
			"0.009": 1.84726846203,
			"0.01": 1.91948413054,
			"0.011": 2.6062617336,
			"0.012": 3.63563568205,
			"0.013": 2.53795334233,
			"0.014": 0.0282656855911,
			"0.015": 0.0,
			"0.016": 0.0,
			"0.017": 0.0,
			"0.018": 0.0,
			"0.019": 0.0,
			"0.02": 0.0,
			"0.021": 0.0,
			"0.022": 0.0,
			"0.023": 0.0,
			"0.024": 0.0,
			"0.025": 0.0
		}
	}
}
