{
	 "smiles": "COC1=CC(=NC2=C1C(=C(C)C=C2)[N+]([O-])=O)C(F)(F)F", 
	 "Tm": 455.15, 
	 "num_atms": 29, 
	 "gaussian": { 
		 "optdone": 1, 
		 "sigma_profile": "yes", 
		 "theory": "DFT", 
		 "functional": "B3LYP", 
		 "basiset": "6-31G**", 
		 "properties": { 
			 "R2extent": 6997.1823, 
			 "electric_dipole_moment_norm": 1.20074838747, 
			 "electric_quadrupole_moment_norm": 26.7194012489, 
			 "total_energy": -1097.29198563, 
			 "HOMO_LUMO_gap": 0.1679, 
			 "cosmo_polarized_energy": -12.26, 
			 "cosmo_cavitation_energy": 35.7, 
			 "cosmo_dispersion_energy": -24.39, 
			 "cosmo_repulsion_energy": 1.78, 
			 "cosmo_total_nonelectrostatic_energy": 13.09, 
			 "SMD_solvation_energy": 9.07 
		},
		"coords": [
			{
				"x": -2.486283092,
				"y": -0.1536687339,
				"z": -2.1064723901,
				"element": "C" 
			},
			{
				"x": -1.4791761863,
				"y": -0.132782833,
				"z": -1.0961831088,
				"element": "O" 
			},
			{
				"x": -0.4160982287,
				"y": -0.9465865322,
				"z": -1.2085719632,
				"element": "C" 
			},
			{
				"x": -0.2095661618,
				"y": -1.8292562758,
				"z": -2.2536879644,
				"element": "C" 
			},
			{
				"x": 0.9565376122,
				"y": -2.6226148411,
				"z": -2.239369187,
				"element": "C" 
			},
			{
				"x": 1.8792256751,
				"y": -2.5965602407,
				"z": -1.3056601005,
				"element": "N" 
			},
			{
				"x": 1.6950029293,
				"y": -1.7344275776,
				"z": -0.2669818329,
				"element": "C" 
			},
			{
				"x": 0.5559573231,
				"y": -0.8727554714,
				"z": -0.156855646,
				"element": "C" 
			},
			{
				"x": 0.4840888776,
				"y": -0.0221343084,
				"z": 0.9758364245,
				"element": "C" 
			},
			{
				"x": 1.4514690015,
				"y": 0.0128582147,
				"z": 1.9646710729,
				"element": "C" 
			},
			{
				"x": 1.3365646817,
				"y": 0.9350812305,
				"z": 3.1541144063,
				"element": "C" 
			},
			{
				"x": 2.5644677063,
				"y": -0.8541771314,
				"z": 1.8210202982,
				"element": "C" 
			},
			{
				"x": 2.686629714,
				"y": -1.6999409747,
				"z": 0.7453876316,
				"element": "C" 
			},
			{
				"x": -0.6659959635,
				"y": 0.896250641,
				"z": 1.1600824401,
				"element": "N" 
			},
			{
				"x": -0.5495158553,
				"y": 2.031319633,
				"z": 0.7109062258,
				"element": "O" 
			},
			{
				"x": -1.6223479712,
				"y": 0.4696391667,
				"z": 1.79811676,
				"element": "O" 
			},
			{
				"x": 1.218257253,
				"y": -3.6031672827,
				"z": -3.3716335196,
				"element": "C" 
			},
			{
				"x": 1.312194972,
				"y": -4.8643145499,
				"z": -2.9142570947,
				"element": "F" 
			},
			{
				"x": 2.3644582421,
				"y": -3.3138477234,
				"z": -4.0131246668,
				"element": "F" 
			},
			{
				"x": 0.2212754408,
				"y": -3.5762082522,
				"z": -4.2886155131,
				"element": "F" 
			},
			{
				"x": -3.2281968589,
				"y": 0.5802887242,
				"z": -1.793726535,
				"element": "H" 
			},
			{
				"x": -2.0720799003,
				"y": 0.1309718626,
				"z": -3.0800001646,
				"element": "H" 
			},
			{
				"x": -2.9517056127,
				"y": -1.1429958355,
				"z": -2.1768070521,
				"element": "H" 
			},
			{
				"x": -0.9114671094,
				"y": -1.9229942579,
				"z": -3.0691981279,
				"element": "H" 
			},
			{
				"x": 1.302969593,
				"y": 1.9827420821,
				"z": 2.8375240281,
				"element": "H" 
			},
			{
				"x": 2.1875974636,
				"y": 0.8071752827,
				"z": 3.8258044893,
				"element": "H" 
			},
			{
				"x": 0.4199844754,
				"y": 0.7363842742,
				"z": 3.7191148627,
				"element": "H" 
			},
			{
				"x": 3.3323336634,
				"y": -0.8388688557,
				"z": 2.5889225095,
				"element": "H" 
			},
			{
				"x": 3.5362183159,
				"y": -2.3643094341,
				"z": 0.6329437177,
				"element": "H" 
			}
		],
		 "valence_orbital": [ 
			{
				"type": "occ",
				"energy": -0.30919,
				"method": "rhf"
			},
			{
				"type": "occ",
				"energy": -0.28608,
				"method": "rhf"
			},
			{
				"type": "occ",
				"energy": -0.28035,
				"method": "rhf"
			},
			{
				"type": "occ",
				"energy": -0.27473,
				"method": "rhf"
			},
			{
				"type": "occ",
				"energy": -0.24109,
				"method": "rhf"
			},
			{
				"type": "unocc",
				"energy": -0.07319,
				"method": "rhf"
			},
			{
				"type": "unocc",
				"energy": -0.0727,
				"method": "rhf"
			},
			{
				"type": "unocc",
				"energy": -0.04312,
				"method": "rhf"
			},
			{
				"type": "unocc",
				"energy": 0.00012,
				"method": "rhf"
			},
			{
				"type": "unocc",
				"energy": 0.06214,
				"method": "rhf"
			}
		],
		"cosmo_sigma_profile": { 
			"-0.025": 0.0,
			"-0.024": 0.0,
			"-0.023": 0.0,
			"-0.022": 0.0,
			"-0.021": 0.0,
			"-0.02": 0.0,
			"-0.019": 0.0,
			"-0.018": 0.0,
			"-0.017": 0.0,
			"-0.016": 0.0,
			"-0.015": 0.0,
			"-0.014": 0.0,
			"-0.013": 0.0,
			"-0.012": 0.0,
			"-0.011": 0.0,
			"-0.01": 0.0,
			"-0.009": 0.227335477778,
			"-0.008": 3.38003816038,
			"-0.007": 13.6446599651,
			"-0.006": 16.6926810284,
			"-0.005": 16.6750451296,
			"-0.004": 19.1270821438,
			"-0.003": 19.1386952652,
			"-0.002": 23.383753242,
			"-0.001": 25.06649034,
			"0.0": 21.3760256486,
			"0.001": 18.1658068878,
			"0.002": 30.3681337318,
			"0.003": 25.7096287354,
			"0.004": 7.59586765291,
			"0.005": 7.76577959908,
			"0.006": 8.24824761138,
			"0.007": 12.7158085475,
			"0.008": 8.71961449893,
			"0.009": 5.10856204811,
			"0.01": 1.05452814255,
			"0.011": 0.734307613607,
			"0.012": 0.88575663619,
			"0.013": 0.277826185844,
			"0.014": 0.0,
			"0.015": 0.0,
			"0.016": 0.0,
			"0.017": 0.0,
			"0.018": 0.0,
			"0.019": 0.0,
			"0.02": 0.0,
			"0.021": 0.0,
			"0.022": 0.0,
			"0.023": 0.0,
			"0.024": 0.0,
			"0.025": 0.0
		}
	}
}
