{
	 "smiles": "NCCNCCNCCNCCN", 
	 "Tm": 243.15, 
	 "num_atms": 36, 
	 "gaussian": { 
		 "optdone": 1, 
		 "sigma_profile": "yes", 
		 "theory": "DFT", 
		 "functional": "B3LYP", 
		 "basiset": "6-31G**", 
		 "properties": { 
			 "R2extent": 4453.1964, 
			 "electric_dipole_moment_norm": 1.79217671283, 
			 "electric_quadrupole_moment_norm": 13.7495616701, 
			 "total_energy": -592.427869442, 
			 "HOMO_LUMO_gap": 0.26828, 
			 "cosmo_polarized_energy": -17.17, 
			 "cosmo_cavitation_energy": 36.83, 
			 "cosmo_dispersion_energy": -24.82, 
			 "cosmo_repulsion_energy": 2.08, 
			 "cosmo_total_nonelectrostatic_energy": 14.09, 
			 "SMD_solvation_energy": -1.57 
		},
		"coords": [
			{
				"x": -0.8341021341,
				"y": -4.3339821149,
				"z": 0.1103496918,
				"element": "N" 
			},
			{
				"x": -1.8260331346,
				"y": -3.4596240394,
				"z": -0.5259620831,
				"element": "C" 
			},
			{
				"x": -1.2929636797,
				"y": -2.9623491908,
				"z": -1.8793973337,
				"element": "C" 
			},
			{
				"x": -2.203999579,
				"y": -2.1087446216,
				"z": -2.6452729144,
				"element": "N" 
			},
			{
				"x": -2.4106538721,
				"y": -0.7407030136,
				"z": -2.163566629,
				"element": "C" 
			},
			{
				"x": -1.2989064694,
				"y": 0.2235918243,
				"z": -2.6026828102,
				"element": "C" 
			},
			{
				"x": -0.0581765758,
				"y": 0.0833499055,
				"z": -1.8285915922,
				"element": "N" 
			},
			{
				"x": -0.0311819472,
				"y": 0.8491376164,
				"z": -0.5862118356,
				"element": "C" 
			},
			{
				"x": 1.3014100898,
				"y": 0.6264653547,
				"z": 0.1534374606,
				"element": "C" 
			},
			{
				"x": 1.5571526401,
				"y": 1.4154129747,
				"z": 1.3501621653,
				"element": "N" 
			},
			{
				"x": 0.7990891116,
				"y": 1.1286752792,
				"z": 2.5630604295,
				"element": "C" 
			},
			{
				"x": -0.569884453,
				"y": 1.82612462,
				"z": 2.7335208921,
				"element": "C" 
			},
			{
				"x": -1.2288967797,
				"y": 1.5958352582,
				"z": 4.0208396049,
				"element": "N" 
			},
			{
				"x": -0.0029043607,
				"y": -3.7934652959,
				"z": 0.3410913806,
				"element": "H" 
			},
			{
				"x": -1.193736969,
				"y": -4.6907225838,
				"z": 0.9921437264,
				"element": "H" 
			},
			{
				"x": -2.1273408581,
				"y": -2.5963757592,
				"z": 0.0943943289,
				"element": "H" 
			},
			{
				"x": -2.7356050931,
				"y": -4.0519194587,
				"z": -0.6967583644,
				"element": "H" 
			},
			{
				"x": -0.3670684024,
				"y": -2.3991597347,
				"z": -1.7255876971,
				"element": "H" 
			},
			{
				"x": -1.0420668486,
				"y": -3.8405931234,
				"z": -2.4862673324,
				"element": "H" 
			},
			{
				"x": -3.1030277667,
				"y": -2.5728170634,
				"z": -2.7389722877,
				"element": "H" 
			},
			{
				"x": -2.5447269247,
				"y": -0.6667630245,
				"z": -1.0694953191,
				"element": "H" 
			},
			{
				"x": -3.3460262063,
				"y": -0.3806407127,
				"z": -2.608535571,
				"element": "H" 
			},
			{
				"x": -1.6900913802,
				"y": 1.257802432,
				"z": -2.5547611626,
				"element": "H" 
			},
			{
				"x": -1.0753571491,
				"y": 0.0044623862,
				"z": -3.6517014047,
				"element": "H" 
			},
			{
				"x": 0.7274400612,
				"y": 0.3690350657,
				"z": -2.407049609,
				"element": "H" 
			},
			{
				"x": -0.1821756227,
				"y": 1.9362899823,
				"z": -0.7475936464,
				"element": "H" 
			},
			{
				"x": -0.8641132376,
				"y": 0.5147900019,
				"z": 0.042489922,
				"element": "H" 
			},
			{
				"x": 1.3855404952,
				"y": -0.4351317661,
				"z": 0.4151606147,
				"element": "H" 
			},
			{
				"x": 2.1202160804,
				"y": 0.8282236054,
				"z": -0.5529279295,
				"element": "H" 
			},
			{
				"x": 1.5604305076,
				"y": 2.4101572402,
				"z": 1.1447224441,
				"element": "H" 
			},
			{
				"x": 1.4170175682,
				"y": 1.4056310835,
				"z": 3.4320015016,
				"element": "H" 
			},
			{
				"x": 0.6633515101,
				"y": 0.0401886508,
				"z": 2.6243326955,
				"element": "H" 
			},
			{
				"x": -1.2596318665,
				"y": 1.5161327986,
				"z": 1.9407630311,
				"element": "H" 
			},
			{
				"x": -0.4325940708,
				"y": 2.909617899,
				"z": 2.6131178138,
				"element": "H" 
			},
			{
				"x": -1.3909847218,
				"y": 0.5995230635,
				"z": 4.1528686124,
				"element": "H" 
			},
			{
				"x": -0.6144979612,
				"y": 1.8836444609,
				"z": 4.7800792067,
				"element": "H" 
			}
		],
		 "valence_orbital": [ 
			{
				"type": "occ",
				"energy": -0.24995,
				"method": "rhf"
			},
			{
				"type": "occ",
				"energy": -0.23157,
				"method": "rhf"
			},
			{
				"type": "occ",
				"energy": -0.22417,
				"method": "rhf"
			},
			{
				"type": "occ",
				"energy": -0.20498,
				"method": "rhf"
			},
			{
				"type": "occ",
				"energy": -0.20098,
				"method": "rhf"
			},
			{
				"type": "unocc",
				"energy": 0.0673,
				"method": "rhf"
			},
			{
				"type": "unocc",
				"energy": 0.08081,
				"method": "rhf"
			},
			{
				"type": "unocc",
				"energy": 0.0831,
				"method": "rhf"
			},
			{
				"type": "unocc",
				"energy": 0.08781,
				"method": "rhf"
			},
			{
				"type": "unocc",
				"energy": 0.09044,
				"method": "rhf"
			}
		],
		"cosmo_sigma_profile": { 
			"-0.025": 0.0,
			"-0.024": 0.0,
			"-0.023": 0.0,
			"-0.022": 0.0,
			"-0.021": 0.0,
			"-0.02": 0.0,
			"-0.019": 0.0,
			"-0.018": 0.0,
			"-0.017": 0.0,
			"-0.016": 0.0,
			"-0.015": 0.0,
			"-0.014": 0.0,
			"-0.013": 0.0,
			"-0.012": 0.0,
			"-0.011": 0.0,
			"-0.01": 0.885309081479,
			"-0.009": 7.53764315768,
			"-0.008": 9.08076338714,
			"-0.007": 9.8034641592,
			"-0.006": 10.7228117634,
			"-0.005": 11.4919027875,
			"-0.004": 16.6163212586,
			"-0.003": 28.4986228103,
			"-0.002": 34.6827749875,
			"-0.001": 34.4246030841,
			"0.0": 29.4222497444,
			"0.001": 18.2715372802,
			"0.002": 8.1871948927,
			"0.003": 6.97457489857,
			"0.004": 6.31196212215,
			"0.005": 5.54660083111,
			"0.006": 3.57032258469,
			"0.007": 4.87230383849,
			"0.008": 5.03264093823,
			"0.009": 4.36851560823,
			"0.01": 3.91562894254,
			"0.011": 2.82178591129,
			"0.012": 3.01511289565,
			"0.013": 2.19521223108,
			"0.014": 2.48014669233,
			"0.015": 2.30153244749,
			"0.016": 1.84892285317,
			"0.017": 2.36144662597,
			"0.018": 2.16160565109,
			"0.019": 0.88315229521,
			"0.02": 0.925738431193,
			"0.021": 0.138043086297,
			"0.022": 0.0,
			"0.023": 0.0,
			"0.024": 0.0,
			"0.025": 0.0
		}
	}
}
