{
	 "smiles": "O=C1NC2=C(N1)C=C(C=C2)C#N", 
	 "Tm": 570.15, 
	 "num_atms": 17, 
	 "gaussian": { 
		 "optdone": 1, 
		 "sigma_profile": "yes", 
		 "theory": "DFT", 
		 "functional": "B3LYP", 
		 "basiset": "6-31G**", 
		 "properties": { 
			 "R2extent": 2569.5093, 
			 "electric_dipole_moment_norm": 3.00656804513, 
			 "electric_quadrupole_moment_norm": 30.5377376321, 
			 "total_energy": -547.360555253, 
			 "HOMO_LUMO_gap": 0.18281, 
			 "cosmo_polarized_energy": -19.76, 
			 "cosmo_cavitation_energy": 23.11, 
			 "cosmo_dispersion_energy": -16.92, 
			 "cosmo_repulsion_energy": 1.35, 
			 "cosmo_total_nonelectrostatic_energy": 7.54, 
			 "SMD_solvation_energy": 5.95 
		},
		"coords": [
			{
				"x": 1.2567278326,
				"y": 0.7959657302,
				"z": 4.7321976742,
				"element": "O" 
			},
			{
				"x": 0.9551881971,
				"y": 0.6274246133,
				"z": 3.5685356217,
				"element": "C" 
			},
			{
				"x": 0.1333502399,
				"y": -0.3712804749,
				"z": 3.0299092897,
				"element": "N" 
			},
			{
				"x": 0.0173940846,
				"y": -0.2465908347,
				"z": 1.6567416507,
				"element": "C" 
			},
			{
				"x": 0.7943591576,
				"y": 0.8776475103,
				"z": 1.2868280871,
				"element": "C" 
			},
			{
				"x": 1.3444771969,
				"y": 1.3801702787,
				"z": 2.457983132,
				"element": "N" 
			},
			{
				"x": 0.8929086495,
				"y": 1.2808658424,
				"z": -0.0328208743,
				"element": "C" 
			},
			{
				"x": 0.1889258831,
				"y": 0.528432386,
				"z": -0.9977832436,
				"element": "C" 
			},
			{
				"x": -0.582709797,
				"y": -0.5886078336,
				"z": -0.6279553926,
				"element": "C" 
			},
			{
				"x": -0.6758293626,
				"y": -0.9875856597,
				"z": 0.7068415397,
				"element": "C" 
			},
			{
				"x": 0.2634830294,
				"y": 0.9111958398,
				"z": -2.3760912739,
				"element": "C" 
			},
			{
				"x": 0.3248246984,
				"y": 1.2231251512,
				"z": -3.4956368567,
				"element": "N" 
			},
			{
				"x": -0.2956972774,
				"y": -1.0701293729,
				"z": 3.6154517465,
				"element": "H" 
			},
			{
				"x": 1.9508032076,
				"y": 2.1794228954,
				"z": 2.5505857966,
				"element": "H" 
			},
			{
				"x": 1.484597687,
				"y": 2.1398197811,
				"z": -0.3283451264,
				"element": "H" 
			},
			{
				"x": -1.1101089681,
				"y": -1.1431253244,
				"z": -1.3957716649,
				"element": "H" 
			},
			{
				"x": -1.2715944586,
				"y": -1.8492505282,
				"z": 0.9887298945,
				"element": "H" 
			}
		],
		 "valence_orbital": [ 
			{
				"type": "occ",
				"energy": -0.33093,
				"method": "rhf"
			},
			{
				"type": "occ",
				"energy": -0.31319,
				"method": "rhf"
			},
			{
				"type": "occ",
				"energy": -0.2879,
				"method": "rhf"
			},
			{
				"type": "occ",
				"energy": -0.26407,
				"method": "rhf"
			},
			{
				"type": "occ",
				"energy": -0.23113,
				"method": "rhf"
			},
			{
				"type": "unocc",
				"energy": -0.04832,
				"method": "rhf"
			},
			{
				"type": "unocc",
				"energy": -0.02565,
				"method": "rhf"
			},
			{
				"type": "unocc",
				"energy": 0.0359,
				"method": "rhf"
			},
			{
				"type": "unocc",
				"energy": 0.04909,
				"method": "rhf"
			},
			{
				"type": "unocc",
				"energy": 0.06027,
				"method": "rhf"
			}
		],
		"cosmo_sigma_profile": { 
			"-0.025": 0.0,
			"-0.024": 0.0,
			"-0.023": 0.0,
			"-0.022": 0.0,
			"-0.021": 0.0,
			"-0.02": 0.0,
			"-0.019": 0.0,
			"-0.018": 0.0,
			"-0.017": 1.09930385678,
			"-0.016": 3.12720329801,
			"-0.015": 2.7502639273,
			"-0.014": 2.59377169001,
			"-0.013": 1.69869134832,
			"-0.012": 1.85603621618,
			"-0.011": 2.51255947736,
			"-0.01": 2.29752120537,
			"-0.009": 3.57826291938,
			"-0.008": 7.12190475807,
			"-0.007": 7.52157064435,
			"-0.006": 7.31207916248,
			"-0.005": 5.37111578037,
			"-0.004": 6.51546134562,
			"-0.003": 7.40560039107,
			"-0.002": 9.17492975292,
			"-0.001": 14.0264904064,
			"0.0": 18.0728181363,
			"0.001": 13.0143714042,
			"0.002": 13.0255902988,
			"0.003": 8.38535670958,
			"0.004": 3.24885558844,
			"0.005": 2.72109379482,
			"0.006": 3.67732238241,
			"0.007": 4.12998505757,
			"0.008": 3.83131858041,
			"0.009": 4.71066080432,
			"0.01": 4.59042439783,
			"0.011": 5.00925581246,
			"0.012": 5.43816272718,
			"0.013": 9.33762785467,
			"0.014": 2.00450547796,
			"0.015": 0.0,
			"0.016": 0.0,
			"0.017": 0.0,
			"0.018": 0.0,
			"0.019": 0.0,
			"0.02": 0.0,
			"0.021": 0.0,
			"0.022": 0.0,
			"0.023": 0.0,
			"0.024": 0.0,
			"0.025": 0.0
		}
	}
}
