{
	 "smiles": "OC1CC(N(C1)C(=O)C12CC3CC(CC(C3)C1)C2)C(O)=O", 
	 "Tm": 480.15, 
	 "num_atms": 44, 
	 "gaussian": { 
		 "optdone": 1, 
		 "sigma_profile": "yes", 
		 "theory": "DFT", 
		 "functional": "B3LYP", 
		 "basiset": "6-31G**", 
		 "properties": { 
			 "R2extent": 6844.9902, 
			 "electric_dipole_moment_norm": 4.75956739421, 
			 "electric_quadrupole_moment_norm": 23.7827638758, 
			 "total_energy": -979.258876994, 
			 "HOMO_LUMO_gap": 0.24046, 
			 "cosmo_polarized_energy": -16.36, 
			 "cosmo_cavitation_energy": 39.79, 
			 "cosmo_dispersion_energy": -29.16, 
			 "cosmo_repulsion_energy": 2.19, 
			 "cosmo_total_nonelectrostatic_energy": 12.82, 
			 "SMD_solvation_energy": 5.84 
		},
		"coords": [
			{
				"x": 0.053906866,
				"y": 3.8389525036,
				"z": 3.461148951,
				"element": "O" 
			},
			{
				"x": 0.9315901659,
				"y": 2.8579960257,
				"z": 2.9405593842,
				"element": "C" 
			},
			{
				"x": 2.1376146949,
				"y": 3.4004378751,
				"z": 2.1619617358,
				"element": "C" 
			},
			{
				"x": 2.5381394383,
				"y": 2.2163675043,
				"z": 1.2850534828,
				"element": "C" 
			},
			{
				"x": 1.2369237664,
				"y": 1.5362135897,
				"z": 0.9983881207,
				"element": "N" 
			},
			{
				"x": 0.1730315517,
				"y": 2.0642857744,
				"z": 1.8707992837,
				"element": "C" 
			},
			{
				"x": 1.1666730898,
				"y": 0.6652896441,
				"z": -0.0477116955,
				"element": "C" 
			},
			{
				"x": 2.2218298899,
				"y": 0.3721592609,
				"z": -0.6468767261,
				"element": "O" 
			},
			{
				"x": -0.1511547083,
				"y": -0.0040870449,
				"z": -0.4953100827,
				"element": "C" 
			},
			{
				"x": -1.3116680218,
				"y": 0.9933914496,
				"z": -0.7652180862,
				"element": "C" 
			},
			{
				"x": -2.5681589227,
				"y": 0.2340654427,
				"z": -1.2463190361,
				"element": "C" 
			},
			{
				"x": -2.2605766952,
				"y": -0.5175862125,
				"z": -2.5544598406,
				"element": "C" 
			},
			{
				"x": -1.1205216363,
				"y": -1.5223101809,
				"z": -2.3008505123,
				"element": "C" 
			},
			{
				"x": -1.5567767088,
				"y": -2.5389423344,
				"z": -1.2274412962,
				"element": "C" 
			},
			{
				"x": -1.8662273217,
				"y": -1.7908071997,
				"z": 0.0837538072,
				"element": "C" 
			},
			{
				"x": -3.0002166052,
				"y": -0.7733237349,
				"z": -0.1602282157,
				"element": "C" 
			},
			{
				"x": -0.6020688488,
				"y": -1.0493749888,
				"z": 0.5695103654,
				"element": "C" 
			},
			{
				"x": 0.1341845663,
				"y": -0.7701717245,
				"z": -1.8177064014,
				"element": "C" 
			},
			{
				"x": 3.5326952973,
				"y": 1.2740080702,
				"z": 2.0157980795,
				"element": "C" 
			},
			{
				"x": 3.9572088933,
				"y": 0.2342224015,
				"z": 1.2997910446,
				"element": "O" 
			},
			{
				"x": 3.9062940275,
				"y": 1.4806497526,
				"z": 3.150639458,
				"element": "O" 
			},
			{
				"x": 0.4755347624,
				"y": 4.2386736436,
				"z": 4.2320577624,
				"element": "H" 
			},
			{
				"x": 1.2893176421,
				"y": 2.1814716691,
				"z": 3.7285767105,
				"element": "H" 
			},
			{
				"x": 2.9598565143,
				"y": 3.7109202572,
				"z": 2.8077121692,
				"element": "H" 
			},
			{
				"x": 1.8087824616,
				"y": 4.2447100517,
				"z": 1.5468572484,
				"element": "H" 
			},
			{
				"x": 2.9884949595,
				"y": 2.5119745274,
				"z": 0.331892843,
				"element": "H" 
			},
			{
				"x": -0.4755768053,
				"y": 2.7679943774,
				"z": 1.3382124499,
				"element": "H" 
			},
			{
				"x": -0.441609377,
				"y": 1.2696083463,
				"z": 2.2949615227,
				"element": "H" 
			},
			{
				"x": -0.9983083424,
				"y": 1.7239627496,
				"z": -1.522201954,
				"element": "H" 
			},
			{
				"x": -1.5737188458,
				"y": 1.5561635778,
				"z": 0.1332952101,
				"element": "H" 
			},
			{
				"x": -3.3726495378,
				"y": 0.9609408232,
				"z": -1.4147793461,
				"element": "H" 
			},
			{
				"x": -1.9718031789,
				"y": 0.1928797614,
				"z": -3.3399550034,
				"element": "H" 
			},
			{
				"x": -3.1583194303,
				"y": -1.0397981289,
				"z": -2.9099354599,
				"element": "H" 
			},
			{
				"x": -0.8781180403,
				"y": -2.0500310552,
				"z": -3.2316474841,
				"element": "H" 
			},
			{
				"x": -0.7630111035,
				"y": -3.2787191176,
				"z": -1.0620661185,
				"element": "H" 
			},
			{
				"x": -2.4437345984,
				"y": -3.0910952698,
				"z": -1.5641142693,
				"element": "H" 
			},
			{
				"x": -2.1721001545,
				"y": -2.5066083888,
				"z": 0.8570560031,
				"element": "H" 
			},
			{
				"x": -3.2432518991,
				"y": -0.2451477059,
				"z": 0.7715226342,
				"element": "H" 
			},
			{
				"x": -3.911911298,
				"y": -1.2967911931,
				"z": -0.4750137505,
				"element": "H" 
			},
			{
				"x": 0.2129995402,
				"y": -1.762778973,
				"z": 0.7429786154,
				"element": "H" 
			},
			{
				"x": -0.812053973,
				"y": -0.5678934203,
				"z": 1.5307648702,
				"element": "H" 
			},
			{
				"x": 0.9613215107,
				"y": -1.4677204544,
				"z": -1.66079232,
				"element": "H" 
			},
			{
				"x": 0.472074292,
				"y": -0.0614134014,
				"z": -2.5819505313,
				"element": "H" 
			},
			{
				"x": 3.472762123,
				"y": 0.2270614499,
				"z": 0.4300863778,
				"element": "H" 
			}
		],
		 "valence_orbital": [ 
			{
				"type": "occ",
				"energy": -0.28745,
				"method": "rhf"
			},
			{
				"type": "occ",
				"energy": -0.28434,
				"method": "rhf"
			},
			{
				"type": "occ",
				"energy": -0.27849,
				"method": "rhf"
			},
			{
				"type": "occ",
				"energy": -0.26659,
				"method": "rhf"
			},
			{
				"type": "occ",
				"energy": -0.24724,
				"method": "rhf"
			},
			{
				"type": "unocc",
				"energy": -0.00678,
				"method": "rhf"
			},
			{
				"type": "unocc",
				"energy": 0.0144,
				"method": "rhf"
			},
			{
				"type": "unocc",
				"energy": 0.05467,
				"method": "rhf"
			},
			{
				"type": "unocc",
				"energy": 0.06244,
				"method": "rhf"
			},
			{
				"type": "unocc",
				"energy": 0.08817,
				"method": "rhf"
			}
		],
		"cosmo_sigma_profile": { 
			"-0.025": 0.0,
			"-0.024": 0.0,
			"-0.023": 0.0,
			"-0.022": 0.0,
			"-0.021": 0.0,
			"-0.02": 0.0,
			"-0.019": 0.0,
			"-0.018": 0.0,
			"-0.017": 0.0134706420883,
			"-0.016": 1.24738891062,
			"-0.015": 0.787428470922,
			"-0.014": 1.03602928698,
			"-0.013": 0.88841843356,
			"-0.012": 1.1401603184,
			"-0.011": 0.960032285528,
			"-0.01": 0.672690299074,
			"-0.009": 0.560447158123,
			"-0.008": 2.49819798935,
			"-0.007": 4.51833115389,
			"-0.006": 7.59373245347,
			"-0.005": 16.5809243822,
			"-0.004": 16.2905571378,
			"-0.003": 25.4848293634,
			"-0.002": 49.2818821071,
			"-0.001": 45.5881820476,
			"0.0": 39.2982822797,
			"0.001": 21.8264768404,
			"0.002": 8.59202070906,
			"0.003": 6.39752543879,
			"0.004": 4.41294858966,
			"0.005": 4.42687561695,
			"0.006": 4.60184047037,
			"0.007": 5.22183389071,
			"0.008": 4.42440050759,
			"0.009": 4.89293794064,
			"0.01": 6.5228187242,
			"0.011": 8.10182826169,
			"0.012": 8.4179739664,
			"0.013": 4.27127473128,
			"0.014": 0.615108298563,
			"0.015": 0.0,
			"0.016": 0.0,
			"0.017": 0.0,
			"0.018": 0.0,
			"0.019": 0.0,
			"0.02": 0.0,
			"0.021": 0.0,
			"0.022": 0.0,
			"0.023": 0.0,
			"0.024": 0.0,
			"0.025": 0.0
		}
	}
}
