{
	 "smiles": "NC1=CC=CC(=C1[N+]([O-])=O)[N+]([O-])=O", 
	 "Tm": 395.15, 
	 "num_atms": 18, 
	 "gaussian": { 
		 "optdone": 1, 
		 "sigma_profile": "yes", 
		 "theory": "DFT", 
		 "functional": "B3LYP", 
		 "basiset": "6-31G**", 
		 "properties": { 
			 "R2extent": 2332.5874, 
			 "electric_dipole_moment_norm": 7.75487835366, 
			 "electric_quadrupole_moment_norm": 7.09069952755, 
			 "total_energy": -696.586752665, 
			 "HOMO_LUMO_gap": 0.14064, 
			 "cosmo_polarized_energy": -17.47, 
			 "cosmo_cavitation_energy": 23.69, 
			 "cosmo_dispersion_energy": -17.46, 
			 "cosmo_repulsion_energy": 1.37, 
			 "cosmo_total_nonelectrostatic_energy": 7.6, 
			 "SMD_solvation_energy": 8.5 
		},
		"coords": [
			{
				"x": 0.5398317712,
				"y": -0.4283509954,
				"z": -1.9812027979,
				"element": "N" 
			},
			{
				"x": 0.052480504,
				"y": 0.527859015,
				"z": -1.1538622159,
				"element": "C" 
			},
			{
				"x": -0.2234875606,
				"y": 1.8246821035,
				"z": -1.6660780037,
				"element": "C" 
			},
			{
				"x": -0.6912472942,
				"y": 2.8385452307,
				"z": -0.857918639,
				"element": "C" 
			},
			{
				"x": -0.9375110628,
				"y": 2.6180314872,
				"z": 0.5072272641,
				"element": "C" 
			},
			{
				"x": -0.6773199338,
				"y": 1.3669561773,
				"z": 1.0262178532,
				"element": "C" 
			},
			{
				"x": -0.1572783049,
				"y": 0.3211675568,
				"z": 0.2375335731,
				"element": "C" 
			},
			{
				"x": 0.2944003575,
				"y": -0.9045104787,
				"z": 0.8716777291,
				"element": "N" 
			},
			{
				"x": 0.6287268167,
				"y": -0.8539621869,
				"z": 2.0506990788,
				"element": "O" 
			},
			{
				"x": 0.3520865177,
				"y": -1.9361346978,
				"z": 0.1813675716,
				"element": "O" 
			},
			{
				"x": -1.1180945214,
				"y": 1.1453441374,
				"z": 2.4209515173,
				"element": "N" 
			},
			{
				"x": -1.8479554018,
				"y": 0.1825061756,
				"z": 2.6238197259,
				"element": "O" 
			},
			{
				"x": -0.7852902757,
				"y": 1.9899940377,
				"z": 3.2454913594,
				"element": "O" 
			},
			{
				"x": 0.6871398381,
				"y": -0.2169277078,
				"z": -2.9535906887,
				"element": "H" 
			},
			{
				"x": 0.5988081787,
				"y": -1.378498959,
				"z": -1.6453032831,
				"element": "H" 
			},
			{
				"x": -0.0503353634,
				"y": 2.0036851607,
				"z": -2.7232567051,
				"element": "H" 
			},
			{
				"x": -0.8911563019,
				"y": 3.8156079056,
				"z": -1.2861547898,
				"element": "H" 
			},
			{
				"x": -1.3460979633,
				"y": 3.388406038,
				"z": 1.1484814508,
				"element": "H" 
			}
		],
		 "valence_orbital": [ 
			{
				"type": "occ",
				"energy": -0.30943,
				"method": "rhf"
			},
			{
				"type": "occ",
				"energy": -0.30697,
				"method": "rhf"
			},
			{
				"type": "occ",
				"energy": -0.30323,
				"method": "rhf"
			},
			{
				"type": "occ",
				"energy": -0.28246,
				"method": "rhf"
			},
			{
				"type": "occ",
				"energy": -0.24491,
				"method": "rhf"
			},
			{
				"type": "unocc",
				"energy": -0.10427,
				"method": "rhf"
			},
			{
				"type": "unocc",
				"energy": -0.07282,
				"method": "rhf"
			},
			{
				"type": "unocc",
				"energy": -0.02202,
				"method": "rhf"
			},
			{
				"type": "unocc",
				"energy": -0.017,
				"method": "rhf"
			},
			{
				"type": "unocc",
				"energy": 0.05902,
				"method": "rhf"
			}
		],
		"cosmo_sigma_profile": { 
			"-0.025": 0.0,
			"-0.024": 0.0,
			"-0.023": 0.0,
			"-0.022": 0.0,
			"-0.021": 0.0,
			"-0.02": 0.0,
			"-0.019": 0.0,
			"-0.018": 0.0,
			"-0.017": 0.0,
			"-0.016": 0.358715529186,
			"-0.015": 1.33654668021,
			"-0.014": 1.72676624805,
			"-0.013": 1.78285524801,
			"-0.012": 1.67182151284,
			"-0.011": 2.46108451136,
			"-0.01": 2.77232847106,
			"-0.009": 3.23712294443,
			"-0.008": 8.64623112951,
			"-0.007": 8.69184870946,
			"-0.006": 7.39983928041,
			"-0.005": 6.52609478066,
			"-0.004": 7.40544484748,
			"-0.003": 6.54628426801,
			"-0.002": 11.9650046928,
			"-0.001": 14.3298799173,
			"0.0": 14.3417400359,
			"0.001": 13.4110356538,
			"0.002": 8.6440531523,
			"0.003": 5.1965863717,
			"0.004": 6.72019723425,
			"0.005": 7.24876549717,
			"0.006": 9.84008573523,
			"0.007": 17.7299208044,
			"0.008": 10.6708842179,
			"0.009": 6.8052221892,
			"0.01": 2.68460687937,
			"0.011": 0.0784860751292,
			"0.012": 0.0,
			"0.013": 0.0,
			"0.014": 0.0,
			"0.015": 0.0,
			"0.016": 0.0,
			"0.017": 0.0,
			"0.018": 0.0,
			"0.019": 0.0,
			"0.02": 0.0,
			"0.021": 0.0,
			"0.022": 0.0,
			"0.023": 0.0,
			"0.024": 0.0,
			"0.025": 0.0
		}
	}
}
