{
	 "smiles": "NC(COC1CCOCC1)=NO", 
	 "Tm": 353.15, 
	 "num_atms": 26, 
	 "gaussian": { 
		 "optdone": 1, 
		 "sigma_profile": "yes", 
		 "theory": "DFT", 
		 "functional": "B3LYP", 
		 "basiset": "6-31G**", 
		 "properties": { 
			 "R2extent": 3280.5381, 
			 "electric_dipole_moment_norm": 3.09447077705, 
			 "electric_quadrupole_moment_norm": 10.1814573854, 
			 "total_energy": -610.273432939, 
			 "HOMO_LUMO_gap": 0.22772, 
			 "cosmo_polarized_energy": -16.97, 
			 "cosmo_cavitation_energy": 28.13, 
			 "cosmo_dispersion_energy": -20.44, 
			 "cosmo_repulsion_energy": 1.69, 
			 "cosmo_total_nonelectrostatic_energy": 9.38, 
			 "SMD_solvation_energy": 4.63 
		},
		"coords": [
			{
				"x": 1.2123828567,
				"y": -3.2002446667,
				"z": 0.6845526719,
				"element": "N" 
			},
			{
				"x": 2.1260487261,
				"y": -2.2784163348,
				"z": 1.2047411939,
				"element": "C" 
			},
			{
				"x": 1.5974522786,
				"y": -1.2898235689,
				"z": 2.2286940291,
				"element": "C" 
			},
			{
				"x": 1.0793863064,
				"y": -0.1007839008,
				"z": 1.6517287266,
				"element": "O" 
			},
			{
				"x": -0.2173466737,
				"y": -0.1970001449,
				"z": 1.0543835427,
				"element": "C" 
			},
			{
				"x": -0.3562299325,
				"y": 0.9827712845,
				"z": 0.0925307753,
				"element": "C" 
			},
			{
				"x": -1.7754195476,
				"y": 1.0387859573,
				"z": -0.4818543973,
				"element": "C" 
			},
			{
				"x": -2.7604118321,
				"y": 1.1031208378,
				"z": 0.542123621,
				"element": "O" 
			},
			{
				"x": -2.7033043817,
				"y": -0.0239638227,
				"z": 1.4029269945,
				"element": "C" 
			},
			{
				"x": -1.3416425274,
				"y": -0.1399508373,
				"z": 2.0994729094,
				"element": "C" 
			},
			{
				"x": 3.3184384147,
				"y": -2.2938310581,
				"z": 0.7237632566,
				"element": "N" 
			},
			{
				"x": 4.0955261454,
				"y": -1.2202464929,
				"z": 1.221402753,
				"element": "O" 
			},
			{
				"x": 0.6228854769,
				"y": -3.6387516183,
				"z": 1.3824822217,
				"element": "H" 
			},
			{
				"x": 1.6559927449,
				"y": -3.8851272004,
				"z": 0.0814063033,
				"element": "H" 
			},
			{
				"x": 0.8467053538,
				"y": -1.791757116,
				"z": 2.8590648082,
				"element": "H" 
			},
			{
				"x": 2.4266530489,
				"y": -0.9763899303,
				"z": 2.8639172798,
				"element": "H" 
			},
			{
				"x": -0.2956437644,
				"y": -1.1342794311,
				"z": 0.4840560442,
				"element": "H" 
			},
			{
				"x": -0.1450219594,
				"y": 1.9086644335,
				"z": 0.6399997625,
				"element": "H" 
			},
			{
				"x": 0.3804538,
				"y": 0.8979304653,
				"z": -0.713928019,
				"element": "H" 
			},
			{
				"x": -1.9147122688,
				"y": 1.9324410649,
				"z": -1.0968687156,
				"element": "H" 
			},
			{
				"x": -1.9576835832,
				"y": 0.1578319834,
				"z": -1.1226252247,
				"element": "H" 
			},
			{
				"x": -3.5077977014,
				"y": 0.1057148639,
				"z": 2.1328442603,
				"element": "H" 
			},
			{
				"x": -2.9131409878,
				"y": -0.9465658344,
				"z": 0.8321398755,
				"element": "H" 
			},
			{
				"x": -1.1810675489,
				"y": 0.7369686419,
				"z": 2.73712,
				"element": "H" 
			},
			{
				"x": -1.3358493426,
				"y": -1.0268385192,
				"z": 2.7456486648,
				"element": "H" 
			},
			{
				"x": 4.9545468991,
				"y": -1.4021590558,
				"z": 0.8205766626,
				"element": "H" 
			}
		],
		 "valence_orbital": [ 
			{
				"type": "occ",
				"energy": -0.29921,
				"method": "rhf"
			},
			{
				"type": "occ",
				"energy": -0.27807,
				"method": "rhf"
			},
			{
				"type": "occ",
				"energy": -0.24978,
				"method": "rhf"
			},
			{
				"type": "occ",
				"energy": -0.24539,
				"method": "rhf"
			},
			{
				"type": "occ",
				"energy": -0.21242,
				"method": "rhf"
			},
			{
				"type": "unocc",
				"energy": 0.0153,
				"method": "rhf"
			},
			{
				"type": "unocc",
				"energy": 0.06533,
				"method": "rhf"
			},
			{
				"type": "unocc",
				"energy": 0.08227,
				"method": "rhf"
			},
			{
				"type": "unocc",
				"energy": 0.09594,
				"method": "rhf"
			},
			{
				"type": "unocc",
				"energy": 0.11796,
				"method": "rhf"
			}
		],
		"cosmo_sigma_profile": { 
			"-0.025": 0.0,
			"-0.024": 0.0,
			"-0.023": 0.0,
			"-0.022": 0.0,
			"-0.021": 0.0,
			"-0.02": 0.0,
			"-0.019": 0.0,
			"-0.018": 0.0,
			"-0.017": 0.332832483467,
			"-0.016": 0.844338630241,
			"-0.015": 0.813943932473,
			"-0.014": 1.16557353834,
			"-0.013": 1.98888718741,
			"-0.012": 2.78453294181,
			"-0.011": 3.16453214609,
			"-0.01": 4.30628287739,
			"-0.009": 4.11689450973,
			"-0.008": 2.22306882306,
			"-0.007": 3.12004147145,
			"-0.006": 5.05716120784,
			"-0.005": 8.77495913143,
			"-0.004": 19.2337416079,
			"-0.003": 28.5251532991,
			"-0.002": 22.732361057,
			"-0.001": 15.8080020464,
			"0.0": 11.3500908212,
			"0.001": 6.69455627002,
			"0.002": 7.435812731,
			"0.003": 6.14102282824,
			"0.004": 5.56665030247,
			"0.005": 5.81220424487,
			"0.006": 7.2684216217,
			"0.007": 6.61636328953,
			"0.008": 7.00560110867,
			"0.009": 6.89833283207,
			"0.01": 5.65550393834,
			"0.011": 4.95600239864,
			"0.012": 5.27105406765,
			"0.013": 4.50049466379,
			"0.014": 1.81912571956,
			"0.015": 0.0183796541531,
			"0.016": 0.0,
			"0.017": 0.0,
			"0.018": 0.0,
			"0.019": 0.0,
			"0.02": 0.0,
			"0.021": 0.0,
			"0.022": 0.0,
			"0.023": 0.0,
			"0.024": 0.0,
			"0.025": 0.0
		}
	}
}
