{
	 "smiles": "NC1=CC(=NN1CCO)C1=CC(Cl)=CC=C1", 
	 "Tm": 420.15, 
	 "num_atms": 28, 
	 "gaussian": { 
		 "optdone": 1, 
		 "sigma_profile": "yes", 
		 "theory": "DFT", 
		 "functional": "B3LYP", 
		 "basiset": "6-31G**", 
		 "properties": { 
			 "R2extent": 6567.1258, 
			 "electric_dipole_moment_norm": 6.52642686008, 
			 "electric_quadrupole_moment_norm": 17.1702458072, 
			 "total_energy": -1126.04991917, 
			 "HOMO_LUMO_gap": 0.18799, 
			 "cosmo_polarized_energy": -18.29, 
			 "cosmo_cavitation_energy": 34.25, 
			 "cosmo_dispersion_energy": -24.81, 
			 "cosmo_repulsion_energy": 1.97, 
			 "cosmo_total_nonelectrostatic_energy": 11.4, 
			 "SMD_solvation_energy": 4.63 
		},
		"coords": [
			{
				"x": 1.2371922798,
				"y": -2.1677499069,
				"z": -3.4901522063,
				"element": "N" 
			},
			{
				"x": 1.3975140485,
				"y": -1.3543147631,
				"z": -2.3564484263,
				"element": "C" 
			},
			{
				"x": 2.0672899613,
				"y": -1.5443552075,
				"z": -1.1606814233,
				"element": "C" 
			},
			{
				"x": 1.7982637059,
				"y": -0.3756618727,
				"z": -0.401366962,
				"element": "C" 
			},
			{
				"x": 1.0268263662,
				"y": 0.4749466813,
				"z": -1.0865221749,
				"element": "N" 
			},
			{
				"x": 0.7786809553,
				"y": -0.1384644207,
				"z": -2.2688904692,
				"element": "N" 
			},
			{
				"x": -0.1221925693,
				"y": 0.4816097812,
				"z": -3.2255671476,
				"element": "C" 
			},
			{
				"x": -1.5180741895,
				"y": 0.7198246217,
				"z": -2.6281711358,
				"element": "C" 
			},
			{
				"x": -2.3728921622,
				"y": 1.3469022876,
				"z": -3.5702783911,
				"element": "O" 
			},
			{
				"x": 2.2687257473,
				"y": -0.0311364605,
				"z": 0.9501646429,
				"element": "C" 
			},
			{
				"x": 2.01269422,
				"y": 1.2476378791,
				"z": 1.473778412,
				"element": "C" 
			},
			{
				"x": 2.4567607226,
				"y": 1.5685826386,
				"z": 2.7505988337,
				"element": "C" 
			},
			{
				"x": 2.128866532,
				"y": 3.1763508221,
				"z": 3.3933662027,
				"element": "Cl" 
			},
			{
				"x": 3.1580538697,
				"y": 0.6543148404,
				"z": 3.5380949296,
				"element": "C" 
			},
			{
				"x": 3.4093345445,
				"y": -0.6139934854,
				"z": 3.0145014766,
				"element": "C" 
			},
			{
				"x": 2.9707285774,
				"y": -0.9571578703,
				"z": 1.7367171978,
				"element": "C" 
			},
			{
				"x": 1.5865649373,
				"y": -3.1028957123,
				"z": -3.3179628278,
				"element": "H" 
			},
			{
				"x": 1.7007462265,
				"y": -1.7946838687,
				"z": -4.3140987913,
				"element": "H" 
			},
			{
				"x": 2.6858917063,
				"y": -2.3898895644,
				"z": -0.9002184375,
				"element": "H" 
			},
			{
				"x": -0.1942387156,
				"y": -0.1919251299,
				"z": -4.0841425545,
				"element": "H" 
			},
			{
				"x": 0.2934855115,
				"y": 1.4358378959,
				"z": -3.5648268131,
				"element": "H" 
			},
			{
				"x": -1.9279645307,
				"y": -0.2319860422,
				"z": -2.2595976909,
				"element": "H" 
			},
			{
				"x": -1.4333207268,
				"y": 1.3967026748,
				"z": -1.7756448726,
				"element": "H" 
			},
			{
				"x": -2.6145164728,
				"y": 0.6934938371,
				"z": -4.2390642055,
				"element": "H" 
			},
			{
				"x": 1.472006798,
				"y": 1.9707900023,
				"z": 0.8755673012,
				"element": "H" 
			},
			{
				"x": 3.4947525365,
				"y": 0.9310728767,
				"z": 4.5306988439,
				"element": "H" 
			},
			{
				"x": 3.9509974511,
				"y": -1.340799337,
				"z": 3.6128861468,
				"element": "H" 
			},
			{
				"x": 3.1693226691,
				"y": -1.9526531972,
				"z": 1.3529605424,
				"element": "H" 
			}
		],
		 "valence_orbital": [ 
			{
				"type": "occ",
				"energy": -0.28181,
				"method": "rhf"
			},
			{
				"type": "occ",
				"energy": -0.27085,
				"method": "rhf"
			},
			{
				"type": "occ",
				"energy": -0.2416,
				"method": "rhf"
			},
			{
				"type": "occ",
				"energy": -0.22822,
				"method": "rhf"
			},
			{
				"type": "occ",
				"energy": -0.21281,
				"method": "rhf"
			},
			{
				"type": "unocc",
				"energy": -0.02482,
				"method": "rhf"
			},
			{
				"type": "unocc",
				"energy": -0.00327,
				"method": "rhf"
			},
			{
				"type": "unocc",
				"energy": 0.03315,
				"method": "rhf"
			},
			{
				"type": "unocc",
				"energy": 0.0404,
				"method": "rhf"
			},
			{
				"type": "unocc",
				"energy": 0.06063,
				"method": "rhf"
			}
		],
		"cosmo_sigma_profile": { 
			"-0.025": 0.0,
			"-0.024": 0.0,
			"-0.023": 0.0,
			"-0.022": 0.0,
			"-0.021": 0.0,
			"-0.02": 0.0,
			"-0.019": 0.0,
			"-0.018": 0.0,
			"-0.017": 0.0,
			"-0.016": 0.589691298113,
			"-0.015": 1.43120886501,
			"-0.014": 0.754921460586,
			"-0.013": 2.99470093413,
			"-0.012": 4.08280731948,
			"-0.011": 3.92386758157,
			"-0.01": 4.68666543074,
			"-0.009": 2.96386741171,
			"-0.008": 4.61474410715,
			"-0.007": 9.29374140609,
			"-0.006": 11.4200829142,
			"-0.005": 14.5616791792,
			"-0.004": 15.1620839136,
			"-0.003": 14.0899463905,
			"-0.002": 14.5172568402,
			"-0.001": 14.949186408,
			"0.0": 12.3777260347,
			"0.001": 16.0147663129,
			"0.002": 20.651746691,
			"0.003": 25.5859690977,
			"0.004": 28.1678249826,
			"0.005": 20.1249088474,
			"0.006": 6.87862828561,
			"0.007": 3.51706307965,
			"0.008": 4.22407597794,
			"0.009": 3.85376350467,
			"0.01": 2.50628436147,
			"0.011": 2.37630348053,
			"0.012": 2.98798040907,
			"0.013": 2.25495822372,
			"0.014": 2.40762684932,
			"0.015": 0.177438790323,
			"0.016": 0.0,
			"0.017": 0.0,
			"0.018": 0.0,
			"0.019": 0.0,
			"0.02": 0.0,
			"0.021": 0.0,
			"0.022": 0.0,
			"0.023": 0.0,
			"0.024": 0.0,
			"0.025": 0.0
		}
	}
}
