{
	 "smiles": "NN1C(N)=NC2=C1C=CC=C2", 
	 "Tm": 533.15, 
	 "num_atms": 19, 
	 "gaussian": { 
		 "optdone": 1, 
		 "sigma_profile": "yes", 
		 "theory": "DFT", 
		 "functional": "B3LYP", 
		 "basiset": "6-31G**", 
		 "properties": { 
			 "R2extent": 1659.0408, 
			 "electric_dipole_moment_norm": 4.49588812694, 
			 "electric_quadrupole_moment_norm": 14.8153886372, 
			 "total_energy": -490.550749184, 
			 "HOMO_LUMO_gap": 0.2049, 
			 "cosmo_polarized_energy": -18.2, 
			 "cosmo_cavitation_energy": 23.0, 
			 "cosmo_dispersion_energy": -17.32, 
			 "cosmo_repulsion_energy": 1.39, 
			 "cosmo_total_nonelectrostatic_energy": 7.07, 
			 "SMD_solvation_energy": 2.33 
		},
		"coords": [
			{
				"x": 0.5071697567,
				"y": 2.1059628378,
				"z": -1.7575584436,
				"element": "N" 
			},
			{
				"x": 0.4803528481,
				"y": 0.8169482807,
				"z": -1.2224885619,
				"element": "N" 
			},
			{
				"x": 1.4065780783,
				"y": -0.2002838503,
				"z": -1.3946414046,
				"element": "C" 
			},
			{
				"x": 2.5022571296,
				"y": -0.0128831875,
				"z": -2.2231204016,
				"element": "N" 
			},
			{
				"x": 1.1768745252,
				"y": -1.2524854087,
				"z": -0.6511820602,
				"element": "N" 
			},
			{
				"x": 0.0363111444,
				"y": -0.922276549,
				"z": 0.0813080693,
				"element": "C" 
			},
			{
				"x": -0.419584952,
				"y": 0.3727964743,
				"z": -0.2549315266,
				"element": "C" 
			},
			{
				"x": -1.5415021276,
				"y": 0.9591730097,
				"z": 0.3198110015,
				"element": "C" 
			},
			{
				"x": -2.2228383967,
				"y": 0.1984884616,
				"z": 1.2722771877,
				"element": "C" 
			},
			{
				"x": -1.7920515244,
				"y": -1.0946040262,
				"z": 1.6200299502,
				"element": "C" 
			},
			{
				"x": -0.6644362929,
				"y": -1.66910779,
				"z": 1.0332004971,
				"element": "C" 
			},
			{
				"x": 0.3138092548,
				"y": 2.0784801525,
				"z": -2.7561502175,
				"element": "H" 
			},
			{
				"x": 1.4264248858,
				"y": 2.514912999,
				"z": -1.6051331574,
				"element": "H" 
			},
			{
				"x": 3.0372086721,
				"y": -0.869353845,
				"z": -2.3009396649,
				"element": "H" 
			},
			{
				"x": 2.2844797716,
				"y": 0.3708813989,
				"z": -3.1356221519,
				"element": "H" 
			},
			{
				"x": -1.8588755567,
				"y": 1.9588400632,
				"z": 0.0429279299,
				"element": "H" 
			},
			{
				"x": -3.1023751417,
				"y": 0.6151773683,
				"z": 1.7544033347,
				"element": "H" 
			},
			{
				"x": -2.3504508865,
				"y": -1.6560391368,
				"z": 2.363598202,
				"element": "H" 
			},
			{
				"x": -0.3285511881,
				"y": -2.6659272523,
				"z": 1.3009114177,
				"element": "H" 
			}
		],
		 "valence_orbital": [ 
			{
				"type": "occ",
				"energy": -0.29709,
				"method": "rhf"
			},
			{
				"type": "occ",
				"energy": -0.2822,
				"method": "rhf"
			},
			{
				"type": "occ",
				"energy": -0.25739,
				"method": "rhf"
			},
			{
				"type": "occ",
				"energy": -0.21336,
				"method": "rhf"
			},
			{
				"type": "occ",
				"energy": -0.19957,
				"method": "rhf"
			},
			{
				"type": "unocc",
				"energy": 0.00533,
				"method": "rhf"
			},
			{
				"type": "unocc",
				"energy": 0.03294,
				"method": "rhf"
			},
			{
				"type": "unocc",
				"energy": 0.04194,
				"method": "rhf"
			},
			{
				"type": "unocc",
				"energy": 0.07017,
				"method": "rhf"
			},
			{
				"type": "unocc",
				"energy": 0.09312,
				"method": "rhf"
			}
		],
		"cosmo_sigma_profile": { 
			"-0.025": 0.0,
			"-0.024": 0.0,
			"-0.023": 0.0,
			"-0.022": 0.0,
			"-0.021": 0.0,
			"-0.02": 0.0,
			"-0.019": 0.0,
			"-0.018": 0.0,
			"-0.017": 0.0,
			"-0.016": 0.0,
			"-0.015": 0.000497951533493,
			"-0.014": 2.52937632226,
			"-0.013": 5.3343957077,
			"-0.012": 6.36050096661,
			"-0.011": 6.20852924655,
			"-0.01": 3.85285117786,
			"-0.009": 3.73324809138,
			"-0.008": 2.93279057968,
			"-0.007": 2.67732967501,
			"-0.006": 3.50755572459,
			"-0.005": 8.08395472293,
			"-0.004": 10.1045484886,
			"-0.003": 8.95128084959,
			"-0.002": 9.42228352657,
			"-0.001": 8.60499585648,
			"0.0": 8.99300543064,
			"0.001": 8.60568138415,
			"0.002": 8.79118642581,
			"0.003": 10.9205127859,
			"0.004": 10.0843086198,
			"0.005": 12.5781420063,
			"0.006": 12.2854658312,
			"0.007": 9.00195663643,
			"0.008": 3.20000403175,
			"0.009": 3.48440672455,
			"0.01": 2.38101111852,
			"0.011": 1.71597051722,
			"0.012": 1.78149534289,
			"0.013": 2.24508414779,
			"0.014": 0.854661144185,
			"0.015": 0.858349417822,
			"0.016": 1.43341733431,
			"0.017": 0.668088718112,
			"0.018": 0.597764349377,
			"0.019": 0.0,
			"0.02": 0.0,
			"0.021": 0.0,
			"0.022": 0.0,
			"0.023": 0.0,
			"0.024": 0.0,
			"0.025": 0.0
		}
	}
}
