{
	 "smiles": "NNC1=C(C=CC=C1)S(=O)(=O)N1CCOCC1", 
	 "Tm": 415.15, 
	 "num_atms": 32, 
	 "gaussian": { 
		 "optdone": 1, 
		 "sigma_profile": "yes", 
		 "theory": "DFT", 
		 "functional": "B3LYP", 
		 "basiset": "6-31G**", 
		 "properties": { 
			 "R2extent": 4744.0866, 
			 "electric_dipole_moment_norm": 4.43905490617, 
			 "electric_quadrupole_moment_norm": 16.5893135901, 
			 "total_energy": -1178.0885957, 
			 "HOMO_LUMO_gap": 0.18338, 
			 "cosmo_polarized_energy": -17.56, 
			 "cosmo_cavitation_energy": 34.7, 
			 "cosmo_dispersion_energy": -25.34, 
			 "cosmo_repulsion_energy": 1.93, 
			 "cosmo_total_nonelectrostatic_energy": 11.29, 
			 "SMD_solvation_energy": 4.57 
		},
		"coords": [
			{
				"x": -0.2324547781,
				"y": -3.9538573527,
				"z": 2.2609195732,
				"element": "N" 
			},
			{
				"x": -0.4785984514,
				"y": -2.7377543667,
				"z": 1.6006240723,
				"element": "N" 
			},
			{
				"x": -0.5710783512,
				"y": -2.6494767772,
				"z": 0.2254699096,
				"element": "C" 
			},
			{
				"x": -1.0491328177,
				"y": -1.4722513841,
				"z": -0.4154742067,
				"element": "C" 
			},
			{
				"x": -1.1475823296,
				"y": -1.3914452375,
				"z": -1.8064085476,
				"element": "C" 
			},
			{
				"x": -0.7515055157,
				"y": -2.458181215,
				"z": -2.6091208738,
				"element": "C" 
			},
			{
				"x": -0.2534915967,
				"y": -3.6097798966,
				"z": -1.996468418,
				"element": "C" 
			},
			{
				"x": -0.1656184617,
				"y": -3.7093614776,
				"z": -0.611394229,
				"element": "C" 
			},
			{
				"x": -1.538631175,
				"y": -0.0373905101,
				"z": 0.5276577412,
				"element": "S" 
			},
			{
				"x": -2.2430473202,
				"y": -0.4790869408,
				"z": 1.747218331,
				"element": "O" 
			},
			{
				"x": -2.1929634614,
				"y": 0.9035249798,
				"z": -0.3906267577,
				"element": "O" 
			},
			{
				"x": -0.0518027606,
				"y": 0.5717724625,
				"z": 1.0512225396,
				"element": "N" 
			},
			{
				"x": 0.0361779708,
				"y": 1.1209071959,
				"z": 2.4252742697,
				"element": "C" 
			},
			{
				"x": 0.3818648786,
				"y": 2.6058596316,
				"z": 2.3875380025,
				"element": "C" 
			},
			{
				"x": 1.6151822676,
				"y": 2.8638825841,
				"z": 1.716096392,
				"element": "O" 
			},
			{
				"x": 1.9463640173,
				"y": 1.9213165512,
				"z": 0.7020791761,
				"element": "C" 
			},
			{
				"x": 0.7169273471,
				"y": 1.3162698074,
				"z": 0.0318826324,
				"element": "C" 
			},
			{
				"x": 0.7455424112,
				"y": -4.2081266506,
				"z": 2.1457413453,
				"element": "H" 
			},
			{
				"x": -0.8034110551,
				"y": -4.7036633575,
				"z": 1.8679942439,
				"element": "H" 
			},
			{
				"x": -1.0815147186,
				"y": -2.1180182361,
				"z": 2.1286096696,
				"element": "H" 
			},
			{
				"x": -1.5455989012,
				"y": -0.4807410109,
				"z": -2.2404037075,
				"element": "H" 
			},
			{
				"x": -0.8295556717,
				"y": -2.3903174389,
				"z": -3.6887609255,
				"element": "H" 
			},
			{
				"x": 0.0671062218,
				"y": -4.4516867221,
				"z": -2.6039552744,
				"element": "H" 
			},
			{
				"x": 0.2199049911,
				"y": -4.6168795353,
				"z": -0.1616253104,
				"element": "H" 
			},
			{
				"x": -0.9121264825,
				"y": 0.9613431986,
				"z": 2.9410078433,
				"element": "H" 
			},
			{
				"x": 0.8093027982,
				"y": 0.5686850873,
				"z": 2.9730713654,
				"element": "H" 
			},
			{
				"x": -0.4361157697,
				"y": 3.161706159,
				"z": 1.9048964058,
				"element": "H" 
			},
			{
				"x": 0.4909484772,
				"y": 2.9887762027,
				"z": 3.4079607725,
				"element": "H" 
			},
			{
				"x": 2.5703200059,
				"y": 1.114253234,
				"z": 1.1161923457,
				"element": "H" 
			},
			{
				"x": 2.5426679764,
				"y": 2.4545551488,
				"z": -0.0453482335,
				"element": "H" 
			},
			{
				"x": 0.1127163492,
				"y": 2.1091848682,
				"z": -0.4266989467,
				"element": "H" 
			},
			{
				"x": 1.0290039054,
				"y": 0.6258809987,
				"z": -0.7594712002,
				"element": "H" 
			}
		],
		 "valence_orbital": [ 
			{
				"type": "occ",
				"energy": -0.27541,
				"method": "rhf"
			},
			{
				"type": "occ",
				"energy": -0.27147,
				"method": "rhf"
			},
			{
				"type": "occ",
				"energy": -0.25726,
				"method": "rhf"
			},
			{
				"type": "occ",
				"energy": -0.246,
				"method": "rhf"
			},
			{
				"type": "occ",
				"energy": -0.2174,
				"method": "rhf"
			},
			{
				"type": "unocc",
				"energy": -0.03402,
				"method": "rhf"
			},
			{
				"type": "unocc",
				"energy": -0.00223,
				"method": "rhf"
			},
			{
				"type": "unocc",
				"energy": 0.0571,
				"method": "rhf"
			},
			{
				"type": "unocc",
				"energy": 0.06698,
				"method": "rhf"
			},
			{
				"type": "unocc",
				"energy": 0.07166,
				"method": "rhf"
			}
		],
		"cosmo_sigma_profile": { 
			"-0.025": 0.0,
			"-0.024": 0.0,
			"-0.023": 0.0,
			"-0.022": 0.0,
			"-0.021": 0.0,
			"-0.02": 0.0,
			"-0.019": 0.0,
			"-0.018": 0.0,
			"-0.017": 0.0,
			"-0.016": 0.0,
			"-0.015": 0.0,
			"-0.014": 0.0,
			"-0.013": 0.0,
			"-0.012": 0.494326593542,
			"-0.011": 2.68155200253,
			"-0.01": 4.61324699636,
			"-0.009": 3.12528488829,
			"-0.008": 3.1952509741,
			"-0.007": 4.71595685941,
			"-0.006": 15.6643987362,
			"-0.005": 29.9562071178,
			"-0.004": 30.7313234265,
			"-0.003": 22.297703681,
			"-0.002": 17.5480576219,
			"-0.001": 14.0721075234,
			"0.0": 12.9839710799,
			"0.001": 12.7977512005,
			"0.002": 13.3019350278,
			"0.003": 12.617414744,
			"0.004": 14.929426124,
			"0.005": 9.02128787951,
			"0.006": 6.33598466047,
			"0.007": 5.61385366938,
			"0.008": 5.19362380538,
			"0.009": 6.67746313035,
			"0.01": 7.77834270733,
			"0.011": 7.93764462974,
			"0.012": 4.68369227986,
			"0.013": 2.61715540683,
			"0.014": 0.513415062795,
			"0.015": 0.818911896085,
			"0.016": 0.583591952566,
			"0.017": 0.0735179753854,
			"0.018": 0.0,
			"0.019": 0.0,
			"0.02": 0.0,
			"0.021": 0.0,
			"0.022": 0.0,
			"0.023": 0.0,
			"0.024": 0.0,
			"0.025": 0.0
		}
	}
}
