{
	 "smiles": "NN=C(C(=NN)C1=CC2=CC=CC=C2C=C1)C1=CC=CC=C1", 
	 "Tm": 436.15, 
	 "num_atms": 38, 
	 "gaussian": { 
		 "optdone": 1, 
		 "sigma_profile": "yes", 
		 "theory": "DFT", 
		 "functional": "B3LYP", 
		 "basiset": "6-31G**", 
		 "properties": { 
			 "R2extent": 7339.7256, 
			 "electric_dipole_moment_norm": 3.18083154851, 
			 "electric_quadrupole_moment_norm": 14.1873366782, 
			 "total_energy": -914.503023812, 
			 "HOMO_LUMO_gap": 0.14096, 
			 "cosmo_polarized_energy": -15.08, 
			 "cosmo_cavitation_energy": 41.43, 
			 "cosmo_dispersion_energy": -28.84, 
			 "cosmo_repulsion_energy": 2.24, 
			 "cosmo_total_nonelectrostatic_energy": 14.83, 
			 "SMD_solvation_energy": 6.11 
		},
		"coords": [
			{
				"x": 3.4354885825,
				"y": 1.4215697253,
				"z": -2.300386021,
				"element": "N" 
			},
			{
				"x": 2.9923657102,
				"y": 1.9886511721,
				"z": -1.1579149636,
				"element": "N" 
			},
			{
				"x": 1.782813332,
				"y": 1.7887699068,
				"z": -0.7194414329,
				"element": "C" 
			},
			{
				"x": 0.7424832042,
				"y": 0.9452486321,
				"z": -1.379290381,
				"element": "C" 
			},
			{
				"x": 0.8283921814,
				"y": 0.7922408144,
				"z": -2.6676499323,
				"element": "N" 
			},
			{
				"x": -0.07378609,
				"y": 0.0249365799,
				"z": -3.352268998,
				"element": "N" 
			},
			{
				"x": -0.2591171228,
				"y": 0.2292308571,
				"z": -0.5262339918,
				"element": "C" 
			},
			{
				"x": -1.6137003591,
				"y": 0.2357580986,
				"z": -0.8179041082,
				"element": "C" 
			},
			{
				"x": -2.5523629296,
				"y": -0.4600377741,
				"z": -0.0098418805,
				"element": "C" 
			},
			{
				"x": -3.9452413665,
				"y": -0.4503931615,
				"z": -0.2933415726,
				"element": "C" 
			},
			{
				"x": -4.8311170514,
				"y": -1.1370494724,
				"z": 0.5064548953,
				"element": "C" 
			},
			{
				"x": -4.3647037461,
				"y": -1.8664809136,
				"z": 1.6279207534,
				"element": "C" 
			},
			{
				"x": -3.0210207597,
				"y": -1.8941270958,
				"z": 1.9294874028,
				"element": "C" 
			},
			{
				"x": -2.0819665348,
				"y": -1.195302494,
				"z": 1.1256637959,
				"element": "C" 
			},
			{
				"x": -0.6878884545,
				"y": -1.1933893647,
				"z": 1.4049545443,
				"element": "C" 
			},
			{
				"x": 0.1944182663,
				"y": -0.5020369943,
				"z": 0.6114122213,
				"element": "C" 
			},
			{
				"x": 1.4685340095,
				"y": 2.4813761269,
				"z": 0.5645399128,
				"element": "C" 
			},
			{
				"x": 2.4656993614,
				"y": 2.6446896775,
				"z": 1.5418432905,
				"element": "C" 
			},
			{
				"x": 2.2015292284,
				"y": 3.3303097173,
				"z": 2.7249156026,
				"element": "C" 
			},
			{
				"x": 0.9339054106,
				"y": 3.8697415604,
				"z": 2.9602479404,
				"element": "C" 
			},
			{
				"x": -0.0630749755,
				"y": 3.720844347,
				"z": 1.9955460055,
				"element": "C" 
			},
			{
				"x": 0.2013750317,
				"y": 3.0349678341,
				"z": 0.8097752315,
				"element": "C" 
			},
			{
				"x": 2.7308197467,
				"y": 1.2322211992,
				"z": -3.0079280964,
				"element": "H" 
			},
			{
				"x": 4.2873952995,
				"y": 1.8627329713,
				"z": -2.6154913933,
				"element": "H" 
			},
			{
				"x": 0.3544476113,
				"y": -0.3330200287,
				"z": -4.1966458515,
				"element": "H" 
			},
			{
				"x": -0.5339547637,
				"y": -0.70439723,
				"z": -2.8071047173,
				"element": "H" 
			},
			{
				"x": -1.9816802507,
				"y": 0.7978246034,
				"z": -1.6722280648,
				"element": "H" 
			},
			{
				"x": -4.3003670714,
				"y": 0.1107923717,
				"z": -1.153982228,
				"element": "H" 
			},
			{
				"x": -5.8933441402,
				"y": -1.1215995358,
				"z": 0.2803225466,
				"element": "H" 
			},
			{
				"x": -5.0736957088,
				"y": -2.4040634368,
				"z": 2.2508582838,
				"element": "H" 
			},
			{
				"x": -2.6606326795,
				"y": -2.4513745812,
				"z": 2.7903973431,
				"element": "H" 
			},
			{
				"x": -0.3260284145,
				"y": -1.7485170735,
				"z": 2.2666107119,
				"element": "H" 
			},
			{
				"x": 1.2541554073,
				"y": -0.503181949,
				"z": 0.8453652586,
				"element": "H" 
			},
			{
				"x": 3.4502532757,
				"y": 2.2305737681,
				"z": 1.3522078566,
				"element": "H" 
			},
			{
				"x": 2.9860119091,
				"y": 3.4403113119,
				"z": 3.4689601864,
				"element": "H" 
			},
			{
				"x": 0.7269025093,
				"y": 4.4009485916,
				"z": 3.8850119853,
				"element": "H" 
			},
			{
				"x": -1.0498337614,
				"y": 4.144562553,
				"z": 2.1612587987,
				"element": "H" 
			},
			{
				"x": -0.5806738968,
				"y": 2.9398686854,
				"z": 0.063499066,
				"element": "H" 
			}
		],
		 "valence_orbital": [ 
			{
				"type": "occ",
				"energy": -0.24552,
				"method": "rhf"
			},
			{
				"type": "occ",
				"energy": -0.23483,
				"method": "rhf"
			},
			{
				"type": "occ",
				"energy": -0.22956,
				"method": "rhf"
			},
			{
				"type": "occ",
				"energy": -0.21707,
				"method": "rhf"
			},
			{
				"type": "occ",
				"energy": -0.19039,
				"method": "rhf"
			},
			{
				"type": "unocc",
				"energy": -0.04943,
				"method": "rhf"
			},
			{
				"type": "unocc",
				"energy": -0.03455,
				"method": "rhf"
			},
			{
				"type": "unocc",
				"energy": -0.01375,
				"method": "rhf"
			},
			{
				"type": "unocc",
				"energy": 0.00942,
				"method": "rhf"
			},
			{
				"type": "unocc",
				"energy": 0.0144,
				"method": "rhf"
			}
		],
		"cosmo_sigma_profile": { 
			"-0.025": 0.0,
			"-0.024": 0.0,
			"-0.023": 0.0,
			"-0.022": 0.0,
			"-0.021": 0.0,
			"-0.02": 0.0,
			"-0.019": 0.0,
			"-0.018": 0.0,
			"-0.017": 0.0,
			"-0.016": 0.0,
			"-0.015": 0.0,
			"-0.014": 0.0,
			"-0.013": 1.65548028073,
			"-0.012": 2.67786547884,
			"-0.011": 3.35613192366,
			"-0.01": 3.71301388131,
			"-0.009": 3.08378036279,
			"-0.008": 3.93861098717,
			"-0.007": 3.88929742647,
			"-0.006": 16.5491078791,
			"-0.005": 24.005116808,
			"-0.004": 26.4429462754,
			"-0.003": 27.558292896,
			"-0.002": 20.1775499352,
			"-0.001": 19.1980228449,
			"0.0": 18.8622055184,
			"0.001": 18.5148062256,
			"0.002": 19.9079150994,
			"0.003": 26.4796405189,
			"0.004": 28.8264418954,
			"0.005": 21.8180394468,
			"0.006": 15.545804052,
			"0.007": 7.0075708508,
			"0.008": 3.95647350182,
			"0.009": 4.89457814214,
			"0.01": 3.30128320577,
			"0.011": 1.76263447995,
			"0.012": 2.85891913378,
			"0.013": 0.890541638454,
			"0.014": 0.151084993308,
			"0.015": 0.0,
			"0.016": 0.0,
			"0.017": 0.0,
			"0.018": 0.0,
			"0.019": 0.0,
			"0.02": 0.0,
			"0.021": 0.0,
			"0.022": 0.0,
			"0.023": 0.0,
			"0.024": 0.0,
			"0.025": 0.0
		}
	}
}
