{
	 "smiles": "CC1=C(C=NC=N1)C(O)=O", 
	 "Tm": 448.15, 
	 "num_atms": 16, 
	 "gaussian": { 
		 "optdone": 1, 
		 "sigma_profile": "yes", 
		 "theory": "DFT", 
		 "functional": "B3LYP", 
		 "basiset": "6-31G**", 
		 "properties": { 
			 "R2extent": 1555.374, 
			 "electric_dipole_moment_norm": 3.55636060742, 
			 "electric_quadrupole_moment_norm": 9.30394134332, 
			 "total_energy": -492.204187056, 
			 "HOMO_LUMO_gap": 0.19765, 
			 "cosmo_polarized_energy": -15.03, 
			 "cosmo_cavitation_energy": 20.51, 
			 "cosmo_dispersion_energy": -15.36, 
			 "cosmo_repulsion_energy": 1.23, 
			 "cosmo_total_nonelectrostatic_energy": 6.38, 
			 "SMD_solvation_energy": 2.09 
		},
		"coords": [
			{
				"x": -0.6873716685,
				"y": 1.3082498305,
				"z": 2.3217079846,
				"element": "C" 
			},
			{
				"x": -0.2905476432,
				"y": 1.5941530444,
				"z": 0.8923596443,
				"element": "C" 
			},
			{
				"x": -0.2223428554,
				"y": 0.6258121028,
				"z": -0.129722846,
				"element": "C" 
			},
			{
				"x": 0.238584194,
				"y": 1.0666201924,
				"z": -1.3791927421,
				"element": "C" 
			},
			{
				"x": 0.5527941099,
				"y": 2.3356893868,
				"z": -1.6380160014,
				"element": "N" 
			},
			{
				"x": 0.4190720552,
				"y": 3.1759945097,
				"z": -0.60481384,
				"element": "C" 
			},
			{
				"x": 0.0343353967,
				"y": 2.8729786038,
				"z": 0.6354947129,
				"element": "N" 
			},
			{
				"x": -0.5289732326,
				"y": -0.839961078,
				"z": -0.0150546686,
				"element": "C" 
			},
			{
				"x": -1.4561849391,
				"y": -1.2250584756,
				"z": 0.898749827,
				"element": "O" 
			},
			{
				"x": 0.0050026596,
				"y": -1.6659323871,
				"z": -0.7157454476,
				"element": "O" 
			},
			{
				"x": -0.3382180023,
				"y": 0.3333348921,
				"z": 2.6700066026,
				"element": "H" 
			},
			{
				"x": -0.2748130264,
				"y": 2.0915989434,
				"z": 2.9590897744,
				"element": "H" 
			},
			{
				"x": -1.7792545011,
				"y": 1.3504391096,
				"z": 2.4453746791,
				"element": "H" 
			},
			{
				"x": 0.3482889299,
				"y": 0.3451648819,
				"z": -2.1852389492,
				"element": "H" 
			},
			{
				"x": 0.6616000154,
				"y": 4.2201790588,
				"z": -0.7927953383,
				"element": "H" 
			},
			{
				"x": -1.8867714923,
				"y": -0.4585626155,
				"z": 1.3003966082,
				"element": "H" 
			}
		],
		 "valence_orbital": [ 
			{
				"type": "occ",
				"energy": -0.32924,
				"method": "rhf"
			},
			{
				"type": "occ",
				"energy": -0.32658,
				"method": "rhf"
			},
			{
				"type": "occ",
				"energy": -0.30105,
				"method": "rhf"
			},
			{
				"type": "occ",
				"energy": -0.283,
				"method": "rhf"
			},
			{
				"type": "occ",
				"energy": -0.26898,
				"method": "rhf"
			},
			{
				"type": "unocc",
				"energy": -0.07133,
				"method": "rhf"
			},
			{
				"type": "unocc",
				"energy": -0.05691,
				"method": "rhf"
			},
			{
				"type": "unocc",
				"energy": 0.01975,
				"method": "rhf"
			},
			{
				"type": "unocc",
				"energy": 0.04934,
				"method": "rhf"
			},
			{
				"type": "unocc",
				"energy": 0.1117,
				"method": "rhf"
			}
		],
		"cosmo_sigma_profile": { 
			"-0.025": 0.0,
			"-0.024": 0.0,
			"-0.023": 0.0,
			"-0.022": 0.0,
			"-0.021": 0.0,
			"-0.02": 0.0,
			"-0.019": 0.102880496802,
			"-0.018": 1.03854180052,
			"-0.017": 0.850111787979,
			"-0.016": 1.03147400044,
			"-0.015": 1.08339912117,
			"-0.014": 1.14286187741,
			"-0.013": 0.900603063468,
			"-0.012": 0.7795765395,
			"-0.011": 1.25857168933,
			"-0.01": 0.907957262829,
			"-0.009": 1.62556405122,
			"-0.008": 5.22795815231,
			"-0.007": 6.03887565359,
			"-0.006": 9.72362231843,
			"-0.005": 10.4712072581,
			"-0.004": 10.7198454713,
			"-0.003": 14.7305507355,
			"-0.002": 15.2710618856,
			"-0.001": 9.60656774193,
			"0.0": 5.71465546459,
			"0.001": 7.00609890366,
			"0.002": 5.24301200781,
			"0.003": 3.79715783896,
			"0.004": 4.07235435432,
			"0.005": 5.56639233755,
			"0.006": 5.17697559066,
			"0.007": 3.88542774648,
			"0.008": 3.82600882618,
			"0.009": 6.15589815545,
			"0.01": 6.81071390958,
			"0.011": 7.32516402302,
			"0.012": 3.97404703009,
			"0.013": 1.43232642083,
			"0.014": 1.57349830996,
			"0.015": 0.45120756851,
			"0.016": 0.0,
			"0.017": 0.0,
			"0.018": 0.0,
			"0.019": 0.0,
			"0.02": 0.0,
			"0.021": 0.0,
			"0.022": 0.0,
			"0.023": 0.0,
			"0.024": 0.0,
			"0.025": 0.0
		}
	}
}
