{
	 "smiles": "COCC1=NC(CC(O)=O)=CS1", 
	 "Tm": 333.15, 
	 "num_atms": 21, 
	 "gaussian": { 
		 "optdone": 1, 
		 "sigma_profile": "yes", 
		 "theory": "DFT", 
		 "functional": "B3LYP", 
		 "basiset": "6-31G**", 
		 "properties": { 
			 "R2extent": 3106.047, 
			 "electric_dipole_moment_norm": 3.55696494501, 
			 "electric_quadrupole_moment_norm": 12.9496492713, 
			 "total_energy": -950.762917669, 
			 "HOMO_LUMO_gap": 0.20961, 
			 "cosmo_polarized_energy": -15.47, 
			 "cosmo_cavitation_energy": 27.62, 
			 "cosmo_dispersion_energy": -20.07, 
			 "cosmo_repulsion_energy": 1.61, 
			 "cosmo_total_nonelectrostatic_energy": 9.16, 
			 "SMD_solvation_energy": 4.84 
		},
		"coords": [
			{
				"x": -1.4640998612,
				"y": -0.0653791254,
				"z": 3.4884834031,
				"element": "C" 
			},
			{
				"x": -0.2503839391,
				"y": -0.5337037235,
				"z": 2.9307213901,
				"element": "O" 
			},
			{
				"x": 0.3429360012,
				"y": 0.3499224213,
				"z": 1.9976804802,
				"element": "C" 
			},
			{
				"x": -0.3635672152,
				"y": 0.4032210249,
				"z": 0.6623462403,
				"element": "C" 
			},
			{
				"x": -0.2552143731,
				"y": -0.5149983259,
				"z": -0.2536937362,
				"element": "N" 
			},
			{
				"x": -1.0222177354,
				"y": -0.2286438724,
				"z": -1.3615960636,
				"element": "C" 
			},
			{
				"x": -1.0170646915,
				"y": -1.1919414428,
				"z": -2.5163237333,
				"element": "C" 
			},
			{
				"x": 0.33317713,
				"y": -1.3486175275,
				"z": -3.201452078,
				"element": "C" 
			},
			{
				"x": 0.9421885419,
				"y": -0.1575919796,
				"z": -3.4081813103,
				"element": "O" 
			},
			{
				"x": 0.8063127253,
				"y": -2.4003297926,
				"z": -3.5652530776,
				"element": "O" 
			},
			{
				"x": -1.7337539902,
				"y": 0.9386630055,
				"z": -1.2919356358,
				"element": "C" 
			},
			{
				"x": -1.4416024422,
				"y": 1.7257635086,
				"z": 0.2192524315,
				"element": "S" 
			},
			{
				"x": -2.2680784879,
				"y": 0.0097397206,
				"z": 2.7432570859,
				"element": "H" 
			},
			{
				"x": -1.33756178,
				"y": 0.9202115646,
				"z": 3.9646000071,
				"element": "H" 
			},
			{
				"x": -1.7594228304,
				"y": -0.790060286,
				"z": 4.2505485991,
				"element": "H" 
			},
			{
				"x": 0.4228603354,
				"y": 1.3655867145,
				"z": 2.4171373035,
				"element": "H" 
			},
			{
				"x": 1.3508562498,
				"y": -0.0353309445,
				"z": 1.8226261254,
				"element": "H" 
			},
			{
				"x": -1.3158097293,
				"y": -2.190861873,
				"z": -2.1894913798,
				"element": "H" 
			},
			{
				"x": -1.7318042015,
				"y": -0.860131225,
				"z": -3.2781082462,
				"element": "H" 
			},
			{
				"x": 1.780053541,
				"y": -0.3610752518,
				"z": -3.8570246544,
				"element": "H" 
			},
			{
				"x": -2.3868032476,
				"y": 1.3708574099,
				"z": -2.0367931513,
				"element": "H" 
			}
		],
		 "valence_orbital": [ 
			{
				"type": "occ",
				"energy": -0.29116,
				"method": "rhf"
			},
			{
				"type": "occ",
				"energy": -0.2839,
				"method": "rhf"
			},
			{
				"type": "occ",
				"energy": -0.27724,
				"method": "rhf"
			},
			{
				"type": "occ",
				"energy": -0.26189,
				"method": "rhf"
			},
			{
				"type": "occ",
				"energy": -0.24595,
				"method": "rhf"
			},
			{
				"type": "unocc",
				"energy": -0.03634,
				"method": "rhf"
			},
			{
				"type": "unocc",
				"energy": 0.00877,
				"method": "rhf"
			},
			{
				"type": "unocc",
				"energy": 0.01075,
				"method": "rhf"
			},
			{
				"type": "unocc",
				"energy": 0.03475,
				"method": "rhf"
			},
			{
				"type": "unocc",
				"energy": 0.07643,
				"method": "rhf"
			}
		],
		"cosmo_sigma_profile": { 
			"-0.025": 0.0,
			"-0.024": 0.0,
			"-0.023": 0.0,
			"-0.022": 0.0,
			"-0.021": 0.0,
			"-0.02": 0.0,
			"-0.019": 0.101878070798,
			"-0.018": 0.701330444528,
			"-0.017": 1.07441814679,
			"-0.016": 0.830242294536,
			"-0.015": 0.930026808623,
			"-0.014": 0.486673270153,
			"-0.013": 0.42155648295,
			"-0.012": 0.803143479345,
			"-0.011": 0.996842221101,
			"-0.01": 1.12869024326,
			"-0.009": 2.80366500358,
			"-0.008": 6.03759516529,
			"-0.007": 7.71447400111,
			"-0.006": 11.5441998529,
			"-0.005": 13.3120641731,
			"-0.004": 17.0362751751,
			"-0.003": 18.2534771647,
			"-0.002": 18.5063767053,
			"-0.001": 11.7563616927,
			"0.0": 13.4898543107,
			"0.001": 13.7445841665,
			"0.002": 13.7636361904,
			"0.003": 9.29405511444,
			"0.004": 5.78323989014,
			"0.005": 6.35687785988,
			"0.006": 6.41824096247,
			"0.007": 4.65967120794,
			"0.008": 5.31111999459,
			"0.009": 6.17721356338,
			"0.01": 5.43071134573,
			"0.011": 6.73451778211,
			"0.012": 7.03088368237,
			"0.013": 1.62821854181,
			"0.014": 0.665578276882,
			"0.015": 0.0368077456884,
			"0.016": 0.0,
			"0.017": 0.0,
			"0.018": 0.0,
			"0.019": 0.0,
			"0.02": 0.0,
			"0.021": 0.0,
			"0.022": 0.0,
			"0.023": 0.0,
			"0.024": 0.0,
			"0.025": 0.0
		}
	}
}
