{
	 "smiles": "CCC1=CC(O)=CC=C1C([O-])=O", 
	 "Tm": 389.15, 
	 "num_atms": 21, 
	 "gaussian": { 
		 "optdone": 1, 
		 "sigma_profile": "yes", 
		 "theory": "DFT", 
		 "functional": "B3LYP", 
		 "basiset": "6-31G**", 
		 "properties": { 
			 "R2extent": 2376.8661, 
			 "electric_dipole_moment_norm": 11.0409471224, 
			 "electric_quadrupole_moment_norm": 37.1721430115, 
			 "total_energy": -574.103420629, 
			 "HOMO_LUMO_gap": 0.1686, 
			 "cosmo_polarized_energy": -75.1, 
			 "cosmo_cavitation_energy": 25.08, 
			 "cosmo_dispersion_energy": -18.47, 
			 "cosmo_repulsion_energy": 1.47, 
			 "cosmo_total_nonelectrostatic_energy": 8.08, 
			 "SMD_solvation_energy": 5.69 
		},
		"coords": [
			{
				"x": -1.3363227994,
				"y": -0.61731804,
				"z": 2.496719788,
				"element": "C" 
			},
			{
				"x": -0.9904207348,
				"y": 0.5082038015,
				"z": 1.5162359026,
				"element": "C" 
			},
			{
				"x": 0.0826836452,
				"y": 0.2021517258,
				"z": 0.4810777159,
				"element": "C" 
			},
			{
				"x": 0.6951237848,
				"y": -1.0611141397,
				"z": 0.4672743546,
				"element": "C" 
			},
			{
				"x": 1.6827454833,
				"y": -1.381767212,
				"z": -0.4646780538,
				"element": "C" 
			},
			{
				"x": 2.2355844907,
				"y": -2.6513421021,
				"z": -0.4084586673,
				"element": "O" 
			},
			{
				"x": 2.0806441942,
				"y": -0.4377958588,
				"z": -1.4089350905,
				"element": "C" 
			},
			{
				"x": 1.4737884713,
				"y": 0.8179627421,
				"z": -1.3974331904,
				"element": "C" 
			},
			{
				"x": 0.4812777187,
				"y": 1.1712901956,
				"z": -0.4772181865,
				"element": "C" 
			},
			{
				"x": -0.0964246907,
				"y": 2.6183113653,
				"z": -0.5997588193,
				"element": "C" 
			},
			{
				"x": -0.9907480811,
				"y": 2.9378555949,
				"z": 0.2273339422,
				"element": "O" 
			},
			{
				"x": 0.4031563815,
				"y": 3.3090557317,
				"z": -1.5221616375,
				"element": "O" 
			},
			{
				"x": -2.1168554926,
				"y": -0.2827078159,
				"z": 3.1903010684,
				"element": "H" 
			},
			{
				"x": -1.7135310763,
				"y": -1.5124607209,
				"z": 1.9866345928,
				"element": "H" 
			},
			{
				"x": -0.4725333719,
				"y": -0.9243559048,
				"z": 3.0995142,
				"element": "H" 
			},
			{
				"x": -0.6907883342,
				"y": 1.4093169337,
				"z": 2.0592706861,
				"element": "H" 
			},
			{
				"x": -1.8870301712,
				"y": 0.8428555378,
				"z": 0.9864257402,
				"element": "H" 
			},
			{
				"x": 0.417989112,
				"y": -1.8280831591,
				"z": 1.1829803365,
				"element": "H" 
			},
			{
				"x": 2.8923191199,
				"y": -2.7044322038,
				"z": -1.1142650164,
				"element": "H" 
			},
			{
				"x": 2.8527576299,
				"y": -0.6827290855,
				"z": -2.1407155818,
				"element": "H" 
			},
			{
				"x": 1.7436847207,
				"y": 1.5927026141,
				"z": -2.109144084,
				"element": "H" 
			}
		],
		 "valence_orbital": [ 
			{
				"type": "occ",
				"energy": -0.10386,
				"method": "rhf"
			},
			{
				"type": "occ",
				"energy": -0.0751,
				"method": "rhf"
			},
			{
				"type": "occ",
				"energy": -0.04183,
				"method": "rhf"
			},
			{
				"type": "occ",
				"energy": -0.03678,
				"method": "rhf"
			},
			{
				"type": "occ",
				"energy": -0.02571,
				"method": "rhf"
			},
			{
				"type": "unocc",
				"energy": 0.14289,
				"method": "rhf"
			},
			{
				"type": "unocc",
				"energy": 0.14642,
				"method": "rhf"
			},
			{
				"type": "unocc",
				"energy": 0.17841,
				"method": "rhf"
			},
			{
				"type": "unocc",
				"energy": 0.22028,
				"method": "rhf"
			},
			{
				"type": "unocc",
				"energy": 0.24347,
				"method": "rhf"
			}
		],
		"cosmo_sigma_profile": { 
			"-0.025": 0.0,
			"-0.024": 0.0,
			"-0.023": 0.0,
			"-0.022": 0.0,
			"-0.021": 0.0,
			"-0.02": 0.0,
			"-0.019": 0.0,
			"-0.018": 0.0212767897176,
			"-0.017": 0.6350249903,
			"-0.016": 1.06089560361,
			"-0.015": 1.25373771776,
			"-0.014": 0.677406562913,
			"-0.013": 0.848518626146,
			"-0.012": 0.996094418442,
			"-0.011": 0.406419196139,
			"-0.01": 1.148870212,
			"-0.009": 1.6039726339,
			"-0.008": 0.97264998173,
			"-0.007": 1.34651441992,
			"-0.006": 1.14277562457,
			"-0.005": 1.83721697062,
			"-0.004": 2.0083896637,
			"-0.003": 7.27896791025,
			"-0.002": 10.3088568909,
			"-0.001": 10.8752943541,
			"0.0": 13.3324378519,
			"0.001": 17.0150359548,
			"0.002": 12.4788672933,
			"0.003": 6.87109570044,
			"0.004": 7.48750747962,
			"0.005": 10.6364139236,
			"0.006": 13.2956328465,
			"0.007": 14.3080344366,
			"0.008": 6.70387299209,
			"0.009": 3.15151623848,
			"0.01": 3.96686081101,
			"0.011": 4.58333913028,
			"0.012": 4.47695164792,
			"0.013": 2.23079627513,
			"0.014": 2.56359340611,
			"0.015": 2.60110699764,
			"0.016": 3.05849324938,
			"0.017": 3.17526321243,
			"0.018": 8.61157999251,
			"0.019": 5.90798380928,
			"0.02": 3.57725326329,
			"0.021": 2.30191898314,
			"0.022": 1.95487607822,
			"0.023": 0.686219359622,
			"0.024": 0.0,
			"0.025": 0.0
		}
	}
}
