{
	 "smiles": "CN1CC(CC2=C1C=CC=C2)C(O)=O", 
	 "Tm": 483.15, 
	 "num_atms": 27, 
	 "gaussian": { 
		 "optdone": 1, 
		 "sigma_profile": "yes", 
		 "theory": "DFT", 
		 "functional": "B3LYP", 
		 "basiset": "6-31G**", 
		 "properties": { 
			 "R2extent": 3317.4118, 
			 "electric_dipole_moment_norm": 2.90797384617, 
			 "electric_quadrupole_moment_norm": 21.7799763524, 
			 "total_energy": -632.214263771, 
			 "HOMO_LUMO_gap": 0.1897, 
			 "cosmo_polarized_energy": -15.21, 
			 "cosmo_cavitation_energy": 29.0, 
			 "cosmo_dispersion_energy": -21.37, 
			 "cosmo_repulsion_energy": 1.66, 
			 "cosmo_total_nonelectrostatic_energy": 9.28, 
			 "SMD_solvation_energy": 4.8 
		},
		"coords": [
			{
				"x": -1.0202058163,
				"y": 3.5195646481,
				"z": 0.8072189384,
				"element": "C" 
			},
			{
				"x": -0.5213520397,
				"y": 2.1590673914,
				"z": 0.7105533813,
				"element": "N" 
			},
			{
				"x": -0.6047364138,
				"y": 1.3561456453,
				"z": 1.9239519544,
				"element": "C" 
			},
			{
				"x": 0.3548724343,
				"y": 0.1686454228,
				"z": 1.8347801135,
				"element": "C" 
			},
			{
				"x": -0.0503502372,
				"y": -0.7175601827,
				"z": 0.640967764,
				"element": "C" 
			},
			{
				"x": -0.2997448233,
				"y": 0.1089888377,
				"z": -0.6058635612,
				"element": "C" 
			},
			{
				"x": -0.5597669025,
				"y": 1.5015239596,
				"z": -0.5225797034,
				"element": "C" 
			},
			{
				"x": -0.8231126923,
				"y": 2.2022849019,
				"z": -1.7186784372,
				"element": "C" 
			},
			{
				"x": -0.807812045,
				"y": 1.5543372899,
				"z": -2.9511992923,
				"element": "C" 
			},
			{
				"x": -0.5376419767,
				"y": 0.189303682,
				"z": -3.0340643011,
				"element": "C" 
			},
			{
				"x": -0.2863500509,
				"y": -0.5123782102,
				"z": -1.8556946233,
				"element": "C" 
			},
			{
				"x": 0.380505695,
				"y": -0.6027728943,
				"z": 3.149710238,
				"element": "C" 
			},
			{
				"x": 1.2195088211,
				"y": -1.6727720245,
				"z": 3.1873779863,
				"element": "O" 
			},
			{
				"x": -0.2811124788,
				"y": -0.3231099798,
				"z": 4.11905178,
				"element": "O" 
			},
			{
				"x": -0.8816144938,
				"y": 3.8727926538,
				"z": 1.8312261014,
				"element": "H" 
			},
			{
				"x": -2.0890469998,
				"y": 3.6094035307,
				"z": 0.554108518,
				"element": "H" 
			},
			{
				"x": -0.4574701177,
				"y": 4.1894345768,
				"z": 0.1490169047,
				"element": "H" 
			},
			{
				"x": -1.6245722969,
				"y": 0.9829096305,
				"z": 2.1136741933,
				"element": "H" 
			},
			{
				"x": -0.3352549477,
				"y": 1.9816658029,
				"z": 2.777915342,
				"element": "H" 
			},
			{
				"x": 1.3660455645,
				"y": 0.5614837757,
				"z": 1.6538312435,
				"element": "H" 
			},
			{
				"x": 0.7179917329,
				"y": -1.471695758,
				"z": 0.4254400853,
				"element": "H" 
			},
			{
				"x": -0.9567082078,
				"y": -1.2780101396,
				"z": 0.9102098005,
				"element": "H" 
			},
			{
				"x": -1.0429610501,
				"y": 3.2622135691,
				"z": -1.6889604169,
				"element": "H" 
			},
			{
				"x": -1.0136304668,
				"y": 2.1273467845,
				"z": -3.8511475216,
				"element": "H" 
			},
			{
				"x": -0.5237682133,
				"y": -0.3196662617,
				"z": -3.9924988797,
				"element": "H" 
			},
			{
				"x": -0.0777624435,
				"y": -1.5795810471,
				"z": -1.8998072794,
				"element": "H" 
			},
			{
				"x": 1.6865504661,
				"y": -1.7619656049,
				"z": 2.3443596715,
				"element": "H" 
			}
		],
		 "valence_orbital": [ 
			{
				"type": "occ",
				"energy": -0.31941,
				"method": "rhf"
			},
			{
				"type": "occ",
				"energy": -0.28721,
				"method": "rhf"
			},
			{
				"type": "occ",
				"energy": -0.27256,
				"method": "rhf"
			},
			{
				"type": "occ",
				"energy": -0.24235,
				"method": "rhf"
			},
			{
				"type": "occ",
				"energy": -0.19285,
				"method": "rhf"
			},
			{
				"type": "unocc",
				"energy": -0.00315,
				"method": "rhf"
			},
			{
				"type": "unocc",
				"energy": 0.00629,
				"method": "rhf"
			},
			{
				"type": "unocc",
				"energy": 0.01405,
				"method": "rhf"
			},
			{
				"type": "unocc",
				"energy": 0.04568,
				"method": "rhf"
			},
			{
				"type": "unocc",
				"energy": 0.08695,
				"method": "rhf"
			}
		],
		"cosmo_sigma_profile": { 
			"-0.025": 0.0,
			"-0.024": 0.0,
			"-0.023": 0.0,
			"-0.022": 0.0,
			"-0.021": 0.0,
			"-0.02": 0.0,
			"-0.019": 0.11349112089,
			"-0.018": 1.09494274801,
			"-0.017": 0.846497010954,
			"-0.016": 1.37296446355,
			"-0.015": 1.03146470559,
			"-0.014": 0.861047718975,
			"-0.013": 0.835307307129,
			"-0.012": 1.35227284,
			"-0.011": 1.38395655013,
			"-0.01": 1.15041419004,
			"-0.009": 1.12902467103,
			"-0.008": 1.74595215545,
			"-0.007": 2.35951183438,
			"-0.006": 7.59890564664,
			"-0.005": 18.6140407207,
			"-0.004": 21.4501789077,
			"-0.003": 21.894887099,
			"-0.002": 24.2417383981,
			"-0.001": 17.6822036183,
			"0.0": 10.5927335421,
			"0.001": 9.21773431051,
			"0.002": 8.09618882426,
			"0.003": 8.20660123068,
			"0.004": 9.34125484094,
			"0.005": 9.64343664289,
			"0.006": 10.113382309,
			"0.007": 10.5427177733,
			"0.008": 6.0660052898,
			"0.009": 3.32611568369,
			"0.01": 4.85817839232,
			"0.011": 5.50806407319,
			"0.012": 4.8443564206,
			"0.013": 1.24206817025,
			"0.014": 0.0,
			"0.015": 0.0,
			"0.016": 0.0,
			"0.017": 0.0,
			"0.018": 0.0,
			"0.019": 0.0,
			"0.02": 0.0,
			"0.021": 0.0,
			"0.022": 0.0,
			"0.023": 0.0,
			"0.024": 0.0,
			"0.025": 0.0
		}
	}
}
