{
	 "smiles": "O=C1CCC(=O)CC1", 
	 "Tm": 351.15, 
	 "num_atms": 16, 
	 "gaussian": { 
		 "optdone": 1, 
		 "sigma_profile": "yes", 
		 "theory": "DFT", 
		 "functional": "B3LYP", 
		 "basiset": "6-31G**", 
		 "properties": { 
			 "R2extent": 1555.0722, 
			 "electric_dipole_moment_norm": 0.0003, 
			 "electric_quadrupole_moment_norm": 16.8375489543, 
			 "total_energy": -383.902970391, 
			 "HOMO_LUMO_gap": 0.22143, 
			 "cosmo_polarized_energy": -12.43, 
			 "cosmo_cavitation_energy": 19.03, 
			 "cosmo_dispersion_energy": -14.24, 
			 "cosmo_repulsion_energy": 1.21, 
			 "cosmo_total_nonelectrostatic_energy": 5.99, 
			 "SMD_solvation_energy": 4.16 
		},
		"coords": [
			{
				"x": 1.1367109793,
				"y": 0.9593348372,
				"z": -1.7649807038,
				"element": "O" 
			},
			{
				"x": 0.0893813055,
				"y": 1.0051112537,
				"z": -1.1521329601,
				"element": "C" 
			},
			{
				"x": -1.2278320333,
				"y": 1.3909098018,
				"z": -1.8219999506,
				"element": "C" 
			},
			{
				"x": -2.4575492024,
				"y": 0.7924218045,
				"z": -1.1205468274,
				"element": "C" 
			},
			{
				"x": -2.5130776943,
				"y": 1.1185137078,
				"z": 0.3704725298,
				"element": "C" 
			},
			{
				"x": -3.5604589015,
				"y": 1.1642125968,
				"z": 0.9832376531,
				"element": "O" 
			},
			{
				"x": -1.1668990833,
				"y": 1.3834674269,
				"z": 1.0414776126,
				"element": "C" 
			},
			{
				"x": 0.0049952829,
				"y": 0.6805313687,
				"z": 0.3378998211,
				"element": "C" 
			},
			{
				"x": -1.2861942635,
				"y": 2.4891138648,
				"z": -1.7997842224,
				"element": "H" 
			},
			{
				"x": -1.1744227742,
				"y": 1.1082733704,
				"z": -2.8766765529,
				"element": "H" 
			},
			{
				"x": -3.3949737586,
				"y": 1.1168607761,
				"z": -1.5799572944,
				"element": "H" 
			},
			{
				"x": -2.4358886822,
				"y": -0.3040401164,
				"z": -1.2056519587,
				"element": "H" 
			},
			{
				"x": -1.0112259332,
				"y": 2.4722178892,
				"z": 1.0229787168,
				"element": "H" 
			},
			{
				"x": -1.2453992575,
				"y": 1.1031396026,
				"z": 2.095202096,
				"element": "H" 
			},
			{
				"x": -0.11370404,
				"y": -0.409969832,
				"z": 0.4196160499,
				"element": "H" 
			},
			{
				"x": 0.9674380564,
				"y": 0.919201648,
				"z": 0.798145991,
				"element": "H" 
			}
		],
		 "valence_orbital": [ 
			{
				"type": "occ",
				"energy": -0.37551,
				"method": "rhf"
			},
			{
				"type": "occ",
				"energy": -0.35613,
				"method": "rhf"
			},
			{
				"type": "occ",
				"energy": -0.33831,
				"method": "rhf"
			},
			{
				"type": "occ",
				"energy": -0.25218,
				"method": "rhf"
			},
			{
				"type": "occ",
				"energy": -0.24959,
				"method": "rhf"
			},
			{
				"type": "unocc",
				"energy": -0.02816,
				"method": "rhf"
			},
			{
				"type": "unocc",
				"energy": -0.02341,
				"method": "rhf"
			},
			{
				"type": "unocc",
				"energy": 0.06802,
				"method": "rhf"
			},
			{
				"type": "unocc",
				"energy": 0.10974,
				"method": "rhf"
			},
			{
				"type": "unocc",
				"energy": 0.12766,
				"method": "rhf"
			}
		],
		"cosmo_sigma_profile": { 
			"-0.025": 0.0,
			"-0.024": 0.0,
			"-0.023": 0.0,
			"-0.022": 0.0,
			"-0.021": 0.0,
			"-0.02": 0.0,
			"-0.019": 0.0,
			"-0.018": 0.0,
			"-0.017": 0.0,
			"-0.016": 0.0,
			"-0.015": 0.0,
			"-0.014": 0.0,
			"-0.013": 0.0,
			"-0.012": 0.0,
			"-0.011": 0.0,
			"-0.01": 0.0,
			"-0.009": 1.28510527838,
			"-0.008": 6.02647987773,
			"-0.007": 10.6441094023,
			"-0.006": 11.0950969843,
			"-0.005": 16.0605303842,
			"-0.004": 16.5879093377,
			"-0.003": 16.9283967547,
			"-0.002": 11.4507721779,
			"-0.001": 3.91128602581,
			"0.0": 3.34682625928,
			"0.001": 3.24029416414,
			"0.002": 3.3358241349,
			"0.003": 2.95658283473,
			"0.004": 2.17297508308,
			"0.005": 2.86842035059,
			"0.006": 2.79038868766,
			"0.007": 3.21677077701,
			"0.008": 2.74228379351,
			"0.009": 3.20960481373,
			"0.01": 4.55879656949,
			"0.011": 6.60363342847,
			"0.012": 8.84479533873,
			"0.013": 4.90119599526,
			"0.014": 0.371348429354,
			"0.015": 0.0,
			"0.016": 0.0,
			"0.017": 0.0,
			"0.018": 0.0,
			"0.019": 0.0,
			"0.02": 0.0,
			"0.021": 0.0,
			"0.022": 0.0,
			"0.023": 0.0,
			"0.024": 0.0,
			"0.025": 0.0
		}
	}
}
