{
	 "smiles": "ClC1=CC=C(C=NN(C2=CC=CC=C2)P(=O)(N2CC2)N2CC2)C=C1", 
	 "Tm": 409.15, 
	 "num_atms": 42, 
	 "gaussian": { 
		 "optdone": 1, 
		 "sigma_profile": "yes", 
		 "theory": "DFT", 
		 "functional": "B3LYP", 
		 "basiset": "6-31G**", 
		 "properties": { 
			 "R2extent": 12633.7083, 
			 "electric_dipole_moment_norm": 4.55037872929, 
			 "electric_quadrupole_moment_norm": 16.7758710912, 
			 "total_energy": -1754.35526523, 
			 "HOMO_LUMO_gap": 0.16003, 
			 "cosmo_polarized_energy": -14.73, 
			 "cosmo_cavitation_energy": 49.54, 
			 "cosmo_dispersion_energy": -32.95, 
			 "cosmo_repulsion_energy": 2.51, 
			 "cosmo_total_nonelectrostatic_energy": 19.1, 
			 "SMD_solvation_energy": 5.96 
		},
		"coords": [
			{
				"x": 3.3134063446,
				"y": 5.3077500731,
				"z": -5.1725006513,
				"element": "Cl" 
			},
			{
				"x": 2.422512682,
				"y": 4.3594864673,
				"z": -3.9890221243,
				"element": "C" 
			},
			{
				"x": 1.207373668,
				"y": 4.8359543704,
				"z": -3.5017461585,
				"element": "C" 
			},
			{
				"x": 0.5100407405,
				"y": 4.0741233472,
				"z": -2.5653319134,
				"element": "C" 
			},
			{
				"x": 1.011104182,
				"y": 2.8449661407,
				"z": -2.1088291104,
				"element": "C" 
			},
			{
				"x": 0.2344325608,
				"y": 2.0856426623,
				"z": -1.1190490604,
				"element": "C" 
			},
			{
				"x": 0.7173950942,
				"y": 0.9870002631,
				"z": -0.6551434302,
				"element": "N" 
			},
			{
				"x": 0.0721091655,
				"y": 0.1774629385,
				"z": 0.2609001638,
				"element": "N" 
			},
			{
				"x": 0.8916686392,
				"y": -0.9339037081,
				"z": 0.6766707906,
				"element": "C" 
			},
			{
				"x": 2.2574492204,
				"y": -0.7207481679,
				"z": 0.9027055784,
				"element": "C" 
			},
			{
				"x": 3.0739833272,
				"y": -1.7832937945,
				"z": 1.2854752074,
				"element": "C" 
			},
			{
				"x": 2.5375226853,
				"y": -3.0606392285,
				"z": 1.4602260494,
				"element": "C" 
			},
			{
				"x": 1.1752963223,
				"y": -3.2663148977,
				"z": 1.2385903361,
				"element": "C" 
			},
			{
				"x": 0.3508469858,
				"y": -2.214069115,
				"z": 0.839125965,
				"element": "C" 
			},
			{
				"x": -1.4847465,
				"y": 0.4625904037,
				"z": 0.9373642321,
				"element": "P" 
			},
			{
				"x": -1.9575499132,
				"y": 1.8716541004,
				"z": 0.7664055897,
				"element": "O" 
			},
			{
				"x": -2.4802258709,
				"y": -0.7289611793,
				"z": 0.2426180542,
				"element": "N" 
			},
			{
				"x": -3.9369968584,
				"y": -0.496453178,
				"z": 0.1874920809,
				"element": "C" 
			},
			{
				"x": -3.1210655938,
				"y": -0.4312770044,
				"z": -1.050755232,
				"element": "C" 
			},
			{
				"x": -1.3246420734,
				"y": -0.1052238745,
				"z": 2.5203758902,
				"element": "N" 
			},
			{
				"x": -0.8271342276,
				"y": 0.8211978258,
				"z": 3.549795509,
				"element": "C" 
			},
			{
				"x": -2.2503711646,
				"y": 0.3961416569,
				"z": 3.5523893052,
				"element": "C" 
			},
			{
				"x": 2.2390962602,
				"y": 2.3884634472,
				"z": -2.6212764381,
				"element": "C" 
			},
			{
				"x": 2.9449586895,
				"y": 3.1376827288,
				"z": -3.5548911039,
				"element": "C" 
			},
			{
				"x": 0.8153658171,
				"y": 5.7854989925,
				"z": -3.8489431426,
				"element": "H" 
			},
			{
				"x": -0.4374356033,
				"y": 4.4413768233,
				"z": -2.1796087884,
				"element": "H" 
			},
			{
				"x": -0.724249684,
				"y": 2.4991726788,
				"z": -0.8116678375,
				"element": "H" 
			},
			{
				"x": 2.6669307574,
				"y": 0.2729847216,
				"z": 0.7642925743,
				"element": "H" 
			},
			{
				"x": 4.1326778985,
				"y": -1.6076901513,
				"z": 1.454821355,
				"element": "H" 
			},
			{
				"x": 3.1749079871,
				"y": -3.8862143449,
				"z": 1.7629518915,
				"element": "H" 
			},
			{
				"x": 0.7469458224,
				"y": -4.2569673407,
				"z": 1.3626898543,
				"element": "H" 
			},
			{
				"x": -0.7034702487,
				"y": -2.3802531824,
				"z": 0.6519668914,
				"element": "H" 
			},
			{
				"x": -4.317151244,
				"y": 0.4460167468,
				"z": 0.5749174319,
				"element": "H" 
			},
			{
				"x": -4.5391853953,
				"y": -1.3748598112,
				"z": 0.4026394205,
				"element": "H" 
			},
			{
				"x": -3.119011965,
				"y": -1.2604081034,
				"z": -1.7527371952,
				"element": "H" 
			},
			{
				"x": -2.9641084784,
				"y": 0.5534880914,
				"z": -1.4853147136,
				"element": "H" 
			},
			{
				"x": -0.1194373839,
				"y": 0.3758729696,
				"z": 4.243455215,
				"element": "H" 
			},
			{
				"x": -0.6200719916,
				"y": 1.8484477435,
				"z": 3.2570970021,
				"element": "H" 
			},
			{
				"x": -2.5967002428,
				"y": -0.3618895608,
				"z": 4.2496323022,
				"element": "H" 
			},
			{
				"x": -2.9859590872,
				"y": 1.1430427323,
				"z": 3.2613455852,
				"element": "H" 
			},
			{
				"x": 2.627338671,
				"y": 1.4356957211,
				"z": -2.2777790435,
				"element": "H" 
			},
			{
				"x": 3.8909500054,
				"y": 2.7831529965,
				"z": -3.9495483321,
				"element": "H" 
			}
		],
		 "valence_orbital": [ 
			{
				"type": "occ",
				"energy": -0.2588,
				"method": "rhf"
			},
			{
				"type": "occ",
				"energy": -0.2584,
				"method": "rhf"
			},
			{
				"type": "occ",
				"energy": -0.24258,
				"method": "rhf"
			},
			{
				"type": "occ",
				"energy": -0.24052,
				"method": "rhf"
			},
			{
				"type": "occ",
				"energy": -0.20264,
				"method": "rhf"
			},
			{
				"type": "unocc",
				"energy": -0.04261,
				"method": "rhf"
			},
			{
				"type": "unocc",
				"energy": -0.00745,
				"method": "rhf"
			},
			{
				"type": "unocc",
				"energy": 0.00364,
				"method": "rhf"
			},
			{
				"type": "unocc",
				"energy": 0.00625,
				"method": "rhf"
			},
			{
				"type": "unocc",
				"energy": 0.03494,
				"method": "rhf"
			}
		],
		"cosmo_sigma_profile": { 
			"-0.025": 0.0,
			"-0.024": 0.0,
			"-0.023": 0.0,
			"-0.022": 0.0,
			"-0.021": 0.0,
			"-0.02": 0.0,
			"-0.019": 0.0,
			"-0.018": 0.0,
			"-0.017": 0.0,
			"-0.016": 0.0,
			"-0.015": 0.0,
			"-0.014": 0.0,
			"-0.013": 0.0,
			"-0.012": 0.0,
			"-0.011": 0.0,
			"-0.01": 0.0,
			"-0.009": 0.0,
			"-0.008": 0.471336213267,
			"-0.007": 11.175060757,
			"-0.006": 23.6153100958,
			"-0.005": 32.9953141502,
			"-0.004": 33.5156652369,
			"-0.003": 35.0243028954,
			"-0.002": 27.7964998662,
			"-0.001": 26.7321355987,
			"0.0": 26.7643426927,
			"0.001": 26.9199744498,
			"0.002": 30.8889056932,
			"0.003": 36.6598164112,
			"0.004": 29.8078947885,
			"0.005": 19.8476957894,
			"0.006": 10.356002748,
			"0.007": 5.24594127817,
			"0.008": 3.93819103674,
			"0.009": 4.2630721771,
			"0.01": 2.51466308809,
			"0.011": 1.89723327478,
			"0.012": 1.9003840061,
			"0.013": 1.62968842295,
			"0.014": 2.55782570458,
			"0.015": 0.302702159276,
			"0.016": 0.0,
			"0.017": 0.0,
			"0.018": 0.0,
			"0.019": 0.0,
			"0.02": 0.0,
			"0.021": 0.0,
			"0.022": 0.0,
			"0.023": 0.0,
			"0.024": 0.0,
			"0.025": 0.0
		}
	}
}
