{
	 "smiles": "NC(C(N)=O)C1=CC(Br)=CC=C1", 
	 "Tm": 381.15, 
	 "num_atms": 21, 
	 "gaussian": { 
		 "optdone": 1, 
		 "sigma_profile": "yes", 
		 "theory": "DFT", 
		 "functional": "B3LYP", 
		 "basiset": "6-31G**", 
		 "properties": { 
			 "R2extent": 4677.1131, 
			 "electric_dipole_moment_norm": 2.51711540061, 
			 "electric_quadrupole_moment_norm": 18.4180614645, 
			 "total_energy": -3066.42315628, 
			 "HOMO_LUMO_gap": 0.21778, 
			 "cosmo_polarized_energy": -14.59, 
			 "cosmo_cavitation_energy": 27.35, 
			 "cosmo_dispersion_energy": -20.13, 
			 "cosmo_repulsion_energy": 1.65, 
			 "cosmo_total_nonelectrostatic_energy": 8.86, 
			 "SMD_solvation_energy": 3.93 
		},
		"coords": [
			{
				"x": 0.2647071856,
				"y": -0.1043155884,
				"z": 2.5156955925,
				"element": "N" 
			},
			{
				"x": 0.7383312427,
				"y": 0.4141005507,
				"z": 1.2281252415,
				"element": "C" 
			},
			{
				"x": -0.28033337,
				"y": 1.4145207324,
				"z": 0.6268044052,
				"element": "C" 
			},
			{
				"x": -1.5485437929,
				"y": 1.2641556614,
				"z": 1.08607297,
				"element": "N" 
			},
			{
				"x": 0.0669833361,
				"y": 2.2452453732,
				"z": -0.2000533177,
				"element": "O" 
			},
			{
				"x": 0.9653849981,
				"y": -0.7092641642,
				"z": 0.2217685879,
				"element": "C" 
			},
			{
				"x": 0.3854380853,
				"y": -1.9705419318,
				"z": 0.3978885535,
				"element": "C" 
			},
			{
				"x": 0.6087078583,
				"y": -2.9655443987,
				"z": -0.5526385767,
				"element": "C" 
			},
			{
				"x": -0.1805577466,
				"y": -4.6915187983,
				"z": -0.2925260231,
				"element": "Br" 
			},
			{
				"x": 1.3860437378,
				"y": -2.7357956494,
				"z": -1.6839645916,
				"element": "C" 
			},
			{
				"x": 1.948775453,
				"y": -1.4690187348,
				"z": -1.8593228514,
				"element": "C" 
			},
			{
				"x": 1.7438701069,
				"y": -0.4635416525,
				"z": -0.9173131027,
				"element": "C" 
			},
			{
				"x": 0.8953187496,
				"y": -0.8283752084,
				"z": 2.8513817929,
				"element": "H" 
			},
			{
				"x": 0.2733557371,
				"y": 0.6396288047,
				"z": 3.2089244256,
				"element": "H" 
			},
			{
				"x": 1.672636939,
				"y": 0.9892719235,
				"z": 1.3005319787,
				"element": "H" 
			},
			{
				"x": -1.7557809656,
				"y": 0.5105636253,
				"z": 1.7255590222,
				"element": "H" 
			},
			{
				"x": -2.2832694689,
				"y": 1.8186153086,
				"z": 0.6749943367,
				"element": "H" 
			},
			{
				"x": -0.2357614475,
				"y": -2.1711361343,
				"z": 1.2621447661,
				"element": "H" 
			},
			{
				"x": 1.5470344603,
				"y": -3.5246990034,
				"z": -2.4095404282,
				"element": "H" 
			},
			{
				"x": 2.5536430282,
				"y": -1.2713725611,
				"z": -2.7394031689,
				"element": "H" 
			},
			{
				"x": 2.1689158735,
				"y": 0.5238218455,
				"z": -1.0659296126,
				"element": "H" 
			}
		],
		 "valence_orbital": [ 
			{
				"type": "occ",
				"energy": -0.27273,
				"method": "rhf"
			},
			{
				"type": "occ",
				"energy": -0.2678,
				"method": "rhf"
			},
			{
				"type": "occ",
				"energy": -0.26365,
				"method": "rhf"
			},
			{
				"type": "occ",
				"energy": -0.24433,
				"method": "rhf"
			},
			{
				"type": "occ",
				"energy": -0.23625,
				"method": "rhf"
			},
			{
				"type": "unocc",
				"energy": -0.01847,
				"method": "rhf"
			},
			{
				"type": "unocc",
				"energy": -0.01273,
				"method": "rhf"
			},
			{
				"type": "unocc",
				"energy": 0.00806,
				"method": "rhf"
			},
			{
				"type": "unocc",
				"energy": 0.03797,
				"method": "rhf"
			},
			{
				"type": "unocc",
				"energy": 0.068,
				"method": "rhf"
			}
		],
		"cosmo_sigma_profile": { 
			"-0.025": 0.0,
			"-0.024": 0.0,
			"-0.023": 0.0,
			"-0.022": 0.0,
			"-0.021": 0.0,
			"-0.02": 0.0,
			"-0.019": 0.0,
			"-0.018": 0.0,
			"-0.017": 0.0,
			"-0.016": 0.0,
			"-0.015": 0.0,
			"-0.014": 0.926014044965,
			"-0.013": 0.957764345457,
			"-0.012": 1.02922116257,
			"-0.011": 4.25892624847,
			"-0.01": 4.71028932396,
			"-0.009": 4.94702461104,
			"-0.008": 5.55947142507,
			"-0.007": 6.43494893658,
			"-0.006": 7.75256583829,
			"-0.005": 13.8159137898,
			"-0.004": 15.88449076,
			"-0.003": 10.453462023,
			"-0.002": 11.8683559022,
			"-0.001": 11.2010520659,
			"0.0": 10.4374629043,
			"0.001": 13.2531344479,
			"0.002": 19.1580044776,
			"0.003": 21.2227616729,
			"0.004": 20.687545328,
			"0.005": 12.3727272601,
			"0.006": 2.38605095194,
			"0.007": 2.02025935131,
			"0.008": 1.97970019454,
			"0.009": 1.87396516095,
			"0.01": 1.40803559039,
			"0.011": 1.83876899181,
			"0.012": 1.87359294262,
			"0.013": 3.27935428092,
			"0.014": 5.08587985172,
			"0.015": 1.21799175182,
			"0.016": 0.0,
			"0.017": 0.0,
			"0.018": 0.0,
			"0.019": 0.0,
			"0.02": 0.0,
			"0.021": 0.0,
			"0.022": 0.0,
			"0.023": 0.0,
			"0.024": 0.0,
			"0.025": 0.0
		}
	}
}
