{
	 "smiles": "ClC1=CC(Cl)=C(OC2=CC=CC=C2C#N)C=C1", 
	 "Tm": 358.15, 
	 "num_atms": 24, 
	 "gaussian": { 
		 "optdone": 1, 
		 "sigma_profile": "yes", 
		 "theory": "DFT", 
		 "functional": "B3LYP", 
		 "basiset": "6-31G**", 
		 "properties": { 
			 "R2extent": 6111.897, 
			 "electric_dipole_moment_norm": 5.16313681206, 
			 "electric_quadrupole_moment_norm": 26.8262397132, 
			 "total_energy": -1549.93048013, 
			 "HOMO_LUMO_gap": 0.19647, 
			 "cosmo_polarized_energy": -12.34, 
			 "cosmo_cavitation_energy": 34.22, 
			 "cosmo_dispersion_energy": -23.58, 
			 "cosmo_repulsion_energy": 1.85, 
			 "cosmo_total_nonelectrostatic_energy": 12.5, 
			 "SMD_solvation_energy": 6.8 
		},
		"coords": [
			{
				"x": -1.9228307452,
				"y": -2.9154165348,
				"z": -4.1479675283,
				"element": "Cl" 
			},
			{
				"x": -1.4384668267,
				"y": -1.6035291308,
				"z": -3.09078864,
				"element": "C" 
			},
			{
				"x": -2.3450117993,
				"y": -1.1259167484,
				"z": -2.145748488,
				"element": "C" 
			},
			{
				"x": -1.9596220199,
				"y": -0.0823675183,
				"z": -1.3031584739,
				"element": "C" 
			},
			{
				"x": -3.0881262063,
				"y": 0.5290398052,
				"z": -0.1223040893,
				"element": "Cl" 
			},
			{
				"x": -0.6787931927,
				"y": 0.4764152966,
				"z": -1.4094609844,
				"element": "C" 
			},
			{
				"x": -0.3196448489,
				"y": 1.5667349017,
				"z": -0.6448738286,
				"element": "O" 
			},
			{
				"x": 0.3064664689,
				"y": 1.3890133386,
				"z": 0.5631627341,
				"element": "C" 
			},
			{
				"x": 0.5855767625,
				"y": 0.143130082,
				"z": 1.1246140917,
				"element": "C" 
			},
			{
				"x": 1.2272667197,
				"y": 0.0740495502,
				"z": 2.3617714913,
				"element": "C" 
			},
			{
				"x": 1.5954887933,
				"y": 1.2343290866,
				"z": 3.045762533,
				"element": "C" 
			},
			{
				"x": 1.3184252881,
				"y": 2.4772068058,
				"z": 2.4846917238,
				"element": "C" 
			},
			{
				"x": 0.6735282881,
				"y": 2.5703300319,
				"z": 1.240730755,
				"element": "C" 
			},
			{
				"x": 0.3978572264,
				"y": 3.8517029643,
				"z": 0.6654994389,
				"element": "C" 
			},
			{
				"x": 0.194312762,
				"y": 4.9082941377,
				"z": 0.2237254378,
				"element": "N" 
			},
			{
				"x": 0.2100434557,
				"y": -0.013817563,
				"z": -2.3665778657,
				"element": "C" 
			},
			{
				"x": -0.1608977031,
				"y": -1.0562940019,
				"z": -3.212556562,
				"element": "C" 
			},
			{
				"x": -3.3371763881,
				"y": -1.5521790259,
				"z": -2.0630585444,
				"element": "H" 
			},
			{
				"x": 0.3017686865,
				"y": -0.7619527828,
				"z": 0.6007187031,
				"element": "H" 
			},
			{
				"x": 1.4381441985,
				"y": -0.9003814828,
				"z": 2.792061439,
				"element": "H" 
			},
			{
				"x": 2.0936534364,
				"y": 1.1711496934,
				"z": 4.0072815355,
				"element": "H" 
			},
			{
				"x": 1.5958330015,
				"y": 3.3924991746,
				"z": 2.9965500604,
				"element": "H" 
			},
			{
				"x": 1.1908550213,
				"y": 0.4431880301,
				"z": -2.4448665896,
				"element": "H" 
			},
			{
				"x": 0.5275496214,
				"y": -1.4353281103,
				"z": -3.9587083494,
				"element": "H" 
			}
		],
		 "valence_orbital": [ 
			{
				"type": "occ",
				"energy": -0.32715,
				"method": "rhf"
			},
			{
				"type": "occ",
				"energy": -0.27845,
				"method": "rhf"
			},
			{
				"type": "occ",
				"energy": -0.27243,
				"method": "rhf"
			},
			{
				"type": "occ",
				"energy": -0.26091,
				"method": "rhf"
			},
			{
				"type": "occ",
				"energy": -0.25072,
				"method": "rhf"
			},
			{
				"type": "unocc",
				"energy": -0.05425,
				"method": "rhf"
			},
			{
				"type": "unocc",
				"energy": -0.03944,
				"method": "rhf"
			},
			{
				"type": "unocc",
				"energy": -0.03724,
				"method": "rhf"
			},
			{
				"type": "unocc",
				"energy": -0.01841,
				"method": "rhf"
			},
			{
				"type": "unocc",
				"energy": -0.00554,
				"method": "rhf"
			}
		],
		"cosmo_sigma_profile": { 
			"-0.025": 0.0,
			"-0.024": 0.0,
			"-0.023": 0.0,
			"-0.022": 0.0,
			"-0.021": 0.0,
			"-0.02": 0.0,
			"-0.019": 0.0,
			"-0.018": 0.0,
			"-0.017": 0.0,
			"-0.016": 0.0,
			"-0.015": 0.0,
			"-0.014": 0.0,
			"-0.013": 0.0,
			"-0.012": 0.0,
			"-0.011": 0.0,
			"-0.01": 0.00367005577178,
			"-0.009": 1.82037667096,
			"-0.008": 8.53358454912,
			"-0.007": 13.4354515944,
			"-0.006": 14.9413643133,
			"-0.005": 13.6639280381,
			"-0.004": 12.4051805438,
			"-0.003": 14.0428319781,
			"-0.002": 17.0594356534,
			"-0.001": 23.8103422461,
			"0.0": 30.8475333247,
			"0.001": 31.8618717142,
			"0.002": 26.0857249326,
			"0.003": 24.8852201724,
			"0.004": 17.3991438708,
			"0.005": 5.11253723003,
			"0.006": 4.76675582699,
			"0.007": 4.22773244924,
			"0.008": 3.53442024546,
			"0.009": 3.62652553069,
			"0.01": 3.04683054269,
			"0.011": 2.9715534376,
			"0.012": 2.31976560873,
			"0.013": 1.57791127729,
			"0.014": 0.0459822825387,
			"0.015": 0.0,
			"0.016": 0.0,
			"0.017": 0.0,
			"0.018": 0.0,
			"0.019": 0.0,
			"0.02": 0.0,
			"0.021": 0.0,
			"0.022": 0.0,
			"0.023": 0.0,
			"0.024": 0.0,
			"0.025": 0.0
		}
	}
}
