{
	 "smiles": "O=C(COC(=O)C1=CC=CC=C1)N1CCOCC1", 
	 "Tm": 377.15, 
	 "num_atms": 33, 
	 "gaussian": { 
		 "optdone": 1, 
		 "sigma_profile": "yes", 
		 "theory": "DFT", 
		 "functional": "B3LYP", 
		 "basiset": "6-31G**", 
		 "properties": { 
			 "R2extent": 5728.7495, 
			 "electric_dipole_moment_norm": 3.29362044261, 
			 "electric_quadrupole_moment_norm": 13.0968805431, 
			 "total_energy": -860.068733108, 
			 "HOMO_LUMO_gap": 0.18602, 
			 "cosmo_polarized_energy": -14.56, 
			 "cosmo_cavitation_energy": 36.01, 
			 "cosmo_dispersion_energy": -25.67, 
			 "cosmo_repulsion_energy": 2.01, 
			 "cosmo_total_nonelectrostatic_energy": 12.34, 
			 "SMD_solvation_energy": 6.64 
		},
		"coords": [
			{
				"x": -0.870380235,
				"y": 0.5618414999,
				"z": -3.1672654032,
				"element": "O" 
			},
			{
				"x": -0.7481544604,
				"y": 0.4609091785,
				"z": -1.9494586238,
				"element": "C" 
			},
			{
				"x": -1.5309729289,
				"y": -0.6208763434,
				"z": -1.2015619453,
				"element": "C" 
			},
			{
				"x": -0.6533026461,
				"y": -1.47060285,
				"z": -0.4375009917,
				"element": "O" 
			},
			{
				"x": -0.986382129,
				"y": -1.7221839598,
				"z": 0.8554716452,
				"element": "C" 
			},
			{
				"x": -1.9382474784,
				"y": -1.2098976408,
				"z": 1.4142927424,
				"element": "O" 
			},
			{
				"x": -0.0433102695,
				"y": -2.6735228448,
				"z": 1.5031200613,
				"element": "C" 
			},
			{
				"x": 1.0338768096,
				"y": -3.2488834212,
				"z": 0.8131967567,
				"element": "C" 
			},
			{
				"x": 1.8847374137,
				"y": -4.1344681162,
				"z": 1.4721617414,
				"element": "C" 
			},
			{
				"x": 1.6652011615,
				"y": -4.4496462255,
				"z": 2.8155334494,
				"element": "C" 
			},
			{
				"x": 0.5911526536,
				"y": -3.8787719293,
				"z": 3.504164628,
				"element": "C" 
			},
			{
				"x": -0.2617479025,
				"y": -2.993146811,
				"z": 2.8509594499,
				"element": "C" 
			},
			{
				"x": 0.049355829,
				"y": 1.3014608534,
				"z": -1.2263168366,
				"element": "N" 
			},
			{
				"x": 0.1718661485,
				"y": 1.3289770456,
				"z": 0.2353070512,
				"element": "C" 
			},
			{
				"x": 0.4701556148,
				"y": 2.7575297666,
				"z": 0.685955885,
				"element": "C" 
			},
			{
				"x": 1.6759206816,
				"y": 3.2765503868,
				"z": 0.1344381468,
				"element": "O" 
			},
			{
				"x": 2.0300438373,
				"y": 2.7318102129,
				"z": -1.1359188665,
				"element": "C" 
			},
			{
				"x": 0.8229037965,
				"y": 2.3092483469,
				"z": -1.9636816685,
				"element": "C" 
			},
			{
				"x": -2.0119256016,
				"y": -1.2338275998,
				"z": -1.9649239107,
				"element": "H" 
			},
			{
				"x": -2.2908873861,
				"y": -0.1964896644,
				"z": -0.5394590507,
				"element": "H" 
			},
			{
				"x": 1.1950374497,
				"y": -3.0012320441,
				"z": -0.2295103262,
				"element": "H" 
			},
			{
				"x": 2.7184150221,
				"y": -4.5802319444,
				"z": 0.9378932876,
				"element": "H" 
			},
			{
				"x": 2.3302561486,
				"y": -5.1408703822,
				"z": 3.3254080464,
				"element": "H" 
			},
			{
				"x": 0.4203446561,
				"y": -4.1252247312,
				"z": 4.5478151275,
				"element": "H" 
			},
			{
				"x": -1.1027971896,
				"y": -2.5384618583,
				"z": 3.3632569797,
				"element": "H" 
			},
			{
				"x": 0.9724897799,
				"y": 0.6586001788,
				"z": 0.575942117,
				"element": "H" 
			},
			{
				"x": -0.7579216982,
				"y": 0.9972618292,
				"z": 0.7037217081,
				"element": "H" 
			},
			{
				"x": -0.3797336053,
				"y": 3.4044358574,
				"z": 0.4183165508,
				"element": "H" 
			},
			{
				"x": 0.5793699483,
				"y": 2.783453065,
				"z": 1.7751370826,
				"element": "H" 
			},
			{
				"x": 2.7008931905,
				"y": 1.8687999689,
				"z": -1.0022176216,
				"element": "H" 
			},
			{
				"x": 2.5901328698,
				"y": 3.5076542312,
				"z": -1.6674989278,
				"element": "H" 
			},
			{
				"x": 0.1950639901,
				"y": 3.1797246135,
				"z": -2.1970308807,
				"element": "H" 
			},
			{
				"x": 1.1363465292,
				"y": 1.8765813317,
				"z": -2.9169474039,
				"element": "H" 
			}
		],
		 "valence_orbital": [ 
			{
				"type": "occ",
				"energy": -0.26869,
				"method": "rhf"
			},
			{
				"type": "occ",
				"energy": -0.26632,
				"method": "rhf"
			},
			{
				"type": "occ",
				"energy": -0.25987,
				"method": "rhf"
			},
			{
				"type": "occ",
				"energy": -0.2507,
				"method": "rhf"
			},
			{
				"type": "occ",
				"energy": -0.2422,
				"method": "rhf"
			},
			{
				"type": "unocc",
				"energy": -0.05618,
				"method": "rhf"
			},
			{
				"type": "unocc",
				"energy": -0.01561,
				"method": "rhf"
			},
			{
				"type": "unocc",
				"energy": 0.01087,
				"method": "rhf"
			},
			{
				"type": "unocc",
				"energy": 0.04805,
				"method": "rhf"
			},
			{
				"type": "unocc",
				"energy": 0.07851,
				"method": "rhf"
			}
		],
		"cosmo_sigma_profile": { 
			"-0.025": 0.0,
			"-0.024": 0.0,
			"-0.023": 0.0,
			"-0.022": 0.0,
			"-0.021": 0.0,
			"-0.02": 0.0,
			"-0.019": 0.0,
			"-0.018": 0.0,
			"-0.017": 0.0,
			"-0.016": 0.0,
			"-0.015": 0.0,
			"-0.014": 0.0,
			"-0.013": 0.0,
			"-0.012": 0.0,
			"-0.011": 0.0,
			"-0.01": 0.0,
			"-0.009": 0.035560267667,
			"-0.008": 1.53854968262,
			"-0.007": 5.27187123404,
			"-0.006": 18.1234097497,
			"-0.005": 33.6807701091,
			"-0.004": 37.7388853724,
			"-0.003": 24.2360024299,
			"-0.002": 19.7690458246,
			"-0.001": 15.1867029241,
			"0.0": 18.2961396388,
			"0.001": 15.9295141503,
			"0.002": 17.7072030371,
			"0.003": 17.4719041819,
			"0.004": 14.5548277653,
			"0.005": 5.13922081009,
			"0.006": 3.19836336885,
			"0.007": 3.76214049223,
			"0.008": 4.27231626009,
			"0.009": 3.97873234192,
			"0.01": 4.25752588876,
			"0.011": 6.97437834836,
			"0.012": 3.76467095588,
			"0.013": 6.14207417652,
			"0.014": 3.85223119143,
			"0.015": 0.263007246268,
			"0.016": 0.0,
			"0.017": 0.0,
			"0.018": 0.0,
			"0.019": 0.0,
			"0.02": 0.0,
			"0.021": 0.0,
			"0.022": 0.0,
			"0.023": 0.0,
			"0.024": 0.0,
			"0.025": 0.0
		}
	}
}
