{
	 "smiles": "FC(F)(F)COC(=O)NC1=CN=C(C=C1)N1C=NC2=C1C=CC=C2", 
	 "Tm": 513.15, 
	 "num_atms": 35, 
	 "gaussian": { 
		 "optdone": 1, 
		 "sigma_profile": "yes", 
		 "theory": "DFT", 
		 "functional": "B3LYP", 
		 "basiset": "6-31G**", 
		 "properties": { 
			 "R2extent": 13226.0209, 
			 "electric_dipole_moment_norm": 2.85532590434, 
			 "electric_quadrupole_moment_norm": 24.091740416, 
			 "total_energy": -1247.22912245, 
			 "HOMO_LUMO_gap": 0.17027, 
			 "cosmo_polarized_energy": -18.84, 
			 "cosmo_cavitation_energy": 42.09, 
			 "cosmo_dispersion_energy": -29.77, 
			 "cosmo_repulsion_energy": 2.14, 
			 "cosmo_total_nonelectrostatic_energy": 14.46, 
			 "SMD_solvation_energy": 6.94 
		},
		"coords": [
			{
				"x": -3.6253061397,
				"y": -4.0120646962,
				"z": -0.8982363931,
				"element": "F" 
			},
			{
				"x": -4.6345055336,
				"y": -3.6265659752,
				"z": -1.7101500636,
				"element": "C" 
			},
			{
				"x": -5.3984856959,
				"y": -4.7049876924,
				"z": -1.9665847388,
				"element": "F" 
			},
			{
				"x": -5.3746072284,
				"y": -2.7281020165,
				"z": -1.0365627795,
				"element": "F" 
			},
			{
				"x": -4.1057096918,
				"y": -3.0480385104,
				"z": -3.0114268706,
				"element": "C" 
			},
			{
				"x": -3.2425567932,
				"y": -1.9578954495,
				"z": -2.7066382806,
				"element": "O" 
			},
			{
				"x": -3.7491278969,
				"y": -0.7085131657,
				"z": -2.9220721425,
				"element": "C" 
			},
			{
				"x": -4.7874330969,
				"y": -0.4727899952,
				"z": -3.5033542757,
				"element": "O" 
			},
			{
				"x": -2.92331819,
				"y": 0.2654241228,
				"z": -2.4220241401,
				"element": "N" 
			},
			{
				"x": -1.711335872,
				"y": 0.1910289449,
				"z": -1.704952585,
				"element": "C" 
			},
			{
				"x": -0.8708604049,
				"y": 1.3112396236,
				"z": -1.7281946669,
				"element": "C" 
			},
			{
				"x": 0.2884314003,
				"y": 1.3901667065,
				"z": -1.0773210562,
				"element": "N" 
			},
			{
				"x": 0.6789810631,
				"y": 0.3425624835,
				"z": -0.3496793598,
				"element": "C" 
			},
			{
				"x": -0.10556474,
				"y": -0.81533982,
				"z": -0.2255651774,
				"element": "C" 
			},
			{
				"x": -1.308838974,
				"y": -0.8947195374,
				"z": -0.9120661468,
				"element": "C" 
			},
			{
				"x": 1.9234800588,
				"y": 0.4479373541,
				"z": 0.3029277909,
				"element": "N" 
			},
			{
				"x": 2.702922444,
				"y": -0.6153919646,
				"z": 0.752563374,
				"element": "C" 
			},
			{
				"x": 3.808127068,
				"y": -0.2593806062,
				"z": 1.3386147326,
				"element": "N" 
			},
			{
				"x": 3.7992678788,
				"y": 1.1323648187,
				"z": 1.2962918701,
				"element": "C" 
			},
			{
				"x": 2.6384456104,
				"y": 1.6065120128,
				"z": 0.6413778672,
				"element": "C" 
			},
			{
				"x": 2.3898933358,
				"y": 2.9710144906,
				"z": 0.4709331279,
				"element": "C" 
			},
			{
				"x": 3.3434781629,
				"y": 3.8499426887,
				"z": 0.9805901129,
				"element": "C" 
			},
			{
				"x": 4.5041339826,
				"y": 3.3918255833,
				"z": 1.6333219121,
				"element": "C" 
			},
			{
				"x": 4.7457905679,
				"y": 2.0321707727,
				"z": 1.7980626044,
				"element": "C" 
			},
			{
				"x": -3.5162381711,
				"y": -3.8089235598,
				"z": -3.5260828769,
				"element": "H" 
			},
			{
				"x": -4.9402114578,
				"y": -2.7192943986,
				"z": -3.632752885,
				"element": "H" 
			},
			{
				"x": -3.2442361922,
				"y": 1.190234153,
				"z": -2.6740220498,
				"element": "H" 
			},
			{
				"x": -1.1543186465,
				"y": 2.18917158,
				"z": -2.3089207453,
				"element": "H" 
			},
			{
				"x": 0.1958707735,
				"y": -1.6311724449,
				"z": 0.4204018621,
				"element": "H" 
			},
			{
				"x": -1.9273508099,
				"y": -1.7770706448,
				"z": -0.8225233247,
				"element": "H" 
			},
			{
				"x": 2.3979476171,
				"y": -1.6387491033,
				"z": 0.58238103,
				"element": "H" 
			},
			{
				"x": 1.5073072493,
				"y": 3.3202149418,
				"z": -0.0470638405,
				"element": "H" 
			},
			{
				"x": 3.1875383236,
				"y": 4.9185803589,
				"z": 0.8646515951,
				"element": "H" 
			},
			{
				"x": 5.2209032085,
				"y": 4.1149737639,
				"z": 2.0111204628,
				"element": "H" 
			},
			{
				"x": 5.6344867902,
				"y": 1.6626351808,
				"z": 2.2990560568,
				"element": "H" 
			}
		],
		 "valence_orbital": [ 
			{
				"type": "occ",
				"energy": -0.28424,
				"method": "rhf"
			},
			{
				"type": "occ",
				"energy": -0.27494,
				"method": "rhf"
			},
			{
				"type": "occ",
				"energy": -0.25399,
				"method": "rhf"
			},
			{
				"type": "occ",
				"energy": -0.22744,
				"method": "rhf"
			},
			{
				"type": "occ",
				"energy": -0.218,
				"method": "rhf"
			},
			{
				"type": "unocc",
				"energy": -0.04773,
				"method": "rhf"
			},
			{
				"type": "unocc",
				"energy": -0.04151,
				"method": "rhf"
			},
			{
				"type": "unocc",
				"energy": -0.01157,
				"method": "rhf"
			},
			{
				"type": "unocc",
				"energy": 0.0194,
				"method": "rhf"
			},
			{
				"type": "unocc",
				"energy": 0.03617,
				"method": "rhf"
			}
		],
		"cosmo_sigma_profile": { 
			"-0.025": 0.0,
			"-0.024": 0.0,
			"-0.023": 0.0,
			"-0.022": 0.0,
			"-0.021": 0.0,
			"-0.02": 0.0,
			"-0.019": 0.0,
			"-0.018": 0.0,
			"-0.017": 0.0583766101457,
			"-0.016": 0.925270724909,
			"-0.015": 1.04292941746,
			"-0.014": 1.35757755169,
			"-0.013": 1.70844563264,
			"-0.012": 0.845142666525,
			"-0.011": 2.54272258387,
			"-0.01": 4.64279708085,
			"-0.009": 7.66354801368,
			"-0.008": 7.98485142628,
			"-0.007": 8.92955585571,
			"-0.006": 11.3957034213,
			"-0.005": 15.077319677,
			"-0.004": 18.3038134926,
			"-0.003": 19.9880035418,
			"-0.002": 17.4811682598,
			"-0.001": 24.4467373432,
			"0.0": 28.9708454846,
			"0.001": 29.994026631,
			"0.002": 39.4549197643,
			"0.003": 28.661529219,
			"0.004": 16.5182117026,
			"0.005": 15.0841517239,
			"0.006": 7.13968375898,
			"0.007": 4.51747988276,
			"0.008": 3.44622330512,
			"0.009": 3.05394367248,
			"0.01": 3.62835260376,
			"0.011": 5.0983162843,
			"0.012": 4.78765626176,
			"0.013": 1.01993885917,
			"0.014": 1.29075985513,
			"0.015": 0.740746215657,
			"0.016": 1.02715271231,
			"0.017": 0.584333171767,
			"0.018": 0.0,
			"0.019": 0.0,
			"0.02": 0.0,
			"0.021": 0.0,
			"0.022": 0.0,
			"0.023": 0.0,
			"0.024": 0.0,
			"0.025": 0.0
		}
	}
}
