{
	 "smiles": "CC(C)(C)OC(=O)N1C2CCC1CC(CC(O)=O)C2", 
	 "Tm": 378.15, 
	 "num_atms": 42, 
	 "gaussian": { 
		 "optdone": 1, 
		 "sigma_profile": "yes", 
		 "theory": "DFT", 
		 "functional": "B3LYP", 
		 "basiset": "6-31G**", 
		 "properties": { 
			 "R2extent": 5722.6318, 
			 "electric_dipole_moment_norm": 2.89589669705, 
			 "electric_quadrupole_moment_norm": 6.98183835963, 
			 "total_energy": -903.056218039, 
			 "HOMO_LUMO_gap": 0.2355, 
			 "cosmo_polarized_energy": -14.53, 
			 "cosmo_cavitation_energy": 41.33, 
			 "cosmo_dispersion_energy": -27.72, 
			 "cosmo_repulsion_energy": 2.14, 
			 "cosmo_total_nonelectrostatic_energy": 15.75, 
			 "SMD_solvation_energy": 7.0 
		},
		"coords": [
			{
				"x": 3.3241272024,
				"y": 0.4362564321,
				"z": 1.3425062818,
				"element": "C" 
			},
			{
				"x": 1.8641586411,
				"y": 0.4151752909,
				"z": 1.8074144957,
				"element": "C" 
			},
			{
				"x": 1.719369301,
				"y": -0.3785188633,
				"z": 3.1088815123,
				"element": "C" 
			},
			{
				"x": 1.2794885482,
				"y": 1.8237001185,
				"z": 1.9647007629,
				"element": "C" 
			},
			{
				"x": 1.0446647019,
				"y": -0.3642069937,
				"z": 0.8672553842,
				"element": "O" 
			},
			{
				"x": 0.879310054,
				"y": 0.0423163112,
				"z": -0.4160782795,
				"element": "C" 
			},
			{
				"x": 1.429388886,
				"y": 0.9989810454,
				"z": -0.9440635785,
				"element": "O" 
			},
			{
				"x": 0.0189730587,
				"y": -0.797762346,
				"z": -1.0743565562,
				"element": "N" 
			},
			{
				"x": -0.963344149,
				"y": -1.6963786148,
				"z": -0.4461896446,
				"element": "C" 
			},
			{
				"x": -1.2903883203,
				"y": -2.6449870637,
				"z": -1.6281465077,
				"element": "C" 
			},
			{
				"x": -0.9954624501,
				"y": -1.8019404507,
				"z": -2.9041152807,
				"element": "C" 
			},
			{
				"x": -0.589111521,
				"y": -0.4158240784,
				"z": -2.3560467357,
				"element": "C" 
			},
			{
				"x": -1.821260384,
				"y": 0.5130562708,
				"z": -2.0971024716,
				"element": "C" 
			},
			{
				"x": -2.1996450716,
				"y": 0.5476035987,
				"z": -0.6012416973,
				"element": "C" 
			},
			{
				"x": -3.524888464,
				"y": 1.2820044079,
				"z": -0.3746411718,
				"element": "C" 
			},
			{
				"x": -3.7639520239,
				"y": 1.6608519648,
				"z": 1.072764082,
				"element": "C" 
			},
			{
				"x": -5.0505690387,
				"y": 2.0297817047,
				"z": 1.2842407045,
				"element": "O" 
			},
			{
				"x": -2.934487016,
				"y": 1.6736162826,
				"z": 1.9578061001,
				"element": "O" 
			},
			{
				"x": -2.1959282693,
				"y": -0.8638727275,
				"z": 0.0283839037,
				"element": "C" 
			},
			{
				"x": 3.6940239969,
				"y": -0.5851539107,
				"z": 1.206575156,
				"element": "H" 
			},
			{
				"x": 3.4237010957,
				"y": 0.976531243,
				"z": 0.4010294185,
				"element": "H" 
			},
			{
				"x": 3.9450885922,
				"y": 0.9242860696,
				"z": 2.1011610768,
				"element": "H" 
			},
			{
				"x": 2.2987383061,
				"y": 0.0973354777,
				"z": 3.9057723888,
				"element": "H" 
			},
			{
				"x": 2.0840677119,
				"y": -1.4018753465,
				"z": 2.9792714502,
				"element": "H" 
			},
			{
				"x": 0.671595633,
				"y": -0.420700656,
				"z": 3.4202556169,
				"element": "H" 
			},
			{
				"x": 0.2167001308,
				"y": 1.7684028063,
				"z": 2.2223512375,
				"element": "H" 
			},
			{
				"x": 1.8002574097,
				"y": 2.3494207827,
				"z": 2.7719253231,
				"element": "H" 
			},
			{
				"x": 1.3914885687,
				"y": 2.396920567,
				"z": 1.0437875827,
				"element": "H" 
			},
			{
				"x": -0.5060810386,
				"y": -2.221827324,
				"z": 0.3912859131,
				"element": "H" 
			},
			{
				"x": -0.641005716,
				"y": -3.5241628302,
				"z": -1.5936850659,
				"element": "H" 
			},
			{
				"x": -2.3232049144,
				"y": -3.0011847853,
				"z": -1.5818700116,
				"element": "H" 
			},
			{
				"x": -0.1629207102,
				"y": -2.2380634289,
				"z": -3.4631698459,
				"element": "H" 
			},
			{
				"x": -1.8499990112,
				"y": -1.7377623755,
				"z": -3.5832814993,
				"element": "H" 
			},
			{
				"x": 0.1532159143,
				"y": 0.0889382843,
				"z": -2.9738844096,
				"element": "H" 
			},
			{
				"x": -2.6746034841,
				"y": 0.1684601682,
				"z": -2.6959470141,
				"element": "H" 
			},
			{
				"x": -1.59811047,
				"y": 1.5327027888,
				"z": -2.4296205102,
				"element": "H" 
			},
			{
				"x": -1.432928939,
				"y": 1.1330027009,
				"z": -0.0836623083,
				"element": "H" 
			},
			{
				"x": -4.3835480194,
				"y": 0.7004945155,
				"z": -0.730400146,
				"element": "H" 
			},
			{
				"x": -3.544371089,
				"y": 2.2204415825,
				"z": -0.9466972904,
				"element": "H" 
			},
			{
				"x": -5.1069123723,
				"y": 2.2873425363,
				"z": 2.2200617889,
				"element": "H" 
			},
			{
				"x": -3.1212199491,
				"y": -1.3953566085,
				"z": -0.2314555472,
				"element": "H" 
			},
			{
				"x": -2.1837153312,
				"y": -0.7587445466,
				"z": 1.1166253922,
				"element": "H" 
			}
		],
		 "valence_orbital": [ 
			{
				"type": "occ",
				"energy": -0.31177,
				"method": "rhf"
			},
			{
				"type": "occ",
				"energy": -0.27867,
				"method": "rhf"
			},
			{
				"type": "occ",
				"energy": -0.27805,
				"method": "rhf"
			},
			{
				"type": "occ",
				"energy": -0.25283,
				"method": "rhf"
			},
			{
				"type": "occ",
				"energy": -0.2296,
				"method": "rhf"
			},
			{
				"type": "unocc",
				"energy": 0.0059,
				"method": "rhf"
			},
			{
				"type": "unocc",
				"energy": 0.05257,
				"method": "rhf"
			},
			{
				"type": "unocc",
				"energy": 0.07058,
				"method": "rhf"
			},
			{
				"type": "unocc",
				"energy": 0.07603,
				"method": "rhf"
			},
			{
				"type": "unocc",
				"energy": 0.08808,
				"method": "rhf"
			}
		],
		"cosmo_sigma_profile": { 
			"-0.025": 0.0,
			"-0.024": 0.0,
			"-0.023": 0.0,
			"-0.022": 0.0,
			"-0.021": 0.0,
			"-0.02": 0.0,
			"-0.019": 0.0,
			"-0.018": 0.447104175121,
			"-0.017": 1.13126879105,
			"-0.016": 0.714611612756,
			"-0.015": 0.973218079194,
			"-0.014": 0.385719296083,
			"-0.013": 1.0213955358,
			"-0.012": 0.481913354355,
			"-0.011": 0.341527835884,
			"-0.01": 0.781369447938,
			"-0.009": 0.896328976168,
			"-0.008": 0.486059594648,
			"-0.007": 1.21568806675,
			"-0.006": 4.47725477044,
			"-0.005": 6.42488605392,
			"-0.004": 26.4108727372,
			"-0.003": 44.5916497888,
			"-0.002": 40.7255245235,
			"-0.001": 37.0395206996,
			"0.0": 41.0672343416,
			"0.001": 29.6253416115,
			"0.002": 10.7253674179,
			"0.003": 11.0032764316,
			"0.004": 9.62877088057,
			"0.005": 9.73846038277,
			"0.006": 8.00825336547,
			"0.007": 6.16163783726,
			"0.008": 4.6901433114,
			"0.009": 4.92511792391,
			"0.01": 3.62635572995,
			"0.011": 3.68144224442,
			"0.012": 3.40258407446,
			"0.013": 2.83702626256,
			"0.014": 2.02221401945,
			"0.015": 0.0,
			"0.016": 0.0,
			"0.017": 0.0,
			"0.018": 0.0,
			"0.019": 0.0,
			"0.02": 0.0,
			"0.021": 0.0,
			"0.022": 0.0,
			"0.023": 0.0,
			"0.024": 0.0,
			"0.025": 0.0
		}
	}
}
