{
	 "smiles": "COC(=O)C1=C(N)C=C(S1)C1=CC(Br)=CC=C1", 
	 "Tm": 381.15, 
	 "num_atms": 27, 
	 "gaussian": { 
		 "optdone": 1, 
		 "sigma_profile": "yes", 
		 "theory": "DFT", 
		 "functional": "B3LYP", 
		 "basiset": "6-31G**", 
		 "properties": { 
			 "R2extent": 9451.8073, 
			 "electric_dipole_moment_norm": 5.30732400933, 
			 "electric_quadrupole_moment_norm": 14.5792002329, 
			 "total_energy": -3638.10509907, 
			 "HOMO_LUMO_gap": 0.14667, 
			 "cosmo_polarized_energy": -14.86, 
			 "cosmo_cavitation_energy": 35.68, 
			 "cosmo_dispersion_energy": -26.9, 
			 "cosmo_repulsion_energy": 2.05, 
			 "cosmo_total_nonelectrostatic_energy": 10.83, 
			 "SMD_solvation_energy": 5.88 
		},
		"coords": [
			{
				"x": -1.2853327836,
				"y": -4.7387157908,
				"z": -2.7203853974,
				"element": "C" 
			},
			{
				"x": -1.2920628919,
				"y": -3.3798110717,
				"z": -2.2550465446,
				"element": "O" 
			},
			{
				"x": -0.1748062067,
				"y": -3.0080284638,
				"z": -1.5516143537,
				"element": "C" 
			},
			{
				"x": 0.7457798994,
				"y": -3.7769750552,
				"z": -1.3365624968,
				"element": "O" 
			},
			{
				"x": -0.2359896897,
				"y": -1.6285272053,
				"z": -1.1069636097,
				"element": "C" 
			},
			{
				"x": -1.2211182023,
				"y": -0.6558609553,
				"z": -1.2855745353,
				"element": "C" 
			},
			{
				"x": -2.37210725,
				"y": -0.8055156035,
				"z": -2.02222595,
				"element": "N" 
			},
			{
				"x": -0.8755627565,
				"y": 0.57009969,
				"z": -0.6370526256,
				"element": "C" 
			},
			{
				"x": 0.3382310185,
				"y": 0.5345099883,
				"z": 0.0091924803,
				"element": "C" 
			},
			{
				"x": 1.1116257148,
				"y": -1.0167236839,
				"z": -0.1684675878,
				"element": "S" 
			},
			{
				"x": 0.9757708214,
				"y": 1.6260496294,
				"z": 0.7592691051,
				"element": "C" 
			},
			{
				"x": 1.85378316,
				"y": 1.3538219103,
				"z": 1.8234742377,
				"element": "C" 
			},
			{
				"x": 2.4408392553,
				"y": 2.4037034163,
				"z": 2.5220335075,
				"element": "C" 
			},
			{
				"x": 3.6277163991,
				"y": 2.0103342374,
				"z": 3.9681317666,
				"element": "Br" 
			},
			{
				"x": 2.1767432842,
				"y": 3.7339429188,
				"z": 2.2002238589,
				"element": "C" 
			},
			{
				"x": 1.3047135565,
				"y": 4.0034734197,
				"z": 1.143762661,
				"element": "C" 
			},
			{
				"x": 0.7137556325,
				"y": 2.9671710702,
				"z": 0.4259552972,
				"element": "C" 
			},
			{
				"x": -2.2223904117,
				"y": -4.8694740504,
				"z": -3.2623519875,
				"element": "H" 
			},
			{
				"x": -0.433182872,
				"y": -4.9149963791,
				"z": -3.3809993334,
				"element": "H" 
			},
			{
				"x": -1.2280776784,
				"y": -5.4348644308,
				"z": -1.8799616875,
				"element": "H" 
			},
			{
				"x": -2.6137720933,
				"y": -1.7547931097,
				"z": -2.2688783834,
				"element": "H" 
			},
			{
				"x": -3.1441736895,
				"y": -0.2006214606,
				"z": -1.787615681,
				"element": "H" 
			},
			{
				"x": -1.525953836,
				"y": 1.4380337059,
				"z": -0.6359715323,
				"element": "H" 
			},
			{
				"x": 2.059902093,
				"y": 0.3301835122,
				"z": 2.1147082805,
				"element": "H" 
			},
			{
				"x": 2.6433535082,
				"y": 4.5366112309,
				"z": 2.7591760518,
				"element": "H" 
			},
			{
				"x": 1.0966297614,
				"y": 5.034469685,
				"z": 0.8734494387,
				"element": "H" 
			},
			{
				"x": 0.0647862572,
				"y": 3.1929028459,
				"z": -0.4136049794,
				"element": "H" 
			}
		],
		 "valence_orbital": [ 
			{
				"type": "occ",
				"energy": -0.27629,
				"method": "rhf"
			},
			{
				"type": "occ",
				"energy": -0.27081,
				"method": "rhf"
			},
			{
				"type": "occ",
				"energy": -0.25115,
				"method": "rhf"
			},
			{
				"type": "occ",
				"energy": -0.23528,
				"method": "rhf"
			},
			{
				"type": "occ",
				"energy": -0.20754,
				"method": "rhf"
			},
			{
				"type": "unocc",
				"energy": -0.06087,
				"method": "rhf"
			},
			{
				"type": "unocc",
				"energy": -0.0213,
				"method": "rhf"
			},
			{
				"type": "unocc",
				"energy": -0.00538,
				"method": "rhf"
			},
			{
				"type": "unocc",
				"energy": 0.00485,
				"method": "rhf"
			},
			{
				"type": "unocc",
				"energy": 0.02939,
				"method": "rhf"
			}
		],
		"cosmo_sigma_profile": { 
			"-0.025": 0.0,
			"-0.024": 0.0,
			"-0.023": 0.0,
			"-0.022": 0.0,
			"-0.021": 0.0,
			"-0.02": 0.0,
			"-0.019": 0.0,
			"-0.018": 0.0,
			"-0.017": 0.0,
			"-0.016": 0.0,
			"-0.015": 0.0,
			"-0.014": 0.640327633952,
			"-0.013": 1.75227059968,
			"-0.012": 1.1507299447,
			"-0.011": 1.8067537656,
			"-0.01": 2.4727015651,
			"-0.009": 2.90851914134,
			"-0.008": 3.71297846622,
			"-0.007": 9.85498216258,
			"-0.006": 14.3549568285,
			"-0.005": 17.4938508812,
			"-0.004": 17.1960145163,
			"-0.003": 18.8430711704,
			"-0.002": 15.5261319955,
			"-0.001": 16.816212087,
			"0.0": 17.7160545379,
			"0.001": 24.6889370211,
			"0.002": 34.1204274492,
			"0.003": 35.2557690704,
			"0.004": 22.3408241536,
			"0.005": 9.71264672208,
			"0.006": 3.08385365389,
			"0.007": 2.85184094797,
			"0.008": 1.96814506235,
			"0.009": 2.45930419486,
			"0.01": 2.37960109329,
			"0.011": 2.91124585835,
			"0.012": 4.37564487173,
			"0.013": 2.82610374612,
			"0.014": 0.0,
			"0.015": 0.0,
			"0.016": 0.0,
			"0.017": 0.0,
			"0.018": 0.0,
			"0.019": 0.0,
			"0.02": 0.0,
			"0.021": 0.0,
			"0.022": 0.0,
			"0.023": 0.0,
			"0.024": 0.0,
			"0.025": 0.0
		}
	}
}
