{
	 "smiles": "BrC1=C2N=CC=CC2=CC=C1", 
	 "Tm": 331.65, 
	 "num_atms": 17, 
	 "gaussian": { 
		 "optdone": 1, 
		 "sigma_profile": "yes", 
		 "theory": "DFT", 
		 "functional": "B3LYP", 
		 "basiset": "6-31G**", 
		 "properties": { 
			 "R2extent": 3244.923, 
			 "electric_dipole_moment_norm": 3.55688399305, 
			 "electric_quadrupole_moment_norm": 7.84764109526, 
			 "total_energy": -2972.73139302, 
			 "HOMO_LUMO_gap": 0.168, 
			 "cosmo_polarized_energy": -8.59, 
			 "cosmo_cavitation_energy": 23.26, 
			 "cosmo_dispersion_energy": -17.97, 
			 "cosmo_repulsion_energy": 1.42, 
			 "cosmo_total_nonelectrostatic_energy": 6.71, 
			 "SMD_solvation_energy": 1.61 
		},
		"coords": [
			{
				"x": -0.2140350481,
				"y": -2.1315099918,
				"z": 3.1060246609,
				"element": "Br" 
			},
			{
				"x": -0.4388533063,
				"y": -0.4357475701,
				"z": 2.2721809372,
				"element": "C" 
			},
			{
				"x": 0.2384933748,
				"y": -0.1565812834,
				"z": 1.0466998064,
				"element": "C" 
			},
			{
				"x": 1.0389753718,
				"y": -1.0988483048,
				"z": 0.480979983,
				"element": "N" 
			},
			{
				"x": 1.6460196297,
				"y": -0.8019566451,
				"z": -0.6495568421,
				"element": "C" 
			},
			{
				"x": 1.519290167,
				"y": 0.4409115215,
				"z": -1.3186161181,
				"element": "C" 
			},
			{
				"x": 0.7144919034,
				"y": 1.4046456445,
				"z": -0.7612480408,
				"element": "C" 
			},
			{
				"x": 0.0373515,
				"y": 1.1359656252,
				"z": 0.4565165055,
				"element": "C" 
			},
			{
				"x": -0.808565001,
				"y": 2.0840646269,
				"z": 1.0874101236,
				"element": "C" 
			},
			{
				"x": -1.4402620746,
				"y": 1.7695914395,
				"z": 2.2678123188,
				"element": "C" 
			},
			{
				"x": -1.254995931,
				"y": 0.5005944126,
				"z": 2.8658960597,
				"element": "C" 
			},
			{
				"x": 2.2793580593,
				"y": -1.5798137428,
				"z": -1.0747238936,
				"element": "H" 
			},
			{
				"x": 2.0511359522,
				"y": 0.6138749239,
				"z": -2.2487018485,
				"element": "H" 
			},
			{
				"x": 0.5848362,
				"y": 2.3739152354,
				"z": -1.2361215374,
				"element": "H" 
			},
			{
				"x": -0.9471065477,
				"y": 3.0569389732,
				"z": 0.623586123,
				"element": "H" 
			},
			{
				"x": -2.0885961239,
				"y": 2.4918914944,
				"z": 2.754387152,
				"element": "H" 
			},
			{
				"x": -1.7570381258,
				"y": 0.261563641,
				"z": 3.7964746103,
				"element": "H" 
			}
		],
		 "valence_orbital": [ 
			{
				"type": "occ",
				"energy": -0.28502,
				"method": "rhf"
			},
			{
				"type": "occ",
				"energy": -0.28079,
				"method": "rhf"
			},
			{
				"type": "occ",
				"energy": -0.26112,
				"method": "rhf"
			},
			{
				"type": "occ",
				"energy": -0.2544,
				"method": "rhf"
			},
			{
				"type": "occ",
				"energy": -0.22987,
				"method": "rhf"
			},
			{
				"type": "unocc",
				"energy": -0.06187,
				"method": "rhf"
			},
			{
				"type": "unocc",
				"energy": -0.02559,
				"method": "rhf"
			},
			{
				"type": "unocc",
				"energy": 0.01169,
				"method": "rhf"
			},
			{
				"type": "unocc",
				"energy": 0.01666,
				"method": "rhf"
			},
			{
				"type": "unocc",
				"energy": 0.08013,
				"method": "rhf"
			}
		],
		"cosmo_sigma_profile": { 
			"-0.025": 0.0,
			"-0.024": 0.0,
			"-0.023": 0.0,
			"-0.022": 0.0,
			"-0.021": 0.0,
			"-0.02": 0.0,
			"-0.019": 0.0,
			"-0.018": 0.0,
			"-0.017": 0.0,
			"-0.016": 0.0,
			"-0.015": 0.0,
			"-0.014": 0.0,
			"-0.013": 0.0,
			"-0.012": 0.0,
			"-0.011": 0.0,
			"-0.01": 0.0,
			"-0.009": 0.0,
			"-0.008": 2.00826887402,
			"-0.007": 11.7106773814,
			"-0.006": 14.0791638595,
			"-0.005": 12.7595682714,
			"-0.004": 10.0433642951,
			"-0.003": 9.62311533234,
			"-0.002": 9.24621794364,
			"-0.001": 9.38573097796,
			"0.0": 14.3989684624,
			"0.001": 23.6297076274,
			"0.002": 24.7364419285,
			"0.003": 16.063405875,
			"0.004": 10.0242184589,
			"0.005": 9.03549041358,
			"0.006": 2.32071457533,
			"0.007": 2.20947897321,
			"0.008": 1.74921011029,
			"0.009": 1.35896741025,
			"0.01": 1.47254743557,
			"0.011": 0.968706400477,
			"0.012": 1.17216777919,
			"0.013": 1.15838603521,
			"0.014": 0.912178249376,
			"0.015": 0.918182453818,
			"0.016": 0.0552186011269,
			"0.017": 0.0,
			"0.018": 0.0,
			"0.019": 0.0,
			"0.02": 0.0,
			"0.021": 0.0,
			"0.022": 0.0,
			"0.023": 0.0,
			"0.024": 0.0,
			"0.025": 0.0
		}
	}
}
