{
	 "smiles": "NS(=O)(=O)CCC1=CC=C(C=C1)[N+]([O-])=O", 
	 "Tm": 392.15, 
	 "num_atms": 25, 
	 "gaussian": { 
		 "optdone": 1, 
		 "sigma_profile": "yes", 
		 "theory": "DFT", 
		 "functional": "B3LYP", 
		 "basiset": "6-31G**", 
		 "properties": { 
			 "R2extent": 5117.846, 
			 "electric_dipole_moment_norm": 3.11881780808, 
			 "electric_quadrupole_moment_norm": 28.1475337069, 
			 "total_energy": -1119.30618499, 
			 "HOMO_LUMO_gap": 0.18704, 
			 "cosmo_polarized_energy": -20.6, 
			 "cosmo_cavitation_energy": 30.81, 
			 "cosmo_dispersion_energy": -22.43, 
			 "cosmo_repulsion_energy": 1.71, 
			 "cosmo_total_nonelectrostatic_energy": 10.1, 
			 "SMD_solvation_energy": 6.79 
		},
		"coords": [
			{
				"x": -2.9075506662,
				"y": -0.7869809057,
				"z": 0.4743956419,
				"element": "N" 
			},
			{
				"x": -2.7519764799,
				"y": 0.8793478184,
				"z": 0.2205329092,
				"element": "S" 
			},
			{
				"x": -4.0414072837,
				"y": 1.3276957221,
				"z": -0.3112261648,
				"element": "O" 
			},
			{
				"x": -2.145816736,
				"y": 1.5041094531,
				"z": 1.4042418133,
				"element": "O" 
			},
			{
				"x": -1.543551797,
				"y": 0.9757876257,
				"z": -1.1342652745,
				"element": "C" 
			},
			{
				"x": -0.076317839,
				"y": 0.8645694882,
				"z": -0.6904260475,
				"element": "C" 
			},
			{
				"x": 0.3354807939,
				"y": -0.4825616435,
				"z": -0.1332510162,
				"element": "C" 
			},
			{
				"x": 0.5905575108,
				"y": -1.5629966389,
				"z": -0.9917878457,
				"element": "C" 
			},
			{
				"x": 0.9651912394,
				"y": -2.8056082014,
				"z": -0.4912703435,
				"element": "C" 
			},
			{
				"x": 1.0858644358,
				"y": -2.9600409414,
				"z": 0.8887507009,
				"element": "C" 
			},
			{
				"x": 0.8469296517,
				"y": -1.9088726198,
				"z": 1.7710041415,
				"element": "C" 
			},
			{
				"x": 0.4727382963,
				"y": -0.6714268363,
				"z": 1.2510583599,
				"element": "C" 
			},
			{
				"x": 1.4817569864,
				"y": -4.2703696597,
				"z": 1.4284272305,
				"element": "N" 
			},
			{
				"x": 1.6994065185,
				"y": -5.1760870972,
				"z": 0.6243194859,
				"element": "O" 
			},
			{
				"x": 1.5687762964,
				"y": -4.3808774719,
				"z": 2.650923691,
				"element": "O" 
			},
			{
				"x": -2.4032992443,
				"y": -1.0745659962,
				"z": 1.3091221155,
				"element": "H" 
			},
			{
				"x": -3.8980733893,
				"y": -1.0087984563,
				"z": 0.5391763881,
				"element": "H" 
			},
			{
				"x": -1.7337387904,
				"y": 1.9593741837,
				"z": -1.5739978254,
				"element": "H" 
			},
			{
				"x": -1.8355035708,
				"y": 0.2087299153,
				"z": -1.8548968924,
				"element": "H" 
			},
			{
				"x": 0.1184752288,
				"y": 1.6471861506,
				"z": 0.0474742721,
				"element": "H" 
			},
			{
				"x": 0.5345508975,
				"y": 1.0937151235,
				"z": -1.5718006516,
				"element": "H" 
			},
			{
				"x": 0.499598062,
				"y": -1.4297914106,
				"z": -2.0665276488,
				"element": "H" 
			},
			{
				"x": 1.1672629159,
				"y": -3.6478185573,
				"z": -1.1410801458,
				"element": "H" 
			},
			{
				"x": 0.9612275684,
				"y": -2.0702334335,
				"z": 2.8357833989,
				"element": "H" 
			},
			{
				"x": 0.2777193947,
				"y": 0.1586143888,
				"z": 1.9232197075,
				"element": "H" 
			}
		],
		 "valence_orbital": [ 
			{
				"type": "occ",
				"energy": -0.31106,
				"method": "rhf"
			},
			{
				"type": "occ",
				"energy": -0.29969,
				"method": "rhf"
			},
			{
				"type": "occ",
				"energy": -0.29567,
				"method": "rhf"
			},
			{
				"type": "occ",
				"energy": -0.28632,
				"method": "rhf"
			},
			{
				"type": "occ",
				"energy": -0.28205,
				"method": "rhf"
			},
			{
				"type": "unocc",
				"energy": -0.09501,
				"method": "rhf"
			},
			{
				"type": "unocc",
				"energy": -0.0372,
				"method": "rhf"
			},
			{
				"type": "unocc",
				"energy": -0.00963,
				"method": "rhf"
			},
			{
				"type": "unocc",
				"energy": 0.0459,
				"method": "rhf"
			},
			{
				"type": "unocc",
				"energy": 0.05909,
				"method": "rhf"
			}
		],
		"cosmo_sigma_profile": { 
			"-0.025": 0.0,
			"-0.024": 0.0,
			"-0.023": 0.0,
			"-0.022": 0.0,
			"-0.021": 0.0,
			"-0.02": 0.0,
			"-0.019": 0.0,
			"-0.018": 0.0,
			"-0.017": 0.0,
			"-0.016": 0.0,
			"-0.015": 0.564867165267,
			"-0.014": 1.47701259022,
			"-0.013": 1.62437348935,
			"-0.012": 2.67929517325,
			"-0.011": 2.48481314278,
			"-0.01": 1.71974215189,
			"-0.009": 2.06664191112,
			"-0.008": 7.99057500702,
			"-0.007": 15.4074312521,
			"-0.006": 18.1195758107,
			"-0.005": 17.791830285,
			"-0.004": 14.0056415667,
			"-0.003": 14.2157515781,
			"-0.002": 13.8651480512,
			"-0.001": 13.4968919437,
			"0.0": 12.7787440593,
			"0.001": 13.2953316094,
			"0.002": 10.9241349844,
			"0.003": 7.27019632578,
			"0.004": 5.60431905608,
			"0.005": 5.99386679431,
			"0.006": 6.17745786792,
			"0.007": 10.6695219277,
			"0.008": 11.6486973403,
			"0.009": 8.39885589808,
			"0.01": 8.51805463298,
			"0.011": 9.93807986815,
			"0.012": 5.83073237182,
			"0.013": 0.0392331425601,
			"0.014": 0.0,
			"0.015": 0.0,
			"0.016": 0.0,
			"0.017": 0.0,
			"0.018": 0.0,
			"0.019": 0.0,
			"0.02": 0.0,
			"0.021": 0.0,
			"0.022": 0.0,
			"0.023": 0.0,
			"0.024": 0.0,
			"0.025": 0.0
		}
	}
}
