{
	 "smiles": "CC(=O)C1=CC(=CC=C1)C(C)=O", 
	 "Tm": 307.15, 
	 "num_atms": 22, 
	 "gaussian": { 
		 "optdone": 1, 
		 "sigma_profile": "yes", 
		 "theory": "DFT", 
		 "functional": "B3LYP", 
		 "basiset": "6-31G**", 
		 "properties": { 
			 "R2extent": 3368.5753, 
			 "electric_dipole_moment_norm": 5.57850535359, 
			 "electric_quadrupole_moment_norm": 17.2900741491, 
			 "total_energy": -537.545108312, 
			 "HOMO_LUMO_gap": 0.18159, 
			 "cosmo_polarized_energy": -13.96, 
			 "cosmo_cavitation_energy": 26.39, 
			 "cosmo_dispersion_energy": -18.97, 
			 "cosmo_repulsion_energy": 1.5, 
			 "cosmo_total_nonelectrostatic_energy": 8.92, 
			 "SMD_solvation_energy": 5.98 
		},
		"coords": [
			{
				"x": -2.3459541872,
				"y": 1.8674015076,
				"z": 0.7440899846,
				"element": "C" 
			},
			{
				"x": -1.8145305004,
				"y": 1.3145577987,
				"z": -0.5676680361,
				"element": "C" 
			},
			{
				"x": -2.570997574,
				"y": 1.0765749446,
				"z": -1.4950716802,
				"element": "O" 
			},
			{
				"x": -0.3380137169,
				"y": 1.0651329017,
				"z": -0.7042152371,
				"element": "C" 
			},
			{
				"x": 0.137325958,
				"y": 0.5560816657,
				"z": -1.9177051,
				"element": "C" 
			},
			{
				"x": 1.4998398438,
				"y": 0.3019916353,
				"z": -2.1090483172,
				"element": "C" 
			},
			{
				"x": 2.3968832957,
				"y": 0.5650217461,
				"z": -1.061088557,
				"element": "C" 
			},
			{
				"x": 1.9342670377,
				"y": 1.0724126112,
				"z": 0.1526151404,
				"element": "C" 
			},
			{
				"x": 0.5741140422,
				"y": 1.3219395488,
				"z": 0.3322147653,
				"element": "C" 
			},
			{
				"x": 1.9411182355,
				"y": -0.2447840954,
				"z": -3.4384391485,
				"element": "C" 
			},
			{
				"x": 3.417709721,
				"y": -0.5251787473,
				"z": -3.6616530274,
				"element": "C" 
			},
			{
				"x": 1.1263086818,
				"y": -0.4587526986,
				"z": -4.3211953213,
				"element": "O" 
			},
			{
				"x": -1.8938846446,
				"y": 2.8386343039,
				"z": 0.9743287264,
				"element": "H" 
			},
			{
				"x": -3.4267893435,
				"y": 1.9827836762,
				"z": 0.660497164,
				"element": "H" 
			},
			{
				"x": -2.1161064929,
				"y": 1.1940412226,
				"z": 1.577407812,
				"element": "H" 
			},
			{
				"x": -0.5611171003,
				"y": 0.3554148101,
				"z": -2.7224232896,
				"element": "H" 
			},
			{
				"x": 3.4580022729,
				"y": 0.3756068576,
				"z": -1.1869194112,
				"element": "H" 
			},
			{
				"x": 2.6337059712,
				"y": 1.273378885,
				"z": 0.9584721396,
				"element": "H" 
			},
			{
				"x": 0.2281989371,
				"y": 1.7168807142,
				"z": 1.2819760333,
				"element": "H" 
			},
			{
				"x": 4.0142354669,
				"y": 0.3861622909,
				"z": -3.5421434664,
				"element": "H" 
			},
			{
				"x": 3.7931342132,
				"y": -1.2586930228,
				"z": -2.9393758911,
				"element": "H" 
			},
			{
				"x": 3.5492498828,
				"y": -0.913108556,
				"z": -4.6719552823,
				"element": "H" 
			}
		],
		 "valence_orbital": [ 
			{
				"type": "occ",
				"energy": -0.35192,
				"method": "rhf"
			},
			{
				"type": "occ",
				"energy": -0.27139,
				"method": "rhf"
			},
			{
				"type": "occ",
				"energy": -0.26705,
				"method": "rhf"
			},
			{
				"type": "occ",
				"energy": -0.25455,
				"method": "rhf"
			},
			{
				"type": "occ",
				"energy": -0.24991,
				"method": "rhf"
			},
			{
				"type": "unocc",
				"energy": -0.06832,
				"method": "rhf"
			},
			{
				"type": "unocc",
				"energy": -0.05187,
				"method": "rhf"
			},
			{
				"type": "unocc",
				"energy": 0.01012,
				"method": "rhf"
			},
			{
				"type": "unocc",
				"energy": 0.05446,
				"method": "rhf"
			},
			{
				"type": "unocc",
				"energy": 0.07902,
				"method": "rhf"
			}
		],
		"cosmo_sigma_profile": { 
			"-0.025": 0.0,
			"-0.024": 0.0,
			"-0.023": 0.0,
			"-0.022": 0.0,
			"-0.021": 0.0,
			"-0.02": 0.0,
			"-0.019": 0.0,
			"-0.018": 0.0,
			"-0.017": 0.0,
			"-0.016": 0.0,
			"-0.015": 0.0,
			"-0.014": 0.0,
			"-0.013": 0.0,
			"-0.012": 0.0,
			"-0.011": 0.0,
			"-0.01": 0.0,
			"-0.009": 0.0,
			"-0.008": 0.565845850588,
			"-0.007": 9.20209554004,
			"-0.006": 22.002419463,
			"-0.005": 16.6364721171,
			"-0.004": 15.0829733745,
			"-0.003": 15.6074786284,
			"-0.002": 16.1850101072,
			"-0.001": 18.7579217588,
			"0.0": 13.8655455773,
			"0.001": 15.1393484667,
			"0.002": 17.0513340026,
			"0.003": 9.42144449788,
			"0.004": 3.31707199743,
			"0.005": 3.73198696365,
			"0.006": 3.63841103327,
			"0.007": 2.74967809398,
			"0.008": 2.7919776721,
			"0.009": 3.89045614696,
			"0.01": 4.42543837049,
			"0.011": 6.52723773119,
			"0.012": 7.12049438471,
			"0.013": 2.40217189668,
			"0.014": 0.0644795083789,
			"0.015": 0.0,
			"0.016": 0.0,
			"0.017": 0.0,
			"0.018": 0.0,
			"0.019": 0.0,
			"0.02": 0.0,
			"0.021": 0.0,
			"0.022": 0.0,
			"0.023": 0.0,
			"0.024": 0.0,
			"0.025": 0.0
		}
	}
}
