{
	 "smiles": "CC1=CC=C(OCC2=NC(C=O)=CS2)C=C1", 
	 "Tm": 360.15, 
	 "num_atms": 27, 
	 "gaussian": { 
		 "optdone": 1, 
		 "sigma_profile": "yes", 
		 "theory": "DFT", 
		 "functional": "B3LYP", 
		 "basiset": "6-31G**", 
		 "properties": { 
			 "R2extent": 6941.7124, 
			 "electric_dipole_moment_norm": 3.92555372018, 
			 "electric_quadrupole_moment_norm": 28.6442356733, 
			 "total_energy": -1067.26327584, 
			 "HOMO_LUMO_gap": 0.16227, 
			 "cosmo_polarized_energy": -14.51, 
			 "cosmo_cavitation_energy": 34.01, 
			 "cosmo_dispersion_energy": -25.04, 
			 "cosmo_repulsion_energy": 1.91, 
			 "cosmo_total_nonelectrostatic_energy": 10.87, 
			 "SMD_solvation_energy": 5.45 
		},
		"coords": [
			{
				"x": 2.6677453003,
				"y": -3.952433956,
				"z": -2.5770586526,
				"element": "C" 
			},
			{
				"x": 1.9169660808,
				"y": -2.7876364533,
				"z": -1.9753446785,
				"element": "C" 
			},
			{
				"x": 2.0107927973,
				"y": -1.5026116089,
				"z": -2.5370212613,
				"element": "C" 
			},
			{
				"x": 1.326600912,
				"y": -0.4224285048,
				"z": -1.9957001006,
				"element": "C" 
			},
			{
				"x": 0.5206694281,
				"y": -0.6029566403,
				"z": -0.8638972095,
				"element": "C" 
			},
			{
				"x": -0.1165469438,
				"y": 0.5231017906,
				"z": -0.4005884145,
				"element": "O" 
			},
			{
				"x": -0.9441965207,
				"y": 0.4079676554,
				"z": 0.740310797,
				"element": "C" 
			},
			{
				"x": -1.5119744555,
				"y": 1.7677879839,
				"z": 1.0348800629,
				"element": "C" 
			},
			{
				"x": -2.3172450359,
				"y": 2.0117206942,
				"z": 2.0173472199,
				"element": "N" 
			},
			{
				"x": -2.6741503703,
				"y": 3.3458191126,
				"z": 2.0430586544,
				"element": "C" 
			},
			{
				"x": -3.587542379,
				"y": 3.8865694382,
				"z": 3.0691387625,
				"element": "C" 
			},
			{
				"x": -4.0973315155,
				"y": 3.238915111,
				"z": 3.9593850514,
				"element": "O" 
			},
			{
				"x": -2.1193738938,
				"y": 4.1195862418,
				"z": 1.051328559,
				"element": "C" 
			},
			{
				"x": -1.1075902079,
				"y": 3.1676840865,
				"z": 0.0325181807,
				"element": "S" 
			},
			{
				"x": 0.4092101659,
				"y": -1.8681888023,
				"z": -0.2855665681,
				"element": "C" 
			},
			{
				"x": 1.1081861315,
				"y": -2.9426482458,
				"z": -0.8483864913,
				"element": "C" 
			},
			{
				"x": 2.3667452344,
				"y": -4.1306525416,
				"z": -3.6160867742,
				"element": "H" 
			},
			{
				"x": 3.7492903886,
				"y": -3.773292722,
				"z": -2.5828567973,
				"element": "H" 
			},
			{
				"x": 2.4874887107,
				"y": -4.8743047972,
				"z": -2.0171634616,
				"element": "H" 
			},
			{
				"x": 2.6323784269,
				"y": -1.3466526697,
				"z": -3.4155333049,
				"element": "H" 
			},
			{
				"x": 1.4007428435,
				"y": 0.5688153225,
				"z": -2.431167863,
				"element": "H" 
			},
			{
				"x": -0.3760902322,
				"y": 0.0557936499,
				"z": 1.6131099369,
				"element": "H" 
			},
			{
				"x": -1.7682964015,
				"y": -0.2988265843,
				"z": 0.5677463651,
				"element": "H" 
			},
			{
				"x": -3.7809328716,
				"y": 4.9772025039,
				"z": 2.9599298744,
				"element": "H" 
			},
			{
				"x": -2.258782394,
				"y": 5.1785650293,
				"z": 0.8811982377,
				"element": "H" 
			},
			{
				"x": -0.2070629574,
				"y": -2.0363320764,
				"z": 0.5899826869,
				"element": "H" 
			},
			{
				"x": 1.0136997591,
				"y": -3.9234630173,
				"z": -0.3892628111,
				"element": "H" 
			}
		],
		 "valence_orbital": [ 
			{
				"type": "occ",
				"energy": -0.28937,
				"method": "rhf"
			},
			{
				"type": "occ",
				"energy": -0.2615,
				"method": "rhf"
			},
			{
				"type": "occ",
				"energy": -0.25562,
				"method": "rhf"
			},
			{
				"type": "occ",
				"energy": -0.25464,
				"method": "rhf"
			},
			{
				"type": "occ",
				"energy": -0.22337,
				"method": "rhf"
			},
			{
				"type": "unocc",
				"energy": -0.0611,
				"method": "rhf"
			},
			{
				"type": "unocc",
				"energy": -0.02675,
				"method": "rhf"
			},
			{
				"type": "unocc",
				"energy": -0.00681,
				"method": "rhf"
			},
			{
				"type": "unocc",
				"energy": 0.007,
				"method": "rhf"
			},
			{
				"type": "unocc",
				"energy": 0.01134,
				"method": "rhf"
			}
		],
		"cosmo_sigma_profile": { 
			"-0.025": 0.0,
			"-0.024": 0.0,
			"-0.023": 0.0,
			"-0.022": 0.0,
			"-0.021": 0.0,
			"-0.02": 0.0,
			"-0.019": 0.0,
			"-0.018": 0.0,
			"-0.017": 0.0,
			"-0.016": 0.0,
			"-0.015": 0.0,
			"-0.014": 0.0,
			"-0.013": 0.0,
			"-0.012": 0.0,
			"-0.011": 0.722794430592,
			"-0.01": 2.84145235902,
			"-0.009": 3.13356868527,
			"-0.008": 5.8725563824,
			"-0.007": 12.2707332474,
			"-0.006": 11.4742146922,
			"-0.005": 15.574537271,
			"-0.004": 19.2665031274,
			"-0.003": 20.0216242074,
			"-0.002": 22.6203892439,
			"-0.001": 21.9171031736,
			"0.0": 25.9067622262,
			"0.001": 21.6600071247,
			"0.002": 15.0301754053,
			"0.003": 13.6230782179,
			"0.004": 13.4159099462,
			"0.005": 14.0447895841,
			"0.006": 8.78117865701,
			"0.007": 2.54176144471,
			"0.008": 2.90468719491,
			"0.009": 2.28955264149,
			"0.01": 3.43471508957,
			"0.011": 5.43196096779,
			"0.012": 4.12154488408,
			"0.013": 2.64664068022,
			"0.014": 1.91404657371,
			"0.015": 0.774909619688,
			"0.016": 0.00241856100436,
			"0.017": 0.0,
			"0.018": 0.0,
			"0.019": 0.0,
			"0.02": 0.0,
			"0.021": 0.0,
			"0.022": 0.0,
			"0.023": 0.0,
			"0.024": 0.0,
			"0.025": 0.0
		}
	}
}
