{
	 "smiles": "CNC1=C(C=CC=C1)C(O)=O", 
	 "Tm": 453.15, 
	 "num_atms": 20, 
	 "gaussian": { 
		 "optdone": 1, 
		 "sigma_profile": "yes", 
		 "theory": "DFT", 
		 "functional": "B3LYP", 
		 "basiset": "6-31G**", 
		 "properties": { 
			 "R2extent": 2057.0299, 
			 "electric_dipole_moment_norm": 6.41620667607, 
			 "electric_quadrupole_moment_norm": 15.7420339312, 
			 "total_energy": -515.487275756, 
			 "HOMO_LUMO_gap": 0.20977, 
			 "cosmo_polarized_energy": -15.04, 
			 "cosmo_cavitation_energy": 23.51, 
			 "cosmo_dispersion_energy": -17.33, 
			 "cosmo_repulsion_energy": 1.38, 
			 "cosmo_total_nonelectrostatic_energy": 7.57, 
			 "SMD_solvation_energy": 5.33 
		},
		"coords": [
			{
				"x": -0.845034387,
				"y": -0.4753347669,
				"z": 1.4585523475,
				"element": "C" 
			},
			{
				"x": 0.3583822704,
				"y": -0.0424230311,
				"z": 0.7148558432,
				"element": "N" 
			},
			{
				"x": 0.2836916155,
				"y": -0.2678649807,
				"z": -0.7096666568,
				"element": "C" 
			},
			{
				"x": -0.2099516271,
				"y": 0.7490573502,
				"z": -1.551689584,
				"element": "C" 
			},
			{
				"x": -0.3023412035,
				"y": 0.501128946,
				"z": -2.9277311123,
				"element": "C" 
			},
			{
				"x": 0.1078367801,
				"y": -0.7132145949,
				"z": -3.4700803205,
				"element": "C" 
			},
			{
				"x": 0.6197777686,
				"y": -1.7073965125,
				"z": -2.6333348974,
				"element": "C" 
			},
			{
				"x": 0.6970040452,
				"y": -1.4860630816,
				"z": -1.2589331593,
				"element": "C" 
			},
			{
				"x": -0.6106690193,
				"y": 2.1325130741,
				"z": -1.0840712334,
				"element": "C" 
			},
			{
				"x": -0.3142656171,
				"y": 2.4503141076,
				"z": 0.1840776797,
				"element": "O" 
			},
			{
				"x": -1.1536730536,
				"y": 2.9218674772,
				"z": -1.8284364818,
				"element": "O" 
			},
			{
				"x": -1.0913294346,
				"y": -1.5324337548,
				"z": 1.2926538798,
				"element": "H" 
			},
			{
				"x": -0.6797557485,
				"y": -0.3073923915,
				"z": 2.525929135,
				"element": "H" 
			},
			{
				"x": -1.6951661234,
				"y": 0.1343993205,
				"z": 1.1443752867,
				"element": "H" 
			},
			{
				"x": 1.1763302317,
				"y": -0.5148990178,
				"z": 1.0901890296,
				"element": "H" 
			},
			{
				"x": -0.6910875695,
				"y": 1.297996095,
				"z": -3.5523993875,
				"element": "H" 
			},
			{
				"x": 0.0371910819,
				"y": -0.8823872849,
				"z": -4.540179103,
				"element": "H" 
			},
			{
				"x": 0.9509523346,
				"y": -2.6557965374,
				"z": -3.0463396579,
				"element": "H" 
			},
			{
				"x": 1.0774066048,
				"y": -2.2634251954,
				"z": -0.6002468517,
				"element": "H" 
			},
			{
				"x": 0.1311010508,
				"y": 1.6652547791,
				"z": 0.6071752441,
				"element": "H" 
			}
		],
		 "valence_orbital": [ 
			{
				"type": "occ",
				"energy": -0.29312,
				"method": "rhf"
			},
			{
				"type": "occ",
				"energy": -0.28617,
				"method": "rhf"
			},
			{
				"type": "occ",
				"energy": -0.26488,
				"method": "rhf"
			},
			{
				"type": "occ",
				"energy": -0.25558,
				"method": "rhf"
			},
			{
				"type": "occ",
				"energy": -0.2538,
				"method": "rhf"
			},
			{
				"type": "unocc",
				"energy": -0.04403,
				"method": "rhf"
			},
			{
				"type": "unocc",
				"energy": -0.0186,
				"method": "rhf"
			},
			{
				"type": "unocc",
				"energy": 0.06088,
				"method": "rhf"
			},
			{
				"type": "unocc",
				"energy": 0.06625,
				"method": "rhf"
			},
			{
				"type": "unocc",
				"energy": 0.0885,
				"method": "rhf"
			}
		],
		"cosmo_sigma_profile": { 
			"-0.025": 0.0,
			"-0.024": 0.0,
			"-0.023": 0.0,
			"-0.022": 0.0,
			"-0.021": 0.0,
			"-0.02": 0.0,
			"-0.019": 0.0,
			"-0.018": 0.0,
			"-0.017": 0.0,
			"-0.016": 0.0,
			"-0.015": 0.0,
			"-0.014": 0.00754544538351,
			"-0.013": 1.11949103259,
			"-0.012": 1.66752998793,
			"-0.011": 1.22602788282,
			"-0.01": 1.78525458278,
			"-0.009": 1.30208948194,
			"-0.008": 2.07485038414,
			"-0.007": 4.91430955353,
			"-0.006": 8.95924376667,
			"-0.005": 15.3484612335,
			"-0.004": 18.0576299328,
			"-0.003": 15.9923545957,
			"-0.002": 19.190995195,
			"-0.001": 12.5791436634,
			"0.0": 9.54297699991,
			"0.001": 9.40256289621,
			"0.002": 9.80576647706,
			"0.003": 11.7984302932,
			"0.004": 10.6183620726,
			"0.005": 2.00888969697,
			"0.006": 2.4183075562,
			"0.007": 2.12839897536,
			"0.008": 2.28107502654,
			"0.009": 2.78574960761,
			"0.01": 2.82460588179,
			"0.011": 4.51038712936,
			"0.012": 7.01510440183,
			"0.013": 4.22333031314,
			"0.014": 1.51150393543,
			"0.015": 0.0461116687348,
			"0.016": 0.0,
			"0.017": 0.0,
			"0.018": 0.0,
			"0.019": 0.0,
			"0.02": 0.0,
			"0.021": 0.0,
			"0.022": 0.0,
			"0.023": 0.0,
			"0.024": 0.0,
			"0.025": 0.0
		}
	}
}
