{
	 "smiles": "CC(=O)N1CCC2=C1C=CC(NC(=O)CCl)=C2", 
	 "Tm": 507.15, 
	 "num_atms": 30, 
	 "gaussian": { 
		 "optdone": 1, 
		 "sigma_profile": "yes", 
		 "theory": "DFT", 
		 "functional": "B3LYP", 
		 "basiset": "6-31G**", 
		 "properties": { 
			 "R2extent": 7038.2853, 
			 "electric_dipole_moment_norm": 3.83099038631, 
			 "electric_quadrupole_moment_norm": 41.9556559667, 
			 "total_energy": -1185.28149051, 
			 "HOMO_LUMO_gap": 0.18981, 
			 "cosmo_polarized_energy": -21.28, 
			 "cosmo_cavitation_energy": 35.37, 
			 "cosmo_dispersion_energy": -25.46, 
			 "cosmo_repulsion_energy": 2.0, 
			 "cosmo_total_nonelectrostatic_energy": 11.91, 
			 "SMD_solvation_energy": 6.54 
		},
		"coords": [
			{
				"x": 2.468434271,
				"y": 2.9087896984,
				"z": -1.3134983008,
				"element": "C" 
			},
			{
				"x": 3.0818486606,
				"y": 1.8745329548,
				"z": -0.3908246426,
				"element": "C" 
			},
			{
				"x": 4.0821818569,
				"y": 2.1215036929,
				"z": 0.2714414426,
				"element": "O" 
			},
			{
				"x": 2.507988544,
				"y": 0.6156252217,
				"z": -0.3094840292,
				"element": "N" 
			},
			{
				"x": 3.1792864057,
				"y": -0.3877455482,
				"z": 0.5525069265,
				"element": "C" 
			},
			{
				"x": 2.5389618504,
				"y": -1.7346597204,
				"z": 0.1565983917,
				"element": "C" 
			},
			{
				"x": 1.2973000716,
				"y": -1.3198523438,
				"z": -0.5984218619,
				"element": "C" 
			},
			{
				"x": 1.3413451555,
				"y": 0.0613384356,
				"z": -0.8734701154,
				"element": "C" 
			},
			{
				"x": 0.2999194425,
				"y": 0.6625226598,
				"z": -1.5889188142,
				"element": "C" 
			},
			{
				"x": -0.7676545087,
				"y": -0.1313644216,
				"z": -2.0184356058,
				"element": "C" 
			},
			{
				"x": -0.8118633462,
				"y": -1.5032704433,
				"z": -1.7540883398,
				"element": "C" 
			},
			{
				"x": -1.9044584459,
				"y": -2.2915918635,
				"z": -2.2304412838,
				"element": "N" 
			},
			{
				"x": -2.9479327427,
				"y": -2.8311853143,
				"z": -1.5077472495,
				"element": "C" 
			},
			{
				"x": -3.8314691145,
				"y": -3.4720987268,
				"z": -2.0429663542,
				"element": "O" 
			},
			{
				"x": -2.8846899103,
				"y": -2.5471092135,
				"z": 0.0006271411,
				"element": "C" 
			},
			{
				"x": -4.3693178353,
				"y": -3.0692086537,
				"z": 0.8519898925,
				"element": "Cl" 
			},
			{
				"x": 0.2426708067,
				"y": -2.1002534379,
				"z": -1.0432940872,
				"element": "C" 
			},
			{
				"x": 2.284147543,
				"y": 2.5123917118,
				"z": -2.3159593111,
				"element": "H" 
			},
			{
				"x": 3.1693689316,
				"y": 3.7411570292,
				"z": -1.3727940705,
				"element": "H" 
			},
			{
				"x": 1.5201954863,
				"y": 3.2814312101,
				"z": -0.9117378515,
				"element": "H" 
			},
			{
				"x": 2.997732269,
				"y": -0.1379170855,
				"z": 1.6036539001,
				"element": "H" 
			},
			{
				"x": 4.255700908,
				"y": -0.3411963589,
				"z": 0.3875162394,
				"element": "H" 
			},
			{
				"x": 2.3172286536,
				"y": -2.3540403225,
				"z": 1.0304393298,
				"element": "H" 
			},
			{
				"x": 3.2066584323,
				"y": -2.3172374339,
				"z": -0.490306395,
				"element": "H" 
			},
			{
				"x": 0.2833232894,
				"y": 1.7211552313,
				"z": -1.8030794946,
				"element": "H" 
			},
			{
				"x": -1.5891089186,
				"y": 0.3265838597,
				"z": -2.5611460076,
				"element": "H" 
			},
			{
				"x": -1.9975874039,
				"y": -2.4433152407,
				"z": -3.2277996234,
				"element": "H" 
			},
			{
				"x": -2.0428861951,
				"y": -3.075740001,
				"z": 0.4515109247,
				"element": "H" 
			},
			{
				"x": -2.7471071489,
				"y": -1.479683349,
				"z": 0.1827069816,
				"element": "H" 
			},
			{
				"x": 0.2276829919,
				"y": -3.1709622268,
				"z": -0.8593777318,
				"element": "H" 
			}
		],
		 "valence_orbital": [ 
			{
				"type": "occ",
				"energy": -0.27574,
				"method": "rhf"
			},
			{
				"type": "occ",
				"energy": -0.26935,
				"method": "rhf"
			},
			{
				"type": "occ",
				"energy": -0.26413,
				"method": "rhf"
			},
			{
				"type": "occ",
				"energy": -0.26269,
				"method": "rhf"
			},
			{
				"type": "occ",
				"energy": -0.22522,
				"method": "rhf"
			},
			{
				"type": "unocc",
				"energy": -0.03541,
				"method": "rhf"
			},
			{
				"type": "unocc",
				"energy": -0.03194,
				"method": "rhf"
			},
			{
				"type": "unocc",
				"energy": 0.01317,
				"method": "rhf"
			},
			{
				"type": "unocc",
				"energy": 0.02686,
				"method": "rhf"
			},
			{
				"type": "unocc",
				"energy": 0.03138,
				"method": "rhf"
			}
		],
		"cosmo_sigma_profile": { 
			"-0.025": 0.0,
			"-0.024": 0.0,
			"-0.023": 0.0,
			"-0.022": 0.0,
			"-0.021": 0.0,
			"-0.02": 0.0,
			"-0.019": 0.0,
			"-0.018": 0.0,
			"-0.017": 0.0,
			"-0.016": 0.0,
			"-0.015": 0.175129708076,
			"-0.014": 1.11721026886,
			"-0.013": 0.877365935132,
			"-0.012": 0.70275689203,
			"-0.011": 1.03038764928,
			"-0.01": 1.13716001077,
			"-0.009": 2.13546126836,
			"-0.008": 5.93944873764,
			"-0.007": 10.3361664985,
			"-0.006": 15.3001699073,
			"-0.005": 25.3084848151,
			"-0.004": 28.0777503784,
			"-0.003": 23.5081776526,
			"-0.002": 24.3025606263,
			"-0.001": 19.7988094538,
			"0.0": 15.3523266395,
			"0.001": 12.4068005513,
			"0.002": 11.903008399,
			"0.003": 13.3339052248,
			"0.004": 12.0896320012,
			"0.005": 7.80478143848,
			"0.006": 10.1377566984,
			"0.007": 4.72969538892,
			"0.008": 2.57576944573,
			"0.009": 3.46159482299,
			"0.01": 3.43628491765,
			"0.011": 4.02218752927,
			"0.012": 5.82453199919,
			"0.013": 10.4219601777,
			"0.014": 4.94596732785,
			"0.015": 0.501102143909,
			"0.016": 0.0,
			"0.017": 0.0,
			"0.018": 0.0,
			"0.019": 0.0,
			"0.02": 0.0,
			"0.021": 0.0,
			"0.022": 0.0,
			"0.023": 0.0,
			"0.024": 0.0,
			"0.025": 0.0
		}
	}
}
