{
	 "smiles": "CN(C)C(=O)N(C(=O)C1=CC=CC=C1)C1=CC(Cl)=C(Cl)C=C1", 
	 "Tm": 392.15, 
	 "num_atms": 36, 
	 "gaussian": { 
		 "optdone": 1, 
		 "sigma_profile": "yes", 
		 "theory": "DFT", 
		 "functional": "B3LYP", 
		 "basiset": "6-31G**", 
		 "properties": { 
			 "R2extent": 10646.3141, 
			 "electric_dipole_moment_norm": 5.95857279137, 
			 "electric_quadrupole_moment_norm": 11.9860626438, 
			 "total_energy": -1798.48820969, 
			 "HOMO_LUMO_gap": 0.17542, 
			 "cosmo_polarized_energy": -15.47, 
			 "cosmo_cavitation_energy": 43.4, 
			 "cosmo_dispersion_energy": -29.31, 
			 "cosmo_repulsion_energy": 2.25, 
			 "cosmo_total_nonelectrostatic_energy": 16.35, 
			 "SMD_solvation_energy": 8.18 
		},
		"coords": [
			{
				"x": -2.5236638776,
				"y": 0.4825229215,
				"z": -1.2933450815,
				"element": "C" 
			},
			{
				"x": -1.4525037682,
				"y": 0.2227443797,
				"z": -0.3371940747,
				"element": "N" 
			},
			{
				"x": -1.5243080553,
				"y": -1.0524781854,
				"z": 0.3662548435,
				"element": "C" 
			},
			{
				"x": -0.4624718167,
				"y": 1.1536465751,
				"z": -0.2065773543,
				"element": "C" 
			},
			{
				"x": -0.4976284395,
				"y": 2.2699348097,
				"z": -0.69952271,
				"element": "O" 
			},
			{
				"x": 0.6629755129,
				"y": 0.7408734754,
				"z": 0.6138597175,
				"element": "N" 
			},
			{
				"x": 1.4954397868,
				"y": -0.3452088222,
				"z": 0.2877755185,
				"element": "C" 
			},
			{
				"x": 2.2355160861,
				"y": -0.8469346753,
				"z": 1.1213391725,
				"element": "O" 
			},
			{
				"x": 1.471452264,
				"y": -0.8542251641,
				"z": -1.1231938393,
				"element": "C" 
			},
			{
				"x": 1.7208318483,
				"y": -2.2231036826,
				"z": -1.3094577583,
				"element": "C" 
			},
			{
				"x": 1.7878623412,
				"y": -2.7572838161,
				"z": -2.5934024592,
				"element": "C" 
			},
			{
				"x": 1.6365311743,
				"y": -1.923785285,
				"z": -3.705358422,
				"element": "C" 
			},
			{
				"x": 1.419230094,
				"y": -0.5565163448,
				"z": -3.5270397279,
				"element": "C" 
			},
			{
				"x": 1.3331098425,
				"y": -0.0183899866,
				"z": -2.2422076464,
				"element": "C" 
			},
			{
				"x": 0.9059120345,
				"y": 1.519232597,
				"z": 1.7879849137,
				"element": "C" 
			},
			{
				"x": -0.1831614749,
				"y": 2.0013687484,
				"z": 2.5184336915,
				"element": "C" 
			},
			{
				"x": 0.0151710724,
				"y": 2.7920492199,
				"z": 3.6504234836,
				"element": "C" 
			},
			{
				"x": -1.3888456652,
				"y": 3.3724294283,
				"z": 4.5140376424,
				"element": "Cl" 
			},
			{
				"x": 1.3134093953,
				"y": 3.0926115207,
				"z": 4.0762136613,
				"element": "C" 
			},
			{
				"x": 1.6144680132,
				"y": 4.0691448576,
				"z": 5.4917108789,
				"element": "Cl" 
			},
			{
				"x": 2.3989502982,
				"y": 2.598480293,
				"z": 3.3478135208,
				"element": "C" 
			},
			{
				"x": 2.2055946278,
				"y": 1.8244104794,
				"z": 2.2107748729,
				"element": "C" 
			},
			{
				"x": -3.49390569,
				"y": 0.491425209,
				"z": -0.783717215,
				"element": "H" 
			},
			{
				"x": -2.5402349869,
				"y": -0.2992955128,
				"z": -2.0622762707,
				"element": "H" 
			},
			{
				"x": -2.3520032771,
				"y": 1.4517413609,
				"z": -1.7569432017,
				"element": "H" 
			},
			{
				"x": -0.873360387,
				"y": -1.0523829341,
				"z": 1.2390031906,
				"element": "H" 
			},
			{
				"x": -2.5535987535,
				"y": -1.2110535856,
				"z": 0.7047749741,
				"element": "H" 
			},
			{
				"x": -1.2428538337,
				"y": -1.8870135347,
				"z": -0.2877823156,
				"element": "H" 
			},
			{
				"x": 1.8694383873,
				"y": -2.8487125168,
				"z": -0.435565929,
				"element": "H" 
			},
			{
				"x": 1.9685579479,
				"y": -3.8195655752,
				"z": -2.7287384056,
				"element": "H" 
			},
			{
				"x": 1.6980079262,
				"y": -2.3380785809,
				"z": -4.7076191372,
				"element": "H" 
			},
			{
				"x": 1.322835755,
				"y": 0.0969578483,
				"z": -4.3889973876,
				"element": "H" 
			},
			{
				"x": 1.1762043109,
				"y": 1.0472247482,
				"z": -2.1150114786,
				"element": "H" 
			},
			{
				"x": -1.1980190741,
				"y": 1.7772734541,
				"z": 2.2116154267,
				"element": "H" 
			},
			{
				"x": 3.4037795948,
				"y": 2.8360055675,
				"z": 3.6785539885,
				"element": "H" 
			},
			{
				"x": 3.0605807861,
				"y": 1.4490507086,
				"z": 1.6646809177,
				"element": "H" 
			}
		],
		 "valence_orbital": [ 
			{
				"type": "occ",
				"energy": -0.26958,
				"method": "rhf"
			},
			{
				"type": "occ",
				"energy": -0.2616,
				"method": "rhf"
			},
			{
				"type": "occ",
				"energy": -0.25998,
				"method": "rhf"
			},
			{
				"type": "occ",
				"energy": -0.25462,
				"method": "rhf"
			},
			{
				"type": "occ",
				"energy": -0.23148,
				"method": "rhf"
			},
			{
				"type": "unocc",
				"energy": -0.05606,
				"method": "rhf"
			},
			{
				"type": "unocc",
				"energy": -0.02387,
				"method": "rhf"
			},
			{
				"type": "unocc",
				"energy": -0.02155,
				"method": "rhf"
			},
			{
				"type": "unocc",
				"energy": -0.01651,
				"method": "rhf"
			},
			{
				"type": "unocc",
				"energy": 0.00151,
				"method": "rhf"
			}
		],
		"cosmo_sigma_profile": { 
			"-0.025": 0.0,
			"-0.024": 0.0,
			"-0.023": 0.0,
			"-0.022": 0.0,
			"-0.021": 0.0,
			"-0.02": 0.0,
			"-0.019": 0.0,
			"-0.018": 0.0,
			"-0.017": 0.0,
			"-0.016": 0.0,
			"-0.015": 0.0,
			"-0.014": 0.0,
			"-0.013": 0.0,
			"-0.012": 0.0,
			"-0.011": 0.0,
			"-0.01": 0.0,
			"-0.009": 0.164192043413,
			"-0.008": 2.55123259775,
			"-0.007": 7.59791017906,
			"-0.006": 21.8793996642,
			"-0.005": 27.6950380028,
			"-0.004": 30.9533130048,
			"-0.003": 31.6609587459,
			"-0.002": 26.7046377676,
			"-0.001": 21.1356560782,
			"0.0": 28.1598071492,
			"0.001": 29.800636002,
			"0.002": 25.9484430762,
			"0.003": 28.5882337527,
			"0.004": 27.5470045694,
			"0.005": 8.82123799419,
			"0.006": 3.67228032262,
			"0.007": 3.29909568193,
			"0.008": 3.59682545933,
			"0.009": 3.11362545128,
			"0.01": 3.18235406705,
			"0.011": 4.36291056918,
			"0.012": 7.90256452721,
			"0.013": 2.96321369985,
			"0.014": 0.154420906034,
			"0.015": 0.0,
			"0.016": 0.0,
			"0.017": 0.0,
			"0.018": 0.0,
			"0.019": 0.0,
			"0.02": 0.0,
			"0.021": 0.0,
			"0.022": 0.0,
			"0.023": 0.0,
			"0.024": 0.0,
			"0.025": 0.0
		}
	}
}
