{
	 "smiles": "COC(=O)C1=CC(=C(Cl)C=C1)S(Cl)(=O)=O", 
	 "Tm": 377.15, 
	 "num_atms": 21, 
	 "gaussian": { 
		 "optdone": 1, 
		 "sigma_profile": "yes", 
		 "theory": "DFT", 
		 "functional": "B3LYP", 
		 "basiset": "6-31G**", 
		 "properties": { 
			 "R2extent": 6682.0294, 
			 "electric_dipole_moment_norm": 4.02400796346, 
			 "electric_quadrupole_moment_norm": 19.5973577421, 
			 "total_energy": -1927.8651774, 
			 "HOMO_LUMO_gap": 0.18708, 
			 "cosmo_polarized_energy": -11.16, 
			 "cosmo_cavitation_energy": 31.34, 
			 "cosmo_dispersion_energy": -23.27, 
			 "cosmo_repulsion_energy": 1.78, 
			 "cosmo_total_nonelectrostatic_energy": 9.85, 
			 "SMD_solvation_energy": 5.54 
		},
		"coords": [
			{
				"x": -1.1287819608,
				"y": -3.4579914139,
				"z": 0.3268896944,
				"element": "C" 
			},
			{
				"x": -0.3443615761,
				"y": -2.2796949767,
				"z": 0.0657825173,
				"element": "O" 
			},
			{
				"x": 0.1128755393,
				"y": -1.6358763096,
				"z": 1.1555945926,
				"element": "C" 
			},
			{
				"x": -0.1005703149,
				"y": -1.9934477027,
				"z": 2.296525798,
				"element": "O" 
			},
			{
				"x": 0.9162982401,
				"y": -0.4265471706,
				"z": 0.8027180665,
				"element": "C" 
			},
			{
				"x": 1.1461524242,
				"y": -0.0440075854,
				"z": -0.5207273862,
				"element": "C" 
			},
			{
				"x": 1.9015493291,
				"y": 1.0977552991,
				"z": -0.7929893937,
				"element": "C" 
			},
			{
				"x": 2.4425398036,
				"y": 1.86487922,
				"z": 0.2534848407,
				"element": "C" 
			},
			{
				"x": 3.4151411864,
				"y": 3.279348813,
				"z": -0.0170919142,
				"element": "Cl" 
			},
			{
				"x": 2.2078824029,
				"y": 1.4721140522,
				"z": 1.5743786256,
				"element": "C" 
			},
			{
				"x": 1.4503537499,
				"y": 0.3385197279,
				"z": 1.8454750353,
				"element": "C" 
			},
			{
				"x": 2.0704242318,
				"y": 1.5168397314,
				"z": -2.53781657,
				"element": "S" 
			},
			{
				"x": 4.1265779916,
				"y": 1.1125146734,
				"z": -2.8713780086,
				"element": "Cl" 
			},
			{
				"x": 1.3342632864,
				"y": 0.5237068777,
				"z": -3.3094714982,
				"element": "O" 
			},
			{
				"x": 1.8723975559,
				"y": 2.9431101108,
				"z": -2.7434495729,
				"element": "O" 
			},
			{
				"x": -1.4111305021,
				"y": -3.843286197,
				"z": -0.6520395169,
				"element": "H" 
			},
			{
				"x": -2.0149735343,
				"y": -3.2031915741,
				"z": 0.9126747263,
				"element": "H" 
			},
			{
				"x": -0.5381543001,
				"y": -4.1943158294,
				"z": 0.8768022495,
				"element": "H" 
			},
			{
				"x": 0.741359275,
				"y": -0.6243360219,
				"z": -1.3398751897,
				"element": "H" 
			},
			{
				"x": 2.6267611419,
				"y": 2.0649487875,
				"z": 2.3795449047,
				"element": "H" 
			},
			{
				"x": 1.2632960304,
				"y": 0.0273574883,
				"z": 2.8675679996,
				"element": "H" 
			}
		],
		 "valence_orbital": [ 
			{
				"type": "occ",
				"energy": -0.32339,
				"method": "rhf"
			},
			{
				"type": "occ",
				"energy": -0.31878,
				"method": "rhf"
			},
			{
				"type": "occ",
				"energy": -0.30372,
				"method": "rhf"
			},
			{
				"type": "occ",
				"energy": -0.29782,
				"method": "rhf"
			},
			{
				"type": "occ",
				"energy": -0.28414,
				"method": "rhf"
			},
			{
				"type": "unocc",
				"energy": -0.09706,
				"method": "rhf"
			},
			{
				"type": "unocc",
				"energy": -0.07851,
				"method": "rhf"
			},
			{
				"type": "unocc",
				"energy": -0.05668,
				"method": "rhf"
			},
			{
				"type": "unocc",
				"energy": -0.00107,
				"method": "rhf"
			},
			{
				"type": "unocc",
				"energy": 0.01454,
				"method": "rhf"
			}
		],
		"cosmo_sigma_profile": { 
			"-0.025": 0.0,
			"-0.024": 0.0,
			"-0.023": 0.0,
			"-0.022": 0.0,
			"-0.021": 0.0,
			"-0.02": 0.0,
			"-0.019": 0.0,
			"-0.018": 0.0,
			"-0.017": 0.0,
			"-0.016": 0.0,
			"-0.015": 0.0,
			"-0.014": 0.0,
			"-0.013": 0.0,
			"-0.012": 0.0,
			"-0.011": 0.0,
			"-0.01": 0.272444221571,
			"-0.009": 2.77812845918,
			"-0.008": 3.74257190163,
			"-0.007": 5.98272376582,
			"-0.006": 10.5656839937,
			"-0.005": 14.5474065022,
			"-0.004": 21.0894030047,
			"-0.003": 23.0679924636,
			"-0.002": 30.3276741765,
			"-0.001": 21.0931304428,
			"0.0": 16.2474291004,
			"0.001": 15.2205851657,
			"0.002": 22.8071482522,
			"0.003": 18.6087956581,
			"0.004": 8.56425545581,
			"0.005": 5.63553631969,
			"0.006": 5.44690879191,
			"0.007": 9.37622679039,
			"0.008": 10.4458977972,
			"0.009": 3.68097842443,
			"0.01": 2.20253808209,
			"0.011": 4.15944652178,
			"0.012": 0.857085542587,
			"0.013": 0.0,
			"0.014": 0.0,
			"0.015": 0.0,
			"0.016": 0.0,
			"0.017": 0.0,
			"0.018": 0.0,
			"0.019": 0.0,
			"0.02": 0.0,
			"0.021": 0.0,
			"0.022": 0.0,
			"0.023": 0.0,
			"0.024": 0.0,
			"0.025": 0.0
		}
	}
}
