{
	 "smiles": "COC1=C(OCC2=CC=CC=C2)C=CC(=C1)C(C)=NO", 
	 "Tm": 391.15, 
	 "num_atms": 37, 
	 "gaussian": { 
		 "optdone": 1, 
		 "sigma_profile": "yes", 
		 "theory": "DFT", 
		 "functional": "B3LYP", 
		 "basiset": "6-31G**", 
		 "properties": { 
			 "R2extent": 7677.3678, 
			 "electric_dipole_moment_norm": 0.399734236712, 
			 "electric_quadrupole_moment_norm": 10.7168866808, 
			 "total_energy": -900.293038933, 
			 "HOMO_LUMO_gap": 0.16907, 
			 "cosmo_polarized_energy": -14.85, 
			 "cosmo_cavitation_energy": 40.85, 
			 "cosmo_dispersion_energy": -28.8, 
			 "cosmo_repulsion_energy": 2.25, 
			 "cosmo_total_nonelectrostatic_energy": 14.3, 
			 "SMD_solvation_energy": 8.1 
		},
		"coords": [
			{
				"x": 3.3110212379,
				"y": -1.9980635849,
				"z": 1.1199002698,
				"element": "C" 
			},
			{
				"x": 2.6271747603,
				"y": -0.821342433,
				"z": 0.7292710806,
				"element": "O" 
			},
			{
				"x": 1.318629116,
				"y": -0.9326338932,
				"z": 0.356298666,
				"element": "C" 
			},
			{
				"x": 0.6914306493,
				"y": 0.2749162256,
				"z": -0.0333029584,
				"element": "C" 
			},
			{
				"x": 1.4844349099,
				"y": 1.3867146243,
				"z": 0.0042580035,
				"element": "O" 
			},
			{
				"x": 0.9747716063,
				"y": 2.6167586884,
				"z": -0.5018031227,
				"element": "C" 
			},
			{
				"x": 0.0451517604,
				"y": 3.3440320478,
				"z": 0.4516866329,
				"element": "C" 
			},
			{
				"x": 0.1973674242,
				"y": 3.2142416502,
				"z": 1.8368735029,
				"element": "C" 
			},
			{
				"x": -0.6268290211,
				"y": 3.9292625416,
				"z": 2.7060895871,
				"element": "C" 
			},
			{
				"x": -1.6062894627,
				"y": 4.7877405437,
				"z": 2.2015868603,
				"element": "C" 
			},
			{
				"x": -1.7614002369,
				"y": 4.9234163452,
				"z": 0.8210645067,
				"element": "C" 
			},
			{
				"x": -0.9419766031,
				"y": 4.2011681496,
				"z": -0.0482114064,
				"element": "C" 
			},
			{
				"x": -0.6490977025,
				"y": 0.2477010772,
				"z": -0.419760723,
				"element": "C" 
			},
			{
				"x": -1.362391929,
				"y": -0.9504744171,
				"z": -0.438428007,
				"element": "C" 
			},
			{
				"x": -0.7548622202,
				"y": -2.1543367021,
				"z": -0.0650495631,
				"element": "C" 
			},
			{
				"x": 0.5963495863,
				"y": -2.1232559782,
				"z": 0.3353750368,
				"element": "C" 
			},
			{
				"x": -1.5051368625,
				"y": -3.4361003085,
				"z": -0.0837724717,
				"element": "C" 
			},
			{
				"x": -0.8468530694,
				"y": -4.6998242113,
				"z": 0.4116324061,
				"element": "C" 
			},
			{
				"x": -2.7102740367,
				"y": -3.3848469434,
				"z": -0.5384926714,
				"element": "N" 
			},
			{
				"x": -3.357926181,
				"y": -4.6319637097,
				"z": -0.5234024867,
				"element": "O" 
			},
			{
				"x": 4.3261461093,
				"y": -1.6863068408,
				"z": 1.371330502,
				"element": "H" 
			},
			{
				"x": 2.8497782547,
				"y": -2.4652092054,
				"z": 2.0004729296,
				"element": "H" 
			},
			{
				"x": 3.3521723027,
				"y": -2.7350617502,
				"z": 0.3065937044,
				"element": "H" 
			},
			{
				"x": 1.8725464326,
				"y": 3.2197896784,
				"z": -0.6781257682,
				"element": "H" 
			},
			{
				"x": 0.4884744448,
				"y": 2.4623736724,
				"z": -1.474300203,
				"element": "H" 
			},
			{
				"x": 0.9576239554,
				"y": 2.5433050592,
				"z": 2.2245017878,
				"element": "H" 
			},
			{
				"x": -0.5039965781,
				"y": 3.8162236221,
				"z": 3.7796271033,
				"element": "H" 
			},
			{
				"x": -2.2470821911,
				"y": 5.3438084813,
				"z": 2.8798427835,
				"element": "H" 
			},
			{
				"x": -2.5250198199,
				"y": 5.5838971362,
				"z": 0.4199550667,
				"element": "H" 
			},
			{
				"x": -1.0724991438,
				"y": 4.3041444701,
				"z": -1.1234880528,
				"element": "H" 
			},
			{
				"x": -1.1545149821,
				"y": 1.1675874284,
				"z": -0.6871838186,
				"element": "H" 
			},
			{
				"x": -2.4034143173,
				"y": -0.9544124594,
				"z": -0.7377861606,
				"element": "H" 
			},
			{
				"x": 1.0891075976,
				"y": -3.0406265127,
				"z": 0.6278017868,
				"element": "H" 
			},
			{
				"x": -0.4799641699,
				"y": -4.5666406382,
				"z": 1.4347679051,
				"element": "H" 
			},
			{
				"x": 0.0146088492,
				"y": -4.9568179137,
				"z": -0.2151393504,
				"element": "H" 
			},
			{
				"x": -1.5478625235,
				"y": -5.5316941783,
				"z": 0.3942257349,
				"element": "H" 
			},
			{
				"x": -4.2253979462,
				"y": -4.4053697614,
				"z": -0.882309093,
				"element": "H" 
			}
		],
		 "valence_orbital": [ 
			{
				"type": "occ",
				"energy": -0.25631,
				"method": "rhf"
			},
			{
				"type": "occ",
				"energy": -0.25024,
				"method": "rhf"
			},
			{
				"type": "occ",
				"energy": -0.24456,
				"method": "rhf"
			},
			{
				"type": "occ",
				"energy": -0.22961,
				"method": "rhf"
			},
			{
				"type": "occ",
				"energy": -0.19185,
				"method": "rhf"
			},
			{
				"type": "unocc",
				"energy": -0.02278,
				"method": "rhf"
			},
			{
				"type": "unocc",
				"energy": -0.00461,
				"method": "rhf"
			},
			{
				"type": "unocc",
				"energy": -0.00256,
				"method": "rhf"
			},
			{
				"type": "unocc",
				"energy": 0.01533,
				"method": "rhf"
			},
			{
				"type": "unocc",
				"energy": 0.06444,
				"method": "rhf"
			}
		],
		"cosmo_sigma_profile": { 
			"-0.025": 0.0,
			"-0.024": 0.0,
			"-0.023": 0.0,
			"-0.022": 0.0,
			"-0.021": 0.0,
			"-0.02": 0.0,
			"-0.019": 0.0,
			"-0.018": 0.0360296962464,
			"-0.017": 0.699928202639,
			"-0.016": 0.801959836108,
			"-0.015": 1.05294407509,
			"-0.014": 1.16684086772,
			"-0.013": 0.405501349983,
			"-0.012": 0.293807810712,
			"-0.011": 0.407510778955,
			"-0.01": 0.787713227258,
			"-0.009": 1.07109924927,
			"-0.008": 0.640911893119,
			"-0.007": 2.56671788479,
			"-0.006": 18.2089565087,
			"-0.005": 31.8147547841,
			"-0.004": 31.2257945364,
			"-0.003": 30.6327478277,
			"-0.002": 21.2968348051,
			"-0.001": 18.9645151643,
			"0.0": 18.8590990835,
			"0.001": 17.2034177437,
			"0.002": 18.4261201789,
			"0.003": 20.6306111097,
			"0.004": 22.744808778,
			"0.005": 23.1766972321,
			"0.006": 15.5201469189,
			"0.007": 5.61247574449,
			"0.008": 4.66564438495,
			"0.009": 5.97760797679,
			"0.01": 3.8447418346,
			"0.011": 1.81357826956,
			"0.012": 1.20403807302,
			"0.013": 1.47807434147,
			"0.014": 1.20176374999,
			"0.015": 0.129675169426,
			"0.016": 0.0,
			"0.017": 0.0,
			"0.018": 0.0,
			"0.019": 0.0,
			"0.02": 0.0,
			"0.021": 0.0,
			"0.022": 0.0,
			"0.023": 0.0,
			"0.024": 0.0,
			"0.025": 0.0
		}
	}
}
