{
	 "smiles": "CC(C)OC(=O)C1(CCCC1)S(=O)(=O)C1=CC=C(Cl)C=C1", 
	 "Tm": 365.65, 
	 "num_atms": 40, 
	 "gaussian": { 
		 "optdone": 1, 
		 "sigma_profile": "yes", 
		 "theory": "DFT", 
		 "functional": "B3LYP", 
		 "basiset": "6-31G**", 
		 "properties": { 
			 "R2extent": 7765.0178, 
			 "electric_dipole_moment_norm": 4.83911457397, 
			 "electric_quadrupole_moment_norm": 13.97573606, 
			 "total_energy": -1742.28206359, 
			 "HOMO_LUMO_gap": 0.21698, 
			 "cosmo_polarized_energy": -16.15, 
			 "cosmo_cavitation_energy": 44.58, 
			 "cosmo_dispersion_energy": -29.21, 
			 "cosmo_repulsion_energy": 2.2, 
			 "cosmo_total_nonelectrostatic_energy": 17.57, 
			 "SMD_solvation_energy": 6.54 
		},
		"coords": [
			{
				"x": -2.7469606079,
				"y": 0.1515792345,
				"z": 0.2923371006,
				"element": "C" 
			},
			{
				"x": -1.7799428634,
				"y": -0.4765741655,
				"z": 1.284699631,
				"element": "C" 
			},
			{
				"x": -2.2765426949,
				"y": -1.7898203851,
				"z": 1.8789388115,
				"element": "C" 
			},
			{
				"x": -0.5445062024,
				"y": -0.7180078813,
				"z": 0.5367422993,
				"element": "O" 
			},
			{
				"x": 0.6017022398,
				"y": -0.7707213048,
				"z": 1.2376586951,
				"element": "C" 
			},
			{
				"x": 0.6789085511,
				"y": -0.6415795103,
				"z": 2.4423233003,
				"element": "O" 
			},
			{
				"x": 1.8110195533,
				"y": -1.0021845122,
				"z": 0.3356367998,
				"element": "C" 
			},
			{
				"x": 2.8411930062,
				"y": -1.9520072051,
				"z": 0.9867242809,
				"element": "C" 
			},
			{
				"x": 3.7278671772,
				"y": -2.4163091002,
				"z": -0.1805476842,
				"element": "C" 
			},
			{
				"x": 2.80201529,
				"y": -2.436803669,
				"z": -1.4263691739,
				"element": "C" 
			},
			{
				"x": 1.5297892227,
				"y": -1.6297075226,
				"z": -1.0474664286,
				"element": "C" 
			},
			{
				"x": 2.6779061352,
				"y": 0.6758723636,
				"z": 0.1144801375,
				"element": "S" 
			},
			{
				"x": 3.4739076368,
				"y": 0.933629256,
				"z": 1.3249858148,
				"element": "O" 
			},
			{
				"x": 3.3126495916,
				"y": 0.6629930129,
				"z": -1.2171995199,
				"element": "O" 
			},
			{
				"x": 1.3754869633,
				"y": 1.9213203058,
				"z": 0.0629851476,
				"element": "C" 
			},
			{
				"x": 0.8621903698,
				"y": 2.3222891079,
				"z": -1.1713092893,
				"element": "C" 
			},
			{
				"x": -0.118723893,
				"y": 3.3121057187,
				"z": -1.2159042325,
				"element": "C" 
			},
			{
				"x": -0.5614561696,
				"y": 3.8837665373,
				"z": -0.0211101803,
				"element": "C" 
			},
			{
				"x": -1.7934897802,
				"y": 5.1300972717,
				"z": -0.0741873522,
				"element": "Cl" 
			},
			{
				"x": -0.0387452369,
				"y": 3.4942145459,
				"z": 1.2143879422,
				"element": "C" 
			},
			{
				"x": 0.9429237719,
				"y": 2.5055859583,
				"z": 1.2559950678,
				"element": "C" 
			},
			{
				"x": -3.6892639662,
				"y": 0.3934249832,
				"z": 0.7933018275,
				"element": "H" 
			},
			{
				"x": -2.3322177713,
				"y": 1.0723518399,
				"z": -0.125879286,
				"element": "H" 
			},
			{
				"x": -2.9624044907,
				"y": -0.5376777806,
				"z": -0.530311686,
				"element": "H" 
			},
			{
				"x": -1.5358579339,
				"y": 0.224173401,
				"z": 2.0880897395,
				"element": "H" 
			},
			{
				"x": -2.4641637682,
				"y": -2.5239849984,
				"z": 1.0886647656,
				"element": "H" 
			},
			{
				"x": -3.2128510105,
				"y": -1.6229285945,
				"z": 2.4209959449,
				"element": "H" 
			},
			{
				"x": -1.5451663777,
				"y": -2.1976466251,
				"z": 2.5802048754,
				"element": "H" 
			},
			{
				"x": 3.3827488862,
				"y": -1.4739947054,
				"z": 1.8041401783,
				"element": "H" 
			},
			{
				"x": 2.2793636494,
				"y": -2.792592829,
				"z": 1.4111271339,
				"element": "H" 
			},
			{
				"x": 4.1826040425,
				"y": -3.3902997674,
				"z": 0.0218810159,
				"element": "H" 
			},
			{
				"x": 4.5437667312,
				"y": -1.7039680208,
				"z": -0.33220104,
				"element": "H" 
			},
			{
				"x": 3.3036220137,
				"y": -1.9933298464,
				"z": -2.2886381014,
				"element": "H" 
			},
			{
				"x": 2.5267818939,
				"y": -3.4603781839,
				"z": -1.6994246874,
				"element": "H" 
			},
			{
				"x": 0.6650105495,
				"y": -2.2896343572,
				"z": -0.9382710791,
				"element": "H" 
			},
			{
				"x": 1.2609312159,
				"y": -0.8849080798,
				"z": -1.7986591222,
				"element": "H" 
			},
			{
				"x": 1.2466147656,
				"y": 1.8824158056,
				"z": -2.0848059953,
				"element": "H" 
			},
			{
				"x": -0.5276125832,
				"y": 3.6455998106,
				"z": -2.1629695366,
				"element": "H" 
			},
			{
				"x": -0.387678779,
				"y": 3.966290067,
				"z": 2.1258389121,
				"element": "H" 
			},
			{
				"x": 1.3769808723,
				"y": 2.1941498247,
				"z": 2.1994149737,
				"element": "H" 
			}
		],
		 "valence_orbital": [ 
			{
				"type": "occ",
				"energy": -0.29883,
				"method": "rhf"
			},
			{
				"type": "occ",
				"energy": -0.28895,
				"method": "rhf"
			},
			{
				"type": "occ",
				"energy": -0.28465,
				"method": "rhf"
			},
			{
				"type": "occ",
				"energy": -0.27622,
				"method": "rhf"
			},
			{
				"type": "occ",
				"energy": -0.2693,
				"method": "rhf"
			},
			{
				"type": "unocc",
				"energy": -0.05232,
				"method": "rhf"
			},
			{
				"type": "unocc",
				"energy": -0.03635,
				"method": "rhf"
			},
			{
				"type": "unocc",
				"energy": -0.02262,
				"method": "rhf"
			},
			{
				"type": "unocc",
				"energy": 0.01416,
				"method": "rhf"
			},
			{
				"type": "unocc",
				"energy": 0.0484,
				"method": "rhf"
			}
		],
		"cosmo_sigma_profile": { 
			"-0.025": 0.12531897281,
			"-0.024": 0.0178174825519,
			"-0.023": 0.236822140559,
			"-0.022": 0.146326146079,
			"-0.021": 0.0,
			"-0.02": 0.00214884347114,
			"-0.019": 0.0511937874869,
			"-0.018": 0.046621692042,
			"-0.017": 0.186884225463,
			"-0.016": 0.408311754937,
			"-0.015": 0.288863385394,
			"-0.014": 0.0228199804643,
			"-0.013": 0.000604097742079,
			"-0.012": 0.121019409572,
			"-0.011": 0.211570023207,
			"-0.01": 0.229798054391,
			"-0.009": 1.36702747775,
			"-0.008": 4.97947330611,
			"-0.007": 8.41813388786,
			"-0.006": 8.42703619325,
			"-0.005": 13.0643344502,
			"-0.004": 25.8303611705,
			"-0.003": 30.2485502058,
			"-0.002": 40.1130486581,
			"-0.001": 50.7299578969,
			"0.0": 45.7970992408,
			"0.001": 28.3074364401,
			"0.002": 15.198229097,
			"0.003": 13.9224920855,
			"0.004": 15.1598362338,
			"0.005": 6.55125393842,
			"0.006": 6.0637557987,
			"0.007": 4.85157984286,
			"0.008": 5.2009520075,
			"0.009": 4.73755513082,
			"0.01": 8.04183342621,
			"0.011": 10.0838385818,
			"0.012": 3.93025394388,
			"0.013": 0.0,
			"0.014": 0.0,
			"0.015": 0.0,
			"0.016": 0.0,
			"0.017": 0.0,
			"0.018": 0.0,
			"0.019": 0.0,
			"0.02": 0.0,
			"0.021": 0.0,
			"0.022": 0.0,
			"0.023": 0.0,
			"0.024": 0.0,
			"0.025": 0.0
		}
	}
}
