{
	 "smiles": "CC1=CC(C)=C(N)C=C1", 
	 "Tm": 289.15, 
	 "num_atms": 20, 
	 "gaussian": { 
		 "optdone": 1, 
		 "sigma_profile": "yes", 
		 "theory": "DFT", 
		 "functional": "B3LYP", 
		 "basiset": "6-31G**", 
		 "properties": { 
			 "R2extent": 1349.543, 
			 "electric_dipole_moment_norm": 1.51842042268, 
			 "electric_quadrupole_moment_norm": 8.55882875982, 
			 "total_energy": -366.2491335, 
			 "HOMO_LUMO_gap": 0.20318, 
			 "cosmo_polarized_energy": -7.33, 
			 "cosmo_cavitation_energy": 22.56, 
			 "cosmo_dispersion_energy": -16.79, 
			 "cosmo_repulsion_energy": 1.38, 
			 "cosmo_total_nonelectrostatic_energy": 7.15, 
			 "SMD_solvation_energy": 3.87 
		},
		"coords": [
			{
				"x": 1.4970495615,
				"y": 2.1538879148,
				"z": -1.5290814117,
				"element": "C" 
			},
			{
				"x": 0.5725600421,
				"y": 1.3637760284,
				"z": -0.6319287291,
				"element": "C" 
			},
			{
				"x": 0.7774140238,
				"y": -0.0035673353,
				"z": -0.4058427585,
				"element": "C" 
			},
			{
				"x": -0.0345007303,
				"y": -0.7623637812,
				"z": 0.4395700892,
				"element": "C" 
			},
			{
				"x": 0.2305424989,
				"y": -2.2302626104,
				"z": 0.6666845252,
				"element": "C" 
			},
			{
				"x": -1.1161189454,
				"y": -0.1274734271,
				"z": 1.0909017726,
				"element": "C" 
			},
			{
				"x": -1.9201562658,
				"y": -0.8440284611,
				"z": 1.9897559398,
				"element": "N" 
			},
			{
				"x": -1.3353691255,
				"y": 1.239242,
				"z": 0.8700986732,
				"element": "C" 
			},
			{
				"x": -0.5027866051,
				"y": 1.9698788129,
				"z": 0.0252391456,
				"element": "C" 
			},
			{
				"x": 1.8268634916,
				"y": 1.5616220854,
				"z": -2.389244381,
				"element": "H" 
			},
			{
				"x": 2.400747942,
				"y": 2.4778868538,
				"z": -0.9963902314,
				"element": "H" 
			},
			{
				"x": 1.007403253,
				"y": 3.0546335048,
				"z": -1.9122690026,
				"element": "H" 
			},
			{
				"x": 1.6052867823,
				"y": -0.5027046965,
				"z": -0.9068746906,
				"element": "H" 
			},
			{
				"x": -0.5957102954,
				"y": -2.8611821038,
				"z": 0.3072767815,
				"element": "H" 
			},
			{
				"x": 0.3616866924,
				"y": -2.4539638849,
				"z": 1.7328062924,
				"element": "H" 
			},
			{
				"x": 1.1326922474,
				"y": -2.5532616995,
				"z": 0.1409807856,
				"element": "H" 
			},
			{
				"x": -2.8102734797,
				"y": -0.4058166436,
				"z": 2.1864188709,
				"element": "H" 
			},
			{
				"x": -2.0390688221,
				"y": -1.823611309,
				"z": 1.7687338251,
				"element": "H" 
			},
			{
				"x": -2.1690067011,
				"y": 1.7313128881,
				"z": 1.3667620067,
				"element": "H" 
			},
			{
				"x": -0.6999555645,
				"y": 3.0283958643,
				"z": -0.1279975031,
				"element": "H" 
			}
		],
		 "valence_orbital": [ 
			{
				"type": "occ",
				"energy": -0.33427,
				"method": "rhf"
			},
			{
				"type": "occ",
				"energy": -0.32335,
				"method": "rhf"
			},
			{
				"type": "occ",
				"energy": -0.29066,
				"method": "rhf"
			},
			{
				"type": "occ",
				"energy": -0.23114,
				"method": "rhf"
			},
			{
				"type": "occ",
				"energy": -0.18963,
				"method": "rhf"
			},
			{
				"type": "unocc",
				"energy": 0.01355,
				"method": "rhf"
			},
			{
				"type": "unocc",
				"energy": 0.02631,
				"method": "rhf"
			},
			{
				"type": "unocc",
				"energy": 0.08037,
				"method": "rhf"
			},
			{
				"type": "unocc",
				"energy": 0.10991,
				"method": "rhf"
			},
			{
				"type": "unocc",
				"energy": 0.11501,
				"method": "rhf"
			}
		],
		"cosmo_sigma_profile": { 
			"-0.025": 0.0,
			"-0.024": 0.0,
			"-0.023": 0.0,
			"-0.022": 0.0,
			"-0.021": 0.0,
			"-0.02": 0.0,
			"-0.019": 0.0,
			"-0.018": 0.0,
			"-0.017": 0.0,
			"-0.016": 0.0,
			"-0.015": 0.0,
			"-0.014": 0.0,
			"-0.013": 0.0,
			"-0.012": 0.648189483557,
			"-0.011": 2.12034093505,
			"-0.01": 2.81425943863,
			"-0.009": 2.64335880025,
			"-0.008": 3.75592069646,
			"-0.007": 2.91887527207,
			"-0.006": 2.7470511747,
			"-0.005": 4.3632137932,
			"-0.004": 12.469001393,
			"-0.003": 18.5451898378,
			"-0.002": 16.5435031614,
			"-0.001": 16.1949163273,
			"0.0": 19.5375000879,
			"0.001": 16.0132820545,
			"0.002": 8.12361081572,
			"0.003": 7.66797658715,
			"0.004": 6.70002364448,
			"0.005": 6.36194529583,
			"0.006": 8.12821645942,
			"0.007": 8.12999111779,
			"0.008": 5.87049648146,
			"0.009": 0.598417281336,
			"0.01": 1.03921453779,
			"0.011": 0.778033309951,
			"0.012": 0.311905310636,
			"0.013": 0.738062057103,
			"0.014": 0.843590846163,
			"0.015": 0.393474877953,
			"0.016": 0.109979954458,
			"0.017": 0.0,
			"0.018": 0.0,
			"0.019": 0.0,
			"0.02": 0.0,
			"0.021": 0.0,
			"0.022": 0.0,
			"0.023": 0.0,
			"0.024": 0.0,
			"0.025": 0.0
		}
	}
}
