{
	 "smiles": "OC(CNCC1=CC=CC=C1)C1=CC=CS1", 
	 "Tm": 369.15, 
	 "num_atms": 31, 
	 "gaussian": { 
		 "optdone": 1, 
		 "sigma_profile": "yes", 
		 "theory": "DFT", 
		 "functional": "B3LYP", 
		 "basiset": "6-31G**", 
		 "properties": { 
			 "R2extent": 6020.8944, 
			 "electric_dipole_moment_norm": 1.42624931902, 
			 "electric_quadrupole_moment_norm": 5.84802112855, 
			 "total_energy": -1032.55656725, 
			 "HOMO_LUMO_gap": 0.21191, 
			 "cosmo_polarized_energy": -11.8, 
			 "cosmo_cavitation_energy": 36.22, 
			 "cosmo_dispersion_energy": -25.56, 
			 "cosmo_repulsion_energy": 1.97, 
			 "cosmo_total_nonelectrostatic_energy": 12.63, 
			 "SMD_solvation_energy": 5.13 
		},
		"coords": [
			{
				"x": 0.5112859509,
				"y": 3.1312717602,
				"z": -1.2777814629,
				"element": "O" 
			},
			{
				"x": -0.0356040964,
				"y": 2.0007480239,
				"z": -0.6034496657,
				"element": "C" 
			},
			{
				"x": 1.0698643787,
				"y": 0.9304775457,
				"z": -0.6360408913,
				"element": "C" 
			},
			{
				"x": 0.5549438969,
				"y": -0.3656630158,
				"z": -0.2187547157,
				"element": "N" 
			},
			{
				"x": 1.5900425752,
				"y": -1.3797415357,
				"z": -0.021539769,
				"element": "C" 
			},
			{
				"x": 1.001200255,
				"y": -2.7003180397,
				"z": 0.4340687115,
				"element": "C" 
			},
			{
				"x": 1.4674592293,
				"y": -3.9107195363,
				"z": -0.0911836849,
				"element": "C" 
			},
			{
				"x": 0.948706561,
				"y": -5.129436499,
				"z": 0.3519533827,
				"element": "C" 
			},
			{
				"x": -0.0520948224,
				"y": -5.1504141641,
				"z": 1.323894449,
				"element": "C" 
			},
			{
				"x": -0.5291970081,
				"y": -3.9465163018,
				"z": 1.8491237071,
				"element": "C" 
			},
			{
				"x": -0.0063901814,
				"y": -2.7309346608,
				"z": 1.4087303146,
				"element": "C" 
			},
			{
				"x": -0.5018600813,
				"y": 2.347719823,
				"z": 0.7853578933,
				"element": "C" 
			},
			{
				"x": -1.5417473779,
				"y": 1.8193499959,
				"z": 1.5029991484,
				"element": "C" 
			},
			{
				"x": -1.6540188516,
				"y": 2.3600617793,
				"z": 2.8207260313,
				"element": "C" 
			},
			{
				"x": -0.6967563791,
				"y": 3.2986953671,
				"z": 3.0878433423,
				"element": "C" 
			},
			{
				"x": 0.3634978021,
				"y": 3.5374756855,
				"z": 1.734945422,
				"element": "S" 
			},
			{
				"x": -0.1289007027,
				"y": 3.8523203572,
				"z": -1.2113757072,
				"element": "H" 
			},
			{
				"x": -0.9063334691,
				"y": 1.6030090049,
				"z": -1.1539006124,
				"element": "H" 
			},
			{
				"x": 1.8672783739,
				"y": 1.2296213633,
				"z": 0.0535563769,
				"element": "H" 
			},
			{
				"x": 1.5034671213,
				"y": 0.9363148316,
				"z": -1.6516813061,
				"element": "H" 
			},
			{
				"x": -0.1121280352,
				"y": -0.7092162175,
				"z": -0.9068202517,
				"element": "H" 
			},
			{
				"x": 2.2739706455,
				"y": -0.9971707847,
				"z": 0.7497492297,
				"element": "H" 
			},
			{
				"x": 2.2115757314,
				"y": -1.5501875607,
				"z": -0.9203688234,
				"element": "H" 
			},
			{
				"x": 2.2424550505,
				"y": -3.8991776701,
				"z": -0.8542553655,
				"element": "H" 
			},
			{
				"x": 1.3219361691,
				"y": -6.0598448337,
				"z": -0.0671216657,
				"element": "H" 
			},
			{
				"x": -0.4601183734,
				"y": -6.0967490691,
				"z": 1.6677689954,
				"element": "H" 
			},
			{
				"x": -1.3098415327,
				"y": -3.955685737,
				"z": 2.6051167595,
				"element": "H" 
			},
			{
				"x": -0.3773528869,
				"y": -1.7908470456,
				"z": 1.8052837962,
				"element": "H" 
			},
			{
				"x": -2.2037134001,
				"y": 1.0600086066,
				"z": 1.1017968786,
				"element": "H" 
			},
			{
				"x": -2.4194037285,
				"y": 2.0675310894,
				"z": 3.5309267238,
				"element": "H" 
			},
			{
				"x": -0.558722814,
				"y": 3.878817438,
				"z": 3.9898327592,
				"element": "H" 
			}
		],
		 "valence_orbital": [ 
			{
				"type": "occ",
				"energy": -0.24805,
				"method": "rhf"
			},
			{
				"type": "occ",
				"energy": -0.2449,
				"method": "rhf"
			},
			{
				"type": "occ",
				"energy": -0.24086,
				"method": "rhf"
			},
			{
				"type": "occ",
				"energy": -0.22539,
				"method": "rhf"
			},
			{
				"type": "occ",
				"energy": -0.22287,
				"method": "rhf"
			},
			{
				"type": "unocc",
				"energy": -0.01096,
				"method": "rhf"
			},
			{
				"type": "unocc",
				"energy": 0.0014,
				"method": "rhf"
			},
			{
				"type": "unocc",
				"energy": 0.00409,
				"method": "rhf"
			},
			{
				"type": "unocc",
				"energy": 0.03866,
				"method": "rhf"
			},
			{
				"type": "unocc",
				"energy": 0.06261,
				"method": "rhf"
			}
		],
		"cosmo_sigma_profile": { 
			"-0.025": 0.0,
			"-0.024": 0.0,
			"-0.023": 0.0,
			"-0.022": 0.0,
			"-0.021": 0.0,
			"-0.02": 0.0,
			"-0.019": 0.0,
			"-0.018": 0.0,
			"-0.017": 0.0,
			"-0.016": 0.196166317224,
			"-0.015": 0.763555457992,
			"-0.014": 1.00178344484,
			"-0.013": 0.60411318196,
			"-0.012": 0.769106995768,
			"-0.011": 0.782710352949,
			"-0.01": 1.82429085098,
			"-0.009": 2.24706548073,
			"-0.008": 3.73528997123,
			"-0.007": 5.16111008391,
			"-0.006": 10.3584344128,
			"-0.005": 16.3551202583,
			"-0.004": 25.232527562,
			"-0.003": 28.6135131702,
			"-0.002": 25.5931269986,
			"-0.001": 20.7891370693,
			"0.0": 17.4722470669,
			"0.001": 15.2069730469,
			"0.002": 16.3301577005,
			"0.003": 20.625765456,
			"0.004": 20.7258905322,
			"0.005": 19.3178566257,
			"0.006": 15.7904660227,
			"0.007": 6.21643959176,
			"0.008": 2.15059081593,
			"0.009": 2.17913043481,
			"0.01": 2.15600780234,
			"0.011": 1.38568114403,
			"0.012": 2.34553908931,
			"0.013": 2.10597179008,
			"0.014": 0.313133226977,
			"0.015": 0.0,
			"0.016": 0.0,
			"0.017": 0.0,
			"0.018": 0.0,
			"0.019": 0.0,
			"0.02": 0.0,
			"0.021": 0.0,
			"0.022": 0.0,
			"0.023": 0.0,
			"0.024": 0.0,
			"0.025": 0.0
		}
	}
}
