{
	 "smiles": "OC(=O)C1=C(F)C=CC(=C1)C(F)(F)F", 
	 "Tm": 374.65, 
	 "num_atms": 18, 
	 "gaussian": { 
		 "optdone": 1, 
		 "sigma_profile": "yes", 
		 "theory": "DFT", 
		 "functional": "B3LYP", 
		 "basiset": "6-31G**", 
		 "properties": { 
			 "R2extent": 3521.4073, 
			 "electric_dipole_moment_norm": 0.547276712459, 
			 "electric_quadrupole_moment_norm": 15.1705692629, 
			 "total_energy": -857.083667937, 
			 "HOMO_LUMO_gap": 0.20604, 
			 "cosmo_polarized_energy": -9.85, 
			 "cosmo_cavitation_energy": 25.3, 
			 "cosmo_dispersion_energy": -17.95, 
			 "cosmo_repulsion_energy": 1.33, 
			 "cosmo_total_nonelectrostatic_energy": 8.69, 
			 "SMD_solvation_energy": 7.24 
		},
		"coords": [
			{
				"x": 2.0322110981,
				"y": 0.6877881394,
				"z": 1.9934543588,
				"element": "O" 
			},
			{
				"x": 0.9674837066,
				"y": -0.1561196093,
				"z": 1.9835658766,
				"element": "C" 
			},
			{
				"x": 0.4020163153,
				"y": -0.4935737069,
				"z": 3.0005810692,
				"element": "O" 
			},
			{
				"x": 0.6145354426,
				"y": -0.5843802851,
				"z": 0.6012926156,
				"element": "C" 
			},
			{
				"x": -0.45493764,
				"y": -1.4619046085,
				"z": 0.3621044647,
				"element": "C" 
			},
			{
				"x": -1.1876103842,
				"y": -1.9350711377,
				"z": 1.3725420187,
				"element": "F" 
			},
			{
				"x": -0.7906629613,
				"y": -1.8749559714,
				"z": -0.9251885159,
				"element": "C" 
			},
			{
				"x": -0.0539587643,
				"y": -1.4086968816,
				"z": -2.0069032491,
				"element": "C" 
			},
			{
				"x": 1.0167130031,
				"y": -0.5312771003,
				"z": -1.7974828079,
				"element": "C" 
			},
			{
				"x": 1.3437763756,
				"y": -0.1264941684,
				"z": -0.5070237,
				"element": "C" 
			},
			{
				"x": 1.7748573451,
				"y": 0.0114893649,
				"z": -2.9788521336,
				"element": "C" 
			},
			{
				"x": 3.0134901608,
				"y": 0.4242609259,
				"z": -2.6374968659,
				"element": "F" 
			},
			{
				"x": 1.1413409105,
				"y": 1.0708722605,
				"z": -3.5325803925,
				"element": "F" 
			},
			{
				"x": 1.904728641,
				"y": -0.9174758047,
				"z": -3.952442909,
				"element": "F" 
			},
			{
				"x": 2.1828870193,
				"y": 0.9079101758,
				"z": 2.927321031,
				"element": "H" 
			},
			{
				"x": -1.6225494098,
				"y": -2.5582758808,
				"z": -1.0528697629,
				"element": "H" 
			},
			{
				"x": -0.3019762639,
				"y": -1.730866654,
				"z": -3.0125325099,
				"element": "H" 
			},
			{
				"x": 2.1760554053,
				"y": 0.545670942,
				"z": -0.3429885877,
				"element": "H" 
			}
		],
		 "valence_orbital": [ 
			{
				"type": "occ",
				"energy": -0.37552,
				"method": "rhf"
			},
			{
				"type": "occ",
				"energy": -0.33018,
				"method": "rhf"
			},
			{
				"type": "occ",
				"energy": -0.28999,
				"method": "rhf"
			},
			{
				"type": "occ",
				"energy": -0.28517,
				"method": "rhf"
			},
			{
				"type": "occ",
				"energy": -0.27487,
				"method": "rhf"
			},
			{
				"type": "unocc",
				"energy": -0.06883,
				"method": "rhf"
			},
			{
				"type": "unocc",
				"energy": -0.03648,
				"method": "rhf"
			},
			{
				"type": "unocc",
				"energy": 0.03161,
				"method": "rhf"
			},
			{
				"type": "unocc",
				"energy": 0.06602,
				"method": "rhf"
			},
			{
				"type": "unocc",
				"energy": 0.08715,
				"method": "rhf"
			}
		],
		"cosmo_sigma_profile": { 
			"-0.025": 0.0,
			"-0.024": 0.0,
			"-0.023": 0.0,
			"-0.022": 0.0,
			"-0.021": 0.0,
			"-0.02": 0.0,
			"-0.019": 0.139476985887,
			"-0.018": 1.24546466092,
			"-0.017": 0.692308589775,
			"-0.016": 0.694102948768,
			"-0.015": 0.846142756887,
			"-0.014": 0.399195768594,
			"-0.013": 0.571050831837,
			"-0.012": 0.964056213928,
			"-0.011": 1.01504186689,
			"-0.01": 0.838821126981,
			"-0.009": 1.87989456394,
			"-0.008": 4.11882655165,
			"-0.007": 5.43536730485,
			"-0.006": 5.984352061,
			"-0.005": 5.46088559197,
			"-0.004": 7.12819400557,
			"-0.003": 11.9635501232,
			"-0.002": 15.2339052684,
			"-0.001": 21.1074247723,
			"0.0": 20.9383030926,
			"0.001": 15.4157851243,
			"0.002": 24.8536372628,
			"0.003": 27.9449971899,
			"0.004": 5.95360300291,
			"0.005": 3.14689785932,
			"0.006": 3.48013529946,
			"0.007": 2.62376533575,
			"0.008": 1.32104888099,
			"0.009": 2.16353885834,
			"0.01": 2.88353938454,
			"0.011": 5.46303455353,
			"0.012": 2.00523975801,
			"0.013": 0.0,
			"0.014": 0.0,
			"0.015": 0.0,
			"0.016": 0.0,
			"0.017": 0.0,
			"0.018": 0.0,
			"0.019": 0.0,
			"0.02": 0.0,
			"0.021": 0.0,
			"0.022": 0.0,
			"0.023": 0.0,
			"0.024": 0.0,
			"0.025": 0.0
		}
	}
}
