{
	 "smiles": "ClC1=CC=CC(OCC2=C(Cl)C=CC=C2)=C1C=O", 
	 "Tm": 366.15, 
	 "num_atms": 28, 
	 "gaussian": { 
		 "optdone": 1, 
		 "sigma_profile": "yes", 
		 "theory": "DFT", 
		 "functional": "B3LYP", 
		 "basiset": "6-31G**", 
		 "properties": { 
			 "R2extent": 7575.0518, 
			 "electric_dipole_moment_norm": 7.59926435387, 
			 "electric_quadrupole_moment_norm": 26.3218463858, 
			 "total_energy": -1610.31889351, 
			 "HOMO_LUMO_gap": 0.1736, 
			 "cosmo_polarized_energy": -14.43, 
			 "cosmo_cavitation_energy": 35.96, 
			 "cosmo_dispersion_energy": -25.42, 
			 "cosmo_repulsion_energy": 1.95, 
			 "cosmo_total_nonelectrostatic_energy": 12.49, 
			 "SMD_solvation_energy": 6.72 
		},
		"coords": [
			{
				"x": 1.6435355384,
				"y": 0.6200318409,
				"z": -5.6860516354,
				"element": "Cl" 
			},
			{
				"x": 1.7561498969,
				"y": 0.4370687536,
				"z": -3.9496216925,
				"element": "C" 
			},
			{
				"x": 2.3840622896,
				"y": -0.7221549947,
				"z": -3.4933874029,
				"element": "C" 
			},
			{
				"x": 2.5027194886,
				"y": -0.9357417203,
				"z": -2.1242382743,
				"element": "C" 
			},
			{
				"x": 2.0086312456,
				"y": -0.0125030616,
				"z": -1.2049959364,
				"element": "C" 
			},
			{
				"x": 1.3855979968,
				"y": 1.1499176787,
				"z": -1.6663148864,
				"element": "C" 
			},
			{
				"x": 0.9025407742,
				"y": 2.1237159978,
				"z": -0.8468511566,
				"element": "O" 
			},
			{
				"x": 0.9520064988,
				"y": 1.9994199047,
				"z": 0.5795397215,
				"element": "C" 
			},
			{
				"x": -0.1041647312,
				"y": 1.0873133129,
				"z": 1.1668729897,
				"element": "C" 
			},
			{
				"x": -1.4781660368,
				"y": 1.3451181064,
				"z": 1.0328942906,
				"element": "C" 
			},
			{
				"x": -2.0400536389,
				"y": 2.7655851867,
				"z": 0.1630014573,
				"element": "Cl" 
			},
			{
				"x": -2.4374789168,
				"y": 0.5077425068,
				"z": 1.6015106064,
				"element": "C" 
			},
			{
				"x": -2.032660234,
				"y": -0.6066839526,
				"z": 2.3359153354,
				"element": "C" 
			},
			{
				"x": -0.674827605,
				"y": -0.87469238,
				"z": 2.5052430886,
				"element": "C" 
			},
			{
				"x": 0.2703175277,
				"y": -0.0319413128,
				"z": 1.9224658389,
				"element": "C" 
			},
			{
				"x": 1.2382841906,
				"y": 1.4009841274,
				"z": -3.0617700301,
				"element": "C" 
			},
			{
				"x": 0.5452947309,
				"y": 2.6522542484,
				"z": -3.4792135888,
				"element": "C" 
			},
			{
				"x": 0.3895918302,
				"y": 3.0311785764,
				"z": -4.6246701882,
				"element": "O" 
			},
			{
				"x": 2.7664699061,
				"y": -1.440462857,
				"z": -4.2086144758,
				"element": "H" 
			},
			{
				"x": 2.9865157597,
				"y": -1.8387932688,
				"z": -1.7637540282,
				"element": "H" 
			},
			{
				"x": 2.103355879,
				"y": -0.2102450153,
				"z": -0.1469117603,
				"element": "H" 
			},
			{
				"x": 1.9491633896,
				"y": 1.6787989795,
				"z": 0.9011512579,
				"element": "H" 
			},
			{
				"x": 0.7993256533,
				"y": 3.0244897617,
				"z": 0.926721347,
				"element": "H" 
			},
			{
				"x": -3.4893567527,
				"y": 0.737272331,
				"z": 1.4727029966,
				"element": "H" 
			},
			{
				"x": -2.7812902765,
				"y": -1.2567912495,
				"z": 2.778295879,
				"element": "H" 
			},
			{
				"x": -0.3521832518,
				"y": -1.7342934228,
				"z": 3.0841229357,
				"element": "H" 
			},
			{
				"x": 1.3287176474,
				"y": -0.238019205,
				"z": 2.0619704463,
				"element": "H" 
			},
			{
				"x": 0.1577012004,
				"y": 3.2455311274,
				"z": -2.6336131351,
				"element": "H" 
			}
		],
		 "valence_orbital": [ 
			{
				"type": "occ",
				"energy": -0.27725,
				"method": "rhf"
			},
			{
				"type": "occ",
				"energy": -0.26026,
				"method": "rhf"
			},
			{
				"type": "occ",
				"energy": -0.25646,
				"method": "rhf"
			},
			{
				"type": "occ",
				"energy": -0.23786,
				"method": "rhf"
			},
			{
				"type": "occ",
				"energy": -0.23452,
				"method": "rhf"
			},
			{
				"type": "unocc",
				"energy": -0.06092,
				"method": "rhf"
			},
			{
				"type": "unocc",
				"energy": -0.03595,
				"method": "rhf"
			},
			{
				"type": "unocc",
				"energy": -0.02885,
				"method": "rhf"
			},
			{
				"type": "unocc",
				"energy": -0.00903,
				"method": "rhf"
			},
			{
				"type": "unocc",
				"energy": 0.02083,
				"method": "rhf"
			}
		],
		"cosmo_sigma_profile": { 
			"-0.025": 0.0,
			"-0.024": 0.0,
			"-0.023": 0.0,
			"-0.022": 0.0,
			"-0.021": 0.0,
			"-0.02": 0.0,
			"-0.019": 0.0,
			"-0.018": 0.0,
			"-0.017": 0.0,
			"-0.016": 0.0,
			"-0.015": 0.0,
			"-0.014": 0.0,
			"-0.013": 0.0,
			"-0.012": 0.0741306633735,
			"-0.011": 0.595176436027,
			"-0.01": 0.963825179219,
			"-0.009": 1.8843668755,
			"-0.008": 4.3162376865,
			"-0.007": 13.7849108411,
			"-0.006": 16.8888404854,
			"-0.005": 18.6901842693,
			"-0.004": 16.2619002414,
			"-0.003": 13.1763162709,
			"-0.002": 17.4706081927,
			"-0.001": 19.5330774104,
			"0.0": 24.2524183921,
			"0.001": 32.0747183438,
			"0.002": 31.7991025221,
			"0.003": 29.7521522312,
			"0.004": 23.115911112,
			"0.005": 8.15552899704,
			"0.006": 2.10465636142,
			"0.007": 1.8081876106,
			"0.008": 2.75771874814,
			"0.009": 2.0567350682,
			"0.01": 2.4412470565,
			"0.011": 4.24903121316,
			"0.012": 4.34813033789,
			"0.013": 1.00239900262,
			"0.014": 0.00342287159166,
			"0.015": 0.0,
			"0.016": 0.0,
			"0.017": 0.0,
			"0.018": 0.0,
			"0.019": 0.0,
			"0.02": 0.0,
			"0.021": 0.0,
			"0.022": 0.0,
			"0.023": 0.0,
			"0.024": 0.0,
			"0.025": 0.0
		}
	}
}
