{
	 "smiles": "CC(C)C(N)CC(O)=O", 
	 "Tm": 481.15, 
	 "num_atms": 22, 
	 "gaussian": { 
		 "optdone": 1, 
		 "sigma_profile": "yes", 
		 "theory": "DFT", 
		 "functional": "B3LYP", 
		 "basiset": "6-31G**", 
		 "properties": { 
			 "R2extent": 1636.4955, 
			 "electric_dipole_moment_norm": 3.34737177051, 
			 "electric_quadrupole_moment_norm": 13.8195925732, 
			 "total_energy": -441.689927149, 
			 "HOMO_LUMO_gap": 0.24064, 
			 "cosmo_polarized_energy": -14.73, 
			 "cosmo_cavitation_energy": 23.87, 
			 "cosmo_dispersion_energy": -17.26, 
			 "cosmo_repulsion_energy": 1.44, 
			 "cosmo_total_nonelectrostatic_energy": 8.05, 
			 "SMD_solvation_energy": 4.48 
		},
		"coords": [
			{
				"x": 0.0463861781,
				"y": 2.1627286929,
				"z": -1.9792100769,
				"element": "C" 
			},
			{
				"x": 0.4545158324,
				"y": 1.818337749,
				"z": -0.5395316393,
				"element": "C" 
			},
			{
				"x": 1.8847034266,
				"y": 1.2617364201,
				"z": -0.4746814595,
				"element": "C" 
			},
			{
				"x": -0.5872965074,
				"y": 0.9156471695,
				"z": 0.1692335756,
				"element": "C" 
			},
			{
				"x": -0.2615723686,
				"y": 0.8165421393,
				"z": 1.597337743,
				"element": "N" 
			},
			{
				"x": -0.6474547851,
				"y": -0.5064964087,
				"z": -0.408930857,
				"element": "C" 
			},
			{
				"x": -1.8088594695,
				"y": -1.3295014627,
				"z": 0.1328292361,
				"element": "C" 
			},
			{
				"x": -1.9534478157,
				"y": -2.5632282759,
				"z": -0.4198921391,
				"element": "O" 
			},
			{
				"x": -2.5764948898,
				"y": -0.9695400492,
				"z": 0.993685387,
				"element": "O" 
			},
			{
				"x": 0.0826995069,
				"y": 1.2850306698,
				"z": -2.6354920913,
				"element": "H" 
			},
			{
				"x": 0.7269815049,
				"y": 2.907295619,
				"z": -2.4049134183,
				"element": "H" 
			},
			{
				"x": -0.9685897345,
				"y": 2.5729352534,
				"z": -2.0247056199,
				"element": "H" 
			},
			{
				"x": 0.4442307357,
				"y": 2.7612682982,
				"z": 0.0288668305,
				"element": "H" 
			},
			{
				"x": 2.606552244,
				"y": 2.012232071,
				"z": -0.8138653782,
				"element": "H" 
			},
			{
				"x": 2.1399254772,
				"y": 0.9685923763,
				"z": 0.5466907263,
				"element": "H" 
			},
			{
				"x": 2.004427396,
				"y": 0.3842791798,
				"z": -1.121553593,
				"element": "H" 
			},
			{
				"x": -1.5785072799,
				"y": 1.3705266625,
				"z": -0.0046777546,
				"element": "H" 
			},
			{
				"x": -0.2276469527,
				"y": 1.7511543801,
				"z": 1.9992018063,
				"element": "H" 
			},
			{
				"x": -1.0251133378,
				"y": 0.3309354351,
				"z": 2.0632989271,
				"element": "H" 
			},
			{
				"x": 0.281892957,
				"y": -1.0394259411,
				"z": -0.1702524569,
				"element": "H" 
			},
			{
				"x": -0.7346342728,
				"y": -0.4781655563,
				"z": -1.502695677,
				"element": "H" 
			},
			{
				"x": -1.2685978452,
				"y": -2.710984422,
				"z": -1.0876420706,
				"element": "H" 
			}
		],
		 "valence_orbital": [ 
			{
				"type": "occ",
				"energy": -0.32963,
				"method": "rhf"
			},
			{
				"type": "occ",
				"energy": -0.32174,
				"method": "rhf"
			},
			{
				"type": "occ",
				"energy": -0.31664,
				"method": "rhf"
			},
			{
				"type": "occ",
				"energy": -0.27555,
				"method": "rhf"
			},
			{
				"type": "occ",
				"energy": -0.23358,
				"method": "rhf"
			},
			{
				"type": "unocc",
				"energy": 0.00706,
				"method": "rhf"
			},
			{
				"type": "unocc",
				"energy": 0.05402,
				"method": "rhf"
			},
			{
				"type": "unocc",
				"energy": 0.07647,
				"method": "rhf"
			},
			{
				"type": "unocc",
				"energy": 0.10195,
				"method": "rhf"
			},
			{
				"type": "unocc",
				"energy": 0.12251,
				"method": "rhf"
			}
		],
		"cosmo_sigma_profile": { 
			"-0.025": 0.0,
			"-0.024": 0.0,
			"-0.023": 0.0,
			"-0.022": 0.0,
			"-0.021": 0.0,
			"-0.02": 0.0,
			"-0.019": 0.431299119096,
			"-0.018": 1.1348577637,
			"-0.017": 1.46718754758,
			"-0.016": 0.512497038664,
			"-0.015": 1.31094604935,
			"-0.014": 0.95834095236,
			"-0.013": 0.935200254975,
			"-0.012": 1.22855347805,
			"-0.011": 1.28631480635,
			"-0.01": 1.40460187592,
			"-0.009": 1.97625469587,
			"-0.008": 3.38764838287,
			"-0.007": 3.96579053981,
			"-0.006": 6.3192224903,
			"-0.005": 5.78015144401,
			"-0.004": 7.72137826849,
			"-0.003": 13.8506121412,
			"-0.002": 21.2691231551,
			"-0.001": 18.5095692992,
			"0.0": 17.2948249612,
			"0.001": 17.3178930828,
			"0.002": 11.6861583053,
			"0.003": 3.96925716935,
			"0.004": 3.28913228109,
			"0.005": 3.13376649602,
			"0.006": 3.79787486011,
			"0.007": 2.65447295638,
			"0.008": 3.39714720242,
			"0.009": 4.4645565019,
			"0.01": 5.15741208877,
			"0.011": 5.76011460153,
			"0.012": 4.30513621957,
			"0.013": 2.00909278118,
			"0.014": 0.422501100399,
			"0.015": 0.741837784976,
			"0.016": 0.640491013792,
			"0.017": 0.303481470066,
			"0.018": 0.380401204992,
			"0.019": 0.000348778231673,
			"0.02": 0.0,
			"0.021": 0.0,
			"0.022": 0.0,
			"0.023": 0.0,
			"0.024": 0.0,
			"0.025": 0.0
		}
	}
}
