{
	 "smiles": "NC1=CC=CC2=NON=C12", 
	 "Tm": 383.15, 
	 "num_atms": 15, 
	 "gaussian": { 
		 "optdone": 1, 
		 "sigma_profile": "yes", 
		 "theory": "DFT", 
		 "functional": "B3LYP", 
		 "basiset": "6-31G**", 
		 "properties": { 
			 "R2extent": 1277.6953, 
			 "electric_dipole_moment_norm": 4.56530849012, 
			 "electric_quadrupole_moment_norm": 5.52413651805, 
			 "total_energy": -471.036952305, 
			 "HOMO_LUMO_gap": 0.13611, 
			 "cosmo_polarized_energy": -10.69, 
			 "cosmo_cavitation_energy": 19.62, 
			 "cosmo_dispersion_energy": -15.07, 
			 "cosmo_repulsion_energy": 1.21, 
			 "cosmo_total_nonelectrostatic_energy": 5.76, 
			 "SMD_solvation_energy": 2.76 
		},
		"coords": [
			{
				"x": 1.3153674376,
				"y": 0.0948511536,
				"z": 1.5984293066,
				"element": "N" 
			},
			{
				"x": 0.369560452,
				"y": -0.4336964348,
				"z": 0.7505224781,
				"element": "C" 
			},
			{
				"x": -0.2220233381,
				"y": -1.6744823976,
				"z": 0.8840826915,
				"element": "C" 
			},
			{
				"x": -1.1584998501,
				"y": -2.1794771744,
				"z": -0.0753091465,
				"element": "C" 
			},
			{
				"x": -1.5537657362,
				"y": -1.4882040623,
				"z": -1.1921822123,
				"element": "C" 
			},
			{
				"x": -0.972603058,
				"y": -0.1986492716,
				"z": -1.3618302912,
				"element": "C" 
			},
			{
				"x": -1.1447403769,
				"y": 0.7147407129,
				"z": -2.3050609596,
				"element": "N" 
			},
			{
				"x": -0.331911865,
				"y": 1.759097743,
				"z": -1.9399958379,
				"element": "O" 
			},
			{
				"x": 0.353088898,
				"y": 1.5218853742,
				"z": -0.7831672648,
				"element": "N" 
			},
			{
				"x": -0.0287206103,
				"y": 0.3162804964,
				"z": -0.4101375274,
				"element": "C" 
			},
			{
				"x": 1.4704337572,
				"y": 1.0907213372,
				"z": 1.5434836672,
				"element": "H" 
			},
			{
				"x": 1.3875313994,
				"y": -0.3000467973,
				"z": 2.5237162219,
				"element": "H" 
			},
			{
				"x": 0.0317416618,
				"y": -2.2943738134,
				"z": 1.7392855479,
				"element": "H" 
			},
			{
				"x": -1.572422656,
				"y": -3.1670759518,
				"z": 0.1076569186,
				"element": "H" 
			},
			{
				"x": -2.2645361154,
				"y": -1.883070914,
				"z": -1.906993592,
				"element": "H" 
			}
		],
		 "valence_orbital": [ 
			{
				"type": "occ",
				"energy": -0.33553,
				"method": "rhf"
			},
			{
				"type": "occ",
				"energy": -0.31473,
				"method": "rhf"
			},
			{
				"type": "occ",
				"energy": -0.30308,
				"method": "rhf"
			},
			{
				"type": "occ",
				"energy": -0.28262,
				"method": "rhf"
			},
			{
				"type": "occ",
				"energy": -0.21138,
				"method": "rhf"
			},
			{
				"type": "unocc",
				"energy": -0.07527,
				"method": "rhf"
			},
			{
				"type": "unocc",
				"energy": 0.01253,
				"method": "rhf"
			},
			{
				"type": "unocc",
				"energy": 0.02564,
				"method": "rhf"
			},
			{
				"type": "unocc",
				"energy": 0.06613,
				"method": "rhf"
			},
			{
				"type": "unocc",
				"energy": 0.09329,
				"method": "rhf"
			}
		],
		"cosmo_sigma_profile": { 
			"-0.025": 0.0,
			"-0.024": 0.0,
			"-0.023": 0.0,
			"-0.022": 0.0,
			"-0.021": 0.0,
			"-0.02": 0.0,
			"-0.019": 0.0,
			"-0.018": 0.0,
			"-0.017": 0.0,
			"-0.016": 0.0,
			"-0.015": 0.0144516832756,
			"-0.014": 1.11898089364,
			"-0.013": 2.42244150653,
			"-0.012": 2.58582041733,
			"-0.011": 2.42154803364,
			"-0.01": 2.46877769352,
			"-0.009": 2.65887882905,
			"-0.008": 2.05222274573,
			"-0.007": 5.6752479061,
			"-0.006": 7.18996440143,
			"-0.005": 7.77088439388,
			"-0.004": 7.17594247895,
			"-0.003": 6.39869566156,
			"-0.002": 8.54112509358,
			"-0.001": 10.5945233549,
			"0.0": 9.20124258542,
			"0.001": 11.5378507561,
			"0.002": 10.8628121315,
			"0.003": 10.2211998652,
			"0.004": 11.5417935589,
			"0.005": 10.1431454616,
			"0.006": 8.33178267083,
			"0.007": 4.327970339,
			"0.008": 2.60419962658,
			"0.009": 3.26383708713,
			"0.01": 3.16801705833,
			"0.011": 2.22172485162,
			"0.012": 1.01418132165,
			"0.013": 0.301889976953,
			"0.014": 0.0,
			"0.015": 0.0,
			"0.016": 0.0,
			"0.017": 0.0,
			"0.018": 0.0,
			"0.019": 0.0,
			"0.02": 0.0,
			"0.021": 0.0,
			"0.022": 0.0,
			"0.023": 0.0,
			"0.024": 0.0,
			"0.025": 0.0
		}
	}
}
