{
	 "smiles": "COC1=C(C=C(C=C1)C(O)=O)C1=CC=NN1C", 
	 "Tm": 499.15, 
	 "num_atms": 29, 
	 "gaussian": { 
		 "optdone": 1, 
		 "sigma_profile": "yes", 
		 "theory": "DFT", 
		 "functional": "B3LYP", 
		 "basiset": "6-31G**", 
		 "properties": { 
			 "R2extent": 4389.1779, 
			 "electric_dipole_moment_norm": 1.7153645152, 
			 "electric_quadrupole_moment_norm": 18.97083818, 
			 "total_energy": -799.666868865, 
			 "HOMO_LUMO_gap": 0.17314, 
			 "cosmo_polarized_energy": -14.31, 
			 "cosmo_cavitation_energy": 33.37, 
			 "cosmo_dispersion_energy": -23.25, 
			 "cosmo_repulsion_energy": 1.8, 
			 "cosmo_total_nonelectrostatic_energy": 11.92, 
			 "SMD_solvation_energy": 6.8 
		},
		"coords": [
			{
				"x": -0.8021042404,
				"y": 3.1128147019,
				"z": -1.6889725039,
				"element": "C" 
			},
			{
				"x": -0.0087543307,
				"y": 2.9956922184,
				"z": -0.5030769167,
				"element": "O" 
			},
			{
				"x": -0.1489075479,
				"y": 1.8171304998,
				"z": 0.1873938729,
				"element": "C" 
			},
			{
				"x": 0.5096284279,
				"y": 0.6346300938,
				"z": -0.2273928424,
				"element": "C" 
			},
			{
				"x": 0.3621781309,
				"y": -0.5073495465,
				"z": 0.5736910102,
				"element": "C" 
			},
			{
				"x": -0.4241046134,
				"y": -0.4943615565,
				"z": 1.7315743618,
				"element": "C" 
			},
			{
				"x": -1.0665563557,
				"y": 0.6870710073,
				"z": 2.1220904054,
				"element": "C" 
			},
			{
				"x": -0.9241460498,
				"y": 1.8336793977,
				"z": 1.3506412649,
				"element": "C" 
			},
			{
				"x": -0.5901004097,
				"y": -1.6971788862,
				"z": 2.5861858882,
				"element": "C" 
			},
			{
				"x": 0.0698922029,
				"y": -2.7851988066,
				"z": 2.1113496313,
				"element": "O" 
			},
			{
				"x": -1.244972336,
				"y": -1.737983685,
				"z": 3.6092567931,
				"element": "O" 
			},
			{
				"x": 1.3725639743,
				"y": 0.6235978194,
				"z": -1.420766832,
				"element": "C" 
			},
			{
				"x": 2.3121493032,
				"y": 1.5543697295,
				"z": -1.8528865925,
				"element": "C" 
			},
			{
				"x": 2.8670506831,
				"y": 0.998532929,
				"z": -3.0183537813,
				"element": "C" 
			},
			{
				"x": 2.3190484199,
				"y": -0.1805901704,
				"z": -3.3147866786,
				"element": "N" 
			},
			{
				"x": 1.4134813878,
				"y": -0.4009329541,
				"z": -2.3369158254,
				"element": "N" 
			},
			{
				"x": 0.6109248544,
				"y": -1.6107487887,
				"z": -2.4104856914,
				"element": "C" 
			},
			{
				"x": -1.8708429831,
				"y": 3.045713561,
				"z": -1.4495368255,
				"element": "H" 
			},
			{
				"x": -0.5415822477,
				"y": 2.3448873646,
				"z": -2.4250041389,
				"element": "H" 
			},
			{
				"x": -0.5850560588,
				"y": 4.0977670017,
				"z": -2.1056554167,
				"element": "H" 
			},
			{
				"x": 0.890550728,
				"y": -1.4158634432,
				"z": 0.3123381816,
				"element": "H" 
			},
			{
				"x": -1.664785829,
				"y": 0.6850573936,
				"z": 3.0266690538,
				"element": "H" 
			},
			{
				"x": -1.4024627313,
				"y": 2.7659838267,
				"z": 1.6324626811,
				"element": "H" 
			},
			{
				"x": -0.1055024314,
				"y": -3.4967651313,
				"z": 2.7486377157,
				"element": "H" 
			},
			{
				"x": 2.5445583238,
				"y": 2.4926105255,
				"z": -1.3742680633,
				"element": "H" 
			},
			{
				"x": 3.6373916245,
				"y": 1.4054894761,
				"z": -3.6598548054,
				"element": "H" 
			},
			{
				"x": -0.372728563,
				"y": -1.4345972996,
				"z": -1.972540514,
				"element": "H" 
			},
			{
				"x": 1.0905321205,
				"y": -2.4452092346,
				"z": -1.8878752861,
				"element": "H" 
			},
			{
				"x": 0.5050565466,
				"y": -1.8700480429,
				"z": -3.4640181458,
				"element": "H" 
			}
		],
		 "valence_orbital": [ 
			{
				"type": "occ",
				"energy": -0.28131,
				"method": "rhf"
			},
			{
				"type": "occ",
				"energy": -0.27647,
				"method": "rhf"
			},
			{
				"type": "occ",
				"energy": -0.25932,
				"method": "rhf"
			},
			{
				"type": "occ",
				"energy": -0.24612,
				"method": "rhf"
			},
			{
				"type": "occ",
				"energy": -0.22622,
				"method": "rhf"
			},
			{
				"type": "unocc",
				"energy": -0.05308,
				"method": "rhf"
			},
			{
				"type": "unocc",
				"energy": -0.03115,
				"method": "rhf"
			},
			{
				"type": "unocc",
				"energy": 0.02346,
				"method": "rhf"
			},
			{
				"type": "unocc",
				"energy": 0.05386,
				"method": "rhf"
			},
			{
				"type": "unocc",
				"energy": 0.0724,
				"method": "rhf"
			}
		],
		"cosmo_sigma_profile": { 
			"-0.025": 0.0,
			"-0.024": 0.0,
			"-0.023": 0.0,
			"-0.022": 0.0,
			"-0.021": 0.0,
			"-0.02": 0.0,
			"-0.019": 0.0681431130226,
			"-0.018": 0.64087600155,
			"-0.017": 0.861880118588,
			"-0.016": 0.875352557147,
			"-0.015": 1.35386486374,
			"-0.014": 0.375620476517,
			"-0.013": 0.324653394029,
			"-0.012": 0.744105559852,
			"-0.011": 0.845703533519,
			"-0.01": 0.768463014103,
			"-0.009": 0.581458565778,
			"-0.008": 0.883819328563,
			"-0.007": 5.80514751743,
			"-0.006": 15.0868265324,
			"-0.005": 17.2270603427,
			"-0.004": 22.6303759913,
			"-0.003": 29.7221903851,
			"-0.002": 20.2739102251,
			"-0.001": 17.5818629783,
			"0.0": 16.5659984468,
			"0.001": 17.8027332449,
			"0.002": 20.9563780299,
			"0.003": 15.6190892206,
			"0.004": 8.94300632724,
			"0.005": 9.12542594775,
			"0.006": 7.58961693699,
			"0.007": 6.47855415331,
			"0.008": 3.8954035041,
			"0.009": 3.88955170376,
			"0.01": 4.05160700606,
			"0.011": 5.7211063549,
			"0.012": 5.61672779045,
			"0.013": 0.787550987385,
			"0.014": 0.93758156136,
			"0.015": 1.10437763287,
			"0.016": 0.447627922002,
			"0.017": 0.00816577379819,
			"0.018": 0.0,
			"0.019": 0.0,
			"0.02": 0.0,
			"0.021": 0.0,
			"0.022": 0.0,
			"0.023": 0.0,
			"0.024": 0.0,
			"0.025": 0.0
		}
	}
}
