{
	 "smiles": "CCCCCCCOC(=O)CCCC", 
	 "Tm": 226.75, 
	 "num_atms": 38, 
	 "gaussian": { 
		 "optdone": 1, 
		 "sigma_profile": "yes", 
		 "theory": "DFT", 
		 "functional": "B3LYP", 
		 "basiset": "6-31G**", 
		 "properties": { 
			 "R2extent": 6019.0576, 
			 "electric_dipole_moment_norm": 1.81561087791, 
			 "electric_quadrupole_moment_norm": 9.26513522351, 
			 "total_energy": -622.233232258, 
			 "HOMO_LUMO_gap": 0.27739, 
			 "cosmo_polarized_energy": -6.35, 
			 "cosmo_cavitation_energy": 39.09, 
			 "cosmo_dispersion_energy": -25.84, 
			 "cosmo_repulsion_energy": 2.12, 
			 "cosmo_total_nonelectrostatic_energy": 15.37, 
			 "SMD_solvation_energy": 6.69 
		},
		"coords": [
			{
				"x": 0.858141526,
				"y": -3.1844083806,
				"z": 2.4901200373,
				"element": "C" 
			},
			{
				"x": 0.9490562852,
				"y": -1.7342087346,
				"z": 2.004165349,
				"element": "C" 
			},
			{
				"x": 2.1650356778,
				"y": -1.4832632659,
				"z": 1.0983119954,
				"element": "C" 
			},
			{
				"x": 2.3243733901,
				"y": -0.0334984508,
				"z": 0.5888334728,
				"element": "C" 
			},
			{
				"x": 1.6693121274,
				"y": 0.2855935687,
				"z": -0.7668964998,
				"element": "C" 
			},
			{
				"x": 0.1394604581,
				"y": 0.1753891467,
				"z": -0.8131090268,
				"element": "C" 
			},
			{
				"x": -0.4662111331,
				"y": 0.63058572,
				"z": -2.1385025134,
				"element": "C" 
			},
			{
				"x": -0.1910098102,
				"y": 2.0253725222,
				"z": -2.4162436356,
				"element": "O" 
			},
			{
				"x": -1.0634116968,
				"y": 2.9295867371,
				"z": -1.9056770096,
				"element": "C" 
			},
			{
				"x": -2.0294367274,
				"y": 2.6300379305,
				"z": -1.2363707683,
				"element": "O" 
			},
			{
				"x": -0.6768185493,
				"y": 4.3421199384,
				"z": -2.301233105,
				"element": "C" 
			},
			{
				"x": 0.7225516347,
				"y": 4.765978987,
				"z": -1.8164219115,
				"element": "C" 
			},
			{
				"x": 0.8619196568,
				"y": 4.809283561,
				"z": -0.2892952205,
				"element": "C" 
			},
			{
				"x": 2.2519852373,
				"y": 5.2623839231,
				"z": 0.1676702727,
				"element": "C" 
			},
			{
				"x": -0.0040768975,
				"y": -3.3336119479,
				"z": 3.1483070578,
				"element": "H" 
			},
			{
				"x": 0.7576182602,
				"y": -3.879558328,
				"z": 1.6484777552,
				"element": "H" 
			},
			{
				"x": 1.7566179021,
				"y": -3.4724720901,
				"z": 3.0482212482,
				"element": "H" 
			},
			{
				"x": 0.0225142749,
				"y": -1.4674131177,
				"z": 1.4826615222,
				"element": "H" 
			},
			{
				"x": 1.0097532182,
				"y": -1.061655646,
				"z": 2.8706425731,
				"element": "H" 
			},
			{
				"x": 2.1328473935,
				"y": -2.1712716579,
				"z": 0.2407011994,
				"element": "H" 
			},
			{
				"x": 3.0645680128,
				"y": -1.7611170403,
				"z": 1.6637923138,
				"element": "H" 
			},
			{
				"x": 1.9455704822,
				"y": 0.663151793,
				"z": 1.3501902222,
				"element": "H" 
			},
			{
				"x": 3.3942994068,
				"y": 0.1883910563,
				"z": 0.4907993682,
				"element": "H" 
			},
			{
				"x": 2.097747933,
				"y": -0.3762170965,
				"z": -1.5337969764,
				"element": "H" 
			},
			{
				"x": 1.9517993419,
				"y": 1.3050490997,
				"z": -1.0566292772,
				"element": "H" 
			},
			{
				"x": -0.3150103269,
				"y": 0.7591068713,
				"z": -0.003846913,
				"element": "H" 
			},
			{
				"x": -0.1735192622,
				"y": -0.8652151071,
				"z": -0.6604554534,
				"element": "H" 
			},
			{
				"x": -1.5484275554,
				"y": 0.4816322543,
				"z": -2.140162,
				"element": "H" 
			},
			{
				"x": -0.0214654718,
				"y": 0.0931891674,
				"z": -2.9812698044,
				"element": "H" 
			},
			{
				"x": -0.7143091725,
				"y": 4.4026366906,
				"z": -3.3955842561,
				"element": "H" 
			},
			{
				"x": -1.4472377435,
				"y": 5.0055571403,
				"z": -1.8994262797,
				"element": "H" 
			},
			{
				"x": 1.4688249242,
				"y": 4.0831652105,
				"z": -2.2389929015,
				"element": "H" 
			},
			{
				"x": 0.9406737738,
				"y": 5.7597980023,
				"z": -2.2279986271,
				"element": "H" 
			},
			{
				"x": 0.0993535595,
				"y": 5.4825117323,
				"z": 0.1244901644,
				"element": "H" 
			},
			{
				"x": 0.6460698122,
				"y": 3.8169128308,
				"z": 0.1280834956,
				"element": "H" 
			},
			{
				"x": 3.0312131808,
				"y": 4.586772089,
				"z": -0.2032773121,
				"element": "H" 
			},
			{
				"x": 2.3251125625,
				"y": 5.286392064,
				"z": 1.2596719834,
				"element": "H" 
			},
			{
				"x": 2.4834143143,
				"y": 6.2675128268,
				"z": -0.2032505394,
				"element": "H" 
			}
		],
		 "valence_orbital": [ 
			{
				"type": "occ",
				"energy": -0.32061,
				"method": "rhf"
			},
			{
				"type": "occ",
				"energy": -0.31099,
				"method": "rhf"
			},
			{
				"type": "occ",
				"energy": -0.30605,
				"method": "rhf"
			},
			{
				"type": "occ",
				"energy": -0.2897,
				"method": "rhf"
			},
			{
				"type": "occ",
				"energy": -0.26249,
				"method": "rhf"
			},
			{
				"type": "unocc",
				"energy": 0.0149,
				"method": "rhf"
			},
			{
				"type": "unocc",
				"energy": 0.06981,
				"method": "rhf"
			},
			{
				"type": "unocc",
				"energy": 0.09207,
				"method": "rhf"
			},
			{
				"type": "unocc",
				"energy": 0.10542,
				"method": "rhf"
			},
			{
				"type": "unocc",
				"energy": 0.11003,
				"method": "rhf"
			}
		],
		"cosmo_sigma_profile": { 
			"-0.025": 0.0,
			"-0.024": 0.0,
			"-0.023": 0.0,
			"-0.022": 0.0,
			"-0.021": 0.0,
			"-0.02": 0.0,
			"-0.019": 0.0,
			"-0.018": 0.0,
			"-0.017": 0.0,
			"-0.016": 0.0,
			"-0.015": 0.0,
			"-0.014": 0.0,
			"-0.013": 0.0,
			"-0.012": 0.0,
			"-0.011": 0.0,
			"-0.01": 0.0,
			"-0.009": 0.0,
			"-0.008": 0.0,
			"-0.007": 0.0,
			"-0.006": 1.30901068773,
			"-0.005": 5.76410192105,
			"-0.004": 10.7526017244,
			"-0.003": 25.5041687968,
			"-0.002": 50.1093452687,
			"-0.001": 61.0440371825,
			"0.0": 52.7785565429,
			"0.001": 42.7872109039,
			"0.002": 20.4678628314,
			"0.003": 4.09377031698,
			"0.004": 3.31579292915,
			"0.005": 3.47738578035,
			"0.006": 2.20311806203,
			"0.007": 2.13426189477,
			"0.008": 2.26188112046,
			"0.009": 2.34000645924,
			"0.01": 1.63432386041,
			"0.011": 2.26012620883,
			"0.012": 4.23718190207,
			"0.013": 2.2910715552,
			"0.014": 0.125043602129,
			"0.015": 0.0,
			"0.016": 0.0,
			"0.017": 0.0,
			"0.018": 0.0,
			"0.019": 0.0,
			"0.02": 0.0,
			"0.021": 0.0,
			"0.022": 0.0,
			"0.023": 0.0,
			"0.024": 0.0,
			"0.025": 0.0
		}
	}
}
