{
	 "smiles": "NS(=O)(=O)NCC1CCCNC1", 
	 "Tm": 406.15, 
	 "num_atms": 27, 
	 "gaussian": { 
		 "optdone": 1, 
		 "sigma_profile": "yes", 
		 "theory": "DFT", 
		 "functional": "B3LYP", 
		 "basiset": "6-31G**", 
		 "properties": { 
			 "R2extent": 3206.7965, 
			 "electric_dipole_moment_norm": 4.37108737387, 
			 "electric_quadrupole_moment_norm": 17.6399954084, 
			 "total_energy": -950.499393954, 
			 "HOMO_LUMO_gap": 0.27204, 
			 "cosmo_polarized_energy": -18.16, 
			 "cosmo_cavitation_energy": 29.32, 
			 "cosmo_dispersion_energy": -22.02, 
			 "cosmo_repulsion_energy": 1.74, 
			 "cosmo_total_nonelectrostatic_energy": 9.04, 
			 "SMD_solvation_energy": 1.85 
		},
		"coords": [
			{
				"x": 2.6307380574,
				"y": 0.4183176149,
				"z": -1.9303060797,
				"element": "N" 
			},
			{
				"x": 1.0323847162,
				"y": 0.5815972256,
				"z": -2.4998695267,
				"element": "S" 
			},
			{
				"x": 0.6198904863,
				"y": -0.7560186361,
				"z": -2.9127834724,
				"element": "O" 
			},
			{
				"x": 0.9956287696,
				"y": 1.7469313135,
				"z": -3.3803302162,
				"element": "O" 
			},
			{
				"x": 0.1149859415,
				"y": 0.9968992304,
				"z": -1.1758101541,
				"element": "N" 
			},
			{
				"x": 0.0970326895,
				"y": 0.1002364313,
				"z": -0.0106916783,
				"element": "C" 
			},
			{
				"x": -1.1354683932,
				"y": 0.3669139169,
				"z": 0.8707543379,
				"element": "C" 
			},
			{
				"x": -2.4729055505,
				"y": 0.1821191022,
				"z": 0.1222858836,
				"element": "C" 
			},
			{
				"x": -2.7688247683,
				"y": -1.2971304307,
				"z": -0.1766620009,
				"element": "C" 
			},
			{
				"x": -2.6391458426,
				"y": -2.1482474113,
				"z": 1.0913317458,
				"element": "C" 
			},
			{
				"x": -1.3140734597,
				"y": -1.9446245221,
				"z": 1.6842804042,
				"element": "N" 
			},
			{
				"x": -1.1092930162,
				"y": -0.5576524781,
				"z": 2.102557414,
				"element": "C" 
			},
			{
				"x": 3.2025475987,
				"y": 1.1576081213,
				"z": -2.3304218767,
				"element": "H" 
			},
			{
				"x": 2.9827591241,
				"y": -0.4954234219,
				"z": -2.202868201,
				"element": "H" 
			},
			{
				"x": 0.2497453111,
				"y": 1.9810846026,
				"z": -0.9608745167,
				"element": "H" 
			},
			{
				"x": 0.0699030037,
				"y": -0.924773537,
				"z": -0.3825199291,
				"element": "H" 
			},
			{
				"x": 1.0144724216,
				"y": 0.2102064013,
				"z": 0.5850081092,
				"element": "H" 
			},
			{
				"x": -1.077233114,
				"y": 1.4045004557,
				"z": 1.2320777601,
				"element": "H" 
			},
			{
				"x": -3.2748414564,
				"y": 0.5870927021,
				"z": 0.7547016407,
				"element": "H" 
			},
			{
				"x": -2.4686399904,
				"y": 0.765251218,
				"z": -0.8034594067,
				"element": "H" 
			},
			{
				"x": -2.0753746151,
				"y": -1.6744202787,
				"z": -0.9365625512,
				"element": "H" 
			},
			{
				"x": -3.7791937085,
				"y": -1.399170639,
				"z": -0.5894075321,
				"element": "H" 
			},
			{
				"x": -2.7548405204,
				"y": -3.2111948167,
				"z": 0.8526261761,
				"element": "H" 
			},
			{
				"x": -3.4563418772,
				"y": -1.8780668413,
				"z": 1.7904276813,
				"element": "H" 
			},
			{
				"x": -1.1853376249,
				"y": -2.5676075416,
				"z": 2.4759951604,
				"element": "H" 
			},
			{
				"x": -1.8832300107,
				"y": -0.2069478475,
				"z": 2.8134103437,
				"element": "H" 
			},
			{
				"x": -0.1428441713,
				"y": -0.485379934,
				"z": 2.6159104848,
				"element": "H" 
			}
		],
		 "valence_orbital": [ 
			{
				"type": "occ",
				"energy": -0.30881,
				"method": "rhf"
			},
			{
				"type": "occ",
				"energy": -0.30283,
				"method": "rhf"
			},
			{
				"type": "occ",
				"energy": -0.29472,
				"method": "rhf"
			},
			{
				"type": "occ",
				"energy": -0.26549,
				"method": "rhf"
			},
			{
				"type": "occ",
				"energy": -0.22276,
				"method": "rhf"
			},
			{
				"type": "unocc",
				"energy": 0.04928,
				"method": "rhf"
			},
			{
				"type": "unocc",
				"energy": 0.07407,
				"method": "rhf"
			},
			{
				"type": "unocc",
				"energy": 0.08958,
				"method": "rhf"
			},
			{
				"type": "unocc",
				"energy": 0.09531,
				"method": "rhf"
			},
			{
				"type": "unocc",
				"energy": 0.10049,
				"method": "rhf"
			}
		],
		"cosmo_sigma_profile": { 
			"-0.025": 0.0,
			"-0.024": 0.0,
			"-0.023": 0.0,
			"-0.022": 0.0,
			"-0.021": 0.0,
			"-0.02": 0.0,
			"-0.019": 0.0,
			"-0.018": 0.0,
			"-0.017": 0.0,
			"-0.016": 0.0,
			"-0.015": 0.813158572336,
			"-0.014": 3.53514212238,
			"-0.013": 3.44375069091,
			"-0.012": 3.62591447184,
			"-0.011": 3.14474291597,
			"-0.01": 3.83780417509,
			"-0.009": 4.04732128448,
			"-0.008": 3.88821609792,
			"-0.007": 5.03026299108,
			"-0.006": 4.44773232002,
			"-0.005": 4.1149529008,
			"-0.004": 9.08897539512,
			"-0.003": 16.1299551784,
			"-0.002": 19.8713367117,
			"-0.001": 32.7857694728,
			"0.0": 25.7366654477,
			"0.001": 14.3320594877,
			"0.002": 6.59514696737,
			"0.003": 4.28643997321,
			"0.004": 4.29807785882,
			"0.005": 6.18561306101,
			"0.006": 6.6736459274,
			"0.007": 6.09932114308,
			"0.008": 4.92743784848,
			"0.009": 3.51054420744,
			"0.01": 8.20758303469,
			"0.011": 11.7120442713,
			"0.012": 4.55363144918,
			"0.013": 0.680995790645,
			"0.014": 0.459872659387,
			"0.015": 0.2486556205,
			"0.016": 0.261282188171,
			"0.017": 0.0,
			"0.018": 0.0,
			"0.019": 0.0,
			"0.02": 0.0,
			"0.021": 0.0,
			"0.022": 0.0,
			"0.023": 0.0,
			"0.024": 0.0,
			"0.025": 0.0
		}
	}
}
