{
	 "smiles": "CC(C)N(CC1=CC=C(N)C=C1)C(C)=O", 
	 "Tm": 384.15, 
	 "num_atms": 33, 
	 "gaussian": { 
		 "optdone": 1, 
		 "sigma_profile": "yes", 
		 "theory": "DFT", 
		 "functional": "B3LYP", 
		 "basiset": "6-31G**", 
		 "properties": { 
			 "R2extent": 4215.2162, 
			 "electric_dipole_moment_norm": 4.39176521003, 
			 "electric_quadrupole_moment_norm": 21.2175012575, 
			 "total_energy": -652.879287688, 
			 "HOMO_LUMO_gap": 0.20223, 
			 "cosmo_polarized_energy": -15.74, 
			 "cosmo_cavitation_energy": 34.41, 
			 "cosmo_dispersion_energy": -23.83, 
			 "cosmo_repulsion_energy": 1.87, 
			 "cosmo_total_nonelectrostatic_energy": 12.45, 
			 "SMD_solvation_energy": 6.42 
		},
		"coords": [
			{
				"x": 0.4636831693,
				"y": -1.7251425623,
				"z": -2.8795729793,
				"element": "C" 
			},
			{
				"x": 0.3076560962,
				"y": -0.361508435,
				"z": -2.1840241982,
				"element": "C" 
			},
			{
				"x": 1.4379529821,
				"y": -0.1019456602,
				"z": -1.177958824,
				"element": "C" 
			},
			{
				"x": -1.0272920006,
				"y": -0.2012654869,
				"z": -1.5776775901,
				"element": "N" 
			},
			{
				"x": -1.3750545573,
				"y": -0.9978780336,
				"z": -0.3836546492,
				"element": "C" 
			},
			{
				"x": -1.1202152599,
				"y": -0.3272204176,
				"z": 0.9546854363,
				"element": "C" 
			},
			{
				"x": -0.2890222841,
				"y": -0.9209535514,
				"z": 1.9106560317,
				"element": "C" 
			},
			{
				"x": -0.0728201891,
				"y": -0.336459211,
				"z": 3.1573942204,
				"element": "C" 
			},
			{
				"x": -0.6921956764,
				"y": 0.8786582602,
				"z": 3.4884010807,
				"element": "C" 
			},
			{
				"x": -0.5268306513,
				"y": 1.4487628864,
				"z": 4.7543143398,
				"element": "N" 
			},
			{
				"x": -1.5350916863,
				"y": 1.4768693003,
				"z": 2.5343779941,
				"element": "C" 
			},
			{
				"x": -1.747785541,
				"y": 0.8809695382,
				"z": 1.2958742405,
				"element": "C" 
			},
			{
				"x": -2.0381921366,
				"y": 0.5356965561,
				"z": -2.149642113,
				"element": "C" 
			},
			{
				"x": -1.7536840793,
				"y": 1.2856795807,
				"z": -3.4475915281,
				"element": "C" 
			},
			{
				"x": -3.1546253794,
				"y": 0.6079522461,
				"z": -1.6360564275,
				"element": "O" 
			},
			{
				"x": 0.4197608465,
				"y": -2.5525748951,
				"z": -2.1640079412,
				"element": "H" 
			},
			{
				"x": -0.3247827687,
				"y": -1.8786727741,
				"z": -3.6227163774,
				"element": "H" 
			},
			{
				"x": 1.4314660977,
				"y": -1.782564927,
				"z": -3.3887579427,
				"element": "H" 
			},
			{
				"x": 0.38886176,
				"y": 0.4078165788,
				"z": -2.9533257791,
				"element": "H" 
			},
			{
				"x": 1.3140010128,
				"y": 0.869028089,
				"z": -0.6916280308,
				"element": "H" 
			},
			{
				"x": 2.40125132,
				"y": -0.1114909688,
				"z": -1.6987451138,
				"element": "H" 
			},
			{
				"x": 1.4744665328,
				"y": -0.864919735,
				"z": -0.3959559245,
				"element": "H" 
			},
			{
				"x": -2.4374141554,
				"y": -1.2363254803,
				"z": -0.4785122321,
				"element": "H" 
			},
			{
				"x": -0.8170516627,
				"y": -1.937886506,
				"z": -0.4280044873,
				"element": "H" 
			},
			{
				"x": 0.2031251669,
				"y": -1.86446169,
				"z": 1.682167621,
				"element": "H" 
			},
			{
				"x": 0.5763764462,
				"y": -0.8238534303,
				"z": 3.8811515822,
				"element": "H" 
			},
			{
				"x": -0.6886133734,
				"y": 2.4456942624,
				"z": 4.796597391,
				"element": "H" 
			},
			{
				"x": 0.3252826438,
				"y": 1.1885280234,
				"z": 5.2318348831,
				"element": "H" 
			},
			{
				"x": -2.0370054683,
				"y": 2.4107895098,
				"z": 2.7775931053,
				"element": "H" 
			},
			{
				"x": -2.4198659837,
				"y": 1.3456363198,
				"z": 0.5814502084,
				"element": "H" 
			},
			{
				"x": -2.6872197723,
				"y": 1.7611944573,
				"z": -3.7469463827,
				"element": "H" 
			},
			{
				"x": -1.4172874602,
				"y": 0.6228719095,
				"z": -4.2511374916,
				"element": "H" 
			},
			{
				"x": -0.9926339882,
				"y": 2.0613762464,
				"z": -3.3110821222,
				"element": "H" 
			}
		],
		 "valence_orbital": [ 
			{
				"type": "occ",
				"energy": -0.29469,
				"method": "rhf"
			},
			{
				"type": "occ",
				"energy": -0.23919,
				"method": "rhf"
			},
			{
				"type": "occ",
				"energy": -0.23809,
				"method": "rhf"
			},
			{
				"type": "occ",
				"energy": -0.22967,
				"method": "rhf"
			},
			{
				"type": "occ",
				"energy": -0.1933,
				"method": "rhf"
			},
			{
				"type": "unocc",
				"energy": 0.00893,
				"method": "rhf"
			},
			{
				"type": "unocc",
				"energy": 0.02052,
				"method": "rhf"
			},
			{
				"type": "unocc",
				"energy": 0.0349,
				"method": "rhf"
			},
			{
				"type": "unocc",
				"energy": 0.07452,
				"method": "rhf"
			},
			{
				"type": "unocc",
				"energy": 0.08519,
				"method": "rhf"
			}
		],
		"cosmo_sigma_profile": { 
			"-0.025": 0.0,
			"-0.024": 0.0,
			"-0.023": 0.0,
			"-0.022": 0.0,
			"-0.021": 0.0,
			"-0.02": 0.0,
			"-0.019": 0.0,
			"-0.018": 0.0,
			"-0.017": 0.0,
			"-0.016": 0.0,
			"-0.015": 0.0,
			"-0.014": 0.0,
			"-0.013": 0.0835849941533,
			"-0.012": 2.00827476754,
			"-0.011": 2.63303349061,
			"-0.01": 2.89214163692,
			"-0.009": 2.63330597455,
			"-0.008": 3.35514660989,
			"-0.007": 3.17452480795,
			"-0.006": 7.27960079907,
			"-0.005": 19.7361862358,
			"-0.004": 21.7118753906,
			"-0.003": 27.8976576312,
			"-0.002": 25.3587591714,
			"-0.001": 25.3520879533,
			"0.0": 24.1942760447,
			"0.001": 20.5903512491,
			"0.002": 9.93682261841,
			"0.003": 9.05784995979,
			"0.004": 9.23077479365,
			"0.005": 10.3429211959,
			"0.006": 10.4584333872,
			"0.007": 9.68539253953,
			"0.008": 3.07687656546,
			"0.009": 2.33660302626,
			"0.01": 2.19710817038,
			"0.011": 2.44455411621,
			"0.012": 2.18314215983,
			"0.013": 2.03272240616,
			"0.014": 4.59915698254,
			"0.015": 2.58982606286,
			"0.016": 0.298905767113,
			"0.017": 0.0,
			"0.018": 0.0,
			"0.019": 0.0,
			"0.02": 0.0,
			"0.021": 0.0,
			"0.022": 0.0,
			"0.023": 0.0,
			"0.024": 0.0,
			"0.025": 0.0
		}
	}
}
