{
	 "smiles": "CC(Cl)C(=O)C1=CC=C(NS(C)(=O)=O)C=C1", 
	 "Tm": 463.15, 
	 "num_atms": 28, 
	 "gaussian": { 
		 "optdone": 1, 
		 "sigma_profile": "yes", 
		 "theory": "DFT", 
		 "functional": "B3LYP", 
		 "basiset": "6-31G**", 
		 "properties": { 
			 "R2extent": 8226.8446, 
			 "electric_dipole_moment_norm": 5.58180882779, 
			 "electric_quadrupole_moment_norm": 18.4473834218, 
			 "total_energy": -1527.04085845, 
			 "HOMO_LUMO_gap": 0.1717, 
			 "cosmo_polarized_energy": -21.37, 
			 "cosmo_cavitation_energy": 34.92, 
			 "cosmo_dispersion_energy": -25.65, 
			 "cosmo_repulsion_energy": 1.95, 
			 "cosmo_total_nonelectrostatic_energy": 11.22, 
			 "SMD_solvation_energy": 5.81 
		},
		"coords": [
			{
				"x": -2.1638503523,
				"y": 3.4093374245,
				"z": -0.561143992,
				"element": "C" 
			},
			{
				"x": -2.0302754603,
				"y": 1.9702887785,
				"z": -0.0986044071,
				"element": "C" 
			},
			{
				"x": -3.5558979834,
				"y": 1.4475866781,
				"z": 0.7856495288,
				"element": "Cl" 
			},
			{
				"x": -0.8378769019,
				"y": 1.7605884671,
				"z": 0.8571543473,
				"element": "C" 
			},
			{
				"x": -0.2937360177,
				"y": 2.7388616562,
				"z": 1.3450888737,
				"element": "O" 
			},
			{
				"x": -0.3513676593,
				"y": 0.3812999201,
				"z": 1.1364381606,
				"element": "C" 
			},
			{
				"x": -0.9257306336,
				"y": -0.7790560996,
				"z": 0.5919942804,
				"element": "C" 
			},
			{
				"x": -0.395415682,
				"y": -2.0314811334,
				"z": 0.8714844941,
				"element": "C" 
			},
			{
				"x": 0.7164769015,
				"y": -2.1605258914,
				"z": 1.7213729602,
				"element": "C" 
			},
			{
				"x": 1.2004056012,
				"y": -3.4526925702,
				"z": 1.9910889668,
				"element": "N" 
			},
			{
				"x": 2.7839864263,
				"y": -3.8915264009,
				"z": 2.4005031628,
				"element": "S" 
			},
			{
				"x": 3.7759627135,
				"y": -3.3528540934,
				"z": 0.9935904153,
				"element": "C" 
			},
			{
				"x": 2.7443539159,
				"y": -5.3516608384,
				"z": 2.4223550316,
				"element": "O" 
			},
			{
				"x": 3.2070689158,
				"y": -3.1079398215,
				"z": 3.5580962995,
				"element": "O" 
			},
			{
				"x": 1.2881934543,
				"y": -1.0080868289,
				"z": 2.2908007152,
				"element": "C" 
			},
			{
				"x": 0.7579281032,
				"y": 0.2377765859,
				"z": 1.9870139548,
				"element": "C" 
			},
			{
				"x": -1.273680422,
				"y": 3.6879641746,
				"z": -1.1346328587,
				"element": "H" 
			},
			{
				"x": -3.043856803,
				"y": 3.5253222585,
				"z": -1.1972239833,
				"element": "H" 
			},
			{
				"x": -2.2366709905,
				"y": 4.0828865535,
				"z": 0.293624658,
				"element": "H" 
			},
			{
				"x": -1.9595417019,
				"y": 1.2888419311,
				"z": -0.9492174522,
				"element": "H" 
			},
			{
				"x": -1.7988246062,
				"y": -0.7183743681,
				"z": -0.0479355147,
				"element": "H" 
			},
			{
				"x": -0.8455814864,
				"y": -2.9192656032,
				"z": 0.4350981269,
				"element": "H" 
			},
			{
				"x": 0.7004865517,
				"y": -4.2340269417,
				"z": 1.58339233,
				"element": "H" 
			},
			{
				"x": 3.4778211336,
				"y": -3.9218178804,
				"z": 0.1124236053,
				"element": "H" 
			},
			{
				"x": 3.6259715384,
				"y": -2.2825987588,
				"z": 0.8433210311,
				"element": "H" 
			},
			{
				"x": 4.8179647348,
				"y": -3.5558535234,
				"z": 1.2468541362,
				"element": "H" 
			},
			{
				"x": 2.1180562271,
				"y": -1.0999912946,
				"z": 2.9809774958,
				"element": "H" 
			},
			{
				"x": 1.1894304833,
				"y": 1.1347976198,
				"z": 2.4181356338,
				"element": "H" 
			}
		],
		 "valence_orbital": [ 
			{
				"type": "occ",
				"energy": -0.31458,
				"method": "rhf"
			},
			{
				"type": "occ",
				"energy": -0.30541,
				"method": "rhf"
			},
			{
				"type": "occ",
				"energy": -0.27625,
				"method": "rhf"
			},
			{
				"type": "occ",
				"energy": -0.26236,
				"method": "rhf"
			},
			{
				"type": "occ",
				"energy": -0.24516,
				"method": "rhf"
			},
			{
				"type": "unocc",
				"energy": -0.07346,
				"method": "rhf"
			},
			{
				"type": "unocc",
				"energy": -0.02609,
				"method": "rhf"
			},
			{
				"type": "unocc",
				"energy": -0.00374,
				"method": "rhf"
			},
			{
				"type": "unocc",
				"energy": 0.03903,
				"method": "rhf"
			},
			{
				"type": "unocc",
				"energy": 0.04806,
				"method": "rhf"
			}
		],
		"cosmo_sigma_profile": { 
			"-0.025": 0.0,
			"-0.024": 0.0,
			"-0.023": 0.0,
			"-0.022": 0.0,
			"-0.021": 0.0,
			"-0.02": 0.0,
			"-0.019": 0.0,
			"-0.018": 0.0,
			"-0.017": 0.0792123740358,
			"-0.016": 0.917298654219,
			"-0.015": 1.4405325612,
			"-0.014": 1.29211206361,
			"-0.013": 1.04381926534,
			"-0.012": 0.99010328313,
			"-0.011": 1.63689811553,
			"-0.01": 2.24538708858,
			"-0.009": 7.30663314514,
			"-0.008": 10.2626926176,
			"-0.007": 12.0810385557,
			"-0.006": 13.9361836105,
			"-0.005": 18.5456519453,
			"-0.004": 17.9824188705,
			"-0.003": 14.3519017765,
			"-0.002": 11.8916412292,
			"-0.001": 14.9716550138,
			"0.0": 15.6633718783,
			"0.001": 16.8589137099,
			"0.002": 19.6810992228,
			"0.003": 21.8973695489,
			"0.004": 13.8216697547,
			"0.005": 11.1683677557,
			"0.006": 9.05689179301,
			"0.007": 4.53687719741,
			"0.008": 5.32027137932,
			"0.009": 6.23429509571,
			"0.01": 10.4385967916,
			"0.011": 12.3119669354,
			"0.012": 1.94368454026,
			"0.013": 0.0,
			"0.014": 0.0,
			"0.015": 0.0,
			"0.016": 0.0,
			"0.017": 0.0,
			"0.018": 0.0,
			"0.019": 0.0,
			"0.02": 0.0,
			"0.021": 0.0,
			"0.022": 0.0,
			"0.023": 0.0,
			"0.024": 0.0,
			"0.025": 0.0
		}
	}
}
