{
	 "smiles": "OC(=O)C1=C2C=CC=CC2=NC(=C1)C1=CC=C(C=C1)C1=CC=CC=C1", 
	 "Tm": 563.15, 
	 "num_atms": 40, 
	 "gaussian": { 
		 "optdone": 1, 
		 "sigma_profile": "yes", 
		 "theory": "DFT", 
		 "functional": "B3LYP", 
		 "basiset": "6-31G**", 
		 "properties": { 
			 "R2extent": 13752.9277, 
			 "electric_dipole_moment_norm": 3.4598994364, 
			 "electric_quadrupole_moment_norm": 23.2466775783, 
			 "total_energy": -1052.61172265, 
			 "HOMO_LUMO_gap": 0.13919, 
			 "cosmo_polarized_energy": -17.73, 
			 "cosmo_cavitation_energy": 44.72, 
			 "cosmo_dispersion_energy": -32.51, 
			 "cosmo_repulsion_energy": 2.38, 
			 "cosmo_total_nonelectrostatic_energy": 14.6, 
			 "SMD_solvation_energy": 6.93 
		},
		"coords": [
			{
				"x": 0.5692120881,
				"y": 0.0169469004,
				"z": 4.4468789716,
				"element": "O" 
			},
			{
				"x": 0.3543714427,
				"y": 1.2626346805,
				"z": 3.9460506181,
				"element": "C" 
			},
			{
				"x": -0.123110685,
				"y": 2.121308542,
				"z": 4.6480888318,
				"element": "O" 
			},
			{
				"x": 0.7263265663,
				"y": 1.4507322345,
				"z": 2.4988820607,
				"element": "C" 
			},
			{
				"x": 1.2560216913,
				"y": 2.6893067641,
				"z": 2.0188950115,
				"element": "C" 
			},
			{
				"x": 1.5271085738,
				"y": 3.8240176596,
				"z": 2.8285092651,
				"element": "C" 
			},
			{
				"x": 2.0588227637,
				"y": 4.9650227848,
				"z": 2.2677004114,
				"element": "C" 
			},
			{
				"x": 2.343112164,
				"y": 5.0283737557,
				"z": 0.8819730388,
				"element": "C" 
			},
			{
				"x": 2.0896418794,
				"y": 3.9461932663,
				"z": 0.0717196869,
				"element": "C" 
			},
			{
				"x": 1.5412882834,
				"y": 2.7526274898,
				"z": 0.6141633058,
				"element": "C" 
			},
			{
				"x": 1.3138892148,
				"y": 1.7195133399,
				"z": -0.2403525597,
				"element": "N" 
			},
			{
				"x": 0.8097988396,
				"y": 0.58497197,
				"z": 0.2213809029,
				"element": "C" 
			},
			{
				"x": 0.5057476215,
				"y": 0.4225895394,
				"z": 1.6050908952,
				"element": "C" 
			},
			{
				"x": 0.5652202338,
				"y": -0.5019330177,
				"z": -0.7620599111,
				"element": "C" 
			},
			{
				"x": 0.3106356264,
				"y": -1.8282972266,
				"z": -0.3768918853,
				"element": "C" 
			},
			{
				"x": 0.0845795203,
				"y": -2.8212305258,
				"z": -1.325240086,
				"element": "C" 
			},
			{
				"x": 0.1032230929,
				"y": -2.5325748671,
				"z": -2.6997130972,
				"element": "C" 
			},
			{
				"x": 0.3650422984,
				"y": -1.2043123095,
				"z": -3.082301979,
				"element": "C" 
			},
			{
				"x": 0.5928941318,
				"y": -0.2124892398,
				"z": -2.1373000557,
				"element": "C" 
			},
			{
				"x": -0.1422489641,
				"y": -3.5904197948,
				"z": -3.7106251816,
				"element": "C" 
			},
			{
				"x": -0.8626596473,
				"y": -3.3121854259,
				"z": -4.8852847976,
				"element": "C" 
			},
			{
				"x": -1.0943254679,
				"y": -4.3055349033,
				"z": -5.8354026305,
				"element": "C" 
			},
			{
				"x": -0.6106619547,
				"y": -5.5995259692,
				"z": -5.6326376015,
				"element": "C" 
			},
			{
				"x": 0.106997642,
				"y": -5.8910288289,
				"z": -4.4709707291,
				"element": "C" 
			},
			{
				"x": 0.3385683813,
				"y": -4.8977107415,
				"z": -3.5208019415,
				"element": "C" 
			},
			{
				"x": 1.0788445403,
				"y": -0.50719674,
				"z": 3.8125015759,
				"element": "H" 
			},
			{
				"x": 1.2925596875,
				"y": 3.785946143,
				"z": 3.8845647093,
				"element": "H" 
			},
			{
				"x": 2.2597152315,
				"y": 5.8278162362,
				"z": 2.8957491867,
				"element": "H" 
			},
			{
				"x": 2.7623241152,
				"y": 5.9375371156,
				"z": 0.4608458503,
				"element": "H" 
			},
			{
				"x": 2.2963369792,
				"y": 3.9621693712,
				"z": -0.9931329981,
				"element": "H" 
			},
			{
				"x": 0.0406067332,
				"y": -0.4958504288,
				"z": 1.9460997122,
				"element": "H" 
			},
			{
				"x": 0.2951423252,
				"y": -2.1065744116,
				"z": 0.672066533,
				"element": "H" 
			},
			{
				"x": -0.1318663038,
				"y": -3.8321840205,
				"z": -0.9937060462,
				"element": "H" 
			},
			{
				"x": 0.4133931034,
				"y": -0.9533307679,
				"z": -4.1376909657,
				"element": "H" 
			},
			{
				"x": 0.8054418124,
				"y": 0.804876052,
				"z": -2.4448255671,
				"element": "H" 
			},
			{
				"x": -1.2663750183,
				"y": -2.3161062601,
				"z": -5.0406034095,
				"element": "H" 
			},
			{
				"x": -1.6611686009,
				"y": -4.0701971,
				"z": -6.7317545746,
				"element": "H" 
			},
			{
				"x": -0.7910790349,
				"y": -6.3733941448,
				"z": -6.3730134625,
				"element": "H" 
			},
			{
				"x": 0.4955921112,
				"y": -6.8922814223,
				"z": -4.3076682528,
				"element": "H" 
			},
			{
				"x": 0.9216369821,
				"y": -5.1287256989,
				"z": -2.6341828348,
				"element": "H" 
			}
		],
		 "valence_orbital": [ 
			{
				"type": "occ",
				"energy": -0.25947,
				"method": "rhf"
			},
			{
				"type": "occ",
				"energy": -0.25877,
				"method": "rhf"
			},
			{
				"type": "occ",
				"energy": -0.25518,
				"method": "rhf"
			},
			{
				"type": "occ",
				"energy": -0.2442,
				"method": "rhf"
			},
			{
				"type": "occ",
				"energy": -0.22108,
				"method": "rhf"
			},
			{
				"type": "unocc",
				"energy": -0.08189,
				"method": "rhf"
			},
			{
				"type": "unocc",
				"energy": -0.05194,
				"method": "rhf"
			},
			{
				"type": "unocc",
				"energy": -0.01677,
				"method": "rhf"
			},
			{
				"type": "unocc",
				"energy": -0.01149,
				"method": "rhf"
			},
			{
				"type": "unocc",
				"energy": -0.00835,
				"method": "rhf"
			}
		],
		"cosmo_sigma_profile": { 
			"-0.025": 0.0,
			"-0.024": 0.0,
			"-0.023": 0.0,
			"-0.022": 0.0,
			"-0.021": 0.0,
			"-0.02": 0.0,
			"-0.019": 0.125983075953,
			"-0.018": 1.06501139464,
			"-0.017": 1.17208557112,
			"-0.016": 1.04993994735,
			"-0.015": 0.85559873126,
			"-0.014": 0.723550895164,
			"-0.013": 1.56358722845,
			"-0.012": 1.35870158416,
			"-0.011": 1.62481278375,
			"-0.01": 1.58445478524,
			"-0.009": 2.15805933269,
			"-0.008": 3.0759529991,
			"-0.007": 3.90880146705,
			"-0.006": 17.5532069734,
			"-0.005": 26.6924485838,
			"-0.004": 28.963779545,
			"-0.003": 24.3413593009,
			"-0.002": 21.1042118095,
			"-0.001": 24.0799689147,
			"0.0": 22.9015834226,
			"0.001": 25.4166924776,
			"0.002": 29.6450728956,
			"0.003": 32.3690814798,
			"0.004": 31.6144275833,
			"0.005": 19.6700012171,
			"0.006": 9.09674051306,
			"0.007": 3.72492903937,
			"0.008": 5.3716013989,
			"0.009": 4.68256654411,
			"0.01": 6.26622510894,
			"0.011": 4.80112572542,
			"0.012": 1.98537190092,
			"0.013": 0.186606934098,
			"0.014": 0.0,
			"0.015": 0.0,
			"0.016": 0.0,
			"0.017": 0.0,
			"0.018": 0.0,
			"0.019": 0.0,
			"0.02": 0.0,
			"0.021": 0.0,
			"0.022": 0.0,
			"0.023": 0.0,
			"0.024": 0.0,
			"0.0": 0.0
		}
	}
}
