{
	 "smiles": "CCCCCCCCCCCCCCCCCCO", 
	 "Tm": 332.65, 
	 "num_atms": 57, 
	 "gaussian": { 
		 "optdone": 1, 
		 "sigma_profile": "yes", 
		 "theory": "DFT", 
		 "functional": "B3LYP", 
		 "basiset": "6-31G**", 
		 "properties": { 
			 "R2extent": 9070.7573, 
			 "electric_dipole_moment_norm": 1.70776643895, 
			 "electric_quadrupole_moment_norm": 8.9416946962, 
			 "total_energy": -784.08077626, 
			 "HOMO_LUMO_gap": 0.32804, 
			 "cosmo_polarized_energy": -6.22, 
			 "cosmo_cavitation_energy": 53.6, 
			 "cosmo_dispersion_energy": -33.48, 
			 "cosmo_repulsion_energy": 2.64, 
			 "cosmo_total_nonelectrostatic_energy": 22.75, 
			 "SMD_solvation_energy": 6.8 
		},
		"coords": [
			{
				"x": 1.018602903,
				"y": 3.2538275564,
				"z": 2.9945917013,
				"element": "C" 
			},
			{
				"x": 1.5134014336,
				"y": 3.7405302712,
				"z": 1.6275839175,
				"element": "C" 
			},
			{
				"x": 1.0925872125,
				"y": 2.8108483352,
				"z": 0.4805837819,
				"element": "C" 
			},
			{
				"x": 1.5590212827,
				"y": 3.2496080876,
				"z": -0.9196901298,
				"element": "C" 
			},
			{
				"x": 3.0772991209,
				"y": 3.1587236693,
				"z": -1.180286983,
				"element": "C" 
			},
			{
				"x": 3.701578712,
				"y": 1.7451448167,
				"z": -1.1884072285,
				"element": "C" 
			},
			{
				"x": 3.6799081872,
				"y": 0.9921193124,
				"z": -2.534650815,
				"element": "C" 
			},
			{
				"x": 2.3091380848,
				"y": 0.5991791522,
				"z": -3.1139927337,
				"element": "C" 
			},
			{
				"x": 1.4725955384,
				"y": -0.3223642128,
				"z": -2.2169039907,
				"element": "C" 
			},
			{
				"x": 0.1279319497,
				"y": -0.7259098526,
				"z": -2.836888254,
				"element": "C" 
			},
			{
				"x": -0.766813618,
				"y": -1.5187152379,
				"z": -1.875997555,
				"element": "C" 
			},
			{
				"x": -2.1168888943,
				"y": -1.928946523,
				"z": -2.4847410846,
				"element": "C" 
			},
			{
				"x": -3.0928938833,
				"y": -2.6104096475,
				"z": -1.4981316758,
				"element": "C" 
			},
			{
				"x": -4.1214485365,
				"y": -1.6727805755,
				"z": -0.8337975142,
				"element": "C" 
			},
			{
				"x": -3.5714993712,
				"y": -0.5336578276,
				"z": 0.0433037076,
				"element": "C" 
			},
			{
				"x": -2.8791278808,
				"y": -1.0017198554,
				"z": 1.3333260369,
				"element": "C" 
			},
			{
				"x": -2.1948043233,
				"y": 0.121278153,
				"z": 2.1309055614,
				"element": "C" 
			},
			{
				"x": -3.1475589319,
				"y": 1.1853671186,
				"z": 2.6800289728,
				"element": "C" 
			},
			{
				"x": -2.4754635773,
				"y": 2.1978283941,
				"z": 3.4236532149,
				"element": "O" 
			},
			{
				"x": 1.4629778297,
				"y": 2.2831770065,
				"z": 3.2473269652,
				"element": "H" 
			},
			{
				"x": -0.0704434998,
				"y": 3.1325634791,
				"z": 3.0036181478,
				"element": "H" 
			},
			{
				"x": 1.2887057025,
				"y": 3.9565238294,
				"z": 3.790312951,
				"element": "H" 
			},
			{
				"x": 1.1206527289,
				"y": 4.7478312025,
				"z": 1.431903275,
				"element": "H" 
			},
			{
				"x": 2.6062914349,
				"y": 3.8398477402,
				"z": 1.6514135394,
				"element": "H" 
			},
			{
				"x": 1.4495099942,
				"y": 1.7934798495,
				"z": 0.6939733528,
				"element": "H" 
			},
			{
				"x": -0.0039750916,
				"y": 2.744930491,
				"z": 0.476742036,
				"element": "H" 
			},
			{
				"x": 1.2448768718,
				"y": 4.2905976327,
				"z": -1.0790499105,
				"element": "H" 
			},
			{
				"x": 1.0202388393,
				"y": 2.6599838045,
				"z": -1.6695917934,
				"element": "H" 
			},
			{
				"x": 3.5925990873,
				"y": 3.7617846239,
				"z": -0.4222509574,
				"element": "H" 
			},
			{
				"x": 3.2983603867,
				"y": 3.6469480814,
				"z": -2.139583507,
				"element": "H" 
			},
			{
				"x": 3.2440095841,
				"y": 1.1270252052,
				"z": -0.4061705666,
				"element": "H" 
			},
			{
				"x": 4.7559204394,
				"y": 1.8390438543,
				"z": -0.8984716186,
				"element": "H" 
			},
			{
				"x": 4.2083578431,
				"y": 1.6031422262,
				"z": -3.2795612006,
				"element": "H" 
			},
			{
				"x": 4.2793319727,
				"y": 0.0780689618,
				"z": -2.4186107253,
				"element": "H" 
			},
			{
				"x": 1.7292379624,
				"y": 1.5013225508,
				"z": -3.3483475813,
				"element": "H" 
			},
			{
				"x": 2.4768765294,
				"y": 0.0988988142,
				"z": -4.0779809077,
				"element": "H" 
			},
			{
				"x": 1.280660713,
				"y": 0.1722332828,
				"z": -1.256096294,
				"element": "H" 
			},
			{
				"x": 2.0526675768,
				"y": -1.2260605114,
				"z": -1.9798794397,
				"element": "H" 
			},
			{
				"x": -0.4074897931,
				"y": 0.1797120542,
				"z": -3.15723891,
				"element": "H" 
			},
			{
				"x": 0.3027091284,
				"y": -1.3115851608,
				"z": -3.7507611427,
				"element": "H" 
			},
			{
				"x": -0.2371187016,
				"y": -2.4227139447,
				"z": -1.5426060521,
				"element": "H" 
			},
			{
				"x": -0.9290966178,
				"y": -0.917700394,
				"z": -0.972491391,
				"element": "H" 
			},
			{
				"x": -1.9190918277,
				"y": -2.6062644098,
				"z": -3.3257668647,
				"element": "H" 
			},
			{
				"x": -2.6029068499,
				"y": -1.0463430311,
				"z": -2.9250470941,
				"element": "H" 
			},
			{
				"x": -2.5200262249,
				"y": -3.1515885382,
				"z": -0.7332978511,
				"element": "H" 
			},
			{
				"x": -3.6624400257,
				"y": -3.3802363378,
				"z": -2.0333154879,
				"element": "H" 
			},
			{
				"x": -4.8085838372,
				"y": -2.2812876456,
				"z": -0.2291739415,
				"element": "H" 
			},
			{
				"x": -4.7360645691,
				"y": -1.2281745668,
				"z": -1.6282881807,
				"element": "H" 
			},
			{
				"x": -4.4086150961,
				"y": 0.1275009598,
				"z": 0.3008552217,
				"element": "H" 
			},
			{
				"x": -2.8769489599,
				"y": 0.0837398551,
				"z": -0.5417072309,
				"element": "H" 
			},
			{
				"x": -2.121313715,
				"y": -1.7558071996,
				"z": 1.0902198848,
				"element": "H" 
			},
			{
				"x": -3.6153671558,
				"y": -1.5112694756,
				"z": 1.9717166311,
				"element": "H" 
			},
			{
				"x": -1.6519255004,
				"y": -0.324767107,
				"z": 2.9774307903,
				"element": "H" 
			},
			{
				"x": -1.4397110618,
				"y": 0.6180456213,
				"z": 1.5082126099,
				"element": "H" 
			},
			{
				"x": -3.6512886116,
				"y": 1.7140661375,
				"z": 1.8653898828,
				"element": "H" 
			},
			{
				"x": -3.9332433037,
				"y": 0.7052647573,
				"z": 3.2877145233,
				"element": "H" 
			},
			{
				"x": -2.00409959,
				"y": 1.7664151668,
				"z": 4.1483699078,
				"element": "H" 
			}
		],
		 "valence_orbital": [ 
			{
				"type": "occ",
				"energy": -0.3027,
				"method": "rhf"
			},
			{
				"type": "occ",
				"energy": -0.29844,
				"method": "rhf"
			},
			{
				"type": "occ",
				"energy": -0.29325,
				"method": "rhf"
			},
			{
				"type": "occ",
				"energy": -0.28981,
				"method": "rhf"
			},
			{
				"type": "occ",
				"energy": -0.26366,
				"method": "rhf"
			},
			{
				"type": "unocc",
				"energy": 0.06438,
				"method": "rhf"
			},
			{
				"type": "unocc",
				"energy": 0.07371,
				"method": "rhf"
			},
			{
				"type": "unocc",
				"energy": 0.08245,
				"method": "rhf"
			},
			{
				"type": "unocc",
				"energy": 0.09365,
				"method": "rhf"
			},
			{
				"type": "unocc",
				"energy": 0.09489,
				"method": "rhf"
			}
		],
		"cosmo_sigma_profile": { 
			"-0.025": 0.0,
			"-0.024": 0.0,
			"-0.023": 0.0,
			"-0.022": 0.0,
			"-0.021": 0.0,
			"-0.02": 0.0,
			"-0.019": 0.0,
			"-0.018": 0.0,
			"-0.017": 0.0,
			"-0.016": 0.0,
			"-0.015": 0.284987220058,
			"-0.014": 1.06467517282,
			"-0.013": 0.74545312311,
			"-0.012": 0.885579701627,
			"-0.011": 0.611504493461,
			"-0.01": 0.791217525395,
			"-0.009": 0.967868699163,
			"-0.008": 0.748373490728,
			"-0.007": 1.46768399253,
			"-0.006": 1.29868734447,
			"-0.005": 0.991022028961,
			"-0.004": 2.39054571634,
			"-0.003": 10.0867603592,
			"-0.002": 49.1348044711,
			"-0.001": 93.7097875655,
			"0.0": 102.998447861,
			"0.001": 80.109714794,
			"0.002": 37.7304092283,
			"0.003": 5.61720880747,
			"0.004": 1.83543261435,
			"0.005": 2.05097340033,
			"0.006": 1.80812507006,
			"0.007": 1.71114240333,
			"0.008": 1.17025766492,
			"0.009": 1.43390398678,
			"0.01": 1.36779692895,
			"0.011": 0.774948727806,
			"0.012": 1.26866530968,
			"0.013": 1.28257879357,
			"0.014": 1.58181018739,
			"0.015": 0.749078867273,
			"0.016": 0.0,
			"0.017": 0.0,
			"0.018": 0.0,
			"0.019": 0.0,
			"0.02": 0.0,
			"0.021": 0.0,
			"0.022": 0.0,
			"0.023": 0.0,
			"0.024": 0.0,
			"0.025": 0.0
		}
	}
}
