{
	 "smiles": "CC(=O)C1(C)CCC2C3C=C(C)C4=CC(=O)CCC4(C)C3CCC12C", 
	 "Tm": 417.15, 
	 "num_atms": 57, 
	 "gaussian": { 
		 "optdone": 1, 
		 "sigma_profile": "yes", 
		 "theory": "DFT", 
		 "functional": "B3LYP", 
		 "basiset": "6-31G**", 
		 "properties": { 
			 "R2extent": 9875.0392, 
			 "electric_dipole_moment_norm": 2.04783159952, 
			 "electric_quadrupole_moment_norm": 49.3777958829, 
			 "total_energy": -1046.15866634, 
			 "HOMO_LUMO_gap": 0.1687, 
			 "cosmo_polarized_energy": -16.03, 
			 "cosmo_cavitation_energy": 49.05, 
			 "cosmo_dispersion_energy": -33.68, 
			 "cosmo_repulsion_energy": 2.44, 
			 "cosmo_total_nonelectrostatic_energy": 17.81, 
			 "SMD_solvation_energy": 8.53 
		},
		"coords": [
			{
				"x": 2.6008246362,
				"y": 3.0937712806,
				"z": 2.84898873,
				"element": "C" 
			},
			{
				"x": 3.0702594873,
				"y": 1.6700313218,
				"z": 2.5756266207,
				"element": "C" 
			},
			{
				"x": 4.2635066964,
				"y": 1.4273029846,
				"z": 2.6231066927,
				"element": "O" 
			},
			{
				"x": 2.0583769991,
				"y": 0.5340491181,
				"z": 2.2486108238,
				"element": "C" 
			},
			{
				"x": 2.7447215267,
				"y": -0.7776951271,
				"z": 2.6716946772,
				"element": "C" 
			},
			{
				"x": 0.7132550312,
				"y": 0.7273739869,
				"z": 2.9922284034,
				"element": "C" 
			},
			{
				"x": -0.1536019803,
				"y": 1.6474643943,
				"z": 2.1197734885,
				"element": "C" 
			},
			{
				"x": 0.2928216861,
				"y": 1.40761469,
				"z": 0.648587258,
				"element": "C" 
			},
			{
				"x": -0.8315850089,
				"y": 0.7394778729,
				"z": -0.1816701114,
				"element": "C" 
			},
			{
				"x": -0.582337194,
				"y": 0.7078054713,
				"z": -1.6704823472,
				"element": "C" 
			},
			{
				"x": -1.4154950065,
				"y": 0.0449251962,
				"z": -2.4949225253,
				"element": "C" 
			},
			{
				"x": -1.2673533411,
				"y": 0.0676477922,
				"z": -3.9959436787,
				"element": "C" 
			},
			{
				"x": -2.5799994988,
				"y": -0.6092012682,
				"z": -1.8683536391,
				"element": "C" 
			},
			{
				"x": -3.7966436087,
				"y": -0.5898549358,
				"z": -2.4684602579,
				"element": "C" 
			},
			{
				"x": -5.0423182739,
				"y": -1.0525518407,
				"z": -1.8387438127,
				"element": "C" 
			},
			{
				"x": -6.1080278354,
				"y": -1.0387453678,
				"z": -2.4433309161,
				"element": "O" 
			},
			{
				"x": -4.9622987295,
				"y": -1.5242252951,
				"z": -0.3902116969,
				"element": "C" 
			},
			{
				"x": -3.6816865551,
				"y": -1.0841942614,
				"z": 0.3302814204,
				"element": "C" 
			},
			{
				"x": -2.389147242,
				"y": -1.2959753041,
				"z": -0.5035342437,
				"element": "C" 
			},
			{
				"x": -2.2127500857,
				"y": -2.8096800336,
				"z": -0.7884199896,
				"element": "C" 
			},
			{
				"x": -1.1745327073,
				"y": -0.6892802717,
				"z": 0.3157220622,
				"element": "C" 
			},
			{
				"x": 0.124664829,
				"y": -1.5503158631,
				"z": 0.4323116249,
				"element": "C" 
			},
			{
				"x": 1.4216576342,
				"y": -0.8099875759,
				"z": 0.0689639986,
				"element": "C" 
			},
			{
				"x": 1.6456466738,
				"y": 0.5932552778,
				"z": 0.6934201361,
				"element": "C" 
			},
			{
				"x": 2.7420952867,
				"y": 1.2728500127,
				"z": -0.1566661905,
				"element": "C" 
			},
			{
				"x": 3.4806918977,
				"y": 3.7095195836,
				"z": 3.0403885338,
				"element": "H" 
			},
			{
				"x": 2.0480962269,
				"y": 3.5067168956,
				"z": 1.9998990303,
				"element": "H" 
			},
			{
				"x": 1.9360052284,
				"y": 3.1349755319,
				"z": 3.7177368288,
				"element": "H" 
			},
			{
				"x": 2.0843543489,
				"y": -1.6360217191,
				"z": 2.5333491725,
				"element": "H" 
			},
			{
				"x": 3.0146233079,
				"y": -0.7325175219,
				"z": 3.7314710265,
				"element": "H" 
			},
			{
				"x": 3.6706050218,
				"y": -0.9443457103,
				"z": 2.1181971926,
				"element": "H" 
			},
			{
				"x": 0.2322789972,
				"y": -0.2517870098,
				"z": 3.0918536538,
				"element": "H" 
			},
			{
				"x": 0.8457974727,
				"y": 1.1042548138,
				"z": 4.0126300569,
				"element": "H" 
			},
			{
				"x": -1.2209095918,
				"y": 1.4489709864,
				"z": 2.2623870814,
				"element": "H" 
			},
			{
				"x": -0.006825701,
				"y": 2.6952141441,
				"z": 2.3928537248,
				"element": "H" 
			},
			{
				"x": 0.4870888452,
				"y": 2.3785146405,
				"z": 0.1756998378,
				"element": "H" 
			},
			{
				"x": -1.7260678869,
				"y": 1.3620801633,
				"z": -0.0213325659,
				"element": "H" 
			},
			{
				"x": 0.2433239975,
				"y": 1.2845929212,
				"z": -2.0833438427,
				"element": "H" 
			},
			{
				"x": -2.0856532659,
				"y": 0.6172770208,
				"z": -4.4757875872,
				"element": "H" 
			},
			{
				"x": -1.2779549604,
				"y": -0.9449405852,
				"z": -4.4144168384,
				"element": "H" 
			},
			{
				"x": -0.3303679663,
				"y": 0.5511948787,
				"z": -4.2852537504,
				"element": "H" 
			},
			{
				"x": -3.9287154032,
				"y": -0.1548945839,
				"z": -3.4549973669,
				"element": "H" 
			},
			{
				"x": -5.0490127803,
				"y": -2.618297778,
				"z": -0.4006211293,
				"element": "H" 
			},
			{
				"x": -5.8575746891,
				"y": -1.1615312989,
				"z": 0.1246646404,
				"element": "H" 
			},
			{
				"x": -3.5861326395,
				"y": -1.6211538119,
				"z": 1.2821025898,
				"element": "H" 
			},
			{
				"x": -3.7585989448,
				"y": -0.0180191849,
				"z": 0.5800278165,
				"element": "H" 
			},
			{
				"x": -2.0174992073,
				"y": -3.3653921778,
				"z": 0.1351729502,
				"element": "H" 
			},
			{
				"x": -3.1113012628,
				"y": -3.2242889685,
				"z": -1.2498322167,
				"element": "H" 
			},
			{
				"x": -1.3886380426,
				"y": -2.9988151171,
				"z": -1.4812317849,
				"element": "H" 
			},
			{
				"x": -1.5569660554,
				"y": -0.5762219651,
				"z": 1.3356239549,
				"element": "H" 
			},
			{
				"x": 0.0815784014,
				"y": -2.4317741063,
				"z": -0.208277934,
				"element": "H" 
			},
			{
				"x": 0.189073674,
				"y": -1.9423246459,
				"z": 1.4531565554,
				"element": "H" 
			},
			{
				"x": 1.4237897964,
				"y": -0.6740614034,
				"z": -1.0181928968,
				"element": "H" 
			},
			{
				"x": 2.2794007911,
				"y": -1.4562489019,
				"z": 0.2787308315,
				"element": "H" 
			},
			{
				"x": 2.4623851431,
				"y": 1.2708807749,
				"z": -1.2148504496,
				"element": "H" 
			},
			{
				"x": 2.9127196258,
				"y": 2.314908324,
				"z": 0.1292256765,
				"element": "H" 
			},
			{
				"x": 3.6978522017,
				"y": 0.7471735563,
				"z": -0.0640093188,
				"element": "H" 
			}
		],
		 "valence_orbital": [ 
			{
				"type": "occ",
				"energy": -0.29325,
				"method": "rhf"
			},
			{
				"type": "occ",
				"energy": -0.27772,
				"method": "rhf"
			},
			{
				"type": "occ",
				"energy": -0.24005,
				"method": "rhf"
			},
			{
				"type": "occ",
				"energy": -0.23353,
				"method": "rhf"
			},
			{
				"type": "occ",
				"energy": -0.22809,
				"method": "rhf"
			},
			{
				"type": "unocc",
				"energy": -0.05939,
				"method": "rhf"
			},
			{
				"type": "unocc",
				"energy": -0.01554,
				"method": "rhf"
			},
			{
				"type": "unocc",
				"energy": 0.01942,
				"method": "rhf"
			},
			{
				"type": "unocc",
				"energy": 0.05692,
				"method": "rhf"
			},
			{
				"type": "unocc",
				"energy": 0.06169,
				"method": "rhf"
			}
		],
		"cosmo_sigma_profile": { 
			"-0.025": 0.0,
			"-0.024": 0.0,
			"-0.023": 0.0,
			"-0.022": 0.0,
			"-0.021": 0.0,
			"-0.02": 0.0,
			"-0.019": 0.0,
			"-0.018": 0.0,
			"-0.017": 0.0,
			"-0.016": 0.0,
			"-0.015": 0.0,
			"-0.014": 0.0,
			"-0.013": 0.0,
			"-0.012": 0.0,
			"-0.011": 0.0,
			"-0.01": 0.0,
			"-0.009": 0.0,
			"-0.008": 0.0,
			"-0.007": 0.0656557161886,
			"-0.006": 3.65046885083,
			"-0.005": 16.2424038286,
			"-0.004": 30.6709292418,
			"-0.003": 54.6359615238,
			"-0.002": 59.8749256988,
			"-0.001": 54.4782173646,
			"0.0": 46.6757369117,
			"0.001": 37.8451352743,
			"0.002": 15.7236239894,
			"0.003": 9.56115022308,
			"0.004": 6.01119459324,
			"0.005": 4.50393221265,
			"0.006": 2.84921352148,
			"0.007": 2.94012812888,
			"0.008": 3.06784079215,
			"0.009": 3.38980945308,
			"0.01": 2.78597954974,
			"0.011": 4.25735172244,
			"0.012": 6.65464535012,
			"0.013": 7.65139869267,
			"0.014": 3.99254425682,
			"0.015": 1.0936502015,
			"0.016": 0.0,
			"0.017": 0.0,
			"0.018": 0.0,
			"0.019": 0.0,
			"0.02": 0.0,
			"0.021": 0.0,
			"0.022": 0.0,
			"0.023": 0.0,
			"0.024": 0.0,
			"0.025": 0.0
		}
	}
}
