{
	 "smiles": "OC1=CC=C(C(=O)COC2=CC=CC=C2)C(O)=C1", 
	 "Tm": 481.15, 
	 "num_atms": 30, 
	 "gaussian": { 
		 "optdone": 1, 
		 "sigma_profile": "yes", 
		 "theory": "DFT", 
		 "functional": "B3LYP", 
		 "basiset": "6-31G**", 
		 "properties": { 
			 "R2extent": 6452.1257, 
			 "electric_dipole_moment_norm": 5.55224076387, 
			 "electric_quadrupole_moment_norm": 14.7333993152, 
			 "total_energy": -841.594415614, 
			 "HOMO_LUMO_gap": 0.15745, 
			 "cosmo_polarized_energy": -21.64, 
			 "cosmo_cavitation_energy": 34.69, 
			 "cosmo_dispersion_energy": -25.32, 
			 "cosmo_repulsion_energy": 1.95, 
			 "cosmo_total_nonelectrostatic_energy": 11.31, 
			 "SMD_solvation_energy": 7.17 
		},
		"coords": [
			{
				"x": -3.8851258539,
				"y": -4.9557623227,
				"z": 0.3357729547,
				"element": "O" 
			},
			{
				"x": -2.9175576885,
				"y": -4.0306912476,
				"z": 0.1031644417,
				"element": "C" 
			},
			{
				"x": -1.5908164064,
				"y": -4.1946491527,
				"z": 0.529079452,
				"element": "C" 
			},
			{
				"x": -0.6686313105,
				"y": -3.200277015,
				"z": 0.2488349481,
				"element": "C" 
			},
			{
				"x": -1.0066487452,
				"y": -2.0257722186,
				"z": -0.4476169744,
				"element": "C" 
			},
			{
				"x": 0.1008411351,
				"y": -1.0460751391,
				"z": -0.6747523201,
				"element": "C" 
			},
			{
				"x": 1.2291203649,
				"y": -1.2847644143,
				"z": -0.2736546196,
				"element": "O" 
			},
			{
				"x": -0.1745256903,
				"y": 0.2672878868,
				"z": -1.4212213436,
				"element": "C" 
			},
			{
				"x": 0.9919375606,
				"y": 1.0344034792,
				"z": -1.6139074402,
				"element": "O" 
			},
			{
				"x": 1.4688786847,
				"y": 1.8142078034,
				"z": -0.594397629,
				"element": "C" 
			},
			{
				"x": 0.9340465069,
				"y": 1.8633479588,
				"z": 0.6975787609,
				"element": "C" 
			},
			{
				"x": 1.4940614836,
				"y": 2.7295051372,
				"z": 1.6411475246,
				"element": "C" 
			},
			{
				"x": 2.5793902513,
				"y": 3.540782172,
				"z": 1.3161400572,
				"element": "C" 
			},
			{
				"x": 3.1122906364,
				"y": 3.4789776946,
				"z": 0.0243818593,
				"element": "C" 
			},
			{
				"x": 2.5630967297,
				"y": 2.625377941,
				"z": -0.9264620676,
				"element": "C" 
			},
			{
				"x": -2.3497222584,
				"y": -1.8874952913,
				"z": -0.8652938265,
				"element": "C" 
			},
			{
				"x": -2.7152604998,
				"y": -0.7623247401,
				"z": -1.5456209299,
				"element": "O" 
			},
			{
				"x": -3.29255732,
				"y": -2.8797340198,
				"z": -0.5914990145,
				"element": "C" 
			},
			{
				"x": -3.5046523852,
				"y": -5.70084011,
				"z": 0.8195940414,
				"element": "H" 
			},
			{
				"x": -1.2944088831,
				"y": -5.0896726418,
				"z": 1.0702947832,
				"element": "H" 
			},
			{
				"x": 0.3646934318,
				"y": -3.2980471371,
				"z": 0.5640841957,
				"element": "H" 
			},
			{
				"x": -0.9633525262,
				"y": 0.8360720128,
				"z": -0.9133048618,
				"element": "H" 
			},
			{
				"x": -0.5559537009,
				"y": 0.0363382522,
				"z": -2.4200032182,
				"element": "H" 
			},
			{
				"x": 0.1062974488,
				"y": 1.2266188871,
				"z": 0.986030676,
				"element": "H" 
			},
			{
				"x": 1.074430114,
				"y": 2.7579403108,
				"z": 2.6431008949,
				"element": "H" 
			},
			{
				"x": 3.0088721313,
				"y": 4.2077820193,
				"z": 2.0572802624,
				"element": "H" 
			},
			{
				"x": 3.9604068203,
				"y": 4.1021273811,
				"z": -0.2458369477,
				"element": "H" 
			},
			{
				"x": 2.9608707241,
				"y": 2.5673787557,
				"z": -1.9343971529,
				"element": "H" 
			},
			{
				"x": -3.6552262785,
				"y": -0.8117737306,
				"z": -1.7640560924,
				"element": "H" 
			},
			{
				"x": -4.3250944766,
				"y": -2.7734685113,
				"z": -0.9126604135,
				"element": "H" 
			}
		],
		 "valence_orbital": [ 
			{
				"type": "occ",
				"energy": -0.25325,
				"method": "rhf"
			},
			{
				"type": "occ",
				"energy": -0.24935,
				"method": "rhf"
			},
			{
				"type": "occ",
				"energy": -0.23734,
				"method": "rhf"
			},
			{
				"type": "occ",
				"energy": -0.23559,
				"method": "rhf"
			},
			{
				"type": "occ",
				"energy": -0.20507,
				"method": "rhf"
			},
			{
				"type": "unocc",
				"energy": -0.04762,
				"method": "rhf"
			},
			{
				"type": "unocc",
				"energy": -0.00765,
				"method": "rhf"
			},
			{
				"type": "unocc",
				"energy": 0.01209,
				"method": "rhf"
			},
			{
				"type": "unocc",
				"energy": 0.02621,
				"method": "rhf"
			},
			{
				"type": "unocc",
				"energy": 0.04354,
				"method": "rhf"
			}
		],
		"cosmo_sigma_profile": { 
			"-0.025": 0.0,
			"-0.024": 0.0,
			"-0.023": 0.0,
			"-0.022": 0.0,
			"-0.021": 0.0,
			"-0.02": 0.0,
			"-0.019": 0.398404343507,
			"-0.018": 2.00253399161,
			"-0.017": 2.72562839951,
			"-0.016": 2.1935898535,
			"-0.015": 1.72762214853,
			"-0.014": 2.00877980092,
			"-0.013": 1.81844805122,
			"-0.012": 2.58723837556,
			"-0.011": 1.92705850046,
			"-0.01": 2.12939009158,
			"-0.009": 2.09621604924,
			"-0.008": 2.93202066556,
			"-0.007": 6.42205254993,
			"-0.006": 10.7742969391,
			"-0.005": 16.5608187877,
			"-0.004": 17.6385759257,
			"-0.003": 16.3851514021,
			"-0.002": 14.0289529611,
			"-0.001": 13.2767082745,
			"0.0": 14.8379856534,
			"0.001": 17.2735747531,
			"0.002": 19.1399572385,
			"0.003": 26.8365660192,
			"0.004": 19.5728418943,
			"0.005": 15.1735131086,
			"0.006": 13.2613167594,
			"0.007": 5.50575095663,
			"0.008": 4.97874571311,
			"0.009": 4.39219907566,
			"0.01": 5.6216648277,
			"0.011": 4.20541265035,
			"0.012": 4.23421575571,
			"0.013": 2.17897452343,
			"0.014": 0.054316576511,
			"0.015": 0.0,
			"0.016": 0.0,
			"0.017": 0.0,
			"0.018": 0.0,
			"0.019": 0.0,
			"0.02": 0.0,
			"0.021": 0.0,
			"0.022": 0.0,
			"0.023": 0.0,
			"0.024": 0.0,
			"0.025": 0.0
		}
	}
}
