{
	 "smiles": "O=C1NN=NC2=C1C=NN2C1=CC=CC=C1", 
	 "Tm": 418.15, 
	 "num_atms": 23, 
	 "gaussian": { 
		 "optdone": 1, 
		 "sigma_profile": "yes", 
		 "theory": "DFT", 
		 "functional": "B3LYP", 
		 "basiset": "6-31G**", 
		 "properties": { 
			 "R2extent": 3998.4072, 
			 "electric_dipole_moment_norm": 1.95411937455, 
			 "electric_quadrupole_moment_norm": 6.97346394628, 
			 "total_energy": -734.198902117, 
			 "HOMO_LUMO_gap": 0.15544, 
			 "cosmo_polarized_energy": -11.98, 
			 "cosmo_cavitation_energy": 28.21, 
			 "cosmo_dispersion_energy": -21.37, 
			 "cosmo_repulsion_energy": 1.62, 
			 "cosmo_total_nonelectrostatic_energy": 8.45, 
			 "SMD_solvation_energy": 4.13 
		},
		"coords": [
			{
				"x": 2.88981804,
				"y": -3.3423529982,
				"z": 1.2553082029,
				"element": "O" 
			},
			{
				"x": 1.7975203994,
				"y": -2.9211748689,
				"z": 0.9198852281,
				"element": "C" 
			},
			{
				"x": 0.659100849,
				"y": -3.7777142926,
				"z": 0.9072760687,
				"element": "N" 
			},
			{
				"x": -0.6233058699,
				"y": -3.5196037807,
				"z": 0.5750307103,
				"element": "N" 
			},
			{
				"x": -0.9515251589,
				"y": -2.340946982,
				"z": 0.2005533554,
				"element": "N" 
			},
			{
				"x": 0.046583943,
				"y": -1.4006910947,
				"z": 0.1622883122,
				"element": "C" 
			},
			{
				"x": 1.3896727639,
				"y": -1.6073539223,
				"z": 0.4937880612,
				"element": "C" 
			},
			{
				"x": 2.0094563885,
				"y": -0.3562874433,
				"z": 0.2965278526,
				"element": "C" 
			},
			{
				"x": 1.1302162149,
				"y": 0.542415,
				"z": -0.1190546125,
				"element": "N" 
			},
			{
				"x": -0.0784311061,
				"y": -0.0858116386,
				"z": -0.2055938023,
				"element": "N" 
			},
			{
				"x": -1.2199931002,
				"y": 0.6647569708,
				"z": -0.6367332717,
				"element": "C" 
			},
			{
				"x": -1.0450977168,
				"y": 2.0184853266,
				"z": -0.9514757721,
				"element": "C" 
			},
			{
				"x": -2.1389388557,
				"y": 2.770188974,
				"z": -1.3729605524,
				"element": "C" 
			},
			{
				"x": -3.4028777823,
				"y": 2.1874411746,
				"z": -1.4837201144,
				"element": "C" 
			},
			{
				"x": -3.5640964993,
				"y": 0.8386830238,
				"z": -1.1674796166,
				"element": "C" 
			},
			{
				"x": -2.4816910809,
				"y": 0.0674487958,
				"z": -0.7433018205,
				"element": "C" 
			},
			{
				"x": 0.8125600977,
				"y": -4.7395709372,
				"z": 1.189260979,
				"element": "H" 
			},
			{
				"x": 3.0447864703,
				"y": -0.0814400046,
				"z": 0.4391333997,
				"element": "H" 
			},
			{
				"x": -0.0621710314,
				"y": 2.4617761506,
				"z": -0.8628014418,
				"element": "H" 
			},
			{
				"x": -1.9977498036,
				"y": 3.8191727717,
				"z": -1.6156679897,
				"element": "H" 
			},
			{
				"x": -4.2520043044,
				"y": 2.7785833313,
				"z": -1.8128760202,
				"element": "H" 
			},
			{
				"x": -4.5412266317,
				"y": 0.3720817174,
				"z": -1.2489626919,
				"element": "H" 
			},
			{
				"x": -2.6133062257,
				"y": -0.9779852737,
				"z": -0.499524464,
				"element": "H" 
			}
		],
		 "valence_orbital": [ 
			{
				"type": "occ",
				"energy": -0.30077,
				"method": "rhf"
			},
			{
				"type": "occ",
				"energy": -0.26961,
				"method": "rhf"
			},
			{
				"type": "occ",
				"energy": -0.26459,
				"method": "rhf"
			},
			{
				"type": "occ",
				"energy": -0.26098,
				"method": "rhf"
			},
			{
				"type": "occ",
				"energy": -0.24071,
				"method": "rhf"
			},
			{
				"type": "unocc",
				"energy": -0.08527,
				"method": "rhf"
			},
			{
				"type": "unocc",
				"energy": -0.03167,
				"method": "rhf"
			},
			{
				"type": "unocc",
				"energy": -0.01931,
				"method": "rhf"
			},
			{
				"type": "unocc",
				"energy": -0.00912,
				"method": "rhf"
			},
			{
				"type": "unocc",
				"energy": 0.03574,
				"method": "rhf"
			}
		],
		"cosmo_sigma_profile": { 
			"-0.025": 0.0,
			"-0.024": 0.0,
			"-0.023": 0.0,
			"-0.022": 0.0,
			"-0.021": 0.0,
			"-0.02": 0.0,
			"-0.019": 0.0,
			"-0.018": 0.269509176323,
			"-0.017": 1.16598437787,
			"-0.016": 1.17280240649,
			"-0.015": 0.979232181917,
			"-0.014": 0.780279355422,
			"-0.013": 0.75902568687,
			"-0.012": 1.27673517162,
			"-0.011": 0.304709197146,
			"-0.01": 1.90171230155,
			"-0.009": 3.10966511414,
			"-0.008": 1.80521810926,
			"-0.007": 4.43946855487,
			"-0.006": 10.8977527048,
			"-0.005": 13.8245348368,
			"-0.004": 17.3213075373,
			"-0.003": 18.4412025632,
			"-0.002": 16.8859815232,
			"-0.001": 15.9672689686,
			"0.0": 14.5194631582,
			"0.001": 14.5703097058,
			"0.002": 16.4280458896,
			"0.003": 13.762479678,
			"0.004": 15.6790565905,
			"0.005": 8.93523641254,
			"0.006": 5.0079128467,
			"0.007": 5.50651084405,
			"0.008": 5.31245870948,
			"0.009": 3.96738435127,
			"0.01": 3.0549986914,
			"0.011": 3.94862572488,
			"0.012": 5.77147982232,
			"0.013": 0.952464682025,
			"0.014": 0.0,
			"0.015": 0.0,
			"0.016": 0.0,
			"0.017": 0.0,
			"0.018": 0.0,
			"0.019": 0.0,
			"0.02": 0.0,
			"0.021": 0.0,
			"0.022": 0.0,
			"0.023": 0.0,
			"0.024": 0.0,
			"0.025": 0.0
		}
	}
}
