{
	 "smiles": "OCC(O)COCC=C", 
	 "Tm": 173.15, 
	 "num_atms": 21, 
	 "gaussian": { 
		 "optdone": 1, 
		 "sigma_profile": "yes", 
		 "theory": "DFT", 
		 "functional": "B3LYP", 
		 "basiset": "6-31G**", 
		 "properties": { 
			 "R2extent": 2301.6858, 
			 "electric_dipole_moment_norm": 3.81892310868, 
			 "electric_quadrupole_moment_norm": 7.6444190865, 
			 "total_energy": -461.485747001, 
			 "HOMO_LUMO_gap": 0.2453, 
			 "cosmo_polarized_energy": -10.42, 
			 "cosmo_cavitation_energy": 24.11, 
			 "cosmo_dispersion_energy": -17.35, 
			 "cosmo_repulsion_energy": 1.47, 
			 "cosmo_total_nonelectrostatic_energy": 8.22, 
			 "SMD_solvation_energy": 4.83 
		},
		"coords": [
			{
				"x": 2.0489617264,
				"y": -2.3623036999,
				"z": -1.5418099022,
				"element": "O" 
			},
			{
				"x": 1.0619789349,
				"y": -1.4738330622,
				"z": -1.0564868161,
				"element": "C" 
			},
			{
				"x": 1.6710530956,
				"y": -0.0867433442,
				"z": -0.815553308,
				"element": "C" 
			},
			{
				"x": 2.3575388598,
				"y": 0.3314612371,
				"z": -1.9974374218,
				"element": "O" 
			},
			{
				"x": 0.6460915356,
				"y": 0.9678634502,
				"z": -0.4070277007,
				"element": "C" 
			},
			{
				"x": -0.1775502746,
				"y": 1.2014321513,
				"z": -1.5438527222,
				"element": "O" 
			},
			{
				"x": -1.026468034,
				"y": 2.3473088787,
				"z": -1.454897377,
				"element": "C" 
			},
			{
				"x": -2.2382541191,
				"y": 2.1293077099,
				"z": -0.5894818933,
				"element": "C" 
			},
			{
				"x": -3.4911996904,
				"y": 2.2292808399,
				"z": -1.0320385055,
				"element": "C" 
			},
			{
				"x": 2.543655813,
				"y": -1.8461407631,
				"z": -2.1974902611,
				"element": "H" 
			},
			{
				"x": 0.6746213106,
				"y": -1.8888701987,
				"z": -0.1184353887,
				"element": "H" 
			},
			{
				"x": 0.2153703934,
				"y": -1.3781680787,
				"z": -1.7557263308,
				"element": "H" 
			},
			{
				"x": 2.4343548523,
				"y": -0.1690727056,
				"z": -0.0329119067,
				"element": "H" 
			},
			{
				"x": 1.6668132578,
				"y": 0.6993593821,
				"z": -2.5717606938,
				"element": "H" 
			},
			{
				"x": 0.0589779305,
				"y": 0.6184510513,
				"z": 0.4555939274,
				"element": "H" 
			},
			{
				"x": 1.1616943933,
				"y": 1.8971452139,
				"z": -0.1186174782,
				"element": "H" 
			},
			{
				"x": -1.3350832559,
				"y": 2.5717164075,
				"z": -2.4805700651,
				"element": "H" 
			},
			{
				"x": -0.4399895079,
				"y": 3.204194587,
				"z": -1.082435482,
				"element": "H" 
			},
			{
				"x": -2.0556257758,
				"y": 1.8940380502,
				"z": 0.4584401663,
				"element": "H" 
			},
			{
				"x": -3.7105369821,
				"y": 2.4649176148,
				"z": -2.0711158234,
				"element": "H" 
			},
			{
				"x": -4.3447044632,
				"y": 2.0858552784,
				"z": -0.3760850173,
				"element": "H" 
			}
		],
		 "valence_orbital": [ 
			{
				"type": "occ",
				"energy": -0.32194,
				"method": "rhf"
			},
			{
				"type": "occ",
				"energy": -0.28496,
				"method": "rhf"
			},
			{
				"type": "occ",
				"energy": -0.27826,
				"method": "rhf"
			},
			{
				"type": "occ",
				"energy": -0.27039,
				"method": "rhf"
			},
			{
				"type": "occ",
				"energy": -0.24764,
				"method": "rhf"
			},
			{
				"type": "unocc",
				"energy": -0.00234,
				"method": "rhf"
			},
			{
				"type": "unocc",
				"energy": 0.08465,
				"method": "rhf"
			},
			{
				"type": "unocc",
				"energy": 0.09191,
				"method": "rhf"
			},
			{
				"type": "unocc",
				"energy": 0.10788,
				"method": "rhf"
			},
			{
				"type": "unocc",
				"energy": 0.11282,
				"method": "rhf"
			}
		],
		"cosmo_sigma_profile": { 
			"-0.025": 0.0,
			"-0.024": 0.0,
			"-0.023": 0.0,
			"-0.022": 0.0,
			"-0.021": 0.0,
			"-0.02": 0.0,
			"-0.019": 0.0,
			"-0.018": 0.0,
			"-0.017": 0.0,
			"-0.016": 0.0,
			"-0.015": 0.0,
			"-0.014": 0.0,
			"-0.013": 0.0,
			"-0.012": 0.369223880191,
			"-0.011": 1.03352477772,
			"-0.01": 0.824562371166,
			"-0.009": 0.753448373891,
			"-0.008": 1.29147766266,
			"-0.007": 1.4194414038,
			"-0.006": 3.93985231689,
			"-0.005": 26.4196130431,
			"-0.004": 24.1226578189,
			"-0.003": 19.2483931789,
			"-0.002": 16.334899074,
			"-0.001": 12.8362759945,
			"0.0": 10.8042608066,
			"0.001": 10.2471205655,
			"0.002": 8.18602280926,
			"0.003": 5.60689051725,
			"0.004": 6.40856799912,
			"0.005": 6.57487395673,
			"0.006": 5.1237840895,
			"0.007": 4.3407661595,
			"0.008": 3.95872088111,
			"0.009": 2.85992920524,
			"0.01": 2.08977553559,
			"0.011": 2.73637782941,
			"0.012": 2.28028467647,
			"0.013": 2.90132402228,
			"0.014": 3.30366965566,
			"0.015": 1.58296858998,
			"0.016": 0.0,
			"0.017": 0.0,
			"0.018": 0.0,
			"0.019": 0.0,
			"0.02": 0.0,
			"0.021": 0.0,
			"0.022": 0.0,
			"0.023": 0.0,
			"0.024": 0.0,
			"0.025": 0.0
		}
	}
}
