{
	 "smiles": "CC(O)C1=CC=C(C=C1)N1C=NC=N1", 
	 "Tm": 364.15, 
	 "num_atms": 25, 
	 "gaussian": { 
		 "optdone": 1, 
		 "sigma_profile": "yes", 
		 "theory": "DFT", 
		 "functional": "B3LYP", 
		 "basiset": "6-31G**", 
		 "properties": { 
			 "R2extent": 4387.8409, 
			 "electric_dipole_moment_norm": 2.75728449747, 
			 "electric_quadrupole_moment_norm": 16.4431301333, 
			 "total_energy": -627.152539225, 
			 "HOMO_LUMO_gap": 0.20145, 
			 "cosmo_polarized_energy": -13.62, 
			 "cosmo_cavitation_energy": 29.18, 
			 "cosmo_dispersion_energy": -21.18, 
			 "cosmo_repulsion_energy": 1.64, 
			 "cosmo_total_nonelectrostatic_energy": 9.65, 
			 "SMD_solvation_energy": 3.23 
		},
		"coords": [
			{
				"x": 3.5711958711,
				"y": 0.502693911,
				"z": -0.713747824,
				"element": "C" 
			},
			{
				"x": 2.5453821262,
				"y": -0.5246541375,
				"z": -1.1959119603,
				"element": "C" 
			},
			{
				"x": 2.073810608,
				"y": -0.0518848319,
				"z": -2.4554723254,
				"element": "O" 
			},
			{
				"x": 1.4135776929,
				"y": -0.7148085504,
				"z": -0.1958471858,
				"element": "C" 
			},
			{
				"x": 1.485347845,
				"y": -1.7050858091,
				"z": 0.7900520465,
				"element": "C" 
			},
			{
				"x": 0.4651189424,
				"y": -1.8662285079,
				"z": 1.7252986377,
				"element": "C" 
			},
			{
				"x": -0.6446198512,
				"y": -1.0161846352,
				"z": 1.6863189523,
				"element": "C" 
			},
			{
				"x": -0.7404785315,
				"y": -0.0278080906,
				"z": 0.7022034956,
				"element": "C" 
			},
			{
				"x": 0.2835054091,
				"y": 0.1124658015,
				"z": -0.2304265601,
				"element": "C" 
			},
			{
				"x": -1.6850062033,
				"y": -1.1539793155,
				"z": 2.6440130153,
				"element": "N" 
			},
			{
				"x": -1.642981796,
				"y": -1.6749308537,
				"z": 3.9001108449,
				"element": "C" 
			},
			{
				"x": -2.8279905479,
				"y": -1.5980439964,
				"z": 4.4756793153,
				"element": "N" 
			},
			{
				"x": -3.5849482534,
				"y": -1.0011731428,
				"z": 3.5105565263,
				"element": "C" 
			},
			{
				"x": -2.9482776363,
				"y": -0.70851571,
				"z": 2.388370129,
				"element": "N" 
			},
			{
				"x": 4.3631844756,
				"y": 0.6153712402,
				"z": -1.4595890599,
				"element": "H" 
			},
			{
				"x": 3.0893644205,
				"y": 1.4739359391,
				"z": -0.5675771812,
				"element": "H" 
			},
			{
				"x": 4.0176176682,
				"y": 0.1891586606,
				"z": 0.2340736998,
				"element": "H" 
			},
			{
				"x": 3.0572478583,
				"y": -1.493446515,
				"z": -1.3219297277,
				"element": "H" 
			},
			{
				"x": 1.4143406287,
				"y": -0.6799637859,
				"z": -2.7795507156,
				"element": "H" 
			},
			{
				"x": 2.3413861078,
				"y": -2.3749088784,
				"z": 0.8200842891,
				"element": "H" 
			},
			{
				"x": 0.5217727484,
				"y": -2.6656088062,
				"z": 2.4567286871,
				"element": "H" 
			},
			{
				"x": -1.6158395328,
				"y": 0.6100806849,
				"z": 0.679675428,
				"element": "H" 
			},
			{
				"x": 0.2128834816,
				"y": 0.8718771169,
				"z": -1.0026739204,
				"element": "H" 
			},
			{
				"x": -0.7415358689,
				"y": -2.0675392658,
				"z": 4.347171215,
				"element": "H" 
			},
			{
				"x": -4.6352576625,
				"y": -0.7775185218,
				"z": 3.6373901787,
				"element": "H" 
			}
		],
		 "valence_orbital": [ 
			{
				"type": "occ",
				"energy": -0.28283,
				"method": "rhf"
			},
			{
				"type": "occ",
				"energy": -0.27944,
				"method": "rhf"
			},
			{
				"type": "occ",
				"energy": -0.27679,
				"method": "rhf"
			},
			{
				"type": "occ",
				"energy": -0.2669,
				"method": "rhf"
			},
			{
				"type": "occ",
				"energy": -0.23797,
				"method": "rhf"
			},
			{
				"type": "unocc",
				"energy": -0.03652,
				"method": "rhf"
			},
			{
				"type": "unocc",
				"energy": -0.01945,
				"method": "rhf"
			},
			{
				"type": "unocc",
				"energy": 0.02442,
				"method": "rhf"
			},
			{
				"type": "unocc",
				"energy": 0.05063,
				"method": "rhf"
			},
			{
				"type": "unocc",
				"energy": 0.07632,
				"method": "rhf"
			}
		],
		"cosmo_sigma_profile": { 
			"-0.025": 0.0,
			"-0.024": 0.0,
			"-0.023": 0.0,
			"-0.022": 0.0,
			"-0.021": 0.0,
			"-0.02": 0.0,
			"-0.019": 0.0,
			"-0.018": 0.0,
			"-0.017": 0.0,
			"-0.016": 0.100216897294,
			"-0.015": 0.81555221352,
			"-0.014": 1.02187457719,
			"-0.013": 0.784624281114,
			"-0.012": 0.990646440968,
			"-0.011": 1.94072557931,
			"-0.01": 3.69194437006,
			"-0.009": 3.94477898156,
			"-0.008": 4.92293708642,
			"-0.007": 5.48992515498,
			"-0.006": 9.7366056535,
			"-0.005": 12.3551592742,
			"-0.004": 15.4989915313,
			"-0.003": 16.5876441435,
			"-0.002": 16.5725940684,
			"-0.001": 18.9646337698,
			"0.0": 20.2502327412,
			"0.001": 18.9360697605,
			"0.002": 13.0312805734,
			"0.003": 14.2119030406,
			"0.004": 14.5199416134,
			"0.005": 4.51494463991,
			"0.006": 4.69069113237,
			"0.007": 4.18548215057,
			"0.008": 2.8131561757,
			"0.009": 4.06438932702,
			"0.01": 3.53012357631,
			"0.011": 3.4509093195,
			"0.012": 3.25499307572,
			"0.013": 2.96103267881,
			"0.014": 2.69370431491,
			"0.015": 1.00213146984,
			"0.016": 0.913924596986,
			"0.017": 0.0577981200356,
			"0.018": 0.0,
			"0.019": 0.0,
			"0.02": 0.0,
			"0.021": 0.0,
			"0.022": 0.0,
			"0.023": 0.0,
			"0.024": 0.0,
			"0.025": 0.0
		}
	}
}
