{
	 "smiles": "CC(C)(N1N=NC2=C1C=CC=C2)C(N)=O", 
	 "Tm": 460.15, 
	 "num_atms": 27, 
	 "gaussian": { 
		 "optdone": 1, 
		 "sigma_profile": "yes", 
		 "theory": "DFT", 
		 "functional": "B3LYP", 
		 "basiset": "6-31G**", 
		 "properties": { 
			 "R2extent": 3397.1014, 
			 "electric_dipole_moment_norm": 2.92401407144, 
			 "electric_quadrupole_moment_norm": 11.2097789318, 
			 "total_energy": -682.513090461, 
			 "HOMO_LUMO_gap": 0.19187, 
			 "cosmo_polarized_energy": -13.42, 
			 "cosmo_cavitation_energy": 29.37, 
			 "cosmo_dispersion_energy": -21.56, 
			 "cosmo_repulsion_energy": 1.66, 
			 "cosmo_total_nonelectrostatic_energy": 9.46, 
			 "SMD_solvation_energy": 4.09 
		},
		"coords": [
			{
				"x": 0.1395211997,
				"y": -2.5553812925,
				"z": 0.7513913214,
				"element": "C" 
			},
			{
				"x": -0.856431145,
				"y": -1.5370296007,
				"z": 1.3487512042,
				"element": "C" 
			},
			{
				"x": -2.2809581898,
				"y": -1.7363044726,
				"z": 0.7926764571,
				"element": "C" 
			},
			{
				"x": -0.3996809615,
				"y": -0.1608951018,
				"z": 0.981828493,
				"element": "N" 
			},
			{
				"x": -0.1031225238,
				"y": 0.8093177393,
				"z": 1.8975137372,
				"element": "N" 
			},
			{
				"x": 0.2379597388,
				"y": 1.9050443114,
				"z": 1.3085903119,
				"element": "N" 
			},
			{
				"x": 0.1708948418,
				"y": 1.694836842,
				"z": -0.0471961628,
				"element": "C" 
			},
			{
				"x": -0.241663435,
				"y": 0.3654678615,
				"z": -0.2812310598,
				"element": "C" 
			},
			{
				"x": -0.4008378375,
				"y": -0.1194219678,
				"z": -1.5939765537,
				"element": "C" 
			},
			{
				"x": -0.1304853356,
				"y": 0.7643690347,
				"z": -2.6270758824,
				"element": "C" 
			},
			{
				"x": 0.2866712849,
				"y": 2.0974873752,
				"z": -2.3929151011,
				"element": "C" 
			},
			{
				"x": 0.4416555762,
				"y": 2.5786186372,
				"z": -1.1056699046,
				"element": "C" 
			},
			{
				"x": -0.9285982201,
				"y": -1.8864606052,
				"z": 2.8787713527,
				"element": "C" 
			},
			{
				"x": -0.440044945,
				"y": -1.0354415771,
				"z": 3.8036283125,
				"element": "N" 
			},
			{
				"x": -1.3981515854,
				"y": -2.9843539817,
				"z": 3.1591810902,
				"element": "O" 
			},
			{
				"x": -0.1805439488,
				"y": -3.5588155504,
				"z": 1.034765524,
				"element": "H" 
			},
			{
				"x": 0.1821657496,
				"y": -2.489867844,
				"z": -0.3374237502,
				"element": "H" 
			},
			{
				"x": 1.1447256008,
				"y": -2.3822622021,
				"z": 1.1466574019,
				"element": "H" 
			},
			{
				"x": -2.9595964324,
				"y": -0.9834037729,
				"z": 1.2042304147,
				"element": "H" 
			},
			{
				"x": -2.6342911372,
				"y": -2.7238185951,
				"z": 1.0894459076,
				"element": "H" 
			},
			{
				"x": -2.3013127201,
				"y": -1.6581916881,
				"z": -0.2961939542,
				"element": "H" 
			},
			{
				"x": -0.7206433574,
				"y": -1.1314398148,
				"z": -1.8074579092,
				"element": "H" 
			},
			{
				"x": -0.2433522009,
				"y": 0.4219938468,
				"z": -3.6514786391,
				"element": "H" 
			},
			{
				"x": 0.4845280691,
				"y": 2.7450892619,
				"z": -3.2412513321,
				"element": "H" 
			},
			{
				"x": 0.7581346588,
				"y": 3.5957362199,
				"z": -0.9010888651,
				"element": "H" 
			},
			{
				"x": -0.1678153013,
				"y": -0.0926365284,
				"z": 3.5428855845,
				"element": "H" 
			},
			{
				"x": -0.5333274427,
				"y": -1.3230365348,
				"z": 4.7668420014,
				"element": "H" 
			}
		],
		 "valence_orbital": [ 
			{
				"type": "occ",
				"energy": -0.27948,
				"method": "rhf"
			},
			{
				"type": "occ",
				"energy": -0.26673,
				"method": "rhf"
			},
			{
				"type": "occ",
				"energy": -0.25904,
				"method": "rhf"
			},
			{
				"type": "occ",
				"energy": -0.2537,
				"method": "rhf"
			},
			{
				"type": "occ",
				"energy": -0.24421,
				"method": "rhf"
			},
			{
				"type": "unocc",
				"energy": -0.05234,
				"method": "rhf"
			},
			{
				"type": "unocc",
				"energy": 0.00072,
				"method": "rhf"
			},
			{
				"type": "unocc",
				"energy": 0.02461,
				"method": "rhf"
			},
			{
				"type": "unocc",
				"energy": 0.02642,
				"method": "rhf"
			},
			{
				"type": "unocc",
				"energy": 0.07382,
				"method": "rhf"
			}
		],
		"cosmo_sigma_profile": { 
			"-0.025": 0.0,
			"-0.024": 0.0,
			"-0.023": 0.0,
			"-0.022": 0.0,
			"-0.021": 0.0,
			"-0.02": 0.0,
			"-0.019": 0.0,
			"-0.018": 0.0,
			"-0.017": 0.0,
			"-0.016": 0.0,
			"-0.015": 0.0338885181861,
			"-0.014": 0.751376235817,
			"-0.013": 1.23031303141,
			"-0.012": 0.497717208183,
			"-0.011": 1.22739594052,
			"-0.01": 1.37973605097,
			"-0.009": 2.661573669,
			"-0.008": 4.14972376839,
			"-0.007": 6.79122179346,
			"-0.006": 10.4785836208,
			"-0.005": 14.7438946847,
			"-0.004": 16.9923712236,
			"-0.003": 18.3943728271,
			"-0.002": 20.8145817024,
			"-0.001": 24.5968668406,
			"0.0": 16.6377275821,
			"0.001": 13.9646669812,
			"0.002": 14.6840770848,
			"0.003": 15.558839915,
			"0.004": 11.2175790457,
			"0.005": 5.25029281048,
			"0.006": 3.7742634184,
			"0.007": 3.71818206293,
			"0.008": 2.74863410985,
			"0.009": 2.42430766174,
			"0.01": 2.48206212487,
			"0.011": 2.58041066396,
			"0.012": 3.59592805626,
			"0.013": 4.54677572688,
			"0.014": 4.66836476891,
			"0.015": 0.945329944094,
			"0.016": 0.039810256725,
			"0.017": 0.0,
			"0.018": 0.0,
			"0.019": 0.0,
			"0.02": 0.0,
			"0.021": 0.0,
			"0.022": 0.0,
			"0.023": 0.0,
			"0.024": 0.0,
			"0.025": 0.0
		}
	}
}
