{
	 "smiles": "C[C@]12CC(=O)[C@H]3[C@@H](CCC4=CC(=O)CC[C@]34C)[C@@H]1CC[C@]2(O)C(=O)CO", 
	 "Tm": 497.15, 
	 "num_atms": 54, 
	 "gaussian": { 
		 "optdone": 1, 
		 "sigma_profile": "yes", 
		 "theory": "DFT", 
		 "functional": "B3LYP", 
		 "basiset": "6-31G**", 
		 "properties": { 
			 "R2extent": 11026.1087, 
			 "electric_dipole_moment_norm": 5.34422603845, 
			 "electric_quadrupole_moment_norm": 34.852997347, 
			 "total_energy": -1193.21295959, 
			 "HOMO_LUMO_gap": 0.17531, 
			 "cosmo_polarized_energy": -22.46, 
			 "cosmo_cavitation_energy": 48.33, 
			 "cosmo_dispersion_energy": -33.46, 
			 "cosmo_repulsion_energy": 2.43, 
			 "cosmo_total_nonelectrostatic_energy": 17.31, 
			 "SMD_solvation_energy": 8.43 
		},
		"coords": [
			{
				"x": 0.5985574599,
				"y": 1.8811443139,
				"z": -0.46414206,
				"element": "C" 
			},
			{
				"x": -0.6887749394,
				"y": 1.3638214283,
				"z": 0.2134873859,
				"element": "C" 
			},
			{
				"x": -0.4219945873,
				"y": 1.1706775723,
				"z": 1.7170261081,
				"element": "C" 
			},
			{
				"x": 0.5644809427,
				"y": 0.0175379691,
				"z": 1.9081781667,
				"element": "C" 
			},
			{
				"x": 1.6135556872,
				"y": 0.1887249286,
				"z": 2.5027426649,
				"element": "O" 
			},
			{
				"x": 0.1396000386,
				"y": -1.325468629,
				"z": 1.2868238184,
				"element": "C" 
			},
			{
				"x": -0.1895879843,
				"y": -1.1283842016,
				"z": -0.2361501392,
				"element": "C" 
			},
			{
				"x": -0.7138102402,
				"y": -2.4308437802,
				"z": -0.8661813519,
				"element": "C" 
			},
			{
				"x": 0.2157593156,
				"y": -3.6345456106,
				"z": -0.5965540965,
				"element": "C" 
			},
			{
				"x": 0.4185750134,
				"y": -3.7447042417,
				"z": 0.8919152279,
				"element": "C" 
			},
			{
				"x": -0.1051172787,
				"y": -4.7780557001,
				"z": 1.5838580558,
				"element": "C" 
			},
			{
				"x": -0.2242011198,
				"y": -4.8172495197,
				"z": 3.0543566184,
				"element": "C" 
			},
			{
				"x": -0.6523750765,
				"y": -5.800700159,
				"z": 3.6423340956,
				"element": "O" 
			},
			{
				"x": 0.1325447047,
				"y": -3.5224164534,
				"z": 3.7649110285,
				"element": "C" 
			},
			{
				"x": 1.3039890669,
				"y": -2.820622864,
				"z": 3.0722083119,
				"element": "C" 
			},
			{
				"x": 1.0934253793,
				"y": -2.5434026003,
				"z": 1.5584814984,
				"element": "C" 
			},
			{
				"x": 2.4992555447,
				"y": -2.3138210739,
				"z": 0.9432210712,
				"element": "C" 
			},
			{
				"x": -1.1935702597,
				"y": 0.0223560257,
				"z": -0.3805740931,
				"element": "C" 
			},
			{
				"x": -1.7156850106,
				"y": 0.407714433,
				"z": -1.7759275794,
				"element": "C" 
			},
			{
				"x": -2.2997687916,
				"y": 1.8391365279,
				"z": -1.5805293342,
				"element": "C" 
			},
			{
				"x": -1.9404751944,
				"y": 2.2725754325,
				"z": -0.1315594184,
				"element": "C" 
			},
			{
				"x": -3.0325119942,
				"y": 1.9246543034,
				"z": 0.7096204045,
				"element": "O" 
			},
			{
				"x": -1.6618967215,
				"y": 3.7614844647,
				"z": 0.0897341586,
				"element": "C" 
			},
			{
				"x": -1.8862514754,
				"y": 4.2380635203,
				"z": 1.196624864,
				"element": "O" 
			},
			{
				"x": -1.1682566369,
				"y": 4.693588432,
				"z": -1.0046011676,
				"element": "C" 
			},
			{
				"x": -0.7748936979,
				"y": 5.93083858,
				"z": -0.4863465922,
				"element": "O" 
			},
			{
				"x": 1.4322435365,
				"y": 1.1911843018,
				"z": -0.3094161881,
				"element": "H" 
			},
			{
				"x": 0.909364068,
				"y": 2.8373345477,
				"z": -0.0311240195,
				"element": "H" 
			},
			{
				"x": 0.486838248,
				"y": 2.0169181025,
				"z": -1.5434192652,
				"element": "H" 
			},
			{
				"x": -1.3663774645,
				"y": 0.9201373546,
				"z": 2.2143191021,
				"element": "H" 
			},
			{
				"x": 0.0021664189,
				"y": 2.0598813046,
				"z": 2.1913083373,
				"element": "H" 
			},
			{
				"x": -0.8268986802,
				"y": -1.5589689124,
				"z": 1.7622657022,
				"element": "H" 
			},
			{
				"x": 0.73806625,
				"y": -0.8595837405,
				"z": -0.7578142917,
				"element": "H" 
			},
			{
				"x": -1.7072528581,
				"y": -2.6556707603,
				"z": -0.4549083535,
				"element": "H" 
			},
			{
				"x": -0.8392467268,
				"y": -2.2930613936,
				"z": -1.9462996827,
				"element": "H" 
			},
			{
				"x": 1.1672104354,
				"y": -3.4853557775,
				"z": -1.1208966537,
				"element": "H" 
			},
			{
				"x": -0.2326465558,
				"y": -4.5510321949,
				"z": -0.992127727,
				"element": "H" 
			},
			{
				"x": -0.5520842469,
				"y": -5.6212116129,
				"z": 1.0608477314,
				"element": "H" 
			},
			{
				"x": -0.7664783697,
				"y": -2.8886479126,
				"z": 3.7646358149,
				"element": "H" 
			},
			{
				"x": 0.3572049186,
				"y": -3.7448894012,
				"z": 4.8118192327,
				"element": "H" 
			},
			{
				"x": 2.1832743251,
				"y": -3.4713219328,
				"z": 3.161014557,
				"element": "H" 
			},
			{
				"x": 1.5607337665,
				"y": -1.8898028942,
				"z": 3.5796437773,
				"element": "H" 
			},
			{
				"x": 3.0216394985,
				"y": -1.5402289149,
				"z": 1.5081428693,
				"element": "H" 
			},
			{
				"x": 3.0833109741,
				"y": -3.2384488687,
				"z": 0.9953183465,
				"element": "H" 
			},
			{
				"x": 2.4684921176,
				"y": -2.0027018754,
				"z": -0.1036594921,
				"element": "H" 
			},
			{
				"x": -2.0751578642,
				"y": -0.2467112728,
				"z": 0.2169399852,
				"element": "H" 
			},
			{
				"x": -2.4723773344,
				"y": -0.2911014352,
				"z": -2.1409803427,
				"element": "H" 
			},
			{
				"x": -0.9057433631,
				"y": 0.4140643239,
				"z": -2.5142707619,
				"element": "H" 
			},
			{
				"x": -3.3876788485,
				"y": 1.8607753664,
				"z": -1.6739611096,
				"element": "H" 
			},
			{
				"x": -1.8944187014,
				"y": 2.5297590632,
				"z": -2.3243463944,
				"element": "H" 
			},
			{
				"x": -2.991194924,
				"y": 2.539064996,
				"z": 1.4622270341,
				"element": "H" 
			},
			{
				"x": -2.0080679011,
				"y": 4.7911405621,
				"z": -1.7195739223,
				"element": "H" 
			},
			{
				"x": -0.3421816337,
				"y": 4.2394450324,
				"z": -1.5644243885,
				"element": "H" 
			},
			{
				"x": -1.1439112295,
				"y": 5.9681308468,
				"z": 0.4128824568,
				"element": "H" 
			}
		],
		 "valence_orbital": [ 
			{
				"type": "occ",
				"energy": -0.28594,
				"method": "rhf"
			},
			{
				"type": "occ",
				"energy": -0.27529,
				"method": "rhf"
			},
			{
				"type": "occ",
				"energy": -0.2614,
				"method": "rhf"
			},
			{
				"type": "occ",
				"energy": -0.24716,
				"method": "rhf"
			},
			{
				"type": "occ",
				"energy": -0.23008,
				"method": "rhf"
			},
			{
				"type": "unocc",
				"energy": -0.05477,
				"method": "rhf"
			},
			{
				"type": "unocc",
				"energy": -0.04632,
				"method": "rhf"
			},
			{
				"type": "unocc",
				"energy": -0.02883,
				"method": "rhf"
			},
			{
				"type": "unocc",
				"energy": 0.05543,
				"method": "rhf"
			},
			{
				"type": "unocc",
				"energy": 0.05779,
				"method": "rhf"
			}
		],
		"cosmo_sigma_profile": { 
			"-0.025": 0.0,
			"-0.024": 0.0,
			"-0.023": 0.0,
			"-0.022": 0.0,
			"-0.021": 0.0,
			"-0.02": 0.0,
			"-0.019": 0.0,
			"-0.018": 0.0,
			"-0.017": 0.0,
			"-0.016": 0.0,
			"-0.015": 0.0,
			"-0.014": 0.0,
			"-0.013": 0.0,
			"-0.012": 0.201969094311,
			"-0.011": 0.998296252177,
			"-0.01": 0.969695762053,
			"-0.009": 1.4953934671,
			"-0.008": 2.44052006466,
			"-0.007": 10.039628481,
			"-0.006": 17.03470923,
			"-0.005": 25.3706240797,
			"-0.004": 32.7954528185,
			"-0.003": 45.8366457129,
			"-0.002": 46.621793836,
			"-0.001": 41.9478865845,
			"0.0": 31.0736784469,
			"0.001": 19.3299363485,
			"0.002": 12.0347981302,
			"0.003": 8.25139360805,
			"0.004": 8.25137254413,
			"0.005": 7.59730495297,
			"0.006": 6.42013920943,
			"0.007": 6.66285110533,
			"0.008": 6.836977995,
			"0.009": 7.70752265136,
			"0.01": 5.67854880305,
			"0.011": 6.50360533168,
			"0.012": 8.60582134388,
			"0.013": 8.96222985661,
			"0.014": 4.00254156792,
			"0.015": 0.477825186072,
			"0.016": 0.0,
			"0.017": 0.0,
			"0.018": 0.0,
			"0.019": 0.0,
			"0.02": 0.0,
			"0.021": 0.0,
			"0.022": 0.0,
			"0.023": 0.0,
			"0.024": 0.0,
			"0.025": 0.0
		}
	}
}
