{
	 "smiles": "CC(C)N(C)S(=O)(=O)C1=CC(N)=C(C)C=C1", 
	 "Tm": 391.15, 
	 "num_atms": 34, 
	 "gaussian": { 
		 "optdone": 1, 
		 "sigma_profile": "yes", 
		 "theory": "DFT", 
		 "functional": "B3LYP", 
		 "basiset": "6-31G**", 
		 "properties": { 
			 "R2extent": 4650.7896, 
			 "electric_dipole_moment_norm": 5.2281169765, 
			 "electric_quadrupole_moment_norm": 21.5234724487, 
			 "total_energy": -1088.10327442, 
			 "HOMO_LUMO_gap": 0.19004, 
			 "cosmo_polarized_energy": -17.02, 
			 "cosmo_cavitation_energy": 36.53, 
			 "cosmo_dispersion_energy": -25.65, 
			 "cosmo_repulsion_energy": 1.96, 
			 "cosmo_total_nonelectrostatic_energy": 12.85, 
			 "SMD_solvation_energy": 5.45 
		},
		"coords": [
			{
				"x": 3.8054763444,
				"y": -0.3734127558,
				"z": -1.8005593773,
				"element": "C" 
			},
			{
				"x": 2.5870609509,
				"y": -0.8959320664,
				"z": -1.0258663907,
				"element": "C" 
			},
			{
				"x": 2.8524795855,
				"y": -2.2562561388,
				"z": -0.3687552103,
				"element": "C" 
			},
			{
				"x": 2.0696688438,
				"y": 0.0582189192,
				"z": -0.0076285302,
				"element": "N" 
			},
			{
				"x": 3.02193021,
				"y": 0.5874115357,
				"z": 0.977749416,
				"element": "C" 
			},
			{
				"x": 0.9217341569,
				"y": 1.171667015,
				"z": -0.5723596246,
				"element": "S" 
			},
			{
				"x": 1.2899187881,
				"y": 1.7111228701,
				"z": -1.8916862908,
				"element": "O" 
			},
			{
				"x": 0.6638043109,
				"y": 2.087220629,
				"z": 0.546166628,
				"element": "O" 
			},
			{
				"x": -0.5168258439,
				"y": 0.123137643,
				"z": -0.8126559503,
				"element": "C" 
			},
			{
				"x": -1.1295218215,
				"y": -0.4418741974,
				"z": 0.3047040276,
				"element": "C" 
			},
			{
				"x": -2.2798241859,
				"y": -1.2250513232,
				"z": 0.1476753157,
				"element": "C" 
			},
			{
				"x": -2.8663459287,
				"y": -1.8441491165,
				"z": 1.2527465571,
				"element": "N" 
			},
			{
				"x": -2.8099077927,
				"y": -1.4337618604,
				"z": -1.1511936225,
				"element": "C" 
			},
			{
				"x": -4.0376537276,
				"y": -2.2889783029,
				"z": -1.3341257293,
				"element": "C" 
			},
			{
				"x": -2.1732650554,
				"y": -0.8398596292,
				"z": -2.2416719619,
				"element": "C" 
			},
			{
				"x": -1.0272536405,
				"y": -0.0546531421,
				"z": -2.0958833858,
				"element": "C" 
			},
			{
				"x": 4.6810108563,
				"y": -0.2686714226,
				"z": -1.1510336865,
				"element": "H" 
			},
			{
				"x": 3.5853811071,
				"y": 0.5942821025,
				"z": -2.2567313653,
				"element": "H" 
			},
			{
				"x": 4.0702045497,
				"y": -1.0787391355,
				"z": -2.5951974559,
				"element": "H" 
			},
			{
				"x": 1.7678242116,
				"y": -1.0355789777,
				"z": -1.7390198254,
				"element": "H" 
			},
			{
				"x": 1.9642179229,
				"y": -2.6092082699,
				"z": 0.1618366544,
				"element": "H" 
			},
			{
				"x": 3.1175936958,
				"y": -2.9933778601,
				"z": -1.1335043355,
				"element": "H" 
			},
			{
				"x": 3.684958842,
				"y": -2.2104351736,
				"z": 0.3412531587,
				"element": "H" 
			},
			{
				"x": 2.4754543384,
				"y": 1.1660760249,
				"z": 1.7212314359,
				"element": "H" 
			},
			{
				"x": 3.7989601436,
				"y": 1.2253244244,
				"z": 0.5375085909,
				"element": "H" 
			},
			{
				"x": 3.5025493654,
				"y": -0.2577710526,
				"z": 1.4766320291,
				"element": "H" 
			},
			{
				"x": -0.7170270282,
				"y": -0.2691659801,
				"z": 1.2939723758,
				"element": "H" 
			},
			{
				"x": -2.60792069,
				"y": -1.4497470492,
				"z": 2.1469238762,
				"element": "H" 
			},
			{
				"x": -3.8617849168,
				"y": -2.0047243385,
				"z": 1.1879901444,
				"element": "H" 
			},
			{
				"x": -4.9184098646,
				"y": -1.8527690354,
				"z": -0.8415127232,
				"element": "H" 
			},
			{
				"x": -4.2838928682,
				"y": -2.403570786,
				"z": -2.3922694891,
				"element": "H" 
			},
			{
				"x": -3.8940815046,
				"y": -3.2894556339,
				"z": -0.9077374267,
				"element": "H" 
			},
			{
				"x": -2.5871369877,
				"y": -0.9960697888,
				"z": -3.2345369287,
				"element": "H" 
			},
			{
				"x": -0.543276367,
				"y": 0.4151518727,
				"z": -2.9435608997,
				"element": "H" 
			}
		],
		 "valence_orbital": [ 
			{
				"type": "occ",
				"energy": -0.29426,
				"method": "rhf"
			},
			{
				"type": "occ",
				"energy": -0.28608,
				"method": "rhf"
			},
			{
				"type": "occ",
				"energy": -0.2608,
				"method": "rhf"
			},
			{
				"type": "occ",
				"energy": -0.23395,
				"method": "rhf"
			},
			{
				"type": "occ",
				"energy": -0.21585,
				"method": "rhf"
			},
			{
				"type": "unocc",
				"energy": -0.02581,
				"method": "rhf"
			},
			{
				"type": "unocc",
				"energy": 0.00212,
				"method": "rhf"
			},
			{
				"type": "unocc",
				"energy": 0.06554,
				"method": "rhf"
			},
			{
				"type": "unocc",
				"energy": 0.06957,
				"method": "rhf"
			},
			{
				"type": "unocc",
				"energy": 0.0809,
				"method": "rhf"
			}
		],
		"cosmo_sigma_profile": { 
			"-0.025": 0.0,
			"-0.024": 0.0,
			"-0.023": 0.0,
			"-0.022": 0.0,
			"-0.021": 0.0,
			"-0.02": 0.0,
			"-0.019": 0.0,
			"-0.018": 0.0,
			"-0.017": 0.0,
			"-0.016": 0.0,
			"-0.015": 0.0,
			"-0.014": 0.0,
			"-0.013": 0.852948512957,
			"-0.012": 2.2960476891,
			"-0.011": 3.0157971425,
			"-0.01": 3.58663715371,
			"-0.009": 3.78275497682,
			"-0.008": 2.33733016321,
			"-0.007": 3.51752261027,
			"-0.006": 6.20669743101,
			"-0.005": 13.178431601,
			"-0.004": 23.5952985009,
			"-0.003": 30.8593986185,
			"-0.002": 29.1533441971,
			"-0.001": 27.0766956865,
			"0.0": 28.30972574,
			"0.001": 20.4345893389,
			"0.002": 13.55929201,
			"0.003": 12.771016722,
			"0.004": 15.3636809973,
			"0.005": 7.38818921296,
			"0.006": 5.34178379254,
			"0.007": 3.73591640941,
			"0.008": 4.02623653875,
			"0.009": 4.13173436305,
			"0.01": 5.40213691184,
			"0.011": 8.62562328498,
			"0.012": 6.38911374415,
			"0.013": 1.35859716894,
			"0.014": 0.259707025715,
			"0.015": 0.0,
			"0.016": 0.0,
			"0.017": 0.0,
			"0.018": 0.0,
			"0.019": 0.0,
			"0.02": 0.0,
			"0.021": 0.0,
			"0.022": 0.0,
			"0.023": 0.0,
			"0.024": 0.0,
			"0.025": 0.0
		}
	}
}
