{
	 "smiles": "FC1=CC=C(C=C1)C(=O)CCCl", 
	 "Tm": 320.65, 
	 "num_atms": 20, 
	 "gaussian": { 
		 "optdone": 1, 
		 "sigma_profile": "yes", 
		 "theory": "DFT", 
		 "functional": "B3LYP", 
		 "basiset": "6-31G**", 
		 "properties": { 
			 "R2extent": 3407.7466, 
			 "electric_dipole_moment_norm": 3.38989428891, 
			 "electric_quadrupole_moment_norm": 12.7441074105, 
			 "total_energy": -983.03624422, 
			 "HOMO_LUMO_gap": 0.19676, 
			 "cosmo_polarized_energy": -10.76, 
			 "cosmo_cavitation_energy": 26.56, 
			 "cosmo_dispersion_energy": -19.27, 
			 "cosmo_repulsion_energy": 1.52, 
			 "cosmo_total_nonelectrostatic_energy": 8.8, 
			 "SMD_solvation_energy": 5.12 
		},
		"coords": [
			{
				"x": -1.4064233571,
				"y": -2.7309062045,
				"z": -3.8091887555,
				"element": "F" 
			},
			{
				"x": -0.9736073182,
				"y": -1.8226150165,
				"z": -2.9168529101,
				"element": "C" 
			},
			{
				"x": -1.6772717183,
				"y": -0.6283412753,
				"z": -2.7756987813,
				"element": "C" 
			},
			{
				"x": -1.2215717702,
				"y": 0.3042221922,
				"z": -1.8527027747,
				"element": "C" 
			},
			{
				"x": -0.0801162745,
				"y": 0.0510416793,
				"z": -1.071614486,
				"element": "C" 
			},
			{
				"x": 0.6034428144,
				"y": -1.1639863637,
				"z": -1.2407039722,
				"element": "C" 
			},
			{
				"x": 0.1623975233,
				"y": -2.1072519306,
				"z": -2.1660984035,
				"element": "C" 
			},
			{
				"x": 0.3515582182,
				"y": 1.1081365487,
				"z": -0.1074978081,
				"element": "C" 
			},
			{
				"x": -0.2374275527,
				"y": 2.1764552047,
				"z": -0.0446346992,
				"element": "O" 
			},
			{
				"x": 1.5790371278,
				"y": 0.8548319076,
				"z": 0.773823655,
				"element": "C" 
			},
			{
				"x": 1.6969941353,
				"y": 1.8454109262,
				"z": 1.9214947168,
				"element": "C" 
			},
			{
				"x": 0.5571466722,
				"y": 1.4349158044,
				"z": 3.277138417,
				"element": "Cl" 
			},
			{
				"x": -2.5580490157,
				"y": -0.4510225903,
				"z": -3.3831718527,
				"element": "H" 
			},
			{
				"x": -1.7370947659,
				"y": 1.2481444787,
				"z": -1.713134274,
				"element": "H" 
			},
			{
				"x": 1.489761103,
				"y": -1.3860688576,
				"z": -0.65634215,
				"element": "H" 
			},
			{
				"x": 0.6781867518,
				"y": -3.0499017512,
				"z": -2.3115606228,
				"element": "H" 
			},
			{
				"x": 2.4668777582,
				"y": 0.9578196517,
				"z": 0.1313566683,
				"element": "H" 
			},
			{
				"x": 1.5899708885,
				"y": -0.170654675,
				"z": 1.1536084107,
				"element": "H" 
			},
			{
				"x": 2.69720223,
				"y": 1.8366074689,
				"z": 2.3543813673,
				"element": "H" 
			},
			{
				"x": 1.4319865502,
				"y": 2.8497628025,
				"z": 1.5938982551,
				"element": "H" 
			}
		],
		 "valence_orbital": [ 
			{
				"type": "occ",
				"energy": -0.29529,
				"method": "rhf"
			},
			{
				"type": "occ",
				"energy": -0.29114,
				"method": "rhf"
			},
			{
				"type": "occ",
				"energy": -0.27746,
				"method": "rhf"
			},
			{
				"type": "occ",
				"energy": -0.26226,
				"method": "rhf"
			},
			{
				"type": "occ",
				"energy": -0.26069,
				"method": "rhf"
			},
			{
				"type": "unocc",
				"energy": -0.06393,
				"method": "rhf"
			},
			{
				"type": "unocc",
				"energy": -0.0261,
				"method": "rhf"
			},
			{
				"type": "unocc",
				"energy": 0.02605,
				"method": "rhf"
			},
			{
				"type": "unocc",
				"energy": 0.0329,
				"method": "rhf"
			},
			{
				"type": "unocc",
				"energy": 0.07494,
				"method": "rhf"
			}
		],
		"cosmo_sigma_profile": { 
			"-0.025": 0.0,
			"-0.024": 0.0,
			"-0.023": 0.0,
			"-0.022": 0.0,
			"-0.021": 0.0,
			"-0.02": 0.0,
			"-0.019": 0.0,
			"-0.018": 0.0,
			"-0.017": 0.0,
			"-0.016": 0.0,
			"-0.015": 0.0,
			"-0.014": 0.0,
			"-0.013": 0.0,
			"-0.012": 0.0,
			"-0.011": 0.0,
			"-0.01": 0.0,
			"-0.009": 0.405195118749,
			"-0.008": 6.39950342229,
			"-0.007": 15.0859530572,
			"-0.006": 14.5727527952,
			"-0.005": 14.5688761131,
			"-0.004": 12.8438207045,
			"-0.003": 10.7486718222,
			"-0.002": 7.93267430965,
			"-0.001": 10.5415572798,
			"0.0": 18.2342054856,
			"0.001": 15.7159771427,
			"0.002": 20.0716806842,
			"0.003": 16.8376515006,
			"0.004": 13.8972547505,
			"0.005": 7.43121583339,
			"0.006": 9.3449751173,
			"0.007": 7.80536347557,
			"0.008": 2.87111165192,
			"0.009": 2.08111092474,
			"0.01": 1.85510489372,
			"0.011": 3.65644650723,
			"0.012": 1.60800426983,
			"0.013": 0.0,
			"0.014": 0.0,
			"0.015": 0.0,
			"0.016": 0.0,
			"0.017": 0.0,
			"0.018": 0.0,
			"0.019": 0.0,
			"0.02": 0.0,
			"0.021": 0.0,
			"0.022": 0.0,
			"0.023": 0.0,
			"0.024": 0.0,
			"0.025": 0.0
		}
	}
}
