{
	 "smiles": "O=C1C2=CC=CC=C2CC2=CC=CC=C12", 
	 "Tm": 429.15, 
	 "num_atms": 25, 
	 "gaussian": { 
		 "optdone": 1, 
		 "sigma_profile": "yes", 
		 "theory": "DFT", 
		 "functional": "B3LYP", 
		 "basiset": "6-31G**", 
		 "properties": { 
			 "R2extent": 3121.5208, 
			 "electric_dipole_moment_norm": 3.59481861573, 
			 "electric_quadrupole_moment_norm": 11.3560783671, 
			 "total_energy": -614.762364821, 
			 "HOMO_LUMO_gap": 0.18072, 
			 "cosmo_polarized_energy": -9.73, 
			 "cosmo_cavitation_energy": 28.3, 
			 "cosmo_dispersion_energy": -21.21, 
			 "cosmo_repulsion_energy": 1.6, 
			 "cosmo_total_nonelectrostatic_energy": 8.68, 
			 "SMD_solvation_energy": 4.63 
		},
		"coords": [
			{
				"x": -0.4916839511,
				"y": -1.2198960441,
				"z": 2.221275239,
				"element": "O" 
			},
			{
				"x": -0.2567840306,
				"y": -0.6508412486,
				"z": 1.1579988926,
				"element": "C" 
			},
			{
				"x": 0.2642219928,
				"y": -1.3995254342,
				"z": -0.0190251653,
				"element": "C" 
			},
			{
				"x": 0.4845965768,
				"y": -2.7812885144,
				"z": 0.1128266377,
				"element": "C" 
			},
			{
				"x": 0.9692601855,
				"y": -3.5229406826,
				"z": -0.9548696266,
				"element": "C" 
			},
			{
				"x": 1.2396552524,
				"y": -2.8844498943,
				"z": -2.17237781,
				"element": "C" 
			},
			{
				"x": 1.0233628943,
				"y": -1.5165763974,
				"z": -2.3088090507,
				"element": "C" 
			},
			{
				"x": 0.5339256599,
				"y": -0.7552281462,
				"z": -1.2380793385,
				"element": "C" 
			},
			{
				"x": 0.3096457919,
				"y": 0.7267574637,
				"z": -1.417567323,
				"element": "C" 
			},
			{
				"x": -0.219439563,
				"y": 1.4688671465,
				"z": -0.2141974412,
				"element": "C" 
			},
			{
				"x": -0.4551949387,
				"y": 2.8483009644,
				"z": -0.2993894777,
				"element": "C" 
			},
			{
				"x": -0.9428077614,
				"y": 3.5582705821,
				"z": 0.7936065712,
				"element": "C" 
			},
			{
				"x": -1.206292549,
				"y": 2.8992440256,
				"z": 2.0016517224,
				"element": "C" 
			},
			{
				"x": -0.9773639703,
				"y": 1.534350383,
				"z": 2.0995665375,
				"element": "C" 
			},
			{
				"x": -0.4849426307,
				"y": 0.8120697468,
				"z": 0.9990987829,
				"element": "C" 
			},
			{
				"x": 0.2628976654,
				"y": -3.2379849779,
				"z": 1.0716818439,
				"element": "H" 
			},
			{
				"x": 1.1382046964,
				"y": -4.5904136234,
				"z": -0.8488564916,
				"element": "H" 
			},
			{
				"x": 1.6194462489,
				"y": -3.4564766,
				"z": -3.0143519783,
				"element": "H" 
			},
			{
				"x": 1.2354485221,
				"y": -1.0275977905,
				"z": -3.2569050577,
				"element": "H" 
			},
			{
				"x": 1.25337073,
				"y": 1.1929218388,
				"z": -1.7357937385,
				"element": "H" 
			},
			{
				"x": -0.3780191334,
				"y": 0.8823071251,
				"z": -2.2614368838,
				"element": "H" 
			},
			{
				"x": -0.2529888414,
				"y": 3.3664179548,
				"z": -1.2340755323,
				"element": "H" 
			},
			{
				"x": -1.1188214743,
				"y": 4.626858702,
				"z": 0.7069124496,
				"element": "H" 
			},
			{
				"x": -1.5868507905,
				"y": 3.4536873552,
				"z": 2.8543217612,
				"element": "H" 
			},
			{
				"x": -1.1685465823,
				"y": 0.9874660657,
				"z": 3.0168944771,
				"element": "H" 
			}
		],
		 "valence_orbital": [ 
			{
				"type": "occ",
				"energy": -0.25916,
				"method": "rhf"
			},
			{
				"type": "occ",
				"energy": -0.25628,
				"method": "rhf"
			},
			{
				"type": "occ",
				"energy": -0.25411,
				"method": "rhf"
			},
			{
				"type": "occ",
				"energy": -0.24489,
				"method": "rhf"
			},
			{
				"type": "occ",
				"energy": -0.24404,
				"method": "rhf"
			},
			{
				"type": "unocc",
				"energy": -0.06332,
				"method": "rhf"
			},
			{
				"type": "unocc",
				"energy": -0.01538,
				"method": "rhf"
			},
			{
				"type": "unocc",
				"energy": -0.01096,
				"method": "rhf"
			},
			{
				"type": "unocc",
				"energy": -0.00082,
				"method": "rhf"
			},
			{
				"type": "unocc",
				"energy": 0.06642,
				"method": "rhf"
			}
		],
		"cosmo_sigma_profile": { 
			"-0.025": 0.0,
			"-0.024": 0.0,
			"-0.023": 0.0,
			"-0.022": 0.0,
			"-0.021": 0.0,
			"-0.02": 0.0,
			"-0.019": 0.0,
			"-0.018": 0.0,
			"-0.017": 0.0,
			"-0.016": 0.0,
			"-0.015": 0.0,
			"-0.014": 0.0,
			"-0.013": 0.0,
			"-0.012": 0.0,
			"-0.011": 0.0,
			"-0.01": 0.0,
			"-0.009": 0.0,
			"-0.008": 0.0,
			"-0.007": 1.68692504193,
			"-0.006": 16.1614934924,
			"-0.005": 23.3426226105,
			"-0.004": 23.7224497435,
			"-0.003": 16.3336014834,
			"-0.002": 16.380606612,
			"-0.001": 13.3895623842,
			"0.0": 13.5388056628,
			"0.001": 16.3183486902,
			"0.002": 17.2356316306,
			"0.003": 20.478204416,
			"0.004": 23.3846648209,
			"0.005": 7.97736809857,
			"0.006": 1.89591724664,
			"0.007": 2.12358093808,
			"0.008": 1.32589090934,
			"0.009": 1.78881919053,
			"0.01": 1.76931596384,
			"0.011": 2.42044396065,
			"0.012": 3.92392105731,
			"0.013": 2.06213941542,
			"0.014": 0.0,
			"0.015": 0.0,
			"0.016": 0.0,
			"0.017": 0.0,
			"0.018": 0.0,
			"0.019": 0.0,
			"0.02": 0.0,
			"0.021": 0.0,
			"0.022": 0.0,
			"0.023": 0.0,
			"0.024": 0.0,
			"0.025": 0.0
		}
	}
}
