{
	 "smiles": "COC1=C(C=C(CCNC(C)=O)C=C1)S(N)(=O)=O", 
	 "Tm": 468.15, 
	 "num_atms": 34, 
	 "gaussian": { 
		 "optdone": 1, 
		 "sigma_profile": "yes", 
		 "theory": "DFT", 
		 "functional": "B3LYP", 
		 "basiset": "6-31G**", 
		 "properties": { 
			 "R2extent": 6439.4364, 
			 "electric_dipole_moment_norm": 7.29878385692, 
			 "electric_quadrupole_moment_norm": 18.7606532106, 
			 "total_energy": -1237.34297605, 
			 "HOMO_LUMO_gap": 0.20218, 
			 "cosmo_polarized_energy": -25.96, 
			 "cosmo_cavitation_energy": 38.62, 
			 "cosmo_dispersion_energy": -26.52, 
			 "cosmo_repulsion_energy": 2.01, 
			 "cosmo_total_nonelectrostatic_energy": 14.11, 
			 "SMD_solvation_energy": 6.94 
		},
		"coords": [
			{
				"x": 4.5636405106,
				"y": 0.6712006398,
				"z": 0.3785844716,
				"element": "C" 
			},
			{
				"x": 3.7777547003,
				"y": 0.4144184372,
				"z": -0.8021752294,
				"element": "O" 
			},
			{
				"x": 2.4160236944,
				"y": 0.5559026321,
				"z": -0.6406446752,
				"element": "C" 
			},
			{
				"x": 1.6008033858,
				"y": -0.5801610737,
				"z": -0.5393171481,
				"element": "C" 
			},
			{
				"x": 0.216613314,
				"y": -0.456773391,
				"z": -0.4320176808,
				"element": "C" 
			},
			{
				"x": -0.3947258373,
				"y": 0.8046793674,
				"z": -0.4378291488,
				"element": "C" 
			},
			{
				"x": -1.8998961163,
				"y": 0.9237015704,
				"z": -0.3801764909,
				"element": "C" 
			},
			{
				"x": -2.5889851909,
				"y": 0.7133831613,
				"z": -1.7514521042,
				"element": "C" 
			},
			{
				"x": -2.3467338019,
				"y": -0.5946865063,
				"z": -2.3399985933,
				"element": "N" 
			},
			{
				"x": -2.9969955369,
				"y": -1.7148666661,
				"z": -1.8801612321,
				"element": "C" 
			},
			{
				"x": -2.4954035831,
				"y": -3.0301844427,
				"z": -2.4550827134,
				"element": "C" 
			},
			{
				"x": -3.8999024301,
				"y": -1.6443750716,
				"z": -1.0556509652,
				"element": "O" 
			},
			{
				"x": 0.430314041,
				"y": 1.933013236,
				"z": -0.548355416,
				"element": "C" 
			},
			{
				"x": 1.8174741241,
				"y": 1.816302006,
				"z": -0.6486757,
				"element": "C" 
			},
			{
				"x": 2.3271319554,
				"y": -2.2271890111,
				"z": -0.5011325342,
				"element": "S" 
			},
			{
				"x": 3.3179944254,
				"y": -2.330771732,
				"z": -1.8500413364,
				"element": "N" 
			},
			{
				"x": 1.2389294023,
				"y": -3.183721177,
				"z": -0.7190748463,
				"element": "O" 
			},
			{
				"x": 3.198807945,
				"y": -2.3050835302,
				"z": 0.6707241938,
				"element": "O" 
			},
			{
				"x": 4.3706199543,
				"y": 1.6798130349,
				"z": 0.7601819641,
				"element": "H" 
			},
			{
				"x": 5.607037575,
				"y": 0.5933763847,
				"z": 0.0693888273,
				"element": "H" 
			},
			{
				"x": 4.3454744359,
				"y": -0.0755812293,
				"z": 1.1469631877,
				"element": "H" 
			},
			{
				"x": -0.3768397739,
				"y": -1.3585647745,
				"z": -0.3319072812,
				"element": "H" 
			},
			{
				"x": -2.1838466724,
				"y": 1.9136607957,
				"z": -0.0049916207,
				"element": "H" 
			},
			{
				"x": -2.3144415008,
				"y": 0.1839626952,
				"z": 0.3116075121,
				"element": "H" 
			},
			{
				"x": -2.2558830845,
				"y": 1.4737163629,
				"z": -2.4652050677,
				"element": "H" 
			},
			{
				"x": -3.6684346741,
				"y": 0.8185964435,
				"z": -1.6172661208,
				"element": "H" 
			},
			{
				"x": -1.5232486041,
				"y": -0.7182269052,
				"z": -2.9095643371,
				"element": "H" 
			},
			{
				"x": -1.5780102776,
				"y": -3.3369730519,
				"z": -1.9384702581,
				"element": "H" 
			},
			{
				"x": -3.2556322131,
				"y": -3.7948464534,
				"z": -2.2953742342,
				"element": "H" 
			},
			{
				"x": -2.271566243,
				"y": -2.9532427677,
				"z": -3.5239261588,
				"element": "H" 
			},
			{
				"x": -0.0189938513,
				"y": 2.9229216577,
				"z": -0.5586159408,
				"element": "H" 
			},
			{
				"x": 2.4453221504,
				"y": 2.6965962128,
				"z": -0.7466529602,
				"element": "H" 
			},
			{
				"x": 2.7718866038,
				"y": -2.400721285,
				"z": -2.7035573721,
				"element": "H" 
			},
			{
				"x": 3.9750111733,
				"y": -1.5525755693,
				"z": -1.8659329909,
				"element": "H" 
			}
		],
		 "valence_orbital": [ 
			{
				"type": "occ",
				"energy": -0.29372,
				"method": "rhf"
			},
			{
				"type": "occ",
				"energy": -0.27556,
				"method": "rhf"
			},
			{
				"type": "occ",
				"energy": -0.26129,
				"method": "rhf"
			},
			{
				"type": "occ",
				"energy": -0.25291,
				"method": "rhf"
			},
			{
				"type": "occ",
				"energy": -0.24379,
				"method": "rhf"
			},
			{
				"type": "unocc",
				"energy": -0.04161,
				"method": "rhf"
			},
			{
				"type": "unocc",
				"energy": -0.02641,
				"method": "rhf"
			},
			{
				"type": "unocc",
				"energy": 0.02755,
				"method": "rhf"
			},
			{
				"type": "unocc",
				"energy": 0.05407,
				"method": "rhf"
			},
			{
				"type": "unocc",
				"energy": 0.06087,
				"method": "rhf"
			}
		],
		"cosmo_sigma_profile": { 
			"-0.025": 0.0,
			"-0.024": 0.0,
			"-0.023": 0.0,
			"-0.022": 0.0,
			"-0.021": 0.0,
			"-0.02": 0.0,
			"-0.019": 0.0,
			"-0.018": 0.0,
			"-0.017": 0.0,
			"-0.016": 0.110222406633,
			"-0.015": 1.04928499974,
			"-0.014": 1.72538887437,
			"-0.013": 2.25838841868,
			"-0.012": 2.79150462784,
			"-0.011": 3.18443828225,
			"-0.01": 2.79914885988,
			"-0.009": 2.75813438915,
			"-0.008": 4.24630453283,
			"-0.007": 6.50628889702,
			"-0.006": 14.3877561009,
			"-0.005": 23.5167680249,
			"-0.004": 25.8673729187,
			"-0.003": 30.1058308665,
			"-0.002": 24.0112170485,
			"-0.001": 24.4163008017,
			"0.0": 17.3068008499,
			"0.001": 13.1426884084,
			"0.002": 17.2525779837,
			"0.003": 14.2623822705,
			"0.004": 7.19774605662,
			"0.005": 6.51902785181,
			"0.006": 6.79467163826,
			"0.007": 5.90265323918,
			"0.008": 7.41517130166,
			"0.009": 6.53944006097,
			"0.01": 7.43246771417,
			"0.011": 8.33077200471,
			"0.012": 6.93048436005,
			"0.013": 3.26669364515,
			"0.014": 4.61829297706,
			"0.015": 1.84428665168,
			"0.016": 0.141276003519,
			"0.017": 0.0,
			"0.018": 0.0,
			"0.019": 0.0,
			"0.02": 0.0,
			"0.021": 0.0,
			"0.022": 0.0,
			"0.023": 0.0,
			"0.024": 0.0,
			"0.025": 0.0
		}
	}
}
