{
	 "smiles": "FC(F)(F)C1=CC(=C(C=C1C(F)(F)F)C(F)(F)F)C(F)(F)F", 
	 "Tm": 346.65, 
	 "num_atms": 24, 
	 "gaussian": { 
		 "optdone": 1, 
		 "sigma_profile": "yes", 
		 "theory": "DFT", 
		 "functional": "B3LYP", 
		 "basiset": "6-31G**", 
		 "properties": { 
			 "R2extent": 6474.4791, 
			 "electric_dipole_moment_norm": 0.0, 
			 "electric_quadrupole_moment_norm": 7.47763262804, 
			 "total_energy": -1580.36322012, 
			 "HOMO_LUMO_gap": 0.22319, 
			 "cosmo_polarized_energy": -4.66, 
			 "cosmo_cavitation_energy": 33.26, 
			 "cosmo_dispersion_energy": -22.63, 
			 "cosmo_repulsion_energy": 1.48, 
			 "cosmo_total_nonelectrostatic_energy": 12.1, 
			 "SMD_solvation_energy": 9.76 
		},
		"coords": [
			{
				"x": 2.9870315735,
				"y": -0.1537467105,
				"z": -2.1833193533,
				"element": "F" 
			},
			{
				"x": 1.7072101932,
				"y": -0.1204305578,
				"z": -2.5989875927,
				"element": "C" 
			},
			{
				"x": 1.5051303494,
				"y": -1.1718889534,
				"z": -3.4122123837,
				"element": "F" 
			},
			{
				"x": 1.5593551608,
				"y": 0.9959274009,
				"z": -3.3443569162,
				"element": "F" 
			},
			{
				"x": 0.7461195581,
				"y": -0.1169523994,
				"z": -1.4208047163,
				"element": "C" 
			},
			{
				"x": 0.1557115259,
				"y": 1.0990716188,
				"z": -1.0774901143,
				"element": "C" 
			},
			{
				"x": -0.7135986061,
				"y": 1.2193996676,
				"z": 0.0064668274,
				"element": "C" 
			},
			{
				"x": -0.9918433238,
				"y": 0.0838933118,
				"z": 0.7850292908,
				"element": "C" 
			},
			{
				"x": -0.4014307475,
				"y": -1.1321297674,
				"z": 0.4417202195,
				"element": "C" 
			},
			{
				"x": 0.4678780834,
				"y": -1.2524596943,
				"z": -0.642238009,
				"element": "C" 
			},
			{
				"x": 1.0210662306,
				"y": -2.6358410976,
				"z": -0.9456676291,
				"element": "C" 
			},
			{
				"x": 2.3369990904,
				"y": -2.604500648,
				"z": -1.21968491,
				"element": "F" 
			},
			{
				"x": 0.8514733022,
				"y": -3.4639169617,
				"z": 0.1075217847,
				"element": "F" 
			},
			{
				"x": 0.3891012165,
				"y": -3.1935458088,
				"z": -1.9951643881,
				"element": "F" 
			},
			{
				"x": -1.952934252,
				"y": 0.0873926504,
				"z": 1.9632112117,
				"element": "C" 
			},
			{
				"x": -3.2327556112,
				"y": 0.1206520397,
				"z": 1.5475406581,
				"element": "F" 
			},
			{
				"x": -1.7508885007,
				"y": 1.1389057974,
				"z": 2.7763746582,
				"element": "F" 
			},
			{
				"x": -1.805045966,
				"y": -1.0289206255,
				"z": 2.7086419726,
				"element": "F" 
			},
			{
				"x": -1.2667735547,
				"y": 2.6027790141,
				"z": 0.3099281945,
				"element": "C" 
			},
			{
				"x": -0.634794039,
				"y": 3.1604550844,
				"z": 1.3594301367,
				"element": "F" 
			},
			{
				"x": -2.5827005952,
				"y": 2.571433659,
				"z": 0.5839727446,
				"element": "F" 
			},
			{
				"x": -1.0971970493,
				"y": 3.4308792093,
				"z": -0.7432462913,
				"element": "F" 
			},
			{
				"x": 0.3688240305,
				"y": 1.9725838256,
				"z": -1.6774173826,
				"element": "H" 
			},
			{
				"x": -0.6145380689,
				"y": -2.0056400547,
				"z": 1.0416519876,
				"element": "H" 
			}
		],
		 "valence_orbital": [ 
			{
				"type": "occ",
				"energy": -0.41061,
				"method": "rhf"
			},
			{
				"type": "occ",
				"energy": -0.39915,
				"method": "rhf"
			},
			{
				"type": "occ",
				"energy": -0.37961,
				"method": "rhf"
			},
			{
				"type": "occ",
				"energy": -0.31606,
				"method": "rhf"
			},
			{
				"type": "occ",
				"energy": -0.31397,
				"method": "rhf"
			},
			{
				"type": "unocc",
				"energy": -0.09078,
				"method": "rhf"
			},
			{
				"type": "unocc",
				"energy": -0.06487,
				"method": "rhf"
			},
			{
				"type": "unocc",
				"energy": 0.05282,
				"method": "rhf"
			},
			{
				"type": "unocc",
				"energy": 0.08872,
				"method": "rhf"
			},
			{
				"type": "unocc",
				"energy": 0.10662,
				"method": "rhf"
			}
		],
		"cosmo_sigma_profile": { 
			"-0.025": 0.0,
			"-0.024": 0.0,
			"-0.023": 0.0,
			"-0.022": 0.0,
			"-0.021": 0.0,
			"-0.02": 0.0,
			"-0.019": 0.0,
			"-0.018": 0.0,
			"-0.017": 0.0,
			"-0.016": 0.0,
			"-0.015": 0.0,
			"-0.014": 0.0,
			"-0.013": 0.0,
			"-0.012": 0.0,
			"-0.011": 0.0,
			"-0.01": 0.0,
			"-0.009": 0.0,
			"-0.008": 1.03124947716,
			"-0.007": 3.83182691314,
			"-0.006": 7.24171411295,
			"-0.005": 9.66451977964,
			"-0.004": 15.4575327259,
			"-0.003": 23.6845326184,
			"-0.002": 16.3090394248,
			"-0.001": 13.2325138518,
			"0.0": 18.3884055035,
			"0.001": 39.1723862113,
			"0.002": 99.7236594038,
			"0.003": 21.4465433827,
			"0.004": 0.0,
			"0.005": 0.0,
			"0.006": 0.0,
			"0.007": 0.0,
			"0.008": 0.0,
			"0.009": 0.0,
			"0.01": 0.0,
			"0.011": 0.0,
			"0.012": 0.0,
			"0.013": 0.0,
			"0.014": 0.0,
			"0.015": 0.0,
			"0.016": 0.0,
			"0.017": 0.0,
			"0.018": 0.0,
			"0.019": 0.0,
			"0.02": 0.0,
			"0.021": 0.0,
			"0.022": 0.0,
			"0.023": 0.0,
			"0.024": 0.0,
			"0.025": 0.0
		}
	}
}
