{
	 "smiles": "BrC1=CC=C(C=C1)C1=CSC(=N1)C(=CC1=CC=CO1)C#N", 
	 "Tm": 447.15, 
	 "num_atms": 30, 
	 "gaussian": { 
		 "optdone": 1, 
		 "sigma_profile": "yes", 
		 "theory": "DFT", 
		 "functional": "B3LYP", 
		 "basiset": "6-31G**", 
		 "properties": { 
			 "R2extent": 12104.025, 
			 "electric_dipole_moment_norm": 3.70333260321, 
			 "electric_quadrupole_moment_norm": 40.4149168328, 
			 "total_energy": -3769.38808095, 
			 "HOMO_LUMO_gap": 0.1247, 
			 "cosmo_polarized_energy": -12.56, 
			 "cosmo_cavitation_energy": 40.81, 
			 "cosmo_dispersion_energy": -29.18, 
			 "cosmo_repulsion_energy": 2.15, 
			 "cosmo_total_nonelectrostatic_energy": 13.78, 
			 "SMD_solvation_energy": 7.19 
		},
		"coords": [
			{
				"x": 0.8769175832,
				"y": -0.0464337581,
				"z": 6.0151357288,
				"element": "Br" 
			},
			{
				"x": 1.2503254133,
				"y": 0.0473529435,
				"z": 4.1442932153,
				"element": "C" 
			},
			{
				"x": 0.6344602369,
				"y": -0.8505209228,
				"z": 3.2737631184,
				"element": "C" 
			},
			{
				"x": 0.909462926,
				"y": -0.7755500524,
				"z": 1.9101818113,
				"element": "C" 
			},
			{
				"x": 1.7954998438,
				"y": 0.1881677932,
				"z": 1.4021777362,
				"element": "C" 
			},
			{
				"x": 2.3966745829,
				"y": 1.0830216692,
				"z": 2.3017093191,
				"element": "C" 
			},
			{
				"x": 2.1320525845,
				"y": 1.0166762958,
				"z": 3.6674563613,
				"element": "C" 
			},
			{
				"x": 2.0874332613,
				"y": 0.2401380972,
				"z": -0.0430772078,
				"element": "C" 
			},
			{
				"x": 3.2384298994,
				"y": 0.7321607915,
				"z": -0.6148323743,
				"element": "C" 
			},
			{
				"x": 3.1908175373,
				"y": 0.5759800288,
				"z": -2.3290689145,
				"element": "S" 
			},
			{
				"x": 1.5863091677,
				"y": -0.1580026373,
				"z": -2.180482573,
				"element": "C" 
			},
			{
				"x": 1.1716041117,
				"y": -0.2586151251,
				"z": -0.9436505359,
				"element": "N" 
			},
			{
				"x": 0.8642740829,
				"y": -0.5810731081,
				"z": -3.3779601781,
				"element": "C" 
			},
			{
				"x": -0.4297434345,
				"y": -1.0296917662,
				"z": -3.4957482017,
				"element": "C" 
			},
			{
				"x": -1.4994838715,
				"y": -1.1953352191,
				"z": -2.5696341047,
				"element": "C" 
			},
			{
				"x": -1.7549056353,
				"y": -0.9880267206,
				"z": -1.2257343747,
				"element": "C" 
			},
			{
				"x": -3.1073851656,
				"y": -1.3520209312,
				"z": -1.0005982035,
				"element": "C" 
			},
			{
				"x": -3.599393864,
				"y": -1.763750458,
				"z": -2.2100718603,
				"element": "C" 
			},
			{
				"x": -2.6549940957,
				"y": -1.6781314815,
				"z": -3.1675197989,
				"element": "O" 
			},
			{
				"x": 1.6110336572,
				"y": -0.5156591405,
				"z": -4.6025210755,
				"element": "C" 
			},
			{
				"x": 2.2241310448,
				"y": -0.4533216862,
				"z": -5.5906677379,
				"element": "N" 
			},
			{
				"x": -0.0460157554,
				"y": -1.6020828412,
				"z": 3.6576445242,
				"element": "H" 
			},
			{
				"x": 0.4473525134,
				"y": -1.4807412236,
				"z": 1.2279096717,
				"element": "H" 
			},
			{
				"x": 3.0617701088,
				"y": 1.8576749295,
				"z": 1.932098916,
				"element": "H" 
			},
			{
				"x": 2.5964375055,
				"y": 1.716318887,
				"z": 4.3529071085,
				"element": "H" 
			},
			{
				"x": 4.1108166872,
				"y": 1.1338621184,
				"z": -0.1203963021,
				"element": "H" 
			},
			{
				"x": -0.7251476611,
				"y": -1.3050311003,
				"z": -4.5048955695,
				"element": "H" 
			},
			{
				"x": -1.0306855852,
				"y": -0.6175855595,
				"z": -0.5201966447,
				"element": "H" 
			},
			{
				"x": -3.6473924445,
				"y": -1.3168018466,
				"z": -0.065611864,
				"element": "H" 
			},
			{
				"x": -4.5634552349,
				"y": -2.1317779758,
				"z": -2.5278099897,
				"element": "H" 
			}
		],
		 "valence_orbital": [ 
			{
				"type": "occ",
				"energy": -0.29169,
				"method": "rhf"
			},
			{
				"type": "occ",
				"energy": -0.27968,
				"method": "rhf"
			},
			{
				"type": "occ",
				"energy": -0.27206,
				"method": "rhf"
			},
			{
				"type": "occ",
				"energy": -0.24203,
				"method": "rhf"
			},
			{
				"type": "occ",
				"energy": -0.2174,
				"method": "rhf"
			},
			{
				"type": "unocc",
				"energy": -0.0927,
				"method": "rhf"
			},
			{
				"type": "unocc",
				"energy": -0.04777,
				"method": "rhf"
			},
			{
				"type": "unocc",
				"energy": -0.02371,
				"method": "rhf"
			},
			{
				"type": "unocc",
				"energy": -0.01239,
				"method": "rhf"
			},
			{
				"type": "unocc",
				"energy": -0.00145,
				"method": "rhf"
			}
		],
		"cosmo_sigma_profile": { 
			"-0.025": 0.0,
			"-0.024": 0.0,
			"-0.023": 0.0,
			"-0.022": 0.0,
			"-0.021": 0.0,
			"-0.02": 0.0,
			"-0.019": 0.0,
			"-0.018": 0.0,
			"-0.017": 0.0,
			"-0.016": 0.0,
			"-0.015": 0.0,
			"-0.014": 0.0,
			"-0.013": 0.0,
			"-0.012": 0.0,
			"-0.011": 0.0758748891078,
			"-0.01": 3.21248476165,
			"-0.009": 5.77777991785,
			"-0.008": 7.84809940643,
			"-0.007": 11.6855891146,
			"-0.006": 12.7349871531,
			"-0.005": 13.9717220206,
			"-0.004": 15.3185564866,
			"-0.003": 20.2099187408,
			"-0.002": 19.3093882704,
			"-0.001": 24.2603348491,
			"0.0": 35.7847612136,
			"0.001": 40.4319607163,
			"0.002": 40.7352548171,
			"0.003": 34.4433989242,
			"0.004": 18.8020640776,
			"0.005": 10.2167139772,
			"0.006": 3.91469404513,
			"0.007": 3.05325451561,
			"0.008": 2.97587597588,
			"0.009": 2.99132460697,
			"0.01": 3.2978229239,
			"0.011": 2.49400782454,
			"0.012": 2.559305327,
			"0.013": 1.15997638486,
			"0.014": 0.0,
			"0.015": 0.0,
			"0.016": 0.0,
			"0.017": 0.0,
			"0.018": 0.0,
			"0.019": 0.0,
			"0.02": 0.0,
			"0.021": 0.0,
			"0.022": 0.0,
			"0.023": 0.0,
			"0.024": 0.0,
			"0.025": 0.0
		}
	}
}
