{
	 "smiles": "OC1C(O)C(OCC(Cl)(Cl)Cl)OC(C1O)C(O)=O", 
	 "Tm": 415.15, 
	 "num_atms": 29, 
	 "gaussian": { 
		 "optdone": 1, 
		 "sigma_profile": "yes", 
		 "theory": "DFT", 
		 "functional": "B3LYP", 
		 "basiset": "6-31G**", 
		 "properties": { 
			 "R2extent": 7831.8305, 
			 "electric_dipole_moment_norm": 3.23901192495, 
			 "electric_quadrupole_moment_norm": 17.5777295064, 
			 "total_energy": -2218.57077678, 
			 "HOMO_LUMO_gap": 0.2139, 
			 "cosmo_polarized_energy": -22.43, 
			 "cosmo_cavitation_energy": 37.64, 
			 "cosmo_dispersion_energy": -26.04, 
			 "cosmo_repulsion_energy": 2.04, 
			 "cosmo_total_nonelectrostatic_energy": 13.64, 
			 "SMD_solvation_energy": 5.92 
		},
		"coords": [
			{
				"x": -3.1340787643,
				"y": 0.8312861394,
				"z": 1.0337557691,
				"element": "O" 
			},
			{
				"x": -2.0580091054,
				"y": 0.2156791741,
				"z": 0.3538672947,
				"element": "C" 
			},
			{
				"x": -0.7319601694,
				"y": 0.9122029836,
				"z": 0.670429289,
				"element": "C" 
			},
			{
				"x": -0.8262012931,
				"y": 2.3153582908,
				"z": 0.5123165232,
				"element": "O" 
			},
			{
				"x": 0.3583528557,
				"y": 0.3179559681,
				"z": -0.2332598392,
				"element": "C" 
			},
			{
				"x": 0.1696766733,
				"y": 0.9072383208,
				"z": -1.4976608643,
				"element": "O" 
			},
			{
				"x": 1.1667765866,
				"y": 0.6209813008,
				"z": -2.4529359957,
				"element": "C" 
			},
			{
				"x": 1.0677243044,
				"y": 1.6359342419,
				"z": -3.5987916206,
				"element": "C" 
			},
			{
				"x": 2.3610054654,
				"y": 1.2298415911,
				"z": -4.7836895304,
				"element": "Cl" 
			},
			{
				"x": -0.5362508595,
				"y": 1.5328060418,
				"z": -4.3955702588,
				"element": "Cl" 
			},
			{
				"x": 1.3234733364,
				"y": 3.3052800856,
				"z": -2.9767776381,
				"element": "Cl" 
			},
			{
				"x": 0.2567302887,
				"y": -1.0992265129,
				"z": -0.3745775512,
				"element": "O" 
			},
			{
				"x": -0.595757628,
				"y": -1.8447785888,
				"z": 0.5239895176,
				"element": "C" 
			},
			{
				"x": -1.9869266521,
				"y": -1.243309577,
				"z": 0.799214928,
				"element": "C" 
			},
			{
				"x": -2.9412484536,
				"y": -2.0501659643,
				"z": 0.1232580132,
				"element": "O" 
			},
			{
				"x": 0.1886040895,
				"y": -2.1697921817,
				"z": 1.8153268077,
				"element": "C" 
			},
			{
				"x": 1.5265733708,
				"y": -2.1522739669,
				"z": 1.6533441798,
				"element": "O" 
			},
			{
				"x": -0.3329932277,
				"y": -2.4549027284,
				"z": 2.8636115349,
				"element": "O" 
			},
			{
				"x": -2.9906668356,
				"y": 1.787015983,
				"z": 0.9545724556,
				"element": "H" 
			},
			{
				"x": -2.2143312179,
				"y": 0.2350274976,
				"z": -0.7361609673,
				"element": "H" 
			},
			{
				"x": -0.4718032435,
				"y": 0.7402779807,
				"z": 1.7218419848,
				"element": "H" 
			},
			{
				"x": -0.7251415953,
				"y": 2.4972080911,
				"z": -0.4357117175,
				"element": "H" 
			},
			{
				"x": 1.3695363224,
				"y": 0.5588970876,
				"z": 0.1293631677,
				"element": "H" 
			},
			{
				"x": 1.0374159876,
				"y": -0.3824469503,
				"z": -2.8715174192,
				"element": "H" 
			},
			{
				"x": 2.1709558888,
				"y": 0.7052805132,
				"z": -2.0166114316,
				"element": "H" 
			},
			{
				"x": -0.7639171041,
				"y": -2.7971793078,
				"z": 0.0103256873,
				"element": "H" 
			},
			{
				"x": -2.154457599,
				"y": -1.2727108514,
				"z": 1.8831645607,
				"element": "H" 
			},
			{
				"x": -3.8148565746,
				"y": -1.7116431689,
				"z": 0.3633899983,
				"element": "H" 
			},
			{
				"x": 1.6974751535,
				"y": -1.8941414928,
				"z": 0.7295931224,
				"element": "H" 
			}
		],
		 "valence_orbital": [ 
			{
				"type": "occ",
				"energy": -0.32172,
				"method": "rhf"
			},
			{
				"type": "occ",
				"energy": -0.3163,
				"method": "rhf"
			},
			{
				"type": "occ",
				"energy": -0.28155,
				"method": "rhf"
			},
			{
				"type": "occ",
				"energy": -0.27818,
				"method": "rhf"
			},
			{
				"type": "occ",
				"energy": -0.27124,
				"method": "rhf"
			},
			{
				"type": "unocc",
				"energy": -0.05734,
				"method": "rhf"
			},
			{
				"type": "unocc",
				"energy": -0.01998,
				"method": "rhf"
			},
			{
				"type": "unocc",
				"energy": -0.01288,
				"method": "rhf"
			},
			{
				"type": "unocc",
				"energy": -0.01097,
				"method": "rhf"
			},
			{
				"type": "unocc",
				"energy": 0.04701,
				"method": "rhf"
			}
		],
		"cosmo_sigma_profile": { 
			"-0.025": 0.0,
			"-0.024": 0.0,
			"-0.023": 0.0,
			"-0.022": 0.0,
			"-0.021": 0.0,
			"-0.02": 0.0,
			"-0.019": 0.0,
			"-0.018": 0.0,
			"-0.017": 0.0,
			"-0.016": 0.144063635434,
			"-0.015": 1.2265553431,
			"-0.014": 1.53221944642,
			"-0.013": 2.2098317944,
			"-0.012": 1.69823358025,
			"-0.011": 3.56232237333,
			"-0.01": 7.05486002217,
			"-0.009": 9.31405674204,
			"-0.008": 13.5583564299,
			"-0.007": 12.7456439403,
			"-0.006": 10.8449869085,
			"-0.005": 8.17153314854,
			"-0.004": 14.1439058132,
			"-0.003": 14.2934776361,
			"-0.002": 16.3834740354,
			"-0.001": 17.1501356892,
			"0.0": 19.3325206827,
			"0.001": 20.4582187176,
			"0.002": 26.4698652428,
			"0.003": 32.6787860053,
			"0.004": 10.1163066458,
			"0.005": 6.59299341797,
			"0.006": 7.1822708304,
			"0.007": 6.30182108052,
			"0.008": 4.90599680999,
			"0.009": 7.99984860252,
			"0.01": 8.51489793979,
			"0.011": 8.46173084956,
			"0.012": 7.41380593346,
			"0.013": 1.57703446935,
			"0.014": 0.0,
			"0.015": 0.0,
			"0.016": 0.0,
			"0.017": 0.0,
			"0.018": 0.0,
			"0.019": 0.0,
			"0.02": 0.0,
			"0.021": 0.0,
			"0.022": 0.0,
			"0.023": 0.0,
			"0.024": 0.0,
			"0.025": 0.0
		}
	}
}
