{
	 "smiles": "CCNC1=NN=C(S)S1", 
	 "Tm": 415.15, 
	 "num_atms": 16, 
	 "gaussian": { 
		 "optdone": 1, 
		 "sigma_profile": "yes", 
		 "theory": "DFT", 
		 "functional": "B3LYP", 
		 "basiset": "6-31G**", 
		 "properties": { 
			 "R2extent": 2758.873, 
			 "electric_dipole_moment_norm": 3.43348208966, 
			 "electric_quadrupole_moment_norm": 10.8956866296, 
			 "total_energy": -1117.23617535, 
			 "HOMO_LUMO_gap": 0.19481, 
			 "cosmo_polarized_energy": -11.89, 
			 "cosmo_cavitation_energy": 23.34, 
			 "cosmo_dispersion_energy": -18.27, 
			 "cosmo_repulsion_energy": 1.42, 
			 "cosmo_total_nonelectrostatic_energy": 6.49, 
			 "SMD_solvation_energy": 0.68 
		},
		"coords": [
			{
				"x": 0.0918190526,
				"y": 2.0188088257,
				"z": 1.5716865238,
				"element": "C" 
			},
			{
				"x": 0.5403766989,
				"y": 1.6752860315,
				"z": 0.146878589,
				"element": "C" 
			},
			{
				"x": 1.6117895088,
				"y": 0.6843377978,
				"z": 0.066850917,
				"element": "N" 
			},
			{
				"x": 1.4218506397,
				"y": -0.6473990473,
				"z": 0.3104902756,
				"element": "C" 
			},
			{
				"x": 2.3735308942,
				"y": -1.4465639582,
				"z": 0.7157627153,
				"element": "N" 
			},
			{
				"x": 1.9755049488,
				"y": -2.7580731264,
				"z": 0.7930205507,
				"element": "N" 
			},
			{
				"x": 0.7349479984,
				"y": -2.9407162674,
				"z": 0.4719489625,
				"element": "C" 
			},
			{
				"x": -0.0996280385,
				"y": -4.5010556547,
				"z": 0.4917780416,
				"element": "S" 
			},
			{
				"x": -0.122676326,
				"y": -1.4647646556,
				"z": 0.0006178581,
				"element": "S" 
			},
			{
				"x": 0.9229246191,
				"y": 2.4269947533,
				"z": 2.1560552555,
				"element": "H" 
			},
			{
				"x": -0.7067091551,
				"y": 2.7678108009,
				"z": 1.5499311495,
				"element": "H" 
			},
			{
				"x": -0.2860751609,
				"y": 1.1329894197,
				"z": 2.0908113055,
				"element": "H" 
			},
			{
				"x": 0.8977332047,
				"y": 2.5734648085,
				"z": -0.3668208976,
				"element": "H" 
			},
			{
				"x": -0.3058675106,
				"y": 1.3045898476,
				"z": -0.4424108751,
				"element": "H" 
			},
			{
				"x": 2.527799752,
				"y": 0.9887441893,
				"z": 0.3755562042,
				"element": "H" 
			},
			{
				"x": 0.9872788739,
				"y": -5.1589537647,
				"z": 0.9425434242,
				"element": "H" 
			}
		],
		 "valence_orbital": [ 
			{
				"type": "occ",
				"energy": -0.30038,
				"method": "rhf"
			},
			{
				"type": "occ",
				"energy": -0.29763,
				"method": "rhf"
			},
			{
				"type": "occ",
				"energy": -0.27179,
				"method": "rhf"
			},
			{
				"type": "occ",
				"energy": -0.26207,
				"method": "rhf"
			},
			{
				"type": "occ",
				"energy": -0.21278,
				"method": "rhf"
			},
			{
				"type": "unocc",
				"energy": -0.01797,
				"method": "rhf"
			},
			{
				"type": "unocc",
				"energy": -0.01196,
				"method": "rhf"
			},
			{
				"type": "unocc",
				"energy": 0.01857,
				"method": "rhf"
			},
			{
				"type": "unocc",
				"energy": 0.03876,
				"method": "rhf"
			},
			{
				"type": "unocc",
				"energy": 0.04514,
				"method": "rhf"
			}
		],
		"cosmo_sigma_profile": { 
			"-0.025": 0.0,
			"-0.024": 0.0,
			"-0.023": 0.0,
			"-0.022": 0.0,
			"-0.021": 0.0,
			"-0.02": 0.0,
			"-0.019": 0.0,
			"-0.018": 0.0,
			"-0.017": 0.0,
			"-0.016": 0.0,
			"-0.015": 0.0593167786718,
			"-0.014": 0.88391512019,
			"-0.013": 1.2970925937,
			"-0.012": 1.67647192664,
			"-0.011": 2.77207101751,
			"-0.01": 1.90439115471,
			"-0.009": 2.22291880335,
			"-0.008": 2.96704499831,
			"-0.007": 2.43449448769,
			"-0.006": 6.73102891229,
			"-0.005": 8.70412523678,
			"-0.004": 13.2898794678,
			"-0.003": 17.6498728834,
			"-0.002": 15.3449022522,
			"-0.001": 17.1189442483,
			"0.0": 20.0538025438,
			"0.001": 13.9051752385,
			"0.002": 12.8391112746,
			"0.003": 8.87650157899,
			"0.004": 6.15282261407,
			"0.005": 5.02261039379,
			"0.006": 4.58733551463,
			"0.007": 4.3329837418,
			"0.008": 2.28183829222,
			"0.009": 1.83529105891,
			"0.01": 2.59109604127,
			"0.011": 2.66171477331,
			"0.012": 3.34923252189,
			"0.013": 3.20033555023,
			"0.014": 2.06524456832,
			"0.015": 1.12107750731,
			"0.016": 0.0755635807805,
			"0.017": 0.0,
			"0.018": 0.0,
			"0.019": 0.0,
			"0.02": 0.0,
			"0.021": 0.0,
			"0.022": 0.0,
			"0.023": 0.0,
			"0.024": 0.0,
			"0.025": 0.0
		}
	}
}
