{
	 "smiles": "CC1=C(C=CC=C1)C1=CSC(=O)N1", 
	 "Tm": 397.15, 
	 "num_atms": 22, 
	 "gaussian": { 
		 "optdone": 1, 
		 "sigma_profile": "yes", 
		 "theory": "DFT", 
		 "functional": "B3LYP", 
		 "basiset": "6-31G**", 
		 "properties": { 
			 "R2extent": 3501.8457, 
			 "electric_dipole_moment_norm": 4.76441996994, 
			 "electric_quadrupole_moment_norm": 15.6157030309, 
			 "total_energy": -914.664233801, 
			 "HOMO_LUMO_gap": 0.17797, 
			 "cosmo_polarized_energy": -11.61, 
			 "cosmo_cavitation_energy": 27.67, 
			 "cosmo_dispersion_energy": -20.51, 
			 "cosmo_repulsion_energy": 1.57, 
			 "cosmo_total_nonelectrostatic_energy": 8.72, 
			 "SMD_solvation_energy": 5.55 
		},
		"coords": [
			{
				"x": 0.5727812797,
				"y": -3.0156003218,
				"z": 1.5792085566,
				"element": "C" 
			},
			{
				"x": 0.7380571921,
				"y": -1.5181191358,
				"z": 1.7211367682,
				"element": "C" 
			},
			{
				"x": 0.2754382928,
				"y": -0.6073595725,
				"z": 0.7416842499,
				"element": "C" 
			},
			{
				"x": 0.5036083182,
				"y": 0.7684472676,
				"z": 0.9098383151,
				"element": "C" 
			},
			{
				"x": 1.1742087709,
				"y": 1.2562884933,
				"z": 2.0288277859,
				"element": "C" 
			},
			{
				"x": 1.6199422292,
				"y": 0.364591301,
				"z": 3.0036465387,
				"element": "C" 
			},
			{
				"x": 1.4022067124,
				"y": -1.0034789076,
				"z": 2.8413556239,
				"element": "C" 
			},
			{
				"x": -0.4247908427,
				"y": -1.0510716228,
				"z": -0.483486148,
				"element": "C" 
			},
			{
				"x": -0.1215125492,
				"y": -0.7158709352,
				"z": -1.7586952696,
				"element": "C" 
			},
			{
				"x": -1.222728009,
				"y": -1.4344938496,
				"z": -2.9247117244,
				"element": "S" 
			},
			{
				"x": -2.1692152349,
				"y": -2.2341738486,
				"z": -1.5932978427,
				"element": "C" 
			},
			{
				"x": -3.1560072315,
				"y": -2.9243368852,
				"z": -1.7213875575,
				"element": "O" 
			},
			{
				"x": -1.5421208656,
				"y": -1.889847256,
				"z": -0.4108150139,
				"element": "N" 
			},
			{
				"x": 0.7179571339,
				"y": -3.3447869051,
				"z": 0.5465219034,
				"element": "H" 
			},
			{
				"x": -0.4227202251,
				"y": -3.3571545463,
				"z": 1.8901273496,
				"element": "H" 
			},
			{
				"x": 1.2969718012,
				"y": -3.5403463741,
				"z": 2.2078520364,
				"element": "H" 
			},
			{
				"x": 0.1316407415,
				"y": 1.4539573123,
				"z": 0.1546556116,
				"element": "H" 
			},
			{
				"x": 1.3381609653,
				"y": 2.3238147973,
				"z": 2.1408179995,
				"element": "H" 
			},
			{
				"x": 2.1403594293,
				"y": 0.7289696841,
				"z": 3.8845811744,
				"element": "H" 
			},
			{
				"x": 1.7690798567,
				"y": -1.6963509439,
				"z": 3.5943933431,
				"element": "H" 
			},
			{
				"x": 0.7153901283,
				"y": -0.1119446951,
				"z": -2.0760494457,
				"element": "H" 
			},
			{
				"x": -1.9680078934,
				"y": -2.1739330559,
				"z": 0.4596957454,
				"element": "H" 
			}
		],
		 "valence_orbital": [ 
			{
				"type": "occ",
				"energy": -0.29677,
				"method": "rhf"
			},
			{
				"type": "occ",
				"energy": -0.27106,
				"method": "rhf"
			},
			{
				"type": "occ",
				"energy": -0.26352,
				"method": "rhf"
			},
			{
				"type": "occ",
				"energy": -0.25621,
				"method": "rhf"
			},
			{
				"type": "occ",
				"energy": -0.21114,
				"method": "rhf"
			},
			{
				"type": "unocc",
				"energy": -0.03317,
				"method": "rhf"
			},
			{
				"type": "unocc",
				"energy": -0.01389,
				"method": "rhf"
			},
			{
				"type": "unocc",
				"energy": 0.01191,
				"method": "rhf"
			},
			{
				"type": "unocc",
				"energy": 0.01722,
				"method": "rhf"
			},
			{
				"type": "unocc",
				"energy": 0.04281,
				"method": "rhf"
			}
		],
		"cosmo_sigma_profile": { 
			"-0.025": 0.0,
			"-0.024": 0.0,
			"-0.023": 0.0,
			"-0.022": 0.0,
			"-0.021": 0.0,
			"-0.02": 0.0,
			"-0.019": 0.0,
			"-0.018": 0.0,
			"-0.017": 0.0,
			"-0.016": 0.500232987835,
			"-0.015": 0.941471039062,
			"-0.014": 1.08093423409,
			"-0.013": 0.627854672339,
			"-0.012": 1.47019136577,
			"-0.011": 1.50635013707,
			"-0.01": 1.43662055681,
			"-0.009": 1.85634219834,
			"-0.008": 2.83154325851,
			"-0.007": 3.3697299224,
			"-0.006": 7.159785631,
			"-0.005": 14.2468360583,
			"-0.004": 16.3170581791,
			"-0.003": 15.9654863799,
			"-0.002": 14.7956471948,
			"-0.001": 21.0688018054,
			"0.0": 20.3788577981,
			"0.001": 17.0876598351,
			"0.002": 17.1214965744,
			"0.003": 15.7440165535,
			"0.004": 14.2109000232,
			"0.005": 12.7229733562,
			"0.006": 3.66558244384,
			"0.007": 1.3821209138,
			"0.008": 0.770080494974,
			"0.009": 1.68278949848,
			"0.01": 1.78118764679,
			"0.011": 2.26808129541,
			"0.012": 6.41896521792,
			"0.013": 3.00974962107,
			"0.014": 0.0170494464782,
			"0.015": 0.0,
			"0.016": 0.0,
			"0.017": 0.0,
			"0.018": 0.0,
			"0.019": 0.0,
			"0.02": 0.0,
			"0.021": 0.0,
			"0.022": 0.0,
			"0.023": 0.0,
			"0.024": 0.0,
			"0.025": 0.0
		}
	}
}
