{
	 "smiles": "CC1=C(N=C(N)S1)C1=CC(=CC=C1)[N+]([O-])=O", 
	 "Tm": 449.15, 
	 "num_atms": 25, 
	 "gaussian": { 
		 "optdone": 1, 
		 "sigma_profile": "yes", 
		 "theory": "DFT", 
		 "functional": "B3LYP", 
		 "basiset": "6-31G**", 
		 "properties": { 
			 "R2extent": 4877.9126, 
			 "electric_dipole_moment_norm": 6.25835767115, 
			 "electric_quadrupole_moment_norm": 7.07637481766, 
			 "total_energy": -1099.28557506, 
			 "HOMO_LUMO_gap": 0.12724, 
			 "cosmo_polarized_energy": -14.0, 
			 "cosmo_cavitation_energy": 31.65, 
			 "cosmo_dispersion_energy": -23.46, 
			 "cosmo_repulsion_energy": 1.78, 
			 "cosmo_total_nonelectrostatic_energy": 9.97, 
			 "SMD_solvation_energy": 6.03 
		},
		"coords": [
			{
				"x": -0.642304501,
				"y": -1.7080253724,
				"z": 2.1936056437,
				"element": "C" 
			},
			{
				"x": -0.8796159613,
				"y": -1.766619294,
				"z": 0.7130628505,
				"element": "C" 
			},
			{
				"x": -0.7785586216,
				"y": -0.8059033519,
				"z": -0.2650010047,
				"element": "C" 
			},
			{
				"x": -1.1797490193,
				"y": -1.1880440155,
				"z": -1.541107456,
				"element": "N" 
			},
			{
				"x": -1.5512288899,
				"y": -2.4308954071,
				"z": -1.5696676483,
				"element": "C" 
			},
			{
				"x": -1.9085609317,
				"y": -3.1042746865,
				"z": -2.71568481,
				"element": "N" 
			},
			{
				"x": -1.4583093107,
				"y": -3.2618627257,
				"z": -0.0144987281,
				"element": "S" 
			},
			{
				"x": -0.3371385273,
				"y": 0.5931883442,
				"z": -0.0910940812,
				"element": "C" 
			},
			{
				"x": 0.5713957189,
				"y": 0.9781590229,
				"z": 0.9048309426,
				"element": "C" 
			},
			{
				"x": 0.9384811425,
				"y": 2.3169192751,
				"z": 1.0158580936,
				"element": "C" 
			},
			{
				"x": 0.452041931,
				"y": 3.3031743884,
				"z": 0.1616578037,
				"element": "C" 
			},
			{
				"x": -0.4318706719,
				"y": 2.9143187857,
				"z": -0.844001927,
				"element": "C" 
			},
			{
				"x": -0.8180610856,
				"y": 1.5817458468,
				"z": -0.9723915588,
				"element": "C" 
			},
			{
				"x": 1.8920825598,
				"y": 2.698521317,
				"z": 2.0711871255,
				"element": "N" 
			},
			{
				"x": 2.2172666921,
				"y": 3.8830476518,
				"z": 2.1464898446,
				"element": "O" 
			},
			{
				"x": 2.3063600274,
				"y": 1.8117931646,
				"z": 2.8184544223,
				"element": "O" 
			},
			{
				"x": 0.3762051668,
				"y": -2.0116408181,
				"z": 2.4664765504,
				"element": "H" 
			},
			{
				"x": -0.7995163785,
				"y": -0.6938408785,
				"z": 2.5697379,
				"element": "H" 
			},
			{
				"x": -1.3316179128,
				"y": -2.3688889975,
				"z": 2.7279972859,
				"element": "H" 
			},
			{
				"x": -2.5934943611,
				"y": -3.8405011807,
				"z": -2.6203257859,
				"element": "H" 
			},
			{
				"x": -2.075497055,
				"y": -2.4861643467,
				"z": -3.4991553911,
				"element": "H" 
			},
			{
				"x": 1.025079096,
				"y": 0.2626492935,
				"z": 1.5756015878,
				"element": "H" 
			},
			{
				"x": 0.7711658291,
				"y": 4.3295752777,
				"z": 0.2888920849,
				"element": "H" 
			},
			{
				"x": -0.8219750669,
				"y": 3.6575224369,
				"z": -1.5324831079,
				"element": "H" 
			},
			{
				"x": -1.495879869,
				"y": 1.27914627,
				"z": -1.7623406364,
				"element": "H" 
			}
		],
		 "valence_orbital": [ 
			{
				"type": "occ",
				"energy": -0.28594,
				"method": "rhf"
			},
			{
				"type": "occ",
				"energy": -0.28106,
				"method": "rhf"
			},
			{
				"type": "occ",
				"energy": -0.27365,
				"method": "rhf"
			},
			{
				"type": "occ",
				"energy": -0.26336,
				"method": "rhf"
			},
			{
				"type": "occ",
				"energy": -0.21093,
				"method": "rhf"
			},
			{
				"type": "unocc",
				"energy": -0.08369,
				"method": "rhf"
			},
			{
				"type": "unocc",
				"energy": -0.04037,
				"method": "rhf"
			},
			{
				"type": "unocc",
				"energy": -0.0034,
				"method": "rhf"
			},
			{
				"type": "unocc",
				"energy": -0.00106,
				"method": "rhf"
			},
			{
				"type": "unocc",
				"energy": 0.00959,
				"method": "rhf"
			}
		],
		"cosmo_sigma_profile": { 
			"-0.025": 0.0,
			"-0.024": 0.0,
			"-0.023": 0.0,
			"-0.022": 0.0,
			"-0.021": 0.0,
			"-0.02": 0.0,
			"-0.019": 0.0,
			"-0.018": 0.0,
			"-0.017": 0.0,
			"-0.016": 0.0,
			"-0.015": 0.213310961226,
			"-0.014": 1.916160966,
			"-0.013": 3.26705576113,
			"-0.012": 1.60135460149,
			"-0.011": 3.2545871333,
			"-0.01": 2.33250674408,
			"-0.009": 2.27930539523,
			"-0.008": 2.32931320609,
			"-0.007": 4.90904753063,
			"-0.006": 10.2020890307,
			"-0.005": 17.1877845818,
			"-0.004": 15.2941310553,
			"-0.003": 15.8905396791,
			"-0.002": 17.2415852218,
			"-0.001": 19.2989007727,
			"0.0": 15.7723529606,
			"0.001": 21.0157035239,
			"0.002": 25.4509611779,
			"0.003": 17.7723776225,
			"0.004": 11.2313440936,
			"0.005": 5.74492696059,
			"0.006": 8.11428419375,
			"0.007": 9.93728938437,
			"0.008": 9.46041147511,
			"0.009": 6.24337438265,
			"0.01": 4.66074711053,
			"0.011": 1.67229173486,
			"0.012": 0.687120343418,
			"0.013": 0.631165719702,
			"0.014": 0.0,
			"0.015": 0.0,
			"0.016": 0.0,
			"0.017": 0.0,
			"0.018": 0.0,
			"0.019": 0.0,
			"0.02": 0.0,
			"0.021": 0.0,
			"0.022": 0.0,
			"0.023": 0.0,
			"0.024": 0.0,
			"0.025": 0.0
		}
	}
}
