{
	 "smiles": "NS(=O)(=O)C1=C(C=C(F)C=C1)[N+]([O-])=O", 
	 "Tm": 427.15, 
	 "num_atms": 19, 
	 "gaussian": { 
		 "optdone": 1, 
		 "sigma_profile": "yes", 
		 "theory": "DFT", 
		 "functional": "B3LYP", 
		 "basiset": "6-31G**", 
		 "properties": { 
			 "R2extent": 3404.3682, 
			 "electric_dipole_moment_norm": 3.85381414316, 
			 "electric_quadrupole_moment_norm": 10.3329966201, 
			 "total_energy": -1139.88699635, 
			 "HOMO_LUMO_gap": 0.17203, 
			 "cosmo_polarized_energy": -16.04, 
			 "cosmo_cavitation_energy": 25.85, 
			 "cosmo_dispersion_energy": -19.64, 
			 "cosmo_repulsion_energy": 1.46, 
			 "cosmo_total_nonelectrostatic_energy": 7.66, 
			 "SMD_solvation_energy": 6.53 
		},
		"coords": [
			{
				"x": 1.5102651296,
				"y": -3.2357706017,
				"z": 1.5195877114,
				"element": "N" 
			},
			{
				"x": 1.2479075855,
				"y": -2.6687762027,
				"z": -0.0364621017,
				"element": "S" 
			},
			{
				"x": 2.4789982861,
				"y": -2.9934521431,
				"z": -0.76280341,
				"element": "O" 
			},
			{
				"x": -0.0554623205,
				"y": -3.0490625528,
				"z": -0.5776181777,
				"element": "O" 
			},
			{
				"x": 1.2410746036,
				"y": -0.8649166371,
				"z": 0.1745282036,
				"element": "C" 
			},
			{
				"x": 0.1885775762,
				"y": -0.0936842464,
				"z": 0.693554086,
				"element": "C" 
			},
			{
				"x": 0.2255885118,
				"y": 1.2972796385,
				"z": 0.6696093858,
				"element": "C" 
			},
			{
				"x": 1.3451013178,
				"y": 1.9203086044,
				"z": 0.1328494455,
				"element": "C" 
			},
			{
				"x": 1.3927338257,
				"y": 3.2593312537,
				"z": 0.1208064847,
				"element": "F" 
			},
			{
				"x": 2.4084331157,
				"y": 1.1939169738,
				"z": -0.3879372552,
				"element": "C" 
			},
			{
				"x": 2.3394480813,
				"y": -0.1980725977,
				"z": -0.3737981328,
				"element": "C" 
			},
			{
				"x": -1.0019447041,
				"y": -0.6863627853,
				"z": 1.3343788373,
				"element": "N" 
			},
			{
				"x": -0.8789151542,
				"y": -1.7884933223,
				"z": 1.8653514808,
				"element": "O" 
			},
			{
				"x": -2.031632893,
				"y": -0.021843083,
				"z": 1.3313354799,
				"element": "O" 
			},
			{
				"x": 2.0816033966,
				"y": -4.0748621019,
				"z": 1.465199698,
				"element": "H" 
			},
			{
				"x": 0.6371134075,
				"y": -3.3649490822,
				"z": 2.0216472875,
				"element": "H" 
			},
			{
				"x": -0.6008131618,
				"y": 1.8732827199,
				"z": 1.0648959964,
				"element": "H" 
			},
			{
				"x": 3.264066975,
				"y": 1.7129203912,
				"z": -0.8049668329,
				"element": "H" 
			},
			{
				"x": 3.136556421,
				"y": -0.7934942253,
				"z": -0.8032581866,
				"element": "H" 
			}
		],
		 "valence_orbital": [ 
			{
				"type": "occ",
				"energy": -0.32563,
				"method": "rhf"
			},
			{
				"type": "occ",
				"energy": -0.32033,
				"method": "rhf"
			},
			{
				"type": "occ",
				"energy": -0.30374,
				"method": "rhf"
			},
			{
				"type": "occ",
				"energy": -0.2991,
				"method": "rhf"
			},
			{
				"type": "occ",
				"energy": -0.28518,
				"method": "rhf"
			},
			{
				"type": "unocc",
				"energy": -0.11315,
				"method": "rhf"
			},
			{
				"type": "unocc",
				"energy": -0.0539,
				"method": "rhf"
			},
			{
				"type": "unocc",
				"energy": -0.03354,
				"method": "rhf"
			},
			{
				"type": "unocc",
				"energy": 0.02982,
				"method": "rhf"
			},
			{
				"type": "unocc",
				"energy": 0.06048,
				"method": "rhf"
			}
		],
		"cosmo_sigma_profile": { 
			"-0.025": 0.0,
			"-0.024": 0.0,
			"-0.023": 0.0,
			"-0.022": 0.0,
			"-0.021": 0.0,
			"-0.02": 0.0,
			"-0.019": 0.0,
			"-0.018": 0.0,
			"-0.017": 0.0,
			"-0.016": 0.390539193454,
			"-0.015": 1.28305589363,
			"-0.014": 1.76454828052,
			"-0.013": 1.79055543454,
			"-0.012": 2.86966624682,
			"-0.011": 2.04822383712,
			"-0.01": 2.95486915573,
			"-0.009": 5.54820567188,
			"-0.008": 8.00033004318,
			"-0.007": 6.72612484324,
			"-0.006": 7.11763997299,
			"-0.005": 6.46034803952,
			"-0.004": 7.87559626501,
			"-0.003": 19.7785048485,
			"-0.002": 17.8994723294,
			"-0.001": 14.1027104294,
			"0.0": 9.30248089331,
			"0.001": 7.79581381601,
			"0.002": 9.25753379492,
			"0.003": 15.3454993647,
			"0.004": 4.74832875888,
			"0.005": 6.39897353554,
			"0.006": 8.0426407042,
			"0.007": 9.70041968454,
			"0.008": 8.08101614866,
			"0.009": 6.51088777501,
			"0.01": 9.40294144835,
			"0.011": 6.57523582305,
			"0.012": 0.368189510943,
			"0.013": 0.0,
			"0.014": 0.0,
			"0.015": 0.0,
			"0.016": 0.0,
			"0.017": 0.0,
			"0.018": 0.0,
			"0.019": 0.0,
			"0.02": 0.0,
			"0.021": 0.0,
			"0.022": 0.0,
			"0.023": 0.0,
			"0.024": 0.0,
			"0.025": 0.0
		}
	}
}
