{
	 "smiles": "[O-][N+](=O)C1=CC=C2C(=O)N(CCCCCCBr)C(=O)C2=C1", 
	 "Tm": 357.15, 
	 "num_atms": 36, 
	 "gaussian": { 
		 "optdone": 1, 
		 "sigma_profile": "yes", 
		 "theory": "DFT", 
		 "functional": "B3LYP", 
		 "basiset": "6-31G**", 
		 "properties": { 
			 "R2extent": 13811.0791, 
			 "electric_dipole_moment_norm": 3.83622614297, 
			 "electric_quadrupole_moment_norm": 14.5190255176, 
			 "total_energy": -3524.27969166, 
			 "HOMO_LUMO_gap": 0.14995, 
			 "cosmo_polarized_energy": -16.45, 
			 "cosmo_cavitation_energy": 42.72, 
			 "cosmo_dispersion_energy": -29.87, 
			 "cosmo_repulsion_energy": 2.27, 
			 "cosmo_total_nonelectrostatic_energy": 15.12, 
			 "SMD_solvation_energy": 8.78 
		},
		"coords": [
			{
				"x": 2.4891017631,
				"y": 1.6059339803,
				"z": -5.6434716534,
				"element": "O" 
			},
			{
				"x": 1.6374446237,
				"y": 0.7576394289,
				"z": -5.8971483448,
				"element": "N" 
			},
			{
				"x": 1.3007122536,
				"y": 0.4071541181,
				"z": -7.02594832,
				"element": "O" 
			},
			{
				"x": 0.9662196552,
				"y": 0.1085550734,
				"z": -4.7516351206,
				"element": "C" 
			},
			{
				"x": -0.0054042117,
				"y": -0.8607739382,
				"z": -5.0154484186,
				"element": "C" 
			},
			{
				"x": -0.6577677469,
				"y": -1.494140721,
				"z": -3.9525272135,
				"element": "C" 
			},
			{
				"x": -0.3000709623,
				"y": -1.118547762,
				"z": -2.6652945188,
				"element": "C" 
			},
			{
				"x": -0.8047344104,
				"y": -1.6071374326,
				"z": -1.3426585115,
				"element": "C" 
			},
			{
				"x": -1.6390308508,
				"y": -2.4603531375,
				"z": -1.1177743017,
				"element": "O" 
			},
			{
				"x": -0.1006994205,
				"y": -0.8769102733,
				"z": -0.3744189662,
				"element": "N" 
			},
			{
				"x": -0.2697248243,
				"y": -1.0734908385,
				"z": 1.0651693421,
				"element": "C" 
			},
			{
				"x": -1.5594673068,
				"y": -0.4511523549,
				"z": 1.623340903,
				"element": "C" 
			},
			{
				"x": -1.6775699478,
				"y": 1.0756839027,
				"z": 1.4820901207,
				"element": "C" 
			},
			{
				"x": -0.615429492,
				"y": 1.9146135844,
				"z": 2.2160543541,
				"element": "C" 
			},
			{
				"x": -0.5449723366,
				"y": 1.7238511167,
				"z": 3.7394244862,
				"element": "C" 
			},
			{
				"x": -1.8275959798,
				"y": 2.0067926046,
				"z": 4.5102232862,
				"element": "C" 
			},
			{
				"x": -2.4344276285,
				"y": 3.8913069125,
				"z": 4.3259098602,
				"element": "Br" 
			},
			{
				"x": 0.8209251767,
				"y": 0.0150537767,
				"z": -0.9455918836,
				"element": "C" 
			},
			{
				"x": 1.5736189372,
				"y": 0.747049619,
				"z": -0.3353196742,
				"element": "O" 
			},
			{
				"x": 0.6738701232,
				"y": -0.1468284513,
				"z": -2.4255566439,
				"element": "C" 
			},
			{
				"x": 1.3357407714,
				"y": 0.494219424,
				"z": -3.4594372661,
				"element": "C" 
			},
			{
				"x": -0.232524025,
				"y": -1.1015948415,
				"z": -6.0464561882,
				"element": "H" 
			},
			{
				"x": -1.4151022938,
				"y": -2.2511788894,
				"z": -4.1252900379,
				"element": "H" 
			},
			{
				"x": -0.2758894599,
				"y": -2.1522110105,
				"z": 1.2475803659,
				"element": "H" 
			},
			{
				"x": 0.6203906641,
				"y": -0.6488966809,
				"z": 1.5349878326,
				"element": "H" 
			},
			{
				"x": -1.6221019262,
				"y": -0.7439076331,
				"z": 2.6792485103,
				"element": "H" 
			},
			{
				"x": -2.4111187517,
				"y": -0.9291524333,
				"z": 1.1270513851,
				"element": "H" 
			},
			{
				"x": -1.6445248426,
				"y": 1.3397058019,
				"z": 0.4173316585,
				"element": "H" 
			},
			{
				"x": -2.6784361402,
				"y": 1.3728616421,
				"z": 1.8191496055,
				"element": "H" 
			},
			{
				"x": 0.3743465055,
				"y": 1.7080797533,
				"z": 1.7942706128,
				"element": "H" 
			},
			{
				"x": -0.8164216142,
				"y": 2.971945751,
				"z": 2.0108081328,
				"element": "H" 
			},
			{
				"x": 0.2569788145,
				"y": 2.3528625327,
				"z": 4.1410647236,
				"element": "H" 
			},
			{
				"x": -0.2669126861,
				"y": 0.6870145248,
				"z": 3.9817469383,
				"element": "H" 
			},
			{
				"x": -2.6721304672,
				"y": 1.4087294599,
				"z": 4.1686950032,
				"element": "H" 
			},
			{
				"x": -1.6964974541,
				"y": 1.8633913987,
				"z": 5.5822026559,
				"element": "H" 
			},
			{
				"x": 2.0947054912,
				"y": 1.2488319923,
				"z": -3.2951727139,
				"element": "H" 
			}
		],
		 "valence_orbital": [ 
			{
				"type": "occ",
				"energy": -0.30543,
				"method": "rhf"
			},
			{
				"type": "occ",
				"energy": -0.28843,
				"method": "rhf"
			},
			{
				"type": "occ",
				"energy": -0.28703,
				"method": "rhf"
			},
			{
				"type": "occ",
				"energy": -0.27207,
				"method": "rhf"
			},
			{
				"type": "occ",
				"energy": -0.2705,
				"method": "rhf"
			},
			{
				"type": "unocc",
				"energy": -0.12055,
				"method": "rhf"
			},
			{
				"type": "unocc",
				"energy": -0.08648,
				"method": "rhf"
			},
			{
				"type": "unocc",
				"energy": -0.05395,
				"method": "rhf"
			},
			{
				"type": "unocc",
				"energy": 0.00263,
				"method": "rhf"
			},
			{
				"type": "unocc",
				"energy": 0.01944,
				"method": "rhf"
			}
		],
		"cosmo_sigma_profile": { 
			"-0.025": 0.0,
			"-0.024": 0.0,
			"-0.023": 0.0,
			"-0.022": 0.0,
			"-0.021": 0.0,
			"-0.02": 0.0,
			"-0.019": 0.0,
			"-0.018": 0.0,
			"-0.017": 0.0,
			"-0.016": 0.0,
			"-0.015": 0.0,
			"-0.014": 0.0,
			"-0.013": 0.0,
			"-0.012": 0.0,
			"-0.011": 0.0,
			"-0.01": 0.0838649105318,
			"-0.009": 2.46513744465,
			"-0.008": 5.23622038182,
			"-0.007": 9.86858040815,
			"-0.006": 13.081434942,
			"-0.005": 26.9704811753,
			"-0.004": 30.8308531833,
			"-0.003": 37.1841078264,
			"-0.002": 36.2921242935,
			"-0.001": 31.2928643887,
			"0.0": 22.0427183581,
			"0.001": 15.9268698761,
			"0.002": 11.0098981667,
			"0.003": 11.1118469493,
			"0.004": 11.8219085417,
			"0.005": 13.0000739531,
			"0.006": 17.5653281262,
			"0.007": 17.2252283245,
			"0.008": 8.89307063779,
			"0.009": 5.94027488306,
			"0.01": 7.8279148417,
			"0.011": 6.18818571698,
			"0.012": 0.454101366467,
			"0.013": 0.0,
			"0.014": 0.0,
			"0.015": 0.0,
			"0.016": 0.0,
			"0.017": 0.0,
			"0.018": 0.0,
			"0.019": 0.0,
			"0.02": 0.0,
			"0.021": 0.0,
			"0.022": 0.0,
			"0.023": 0.0,
			"0.024": 0.0,
			"0.025": 0.0
		}
	}
}
