{
	 "smiles": "CC1=CC(=O)OC2=C1C=CC(O)=C2", 
	 "Tm": 467.15, 
	 "num_atms": 21, 
	 "gaussian": { 
		 "optdone": 1, 
		 "sigma_profile": "yes", 
		 "theory": "DFT", 
		 "functional": "B3LYP", 
		 "basiset": "6-31G**", 
		 "properties": { 
			 "R2extent": 2625.8005, 
			 "electric_dipole_moment_norm": 6.70096588112, 
			 "electric_quadrupole_moment_norm": 7.08196589656, 
			 "total_energy": -611.565574159, 
			 "HOMO_LUMO_gap": 0.16613, 
			 "cosmo_polarized_energy": -16.55, 
			 "cosmo_cavitation_energy": 25.38, 
			 "cosmo_dispersion_energy": -19.0, 
			 "cosmo_repulsion_energy": 1.48, 
			 "cosmo_total_nonelectrostatic_energy": 7.85, 
			 "SMD_solvation_energy": 5.9 
		},
		"coords": [
			{
				"x": -0.9949794045,
				"y": -2.4629442895,
				"z": -2.8645667612,
				"element": "C" 
			},
			{
				"x": -1.1340627105,
				"y": -1.4518494771,
				"z": -1.7583434266,
				"element": "C" 
			},
			{
				"x": -2.3371970978,
				"y": -0.8935180414,
				"z": -1.4655444954,
				"element": "C" 
			},
			{
				"x": -2.5233464881,
				"y": 0.0868123966,
				"z": -0.4078146257,
				"element": "C" 
			},
			{
				"x": -3.5637285253,
				"y": 0.6185427853,
				"z": -0.0977939106,
				"element": "O" 
			},
			{
				"x": -1.3768702502,
				"y": 0.4366863481,
				"z": 0.3129358723,
				"element": "O" 
			},
			{
				"x": -0.1553302484,
				"y": -0.1027131006,
				"z": 0.0467416703,
				"element": "C" 
			},
			{
				"x": 0.0262895572,
				"y": -1.0552567374,
				"z": -0.9812791942,
				"element": "C" 
			},
			{
				"x": 1.3274534231,
				"y": -1.5537302434,
				"z": -1.1785663172,
				"element": "C" 
			},
			{
				"x": 2.3920655941,
				"y": -1.1301569509,
				"z": -0.3979969581,
				"element": "C" 
			},
			{
				"x": 2.1773460252,
				"y": -0.1805741685,
				"z": 0.6172193571,
				"element": "C" 
			},
			{
				"x": 3.1812675945,
				"y": 0.27296602,
				"z": 1.4145514868,
				"element": "O" 
			},
			{
				"x": 0.9015083909,
				"y": 0.3349197775,
				"z": 0.8410333906,
				"element": "C" 
			},
			{
				"x": -0.2894460973,
				"y": -2.1166281944,
				"z": -3.6285455383,
				"element": "H" 
			},
			{
				"x": -1.9562945114,
				"y": -2.6495056846,
				"z": -3.3473392606,
				"element": "H" 
			},
			{
				"x": -0.6133233883,
				"y": -3.416291318,
				"z": -2.4813648571,
				"element": "H" 
			},
			{
				"x": -3.2356075798,
				"y": -1.1534368163,
				"z": -2.0135477299,
				"element": "H" 
			},
			{
				"x": 1.5049355061,
				"y": -2.2864400933,
				"z": -1.9586149683,
				"element": "H" 
			},
			{
				"x": 3.3892538986,
				"y": -1.5286352441,
				"z": -0.5678538356,
				"element": "H" 
			},
			{
				"x": 4.0102719834,
				"y": -0.1551792487,
				"z": 1.1636593867,
				"element": "H" 
			},
			{
				"x": 0.7299943285,
				"y": 1.0664322807,
				"z": 1.6214307151,
				"element": "H" 
			}
		],
		 "valence_orbital": [ 
			{
				"type": "occ",
				"energy": -0.3366,
				"method": "rhf"
			},
			{
				"type": "occ",
				"energy": -0.29031,
				"method": "rhf"
			},
			{
				"type": "occ",
				"energy": -0.26649,
				"method": "rhf"
			},
			{
				"type": "occ",
				"energy": -0.25102,
				"method": "rhf"
			},
			{
				"type": "occ",
				"energy": -0.22416,
				"method": "rhf"
			},
			{
				"type": "unocc",
				"energy": -0.05803,
				"method": "rhf"
			},
			{
				"type": "unocc",
				"energy": -0.0124,
				"method": "rhf"
			},
			{
				"type": "unocc",
				"energy": 0.01078,
				"method": "rhf"
			},
			{
				"type": "unocc",
				"energy": 0.05648,
				"method": "rhf"
			},
			{
				"type": "unocc",
				"energy": 0.08058,
				"method": "rhf"
			}
		],
		"cosmo_sigma_profile": { 
			"-0.025": 0.0,
			"-0.024": 0.0,
			"-0.023": 0.0,
			"-0.022": 0.0,
			"-0.021": 0.0,
			"-0.02": 0.0,
			"-0.019": 0.134569217843,
			"-0.018": 1.03966357642,
			"-0.017": 1.2808078567,
			"-0.016": 1.0094571872,
			"-0.015": 1.35897263889,
			"-0.014": 0.975277602345,
			"-0.013": 0.694884940915,
			"-0.012": 0.504620466891,
			"-0.011": 1.72849687323,
			"-0.01": 1.34025125709,
			"-0.009": 0.518516815034,
			"-0.008": 1.35719471497,
			"-0.007": 6.63055090983,
			"-0.006": 12.0063619053,
			"-0.005": 13.8949390723,
			"-0.004": 11.3442388221,
			"-0.003": 13.7119836928,
			"-0.002": 13.6515987282,
			"-0.001": 13.948658408,
			"0.0": 14.8717460758,
			"0.001": 15.4452108797,
			"0.002": 18.5473298784,
			"0.003": 13.1957427762,
			"0.004": 6.76196787101,
			"0.005": 3.13996248534,
			"0.006": 3.73122458631,
			"0.007": 3.36249185185,
			"0.008": 3.13150237478,
			"0.009": 4.16511014616,
			"0.01": 4.8907981452,
			"0.011": 3.55826707273,
			"0.012": 6.03642577216,
			"0.013": 4.36674097764,
			"0.014": 0.61345517565,
			"0.015": 0.0,
			"0.016": 0.0,
			"0.017": 0.0,
			"0.018": 0.0,
			"0.019": 0.0,
			"0.02": 0.0,
			"0.021": 0.0,
			"0.022": 0.0,
			"0.023": 0.0,
			"0.024": 0.0,
			"0.025": 0.0
		}
	}
}
