{
	 "smiles": "CC(C)C1=NOC2=C1C(=CC(C)=N2)C(O)=O", 
	 "Tm": 476.15, 
	 "num_atms": 28, 
	 "gaussian": { 
		 "optdone": 1, 
		 "sigma_profile": "yes", 
		 "theory": "DFT", 
		 "functional": "B3LYP", 
		 "basiset": "6-31G**", 
		 "properties": { 
			 "R2extent": 4218.9712, 
			 "electric_dipole_moment_norm": 3.40172651605, 
			 "electric_quadrupole_moment_norm": 15.4287443637, 
			 "total_energy": -761.563602163, 
			 "HOMO_LUMO_gap": 0.17624, 
			 "cosmo_polarized_energy": -13.69, 
			 "cosmo_cavitation_energy": 31.62, 
			 "cosmo_dispersion_energy": -22.87, 
			 "cosmo_repulsion_energy": 1.78, 
			 "cosmo_total_nonelectrostatic_energy": 10.54, 
			 "SMD_solvation_energy": 5.31 
		},
		"coords": [
			{
				"x": 0.0626517006,
				"y": -1.8628327094,
				"z": 2.9703726468,
				"element": "C" 
			},
			{
				"x": 1.3735423693,
				"y": -2.0722362785,
				"z": 2.1835386056,
				"element": "C" 
			},
			{
				"x": 1.8036637047,
				"y": -3.5465720345,
				"z": 2.2200113801,
				"element": "C" 
			},
			{
				"x": 1.2182907454,
				"y": -1.5576975319,
				"z": 0.7690565971,
				"element": "C" 
			},
			{
				"x": 1.0952283083,
				"y": -2.4343523994,
				"z": -0.1983348191,
				"element": "N" 
			},
			{
				"x": 0.9002295911,
				"y": -1.7494956869,
				"z": -1.4047553509,
				"element": "O" 
			},
			{
				"x": 0.904680556,
				"y": -0.4280469695,
				"z": -1.1370800174,
				"element": "C" 
			},
			{
				"x": 1.1165664591,
				"y": -0.2096282634,
				"z": 0.2382017407,
				"element": "C" 
			},
			{
				"x": 1.144795272,
				"y": 1.151055531,
				"z": 0.6311239268,
				"element": "C" 
			},
			{
				"x": 0.9371192893,
				"y": 2.1034130604,
				"z": -0.3647123063,
				"element": "C" 
			},
			{
				"x": 0.7331111155,
				"y": 1.7354768623,
				"z": -1.7124584865,
				"element": "C" 
			},
			{
				"x": 0.5223210324,
				"y": 2.7859838945,
				"z": -2.7714360815,
				"element": "C" 
			},
			{
				"x": 0.7225451359,
				"y": 0.4566436841,
				"z": -2.1058059713,
				"element": "N" 
			},
			{
				"x": 1.3905532775,
				"y": 1.703598646,
				"z": 1.9994929921,
				"element": "C" 
			},
			{
				"x": 1.9179018063,
				"y": 0.8113553912,
				"z": 2.8658563634,
				"element": "O" 
			},
			{
				"x": 1.1713785376,
				"y": 2.8545771477,
				"z": 2.3147976948,
				"element": "O" 
			},
			{
				"x": 0.192651724,
				"y": -2.1837652195,
				"z": 4.0091283182,
				"element": "H" 
			},
			{
				"x": -0.245753784,
				"y": -0.8142562005,
				"z": 2.9786812784,
				"element": "H" 
			},
			{
				"x": -0.7473478866,
				"y": -2.4547841677,
				"z": 2.5315011516,
				"element": "H" 
			},
			{
				"x": 2.1509637017,
				"y": -1.4697553936,
				"z": 2.6598876086,
				"element": "H" 
			},
			{
				"x": 2.7408519379,
				"y": -3.7039662784,
				"z": 1.6792945269,
				"element": "H" 
			},
			{
				"x": 1.0486753136,
				"y": -4.1941366481,
				"z": 1.7666502076,
				"element": "H" 
			},
			{
				"x": 1.9476979569,
				"y": -3.8596812604,
				"z": 3.2590192165,
				"element": "H" 
			},
			{
				"x": 0.9429881389,
				"y": 3.1498798354,
				"z": -0.0822267109,
				"element": "H" 
			},
			{
				"x": -0.3500987809,
				"y": 3.4071112422,
				"z": -2.5399581093,
				"element": "H" 
			},
			{
				"x": 0.3703068242,
				"y": 2.3085055148,
				"z": -3.7401492852,
				"element": "H" 
			},
			{
				"x": 1.3870981939,
				"y": 3.4556810574,
				"z": -2.8380462754,
				"element": "H" 
			},
			{
				"x": 2.0344877595,
				"y": 1.2884251747,
				"z": 3.7050491586,
				"element": "H" 
			}
		],
		 "valence_orbital": [ 
			{
				"type": "occ",
				"energy": -0.30999,
				"method": "rhf"
			},
			{
				"type": "occ",
				"energy": -0.30087,
				"method": "rhf"
			},
			{
				"type": "occ",
				"energy": -0.28227,
				"method": "rhf"
			},
			{
				"type": "occ",
				"energy": -0.26985,
				"method": "rhf"
			},
			{
				"type": "occ",
				"energy": -0.26217,
				"method": "rhf"
			},
			{
				"type": "unocc",
				"energy": -0.08593,
				"method": "rhf"
			},
			{
				"type": "unocc",
				"energy": -0.0245,
				"method": "rhf"
			},
			{
				"type": "unocc",
				"energy": 0.01894,
				"method": "rhf"
			},
			{
				"type": "unocc",
				"energy": 0.03906,
				"method": "rhf"
			},
			{
				"type": "unocc",
				"energy": 0.05786,
				"method": "rhf"
			}
		],
		"cosmo_sigma_profile": { 
			"-0.025": 0.0,
			"-0.024": 0.0,
			"-0.023": 0.0,
			"-0.022": 0.0,
			"-0.021": 0.0,
			"-0.02": 0.0,
			"-0.019": 0.493403476826,
			"-0.018": 1.11255168997,
			"-0.017": 0.871543646065,
			"-0.016": 0.435350771515,
			"-0.015": 1.12068457063,
			"-0.014": 0.404727508401,
			"-0.013": 0.462058824332,
			"-0.012": 0.956487569519,
			"-0.011": 0.980006333706,
			"-0.01": 0.463708450392,
			"-0.009": 0.521143007684,
			"-0.008": 0.943761141567,
			"-0.007": 2.29890373344,
			"-0.006": 5.81184728809,
			"-0.005": 10.903662982,
			"-0.004": 13.7778870153,
			"-0.003": 27.1545795212,
			"-0.002": 34.8274226564,
			"-0.001": 36.2015742412,
			"0.0": 24.8484020637,
			"0.001": 19.6363131607,
			"0.002": 8.07669365847,
			"0.003": 6.15046974342,
			"0.004": 5.2670134882,
			"0.005": 5.36997272055,
			"0.006": 5.72628425443,
			"0.007": 8.15932030249,
			"0.008": 7.77572770598,
			"0.009": 4.28199955851,
			"0.01": 5.55326117784,
			"0.011": 6.1092333809,
			"0.012": 2.29811494606,
			"0.013": 1.53816132215,
			"0.014": 0.230795857366,
			"0.015": 0.0,
			"0.016": 0.0,
			"0.017": 0.0,
			"0.018": 0.0,
			"0.019": 0.0,
			"0.02": 0.0,
			"0.021": 0.0,
			"0.022": 0.0,
			"0.023": 0.0,
			"0.024": 0.0,
			"0.025": 0.0
		}
	}
}
