{
	 "smiles": "OC1=CC(=CC=C1)N1C(=O)C=CC1=O", 
	 "Tm": 387.15, 
	 "num_atms": 21, 
	 "gaussian": { 
		 "optdone": 1, 
		 "sigma_profile": "yes", 
		 "theory": "DFT", 
		 "functional": "B3LYP", 
		 "basiset": "6-31G**", 
		 "properties": { 
			 "R2extent": 2901.42, 
			 "electric_dipole_moment_norm": 2.90095399136, 
			 "electric_quadrupole_moment_norm": 7.8451636229, 
			 "total_energy": -665.696120613, 
			 "HOMO_LUMO_gap": 0.11215, 
			 "cosmo_polarized_energy": -12.69, 
			 "cosmo_cavitation_energy": 25.95, 
			 "cosmo_dispersion_energy": -19.39, 
			 "cosmo_repulsion_energy": 1.48, 
			 "cosmo_total_nonelectrostatic_energy": 8.04, 
			 "SMD_solvation_energy": 6.33 
		},
		"coords": [
			{
				"x": -2.962212014,
				"y": 2.6936701416,
				"z": -1.6362928525,
				"element": "O" 
			},
			{
				"x": -1.8092064856,
				"y": 1.9620685441,
				"z": -1.5975213691,
				"element": "C" 
			},
			{
				"x": -1.599239389,
				"y": 0.9809434976,
				"z": -0.6257050438,
				"element": "C" 
			},
			{
				"x": -0.4009459705,
				"y": 0.2495792925,
				"z": -0.6183731174,
				"element": "C" 
			},
			{
				"x": 0.5782575473,
				"y": 0.5105210063,
				"z": -1.5893281769,
				"element": "C" 
			},
			{
				"x": 0.3388021883,
				"y": 1.4972528763,
				"z": -2.5471984346,
				"element": "C" 
			},
			{
				"x": -0.8419185546,
				"y": 2.2306599666,
				"z": -2.5689448301,
				"element": "C" 
			},
			{
				"x": -0.1871304893,
				"y": -0.7603890313,
				"z": 0.3835858056,
				"element": "N" 
			},
			{
				"x": 0.9710371287,
				"y": -1.5728399388,
				"z": 0.5120693068,
				"element": "C" 
			},
			{
				"x": 1.9644637286,
				"y": -1.5616831203,
				"z": -0.1830051162,
				"element": "O" 
			},
			{
				"x": 0.7481571273,
				"y": -2.4718127553,
				"z": 1.6876626716,
				"element": "C" 
			},
			{
				"x": -0.4479929265,
				"y": -2.2085891012,
				"z": 2.2100335261,
				"element": "C" 
			},
			{
				"x": -1.0934026928,
				"y": -1.1187206774,
				"z": 1.4137913992,
				"element": "C" 
			},
			{
				"x": -2.1910987997,
				"y": -0.6479635763,
				"z": 1.6324745294,
				"element": "O" 
			},
			{
				"x": -3.5399569288,
				"y": 2.409860221,
				"z": -0.9157422796,
				"element": "H" 
			},
			{
				"x": -2.3594625221,
				"y": 0.7872705068,
				"z": 0.1179760761,
				"element": "H" 
			},
			{
				"x": 1.5038482058,
				"y": -0.0419731427,
				"z": -1.5978910708,
				"element": "H" 
			},
			{
				"x": 1.1020313507,
				"y": 1.6926032361,
				"z": -3.2948718321,
				"element": "H" 
			},
			{
				"x": -1.0298283835,
				"y": 2.9975829247,
				"z": -3.3122389848,
				"element": "H" 
			},
			{
				"x": 1.4983112448,
				"y": -3.1903590188,
				"z": 1.9895980215,
				"element": "H" 
			},
			{
				"x": -0.9511133651,
				"y": -2.6512818516,
				"z": 3.0592217714,
				"element": "H" 
			}
		],
		 "valence_orbital": [ 
			{
				"type": "occ",
				"energy": -0.30644,
				"method": "rhf"
			},
			{
				"type": "occ",
				"energy": -0.29997,
				"method": "rhf"
			},
			{
				"type": "occ",
				"energy": -0.27844,
				"method": "rhf"
			},
			{
				"type": "occ",
				"energy": -0.23944,
				"method": "rhf"
			},
			{
				"type": "occ",
				"energy": -0.21795,
				"method": "rhf"
			},
			{
				"type": "unocc",
				"energy": -0.1058,
				"method": "rhf"
			},
			{
				"type": "unocc",
				"energy": -0.01222,
				"method": "rhf"
			},
			{
				"type": "unocc",
				"energy": 0.01117,
				"method": "rhf"
			},
			{
				"type": "unocc",
				"energy": 0.05655,
				"method": "rhf"
			},
			{
				"type": "unocc",
				"energy": 0.06369,
				"method": "rhf"
			}
		],
		"cosmo_sigma_profile": { 
			"-0.025": 0.0,
			"-0.024": 0.0,
			"-0.023": 0.0,
			"-0.022": 0.0,
			"-0.021": 0.0,
			"-0.02": 0.0,
			"-0.019": 0.0,
			"-0.018": 0.317107076826,
			"-0.017": 1.21039551795,
			"-0.016": 1.19653097266,
			"-0.015": 0.759580211809,
			"-0.014": 1.07155309999,
			"-0.013": 1.03364590793,
			"-0.012": 0.903419919125,
			"-0.011": 1.09021297226,
			"-0.01": 3.34946856489,
			"-0.009": 4.25713125925,
			"-0.008": 4.52946059956,
			"-0.007": 4.30509462076,
			"-0.006": 10.0539405888,
			"-0.005": 11.4079489769,
			"-0.004": 14.5478366093,
			"-0.003": 14.5463590253,
			"-0.002": 12.0783707635,
			"-0.001": 11.189620527,
			"0.0": 12.7614393409,
			"0.001": 8.93501594746,
			"0.002": 12.9085129076,
			"0.003": 14.6679799481,
			"0.004": 15.3536946487,
			"0.005": 12.8130866271,
			"0.006": 6.40094641946,
			"0.007": 4.36962680426,
			"0.008": 5.20721015739,
			"0.009": 6.21991362222,
			"0.01": 6.61259965177,
			"0.011": 4.98541391773,
			"0.012": 0.569533850336,
			"0.013": 0.0,
			"0.014": 0.0,
			"0.015": 0.0,
			"0.016": 0.0,
			"0.017": 0.0,
			"0.018": 0.0,
			"0.019": 0.0,
			"0.02": 0.0,
			"0.021": 0.0,
			"0.022": 0.0,
			"0.023": 0.0,
			"0.024": 0.0,
			"0.025": 0.0
		}
	}
}
