{
	 "smiles": "CC1=CCC2CC1C2(C)C", 
	 "Tm": 218.15, 
	 "num_atms": 26, 
	 "gaussian": { 
		 "optdone": 1, 
		 "sigma_profile": "yes", 
		 "theory": "DFT", 
		 "functional": "B3LYP", 
		 "basiset": "6-31G**", 
		 "properties": { 
			 "R2extent": 1753.6708, 
			 "electric_dipole_moment_norm": 0.147968814282, 
			 "electric_quadrupole_moment_norm": 1.57237694908, 
			 "total_energy": -390.675494726, 
			 "HOMO_LUMO_gap": 0.24783, 
			 "cosmo_polarized_energy": -1.27, 
			 "cosmo_cavitation_energy": 25.27, 
			 "cosmo_dispersion_energy": -18.52, 
			 "cosmo_repulsion_energy": 1.49, 
			 "cosmo_total_nonelectrostatic_energy": 8.25, 
			 "SMD_solvation_energy": 4.06 
		},
		"coords": [
			{
				"x": -0.3620264498,
				"y": -2.3299839154,
				"z": 2.9987623575,
				"element": "C" 
			},
			{
				"x": -0.3063352072,
				"y": -1.4663389286,
				"z": 1.7712032229,
				"element": "C" 
			},
			{
				"x": -1.2621615606,
				"y": -1.4216815092,
				"z": 0.8315284633,
				"element": "C" 
			},
			{
				"x": -1.0876657539,
				"y": -0.5305767961,
				"z": -0.3812108884,
				"element": "C" 
			},
			{
				"x": 0.2303020324,
				"y": 0.2625029843,
				"z": -0.2771522368,
				"element": "C" 
			},
			{
				"x": 0.3456569838,
				"y": 0.8452126797,
				"z": 1.1596372803,
				"element": "C" 
			},
			{
				"x": 0.8974373389,
				"y": -0.5560764054,
				"z": 1.5635688302,
				"element": "C" 
			},
			{
				"x": 1.4367260645,
				"y": -0.6825339639,
				"z": 0.0827328221,
				"element": "C" 
			},
			{
				"x": 1.5199904365,
				"y": -2.0640885186,
				"z": -0.5702128823,
				"element": "C" 
			},
			{
				"x": 2.7947104944,
				"y": 0.0142717368,
				"z": -0.1024093835,
				"element": "C" 
			},
			{
				"x": -0.3042235236,
				"y": -1.7247864568,
				"z": 3.9134412191,
				"element": "H" 
			},
			{
				"x": 0.4888527755,
				"y": -3.0235959034,
				"z": 3.0329419051,
				"element": "H" 
			},
			{
				"x": -1.2827086594,
				"y": -2.9197453044,
				"z": 3.0384863191,
				"element": "H" 
			},
			{
				"x": -2.1635812033,
				"y": -2.0268586403,
				"z": 0.9115887856,
				"element": "H" 
			},
			{
				"x": -1.1044273693,
				"y": -1.1324659969,
				"z": -1.3019953883,
				"element": "H" 
			},
			{
				"x": -1.9334853519,
				"y": 0.1674301113,
				"z": -0.4675149064,
				"element": "H" 
			},
			{
				"x": 0.3600465918,
				"y": 0.9415869457,
				"z": -1.1280164854,
				"element": "H" 
			},
			{
				"x": -0.5798414288,
				"y": 1.1628035846,
				"z": 1.6482544949,
				"element": "H" 
			},
			{
				"x": 1.084869607,
				"y": 1.64411716,
				"z": 1.237939917,
				"element": "H" 
			},
			{
				"x": 1.6250029607,
				"y": -0.6244422204,
				"z": 2.3795680746,
				"element": "H" 
			},
			{
				"x": 1.7179138502,
				"y": -1.9658905478,
				"z": -1.6446614861,
				"element": "H" 
			},
			{
				"x": 2.3482688169,
				"y": -2.6407801922,
				"z": -0.1404669776,
				"element": "H" 
			},
			{
				"x": 0.6078052261,
				"y": -2.6491242574,
				"z": -0.4442581682,
				"element": "H" 
			},
			{
				"x": 2.8335419528,
				"y": 1.0167132072,
				"z": 0.3305048904,
				"element": "H" 
			},
			{
				"x": 3.0320402101,
				"y": 0.1072146829,
				"z": -1.1689967955,
				"element": "H" 
			},
			{
				"x": 3.5937911663,
				"y": -0.5763835358,
				"z": 0.3610370162,
				"element": "H" 
			}
		],
		 "valence_orbital": [ 
			{
				"type": "occ",
				"energy": -0.31734,
				"method": "rhf"
			},
			{
				"type": "occ",
				"energy": -0.28983,
				"method": "rhf"
			},
			{
				"type": "occ",
				"energy": -0.28841,
				"method": "rhf"
			},
			{
				"type": "occ",
				"energy": -0.27191,
				"method": "rhf"
			},
			{
				"type": "occ",
				"energy": -0.21836,
				"method": "rhf"
			},
			{
				"type": "unocc",
				"energy": 0.02947,
				"method": "rhf"
			},
			{
				"type": "unocc",
				"energy": 0.08687,
				"method": "rhf"
			},
			{
				"type": "unocc",
				"energy": 0.11662,
				"method": "rhf"
			},
			{
				"type": "unocc",
				"energy": 0.12367,
				"method": "rhf"
			},
			{
				"type": "unocc",
				"energy": 0.12896,
				"method": "rhf"
			}
		],
		"cosmo_sigma_profile": { 
			"-0.025": 0.0,
			"-0.024": 0.0,
			"-0.023": 0.0,
			"-0.022": 0.0,
			"-0.021": 0.0,
			"-0.02": 0.0,
			"-0.019": 0.0,
			"-0.018": 0.0,
			"-0.017": 0.0,
			"-0.016": 0.0,
			"-0.015": 0.0,
			"-0.014": 0.0,
			"-0.013": 0.0,
			"-0.012": 0.0,
			"-0.011": 0.0,
			"-0.01": 0.0,
			"-0.009": 0.0,
			"-0.008": 0.0,
			"-0.007": 0.0,
			"-0.006": 0.0,
			"-0.005": 0.0,
			"-0.004": 2.5549468054,
			"-0.003": 13.3292158235,
			"-0.002": 28.0306055763,
			"-0.001": 33.6498343063,
			"0.0": 41.1255311217,
			"0.001": 39.3990651847,
			"0.002": 22.7830539874,
			"0.003": 7.08336094854,
			"0.004": 3.48038137254,
			"0.005": 2.12537359099,
			"0.006": 1.07508169245,
			"0.007": 0.501693639168,
			"0.008": 0.0,
			"0.009": 0.0,
			"0.01": 0.0,
			"0.011": 0.0,
			"0.012": 0.0,
			"0.013": 0.0,
			"0.014": 0.0,
			"0.015": 0.0,
			"0.016": 0.0,
			"0.017": 0.0,
			"0.018": 0.0,
			"0.019": 0.0,
			"0.02": 0.0,
			"0.021": 0.0,
			"0.022": 0.0,
			"0.023": 0.0,
			"0.024": 0.0,
			"0.025": 0.0
		}
	}
}
