{
	 "smiles": "NC1=CC=C(CN2C(=O)CSC2=O)C=C1", 
	 "Tm": 408.15, 
	 "num_atms": 25, 
	 "gaussian": { 
		 "optdone": 1, 
		 "sigma_profile": "yes", 
		 "theory": "DFT", 
		 "functional": "B3LYP", 
		 "basiset": "6-31G**", 
		 "properties": { 
			 "R2extent": 4700.1093, 
			 "electric_dipole_moment_norm": 2.62115288184, 
			 "electric_quadrupole_moment_norm": 18.0631089395, 
			 "total_energy": -1045.26593412, 
			 "HOMO_LUMO_gap": 0.17356, 
			 "cosmo_polarized_energy": -15.52, 
			 "cosmo_cavitation_energy": 30.94, 
			 "cosmo_dispersion_energy": -22.75, 
			 "cosmo_repulsion_energy": 1.74, 
			 "cosmo_total_nonelectrostatic_energy": 9.93, 
			 "SMD_solvation_energy": 5.9 
		},
		"coords": [
			{
				"x": 0.5690194415,
				"y": 3.5561271053,
				"z": 2.4615260068,
				"element": "N" 
			},
			{
				"x": 0.4852729721,
				"y": 2.4265894693,
				"z": 1.6490326894,
				"element": "C" 
			},
			{
				"x": 1.6206846214,
				"y": 1.936665747,
				"z": 0.9790349999,
				"element": "C" 
			},
			{
				"x": 1.5210526452,
				"y": 0.8457779267,
				"z": 0.1219437214,
				"element": "C" 
			},
			{
				"x": 0.2926192879,
				"y": 0.2079557783,
				"z": -0.0973338166,
				"element": "C" 
			},
			{
				"x": 0.1908666233,
				"y": -0.9833726158,
				"z": -1.0205289687,
				"element": "C" 
			},
			{
				"x": 0.41493918,
				"y": -2.2782980489,
				"z": -0.3387074797,
				"element": "N" 
			},
			{
				"x": -0.6293932087,
				"y": -2.9794631418,
				"z": 0.2391825401,
				"element": "C" 
			},
			{
				"x": -1.7921728114,
				"y": -2.6273823683,
				"z": 0.2152027456,
				"element": "O" 
			},
			{
				"x": -0.1429832004,
				"y": -4.2626371217,
				"z": 0.907368538,
				"element": "C" 
			},
			{
				"x": 1.6685762479,
				"y": -4.3612768508,
				"z": 0.6809955888,
				"element": "S" 
			},
			{
				"x": 1.7016142352,
				"y": -2.8037911659,
				"z": -0.2264077301,
				"element": "C" 
			},
			{
				"x": 2.7015652345,
				"y": -2.2988278316,
				"z": -0.6786286472,
				"element": "O" 
			},
			{
				"x": -0.8369388334,
				"y": 0.6947313341,
				"z": 0.5740808136,
				"element": "C" 
			},
			{
				"x": -0.7475107331,
				"y": 1.7850685816,
				"z": 1.4332789484,
				"element": "C" 
			},
			{
				"x": 1.484985469,
				"y": 3.7511413814,
				"z": 2.8410004569,
				"element": "H" 
			},
			{
				"x": -0.1587621307,
				"y": 3.6461828198,
				"z": 3.15666914,
				"element": "H" 
			},
			{
				"x": 2.582128541,
				"y": 2.4217008257,
				"z": 1.1296084708,
				"element": "H" 
			},
			{
				"x": 2.4113023314,
				"y": 0.474237547,
				"z": -0.3778354909,
				"element": "H" 
			},
			{
				"x": -0.8048653482,
				"y": -1.0515416596,
				"z": -1.4630096852,
				"element": "H" 
			},
			{
				"x": 0.9353202195,
				"y": -0.9291410086,
				"z": -1.8168232579,
				"element": "H" 
			},
			{
				"x": -0.4060585135,
				"y": -4.2339759765,
				"z": 1.9673005882,
				"element": "H" 
			},
			{
				"x": -0.6446598017,
				"y": -5.1171600261,
				"z": 0.4474193893,
				"element": "H" 
			},
			{
				"x": -1.7955420135,
				"y": 0.2045523329,
				"z": 0.4281629402,
				"element": "H" 
			},
			{
				"x": -1.6377604554,
				"y": 2.1518369664,
				"z": 1.9385674988,
				"element": "H" 
			}
		],
		 "valence_orbital": [ 
			{
				"type": "occ",
				"energy": -0.28674,
				"method": "rhf"
			},
			{
				"type": "occ",
				"energy": -0.2709,
				"method": "rhf"
			},
			{
				"type": "occ",
				"energy": -0.26301,
				"method": "rhf"
			},
			{
				"type": "occ",
				"energy": -0.24795,
				"method": "rhf"
			},
			{
				"type": "occ",
				"energy": -0.20403,
				"method": "rhf"
			},
			{
				"type": "unocc",
				"energy": -0.03047,
				"method": "rhf"
			},
			{
				"type": "unocc",
				"energy": -0.00365,
				"method": "rhf"
			},
			{
				"type": "unocc",
				"energy": 0.00134,
				"method": "rhf"
			},
			{
				"type": "unocc",
				"energy": 0.01036,
				"method": "rhf"
			},
			{
				"type": "unocc",
				"energy": 0.02982,
				"method": "rhf"
			}
		],
		"cosmo_sigma_profile": { 
			"-0.025": 0.0,
			"-0.024": 0.0,
			"-0.023": 0.0,
			"-0.022": 0.0,
			"-0.021": 0.0,
			"-0.02": 0.0,
			"-0.019": 0.0,
			"-0.018": 0.0,
			"-0.017": 0.0,
			"-0.016": 0.0,
			"-0.015": 0.0,
			"-0.014": 0.0,
			"-0.013": 0.274292942539,
			"-0.012": 2.64715426393,
			"-0.011": 2.84235284391,
			"-0.01": 3.42184917311,
			"-0.009": 8.05067019029,
			"-0.008": 9.06965636743,
			"-0.007": 8.96099689974,
			"-0.006": 12.8430936915,
			"-0.005": 13.4654013672,
			"-0.004": 16.7364390977,
			"-0.003": 17.3612335121,
			"-0.002": 10.9920118441,
			"-0.001": 11.6861831349,
			"0.0": 13.1194887611,
			"0.001": 13.9164473301,
			"0.002": 15.7721176307,
			"0.003": 13.0079391768,
			"0.004": 15.0494262293,
			"0.005": 14.0400179935,
			"0.006": 13.4897633089,
			"0.007": 6.23061179711,
			"0.008": 3.41943839511,
			"0.009": 4.666697586,
			"0.01": 6.05342549126,
			"0.011": 7.24167945752,
			"0.012": 2.97674956453,
			"0.013": 0.729323806919,
			"0.014": 0.512638401765,
			"0.015": 0.0650132890201,
			"0.016": 0.0,
			"0.017": 0.0,
			"0.018": 0.0,
			"0.019": 0.0,
			"0.02": 0.0,
			"0.021": 0.0,
			"0.022": 0.0,
			"0.023": 0.0,
			"0.024": 0.0,
			"0.025": 0.0
		}
	}
}
