{
	 "smiles": "COC1=C(OC)C=C(C=C1)C1=CSC2=C1C(=O)NC(C)=N2", 
	 "Tm": 523.15, 
	 "num_atms": 35, 
	 "gaussian": { 
		 "optdone": 1, 
		 "sigma_profile": "yes", 
		 "theory": "DFT", 
		 "functional": "B3LYP", 
		 "basiset": "6-31G**", 
		 "properties": { 
			 "R2extent": 8339.0345, 
			 "electric_dipole_moment_norm": 4.28104934333, 
			 "electric_quadrupole_moment_norm": 11.9593726704, 
			 "total_energy": -1313.39258983, 
			 "HOMO_LUMO_gap": 0.15345, 
			 "cosmo_polarized_energy": -17.69, 
			 "cosmo_cavitation_energy": 40.54, 
			 "cosmo_dispersion_energy": -29.5, 
			 "cosmo_repulsion_energy": 2.2, 
			 "cosmo_total_nonelectrostatic_energy": 13.24, 
			 "SMD_solvation_energy": 6.95 
		},
		"coords": [
			{
				"x": -5.1617699504,
				"y": 0.8865321546,
				"z": 0.7506849667,
				"element": "C" 
			},
			{
				"x": -4.6755766305,
				"y": -0.3593547814,
				"z": 1.2561483313,
				"element": "O" 
			},
			{
				"x": -3.3703369455,
				"y": -0.6646710795,
				"z": 0.9605990812,
				"element": "C" 
			},
			{
				"x": -2.2874396742,
				"y": 0.073736247,
				"z": 1.4907226584,
				"element": "C" 
			},
			{
				"x": -2.6127650487,
				"y": 1.1406792948,
				"z": 2.2804639452,
				"element": "O" 
			},
			{
				"x": -1.5530402434,
				"y": 1.9438651432,
				"z": 2.7821781917,
				"element": "C" 
			},
			{
				"x": -0.9795382832,
				"y": -0.3155115257,
				"z": 1.2048592358,
				"element": "C" 
			},
			{
				"x": -0.7159214252,
				"y": -1.4290528527,
				"z": 0.3893866807,
				"element": "C" 
			},
			{
				"x": -1.7965486161,
				"y": -2.1554437226,
				"z": -0.1293223964,
				"element": "C" 
			},
			{
				"x": -3.1060975024,
				"y": -1.7704796532,
				"z": 0.1577356129,
				"element": "C" 
			},
			{
				"x": 0.6702027821,
				"y": -1.8844407471,
				"z": 0.1240005031,
				"element": "C" 
			},
			{
				"x": 0.9898071457,
				"y": -3.2197984641,
				"z": 0.1159487384,
				"element": "C" 
			},
			{
				"x": 2.6569397977,
				"y": -3.5561609083,
				"z": -0.2407416981,
				"element": "S" 
			},
			{
				"x": 2.9874149995,
				"y": -1.8528728653,
				"z": -0.3909391325,
				"element": "C" 
			},
			{
				"x": 1.8426265497,
				"y": -1.0811181986,
				"z": -0.164586782,
				"element": "C" 
			},
			{
				"x": 1.9891221892,
				"y": 0.3619607222,
				"z": -0.2925941808,
				"element": "C" 
			},
			{
				"x": 1.1566986204,
				"y": 1.2489976101,
				"z": -0.1445878502,
				"element": "O" 
			},
			{
				"x": 3.3154255991,
				"y": 0.7251386369,
				"z": -0.6343387224,
				"element": "N" 
			},
			{
				"x": 4.3687639946,
				"y": -0.1285249959,
				"z": -0.8290533111,
				"element": "C" 
			},
			{
				"x": 5.694209521,
				"y": 0.479615917,
				"z": -1.1857635277,
				"element": "C" 
			},
			{
				"x": 4.2393214194,
				"y": -1.4200538724,
				"z": -0.7134333185,
				"element": "N" 
			},
			{
				"x": -5.0793070883,
				"y": 0.9230545236,
				"z": -0.3435915921,
				"element": "H" 
			},
			{
				"x": -4.625451626,
				"y": 1.7344679148,
				"z": 1.1852818746,
				"element": "H" 
			},
			{
				"x": -6.2158560773,
				"y": 0.9363414347,
				"z": 1.0322624204,
				"element": "H" 
			},
			{
				"x": -0.9318763118,
				"y": 2.3448989367,
				"z": 1.9723331182,
				"element": "H" 
			},
			{
				"x": -2.0293017689,
				"y": 2.7642340619,
				"z": 3.3216626958,
				"element": "H" 
			},
			{
				"x": -0.9160980906,
				"y": 1.3799829759,
				"z": 3.4759171366,
				"element": "H" 
			},
			{
				"x": -0.1500796991,
				"y": 0.2534178758,
				"z": 1.5968114335,
				"element": "H" 
			},
			{
				"x": -1.6156093216,
				"y": -3.0011870311,
				"z": -0.78483664,
				"element": "H" 
			},
			{
				"x": -3.9526195129,
				"y": -2.3188991899,
				"z": -0.2431545328,
				"element": "H" 
			},
			{
				"x": 0.319114036,
				"y": -4.0387136464,
				"z": 0.3343476704,
				"element": "H" 
			},
			{
				"x": 3.4468932452,
				"y": 1.7248668743,
				"z": -0.7351509961,
				"element": "H" 
			},
			{
				"x": 6.4270005836,
				"y": -0.3175363234,
				"z": -1.3065784695,
				"element": "H" 
			},
			{
				"x": 5.6271978166,
				"y": 1.0482082399,
				"z": -2.1203728743,
				"element": "H" 
			},
			{
				"x": 6.0371955164,
				"y": 1.1650212944,
				"z": -0.4022982704,
				"element": "H" 
			}
		],
		 "valence_orbital": [ 
			{
				"type": "occ",
				"energy": -0.26655,
				"method": "rhf"
			},
			{
				"type": "occ",
				"energy": -0.26008,
				"method": "rhf"
			},
			{
				"type": "occ",
				"energy": -0.23337,
				"method": "rhf"
			},
			{
				"type": "occ",
				"energy": -0.21986,
				"method": "rhf"
			},
			{
				"type": "occ",
				"energy": -0.1998,
				"method": "rhf"
			},
			{
				"type": "unocc",
				"energy": -0.04635,
				"method": "rhf"
			},
			{
				"type": "unocc",
				"energy": -0.01958,
				"method": "rhf"
			},
			{
				"type": "unocc",
				"energy": 0.00034,
				"method": "rhf"
			},
			{
				"type": "unocc",
				"energy": 0.01622,
				"method": "rhf"
			},
			{
				"type": "unocc",
				"energy": 0.0234,
				"method": "rhf"
			}
		],
		"cosmo_sigma_profile": { 
			"-0.025": 0.0,
			"-0.024": 0.0,
			"-0.023": 0.0,
			"-0.022": 0.0,
			"-0.021": 0.0,
			"-0.02": 0.0,
			"-0.019": 0.0,
			"-0.018": 0.0,
			"-0.017": 0.0,
			"-0.016": 0.709144175295,
			"-0.015": 1.07176841981,
			"-0.014": 1.13050038087,
			"-0.013": 1.24393769884,
			"-0.012": 1.00221335186,
			"-0.011": 0.909217091846,
			"-0.01": 1.86586883671,
			"-0.009": 1.84186101023,
			"-0.008": 3.56248852112,
			"-0.007": 6.4390274692,
			"-0.006": 12.7117547377,
			"-0.005": 20.8417739958,
			"-0.004": 26.363534821,
			"-0.003": 31.6976211683,
			"-0.002": 31.2273440751,
			"-0.001": 19.8683219472,
			"0.0": 20.3345656047,
			"0.001": 24.4305033082,
			"0.002": 24.8565257613,
			"0.003": 24.0173282314,
			"0.004": 16.7023450624,
			"0.005": 12.7427737102,
			"0.006": 5.89540213517,
			"0.007": 5.62424555211,
			"0.008": 5.57378173045,
			"0.009": 4.52723847217,
			"0.01": 5.03202775995,
			"0.011": 4.65156646705,
			"0.012": 5.10684635571,
			"0.013": 3.43815852937,
			"0.014": 0.584239101818,
			"0.015": 0.0,
			"0.016": 0.0,
			"0.017": 0.0,
			"0.018": 0.0,
			"0.019": 0.0,
			"0.02": 0.0,
			"0.021": 0.0,
			"0.022": 0.0,
			"0.023": 0.0,
			"0.024": 0.0,
			"0.025": 0.0
		}
	}
}
