{
	 "smiles": "OC(=O)CNCP(O)(O)=O", 
	 "Tm": 463.15, 
	 "num_atms": 18, 
	 "gaussian": { 
		 "optdone": 1, 
		 "sigma_profile": "yes", 
		 "theory": "DFT", 
		 "functional": "B3LYP", 
		 "basiset": "6-31G**", 
		 "properties": { 
			 "R2extent": 2723.6411, 
			 "electric_dipole_moment_norm": 8.2215916324, 
			 "electric_quadrupole_moment_norm": 19.8546588132, 
			 "total_energy": -891.42975345, 
			 "HOMO_LUMO_gap": 0.22469, 
			 "cosmo_polarized_energy": -30.4, 
			 "cosmo_cavitation_energy": 23.39, 
			 "cosmo_dispersion_energy": -17.89, 
			 "cosmo_repulsion_energy": 1.46, 
			 "cosmo_total_nonelectrostatic_energy": 6.96, 
			 "SMD_solvation_energy": 6.59 
		},
		"coords": [
			{
				"x": 0.1491166504,
				"y": 3.0126590046,
				"z": -1.4556273817,
				"element": "O" 
			},
			{
				"x": -0.2412660159,
				"y": 2.046439693,
				"z": -0.5992960347,
				"element": "C" 
			},
			{
				"x": -1.2452822277,
				"y": 2.1937336036,
				"z": 0.058715073,
				"element": "O" 
			},
			{
				"x": 0.6632744992,
				"y": 0.8061153545,
				"z": -0.5439783019,
				"element": "C" 
			},
			{
				"x": 0.2021692875,
				"y": -0.1301516237,
				"z": 0.4398832042,
				"element": "N" 
			},
			{
				"x": 0.5327410024,
				"y": 0.1138354463,
				"z": 1.839707194,
				"element": "C" 
			},
			{
				"x": -0.9247194052,
				"y": -0.2628977189,
				"z": 2.8908719462,
				"element": "P" 
			},
			{
				"x": -2.0751673483,
				"y": 0.6766765034,
				"z": 2.2937157398,
				"element": "O" 
			},
			{
				"x": -1.2676707461,
				"y": -1.7817381742,
				"z": 2.3871800044,
				"element": "O" 
			},
			{
				"x": -0.7310111282,
				"y": -0.1707795358,
				"z": 4.3588770177,
				"element": "O" 
			},
			{
				"x": 0.9759218628,
				"y": 2.7658759853,
				"z": -1.8966379871,
				"element": "H" 
			},
			{
				"x": 0.6259078194,
				"y": 0.3366902169,
				"z": -1.5353169609,
				"element": "H" 
			},
			{
				"x": 1.7054717637,
				"y": 1.1560549509,
				"z": -0.4042423364,
				"element": "H" 
			},
			{
				"x": 0.3161183246,
				"y": -1.097483455,
				"z": 0.1735894739,
				"element": "H" 
			},
			{
				"x": 0.7533885032,
				"y": 1.1756603506,
				"z": 1.9878223366,
				"element": "H" 
			},
			{
				"x": 1.4023325892,
				"y": -0.451189873,
				"z": 2.2034995519,
				"element": "H" 
			},
			{
				"x": -1.860066345,
				"y": 1.0514774082,
				"z": 1.4109001639,
				"element": "H" 
			},
			{
				"x": -1.563859086,
				"y": -2.3029781368,
				"z": 3.1472372971,
				"element": "H" 
			}
		],
		 "valence_orbital": [ 
			{
				"type": "occ",
				"energy": -0.31895,
				"method": "rhf"
			},
			{
				"type": "occ",
				"energy": -0.30775,
				"method": "rhf"
			},
			{
				"type": "occ",
				"energy": -0.2843,
				"method": "rhf"
			},
			{
				"type": "occ",
				"energy": -0.27074,
				"method": "rhf"
			},
			{
				"type": "occ",
				"energy": -0.2462,
				"method": "rhf"
			},
			{
				"type": "unocc",
				"energy": -0.02151,
				"method": "rhf"
			},
			{
				"type": "unocc",
				"energy": 0.02756,
				"method": "rhf"
			},
			{
				"type": "unocc",
				"energy": 0.04935,
				"method": "rhf"
			},
			{
				"type": "unocc",
				"energy": 0.07824,
				"method": "rhf"
			},
			{
				"type": "unocc",
				"energy": 0.09131,
				"method": "rhf"
			}
		],
		"cosmo_sigma_profile": { 
			"-0.025": 0.0,
			"-0.024": 0.0,
			"-0.023": 0.0,
			"-0.022": 0.0,
			"-0.021": 0.0,
			"-0.02": 0.381177875242,
			"-0.019": 1.2431046768,
			"-0.018": 2.13283126091,
			"-0.017": 2.38796068858,
			"-0.016": 2.13308653787,
			"-0.015": 1.55603927281,
			"-0.014": 1.84385666381,
			"-0.013": 1.88542194979,
			"-0.012": 3.25703975934,
			"-0.011": 3.59751029051,
			"-0.01": 3.41009753394,
			"-0.009": 5.52018457264,
			"-0.008": 9.46616914768,
			"-0.007": 8.17026031682,
			"-0.006": 9.59490529304,
			"-0.005": 9.42433625046,
			"-0.004": 7.92716534742,
			"-0.003": 7.82951918413,
			"-0.002": 5.99134513962,
			"-0.001": 3.54516510008,
			"0.0": 4.89739869212,
			"0.001": 5.08795793854,
			"0.002": 3.82074219377,
			"0.003": 4.91393271476,
			"0.004": 6.26151560688,
			"0.005": 6.69283552899,
			"0.006": 5.91353023754,
			"0.007": 4.99939018701,
			"0.008": 7.401460264,
			"0.009": 8.92016663057,
			"0.01": 7.95776858421,
			"0.011": 5.83157090186,
			"0.012": 3.50087595584,
			"0.013": 1.15611562978,
			"0.014": 3.01211354784,
			"0.015": 7.64827516536,
			"0.016": 1.85818213145,
			"0.017": 0.0,
			"0.018": 0.0,
			"0.019": 0.0,
			"0.02": 0.0,
			"0.021": 0.0,
			"0.022": 0.0,
			"0.023": 0.0,
			"0.024": 0.0,
			"0.025": 0.0
		}
	}
}
