{
	 "smiles": "CN(C)C1=NC=CC(=C1)C#N", 
	 "Tm": 343.15, 
	 "num_atms": 20, 
	 "gaussian": { 
		 "optdone": 1, 
		 "sigma_profile": "yes", 
		 "theory": "DFT", 
		 "functional": "B3LYP", 
		 "basiset": "6-31G**", 
		 "properties": { 
			 "R2extent": 2913.5084, 
			 "electric_dipole_moment_norm": 4.29563629745, 
			 "electric_quadrupole_moment_norm": 17.7975508529, 
			 "total_energy": -474.507601589, 
			 "HOMO_LUMO_gap": 0.15647, 
			 "cosmo_polarized_energy": -9.32, 
			 "cosmo_cavitation_energy": 24.57, 
			 "cosmo_dispersion_energy": -17.6, 
			 "cosmo_repulsion_energy": 1.41, 
			 "cosmo_total_nonelectrostatic_energy": 8.38, 
			 "SMD_solvation_energy": 4.73 
		},
		"coords": [
			{
				"x": 0.7711911403,
				"y": -1.7479081689,
				"z": -0.3380109956,
				"element": "C" 
			},
			{
				"x": -0.4063918959,
				"y": -1.4160827697,
				"z": -1.1208665916,
				"element": "N" 
			},
			{
				"x": -0.2824963293,
				"y": -1.4779963161,
				"z": -2.5719184698,
				"element": "C" 
			},
			{
				"x": -1.4751399747,
				"y": -0.7822638534,
				"z": -0.5323944044,
				"element": "C" 
			},
			{
				"x": -2.4956105825,
				"y": -0.4115876499,
				"z": -1.3339179009,
				"element": "N" 
			},
			{
				"x": -3.5642900354,
				"y": 0.1719892325,
				"z": -0.7899201437,
				"element": "C" 
			},
			{
				"x": -3.7113079398,
				"y": 0.4424177799,
				"z": 0.5667087587,
				"element": "C" 
			},
			{
				"x": -2.6432274135,
				"y": 0.0736100555,
				"z": 1.4013868589,
				"element": "C" 
			},
			{
				"x": -1.5112819784,
				"y": -0.5381289899,
				"z": 0.864132963,
				"element": "C" 
			},
			{
				"x": -2.7053577561,
				"y": 0.3305349412,
				"z": 2.8138076845,
				"element": "C" 
			},
			{
				"x": -2.7574447569,
				"y": 0.538880028,
				"z": 3.9565392839,
				"element": "N" 
			},
			{
				"x": 0.5113366363,
				"y": -2.3628505484,
				"z": 0.5306272025,
				"element": "H" 
			},
			{
				"x": 1.3108690561,
				"y": -0.8573813122,
				"z": 0.0176873973,
				"element": "H" 
			},
			{
				"x": 1.4526400187,
				"y": -2.3294768729,
				"z": -0.9611948286,
				"element": "H" 
			},
			{
				"x": -1.2649743478,
				"y": -1.3433029239,
				"z": -3.0185692811,
				"element": "H" 
			},
			{
				"x": 0.387700947,
				"y": -0.6957324982,
				"z": -2.9572306391,
				"element": "H" 
			},
			{
				"x": 0.1202554529,
				"y": -2.4533694816,
				"z": -2.8635483377,
				"element": "H" 
			},
			{
				"x": -4.3558704935,
				"y": 0.4454409589,
				"z": -1.4857705983,
				"element": "H" 
			},
			{
				"x": -4.5987186646,
				"y": 0.9215290658,
				"z": 0.9608647033,
				"element": "H" 
			},
			{
				"x": -0.6899810829,
				"y": -0.8052206767,
				"z": 1.5144873385,
				"element": "H" 
			}
		],
		 "valence_orbital": [ 
			{
				"type": "occ",
				"energy": -0.33347,
				"method": "rhf"
			},
			{
				"type": "occ",
				"energy": -0.30521,
				"method": "rhf"
			},
			{
				"type": "occ",
				"energy": -0.28442,
				"method": "rhf"
			},
			{
				"type": "occ",
				"energy": -0.26792,
				"method": "rhf"
			},
			{
				"type": "occ",
				"energy": -0.21487,
				"method": "rhf"
			},
			{
				"type": "unocc",
				"energy": -0.0584,
				"method": "rhf"
			},
			{
				"type": "unocc",
				"energy": -0.00741,
				"method": "rhf"
			},
			{
				"type": "unocc",
				"energy": 0.03535,
				"method": "rhf"
			},
			{
				"type": "unocc",
				"energy": 0.07853,
				"method": "rhf"
			},
			{
				"type": "unocc",
				"energy": 0.08023,
				"method": "rhf"
			}
		],
		"cosmo_sigma_profile": { 
			"-0.025": 0.0,
			"-0.024": 0.0,
			"-0.023": 0.0,
			"-0.022": 0.0,
			"-0.021": 0.0,
			"-0.02": 0.0,
			"-0.019": 0.0,
			"-0.018": 0.0,
			"-0.017": 0.0,
			"-0.016": 0.0,
			"-0.015": 0.0,
			"-0.014": 0.0,
			"-0.013": 0.0,
			"-0.012": 0.0,
			"-0.011": 0.0,
			"-0.01": 0.0,
			"-0.009": 0.0406034643855,
			"-0.008": 2.11617037017,
			"-0.007": 5.96480096652,
			"-0.006": 10.3356610878,
			"-0.005": 14.1769344911,
			"-0.004": 15.8770978245,
			"-0.003": 18.6333127307,
			"-0.002": 23.5357833317,
			"-0.001": 18.0735473298,
			"0.0": 11.3677321974,
			"0.001": 16.1932599911,
			"0.002": 12.6648660749,
			"0.003": 7.17501828162,
			"0.004": 5.0692707044,
			"0.005": 6.52864145277,
			"0.006": 3.77847224339,
			"0.007": 4.6242261897,
			"0.008": 5.22069243109,
			"0.009": 4.46283082029,
			"0.01": 4.45943942921,
			"0.011": 3.5787971423,
			"0.012": 2.34705705783,
			"0.013": 0.731724294294,
			"0.014": 0.0,
			"0.015": 0.0,
			"0.016": 0.0,
			"0.017": 0.0,
			"0.018": 0.0,
			"0.019": 0.0,
			"0.02": 0.0,
			"0.021": 0.0,
			"0.022": 0.0,
			"0.023": 0.0,
			"0.024": 0.0,
			"0.025": 0.0
		}
	}
}
