{
	 "smiles": "CC1=CC=C(O1)C(C1=CC=C(C)O1)C1=CC=CC=C1O", 
	 "Tm": 338.15, 
	 "num_atms": 36, 
	 "gaussian": { 
		 "optdone": 1, 
		 "sigma_profile": "yes", 
		 "theory": "DFT", 
		 "functional": "B3LYP", 
		 "basiset": "6-31G**", 
		 "properties": { 
			 "R2extent": 5902.9697, 
			 "electric_dipole_moment_norm": 1.55816605341, 
			 "electric_quadrupole_moment_norm": 6.26706423136, 
			 "total_energy": -883.08615666, 
			 "HOMO_LUMO_gap": 0.19513, 
			 "cosmo_polarized_energy": -13.21, 
			 "cosmo_cavitation_energy": 40.03, 
			 "cosmo_dispersion_energy": -27.49, 
			 "cosmo_repulsion_energy": 2.18, 
			 "cosmo_total_nonelectrostatic_energy": 14.71, 
			 "SMD_solvation_energy": 8.05 
		},
		"coords": [
			{
				"x": 4.2694045612,
				"y": 0.3688114354,
				"z": -2.5951910849,
				"element": "C" 
			},
			{
				"x": 3.2174982304,
				"y": -0.3083629497,
				"z": -1.7885352611,
				"element": "C" 
			},
			{
				"x": 2.774394657,
				"y": -1.5940455568,
				"z": -1.700669102,
				"element": "C" 
			},
			{
				"x": 1.7155780201,
				"y": -1.6021871822,
				"z": -0.7314006856,
				"element": "C" 
			},
			{
				"x": 1.5827062301,
				"y": -0.3183717968,
				"z": -0.2953703568,
				"element": "C" 
			},
			{
				"x": 2.4979400516,
				"y": 0.4808692018,
				"z": -0.9288605321,
				"element": "O" 
			},
			{
				"x": 0.7431088388,
				"y": 0.3564637365,
				"z": 0.7580691245,
				"element": "C" 
			},
			{
				"x": -0.3764497241,
				"y": -0.5258412602,
				"z": 1.2444138797,
				"element": "C" 
			},
			{
				"x": -1.3479456671,
				"y": -1.2785723101,
				"z": 0.6536431433,
				"element": "C" 
			},
			{
				"x": -2.1394314201,
				"y": -1.8290814218,
				"z": 1.7155335236,
				"element": "C" 
			},
			{
				"x": -1.6029904517,
				"y": -1.3742793204,
				"z": 2.8839527827,
				"element": "C" 
			},
			{
				"x": -1.9402117513,
				"y": -1.5729493286,
				"z": 4.3201875876,
				"element": "C" 
			},
			{
				"x": -0.5240685707,
				"y": -0.5766916555,
				"z": 2.60888936,
				"element": "O" 
			},
			{
				"x": 0.2557642552,
				"y": 1.753386191,
				"z": 0.3557574483,
				"element": "C" 
			},
			{
				"x": 0.5425560694,
				"y": 2.8517774703,
				"z": 1.1695148637,
				"element": "C" 
			},
			{
				"x": 0.1003044994,
				"y": 4.139696818,
				"z": 0.8593513842,
				"element": "C" 
			},
			{
				"x": -0.6483419021,
				"y": 4.3425373462,
				"z": -0.297901032,
				"element": "C" 
			},
			{
				"x": -0.9484419492,
				"y": 3.26330702,
				"z": -1.1292823392,
				"element": "C" 
			},
			{
				"x": -0.5041090414,
				"y": 1.977915805,
				"z": -0.8074438942,
				"element": "C" 
			},
			{
				"x": -0.7863104223,
				"y": 0.9019450248,
				"z": -1.6034181112,
				"element": "O" 
			},
			{
				"x": 5.0251088173,
				"y": 0.8426350881,
				"z": -1.9574888346,
				"element": "H" 
			},
			{
				"x": 3.8459354076,
				"y": 1.1516577591,
				"z": -3.2356067639,
				"element": "H" 
			},
			{
				"x": 4.772109854,
				"y": -0.3605794025,
				"z": -3.2349053191,
				"element": "H" 
			},
			{
				"x": 3.1525370174,
				"y": -2.4374046423,
				"z": -2.2615558244,
				"element": "H" 
			},
			{
				"x": 1.1305538864,
				"y": -2.4478233429,
				"z": -0.4039266628,
				"element": "H" 
			},
			{
				"x": 1.3841866642,
				"y": 0.5135127391,
				"z": 1.6367641355,
				"element": "H" 
			},
			{
				"x": -1.4852729953,
				"y": -1.4043679119,
				"z": -0.4089321047,
				"element": "H" 
			},
			{
				"x": -2.9967561781,
				"y": -2.4808972847,
				"z": 1.6208875349,
				"element": "H" 
			},
			{
				"x": -2.8148207353,
				"y": -2.2217988803,
				"z": 4.4085543104,
				"element": "H" 
			},
			{
				"x": -1.112646336,
				"y": -2.0380286246,
				"z": 4.8689059036,
				"element": "H" 
			},
			{
				"x": -2.1682113965,
				"y": -0.6220832498,
				"z": 4.8160759537,
				"element": "H" 
			},
			{
				"x": 1.1300787334,
				"y": 2.6893426305,
				"z": 2.0696802366,
				"element": "H" 
			},
			{
				"x": 0.342046531,
				"y": 4.971517315,
				"z": 1.5134470808,
				"element": "H" 
			},
			{
				"x": -1.0010175634,
				"y": 5.3357035257,
				"z": -0.5604349786,
				"element": "H" 
			},
			{
				"x": -1.533286211,
				"y": 3.4146432154,
				"z": -2.0349467678,
				"element": "H" 
			},
			{
				"x": -1.2917000089,
				"y": 1.2016437995,
				"z": -2.369958598,
				"element": "H" 
			}
		],
		 "valence_orbital": [ 
			{
				"type": "occ",
				"energy": -0.2589,
				"method": "rhf"
			},
			{
				"type": "occ",
				"energy": -0.24578,
				"method": "rhf"
			},
			{
				"type": "occ",
				"energy": -0.21845,
				"method": "rhf"
			},
			{
				"type": "occ",
				"energy": -0.20217,
				"method": "rhf"
			},
			{
				"type": "occ",
				"energy": -0.19617,
				"method": "rhf"
			},
			{
				"type": "unocc",
				"energy": -0.00104,
				"method": "rhf"
			},
			{
				"type": "unocc",
				"energy": 0.01545,
				"method": "rhf"
			},
			{
				"type": "unocc",
				"energy": 0.0262,
				"method": "rhf"
			},
			{
				"type": "unocc",
				"energy": 0.03276,
				"method": "rhf"
			},
			{
				"type": "unocc",
				"energy": 0.06987,
				"method": "rhf"
			}
		],
		"cosmo_sigma_profile": { 
			"-0.025": 0.0,
			"-0.024": 0.0,
			"-0.023": 0.0,
			"-0.022": 0.0,
			"-0.021": 0.0,
			"-0.02": 0.0,
			"-0.019": 0.0,
			"-0.018": 0.242112739512,
			"-0.017": 1.11778365149,
			"-0.016": 1.05231493762,
			"-0.015": 1.18189342449,
			"-0.014": 0.720555308724,
			"-0.013": 1.20318752287,
			"-0.012": 1.04898223028,
			"-0.011": 0.930298106407,
			"-0.01": 1.04516348153,
			"-0.009": 1.00181328577,
			"-0.008": 1.03405057513,
			"-0.007": 2.39433777983,
			"-0.006": 10.6074374818,
			"-0.005": 22.8300933294,
			"-0.004": 28.2909232988,
			"-0.003": 25.2952104305,
			"-0.002": 25.5830973352,
			"-0.001": 28.3392225645,
			"0.0": 24.3728293157,
			"0.001": 17.0112400973,
			"0.002": 17.0917276448,
			"0.003": 21.0724813775,
			"0.004": 21.7122334999,
			"0.005": 21.2640167095,
			"0.006": 21.1477730327,
			"0.007": 10.6184843148,
			"0.008": 5.42365968298,
			"0.009": 2.88150899177,
			"0.01": 1.19268099677,
			"0.011": 0.697247232413,
			"0.012": 0.0217444449279,
			"0.013": 0.0,
			"0.014": 0.0,
			"0.015": 0.0,
			"0.016": 0.0,
			"0.017": 0.0,
			"0.018": 0.0,
			"0.019": 0.0,
			"0.02": 0.0,
			"0.021": 0.0,
			"0.022": 0.0,
			"0.023": 0.0,
			"0.024": 0.0,
			"0.025": 0.0
		}
	}
}
