{
	 "smiles": "NC1=C(F)C=C(Cl)C=C1I", 
	 "Tm": 313.15, 
	 "num_atms": 14, 
	 "gaussian": { 
		 "optdone": 1, 
		 "sigma_profile": "no", 
		 "theory": "DFT", 
		 "functional": "B3LYP", 
		 "basiset": "6-31G**", 
		 "properties": { 
			 "R2extent": 2261.0214, 
			 "electric_dipole_moment_norm": 2.26970670572, 
			 "electric_quadrupole_moment_norm": 5.55640751745, 
			 "total_energy": -857.213229486, 
			 "HOMO_LUMO_gap": 0.16679, 
			 "cosmo_polarized_energy": -86764.47, 
			 "cosmo_cavitation_energy": 23.49, 
			 "cosmo_dispersion_energy": -19.06, 
			 "cosmo_repulsion_energy": 1.49, 
			 "cosmo_total_nonelectrostatic_energy": 5.92, 
			 "SMD_solvation_energy": 3.24 
		},
		"coords": [
			{
				"x": -0.5813119189,
				"y": 1.7574794759,
				"z": 1.1945846184,
				"element": "N" 
			},
			{
				"x": -0.5726096474,
				"y": 0.8144541653,
				"z": 0.1869939357,
				"element": "C" 
			},
			{
				"x": -1.7596491566,
				"y": 0.5617996701,
				"z": -0.5278366151,
				"element": "C" 
			},
			{
				"x": -2.8298586324,
				"y": 1.3327129389,
				"z": -0.21203821,
				"element": "F" 
			},
			{
				"x": -1.8812902042,
				"y": -0.3964407011,
				"z": -1.5135494485,
				"element": "C" 
			},
			{
				"x": -0.7565161257,
				"y": -1.1641114828,
				"z": -1.8245404475,
				"element": "C" 
			},
			{
				"x": -0.8692207944,
				"y": -2.3949548575,
				"z": -3.070935549,
				"element": "Cl" 
			},
			{
				"x": 0.4502273629,
				"y": -0.9623827853,
				"z": -1.1622255387,
				"element": "C" 
			},
			{
				"x": 0.5304519891,
				"y": 0.0178692508,
				"z": -0.1686687468,
				"element": "C" 
			},
			{
				"x": 2.3863822082,
				"y": 0.3069708475,
				"z": 0.8136333225,
				"element": "I" 
			},
			{
				"x": 0.3106062538,
				"y": 2.1583910514,
				"z": 1.4472457384,
				"element": "H" 
			},
			{
				"x": -1.3460407443,
				"y": 2.4152408792,
				"z": 1.1564993197,
				"element": "H" 
			},
			{
				"x": -2.8280847601,
				"y": -0.5317650283,
				"z": -2.0215947411,
				"element": "H" 
			},
			{
				"x": 1.3161141702,
				"y": -1.5606634241,
				"z": -1.4153676381,
				"element": "H" 
			}
		],
		 "valence_orbital": [ 
			{
				"type": "occ",
				"energy": -0.31306,
				"method": "rhf"
			},
			{
				"type": "occ",
				"energy": -0.29757,
				"method": "rhf"
			},
			{
				"type": "occ",
				"energy": -0.28277,
				"method": "rhf"
			},
			{
				"type": "occ",
				"energy": -0.25314,
				"method": "rhf"
			},
			{
				"type": "occ",
				"energy": -0.21835,
				"method": "rhf"
			},
			{
				"type": "unocc",
				"energy": -0.05156,
				"method": "rhf"
			},
			{
				"type": "unocc",
				"energy": -0.02515,
				"method": "rhf"
			},
			{
				"type": "unocc",
				"energy": -0.00972,
				"method": "rhf"
			},
			{
				"type": "unocc",
				"energy": 0.02409,
				"method": "rhf"
			},
			{
				"type": "unocc",
				"energy": 0.03752,
				"method": "rhf"
			}
		],
		"cosmo_sigma_profile": { 
			"0.0": 0.0,
			"0.0": 0.0,
			"0.0": 0.0,
			"0.0": 0.0,
			"0.0": 0.0,
			"0.0": 0.0,
			"0.0": 0.0,
			"0.0": 0.0,
			"0.0": 0.0,
			"0.0": 0.0,
			"0.0": 0.0,
			"0.0": 0.0,
			"0.0": 0.0,
			"0.0": 0.0,
			"0.0": 0.0,
			"0.0": 0.0,
			"0.0": 0.0,
			"0.0": 0.0,
			"0.0": 0.0,
			"0.0": 0.0,
			"0.0": 0.0,
			"0.0": 0.0,
			"0.0": 0.0,
			"0.0": 0.0,
			"0.0": 0.0,
			"0.0": 0.0,
			"0.0": 0.0,
			"0.0": 0.0,
			"0.0": 0.0,
			"0.0": 0.0,
			"0.0": 0.0,
			"0.0": 0.0,
			"0.0": 0.0,
			"0.0": 0.0,
			"0.0": 0.0,
			"0.0": 0.0,
			"0.0": 0.0,
			"0.0": 0.0,
			"0.0": 0.0,
			"0.0": 0.0,
			"0.0": 0.0,
			"0.0": 0.0,
			"0.0": 0.0,
			"0.0": 0.0,
			"0.0": 0.0,
			"0.0": 0.0,
			"0.0": 0.0,
			"0.0": 0.0,
			"0.0": 0.0,
			"0.0": 0.0,
			"0.0": 0.0
		}
	}
}
