{
	 "smiles": "CCOC(=O)C1=C(C)N(C(=C1)C1=CC=CC=C1)C1=CC=CC=C1", 
	 "Tm": 370.15, 
	 "num_atms": 42, 
	 "gaussian": { 
		 "optdone": 1, 
		 "sigma_profile": "yes", 
		 "theory": "DFT", 
		 "functional": "B3LYP", 
		 "basiset": "6-31G**", 
		 "properties": { 
			 "R2extent": 8903.6957, 
			 "electric_dipole_moment_norm": 2.89260526343, 
			 "electric_quadrupole_moment_norm": 19.891855374, 
			 "total_energy": -978.806165087, 
			 "HOMO_LUMO_gap": 0.17272, 
			 "cosmo_polarized_energy": -11.25, 
			 "cosmo_cavitation_energy": 45.42, 
			 "cosmo_dispersion_energy": -30.95, 
			 "cosmo_repulsion_energy": 2.39, 
			 "cosmo_total_nonelectrostatic_energy": 16.86, 
			 "SMD_solvation_energy": 8.54 
		},
		"coords": [
			{
				"x": -3.2563976276,
				"y": -4.2254417783,
				"z": -2.6616085083,
				"element": "C" 
			},
			{
				"x": -3.4045524156,
				"y": -3.9310775065,
				"z": -1.1754634548,
				"element": "C" 
			},
			{
				"x": -2.5662495882,
				"y": -2.8289407635,
				"z": -0.7691730058,
				"element": "O" 
			},
			{
				"x": -1.2790674988,
				"y": -3.1327891385,
				"z": -0.4502396179,
				"element": "C" 
			},
			{
				"x": -0.841127355,
				"y": -4.2728496445,
				"z": -0.4904765948,
				"element": "O" 
			},
			{
				"x": -0.53405971,
				"y": -1.932214951,
				"z": -0.0610919243,
				"element": "C" 
			},
			{
				"x": 0.800586901,
				"y": -1.8975854489,
				"z": 0.3378329665,
				"element": "C" 
			},
			{
				"x": 1.7734603099,
				"y": -3.015583389,
				"z": 0.5343848399,
				"element": "C" 
			},
			{
				"x": 1.1138764166,
				"y": -0.5790026154,
				"z": 0.6046292632,
				"element": "N" 
			},
			{
				"x": -0.0171245867,
				"y": 0.231377048,
				"z": 0.3962096438,
				"element": "C" 
			},
			{
				"x": -1.033951623,
				"y": -0.5972903971,
				"z": -0.0181185479,
				"element": "C" 
			},
			{
				"x": -0.0455699926,
				"y": 1.693590061,
				"z": 0.5513005846,
				"element": "C" 
			},
			{
				"x": 1.0141505679,
				"y": 2.526599576,
				"z": 0.1480898615,
				"element": "C" 
			},
			{
				"x": 0.9170375903,
				"y": 3.911845818,
				"z": 0.2697665665,
				"element": "C" 
			},
			{
				"x": -0.2405248024,
				"y": 4.4985068044,
				"z": 0.7848747357,
				"element": "C" 
			},
			{
				"x": -1.3031593902,
				"y": 3.6841573273,
				"z": 1.1817024624,
				"element": "C" 
			},
			{
				"x": -1.204357501,
				"y": 2.2985457372,
				"z": 1.0730291083,
				"element": "C" 
			},
			{
				"x": 2.3550762239,
				"y": -0.1554621507,
				"z": 1.1804286327,
				"element": "C" 
			},
			{
				"x": 3.5369509165,
				"y": -0.2474770995,
				"z": 0.4385794692,
				"element": "C" 
			},
			{
				"x": 4.7465138253,
				"y": 0.150588509,
				"z": 1.0092300308,
				"element": "C" 
			},
			{
				"x": 4.777153723,
				"y": 0.6498482581,
				"z": 2.3127340152,
				"element": "C" 
			},
			{
				"x": 3.5936899012,
				"y": 0.7465407998,
				"z": 3.0478321782,
				"element": "C" 
			},
			{
				"x": 2.3827622561,
				"y": 0.3400938547,
				"z": 2.4877613691,
				"element": "C" 
			},
			{
				"x": -3.465917316,
				"y": -3.3324654566,
				"z": -3.2581510104,
				"element": "H" 
			},
			{
				"x": -3.9593217229,
				"y": -5.0111019622,
				"z": -2.9591623102,
				"element": "H" 
			},
			{
				"x": -2.2431264854,
				"y": -4.5691395682,
				"z": -2.8828959277,
				"element": "H" 
			},
			{
				"x": -3.1526882738,
				"y": -4.8094572594,
				"z": -0.576257595,
				"element": "H" 
			},
			{
				"x": -4.4197997229,
				"y": -3.6058624954,
				"z": -0.9333204853,
				"element": "H" 
			},
			{
				"x": 2.2296476794,
				"y": -2.9785436284,
				"z": 1.5299484738,
				"element": "H" 
			},
			{
				"x": 1.2450688497,
				"y": -3.9601622128,
				"z": 0.4114205538,
				"element": "H" 
			},
			{
				"x": 2.5903887942,
				"y": -2.9844029765,
				"z": -0.1959177595,
				"element": "H" 
			},
			{
				"x": -2.0239621636,
				"y": -0.2829941915,
				"z": -0.311148636,
				"element": "H" 
			},
			{
				"x": 1.9115300556,
				"y": 2.0899614562,
				"z": -0.2762006533,
				"element": "H" 
			},
			{
				"x": 1.7469948551,
				"y": 4.5357371722,
				"z": -0.0501909682,
				"element": "H" 
			},
			{
				"x": -0.3134368927,
				"y": 5.5783435516,
				"z": 0.8760744946,
				"element": "H" 
			},
			{
				"x": -2.2079464235,
				"y": 4.127577504,
				"z": 1.5881063681,
				"element": "H" 
			},
			{
				"x": -2.023563804,
				"y": 1.6677811792,
				"z": 1.4047207583,
				"element": "H" 
			},
			{
				"x": 3.4997598355,
				"y": -0.6189879192,
				"z": -0.5804280706,
				"element": "H" 
			},
			{
				"x": 5.6627946807,
				"y": 0.076939579,
				"z": 0.4310684215,
				"element": "H" 
			},
			{
				"x": 5.7187698824,
				"y": 0.9634521844,
				"z": 2.753379033,
				"element": "H" 
			},
			{
				"x": 3.6119456529,
				"y": 1.1338536171,
				"z": 4.0621334987,
				"element": "H" 
			},
			{
				"x": 1.4584459787,
				"y": 0.4056925161,
				"z": 3.0519077408,
				"element": "H" 
			}
		],
		 "valence_orbital": [ 
			{
				"type": "occ",
				"energy": -0.25963,
				"method": "rhf"
			},
			{
				"type": "occ",
				"energy": -0.25479,
				"method": "rhf"
			},
			{
				"type": "occ",
				"energy": -0.24805,
				"method": "rhf"
			},
			{
				"type": "occ",
				"energy": -0.23796,
				"method": "rhf"
			},
			{
				"type": "occ",
				"energy": -0.19754,
				"method": "rhf"
			},
			{
				"type": "unocc",
				"energy": -0.02482,
				"method": "rhf"
			},
			{
				"type": "unocc",
				"energy": -0.01899,
				"method": "rhf"
			},
			{
				"type": "unocc",
				"energy": -0.01214,
				"method": "rhf"
			},
			{
				"type": "unocc",
				"energy": -0.00304,
				"method": "rhf"
			},
			{
				"type": "unocc",
				"energy": 0.00297,
				"method": "rhf"
			}
		],
		"cosmo_sigma_profile": { 
			"-0.025": 0.0,
			"-0.024": 0.0,
			"-0.023": 0.0,
			"-0.022": 0.0,
			"-0.021": 0.0,
			"-0.02": 0.0,
			"-0.019": 0.0,
			"-0.018": 0.0,
			"-0.017": 0.0,
			"-0.016": 0.0,
			"-0.015": 0.0,
			"-0.014": 0.0,
			"-0.013": 0.0,
			"-0.012": 0.0,
			"-0.011": 0.0,
			"-0.01": 0.0,
			"-0.009": 0.0,
			"-0.008": 0.0,
			"-0.007": 2.16020334948,
			"-0.006": 15.589917297,
			"-0.005": 26.6109056202,
			"-0.004": 35.1010355203,
			"-0.003": 36.4862736,
			"-0.002": 30.1144699071,
			"-0.001": 32.2004066665,
			"0.0": 32.45163395,
			"0.001": 26.596212433,
			"0.002": 22.9858106318,
			"0.003": 24.7688718249,
			"0.004": 27.9520754322,
			"0.005": 21.8481407811,
			"0.006": 11.7465573736,
			"0.007": 4.01093926682,
			"0.008": 2.31791532545,
			"0.009": 1.15264743936,
			"0.01": 1.41992324733,
			"0.011": 2.3147032511,
			"0.012": 2.5770777947,
			"0.013": 1.47346510823,
			"0.014": 0.0,
			"0.015": 0.0,
			"0.016": 0.0,
			"0.017": 0.0,
			"0.018": 0.0,
			"0.019": 0.0,
			"0.02": 0.0,
			"0.021": 0.0,
			"0.022": 0.0,
			"0.023": 0.0,
			"0.024": 0.0,
			"0.025": 0.0
		}
	}
}
