{
	 "smiles": "CN1C(S)=NN=C1COC1=CC=C(Cl)C=C1", 
	 "Tm": 392.15, 
	 "num_atms": 26, 
	 "gaussian": { 
		 "optdone": 1, 
		 "sigma_profile": "yes", 
		 "theory": "DFT", 
		 "functional": "B3LYP", 
		 "basiset": "6-31G**", 
		 "properties": { 
			 "R2extent": 6638.2169, 
			 "electric_dipole_moment_norm": 4.83398327055, 
			 "electric_quadrupole_moment_norm": 9.35303920659, 
			 "total_energy": -1484.91103248, 
			 "HOMO_LUMO_gap": 0.21044, 
			 "cosmo_polarized_energy": -16.19, 
			 "cosmo_cavitation_energy": 33.97, 
			 "cosmo_dispersion_energy": -24.86, 
			 "cosmo_repulsion_energy": 1.9, 
			 "cosmo_total_nonelectrostatic_energy": 11.01, 
			 "SMD_solvation_energy": 3.4 
		},
		"coords": [
			{
				"x": 0.9150426205,
				"y": 0.955310712,
				"z": 2.5174380722,
				"element": "C" 
			},
			{
				"x": 0.1216967754,
				"y": 1.5148797956,
				"z": 1.4294140459,
				"element": "N" 
			},
			{
				"x": -0.0006540084,
				"y": 2.831009029,
				"z": 1.0679271471,
				"element": "C" 
			},
			{
				"x": 0.8347507365,
				"y": 4.1301570719,
				"z": 1.9240851129,
				"element": "S" 
			},
			{
				"x": -0.7957079076,
				"y": 2.9703818896,
				"z": 0.0297619228,
				"element": "N" 
			},
			{
				"x": -1.215845984,
				"y": 1.7038927309,
				"z": -0.3181378838,
				"element": "N" 
			},
			{
				"x": -0.6734862799,
				"y": 0.8518013806,
				"z": 0.5198665117,
				"element": "C" 
			},
			{
				"x": -0.9117417611,
				"y": -0.6252362069,
				"z": 0.5028460786,
				"element": "C" 
			},
			{
				"x": 0.278901433,
				"y": -1.4068444426,
				"z": 0.3781668394,
				"element": "O" 
			},
			{
				"x": 0.8774552186,
				"y": -1.5285393588,
				"z": -0.8550720514,
				"element": "C" 
			},
			{
				"x": 0.4987157159,
				"y": -0.8222612749,
				"z": -2.0016161854,
				"element": "C" 
			},
			{
				"x": 1.17997309,
				"y": -1.0452403221,
				"z": -3.2019912809,
				"element": "C" 
			},
			{
				"x": 2.2278206216,
				"y": -1.9590733076,
				"z": -3.2500914812,
				"element": "C" 
			},
			{
				"x": 3.0807798228,
				"y": -2.2319680374,
				"z": -4.7647627071,
				"element": "Cl" 
			},
			{
				"x": 2.6138747983,
				"y": -2.6611567732,
				"z": -2.1063115483,
				"element": "C" 
			},
			{
				"x": 1.9364462513,
				"y": -2.4440396185,
				"z": -0.9118622272,
				"element": "C" 
			},
			{
				"x": 1.8901692504,
				"y": 1.4479251935,
				"z": 2.5498987456,
				"element": "H" 
			},
			{
				"x": 0.4125939175,
				"y": 1.0923830499,
				"z": 3.4800444002,
				"element": "H" 
			},
			{
				"x": 1.0681162569,
				"y": -0.1066256532,
				"z": 2.3272035585,
				"element": "H" 
			},
			{
				"x": 0.4348672368,
				"y": 5.0609609762,
				"z": 1.0374620361,
				"element": "H" 
			},
			{
				"x": -1.6214339045,
				"y": -0.8375311547,
				"z": -0.3032345208,
				"element": "H" 
			},
			{
				"x": -1.3550495343,
				"y": -0.9602224097,
				"z": 1.4459250909,
				"element": "H" 
			},
			{
				"x": -0.294228239,
				"y": -0.0844287293,
				"z": -1.9767136568,
				"element": "H" 
			},
			{
				"x": 0.8937211092,
				"y": -0.498477551,
				"z": -4.0935890847,
				"element": "H" 
			},
			{
				"x": 3.4315631931,
				"y": -3.3718309725,
				"z": -2.1529473585,
				"element": "H" 
			},
			{
				"x": 2.2109595712,
				"y": -2.9829260169,
				"z": -0.0110095758,
				"element": "H" 
			}
		],
		 "valence_orbital": [ 
			{
				"type": "occ",
				"energy": -0.29942,
				"method": "rhf"
			},
			{
				"type": "occ",
				"energy": -0.26566,
				"method": "rhf"
			},
			{
				"type": "occ",
				"energy": -0.26459,
				"method": "rhf"
			},
			{
				"type": "occ",
				"energy": -0.2397,
				"method": "rhf"
			},
			{
				"type": "occ",
				"energy": -0.22629,
				"method": "rhf"
			},
			{
				"type": "unocc",
				"energy": -0.01585,
				"method": "rhf"
			},
			{
				"type": "unocc",
				"energy": -0.00427,
				"method": "rhf"
			},
			{
				"type": "unocc",
				"energy": -0.00252,
				"method": "rhf"
			},
			{
				"type": "unocc",
				"energy": -0.00057,
				"method": "rhf"
			},
			{
				"type": "unocc",
				"energy": 0.02834,
				"method": "rhf"
			}
		],
		"cosmo_sigma_profile": { 
			"-0.025": 0.0,
			"-0.024": 0.0,
			"-0.023": 0.0,
			"-0.022": 0.0,
			"-0.021": 0.0,
			"-0.02": 0.0,
			"-0.019": 0.0,
			"-0.018": 0.0,
			"-0.017": 0.0,
			"-0.016": 0.0,
			"-0.015": 0.0,
			"-0.014": 0.0,
			"-0.013": 0.237651092648,
			"-0.012": 1.31574641535,
			"-0.011": 1.6394044834,
			"-0.01": 1.24057941409,
			"-0.009": 1.37888781777,
			"-0.008": 6.14369107149,
			"-0.007": 14.6952578818,
			"-0.006": 20.3627463971,
			"-0.005": 21.0825104841,
			"-0.004": 18.8845359733,
			"-0.003": 13.2526645423,
			"-0.002": 14.2288834881,
			"-0.001": 15.5544493225,
			"0.0": 14.9270268895,
			"0.001": 18.8736094587,
			"0.002": 24.2664255916,
			"0.003": 25.3186241024,
			"0.004": 20.3955830077,
			"0.005": 14.2470545338,
			"0.006": 5.18062435368,
			"0.007": 3.34140995095,
			"0.008": 2.47912296917,
			"0.009": 1.42154422046,
			"0.01": 2.39749157893,
			"0.011": 2.05023346332,
			"0.012": 2.74897005921,
			"0.013": 3.3540452637,
			"0.014": 2.08221516138,
			"0.015": 2.36981827345,
			"0.016": 1.28207961552,
			"0.017": 0.244021527579,
			"0.018": 0.0,
			"0.019": 0.0,
			"0.02": 0.0,
			"0.021": 0.0,
			"0.022": 0.0,
			"0.023": 0.0,
			"0.024": 0.0,
			"0.025": 0.0
		}
	}
}
