{
	 "smiles": "NC1=CC(OCC2=CC=C(F)C=C2)=CC=C1", 
	 "Tm": 361.15, 
	 "num_atms": 28, 
	 "gaussian": { 
		 "optdone": 1, 
		 "sigma_profile": "yes", 
		 "theory": "DFT", 
		 "functional": "B3LYP", 
		 "basiset": "6-31G**", 
		 "properties": { 
			 "R2extent": 4952.6511, 
			 "electric_dipole_moment_norm": 2.43357285899, 
			 "electric_quadrupole_moment_norm": 8.70913958494, 
			 "total_energy": -732.41871199, 
			 "HOMO_LUMO_gap": 0.18496, 
			 "cosmo_polarized_energy": -11.57, 
			 "cosmo_cavitation_energy": 32.56, 
			 "cosmo_dispersion_energy": -23.25, 
			 "cosmo_repulsion_energy": 1.8, 
			 "cosmo_total_nonelectrostatic_energy": 11.11, 
			 "SMD_solvation_energy": 6.06 
		},
		"coords": [
			{
				"x": -2.6562142105,
				"y": 3.7519284717,
				"z": -2.2025498834,
				"element": "N" 
			},
			{
				"x": -1.6775191307,
				"y": 2.8592752802,
				"z": -1.758831595,
				"element": "C" 
			},
			{
				"x": -1.5672633281,
				"y": 2.544446207,
				"z": -0.3993800912,
				"element": "C" 
			},
			{
				"x": -0.6257718611,
				"y": 1.6080899536,
				"z": 0.0395662093,
				"element": "C" 
			},
			{
				"x": -0.6165573618,
				"y": 1.3981213214,
				"z": 1.3974619574,
				"element": "O" 
			},
			{
				"x": 0.4047654774,
				"y": 0.587977753,
				"z": 1.9678925162,
				"element": "C" 
			},
			{
				"x": 0.1599979556,
				"y": -0.9041364157,
				"z": 1.8385708588,
				"element": "C" 
			},
			{
				"x": 1.2383467992,
				"y": -1.7967685685,
				"z": 1.8398508618,
				"element": "C" 
			},
			{
				"x": 1.0307268807,
				"y": -3.1755338553,
				"z": 1.7860646282,
				"element": "C" 
			},
			{
				"x": -0.2746117159,
				"y": -3.648498763,
				"z": 1.7225802368,
				"element": "C" 
			},
			{
				"x": -0.4864155866,
				"y": -4.9806612262,
				"z": 1.6630430096,
				"element": "F" 
			},
			{
				"x": -1.3678202174,
				"y": -2.7892751747,
				"z": 1.7131014854,
				"element": "C" 
			},
			{
				"x": -1.1419298846,
				"y": -1.4148597478,
				"z": 1.7760083874,
				"element": "C" 
			},
			{
				"x": 0.2234190466,
				"y": 0.9680595917,
				"z": -0.8701581906,
				"element": "C" 
			},
			{
				"x": 0.1074040372,
				"y": 1.2941988476,
				"z": -2.2251545253,
				"element": "C" 
			},
			{
				"x": -0.8211722007,
				"y": 2.2229936205,
				"z": -2.6783282423,
				"element": "C" 
			},
			{
				"x": -2.4508017821,
				"y": 4.2060468331,
				"z": -3.081807186,
				"element": "H" 
			},
			{
				"x": -2.9823158803,
				"y": 4.4097872458,
				"z": -1.507950279,
				"element": "H" 
			},
			{
				"x": -2.2069472244,
				"y": 3.0205230293,
				"z": 0.3379491143,
				"element": "H" 
			},
			{
				"x": 0.4102726696,
				"y": 0.8733497181,
				"z": 3.0261891249,
				"element": "H" 
			},
			{
				"x": 1.3860138243,
				"y": 0.8542427763,
				"z": 1.5531601145,
				"element": "H" 
			},
			{
				"x": 2.2559220019,
				"y": -1.4150871363,
				"z": 1.8815511915,
				"element": "H" 
			},
			{
				"x": 1.8572348727,
				"y": -3.877909848,
				"z": 1.7835426865,
				"element": "H" 
			},
			{
				"x": -2.3704540389,
				"y": -3.1993633814,
				"z": 1.6566400978,
				"element": "H" 
			},
			{
				"x": -1.9807282008,
				"y": -0.7266282072,
				"z": 1.7648473567,
				"element": "H" 
			},
			{
				"x": 0.9357427061,
				"y": 0.2187442924,
				"z": -0.5507612701,
				"element": "H" 
			},
			{
				"x": 0.7595002351,
				"y": 0.8025915746,
				"z": -2.9420031277,
				"element": "H" 
			},
			{
				"x": -0.8984238824,
				"y": 2.4540458078,
				"z": -3.7372954468,
				"element": "H" 
			}
		],
		 "valence_orbital": [ 
			{
				"type": "occ",
				"energy": -0.28805,
				"method": "rhf"
			},
			{
				"type": "occ",
				"energy": -0.25976,
				"method": "rhf"
			},
			{
				"type": "occ",
				"energy": -0.2391,
				"method": "rhf"
			},
			{
				"type": "occ",
				"energy": -0.21813,
				"method": "rhf"
			},
			{
				"type": "occ",
				"energy": -0.19711,
				"method": "rhf"
			},
			{
				"type": "unocc",
				"energy": -0.01215,
				"method": "rhf"
			},
			{
				"type": "unocc",
				"energy": -0.00141,
				"method": "rhf"
			},
			{
				"type": "unocc",
				"energy": 0.0139,
				"method": "rhf"
			},
			{
				"type": "unocc",
				"energy": 0.02876,
				"method": "rhf"
			},
			{
				"type": "unocc",
				"energy": 0.08501,
				"method": "rhf"
			}
		],
		"cosmo_sigma_profile": { 
			"-0.025": 0.0,
			"-0.024": 0.0,
			"-0.023": 0.0,
			"-0.022": 0.0,
			"-0.021": 0.0,
			"-0.02": 0.0,
			"-0.019": 0.0,
			"-0.018": 0.0,
			"-0.017": 0.0,
			"-0.016": 0.0,
			"-0.015": 0.0,
			"-0.014": 0.0,
			"-0.013": 0.114275553169,
			"-0.012": 2.09110633241,
			"-0.011": 3.16457809902,
			"-0.01": 2.12186714803,
			"-0.009": 2.91780235078,
			"-0.008": 3.62881319813,
			"-0.007": 7.96737038389,
			"-0.006": 15.0309097025,
			"-0.005": 18.2755828551,
			"-0.004": 18.9772261522,
			"-0.003": 16.5654888506,
			"-0.002": 14.3585855673,
			"-0.001": 12.359235188,
			"0.0": 13.838954327,
			"0.001": 16.9951954808,
			"0.002": 17.5029790975,
			"0.003": 18.0428270288,
			"0.004": 27.4159693306,
			"0.005": 16.8708085188,
			"0.006": 12.2191566619,
			"0.007": 9.55431341592,
			"0.008": 2.5368673521,
			"0.009": 1.83852169841,
			"0.01": 1.5080284927,
			"0.011": 1.07094725551,
			"0.012": 0.954918909734,
			"0.013": 0.827648882856,
			"0.014": 0.41982392547,
			"0.015": 0.375196919721,
			"0.016": 0.0,
			"0.017": 0.0,
			"0.018": 0.0,
			"0.019": 0.0,
			"0.02": 0.0,
			"0.021": 0.0,
			"0.022": 0.0,
			"0.023": 0.0,
			"0.024": 0.0,
			"0.025": 0.0
		}
	}
}
