{
	 "smiles": "CN1CCN(CC2=CC=CC=C2N)CC1", 
	 "Tm": 360.65, 
	 "num_atms": 34, 
	 "gaussian": { 
		 "optdone": 1, 
		 "sigma_profile": "yes", 
		 "theory": "DFT", 
		 "functional": "B3LYP", 
		 "basiset": "6-31G**", 
		 "properties": { 
			 "R2extent": 3300.397, 
			 "electric_dipole_moment_norm": 1.98761960395, 
			 "electric_quadrupole_moment_norm": 8.07828482043, 
			 "total_energy": -632.961493044, 
			 "HOMO_LUMO_gap": 0.18699, 
			 "cosmo_polarized_energy": -10.39, 
			 "cosmo_cavitation_energy": 33.01, 
			 "cosmo_dispersion_energy": -23.61, 
			 "cosmo_repulsion_energy": 1.84, 
			 "cosmo_total_nonelectrostatic_energy": 11.24, 
			 "SMD_solvation_energy": 0.57 
		},
		"coords": [
			{
				"x": 0.3807881679,
				"y": -1.2672920016,
				"z": 3.520667036,
				"element": "C" 
			},
			{
				"x": -0.1533113413,
				"y": -0.236262461,
				"z": 2.6461436197,
				"element": "N" 
			},
			{
				"x": 0.9121278924,
				"y": 0.506110139,
				"z": 1.9687794693,
				"element": "C" 
			},
			{
				"x": 0.3041375578,
				"y": 1.6439933136,
				"z": 1.1333471863,
				"element": "C" 
			},
			{
				"x": -0.7198381885,
				"y": 1.2098405075,
				"z": 0.1880368757,
				"element": "N" 
			},
			{
				"x": -0.3071109714,
				"y": 0.9244616444,
				"z": -1.1859416508,
				"element": "C" 
			},
			{
				"x": 0.6162825209,
				"y": -0.2567297111,
				"z": -1.4920640556,
				"element": "C" 
			},
			{
				"x": 2.0009713244,
				"y": -0.0487953294,
				"z": -1.522603199,
				"element": "C" 
			},
			{
				"x": 2.9079577101,
				"y": -1.078177816,
				"z": -1.7713404461,
				"element": "C" 
			},
			{
				"x": 2.4174556889,
				"y": -2.3614874308,
				"z": -2.0164993691,
				"element": "C" 
			},
			{
				"x": 1.0456022307,
				"y": -2.5937642555,
				"z": -2.0252206368,
				"element": "C" 
			},
			{
				"x": 0.1313586021,
				"y": -1.5564288013,
				"z": -1.7716639175,
				"element": "C" 
			},
			{
				"x": -1.240981196,
				"y": -1.8478858272,
				"z": -1.7499956281,
				"element": "N" 
			},
			{
				"x": -1.7058753625,
				"y": 0.350203441,
				"z": 0.8359097169,
				"element": "C" 
			},
			{
				"x": -1.0974129014,
				"y": -0.7871072183,
				"z": 1.6698217256,
				"element": "C" 
			},
			{
				"x": 0.9599962244,
				"y": -2.0435924164,
				"z": 2.983222742,
				"element": "H" 
			},
			{
				"x": -0.4391282254,
				"y": -1.7658044366,
				"z": 4.0492901828,
				"element": "H" 
			},
			{
				"x": 1.0402611687,
				"y": -0.8138200765,
				"z": 4.2688693898,
				"element": "H" 
			},
			{
				"x": 1.5248097847,
				"y": -0.1528688972,
				"z": 1.3256532707,
				"element": "H" 
			},
			{
				"x": 1.576728955,
				"y": 0.932788438,
				"z": 2.7311681206,
				"element": "H" 
			},
			{
				"x": -0.1595854863,
				"y": 2.3569798393,
				"z": 1.8313019718,
				"element": "H" 
			},
			{
				"x": 1.0924582536,
				"y": 2.1784339002,
				"z": 0.5926072334,
				"element": "H" 
			},
			{
				"x": -1.2283927769,
				"y": 0.8472115525,
				"z": -1.7805092088,
				"element": "H" 
			},
			{
				"x": 0.1964733844,
				"y": 1.828448618,
				"z": -1.5513905928,
				"element": "H" 
			},
			{
				"x": 2.3736741351,
				"y": 0.9581055206,
				"z": -1.3461124324,
				"element": "H" 
			},
			{
				"x": 3.9753869874,
				"y": -0.8807984254,
				"z": -1.7810688188,
				"element": "H" 
			},
			{
				"x": 3.1004524874,
				"y": -3.1823427001,
				"z": -2.2169990223,
				"element": "H" 
			},
			{
				"x": 0.6654629924,
				"y": -3.591636812,
				"z": -2.233879307,
				"element": "H" 
			},
			{
				"x": -1.4876284014,
				"y": -2.6917553749,
				"z": -2.2503126539,
				"element": "H" 
			},
			{
				"x": -1.8471650054,
				"y": -1.0821709775,
				"z": -2.010322604,
				"element": "H" 
			},
			{
				"x": -2.3041667863,
				"y": 0.9768533412,
				"z": 1.5142863344,
				"element": "H" 
			},
			{
				"x": -2.3825290091,
				"y": -0.062021027,
				"z": 0.0820803641,
				"element": "H" 
			},
			{
				"x": -1.8982262553,
				"y": -1.3030541256,
				"z": 2.2149874721,
				"element": "H" 
			},
			{
				"x": -0.619734161,
				"y": -1.5297341341,
				"z": 1.0055508318,
				"element": "H" 
			}
		],
		 "valence_orbital": [ 
			{
				"type": "occ",
				"energy": -0.3049,
				"method": "rhf"
			},
			{
				"type": "occ",
				"energy": -0.24118,
				"method": "rhf"
			},
			{
				"type": "occ",
				"energy": -0.20654,
				"method": "rhf"
			},
			{
				"type": "occ",
				"energy": -0.20149,
				"method": "rhf"
			},
			{
				"type": "occ",
				"energy": -0.18473,
				"method": "rhf"
			},
			{
				"type": "unocc",
				"energy": 0.00226,
				"method": "rhf"
			},
			{
				"type": "unocc",
				"energy": 0.01756,
				"method": "rhf"
			},
			{
				"type": "unocc",
				"energy": 0.06665,
				"method": "rhf"
			},
			{
				"type": "unocc",
				"energy": 0.09486,
				"method": "rhf"
			},
			{
				"type": "unocc",
				"energy": 0.10149,
				"method": "rhf"
			}
		],
		"cosmo_sigma_profile": { 
			"-0.025": 0.0,
			"-0.024": 0.0,
			"-0.023": 0.0,
			"-0.022": 0.0,
			"-0.021": 0.0,
			"-0.02": 0.0,
			"-0.019": 0.0,
			"-0.018": 0.0,
			"-0.017": 0.0,
			"-0.016": 0.0,
			"-0.015": 0.0,
			"-0.014": 0.0,
			"-0.013": 0.0411365560873,
			"-0.012": 1.44142858032,
			"-0.011": 3.10758242878,
			"-0.01": 2.87653942435,
			"-0.009": 3.07946188841,
			"-0.008": 3.30997518607,
			"-0.007": 2.69773999625,
			"-0.006": 3.9371009137,
			"-0.005": 8.67399062915,
			"-0.004": 15.8124259035,
			"-0.003": 26.3905141352,
			"-0.002": 28.4125300397,
			"-0.001": 28.1879939069,
			"0.0": 30.2600878389,
			"0.001": 22.2424766397,
			"0.002": 12.15506817,
			"0.003": 10.178735287,
			"0.004": 10.7376795297,
			"0.005": 10.7923231076,
			"0.006": 8.8855668685,
			"0.007": 9.11226599969,
			"0.008": 3.64283191447,
			"0.009": 2.28829633975,
			"0.01": 1.99992343529,
			"0.011": 1.85677805446,
			"0.012": 1.52841126164,
			"0.013": 0.817752947907,
			"0.014": 0.616371414771,
			"0.015": 1.03282884496,
			"0.016": 0.385890411377,
			"0.017": 0.273370624827,
			"0.018": 0.0,
			"0.019": 0.0,
			"0.02": 0.0,
			"0.021": 0.0,
			"0.022": 0.0,
			"0.023": 0.0,
			"0.024": 0.0,
			"0.025": 0.0
		}
	}
}
