{
	 "smiles": "OC(=O)CSC1=CC=CC2=C1C(Cl)=CC=C2", 
	 "Tm": 429.15, 
	 "num_atms": 25, 
	 "gaussian": { 
		 "optdone": 1, 
		 "sigma_profile": "yes", 
		 "theory": "DFT", 
		 "functional": "B3LYP", 
		 "basiset": "6-31G**", 
		 "properties": { 
			 "R2extent": 4636.043, 
			 "electric_dipole_moment_norm": 3.50135112635, 
			 "electric_quadrupole_moment_norm": 19.7996460165, 
			 "total_energy": -1471.52361776, 
			 "HOMO_LUMO_gap": 0.16286, 
			 "cosmo_polarized_energy": -17.91, 
			 "cosmo_cavitation_energy": 31.97, 
			 "cosmo_dispersion_energy": -23.6, 
			 "cosmo_repulsion_energy": 1.78, 
			 "cosmo_total_nonelectrostatic_energy": 10.15, 
			 "SMD_solvation_energy": 5.66 
		},
		"coords": [
			{
				"x": -2.1933657239,
				"y": -2.9600866434,
				"z": -0.8523848444,
				"element": "O" 
			},
			{
				"x": -1.7304770455,
				"y": -2.1861688825,
				"z": 0.1682523219,
				"element": "C" 
			},
			{
				"x": -0.9028282741,
				"y": -2.6190339942,
				"z": 0.9253385515,
				"element": "O" 
			},
			{
				"x": -2.3796195261,
				"y": -0.8011783999,
				"z": 0.2321172795,
				"element": "C" 
			},
			{
				"x": -1.6548487978,
				"y": 0.3659374626,
				"z": 1.4312406265,
				"element": "S" 
			},
			{
				"x": -0.034071854,
				"y": 0.7115939057,
				"z": 0.7174545249,
				"element": "C" 
			},
			{
				"x": 0.9858884971,
				"y": -0.0420618373,
				"z": 1.2779679082,
				"element": "C" 
			},
			{
				"x": 2.3426466227,
				"y": 0.1706469301,
				"z": 0.9619548819,
				"element": "C" 
			},
			{
				"x": 2.674389238,
				"y": 1.1681373784,
				"z": 0.0839885887,
				"element": "C" 
			},
			{
				"x": 1.6759980959,
				"y": 1.9703947244,
				"z": -0.5306879989,
				"element": "C" 
			},
			{
				"x": 0.2716510646,
				"y": 1.7479446325,
				"z": -0.243218885,
				"element": "C" 
			},
			{
				"x": -0.6307511823,
				"y": 2.5981581265,
				"z": -0.9662490691,
				"element": "C" 
			},
			{
				"x": -2.3903373123,
				"y": 2.4667869587,
				"z": -0.8782436923,
				"element": "Cl" 
			},
			{
				"x": -0.1915296346,
				"y": 3.5815994578,
				"z": -1.8305992092,
				"element": "C" 
			},
			{
				"x": 1.1803794146,
				"y": 3.790974023,
				"z": -2.0613684745,
				"element": "C" 
			},
			{
				"x": 2.0934127875,
				"y": 2.9878440364,
				"z": -1.4274362015,
				"element": "C" 
			},
			{
				"x": -2.8417839757,
				"y": -2.4730934479,
				"z": -1.3814342308,
				"element": "H" 
			},
			{
				"x": -3.4224123815,
				"y": -0.9274767342,
				"z": 0.5494834583,
				"element": "H" 
			},
			{
				"x": -2.4049929049,
				"y": -0.3457039204,
				"z": -0.7640577206,
				"element": "H" 
			},
			{
				"x": 0.7128306246,
				"y": -0.824270517,
				"z": 1.975466651,
				"element": "H" 
			},
			{
				"x": 3.1071067045,
				"y": -0.4470598447,
				"z": 1.4226108248,
				"element": "H" 
			},
			{
				"x": 3.7131327944,
				"y": 1.3680368338,
				"z": -0.16435349,
				"element": "H" 
			},
			{
				"x": -0.9276833919,
				"y": 4.1902992699,
				"z": -2.3430991409,
				"element": "H" 
			},
			{
				"x": 1.4980427834,
				"y": 4.5720536403,
				"z": -2.7447128399,
				"element": "H" 
			},
			{
				"x": 3.1583233772,
				"y": 3.1135268415,
				"z": -1.6004298201,
				"element": "H" 
			}
		],
		 "valence_orbital": [ 
			{
				"type": "occ",
				"energy": -0.28277,
				"method": "rhf"
			},
			{
				"type": "occ",
				"energy": -0.27747,
				"method": "rhf"
			},
			{
				"type": "occ",
				"energy": -0.25875,
				"method": "rhf"
			},
			{
				"type": "occ",
				"energy": -0.22962,
				"method": "rhf"
			},
			{
				"type": "occ",
				"energy": -0.22213,
				"method": "rhf"
			},
			{
				"type": "unocc",
				"energy": -0.05927,
				"method": "rhf"
			},
			{
				"type": "unocc",
				"energy": -0.0254,
				"method": "rhf"
			},
			{
				"type": "unocc",
				"energy": 0.00258,
				"method": "rhf"
			},
			{
				"type": "unocc",
				"energy": 0.00449,
				"method": "rhf"
			},
			{
				"type": "unocc",
				"energy": 0.02511,
				"method": "rhf"
			}
		],
		"cosmo_sigma_profile": { 
			"-0.025": 0.0,
			"-0.024": 0.0,
			"-0.023": 0.0,
			"-0.022": 0.0,
			"-0.021": 0.0,
			"-0.02": 0.156337750454,
			"-0.019": 1.00677262676,
			"-0.018": 1.22330437362,
			"-0.017": 1.35430159313,
			"-0.016": 1.06370029316,
			"-0.015": 0.936780779729,
			"-0.014": 0.967529587624,
			"-0.013": 1.20621606423,
			"-0.012": 1.79785347693,
			"-0.011": 1.40489332064,
			"-0.01": 2.22663206615,
			"-0.009": 3.56892913267,
			"-0.008": 3.73245312065,
			"-0.007": 10.1925925199,
			"-0.006": 14.2800275626,
			"-0.005": 14.7885101028,
			"-0.004": 12.8404537977,
			"-0.003": 9.95543041227,
			"-0.002": 11.3200988364,
			"-0.001": 12.1929975094,
			"0.0": 14.9162360603,
			"0.001": 19.9849139267,
			"0.002": 30.2728291531,
			"0.003": 26.9338692337,
			"0.004": 15.1277381281,
			"0.005": 9.52048485128,
			"0.006": 5.71420415933,
			"0.007": 5.87139060957,
			"0.008": 5.15383777537,
			"0.009": 5.12575276186,
			"0.01": 5.86249821844,
			"0.011": 5.35325133967,
			"0.012": 3.1858744758,
			"0.013": 0.571377933977,
			"0.014": 0.0,
			"0.015": 0.0,
			"0.016": 0.0,
			"0.017": 0.0,
			"0.018": 0.0,
			"0.019": 0.0,
			"0.02": 0.0,
			"0.021": 0.0,
			"0.022": 0.0,
			"0.023": 0.0,
			"0.024": 0.0,
			"0.025": 0.0
		}
	}
}
