{
	 "smiles": "COC(=O)C=CC1=CC(C=CC(=O)OC)=CC=C1", 
	 "Tm": 405.15, 
	 "num_atms": 32, 
	 "gaussian": { 
		 "optdone": 1, 
		 "sigma_profile": "yes", 
		 "theory": "DFT", 
		 "functional": "B3LYP", 
		 "basiset": "6-31G**", 
		 "properties": { 
			 "R2extent": 8906.4704, 
			 "electric_dipole_moment_norm": 2.43736295204, 
			 "electric_quadrupole_moment_norm": 17.8104406515, 
			 "total_energy": -842.815167738, 
			 "HOMO_LUMO_gap": 0.16728, 
			 "cosmo_polarized_energy": -14.77, 
			 "cosmo_cavitation_energy": 38.52, 
			 "cosmo_dispersion_energy": -27.33, 
			 "cosmo_repulsion_energy": 2.12, 
			 "cosmo_total_nonelectrostatic_energy": 13.31, 
			 "SMD_solvation_energy": 9.97 
		},
		"coords": [
			{
				"x": -4.2635828682,
				"y": 2.180563725,
				"z": -2.717241467,
				"element": "C" 
			},
			{
				"x": -3.007686494,
				"y": 1.8061375819,
				"z": -2.1337199846,
				"element": "O" 
			},
			{
				"x": -3.0203621471,
				"y": 0.636685238,
				"z": -1.4459272592,
				"element": "C" 
			},
			{
				"x": -4.015658383,
				"y": -0.0528755707,
				"z": -1.3252662064,
				"element": "O" 
			},
			{
				"x": -1.7104818029,
				"y": 0.2874557314,
				"z": -0.8617576867,
				"element": "C" 
			},
			{
				"x": -0.6013675933,
				"y": 1.0389320442,
				"z": -0.9853662508,
				"element": "C" 
			},
			{
				"x": 0.7292081153,
				"y": 0.758060328,
				"z": -0.435569258,
				"element": "C" 
			},
			{
				"x": 1.0198430826,
				"y": -0.3851010154,
				"z": 0.323742549,
				"element": "C" 
			},
			{
				"x": 2.3055696571,
				"y": -0.6203063042,
				"z": 0.8334466869,
				"element": "C" 
			},
			{
				"x": 2.6460474816,
				"y": -1.8020582676,
				"z": 1.6298952444,
				"element": "C" 
			},
			{
				"x": 1.8376019483,
				"y": -2.8127508768,
				"z": 1.9944188083,
				"element": "C" 
			},
			{
				"x": 2.3705159603,
				"y": -3.9268305267,
				"z": 2.8063366241,
				"element": "C" 
			},
			{
				"x": 3.5157847811,
				"y": -4.0397232898,
				"z": 3.2024464799,
				"element": "O" 
			},
			{
				"x": 1.3994432172,
				"y": -4.8364258052,
				"z": 3.0648951424,
				"element": "O" 
			},
			{
				"x": 1.813247011,
				"y": -5.9635331126,
				"z": 3.8504097389,
				"element": "C" 
			},
			{
				"x": 3.3168832396,
				"y": 0.3235900201,
				"z": 0.5673060181,
				"element": "C" 
			},
			{
				"x": 3.0467902585,
				"y": 1.4639823735,
				"z": -0.1843749473,
				"element": "C" 
			},
			{
				"x": 1.7646813389,
				"y": 1.680789667,
				"z": -0.6821556523,
				"element": "C" 
			},
			{
				"x": -4.6010980518,
				"y": 1.4222101069,
				"z": -3.4284642739,
				"element": "H" 
			},
			{
				"x": -5.0282351514,
				"y": 2.3009033226,
				"z": -1.9454164279,
				"element": "H" 
			},
			{
				"x": -4.0818486955,
				"y": 3.1275094704,
				"z": -3.2259030805,
				"element": "H" 
			},
			{
				"x": -1.7274368157,
				"y": -0.648869385,
				"z": -0.3137513512,
				"element": "H" 
			},
			{
				"x": -0.6847534354,
				"y": 1.9619275505,
				"z": -1.5544698114,
				"element": "H" 
			},
			{
				"x": 0.2328630718,
				"y": -1.1045785516,
				"z": 0.5219842489,
				"element": "H" 
			},
			{
				"x": 3.6794028231,
				"y": -1.8688191204,
				"z": 1.9669461601,
				"element": "H" 
			},
			{
				"x": 0.7882413231,
				"y": -2.866886681,
				"z": 1.7243108252,
				"element": "H" 
			},
			{
				"x": 0.9259188289,
				"y": -6.5863369005,
				"z": 3.9642281003,
				"element": "H" 
			},
			{
				"x": 2.6079377676,
				"y": -6.5168543816,
				"z": 3.3430972969,
				"element": "H" 
			},
			{
				"x": 2.1821880133,
				"y": -5.639016523,
				"z": 4.8269447196,
				"element": "H" 
			},
			{
				"x": 4.3166365611,
				"y": 0.1523886511,
				"z": 0.9567277537,
				"element": "H" 
			},
			{
				"x": 3.8353477217,
				"y": 2.1836366707,
				"z": -0.382217344,
				"element": "H" 
			},
			{
				"x": 1.552759236,
				"y": 2.5704938308,
				"z": -1.2689353956,
				"element": "H" 
			}
		],
		 "valence_orbital": [ 
			{
				"type": "occ",
				"energy": -0.29675,
				"method": "rhf"
			},
			{
				"type": "occ",
				"energy": -0.27165,
				"method": "rhf"
			},
			{
				"type": "occ",
				"energy": -0.27048,
				"method": "rhf"
			},
			{
				"type": "occ",
				"energy": -0.24906,
				"method": "rhf"
			},
			{
				"type": "occ",
				"energy": -0.23893,
				"method": "rhf"
			},
			{
				"type": "unocc",
				"energy": -0.07165,
				"method": "rhf"
			},
			{
				"type": "unocc",
				"energy": -0.06936,
				"method": "rhf"
			},
			{
				"type": "unocc",
				"energy": 0.00347,
				"method": "rhf"
			},
			{
				"type": "unocc",
				"energy": 0.0249,
				"method": "rhf"
			},
			{
				"type": "unocc",
				"energy": 0.0844,
				"method": "rhf"
			}
		],
		"cosmo_sigma_profile": { 
			"-0.025": 0.0,
			"-0.024": 0.0,
			"-0.023": 0.0,
			"-0.022": 0.0,
			"-0.021": 0.0,
			"-0.02": 0.0,
			"-0.019": 0.0,
			"-0.018": 0.0,
			"-0.017": 0.0,
			"-0.016": 0.0,
			"-0.015": 0.0,
			"-0.014": 0.0,
			"-0.013": 0.0,
			"-0.012": 0.0,
			"-0.011": 0.0,
			"-0.01": 0.0908429989413,
			"-0.009": 2.64051230538,
			"-0.008": 4.82718303119,
			"-0.007": 11.2552133707,
			"-0.006": 18.0377964819,
			"-0.005": 24.9272912025,
			"-0.004": 23.2407450185,
			"-0.003": 27.014902804,
			"-0.002": 20.42240497,
			"-0.001": 20.8969308916,
			"0.0": 21.1331130949,
			"0.001": 25.8629209788,
			"0.002": 28.7385515553,
			"0.003": 23.6006172553,
			"0.004": 8.72263042991,
			"0.005": 5.85837886267,
			"0.006": 6.73238762531,
			"0.007": 4.24906590407,
			"0.008": 3.53147059018,
			"0.009": 4.13847190895,
			"0.01": 3.23377648829,
			"0.011": 4.5068393203,
			"0.012": 9.50075376186,
			"0.013": 4.38338387361,
			"0.014": 0.0979923078931,
			"0.015": 0.0,
			"0.016": 0.0,
			"0.017": 0.0,
			"0.018": 0.0,
			"0.019": 0.0,
			"0.02": 0.0,
			"0.021": 0.0,
			"0.022": 0.0,
			"0.023": 0.0,
			"0.024": 0.0,
			"0.025": 0.0
		}
	}
}
