{
	 "smiles": "CC(C)(C)OC(=O)N1CCC(CCC(O)=O)CC1", 
	 "Tm": 373.15, 
	 "num_atms": 41, 
	 "gaussian": { 
		 "optdone": 1, 
		 "sigma_profile": "yes", 
		 "theory": "DFT", 
		 "functional": "B3LYP", 
		 "basiset": "6-31G**", 
		 "properties": { 
			 "R2extent": 8493.7151, 
			 "electric_dipole_moment_norm": 2.29600162239, 
			 "electric_quadrupole_moment_norm": 36.6452774111, 
			 "total_energy": -864.946011285, 
			 "HOMO_LUMO_gap": 0.23897, 
			 "cosmo_polarized_energy": -20.39, 
			 "cosmo_cavitation_energy": 41.54, 
			 "cosmo_dispersion_energy": -28.81, 
			 "cosmo_repulsion_energy": 2.26, 
			 "cosmo_total_nonelectrostatic_energy": 14.99, 
			 "SMD_solvation_energy": 7.89 
		},
		"coords": [
			{
				"x": -2.7844075842,
				"y": -3.2594663654,
				"z": -1.489784441,
				"element": "C" 
			},
			{
				"x": -2.1246002952,
				"y": -2.932667424,
				"z": -0.1455340756,
				"element": "C" 
			},
			{
				"x": -3.1823132971,
				"y": -2.5959278055,
				"z": 0.9093670789,
				"element": "C" 
			},
			{
				"x": -1.2130397063,
				"y": -4.0637315277,
				"z": 0.343530759,
				"element": "C" 
			},
			{
				"x": -1.3635242305,
				"y": -1.6793045543,
				"z": -0.2450439283,
				"element": "O" 
			},
			{
				"x": -0.3227804749,
				"y": -1.5638548745,
				"z": -1.1099912417,
				"element": "C" 
			},
			{
				"x": 0.0977092076,
				"y": -2.4530704924,
				"z": -1.8399421625,
				"element": "O" 
			},
			{
				"x": 0.2086077533,
				"y": -0.3036825691,
				"z": -1.0614475923,
				"element": "N" 
			},
			{
				"x": -0.2875918101,
				"y": 0.7454079892,
				"z": -0.1615622125,
				"element": "C" 
			},
			{
				"x": 0.1343098801,
				"y": 2.1201557471,
				"z": -0.6874608122,
				"element": "C" 
			},
			{
				"x": 1.6745063183,
				"y": 2.2865589566,
				"z": -0.7881883399,
				"element": "C" 
			},
			{
				"x": 2.2495765806,
				"y": 2.9548464132,
				"z": 0.4726079476,
				"element": "C" 
			},
			{
				"x": 3.7544230746,
				"y": 3.2258615055,
				"z": 0.4037236717,
				"element": "C" 
			},
			{
				"x": 4.277242857,
				"y": 3.9622965313,
				"z": 1.6317608395,
				"element": "C" 
			},
			{
				"x": 5.6169150163,
				"y": 4.2094506335,
				"z": 1.634180739,
				"element": "O" 
			},
			{
				"x": 3.5973554759,
				"y": 4.3238176527,
				"z": 2.5584699881,
				"element": "O" 
			},
			{
				"x": 2.3385090271,
				"y": 0.9155928713,
				"z": -1.0808112025,
				"element": "C" 
			},
			{
				"x": 1.4122737019,
				"y": -0.0276596021,
				"z": -1.8515920146,
				"element": "C" 
			},
			{
				"x": -2.0336858532,
				"y": -3.4800317768,
				"z": -2.2486975518,
				"element": "H" 
			},
			{
				"x": -3.4407627171,
				"y": -4.1284465542,
				"z": -1.3755887212,
				"element": "H" 
			},
			{
				"x": -3.3948039028,
				"y": -2.4157604535,
				"z": -1.8277621137,
				"element": "H" 
			},
			{
				"x": -3.8252903184,
				"y": -3.4629829397,
				"z": 1.0877719876,
				"element": "H" 
			},
			{
				"x": -2.7089385525,
				"y": -2.3151916334,
				"z": 1.8547766186,
				"element": "H" 
			},
			{
				"x": -3.809036664,
				"y": -1.7630869714,
				"z": 0.5768196765,
				"element": "H" 
			},
			{
				"x": -0.7310862992,
				"y": -3.7815453647,
				"z": 1.2851488639,
				"element": "H" 
			},
			{
				"x": -0.4435160917,
				"y": -4.2890331087,
				"z": -0.3948009253,
				"element": "H" 
			},
			{
				"x": -1.8086043265,
				"y": -4.9647265885,
				"z": 0.5239217291,
				"element": "H" 
			},
			{
				"x": 0.0908072599,
				"y": 0.5920775706,
				"z": 0.8603043398,
				"element": "H" 
			},
			{
				"x": -1.3751998163,
				"y": 0.6766754365,
				"z": -0.1071551466,
				"element": "H" 
			},
			{
				"x": -0.2900661436,
				"y": 2.8943650088,
				"z": -0.0386843187,
				"element": "H" 
			},
			{
				"x": -0.3183916553,
				"y": 2.2605577834,
				"z": -1.6756732059,
				"element": "H" 
			},
			{
				"x": 1.8768297854,
				"y": 2.9515753621,
				"z": -1.6397327951,
				"element": "H" 
			},
			{
				"x": 1.7372320279,
				"y": 3.9064006663,
				"z": 0.6507802114,
				"element": "H" 
			},
			{
				"x": 2.0414732293,
				"y": 2.3336726323,
				"z": 1.3527668283,
				"element": "H" 
			},
			{
				"x": 4.3227259148,
				"y": 2.2917911583,
				"z": 0.2984447391,
				"element": "H" 
			},
			{
				"x": 3.9961810335,
				"y": 3.829017171,
				"z": -0.484157867,
				"element": "H" 
			},
			{
				"x": 6.023208624,
				"y": 3.8588085718,
				"z": 0.8288485704,
				"element": "H" 
			},
			{
				"x": 3.2671911096,
				"y": 1.046572965,
				"z": -1.647069782,
				"element": "H" 
			},
			{
				"x": 2.6124925979,
				"y": 0.4274004129,
				"z": -0.1355816838,
				"element": "H" 
			},
			{
				"x": 1.1451299914,
				"y": 0.4135675898,
				"z": -2.8237046693,
				"element": "H" 
			},
			{
				"x": 1.8960392724,
				"y": -0.9832000234,
				"z": -2.059057785,
				"element": "H" 
			}
		],
		 "valence_orbital": [ 
			{
				"type": "occ",
				"energy": -0.31698,
				"method": "rhf"
			},
			{
				"type": "occ",
				"energy": -0.28205,
				"method": "rhf"
			},
			{
				"type": "occ",
				"energy": -0.27404,
				"method": "rhf"
			},
			{
				"type": "occ",
				"energy": -0.25493,
				"method": "rhf"
			},
			{
				"type": "occ",
				"energy": -0.23071,
				"method": "rhf"
			},
			{
				"type": "unocc",
				"energy": 0.00826,
				"method": "rhf"
			},
			{
				"type": "unocc",
				"energy": 0.05091,
				"method": "rhf"
			},
			{
				"type": "unocc",
				"energy": 0.05798,
				"method": "rhf"
			},
			{
				"type": "unocc",
				"energy": 0.06673,
				"method": "rhf"
			},
			{
				"type": "unocc",
				"energy": 0.08868,
				"method": "rhf"
			}
		],
		"cosmo_sigma_profile": { 
			"-0.025": 0.0,
			"-0.024": 0.0,
			"-0.023": 0.0,
			"-0.022": 0.0,
			"-0.021": 0.0,
			"-0.02": 0.0,
			"-0.019": 0.306994546703,
			"-0.018": 0.984489214666,
			"-0.017": 1.13802062624,
			"-0.016": 1.05106887266,
			"-0.015": 1.576253585,
			"-0.014": 0.577428742305,
			"-0.013": 0.995423580853,
			"-0.012": 1.19737812941,
			"-0.011": 1.09525463661,
			"-0.01": 1.21616479301,
			"-0.009": 1.06193655047,
			"-0.008": 2.15517683215,
			"-0.007": 2.6054952367,
			"-0.006": 4.28807560809,
			"-0.005": 4.34237481609,
			"-0.004": 22.2863015439,
			"-0.003": 54.8112165802,
			"-0.002": 44.8737882025,
			"-0.001": 33.0468787572,
			"0.0": 34.2439026604,
			"0.001": 26.9736437497,
			"0.002": 10.7795712447,
			"0.003": 7.73899309567,
			"0.004": 6.23558027373,
			"0.005": 6.56881363879,
			"0.006": 6.39199557712,
			"0.007": 4.67234459875,
			"0.008": 4.83907342217,
			"0.009": 5.12288168193,
			"0.01": 4.82915684008,
			"0.011": 7.51873581158,
			"0.012": 7.4698785718,
			"0.013": 5.00764255708,
			"0.014": 3.01687022936,
			"0.015": 0.129473965461,
			"0.016": 0.0,
			"0.017": 0.0,
			"0.018": 0.0,
			"0.019": 0.0,
			"0.02": 0.0,
			"0.021": 0.0,
			"0.022": 0.0,
			"0.023": 0.0,
			"0.024": 0.0,
			"0.025": 0.0
		}
	}
}
