{
	 "smiles": "CC(=NNC(N)=O)C(=O)NC1=CC=CC=C1", 
	 "Tm": 510.15, 
	 "num_atms": 28, 
	 "gaussian": { 
		 "optdone": 1, 
		 "sigma_profile": "yes", 
		 "theory": "DFT", 
		 "functional": "B3LYP", 
		 "basiset": "6-31G**", 
		 "properties": { 
			 "R2extent": 5607.0344, 
			 "electric_dipole_moment_norm": 6.346594798, 
			 "electric_quadrupole_moment_norm": 26.9740842453, 
			 "total_energy": -757.757031718, 
			 "HOMO_LUMO_gap": 0.17098, 
			 "cosmo_polarized_energy": -17.59, 
			 "cosmo_cavitation_energy": 32.72, 
			 "cosmo_dispersion_energy": -23.46, 
			 "cosmo_repulsion_energy": 1.87, 
			 "cosmo_total_nonelectrostatic_energy": 11.14, 
			 "SMD_solvation_energy": 6.85 
		},
		"coords": [
			{
				"x": 1.2940430679,
				"y": 0.2999814881,
				"z": -1.0346085904,
				"element": "C" 
			},
			{
				"x": 0.0782622014,
				"y": 0.0010427898,
				"z": -1.8820798945,
				"element": "C" 
			},
			{
				"x": 0.3139620014,
				"y": -0.5644999209,
				"z": -3.0291803952,
				"element": "N" 
			},
			{
				"x": -0.6477016473,
				"y": -0.8130559328,
				"z": -3.9216886137,
				"element": "N" 
			},
			{
				"x": -0.3464886831,
				"y": -1.4317208526,
				"z": -5.1469812438,
				"element": "C" 
			},
			{
				"x": 0.9402925975,
				"y": -1.8721637646,
				"z": -5.2598308386,
				"element": "N" 
			},
			{
				"x": -1.2176941927,
				"y": -1.5657379647,
				"z": -5.9914297176,
				"element": "O" 
			},
			{
				"x": -1.2950014387,
				"y": 0.4509545205,
				"z": -1.4888807512,
				"element": "C" 
			},
			{
				"x": -2.1854409422,
				"y": 0.6214220715,
				"z": -2.330616309,
				"element": "O" 
			},
			{
				"x": -1.5588549174,
				"y": 0.7736546504,
				"z": -0.1707149099,
				"element": "N" 
			},
			{
				"x": -1.0465870321,
				"y": 0.1996341244,
				"z": 1.0258275638,
				"element": "C" 
			},
			{
				"x": -0.9142855361,
				"y": 1.0129221121,
				"z": 2.1583409266,
				"element": "C" 
			},
			{
				"x": -0.4664524616,
				"y": 0.4687738879,
				"z": 3.3612143783,
				"element": "C" 
			},
			{
				"x": -0.1292774158,
				"y": -0.8841104991,
				"z": 3.4405036534,
				"element": "C" 
			},
			{
				"x": -0.261089573,
				"y": -1.694753359,
				"z": 2.3113082067,
				"element": "C" 
			},
			{
				"x": -0.7341132738,
				"y": -1.1638247958,
				"z": 1.1112752402,
				"element": "C" 
			},
			{
				"x": 1.3936751514,
				"y": -0.3690383934,
				"z": -0.1755160079,
				"element": "H" 
			},
			{
				"x": 1.259254452,
				"y": 1.3226552749,
				"z": -0.644662257,
				"element": "H" 
			},
			{
				"x": 2.1835111875,
				"y": 0.1937562235,
				"z": -1.6584407324,
				"element": "H" 
			},
			{
				"x": -1.5824085746,
				"y": -0.4280459948,
				"z": -3.7875966905,
				"element": "H" 
			},
			{
				"x": 1.6237559736,
				"y": -1.5602310465,
				"z": -4.586924157,
				"element": "H" 
			},
			{
				"x": 1.2307257178,
				"y": -2.158920068,
				"z": -6.1797153726,
				"element": "H" 
			},
			{
				"x": -2.4685402163,
				"y": 1.2159532208,
				"z": -0.0910474217,
				"element": "H" 
			},
			{
				"x": -1.1570579572,
				"y": 2.0691032009,
				"z": 2.0853314568,
				"element": "H" 
			},
			{
				"x": -0.3704746841,
				"y": 1.1069269396,
				"z": 4.2346951034,
				"element": "H" 
			},
			{
				"x": 0.2271379017,
				"y": -1.3045535569,
				"z": 4.3758045446,
				"element": "H" 
			},
			{
				"x": -0.01543972,
				"y": -2.7511731276,
				"z": 2.3669725348,
				"element": "H" 
			},
			{
				"x": -0.8712119864,
				"y": -1.8024512278,
				"z": 0.2441402943,
				"element": "H" 
			}
		],
		 "valence_orbital": [ 
			{
				"type": "occ",
				"energy": -0.26523,
				"method": "rhf"
			},
			{
				"type": "occ",
				"energy": -0.26226,
				"method": "rhf"
			},
			{
				"type": "occ",
				"energy": -0.25396,
				"method": "rhf"
			},
			{
				"type": "occ",
				"energy": -0.24493,
				"method": "rhf"
			},
			{
				"type": "occ",
				"energy": -0.23266,
				"method": "rhf"
			},
			{
				"type": "unocc",
				"energy": -0.06168,
				"method": "rhf"
			},
			{
				"type": "unocc",
				"energy": -0.02017,
				"method": "rhf"
			},
			{
				"type": "unocc",
				"energy": -0.01499,
				"method": "rhf"
			},
			{
				"type": "unocc",
				"energy": 0.05197,
				"method": "rhf"
			},
			{
				"type": "unocc",
				"energy": 0.08026,
				"method": "rhf"
			}
		],
		"cosmo_sigma_profile": { 
			"-0.025": 0.0,
			"-0.024": 0.0,
			"-0.023": 0.0,
			"-0.022": 0.0,
			"-0.021": 0.0,
			"-0.02": 0.0,
			"-0.019": 0.0,
			"-0.018": 0.0,
			"-0.017": 0.0,
			"-0.016": 0.0,
			"-0.015": 0.286447163406,
			"-0.014": 2.23061100778,
			"-0.013": 2.03402794208,
			"-0.012": 1.89763400408,
			"-0.011": 3.03099696972,
			"-0.01": 2.45506981109,
			"-0.009": 2.69474487413,
			"-0.008": 3.35952599901,
			"-0.007": 5.38617362064,
			"-0.006": 12.1849360167,
			"-0.005": 16.5338235171,
			"-0.004": 18.1721830237,
			"-0.003": 17.9520742208,
			"-0.002": 19.7320784496,
			"-0.001": 21.2477436546,
			"0.0": 21.6353365353,
			"0.001": 19.0309258463,
			"0.002": 16.5550599299,
			"0.003": 14.0285584419,
			"0.004": 14.6603324216,
			"0.005": 11.049718761,
			"0.006": 3.15500028518,
			"0.007": 2.72754751486,
			"0.008": 3.99449960458,
			"0.009": 2.60417208589,
			"0.01": 2.0150186928,
			"0.011": 3.71592497876,
			"0.012": 4.20513377333,
			"0.013": 4.96394179414,
			"0.014": 6.03015132821,
			"0.015": 0.624938549689,
			"0.016": 0.0,
			"0.017": 0.0,
			"0.018": 0.0,
			"0.019": 0.0,
			"0.02": 0.0,
			"0.021": 0.0,
			"0.022": 0.0,
			"0.023": 0.0,
			"0.024": 0.0,
			"0.025": 0.0
		}
	}
}
