{
	 "smiles": "FC(F)(F)C(F)(F)C(F)(F)C(F)(F)OC(F)(F)C(F)(F)C(F)(F)C(F)(F)F", 
	 "Tm": 173.15, 
	 "num_atms": 27, 
	 "gaussian": { 
		 "optdone": 1, 
		 "sigma_profile": "yes", 
		 "theory": "DFT", 
		 "functional": "B3LYP", 
		 "basiset": "6-31G**", 
		 "properties": { 
			 "R2extent": 10137.0093, 
			 "electric_dipole_moment_norm": 0.362216565055, 
			 "electric_quadrupole_moment_norm": 0.613065379874, 
			 "total_energy": -2177.14240742, 
			 "HOMO_LUMO_gap": 0.381, 
			 "cosmo_polarized_energy": -1.3, 
			 "cosmo_cavitation_energy": 38.78, 
			 "cosmo_dispersion_energy": -24.41, 
			 "cosmo_repulsion_energy": 1.52, 
			 "cosmo_total_nonelectrostatic_energy": 15.88, 
			 "SMD_solvation_energy": 12.54 
		},
		"coords": [
			{
				"x": 4.3236526711,
				"y": 0.1223152427,
				"z": -2.4244727976,
				"element": "F" 
			},
			{
				"x": 3.9069770298,
				"y": -1.0711567633,
				"z": -2.8639125078,
				"element": "C" 
			},
			{
				"x": 4.8780407969,
				"y": -1.6292552778,
				"z": -3.5942582929,
				"element": "F" 
			},
			{
				"x": 2.8285100367,
				"y": -0.9038638568,
				"z": -3.640652793,
				"element": "F" 
			},
			{
				"x": 3.5711224664,
				"y": -2.0064496251,
				"z": -1.6762350929,
				"element": "C" 
			},
			{
				"x": 4.7414334749,
				"y": -2.3626147264,
				"z": -1.0985322286,
				"element": "F" 
			},
			{
				"x": 2.9687599115,
				"y": -3.1090351251,
				"z": -2.1735535197,
				"element": "F" 
			},
			{
				"x": 2.6869672111,
				"y": -1.4312750742,
				"z": -0.530999255,
				"element": "C" 
			},
			{
				"x": 3.3684921605,
				"y": -0.441554568,
				"z": 0.0845120747,
				"element": "F" 
			},
			{
				"x": 2.4936413357,
				"y": -2.4478833884,
				"z": 0.3384605302,
				"element": "F" 
			},
			{
				"x": 1.2954100704,
				"y": -0.8766807423,
				"z": -0.9336421637,
				"element": "C" 
			},
			{
				"x": 1.4603303294,
				"y": 0.2523448968,
				"z": -1.6530683088,
				"element": "F" 
			},
			{
				"x": 0.6401726251,
				"y": -1.7706795053,
				"z": -1.6986678888,
				"element": "F" 
			},
			{
				"x": 0.6143195265,
				"y": -0.6071756998,
				"z": 0.24066687,
				"element": "O" 
			},
			{
				"x": -0.7571573778,
				"y": -0.4315899148,
				"z": 0.2151221904,
				"element": "C" 
			},
			{
				"x": -1.1509624967,
				"y": 0.326745584,
				"z": -0.8296144451,
				"element": "F" 
			},
			{
				"x": -1.3929040624,
				"y": -1.6140628209,
				"z": 0.1236196111,
				"element": "F" 
			},
			{
				"x": -1.1906445235,
				"y": 0.2450736194,
				"z": 1.5418343641,
				"element": "C" 
			},
			{
				"x": -2.5158275608,
				"y": 0.4899790609,
				"z": 1.4439795777,
				"element": "F" 
			},
			{
				"x": -0.9738524414,
				"y": -0.6380334419,
				"z": 2.5415560802,
				"element": "F" 
			},
			{
				"x": -0.4800640161,
				"y": 1.5659597956,
				"z": 1.9561969259,
				"element": "C" 
			},
			{
				"x": 0.8011972253,
				"y": 1.2912948437,
				"z": 2.282005594,
				"element": "F" 
			},
			{
				"x": -1.1295675167,
				"y": 2.0106634686,
				"z": 3.0574560975,
				"element": "F" 
			},
			{
				"x": -0.4725799693,
				"y": 2.7212945947,
				"z": 0.9260910129,
				"element": "C" 
			},
			{
				"x": -0.0455610814,
				"y": 3.8369286403,
				"z": 1.5257547207,
				"element": "F" 
			},
			{
				"x": -1.7025012789,
				"y": 2.9297817567,
				"z": 0.440855019,
				"element": "F" 
			},
			{
				"x": 0.3571954538,
				"y": 2.4328290267,
				"z": -0.0866013744,
				"element": "F" 
			}
		],
		 "valence_orbital": [ 
			{
				"type": "occ",
				"energy": -0.40906,
				"method": "rhf"
			},
			{
				"type": "occ",
				"energy": -0.39987,
				"method": "rhf"
			},
			{
				"type": "occ",
				"energy": -0.38999,
				"method": "rhf"
			},
			{
				"type": "occ",
				"energy": -0.36988,
				"method": "rhf"
			},
			{
				"type": "occ",
				"energy": -0.3625,
				"method": "rhf"
			},
			{
				"type": "unocc",
				"energy": 0.0185,
				"method": "rhf"
			},
			{
				"type": "unocc",
				"energy": 0.02766,
				"method": "rhf"
			},
			{
				"type": "unocc",
				"energy": 0.03494,
				"method": "rhf"
			},
			{
				"type": "unocc",
				"energy": 0.03968,
				"method": "rhf"
			},
			{
				"type": "unocc",
				"energy": 0.08582,
				"method": "rhf"
			}
		],
		"cosmo_sigma_profile": { 
			"-0.025": 0.0,
			"-0.024": 0.0,
			"-0.023": 0.0,
			"-0.022": 0.0,
			"-0.021": 0.0,
			"-0.02": 0.0,
			"-0.019": 0.0,
			"-0.018": 0.0,
			"-0.017": 0.0,
			"-0.016": 0.0,
			"-0.015": 0.0,
			"-0.014": 0.0,
			"-0.013": 0.0,
			"-0.012": 0.0,
			"-0.011": 0.0,
			"-0.01": 0.0,
			"-0.009": 0.0,
			"-0.008": 0.0,
			"-0.007": 0.0,
			"-0.006": 0.0,
			"-0.005": 0.676416304254,
			"-0.004": 3.32686693939,
			"-0.003": 11.1504834176,
			"-0.002": 21.008845753,
			"-0.001": 42.3383974549,
			"0.0": 103.802475093,
			"0.001": 124.637995325,
			"0.002": 5.36441748954,
			"0.003": 0.0,
			"0.004": 0.0,
			"0.005": 0.0,
			"0.006": 0.0,
			"0.007": 0.0,
			"0.008": 0.0,
			"0.009": 0.0,
			"0.01": 0.0,
			"0.011": 0.0,
			"0.012": 0.0,
			"0.013": 0.0,
			"0.014": 0.0,
			"0.015": 0.0,
			"0.016": 0.0,
			"0.017": 0.0,
			"0.018": 0.0,
			"0.019": 0.0,
			"0.02": 0.0,
			"0.021": 0.0,
			"0.022": 0.0,
			"0.023": 0.0,
			"0.024": 0.0,
			"0.025": 0.0
		}
	}
}
