{
	 "smiles": "N#CC1=CC=CC2=C1SC=C2", 
	 "Tm": 343.15, 
	 "num_atms": 16, 
	 "gaussian": { 
		 "optdone": 1, 
		 "sigma_profile": "yes", 
		 "theory": "DFT", 
		 "functional": "B3LYP", 
		 "basiset": "6-31G**", 
		 "properties": { 
			 "R2extent": 2783.7402, 
			 "electric_dipole_moment_norm": 5.07707138713, 
			 "electric_quadrupole_moment_norm": 20.4166849758, 
			 "total_energy": -798.89169752, 
			 "HOMO_LUMO_gap": 0.17647, 
			 "cosmo_polarized_energy": -9.22, 
			 "cosmo_cavitation_energy": 22.86, 
			 "cosmo_dispersion_energy": -17.02, 
			 "cosmo_repulsion_energy": 1.3, 
			 "cosmo_total_nonelectrostatic_energy": 7.15, 
			 "SMD_solvation_energy": 5.02 
		},
		"coords": [
			{
				"x": -4.2292435491,
				"y": -3.0145941148,
				"z": 0.4047149971,
				"element": "N" 
			},
			{
				"x": -3.4675808938,
				"y": -2.1368566317,
				"z": 0.3450898414,
				"element": "C" 
			},
			{
				"x": -2.5240054954,
				"y": -1.0622997949,
				"z": 0.2772183995,
				"element": "C" 
			},
			{
				"x": -2.8287350323,
				"y": 0.1099301536,
				"z": -0.4254839168,
				"element": "C" 
			},
			{
				"x": -1.905189594,
				"y": 1.1622008724,
				"z": -0.4921079417,
				"element": "C" 
			},
			{
				"x": -0.6698382287,
				"y": 1.0663152217,
				"z": 0.1358322256,
				"element": "C" 
			},
			{
				"x": -0.3340582147,
				"y": -0.0983126152,
				"z": 0.8495278689,
				"element": "C" 
			},
			{
				"x": -1.2705515502,
				"y": -1.160220414,
				"z": 0.9146332903,
				"element": "C" 
			},
			{
				"x": -0.6520198793,
				"y": -2.5048191243,
				"z": 1.84743438,
				"element": "S" 
			},
			{
				"x": 0.8418797444,
				"y": -1.6413350594,
				"z": 2.1397156605,
				"element": "C" 
			},
			{
				"x": 0.8747145377,
				"y": -0.4105591072,
				"z": 1.568157733,
				"element": "C" 
			},
			{
				"x": -3.791290447,
				"y": 0.192232487,
				"z": -0.9183665209,
				"element": "H" 
			},
			{
				"x": -2.1647551792,
				"y": 2.0605328677,
				"z": -1.0429014297,
				"element": "H" 
			},
			{
				"x": 0.0401693003,
				"y": 1.8864108031,
				"z": 0.0793178166,
				"element": "H" 
			},
			{
				"x": 1.6140404549,
				"y": -2.1160908261,
				"z": 2.7300868589,
				"element": "H" 
			},
			{
				"x": 1.7188640264,
				"y": 0.2651652821,
				"z": 1.6437307374,
				"element": "H" 
			}
		],
		 "valence_orbital": [ 
			{
				"type": "occ",
				"energy": -0.33988,
				"method": "rhf"
			},
			{
				"type": "occ",
				"energy": -0.3322,
				"method": "rhf"
			},
			{
				"type": "occ",
				"energy": -0.29257,
				"method": "rhf"
			},
			{
				"type": "occ",
				"energy": -0.25656,
				"method": "rhf"
			},
			{
				"type": "occ",
				"energy": -0.23653,
				"method": "rhf"
			},
			{
				"type": "unocc",
				"energy": -0.06006,
				"method": "rhf"
			},
			{
				"type": "unocc",
				"energy": -0.03159,
				"method": "rhf"
			},
			{
				"type": "unocc",
				"energy": 0.00586,
				"method": "rhf"
			},
			{
				"type": "unocc",
				"energy": 0.01924,
				"method": "rhf"
			},
			{
				"type": "unocc",
				"energy": 0.03634,
				"method": "rhf"
			}
		],
		"cosmo_sigma_profile": { 
			"-0.025": 0.0,
			"-0.024": 0.0,
			"-0.023": 0.0,
			"-0.022": 0.0,
			"-0.021": 0.0,
			"-0.02": 0.0,
			"-0.019": 0.0,
			"-0.018": 0.0,
			"-0.017": 0.0,
			"-0.016": 0.0,
			"-0.015": 0.0,
			"-0.014": 0.0,
			"-0.013": 0.0,
			"-0.012": 0.0,
			"-0.011": 0.0,
			"-0.01": 0.125701899475,
			"-0.009": 2.12046193636,
			"-0.008": 5.23157849991,
			"-0.007": 11.6108976942,
			"-0.006": 11.4617388988,
			"-0.005": 10.4984594322,
			"-0.004": 7.62913712413,
			"-0.003": 8.17637784397,
			"-0.002": 11.3775919666,
			"-0.001": 13.2373577877,
			"0.0": 13.4428733112,
			"0.001": 22.0480993824,
			"0.002": 24.3512280606,
			"0.003": 16.1541927098,
			"0.004": 7.05079229302,
			"0.005": 3.0557436764,
			"0.006": 2.33803633844,
			"0.007": 2.63938318578,
			"0.008": 3.07658128802,
			"0.009": 3.28731532909,
			"0.01": 3.13870813391,
			"0.011": 2.79185615818,
			"0.012": 2.26707427741,
			"0.013": 1.09414816339,
			"0.014": 0.0,
			"0.015": 0.0,
			"0.016": 0.0,
			"0.017": 0.0,
			"0.018": 0.0,
			"0.019": 0.0,
			"0.02": 0.0,
			"0.021": 0.0,
			"0.022": 0.0,
			"0.023": 0.0,
			"0.024": 0.0,
			"0.025": 0.0
		}
	}
}
