{
	 "smiles": "COC(=O)C1=C(Cl)C2=C(C=CC=C2)N=N1", 
	 "Tm": 421.15, 
	 "num_atms": 22, 
	 "gaussian": { 
		 "optdone": 1, 
		 "sigma_profile": "yes", 
		 "theory": "DFT", 
		 "functional": "B3LYP", 
		 "basiset": "6-31G**", 
		 "properties": { 
			 "R2extent": 3789.844, 
			 "electric_dipole_moment_norm": 4.62859775742, 
			 "electric_quadrupole_moment_norm": 21.337197043, 
			 "total_energy": -1105.38450553, 
			 "HOMO_LUMO_gap": 0.15427, 
			 "cosmo_polarized_energy": -13.82, 
			 "cosmo_cavitation_energy": 29.09, 
			 "cosmo_dispersion_energy": -21.31, 
			 "cosmo_repulsion_energy": 1.65, 
			 "cosmo_total_nonelectrostatic_energy": 9.43, 
			 "SMD_solvation_energy": 4.35 
		},
		"coords": [
			{
				"x": -0.5828859281,
				"y": -4.5050723783,
				"z": 1.3773788925,
				"element": "C" 
			},
			{
				"x": -0.1196576675,
				"y": -3.1441008129,
				"z": 1.2966713108,
				"element": "O" 
			},
			{
				"x": -1.0173349939,
				"y": -2.2635521904,
				"z": 0.8208958845,
				"element": "C" 
			},
			{
				"x": -2.1494751672,
				"y": -2.536308397,
				"z": 0.4985151592,
				"element": "O" 
			},
			{
				"x": -0.4503865641,
				"y": -0.8673568546,
				"z": 0.771092473,
				"element": "C" 
			},
			{
				"x": 0.6728740072,
				"y": -0.4981713223,
				"z": 0.0558140887,
				"element": "C" 
			},
			{
				"x": 1.5846617002,
				"y": -1.6579372235,
				"z": -0.8832877837,
				"element": "Cl" 
			},
			{
				"x": 1.0639630523,
				"y": 0.8623906713,
				"z": 0.0642301502,
				"element": "C" 
			},
			{
				"x": 0.2332167949,
				"y": 1.7266374072,
				"z": 0.8430274948,
				"element": "C" 
			},
			{
				"x": 0.5390971414,
				"y": 3.1103739304,
				"z": 0.9245634881,
				"element": "C" 
			},
			{
				"x": 1.6288918956,
				"y": 3.6143452342,
				"z": 0.2558314194,
				"element": "C" 
			},
			{
				"x": 2.4518793435,
				"y": 2.7565374659,
				"z": -0.5188531821,
				"element": "C" 
			},
			{
				"x": 2.1807712898,
				"y": 1.4106148189,
				"z": -0.6182975976,
				"element": "C" 
			},
			{
				"x": -0.8681344607,
				"y": 1.286995426,
				"z": 1.5224017259,
				"element": "N" 
			},
			{
				"x": -1.1997947507,
				"y": 0.0340523614,
				"z": 1.4765369501,
				"element": "N" 
			},
			{
				"x": -1.4496872953,
				"y": -4.5735199191,
				"z": 2.0387633324,
				"element": "H" 
			},
			{
				"x": 0.2545481466,
				"y": -5.0749439247,
				"z": 1.7782702006,
				"element": "H" 
			},
			{
				"x": -0.8615461401,
				"y": -4.8728815834,
				"z": 0.386937435,
				"element": "H" 
			},
			{
				"x": -0.1154042624,
				"y": 3.7330472198,
				"z": 1.5248599016,
				"element": "H" 
			},
			{
				"x": 1.8655913772,
				"y": 4.6721445337,
				"z": 0.3157417548,
				"element": "H" 
			},
			{
				"x": 3.3090844826,
				"y": 3.1701504984,
				"z": -1.0415612889,
				"element": "H" 
			},
			{
				"x": 2.8122279988,
				"y": 0.7595550389,
				"z": -1.2114318092,
				"element": "H" 
			}
		],
		 "valence_orbital": [ 
			{
				"type": "occ",
				"energy": -0.30639,
				"method": "rhf"
			},
			{
				"type": "occ",
				"energy": -0.29256,
				"method": "rhf"
			},
			{
				"type": "occ",
				"energy": -0.27794,
				"method": "rhf"
			},
			{
				"type": "occ",
				"energy": -0.25556,
				"method": "rhf"
			},
			{
				"type": "occ",
				"energy": -0.24232,
				"method": "rhf"
			},
			{
				"type": "unocc",
				"energy": -0.08805,
				"method": "rhf"
			},
			{
				"type": "unocc",
				"energy": -0.05609,
				"method": "rhf"
			},
			{
				"type": "unocc",
				"energy": -0.00596,
				"method": "rhf"
			},
			{
				"type": "unocc",
				"energy": 0.00744,
				"method": "rhf"
			},
			{
				"type": "unocc",
				"energy": 0.01235,
				"method": "rhf"
			}
		],
		"cosmo_sigma_profile": { 
			"-0.025": 0.0,
			"-0.024": 0.0,
			"-0.023": 0.0,
			"-0.022": 0.0,
			"-0.021": 0.0,
			"-0.02": 0.0,
			"-0.019": 0.0,
			"-0.018": 0.0,
			"-0.017": 0.0,
			"-0.016": 0.0,
			"-0.015": 0.0,
			"-0.014": 0.0,
			"-0.013": 0.0,
			"-0.012": 0.0,
			"-0.011": 0.0,
			"-0.01": 0.0,
			"-0.009": 0.0,
			"-0.008": 2.08633191796,
			"-0.007": 11.3045229057,
			"-0.006": 16.3773613082,
			"-0.005": 16.172108168,
			"-0.004": 19.6115011585,
			"-0.003": 21.1033851454,
			"-0.002": 20.1521967508,
			"-0.001": 18.9649277824,
			"0.0": 20.3080609916,
			"0.001": 20.2666553083,
			"0.002": 16.3792922047,
			"0.003": 7.02049461065,
			"0.004": 4.89349382783,
			"0.005": 4.62410182246,
			"0.006": 4.50121836618,
			"0.007": 4.41255590924,
			"0.008": 3.1753428861,
			"0.009": 4.60389401292,
			"0.01": 5.35856407803,
			"0.011": 7.50404167952,
			"0.012": 4.48855023911,
			"0.013": 1.85612777489,
			"0.014": 1.36467955279,
			"0.015": 0.117089577909,
			"0.016": 0.0,
			"0.017": 0.0,
			"0.018": 0.0,
			"0.019": 0.0,
			"0.02": 0.0,
			"0.021": 0.0,
			"0.022": 0.0,
			"0.023": 0.0,
			"0.024": 0.0,
			"0.025": 0.0
		}
	}
}
