{
	 "smiles": "O=C(CC#N)N1CCN(CC1)C1=CC=CC=C1", 
	 "Tm": 406.15, 
	 "num_atms": 32, 
	 "gaussian": { 
		 "optdone": 1, 
		 "sigma_profile": "yes", 
		 "theory": "DFT", 
		 "functional": "B3LYP", 
		 "basiset": "6-31G**", 
		 "properties": { 
			 "R2extent": 7137.1411, 
			 "electric_dipole_moment_norm": 6.06914934484, 
			 "electric_quadrupole_moment_norm": 55.7298628897, 
			 "total_energy": -743.878266813, 
			 "HOMO_LUMO_gap": 0.19734, 
			 "cosmo_polarized_energy": -22.28, 
			 "cosmo_cavitation_energy": 35.05, 
			 "cosmo_dispersion_energy": -25.1, 
			 "cosmo_repulsion_energy": 1.93, 
			 "cosmo_total_nonelectrostatic_energy": 11.88, 
			 "SMD_solvation_energy": 6.1 
		},
		"coords": [
			{
				"x": -0.044116394,
				"y": 1.1442552152,
				"z": -5.2285246922,
				"element": "O" 
			},
			{
				"x": -0.6358401202,
				"y": 1.4981190639,
				"z": -4.2201494896,
				"element": "C" 
			},
			{
				"x": -1.8731468334,
				"y": 2.4187732935,
				"z": -4.2927730986,
				"element": "C" 
			},
			{
				"x": -2.2921340333,
				"y": 2.6715548512,
				"z": -5.6698120327,
				"element": "C" 
			},
			{
				"x": -2.6701072419,
				"y": 2.9018273005,
				"z": -6.7412524728,
				"element": "N" 
			},
			{
				"x": -0.2575136092,
				"y": 1.12667989,
				"z": -2.9572471174,
				"element": "N" 
			},
			{
				"x": 0.872137819,
				"y": 0.2023164484,
				"z": -2.8122626043,
				"element": "C" 
			},
			{
				"x": 0.5893746623,
				"y": -0.8367939805,
				"z": -1.7292970602,
				"element": "C" 
			},
			{
				"x": 0.2765888575,
				"y": -0.193222303,
				"z": -0.4542326516,
				"element": "N" 
			},
			{
				"x": -0.1164606633,
				"y": 1.2036863744,
				"z": -0.4967236186,
				"element": "C" 
			},
			{
				"x": -0.9730750395,
				"y": 1.495245263,
				"z": -1.7316675918,
				"element": "C" 
			},
			{
				"x": 0.5607571344,
				"y": -0.829665117,
				"z": 0.7535742388,
				"element": "C" 
			},
			{
				"x": 0.7235309075,
				"y": -2.2313967497,
				"z": 0.805038901,
				"element": "C" 
			},
			{
				"x": 1.0002037443,
				"y": -2.8723767694,
				"z": 2.0101502629,
				"element": "C" 
			},
			{
				"x": 1.1167075181,
				"y": -2.1510999748,
				"z": 3.1993764593,
				"element": "C" 
			},
			{
				"x": 0.9563254456,
				"y": -0.7659194203,
				"z": 3.1582674484,
				"element": "C" 
			},
			{
				"x": 0.6890745525,
				"y": -0.1073508115,
				"z": 1.9594534633,
				"element": "C" 
			},
			{
				"x": -2.7151753131,
				"y": 1.9839745795,
				"z": -3.7413100012,
				"element": "H" 
			},
			{
				"x": -1.6504518564,
				"y": 3.3798812098,
				"z": -3.8122889853,
				"element": "H" 
			},
			{
				"x": 1.0270279241,
				"y": -0.2806174096,
				"z": -3.777726624,
				"element": "H" 
			},
			{
				"x": 1.7874424044,
				"y": 0.7580289401,
				"z": -2.569953953,
				"element": "H" 
			},
			{
				"x": -0.2266069349,
				"y": -1.4980802174,
				"z": -2.0609010212,
				"element": "H" 
			},
			{
				"x": 1.4837075111,
				"y": -1.4602183459,
				"z": -1.6150746642,
				"element": "H" 
			},
			{
				"x": 0.7458243561,
				"y": 1.8920296679,
				"z": -0.4762020315,
				"element": "H" 
			},
			{
				"x": -0.7267296329,
				"y": 1.4311300946,
				"z": 0.3820521511,
				"element": "H" 
			},
			{
				"x": -1.2132640438,
				"y": 2.5637353531,
				"z": -1.7349356279,
				"element": "H" 
			},
			{
				"x": -1.9176378733,
				"y": 0.9387722693,
				"z": -1.6466041415,
				"element": "H" 
			},
			{
				"x": 0.6070939411,
				"y": -2.8265703902,
				"z": -0.093631817,
				"element": "H" 
			},
			{
				"x": 1.1149555002,
				"y": -3.9529883033,
				"z": 2.0157862412,
				"element": "H" 
			},
			{
				"x": 1.3292001771,
				"y": -2.6568310147,
				"z": 4.1357928234,
				"element": "H" 
			},
			{
				"x": 1.0529723353,
				"y": -0.1799056377,
				"z": 4.0683598002,
				"element": "H" 
			},
			{
				"x": 0.6087347985,
				"y": 0.9737266303,
				"z": 1.9639195066,
				"element": "H" 
			}
		],
		 "valence_orbital": [ 
			{
				"type": "occ",
				"energy": -0.29049,
				"method": "rhf"
			},
			{
				"type": "occ",
				"energy": -0.27081,
				"method": "rhf"
			},
			{
				"type": "occ",
				"energy": -0.25936,
				"method": "rhf"
			},
			{
				"type": "occ",
				"energy": -0.25102,
				"method": "rhf"
			},
			{
				"type": "occ",
				"energy": -0.20047,
				"method": "rhf"
			},
			{
				"type": "unocc",
				"energy": -0.00313,
				"method": "rhf"
			},
			{
				"type": "unocc",
				"energy": 0.00524,
				"method": "rhf"
			},
			{
				"type": "unocc",
				"energy": 0.01161,
				"method": "rhf"
			},
			{
				"type": "unocc",
				"energy": 0.02985,
				"method": "rhf"
			},
			{
				"type": "unocc",
				"energy": 0.03398,
				"method": "rhf"
			}
		],
		"cosmo_sigma_profile": { 
			"-0.025": 0.0,
			"-0.024": 0.0,
			"-0.023": 0.0,
			"-0.022": 0.0,
			"-0.021": 0.0,
			"-0.02": 0.0,
			"-0.019": 0.0,
			"-0.018": 0.0,
			"-0.017": 0.0,
			"-0.016": 0.0,
			"-0.015": 0.0,
			"-0.014": 0.0,
			"-0.013": 0.0,
			"-0.012": 0.0,
			"-0.011": 1.15498478763,
			"-0.01": 6.5786458751,
			"-0.009": 6.59824671589,
			"-0.008": 5.61494138654,
			"-0.007": 5.83167746487,
			"-0.006": 12.5634131882,
			"-0.005": 28.9129019082,
			"-0.004": 33.6844302354,
			"-0.003": 25.0049319064,
			"-0.002": 16.4510875821,
			"-0.001": 12.1854281042,
			"0.0": 11.4706214604,
			"0.001": 10.3368701983,
			"0.002": 9.61900325067,
			"0.003": 9.53847700534,
			"0.004": 9.84723486122,
			"0.005": 11.7125937796,
			"0.006": 11.6508374728,
			"0.007": 13.2366392658,
			"0.008": 8.60272101035,
			"0.009": 5.0634245653,
			"0.01": 5.06589225143,
			"0.011": 4.95089214926,
			"0.012": 5.31725750075,
			"0.013": 6.51466207725,
			"0.014": 0.684417274027,
			"0.015": 0.0,
			"0.016": 0.0,
			"0.017": 0.0,
			"0.018": 0.0,
			"0.019": 0.0,
			"0.02": 0.0,
			"0.021": 0.0,
			"0.022": 0.0,
			"0.023": 0.0,
			"0.024": 0.0,
			"0.025": 0.0
		}
	}
}
