{
	 "smiles": "OC1=NN=C(C(Cl)=C1)C1=CC=CC=C1", 
	 "Tm": 509.15, 
	 "num_atms": 21, 
	 "gaussian": { 
		 "optdone": 1, 
		 "sigma_profile": "yes", 
		 "theory": "DFT", 
		 "functional": "B3LYP", 
		 "basiset": "6-31G**", 
		 "properties": { 
			 "R2extent": 3509.2945, 
			 "electric_dipole_moment_norm": 3.70849917622, 
			 "electric_quadrupole_moment_norm": 26.5207271052, 
			 "total_energy": -1030.15502033, 
			 "HOMO_LUMO_gap": 0.17616, 
			 "cosmo_polarized_energy": -17.57, 
			 "cosmo_cavitation_energy": 27.61, 
			 "cosmo_dispersion_energy": -20.56, 
			 "cosmo_repulsion_energy": 1.61, 
			 "cosmo_total_nonelectrostatic_energy": 8.66, 
			 "SMD_solvation_energy": 3.13 
		},
		"coords": [
			{
				"x": 1.9172432272,
				"y": 3.3251495714,
				"z": -3.0876086317,
				"element": "O" 
			},
			{
				"x": 1.3042400578,
				"y": 2.4847247363,
				"z": -2.2245320527,
				"element": "C" 
			},
			{
				"x": 0.5055151121,
				"y": 3.0869018231,
				"z": -1.3449034325,
				"element": "N" 
			},
			{
				"x": -0.1667815791,
				"y": 2.3511179224,
				"z": -0.4742886449,
				"element": "N" 
			},
			{
				"x": -0.0702633577,
				"y": 1.0094622753,
				"z": -0.4241250947,
				"element": "C" 
			},
			{
				"x": 0.812525498,
				"y": 0.3501400913,
				"z": -1.3107717271,
				"element": "C" 
			},
			{
				"x": 1.1284681443,
				"y": -1.3718640609,
				"z": -1.2431679647,
				"element": "Cl" 
			},
			{
				"x": 1.5084910323,
				"y": 1.0970754217,
				"z": -2.2403087818,
				"element": "C" 
			},
			{
				"x": -0.9065696504,
				"y": 0.3589738664,
				"z": 0.6179215529,
				"element": "C" 
			},
			{
				"x": -1.0247237804,
				"y": 0.980846321,
				"z": 1.8716645693,
				"element": "C" 
			},
			{
				"x": -1.8274815248,
				"y": 0.4247198613,
				"z": 2.8648401981,
				"element": "C" 
			},
			{
				"x": -2.5354220915,
				"y": -0.7535491447,
				"z": 2.6177531865,
				"element": "C" 
			},
			{
				"x": -2.439520365,
				"y": -1.3681322628,
				"z": 1.3684372806,
				"element": "C" 
			},
			{
				"x": -1.6309904535,
				"y": -0.8179849997,
				"z": 0.3742293695,
				"element": "C" 
			},
			{
				"x": 2.4768253348,
				"y": 2.8213160774,
				"z": -3.6928040837,
				"element": "H" 
			},
			{
				"x": 2.2002043002,
				"y": 0.6246129144,
				"z": -2.9304375382,
				"element": "H" 
			},
			{
				"x": -0.4851474485,
				"y": 1.9042791901,
				"z": 2.0511088011,
				"element": "H" 
			},
			{
				"x": -1.9017794174,
				"y": 0.9129523671,
				"z": 3.8321965012,
				"element": "H" 
			},
			{
				"x": -3.1621909747,
				"y": -1.1867777792,
				"z": 3.3919402598,
				"element": "H" 
			},
			{
				"x": -3.0000433329,
				"y": -2.2753267752,
				"z": 1.1623732688,
				"element": "H" 
			},
			{
				"x": -1.5819987308,
				"y": -1.2956374169,
				"z": -0.5978170355,
				"element": "H" 
			}
		],
		 "valence_orbital": [ 
			{
				"type": "occ",
				"energy": -0.29503,
				"method": "rhf"
			},
			{
				"type": "occ",
				"energy": -0.28233,
				"method": "rhf"
			},
			{
				"type": "occ",
				"energy": -0.25308,
				"method": "rhf"
			},
			{
				"type": "occ",
				"energy": -0.23928,
				"method": "rhf"
			},
			{
				"type": "occ",
				"energy": -0.23776,
				"method": "rhf"
			},
			{
				"type": "unocc",
				"energy": -0.0616,
				"method": "rhf"
			},
			{
				"type": "unocc",
				"energy": -0.0422,
				"method": "rhf"
			},
			{
				"type": "unocc",
				"energy": -0.00277,
				"method": "rhf"
			},
			{
				"type": "unocc",
				"energy": 0.00897,
				"method": "rhf"
			},
			{
				"type": "unocc",
				"energy": 0.01501,
				"method": "rhf"
			}
		],
		"cosmo_sigma_profile": { 
			"-0.025": 0.0,
			"-0.024": 0.0,
			"-0.023": 0.0,
			"-0.022": 0.0,
			"-0.021": 0.0264379602647,
			"-0.02": 0.853199709635,
			"-0.019": 1.45611075227,
			"-0.018": 1.40930797186,
			"-0.017": 1.43136905682,
			"-0.016": 0.547567277294,
			"-0.015": 0.546105328766,
			"-0.014": 0.901070923974,
			"-0.013": 1.62451223076,
			"-0.012": 1.85948247647,
			"-0.011": 1.71186977871,
			"-0.01": 1.31667455906,
			"-0.009": 1.23186089867,
			"-0.008": 1.59598721152,
			"-0.007": 2.52100691601,
			"-0.006": 8.4148631273,
			"-0.005": 12.2345762581,
			"-0.004": 15.5199146498,
			"-0.003": 17.1197065421,
			"-0.002": 19.4613735112,
			"-0.001": 16.8097027272,
			"0.0": 12.1771765655,
			"0.001": 14.3348155624,
			"0.002": 14.880753333,
			"0.003": 16.8266734658,
			"0.004": 14.0202418982,
			"0.005": 12.9444687838,
			"0.006": 4.06131687998,
			"0.007": 3.23156125141,
			"0.008": 2.94408048874,
			"0.009": 3.31396478898,
			"0.01": 4.4389301944,
			"0.011": 3.7813667989,
			"0.012": 2.67323898971,
			"0.013": 2.88824242318,
			"0.014": 2.40173043948,
			"0.015": 0.988458862591,
			"0.016": 0.0233606419836,
			"0.017": 0.0,
			"0.018": 0.0,
			"0.019": 0.0,
			"0.02": 0.0,
			"0.021": 0.0,
			"0.022": 0.0,
			"0.023": 0.0,
			"0.024": 0.0,
			"0.025": 0.0
		}
	}
}
