{
	 "smiles": "OC(=O)CCCCCCCCCCCCC(O)=O", 
	 "Tm": 400.15, 
	 "num_atms": 44, 
	 "gaussian": { 
		 "optdone": 1, 
		 "sigma_profile": "yes", 
		 "theory": "DFT", 
		 "functional": "B3LYP", 
		 "basiset": "6-31G**", 
		 "properties": { 
			 "R2extent": 10650.6468, 
			 "electric_dipole_moment_norm": 8.20315807052, 
			 "electric_quadrupole_moment_norm": 22.8769233535, 
			 "total_energy": -850.099409216, 
			 "HOMO_LUMO_gap": 0.27491, 
			 "cosmo_polarized_energy": -26.56, 
			 "cosmo_cavitation_energy": 46.09, 
			 "cosmo_dispersion_energy": -30.9, 
			 "cosmo_repulsion_energy": 2.52, 
			 "cosmo_total_nonelectrostatic_energy": 17.72, 
			 "SMD_solvation_energy": 8.57 
		},
		"coords": [
			{
				"x": -4.7232562504,
				"y": 1.9380678545,
				"z": -4.3944054857,
				"element": "O" 
			},
			{
				"x": -3.7116461396,
				"y": 1.041308126,
				"z": -4.2198907309,
				"element": "C" 
			},
			{
				"x": -2.9933958592,
				"y": 0.7587266891,
				"z": -5.14491904,
				"element": "O" 
			},
			{
				"x": -3.5898509174,
				"y": 0.4659696283,
				"z": -2.8138417988,
				"element": "C" 
			},
			{
				"x": -2.4372582277,
				"y": -0.5329521414,
				"z": -2.6770436708,
				"element": "C" 
			},
			{
				"x": -2.3339871109,
				"y": -1.1837092466,
				"z": -1.2891543833,
				"element": "C" 
			},
			{
				"x": -1.9524480389,
				"y": -0.2252747628,
				"z": -0.1514681426,
				"element": "C" 
			},
			{
				"x": -1.8204608653,
				"y": -0.9332591589,
				"z": 1.2064893415,
				"element": "C" 
			},
			{
				"x": -1.458619325,
				"y": -0.0193123631,
				"z": 2.3984605987,
				"element": "C" 
			},
			{
				"x": 0.0424618779,
				"y": 0.1392538642,
				"z": 2.7032974404,
				"element": "C" 
			},
			{
				"x": 0.8807517722,
				"y": 0.8294271446,
				"z": 1.616790483,
				"element": "C" 
			},
			{
				"x": 2.314833348,
				"y": 1.1789951546,
				"z": 2.0555785005,
				"element": "C" 
			},
			{
				"x": 3.214435212,
				"y": -0.0086187745,
				"z": 2.4411487268,
				"element": "C" 
			},
			{
				"x": 3.5011742585,
				"y": -0.987258413,
				"z": 1.2939993254,
				"element": "C" 
			},
			{
				"x": 4.4807570934,
				"y": -2.1023904903,
				"z": 1.7095474611,
				"element": "C" 
			},
			{
				"x": 4.8494384278,
				"y": -3.05755377,
				"z": 0.5820403221,
				"element": "C" 
			},
			{
				"x": 3.8075245176,
				"y": -3.7267683469,
				"z": 0.009819488,
				"element": "O" 
			},
			{
				"x": 5.9712124106,
				"y": -3.2434097808,
				"z": 0.1839265635,
				"element": "O" 
			},
			{
				"x": -5.2085033201,
				"y": 2.0585525504,
				"z": -3.56582682,
				"element": "H" 
			},
			{
				"x": -4.5460359808,
				"y": -0.0133366086,
				"z": -2.5560935505,
				"element": "H" 
			},
			{
				"x": -3.4751687894,
				"y": 1.305148884,
				"z": -2.114256945,
				"element": "H" 
			},
			{
				"x": -1.4979116443,
				"y": -0.0252995605,
				"z": -2.9252464736,
				"element": "H" 
			},
			{
				"x": -2.564911308,
				"y": -1.308677568,
				"z": -3.4390466561,
				"element": "H" 
			},
			{
				"x": -3.2845037995,
				"y": -1.6799456151,
				"z": -1.0441844645,
				"element": "H" 
			},
			{
				"x": -1.5840794891,
				"y": -1.984074428,
				"z": -1.3411096626,
				"element": "H" 
			},
			{
				"x": -1.0156209846,
				"y": 0.2829989488,
				"z": -0.4112013047,
				"element": "H" 
			},
			{
				"x": -2.7084526297,
				"y": 0.5662871096,
				"z": -0.0553938107,
				"element": "H" 
			},
			{
				"x": -2.7765195906,
				"y": -1.4298381528,
				"z": 1.4188942514,
				"element": "H" 
			},
			{
				"x": -1.0802992384,
				"y": -1.7430546547,
				"z": 1.1280481523,
				"element": "H" 
			},
			{
				"x": -1.9060018553,
				"y": 0.9730058668,
				"z": 2.2446754134,
				"element": "H" 
			},
			{
				"x": -1.9327221231,
				"y": -0.4210102648,
				"z": 3.3024959412,
				"element": "H" 
			},
			{
				"x": 0.459340542,
				"y": -0.8544173907,
				"z": 2.918795981,
				"element": "H" 
			},
			{
				"x": 0.1424795803,
				"y": 0.7129499674,
				"z": 3.6355110358,
				"element": "H" 
			},
			{
				"x": 0.3799659167,
				"y": 1.7603916525,
				"z": 1.3188228021,
				"element": "H" 
			},
			{
				"x": 0.9123157944,
				"y": 0.2066032758,
				"z": 0.714189662,
				"element": "H" 
			},
			{
				"x": 2.803289103,
				"y": 1.7422577998,
				"z": 1.2491910775,
				"element": "H" 
			},
			{
				"x": 2.261605997,
				"y": 1.8630090035,
				"z": 2.9130850094,
				"element": "H" 
			},
			{
				"x": 4.170314308,
				"y": 0.3866919543,
				"z": 2.8086440611,
				"element": "H" 
			},
			{
				"x": 2.77384627,
				"y": -0.5571659071,
				"z": 3.2842415363,
				"element": "H" 
			},
			{
				"x": 3.9198214353,
				"y": -0.4403810396,
				"z": 0.4394615901,
				"element": "H" 
			},
			{
				"x": 2.5576334097,
				"y": -1.425421029,
				"z": 0.9403233718,
				"element": "H" 
			},
			{
				"x": 5.416785588,
				"y": -1.6713428313,
				"z": 2.07169812,
				"element": "H" 
			},
			{
				"x": 4.0481020453,
				"y": -2.6848633633,
				"z": 2.5355279361,
				"element": "H" 
			},
			{
				"x": 2.9764645794,
				"y": -3.4813098123,
				"z": 0.4397787474,
				"element": "H" 
			}
		],
		 "valence_orbital": [ 
			{
				"type": "occ",
				"energy": -0.31391,
				"method": "rhf"
			},
			{
				"type": "occ",
				"energy": -0.31211,
				"method": "rhf"
			},
			{
				"type": "occ",
				"energy": -0.3113,
				"method": "rhf"
			},
			{
				"type": "occ",
				"energy": -0.27215,
				"method": "rhf"
			},
			{
				"type": "occ",
				"energy": -0.26495,
				"method": "rhf"
			},
			{
				"type": "unocc",
				"energy": 0.00996,
				"method": "rhf"
			},
			{
				"type": "unocc",
				"energy": 0.0107,
				"method": "rhf"
			},
			{
				"type": "unocc",
				"energy": 0.03911,
				"method": "rhf"
			},
			{
				"type": "unocc",
				"energy": 0.05253,
				"method": "rhf"
			},
			{
				"type": "unocc",
				"energy": 0.07206,
				"method": "rhf"
			}
		],
		"cosmo_sigma_profile": { 
			"-0.025": 0.0,
			"-0.024": 0.0,
			"-0.023": 0.0,
			"-0.022": 0.0,
			"-0.021": 0.0,
			"-0.02": 0.0,
			"-0.019": 0.151964996583,
			"-0.018": 1.67389701016,
			"-0.017": 1.78576756436,
			"-0.016": 2.18441261678,
			"-0.015": 2.43418977317,
			"-0.014": 1.8544901695,
			"-0.013": 2.38723379217,
			"-0.012": 1.41879025265,
			"-0.011": 2.60154856952,
			"-0.01": 2.26493657425,
			"-0.009": 2.739013041,
			"-0.008": 2.31173450759,
			"-0.007": 4.31649381509,
			"-0.006": 8.27372877004,
			"-0.005": 9.32981479565,
			"-0.004": 12.3168526016,
			"-0.003": 22.3181906448,
			"-0.002": 48.8171508143,
			"-0.001": 59.4708809123,
			"0.0": 52.2845302429,
			"0.001": 32.2718927511,
			"0.002": 10.6922820593,
			"0.003": 4.70772457141,
			"0.004": 3.08145117379,
			"0.005": 4.06918622271,
			"0.006": 4.99461331674,
			"0.007": 4.31325481784,
			"0.008": 5.2983249437,
			"0.009": 6.25269801263,
			"0.01": 8.46471839381,
			"0.011": 11.3199602292,
			"0.012": 12.2093589238,
			"0.013": 6.14068100259,
			"0.014": 0.458530679923,
			"0.015": 0.0,
			"0.016": 0.0,
			"0.017": 0.0,
			"0.018": 0.0,
			"0.019": 0.0,
			"0.02": 0.0,
			"0.021": 0.0,
			"0.022": 0.0,
			"0.023": 0.0,
			"0.024": 0.0,
			"0.025": 0.0
		}
	}
}
