{
	 "smiles": "O=C1C=C(NCCC2=NC=CC=C2)C(=O)C2=C1C=CC=C2", 
	 "Tm": 401.15, 
	 "num_atms": 35, 
	 "gaussian": { 
		 "optdone": 1, 
		 "sigma_profile": "yes", 
		 "theory": "DFT", 
		 "functional": "B3LYP", 
		 "basiset": "6-31G**", 
		 "properties": { 
			 "R2extent": 8372.3747, 
			 "electric_dipole_moment_norm": 4.5657032558, 
			 "electric_quadrupole_moment_norm": 15.272233191, 
			 "total_energy": -916.206188461, 
			 "HOMO_LUMO_gap": 0.12084, 
			 "cosmo_polarized_energy": -15.81, 
			 "cosmo_cavitation_energy": 39.92, 
			 "cosmo_dispersion_energy": -28.19, 
			 "cosmo_repulsion_energy": 2.13, 
			 "cosmo_total_nonelectrostatic_energy": 13.86, 
			 "SMD_solvation_energy": 5.31 
		},
		"coords": [
			{
				"x": -0.3053249262,
				"y": 3.4819610382,
				"z": -1.1806468206,
				"element": "O" 
			},
			{
				"x": -0.3850233268,
				"y": 2.2516755167,
				"z": -1.165528241,
				"element": "C" 
			},
			{
				"x": -0.3367247474,
				"y": 1.4878181026,
				"z": 0.0675648628,
				"element": "C" 
			},
			{
				"x": -0.4348210184,
				"y": 0.1213102749,
				"z": 0.0895899208,
				"element": "C" 
			},
			{
				"x": -0.4356500957,
				"y": -0.6638831922,
				"z": 1.1878490343,
				"element": "N" 
			},
			{
				"x": -0.2428548539,
				"y": -0.1860773684,
				"z": 2.5438266526,
				"element": "C" 
			},
			{
				"x": -0.5000546163,
				"y": -1.3038401575,
				"z": 3.5631659556,
				"element": "C" 
			},
			{
				"x": 0.5004670651,
				"y": -2.437494385,
				"z": 3.4584802408,
				"element": "C" 
			},
			{
				"x": 1.7828813641,
				"y": -2.1132834516,
				"z": 3.7000054095,
				"element": "N" 
			},
			{
				"x": 2.7032913707,
				"y": -3.0777599297,
				"z": 3.6133874663,
				"element": "C" 
			},
			{
				"x": 2.4091793251,
				"y": -4.4033664434,
				"z": 3.2849846944,
				"element": "C" 
			},
			{
				"x": 1.0808817172,
				"y": -4.7369362756,
				"z": 3.0329678303,
				"element": "C" 
			},
			{
				"x": 0.1096402872,
				"y": -3.7388211492,
				"z": 3.1213177099,
				"element": "C" 
			},
			{
				"x": -0.5633590886,
				"y": -0.6667061329,
				"z": -1.1913035743,
				"element": "C" 
			},
			{
				"x": -0.6145617802,
				"y": -1.8927327718,
				"z": -1.1383924771,
				"element": "O" 
			},
			{
				"x": -0.6179750802,
				"y": 0.0868057675,
				"z": -2.4624142417,
				"element": "C" 
			},
			{
				"x": -0.5348469443,
				"y": 1.4915642976,
				"z": -2.455363937,
				"element": "C" 
			},
			{
				"x": -0.5879517833,
				"y": 2.1890397389,
				"z": -3.6628315381,
				"element": "C" 
			},
			{
				"x": -0.7231030227,
				"y": 1.4961010485,
				"z": -4.8663294608,
				"element": "C" 
			},
			{
				"x": -0.8050915992,
				"y": 0.099161675,
				"z": -4.8724399995,
				"element": "C" 
			},
			{
				"x": -0.7520067082,
				"y": -0.6058145413,
				"z": -3.6723602021,
				"element": "C" 
			},
			{
				"x": -0.2187332058,
				"y": 2.0657017971,
				"z": 0.977359117,
				"element": "H" 
			},
			{
				"x": -0.4106174475,
				"y": -1.6586557161,
				"z": 0.9923854626,
				"element": "H" 
			},
			{
				"x": -0.9348729651,
				"y": 0.6451578224,
				"z": 2.7293595792,
				"element": "H" 
			},
			{
				"x": 0.7787835364,
				"y": 0.1946575163,
				"z": 2.6806757233,
				"element": "H" 
			},
			{
				"x": -1.5202362887,
				"y": -1.6846082993,
				"z": 3.4442642807,
				"element": "H" 
			},
			{
				"x": -0.427193708,
				"y": -0.8626212197,
				"z": 4.5631494311,
				"element": "H" 
			},
			{
				"x": 3.7299071528,
				"y": -2.777743254,
				"z": 3.8176040158,
				"element": "H" 
			},
			{
				"x": 3.2000926173,
				"y": -5.1443426848,
				"z": 3.2292862676,
				"element": "H" 
			},
			{
				"x": 0.8023490612,
				"y": -5.7538105206,
				"z": 2.7718113163,
				"element": "H" 
			},
			{
				"x": -0.9365440571,
				"y": -3.9639196722,
				"z": 2.9359563634,
				"element": "H" 
			},
			{
				"x": -0.520294335,
				"y": 3.2712922859,
				"z": -3.6300014549,
				"element": "H" 
			},
			{
				"x": -0.7641809618,
				"y": 2.0441659953,
				"z": -5.8033883321,
				"element": "H" 
			},
			{
				"x": -0.9098768674,
				"y": -0.4357769768,
				"z": -5.8117023596,
				"element": "H" 
			},
			{
				"x": -0.8125740693,
				"y": -1.6888187347,
				"z": -3.6475886957,
				"element": "H" 
			}
		],
		 "valence_orbital": [ 
			{
				"type": "occ",
				"energy": -0.26567,
				"method": "rhf"
			},
			{
				"type": "occ",
				"energy": -0.26318,
				"method": "rhf"
			},
			{
				"type": "occ",
				"energy": -0.25968,
				"method": "rhf"
			},
			{
				"type": "occ",
				"energy": -0.23894,
				"method": "rhf"
			},
			{
				"type": "occ",
				"energy": -0.21696,
				"method": "rhf"
			},
			{
				"type": "unocc",
				"energy": -0.09612,
				"method": "rhf"
			},
			{
				"type": "unocc",
				"energy": -0.03598,
				"method": "rhf"
			},
			{
				"type": "unocc",
				"energy": -0.02967,
				"method": "rhf"
			},
			{
				"type": "unocc",
				"energy": -0.01959,
				"method": "rhf"
			},
			{
				"type": "unocc",
				"energy": -0.0003,
				"method": "rhf"
			}
		],
		"cosmo_sigma_profile": { 
			"-0.025": 0.0,
			"-0.024": 0.0,
			"-0.023": 0.0,
			"-0.022": 0.0,
			"-0.021": 0.0,
			"-0.02": 0.0,
			"-0.019": 0.0,
			"-0.018": 0.0,
			"-0.017": 0.0,
			"-0.016": 0.0,
			"-0.015": 0.0,
			"-0.014": 0.0,
			"-0.013": 0.0,
			"-0.012": 0.0,
			"-0.011": 0.0,
			"-0.01": 0.0,
			"-0.009": 0.0,
			"-0.008": 0.0929020313697,
			"-0.007": 8.54262772114,
			"-0.006": 24.9061729978,
			"-0.005": 31.0232744675,
			"-0.004": 28.4450109243,
			"-0.003": 25.6453220886,
			"-0.002": 22.6583437973,
			"-0.001": 20.9827961228,
			"0.0": 23.1909084119,
			"0.001": 25.0571059854,
			"0.002": 30.8736582358,
			"0.003": 25.1295347376,
			"0.004": 8.21779972294,
			"0.005": 5.39438017601,
			"0.006": 3.89136125951,
			"0.007": 5.28717557138,
			"0.008": 4.69135135678,
			"0.009": 4.76020548607,
			"0.01": 4.66229465134,
			"0.011": 4.04235491687,
			"0.012": 4.19560241384,
			"0.013": 4.73468523607,
			"0.014": 2.43319638184,
			"0.015": 1.05268017115,
			"0.016": 0.126565544734,
			"0.017": 0.0,
			"0.018": 0.0,
			"0.019": 0.0,
			"0.02": 0.0,
			"0.021": 0.0,
			"0.022": 0.0,
			"0.023": 0.0,
			"0.024": 0.0,
			"0.025": 0.0
		}
	}
}
