{
	 "smiles": "CC(C)C1=CC(C(C)C)=C(C=C1[N+]([O-])=O)[N+]([O-])=O", 
	 "Tm": 351.15, 
	 "num_atms": 34, 
	 "gaussian": { 
		 "optdone": 1, 
		 "sigma_profile": "yes", 
		 "theory": "DFT", 
		 "functional": "B3LYP", 
		 "basiset": "6-31G**", 
		 "properties": { 
			 "R2extent": 5211.0607, 
			 "electric_dipole_moment_norm": 5.47491817656, 
			 "electric_quadrupole_moment_norm": 10.1851867842, 
			 "total_energy": -877.131868224, 
			 "HOMO_LUMO_gap": 0.18051, 
			 "cosmo_polarized_energy": -11.19, 
			 "cosmo_cavitation_energy": 36.82, 
			 "cosmo_dispersion_energy": -25.07, 
			 "cosmo_repulsion_energy": 1.96, 
			 "cosmo_total_nonelectrostatic_energy": 13.7, 
			 "SMD_solvation_energy": 10.52 
		},
		"coords": [
			{
				"x": 1.9658614411,
				"y": -1.8263174157,
				"z": 1.175230538,
				"element": "C" 
			},
			{
				"x": 1.7575184869,
				"y": -0.2974378081,
				"z": 1.1955737974,
				"element": "C" 
			},
			{
				"x": 1.3355135301,
				"y": 0.1861998367,
				"z": 2.5947350638,
				"element": "C" 
			},
			{
				"x": 0.7753126899,
				"y": 0.1125336271,
				"z": 0.1017455024,
				"element": "C" 
			},
			{
				"x": -0.6026804402,
				"y": 0.059059264,
				"z": 0.3533507009,
				"element": "C" 
			},
			{
				"x": -1.6082377982,
				"y": 0.3911510733,
				"z": -0.5651030117,
				"element": "C" 
			},
			{
				"x": -3.0733539511,
				"y": 0.2676724851,
				"z": -0.155919126,
				"element": "C" 
			},
			{
				"x": -3.5637062971,
				"y": -1.1796589593,
				"z": -0.3704054697,
				"element": "C" 
			},
			{
				"x": -3.3358320498,
				"y": 0.7340661445,
				"z": 1.2874210427,
				"element": "C" 
			},
			{
				"x": -1.1578128137,
				"y": 0.8399145903,
				"z": -1.8231245974,
				"element": "C" 
			},
			{
				"x": 0.1942124881,
				"y": 0.9619008156,
				"z": -2.1178290699,
				"element": "C" 
			},
			{
				"x": 1.1414445933,
				"y": 0.5712667016,
				"z": -1.1798116805,
				"element": "C" 
			},
			{
				"x": 2.543858695,
				"y": 0.6727510905,
				"z": -1.6256840041,
				"element": "N" 
			},
			{
				"x": 3.3643874534,
				"y": -0.1130146703,
				"z": -1.1489579554,
				"element": "O" 
			},
			{
				"x": 2.8060579567,
				"y": 1.5246580111,
				"z": -2.4719661931,
				"element": "O" 
			},
			{
				"x": -2.07386042,
				"y": 1.2120658338,
				"z": -2.9177437885,
				"element": "N" 
			},
			{
				"x": -3.1683606252,
				"y": 0.6494937585,
				"z": -2.9772479711,
				"element": "O" 
			},
			{
				"x": -1.6761698867,
				"y": 2.048457162,
				"z": -3.7258136813,
				"element": "O" 
			},
			{
				"x": 2.6923991917,
				"y": -2.1152139622,
				"z": 1.9415178578,
				"element": "H" 
			},
			{
				"x": 2.3448844613,
				"y": -2.1543084287,
				"z": 0.2050502726,
				"element": "H" 
			},
			{
				"x": 1.0277308545,
				"y": -2.3535306636,
				"z": 1.3818112433,
				"element": "H" 
			},
			{
				"x": 2.7210157,
				"y": 0.1605894909,
				"z": 0.9672453902,
				"element": "H" 
			},
			{
				"x": 2.1484971929,
				"y": -0.0063451937,
				"z": 3.3015307914,
				"element": "H" 
			},
			{
				"x": 0.4524641386,
				"y": -0.338652314,
				"z": 2.9739499885,
				"element": "H" 
			},
			{
				"x": 1.125500274,
				"y": 1.2602109507,
				"z": 2.6076713422,
				"element": "H" 
			},
			{
				"x": -0.9157683551,
				"y": -0.2616934847,
				"z": 1.3385445063,
				"element": "H" 
			},
			{
				"x": -3.659484561,
				"y": 0.9063281547,
				"z": -0.8183464967,
				"element": "H" 
			},
			{
				"x": -3.002645118,
				"y": -1.881655431,
				"z": 0.2565872812,
				"element": "H" 
			},
			{
				"x": -3.4516430654,
				"y": -1.4774093031,
				"z": -1.4150458612,
				"element": "H" 
			},
			{
				"x": -4.6225257118,
				"y": -1.2593689785,
				"z": -0.1038489606,
				"element": "H" 
			},
			{
				"x": -2.9083056945,
				"y": 0.0566674411,
				"z": 2.0340213989,
				"element": "H" 
			},
			{
				"x": -2.9377062735,
				"y": 1.7371205671,
				"z": 1.4694941292,
				"element": "H" 
			},
			{
				"x": -4.4153357505,
				"y": 0.7630666967,
				"z": 1.4646860608,
				"element": "H" 
			},
			{
				"x": 0.5079696641,
				"y": 1.3501329177,
				"z": -3.0771190406,
				"element": "H" 
			}
		],
		 "valence_orbital": [ 
			{
				"type": "occ",
				"energy": -0.31537,
				"method": "rhf"
			},
			{
				"type": "occ",
				"energy": -0.30754,
				"method": "rhf"
			},
			{
				"type": "occ",
				"energy": -0.30315,
				"method": "rhf"
			},
			{
				"type": "occ",
				"energy": -0.28449,
				"method": "rhf"
			},
			{
				"type": "occ",
				"energy": -0.28029,
				"method": "rhf"
			},
			{
				"type": "unocc",
				"energy": -0.09978,
				"method": "rhf"
			},
			{
				"type": "unocc",
				"energy": -0.09361,
				"method": "rhf"
			},
			{
				"type": "unocc",
				"energy": -0.03173,
				"method": "rhf"
			},
			{
				"type": "unocc",
				"energy": -0.01234,
				"method": "rhf"
			},
			{
				"type": "unocc",
				"energy": 0.06107,
				"method": "rhf"
			}
		],
		"cosmo_sigma_profile": { 
			"-0.025": 0.0,
			"-0.024": 0.0,
			"-0.023": 0.0,
			"-0.022": 0.0,
			"-0.021": 0.0,
			"-0.02": 0.0,
			"-0.019": 0.0,
			"-0.018": 0.0,
			"-0.017": 0.0,
			"-0.016": 0.0,
			"-0.015": 0.0,
			"-0.014": 0.0,
			"-0.013": 0.0,
			"-0.012": 0.0,
			"-0.011": 0.0,
			"-0.01": 0.0,
			"-0.009": 0.402760640901,
			"-0.008": 2.52558800196,
			"-0.007": 6.61781229268,
			"-0.006": 7.49804427305,
			"-0.005": 9.02401961163,
			"-0.004": 17.9032261084,
			"-0.003": 35.5631563468,
			"-0.002": 37.6572067428,
			"-0.001": 40.0767268849,
			"0.0": 38.3849222488,
			"0.001": 22.574844052,
			"0.002": 7.44017710121,
			"0.003": 6.56956554243,
			"0.004": 6.30224327783,
			"0.005": 6.66811357547,
			"0.006": 9.00550076079,
			"0.007": 14.5280637612,
			"0.008": 10.9952687049,
			"0.009": 7.70030746194,
			"0.01": 2.51678374341,
			"0.011": 0.0,
			"0.012": 0.0,
			"0.013": 0.0,
			"0.014": 0.0,
			"0.015": 0.0,
			"0.016": 0.0,
			"0.017": 0.0,
			"0.018": 0.0,
			"0.019": 0.0,
			"0.02": 0.0,
			"0.021": 0.0,
			"0.022": 0.0,
			"0.023": 0.0,
			"0.024": 0.0,
			"0.025": 0.0
		}
	}
}
