{
	 "smiles": "CNC1=NC(NC(C)C)=NC(SC)=N1", 
	 "Tm": 358.15, 
	 "num_atms": 29, 
	 "gaussian": { 
		 "optdone": 1, 
		 "sigma_profile": "yes", 
		 "theory": "DFT", 
		 "functional": "B3LYP", 
		 "basiset": "6-31G**", 
		 "properties": { 
			 "R2extent": 4367.452, 
			 "electric_dipole_moment_norm": 3.25021045626, 
			 "electric_quadrupole_moment_norm": 13.7004318691, 
			 "total_energy": -985.890263837, 
			 "HOMO_LUMO_gap": 0.21958, 
			 "cosmo_polarized_energy": -12.52, 
			 "cosmo_cavitation_energy": 33.9, 
			 "cosmo_dispersion_energy": -24.54, 
			 "cosmo_repulsion_energy": 1.95, 
			 "cosmo_total_nonelectrostatic_energy": 11.31, 
			 "SMD_solvation_energy": 2.18 
		},
		"coords": [
			{
				"x": -0.6661825477,
				"y": 2.4774412867,
				"z": 1.8274613052,
				"element": "C" 
			},
			{
				"x": -0.6875311226,
				"y": 2.3653449314,
				"z": 0.382922162,
				"element": "N" 
			},
			{
				"x": -0.1935614628,
				"y": 1.3057305212,
				"z": -0.3014525745,
				"element": "C" 
			},
			{
				"x": 0.2796714154,
				"y": 0.2672582877,
				"z": 0.4019974602,
				"element": "N" 
			},
			{
				"x": 0.7270246355,
				"y": -0.7493433055,
				"z": -0.3595947755,
				"element": "C" 
			},
			{
				"x": 1.1957582254,
				"y": -1.8596194239,
				"z": 0.2591801072,
				"element": "N" 
			},
			{
				"x": 1.3654875438,
				"y": -2.0156549693,
				"z": 1.7024405013,
				"element": "C" 
			},
			{
				"x": 2.6842483327,
				"y": -1.3956275924,
				"z": 2.1887628975,
				"element": "C" 
			},
			{
				"x": 1.2579159104,
				"y": -3.5009739786,
				"z": 2.0592795947,
				"element": "C" 
			},
			{
				"x": 0.7456144867,
				"y": -0.7733063616,
				"z": -1.7105513679,
				"element": "N" 
			},
			{
				"x": 0.2552685679,
				"y": 0.3315247342,
				"z": -2.2740387805,
				"element": "C" 
			},
			{
				"x": 0.2871317464,
				"y": 0.3011179077,
				"z": -4.048853377,
				"element": "S" 
			},
			{
				"x": -0.4382951798,
				"y": 1.9246268309,
				"z": -4.456120316,
				"element": "C" 
			},
			{
				"x": -0.2314163687,
				"y": 1.4043743352,
				"z": -1.6529491743,
				"element": "N" 
			},
			{
				"x": -1.0967609789,
				"y": 1.583718047,
				"z": 2.2863288107,
				"element": "H" 
			},
			{
				"x": 0.3516288495,
				"y": 2.5985309124,
				"z": 2.2190914347,
				"element": "H" 
			},
			{
				"x": -1.2604465743,
				"y": 3.3462812356,
				"z": 2.1184686918,
				"element": "H" 
			},
			{
				"x": -0.9696644248,
				"y": 3.1483721426,
				"z": -0.185304752,
				"element": "H" 
			},
			{
				"x": 1.5881232507,
				"y": -2.5523104857,
				"z": -0.3630387307,
				"element": "H" 
			},
			{
				"x": 0.5376752266,
				"y": -1.4717135263,
				"z": 2.1667363849,
				"element": "H" 
			},
			{
				"x": 3.5445590788,
				"y": -1.8990848836,
				"z": 1.7331037547,
				"element": "H" 
			},
			{
				"x": 2.7755588316,
				"y": -1.4836533013,
				"z": 3.2769547663,
				"element": "H" 
			},
			{
				"x": 2.7234584984,
				"y": -0.3355616738,
				"z": 1.9251498169,
				"element": "H" 
			},
			{
				"x": 1.3505209015,
				"y": -3.6422813139,
				"z": 3.1400727095,
				"element": "H" 
			},
			{
				"x": 2.0590676561,
				"y": -4.0792355119,
				"z": 1.5820209605,
				"element": "H" 
			},
			{
				"x": 0.2982017827,
				"y": -3.9154659904,
				"z": 1.737059639,
				"element": "H" 
			},
			{
				"x": -1.4521591808,
				"y": 2.0052554318,
				"z": -4.0632971051,
				"element": "H" 
			},
			{
				"x": -0.4558588027,
				"y": 1.9773317875,
				"z": -5.5471207404,
				"element": "H" 
			},
			{
				"x": 0.1720617032,
				"y": 2.7339239264,
				"z": -4.0545093032,
				"element": "H" 
			}
		],
		 "valence_orbital": [ 
			{
				"type": "occ",
				"energy": -0.2554,
				"method": "rhf"
			},
			{
				"type": "occ",
				"energy": -0.25031,
				"method": "rhf"
			},
			{
				"type": "occ",
				"energy": -0.23727,
				"method": "rhf"
			},
			{
				"type": "occ",
				"energy": -0.2255,
				"method": "rhf"
			},
			{
				"type": "occ",
				"energy": -0.22022,
				"method": "rhf"
			},
			{
				"type": "unocc",
				"energy": -0.00064,
				"method": "rhf"
			},
			{
				"type": "unocc",
				"energy": 0.0136,
				"method": "rhf"
			},
			{
				"type": "unocc",
				"energy": 0.05016,
				"method": "rhf"
			},
			{
				"type": "unocc",
				"energy": 0.08409,
				"method": "rhf"
			},
			{
				"type": "unocc",
				"energy": 0.09173,
				"method": "rhf"
			}
		],
		"cosmo_sigma_profile": { 
			"-0.025": 0.0,
			"-0.024": 0.0,
			"-0.023": 0.0,
			"-0.022": 0.0,
			"-0.021": 0.0,
			"-0.02": 0.0,
			"-0.019": 0.0,
			"-0.018": 0.0,
			"-0.017": 0.0,
			"-0.016": 0.0,
			"-0.015": 0.0,
			"-0.014": 0.560893308264,
			"-0.013": 1.62023000072,
			"-0.012": 1.72499879554,
			"-0.011": 1.98348407876,
			"-0.01": 1.93737993266,
			"-0.009": 1.53466141046,
			"-0.008": 2.72755469271,
			"-0.007": 3.42729397323,
			"-0.006": 6.61865068649,
			"-0.005": 8.81958124369,
			"-0.004": 16.9745058303,
			"-0.003": 25.6739718111,
			"-0.002": 31.068386588,
			"-0.001": 29.3105962907,
			"0.0": 24.0689580965,
			"0.001": 23.9276867885,
			"0.002": 16.1987530069,
			"0.003": 12.0673728237,
			"0.004": 11.9569397667,
			"0.005": 9.29205589915,
			"0.006": 10.0717692351,
			"0.007": 9.06796896105,
			"0.008": 7.92049165043,
			"0.009": 4.25493726271,
			"0.01": 1.85722147686,
			"0.011": 0.977365991485,
			"0.012": 0.880083514393,
			"0.013": 1.10112841946,
			"0.014": 0.644377386756,
			"0.015": 0.0308287496069,
			"0.016": 0.0,
			"0.017": 0.0,
			"0.018": 0.0,
			"0.019": 0.0,
			"0.02": 0.0,
			"0.021": 0.0,
			"0.022": 0.0,
			"0.023": 0.0,
			"0.024": 0.0,
			"0.025": 0.0
		}
	}
}
